{
	 "smiles": "OCC1=CC=C(CC2=CC=CC=C2)C=C1", 
	 "Tm": 311.15, 
	 "num_atms": 29, 
	 "gaussian": { 
		 "optdone": 1, 
		 "sigma_profile": "yes", 
		 "theory": "DFT", 
		 "functional": "B3LYP", 
		 "basiset": "6-31G**", 
		 "properties": { 
			 "R2extent": 5228.8731, 
			 "electric_dipole_moment_norm": 1.6232063886, 
			 "electric_quadrupole_moment_norm": 10.4255594991, 
			 "total_energy": -617.146963684, 
			 "HOMO_LUMO_gap": 0.22265, 
			 "cosmo_polarized_energy": -10.11, 
			 "cosmo_cavitation_energy": 32.53, 
			 "cosmo_dispersion_energy": -23.3, 
			 "cosmo_repulsion_energy": 1.85, 
			 "cosmo_total_nonelectrostatic_energy": 11.08, 
			 "SMD_solvation_energy": 5.3 
		},
		"coords": [
			{
				"x": 0.732717197,
				"y": 4.6381893259,
				"z": -2.4953261258,
				"element": "O" 
			},
			{
				"x": 0.538925675,
				"y": 3.3326436148,
				"z": -3.0200334071,
				"element": "C" 
			},
			{
				"x": 1.0934753454,
				"y": 2.3046892798,
				"z": -2.0591793377,
				"element": "C" 
			},
			{
				"x": 1.3553855813,
				"y": 1.0013632362,
				"z": -2.5030821743,
				"element": "C" 
			},
			{
				"x": 1.8248048973,
				"y": 0.0292280209,
				"z": -1.6249687213,
				"element": "C" 
			},
			{
				"x": 2.059821437,
				"y": 0.3322723958,
				"z": -0.2752806929,
				"element": "C" 
			},
			{
				"x": 2.6013599137,
				"y": -0.7220569318,
				"z": 0.6760091157,
				"element": "C" 
			},
			{
				"x": 1.7538965262,
				"y": -1.9805280941,
				"z": 0.7769605536,
				"element": "C" 
			},
			{
				"x": 2.3083100067,
				"y": -3.2425628146,
				"z": 0.5345701206,
				"element": "C" 
			},
			{
				"x": 1.5354444972,
				"y": -4.4012964783,
				"z": 0.6481526734,
				"element": "C" 
			},
			{
				"x": 0.1910210271,
				"y": -4.3122178622,
				"z": 1.0072470988,
				"element": "C" 
			},
			{
				"x": -0.3748428275,
				"y": -3.0573297068,
				"z": 1.2500079156,
				"element": "C" 
			},
			{
				"x": 0.3992454296,
				"y": -1.9041699131,
				"z": 1.133780999,
				"element": "C" 
			},
			{
				"x": 1.8017978676,
				"y": 1.6357600042,
				"z": 0.1598393593,
				"element": "C" 
			},
			{
				"x": 1.3220351004,
				"y": 2.612311267,
				"z": -0.7168969947,
				"element": "C" 
			},
			{
				"x": 0.2492790859,
				"y": 5.2580636035,
				"z": -3.0539725234,
				"element": "H" 
			},
			{
				"x": 1.0326385836,
				"y": 3.2167162061,
				"z": -3.9989796085,
				"element": "H" 
			},
			{
				"x": -0.5342139365,
				"y": 3.1320912162,
				"z": -3.1823618255,
				"element": "H" 
			},
			{
				"x": 1.1916797241,
				"y": 0.7446923846,
				"z": -3.5478996461,
				"element": "H" 
			},
			{
				"x": 2.013208585,
				"y": -0.9779956356,
				"z": -1.9877455623,
				"element": "H" 
			},
			{
				"x": 2.7050329897,
				"y": -0.2741690978,
				"z": 1.6724233098,
				"element": "H" 
			},
			{
				"x": 3.6152142986,
				"y": -1.0063238242,
				"z": 0.3669363374,
				"element": "H" 
			},
			{
				"x": 3.3569482616,
				"y": -3.319987592,
				"z": 0.2567369822,
				"element": "H" 
			},
			{
				"x": 1.9857208298,
				"y": -5.3710918347,
				"z": 0.4546535927,
				"element": "H" 
			},
			{
				"x": -0.4128138961,
				"y": -5.2108253803,
				"z": 1.0963281222,
				"element": "H" 
			},
			{
				"x": -1.4220037762,
				"y": -2.9779635187,
				"z": 1.5291801286,
				"element": "H" 
			},
			{
				"x": -0.0495157233,
				"y": -0.9306927988,
				"z": 1.3140169734,
				"element": "H" 
			},
			{
				"x": 1.9814764943,
				"y": 1.896072115,
				"z": 1.2005720866,
				"element": "H" 
			},
			{
				"x": 1.1306508056,
				"y": 3.6205188129,
				"z": -0.3669887492,
				"element": "H" 
			}
		],
		 "valence_orbital": [ 
			{
				"type": "occ",
				"energy": -0.27507,
				"method": "rhf"
			},
			{
				"type": "occ",
				"energy": -0.2452,
				"method": "rhf"
			},
			{
				"type": "occ",
				"energy": -0.24311,
				"method": "rhf"
			},
			{
				"type": "occ",
				"energy": -0.23873,
				"method": "rhf"
			},
			{
				"type": "occ",
				"energy": -0.22408,
				"method": "rhf"
			},
			{
				"type": "unocc",
				"energy": -0.00143,
				"method": "rhf"
			},
			{
				"type": "unocc",
				"energy": 0.00182,
				"method": "rhf"
			},
			{
				"type": "unocc",
				"energy": 0.0048,
				"method": "rhf"
			},
			{
				"type": "unocc",
				"energy": 0.01375,
				"method": "rhf"
			},
			{
				"type": "unocc",
				"energy": 0.07473,
				"method": "rhf"
			}
		],
		"cosmo_sigma_profile": { 
			"-0.025": 0.0,
			"-0.024": 0.0,
			"-0.023": 0.0,
			"-0.022": 0.0,
			"-0.021": 0.0,
			"-0.02": 0.0,
			"-0.019": 0.0,
			"-0.018": 0.0,
			"-0.017": 0.014699519711,
			"-0.016": 0.744129387799,
			"-0.015": 1.05561792652,
			"-0.014": 1.18462357371,
			"-0.013": 0.856014078329,
			"-0.012": 0.825053274912,
			"-0.011": 0.506775813108,
			"-0.01": 0.583782559822,
			"-0.009": 0.894716089774,
			"-0.008": 1.16975204333,
			"-0.007": 1.39051681067,
			"-0.006": 3.57653565176,
			"-0.005": 20.0022406734,
			"-0.004": 28.7812317278,
			"-0.003": 28.8517443216,
			"-0.002": 22.9756324173,
			"-0.001": 18.0235938825,
			"0.0": 15.9454320754,
			"0.001": 14.1357907097,
			"0.002": 13.8261790559,
			"0.003": 14.2637884604,
			"0.004": 16.3020379939,
			"0.005": 17.9431780271,
			"0.006": 18.1085768527,
			"0.007": 6.76689370455,
			"0.008": 1.96089259857,
			"0.009": 1.45064067955,
			"0.01": 1.33668057984,
			"0.011": 1.73429588591,
			"0.012": 1.2658223136,
			"0.013": 0.820108656108,
			"0.014": 0.55074033772,
			"0.015": 0.019678471092,
			"0.016": 0.0,
			"0.017": 0.0,
			"0.018": 0.0,
			"0.019": 0.0,
			"0.02": 0.0,
			"0.021": 0.0,
			"0.022": 0.0,
			"0.023": 0.0,
			"0.024": 0.0,
			"0.025": 0.0
		}
	}
}
