{
	 "smiles": "COC(CCl)OC", 
	 "Tm": 200.15, 
	 "num_atms": 16, 
	 "gaussian": { 
		 "optdone": 1, 
		 "sigma_profile": "yes", 
		 "theory": "DFT", 
		 "functional": "B3LYP", 
		 "basiset": "6-31G**", 
		 "properties": { 
			 "R2extent": 1630.2417, 
			 "electric_dipole_moment_norm": 3.65643266176, 
			 "electric_quadrupole_moment_norm": 11.4358884185, 
			 "total_energy": -768.462135617, 
			 "HOMO_LUMO_gap": 0.30001, 
			 "cosmo_polarized_energy": -10.33, 
			 "cosmo_cavitation_energy": 20.74, 
			 "cosmo_dispersion_energy": -15.12, 
			 "cosmo_repulsion_energy": 1.31, 
			 "cosmo_total_nonelectrostatic_energy": 6.93, 
			 "SMD_solvation_energy": 4.58 
		},
		"coords": [
			{
				"x": -1.6501272069,
				"y": -0.1465509251,
				"z": 0.4202410604,
				"element": "C" 
			},
			{
				"x": -1.2146141555,
				"y": 0.736705917,
				"z": -0.6059015135,
				"element": "O" 
			},
			{
				"x": 0.1584422935,
				"y": 0.9200438538,
				"z": -0.6557669667,
				"element": "C" 
			},
			{
				"x": 0.4535069873,
				"y": 2.0026835803,
				"z": -1.6950976855,
				"element": "C" 
			},
			{
				"x": 0.0421421445,
				"y": 1.5061086021,
				"z": -3.379472497,
				"element": "Cl" 
			},
			{
				"x": 0.7811985803,
				"y": -0.3145670583,
				"z": -0.9305976397,
				"element": "O" 
			},
			{
				"x": 2.1645354779,
				"y": -0.3676949889,
				"z": -0.6369502847,
				"element": "C" 
			},
			{
				"x": -1.275866615,
				"y": -1.1621194063,
				"z": 0.2605259048,
				"element": "H" 
			},
			{
				"x": -1.3231781996,
				"y": 0.2040141823,
				"z": 1.411376623,
				"element": "H" 
			},
			{
				"x": -2.7410166852,
				"y": -0.1468488847,
				"z": 0.3847737303,
				"element": "H" 
			},
			{
				"x": 0.5391383635,
				"y": 1.3015284666,
				"z": 0.3187832188,
				"element": "H" 
			},
			{
				"x": -0.133287145,
				"y": 2.8921835226,
				"z": -1.4630026247,
				"element": "H" 
			},
			{
				"x": 1.5143106636,
				"y": 2.2574757697,
				"z": -1.6885437356,
				"element": "H" 
			},
			{
				"x": 2.4711336781,
				"y": -1.4097380314,
				"z": -0.748590495,
				"element": "H" 
			},
			{
				"x": 2.3753495689,
				"y": -0.0433606626,
				"z": 0.3941274874,
				"element": "H" 
			},
			{
				"x": 2.7633322497,
				"y": 0.2450360628,
				"z": -1.3256045824,
				"element": "H" 
			}
		],
		 "valence_orbital": [ 
			{
				"type": "occ",
				"energy": -0.32902,
				"method": "rhf"
			},
			{
				"type": "occ",
				"energy": -0.29531,
				"method": "rhf"
			},
			{
				"type": "occ",
				"energy": -0.28754,
				"method": "rhf"
			},
			{
				"type": "occ",
				"energy": -0.27394,
				"method": "rhf"
			},
			{
				"type": "occ",
				"energy": -0.26796,
				"method": "rhf"
			},
			{
				"type": "unocc",
				"energy": 0.03205,
				"method": "rhf"
			},
			{
				"type": "unocc",
				"energy": 0.07213,
				"method": "rhf"
			},
			{
				"type": "unocc",
				"energy": 0.11285,
				"method": "rhf"
			},
			{
				"type": "unocc",
				"energy": 0.11967,
				"method": "rhf"
			},
			{
				"type": "unocc",
				"energy": 0.1289,
				"method": "rhf"
			}
		],
		"cosmo_sigma_profile": { 
			"-0.025": 0.0,
			"-0.024": 0.0,
			"-0.023": 0.0,
			"-0.022": 0.0,
			"-0.021": 0.0,
			"-0.02": 0.0,
			"-0.019": 0.0,
			"-0.018": 0.0,
			"-0.017": 0.0,
			"-0.016": 0.0,
			"-0.015": 0.0,
			"-0.014": 0.0,
			"-0.013": 0.0,
			"-0.012": 0.0,
			"-0.011": 0.0,
			"-0.01": 0.0,
			"-0.009": 0.0,
			"-0.008": 2.25868379274,
			"-0.007": 7.65078400983,
			"-0.006": 9.77207540728,
			"-0.005": 15.7927455792,
			"-0.004": 17.4170251165,
			"-0.003": 17.9038302595,
			"-0.002": 15.2929245169,
			"-0.001": 8.39325682888,
			"0.0": 7.00136329305,
			"0.001": 4.90884426679,
			"0.002": 5.36747747766,
			"0.003": 5.73763779296,
			"0.004": 6.09729985839,
			"0.005": 6.80489757317,
			"0.006": 10.1042832616,
			"0.007": 6.20639532908,
			"0.008": 3.63849005674,
			"0.009": 3.22432903493,
			"0.01": 3.61520570943,
			"0.011": 4.0363638706,
			"0.012": 2.44587192466,
			"0.013": 0.676584236116,
			"0.014": 0.0,
			"0.015": 0.0,
			"0.016": 0.0,
			"0.017": 0.0,
			"0.018": 0.0,
			"0.019": 0.0,
			"0.02": 0.0,
			"0.021": 0.0,
			"0.022": 0.0,
			"0.023": 0.0,
			"0.024": 0.0,
			"0.025": 0.0
		}
	}
}
