{
	 "smiles": "CC(C)CN(CC(C)C)C(=O)CC(=O)N(CC(C)C)CC(C)C", 
	 "Tm": 325.15, 
	 "num_atms": 61, 
	 "gaussian": { 
		 "optdone": 1, 
		 "sigma_profile": "yes", 
		 "theory": "DFT", 
		 "functional": "B3LYP", 
		 "basiset": "6-31G**", 
		 "properties": { 
			 "R2extent": 10980.2601, 
			 "electric_dipole_moment_norm": 0.752037452525, 
			 "electric_quadrupole_moment_norm": 12.8828495404, 
			 "total_energy": -1006.94021887, 
			 "HOMO_LUMO_gap": 0.23952, 
			 "cosmo_polarized_energy": -11.19, 
			 "cosmo_cavitation_energy": 56.37, 
			 "cosmo_dispersion_energy": -36.13, 
			 "cosmo_repulsion_energy": 2.78, 
			 "cosmo_total_nonelectrostatic_energy": 23.03, 
			 "SMD_solvation_energy": 10.29 
		},
		"coords": [
			{
				"x": 4.2841650009,
				"y": 2.302702334,
				"z": -1.4885853627,
				"element": "C" 
			},
			{
				"x": 3.2900042665,
				"y": 2.2279113194,
				"z": -0.3187753484,
				"element": "C" 
			},
			{
				"x": 3.8690984259,
				"y": 1.4465748001,
				"z": 0.8683084099,
				"element": "C" 
			},
			{
				"x": 1.87158262,
				"y": 1.750716668,
				"z": -0.7220936929,
				"element": "C" 
			},
			{
				"x": 1.6481824173,
				"y": 0.3001899642,
				"z": -0.8872022291,
				"element": "N" 
			},
			{
				"x": 2.0357249449,
				"y": -0.3246799021,
				"z": -2.167718905,
				"element": "C" 
			},
			{
				"x": 3.2820124985,
				"y": -1.2371361173,
				"z": -2.1447300309,
				"element": "C" 
			},
			{
				"x": 3.6036468777,
				"y": -1.6604168579,
				"z": -3.5872450032,
				"element": "C" 
			},
			{
				"x": 3.137631767,
				"y": -2.4651098953,
				"z": -1.2359635719,
				"element": "C" 
			},
			{
				"x": 0.7449460783,
				"y": -0.3998196135,
				"z": -0.1253472661,
				"element": "C" 
			},
			{
				"x": 0.3254978194,
				"y": -1.5084082928,
				"z": -0.466351029,
				"element": "O" 
			},
			{
				"x": 0.2677774669,
				"y": 0.179110568,
				"z": 1.2164032223,
				"element": "C" 
			},
			{
				"x": -1.0409555261,
				"y": 0.9786794179,
				"z": 1.0964684137,
				"element": "C" 
			},
			{
				"x": -0.9866126646,
				"y": 2.1582920821,
				"z": 0.7429818317,
				"element": "O" 
			},
			{
				"x": -2.2196124333,
				"y": 0.3653851587,
				"z": 1.4314571478,
				"element": "N" 
			},
			{
				"x": -2.3459915228,
				"y": -1.1102111027,
				"z": 1.4030093154,
				"element": "C" 
			},
			{
				"x": -2.3029913606,
				"y": -1.8351959576,
				"z": 2.7655867463,
				"element": "C" 
			},
			{
				"x": -3.5789549145,
				"y": -1.6472624538,
				"z": 3.5961094473,
				"element": "C" 
			},
			{
				"x": -2.0280128343,
				"y": -3.3284754996,
				"z": 2.5239548028,
				"element": "C" 
			},
			{
				"x": -3.4513555525,
				"y": 1.1721284897,
				"z": 1.293690578,
				"element": "C" 
			},
			{
				"x": -3.5653754803,
				"y": 2.4291068072,
				"z": 2.1827103007,
				"element": "C" 
			},
			{
				"x": -4.8963312023,
				"y": 3.1299523506,
				"z": 1.8690221568,
				"element": "C" 
			},
			{
				"x": -3.4415421064,
				"y": 2.1345618722,
				"z": 3.6818316298,
				"element": "C" 
			},
			{
				"x": 4.5570376757,
				"y": 1.3138906027,
				"z": -1.8679114295,
				"element": "H" 
			},
			{
				"x": 3.8704232951,
				"y": 2.8796217516,
				"z": -2.3233499072,
				"element": "H" 
			},
			{
				"x": 5.2103434902,
				"y": 2.7952476433,
				"z": -1.1730571577,
				"element": "H" 
			},
			{
				"x": 3.1301358468,
				"y": 3.2638200258,
				"z": 0.0148073928,
				"element": "H" 
			},
			{
				"x": 4.8454726299,
				"y": 1.8493381695,
				"z": 1.1574226254,
				"element": "H" 
			},
			{
				"x": 3.2177415182,
				"y": 1.504089683,
				"z": 1.7471948833,
				"element": "H" 
			},
			{
				"x": 4.0028990653,
				"y": 0.388632991,
				"z": 0.6205771185,
				"element": "H" 
			},
			{
				"x": 1.147418094,
				"y": 2.1221589606,
				"z": 0.0017423994,
				"element": "H" 
			},
			{
				"x": 1.5981172141,
				"y": 2.2320331183,
				"z": -1.6706937774,
				"element": "H" 
			},
			{
				"x": 1.1807803766,
				"y": -0.9077662254,
				"z": -2.5242058183,
				"element": "H" 
			},
			{
				"x": 2.2101781234,
				"y": 0.4895893683,
				"z": -2.8782033288,
				"element": "H" 
			},
			{
				"x": 4.1291472458,
				"y": -0.6470038937,
				"z": -1.7717949528,
				"element": "H" 
			},
			{
				"x": 4.5058622848,
				"y": -2.2795231586,
				"z": -3.6208143122,
				"element": "H" 
			},
			{
				"x": 3.767831849,
				"y": -0.794410021,
				"z": -4.2386923227,
				"element": "H" 
			},
			{
				"x": 2.7828455813,
				"y": -2.2488852051,
				"z": -4.0146609959,
				"element": "H" 
			},
			{
				"x": 2.2923554988,
				"y": -3.0880471096,
				"z": -1.542464231,
				"element": "H" 
			},
			{
				"x": 4.0493715875,
				"y": -3.0720302208,
				"z": -1.2764996957,
				"element": "H" 
			},
			{
				"x": 2.9701692591,
				"y": -2.1810022351,
				"z": -0.1938681429,
				"element": "H" 
			},
			{
				"x": 0.9948199893,
				"y": 0.8630019399,
				"z": 1.6537177617,
				"element": "H" 
			},
			{
				"x": 0.1676040556,
				"y": -0.6768416447,
				"z": 1.8831466659,
				"element": "H" 
			},
			{
				"x": -1.5606930117,
				"y": -1.5103370815,
				"z": 0.7590972488,
				"element": "H" 
			},
			{
				"x": -3.2928511377,
				"y": -1.3433325371,
				"z": 0.9008894485,
				"element": "H" 
			},
			{
				"x": -1.459466085,
				"y": -1.4198720822,
				"z": 3.3354456857,
				"element": "H" 
			},
			{
				"x": -3.5013476728,
				"y": -2.1734008846,
				"z": 4.5537702489,
				"element": "H" 
			},
			{
				"x": -3.7760180094,
				"y": -0.5956005604,
				"z": 3.8126503197,
				"element": "H" 
			},
			{
				"x": -4.4496309751,
				"y": -2.0545499154,
				"z": 3.0666093112,
				"element": "H" 
			},
			{
				"x": -1.0900431801,
				"y": -3.4808509428,
				"z": 1.98007713,
				"element": "H" 
			},
			{
				"x": -1.9676712511,
				"y": -3.8745843734,
				"z": 3.4710370366,
				"element": "H" 
			},
			{
				"x": -2.8320848953,
				"y": -3.7836480256,
				"z": 1.932486063,
				"element": "H" 
			},
			{
				"x": -3.5481501094,
				"y": 1.4872993763,
				"z": 0.245748908,
				"element": "H" 
			},
			{
				"x": -4.287694816,
				"y": 0.5019769929,
				"z": 1.5141569925,
				"element": "H" 
			},
			{
				"x": -2.7506112122,
				"y": 3.0979422185,
				"z": 1.8953308759,
				"element": "H" 
			},
			{
				"x": -4.991916757,
				"y": 4.0570346884,
				"z": 2.4435983817,
				"element": "H" 
			},
			{
				"x": -5.7534835994,
				"y": 2.4937556716,
				"z": 2.1247730172,
				"element": "H" 
			},
			{
				"x": -4.9756510197,
				"y": 3.3880879577,
				"z": 0.8072780063,
				"element": "H" 
			},
			{
				"x": -3.4331355385,
				"y": 3.0675738858,
				"z": 4.2556867816,
				"element": "H" 
			},
			{
				"x": -4.2871739234,
				"y": 1.5373812793,
				"z": 4.0450176591,
				"element": "H" 
			},
			{
				"x": -2.518966072,
				"y": 1.5935136531,
				"z": 3.9128325472,
				"element": "H" 
			}
		],
		 "valence_orbital": [ 
			{
				"type": "occ",
				"energy": -0.3107,
				"method": "rhf"
			},
			{
				"type": "occ",
				"energy": -0.25169,
				"method": "rhf"
			},
			{
				"type": "occ",
				"energy": -0.24447,
				"method": "rhf"
			},
			{
				"type": "occ",
				"energy": -0.23633,
				"method": "rhf"
			},
			{
				"type": "occ",
				"energy": -0.23505,
				"method": "rhf"
			},
			{
				"type": "unocc",
				"energy": 0.00447,
				"method": "rhf"
			},
			{
				"type": "unocc",
				"energy": 0.03207,
				"method": "rhf"
			},
			{
				"type": "unocc",
				"energy": 0.07332,
				"method": "rhf"
			},
			{
				"type": "unocc",
				"energy": 0.08247,
				"method": "rhf"
			},
			{
				"type": "unocc",
				"energy": 0.09422,
				"method": "rhf"
			}
		],
		"cosmo_sigma_profile": { 
			"-0.025": 0.0,
			"-0.024": 0.0,
			"-0.023": 0.0,
			"-0.022": 0.0,
			"-0.021": 0.0,
			"-0.02": 0.0,
			"-0.019": 0.0,
			"-0.018": 0.0,
			"-0.017": 0.0,
			"-0.016": 0.0,
			"-0.015": 0.0,
			"-0.014": 0.0,
			"-0.013": 0.0,
			"-0.012": 0.0,
			"-0.011": 0.0,
			"-0.01": 0.0,
			"-0.009": 0.0,
			"-0.008": 0.0,
			"-0.007": 0.127789500088,
			"-0.006": 2.29950103014,
			"-0.005": 7.90631848792,
			"-0.004": 16.3251490802,
			"-0.003": 49.1287043525,
			"-0.002": 77.9138343595,
			"-0.001": 70.1096222228,
			"0.0": 66.6882649734,
			"0.001": 63.8734193485,
			"0.002": 34.7793766426,
			"0.003": 6.01388101671,
			"0.004": 4.00798743401,
			"0.005": 4.17523444096,
			"0.006": 3.75411226272,
			"0.007": 3.18994083243,
			"0.008": 4.44343783452,
			"0.009": 3.27729472959,
			"0.01": 2.99278271914,
			"0.011": 2.8033113832,
			"0.012": 4.30906554575,
			"0.013": 4.17791362305,
			"0.014": 1.98105058542,
			"0.015": 0.0,
			"0.016": 0.0,
			"0.017": 0.0,
			"0.018": 0.0,
			"0.019": 0.0,
			"0.02": 0.0,
			"0.021": 0.0,
			"0.022": 0.0,
			"0.023": 0.0,
			"0.024": 0.0,
			"0.0": 0.0
		}
	}
}
