{
	 "smiles": "CCCOC1=C(OCCC)C=C2CCNCCC2=C1", 
	 "Tm": 335.15, 
	 "num_atms": 44, 
	 "gaussian": { 
		 "optdone": 1, 
		 "sigma_profile": "yes", 
		 "theory": "DFT", 
		 "functional": "B3LYP", 
		 "basiset": "6-31G**", 
		 "properties": { 
			 "R2extent": 7293.1112, 
			 "electric_dipole_moment_norm": 2.65163856134, 
			 "electric_quadrupole_moment_norm": 9.94100746353, 
			 "total_energy": -829.955861128, 
			 "HOMO_LUMO_gap": 0.20854, 
			 "cosmo_polarized_energy": -10.96, 
			 "cosmo_cavitation_energy": 43.74, 
			 "cosmo_dispersion_energy": -30.63, 
			 "cosmo_repulsion_energy": 2.47, 
			 "cosmo_total_nonelectrostatic_energy": 15.57, 
			 "SMD_solvation_energy": 5.41 
		},
		"coords": [
			{
				"x": 0.2057567574,
				"y": 4.1377913213,
				"z": -2.8849712414,
				"element": "C" 
			},
			{
				"x": 0.8096536164,
				"y": 2.8499392778,
				"z": -2.3150660081,
				"element": "C" 
			},
			{
				"x": 1.3840127201,
				"y": 3.0599488604,
				"z": -0.9128267436,
				"element": "C" 
			},
			{
				"x": 2.011272686,
				"y": 1.892378881,
				"z": -0.3854511313,
				"element": "O" 
			},
			{
				"x": 1.2528653393,
				"y": 0.9180502765,
				"z": 0.2092996376,
				"element": "C" 
			},
			{
				"x": 1.9628584506,
				"y": -0.1828905276,
				"z": 0.7290003511,
				"element": "C" 
			},
			{
				"x": 3.3362655842,
				"y": -0.2462106007,
				"z": 0.6699828791,
				"element": "O" 
			},
			{
				"x": 3.9000032871,
				"y": -0.4773875729,
				"z": -0.6287835663,
				"element": "C" 
			},
			{
				"x": 5.4131191985,
				"y": -0.5378406094,
				"z": -0.4750499089,
				"element": "C" 
			},
			{
				"x": 6.1233523236,
				"y": -0.7978114084,
				"z": -1.807048794,
				"element": "C" 
			},
			{
				"x": 1.2695348733,
				"y": -1.2001954875,
				"z": 1.3823607651,
				"element": "C" 
			},
			{
				"x": -0.1171824118,
				"y": -1.1624528318,
				"z": 1.5419221158,
				"element": "C" 
			},
			{
				"x": -0.8723887615,
				"y": -2.2577830129,
				"z": 2.2588576225,
				"element": "C" 
			},
			{
				"x": -1.8197861444,
				"y": -3.0755619217,
				"z": 1.3352790546,
				"element": "C" 
			},
			{
				"x": -2.2652145077,
				"y": -2.3199551563,
				"z": 0.1693672829,
				"element": "N" 
			},
			{
				"x": -3.0865977372,
				"y": -1.1390064267,
				"z": 0.4090304607,
				"element": "C" 
			},
			{
				"x": -2.3297311468,
				"y": -0.0230250258,
				"z": 1.1848210448,
				"element": "C" 
			},
			{
				"x": -0.8279341821,
				"y": -0.0697516033,
				"z": 1.0141209175,
				"element": "C" 
			},
			{
				"x": -0.1391768823,
				"y": 0.9531932976,
				"z": 0.3542524824,
				"element": "C" 
			},
			{
				"x": 0.951895599,
				"y": 4.9386557628,
				"z": -2.94114284,
				"element": "H" 
			},
			{
				"x": -0.6224149779,
				"y": 4.500900762,
				"z": -2.2655733262,
				"element": "H" 
			},
			{
				"x": -0.1831493017,
				"y": 3.9767956032,
				"z": -3.8947653991,
				"element": "H" 
			},
			{
				"x": 1.6154184761,
				"y": 2.489110984,
				"z": -2.9651772823,
				"element": "H" 
			},
			{
				"x": 0.0527595092,
				"y": 2.0582515218,
				"z": -2.2887827674,
				"element": "H" 
			},
			{
				"x": 0.6167139203,
				"y": 3.4304067193,
				"z": -0.2197236059,
				"element": "H" 
			},
			{
				"x": 2.1805027702,
				"y": 3.810819051,
				"z": -0.9459288904,
				"element": "H" 
			},
			{
				"x": 3.6109737668,
				"y": 0.3288808851,
				"z": -1.3134612626,
				"element": "H" 
			},
			{
				"x": 3.511998463,
				"y": -1.424919068,
				"z": -1.0332353063,
				"element": "H" 
			},
			{
				"x": 5.7549706986,
				"y": 0.4085720955,
				"z": -0.0399594922,
				"element": "H" 
			},
			{
				"x": 5.6614671263,
				"y": -1.3233632684,
				"z": 0.2485326644,
				"element": "H" 
			},
			{
				"x": 5.9045509924,
				"y": -0.0104097441,
				"z": -2.5373205144,
				"element": "H" 
			},
			{
				"x": 5.8128477277,
				"y": -1.7523990607,
				"z": -2.2471035445,
				"element": "H" 
			},
			{
				"x": 7.2089337245,
				"y": -0.8329063291,
				"z": -1.6738754504,
				"element": "H" 
			},
			{
				"x": 1.8522061355,
				"y": -2.0268119644,
				"z": 1.7797550817,
				"element": "H" 
			},
			{
				"x": -0.1720557935,
				"y": -2.9473247317,
				"z": 2.7413957196,
				"element": "H" 
			},
			{
				"x": -1.462979601,
				"y": -1.8140361751,
				"z": 3.0711730337,
				"element": "H" 
			},
			{
				"x": -2.6512004022,
				"y": -3.4679188877,
				"z": 1.9523562451,
				"element": "H" 
			},
			{
				"x": -1.2754116001,
				"y": -3.9448481869,
				"z": 0.9490175292,
				"element": "H" 
			},
			{
				"x": -2.7404381597,
				"y": -2.9401743621,
				"z": -0.4778217814,
				"element": "H" 
			},
			{
				"x": -3.3694182831,
				"y": -0.7549153229,
				"z": -0.5778471807,
				"element": "H" 
			},
			{
				"x": -4.0289943574,
				"y": -1.3557076767,
				"z": 0.9485473998,
				"element": "H" 
			},
			{
				"x": -2.5678492987,
				"y": -0.1079867134,
				"z": 2.2530412189,
				"element": "H" 
			},
			{
				"x": -2.7202399912,
				"y": 0.9500169723,
				"z": 0.8685577627,
				"element": "H" 
			},
			{
				"x": -0.7071702057,
				"y": 1.7864814046,
				"z": -0.0446552319,
				"element": "H" 
			}
		],
		 "valence_orbital": [ 
			{
				"type": "occ",
				"energy": -0.28879,
				"method": "rhf"
			},
			{
				"type": "occ",
				"energy": -0.2562,
				"method": "rhf"
			},
			{
				"type": "occ",
				"energy": -0.22448,
				"method": "rhf"
			},
			{
				"type": "occ",
				"energy": -0.21273,
				"method": "rhf"
			},
			{
				"type": "occ",
				"energy": -0.19221,
				"method": "rhf"
			},
			{
				"type": "unocc",
				"energy": 0.01633,
				"method": "rhf"
			},
			{
				"type": "unocc",
				"energy": 0.02353,
				"method": "rhf"
			},
			{
				"type": "unocc",
				"energy": 0.07272,
				"method": "rhf"
			},
			{
				"type": "unocc",
				"energy": 0.08589,
				"method": "rhf"
			},
			{
				"type": "unocc",
				"energy": 0.10122,
				"method": "rhf"
			}
		],
		"cosmo_sigma_profile": { 
			"-0.025": 0.0,
			"-0.024": 0.0,
			"-0.023": 0.0,
			"-0.022": 0.0,
			"-0.021": 0.0,
			"-0.02": 0.0,
			"-0.019": 0.0,
			"-0.018": 0.0,
			"-0.017": 0.0,
			"-0.016": 0.0,
			"-0.015": 0.0,
			"-0.014": 0.0,
			"-0.013": 0.0,
			"-0.012": 0.0,
			"-0.011": 0.0,
			"-0.01": 0.73841762454,
			"-0.009": 1.30459674107,
			"-0.008": 1.37191510365,
			"-0.007": 1.26321954736,
			"-0.006": 2.95543443136,
			"-0.005": 7.91173342491,
			"-0.004": 18.9071703494,
			"-0.003": 46.0412422333,
			"-0.002": 50.2415919765,
			"-0.001": 54.4436177191,
			"0.0": 49.8770498216,
			"0.001": 31.3321263009,
			"0.002": 12.6982361418,
			"0.003": 9.59217802649,
			"0.004": 8.8566145922,
			"0.005": 10.0310166018,
			"0.006": 8.22504395826,
			"0.007": 3.77592010491,
			"0.008": 3.08275367064,
			"0.009": 3.05143588832,
			"0.01": 3.30044563975,
			"0.011": 3.38134026116,
			"0.012": 3.2787599946,
			"0.013": 0.947677708443,
			"0.014": 0.618462162643,
			"0.015": 0.888684597894,
			"0.016": 0.549246453653,
			"0.017": 0.54610622118,
			"0.018": 0.278139326654,
			"0.019": 0.0,
			"0.02": 0.0,
			"0.021": 0.0,
			"0.022": 0.0,
			"0.023": 0.0,
			"0.024": 0.0,
			"0.025": 0.0
		}
	}
}
