{
	 "smiles": "CC(Cl)C(=O)N1N=C(CC1C1=CC=CO1)C1=CC=C(Cl)C=C1", 
	 "Tm": 415.15, 
	 "num_atms": 36, 
	 "gaussian": { 
		 "optdone": 1, 
		 "sigma_profile": "yes", 
		 "theory": "DFT", 
		 "functional": "B3LYP", 
		 "basiset": "6-31G**", 
		 "properties": { 
			 "R2extent": 10991.46, 
			 "electric_dipole_moment_norm": 5.52022153903, 
			 "electric_quadrupole_moment_norm": 15.2539305486, 
			 "total_energy": -1798.43051016, 
			 "HOMO_LUMO_gap": 0.16008, 
			 "cosmo_polarized_energy": -20.83, 
			 "cosmo_cavitation_energy": 44.1, 
			 "cosmo_dispersion_energy": -30.35, 
			 "cosmo_repulsion_energy": 2.33, 
			 "cosmo_total_nonelectrostatic_energy": 16.08, 
			 "SMD_solvation_energy": 7.11 
		},
		"coords": [
			{
				"x": 2.5568922351,
				"y": -2.9907067301,
				"z": 2.8219900458,
				"element": "C" 
			},
			{
				"x": 1.7662075926,
				"y": -2.7800675471,
				"z": 1.5373156306,
				"element": "C" 
			},
			{
				"x": 2.206960405,
				"y": -4.072844555,
				"z": 0.3213338414,
				"element": "Cl" 
			},
			{
				"x": 2.1080968788,
				"y": -1.4132551869,
				"z": 0.9194604976,
				"element": "C" 
			},
			{
				"x": 3.2615135498,
				"y": -1.0889714547,
				"z": 0.716210481,
				"element": "O" 
			},
			{
				"x": 1.0335917088,
				"y": -0.5757796933,
				"z": 0.6520560488,
				"element": "N" 
			},
			{
				"x": 1.293144776,
				"y": 0.6726023536,
				"z": 0.1201267284,
				"element": "N" 
			},
			{
				"x": 0.2165587395,
				"y": 1.3818132947,
				"z": 0.1486697226,
				"element": "C" 
			},
			{
				"x": -0.957775627,
				"y": 0.6704584968,
				"z": 0.7923509072,
				"element": "C" 
			},
			{
				"x": -0.4129485592,
				"y": -0.7776410823,
				"z": 0.9292077312,
				"element": "C" 
			},
			{
				"x": -1.0326706707,
				"y": -1.7361792785,
				"z": -0.043726476,
				"element": "C" 
			},
			{
				"x": -0.6526982325,
				"y": -2.2614732324,
				"z": -1.2423414991,
				"element": "C" 
			},
			{
				"x": -1.7488105624,
				"y": -3.0733415438,
				"z": -1.6892756965,
				"element": "C" 
			},
			{
				"x": -2.7104187182,
				"y": -2.9772799477,
				"z": -0.7332062678,
				"element": "C" 
			},
			{
				"x": -2.2920917845,
				"y": -2.1634906317,
				"z": 0.282740164,
				"element": "O" 
			},
			{
				"x": 0.1891832733,
				"y": 2.7538287069,
				"z": -0.3644472763,
				"element": "C" 
			},
			{
				"x": 1.3449602435,
				"y": 3.3284180054,
				"z": -0.9274174075,
				"element": "C" 
			},
			{
				"x": 1.3293538738,
				"y": 4.6307907334,
				"z": -1.4090400339,
				"element": "C" 
			},
			{
				"x": 0.1488432399,
				"y": 5.3760817717,
				"z": -1.3315414098,
				"element": "C" 
			},
			{
				"x": 0.1258125453,
				"y": 7.0219569978,
				"z": -1.9405609757,
				"element": "Cl" 
			},
			{
				"x": -1.0091235913,
				"y": 4.8327218802,
				"z": -0.7793981374,
				"element": "C" 
			},
			{
				"x": -0.982530162,
				"y": 3.524116656,
				"z": -0.2993597824,
				"element": "C" 
			},
			{
				"x": 2.2425010136,
				"y": -2.2547753166,
				"z": 3.5715999574,
				"element": "H" 
			},
			{
				"x": 2.3840022564,
				"y": -3.9920684368,
				"z": 3.2218909917,
				"element": "H" 
			},
			{
				"x": 3.6212934801,
				"y": -2.850753544,
				"z": 2.6262109496,
				"element": "H" 
			},
			{
				"x": 0.6985288395,
				"y": -2.9187638995,
				"z": 1.698139146,
				"element": "H" 
			},
			{
				"x": -1.8676971094,
				"y": 0.7005835556,
				"z": 0.1882787365,
				"element": "H" 
			},
			{
				"x": -1.189755948,
				"y": 1.1167594477,
				"z": 1.7668807308,
				"element": "H" 
			},
			{
				"x": -0.5644708173,
				"y": -1.1442033502,
				"z": 1.9490189211,
				"element": "H" 
			},
			{
				"x": 0.2920507243,
				"y": -2.1029316776,
				"z": -1.7402681669,
				"element": "H" 
			},
			{
				"x": -1.8009156466,
				"y": -3.6529597603,
				"z": -2.5994096399,
				"element": "H" 
			},
			{
				"x": -3.6941769209,
				"y": -3.4044596573,
				"z": -0.6165953108,
				"element": "H" 
			},
			{
				"x": 2.252358561,
				"y": 2.7365997176,
				"z": -0.979074357,
				"element": "H" 
			},
			{
				"x": 2.2207344746,
				"y": 5.0707418901,
				"z": -1.8422151126,
				"element": "H" 
			},
			{
				"x": -1.9166298326,
				"y": 5.4235698732,
				"z": -0.7266767003,
				"element": "H" 
			},
			{
				"x": -1.8883742283,
				"y": 3.1070031451,
				"z": 0.1294730178,
				"element": "H" 
			}
		],
		 "valence_orbital": [ 
			{
				"type": "occ",
				"energy": -0.27389,
				"method": "rhf"
			},
			{
				"type": "occ",
				"energy": -0.27291,
				"method": "rhf"
			},
			{
				"type": "occ",
				"energy": -0.25827,
				"method": "rhf"
			},
			{
				"type": "occ",
				"energy": -0.237,
				"method": "rhf"
			},
			{
				"type": "occ",
				"energy": -0.22398,
				"method": "rhf"
			},
			{
				"type": "unocc",
				"energy": -0.0639,
				"method": "rhf"
			},
			{
				"type": "unocc",
				"energy": -0.02197,
				"method": "rhf"
			},
			{
				"type": "unocc",
				"energy": -0.0142,
				"method": "rhf"
			},
			{
				"type": "unocc",
				"energy": -0.00326,
				"method": "rhf"
			},
			{
				"type": "unocc",
				"energy": 0.02403,
				"method": "rhf"
			}
		],
		"cosmo_sigma_profile": { 
			"-0.025": 0.0,
			"-0.024": 0.0,
			"-0.023": 0.0,
			"-0.022": 0.0,
			"-0.021": 0.0,
			"-0.02": 0.0,
			"-0.019": 0.0,
			"-0.018": 0.0,
			"-0.017": 0.0,
			"-0.016": 0.0,
			"-0.015": 0.0,
			"-0.014": 0.0,
			"-0.013": 0.0,
			"-0.012": 0.0,
			"-0.011": 0.406224117712,
			"-0.01": 2.54777354085,
			"-0.009": 4.07392139312,
			"-0.008": 10.111250174,
			"-0.007": 19.9146418721,
			"-0.006": 22.2966065359,
			"-0.005": 19.1758704442,
			"-0.004": 21.0881581813,
			"-0.003": 20.6075183112,
			"-0.002": 23.1441850902,
			"-0.001": 22.6453319761,
			"0.0": 23.225383888,
			"0.001": 26.6603301462,
			"0.002": 30.5326114598,
			"0.003": 29.2233828467,
			"0.004": 23.3493631865,
			"0.005": 18.0084839222,
			"0.006": 11.5793781585,
			"0.007": 4.64659139036,
			"0.008": 3.6605931713,
			"0.009": 2.67859104771,
			"0.01": 2.20872948995,
			"0.011": 2.32999246653,
			"0.012": 4.28831348164,
			"0.013": 4.28087073782,
			"0.014": 1.5151463836,
			"0.015": 1.14395284487,
			"0.016": 1.02564283719,
			"0.017": 0.431263321408,
			"0.018": 0.0,
			"0.019": 0.0,
			"0.02": 0.0,
			"0.021": 0.0,
			"0.022": 0.0,
			"0.023": 0.0,
			"0.024": 0.0,
			"0.025": 0.0
		}
	}
}
