{
	 "smiles": "COC1=C(NC(=O)COC2=C(OC)C=C(C=C2)C(O)=O)C=CC=C1", 
	 "Tm": 458.15, 
	 "num_atms": 41, 
	 "gaussian": { 
		 "optdone": 1, 
		 "sigma_profile": "yes", 
		 "theory": "DFT", 
		 "functional": "B3LYP", 
		 "basiset": "6-31G**", 
		 "properties": { 
			 "R2extent": 9934.8962, 
			 "electric_dipole_moment_norm": 4.2495844338, 
			 "electric_quadrupole_moment_norm": 33.8188989729, 
			 "total_energy": -1164.12624164, 
			 "HOMO_LUMO_gap": 0.17723, 
			 "cosmo_polarized_energy": -27.11, 
			 "cosmo_cavitation_energy": 46.26, 
			 "cosmo_dispersion_energy": -30.75, 
			 "cosmo_repulsion_energy": 2.35, 
			 "cosmo_total_nonelectrostatic_energy": 17.87, 
			 "SMD_solvation_energy": 11.32 
		},
		"coords": [
			{
				"x": 1.4943633642,
				"y": 0.2041359094,
				"z": -3.5934389812,
				"element": "C" 
			},
			{
				"x": 1.4083116764,
				"y": 0.3027670017,
				"z": -2.1791300196,
				"element": "O" 
			},
			{
				"x": 1.7199468577,
				"y": 1.4880704566,
				"z": -1.5936815249,
				"element": "C" 
			},
			{
				"x": 1.6666323129,
				"y": 1.5219721794,
				"z": -0.1824505352,
				"element": "C" 
			},
			{
				"x": 1.3134912847,
				"y": 0.3507440364,
				"z": 0.5472834441,
				"element": "N" 
			},
			{
				"x": 2.0424613268,
				"y": -0.8035878741,
				"z": 0.5354581858,
				"element": "C" 
			},
			{
				"x": 3.1211401236,
				"y": -0.959705368,
				"z": -0.0118667618,
				"element": "O" 
			},
			{
				"x": 1.4222549529,
				"y": -1.9470762231,
				"z": 1.3529799222,
				"element": "C" 
			},
			{
				"x": 0.0093286235,
				"y": -1.8497451789,
				"z": 1.5410310849,
				"element": "O" 
			},
			{
				"x": -0.8143641589,
				"y": -2.2118447409,
				"z": 0.5090653402,
				"element": "C" 
			},
			{
				"x": -2.197695733,
				"y": -2.2053155871,
				"z": 0.7991581749,
				"element": "C" 
			},
			{
				"x": -2.6727587738,
				"y": -1.7932796712,
				"z": 2.0185568898,
				"element": "O" 
			},
			{
				"x": -2.4264828172,
				"y": -2.6770121502,
				"z": 3.1178892069,
				"element": "C" 
			},
			{
				"x": -3.1073938834,
				"y": -2.542105867,
				"z": -0.1967343052,
				"element": "C" 
			},
			{
				"x": -2.6757973026,
				"y": -2.8912759866,
				"z": -1.4863086481,
				"element": "C" 
			},
			{
				"x": -1.3054403961,
				"y": -2.8800159375,
				"z": -1.7625776157,
				"element": "C" 
			},
			{
				"x": -0.378616665,
				"y": -2.5482680315,
				"z": -0.7774688495,
				"element": "C" 
			},
			{
				"x": -3.6090660545,
				"y": -3.2433618165,
				"z": -2.6006802164,
				"element": "C" 
			},
			{
				"x": -4.8816695475,
				"y": -3.5825592208,
				"z": -2.2560008315,
				"element": "O" 
			},
			{
				"x": -3.2843331289,
				"y": -3.2412425457,
				"z": -3.7659002612,
				"element": "O" 
			},
			{
				"x": 1.9217530104,
				"y": 2.713328657,
				"z": 0.4923392155,
				"element": "C" 
			},
			{
				"x": 2.2376906745,
				"y": 3.8801899456,
				"z": -0.2066929574,
				"element": "C" 
			},
			{
				"x": 2.3140635057,
				"y": 3.8388806219,
				"z": -1.5964921863,
				"element": "C" 
			},
			{
				"x": 2.0604631276,
				"y": 2.6532164932,
				"z": -2.2907905375,
				"element": "C" 
			},
			{
				"x": 2.5147677631,
				"y": 0.3951284337,
				"z": -3.9472154989,
				"element": "H" 
			},
			{
				"x": 0.8015252701,
				"y": 0.8950889192,
				"z": -4.0899006656,
				"element": "H" 
			},
			{
				"x": 1.2132645135,
				"y": -0.8203676333,
				"z": -3.8397498934,
				"element": "H" 
			},
			{
				"x": 0.4392589223,
				"y": 0.3384412045,
				"z": 1.0562828038,
				"element": "H" 
			},
			{
				"x": 1.8467037056,
				"y": -1.9233073971,
				"z": 2.3609425186,
				"element": "H" 
			},
			{
				"x": 1.7067840101,
				"y": -2.8935561753,
				"z": 0.8848356812,
				"element": "H" 
			},
			{
				"x": -2.9051630292,
				"y": -2.2199289808,
				"z": 3.9859068624,
				"element": "H" 
			},
			{
				"x": -2.8742229469,
				"y": -3.662195708,
				"z": 2.9349422167,
				"element": "H" 
			},
			{
				"x": -1.3556798218,
				"y": -2.7918124291,
				"z": 3.3087763171,
				"element": "H" 
			},
			{
				"x": -4.159390924,
				"y": -2.471639504,
				"z": 0.0671227706,
				"element": "H" 
			},
			{
				"x": -0.9786298781,
				"y": -3.1277564425,
				"z": -2.7662129472,
				"element": "H" 
			},
			{
				"x": 0.6747247772,
				"y": -2.5179191236,
				"z": -1.0284756779,
				"element": "H" 
			},
			{
				"x": -4.9512782663,
				"y": -3.6915297502,
				"z": -1.2978937987,
				"element": "H" 
			},
			{
				"x": 1.8780069874,
				"y": 2.7124645027,
				"z": 1.5776536628,
				"element": "H" 
			},
			{
				"x": 2.4336252565,
				"y": 4.8019406804,
				"z": 0.3313136313,
				"element": "H" 
			},
			{
				"x": 2.5705655532,
				"y": 4.7338150658,
				"z": -2.1559537724,
				"element": "H" 
			},
			{
				"x": 2.1169557273,
				"y": 2.6461252351,
				"z": -3.3725214433,
				"element": "H" 
			}
		],
		 "valence_orbital": [ 
			{
				"type": "occ",
				"energy": -0.26664,
				"method": "rhf"
			},
			{
				"type": "occ",
				"energy": -0.2563,
				"method": "rhf"
			},
			{
				"type": "occ",
				"energy": -0.24758,
				"method": "rhf"
			},
			{
				"type": "occ",
				"energy": -0.235,
				"method": "rhf"
			},
			{
				"type": "occ",
				"energy": -0.22196,
				"method": "rhf"
			},
			{
				"type": "unocc",
				"energy": -0.04473,
				"method": "rhf"
			},
			{
				"type": "unocc",
				"energy": -0.02067,
				"method": "rhf"
			},
			{
				"type": "unocc",
				"energy": -0.01199,
				"method": "rhf"
			},
			{
				"type": "unocc",
				"energy": 0.00686,
				"method": "rhf"
			},
			{
				"type": "unocc",
				"energy": 0.02113,
				"method": "rhf"
			}
		],
		"cosmo_sigma_profile": { 
			"-0.025": 0.0,
			"-0.024": 0.0,
			"-0.023": 0.0,
			"-0.022": 0.0,
			"-0.021": 0.0,
			"-0.02": 0.0,
			"-0.019": 0.151920198613,
			"-0.018": 1.05300228958,
			"-0.017": 1.02078665258,
			"-0.016": 0.805784535322,
			"-0.015": 1.40383075407,
			"-0.014": 0.701997325004,
			"-0.013": 1.65425583089,
			"-0.012": 1.59158300394,
			"-0.011": 2.25874398149,
			"-0.01": 1.53011262963,
			"-0.009": 3.59230799055,
			"-0.008": 7.18021329971,
			"-0.007": 9.29796748497,
			"-0.006": 21.3467441354,
			"-0.005": 31.2175627013,
			"-0.004": 30.7837799173,
			"-0.003": 33.6888257212,
			"-0.002": 24.0314163916,
			"-0.001": 20.9561817135,
			"0.0": 17.5615892245,
			"0.001": 20.7196849342,
			"0.002": 20.7841478187,
			"0.003": 17.8479173409,
			"0.004": 15.6448666819,
			"0.005": 15.4117482429,
			"0.006": 11.2534452848,
			"0.007": 6.89738812394,
			"0.008": 5.89678719965,
			"0.009": 6.5539305228,
			"0.01": 7.50924211664,
			"0.011": 8.71554140627,
			"0.012": 8.73282135629,
			"0.013": 8.02980225265,
			"0.014": 2.7414593874,
			"0.015": 0.0,
			"0.016": 0.0,
			"0.017": 0.0,
			"0.018": 0.0,
			"0.019": 0.0,
			"0.02": 0.0,
			"0.021": 0.0,
			"0.022": 0.0,
			"0.023": 0.0,
			"0.024": 0.0,
			"0.0": 0.0
		}
	}
}
