{
	 "smiles": "CC(C)(C)OC(=O)N1CCC2=C(C1)SC(N)=C2C#N", 
	 "Tm": 476.15, 
	 "num_atms": 36, 
	 "gaussian": { 
		 "optdone": 1, 
		 "sigma_profile": "yes", 
		 "theory": "DFT", 
		 "functional": "B3LYP", 
		 "basiset": "6-31G**", 
		 "properties": { 
			 "R2extent": 8254.9241, 
			 "electric_dipole_moment_norm": 1.73958555409, 
			 "electric_quadrupole_moment_norm": 40.809494758, 
			 "total_energy": -1218.53383571, 
			 "HOMO_LUMO_gap": 0.18339, 
			 "cosmo_polarized_energy": -17.39, 
			 "cosmo_cavitation_energy": 40.37, 
			 "cosmo_dispersion_energy": -28.14, 
			 "cosmo_repulsion_energy": 2.14, 
			 "cosmo_total_nonelectrostatic_energy": 14.37, 
			 "SMD_solvation_energy": 7.67 
		},
		"coords": [
			{
				"x": 3.8891164799,
				"y": 1.2575651673,
				"z": 0.3236808931,
				"element": "C" 
			},
			{
				"x": 2.6508015016,
				"y": 2.1369630195,
				"z": 0.5260933806,
				"element": "C" 
			},
			{
				"x": 2.4541656544,
				"y": 2.5386788529,
				"z": 1.9915173443,
				"element": "C" 
			},
			{
				"x": 2.7118968356,
				"y": 3.3749581723,
				"z": -0.3725865744,
				"element": "C" 
			},
			{
				"x": 1.4515769673,
				"y": 1.4417716656,
				"z": 0.0269242222,
				"element": "O" 
			},
			{
				"x": 1.0383617406,
				"y": 0.280835767,
				"z": 0.5868199902,
				"element": "C" 
			},
			{
				"x": 1.6016294794,
				"y": -0.3082114098,
				"z": 1.499233144,
				"element": "O" 
			},
			{
				"x": -0.1268747728,
				"y": -0.1612169642,
				"z": 0.004713307,
				"element": "N" 
			},
			{
				"x": -0.7670253263,
				"y": 0.4583693391,
				"z": -1.1561260267,
				"element": "C" 
			},
			{
				"x": -0.5487641952,
				"y": -0.3869942221,
				"z": -2.4219298198,
				"element": "C" 
			},
			{
				"x": -0.8368370342,
				"y": -1.8348010542,
				"z": -2.1201030963,
				"element": "C" 
			},
			{
				"x": -0.8765507731,
				"y": -2.2975621046,
				"z": -0.8422888989,
				"element": "C" 
			},
			{
				"x": -0.6404437218,
				"y": -1.4709523786,
				"z": 0.3948298866,
				"element": "C" 
			},
			{
				"x": -1.2512510996,
				"y": -4.0180414089,
				"z": -0.7809843518,
				"element": "S" 
			},
			{
				"x": -1.3236115681,
				"y": -4.1110477929,
				"z": -2.525877909,
				"element": "C" 
			},
			{
				"x": -1.6667660002,
				"y": -5.2783068281,
				"z": -3.1632839355,
				"element": "N" 
			},
			{
				"x": -1.083979391,
				"y": -2.871016409,
				"z": -3.0995921746,
				"element": "C" 
			},
			{
				"x": -1.0801567414,
				"y": -2.6915666872,
				"z": -4.5065864246,
				"element": "C" 
			},
			{
				"x": -1.0812707782,
				"y": -2.5858290526,
				"z": -5.6684657503,
				"element": "N" 
			},
			{
				"x": 3.8394201647,
				"y": 0.3641276397,
				"z": 0.9460127534,
				"element": "H" 
			},
			{
				"x": 3.9734888852,
				"y": 0.9563485588,
				"z": -0.7253806842,
				"element": "H" 
			},
			{
				"x": 4.7881157856,
				"y": 1.8244231058,
				"z": 0.5868461297,
				"element": "H" 
			},
			{
				"x": 1.5392716931,
				"y": 3.1291673938,
				"z": 2.1041352625,
				"element": "H" 
			},
			{
				"x": 3.297847509,
				"y": 3.1551514895,
				"z": 2.3184219218,
				"element": "H" 
			},
			{
				"x": 2.3900554273,
				"y": 1.6595560615,
				"z": 2.6327668498,
				"element": "H" 
			},
			{
				"x": 2.8048408934,
				"y": 3.0859860724,
				"z": -1.4235932883,
				"element": "H" 
			},
			{
				"x": 1.8082469336,
				"y": 3.9810920092,
				"z": -0.2590079706,
				"element": "H" 
			},
			{
				"x": 3.5763515126,
				"y": 3.9899061525,
				"z": -0.1055354953,
				"element": "H" 
			},
			{
				"x": -1.8428265146,
				"y": 0.5338702893,
				"z": -0.9497075753,
				"element": "H" 
			},
			{
				"x": -0.3743674785,
				"y": 1.4648000718,
				"z": -1.2789544718,
				"element": "H" 
			},
			{
				"x": 0.4848574177,
				"y": -0.2707999498,
				"z": -2.7740120325,
				"element": "H" 
			},
			{
				"x": -1.1968429495,
				"y": -0.0256065443,
				"z": -3.2294247696,
				"element": "H" 
			},
			{
				"x": -1.5739592286,
				"y": -1.354612546,
				"z": 0.9682204552,
				"element": "H" 
			},
			{
				"x": 0.0962641409,
				"y": -1.9254834961,
				"z": 1.0609502761,
				"element": "H" 
			},
			{
				"x": -1.3925649083,
				"y": -6.1450739611,
				"z": -2.7232109593,
				"element": "H" 
			},
			{
				"x": -1.5316165405,
				"y": -5.2714480185,
				"z": -4.1666136077,
				"element": "H" 
			}
		],
		 "valence_orbital": [ 
			{
				"type": "occ",
				"energy": -0.29037,
				"method": "rhf"
			},
			{
				"type": "occ",
				"energy": -0.26432,
				"method": "rhf"
			},
			{
				"type": "occ",
				"energy": -0.25727,
				"method": "rhf"
			},
			{
				"type": "occ",
				"energy": -0.24329,
				"method": "rhf"
			},
			{
				"type": "occ",
				"energy": -0.20931,
				"method": "rhf"
			},
			{
				"type": "unocc",
				"energy": -0.02592,
				"method": "rhf"
			},
			{
				"type": "unocc",
				"energy": -0.00768,
				"method": "rhf"
			},
			{
				"type": "unocc",
				"energy": 0.01522,
				"method": "rhf"
			},
			{
				"type": "unocc",
				"energy": 0.04117,
				"method": "rhf"
			},
			{
				"type": "unocc",
				"energy": 0.05002,
				"method": "rhf"
			}
		],
		"cosmo_sigma_profile": { 
			"-0.025": 0.0,
			"-0.024": 0.0,
			"-0.023": 0.0,
			"-0.022": 0.0,
			"-0.021": 0.0,
			"-0.02": 0.0,
			"-0.019": 0.0,
			"-0.018": 0.0,
			"-0.017": 0.0,
			"-0.016": 0.0,
			"-0.015": 1.01320923282,
			"-0.014": 2.21632988761,
			"-0.013": 2.55240973406,
			"-0.012": 3.01282111336,
			"-0.011": 2.6034377048,
			"-0.01": 1.86089043273,
			"-0.009": 2.30643773936,
			"-0.008": 2.04366230766,
			"-0.007": 2.38735900797,
			"-0.006": 4.27650279958,
			"-0.005": 14.8468609984,
			"-0.004": 28.7357296235,
			"-0.003": 29.5608447444,
			"-0.002": 29.4855281737,
			"-0.001": 28.6435099433,
			"0.0": 34.7625170118,
			"0.001": 33.2093035805,
			"0.002": 21.2445647575,
			"0.003": 17.9365372974,
			"0.004": 10.040517581,
			"0.005": 7.06788392969,
			"0.006": 4.60922021582,
			"0.007": 4.35724813757,
			"0.008": 5.13434967923,
			"0.009": 4.63001889104,
			"0.01": 5.27634223248,
			"0.011": 5.25967452268,
			"0.012": 4.63174835297,
			"0.013": 5.36706860029,
			"0.014": 1.50292202886,
			"0.015": 0.0,
			"0.016": 0.0,
			"0.017": 0.0,
			"0.018": 0.0,
			"0.019": 0.0,
			"0.02": 0.0,
			"0.021": 0.0,
			"0.022": 0.0,
			"0.023": 0.0,
			"0.024": 0.0,
			"0.025": 0.0
		}
	}
}
