{
	 "smiles": "CC(C)(C)C1=CC=C(C=C1)C(O)CCCN1CCC(CC1)C(O)(C1=CC=CC=C1)C1=CC=CC=C1", 
	 "Tm": 420.15, 
	 "num_atms": 76, 
	 "gaussian": { 
		 "optdone": 1, 
		 "sigma_profile": "yes", 
		 "theory": "DFT", 
		 "functional": "B3LYP", 
		 "basiset": "6-31G**", 
		 "properties": { 
			 "R2extent": 31137.7172, 
			 "electric_dipole_moment_norm": 2.27906133748, 
			 "electric_quadrupole_moment_norm": 5.14683168367, 
			 "total_energy": -1449.31055183, 
			 "HOMO_LUMO_gap": 0.19312, 
			 "cosmo_polarized_energy": -15.89, 
			 "cosmo_cavitation_energy": 72.08, 
			 "cosmo_dispersion_energy": -48.36, 
			 "cosmo_repulsion_energy": 3.64, 
			 "cosmo_total_nonelectrostatic_energy": 27.36, 
			 "SMD_solvation_energy": 9.4 
		},
		"coords": [
			{
				"x": 0.9844145002,
				"y": -3.2126313027,
				"z": 7.9210232189,
				"element": "C" 
			},
			{
				"x": 1.6835984637,
				"y": -3.2877509406,
				"z": 6.5503770212,
				"element": "C" 
			},
			{
				"x": 2.3113258212,
				"y": -4.6947775534,
				"z": 6.4063975069,
				"element": "C" 
			},
			{
				"x": 2.8053164878,
				"y": -2.2221331785,
				"z": 6.5231037044,
				"element": "C" 
			},
			{
				"x": 0.7110940399,
				"y": -3.0376218431,
				"z": 5.3831592802,
				"element": "C" 
			},
			{
				"x": 1.1812491053,
				"y": -3.0670744446,
				"z": 4.0582473185,
				"element": "C" 
			},
			{
				"x": 0.3313999864,
				"y": -2.8509064152,
				"z": 2.9769542428,
				"element": "C" 
			},
			{
				"x": -1.0297755743,
				"y": -2.5875696847,
				"z": 3.1730126897,
				"element": "C" 
			},
			{
				"x": -1.5091034744,
				"y": -2.5581225897,
				"z": 4.48487625,
				"element": "C" 
			},
			{
				"x": -0.654166116,
				"y": -2.7801814385,
				"z": 5.5672843437,
				"element": "C" 
			},
			{
				"x": -1.9505888944,
				"y": -2.3122058249,
				"z": 1.9947137546,
				"element": "C" 
			},
			{
				"x": -3.2878475417,
				"y": -2.745354581,
				"z": 2.24749408,
				"element": "O" 
			},
			{
				"x": -2.030203813,
				"y": -0.8151972169,
				"z": 1.662311947,
				"element": "C" 
			},
			{
				"x": -2.8942540461,
				"y": -0.5123364941,
				"z": 0.4289345293,
				"element": "C" 
			},
			{
				"x": -3.0121158654,
				"y": 0.9869249398,
				"z": 0.073771089,
				"element": "C" 
			},
			{
				"x": -2.2274381393,
				"y": 1.3959031306,
				"z": -1.0909471683,
				"element": "N" 
			},
			{
				"x": -2.6025795534,
				"y": 2.7487264888,
				"z": -1.5230070421,
				"element": "C" 
			},
			{
				"x": -1.6072996544,
				"y": 3.3206021093,
				"z": -2.5547744866,
				"element": "C" 
			},
			{
				"x": -0.9224516203,
				"y": 2.1782509198,
				"z": -3.3230094322,
				"element": "C" 
			},
			{
				"x": -0.0752917698,
				"y": 1.3784770005,
				"z": -2.3061261775,
				"element": "C" 
			},
			{
				"x": -0.7793543861,
				"y": 1.2951027952,
				"z": -0.9281946638,
				"element": "C" 
			},
			{
				"x": -0.1754499441,
				"y": 2.6705711336,
				"z": -4.6122500983,
				"element": "C" 
			},
			{
				"x": -1.0997941727,
				"y": 3.4782991104,
				"z": -5.3758527993,
				"element": "O" 
			},
			{
				"x": 0.2695497277,
				"y": 1.5290738601,
				"z": -5.550430256,
				"element": "C" 
			},
			{
				"x": -0.1447054905,
				"y": 0.1980631806,
				"z": -5.4128992948,
				"element": "C" 
			},
			{
				"x": 0.2115287189,
				"y": -0.7688969078,
				"z": -6.3595317595,
				"element": "C" 
			},
			{
				"x": 0.9797713037,
				"y": -0.4204720017,
				"z": -7.4673933212,
				"element": "C" 
			},
			{
				"x": 1.3847911226,
				"y": 0.9079346302,
				"z": -7.6283977775,
				"element": "C" 
			},
			{
				"x": 1.0299331275,
				"y": 1.8672252372,
				"z": -6.6844054885,
				"element": "C" 
			},
			{
				"x": 0.9931067534,
				"y": 3.6020420196,
				"z": -4.2649782199,
				"element": "C" 
			},
			{
				"x": 0.8104421082,
				"y": 4.9914160059,
				"z": -4.2388198049,
				"element": "C" 
			},
			{
				"x": 1.8588256865,
				"y": 5.8427805882,
				"z": -3.8838526993,
				"element": "C" 
			},
			{
				"x": 3.1093838354,
				"y": 5.322615691,
				"z": -3.5496389832,
				"element": "C" 
			},
			{
				"x": 3.3058594366,
				"y": 3.9411979598,
				"z": -3.5820002606,
				"element": "C" 
			},
			{
				"x": 2.2589555161,
				"y": 3.0910540888,
				"z": -3.9403439081,
				"element": "C" 
			},
			{
				"x": 0.5402040953,
				"y": -2.2277106847,
				"z": 8.0986489757,
				"element": "H" 
			},
			{
				"x": 1.7136691996,
				"y": -3.393810132,
				"z": 8.7173503338,
				"element": "H" 
			},
			{
				"x": 0.1960042032,
				"y": -3.9662188503,
				"z": 8.0187040192,
				"element": "H" 
			},
			{
				"x": 2.862709461,
				"y": -4.8006785065,
				"z": 5.4673910954,
				"element": "H" 
			},
			{
				"x": 1.5400312851,
				"y": -5.4717141404,
				"z": 6.4298542407,
				"element": "H" 
			},
			{
				"x": 3.0118446169,
				"y": -4.886403027,
				"z": 7.2272314408,
				"element": "H" 
			},
			{
				"x": 3.5110159737,
				"y": -2.3893872064,
				"z": 7.3448108444,
				"element": "H" 
			},
			{
				"x": 3.3716670249,
				"y": -2.2507271322,
				"z": 5.5874940877,
				"element": "H" 
			},
			{
				"x": 2.3905064531,
				"y": -1.2145787771,
				"z": 6.6311418901,
				"element": "H" 
			},
			{
				"x": 2.2301653902,
				"y": -3.2704253044,
				"z": 3.8619075283,
				"element": "H" 
			},
			{
				"x": 0.7312837302,
				"y": -2.8914788113,
				"z": 1.9656265828,
				"element": "H" 
			},
			{
				"x": -2.5643222021,
				"y": -2.3665340393,
				"z": 4.6557090807,
				"element": "H" 
			},
			{
				"x": -1.0727300691,
				"y": -2.7491402735,
				"z": 6.5669702555,
				"element": "H" 
			},
			{
				"x": -1.5470372269,
				"y": -2.8370672665,
				"z": 1.111118744,
				"element": "H" 
			},
			{
				"x": -3.2516867911,
				"y": -3.6806389268,
				"z": 2.4874585386,
				"element": "H" 
			},
			{
				"x": -1.0082416648,
				"y": -0.4410086916,
				"z": 1.5305264318,
				"element": "H" 
			},
			{
				"x": -2.4391363973,
				"y": -0.2975076902,
				"z": 2.539377745,
				"element": "H" 
			},
			{
				"x": -3.8916605875,
				"y": -0.9202570379,
				"z": 0.6162032445,
				"element": "H" 
			},
			{
				"x": -2.5084363468,
				"y": -1.0466460758,
				"z": -0.44874476,
				"element": "H" 
			},
			{
				"x": -4.0567932119,
				"y": 1.2164700289,
				"z": -0.1676764106,
				"element": "H" 
			},
			{
				"x": -2.7674612279,
				"y": 1.6040243741,
				"z": 0.9633859074,
				"element": "H" 
			},
			{
				"x": -2.6665035472,
				"y": 3.4436909169,
				"z": -0.6624418548,
				"element": "H" 
			},
			{
				"x": -3.6105280961,
				"y": 2.6916605227,
				"z": -1.9556172393,
				"element": "H" 
			},
			{
				"x": -0.8431682246,
				"y": 3.9218250156,
				"z": -2.0492957945,
				"element": "H" 
			},
			{
				"x": -2.1295732788,
				"y": 3.9901262177,
				"z": -3.2413285867,
				"element": "H" 
			},
			{
				"x": -1.7260121862,
				"y": 1.5201005965,
				"z": -3.680066249,
				"element": "H" 
			},
			{
				"x": 0.1219829062,
				"y": 0.3699404753,
				"z": -2.6806276458,
				"element": "H" 
			},
			{
				"x": 0.8977867182,
				"y": 1.8592589752,
				"z": -2.1701556357,
				"element": "H" 
			},
			{
				"x": -0.3914353211,
				"y": 2.0783705217,
				"z": -0.2461382956,
				"element": "H" 
			},
			{
				"x": -0.53938043,
				"y": 0.3371967688,
				"z": -0.461414715,
				"element": "H" 
			},
			{
				"x": -1.7848381958,
				"y": 2.8813278746,
				"z": -5.7057101554,
				"element": "H" 
			},
			{
				"x": -0.7535515707,
				"y": -0.1061471775,
				"z": -4.5698089186,
				"element": "H" 
			},
			{
				"x": -0.1183680161,
				"y": -1.7952414644,
				"z": -6.224392394,
				"element": "H" 
			},
			{
				"x": 1.2575132429,
				"y": -1.1716855425,
				"z": -8.201285149,
				"element": "H" 
			},
			{
				"x": 1.9757523661,
				"y": 1.1968325316,
				"z": -8.493161691,
				"element": "H" 
			},
			{
				"x": 1.3384036329,
				"y": 2.8984103002,
				"z": -6.8219250846,
				"element": "H" 
			},
			{
				"x": -0.1538761578,
				"y": 5.401716232,
				"z": -4.5123910834,
				"element": "H" 
			},
			{
				"x": 1.6956597902,
				"y": 6.9170682624,
				"z": -3.8739026537,
				"element": "H" 
			},
			{
				"x": 3.9247015548,
				"y": 5.9860002415,
				"z": -3.275170589,
				"element": "H" 
			},
			{
				"x": 4.2776974787,
				"y": 3.5216444486,
				"z": -3.3370390498,
				"element": "H" 
			},
			{
				"x": 2.4350159409,
				"y": 2.0210139815,
				"z": -3.9881243657,
				"element": "H" 
			}
		],
		 "valence_orbital": [ 
			{
				"type": "occ",
				"energy": -0.24361,
				"method": "rhf"
			},
			{
				"type": "occ",
				"energy": -0.24075,
				"method": "rhf"
			},
			{
				"type": "occ",
				"energy": -0.23401,
				"method": "rhf"
			},
			{
				"type": "occ",
				"energy": -0.23117,
				"method": "rhf"
			},
			{
				"type": "occ",
				"energy": -0.19959,
				"method": "rhf"
			},
			{
				"type": "unocc",
				"energy": -0.00647,
				"method": "rhf"
			},
			{
				"type": "unocc",
				"energy": -0.00299,
				"method": "rhf"
			},
			{
				"type": "unocc",
				"energy": -0.00038,
				"method": "rhf"
			},
			{
				"type": "unocc",
				"energy": 0.00115,
				"method": "rhf"
			},
			{
				"type": "unocc",
				"energy": 0.00287,
				"method": "rhf"
			}
		],
		"cosmo_sigma_profile": { 
			"-0.025": 0.0,
			"-0.024": 0.0,
			"-0.023": 0.0,
			"-0.022": 0.0,
			"-0.021": 0.0,
			"-0.02": 0.0,
			"-0.019": 0.0,
			"-0.018": 0.0,
			"-0.017": 0.0,
			"-0.016": 0.0684387822016,
			"-0.015": 1.03181416489,
			"-0.014": 1.80695670061,
			"-0.013": 1.30164517094,
			"-0.012": 1.59192104205,
			"-0.011": 1.45051017779,
			"-0.01": 1.49546779752,
			"-0.009": 2.04204703191,
			"-0.008": 1.56796085314,
			"-0.007": 2.46705846551,
			"-0.006": 5.6075790923,
			"-0.005": 24.0259879736,
			"-0.004": 35.2988167811,
			"-0.003": 55.4144466022,
			"-0.002": 66.28443088,
			"-0.001": 73.5528098231,
			"0.0": 68.1656378585,
			"0.001": 54.5491047212,
			"0.002": 37.8367669944,
			"0.003": 25.3175080705,
			"0.004": 26.4021009382,
			"0.005": 25.2306383807,
			"0.006": 23.1453076982,
			"0.007": 7.65002770523,
			"0.008": 3.67959791782,
			"0.009": 4.43880193208,
			"0.01": 3.11073639662,
			"0.011": 2.56682915612,
			"0.012": 2.27075527938,
			"0.013": 1.69553199388,
			"0.014": 1.15310160221,
			"0.015": 0.0128829160788,
			"0.016": 0.0,
			"0.017": 0.0,
			"0.018": 0.0,
			"0.019": 0.0,
			"0.02": 0.0,
			"0.021": 0.0,
			"0.022": 0.0,
			"0.023": 0.0,
			"0.024": 0.0,
			"0.025": 0.0
		}
	}
}
