{
	 "smiles": "COC1=CC2=C(C(O)=C1)C(=O)C(=CO2)C1=CC=C(O)C=C1", 
	 "Tm": 513.15, 
	 "num_atms": 33, 
	 "gaussian": { 
		 "optdone": 1, 
		 "sigma_profile": "yes", 
		 "theory": "DFT", 
		 "functional": "B3LYP", 
		 "basiset": "6-31G**", 
		 "properties": { 
			 "R2extent": 9097.5827, 
			 "electric_dipole_moment_norm": 1.70422555432, 
			 "electric_quadrupole_moment_norm": 18.5789522458, 
			 "total_energy": -993.047570749, 
			 "HOMO_LUMO_gap": 0.15318, 
			 "cosmo_polarized_energy": -15.81, 
			 "cosmo_cavitation_energy": 37.37, 
			 "cosmo_dispersion_energy": -28.06, 
			 "cosmo_repulsion_energy": 2.08, 
			 "cosmo_total_nonelectrostatic_energy": 11.39, 
			 "SMD_solvation_energy": 8.57 
		},
		"coords": [
			{
				"x": -1.4551927137,
				"y": -4.360364866,
				"z": -4.4177418128,
				"element": "C" 
			},
			{
				"x": -1.2189701512,
				"y": -4.0847653272,
				"z": -3.0421004444,
				"element": "O" 
			},
			{
				"x": -0.7278889627,
				"y": -2.8690788529,
				"z": -2.6945031514,
				"element": "C" 
			},
			{
				"x": -0.5247807354,
				"y": -2.6842134899,
				"z": -1.3175741237,
				"element": "C" 
			},
			{
				"x": -0.0258307612,
				"y": -1.4647044326,
				"z": -0.8924311415,
				"element": "C" 
			},
			{
				"x": 0.2851653884,
				"y": -0.4127836369,
				"z": -1.7761252402,
				"element": "C" 
			},
			{
				"x": 0.0698912762,
				"y": -0.6334053248,
				"z": -3.1671176334,
				"element": "C" 
			},
			{
				"x": 0.3469538956,
				"y": 0.3260221047,
				"z": -4.055717117,
				"element": "O" 
			},
			{
				"x": -0.4345199317,
				"y": -1.8556344967,
				"z": -3.6179725417,
				"element": "C" 
			},
			{
				"x": 0.8004625244,
				"y": 0.8539248709,
				"z": -1.2894471818,
				"element": "C" 
			},
			{
				"x": 1.0926847947,
				"y": 1.7858717511,
				"z": -2.0741569101,
				"element": "O" 
			},
			{
				"x": 0.9516452066,
				"y": 0.9643157041,
				"z": 0.170566705,
				"element": "C" 
			},
			{
				"x": 0.6482681789,
				"y": -0.1279721031,
				"z": 0.9194322042,
				"element": "C" 
			},
			{
				"x": 0.1726978006,
				"y": -1.3037548138,
				"z": 0.4543808408,
				"element": "O" 
			},
			{
				"x": 1.4071987208,
				"y": 2.2134782233,
				"z": 0.8230447722,
				"element": "C" 
			},
			{
				"x": 0.8502508465,
				"y": 2.6263112112,
				"z": 2.0473630546,
				"element": "C" 
			},
			{
				"x": 1.2937471612,
				"y": 3.769970514,
				"z": 2.7014821527,
				"element": "C" 
			},
			{
				"x": 2.3083582414,
				"y": 4.5450556395,
				"z": 2.129978085,
				"element": "C" 
			},
			{
				"x": 2.7063978292,
				"y": 5.6622705684,
				"z": 2.8058372428,
				"element": "O" 
			},
			{
				"x": 2.8626337238,
				"y": 4.1624433698,
				"z": 0.9035740246,
				"element": "C" 
			},
			{
				"x": 2.4156879388,
				"y": 3.0124964225,
				"z": 0.258718448,
				"element": "C" 
			},
			{
				"x": -1.8431410561,
				"y": -5.3790496966,
				"z": -4.4540473798,
				"element": "H" 
			},
			{
				"x": -2.1966532888,
				"y": -3.6738506613,
				"z": -4.8434121419,
				"element": "H" 
			},
			{
				"x": -0.5300960396,
				"y": -4.302864679,
				"z": -5.0035669928,
				"element": "H" 
			},
			{
				"x": -0.7521502492,
				"y": -3.4757110262,
				"z": -0.6152776561,
				"element": "H" 
			},
			{
				"x": 0.6930295692,
				"y": 1.099553425,
				"z": -3.5261033164,
				"element": "H" 
			},
			{
				"x": -0.5829138133,
				"y": -1.9808061861,
				"z": -4.6820612213,
				"element": "H" 
			},
			{
				"x": 0.7690512157,
				"y": -0.1642730137,
				"z": 1.9957263108,
				"element": "H" 
			},
			{
				"x": 0.0363673105,
				"y": 2.0550696655,
				"z": 2.4851358132,
				"element": "H" 
			},
			{
				"x": 0.8551232611,
				"y": 4.0869114357,
				"z": 3.6417656463,
				"element": "H" 
			},
			{
				"x": 3.3914771485,
				"y": 6.1132892524,
				"z": 2.295433959,
				"element": "H" 
			},
			{
				"x": 3.6467574932,
				"y": 4.7656888999,
				"z": 0.4502101876,
				"element": "H" 
			},
			{
				"x": 2.8450881775,
				"y": 2.7343595486,
				"z": -0.6952934404,
				"element": "H" 
			}
		],
		 "valence_orbital": [ 
			{
				"type": "occ",
				"energy": -0.26015,
				"method": "rhf"
			},
			{
				"type": "occ",
				"energy": -0.25104,
				"method": "rhf"
			},
			{
				"type": "occ",
				"energy": -0.23999,
				"method": "rhf"
			},
			{
				"type": "occ",
				"energy": -0.2272,
				"method": "rhf"
			},
			{
				"type": "occ",
				"energy": -0.20699,
				"method": "rhf"
			},
			{
				"type": "unocc",
				"energy": -0.05381,
				"method": "rhf"
			},
			{
				"type": "unocc",
				"energy": -0.02536,
				"method": "rhf"
			},
			{
				"type": "unocc",
				"energy": -0.00334,
				"method": "rhf"
			},
			{
				"type": "unocc",
				"energy": 0.00972,
				"method": "rhf"
			},
			{
				"type": "unocc",
				"energy": 0.02446,
				"method": "rhf"
			}
		],
		"cosmo_sigma_profile": { 
			"-0.025": 0.0,
			"-0.024": 0.0,
			"-0.023": 0.0,
			"-0.022": 0.0,
			"-0.021": 0.0,
			"-0.02": 0.0,
			"-0.019": 0.0,
			"-0.018": 0.41116256461,
			"-0.017": 1.10093529149,
			"-0.016": 1.24341791551,
			"-0.015": 1.14672060718,
			"-0.014": 0.744979401923,
			"-0.013": 0.94870038156,
			"-0.012": 0.782380710089,
			"-0.011": 1.16124949811,
			"-0.01": 2.09584709016,
			"-0.009": 2.6723539168,
			"-0.008": 3.67908687872,
			"-0.007": 7.49728569243,
			"-0.006": 17.4540689682,
			"-0.005": 18.9423686528,
			"-0.004": 20.0088865735,
			"-0.003": 18.6839844618,
			"-0.002": 19.5040263847,
			"-0.001": 20.6265125727,
			"0.0": 19.5347125797,
			"0.001": 21.6156300698,
			"0.002": 23.8261399569,
			"0.003": 23.678542649,
			"0.004": 16.624669465,
			"0.005": 15.8478478742,
			"0.006": 8.15657630179,
			"0.007": 6.51875356391,
			"0.008": 6.63379683782,
			"0.009": 5.57053055148,
			"0.01": 5.30792503568,
			"0.011": 5.55067344884,
			"0.012": 2.18218016881,
			"0.013": 0.102412366818,
			"0.014": 0.0,
			"0.015": 0.0,
			"0.016": 0.0,
			"0.017": 0.0,
			"0.018": 0.0,
			"0.019": 0.0,
			"0.02": 0.0,
			"0.021": 0.0,
			"0.022": 0.0,
			"0.023": 0.0,
			"0.024": 0.0,
			"0.025": 0.0
		}
	}
}
