{
	 "smiles": "COC(=O)C1=C(C)C(C(=O)OC)=C(C)C2=C1CC2=O", 
	 "Tm": 390.15, 
	 "num_atms": 33, 
	 "gaussian": { 
		 "optdone": 1, 
		 "sigma_profile": "yes", 
		 "theory": "DFT", 
		 "functional": "B3LYP", 
		 "basiset": "6-31G**", 
		 "properties": { 
			 "R2extent": 6151.159, 
			 "electric_dipole_moment_norm": 1.76769060924, 
			 "electric_quadrupole_moment_norm": 32.7460144402, 
			 "total_energy": -918.030000264, 
			 "HOMO_LUMO_gap": 0.17866, 
			 "cosmo_polarized_energy": -13.72, 
			 "cosmo_cavitation_energy": 37.37, 
			 "cosmo_dispersion_energy": -25.82, 
			 "cosmo_repulsion_energy": 1.99, 
			 "cosmo_total_nonelectrostatic_energy": 13.53, 
			 "SMD_solvation_energy": 9.51 
		},
		"coords": [
			{
				"x": -5.082986204,
				"y": 0.6782273254,
				"z": -0.2678203976,
				"element": "C" 
			},
			{
				"x": -3.8521693482,
				"y": 0.3409939218,
				"z": 0.3904741545,
				"element": "O" 
			},
			{
				"x": -2.8088862591,
				"y": 0.0838596357,
				"z": -0.4369855358,
				"element": "C" 
			},
			{
				"x": -2.9131663605,
				"y": 0.1341252801,
				"z": -1.6474508809,
				"element": "O" 
			},
			{
				"x": -1.580829732,
				"y": -0.2519300114,
				"z": 0.3382284295,
				"element": "C" 
			},
			{
				"x": -0.334200583,
				"y": -0.5572840346,
				"z": -0.2892648485,
				"element": "C" 
			},
			{
				"x": -0.2249291236,
				"y": -0.5689006253,
				"z": -1.7969041481,
				"element": "C" 
			},
			{
				"x": 0.7985411551,
				"y": -0.8770232806,
				"z": 0.5076109379,
				"element": "C" 
			},
			{
				"x": 2.1204314074,
				"y": -1.1418186949,
				"z": -0.1640040047,
				"element": "C" 
			},
			{
				"x": 2.7292721857,
				"y": -0.349169255,
				"z": -0.8510350802,
				"element": "O" 
			},
			{
				"x": 2.5721443373,
				"y": -2.3858861154,
				"z": 0.1081889949,
				"element": "O" 
			},
			{
				"x": 3.8570422232,
				"y": -2.7100799477,
				"z": -0.4547732556,
				"element": "C" 
			},
			{
				"x": 0.7696563181,
				"y": -0.9062448105,
				"z": 1.9214626796,
				"element": "C" 
			},
			{
				"x": 1.9558772317,
				"y": -1.2271086579,
				"z": 2.7936204848,
				"element": "C" 
			},
			{
				"x": -0.4644211157,
				"y": -0.5875512584,
				"z": 2.4786974114,
				"element": "C" 
			},
			{
				"x": -1.5990846369,
				"y": -0.2747649156,
				"z": 1.729315227,
				"element": "C" 
			},
			{
				"x": -2.4984641659,
				"y": -0.0525835729,
				"z": 2.9413005822,
				"element": "C" 
			},
			{
				"x": -1.2041474286,
				"y": -0.4026548602,
				"z": 3.7646550411,
				"element": "C" 
			},
			{
				"x": -0.9450911906,
				"y": -0.4777555043,
				"z": 4.9402875047,
				"element": "O" 
			},
			{
				"x": -5.4132758486,
				"y": -0.1407553189,
				"z": -0.9116803397,
				"element": "H" 
			},
			{
				"x": -4.9606704021,
				"y": 1.57657952,
				"z": -0.8780128588,
				"element": "H" 
			},
			{
				"x": -5.8037940944,
				"y": 0.8525272166,
				"z": 0.5308758118,
				"element": "H" 
			},
			{
				"x": -0.9556095545,
				"y": -1.2575547099,
				"z": -2.2277310581,
				"element": "H" 
			},
			{
				"x": 0.7734767424,
				"y": -0.8384332861,
				"z": -2.1330295334,
				"element": "H" 
			},
			{
				"x": -0.4705860462,
				"y": 0.4137177835,
				"z": -2.2078300875,
				"element": "H" 
			},
			{
				"x": 4.6240139542,
				"y": -2.0263436258,
				"z": -0.08279462,
				"element": "H" 
			},
			{
				"x": 3.8249366741,
				"y": -2.6435235158,
				"z": -1.5448087627,
				"element": "H" 
			},
			{
				"x": 4.0656394696,
				"y": -3.7316258957,
				"z": -0.1382947879,
				"element": "H" 
			},
			{
				"x": 2.8298913504,
				"y": -0.6276845341,
				"z": 2.5169329421,
				"element": "H" 
			},
			{
				"x": 2.2402516333,
				"y": -2.2785266194,
				"z": 2.6909232564,
				"element": "H" 
			},
			{
				"x": 1.7143026237,
				"y": -1.0300089894,
				"z": 3.8397874329,
				"element": "H" 
			},
			{
				"x": -3.3297903983,
				"y": -0.7547092747,
				"z": 3.0599175436,
				"element": "H" 
			},
			{
				"x": -2.8759748141,
				"y": 0.9652906316,
				"z": 3.0811417651,
				"element": "H" 
			}
		],
		 "valence_orbital": [ 
			{
				"type": "occ",
				"energy": -0.28954,
				"method": "rhf"
			},
			{
				"type": "occ",
				"energy": -0.2772,
				"method": "rhf"
			},
			{
				"type": "occ",
				"energy": -0.26541,
				"method": "rhf"
			},
			{
				"type": "occ",
				"energy": -0.25806,
				"method": "rhf"
			},
			{
				"type": "occ",
				"energy": -0.25012,
				"method": "rhf"
			},
			{
				"type": "unocc",
				"energy": -0.07146,
				"method": "rhf"
			},
			{
				"type": "unocc",
				"energy": -0.04592,
				"method": "rhf"
			},
			{
				"type": "unocc",
				"energy": -0.01326,
				"method": "rhf"
			},
			{
				"type": "unocc",
				"energy": 0.02434,
				"method": "rhf"
			},
			{
				"type": "unocc",
				"energy": 0.07169,
				"method": "rhf"
			}
		],
		"cosmo_sigma_profile": { 
			"-0.025": 0.0,
			"-0.024": 0.0,
			"-0.023": 0.0,
			"-0.022": 0.0,
			"-0.021": 0.0,
			"-0.02": 0.0,
			"-0.019": 0.0,
			"-0.018": 0.0,
			"-0.017": 0.0,
			"-0.016": 0.0,
			"-0.015": 0.0,
			"-0.014": 0.0,
			"-0.013": 0.0,
			"-0.012": 0.0,
			"-0.011": 0.0,
			"-0.01": 0.0,
			"-0.009": 0.0,
			"-0.008": 0.0,
			"-0.007": 3.26028968025,
			"-0.006": 16.6586914688,
			"-0.005": 23.3299521499,
			"-0.004": 31.2887348268,
			"-0.003": 35.7561005538,
			"-0.002": 30.952743417,
			"-0.001": 33.3703315134,
			"0.0": 24.6781115945,
			"0.001": 15.2135304021,
			"0.002": 11.2560919355,
			"0.003": 8.85218159656,
			"0.004": 8.92161121298,
			"0.005": 6.3337880147,
			"0.006": 5.45073221005,
			"0.007": 5.11368773507,
			"0.008": 5.91622366679,
			"0.009": 5.39146124227,
			"0.01": 7.51075913583,
			"0.011": 11.390468662,
			"0.012": 6.0602929316,
			"0.013": 0.200501849192,
			"0.014": 0.0,
			"0.015": 0.0,
			"0.016": 0.0,
			"0.017": 0.0,
			"0.018": 0.0,
			"0.019": 0.0,
			"0.02": 0.0,
			"0.021": 0.0,
			"0.022": 0.0,
			"0.023": 0.0,
			"0.024": 0.0,
			"0.025": 0.0
		}
	}
}
