{
	 "smiles": "CN1C2=C(N=C(N2)SCC(O)=O)C(=O)N(C)C1=O", 
	 "Tm": 533.15, 
	 "num_atms": 28, 
	 "gaussian": { 
		 "optdone": 1, 
		 "sigma_profile": "yes", 
		 "theory": "DFT", 
		 "functional": "B3LYP", 
		 "basiset": "6-31G**", 
		 "properties": { 
			 "R2extent": 6525.5229, 
			 "electric_dipole_moment_norm": 8.38986071398, 
			 "electric_quadrupole_moment_norm": 22.6009841213, 
			 "total_energy": -1267.12187863, 
			 "HOMO_LUMO_gap": 0.16661, 
			 "cosmo_polarized_energy": -27.33, 
			 "cosmo_cavitation_energy": 34.39, 
			 "cosmo_dispersion_energy": -25.4, 
			 "cosmo_repulsion_energy": 1.89, 
			 "cosmo_total_nonelectrostatic_energy": 10.88, 
			 "SMD_solvation_energy": 5.78 
		},
		"coords": [
			{
				"x": 1.3153677857,
				"y": -0.8413060341,
				"z": 1.1211223429,
				"element": "C" 
			},
			{
				"x": 0.5533082205,
				"y": 0.3464458359,
				"z": 0.7519346661,
				"element": "N" 
			},
			{
				"x": -0.0547937627,
				"y": 0.4657270719,
				"z": -0.4661135853,
				"element": "C" 
			},
			{
				"x": -0.7788241049,
				"y": 1.5652519684,
				"z": -0.8934314131,
				"element": "C" 
			},
			{
				"x": -1.291052773,
				"y": 1.3395478064,
				"z": -2.1539940186,
				"element": "N" 
			},
			{
				"x": -0.870847326,
				"y": 0.1428166562,
				"z": -2.4784619797,
				"element": "C" 
			},
			{
				"x": -0.0910397418,
				"y": -0.4413004681,
				"z": -1.480229923,
				"element": "N" 
			},
			{
				"x": -1.1160354104,
				"y": -0.6126502768,
				"z": -4.0542843371,
				"element": "S" 
			},
			{
				"x": -1.8189766152,
				"y": -2.2503000405,
				"z": -3.5822597575,
				"element": "C" 
			},
			{
				"x": -0.7702892238,
				"y": -3.2761104114,
				"z": -3.1975328828,
				"element": "C" 
			},
			{
				"x": -0.8976579223,
				"y": -4.411074127,
				"z": -3.9004604925,
				"element": "O" 
			},
			{
				"x": 0.0915245172,
				"y": -3.1320234622,
				"z": -2.3472439479,
				"element": "O" 
			},
			{
				"x": -0.934505273,
				"y": 2.7174919135,
				"z": -0.0320106554,
				"element": "C" 
			},
			{
				"x": -1.5415231489,
				"y": 3.7449738163,
				"z": -0.2770223364,
				"element": "O" 
			},
			{
				"x": -0.2674930413,
				"y": 2.5318510343,
				"z": 1.2281280941,
				"element": "N" 
			},
			{
				"x": -0.3430355623,
				"y": 3.6287261982,
				"z": 2.2005274417,
				"element": "C" 
			},
			{
				"x": 0.4580642641,
				"y": 1.420983236,
				"z": 1.6552768322,
				"element": "C" 
			},
			{
				"x": 0.9894323963,
				"y": 1.3719612103,
				"z": 2.7556937136,
				"element": "O" 
			},
			{
				"x": 0.6753098103,
				"y": -1.729889323,
				"z": 1.103979368,
				"element": "H" 
			},
			{
				"x": 1.6907240858,
				"y": -0.6817748344,
				"z": 2.1302410352,
				"element": "H" 
			},
			{
				"x": 2.1566633267,
				"y": -0.987536173,
				"z": 0.4351860105,
				"element": "H" 
			},
			{
				"x": 0.2627309188,
				"y": -1.3962459554,
				"z": -1.5282603846,
				"element": "H" 
			},
			{
				"x": -2.385921626,
				"y": -2.6040853002,
				"z": -4.4444504386,
				"element": "H" 
			},
			{
				"x": -2.5091457043,
				"y": -2.1145922304,
				"z": -2.7449137385,
				"element": "H" 
			},
			{
				"x": -0.203163198,
				"y": -5.0196904083,
				"z": -3.5927417758,
				"element": "H" 
			},
			{
				"x": -0.8186428157,
				"y": 3.2823665478,
				"z": 3.120657378,
				"element": "H" 
			},
			{
				"x": -0.9287394412,
				"y": 4.4223940654,
				"z": 1.7424824125,
				"element": "H" 
			},
			{
				"x": 0.6607613654,
				"y": 3.9831416842,
				"z": 2.4443823721,
				"element": "H" 
			}
		],
		 "valence_orbital": [ 
			{
				"type": "occ",
				"energy": -0.28494,
				"method": "rhf"
			},
			{
				"type": "occ",
				"energy": -0.2712,
				"method": "rhf"
			},
			{
				"type": "occ",
				"energy": -0.26325,
				"method": "rhf"
			},
			{
				"type": "occ",
				"energy": -0.25336,
				"method": "rhf"
			},
			{
				"type": "occ",
				"energy": -0.21464,
				"method": "rhf"
			},
			{
				"type": "unocc",
				"energy": -0.04803,
				"method": "rhf"
			},
			{
				"type": "unocc",
				"energy": -0.01766,
				"method": "rhf"
			},
			{
				"type": "unocc",
				"energy": -0.00495,
				"method": "rhf"
			},
			{
				"type": "unocc",
				"energy": 0.02351,
				"method": "rhf"
			},
			{
				"type": "unocc",
				"energy": 0.04287,
				"method": "rhf"
			}
		],
		"cosmo_sigma_profile": { 
			"-0.025": 0.0,
			"-0.024": 0.0,
			"-0.023": 0.0,
			"-0.022": 0.0,
			"-0.021": 0.0,
			"-0.02": 0.0,
			"-0.019": 0.852204016983,
			"-0.018": 1.05362702046,
			"-0.017": 0.804761178809,
			"-0.016": 0.818806821969,
			"-0.015": 0.923766951468,
			"-0.014": 1.02149104927,
			"-0.013": 0.430556715845,
			"-0.012": 0.590728472828,
			"-0.011": 1.41203820051,
			"-0.01": 3.29328976506,
			"-0.009": 7.3102787467,
			"-0.008": 8.11357209141,
			"-0.007": 10.5923266868,
			"-0.006": 12.8491986694,
			"-0.005": 17.8373337528,
			"-0.004": 21.9293551754,
			"-0.003": 24.2320942932,
			"-0.002": 23.6166179276,
			"-0.001": 17.1782937815,
			"0.0": 12.4753128142,
			"0.001": 10.5171742226,
			"0.002": 9.94215661128,
			"0.003": 10.6416440765,
			"0.004": 8.43606055533,
			"0.005": 8.61684595283,
			"0.006": 9.15193173565,
			"0.007": 7.63081629637,
			"0.008": 5.67053342783,
			"0.009": 5.0218383442,
			"0.01": 6.81731406691,
			"0.011": 5.29365726995,
			"0.012": 9.93236381313,
			"0.013": 6.97783662819,
			"0.014": 2.881030477,
			"0.015": 1.23574080662,
			"0.016": 0.600826126526,
			"0.017": 0.0,
			"0.018": 0.0,
			"0.019": 0.0,
			"0.02": 0.0,
			"0.021": 0.0,
			"0.022": 0.0,
			"0.023": 0.0,
			"0.024": 0.0,
			"0.025": 0.0
		}
	}
}
