{
	 "smiles": "ClC1=CC2=C(ON=C2C=C1)C1=CC=CC=C1", 
	 "Tm": 388.65, 
	 "num_atms": 24, 
	 "gaussian": { 
		 "optdone": 1, 
		 "sigma_profile": "yes", 
		 "theory": "DFT", 
		 "functional": "B3LYP", 
		 "basiset": "6-31G**", 
		 "properties": { 
			 "R2extent": 5034.3215, 
			 "electric_dipole_moment_norm": 2.30216178841, 
			 "electric_quadrupole_moment_norm": 11.8464316497, 
			 "total_energy": -1090.32066214, 
			 "HOMO_LUMO_gap": 0.13682, 
			 "cosmo_polarized_energy": -8.66, 
			 "cosmo_cavitation_energy": 30.59, 
			 "cosmo_dispersion_energy": -22.78, 
			 "cosmo_repulsion_energy": 1.73, 
			 "cosmo_total_nonelectrostatic_energy": 9.54, 
			 "SMD_solvation_energy": 4.22 
		},
		"coords": [
			{
				"x": 1.9215045476,
				"y": 0.0923664001,
				"z": -4.3810383149,
				"element": "Cl" 
			},
			{
				"x": 1.3357464607,
				"y": -0.9664590391,
				"z": -3.1066370754,
				"element": "C" 
			},
			{
				"x": 0.9878987756,
				"y": -0.4378881229,
				"z": -1.8919105953,
				"element": "C" 
			},
			{
				"x": 0.5177277136,
				"y": -1.3419375731,
				"z": -0.8988488613,
				"element": "C" 
			},
			{
				"x": 0.0594633605,
				"y": -1.2428066332,
				"z": 0.4106856981,
				"element": "C" 
			},
			{
				"x": -0.3030707417,
				"y": -2.4766103753,
				"z": 0.819611272,
				"element": "O" 
			},
			{
				"x": -0.101535315,
				"y": -3.432567838,
				"z": -0.1711166809,
				"element": "N" 
			},
			{
				"x": 0.3918365906,
				"y": -2.7436278591,
				"z": -1.1940429544,
				"element": "C" 
			},
			{
				"x": 0.7695695091,
				"y": -3.2530016781,
				"z": -2.4732409032,
				"element": "C" 
			},
			{
				"x": 1.2373738008,
				"y": -2.3670256665,
				"z": -3.4036936988,
				"element": "C" 
			},
			{
				"x": -0.1128509082,
				"y": -0.1500516833,
				"z": 1.3601012699,
				"element": "C" 
			},
			{
				"x": -1.0094439924,
				"y": -0.2820367001,
				"z": 2.437218359,
				"element": "C" 
			},
			{
				"x": -1.1793582477,
				"y": 0.762558821,
				"z": 3.3409658166,
				"element": "C" 
			},
			{
				"x": -0.4628366897,
				"y": 1.9524539331,
				"z": 3.1878061792,
				"element": "C" 
			},
			{
				"x": 0.4353057368,
				"y": 2.0882692154,
				"z": 2.1270770253,
				"element": "C" 
			},
			{
				"x": 0.6144767938,
				"y": 1.0458008208,
				"z": 1.2210667422,
				"element": "C" 
			},
			{
				"x": 1.0553661186,
				"y": 0.6279078866,
				"z": -1.7134785589,
				"element": "H" 
			},
			{
				"x": 0.6796647906,
				"y": -4.31200681,
				"z": -2.6877234665,
				"element": "H" 
			},
			{
				"x": 1.5359005582,
				"y": -2.7068316898,
				"z": -4.3892175909,
				"element": "H" 
			},
			{
				"x": -1.5707606362,
				"y": -1.2029515623,
				"z": 2.5511918087,
				"element": "H" 
			},
			{
				"x": -1.8767406337,
				"y": 0.649449662,
				"z": 4.1656675866,
				"element": "H" 
			},
			{
				"x": -0.599883374,
				"y": 2.7663863791,
				"z": 3.8934236168,
				"element": "H" 
			},
			{
				"x": 1.0063436698,
				"y": 3.0044655503,
				"z": 2.0100219461,
				"element": "H" 
			},
			{
				"x": 1.3433021123,
				"y": 1.1474445625,
				"z": 0.4245113802,
				"element": "H" 
			}
		],
		 "valence_orbital": [ 
			{
				"type": "occ",
				"energy": -0.30724,
				"method": "rhf"
			},
			{
				"type": "occ",
				"energy": -0.27499,
				"method": "rhf"
			},
			{
				"type": "occ",
				"energy": -0.27195,
				"method": "rhf"
			},
			{
				"type": "occ",
				"energy": -0.26698,
				"method": "rhf"
			},
			{
				"type": "occ",
				"energy": -0.21623,
				"method": "rhf"
			},
			{
				"type": "unocc",
				"energy": -0.07941,
				"method": "rhf"
			},
			{
				"type": "unocc",
				"energy": -0.0254,
				"method": "rhf"
			},
			{
				"type": "unocc",
				"energy": -0.01699,
				"method": "rhf"
			},
			{
				"type": "unocc",
				"energy": 0.00866,
				"method": "rhf"
			},
			{
				"type": "unocc",
				"energy": 0.02272,
				"method": "rhf"
			}
		],
		"cosmo_sigma_profile": { 
			"-0.025": 0.0,
			"-0.024": 0.0,
			"-0.023": 0.0,
			"-0.022": 0.0,
			"-0.021": 0.0,
			"-0.02": 0.0,
			"-0.019": 0.0,
			"-0.018": 0.0,
			"-0.017": 0.0,
			"-0.016": 0.0,
			"-0.015": 0.0,
			"-0.014": 0.0,
			"-0.013": 0.0,
			"-0.012": 0.0,
			"-0.011": 0.0,
			"-0.01": 0.0,
			"-0.009": 1.56729747398,
			"-0.008": 4.91810474098,
			"-0.007": 7.087927677,
			"-0.006": 15.3726403097,
			"-0.005": 16.1025752263,
			"-0.004": 13.9888765008,
			"-0.003": 12.7148118462,
			"-0.002": 14.7469165664,
			"-0.001": 20.3611769463,
			"0.0": 24.1497787813,
			"0.001": 29.1473177497,
			"0.002": 23.2483522593,
			"0.003": 19.4209794214,
			"0.004": 22.9503789928,
			"0.005": 7.40543482659,
			"0.006": 2.66424015435,
			"0.007": 3.34909650803,
			"0.008": 2.26568451599,
			"0.009": 1.67079661785,
			"0.01": 1.02147441115,
			"0.011": 1.91141287521,
			"0.012": 1.24694054135,
			"0.013": 1.53336277894,
			"0.014": 0.964122504346,
			"0.015": 0.0760364050285,
			"0.016": 0.0,
			"0.017": 0.0,
			"0.018": 0.0,
			"0.019": 0.0,
			"0.02": 0.0,
			"0.021": 0.0,
			"0.022": 0.0,
			"0.023": 0.0,
			"0.024": 0.0,
			"0.025": 0.0
		}
	}
}
