{
	 "smiles": "C#CCNC1=NC=CS1", 
	 "Tm": 339.15, 
	 "num_atms": 15, 
	 "gaussian": { 
		 "optdone": 1, 
		 "sigma_profile": "yes", 
		 "theory": "DFT", 
		 "functional": "B3LYP", 
		 "basiset": "6-31G**", 
		 "properties": { 
			 "R2extent": 2402.918, 
			 "electric_dipole_moment_norm": 1.28468320219, 
			 "electric_quadrupole_moment_norm": 3.56047005605, 
			 "total_energy": -739.850178643, 
			 "HOMO_LUMO_gap": 0.20342, 
			 "cosmo_polarized_energy": -10.05, 
			 "cosmo_cavitation_energy": 22.02, 
			 "cosmo_dispersion_energy": -16.1, 
			 "cosmo_repulsion_energy": 1.28, 
			 "cosmo_total_nonelectrostatic_energy": 7.19, 
			 "SMD_solvation_energy": 3.17 
		},
		"coords": [
			{
				"x": -0.6535305712,
				"y": -2.3163338906,
				"z": 0.03988086,
				"element": "C" 
			},
			{
				"x": -0.525853751,
				"y": -1.1296921288,
				"z": -0.1445074376,
				"element": "C" 
			},
			{
				"x": -0.3422522716,
				"y": 0.304058272,
				"z": -0.4030924291,
				"element": "C" 
			},
			{
				"x": 1.0160652067,
				"y": 0.7876214558,
				"z": -0.1371606772,
				"element": "N" 
			},
			{
				"x": 1.3408448791,
				"y": 1.1949948628,
				"z": 1.1381146663,
				"element": "C" 
			},
			{
				"x": 0.4722408152,
				"y": 1.5021209383,
				"z": 2.0591840155,
				"element": "N" 
			},
			{
				"x": 1.1118221449,
				"y": 1.9469832154,
				"z": 3.1980816164,
				"element": "C" 
			},
			{
				"x": 2.4698497747,
				"y": 1.9824869821,
				"z": 3.1672662287,
				"element": "C" 
			},
			{
				"x": 3.0349316897,
				"y": 1.4290064547,
				"z": 1.604875101,
				"element": "S" 
			},
			{
				"x": -0.7713165208,
				"y": -3.3595280097,
				"z": 0.2219019167,
				"element": "H" 
			},
			{
				"x": -0.5845568736,
				"y": 0.524526451,
				"z": -1.4491978315,
				"element": "H" 
			},
			{
				"x": -1.0166398691,
				"y": 0.8915057961,
				"z": 0.2251138698,
				"element": "H" 
			},
			{
				"x": 1.7448588142,
				"y": 0.290650655,
				"z": -0.6311633194,
				"element": "H" 
			},
			{
				"x": 0.5112595543,
				"y": 2.2375110754,
				"z": 4.0525858812,
				"element": "H" 
			},
			{
				"x": 3.1654769785,
				"y": 2.2839878705,
				"z": 3.936117539,
				"element": "H" 
			}
		],
		 "valence_orbital": [ 
			{
				"type": "occ",
				"energy": -0.28088,
				"method": "rhf"
			},
			{
				"type": "occ",
				"energy": -0.27391,
				"method": "rhf"
			},
			{
				"type": "occ",
				"energy": -0.27158,
				"method": "rhf"
			},
			{
				"type": "occ",
				"energy": -0.26705,
				"method": "rhf"
			},
			{
				"type": "occ",
				"energy": -0.20698,
				"method": "rhf"
			},
			{
				"type": "unocc",
				"energy": -0.00356,
				"method": "rhf"
			},
			{
				"type": "unocc",
				"energy": 0.01087,
				"method": "rhf"
			},
			{
				"type": "unocc",
				"energy": 0.03589,
				"method": "rhf"
			},
			{
				"type": "unocc",
				"energy": 0.05207,
				"method": "rhf"
			},
			{
				"type": "unocc",
				"energy": 0.06778,
				"method": "rhf"
			}
		],
		"cosmo_sigma_profile": { 
			"-0.025": 0.0,
			"-0.024": 0.0,
			"-0.023": 0.0,
			"-0.022": 0.0,
			"-0.021": 0.0,
			"-0.02": 0.0,
			"-0.019": 0.0,
			"-0.018": 0.0,
			"-0.017": 0.0,
			"-0.016": 0.0,
			"-0.015": 0.685651882268,
			"-0.014": 1.406082474,
			"-0.013": 1.2131416652,
			"-0.012": 1.83996055196,
			"-0.011": 2.3468499769,
			"-0.01": 2.56124577831,
			"-0.009": 2.10682481196,
			"-0.008": 5.989961944,
			"-0.007": 7.96572324333,
			"-0.006": 7.82557211795,
			"-0.005": 9.99617791538,
			"-0.004": 9.17881469674,
			"-0.003": 7.7011211233,
			"-0.002": 8.34675445374,
			"-0.001": 6.71599819593,
			"0.0": 7.68314797047,
			"0.001": 11.422637568,
			"0.002": 12.271706897,
			"0.003": 15.6264010689,
			"0.004": 16.2687945821,
			"0.005": 13.8082707413,
			"0.006": 11.4437334764,
			"0.007": 7.51696575336,
			"0.008": 2.27549058265,
			"0.009": 0.88046854802,
			"0.01": 1.82674098885,
			"0.011": 1.06068236569,
			"0.012": 1.24674591451,
			"0.013": 0.73287309033,
			"0.014": 0.0425615463255,
			"0.015": 0.0,
			"0.016": 0.0,
			"0.017": 0.0,
			"0.018": 0.0,
			"0.019": 0.0,
			"0.02": 0.0,
			"0.021": 0.0,
			"0.022": 0.0,
			"0.023": 0.0,
			"0.024": 0.0,
			"0.025": 0.0
		}
	}
}
