{
	 "smiles": "CC(=O)OC1=C(C=C(C)C=C1)C(O)=O", 
	 "Tm": 428.15, 
	 "num_atms": 24, 
	 "gaussian": { 
		 "optdone": 1, 
		 "sigma_profile": "yes", 
		 "theory": "DFT", 
		 "functional": "B3LYP", 
		 "basiset": "6-31G**", 
		 "properties": { 
			 "R2extent": 2897.4829, 
			 "electric_dipole_moment_norm": 4.82127177413, 
			 "electric_quadrupole_moment_norm": 14.2522714439, 
			 "total_energy": -688.008130429, 
			 "HOMO_LUMO_gap": 0.20133, 
			 "cosmo_polarized_energy": -17.35, 
			 "cosmo_cavitation_energy": 28.89, 
			 "cosmo_dispersion_energy": -20.48, 
			 "cosmo_repulsion_energy": 1.63, 
			 "cosmo_total_nonelectrostatic_energy": 10.04, 
			 "SMD_solvation_energy": 7.21 
		},
		"coords": [
			{
				"x": -3.1216813899,
				"y": 1.6271535349,
				"z": -1.1379051294,
				"element": "C" 
			},
			{
				"x": -2.0292547194,
				"y": 0.5990044867,
				"z": -1.2200709386,
				"element": "C" 
			},
			{
				"x": -1.4469316705,
				"y": 0.23054142,
				"z": -2.20516037,
				"element": "O" 
			},
			{
				"x": -1.7581409175,
				"y": 0.1032898348,
				"z": 0.045843855,
				"element": "O" 
			},
			{
				"x": -0.6006991704,
				"y": -0.6413228428,
				"z": 0.1992559009,
				"element": "C" 
			},
			{
				"x": 0.5922004195,
				"y": -0.0095146186,
				"z": 0.5808583766,
				"element": "C" 
			},
			{
				"x": 1.7297865785,
				"y": -0.8048578872,
				"z": 0.797745264,
				"element": "C" 
			},
			{
				"x": 1.7052917145,
				"y": -2.1931654762,
				"z": 0.6465282431,
				"element": "C" 
			},
			{
				"x": 2.9493501038,
				"y": -3.0261654817,
				"z": 0.8449501367,
				"element": "C" 
			},
			{
				"x": 0.4890085942,
				"y": -2.7909651971,
				"z": 0.2856174705,
				"element": "C" 
			},
			{
				"x": -0.6524859036,
				"y": -2.0258046183,
				"z": 0.0635832677,
				"element": "C" 
			},
			{
				"x": 0.6564765543,
				"y": 1.4816325245,
				"z": 0.7274358734,
				"element": "C" 
			},
			{
				"x": 1.5190146968,
				"y": 1.9409056162,
				"z": 1.6755459889,
				"element": "O" 
			},
			{
				"x": 0.0200672673,
				"y": 2.2676738995,
				"z": 0.0663430798,
				"element": "O" 
			},
			{
				"x": -2.6883150494,
				"y": 2.5402622408,
				"z": -0.717987135,
				"element": "H" 
			},
			{
				"x": -3.5088602081,
				"y": 1.8303026949,
				"z": -2.1359816822,
				"element": "H" 
			},
			{
				"x": -3.9220552027,
				"y": 1.2960200699,
				"z": -0.4719065583,
				"element": "H" 
			},
			{
				"x": 2.6728850538,
				"y": -0.3244844154,
				"z": 1.0490321767,
				"element": "H" 
			},
			{
				"x": 2.7519154509,
				"y": -3.8912688274,
				"z": 1.4866403839,
				"element": "H" 
			},
			{
				"x": 3.3233494084,
				"y": -3.4113420925,
				"z": -0.1109370074,
				"element": "H" 
			},
			{
				"x": 3.7537409699,
				"y": -2.444060596,
				"z": 1.3027582144,
				"element": "H" 
			},
			{
				"x": 0.4364217674,
				"y": -3.8704106672,
				"z": 0.1696214426,
				"element": "H" 
			},
			{
				"x": -1.5931042666,
				"y": -2.4889152112,
				"z": -0.2142416483,
				"element": "H" 
			},
			{
				"x": 1.831119919,
				"y": 1.2040916093,
				"z": 2.2194307951,
				"element": "H" 
			}
		],
		 "valence_orbital": [ 
			{
				"type": "occ",
				"energy": -0.30775,
				"method": "rhf"
			},
			{
				"type": "occ",
				"energy": -0.28024,
				"method": "rhf"
			},
			{
				"type": "occ",
				"energy": -0.27417,
				"method": "rhf"
			},
			{
				"type": "occ",
				"energy": -0.27045,
				"method": "rhf"
			},
			{
				"type": "occ",
				"energy": -0.2531,
				"method": "rhf"
			},
			{
				"type": "unocc",
				"energy": -0.05177,
				"method": "rhf"
			},
			{
				"type": "unocc",
				"energy": -0.02034,
				"method": "rhf"
			},
			{
				"type": "unocc",
				"energy": 0.01376,
				"method": "rhf"
			},
			{
				"type": "unocc",
				"energy": 0.0359,
				"method": "rhf"
			},
			{
				"type": "unocc",
				"energy": 0.06737,
				"method": "rhf"
			}
		],
		"cosmo_sigma_profile": { 
			"-0.025": 0.0,
			"-0.024": 0.0,
			"-0.023": 0.0,
			"-0.022": 0.0,
			"-0.021": 0.0,
			"-0.02": 0.0,
			"-0.019": 0.0123870883748,
			"-0.018": 0.79489567967,
			"-0.017": 0.762972523508,
			"-0.016": 1.07692820556,
			"-0.015": 1.01324914417,
			"-0.014": 1.32295921165,
			"-0.013": 0.621818029696,
			"-0.012": 1.10846697298,
			"-0.011": 1.08672553844,
			"-0.01": 1.33343625587,
			"-0.009": 0.82505993157,
			"-0.008": 2.51249754804,
			"-0.007": 6.50443512986,
			"-0.006": 10.9642908313,
			"-0.005": 15.86389536,
			"-0.004": 20.0885248936,
			"-0.003": 19.1368635242,
			"-0.002": 20.243688772,
			"-0.001": 17.2296393724,
			"0.0": 13.8572282257,
			"0.001": 12.7304571245,
			"0.002": 12.4135108804,
			"0.003": 10.7826687263,
			"0.004": 5.17606493746,
			"0.005": 7.17997227,
			"0.006": 6.20190776872,
			"0.007": 5.93522771717,
			"0.008": 6.25906522411,
			"0.009": 5.80221930222,
			"0.01": 7.83456310898,
			"0.011": 8.22969570527,
			"0.012": 4.12624275486,
			"0.013": 0.765200273341,
			"0.014": 0.0,
			"0.015": 0.0,
			"0.016": 0.0,
			"0.017": 0.0,
			"0.018": 0.0,
			"0.019": 0.0,
			"0.02": 0.0,
			"0.021": 0.0,
			"0.022": 0.0,
			"0.023": 0.0,
			"0.024": 0.0,
			"0.025": 0.0
		}
	}
}
