{
	 "smiles": "OC(=O)COC1=C2N=CC=CC2=C(Cl)C=C1", 
	 "Tm": 483.15, 
	 "num_atms": 24, 
	 "gaussian": { 
		 "optdone": 1, 
		 "sigma_profile": "yes", 
		 "theory": "DFT", 
		 "functional": "B3LYP", 
		 "basiset": "6-31G**", 
		 "properties": { 
			 "R2extent": 4920.461, 
			 "electric_dipole_moment_norm": 0.906972860674, 
			 "electric_quadrupole_moment_norm": 15.9676415218, 
			 "total_energy": -1164.6055258, 
			 "HOMO_LUMO_gap": 0.15423, 
			 "cosmo_polarized_energy": -12.55, 
			 "cosmo_cavitation_energy": 30.43, 
			 "cosmo_dispersion_energy": -22.16, 
			 "cosmo_repulsion_energy": 1.71, 
			 "cosmo_total_nonelectrostatic_energy": 9.98, 
			 "SMD_solvation_energy": 6.21 
		},
		"coords": [
			{
				"x": -2.9752914599,
				"y": 1.5497397714,
				"z": 2.7098295559,
				"element": "O" 
			},
			{
				"x": -2.1057534261,
				"y": 2.5038040359,
				"z": 2.3267316244,
				"element": "C" 
			},
			{
				"x": -1.7782103183,
				"y": 3.4379470027,
				"z": 3.0238185357,
				"element": "O" 
			},
			{
				"x": -1.6572831253,
				"y": 2.3631171673,
				"z": 0.8812695889,
				"element": "C" 
			},
			{
				"x": -1.9315449064,
				"y": 1.1070950131,
				"z": 0.2748445455,
				"element": "O" 
			},
			{
				"x": -1.0666599191,
				"y": 0.0561177552,
				"z": 0.3194013709,
				"element": "C" 
			},
			{
				"x": -0.0901926982,
				"y": -0.1747612229,
				"z": 1.3437622699,
				"element": "C" 
			},
			{
				"x": 0.0160449251,
				"y": 0.7134666848,
				"z": 2.3686638607,
				"element": "N" 
			},
			{
				"x": 0.9102064809,
				"y": 0.505025317,
				"z": 3.3116604448,
				"element": "C" 
			},
			{
				"x": 1.7835780808,
				"y": -0.6076194352,
				"z": 3.3229548087,
				"element": "C" 
			},
			{
				"x": 1.6945765092,
				"y": -1.5270587532,
				"z": 2.3060068792,
				"element": "C" 
			},
			{
				"x": 0.7407203456,
				"y": -1.3476775579,
				"z": 1.2699686183,
				"element": "C" 
			},
			{
				"x": 0.5548313365,
				"y": -2.2532688449,
				"z": 0.1923783996,
				"element": "C" 
			},
			{
				"x": 1.5503756317,
				"y": -3.7012690163,
				"z": 0.0716100986,
				"element": "Cl" 
			},
			{
				"x": -0.4038697191,
				"y": -2.0202247518,
				"z": -0.7674233036,
				"element": "C" 
			},
			{
				"x": -1.2057413394,
				"y": -0.8663584858,
				"z": -0.7028805566,
				"element": "C" 
			},
			{
				"x": -3.2065157752,
				"y": 1.758159182,
				"z": 3.6304877222,
				"element": "H" 
			},
			{
				"x": -2.2305048054,
				"y": 3.0904958312,
				"z": 0.2945148373,
				"element": "H" 
			},
			{
				"x": -0.6019680094,
				"y": 2.6334403428,
				"z": 0.8324871698,
				"element": "H" 
			},
			{
				"x": 0.9530234256,
				"y": 1.2463455438,
				"z": 4.1079862137,
				"element": "H" 
			},
			{
				"x": 2.5044563573,
				"y": -0.7251134759,
				"z": 4.1254156677,
				"element": "H" 
			},
			{
				"x": 2.3417191447,
				"y": -2.3965960351,
				"z": 2.2806180962,
				"element": "H" 
			},
			{
				"x": -0.5358188913,
				"y": -2.7230581408,
				"z": -1.582396595,
				"element": "H" 
			},
			{
				"x": -1.9547778441,
				"y": -0.6786479273,
				"z": -1.4642098528,
				"element": "H" 
			}
		],
		 "valence_orbital": [ 
			{
				"type": "occ",
				"energy": -0.304,
				"method": "rhf"
			},
			{
				"type": "occ",
				"energy": -0.27508,
				"method": "rhf"
			},
			{
				"type": "occ",
				"energy": -0.26696,
				"method": "rhf"
			},
			{
				"type": "occ",
				"energy": -0.26349,
				"method": "rhf"
			},
			{
				"type": "occ",
				"energy": -0.2182,
				"method": "rhf"
			},
			{
				"type": "unocc",
				"energy": -0.06397,
				"method": "rhf"
			},
			{
				"type": "unocc",
				"energy": -0.03102,
				"method": "rhf"
			},
			{
				"type": "unocc",
				"energy": 0.01016,
				"method": "rhf"
			},
			{
				"type": "unocc",
				"energy": 0.02115,
				"method": "rhf"
			},
			{
				"type": "unocc",
				"energy": 0.02641,
				"method": "rhf"
			}
		],
		"cosmo_sigma_profile": { 
			"-0.025": 0.0,
			"-0.024": 0.0,
			"-0.023": 0.0,
			"-0.022": 0.0,
			"-0.021": 0.0,
			"-0.02": 0.0,
			"-0.019": 0.192156686494,
			"-0.018": 0.576177159445,
			"-0.017": 1.03020915667,
			"-0.016": 0.60768754646,
			"-0.015": 1.50003889317,
			"-0.014": 0.594016807599,
			"-0.013": 0.0957008711586,
			"-0.012": 0.188539019421,
			"-0.011": 1.14801340603,
			"-0.01": 0.800256818084,
			"-0.009": 0.868425464938,
			"-0.008": 4.79948341889,
			"-0.007": 13.4124913313,
			"-0.006": 14.9370386609,
			"-0.005": 13.9012052158,
			"-0.004": 10.309692711,
			"-0.003": 10.9153393594,
			"-0.002": 11.5231725632,
			"-0.001": 14.7073189227,
			"0.0": 22.199895934,
			"0.001": 28.5290326806,
			"0.002": 24.6525791118,
			"0.003": 16.1230679256,
			"0.004": 12.5772542596,
			"0.005": 8.07415279091,
			"0.006": 5.0068954205,
			"0.007": 4.78739300286,
			"0.008": 4.13585202633,
			"0.009": 4.52202538274,
			"0.01": 3.30262566105,
			"0.011": 3.76695975423,
			"0.012": 5.53537656086,
			"0.013": 1.00190230532,
			"0.014": 0.0,
			"0.015": 0.0,
			"0.016": 0.0,
			"0.017": 0.0,
			"0.018": 0.0,
			"0.019": 0.0,
			"0.02": 0.0,
			"0.021": 0.0,
			"0.022": 0.0,
			"0.023": 0.0,
			"0.024": 0.0,
			"0.025": 0.0
		}
	}
}
