{
	 "smiles": "COC1=CC=C(NC(=O)C(C(F)(F)F)C(F)(F)F)C=C1", 
	 "Tm": 459.15, 
	 "num_atms": 29, 
	 "gaussian": { 
		 "optdone": 1, 
		 "sigma_profile": "yes", 
		 "theory": "DFT", 
		 "functional": "B3LYP", 
		 "basiset": "6-31G**", 
		 "properties": { 
			 "R2extent": 5696.1115, 
			 "electric_dipole_moment_norm": 4.32702349774, 
			 "electric_quadrupole_moment_norm": 8.14309885793, 
			 "total_energy": -1228.83468925, 
			 "HOMO_LUMO_gap": 0.21599, 
			 "cosmo_polarized_energy": -11.81, 
			 "cosmo_cavitation_energy": 35.08, 
			 "cosmo_dispersion_energy": -23.87, 
			 "cosmo_repulsion_energy": 1.74, 
			 "cosmo_total_nonelectrostatic_energy": 12.95, 
			 "SMD_solvation_energy": 9.3 
		},
		"coords": [
			{
				"x": 4.3279142048,
				"y": -1.7853285444,
				"z": -1.1296723425,
				"element": "C" 
			},
			{
				"x": 3.7585350321,
				"y": -1.3476782216,
				"z": 0.0957641056,
				"element": "O" 
			},
			{
				"x": 2.4028990388,
				"y": -1.2804951386,
				"z": 0.1928393156,
				"element": "C" 
			},
			{
				"x": 1.5127905627,
				"y": -1.6265888033,
				"z": -0.8320705491,
				"element": "C" 
			},
			{
				"x": 0.1380917178,
				"y": -1.5182112012,
				"z": -0.616646357,
				"element": "C" 
			},
			{
				"x": -0.3604109001,
				"y": -1.0557465154,
				"z": 0.6017587411,
				"element": "C" 
			},
			{
				"x": -1.7763838504,
				"y": -1.0388508424,
				"z": 0.8443430094,
				"element": "N" 
			},
			{
				"x": -2.7614192588,
				"y": -0.1314298278,
				"z": 0.5655992787,
				"element": "C" 
			},
			{
				"x": -3.9386941103,
				"y": -0.4163852171,
				"z": 0.7270604013,
				"element": "O" 
			},
			{
				"x": -2.4436450467,
				"y": 1.3134550754,
				"z": 0.0946814539,
				"element": "C" 
			},
			{
				"x": -1.9698334562,
				"y": 2.2212839597,
				"z": 1.2320496337,
				"element": "C" 
			},
			{
				"x": -2.8153349645,
				"y": 2.1236826807,
				"z": 2.2746777419,
				"element": "F" 
			},
			{
				"x": -1.9497329892,
				"y": 3.5082451676,
				"z": 0.8329270708,
				"element": "F" 
			},
			{
				"x": -0.7375570681,
				"y": 1.9180758813,
				"z": 1.6789388388,
				"element": "F" 
			},
			{
				"x": -1.6126477263,
				"y": 1.477775564,
				"z": -1.1808490651,
				"element": "C" 
			},
			{
				"x": -1.942556109,
				"y": 2.6268108139,
				"z": -1.8026883024,
				"element": "F" 
			},
			{
				"x": -1.8793009425,
				"y": 0.46562037,
				"z": -2.0375230284,
				"element": "F" 
			},
			{
				"x": -0.286966835,
				"y": 1.5059257007,
				"z": -0.9699072252,
				"element": "F" 
			},
			{
				"x": 0.5348727462,
				"y": -0.7273669047,
				"z": 1.628384255,
				"element": "C" 
			},
			{
				"x": 1.9033510523,
				"y": -0.8320482935,
				"z": 1.4261373277,
				"element": "C" 
			},
			{
				"x": 4.0259757434,
				"y": -2.8122424278,
				"z": -1.3717246384,
				"element": "H" 
			},
			{
				"x": 4.0538482443,
				"y": -1.1238009853,
				"z": -1.9610803794,
				"element": "H" 
			},
			{
				"x": 5.4088115884,
				"y": -1.7536269868,
				"z": -0.9866246233,
				"element": "H" 
			},
			{
				"x": 1.8727958191,
				"y": -1.9797067538,
				"z": -1.7906903961,
				"element": "H" 
			},
			{
				"x": -0.5542789259,
				"y": -1.782915305,
				"z": -1.4087763202,
				"element": "H" 
			},
			{
				"x": -2.1920444238,
				"y": -1.9104205459,
				"z": 1.1567525771,
				"element": "H" 
			},
			{
				"x": -3.4361440071,
				"y": 1.6849230487,
				"z": -0.1674956462,
				"element": "H" 
			},
			{
				"x": 0.1481591109,
				"y": -0.3815087595,
				"z": 2.580513004,
				"element": "H" 
			},
			{
				"x": 2.6095057532,
				"y": -0.5747469879,
				"z": 2.2083221185,
				"element": "H" 
			}
		],
		 "valence_orbital": [ 
			{
				"type": "occ",
				"energy": -0.33131,
				"method": "rhf"
			},
			{
				"type": "occ",
				"energy": -0.274,
				"method": "rhf"
			},
			{
				"type": "occ",
				"energy": -0.2698,
				"method": "rhf"
			},
			{
				"type": "occ",
				"energy": -0.26482,
				"method": "rhf"
			},
			{
				"type": "occ",
				"energy": -0.23298,
				"method": "rhf"
			},
			{
				"type": "unocc",
				"energy": -0.01699,
				"method": "rhf"
			},
			{
				"type": "unocc",
				"energy": -0.0092,
				"method": "rhf"
			},
			{
				"type": "unocc",
				"energy": 0.00026,
				"method": "rhf"
			},
			{
				"type": "unocc",
				"energy": 0.08156,
				"method": "rhf"
			},
			{
				"type": "unocc",
				"energy": 0.08494,
				"method": "rhf"
			}
		],
		"cosmo_sigma_profile": { 
			"-0.025": 0.0,
			"-0.024": 0.0,
			"-0.023": 0.0,
			"-0.022": 0.0,
			"-0.021": 0.0,
			"-0.02": 0.0,
			"-0.019": 0.0,
			"-0.018": 0.0,
			"-0.017": 0.0,
			"-0.016": 0.0,
			"-0.015": 0.340551154766,
			"-0.014": 0.927427085404,
			"-0.013": 0.927135930997,
			"-0.012": 1.39263490684,
			"-0.011": 1.58051384797,
			"-0.01": 2.54285520304,
			"-0.009": 2.54666045711,
			"-0.008": 1.86328056655,
			"-0.007": 5.0706456512,
			"-0.006": 13.5896644627,
			"-0.005": 17.7311135084,
			"-0.004": 18.0611235689,
			"-0.003": 18.0462613898,
			"-0.002": 16.0866018227,
			"-0.001": 15.5850349929,
			"0.0": 18.4435316341,
			"0.001": 27.5234367885,
			"0.002": 53.2120698048,
			"0.003": 19.7522716028,
			"0.004": 15.5958913061,
			"0.005": 5.92796492324,
			"0.006": 3.19913815867,
			"0.007": 1.29063295174,
			"0.008": 2.62284821469,
			"0.009": 2.92310329564,
			"0.01": 3.1034994768,
			"0.011": 2.16688021519,
			"0.012": 5.45733191528,
			"0.013": 1.90995840313,
			"0.014": 0.0,
			"0.015": 0.0,
			"0.016": 0.0,
			"0.017": 0.0,
			"0.018": 0.0,
			"0.019": 0.0,
			"0.02": 0.0,
			"0.021": 0.0,
			"0.022": 0.0,
			"0.023": 0.0,
			"0.024": 0.0,
			"0.025": 0.0
		}
	}
}
