{
	 "smiles": "NC(CSSCC(N)C(O)=O)C(O)=O", 
	 "Tm": 533.15, 
	 "num_atms": 26, 
	 "gaussian": { 
		 "optdone": 1, 
		 "sigma_profile": "yes", 
		 "theory": "DFT", 
		 "functional": "B3LYP", 
		 "basiset": "6-31G**", 
		 "properties": { 
			 "R2extent": 5628.1548, 
			 "electric_dipole_moment_norm": 1.00200018962, 
			 "electric_quadrupole_moment_norm": 18.1537676819, 
			 "total_energy": -1442.66434904, 
			 "HOMO_LUMO_gap": 0.20703, 
			 "cosmo_polarized_energy": -22.74, 
			 "cosmo_cavitation_energy": 33.71, 
			 "cosmo_dispersion_energy": -23.68, 
			 "cosmo_repulsion_energy": 1.84, 
			 "cosmo_total_nonelectrostatic_energy": 11.87, 
			 "SMD_solvation_energy": 4.69 
		},
		"coords": [
			{
				"x": -1.0535463201,
				"y": -2.5309681677,
				"z": 0.3009515642,
				"element": "N" 
			},
			{
				"x": -0.3039692889,
				"y": -2.5698340351,
				"z": 1.544837283,
				"element": "C" 
			},
			{
				"x": -1.0406839819,
				"y": -1.8109838742,
				"z": 2.6574761031,
				"element": "C" 
			},
			{
				"x": -1.29651609,
				"y": -0.0157147343,
				"z": 2.3116487209,
				"element": "S" 
			},
			{
				"x": 0.627579984,
				"y": 0.7874612496,
				"z": 2.4541680782,
				"element": "S" 
			},
			{
				"x": 1.2139482275,
				"y": 0.8344924313,
				"z": 0.7078343227,
				"element": "C" 
			},
			{
				"x": 0.4737223151,
				"y": 1.836907456,
				"z": -0.1856936594,
				"element": "C" 
			},
			{
				"x": 0.9471130075,
				"y": 1.6656131038,
				"z": -1.5635368539,
				"element": "N" 
			},
			{
				"x": 0.7203440727,
				"y": 3.2611135879,
				"z": 0.3173494824,
				"element": "C" 
			},
			{
				"x": -0.4196501219,
				"y": 3.9347121885,
				"z": 0.5726356192,
				"element": "O" 
			},
			{
				"x": 1.8233165573,
				"y": 3.7561292789,
				"z": 0.4234825904,
				"element": "O" 
			},
			{
				"x": -0.0628873113,
				"y": -4.0325810009,
				"z": 1.9115670208,
				"element": "C" 
			},
			{
				"x": 0.3204811427,
				"y": -4.1887895791,
				"z": 3.1982160792,
				"element": "O" 
			},
			{
				"x": -0.1457853273,
				"y": -4.957370949,
				"z": 1.1344241107,
				"element": "O" 
			},
			{
				"x": -0.9804174737,
				"y": -1.6181540783,
				"z": -0.134882247,
				"element": "H" 
			},
			{
				"x": -0.701195273,
				"y": -3.2378566024,
				"z": -0.3370324663,
				"element": "H" 
			},
			{
				"x": 0.7166333649,
				"y": -2.1414849634,
				"z": 1.486992912,
				"element": "H" 
			},
			{
				"x": -2.0599492428,
				"y": -2.1989842075,
				"z": 2.7554006734,
				"element": "H" 
			},
			{
				"x": -0.5249835254,
				"y": -1.909275337,
				"z": 3.6128237504,
				"element": "H" 
			},
			{
				"x": 2.2678791792,
				"y": 1.1243537198,
				"z": 0.7889420939,
				"element": "H" 
			},
			{
				"x": 1.1591943949,
				"y": -0.1566134688,
				"z": 0.2542288691,
				"element": "H" 
			},
			{
				"x": -0.5986586679,
				"y": 1.6262910179,
				"z": -0.1595986936,
				"element": "H" 
			},
			{
				"x": 1.887661413,
				"y": 2.0492790479,
				"z": -1.6411346779,
				"element": "H" 
			},
			{
				"x": 0.3608537814,
				"y": 2.1946131838,
				"z": -2.2048594506,
				"element": "H" 
			},
			{
				"x": -0.1571319875,
				"y": 4.8243317279,
				"z": 0.8674338715,
				"element": "H" 
			},
			{
				"x": 0.4953471716,
				"y": -5.1377869958,
				"z": 3.3166249037,
				"element": "H" 
			}
		],
		 "valence_orbital": [ 
			{
				"type": "occ",
				"energy": -0.28942,
				"method": "rhf"
			},
			{
				"type": "occ",
				"energy": -0.25796,
				"method": "rhf"
			},
			{
				"type": "occ",
				"energy": -0.25175,
				"method": "rhf"
			},
			{
				"type": "occ",
				"energy": -0.25012,
				"method": "rhf"
			},
			{
				"type": "occ",
				"energy": -0.23875,
				"method": "rhf"
			},
			{
				"type": "unocc",
				"energy": -0.03172,
				"method": "rhf"
			},
			{
				"type": "unocc",
				"energy": -0.00656,
				"method": "rhf"
			},
			{
				"type": "unocc",
				"energy": -0.00175,
				"method": "rhf"
			},
			{
				"type": "unocc",
				"energy": 0.03165,
				"method": "rhf"
			},
			{
				"type": "unocc",
				"energy": 0.04625,
				"method": "rhf"
			}
		],
		"cosmo_sigma_profile": { 
			"-0.025": 0.0,
			"-0.024": 0.0,
			"-0.023": 0.0,
			"-0.022": 0.0,
			"-0.021": 0.0,
			"-0.02": 0.0,
			"-0.019": 0.383044572179,
			"-0.018": 1.60928330968,
			"-0.017": 1.80001118607,
			"-0.016": 2.21914668593,
			"-0.015": 1.72309088241,
			"-0.014": 0.90909582315,
			"-0.013": 1.05654456876,
			"-0.012": 1.44793025832,
			"-0.011": 4.01898761964,
			"-0.01": 4.46714430731,
			"-0.009": 4.97510335778,
			"-0.008": 6.98685143942,
			"-0.007": 13.6657775236,
			"-0.006": 16.5073628423,
			"-0.005": 14.0106129748,
			"-0.004": 13.3744487178,
			"-0.003": 17.0140375653,
			"-0.002": 12.3710495671,
			"-0.001": 11.137259533,
			"0.0": 11.289228376,
			"0.001": 12.7701051125,
			"0.002": 12.1680412764,
			"0.003": 13.321850222,
			"0.004": 14.8013030625,
			"0.005": 13.1071973342,
			"0.006": 11.1893598823,
			"0.007": 8.27684631783,
			"0.008": 8.0761211432,
			"0.009": 6.59089701981,
			"0.01": 5.63151487258,
			"0.011": 9.17589451197,
			"0.012": 5.24581738953,
			"0.013": 1.57222888675,
			"0.014": 1.38453500904,
			"0.015": 0.486759632039,
			"0.016": 1.29763937658,
			"0.017": 0.990010726445,
			"0.018": 0.226806702709,
			"0.019": 0.0,
			"0.02": 0.0,
			"0.021": 0.0,
			"0.022": 0.0,
			"0.023": 0.0,
			"0.024": 0.0,
			"0.025": 0.0
		}
	}
}
