{
	 "smiles": "CC(=O)OC1=C2N=C(O)C=CC2=CC=C1", 
	 "Tm": 525.15, 
	 "num_atms": 24, 
	 "gaussian": { 
		 "optdone": 1, 
		 "sigma_profile": "yes", 
		 "theory": "DFT", 
		 "functional": "B3LYP", 
		 "basiset": "6-31G**", 
		 "properties": { 
			 "R2extent": 3218.024, 
			 "electric_dipole_moment_norm": 1.6776093407, 
			 "electric_quadrupole_moment_norm": 15.2181934187, 
			 "total_energy": -705.041753259, 
			 "HOMO_LUMO_gap": 0.17384, 
			 "cosmo_polarized_energy": -13.36, 
			 "cosmo_cavitation_energy": 29.11, 
			 "cosmo_dispersion_energy": -20.82, 
			 "cosmo_repulsion_energy": 1.64, 
			 "cosmo_total_nonelectrostatic_energy": 9.93, 
			 "SMD_solvation_energy": 5.61 
		},
		"coords": [
			{
				"x": 3.3437156782,
				"y": 0.5253462607,
				"z": 2.3728418507,
				"element": "C" 
			},
			{
				"x": 1.9825480975,
				"y": 0.0783882351,
				"z": 1.9040587731,
				"element": "C" 
			},
			{
				"x": 1.4205050293,
				"y": -0.9427236362,
				"z": 2.205164128,
				"element": "O" 
			},
			{
				"x": 1.4470935217,
				"y": 1.0293135585,
				"z": 1.0665255507,
				"element": "O" 
			},
			{
				"x": 0.2764920206,
				"y": 0.7150298962,
				"z": 0.3872491907,
				"element": "C" 
			},
			{
				"x": 0.3276538094,
				"y": -0.1993598949,
				"z": -0.7004060791,
				"element": "C" 
			},
			{
				"x": 1.5095454929,
				"y": -0.8019779907,
				"z": -1.0149415935,
				"element": "N" 
			},
			{
				"x": 1.5191006649,
				"y": -1.644462364,
				"z": -2.0191617428,
				"element": "C" 
			},
			{
				"x": 2.6841263112,
				"y": -2.2511055403,
				"z": -2.3355535422,
				"element": "O" 
			},
			{
				"x": 0.3833901525,
				"y": -1.9716839611,
				"z": -2.8140840826,
				"element": "C" 
			},
			{
				"x": -0.803331988,
				"y": -1.3625325921,
				"z": -2.5087871766,
				"element": "C" 
			},
			{
				"x": -0.8790017498,
				"y": -0.4394386716,
				"z": -1.4268301456,
				"element": "C" 
			},
			{
				"x": -2.0720483586,
				"y": 0.2314978267,
				"z": -1.0606639287,
				"element": "C" 
			},
			{
				"x": -2.076148435,
				"y": 1.1181672207,
				"z": -0.0056726131,
				"element": "C" 
			},
			{
				"x": -0.8913351609,
				"y": 1.3595219818,
				"z": 0.7252902675,
				"element": "C" 
			},
			{
				"x": 3.7000474476,
				"y": -0.1490912553,
				"z": 3.1507641684,
				"element": "H" 
			},
			{
				"x": 4.0368078319,
				"y": 0.5118099697,
				"z": 1.525847808,
				"element": "H" 
			},
			{
				"x": 3.303594905,
				"y": 1.5518014088,
				"z": 2.7467365104,
				"element": "H" 
			},
			{
				"x": 3.3362670859,
				"y": -1.9287641373,
				"z": -1.6928406245,
				"element": "H" 
			},
			{
				"x": 0.4871080236,
				"y": -2.6815500255,
				"z": -3.6263182287,
				"element": "H" 
			},
			{
				"x": -1.6987943918,
				"y": -1.5767795169,
				"z": -3.0861809265,
				"element": "H" 
			},
			{
				"x": -2.9798565892,
				"y": 0.0379577494,
				"z": -1.6256445901,
				"element": "H" 
			},
			{
				"x": -2.9889787092,
				"y": 1.6341031581,
				"z": 0.2747180094,
				"element": "H" 
			},
			{
				"x": -0.8837006898,
				"y": 2.0543323201,
				"z": 1.5585890175,
				"element": "H" 
			}
		],
		 "valence_orbital": [ 
			{
				"type": "occ",
				"energy": -0.29812,
				"method": "rhf"
			},
			{
				"type": "occ",
				"energy": -0.27494,
				"method": "rhf"
			},
			{
				"type": "occ",
				"energy": -0.27131,
				"method": "rhf"
			},
			{
				"type": "occ",
				"energy": -0.24244,
				"method": "rhf"
			},
			{
				"type": "occ",
				"energy": -0.22535,
				"method": "rhf"
			},
			{
				"type": "unocc",
				"energy": -0.05151,
				"method": "rhf"
			},
			{
				"type": "unocc",
				"energy": -0.01229,
				"method": "rhf"
			},
			{
				"type": "unocc",
				"energy": 0.01059,
				"method": "rhf"
			},
			{
				"type": "unocc",
				"energy": 0.02556,
				"method": "rhf"
			},
			{
				"type": "unocc",
				"energy": 0.08429,
				"method": "rhf"
			}
		],
		"cosmo_sigma_profile": { 
			"-0.025": 0.0,
			"-0.024": 0.0,
			"-0.023": 0.0,
			"-0.022": 0.0,
			"-0.021": 0.0,
			"-0.02": 0.0,
			"-0.019": 0.0,
			"-0.018": 0.0507721746501,
			"-0.017": 0.520561715064,
			"-0.016": 0.799493205286,
			"-0.015": 0.634702027948,
			"-0.014": 1.0047158946,
			"-0.013": 0.670866458512,
			"-0.012": 0.602846676871,
			"-0.011": 0.774473728616,
			"-0.01": 0.467879323312,
			"-0.009": 0.613758390088,
			"-0.008": 2.30012160888,
			"-0.007": 10.3614272932,
			"-0.006": 16.1142850216,
			"-0.005": 16.9473142826,
			"-0.004": 15.2233042655,
			"-0.003": 15.4430378451,
			"-0.002": 15.3458998759,
			"-0.001": 12.3404972714,
			"0.0": 15.6243073369,
			"0.001": 19.4141091369,
			"0.002": 18.4939005584,
			"0.003": 15.1099434552,
			"0.004": 10.625906632,
			"0.005": 6.6358719674,
			"0.006": 5.0007237591,
			"0.007": 5.91311503998,
			"0.008": 5.66745797504,
			"0.009": 5.521902611,
			"0.01": 5.8431030906,
			"0.011": 5.5446200155,
			"0.012": 3.28323865336,
			"0.013": 0.243970645395,
			"0.014": 0.0,
			"0.015": 0.0,
			"0.016": 0.0,
			"0.017": 0.0,
			"0.018": 0.0,
			"0.019": 0.0,
			"0.02": 0.0,
			"0.021": 0.0,
			"0.022": 0.0,
			"0.023": 0.0,
			"0.024": 0.0,
			"0.025": 0.0
		}
	}
}
