{
	 "smiles": "NC1=C(C=O)C=C(Cl)C=C1", 
	 "Tm": 345.15, 
	 "num_atms": 16, 
	 "gaussian": { 
		 "optdone": 1, 
		 "sigma_profile": "yes", 
		 "theory": "DFT", 
		 "functional": "B3LYP", 
		 "basiset": "6-31G**", 
		 "properties": { 
			 "R2extent": 2028.977, 
			 "electric_dipole_moment_norm": 2.45297320206, 
			 "electric_quadrupole_moment_norm": 11.5730965217, 
			 "total_energy": -860.53310615, 
			 "HOMO_LUMO_gap": 0.14816, 
			 "cosmo_polarized_energy": -9.18, 
			 "cosmo_cavitation_energy": 22.01, 
			 "cosmo_dispersion_energy": -16.71, 
			 "cosmo_repulsion_energy": 1.35, 
			 "cosmo_total_nonelectrostatic_energy": 6.64, 
			 "SMD_solvation_energy": 4.34 
		},
		"coords": [
			{
				"x": 1.6311048303,
				"y": 0.721858195,
				"z": 1.6539675322,
				"element": "N" 
			},
			{
				"x": 0.6184307111,
				"y": 0.6159525924,
				"z": 0.7580448466,
				"element": "C" 
			},
			{
				"x": -0.4543796659,
				"y": -0.3027005287,
				"z": 0.9732976378,
				"element": "C" 
			},
			{
				"x": -0.508660514,
				"y": -1.1583395298,
				"z": 2.1527756593,
				"element": "C" 
			},
			{
				"x": 0.3226909675,
				"y": -1.1891501888,
				"z": 3.0585039656,
				"element": "O" 
			},
			{
				"x": -1.4970292281,
				"y": -0.3982725134,
				"z": 0.03114684,
				"element": "C" 
			},
			{
				"x": -1.496456819,
				"y": 0.388348918,
				"z": -1.1041782281,
				"element": "C" 
			},
			{
				"x": -2.8020182822,
				"y": 0.2635772512,
				"z": -2.2767081753,
				"element": "Cl" 
			},
			{
				"x": -0.4476279032,
				"y": 1.2952559584,
				"z": -1.3271852616,
				"element": "C" 
			},
			{
				"x": 0.5874637219,
				"y": 1.406564,
				"z": -0.4156213487,
				"element": "C" 
			},
			{
				"x": 2.3853140134,
				"y": 1.3694063502,
				"z": 1.5009647803,
				"element": "H" 
			},
			{
				"x": 1.6019350857,
				"y": 0.1311313741,
				"z": 2.4771409696,
				"element": "H" 
			},
			{
				"x": -1.3948713582,
				"y": -1.8255273075,
				"z": 2.1982661461,
				"element": "H" 
			},
			{
				"x": -2.3051314403,
				"y": -1.1016687874,
				"z": 0.2097222879,
				"element": "H" 
			},
			{
				"x": -0.4522914346,
				"y": 1.9106779269,
				"z": -2.2206674398,
				"element": "H" 
			},
			{
				"x": 1.3931273155,
				"y": 2.1120862894,
				"z": -0.5997702119,
				"element": "H" 
			}
		],
		 "valence_orbital": [ 
			{
				"type": "occ",
				"energy": -0.31409,
				"method": "rhf"
			},
			{
				"type": "occ",
				"energy": -0.30246,
				"method": "rhf"
			},
			{
				"type": "occ",
				"energy": -0.27347,
				"method": "rhf"
			},
			{
				"type": "occ",
				"energy": -0.26167,
				"method": "rhf"
			},
			{
				"type": "occ",
				"energy": -0.21277,
				"method": "rhf"
			},
			{
				"type": "unocc",
				"energy": -0.06461,
				"method": "rhf"
			},
			{
				"type": "unocc",
				"energy": -0.0046,
				"method": "rhf"
			},
			{
				"type": "unocc",
				"energy": 0.02855,
				"method": "rhf"
			},
			{
				"type": "unocc",
				"energy": 0.03483,
				"method": "rhf"
			},
			{
				"type": "unocc",
				"energy": 0.0827,
				"method": "rhf"
			}
		],
		"cosmo_sigma_profile": { 
			"-0.025": 0.0,
			"-0.024": 0.0,
			"-0.023": 0.0,
			"-0.022": 0.0,
			"-0.021": 0.0,
			"-0.02": 0.0,
			"-0.019": 0.0,
			"-0.018": 0.0,
			"-0.017": 0.0,
			"-0.016": 0.0,
			"-0.015": 0.0,
			"-0.014": 0.910851112588,
			"-0.013": 1.64247499649,
			"-0.012": 1.41468514557,
			"-0.011": 1.65623903368,
			"-0.01": 1.31242311331,
			"-0.009": 2.35411326732,
			"-0.008": 6.09928426048,
			"-0.007": 7.9967588339,
			"-0.006": 8.61018872739,
			"-0.005": 8.03108913853,
			"-0.004": 6.63383360812,
			"-0.003": 7.4720163436,
			"-0.002": 7.84903514865,
			"-0.001": 9.61678578515,
			"0.0": 10.9710417589,
			"0.001": 14.5735043113,
			"0.002": 20.7452597926,
			"0.003": 20.4186324203,
			"0.004": 12.6019904461,
			"0.005": 12.5921064381,
			"0.006": 3.03554066981,
			"0.007": 2.00943200227,
			"0.008": 0.980023914967,
			"0.009": 1.69646156441,
			"0.01": 2.20946364575,
			"0.011": 1.74553020727,
			"0.012": 1.96948245095,
			"0.013": 1.42876489854,
			"0.014": 0.102491329854,
			"0.015": 0.0,
			"0.016": 0.0,
			"0.017": 0.0,
			"0.018": 0.0,
			"0.019": 0.0,
			"0.02": 0.0,
			"0.021": 0.0,
			"0.022": 0.0,
			"0.023": 0.0,
			"0.024": 0.0,
			"0.025": 0.0
		}
	}
}
