{
	 "smiles": "CC(C)C=C(C)C", 
	 "Tm": 145.15, 
	 "num_atms": 21, 
	 "gaussian": { 
		 "optdone": 1, 
		 "sigma_profile": "yes", 
		 "theory": "DFT", 
		 "functional": "B3LYP", 
		 "basiset": "6-31G**", 
		 "properties": { 
			 "R2extent": 1557.5781, 
			 "electric_dipole_moment_norm": 0.235508704722, 
			 "electric_quadrupole_moment_norm": 1.54327294086, 
			 "total_energy": -275.179320268, 
			 "HOMO_LUMO_gap": 0.25735, 
			 "cosmo_polarized_energy": -1.51, 
			 "cosmo_cavitation_energy": 22.1, 
			 "cosmo_dispersion_energy": -15.96, 
			 "cosmo_repulsion_energy": 1.37, 
			 "cosmo_total_nonelectrostatic_energy": 7.51, 
			 "SMD_solvation_energy": 4.26 
		},
		"coords": [
			{
				"x": -3.4302618226,
				"y": 1.2162095757,
				"z": 1.2631529799,
				"element": "C" 
			},
			{
				"x": -2.2559011041,
				"y": 0.2577182204,
				"z": 1.5476356328,
				"element": "C" 
			},
			{
				"x": -1.3762969132,
				"y": 0.7616849247,
				"z": 2.7100494562,
				"element": "C" 
			},
			{
				"x": -1.4591012052,
				"y": -0.1113027402,
				"z": 0.3009193911,
				"element": "C" 
			},
			{
				"x": -0.7169040446,
				"y": 0.6579557923,
				"z": -0.5120089555,
				"element": "C" 
			},
			{
				"x": -0.0109866844,
				"y": 0.0516831934,
				"z": -1.703522056,
				"element": "C" 
			},
			{
				"x": -0.4939560522,
				"y": 2.1444111604,
				"z": -0.3637787168,
				"element": "C" 
			},
			{
				"x": -3.0859286057,
				"y": 2.2052832609,
				"z": 0.946460057,
				"element": "H" 
			},
			{
				"x": -4.0741849409,
				"y": 0.8220346561,
				"z": 0.4706577322,
				"element": "H" 
			},
			{
				"x": -4.0430567134,
				"y": 1.3510408223,
				"z": 2.1620066159,
				"element": "H" 
			},
			{
				"x": -2.7084310941,
				"y": -0.6805422511,
				"z": 1.8952815049,
				"element": "H" 
			},
			{
				"x": -1.976804326,
				"y": 0.8940332878,
				"z": 3.6175359867,
				"element": "H" 
			},
			{
				"x": -0.9054739003,
				"y": 1.7226921106,
				"z": 2.4822062107,
				"element": "H" 
			},
			{
				"x": -0.5771830139,
				"y": 0.0481028781,
				"z": 2.9342735936,
				"element": "H" 
			},
			{
				"x": -1.5076705573,
				"y": -1.1688000613,
				"z": 0.0390711625,
				"element": "H" 
			},
			{
				"x": -0.1912205362,
				"y": -1.0238107239,
				"z": -1.7832836646,
				"element": "H" 
			},
			{
				"x": 1.0741751707,
				"y": 0.2113127198,
				"z": -1.6434373885,
				"element": "H" 
			},
			{
				"x": -0.3404928833,
				"y": 0.5222945389,
				"z": -2.6397997493,
				"element": "H" 
			},
			{
				"x": -0.8354914326,
				"y": 2.6754896931,
				"z": -1.262380341,
				"element": "H" 
			},
			{
				"x": -1.0036878452,
				"y": 2.5791536882,
				"z": 0.4951435319,
				"element": "H" 
			},
			{
				"x": 0.5776585043,
				"y": 2.3641552539,
				"z": -0.2661829837,
				"element": "H" 
			}
		],
		 "valence_orbital": [ 
			{
				"type": "occ",
				"energy": -0.35007,
				"method": "rhf"
			},
			{
				"type": "occ",
				"energy": -0.3347,
				"method": "rhf"
			},
			{
				"type": "occ",
				"energy": -0.3111,
				"method": "rhf"
			},
			{
				"type": "occ",
				"energy": -0.30744,
				"method": "rhf"
			},
			{
				"type": "occ",
				"energy": -0.22635,
				"method": "rhf"
			},
			{
				"type": "unocc",
				"energy": 0.031,
				"method": "rhf"
			},
			{
				"type": "unocc",
				"energy": 0.08456,
				"method": "rhf"
			},
			{
				"type": "unocc",
				"energy": 0.11496,
				"method": "rhf"
			},
			{
				"type": "unocc",
				"energy": 0.12203,
				"method": "rhf"
			},
			{
				"type": "unocc",
				"energy": 0.14111,
				"method": "rhf"
			}
		],
		"cosmo_sigma_profile": { 
			"-0.025": 0.0,
			"-0.024": 0.0,
			"-0.023": 0.0,
			"-0.022": 0.0,
			"-0.021": 0.0,
			"-0.02": 0.0,
			"-0.019": 0.0,
			"-0.018": 0.0,
			"-0.017": 0.0,
			"-0.016": 0.0,
			"-0.015": 0.0,
			"-0.014": 0.0,
			"-0.013": 0.0,
			"-0.012": 0.0,
			"-0.011": 0.0,
			"-0.01": 0.0,
			"-0.009": 0.0,
			"-0.008": 0.0,
			"-0.007": 0.0,
			"-0.006": 0.0,
			"-0.005": 0.0,
			"-0.004": 2.6533370284,
			"-0.003": 16.7725102641,
			"-0.002": 27.8145358897,
			"-0.001": 28.252039551,
			"0.0": 30.129612715,
			"0.001": 30.9437379603,
			"0.002": 17.3457468391,
			"0.003": 5.28223552357,
			"0.004": 3.24192577946,
			"0.005": 3.75849067936,
			"0.006": 2.69594105754,
			"0.007": 1.73920693004,
			"0.008": 0.341612631475,
			"0.009": 0.0,
			"0.01": 0.0,
			"0.011": 0.0,
			"0.012": 0.0,
			"0.013": 0.0,
			"0.014": 0.0,
			"0.015": 0.0,
			"0.016": 0.0,
			"0.017": 0.0,
			"0.018": 0.0,
			"0.019": 0.0,
			"0.02": 0.0,
			"0.021": 0.0,
			"0.022": 0.0,
			"0.023": 0.0,
			"0.024": 0.0,
			"0.025": 0.0
		}
	}
}
