{
	 "smiles": "CC1=CC(=O)NC(=N1)C1=CC=C(N)C=C1", 
	 "Tm": 496.15, 
	 "num_atms": 26, 
	 "gaussian": { 
		 "optdone": 1, 
		 "sigma_profile": "yes", 
		 "theory": "DFT", 
		 "functional": "B3LYP", 
		 "basiset": "6-31G**", 
		 "properties": { 
			 "R2extent": 4274.8514, 
			 "electric_dipole_moment_norm": 6.35948185468, 
			 "electric_quadrupole_moment_norm": 20.0759722066, 
			 "total_energy": -665.312140666, 
			 "HOMO_LUMO_gap": 0.15928, 
			 "cosmo_polarized_energy": -19.03, 
			 "cosmo_cavitation_energy": 30.36, 
			 "cosmo_dispersion_energy": -22.5, 
			 "cosmo_repulsion_energy": 1.76, 
			 "cosmo_total_nonelectrostatic_energy": 9.61, 
			 "SMD_solvation_energy": 4.81 
		},
		"coords": [
			{
				"x": 1.768245002,
				"y": -2.0008477201,
				"z": -3.2042054318,
				"element": "C" 
			},
			{
				"x": 0.5339430312,
				"y": -1.9868330024,
				"z": -2.3440281333,
				"element": "C" 
			},
			{
				"x": -0.5556858818,
				"y": -2.7694917019,
				"z": -2.6218725263,
				"element": "C" 
			},
			{
				"x": -1.7153077692,
				"y": -2.7447159636,
				"z": -1.7621311919,
				"element": "C" 
			},
			{
				"x": -2.7501919247,
				"y": -3.3931677334,
				"z": -1.8610327515,
				"element": "O" 
			},
			{
				"x": -1.5536106273,
				"y": -1.8401650677,
				"z": -0.6835641838,
				"element": "N" 
			},
			{
				"x": -0.4461637586,
				"y": -1.0674175302,
				"z": -0.4734270547,
				"element": "C" 
			},
			{
				"x": 0.5927662599,
				"y": -1.1251838301,
				"z": -1.2737475405,
				"element": "N" 
			},
			{
				"x": -0.4272133133,
				"y": -0.1543707157,
				"z": 0.6852200761,
				"element": "C" 
			},
			{
				"x": -1.5805732799,
				"y": 0.1935182553,
				"z": 1.4085977485,
				"element": "C" 
			},
			{
				"x": -1.5187998181,
				"y": 1.0582983486,
				"z": 2.4927693442,
				"element": "C" 
			},
			{
				"x": -0.289825362,
				"y": 1.6119522429,
				"z": 2.8985503388,
				"element": "C" 
			},
			{
				"x": -0.2127196457,
				"y": 2.4309822299,
				"z": 4.0120970996,
				"element": "N" 
			},
			{
				"x": 0.8681183719,
				"y": 1.2732515741,
				"z": 2.1696003636,
				"element": "C" 
			},
			{
				"x": 0.7957980265,
				"y": 0.4130336077,
				"z": 1.0867335618,
				"element": "C" 
			},
			{
				"x": 1.6744650571,
				"y": -2.6976052264,
				"z": -4.0399767951,
				"element": "H" 
			},
			{
				"x": 1.9628457172,
				"y": -0.99693332,
				"z": -3.5964802719,
				"element": "H" 
			},
			{
				"x": 2.6402077377,
				"y": -2.2806040126,
				"z": -2.6031734065,
				"element": "H" 
			},
			{
				"x": -0.5815410727,
				"y": -3.436892757,
				"z": -3.4746302614,
				"element": "H" 
			},
			{
				"x": -2.3263978679,
				"y": -1.8328803787,
				"z": -0.0303417512,
				"element": "H" 
			},
			{
				"x": -2.5580375207,
				"y": -0.1799154009,
				"z": 1.1155080882,
				"element": "H" 
			},
			{
				"x": -2.4271455385,
				"y": 1.3153986543,
				"z": 3.0311787125,
				"element": "H" 
			},
			{
				"x": -1.0683599062,
				"y": 2.8760399144,
				"z": 4.3100264307,
				"element": "H" 
			},
			{
				"x": 0.5963174285,
				"y": 3.0310186015,
				"z": 4.0786126286,
				"element": "H" 
			},
			{
				"x": 1.8271232844,
				"y": 1.6900202717,
				"z": 2.4668588431,
				"element": "H" 
			},
			{
				"x": 1.6866433701,
				"y": 0.1593106605,
				"z": 0.5236580643,
				"element": "H" 
			}
		],
		 "valence_orbital": [ 
			{
				"type": "occ",
				"energy": -0.26805,
				"method": "rhf"
			},
			{
				"type": "occ",
				"energy": -0.26346,
				"method": "rhf"
			},
			{
				"type": "occ",
				"energy": -0.24385,
				"method": "rhf"
			},
			{
				"type": "occ",
				"energy": -0.23433,
				"method": "rhf"
			},
			{
				"type": "occ",
				"energy": -0.20805,
				"method": "rhf"
			},
			{
				"type": "unocc",
				"energy": -0.04877,
				"method": "rhf"
			},
			{
				"type": "unocc",
				"energy": -0.01336,
				"method": "rhf"
			},
			{
				"type": "unocc",
				"energy": -0.00052,
				"method": "rhf"
			},
			{
				"type": "unocc",
				"energy": 0.04353,
				"method": "rhf"
			},
			{
				"type": "unocc",
				"energy": 0.06793,
				"method": "rhf"
			}
		],
		"cosmo_sigma_profile": { 
			"-0.025": 0.0,
			"-0.024": 0.0,
			"-0.023": 0.0,
			"-0.022": 0.0,
			"-0.021": 0.0,
			"-0.02": 0.0,
			"-0.019": 0.0,
			"-0.018": 0.0,
			"-0.017": 0.0,
			"-0.016": 0.12059882952,
			"-0.015": 0.993178782322,
			"-0.014": 1.06784427645,
			"-0.013": 3.84916477707,
			"-0.012": 3.99663970362,
			"-0.011": 3.73990773527,
			"-0.01": 3.8566301698,
			"-0.009": 5.0543434462,
			"-0.008": 4.39798506054,
			"-0.007": 4.7988481491,
			"-0.006": 8.77777371174,
			"-0.005": 12.5414245073,
			"-0.004": 15.5735735484,
			"-0.003": 12.7779852747,
			"-0.002": 14.8886905606,
			"-0.001": 20.2578897112,
			"0.0": 17.4940113394,
			"0.001": 14.8999498823,
			"0.002": 14.8151326147,
			"0.003": 14.4994285358,
			"0.004": 14.0050201616,
			"0.005": 14.8142544026,
			"0.006": 3.70909166403,
			"0.007": 2.9809412899,
			"0.008": 3.5209758091,
			"0.009": 3.94135230649,
			"0.01": 3.19917493211,
			"0.011": 2.14828094324,
			"0.012": 3.23884116797,
			"0.013": 3.5447128034,
			"0.014": 6.24041325004,
			"0.015": 2.07914713544,
			"0.016": 0.139337555112,
			"0.017": 0.0,
			"0.018": 0.0,
			"0.019": 0.0,
			"0.02": 0.0,
			"0.021": 0.0,
			"0.022": 0.0,
			"0.023": 0.0,
			"0.024": 0.0,
			"0.025": 0.0
		}
	}
}
