{
	 "smiles": "ON1C(=O)C2C3CC(C=C3)C2C1=O", 
	 "Tm": 441.15, 
	 "num_atms": 22, 
	 "gaussian": { 
		 "optdone": 1, 
		 "sigma_profile": "yes", 
		 "theory": "DFT", 
		 "functional": "B3LYP", 
		 "basiset": "6-31G**", 
		 "properties": { 
			 "R2extent": 2423.7884, 
			 "electric_dipole_moment_norm": 3.73010948097, 
			 "electric_quadrupole_moment_norm": 15.7731223732, 
			 "total_energy": -628.728672559, 
			 "HOMO_LUMO_gap": 0.2229, 
			 "cosmo_polarized_energy": -13.47, 
			 "cosmo_cavitation_energy": 24.45, 
			 "cosmo_dispersion_energy": -18.26, 
			 "cosmo_repulsion_energy": 1.45, 
			 "cosmo_total_nonelectrostatic_energy": 7.63, 
			 "SMD_solvation_energy": 5.76 
		},
		"coords": [
			{
				"x": 2.5019998695,
				"y": -2.502472767,
				"z": 0.9693263592,
				"element": "O" 
			},
			{
				"x": 1.3596387512,
				"y": -2.1623630094,
				"z": 0.2790635791,
				"element": "N" 
			},
			{
				"x": 1.3569968208,
				"y": -1.0422462719,
				"z": -0.5294241182,
				"element": "C" 
			},
			{
				"x": 2.3582628074,
				"y": -0.3591497934,
				"z": -0.6810633008,
				"element": "O" 
			},
			{
				"x": -0.0393160548,
				"y": -0.9099389881,
				"z": -1.0961701891,
				"element": "C" 
			},
			{
				"x": -0.8516794545,
				"y": 0.3641184427,
				"z": -0.643024006,
				"element": "C" 
			},
			{
				"x": -2.2867731703,
				"y": -0.2137081445,
				"z": -0.7378728046,
				"element": "C" 
			},
			{
				"x": -2.0140999734,
				"y": -1.3408346909,
				"z": 0.2903713936,
				"element": "C" 
			},
			{
				"x": -1.3948328772,
				"y": -0.5299898977,
				"z": 1.4206428288,
				"element": "C" 
			},
			{
				"x": -0.7073155992,
				"y": 0.4796305125,
				"z": 0.8681594955,
				"element": "C" 
			},
			{
				"x": -0.838832817,
				"y": -2.0830389855,
				"z": -0.4519833857,
				"element": "C" 
			},
			{
				"x": 0.1412574589,
				"y": -2.8230457496,
				"z": 0.4529376412,
				"element": "C" 
			},
			{
				"x": -0.0526346367,
				"y": -3.773890147,
				"z": 1.1739435399,
				"element": "O" 
			},
			{
				"x": 3.1182621189,
				"y": -1.799466963,
				"z": 0.6719169303,
				"element": "H" 
			},
			{
				"x": 0.0069771523,
				"y": -0.9645011418,
				"z": -2.1878397858,
				"element": "H" 
			},
			{
				"x": -0.6213777213,
				"y": 1.2566305743,
				"z": -1.2254028617,
				"element": "H" 
			},
			{
				"x": -3.0473259478,
				"y": 0.49317522,
				"z": -0.3966744586,
				"element": "H" 
			},
			{
				"x": -2.5477113964,
				"y": -0.5826677563,
				"z": -1.7365576628,
				"element": "H" 
			},
			{
				"x": -2.8414060616,
				"y": -1.9980072947,
				"z": 0.5589189919,
				"element": "H" 
			},
			{
				"x": -1.4319960765,
				"y": -0.8062070825,
				"z": 2.4682125427,
				"element": "H" 
			},
			{
				"x": -0.0697396737,
				"y": 1.1966329385,
				"z": 1.3728497552,
				"element": "H" 
			},
			{
				"x": -1.2378535184,
				"y": -2.7864590045,
				"z": -1.1884304841,
				"element": "H" 
			}
		],
		 "valence_orbital": [ 
			{
				"type": "occ",
				"energy": -0.33277,
				"method": "rhf"
			},
			{
				"type": "occ",
				"energy": -0.29464,
				"method": "rhf"
			},
			{
				"type": "occ",
				"energy": -0.26665,
				"method": "rhf"
			},
			{
				"type": "occ",
				"energy": -0.2612,
				"method": "rhf"
			},
			{
				"type": "occ",
				"energy": -0.25537,
				"method": "rhf"
			},
			{
				"type": "unocc",
				"energy": -0.03247,
				"method": "rhf"
			},
			{
				"type": "unocc",
				"energy": -0.00361,
				"method": "rhf"
			},
			{
				"type": "unocc",
				"energy": 0.0249,
				"method": "rhf"
			},
			{
				"type": "unocc",
				"energy": 0.06894,
				"method": "rhf"
			},
			{
				"type": "unocc",
				"energy": 0.0808,
				"method": "rhf"
			}
		],
		"cosmo_sigma_profile": { 
			"-0.025": 0.0,
			"-0.024": 0.0,
			"-0.023": 0.0,
			"-0.022": 0.0,
			"-0.021": 0.0,
			"-0.02": 0.0,
			"-0.019": 0.0,
			"-0.018": 0.0,
			"-0.017": 0.00671931965713,
			"-0.016": 0.179706126343,
			"-0.015": 0.688398274708,
			"-0.014": 0.621855220023,
			"-0.013": 0.958273876711,
			"-0.012": 0.437362925429,
			"-0.011": 0.525875968486,
			"-0.01": 0.308615366772,
			"-0.009": 0.340708095535,
			"-0.008": 2.16504884445,
			"-0.007": 11.0774420313,
			"-0.006": 14.3731728027,
			"-0.005": 14.8853933769,
			"-0.004": 16.5295174928,
			"-0.003": 16.5624559592,
			"-0.002": 15.2172158633,
			"-0.001": 17.0415684419,
			"0.0": 12.2319838196,
			"0.001": 6.83349985972,
			"0.002": 6.05306309216,
			"0.003": 5.35799149317,
			"0.004": 4.36584759431,
			"0.005": 4.88243376317,
			"0.006": 4.88767252667,
			"0.007": 3.06140814301,
			"0.008": 4.5353896751,
			"0.009": 5.99569545401,
			"0.01": 7.77143810049,
			"0.011": 8.75601859259,
			"0.012": 5.72896272696,
			"0.013": 0.685592875856,
			"0.014": 0.0,
			"0.015": 0.0,
			"0.016": 0.0,
			"0.017": 0.0,
			"0.018": 0.0,
			"0.019": 0.0,
			"0.02": 0.0,
			"0.021": 0.0,
			"0.022": 0.0,
			"0.023": 0.0,
			"0.024": 0.0,
			"0.025": 0.0
		}
	}
}
