{
	 "smiles": "OC(=O)C1=NN(C=C1)C1=CC=CC=C1", 
	 "Tm": 412.15, 
	 "num_atms": 22, 
	 "gaussian": { 
		 "optdone": 1, 
		 "sigma_profile": "yes", 
		 "theory": "DFT", 
		 "functional": "B3LYP", 
		 "basiset": "6-31G**", 
		 "properties": { 
			 "R2extent": 3732.8407, 
			 "electric_dipole_moment_norm": 6.62863652043, 
			 "electric_quadrupole_moment_norm": 23.3138061794, 
			 "total_energy": -645.827789382, 
			 "HOMO_LUMO_gap": 0.188, 
			 "cosmo_polarized_energy": -13.87, 
			 "cosmo_cavitation_energy": 27.12, 
			 "cosmo_dispersion_energy": -20.12, 
			 "cosmo_repulsion_energy": 1.55, 
			 "cosmo_total_nonelectrostatic_energy": 8.56, 
			 "SMD_solvation_energy": 5.8 
		},
		"coords": [
			{
				"x": -3.3418915382,
				"y": -3.2297849207,
				"z": 0.3730461121,
				"element": "O" 
			},
			{
				"x": -2.4271672729,
				"y": -3.3709309238,
				"z": 1.3579359196,
				"element": "C" 
			},
			{
				"x": -2.4945813021,
				"y": -4.255458338,
				"z": 2.1793529483,
				"element": "O" 
			},
			{
				"x": -1.3433427045,
				"y": -2.3549321683,
				"z": 1.343537024,
				"element": "C" 
			},
			{
				"x": -1.3288700691,
				"y": -1.4041165382,
				"z": 0.4074768098,
				"element": "N" 
			},
			{
				"x": -0.2367655444,
				"y": -0.6583003091,
				"z": 0.6702654219,
				"element": "N" 
			},
			{
				"x": 0.437723925,
				"y": -1.1341964281,
				"z": 1.7680437895,
				"element": "C" 
			},
			{
				"x": -0.2501861683,
				"y": -2.2316345552,
				"z": 2.2290559597,
				"element": "C" 
			},
			{
				"x": 0.0861845627,
				"y": 0.4616324981,
				"z": -0.1503347618,
				"element": "C" 
			},
			{
				"x": 1.2196184739,
				"y": 1.237036027,
				"z": 0.1195576645,
				"element": "C" 
			},
			{
				"x": 1.5181649391,
				"y": 2.3284037976,
				"z": -0.6950195867,
				"element": "C" 
			},
			{
				"x": 0.6979201519,
				"y": 2.6539409821,
				"z": -1.7755619397,
				"element": "C" 
			},
			{
				"x": -0.4305141629,
				"y": 1.8747251098,
				"z": -2.0370630307,
				"element": "C" 
			},
			{
				"x": -0.7418529628,
				"y": 0.7812985713,
				"z": -1.232215223,
				"element": "C" 
			},
			{
				"x": -3.0904858288,
				"y": -2.4587170561,
				"z": -0.1650395084,
				"element": "H" 
			},
			{
				"x": 1.3379160178,
				"y": -0.6666265131,
				"z": 2.131920305,
				"element": "H" 
			},
			{
				"x": -0.0174007212,
				"y": -2.8615648757,
				"z": 3.0728475171,
				"element": "H" 
			},
			{
				"x": 1.8717833516,
				"y": 1.0037367071,
				"z": 0.9530437811,
				"element": "H" 
			},
			{
				"x": 2.3994379931,
				"y": 2.9244845821,
				"z": -0.4784082383,
				"element": "H" 
			},
			{
				"x": 0.9354843306,
				"y": 3.5047958566,
				"z": -2.4061994024,
				"element": "H" 
			},
			{
				"x": -1.0779839428,
				"y": 2.1162870099,
				"z": -2.8746181904,
				"element": "H" 
			},
			{
				"x": -1.6147915276,
				"y": 0.1728214848,
				"z": -1.428823371,
				"element": "H" 
			}
		],
		 "valence_orbital": [ 
			{
				"type": "occ",
				"energy": -0.303,
				"method": "rhf"
			},
			{
				"type": "occ",
				"energy": -0.27891,
				"method": "rhf"
			},
			{
				"type": "occ",
				"energy": -0.2706,
				"method": "rhf"
			},
			{
				"type": "occ",
				"energy": -0.26956,
				"method": "rhf"
			},
			{
				"type": "occ",
				"energy": -0.24339,
				"method": "rhf"
			},
			{
				"type": "unocc",
				"energy": -0.05539,
				"method": "rhf"
			},
			{
				"type": "unocc",
				"energy": -0.02441,
				"method": "rhf"
			},
			{
				"type": "unocc",
				"energy": -0.00891,
				"method": "rhf"
			},
			{
				"type": "unocc",
				"energy": 0.02705,
				"method": "rhf"
			},
			{
				"type": "unocc",
				"energy": 0.06501,
				"method": "rhf"
			}
		],
		"cosmo_sigma_profile": { 
			"-0.025": 0.0,
			"-0.024": 0.0,
			"-0.023": 0.0,
			"-0.022": 0.0,
			"-0.021": 0.0,
			"-0.02": 0.0,
			"-0.019": 0.0,
			"-0.018": 0.0,
			"-0.017": 0.0,
			"-0.016": 0.0,
			"-0.015": 0.0565319301899,
			"-0.014": 0.598180172526,
			"-0.013": 1.03333844294,
			"-0.012": 0.846721617079,
			"-0.011": 2.02620903059,
			"-0.01": 3.01382205611,
			"-0.009": 2.94436482061,
			"-0.008": 4.01761239239,
			"-0.007": 5.2157553588,
			"-0.006": 13.8374103216,
			"-0.005": 14.3862091048,
			"-0.004": 14.3461590649,
			"-0.003": 11.6704149493,
			"-0.002": 13.751859223,
			"-0.001": 13.3300332959,
			"0.0": 16.0943446151,
			"0.001": 18.3148465129,
			"0.002": 17.6710705729,
			"0.003": 16.9112751079,
			"0.004": 13.7009224569,
			"0.005": 7.03120591257,
			"0.006": 2.21726768381,
			"0.007": 2.34912237338,
			"0.008": 3.25041877928,
			"0.009": 3.43172497987,
			"0.01": 5.30646670505,
			"0.011": 4.83857761964,
			"0.012": 5.27482246253,
			"0.013": 1.34063318085,
			"0.014": 0.0257434255825,
			"0.015": 0.0,
			"0.016": 0.0,
			"0.017": 0.0,
			"0.018": 0.0,
			"0.019": 0.0,
			"0.02": 0.0,
			"0.021": 0.0,
			"0.022": 0.0,
			"0.023": 0.0,
			"0.024": 0.0,
			"0.025": 0.0
		}
	}
}
