{
	 "smiles": "COC1=CC=CC=C1NC(=O)C(C(F)(F)F)C(F)(F)F", 
	 "Tm": 436.15, 
	 "num_atms": 29, 
	 "gaussian": { 
		 "optdone": 1, 
		 "sigma_profile": "yes", 
		 "theory": "DFT", 
		 "functional": "B3LYP", 
		 "basiset": "6-31G**", 
		 "properties": { 
			 "R2extent": 6934.0924, 
			 "electric_dipole_moment_norm": 6.4078839448, 
			 "electric_quadrupole_moment_norm": 18.1180419494, 
			 "total_energy": -1228.84254597, 
			 "HOMO_LUMO_gap": 0.20093, 
			 "cosmo_polarized_energy": -12.43, 
			 "cosmo_cavitation_energy": 35.6, 
			 "cosmo_dispersion_energy": -23.88, 
			 "cosmo_repulsion_energy": 1.74, 
			 "cosmo_total_nonelectrostatic_energy": 13.46, 
			 "SMD_solvation_energy": 9.46 
		},
		"coords": [
			{
				"x": 1.7725050008,
				"y": -1.0568792713,
				"z": 3.7488329485,
				"element": "C" 
			},
			{
				"x": 1.203606363,
				"y": -1.4919609701,
				"z": 2.5205022195,
				"element": "O" 
			},
			{
				"x": 0.0910435257,
				"y": -0.8530694343,
				"z": 2.057897584,
				"element": "C" 
			},
			{
				"x": -0.5471373127,
				"y": 0.211606645,
				"z": 2.6963791638,
				"element": "C" 
			},
			{
				"x": -1.6936824551,
				"y": 0.7789714346,
				"z": 2.1305665135,
				"element": "C" 
			},
			{
				"x": -2.2201786909,
				"y": 0.2734281097,
				"z": 0.9457499819,
				"element": "C" 
			},
			{
				"x": -1.5978710627,
				"y": -0.8077585983,
				"z": 0.3152909238,
				"element": "C" 
			},
			{
				"x": -0.4258336004,
				"y": -1.3555598794,
				"z": 0.8403545222,
				"element": "C" 
			},
			{
				"x": 0.2451431239,
				"y": -2.4532230155,
				"z": 0.2497183676,
				"element": "N" 
			},
			{
				"x": 0.6787245761,
				"y": -2.6781554864,
				"z": -1.0335600044,
				"element": "C" 
			},
			{
				"x": 1.2657542023,
				"y": -3.7024495442,
				"z": -1.3364297518,
				"element": "O" 
			},
			{
				"x": 0.4400638504,
				"y": -1.5718700733,
				"z": -2.0789526162,
				"element": "C" 
			},
			{
				"x": 1.7834554869,
				"y": -1.0970520042,
				"z": -2.6445002151,
				"element": "C" 
			},
			{
				"x": 2.4106912242,
				"y": -2.0184331624,
				"z": -3.3811554848,
				"element": "F" 
			},
			{
				"x": 2.5961380405,
				"y": -0.7469008445,
				"z": -1.623878946,
				"element": "F" 
			},
			{
				"x": 1.6062944065,
				"y": -0.0030786512,
				"z": -3.4145638802,
				"element": "F" 
			},
			{
				"x": -0.5202374895,
				"y": -2.0548015687,
				"z": -3.1671291339,
				"element": "C" 
			},
			{
				"x": -1.6734243771,
				"y": -2.4821486566,
				"z": -2.590561205,
				"element": "F" 
			},
			{
				"x": -0.8415495419,
				"y": -1.0521162939,
				"z": -4.0073118942,
				"element": "F" 
			},
			{
				"x": -0.0320573042,
				"y": -3.0635330927,
				"z": -3.8933392672,
				"element": "F" 
			},
			{
				"x": 2.1039322414,
				"y": -0.0132531764,
				"z": 3.6877004909,
				"element": "H" 
			},
			{
				"x": 2.6362668967,
				"y": -1.6994695275,
				"z": 3.9226497393,
				"element": "H" 
			},
			{
				"x": 1.0646992952,
				"y": -1.1649795223,
				"z": 4.5798383812,
				"element": "H" 
			},
			{
				"x": -0.15480807,
				"y": 0.6079334457,
				"z": 3.6252495037,
				"element": "H" 
			},
			{
				"x": -2.1762831455,
				"y": 1.611708544,
				"z": 2.6329020172,
				"element": "H" 
			},
			{
				"x": -3.1234442324,
				"y": 0.6968548757,
				"z": 0.5189220165,
				"element": "H" 
			},
			{
				"x": -2.029008419,
				"y": -1.244496686,
				"z": -0.5783339203,
				"element": "H" 
			},
			{
				"x": 0.6360262011,
				"y": -3.1291440471,
				"z": 0.8969110129,
				"element": "H" 
			},
			{
				"x": -0.018428733,
				"y": -0.6900695484,
				"z": -1.6296490674,
				"element": "H" 
			}
		],
		 "valence_orbital": [ 
			{
				"type": "occ",
				"energy": -0.33981,
				"method": "rhf"
			},
			{
				"type": "occ",
				"energy": -0.307,
				"method": "rhf"
			},
			{
				"type": "occ",
				"energy": -0.27215,
				"method": "rhf"
			},
			{
				"type": "occ",
				"energy": -0.25636,
				"method": "rhf"
			},
			{
				"type": "occ",
				"energy": -0.23,
				"method": "rhf"
			},
			{
				"type": "unocc",
				"energy": -0.02907,
				"method": "rhf"
			},
			{
				"type": "unocc",
				"energy": -0.01103,
				"method": "rhf"
			},
			{
				"type": "unocc",
				"energy": 0.00872,
				"method": "rhf"
			},
			{
				"type": "unocc",
				"energy": 0.07211,
				"method": "rhf"
			},
			{
				"type": "unocc",
				"energy": 0.08488,
				"method": "rhf"
			}
		],
		"cosmo_sigma_profile": { 
			"-0.025": 0.0,
			"-0.024": 0.0,
			"-0.023": 0.0,
			"-0.022": 0.0,
			"-0.021": 0.0,
			"-0.02": 0.0,
			"-0.019": 0.0,
			"-0.018": 0.0,
			"-0.017": 0.0,
			"-0.016": 0.0,
			"-0.015": 0.0,
			"-0.014": 0.18579619072,
			"-0.013": 0.600104956276,
			"-0.012": 0.520055924435,
			"-0.011": 0.881610915494,
			"-0.01": 2.11031554641,
			"-0.009": 2.7211345125,
			"-0.008": 2.30588177777,
			"-0.007": 5.38843672682,
			"-0.006": 14.4055950201,
			"-0.005": 18.708305325,
			"-0.004": 19.5808636965,
			"-0.003": 16.9198322286,
			"-0.002": 14.9245385794,
			"-0.001": 14.9209478164,
			"0.0": 19.0266879482,
			"0.001": 33.9923308322,
			"0.002": 59.3402534145,
			"0.003": 18.7197897379,
			"0.004": 11.5292766287,
			"0.005": 8.04828902491,
			"0.006": 3.17070463144,
			"0.007": 2.18211034581,
			"0.008": 2.15690969604,
			"0.009": 1.68761935717,
			"0.01": 2.66769553153,
			"0.011": 3.4419689121,
			"0.012": 4.00512722135,
			"0.013": 0.513231035792,
			"0.014": 0.0,
			"0.015": 0.0,
			"0.016": 0.0,
			"0.017": 0.0,
			"0.018": 0.0,
			"0.019": 0.0,
			"0.02": 0.0,
			"0.021": 0.0,
			"0.022": 0.0,
			"0.023": 0.0,
			"0.024": 0.0,
			"0.025": 0.0
		}
	}
}
