{
	 "smiles": "ClCC1=NC=C(O1)C1=C(Br)C=CC=C1", 
	 "Tm": 359.15, 
	 "num_atms": 21, 
	 "gaussian": { 
		 "optdone": 1, 
		 "sigma_profile": "yes", 
		 "theory": "DFT", 
		 "functional": "B3LYP", 
		 "basiset": "6-31G**", 
		 "properties": { 
			 "R2extent": 5024.6099, 
			 "electric_dipole_moment_norm": 3.23595005215, 
			 "electric_quadrupole_moment_norm": 13.8563699832, 
			 "total_energy": -3546.84072831, 
			 "HOMO_LUMO_gap": 0.18274, 
			 "cosmo_polarized_energy": -9.6, 
			 "cosmo_cavitation_energy": 30.23, 
			 "cosmo_dispersion_energy": -22.09, 
			 "cosmo_repulsion_energy": 1.76, 
			 "cosmo_total_nonelectrostatic_energy": 9.9, 
			 "SMD_solvation_energy": 2.26 
		},
		"coords": [
			{
				"x": 2.5263936561,
				"y": -1.586264642,
				"z": 4.0886727173,
				"element": "Cl" 
			},
			{
				"x": 0.8032200623,
				"y": -0.979149942,
				"z": 3.9802666356,
				"element": "C" 
			},
			{
				"x": 0.5698435653,
				"y": -0.1589478153,
				"z": 2.7718040104,
				"element": "C" 
			},
			{
				"x": 0.4823212943,
				"y": 1.1368986065,
				"z": 2.6930853971,
				"element": "N" 
			},
			{
				"x": 0.2671122755,
				"y": 1.3852593304,
				"z": 1.3516858728,
				"element": "C" 
			},
			{
				"x": 0.2336744195,
				"y": 0.2047230985,
				"z": 0.6616517032,
				"element": "C" 
			},
			{
				"x": 0.4290338041,
				"y": -0.7964535659,
				"z": 1.5800782146,
				"element": "O" 
			},
			{
				"x": 0.086230223,
				"y": -0.1091583266,
				"z": -0.7594989793,
				"element": "C" 
			},
			{
				"x": -0.7060834934,
				"y": -1.1507641392,
				"z": -1.2788837813,
				"element": "C" 
			},
			{
				"x": -1.7403297226,
				"y": -2.2913682392,
				"z": -0.1465883143,
				"element": "Br" 
			},
			{
				"x": -0.8016273766,
				"y": -1.367657628,
				"z": -2.652928517,
				"element": "C" 
			},
			{
				"x": -0.1211194476,
				"y": -0.5366271175,
				"z": -3.5417314265,
				"element": "C" 
			},
			{
				"x": 0.6576511274,
				"y": 0.513128553,
				"z": -3.0540579534,
				"element": "C" 
			},
			{
				"x": 0.7621648855,
				"y": 0.7135790344,
				"z": -1.6815202056,
				"element": "C" 
			},
			{
				"x": 0.1730457342,
				"y": -1.8680750559,
				"z": 3.9903836748,
				"element": "H" 
			},
			{
				"x": 0.6272633751,
				"y": -0.3705629614,
				"z": 4.864744914,
				"element": "H" 
			},
			{
				"x": 0.126847551,
				"y": 2.3865527505,
				"z": 0.9714282182,
				"element": "H" 
			},
			{
				"x": -1.4192431824,
				"y": -2.1793051957,
				"z": -3.0197067587,
				"element": "H" 
			},
			{
				"x": -0.2036511211,
				"y": -0.7130164439,
				"z": -4.6098009615,
				"element": "H" 
			},
			{
				"x": 1.194407373,
				"y": 1.163700699,
				"z": -3.7372471083,
				"element": "H" 
			},
			{
				"x": 1.3936449973,
				"y": 1.5071090004,
				"z": -1.2949373521,
				"element": "H" 
			}
		],
		 "valence_orbital": [ 
			{
				"type": "occ",
				"energy": -0.29963,
				"method": "rhf"
			},
			{
				"type": "occ",
				"energy": -0.29043,
				"method": "rhf"
			},
			{
				"type": "occ",
				"energy": -0.28777,
				"method": "rhf"
			},
			{
				"type": "occ",
				"energy": -0.25658,
				"method": "rhf"
			},
			{
				"type": "occ",
				"energy": -0.23623,
				"method": "rhf"
			},
			{
				"type": "unocc",
				"energy": -0.05349,
				"method": "rhf"
			},
			{
				"type": "unocc",
				"energy": -0.02556,
				"method": "rhf"
			},
			{
				"type": "unocc",
				"energy": -0.01971,
				"method": "rhf"
			},
			{
				"type": "unocc",
				"energy": -0.00022,
				"method": "rhf"
			},
			{
				"type": "unocc",
				"energy": 0.0385,
				"method": "rhf"
			}
		],
		"cosmo_sigma_profile": { 
			"-0.025": 0.0,
			"-0.024": 0.0,
			"-0.023": 0.0,
			"-0.022": 0.0,
			"-0.021": 0.0,
			"-0.02": 0.0,
			"-0.019": 0.0,
			"-0.018": 0.0,
			"-0.017": 0.0,
			"-0.016": 0.0,
			"-0.015": 0.0,
			"-0.014": 0.0,
			"-0.013": 0.0,
			"-0.012": 0.0,
			"-0.011": 0.0,
			"-0.01": 0.405292178491,
			"-0.009": 4.27860995263,
			"-0.008": 6.05094908779,
			"-0.007": 12.209206527,
			"-0.006": 15.804467337,
			"-0.005": 14.2029852947,
			"-0.004": 10.9230568236,
			"-0.003": 11.0041087821,
			"-0.002": 12.5989182969,
			"-0.001": 14.7827289606,
			"0.0": 18.5900967094,
			"0.001": 24.7565584179,
			"0.002": 25.7034265447,
			"0.003": 24.6987265437,
			"0.004": 18.7322304827,
			"0.005": 13.5595887914,
			"0.006": 10.4734963875,
			"0.007": 2.30398449559,
			"0.008": 1.23744950517,
			"0.009": 1.50517453321,
			"0.01": 0.942348773851,
			"0.011": 0.522541801334,
			"0.012": 0.777214691273,
			"0.013": 1.36629004087,
			"0.014": 0.850571125231,
			"0.015": 0.531449530252,
			"0.016": 0.0390924283025,
			"0.017": 0.0,
			"0.018": 0.0,
			"0.019": 0.0,
			"0.02": 0.0,
			"0.021": 0.0,
			"0.022": 0.0,
			"0.023": 0.0,
			"0.024": 0.0,
			"0.025": 0.0
		}
	}
}
