{
	 "smiles": "CCOC1=CC(CC(O)=O)=CC=C1", 
	 "Tm": 363.15, 
	 "num_atms": 25, 
	 "gaussian": { 
		 "optdone": 1, 
		 "sigma_profile": "yes", 
		 "theory": "DFT", 
		 "functional": "B3LYP", 
		 "basiset": "6-31G**", 
		 "properties": { 
			 "R2extent": 3106.0003, 
			 "electric_dipole_moment_norm": 0.468929173757, 
			 "electric_quadrupole_moment_norm": 6.08862164862, 
			 "total_energy": -613.982894208, 
			 "HOMO_LUMO_gap": 0.20722, 
			 "cosmo_polarized_energy": -10.88, 
			 "cosmo_cavitation_energy": 29.18, 
			 "cosmo_dispersion_energy": -20.87, 
			 "cosmo_repulsion_energy": 1.7, 
			 "cosmo_total_nonelectrostatic_energy": 10.01, 
			 "SMD_solvation_energy": 6.44 
		},
		"coords": [
			{
				"x": 1.9608905897,
				"y": -2.8462933781,
				"z": 2.9991845902,
				"element": "C" 
			},
			{
				"x": 1.1775550287,
				"y": -2.0018360009,
				"z": 2.0094074353,
				"element": "C" 
			},
			{
				"x": 1.9134172202,
				"y": -0.7966288353,
				"z": 1.7964998543,
				"element": "O" 
			},
			{
				"x": 1.4154654588,
				"y": 0.1319305005,
				"z": 0.9311401052,
				"element": "C" 
			},
			{
				"x": 0.2118304766,
				"y": -0.004347202,
				"z": 0.2327968186,
				"element": "C" 
			},
			{
				"x": -0.2118632788,
				"y": 1.0112788282,
				"z": -0.6385451999,
				"element": "C" 
			},
			{
				"x": -1.5330540865,
				"y": 0.8610951508,
				"z": -1.3818692639,
				"element": "C" 
			},
			{
				"x": -1.554841897,
				"y": -0.394917973,
				"z": -2.2325262412,
				"element": "C" 
			},
			{
				"x": -1.301839248,
				"y": -0.1344927592,
				"z": -3.5357248737,
				"element": "O" 
			},
			{
				"x": -1.7500778621,
				"y": -1.5171916264,
				"z": -1.8165897884,
				"element": "O" 
			},
			{
				"x": 0.5699142448,
				"y": 2.1538876498,
				"z": -0.8099300273,
				"element": "C" 
			},
			{
				"x": 1.7713930568,
				"y": 2.2849605962,
				"z": -0.1038165083,
				"element": "C" 
			},
			{
				"x": 2.1972286264,
				"y": 1.2865525741,
				"z": 0.7616725708,
				"element": "C" 
			},
			{
				"x": 2.0856199571,
				"y": -2.3143640023,
				"z": 3.94657772,
				"element": "H" 
			},
			{
				"x": 2.9528629559,
				"y": -3.0827043603,
				"z": 2.6040788834,
				"element": "H" 
			},
			{
				"x": 1.4318911221,
				"y": -3.7842126473,
				"z": 3.194060282,
				"element": "H" 
			},
			{
				"x": 1.046127338,
				"y": -2.5334723349,
				"z": 1.0567832143,
				"element": "H" 
			},
			{
				"x": 0.1779872939,
				"y": -1.7655147338,
				"z": 2.400731309,
				"element": "H" 
			},
			{
				"x": -0.4010072746,
				"y": -0.8913997056,
				"z": 0.3370606335,
				"element": "H" 
			},
			{
				"x": -2.3575163221,
				"y": 0.7707519801,
				"z": -0.6666956739,
				"element": "H" 
			},
			{
				"x": -1.7122055042,
				"y": 1.7346427874,
				"z": -2.0116142433,
				"element": "H" 
			},
			{
				"x": -1.301966885,
				"y": -0.995289923,
				"z": -3.9883195921,
				"element": "H" 
			},
			{
				"x": 0.2451889221,
				"y": 2.9386506878,
				"z": -1.4868397299,
				"element": "H" 
			},
			{
				"x": 2.3796249528,
				"y": 3.1755205021,
				"z": -0.2345561863,
				"element": "H" 
			},
			{
				"x": 3.1258751143,
				"y": 1.3706942251,
				"z": 1.3164339117,
				"element": "H" 
			}
		],
		 "valence_orbital": [ 
			{
				"type": "occ",
				"energy": -0.3193,
				"method": "rhf"
			},
			{
				"type": "occ",
				"energy": -0.31088,
				"method": "rhf"
			},
			{
				"type": "occ",
				"energy": -0.27669,
				"method": "rhf"
			},
			{
				"type": "occ",
				"energy": -0.24406,
				"method": "rhf"
			},
			{
				"type": "occ",
				"energy": -0.2163,
				"method": "rhf"
			},
			{
				"type": "unocc",
				"energy": -0.00908,
				"method": "rhf"
			},
			{
				"type": "unocc",
				"energy": 0.00863,
				"method": "rhf"
			},
			{
				"type": "unocc",
				"energy": 0.02213,
				"method": "rhf"
			},
			{
				"type": "unocc",
				"energy": 0.07794,
				"method": "rhf"
			},
			{
				"type": "unocc",
				"energy": 0.10052,
				"method": "rhf"
			}
		],
		"cosmo_sigma_profile": { 
			"-0.025": 0.0,
			"-0.024": 0.0,
			"-0.023": 0.0,
			"-0.022": 0.0,
			"-0.021": 0.0,
			"-0.02": 0.0,
			"-0.019": 0.0,
			"-0.018": 0.756395010735,
			"-0.017": 1.04180477416,
			"-0.016": 0.680533991063,
			"-0.015": 1.22515733953,
			"-0.014": 0.545408401516,
			"-0.013": 0.0539211369219,
			"-0.012": 0.87356998274,
			"-0.011": 1.00866151802,
			"-0.01": 0.947561367818,
			"-0.009": 0.378948451553,
			"-0.008": 0.37671313891,
			"-0.007": 2.13382564153,
			"-0.006": 8.22384569566,
			"-0.005": 16.0602040132,
			"-0.004": 24.4596526789,
			"-0.003": 24.1506834562,
			"-0.002": 19.4931679145,
			"-0.001": 16.370110017,
			"0.0": 15.4386325595,
			"0.001": 13.5057724551,
			"0.002": 10.6774606241,
			"0.003": 12.1614287292,
			"0.004": 13.2681745824,
			"0.005": 14.0613994483,
			"0.006": 9.00518779304,
			"0.007": 3.28478960844,
			"0.008": 4.27129060232,
			"0.009": 4.90807240289,
			"0.01": 3.40247756779,
			"0.011": 3.28401447597,
			"0.012": 4.14060351412,
			"0.013": 0.251551822894,
			"0.014": 0.0,
			"0.015": 0.0,
			"0.016": 0.0,
			"0.017": 0.0,
			"0.018": 0.0,
			"0.019": 0.0,
			"0.02": 0.0,
			"0.021": 0.0,
			"0.022": 0.0,
			"0.023": 0.0,
			"0.024": 0.0,
			"0.025": 0.0
		}
	}
}
