{
	 "smiles": "O=C1ON=C2C=NC3=CC=CC=C3N12", 
	 "Tm": 438.15, 
	 "num_atms": 19, 
	 "gaussian": { 
		 "optdone": 1, 
		 "sigma_profile": "yes", 
		 "theory": "DFT", 
		 "functional": "B3LYP", 
		 "basiset": "6-31G**", 
		 "properties": { 
			 "R2extent": 2684.8816, 
			 "electric_dipole_moment_norm": 4.2500905061, 
			 "electric_quadrupole_moment_norm": 10.7186019699, 
			 "total_energy": -660.63351541, 
			 "HOMO_LUMO_gap": 0.14911, 
			 "cosmo_polarized_energy": -10.63, 
			 "cosmo_cavitation_energy": 24.02, 
			 "cosmo_dispersion_energy": -18.37, 
			 "cosmo_repulsion_energy": 1.38, 
			 "cosmo_total_nonelectrostatic_energy": 7.02, 
			 "SMD_solvation_energy": 3.5 
		},
		"coords": [
			{
				"x": 3.0299320698,
				"y": 1.2072415995,
				"z": 1.5299814527,
				"element": "O" 
			},
			{
				"x": 1.8933118816,
				"y": 1.566396846,
				"z": 1.3535820768,
				"element": "C" 
			},
			{
				"x": 1.2349353248,
				"y": 2.5334571128,
				"z": 2.0683532909,
				"element": "O" 
			},
			{
				"x": -0.0943596711,
				"y": 2.7091921935,
				"z": 1.5991912012,
				"element": "N" 
			},
			{
				"x": -0.2033500008,
				"y": 1.8529511408,
				"z": 0.6237666954,
				"element": "C" 
			},
			{
				"x": -1.3417342456,
				"y": 1.5839726596,
				"z": -0.229405209,
				"element": "C" 
			},
			{
				"x": -1.2973711328,
				"y": 0.6940880493,
				"z": -1.1650966002,
				"element": "N" 
			},
			{
				"x": -0.1222290008,
				"y": -0.0344104434,
				"z": -1.3671461557,
				"element": "C" 
			},
			{
				"x": -0.0982817412,
				"y": -0.9956227803,
				"z": -2.3896218486,
				"element": "C" 
			},
			{
				"x": 1.0486564987,
				"y": -1.7431233193,
				"z": -2.6260607063,
				"element": "C" 
			},
			{
				"x": 2.1916664139,
				"y": -1.5400035329,
				"z": -1.8415482839,
				"element": "C" 
			},
			{
				"x": 2.2042999644,
				"y": -0.5945766014,
				"z": -0.8179479028,
				"element": "C" 
			},
			{
				"x": 1.0472321357,
				"y": 0.1524202416,
				"z": -0.5870237918,
				"element": "C" 
			},
			{
				"x": 0.9514086511,
				"y": 1.1274740061,
				"z": 0.4148210587,
				"element": "N" 
			},
			{
				"x": -2.255296385,
				"y": 2.1523375325,
				"z": -0.0701596479,
				"element": "H" 
			},
			{
				"x": -1.0001482611,
				"y": -1.1272900337,
				"z": -2.9778646988,
				"element": "H" 
			},
			{
				"x": 1.0592896382,
				"y": -2.4844698755,
				"z": -3.4184946773,
				"element": "H" 
			},
			{
				"x": 3.0866076914,
				"y": -2.1254991647,
				"z": -2.0284412683,
				"element": "H" 
			},
			{
				"x": 3.080630169,
				"y": -0.4275356303,
				"z": -0.2042849848,
				"element": "H" 
			}
		],
		 "valence_orbital": [ 
			{
				"type": "occ",
				"energy": -0.30827,
				"method": "rhf"
			},
			{
				"type": "occ",
				"energy": -0.30404,
				"method": "rhf"
			},
			{
				"type": "occ",
				"energy": -0.2903,
				"method": "rhf"
			},
			{
				"type": "occ",
				"energy": -0.27222,
				"method": "rhf"
			},
			{
				"type": "occ",
				"energy": -0.24238,
				"method": "rhf"
			},
			{
				"type": "unocc",
				"energy": -0.09327,
				"method": "rhf"
			},
			{
				"type": "unocc",
				"energy": -0.03683,
				"method": "rhf"
			},
			{
				"type": "unocc",
				"energy": -0.02015,
				"method": "rhf"
			},
			{
				"type": "unocc",
				"energy": 0.0275,
				"method": "rhf"
			},
			{
				"type": "unocc",
				"energy": 0.0568,
				"method": "rhf"
			}
		],
		"cosmo_sigma_profile": { 
			"-0.025": 0.0,
			"-0.024": 0.0,
			"-0.023": 0.0,
			"-0.022": 0.0,
			"-0.021": 0.0,
			"-0.02": 0.0,
			"-0.019": 0.0,
			"-0.018": 0.0,
			"-0.017": 0.0,
			"-0.016": 0.0,
			"-0.015": 0.0,
			"-0.014": 0.0,
			"-0.013": 0.0,
			"-0.012": 0.0,
			"-0.011": 0.0,
			"-0.01": 1.51124084286,
			"-0.009": 2.50458200727,
			"-0.008": 5.76355874057,
			"-0.007": 12.4643681663,
			"-0.006": 12.7325084112,
			"-0.005": 14.9189222293,
			"-0.004": 12.1191544506,
			"-0.003": 11.7734969614,
			"-0.002": 10.6237527487,
			"-0.001": 11.2583689605,
			"0.0": 12.3808135942,
			"0.001": 14.6100418116,
			"0.002": 14.3360913693,
			"0.003": 11.1783894243,
			"0.004": 4.96121326809,
			"0.005": 6.41549970419,
			"0.006": 7.69901653481,
			"0.007": 6.34322423002,
			"0.008": 4.73973955383,
			"0.009": 3.89381330139,
			"0.01": 6.21339460513,
			"0.011": 4.90375508254,
			"0.012": 1.60503941313,
			"0.013": 0.615066105699,
			"0.014": 0.0173189151351,
			"0.015": 0.0,
			"0.016": 0.0,
			"0.017": 0.0,
			"0.018": 0.0,
			"0.019": 0.0,
			"0.02": 0.0,
			"0.021": 0.0,
			"0.022": 0.0,
			"0.023": 0.0,
			"0.024": 0.0,
			"0.025": 0.0
		}
	}
}
