{
	 "smiles": "OC(=O)C1=C(F)C=C(F)C=C1", 
	 "Tm": 461.15, 
	 "num_atms": 15, 
	 "gaussian": { 
		 "optdone": 1, 
		 "sigma_profile": "yes", 
		 "theory": "DFT", 
		 "functional": "B3LYP", 
		 "basiset": "6-31G**", 
		 "properties": { 
			 "R2extent": 2654.8785, 
			 "electric_dipole_moment_norm": 3.76795299068, 
			 "electric_quadrupole_moment_norm": 4.81391874672, 
			 "total_energy": -619.281187961, 
			 "HOMO_LUMO_gap": 0.21505, 
			 "cosmo_polarized_energy": -10.47, 
			 "cosmo_cavitation_energy": 20.76, 
			 "cosmo_dispersion_energy": -15.42, 
			 "cosmo_repulsion_energy": 1.18, 
			 "cosmo_total_nonelectrostatic_energy": 6.51, 
			 "SMD_solvation_energy": 5.75 
		},
		"coords": [
			{
				"x": 0.977979993,
				"y": 0.0913375917,
				"z": 1.3516365715,
				"element": "O" 
			},
			{
				"x": 0.0149757439,
				"y": 0.097803531,
				"z": 0.4079238362,
				"element": "C" 
			},
			{
				"x": -1.028567955,
				"y": 0.6792271,
				"z": 0.5989807289,
				"element": "O" 
			},
			{
				"x": 0.2827018457,
				"y": -0.6381600162,
				"z": -0.8781365832,
				"element": "C" 
			},
			{
				"x": 1.4487812792,
				"y": -1.3391636654,
				"z": -1.2005690381,
				"element": "C" 
			},
			{
				"x": 2.4762701658,
				"y": -1.3964544113,
				"z": -0.3033544255,
				"element": "F" 
			},
			{
				"x": 1.6369520338,
				"y": -1.9990795899,
				"z": -2.405189798,
				"element": "C" 
			},
			{
				"x": 0.5981036413,
				"y": -1.9487844421,
				"z": -3.3281453191,
				"element": "C" 
			},
			{
				"x": 0.7538930432,
				"y": -2.5789569616,
				"z": -4.5020489625,
				"element": "F" 
			},
			{
				"x": -0.5903105011,
				"y": -1.2685452286,
				"z": -3.0715030856,
				"element": "C" 
			},
			{
				"x": -0.7319793798,
				"y": -0.6224002817,
				"z": -1.8500466179,
				"element": "C" 
			},
			{
				"x": 1.7494521826,
				"y": -0.4140156286,
				"z": 1.0517762384,
				"element": "H" 
			},
			{
				"x": 2.5566345078,
				"y": -2.5308147997,
				"z": -2.6149776494,
				"element": "H" 
			},
			{
				"x": -1.37409141,
				"y": -1.2553144964,
				"z": -3.8199153964,
				"element": "H" 
			},
			{
				"x": -1.6383951906,
				"y": -0.0799787012,
				"z": -1.6047304995,
				"element": "H" 
			}
		],
		 "valence_orbital": [ 
			{
				"type": "occ",
				"energy": -0.37359,
				"method": "rhf"
			},
			{
				"type": "occ",
				"energy": -0.31781,
				"method": "rhf"
			},
			{
				"type": "occ",
				"energy": -0.28604,
				"method": "rhf"
			},
			{
				"type": "occ",
				"energy": -0.28093,
				"method": "rhf"
			},
			{
				"type": "occ",
				"energy": -0.27467,
				"method": "rhf"
			},
			{
				"type": "unocc",
				"energy": -0.05962,
				"method": "rhf"
			},
			{
				"type": "unocc",
				"energy": -0.03507,
				"method": "rhf"
			},
			{
				"type": "unocc",
				"energy": 0.04535,
				"method": "rhf"
			},
			{
				"type": "unocc",
				"energy": 0.05619,
				"method": "rhf"
			},
			{
				"type": "unocc",
				"energy": 0.09835,
				"method": "rhf"
			}
		],
		"cosmo_sigma_profile": { 
			"-0.025": 0.0,
			"-0.024": 0.0,
			"-0.023": 0.0,
			"-0.022": 0.0,
			"-0.021": 0.0,
			"-0.02": 0.0,
			"-0.019": 0.0,
			"-0.018": 0.0,
			"-0.017": 0.0,
			"-0.016": 0.0,
			"-0.015": 0.0,
			"-0.014": 0.102963641249,
			"-0.013": 0.672534850065,
			"-0.012": 0.605530984808,
			"-0.011": 1.12588423008,
			"-0.01": 2.70737847379,
			"-0.009": 3.54544060965,
			"-0.008": 4.93321010432,
			"-0.007": 6.96632069197,
			"-0.006": 6.44124662423,
			"-0.005": 6.53917233136,
			"-0.004": 8.00880325961,
			"-0.003": 7.89745621673,
			"-0.002": 13.365755833,
			"-0.001": 21.6826489899,
			"0.0": 15.9302120484,
			"0.001": 12.2237145343,
			"0.002": 10.8653431676,
			"0.003": 11.6960075397,
			"0.004": 4.42812327923,
			"0.005": 2.43957493538,
			"0.006": 2.08095503824,
			"0.007": 2.24208572897,
			"0.008": 2.81213485239,
			"0.009": 3.19724687353,
			"0.01": 4.94695538091,
			"0.011": 5.24463442147,
			"0.012": 4.04363843988,
			"0.013": 1.23171845593,
			"0.014": 0.00839317426349,
			"0.015": 0.0,
			"0.016": 0.0,
			"0.017": 0.0,
			"0.018": 0.0,
			"0.019": 0.0,
			"0.02": 0.0,
			"0.021": 0.0,
			"0.022": 0.0,
			"0.023": 0.0,
			"0.024": 0.0,
			"0.025": 0.0
		}
	}
}
