{
	 "smiles": "COC1=C(OC)C=C(C(=C1)C(=O)C1=CC=C(C=C1)C1=CC=CC=C1)[N+]([O-])=O", 
	 "Tm": 417.15, 
	 "num_atms": 44, 
	 "gaussian": { 
		 "optdone": 1, 
		 "sigma_profile": "yes", 
		 "theory": "DFT", 
		 "functional": "B3LYP", 
		 "basiset": "6-31G**", 
		 "properties": { 
			 "R2extent": 14713.3217, 
			 "electric_dipole_moment_norm": 5.58420355019, 
			 "electric_quadrupole_moment_norm": 35.8422231802, 
			 "total_energy": -1241.21974376, 
			 "HOMO_LUMO_gap": 0.1412, 
			 "cosmo_polarized_energy": -17.19, 
			 "cosmo_cavitation_energy": 49.52, 
			 "cosmo_dispersion_energy": -34.09, 
			 "cosmo_repulsion_energy": 2.57, 
			 "cosmo_total_nonelectrostatic_energy": 18.0, 
			 "SMD_solvation_energy": 12.11 
		},
		"coords": [
			{
				"x": -0.1217807817,
				"y": 1.5282917301,
				"z": 6.8366782182,
				"element": "C" 
			},
			{
				"x": 0.5261490044,
				"y": 1.0942284395,
				"z": 5.6275494606,
				"element": "O" 
			},
			{
				"x": -0.1515476004,
				"y": 1.3417863705,
				"z": 4.4669348583,
				"element": "C" 
			},
			{
				"x": -0.398917865,
				"y": 2.6554140133,
				"z": 4.0091772254,
				"element": "C" 
			},
			{
				"x": -0.0118626585,
				"y": 3.7564815233,
				"z": 4.7302642823,
				"element": "O" 
			},
			{
				"x": 1.4058722235,
				"y": 3.9805635185,
				"z": 4.7785891554,
				"element": "C" 
			},
			{
				"x": -1.0931680511,
				"y": 2.8394961829,
				"z": 2.819739545,
				"element": "C" 
			},
			{
				"x": -1.5135296584,
				"y": 1.7335431196,
				"z": 2.0790794673,
				"element": "C" 
			},
			{
				"x": -1.2422183324,
				"y": 0.4203257139,
				"z": 2.4847646902,
				"element": "C" 
			},
			{
				"x": -0.5668728356,
				"y": 0.2535782673,
				"z": 3.6972924527,
				"element": "C" 
			},
			{
				"x": -1.6847095098,
				"y": -0.8495642821,
				"z": 1.7694307107,
				"element": "C" 
			},
			{
				"x": -2.5676031259,
				"y": -1.5191360381,
				"z": 2.2809994672,
				"element": "O" 
			},
			{
				"x": -0.9309684977,
				"y": -1.3095610038,
				"z": 0.5700352885,
				"element": "C" 
			},
			{
				"x": -1.3601602928,
				"y": -2.4792935335,
				"z": -0.0754907953,
				"element": "C" 
			},
			{
				"x": -0.6791056695,
				"y": -2.9632518341,
				"z": -1.18382967,
				"element": "C" 
			},
			{
				"x": 0.4580356681,
				"y": -2.2997899647,
				"z": -1.6839757507,
				"element": "C" 
			},
			{
				"x": 0.8845024026,
				"y": -1.1321937207,
				"z": -1.027510511,
				"element": "C" 
			},
			{
				"x": 0.2016553486,
				"y": -0.6435943895,
				"z": 0.0819032709,
				"element": "C" 
			},
			{
				"x": 1.1853061651,
				"y": -2.8185026967,
				"z": -2.8687687452,
				"element": "C" 
			},
			{
				"x": 2.5871445341,
				"y": -2.7471876914,
				"z": -2.9441415308,
				"element": "C" 
			},
			{
				"x": 3.2695273186,
				"y": -3.2349489346,
				"z": -4.0574418406,
				"element": "C" 
			},
			{
				"x": 2.5649455849,
				"y": -3.8032616767,
				"z": -5.1204895932,
				"element": "C" 
			},
			{
				"x": 1.1721361113,
				"y": -3.8803009714,
				"z": -5.0600437452,
				"element": "C" 
			},
			{
				"x": 0.4896552966,
				"y": -3.3942199921,
				"z": -3.9460669059,
				"element": "C" 
			},
			{
				"x": -2.2746434599,
				"y": 1.9911683462,
				"z": 0.85067281,
				"element": "N" 
			},
			{
				"x": -2.3899824344,
				"y": 3.1576904176,
				"z": 0.4767196965,
				"element": "O" 
			},
			{
				"x": -2.7589491927,
				"y": 1.0198722253,
				"z": 0.2675243527,
				"element": "O" 
			},
			{
				"x": 0.5602919686,
				"y": 1.2725933353,
				"z": 7.6487316314,
				"element": "H" 
			},
			{
				"x": -0.30648261,
				"y": 2.6055056147,
				"z": 6.826214658,
				"element": "H" 
			},
			{
				"x": -1.0679756216,
				"y": 0.9923814268,
				"z": 6.9728908193,
				"element": "H" 
			},
			{
				"x": 1.8007655259,
				"y": 4.1622054198,
				"z": 3.7719376164,
				"element": "H" 
			},
			{
				"x": 1.5502045673,
				"y": 4.8725489293,
				"z": 5.3902365779,
				"element": "H" 
			},
			{
				"x": 1.9286390482,
				"y": 3.1317422379,
				"z": 5.2299018415,
				"element": "H" 
			},
			{
				"x": -1.3118475822,
				"y": 3.8396671686,
				"z": 2.4683127056,
				"element": "H" 
			},
			{
				"x": -0.3615273185,
				"y": -0.7435583747,
				"z": 4.0719638478,
				"element": "H" 
			},
			{
				"x": -2.2298216147,
				"y": -2.9951906016,
				"z": 0.3173456538,
				"element": "H" 
			},
			{
				"x": -1.0117951927,
				"y": -3.8814927828,
				"z": -1.6580557599,
				"element": "H" 
			},
			{
				"x": 1.743854379,
				"y": -0.5890408704,
				"z": -1.4082257812,
				"element": "H" 
			},
			{
				"x": 0.551889928,
				"y": 0.2625909559,
				"z": 0.5665002148,
				"element": "H" 
			},
			{
				"x": 3.1464096446,
				"y": -2.3311222673,
				"z": -2.1113740541,
				"element": "H" 
			},
			{
				"x": 4.3538584503,
				"y": -3.1782849993,
				"z": -4.0909160547,
				"element": "H" 
			},
			{
				"x": 3.096518699,
				"y": -4.1826673788,
				"z": -5.9882806101,
				"element": "H" 
			},
			{
				"x": 0.614089002,
				"y": -4.3123857375,
				"z": -5.8858044546,
				"element": "H" 
			},
			{
				"x": -0.5951809651,
				"y": -3.4346252143,
				"z": -3.9209747161,
				"element": "H" 
			}
		],
		 "valence_orbital": [ 
			{
				"type": "occ",
				"energy": -0.26093,
				"method": "rhf"
			},
			{
				"type": "occ",
				"energy": -0.25914,
				"method": "rhf"
			},
			{
				"type": "occ",
				"energy": -0.25531,
				"method": "rhf"
			},
			{
				"type": "occ",
				"energy": -0.25095,
				"method": "rhf"
			},
			{
				"type": "occ",
				"energy": -0.23107,
				"method": "rhf"
			},
			{
				"type": "unocc",
				"energy": -0.08987,
				"method": "rhf"
			},
			{
				"type": "unocc",
				"energy": -0.06335,
				"method": "rhf"
			},
			{
				"type": "unocc",
				"energy": -0.03008,
				"method": "rhf"
			},
			{
				"type": "unocc",
				"energy": -0.01173,
				"method": "rhf"
			},
			{
				"type": "unocc",
				"energy": -0.00647,
				"method": "rhf"
			}
		],
		"cosmo_sigma_profile": { 
			"-0.025": 0.0,
			"-0.024": 0.0,
			"-0.023": 0.0,
			"-0.022": 0.0,
			"-0.021": 0.0,
			"-0.02": 0.0,
			"-0.019": 0.0,
			"-0.018": 0.0,
			"-0.017": 0.0,
			"-0.016": 0.0,
			"-0.015": 0.0,
			"-0.014": 0.0,
			"-0.013": 0.0,
			"-0.012": 0.0,
			"-0.011": 0.0,
			"-0.01": 0.0,
			"-0.009": 0.222081140425,
			"-0.008": 1.59032238937,
			"-0.007": 5.76216989323,
			"-0.006": 25.8084934263,
			"-0.005": 33.7260322584,
			"-0.004": 39.5230143355,
			"-0.003": 43.0146245038,
			"-0.002": 31.6067175463,
			"-0.001": 28.1870254903,
			"0.0": 23.8229635318,
			"0.001": 21.4286306031,
			"0.002": 24.1646044741,
			"0.003": 24.956479839,
			"0.004": 21.2872784897,
			"0.005": 18.9669789697,
			"0.006": 11.2077670249,
			"0.007": 10.500902267,
			"0.008": 10.2738693879,
			"0.009": 7.468525306,
			"0.01": 6.5061217397,
			"0.011": 4.52253574518,
			"0.012": 2.04624451093,
			"0.013": 0.151174263371,
			"0.014": 0.0,
			"0.015": 0.0,
			"0.016": 0.0,
			"0.017": 0.0,
			"0.018": 0.0,
			"0.019": 0.0,
			"0.02": 0.0,
			"0.021": 0.0,
			"0.022": 0.0,
			"0.023": 0.0,
			"0.024": 0.0,
			"0.025": 0.0
		}
	}
}
