{
	 "smiles": "FC1=CC(F)=C(C=C1)C(=O)N1CCCNCC1", 
	 "Tm": 367.15, 
	 "num_atms": 31, 
	 "gaussian": { 
		 "optdone": 1, 
		 "sigma_profile": "yes", 
		 "theory": "DFT", 
		 "functional": "B3LYP", 
		 "basiset": "6-31G**", 
		 "properties": { 
			 "R2extent": 4986.676, 
			 "electric_dipole_moment_norm": 2.93828859202, 
			 "electric_quadrupole_moment_norm": 9.67265313707, 
			 "total_energy": -850.110997232, 
			 "HOMO_LUMO_gap": 0.19193, 
			 "cosmo_polarized_energy": -11.52, 
			 "cosmo_cavitation_energy": 33.37, 
			 "cosmo_dispersion_energy": -23.83, 
			 "cosmo_repulsion_energy": 1.8, 
			 "cosmo_total_nonelectrostatic_energy": 11.34, 
			 "SMD_solvation_energy": 4.27 
		},
		"coords": [
			{
				"x": -3.426751605,
				"y": -0.8858293589,
				"z": 2.9080928341,
				"element": "F" 
			},
			{
				"x": -2.5901287233,
				"y": -0.9490697545,
				"z": 1.8562135489,
				"element": "C" 
			},
			{
				"x": -2.8170095597,
				"y": -0.1071937752,
				"z": 0.77469262,
				"element": "C" 
			},
			{
				"x": -1.9367299279,
				"y": -0.1869001007,
				"z": -0.298483675,
				"element": "C" 
			},
			{
				"x": -2.1733249017,
				"y": 0.6141226029,
				"z": -1.3596957058,
				"element": "F" 
			},
			{
				"x": -0.8459697624,
				"y": -1.0594782643,
				"z": -0.3236220121,
				"element": "C" 
			},
			{
				"x": -0.6858577676,
				"y": -1.9125421811,
				"z": 0.7795664337,
				"element": "C" 
			},
			{
				"x": -1.5349054717,
				"y": -1.8568964509,
				"z": 1.8803867463,
				"element": "C" 
			},
			{
				"x": 0.0621241756,
				"y": -1.2665623647,
				"z": -1.5118383414,
				"element": "C" 
			},
			{
				"x": 0.2545769513,
				"y": -2.4164353861,
				"z": -1.9100546465,
				"element": "O" 
			},
			{
				"x": 0.6570082712,
				"y": -0.1830154979,
				"z": -2.1039389501,
				"element": "N" 
			},
			{
				"x": 0.6731770674,
				"y": 1.1685062876,
				"z": -1.533477769,
				"element": "C" 
			},
			{
				"x": 2.0417415676,
				"y": 1.870352402,
				"z": -1.6248124584,
				"element": "C" 
			},
			{
				"x": 3.2683119428,
				"y": 0.9800773977,
				"z": -1.3637684178,
				"element": "C" 
			},
			{
				"x": 3.7095682381,
				"y": 0.3025458525,
				"z": -2.5860603702,
				"element": "N" 
			},
			{
				"x": 2.8989686898,
				"y": -0.8422621204,
				"z": -3.0002454823,
				"element": "C" 
			},
			{
				"x": 1.4473700925,
				"y": -0.4541635056,
				"z": -3.3107937171,
				"element": "C" 
			},
			{
				"x": -3.6562370187,
				"y": 0.5772435898,
				"z": 0.7572898444,
				"element": "H" 
			},
			{
				"x": 0.1234734464,
				"y": -2.6339860944,
				"z": 0.7501667386,
				"element": "H" 
			},
			{
				"x": -1.4026580445,
				"y": -2.5058874938,
				"z": 2.7383647983,
				"element": "H" 
			},
			{
				"x": 0.3923021537,
				"y": 1.0789688845,
				"z": -0.4820164785,
				"element": "H" 
			},
			{
				"x": -0.0861086611,
				"y": 1.7964884021,
				"z": -2.0152499502,
				"element": "H" 
			},
			{
				"x": 2.1776283826,
				"y": 2.3291054524,
				"z": -2.6095413383,
				"element": "H" 
			},
			{
				"x": 2.0207038702,
				"y": 2.6922742276,
				"z": -0.8986944122,
				"element": "H" 
			},
			{
				"x": 3.0544316828,
				"y": 0.2836629556,
				"z": -0.5299643926,
				"element": "H" 
			},
			{
				"x": 4.0956809971,
				"y": 1.6192825925,
				"z": -1.0375868511,
				"element": "H" 
			},
			{
				"x": 4.6700206856,
				"y": -0.0057092664,
				"z": -2.4658618152,
				"element": "H" 
			},
			{
				"x": 2.8674886083,
				"y": -1.6563314926,
				"z": -2.2560826984,
				"element": "H" 
			},
			{
				"x": 3.3483743031,
				"y": -1.2523915075,
				"z": -3.9128368975,
				"element": "H" 
			},
			{
				"x": 0.9656457665,
				"y": -1.2823712233,
				"z": -3.8326127367,
				"element": "H" 
			},
			{
				"x": 1.4223845512,
				"y": 0.431395191,
				"z": -3.953334448,
				"element": "H" 
			}
		],
		 "valence_orbital": [ 
			{
				"type": "occ",
				"energy": -0.27116,
				"method": "rhf"
			},
			{
				"type": "occ",
				"energy": -0.2598,
				"method": "rhf"
			},
			{
				"type": "occ",
				"energy": -0.24263,
				"method": "rhf"
			},
			{
				"type": "occ",
				"energy": -0.23659,
				"method": "rhf"
			},
			{
				"type": "occ",
				"energy": -0.22129,
				"method": "rhf"
			},
			{
				"type": "unocc",
				"energy": -0.02936,
				"method": "rhf"
			},
			{
				"type": "unocc",
				"energy": -0.01555,
				"method": "rhf"
			},
			{
				"type": "unocc",
				"energy": 0.04288,
				"method": "rhf"
			},
			{
				"type": "unocc",
				"energy": 0.07653,
				"method": "rhf"
			},
			{
				"type": "unocc",
				"energy": 0.07933,
				"method": "rhf"
			}
		],
		"cosmo_sigma_profile": { 
			"-0.025": 0.0,
			"-0.024": 0.0,
			"-0.023": 0.0,
			"-0.022": 0.0,
			"-0.021": 0.0,
			"-0.02": 0.0,
			"-0.019": 0.0,
			"-0.018": 0.0,
			"-0.017": 0.0,
			"-0.016": 0.0,
			"-0.015": 0.0,
			"-0.014": 0.0,
			"-0.013": 0.0,
			"-0.012": 0.0,
			"-0.011": 0.0470092795165,
			"-0.01": 1.12857831917,
			"-0.009": 1.8331057086,
			"-0.008": 4.05540910202,
			"-0.007": 6.12305865063,
			"-0.006": 6.73321690907,
			"-0.005": 9.02160901672,
			"-0.004": 23.4062305542,
			"-0.003": 27.7644123081,
			"-0.002": 28.2499669132,
			"-0.001": 30.2481238508,
			"0.0": 30.3492722586,
			"0.001": 19.8644496967,
			"0.002": 13.4065163272,
			"0.003": 16.3304685252,
			"0.004": 15.3755368557,
			"0.005": 3.6323154716,
			"0.006": 2.54771124604,
			"0.007": 2.18222480584,
			"0.008": 2.49046252525,
			"0.009": 1.93040163272,
			"0.01": 2.01517271743,
			"0.011": 2.8098573365,
			"0.012": 1.47553094121,
			"0.013": 3.81118963937,
			"0.014": 4.52572914887,
			"0.015": 0.85743283812,
			"0.016": 0.327629450818,
			"0.017": 0.374644024931,
			"0.018": 0.147365122001,
			"0.019": 0.0,
			"0.02": 0.0,
			"0.021": 0.0,
			"0.022": 0.0,
			"0.023": 0.0,
			"0.024": 0.0,
			"0.025": 0.0
		}
	}
}
