{
	 "smiles": "OC(=O)C1=C(Br)C(=CC(F)=C1)S(Cl)(=O)=O", 
	 "Tm": 460.15, 
	 "num_atms": 18, 
	 "gaussian": { 
		 "optdone": 1, 
		 "sigma_profile": "yes", 
		 "theory": "DFT", 
		 "functional": "B3LYP", 
		 "basiset": "6-31G**", 
		 "properties": { 
			 "R2extent": 7899.6256, 
			 "electric_dipole_moment_norm": 1.21227330664, 
			 "electric_quadrupole_moment_norm": 21.3512094671, 
			 "total_energy": -4098.98032326, 
			 "HOMO_LUMO_gap": 0.1799, 
			 "cosmo_polarized_energy": -13.49, 
			 "cosmo_cavitation_energy": 28.92, 
			 "cosmo_dispersion_energy": -22.07, 
			 "cosmo_repulsion_energy": 1.63, 
			 "cosmo_total_nonelectrostatic_energy": 8.47, 
			 "SMD_solvation_energy": 4.64 
		},
		"coords": [
			{
				"x": 2.7234250397,
				"y": 1.3765719802,
				"z": -2.726589413,
				"element": "O" 
			},
			{
				"x": 2.6961919888,
				"y": 1.1795777949,
				"z": -1.403647285,
				"element": "C" 
			},
			{
				"x": 3.2311111088,
				"y": 1.9647031181,
				"z": -0.6564251178,
				"element": "O" 
			},
			{
				"x": 1.9279550257,
				"y": -0.0111614555,
				"z": -0.8243169194,
				"element": "C" 
			},
			{
				"x": 1.5536592697,
				"y": -1.2156606829,
				"z": -1.4522974813,
				"element": "C" 
			},
			{
				"x": 1.9932924257,
				"y": -1.5621218453,
				"z": -3.2817993185,
				"element": "Br" 
			},
			{
				"x": 0.8519968839,
				"y": -2.1857214459,
				"z": -0.7141672417,
				"element": "C" 
			},
			{
				"x": 0.5079078135,
				"y": -1.9818711261,
				"z": 0.6213953437,
				"element": "C" 
			},
			{
				"x": 0.8935879127,
				"y": -0.7923278886,
				"z": 1.2220666776,
				"element": "C" 
			},
			{
				"x": 0.5784154438,
				"y": -0.5830433147,
				"z": 2.5062172843,
				"element": "F" 
			},
			{
				"x": 1.5953973515,
				"y": 0.1746387475,
				"z": 0.5262831316,
				"element": "C" 
			},
			{
				"x": 0.3551267256,
				"y": -3.8107616438,
				"z": -1.350382171,
				"element": "S" 
			},
			{
				"x": -1.1938082042,
				"y": -3.2807277166,
				"z": -2.6917232657,
				"element": "Cl" 
			},
			{
				"x": 1.4292176603,
				"y": -4.4040230471,
				"z": -2.1314686496,
				"element": "O" 
			},
			{
				"x": -0.2852296131,
				"y": -4.5334785327,
				"z": -0.2603532983,
				"element": "O" 
			},
			{
				"x": 2.2984236362,
				"y": 0.648606442,
				"z": -3.2131816606,
				"element": "H" 
			},
			{
				"x": -0.0394928558,
				"y": -2.734429336,
				"z": 1.1749676486,
				"element": "H" 
			},
			{
				"x": 1.9083223873,
				"y": 1.0903299524,
				"z": 1.0131217361,
				"element": "H" 
			}
		],
		 "valence_orbital": [ 
			{
				"type": "occ",
				"energy": -0.33414,
				"method": "rhf"
			},
			{
				"type": "occ",
				"energy": -0.32856,
				"method": "rhf"
			},
			{
				"type": "occ",
				"energy": -0.31881,
				"method": "rhf"
			},
			{
				"type": "occ",
				"energy": -0.29988,
				"method": "rhf"
			},
			{
				"type": "occ",
				"energy": -0.29143,
				"method": "rhf"
			},
			{
				"type": "unocc",
				"energy": -0.11153,
				"method": "rhf"
			},
			{
				"type": "unocc",
				"energy": -0.09181,
				"method": "rhf"
			},
			{
				"type": "unocc",
				"energy": -0.07389,
				"method": "rhf"
			},
			{
				"type": "unocc",
				"energy": -0.04721,
				"method": "rhf"
			},
			{
				"type": "unocc",
				"energy": 0.01264,
				"method": "rhf"
			}
		],
		"cosmo_sigma_profile": { 
			"-0.025": 0.0,
			"-0.024": 0.0,
			"-0.023": 0.0,
			"-0.022": 0.0,
			"-0.021": 0.0,
			"-0.02": 0.0,
			"-0.019": 0.0,
			"-0.018": 0.0,
			"-0.017": 0.0,
			"-0.016": 0.0,
			"-0.015": 0.0671269425385,
			"-0.014": 0.409183999466,
			"-0.013": 1.52536045294,
			"-0.012": 0.83614509847,
			"-0.011": 1.18671436963,
			"-0.01": 2.09978311809,
			"-0.009": 3.10992245504,
			"-0.008": 5.3495768943,
			"-0.007": 7.7049704807,
			"-0.006": 10.1512268971,
			"-0.005": 13.4782877222,
			"-0.004": 20.3286390032,
			"-0.003": 23.0911863505,
			"-0.002": 14.2123089693,
			"-0.001": 11.8143082785,
			"0.0": 13.0492736999,
			"0.001": 16.5658965455,
			"0.002": 23.1742358181,
			"0.003": 17.7283136909,
			"0.004": 5.37511703954,
			"0.005": 5.71505730669,
			"0.006": 7.21401437332,
			"0.007": 11.2713712749,
			"0.008": 9.39116530386,
			"0.009": 4.8133765929,
			"0.01": 4.84102963363,
			"0.011": 3.51075944521,
			"0.012": 1.50226237516,
			"0.013": 0.0519267455171,
			"0.014": 0.0,
			"0.015": 0.0,
			"0.016": 0.0,
			"0.017": 0.0,
			"0.018": 0.0,
			"0.019": 0.0,
			"0.02": 0.0,
			"0.021": 0.0,
			"0.022": 0.0,
			"0.023": 0.0,
			"0.024": 0.0,
			"0.025": 0.0
		}
	}
}
