{
	 "smiles": "CN1C=CN=C1C(O)(CC(O)=O)C(F)(F)F", 
	 "Tm": 460.15, 
	 "num_atms": 25, 
	 "gaussian": { 
		 "optdone": 1, 
		 "sigma_profile": "yes", 
		 "theory": "DFT", 
		 "functional": "B3LYP", 
		 "basiset": "6-31G**", 
		 "properties": { 
			 "R2extent": 3147.7687, 
			 "electric_dipole_moment_norm": 8.1908512897, 
			 "electric_quadrupole_moment_norm": 11.5303273761, 
			 "total_energy": -944.981746707, 
			 "HOMO_LUMO_gap": 0.22999, 
			 "cosmo_polarized_energy": -18.34, 
			 "cosmo_cavitation_energy": 28.95, 
			 "cosmo_dispersion_energy": -20.5, 
			 "cosmo_repulsion_energy": 1.51, 
			 "cosmo_total_nonelectrostatic_energy": 9.97, 
			 "SMD_solvation_energy": 7.15 
		},
		"coords": [
			{
				"x": -0.3418138554,
				"y": -1.720387295,
				"z": 2.8000011081,
				"element": "C" 
			},
			{
				"x": 0.5592224075,
				"y": -0.9803082358,
				"z": 1.9134324159,
				"element": "N" 
			},
			{
				"x": 1.9349524757,
				"y": -1.0674500884,
				"z": 1.9724428612,
				"element": "C" 
			},
			{
				"x": 2.4243099927,
				"y": -0.196986603,
				"z": 1.0347028062,
				"element": "C" 
			},
			{
				"x": 1.3779142417,
				"y": 0.4284682921,
				"z": 0.4096667853,
				"element": "N" 
			},
			{
				"x": 0.2683656756,
				"y": -0.0530095389,
				"z": 0.9498843559,
				"element": "C" 
			},
			{
				"x": -1.1124242974,
				"y": 0.3915693445,
				"z": 0.5237502153,
				"element": "C" 
			},
			{
				"x": -1.9231489485,
				"y": 0.359626692,
				"z": 1.6928193298,
				"element": "O" 
			},
			{
				"x": -1.1257897641,
				"y": 1.8324027659,
				"z": -0.0575123992,
				"element": "C" 
			},
			{
				"x": -0.5915242816,
				"y": 2.1366186833,
				"z": -1.4762596906,
				"element": "C" 
			},
			{
				"x": 0.6942966946,
				"y": 1.8961828268,
				"z": -1.7141744469,
				"element": "O" 
			},
			{
				"x": -1.3238513569,
				"y": 2.6414800068,
				"z": -2.2987101173,
				"element": "O" 
			},
			{
				"x": -1.7260922618,
				"y": -0.6051682022,
				"z": -0.4918899958,
				"element": "C" 
			},
			{
				"x": -1.7343490188,
				"y": -1.8683831882,
				"z": -0.0116631682,
				"element": "F" 
			},
			{
				"x": -3.0134989861,
				"y": -0.2640348048,
				"z": -0.735074665,
				"element": "F" 
			},
			{
				"x": -1.0637467356,
				"y": -0.6183935504,
				"z": -1.655509221,
				"element": "F" 
			},
			{
				"x": -1.1981576125,
				"y": -2.0861128043,
				"z": 2.2401474334,
				"element": "H" 
			},
			{
				"x": 0.2122659851,
				"y": -2.5655664396,
				"z": 3.2110505491,
				"element": "H" 
			},
			{
				"x": -0.6929836103,
				"y": -1.0802239234,
				"z": 3.6112044193,
				"element": "H" 
			},
			{
				"x": 2.4256465427,
				"y": -1.7290159153,
				"z": 2.6694948173,
				"element": "H" 
			},
			{
				"x": 3.4511327422,
				"y": 0.0132528908,
				"z": 0.7751164167,
				"element": "H" 
			},
			{
				"x": -2.8273292334,
				"y": 0.5825698887,
				"z": 1.4279921077,
				"element": "H" 
			},
			{
				"x": -2.1692639236,
				"y": 2.1526271718,
				"z": -0.0804239996,
				"element": "H" 
			},
			{
				"x": -0.5958122316,
				"y": 2.4609657778,
				"z": 0.6647932584,
				"element": "H" 
			},
			{
				"x": 1.1093793596,
				"y": 1.4139762486,
				"z": -0.941481176,
				"element": "H" 
			}
		],
		 "valence_orbital": [ 
			{
				"type": "occ",
				"energy": -0.30398,
				"method": "rhf"
			},
			{
				"type": "occ",
				"energy": -0.30236,
				"method": "rhf"
			},
			{
				"type": "occ",
				"energy": -0.28355,
				"method": "rhf"
			},
			{
				"type": "occ",
				"energy": -0.25637,
				"method": "rhf"
			},
			{
				"type": "occ",
				"energy": -0.2445,
				"method": "rhf"
			},
			{
				"type": "unocc",
				"energy": -0.01451,
				"method": "rhf"
			},
			{
				"type": "unocc",
				"energy": 0.02646,
				"method": "rhf"
			},
			{
				"type": "unocc",
				"energy": 0.03489,
				"method": "rhf"
			},
			{
				"type": "unocc",
				"energy": 0.06006,
				"method": "rhf"
			},
			{
				"type": "unocc",
				"energy": 0.08574,
				"method": "rhf"
			}
		],
		"cosmo_sigma_profile": { 
			"-0.025": 0.0,
			"-0.024": 0.0,
			"-0.023": 0.0,
			"-0.022": 0.0,
			"-0.021": 0.0,
			"-0.02": 0.0,
			"-0.019": 0.0,
			"-0.018": 0.00374729052559,
			"-0.017": 0.554760959628,
			"-0.016": 0.884628558342,
			"-0.015": 0.606163464334,
			"-0.014": 1.06068606645,
			"-0.013": 1.24307635931,
			"-0.012": 0.898264719623,
			"-0.011": 0.708051423415,
			"-0.01": 1.9605681495,
			"-0.009": 4.59600385822,
			"-0.008": 5.88628364205,
			"-0.007": 9.25325987635,
			"-0.006": 9.32817599015,
			"-0.005": 12.7870980193,
			"-0.004": 14.1285163318,
			"-0.003": 14.3161750997,
			"-0.002": 11.6489839337,
			"-0.001": 14.4439078202,
			"0.0": 16.9325628026,
			"0.001": 21.871279622,
			"0.002": 28.1063937916,
			"0.003": 12.1362730508,
			"0.004": 8.80643410443,
			"0.005": 5.24359568797,
			"0.006": 3.09563705699,
			"0.007": 2.57070216997,
			"0.008": 3.10708651894,
			"0.009": 3.17012777036,
			"0.01": 3.4138304659,
			"0.011": 4.60189413257,
			"0.012": 6.8619609755,
			"0.013": 4.66349623328,
			"0.014": 1.31408438038,
			"0.015": 0.038361107193,
			"0.016": 0.0,
			"0.017": 0.0,
			"0.018": 0.0,
			"0.019": 0.0,
			"0.02": 0.0,
			"0.021": 0.0,
			"0.022": 0.0,
			"0.023": 0.0,
			"0.024": 0.0,
			"0.025": 0.0
		}
	}
}
