{
	 "smiles": "CCNS(=O)(=O)C1=CC=C(I)C=C1", 
	 "Tm": 386.15, 
	 "num_atms": 23, 
	 "gaussian": { 
		 "optdone": 1, 
		 "sigma_profile": "yes", 
		 "theory": "DFT", 
		 "functional": "B3LYP", 
		 "basiset": "6-31G**", 
		 "properties": { 
			 "R2extent": 3681.9442, 
			 "electric_dipole_moment_norm": 3.78772055727, 
			 "electric_quadrupole_moment_norm": 12.5005911152, 
			 "total_energy": -925.58315548, 
			 "HOMO_LUMO_gap": 0.20244, 
			 "cosmo_polarized_energy": -13.36, 
			 "cosmo_cavitation_energy": 31.58, 
			 "cosmo_dispersion_energy": -24.41, 
			 "cosmo_repulsion_energy": 1.89, 
			 "cosmo_total_nonelectrostatic_energy": 9.05, 
			 "SMD_solvation_energy": 3.28 
		},
		"coords": [
			{
				"x": 1.5224657684,
				"y": 0.8137143739,
				"z": 2.5984775069,
				"element": "C" 
			},
			{
				"x": 0.1533518794,
				"y": 1.0160822957,
				"z": 1.9555729782,
				"element": "C" 
			},
			{
				"x": 0.3180664389,
				"y": 1.2811564033,
				"z": 0.5140127025,
				"element": "N" 
			},
			{
				"x": -1.0803868892,
				"y": 1.5084071934,
				"z": -0.4082123341,
				"element": "S" 
			},
			{
				"x": -0.6271110239,
				"y": 2.228091283,
				"z": -1.6022302155,
				"element": "O" 
			},
			{
				"x": -2.1814233654,
				"y": 2.0176608589,
				"z": 0.41897946,
				"element": "O" 
			},
			{
				"x": -1.5027250121,
				"y": -0.1744668266,
				"z": -0.8672455781,
				"element": "C" 
			},
			{
				"x": -0.7136280718,
				"y": -0.8458097201,
				"z": -1.803940151,
				"element": "C" 
			},
			{
				"x": -1.047967294,
				"y": -2.1462020958,
				"z": -2.174402227,
				"element": "C" 
			},
			{
				"x": -2.170942246,
				"y": -2.7544852128,
				"z": -1.6024260791,
				"element": "C" 
			},
			{
				"x": -2.6769837563,
				"y": -4.7328602503,
				"z": -2.1628103325,
				"element": "I" 
			},
			{
				"x": -2.9653290654,
				"y": -2.0799905929,
				"z": -0.6737374552,
				"element": "C" 
			},
			{
				"x": -2.6273622598,
				"y": -0.7759074642,
				"z": -0.3050223005,
				"element": "C" 
			},
			{
				"x": 1.4082416218,
				"y": 0.5919631972,
				"z": 3.6636158124,
				"element": "H" 
			},
			{
				"x": 2.1382053508,
				"y": 1.7162798027,
				"z": 2.5126652924,
				"element": "H" 
			},
			{
				"x": 2.0596546867,
				"y": -0.0129026262,
				"z": 2.1253688181,
				"element": "H" 
			},
			{
				"x": -0.4439324538,
				"y": 0.1035204569,
				"z": 2.0541527226,
				"element": "H" 
			},
			{
				"x": -0.3993330166,
				"y": 1.8219834072,
				"z": 2.4541962247,
				"element": "H" 
			},
			{
				"x": 0.9321668757,
				"y": 2.0683192359,
				"z": 0.3102363251,
				"element": "H" 
			},
			{
				"x": 0.1467657161,
				"y": -0.3535963915,
				"z": -2.2443139524,
				"element": "H" 
			},
			{
				"x": -0.4437346878,
				"y": -2.6762451054,
				"z": -2.9016114515,
				"element": "H" 
			},
			{
				"x": -3.8385920523,
				"y": -2.5563014348,
				"z": -0.2431107316,
				"element": "H" 
			},
			{
				"x": -3.2349671434,
				"y": -0.2224107874,
				"z": 0.4024849656,
				"element": "H" 
			}
		],
		 "valence_orbital": [ 
			{
				"type": "occ",
				"energy": -0.30346,
				"method": "rhf"
			},
			{
				"type": "occ",
				"energy": -0.28328,
				"method": "rhf"
			},
			{
				"type": "occ",
				"energy": -0.27975,
				"method": "rhf"
			},
			{
				"type": "occ",
				"energy": -0.27583,
				"method": "rhf"
			},
			{
				"type": "occ",
				"energy": -0.25399,
				"method": "rhf"
			},
			{
				"type": "unocc",
				"energy": -0.05155,
				"method": "rhf"
			},
			{
				"type": "unocc",
				"energy": -0.05021,
				"method": "rhf"
			},
			{
				"type": "unocc",
				"energy": -0.03269,
				"method": "rhf"
			},
			{
				"type": "unocc",
				"energy": 0.03663,
				"method": "rhf"
			},
			{
				"type": "unocc",
				"energy": 0.04228,
				"method": "rhf"
			}
		],
		"cosmo_sigma_profile": { 
			"-0.025": 0.0,
			"-0.024": 0.0,
			"-0.023": 0.0,
			"-0.022": 0.0,
			"-0.021": 0.0,
			"-0.02": 0.0,
			"-0.019": 0.0,
			"-0.018": 0.0,
			"-0.017": 0.0,
			"-0.016": 0.0,
			"-0.015": 0.00805886114823,
			"-0.014": 0.779253967596,
			"-0.013": 1.00717633501,
			"-0.012": 0.989157559154,
			"-0.011": 1.2346396686,
			"-0.01": 1.27406458506,
			"-0.009": 1.55036705922,
			"-0.008": 4.7074533625,
			"-0.007": 10.682737181,
			"-0.006": 9.38589104085,
			"-0.005": 12.3020776109,
			"-0.004": 19.4192247343,
			"-0.003": 20.1016134522,
			"-0.002": 19.618318611,
			"-0.001": 19.2855342324,
			"0.0": 23.3673169617,
			"0.001": 25.4610407919,
			"0.002": 19.2839210537,
			"0.003": 13.116738362,
			"0.004": 15.6449230696,
			"0.005": 3.15719662173,
			"0.006": 2.89360361828,
			"0.007": 3.96805323826,
			"0.008": 3.65082730151,
			"0.009": 4.37520635456,
			"0.01": 6.2964425582,
			"0.011": 9.28882483426,
			"0.012": 3.4283707732,
			"0.013": 0.0,
			"0.014": 0.0,
			"0.015": 0.0,
			"0.016": 0.0,
			"0.017": 0.0,
			"0.018": 0.0,
			"0.019": 0.0,
			"0.02": 0.0,
			"0.021": 0.0,
			"0.022": 0.0,
			"0.023": 0.0,
			"0.024": 0.0,
			"0.025": 0.0
		}
	}
}
