{
	 "smiles": "COC1=CC=C2C=C(Br)C=CC2=C1", 
	 "Tm": 380.65, 
	 "num_atms": 22, 
	 "gaussian": { 
		 "optdone": 1, 
		 "sigma_profile": "yes", 
		 "theory": "DFT", 
		 "functional": "B3LYP", 
		 "basiset": "6-31G**", 
		 "properties": { 
			 "R2extent": 5464.8964, 
			 "electric_dipole_moment_norm": 3.05652941913, 
			 "electric_quadrupole_moment_norm": 11.664202154, 
			 "total_energy": -3071.22360875, 
			 "HOMO_LUMO_gap": 0.16785, 
			 "cosmo_polarized_energy": -6.77, 
			 "cosmo_cavitation_energy": 28.12, 
			 "cosmo_dispersion_energy": -21.34, 
			 "cosmo_repulsion_energy": 1.66, 
			 "cosmo_total_nonelectrostatic_energy": 8.44, 
			 "SMD_solvation_energy": 4.13 
		},
		"coords": [
			{
				"x": -0.2295925972,
				"y": -4.0958054797,
				"z": -1.172663426,
				"element": "C" 
			},
			{
				"x": 0.0951972246,
				"y": -3.3579683521,
				"z": -0.0047197317,
				"element": "O" 
			},
			{
				"x": 0.1309259608,
				"y": -1.9989189148,
				"z": -0.0940471736,
				"element": "C" 
			},
			{
				"x": 0.4640584678,
				"y": -1.3367317528,
				"z": 1.1213635962,
				"element": "C" 
			},
			{
				"x": 0.5346975079,
				"y": 0.0310318125,
				"z": 1.1699451259,
				"element": "C" 
			},
			{
				"x": 0.2783947611,
				"y": 0.8209918295,
				"z": 0.0133358924,
				"element": "C" 
			},
			{
				"x": 0.3456609702,
				"y": 2.2376552288,
				"z": 0.0401233024,
				"element": "C" 
			},
			{
				"x": 0.0897547693,
				"y": 2.9576652046,
				"z": -1.1031142005,
				"element": "C" 
			},
			{
				"x": 0.1804688607,
				"y": 4.8690530984,
				"z": -1.0671773189,
				"element": "Br" 
			},
			{
				"x": -0.2422399802,
				"y": 2.3171119323,
				"z": -2.3178760335,
				"element": "C" 
			},
			{
				"x": -0.3117075199,
				"y": 0.9422188746,
				"z": -2.3605137871,
				"element": "C" 
			},
			{
				"x": -0.0563173102,
				"y": 0.1528356682,
				"z": -1.2074880271,
				"element": "C" 
			},
			{
				"x": -0.1245064978,
				"y": -1.2673537263,
				"z": -1.2372396824,
				"element": "C" 
			},
			{
				"x": -1.2334626039,
				"y": -3.8467545066,
				"z": -1.5401041009,
				"element": "H" 
			},
			{
				"x": 0.498582464,
				"y": -3.9207082795,
				"z": -1.97509194,
				"element": "H" 
			},
			{
				"x": -0.201884881,
				"y": -5.1472676752,
				"z": -0.8835751913,
				"element": "H" 
			},
			{
				"x": 0.6574108007,
				"y": -1.9482266107,
				"z": 1.9965620302,
				"element": "H" 
			},
			{
				"x": 0.7895273811,
				"y": 0.5300326873,
				"z": 2.1010322822,
				"element": "H" 
			},
			{
				"x": 0.5993986295,
				"y": 2.7436881382,
				"z": 0.9656513607,
				"element": "H" 
			},
			{
				"x": -0.4386952269,
				"y": 2.9116652797,
				"z": -3.202701844,
				"element": "H" 
			},
			{
				"x": -0.5667703466,
				"y": 0.4453977213,
				"z": -3.2929965547,
				"element": "H" 
			},
			{
				"x": -0.379800834,
				"y": -1.7524121776,
				"z": -2.1724045785,
				"element": "H" 
			}
		],
		 "valence_orbital": [ 
			{
				"type": "occ",
				"energy": -0.29784,
				"method": "rhf"
			},
			{
				"type": "occ",
				"energy": -0.28261,
				"method": "rhf"
			},
			{
				"type": "occ",
				"energy": -0.26907,
				"method": "rhf"
			},
			{
				"type": "occ",
				"energy": -0.23613,
				"method": "rhf"
			},
			{
				"type": "occ",
				"energy": -0.21004,
				"method": "rhf"
			},
			{
				"type": "unocc",
				"energy": -0.04219,
				"method": "rhf"
			},
			{
				"type": "unocc",
				"energy": -0.01117,
				"method": "rhf"
			},
			{
				"type": "unocc",
				"energy": 0.01167,
				"method": "rhf"
			},
			{
				"type": "unocc",
				"energy": 0.02651,
				"method": "rhf"
			},
			{
				"type": "unocc",
				"energy": 0.09277,
				"method": "rhf"
			}
		],
		"cosmo_sigma_profile": { 
			"-0.025": 0.0,
			"-0.024": 0.0,
			"-0.023": 0.0,
			"-0.022": 0.0,
			"-0.021": 0.0,
			"-0.02": 0.0,
			"-0.019": 0.0,
			"-0.018": 0.0,
			"-0.017": 0.0,
			"-0.016": 0.0,
			"-0.015": 0.0,
			"-0.014": 0.0,
			"-0.013": 0.0,
			"-0.012": 0.0,
			"-0.011": 0.0,
			"-0.01": 0.0,
			"-0.009": 0.0,
			"-0.008": 0.0550394879042,
			"-0.007": 6.36060489084,
			"-0.006": 15.6975520692,
			"-0.005": 19.0115383399,
			"-0.004": 18.5193686027,
			"-0.003": 17.0295603865,
			"-0.002": 12.3830616599,
			"-0.001": 11.2182458832,
			"0.0": 11.9547864305,
			"0.001": 13.092266519,
			"0.002": 20.2121648201,
			"0.003": 33.0280521338,
			"0.004": 30.6859867035,
			"0.005": 12.3659428098,
			"0.006": 1.67336855879,
			"0.007": 1.25522906014,
			"0.008": 1.08839109383,
			"0.009": 1.7367815761,
			"0.01": 1.17073746409,
			"0.011": 0.0226268021501,
			"0.012": 0.0,
			"0.013": 0.0,
			"0.014": 0.0,
			"0.015": 0.0,
			"0.016": 0.0,
			"0.017": 0.0,
			"0.018": 0.0,
			"0.019": 0.0,
			"0.02": 0.0,
			"0.021": 0.0,
			"0.022": 0.0,
			"0.023": 0.0,
			"0.024": 0.0,
			"0.025": 0.0
		}
	}
}
