{
	 "smiles": "OC(=O)COC1CCOCC1", 
	 "Tm": 339.15, 
	 "num_atms": 23, 
	 "gaussian": { 
		 "optdone": 1, 
		 "sigma_profile": "yes", 
		 "theory": "DFT", 
		 "functional": "B3LYP", 
		 "basiset": "6-31G**", 
		 "properties": { 
			 "R2extent": 4228.0338, 
			 "electric_dipole_moment_norm": 4.53838670124, 
			 "electric_quadrupole_moment_norm": 38.9010967935, 
			 "total_energy": -574.85366679, 
			 "HOMO_LUMO_gap": 0.27263, 
			 "cosmo_polarized_energy": -14.01, 
			 "cosmo_cavitation_energy": 25.41, 
			 "cosmo_dispersion_energy": -18.9, 
			 "cosmo_repulsion_energy": 1.55, 
			 "cosmo_total_nonelectrostatic_energy": 8.06, 
			 "SMD_solvation_energy": 5.42 
		},
		"coords": [
			{
				"x": 0.2855825435,
				"y": 0.2290601464,
				"z": -4.8237867942,
				"element": "O" 
			},
			{
				"x": -1.0328413118,
				"y": 0.0491133974,
				"z": -5.0041913431,
				"element": "C" 
			},
			{
				"x": -1.5554035604,
				"y": 0.0135762485,
				"z": -6.0904221527,
				"element": "O" 
			},
			{
				"x": -1.8390474659,
				"y": -0.0859837802,
				"z": -3.7089370429,
				"element": "C" 
			},
			{
				"x": -0.9447883954,
				"y": -0.1654201088,
				"z": -2.6108158537,
				"element": "O" 
			},
			{
				"x": -1.4904031421,
				"y": 0.1620095168,
				"z": -1.326315648,
				"element": "C" 
			},
			{
				"x": -2.3891000416,
				"y": -0.9467548461,
				"z": -0.7699673673,
				"element": "C" 
			},
			{
				"x": -2.9510739384,
				"y": -0.5097103643,
				"z": 0.6034386876,
				"element": "C" 
			},
			{
				"x": -2.1309481905,
				"y": 0.4639216212,
				"z": 1.2448943863,
				"element": "O" 
			},
			{
				"x": -0.7463647552,
				"y": 0.1845006217,
				"z": 1.0875995469,
				"element": "C" 
			},
			{
				"x": -0.3064330582,
				"y": 0.4010901096,
				"z": -0.3780666356,
				"element": "C" 
			},
			{
				"x": 0.441573351,
				"y": 0.205802267,
				"z": -3.8599847716,
				"element": "H" 
			},
			{
				"x": -2.4767395003,
				"y": -0.9741802628,
				"z": -3.7962028828,
				"element": "H" 
			},
			{
				"x": -2.4952997901,
				"y": 0.7933847643,
				"z": -3.629062854,
				"element": "H" 
			},
			{
				"x": -2.0786419749,
				"y": 1.0865160412,
				"z": -1.4246632176,
				"element": "H" 
			},
			{
				"x": -3.2149737003,
				"y": -1.1724023791,
				"z": -1.4523963829,
				"element": "H" 
			},
			{
				"x": -1.7898309111,
				"y": -1.8605269324,
				"z": -0.6813681313,
				"element": "H" 
			},
			{
				"x": -3.0792913761,
				"y": -1.388555209,
				"z": 1.2547337178,
				"element": "H" 
			},
			{
				"x": -3.9294545145,
				"y": -0.0329828656,
				"z": 0.4891556535,
				"element": "H" 
			},
			{
				"x": -0.5264354444,
				"y": -0.8455185211,
				"z": 1.4108679166,
				"element": "H" 
			},
			{
				"x": -0.2159762501,
				"y": 0.8595226766,
				"z": 1.7637318405,
				"element": "H" 
			},
			{
				"x": 0.085926676,
				"y": 1.4116390513,
				"z": -0.5277454676,
				"element": "H" 
			},
			{
				"x": 0.4917647509,
				"y": -0.3034011926,
				"z": -0.6391952037,
				"element": "H" 
			}
		],
		 "valence_orbital": [ 
			{
				"type": "occ",
				"energy": -0.31647,
				"method": "rhf"
			},
			{
				"type": "occ",
				"energy": -0.31162,
				"method": "rhf"
			},
			{
				"type": "occ",
				"energy": -0.2895,
				"method": "rhf"
			},
			{
				"type": "occ",
				"energy": -0.26852,
				"method": "rhf"
			},
			{
				"type": "occ",
				"energy": -0.26009,
				"method": "rhf"
			},
			{
				"type": "unocc",
				"energy": 0.01254,
				"method": "rhf"
			},
			{
				"type": "unocc",
				"energy": 0.06006,
				"method": "rhf"
			},
			{
				"type": "unocc",
				"energy": 0.06749,
				"method": "rhf"
			},
			{
				"type": "unocc",
				"energy": 0.09519,
				"method": "rhf"
			},
			{
				"type": "unocc",
				"energy": 0.10727,
				"method": "rhf"
			}
		],
		"cosmo_sigma_profile": { 
			"-0.025": 0.0,
			"-0.024": 0.0,
			"-0.023": 0.0,
			"-0.022": 0.0,
			"-0.021": 0.0,
			"-0.02": 0.0,
			"-0.019": 0.0,
			"-0.018": 0.0,
			"-0.017": 0.0,
			"-0.016": 0.0,
			"-0.015": 0.0,
			"-0.014": 0.0841772938325,
			"-0.013": 0.327075456179,
			"-0.012": 0.479092265426,
			"-0.011": 0.723243444474,
			"-0.01": 0.823384200234,
			"-0.009": 0.390266393731,
			"-0.008": 1.42914743212,
			"-0.007": 6.97139011414,
			"-0.006": 9.91399433287,
			"-0.005": 13.433054786,
			"-0.004": 26.767516974,
			"-0.003": 30.073275528,
			"-0.002": 19.8011390048,
			"-0.001": 14.4533922872,
			"0.0": 9.35581109754,
			"0.001": 4.8822361822,
			"0.002": 4.71393949933,
			"0.003": 4.43045346796,
			"0.004": 3.89147904072,
			"0.005": 4.44595397454,
			"0.006": 3.89870022047,
			"0.007": 2.8793988395,
			"0.008": 4.7762759603,
			"0.009": 5.24120282366,
			"0.01": 5.95265160294,
			"0.011": 5.45158197214,
			"0.012": 7.00340476668,
			"0.013": 4.28180137315,
			"0.014": 1.01317477684,
			"0.015": 0.0,
			"0.016": 0.0,
			"0.017": 0.0,
			"0.018": 0.0,
			"0.019": 0.0,
			"0.02": 0.0,
			"0.021": 0.0,
			"0.022": 0.0,
			"0.023": 0.0,
			"0.024": 0.0,
			"0.025": 0.0
		}
	}
}
