{
	 "smiles": "CC(C)=C[C@H]1[C@@H](C(=O)OCC2=C(C)C=C(C)C=C2)C1(C)C", 
	 "Tm": 298.15, 
	 "num_atms": 47, 
	 "gaussian": { 
		 "optdone": 1, 
		 "sigma_profile": "yes", 
		 "theory": "DFT", 
		 "functional": "B3LYP", 
		 "basiset": "6-31G**", 
		 "properties": { 
			 "R2extent": 10391.3536, 
			 "electric_dipole_moment_norm": 1.80665970509, 
			 "electric_quadrupole_moment_norm": 9.86720334796, 
			 "total_energy": -890.144323793, 
			 "HOMO_LUMO_gap": 0.20923, 
			 "cosmo_polarized_energy": -9.1, 
			 "cosmo_cavitation_energy": 48.55, 
			 "cosmo_dispersion_energy": -32.84, 
			 "cosmo_repulsion_energy": 2.6, 
			 "cosmo_total_nonelectrostatic_energy": 18.3, 
			 "SMD_solvation_energy": 9.07 
		},
		"coords": [
			{
				"x": -1.6644464312,
				"y": 5.3293412837,
				"z": -0.4874849283,
				"element": "C" 
			},
			{
				"x": -2.1682212902,
				"y": 4.0613389974,
				"z": -1.1346158075,
				"element": "C" 
			},
			{
				"x": -2.8270115174,
				"y": 4.2679919129,
				"z": -2.4764976261,
				"element": "C" 
			},
			{
				"x": -2.0163608338,
				"y": 2.8770291901,
				"z": -0.5157513551,
				"element": "C" 
			},
			{
				"x": -2.4520818252,
				"y": 1.555566668,
				"z": -1.0251099924,
				"element": "C" 
			},
			{
				"x": -1.7304518965,
				"y": 0.244285303,
				"z": -0.633726947,
				"element": "C" 
			},
			{
				"x": -0.5728909654,
				"y": 0.236120626,
				"z": 0.2964330183,
				"element": "C" 
			},
			{
				"x": -0.3961746626,
				"y": 0.9527001979,
				"z": 1.2666741811,
				"element": "O" 
			},
			{
				"x": 0.3181033558,
				"y": -0.7146042717,
				"z": -0.0800365319,
				"element": "O" 
			},
			{
				"x": 1.505316184,
				"y": -0.822547189,
				"z": 0.7520562537,
				"element": "C" 
			},
			{
				"x": 2.3550331651,
				"y": -1.9520532309,
				"z": 0.2376826,
				"element": "C" 
			},
			{
				"x": 1.9732390779,
				"y": -3.2999699182,
				"z": 0.4156542389,
				"element": "C" 
			},
			{
				"x": 0.6873283065,
				"y": -3.664028973,
				"z": 1.1210680364,
				"element": "C" 
			},
			{
				"x": 2.8093108519,
				"y": -4.3035387672,
				"z": -0.0798100043,
				"element": "C" 
			},
			{
				"x": 4.0139496087,
				"y": -4.0228447148,
				"z": -0.7404348464,
				"element": "C" 
			},
			{
				"x": 4.9005043968,
				"y": -5.142408535,
				"z": -1.2331045395,
				"element": "C" 
			},
			{
				"x": 4.3745877338,
				"y": -2.6834869868,
				"z": -0.9081273036,
				"element": "C" 
			},
			{
				"x": 3.5515377361,
				"y": -1.6663776882,
				"z": -0.4243857536,
				"element": "C" 
			},
			{
				"x": -3.1635660694,
				"y": 0.5242163674,
				"z": -0.1749059825,
				"element": "C" 
			},
			{
				"x": -4.2370475374,
				"y": -0.3057679586,
				"z": -0.8629051627,
				"element": "C" 
			},
			{
				"x": -3.4690580834,
				"y": 0.8095635037,
				"z": 1.2857942467,
				"element": "C" 
			},
			{
				"x": -0.9274328275,
				"y": 5.8338013496,
				"z": -1.127239867,
				"element": "H" 
			},
			{
				"x": -2.4814585523,
				"y": 6.0473672944,
				"z": -0.3330337106,
				"element": "H" 
			},
			{
				"x": -1.1958203578,
				"y": 5.13438186,
				"z": 0.4807812209,
				"element": "H" 
			},
			{
				"x": -2.1329140529,
				"y": 4.7479570692,
				"z": -3.1791632132,
				"element": "H" 
			},
			{
				"x": -3.1837244267,
				"y": 3.3446105177,
				"z": -2.936541591,
				"element": "H" 
			},
			{
				"x": -3.686837654,
				"y": 4.944703737,
				"z": -2.3826708383,
				"element": "H" 
			},
			{
				"x": -1.516909095,
				"y": 2.8687368988,
				"z": 0.4482362511,
				"element": "H" 
			},
			{
				"x": -2.7540989236,
				"y": 1.5469781329,
				"z": -2.0689746427,
				"element": "H" 
			},
			{
				"x": -1.6236012416,
				"y": -0.4820015604,
				"z": -1.4330025588,
				"element": "H" 
			},
			{
				"x": 2.0439178405,
				"y": 0.1284669664,
				"z": 0.7163866436,
				"element": "H" 
			},
			{
				"x": 1.1846879398,
				"y": -0.9761777125,
				"z": 1.7872456875,
				"element": "H" 
			},
			{
				"x": 0.5458363248,
				"y": -4.7476431973,
				"z": 1.1443987556,
				"element": "H" 
			},
			{
				"x": 0.6819060945,
				"y": -3.3071240799,
				"z": 2.1585852429,
				"element": "H" 
			},
			{
				"x": -0.1785219584,
				"y": -3.2145456598,
				"z": 0.6253290889,
				"element": "H" 
			},
			{
				"x": 2.5126481379,
				"y": -5.3421686745,
				"z": 0.0537452344,
				"element": "H" 
			},
			{
				"x": 5.617271267,
				"y": -4.7862038521,
				"z": -1.9785141366,
				"element": "H" 
			},
			{
				"x": 5.4753272497,
				"y": -5.5850203638,
				"z": -0.4099456669,
				"element": "H" 
			},
			{
				"x": 4.3139495848,
				"y": -5.9487676719,
				"z": -1.685396176,
				"element": "H" 
			},
			{
				"x": 5.2997649486,
				"y": -2.4324411205,
				"z": -1.4205598472,
				"element": "H" 
			},
			{
				"x": 3.8429086417,
				"y": -0.6284012054,
				"z": -0.566194442,
				"element": "H" 
			},
			{
				"x": -4.3538156815,
				"y": -1.2795251345,
				"z": -0.3726514273,
				"element": "H" 
			},
			{
				"x": -5.2050569692,
				"y": 0.2073165008,
				"z": -0.8196696865,
				"element": "H" 
			},
			{
				"x": -4.0002034225,
				"y": -0.4862679954,
				"z": -1.9165160023,
				"element": "H" 
			},
			{
				"x": -3.6684395907,
				"y": -0.1274192442,
				"z": 1.8189890445,
				"element": "H" 
			},
			{
				"x": -2.6490324505,
				"y": 1.3144259115,
				"z": 1.7944086248,
				"element": "H" 
			},
			{
				"x": -4.3677501292,
				"y": 1.4324354175,
				"z": 1.3614022177,
				"element": "H" 
			}
		],
		 "valence_orbital": [ 
			{
				"type": "occ",
				"energy": -0.27679,
				"method": "rhf"
			},
			{
				"type": "occ",
				"energy": -0.26464,
				"method": "rhf"
			},
			{
				"type": "occ",
				"energy": -0.24199,
				"method": "rhf"
			},
			{
				"type": "occ",
				"energy": -0.23259,
				"method": "rhf"
			},
			{
				"type": "occ",
				"energy": -0.21479,
				"method": "rhf"
			},
			{
				"type": "unocc",
				"energy": -0.00556,
				"method": "rhf"
			},
			{
				"type": "unocc",
				"energy": 0.00281,
				"method": "rhf"
			},
			{
				"type": "unocc",
				"energy": 0.00791,
				"method": "rhf"
			},
			{
				"type": "unocc",
				"energy": 0.03607,
				"method": "rhf"
			},
			{
				"type": "unocc",
				"energy": 0.08498,
				"method": "rhf"
			}
		],
		"cosmo_sigma_profile": { 
			"-0.025": 0.0,
			"-0.024": 0.0,
			"-0.023": 0.0,
			"-0.022": 0.0,
			"-0.021": 0.0,
			"-0.02": 0.0,
			"-0.019": 0.0,
			"-0.018": 0.0,
			"-0.017": 0.0,
			"-0.016": 0.0,
			"-0.015": 0.0,
			"-0.014": 0.0,
			"-0.013": 0.0,
			"-0.012": 0.0,
			"-0.011": 0.0,
			"-0.01": 0.0,
			"-0.009": 0.0,
			"-0.008": 0.0,
			"-0.007": 0.0236966567313,
			"-0.006": 5.55880832153,
			"-0.005": 17.6258336991,
			"-0.004": 27.5210803753,
			"-0.003": 44.5008283428,
			"-0.002": 45.8026070311,
			"-0.001": 45.8283815997,
			"0.0": 53.2611954503,
			"0.001": 44.9968111397,
			"0.002": 19.4659117841,
			"0.003": 15.310293573,
			"0.004": 14.6719739826,
			"0.005": 14.6912618599,
			"0.006": 13.6850711461,
			"0.007": 5.48321980274,
			"0.008": 3.04600488147,
			"0.009": 2.1443178764,
			"0.01": 1.1620402233,
			"0.011": 2.14342251637,
			"0.012": 2.43576034817,
			"0.013": 0.77247319845,
			"0.014": 0.0,
			"0.015": 0.0,
			"0.016": 0.0,
			"0.017": 0.0,
			"0.018": 0.0,
			"0.019": 0.0,
			"0.02": 0.0,
			"0.021": 0.0,
			"0.022": 0.0,
			"0.023": 0.0,
			"0.024": 0.0,
			"0.025": 0.0
		}
	}
}
