{
	 "smiles": "CCOC(=O)C1=CC=C(O1)S(=O)(=O)N1CCCC1C(O)=O", 
	 "Tm": 398.15, 
	 "num_atms": 36, 
	 "gaussian": { 
		 "optdone": 1, 
		 "sigma_profile": "yes", 
		 "theory": "DFT", 
		 "functional": "B3LYP", 
		 "basiset": "6-31G**", 
		 "properties": { 
			 "R2extent": 8103.2876, 
			 "electric_dipole_moment_norm": 4.66878715514, 
			 "electric_quadrupole_moment_norm": 25.1175696834, 
			 "total_energy": -1445.74093147, 
			 "HOMO_LUMO_gap": 0.187, 
			 "cosmo_polarized_energy": -21.82, 
			 "cosmo_cavitation_energy": 42.19, 
			 "cosmo_dispersion_energy": -28.96, 
			 "cosmo_repulsion_energy": 2.24, 
			 "cosmo_total_nonelectrostatic_energy": 15.47, 
			 "SMD_solvation_energy": 8.67 
		},
		"coords": [
			{
				"x": -1.1989991613,
				"y": 2.6874492452,
				"z": 5.4545089128,
				"element": "C" 
			},
			{
				"x": -0.5354102049,
				"y": 3.2841872787,
				"z": 4.2228299153,
				"element": "C" 
			},
			{
				"x": -1.1310303605,
				"y": 2.7732672659,
				"z": 3.0039892694,
				"element": "O" 
			},
			{
				"x": -0.6406177844,
				"y": 1.5994147912,
				"z": 2.5471070425,
				"element": "C" 
			},
			{
				"x": 0.2516322726,
				"y": 0.9617143686,
				"z": 3.0660852407,
				"element": "O" 
			},
			{
				"x": -1.3422839381,
				"y": 1.2063972749,
				"z": 1.3154395786,
				"element": "C" 
			},
			{
				"x": -2.3249123618,
				"y": 1.7952500378,
				"z": 0.5613964292,
				"element": "C" 
			},
			{
				"x": -2.571425107,
				"y": 0.9236721352,
				"z": -0.537818101,
				"element": "C" 
			},
			{
				"x": -1.7181226956,
				"y": -0.1294614461,
				"z": -0.3592658952,
				"element": "C" 
			},
			{
				"x": -0.9684994665,
				"y": 0.0169988411,
				"z": 0.7554156226,
				"element": "O" 
			},
			{
				"x": -1.5031929179,
				"y": -1.621185997,
				"z": -1.3010052461,
				"element": "S" 
			},
			{
				"x": -1.7720484749,
				"y": -2.7386942572,
				"z": -0.3971493008,
				"element": "O" 
			},
			{
				"x": -2.2626726506,
				"y": -1.4092800957,
				"z": -2.5341499201,
				"element": "O" 
			},
			{
				"x": 0.1035344262,
				"y": -1.6335798703,
				"z": -1.7038302498,
				"element": "N" 
			},
			{
				"x": 1.1200113917,
				"y": -2.3068688471,
				"z": -0.8624233869,
				"element": "C" 
			},
			{
				"x": 2.0855567913,
				"y": -2.8833365789,
				"z": -1.9049185784,
				"element": "C" 
			},
			{
				"x": 2.0324512756,
				"y": -1.8527060011,
				"z": -3.0425014615,
				"element": "C" 
			},
			{
				"x": 0.5384285568,
				"y": -1.4386945245,
				"z": -3.0966160105,
				"element": "C" 
			},
			{
				"x": 0.3959258178,
				"y": -0.0266382279,
				"z": -3.6464661191,
				"element": "C" 
			},
			{
				"x": 0.3578648416,
				"y": 0.9255431955,
				"z": -2.6892143889,
				"element": "O" 
			},
			{
				"x": 0.3811990547,
				"y": 0.2186811027,
				"z": -4.8310528492,
				"element": "O" 
			},
			{
				"x": -0.782800483,
				"y": 3.1465262546,
				"z": 6.3573813461,
				"element": "H" 
			},
			{
				"x": -2.2777472085,
				"y": 2.8683190749,
				"z": 5.44302516,
				"element": "H" 
			},
			{
				"x": -1.0200347164,
				"y": 1.6107162283,
				"z": 5.5042837798,
				"element": "H" 
			},
			{
				"x": -0.6901968711,
				"y": 4.364018925,
				"z": 4.16514905,
				"element": "H" 
			},
			{
				"x": 0.5354668504,
				"y": 3.0685274024,
				"z": 4.2067483196,
				"element": "H" 
			},
			{
				"x": -2.8028412208,
				"y": 2.7389398919,
				"z": 0.777302924,
				"element": "H" 
			},
			{
				"x": -3.2727963455,
				"y": 1.0428694355,
				"z": -1.3492443425,
				"element": "H" 
			},
			{
				"x": 0.6474269764,
				"y": -3.066440879,
				"z": -0.2383695625,
				"element": "H" 
			},
			{
				"x": 1.6118863887,
				"y": -1.5735813666,
				"z": -0.2124178434,
				"element": "H" 
			},
			{
				"x": 3.094539211,
				"y": -3.0216669241,
				"z": -1.5076635137,
				"element": "H" 
			},
			{
				"x": 1.7196380566,
				"y": -3.8545653956,
				"z": -2.2549314566,
				"element": "H" 
			},
			{
				"x": 2.6456774427,
				"y": -0.9814539884,
				"z": -2.7873032566,
				"element": "H" 
			},
			{
				"x": 2.3698725518,
				"y": -2.2346290606,
				"z": -4.0079125693,
				"element": "H" 
			},
			{
				"x": -0.0189833013,
				"y": -2.0844097157,
				"z": -3.781037484,
				"element": "H" 
			},
			{
				"x": 0.2951033643,
				"y": 1.7738004263,
				"z": -3.1601710543,
				"element": "H" 
			}
		],
		 "valence_orbital": [ 
			{
				"type": "occ",
				"energy": -0.30457,
				"method": "rhf"
			},
			{
				"type": "occ",
				"energy": -0.29221,
				"method": "rhf"
			},
			{
				"type": "occ",
				"energy": -0.28561,
				"method": "rhf"
			},
			{
				"type": "occ",
				"energy": -0.26766,
				"method": "rhf"
			},
			{
				"type": "occ",
				"energy": -0.24714,
				"method": "rhf"
			},
			{
				"type": "unocc",
				"energy": -0.06014,
				"method": "rhf"
			},
			{
				"type": "unocc",
				"energy": -0.00025,
				"method": "rhf"
			},
			{
				"type": "unocc",
				"energy": 0.01136,
				"method": "rhf"
			},
			{
				"type": "unocc",
				"energy": 0.05363,
				"method": "rhf"
			},
			{
				"type": "unocc",
				"energy": 0.0587,
				"method": "rhf"
			}
		],
		"cosmo_sigma_profile": { 
			"-0.025": 0.0,
			"-0.024": 0.0,
			"-0.023": 0.0,
			"-0.022": 0.0,
			"-0.021": 0.0,
			"-0.02": 0.0,
			"-0.019": 0.350290094928,
			"-0.018": 0.812419389116,
			"-0.017": 0.873318168047,
			"-0.016": 1.40225556197,
			"-0.015": 0.220633802937,
			"-0.014": 0.271761049466,
			"-0.013": 0.266400642681,
			"-0.012": 1.30534007217,
			"-0.011": 1.6930878237,
			"-0.01": 0.834492896919,
			"-0.009": 2.92050393477,
			"-0.008": 3.19953551146,
			"-0.007": 5.67477645227,
			"-0.006": 12.623390489,
			"-0.005": 27.9718790764,
			"-0.004": 35.2531899575,
			"-0.003": 33.229992795,
			"-0.002": 30.0969832733,
			"-0.001": 25.5319508577,
			"0.0": 22.5881339134,
			"0.001": 19.6666764978,
			"0.002": 12.4436354258,
			"0.003": 11.1538698359,
			"0.004": 9.56677224383,
			"0.005": 9.54644956552,
			"0.006": 8.81440575865,
			"0.007": 7.22951547254,
			"0.008": 7.1163740135,
			"0.009": 9.35528125493,
			"0.01": 13.7109037235,
			"0.011": 12.4818428842,
			"0.012": 5.45511057013,
			"0.013": 0.214159462014,
			"0.014": 0.0,
			"0.015": 0.0,
			"0.016": 0.0,
			"0.017": 0.0,
			"0.018": 0.0,
			"0.019": 0.0,
			"0.02": 0.0,
			"0.021": 0.0,
			"0.022": 0.0,
			"0.023": 0.0,
			"0.024": 0.0,
			"0.025": 0.0
		}
	}
}
