{
	 "smiles": "O=CC1=CC=C2OCCOC2=C1", 
	 "Tm": 325.65, 
	 "num_atms": 20, 
	 "gaussian": { 
		 "optdone": 1, 
		 "sigma_profile": "yes", 
		 "theory": "DFT", 
		 "functional": "B3LYP", 
		 "basiset": "6-31G**", 
		 "properties": { 
			 "R2extent": 2865.8317, 
			 "electric_dipole_moment_norm": 4.80243463881, 
			 "electric_quadrupole_moment_norm": 17.4921334979, 
			 "total_energy": -573.423278063, 
			 "HOMO_LUMO_gap": 0.17291, 
			 "cosmo_polarized_energy": -11.11, 
			 "cosmo_cavitation_energy": 23.97, 
			 "cosmo_dispersion_energy": -18.16, 
			 "cosmo_repulsion_energy": 1.43, 
			 "cosmo_total_nonelectrostatic_energy": 7.24, 
			 "SMD_solvation_energy": 5.52 
		},
		"coords": [
			{
				"x": -2.2192787306,
				"y": -3.4298491265,
				"z": -1.9124326241,
				"element": "O" 
			},
			{
				"x": -2.6617564899,
				"y": -2.2971939035,
				"z": -1.8449618325,
				"element": "C" 
			},
			{
				"x": -2.2313542514,
				"y": -1.2781111371,
				"z": -0.8690891256,
				"element": "C" 
			},
			{
				"x": -2.8140728673,
				"y": -0.0020599039,
				"z": -0.8822745789,
				"element": "C" 
			},
			{
				"x": -2.4048443737,
				"y": 0.9631453415,
				"z": 0.0303243371,
				"element": "C" 
			},
			{
				"x": -1.413522697,
				"y": 0.6596013732,
				"z": 0.9676371922,
				"element": "C" 
			},
			{
				"x": -1.0294088032,
				"y": 1.6402596704,
				"z": 1.8377095209,
				"element": "O" 
			},
			{
				"x": 0.1821590126,
				"y": 1.3642419435,
				"z": 2.5476645433,
				"element": "C" 
			},
			{
				"x": 0.1866940057,
				"y": -0.0741487169,
				"z": 3.0357108489,
				"element": "C" 
			},
			{
				"x": 0.1166991119,
				"y": -0.9675397503,
				"z": 1.9249454373,
				"element": "O" 
			},
			{
				"x": -0.841937445,
				"y": -0.6320190267,
				"z": 1.0016573651,
				"element": "C" 
			},
			{
				"x": -1.2481941045,
				"y": -1.587993775,
				"z": 0.0816028222,
				"element": "C" 
			},
			{
				"x": -3.4527303231,
				"y": -1.9523232946,
				"z": -2.548788028,
				"element": "H" 
			},
			{
				"x": -3.5815644278,
				"y": 0.2328619789,
				"z": -1.6150616465,
				"element": "H" 
			},
			{
				"x": -2.8271793107,
				"y": 1.9625542503,
				"z": 0.0358395474,
				"element": "H" 
			},
			{
				"x": 1.0429600458,
				"y": 1.540924442,
				"z": 1.8895467756,
				"element": "H" 
			},
			{
				"x": 0.2180328882,
				"y": 2.0704807502,
				"z": 3.3806020123,
				"element": "H" 
			},
			{
				"x": 1.1125737561,
				"y": -0.3096056453,
				"z": 3.5659907806,
				"element": "H" 
			},
			{
				"x": -0.6645405851,
				"y": -0.2451809198,
				"z": 3.7088603677,
				"element": "H" 
			},
			{
				"x": -0.8098344108,
				"y": -2.5801445506,
				"z": 0.100016285,
				"element": "H" 
			}
		],
		 "valence_orbital": [ 
			{
				"type": "occ",
				"energy": -0.32244,
				"method": "rhf"
			},
			{
				"type": "occ",
				"energy": -0.31552,
				"method": "rhf"
			},
			{
				"type": "occ",
				"energy": -0.24743,
				"method": "rhf"
			},
			{
				"type": "occ",
				"energy": -0.24671,
				"method": "rhf"
			},
			{
				"type": "occ",
				"energy": -0.22561,
				"method": "rhf"
			},
			{
				"type": "unocc",
				"energy": -0.0527,
				"method": "rhf"
			},
			{
				"type": "unocc",
				"energy": -0.00594,
				"method": "rhf"
			},
			{
				"type": "unocc",
				"energy": 0.05086,
				"method": "rhf"
			},
			{
				"type": "unocc",
				"energy": 0.07557,
				"method": "rhf"
			},
			{
				"type": "unocc",
				"energy": 0.0965,
				"method": "rhf"
			}
		],
		"cosmo_sigma_profile": { 
			"-0.025": 0.0,
			"-0.024": 0.0,
			"-0.023": 0.0,
			"-0.022": 0.0,
			"-0.021": 0.0,
			"-0.02": 0.0,
			"-0.019": 0.0,
			"-0.018": 0.0,
			"-0.017": 0.0,
			"-0.016": 0.0,
			"-0.015": 0.0,
			"-0.014": 0.0,
			"-0.013": 0.0,
			"-0.012": 0.0,
			"-0.011": 0.0,
			"-0.01": 0.0,
			"-0.009": 0.0,
			"-0.008": 1.32226541119,
			"-0.007": 13.6556038874,
			"-0.006": 20.625741501,
			"-0.005": 17.085145025,
			"-0.004": 13.7957671847,
			"-0.003": 9.26121743204,
			"-0.002": 9.61872219031,
			"-0.001": 10.16270749,
			"0.0": 9.17341052245,
			"0.001": 11.620020857,
			"0.002": 17.0160487835,
			"0.003": 15.0624943229,
			"0.004": 8.42453802859,
			"0.005": 4.24879868046,
			"0.006": 3.74766379176,
			"0.007": 4.05385412027,
			"0.008": 4.41285120739,
			"0.009": 4.33099024648,
			"0.01": 4.12661685251,
			"0.011": 4.07471845909,
			"0.012": 3.97865595742,
			"0.013": 1.50646628419,
			"0.014": 0.103237780235,
			"0.015": 0.0,
			"0.016": 0.0,
			"0.017": 0.0,
			"0.018": 0.0,
			"0.019": 0.0,
			"0.02": 0.0,
			"0.021": 0.0,
			"0.022": 0.0,
			"0.023": 0.0,
			"0.024": 0.0,
			"0.025": 0.0
		}
	}
}
