{
	 "smiles": "CC1=NN(C(C)=C1)C1=NC(C(O)=O)=C(Cl)C=C1", 
	 "Tm": 458.15, 
	 "num_atms": 27, 
	 "gaussian": { 
		 "optdone": 1, 
		 "sigma_profile": "yes", 
		 "theory": "DFT", 
		 "functional": "B3LYP", 
		 "basiset": "6-31G**", 
		 "properties": { 
			 "R2extent": 7131.9161, 
			 "electric_dipole_moment_norm": 6.1149654627, 
			 "electric_quadrupole_moment_norm": 29.8059408127, 
			 "total_energy": -1200.09368915, 
			 "HOMO_LUMO_gap": 0.16866, 
			 "cosmo_polarized_energy": -14.08, 
			 "cosmo_cavitation_energy": 33.19, 
			 "cosmo_dispersion_energy": -24.31, 
			 "cosmo_repulsion_energy": 1.85, 
			 "cosmo_total_nonelectrostatic_energy": 10.73, 
			 "SMD_solvation_energy": 5.63 
		},
		"coords": [
			{
				"x": -3.5564488239,
				"y": -0.8051594078,
				"z": -0.9156830129,
				"element": "C" 
			},
			{
				"x": -2.1094373341,
				"y": -0.5941985619,
				"z": -0.5815068432,
				"element": "C" 
			},
			{
				"x": -1.5355871343,
				"y": 0.5863106742,
				"z": -0.753918856,
				"element": "N" 
			},
			{
				"x": -0.2328196867,
				"y": 0.4225629315,
				"z": -0.3547779618,
				"element": "N" 
			},
			{
				"x": 0.0157873658,
				"y": -0.8723079121,
				"z": 0.0726689463,
				"element": "C" 
			},
			{
				"x": 1.3162832258,
				"y": -1.4131750059,
				"z": 0.576051851,
				"element": "C" 
			},
			{
				"x": -1.1812028256,
				"y": -1.5378410846,
				"z": -0.0672425684,
				"element": "C" 
			},
			{
				"x": 0.6130304225,
				"y": 1.5436124132,
				"z": -0.4369755981,
				"element": "C" 
			},
			{
				"x": 1.8774512819,
				"y": 1.4099136399,
				"z": -0.0564446463,
				"element": "N" 
			},
			{
				"x": 2.7260592746,
				"y": 2.4573291486,
				"z": -0.1174245595,
				"element": "C" 
			},
			{
				"x": 4.1308449605,
				"y": 2.1279397077,
				"z": 0.3556632124,
				"element": "C" 
			},
			{
				"x": 4.2621323885,
				"y": 0.8478851159,
				"z": 0.7466118714,
				"element": "O" 
			},
			{
				"x": 5.0462826263,
				"y": 2.9138443105,
				"z": 0.3846641503,
				"element": "O" 
			},
			{
				"x": 2.3039370917,
				"y": 3.70670016,
				"z": -0.5796132362,
				"element": "C" 
			},
			{
				"x": 3.3314091617,
				"y": 5.1058877501,
				"z": -0.6897309086,
				"element": "Cl" 
			},
			{
				"x": 0.9653803762,
				"y": 3.8436168434,
				"z": -0.9812013012,
				"element": "C" 
			},
			{
				"x": 0.1035571651,
				"y": 2.7665989743,
				"z": -0.9156062187,
				"element": "C" 
			},
			{
				"x": -3.8544738171,
				"y": -1.8358111042,
				"z": -0.709807913,
				"element": "H" 
			},
			{
				"x": -4.1967714435,
				"y": -0.1396253546,
				"z": -0.3281349244,
				"element": "H" 
			},
			{
				"x": -3.7502216822,
				"y": -0.5972899559,
				"z": -1.9727591047,
				"element": "H" 
			},
			{
				"x": 2.1075842213,
				"y": -1.3474174655,
				"z": -0.1769446315,
				"element": "H" 
			},
			{
				"x": 1.6595810906,
				"y": -0.8887970417,
				"z": 1.4730772709,
				"element": "H" 
			},
			{
				"x": 1.1796130931,
				"y": -2.4665890344,
				"z": 0.8317321149,
				"element": "H" 
			},
			{
				"x": -1.3625200126,
				"y": -2.5758454785,
				"z": 0.1720898684,
				"element": "H" 
			},
			{
				"x": 3.3836866377,
				"y": 0.4343820904,
				"z": 0.623310507,
				"element": "H" 
			},
			{
				"x": 0.6171900721,
				"y": 4.8048744866,
				"z": -1.3431880766,
				"element": "H" 
			},
			{
				"x": -0.9325276951,
				"y": 2.8348991611,
				"z": -1.2160094317,
				"element": "H" 
			}
		],
		 "valence_orbital": [ 
			{
				"type": "occ",
				"energy": -0.30039,
				"method": "rhf"
			},
			{
				"type": "occ",
				"energy": -0.29688,
				"method": "rhf"
			},
			{
				"type": "occ",
				"energy": -0.26345,
				"method": "rhf"
			},
			{
				"type": "occ",
				"energy": -0.25535,
				"method": "rhf"
			},
			{
				"type": "occ",
				"energy": -0.24314,
				"method": "rhf"
			},
			{
				"type": "unocc",
				"energy": -0.07448,
				"method": "rhf"
			},
			{
				"type": "unocc",
				"energy": -0.05822,
				"method": "rhf"
			},
			{
				"type": "unocc",
				"energy": 0.00409,
				"method": "rhf"
			},
			{
				"type": "unocc",
				"energy": 0.02126,
				"method": "rhf"
			},
			{
				"type": "unocc",
				"energy": 0.05552,
				"method": "rhf"
			}
		],
		"cosmo_sigma_profile": { 
			"-0.025": 0.0,
			"-0.024": 0.0,
			"-0.023": 0.0,
			"-0.022": 0.0,
			"-0.021": 0.0,
			"-0.02": 0.0,
			"-0.019": 0.0,
			"-0.018": 0.0,
			"-0.017": 0.0,
			"-0.016": 0.0,
			"-0.015": 0.0,
			"-0.014": 0.0,
			"-0.013": 0.0,
			"-0.012": 0.0,
			"-0.011": 0.0,
			"-0.01": 0.478306462205,
			"-0.009": 3.46401825993,
			"-0.008": 4.76516085415,
			"-0.007": 6.9128823957,
			"-0.006": 9.18129180712,
			"-0.005": 17.7120943438,
			"-0.004": 20.2186146092,
			"-0.003": 23.3837771105,
			"-0.002": 32.3763252596,
			"-0.001": 31.6797646681,
			"0.0": 21.7052581409,
			"0.001": 12.9330565804,
			"0.002": 12.795104139,
			"0.003": 15.088687232,
			"0.004": 11.5701889446,
			"0.005": 5.44162749989,
			"0.006": 4.68345906457,
			"0.007": 5.08942017173,
			"0.008": 4.7838146444,
			"0.009": 5.06048586716,
			"0.01": 8.0735153496,
			"0.011": 6.36354745485,
			"0.012": 3.95468715552,
			"0.013": 0.605287141059,
			"0.014": 0.0,
			"0.015": 0.0,
			"0.016": 0.0,
			"0.017": 0.0,
			"0.018": 0.0,
			"0.019": 0.0,
			"0.02": 0.0,
			"0.021": 0.0,
			"0.022": 0.0,
			"0.023": 0.0,
			"0.024": 0.0,
			"0.025": 0.0
		}
	}
}
