{
	 "smiles": "CCC(OC1=CC=C(F)C(=C1)C(F)(F)F)C(=O)NCC1=CC=CC=C1", 
	 "Tm": 348.15, 
	 "num_atms": 42, 
	 "gaussian": { 
		 "optdone": 1, 
		 "sigma_profile": "yes", 
		 "theory": "DFT", 
		 "functional": "B3LYP", 
		 "basiset": "6-31G**", 
		 "properties": { 
			 "R2extent": 14578.1526, 
			 "electric_dipole_moment_norm": 4.04258465589, 
			 "electric_quadrupole_moment_norm": 20.5579106541, 
			 "total_energy": -1300.73885046, 
			 "HOMO_LUMO_gap": 0.19667, 
			 "cosmo_polarized_energy": -13.67, 
			 "cosmo_cavitation_energy": 48.25, 
			 "cosmo_dispersion_energy": -31.88, 
			 "cosmo_repulsion_energy": 2.36, 
			 "cosmo_total_nonelectrostatic_energy": 18.73, 
			 "SMD_solvation_energy": 9.86 
		},
		"coords": [
			{
				"x": -1.1418718527,
				"y": 1.3772790674,
				"z": 1.9887990679,
				"element": "C" 
			},
			{
				"x": -0.0596239289,
				"y": 2.3328465697,
				"z": 1.4779747824,
				"element": "C" 
			},
			{
				"x": 0.652579414,
				"y": 1.8397260573,
				"z": 0.2106578595,
				"element": "C" 
			},
			{
				"x": 1.2702521764,
				"y": 0.5549059391,
				"z": 0.3986380157,
				"element": "O" 
			},
			{
				"x": 2.5037232907,
				"y": 0.4496959068,
				"z": 0.9834583373,
				"element": "C" 
			},
			{
				"x": 2.9961082042,
				"y": -0.8567824121,
				"z": 1.1169771646,
				"element": "C" 
			},
			{
				"x": 4.2453814608,
				"y": -1.0854767582,
				"z": 1.6817121189,
				"element": "C" 
			},
			{
				"x": 5.0039631768,
				"y": -0.0048308137,
				"z": 2.1165322907,
				"element": "C" 
			},
			{
				"x": 6.2138216854,
				"y": -0.2274081694,
				"z": 2.6646288882,
				"element": "F" 
			},
			{
				"x": 4.5324018017,
				"y": 1.3000073055,
				"z": 1.9982708433,
				"element": "C" 
			},
			{
				"x": 3.2739346398,
				"y": 1.5274896234,
				"z": 1.4301770685,
				"element": "C" 
			},
			{
				"x": 5.3765989006,
				"y": 2.4489204361,
				"z": 2.4863759646,
				"element": "C" 
			},
			{
				"x": 4.7571088891,
				"y": 3.6357139237,
				"z": 2.2933295476,
				"element": "F" 
			},
			{
				"x": 5.6434414821,
				"y": 2.3463627286,
				"z": 3.8045687971,
				"element": "F" 
			},
			{
				"x": 6.5604256999,
				"y": 2.5056066459,
				"z": 1.8425668932,
				"element": "F" 
			},
			{
				"x": -0.3292234197,
				"y": 1.7508020343,
				"z": -0.9727408775,
				"element": "C" 
			},
			{
				"x": -1.0430555396,
				"y": 2.7136152452,
				"z": -1.2334410192,
				"element": "O" 
			},
			{
				"x": -0.3172475868,
				"y": 0.5882485917,
				"z": -1.6708337356,
				"element": "N" 
			},
			{
				"x": -1.1731641803,
				"y": 0.3582105633,
				"z": -2.826448903,
				"element": "C" 
			},
			{
				"x": -1.8840930883,
				"y": -0.9802370829,
				"z": -2.7741472786,
				"element": "C" 
			},
			{
				"x": -2.5639308889,
				"y": -1.3903590939,
				"z": -1.6187262148,
				"element": "C" 
			},
			{
				"x": -3.239172616,
				"y": -2.6098196228,
				"z": -1.5876346525,
				"element": "C" 
			},
			{
				"x": -3.2470326401,
				"y": -3.4379673149,
				"z": -2.7131972946,
				"element": "C" 
			},
			{
				"x": -2.5729089343,
				"y": -3.0389384682,
				"z": -3.867452789,
				"element": "C" 
			},
			{
				"x": -1.8933662541,
				"y": -1.8190803871,
				"z": -3.8940479471,
				"element": "C" 
			},
			{
				"x": -0.7319737348,
				"y": 0.3839806346,
				"z": 2.194053936,
				"element": "H" 
			},
			{
				"x": -1.9501638425,
				"y": 1.2726225236,
				"z": 1.2578347516,
				"element": "H" 
			},
			{
				"x": -1.5819757305,
				"y": 1.7583347456,
				"z": 2.9149482484,
				"element": "H" 
			},
			{
				"x": -0.497980052,
				"y": 3.3036080352,
				"z": 1.2287346752,
				"element": "H" 
			},
			{
				"x": 0.688946149,
				"y": 2.5032925099,
				"z": 2.2595239209,
				"element": "H" 
			},
			{
				"x": 1.4132257359,
				"y": 2.5684606537,
				"z": -0.0973650023,
				"element": "H" 
			},
			{
				"x": 2.3841145713,
				"y": -1.6830792626,
				"z": 0.7710554907,
				"element": "H" 
			},
			{
				"x": 4.6411874269,
				"y": -2.0890860974,
				"z": 1.7905698394,
				"element": "H" 
			},
			{
				"x": 2.9233216858,
				"y": 2.5473036187,
				"z": 1.3557283534,
				"element": "H" 
			},
			{
				"x": 0.3074895724,
				"y": -0.1397084134,
				"z": -1.3553186406,
				"element": "H" 
			},
			{
				"x": -1.8872681432,
				"y": 1.1881251271,
				"z": -2.8381697335,
				"element": "H" 
			},
			{
				"x": -0.5873058049,
				"y": 0.4268676515,
				"z": -3.7523200768,
				"element": "H" 
			},
			{
				"x": -2.5581868067,
				"y": -0.7502491689,
				"z": -0.7407257739,
				"element": "H" 
			},
			{
				"x": -3.7624282234,
				"y": -2.9136772763,
				"z": -0.6852993106,
				"element": "H" 
			},
			{
				"x": -3.773225795,
				"y": -4.3878478768,
				"z": -2.6883657699,
				"element": "H" 
			},
			{
				"x": -2.5694658138,
				"y": -3.677923456,
				"z": -4.7459727139,
				"element": "H" 
			},
			{
				"x": -1.3648610864,
				"y": -1.5149544634,
				"z": -4.7945091218,
				"element": "H" 
			}
		],
		 "valence_orbital": [ 
			{
				"type": "occ",
				"energy": -0.26764,
				"method": "rhf"
			},
			{
				"type": "occ",
				"energy": -0.26171,
				"method": "rhf"
			},
			{
				"type": "occ",
				"energy": -0.25605,
				"method": "rhf"
			},
			{
				"type": "occ",
				"energy": -0.24331,
				"method": "rhf"
			},
			{
				"type": "occ",
				"energy": -0.23771,
				"method": "rhf"
			},
			{
				"type": "unocc",
				"energy": -0.04104,
				"method": "rhf"
			},
			{
				"type": "unocc",
				"energy": -0.01105,
				"method": "rhf"
			},
			{
				"type": "unocc",
				"energy": -0.01029,
				"method": "rhf"
			},
			{
				"type": "unocc",
				"energy": -0.00775,
				"method": "rhf"
			},
			{
				"type": "unocc",
				"energy": 0.0203,
				"method": "rhf"
			}
		],
		"cosmo_sigma_profile": { 
			"-0.025": 0.0,
			"-0.024": 0.0,
			"-0.023": 0.0,
			"-0.022": 0.0,
			"-0.021": 0.0,
			"-0.02": 0.0,
			"-0.019": 0.0,
			"-0.018": 0.0,
			"-0.017": 0.0,
			"-0.016": 0.0,
			"-0.015": 0.0,
			"-0.014": 0.0,
			"-0.013": 0.0,
			"-0.012": 0.214890671301,
			"-0.011": 0.541885006368,
			"-0.01": 1.3901606243,
			"-0.009": 2.01059874392,
			"-0.008": 5.84550621198,
			"-0.007": 7.47341519465,
			"-0.006": 13.5847699804,
			"-0.005": 19.8215097545,
			"-0.004": 24.5041989285,
			"-0.003": 32.8819499938,
			"-0.002": 32.1478344348,
			"-0.001": 33.1547477227,
			"0.0": 37.6095807134,
			"0.001": 36.1844681093,
			"0.002": 38.9644550362,
			"0.003": 43.4829229651,
			"0.004": 19.0112572465,
			"0.005": 10.0734116929,
			"0.006": 9.15464905181,
			"0.007": 1.69656465008,
			"0.008": 1.2636299042,
			"0.009": 1.28928777442,
			"0.01": 1.337060105,
			"0.011": 1.50334975846,
			"0.012": 1.67246500772,
			"0.013": 3.80088712092,
			"0.014": 3.70831037273,
			"0.015": 0.0279629390304,
			"0.016": 0.0,
			"0.017": 0.0,
			"0.018": 0.0,
			"0.019": 0.0,
			"0.02": 0.0,
			"0.021": 0.0,
			"0.022": 0.0,
			"0.023": 0.0,
			"0.024": 0.0,
			"0.025": 0.0
		}
	}
}
