{
	 "smiles": "CCCCCCCCC(C)=O", 
	 "Tm": 287.15, 
	 "num_atms": 31, 
	 "gaussian": { 
		 "optdone": 1, 
		 "sigma_profile": "yes", 
		 "theory": "DFT", 
		 "functional": "B3LYP", 
		 "basiset": "6-31G**", 
		 "properties": { 
			 "R2extent": 3920.5452, 
			 "electric_dipole_moment_norm": 2.52706936193, 
			 "electric_quadrupole_moment_norm": 11.0050262839, 
			 "total_energy": -468.366686393, 
			 "HOMO_LUMO_gap": 0.23276, 
			 "cosmo_polarized_energy": -6.78, 
			 "cosmo_cavitation_energy": 32.21, 
			 "cosmo_dispersion_energy": -22.54, 
			 "cosmo_repulsion_energy": 1.88, 
			 "cosmo_total_nonelectrostatic_energy": 11.56, 
			 "SMD_solvation_energy": 5.48 
		},
		"coords": [
			{
				"x": -4.0024743071,
				"y": -0.9463668627,
				"z": 3.173478715,
				"element": "C" 
			},
			{
				"x": -2.6601313969,
				"y": -1.6709808487,
				"z": 3.0304846336,
				"element": "C" 
			},
			{
				"x": -2.195155591,
				"y": -1.8051271941,
				"z": 1.574685367,
				"element": "C" 
			},
			{
				"x": -0.8623555242,
				"y": -2.5562421118,
				"z": 1.4301535534,
				"element": "C" 
			},
			{
				"x": -0.3558290351,
				"y": -2.7316101755,
				"z": -0.0192739145,
				"element": "C" 
			},
			{
				"x": 0.5994751699,
				"y": -1.6440726485,
				"z": -0.5423790134,
				"element": "C" 
			},
			{
				"x": 0.0090292152,
				"y": -0.2307930457,
				"z": -0.6518918339,
				"element": "C" 
			},
			{
				"x": 0.9750798337,
				"y": 0.7764065991,
				"z": -1.2849178444,
				"element": "C" 
			},
			{
				"x": 1.1698808901,
				"y": 0.605925541,
				"z": -2.7894296656,
				"element": "C" 
			},
			{
				"x": 2.296309716,
				"y": 1.4079885338,
				"z": -3.4201349146,
				"element": "C" 
			},
			{
				"x": 0.457668032,
				"y": -0.1218855006,
				"z": -3.4559657514,
				"element": "O" 
			},
			{
				"x": -4.3062347476,
				"y": -0.8665929401,
				"z": 4.2225417821,
				"element": "H" 
			},
			{
				"x": -4.7977176388,
				"y": -1.4761665218,
				"z": 2.6365902843,
				"element": "H" 
			},
			{
				"x": -3.950439903,
				"y": 0.0692933217,
				"z": 2.7644932646,
				"element": "H" 
			},
			{
				"x": -1.8926370532,
				"y": -1.137030966,
				"z": 3.6077795803,
				"element": "H" 
			},
			{
				"x": -2.7339744979,
				"y": -2.6708764845,
				"z": 3.4799914351,
				"element": "H" 
			},
			{
				"x": -2.1217743179,
				"y": -0.8058590868,
				"z": 1.1275030436,
				"element": "H" 
			},
			{
				"x": -2.9658118653,
				"y": -2.3355252939,
				"z": 0.9970086395,
				"element": "H" 
			},
			{
				"x": -0.0894583726,
				"y": -2.0531203461,
				"z": 2.0295803183,
				"element": "H" 
			},
			{
				"x": -0.9872978833,
				"y": -3.5480666778,
				"z": 1.8848632163,
				"element": "H" 
			},
			{
				"x": -1.2152122887,
				"y": -2.816688675,
				"z": -0.6987965049,
				"element": "H" 
			},
			{
				"x": 0.1745054864,
				"y": -3.6892971983,
				"z": -0.0918998381,
				"element": "H" 
			},
			{
				"x": 0.9510352138,
				"y": -1.9491746654,
				"z": -1.5348433666,
				"element": "H" 
			},
			{
				"x": 1.4874822709,
				"y": -1.6103975267,
				"z": 0.1065529672,
				"element": "H" 
			},
			{
				"x": -0.9055396627,
				"y": -0.2626379405,
				"z": -1.2548702343,
				"element": "H" 
			},
			{
				"x": -0.2714165498,
				"y": 0.1362748072,
				"z": 0.3416546379,
				"element": "H" 
			},
			{
				"x": 1.9590734983,
				"y": 0.7489195666,
				"z": -0.7954577139,
				"element": "H" 
			},
			{
				"x": 0.6127973109,
				"y": 1.8050627551,
				"z": -1.1367196471,
				"element": "H" 
			},
			{
				"x": 2.2639471629,
				"y": 2.4558454359,
				"z": -3.101799113,
				"element": "H" 
			},
			{
				"x": 2.2328457703,
				"y": 1.3451192912,
				"z": -4.5074171302,
				"element": "H" 
			},
			{
				"x": 3.2628310648,
				"y": 1.0056768589,
				"z": -3.0927649526,
				"element": "H" 
			}
		],
		 "valence_orbital": [ 
			{
				"type": "occ",
				"energy": -0.32055,
				"method": "rhf"
			},
			{
				"type": "occ",
				"energy": -0.31456,
				"method": "rhf"
			},
			{
				"type": "occ",
				"energy": -0.30305,
				"method": "rhf"
			},
			{
				"type": "occ",
				"energy": -0.29814,
				"method": "rhf"
			},
			{
				"type": "occ",
				"energy": -0.24296,
				"method": "rhf"
			},
			{
				"type": "unocc",
				"energy": -0.0102,
				"method": "rhf"
			},
			{
				"type": "unocc",
				"energy": 0.08301,
				"method": "rhf"
			},
			{
				"type": "unocc",
				"energy": 0.09414,
				"method": "rhf"
			},
			{
				"type": "unocc",
				"energy": 0.10559,
				"method": "rhf"
			},
			{
				"type": "unocc",
				"energy": 0.11877,
				"method": "rhf"
			}
		],
		"cosmo_sigma_profile": { 
			"-0.025": 0.0,
			"-0.024": 0.0,
			"-0.023": 0.0,
			"-0.022": 0.0,
			"-0.021": 0.0,
			"-0.02": 0.0,
			"-0.019": 0.0,
			"-0.018": 0.0,
			"-0.017": 0.0,
			"-0.016": 0.0,
			"-0.015": 0.0,
			"-0.014": 0.0,
			"-0.013": 0.0,
			"-0.012": 0.0,
			"-0.011": 0.0,
			"-0.01": 0.0,
			"-0.009": 0.0,
			"-0.008": 0.0,
			"-0.007": 0.0249840121454,
			"-0.006": 5.40102770211,
			"-0.005": 10.6826424223,
			"-0.004": 10.4274897529,
			"-0.003": 12.8064232773,
			"-0.002": 30.7045687499,
			"-0.001": 52.9171640592,
			"0.0": 47.3174172797,
			"0.001": 35.2791377196,
			"0.002": 17.8367501715,
			"0.003": 2.48027565422,
			"0.004": 1.90362760371,
			"0.005": 1.45973114082,
			"0.006": 1.73497277574,
			"0.007": 1.987137339,
			"0.008": 1.21774677999,
			"0.009": 2.12367413493,
			"0.01": 1.76308748645,
			"0.011": 2.62905198424,
			"0.012": 3.88892530508,
			"0.013": 2.75552629208,
			"0.014": 0.403934280168,
			"0.015": 0.0,
			"0.016": 0.0,
			"0.017": 0.0,
			"0.018": 0.0,
			"0.019": 0.0,
			"0.02": 0.0,
			"0.021": 0.0,
			"0.022": 0.0,
			"0.023": 0.0,
			"0.024": 0.0,
			"0.025": 0.0
		}
	}
}
