{
	 "smiles": "CC1=CC(Br)=C(OCC(=O)NN)C2=C1CCC2", 
	 "Tm": 342.65, 
	 "num_atms": 32, 
	 "gaussian": { 
		 "optdone": 1, 
		 "sigma_profile": "yes", 
		 "theory": "DFT", 
		 "functional": "B3LYP", 
		 "basiset": "6-31G**", 
		 "properties": { 
			 "R2extent": 8492.5177, 
			 "electric_dipole_moment_norm": 4.16401902253, 
			 "electric_quadrupole_moment_norm": 10.0071341847, 
			 "total_energy": -3297.65705065, 
			 "HOMO_LUMO_gap": 0.2198, 
			 "cosmo_polarized_energy": -12.91, 
			 "cosmo_cavitation_energy": 37.41, 
			 "cosmo_dispersion_energy": -26.44, 
			 "cosmo_repulsion_energy": 2.09, 
			 "cosmo_total_nonelectrostatic_energy": 13.06, 
			 "SMD_solvation_energy": 5.85 
		},
		"coords": [
			{
				"x": 1.0607867488,
				"y": -2.8709977389,
				"z": -1.895603333,
				"element": "C" 
			},
			{
				"x": 1.0239458337,
				"y": -1.4217422738,
				"z": -1.475883231,
				"element": "C" 
			},
			{
				"x": 1.3036768031,
				"y": -0.3992358623,
				"z": -2.3915104074,
				"element": "C" 
			},
			{
				"x": 1.2818949636,
				"y": 0.940425738,
				"z": -2.0028099094,
				"element": "C" 
			},
			{
				"x": 1.6947852503,
				"y": 2.2914589878,
				"z": -3.2903277413,
				"element": "Br" 
			},
			{
				"x": 0.9776916323,
				"y": 1.3101181222,
				"z": -0.6864523414,
				"element": "C" 
			},
			{
				"x": 1.0126461915,
				"y": 2.6263582143,
				"z": -0.2770555376,
				"element": "O" 
			},
			{
				"x": -0.2017484212,
				"y": 3.3652728794,
				"z": -0.4659275595,
				"element": "C" 
			},
			{
				"x": 0.0586025258,
				"y": 4.8634600464,
				"z": -0.3570079352,
				"element": "C" 
			},
			{
				"x": -0.8721330011,
				"y": 5.6570012699,
				"z": -0.2745745187,
				"element": "O" 
			},
			{
				"x": 1.3634756458,
				"y": 5.23175429,
				"z": -0.394605146,
				"element": "N" 
			},
			{
				"x": 1.7526134841,
				"y": 6.584304427,
				"z": -0.4168706119,
				"element": "N" 
			},
			{
				"x": 0.693076291,
				"y": 0.295534965,
				"z": 0.2279455005,
				"element": "C" 
			},
			{
				"x": 0.7168517102,
				"y": -1.0481930236,
				"z": -0.1607522976,
				"element": "C" 
			},
			{
				"x": 0.4103368392,
				"y": -1.940770333,
				"z": 1.024308261,
				"element": "C" 
			},
			{
				"x": -0.1880366791,
				"y": -0.9620527605,
				"z": 2.0667876489,
				"element": "C" 
			},
			{
				"x": 0.3864147597,
				"y": 0.4308203321,
				"z": 1.7033338613,
				"element": "C" 
			},
			{
				"x": 0.0944831695,
				"y": -3.3610553513,
				"z": -1.7272294654,
				"element": "H" 
			},
			{
				"x": 1.8068905604,
				"y": -3.4339970573,
				"z": -1.3223666677,
				"element": "H" 
			},
			{
				"x": 1.3072095111,
				"y": -2.9728982398,
				"z": -2.9555810311,
				"element": "H" 
			},
			{
				"x": 1.5455677428,
				"y": -0.6444342418,
				"z": -3.4202391056,
				"element": "H" 
			},
			{
				"x": -0.6256767584,
				"y": 3.1682319116,
				"z": -1.457808546,
				"element": "H" 
			},
			{
				"x": -0.9495680953,
				"y": 3.0943599661,
				"z": 0.2882835748,
				"element": "H" 
			},
			{
				"x": 2.0825449763,
				"y": 4.5439943315,
				"z": -0.5642487426,
				"element": "H" 
			},
			{
				"x": 1.1345629835,
				"y": 7.061028056,
				"z": -1.0742293744,
				"element": "H" 
			},
			{
				"x": 1.5284587037,
				"y": 6.982960978,
				"z": 0.4950261444,
				"element": "H" 
			},
			{
				"x": 1.3347418153,
				"y": -2.4047555686,
				"z": 1.398292187,
				"element": "H" 
			},
			{
				"x": -0.2714863505,
				"y": -2.7628153369,
				"z": 0.7801797842,
				"element": "H" 
			},
			{
				"x": 0.0301301386,
				"y": -1.2537469877,
				"z": 3.0975946752,
				"element": "H" 
			},
			{
				"x": -1.2778481006,
				"y": -0.9419071071,
				"z": 1.9569245052,
				"element": "H" 
			},
			{
				"x": -0.3050607816,
				"y": 1.2473474661,
				"z": 1.9321116854,
				"element": "H" 
			},
			{
				"x": 1.3107699075,
				"y": 0.6413699009,
				"z": 2.2583956747,
				"element": "H" 
			}
		],
		 "valence_orbital": [ 
			{
				"type": "occ",
				"energy": -0.2783,
				"method": "rhf"
			},
			{
				"type": "occ",
				"energy": -0.25355,
				"method": "rhf"
			},
			{
				"type": "occ",
				"energy": -0.25105,
				"method": "rhf"
			},
			{
				"type": "occ",
				"energy": -0.24408,
				"method": "rhf"
			},
			{
				"type": "occ",
				"energy": -0.23379,
				"method": "rhf"
			},
			{
				"type": "unocc",
				"energy": -0.01399,
				"method": "rhf"
			},
			{
				"type": "unocc",
				"energy": -0.01018,
				"method": "rhf"
			},
			{
				"type": "unocc",
				"energy": 0.0048,
				"method": "rhf"
			},
			{
				"type": "unocc",
				"energy": 0.0283,
				"method": "rhf"
			},
			{
				"type": "unocc",
				"energy": 0.0749,
				"method": "rhf"
			}
		],
		"cosmo_sigma_profile": { 
			"-0.025": 0.0,
			"-0.024": 0.0,
			"-0.023": 0.0,
			"-0.022": 0.0,
			"-0.021": 0.0,
			"-0.02": 0.0,
			"-0.019": 0.0,
			"-0.018": 0.0,
			"-0.017": 0.0,
			"-0.016": 0.0,
			"-0.015": 0.0,
			"-0.014": 0.0,
			"-0.013": 0.0,
			"-0.012": 0.511904794432,
			"-0.011": 2.78204042205,
			"-0.01": 3.62526934912,
			"-0.009": 2.82242554057,
			"-0.008": 1.49493708504,
			"-0.007": 3.72926061741,
			"-0.006": 8.90503990522,
			"-0.005": 12.464927273,
			"-0.004": 22.6957991331,
			"-0.003": 29.0926186827,
			"-0.002": 33.6798471655,
			"-0.001": 31.7573617356,
			"0.0": 32.4191092453,
			"0.001": 20.6965814362,
			"0.002": 18.0490386562,
			"0.003": 19.9308964438,
			"0.004": 17.1553078079,
			"0.005": 8.11820915268,
			"0.006": 2.18761577465,
			"0.007": 3.03568458305,
			"0.008": 2.80086707457,
			"0.009": 1.32191960507,
			"0.01": 1.97127004971,
			"0.011": 2.61040690969,
			"0.012": 1.66588177014,
			"0.013": 5.05524609017,
			"0.014": 5.15051772463,
			"0.015": 1.03903265728,
			"0.016": 0.438750097727,
			"0.017": 0.200723890445,
			"0.018": 0.0,
			"0.019": 0.0,
			"0.02": 0.0,
			"0.021": 0.0,
			"0.022": 0.0,
			"0.023": 0.0,
			"0.024": 0.0,
			"0.025": 0.0
		}
	}
}
