{
	 "smiles": "COC(=O)N(C)C1=CC=C(C=C1)[N+]([O-])=O", 
	 "Tm": 382.15, 
	 "num_atms": 25, 
	 "gaussian": { 
		 "optdone": 1, 
		 "sigma_profile": "yes", 
		 "theory": "DFT", 
		 "functional": "B3LYP", 
		 "basiset": "6-31G**", 
		 "properties": { 
			 "R2extent": 5261.2965, 
			 "electric_dipole_moment_norm": 3.94646715304, 
			 "electric_quadrupole_moment_norm": 36.2632761161, 
			 "total_energy": -759.295226527, 
			 "HOMO_LUMO_gap": 0.15814, 
			 "cosmo_polarized_energy": -12.98, 
			 "cosmo_cavitation_energy": 29.98, 
			 "cosmo_dispersion_energy": -21.65, 
			 "cosmo_repulsion_energy": 1.69, 
			 "cosmo_total_nonelectrostatic_energy": 10.02, 
			 "SMD_solvation_energy": 9.19 
		},
		"coords": [
			{
				"x": -2.76137524,
				"y": 2.1903195946,
				"z": 1.6112168223,
				"element": "C" 
			},
			{
				"x": -2.0334572211,
				"y": 1.1751562747,
				"z": 0.8997928647,
				"element": "O" 
			},
			{
				"x": -0.7814476158,
				"y": 1.5304691536,
				"z": 0.5398630701,
				"element": "C" 
			},
			{
				"x": -0.2860305309,
				"y": 2.6132789151,
				"z": 0.7909178318,
				"element": "O" 
			},
			{
				"x": -0.121206668,
				"y": 0.5330352942,
				"z": -0.1678370509,
				"element": "N" 
			},
			{
				"x": 1.1794684837,
				"y": 0.9176273919,
				"z": -0.7290921667,
				"element": "C" 
			},
			{
				"x": -0.6707249739,
				"y": -0.7255977329,
				"z": -0.5156465851,
				"element": "C" 
			},
			{
				"x": -1.4190370895,
				"y": -1.4896153899,
				"z": 0.4004462174,
				"element": "C" 
			},
			{
				"x": -1.904687039,
				"y": -2.7394175661,
				"z": 0.0437071327,
				"element": "C" 
			},
			{
				"x": -1.6322005845,
				"y": -3.2429006928,
				"z": -1.2283933597,
				"element": "C" 
			},
			{
				"x": -0.881495013,
				"y": -2.516260967,
				"z": -2.1486394911,
				"element": "C" 
			},
			{
				"x": -0.4038319328,
				"y": -1.2615921421,
				"z": -1.7890893939,
				"element": "C" 
			},
			{
				"x": -2.1398528438,
				"y": -4.5653073249,
				"z": -1.6015151019,
				"element": "N" 
			},
			{
				"x": -1.8653867691,
				"y": -4.9877916506,
				"z": -2.725816845,
				"element": "O" 
			},
			{
				"x": -2.8112631394,
				"y": -5.1764721932,
				"z": -0.7689379693,
				"element": "O" 
			},
			{
				"x": -2.2467448283,
				"y": 2.4584723052,
				"z": 2.5366813837,
				"element": "H" 
			},
			{
				"x": -3.7344789731,
				"y": 1.7491070952,
				"z": 1.8260548648,
				"element": "H" 
			},
			{
				"x": -2.8732043563,
				"y": 3.0855247994,
				"z": 0.9953938238,
				"element": "H" 
			},
			{
				"x": 1.0828472873,
				"y": 1.3604245398,
				"z": -1.7274808088,
				"element": "H" 
			},
			{
				"x": 1.8193594629,
				"y": 0.0354920725,
				"z": -0.7865600007,
				"element": "H" 
			},
			{
				"x": 1.6280292333,
				"y": 1.6588421596,
				"z": -0.0703544222,
				"element": "H" 
			},
			{
				"x": -1.6138016035,
				"y": -1.1014267099,
				"z": 1.390404243,
				"element": "H" 
			},
			{
				"x": -2.4766545349,
				"y": -3.3394354227,
				"z": 0.740300407,
				"element": "H" 
			},
			{
				"x": -0.6901133123,
				"y": -2.9337479619,
				"z": -3.1291611589,
				"element": "H" 
			},
			{
				"x": 0.1667898015,
				"y": -0.6884838415,
				"z": -2.510254307,
				"element": "H" 
			}
		],
		 "valence_orbital": [ 
			{
				"type": "occ",
				"energy": -0.30364,
				"method": "rhf"
			},
			{
				"type": "occ",
				"energy": -0.29186,
				"method": "rhf"
			},
			{
				"type": "occ",
				"energy": -0.28651,
				"method": "rhf"
			},
			{
				"type": "occ",
				"energy": -0.27965,
				"method": "rhf"
			},
			{
				"type": "occ",
				"energy": -0.24451,
				"method": "rhf"
			},
			{
				"type": "unocc",
				"energy": -0.08637,
				"method": "rhf"
			},
			{
				"type": "unocc",
				"energy": -0.02804,
				"method": "rhf"
			},
			{
				"type": "unocc",
				"energy": -0.00428,
				"method": "rhf"
			},
			{
				"type": "unocc",
				"energy": 0.03973,
				"method": "rhf"
			},
			{
				"type": "unocc",
				"energy": 0.0753,
				"method": "rhf"
			}
		],
		"cosmo_sigma_profile": { 
			"-0.025": 0.0,
			"-0.024": 0.0,
			"-0.023": 0.0,
			"-0.022": 0.0,
			"-0.021": 0.0,
			"-0.02": 0.0,
			"-0.019": 0.0,
			"-0.018": 0.0,
			"-0.017": 0.0,
			"-0.016": 0.0,
			"-0.015": 0.0,
			"-0.014": 0.0,
			"-0.013": 0.0,
			"-0.012": 0.0,
			"-0.011": 0.0,
			"-0.01": 0.0,
			"-0.009": 0.0,
			"-0.008": 1.97880276605,
			"-0.007": 8.36079678402,
			"-0.006": 16.5831536973,
			"-0.005": 22.1023082106,
			"-0.004": 20.9186141124,
			"-0.003": 24.5563254839,
			"-0.002": 19.1883412339,
			"-0.001": 16.8008612621,
			"0.0": 16.932401895,
			"0.001": 17.7532265678,
			"0.002": 12.0296276386,
			"0.003": 6.86777000559,
			"0.004": 4.65840711608,
			"0.005": 5.52830096588,
			"0.006": 6.03327532171,
			"0.007": 8.28870663553,
			"0.008": 10.2912081909,
			"0.009": 6.70399010091,
			"0.01": 5.04093301251,
			"0.011": 2.75622128715,
			"0.012": 4.44330561442,
			"0.013": 1.39994762957,
			"0.014": 0.0,
			"0.015": 0.0,
			"0.016": 0.0,
			"0.017": 0.0,
			"0.018": 0.0,
			"0.019": 0.0,
			"0.02": 0.0,
			"0.021": 0.0,
			"0.022": 0.0,
			"0.023": 0.0,
			"0.024": 0.0,
			"0.025": 0.0
		}
	}
}
