{
	 "smiles": "FC1=C(F)C(F)=C(C(=O)C2=CC=CC=C2)C(F)=C1F", 
	 "Tm": 310.65, 
	 "num_atms": 24, 
	 "gaussian": { 
		 "optdone": 1, 
		 "sigma_profile": "yes", 
		 "theory": "DFT", 
		 "functional": "B3LYP", 
		 "basiset": "6-31G**", 
		 "properties": { 
			 "R2extent": 7406.0241, 
			 "electric_dipole_moment_norm": 3.33451465734, 
			 "electric_quadrupole_moment_norm": 8.87270026091, 
			 "total_energy": -1072.75013388, 
			 "HOMO_LUMO_gap": 0.18319, 
			 "cosmo_polarized_energy": -7.91, 
			 "cosmo_cavitation_energy": 32.31, 
			 "cosmo_dispersion_energy": -22.18, 
			 "cosmo_repulsion_energy": 1.6, 
			 "cosmo_total_nonelectrostatic_energy": 11.72, 
			 "SMD_solvation_energy": 8.34 
		},
		"coords": [
			{
				"x": 0.4177158764,
				"y": -5.4417705345,
				"z": 2.1531965436,
				"element": "F" 
			},
			{
				"x": 0.1046957699,
				"y": -4.5188939754,
				"z": 1.2424735765,
				"element": "C" 
			},
			{
				"x": -1.0767435262,
				"y": -4.6342372846,
				"z": 0.5116096464,
				"element": "C" 
			},
			{
				"x": -1.8966628979,
				"y": -5.6663915985,
				"z": 0.7324814896,
				"element": "F" 
			},
			{
				"x": -1.3921783357,
				"y": -3.670323521,
				"z": -0.4422979507,
				"element": "C" 
			},
			{
				"x": -2.5375536038,
				"y": -3.805038385,
				"z": -1.1179373517,
				"element": "F" 
			},
			{
				"x": -0.5612495631,
				"y": -2.569666504,
				"z": -0.6728891433,
				"element": "C" 
			},
			{
				"x": -0.8818616468,
				"y": -1.5992444744,
				"z": -1.796025039,
				"element": "C" 
			},
			{
				"x": -1.0396613721,
				"y": -2.0460022049,
				"z": -2.9200177666,
				"element": "O" 
			},
			{
				"x": -1.0076376781,
				"y": -0.1470698397,
				"z": -1.4938837707,
				"element": "C" 
			},
			{
				"x": -1.1190020757,
				"y": 0.7404571849,
				"z": -2.5775088072,
				"element": "C" 
			},
			{
				"x": -1.2596571989,
				"y": 2.1054854194,
				"z": -2.3531563028,
				"element": "C" 
			},
			{
				"x": -1.3007538945,
				"y": 2.5981410756,
				"z": -1.0444200687,
				"element": "C" 
			},
			{
				"x": -1.2008441592,
				"y": 1.7218374208,
				"z": 0.0380640177,
				"element": "C" 
			},
			{
				"x": -1.0514545367,
				"y": 0.3539511178,
				"z": -0.1842924071,
				"element": "C" 
			},
			{
				"x": 0.6145126298,
				"y": -2.4796664855,
				"z": 0.0743848156,
				"element": "C" 
			},
			{
				"x": 1.4606464149,
				"y": -1.4571849925,
				"z": -0.1231648127,
				"element": "F" 
			},
			{
				"x": 0.9565179173,
				"y": -3.4383402453,
				"z": 1.0247421975,
				"element": "C" 
			},
			{
				"x": 2.0930612659,
				"y": -3.3319629199,
				"z": 1.7209986002,
				"element": "F" 
			},
			{
				"x": -1.0911383796,
				"y": 0.3331789497,
				"z": -3.5824918069,
				"element": "H" 
			},
			{
				"x": -1.3390047489,
				"y": 2.7880550411,
				"z": -3.1939566593,
				"element": "H" 
			},
			{
				"x": -1.4128327143,
				"y": 3.6643393721,
				"z": -0.8695290762,
				"element": "H" 
			},
			{
				"x": -1.2399484945,
				"y": 2.1034578511,
				"z": 1.0537862214,
				"element": "H" 
			},
			{
				"x": -0.9867650483,
				"y": -0.3237104671,
				"z": 0.6605338542,
				"element": "H" 
			}
		],
		 "valence_orbital": [ 
			{
				"type": "occ",
				"energy": -0.28107,
				"method": "rhf"
			},
			{
				"type": "occ",
				"energy": -0.27125,
				"method": "rhf"
			},
			{
				"type": "occ",
				"energy": -0.26964,
				"method": "rhf"
			},
			{
				"type": "occ",
				"energy": -0.2654,
				"method": "rhf"
			},
			{
				"type": "occ",
				"energy": -0.26235,
				"method": "rhf"
			},
			{
				"type": "unocc",
				"energy": -0.07916,
				"method": "rhf"
			},
			{
				"type": "unocc",
				"energy": -0.03345,
				"method": "rhf"
			},
			{
				"type": "unocc",
				"energy": -0.02386,
				"method": "rhf"
			},
			{
				"type": "unocc",
				"energy": -0.01774,
				"method": "rhf"
			},
			{
				"type": "unocc",
				"energy": 0.0082,
				"method": "rhf"
			}
		],
		"cosmo_sigma_profile": { 
			"-0.025": 0.0,
			"-0.024": 0.0,
			"-0.023": 0.0,
			"-0.022": 0.0,
			"-0.021": 0.0,
			"-0.02": 0.0,
			"-0.019": 0.0,
			"-0.018": 0.0,
			"-0.017": 0.0,
			"-0.016": 0.0,
			"-0.015": 0.0,
			"-0.014": 0.0,
			"-0.013": 0.0,
			"-0.012": 0.0,
			"-0.011": 0.0,
			"-0.01": 0.0,
			"-0.009": 0.0,
			"-0.008": 0.309136668398,
			"-0.007": 5.66674024678,
			"-0.006": 12.3914975544,
			"-0.005": 17.3155757975,
			"-0.004": 26.9460896521,
			"-0.003": 18.5108093086,
			"-0.002": 14.1697312044,
			"-0.001": 16.3627174798,
			"0.0": 15.5342700055,
			"0.001": 21.4598653404,
			"0.002": 52.3034669145,
			"0.003": 36.3237766921,
			"0.004": 7.64436829037,
			"0.005": 2.18156244884,
			"0.006": 1.73735183029,
			"0.007": 2.45375229219,
			"0.008": 2.18167752022,
			"0.009": 2.3316166243,
			"0.01": 3.43733039214,
			"0.011": 2.96944927059,
			"0.012": 0.169036737653,
			"0.013": 0.0,
			"0.014": 0.0,
			"0.015": 0.0,
			"0.016": 0.0,
			"0.017": 0.0,
			"0.018": 0.0,
			"0.019": 0.0,
			"0.02": 0.0,
			"0.021": 0.0,
			"0.022": 0.0,
			"0.023": 0.0,
			"0.024": 0.0,
			"0.025": 0.0
		}
	}
}
