{
	 "smiles": "NC1=C(OC2=CC=CC=C2)C=CC=C1F", 
	 "Tm": 325.15, 
	 "num_atms": 25, 
	 "gaussian": { 
		 "optdone": 1, 
		 "sigma_profile": "yes", 
		 "theory": "DFT", 
		 "functional": "B3LYP", 
		 "basiset": "6-31G**", 
		 "properties": { 
			 "R2extent": 3768.6803, 
			 "electric_dipole_moment_norm": 0.649007927532, 
			 "electric_quadrupole_moment_norm": 6.04473083437, 
			 "total_energy": -693.1060424, 
			 "HOMO_LUMO_gap": 0.20054, 
			 "cosmo_polarized_energy": -7.85, 
			 "cosmo_cavitation_energy": 29.76, 
			 "cosmo_dispersion_energy": -21.35, 
			 "cosmo_repulsion_energy": 1.66, 
			 "cosmo_total_nonelectrostatic_energy": 10.07, 
			 "SMD_solvation_energy": 5.58 
		},
		"coords": [
			{
				"x": 1.8383848249,
				"y": 0.1064229177,
				"z": 0.5032491651,
				"element": "N" 
			},
			{
				"x": 0.5703925256,
				"y": 0.4912280908,
				"z": 0.9115568663,
				"element": "C" 
			},
			{
				"x": -0.4690809303,
				"y": 0.7309069745,
				"z": -0.0037034788,
				"element": "C" 
			},
			{
				"x": -0.1233326954,
				"y": 0.7123013569,
				"z": -1.3488571036,
				"element": "O" 
			},
			{
				"x": -0.6468770055,
				"y": -0.2579367939,
				"z": -2.1860078041,
				"element": "C" 
			},
			{
				"x": -1.2446055452,
				"y": -1.4342358029,
				"z": -1.7277507586,
				"element": "C" 
			},
			{
				"x": -1.7121960245,
				"y": -2.3647012962,
				"z": -2.6585545155,
				"element": "C" 
			},
			{
				"x": -1.5858201238,
				"y": -2.1328886825,
				"z": -4.0286054498,
				"element": "C" 
			},
			{
				"x": -0.9820751528,
				"y": -0.9526833411,
				"z": -4.4710457146,
				"element": "C" 
			},
			{
				"x": -0.5134425174,
				"y": -0.0125716149,
				"z": -3.5558711474,
				"element": "C" 
			},
			{
				"x": -1.7550260709,
				"y": 1.0655577668,
				"z": 0.4188668794,
				"element": "C" 
			},
			{
				"x": -2.0371041412,
				"y": 1.1614556118,
				"z": 1.7815055903,
				"element": "C" 
			},
			{
				"x": -1.0234760009,
				"y": 0.9387197236,
				"z": 2.719203245,
				"element": "C" 
			},
			{
				"x": 0.2450573012,
				"y": 0.6161316827,
				"z": 2.2696402563,
				"element": "C" 
			},
			{
				"x": 1.2517937845,
				"y": 0.4102192453,
				"z": 3.1590495515,
				"element": "F" 
			},
			{
				"x": 2.0680822798,
				"y": 0.3784699395,
				"z": -0.4423296034,
				"element": "H" 
			},
			{
				"x": 2.5692626854,
				"y": 0.2890887802,
				"z": 1.1758359583,
				"element": "H" 
			},
			{
				"x": -1.3396765608,
				"y": -1.6192400537,
				"z": -0.6640107357,
				"element": "H" 
			},
			{
				"x": -2.1755515784,
				"y": -3.280439882,
				"z": -2.3022280181,
				"element": "H" 
			},
			{
				"x": -1.9529233544,
				"y": -2.8623047688,
				"z": -4.7439154542,
				"element": "H" 
			},
			{
				"x": -0.8777975919,
				"y": -0.7587475328,
				"z": -5.5348113157,
				"element": "H" 
			},
			{
				"x": -0.0456755176,
				"y": 0.9116273842,
				"z": -3.8794960336,
				"element": "H" 
			},
			{
				"x": -2.5196152191,
				"y": 1.2508943182,
				"z": -0.3281788923,
				"element": "H" 
			},
			{
				"x": -3.0367861937,
				"y": 1.4189425297,
				"z": 2.1143033746,
				"element": "H" 
			},
			{
				"x": -1.2001111776,
				"y": 1.0169834469,
				"z": 3.7863551386,
				"element": "H" 
			}
		],
		 "valence_orbital": [ 
			{
				"type": "occ",
				"energy": -0.31626,
				"method": "rhf"
			},
			{
				"type": "occ",
				"energy": -0.25194,
				"method": "rhf"
			},
			{
				"type": "occ",
				"energy": -0.24533,
				"method": "rhf"
			},
			{
				"type": "occ",
				"energy": -0.22271,
				"method": "rhf"
			},
			{
				"type": "occ",
				"energy": -0.20497,
				"method": "rhf"
			},
			{
				"type": "unocc",
				"energy": -0.00443,
				"method": "rhf"
			},
			{
				"type": "unocc",
				"energy": 0.00048,
				"method": "rhf"
			},
			{
				"type": "unocc",
				"energy": 0.0109,
				"method": "rhf"
			},
			{
				"type": "unocc",
				"energy": 0.01395,
				"method": "rhf"
			},
			{
				"type": "unocc",
				"energy": 0.07232,
				"method": "rhf"
			}
		],
		"cosmo_sigma_profile": { 
			"-0.025": 0.0,
			"-0.024": 0.0,
			"-0.023": 0.0,
			"-0.022": 0.0,
			"-0.021": 0.0,
			"-0.02": 0.0,
			"-0.019": 0.0,
			"-0.018": 0.0,
			"-0.017": 0.0,
			"-0.016": 0.0,
			"-0.015": 0.0,
			"-0.014": 0.0,
			"-0.013": 0.179102911631,
			"-0.012": 1.04764400214,
			"-0.011": 2.20767295621,
			"-0.01": 1.74182960069,
			"-0.009": 2.1089378231,
			"-0.008": 1.73800256971,
			"-0.007": 4.03985568772,
			"-0.006": 12.3232789067,
			"-0.005": 16.1057496209,
			"-0.004": 17.6254756077,
			"-0.003": 17.1634622522,
			"-0.002": 12.6726158708,
			"-0.001": 14.4256034604,
			"0.0": 15.1454836485,
			"0.001": 17.7844969825,
			"0.002": 22.1753607257,
			"0.003": 20.9574989404,
			"0.004": 24.9807182167,
			"0.005": 19.2548441413,
			"0.006": 7.91877877549,
			"0.007": 1.97772384131,
			"0.008": 1.27229604091,
			"0.009": 1.04760826418,
			"0.01": 0.564619337865,
			"0.011": 0.808913887512,
			"0.012": 0.440704726383,
			"0.013": 0.620324250823,
			"0.014": 0.15452396549,
			"0.015": 0.0,
			"0.016": 0.0,
			"0.017": 0.0,
			"0.018": 0.0,
			"0.019": 0.0,
			"0.02": 0.0,
			"0.021": 0.0,
			"0.022": 0.0,
			"0.023": 0.0,
			"0.024": 0.0,
			"0.025": 0.0
		}
	}
}
