{
	 "smiles": "CC(SCC1=CC=CC=C1)C(O)=O", 
	 "Tm": 353.15, 
	 "num_atms": 25, 
	 "gaussian": { 
		 "optdone": 1, 
		 "sigma_profile": "yes", 
		 "theory": "DFT", 
		 "functional": "B3LYP", 
		 "basiset": "6-31G**", 
		 "properties": { 
			 "R2extent": 3417.6574, 
			 "electric_dipole_moment_norm": 2.924213537, 
			 "electric_quadrupole_moment_norm": 12.9025672562, 
			 "total_energy": -936.948805549, 
			 "HOMO_LUMO_gap": 0.20743, 
			 "cosmo_polarized_energy": -12.85, 
			 "cosmo_cavitation_energy": 30.56, 
			 "cosmo_dispersion_energy": -21.21, 
			 "cosmo_repulsion_energy": 1.67, 
			 "cosmo_total_nonelectrostatic_energy": 11.03, 
			 "SMD_solvation_energy": 5.92 
		},
		"coords": [
			{
				"x": -1.7815773844,
				"y": 1.8767015022,
				"z": 2.694315483,
				"element": "C" 
			},
			{
				"x": -1.8581588614,
				"y": 1.1013841064,
				"z": 1.3798807381,
				"element": "C" 
			},
			{
				"x": -1.4670611646,
				"y": -0.7028908614,
				"z": 1.5869219369,
				"element": "S" 
			},
			{
				"x": 0.3778370791,
				"y": -0.6651314471,
				"z": 1.4583944163,
				"element": "C" 
			},
			{
				"x": 0.929051287,
				"y": -0.193505663,
				"z": 0.1358108148,
				"element": "C" 
			},
			{
				"x": 0.7429324037,
				"y": -0.9454393431,
				"z": -1.0341215392,
				"element": "C" 
			},
			{
				"x": 1.2693618568,
				"y": -0.511416029,
				"z": -2.2481874715,
				"element": "C" 
			},
			{
				"x": 1.986997506,
				"y": 0.6870105104,
				"z": -2.3165699376,
				"element": "C" 
			},
			{
				"x": 2.174098173,
				"y": 1.4454673841,
				"z": -1.162124487,
				"element": "C" 
			},
			{
				"x": 1.6479488627,
				"y": 1.0059761762,
				"z": 0.0558717119,
				"element": "C" 
			},
			{
				"x": -3.2551686523,
				"y": 1.1614278888,
				"z": 0.7828288321,
				"element": "C" 
			},
			{
				"x": -3.2281463156,
				"y": 1.2164350522,
				"z": -0.5673390708,
				"element": "O" 
			},
			{
				"x": -4.2843198384,
				"y": 1.1575362751,
				"z": 1.4221104236,
				"element": "O" 
			},
			{
				"x": -2.5388080931,
				"y": 1.5126346088,
				"z": 3.3910798685,
				"element": "H" 
			},
			{
				"x": -1.9576456629,
				"y": 2.9446150433,
				"z": 2.5203948797,
				"element": "H" 
			},
			{
				"x": -0.7955400202,
				"y": 1.7653134443,
				"z": 3.1531376037,
				"element": "H" 
			},
			{
				"x": -1.153718114,
				"y": 1.4834036471,
				"z": 0.6363668404,
				"element": "H" 
			},
			{
				"x": 0.7788291018,
				"y": -0.0675571877,
				"z": 2.2820157108,
				"element": "H" 
			},
			{
				"x": 0.6526723034,
				"y": -1.707290586,
				"z": 1.6516576595,
				"element": "H" 
			},
			{
				"x": 0.1741997351,
				"y": -1.8702555088,
				"z": -0.9879736809,
				"element": "H" 
			},
			{
				"x": 1.120344506,
				"y": -1.107286532,
				"z": -3.1441849065,
				"element": "H" 
			},
			{
				"x": 2.3958889487,
				"y": 1.0245296777,
				"z": -3.2645046462,
				"element": "H" 
			},
			{
				"x": 2.7298085608,
				"y": 2.3778914057,
				"z": -1.2047504161,
				"element": "H" 
			},
			{
				"x": 1.8065328119,
				"y": 1.5956024151,
				"z": 0.9558713585,
				"element": "H" 
			},
			{
				"x": -4.1563590291,
				"y": 1.2127440207,
				"z": -0.8565021219,
				"element": "H" 
			}
		],
		 "valence_orbital": [ 
			{
				"type": "occ",
				"energy": -0.3098,
				"method": "rhf"
			},
			{
				"type": "occ",
				"energy": -0.27686,
				"method": "rhf"
			},
			{
				"type": "occ",
				"energy": -0.25584,
				"method": "rhf"
			},
			{
				"type": "occ",
				"energy": -0.25043,
				"method": "rhf"
			},
			{
				"type": "occ",
				"energy": -0.2267,
				"method": "rhf"
			},
			{
				"type": "unocc",
				"energy": -0.01927,
				"method": "rhf"
			},
			{
				"type": "unocc",
				"energy": -0.00606,
				"method": "rhf"
			},
			{
				"type": "unocc",
				"energy": -0.00309,
				"method": "rhf"
			},
			{
				"type": "unocc",
				"energy": 0.03803,
				"method": "rhf"
			},
			{
				"type": "unocc",
				"energy": 0.07586,
				"method": "rhf"
			}
		],
		"cosmo_sigma_profile": { 
			"-0.025": 0.0,
			"-0.024": 0.0,
			"-0.023": 0.0,
			"-0.022": 0.0,
			"-0.021": 0.0,
			"-0.02": 0.0,
			"-0.019": 0.155882068703,
			"-0.018": 0.669903154484,
			"-0.017": 1.19703475915,
			"-0.016": 1.08104250439,
			"-0.015": 0.195649560533,
			"-0.014": 0.911521034892,
			"-0.013": 0.63412843692,
			"-0.012": 0.939452448385,
			"-0.011": 0.823162820833,
			"-0.01": 0.500576688679,
			"-0.009": 0.234578913889,
			"-0.008": 0.996842773339,
			"-0.007": 3.45237823216,
			"-0.006": 12.2656905275,
			"-0.005": 21.8008193617,
			"-0.004": 21.5114081121,
			"-0.003": 22.5743752903,
			"-0.002": 15.1110959081,
			"-0.001": 17.2424605448,
			"0.0": 16.2482458605,
			"0.001": 13.5473231406,
			"0.002": 11.5758045924,
			"0.003": 12.5871794825,
			"0.004": 14.2083758304,
			"0.005": 15.1506275657,
			"0.006": 11.1348221049,
			"0.007": 6.52160977965,
			"0.008": 4.62097023762,
			"0.009": 5.00168252792,
			"0.01": 3.11783017236,
			"0.011": 4.52216635928,
			"0.012": 2.91911608051,
			"0.013": 0.0163561416247,
			"0.014": 0.0,
			"0.015": 0.0,
			"0.016": 0.0,
			"0.017": 0.0,
			"0.018": 0.0,
			"0.019": 0.0,
			"0.02": 0.0,
			"0.021": 0.0,
			"0.022": 0.0,
			"0.023": 0.0,
			"0.024": 0.0,
			"0.025": 0.0
		}
	}
}
