{
	 "smiles": "CC(=O)NC1=CC(=CC=C1)C#N", 
	 "Tm": 407.15, 
	 "num_atms": 20, 
	 "gaussian": { 
		 "optdone": 1, 
		 "sigma_profile": "yes", 
		 "theory": "DFT", 
		 "functional": "B3LYP", 
		 "basiset": "6-31G**", 
		 "properties": { 
			 "R2extent": 2978.7012, 
			 "electric_dipole_moment_norm": 3.18676206517, 
			 "electric_quadrupole_moment_norm": 28.3821257007, 
			 "total_energy": -532.503516538, 
			 "HOMO_LUMO_gap": 0.18195, 
			 "cosmo_polarized_energy": -16.01, 
			 "cosmo_cavitation_energy": 25.58, 
			 "cosmo_dispersion_energy": -18.08, 
			 "cosmo_repulsion_energy": 1.44, 
			 "cosmo_total_nonelectrostatic_energy": 8.94, 
			 "SMD_solvation_energy": 6.69 
		},
		"coords": [
			{
				"x": 2.3782018954,
				"y": -1.3343455445,
				"z": 1.4112683986,
				"element": "C" 
			},
			{
				"x": 3.0620411296,
				"y": -0.0107468293,
				"z": 1.1498502583,
				"element": "C" 
			},
			{
				"x": 4.2783897893,
				"y": 0.097288664,
				"z": 1.1389645361,
				"element": "O" 
			},
			{
				"x": 2.3048607577,
				"y": 1.1347639773,
				"z": 0.9113903296,
				"element": "N" 
			},
			{
				"x": 0.9404325435,
				"y": 1.4486397859,
				"z": 0.8355775955,
				"element": "C" 
			},
			{
				"x": -0.1124137254,
				"y": 0.5402279015,
				"z": 1.0099141172,
				"element": "C" 
			},
			{
				"x": -1.4425466496,
				"y": 0.9811829411,
				"z": 0.9087201484,
				"element": "C" 
			},
			{
				"x": -1.7492495088,
				"y": 2.3205947438,
				"z": 0.6349387686,
				"element": "C" 
			},
			{
				"x": -0.6982948544,
				"y": 3.2194526922,
				"z": 0.4625057142,
				"element": "C" 
			},
			{
				"x": 0.6211518509,
				"y": 2.794691616,
				"z": 0.5603152815,
				"element": "C" 
			},
			{
				"x": -2.5018327739,
				"y": 0.0294042264,
				"z": 1.0917563341,
				"element": "C" 
			},
			{
				"x": -3.3586824171,
				"y": -0.7429536999,
				"z": 1.2402951179,
				"element": "N" 
			},
			{
				"x": 1.759141165,
				"y": -1.6410904499,
				"z": 0.5624051997,
				"element": "H" 
			},
			{
				"x": 1.7435836841,
				"y": -1.2894956262,
				"z": 2.3018532065,
				"element": "H" 
			},
			{
				"x": 3.1608369091,
				"y": -2.0758302419,
				"z": 1.5681549843,
				"element": "H" 
			},
			{
				"x": 2.9288818624,
				"y": 1.9185077402,
				"z": 0.7585404428,
				"element": "H" 
			},
			{
				"x": 0.0637652126,
				"y": -0.5023305018,
				"z": 1.2224688342,
				"element": "H" 
			},
			{
				"x": -2.782362544,
				"y": 2.6395858938,
				"z": 0.5610971641,
				"element": "H" 
			},
			{
				"x": -0.9076335225,
				"y": 4.262983684,
				"z": 0.2494646291,
				"element": "H" 
			},
			{
				"x": 1.4271291963,
				"y": 3.5108690273,
				"z": 0.4226189389,
				"element": "H" 
			}
		],
		 "valence_orbital": [ 
			{
				"type": "occ",
				"energy": -0.33697,
				"method": "rhf"
			},
			{
				"type": "occ",
				"energy": -0.3223,
				"method": "rhf"
			},
			{
				"type": "occ",
				"energy": -0.27766,
				"method": "rhf"
			},
			{
				"type": "occ",
				"energy": -0.27095,
				"method": "rhf"
			},
			{
				"type": "occ",
				"energy": -0.24174,
				"method": "rhf"
			},
			{
				"type": "unocc",
				"energy": -0.05979,
				"method": "rhf"
			},
			{
				"type": "unocc",
				"energy": -0.03586,
				"method": "rhf"
			},
			{
				"type": "unocc",
				"energy": 0.0168,
				"method": "rhf"
			},
			{
				"type": "unocc",
				"energy": 0.03108,
				"method": "rhf"
			},
			{
				"type": "unocc",
				"energy": 0.06227,
				"method": "rhf"
			}
		],
		"cosmo_sigma_profile": { 
			"-0.025": 0.0,
			"-0.024": 0.0,
			"-0.023": 0.0,
			"-0.022": 0.0,
			"-0.021": 0.0,
			"-0.02": 0.0,
			"-0.019": 0.0,
			"-0.018": 0.0,
			"-0.017": 0.0,
			"-0.016": 0.0,
			"-0.015": 0.400061289717,
			"-0.014": 1.31004052489,
			"-0.013": 1.06308405393,
			"-0.012": 1.08464799127,
			"-0.011": 1.49283828548,
			"-0.01": 1.27154238874,
			"-0.009": 1.53827137131,
			"-0.008": 6.51425034588,
			"-0.007": 13.8675825669,
			"-0.006": 13.3659453896,
			"-0.005": 12.3036710655,
			"-0.004": 11.1825671489,
			"-0.003": 12.4514705446,
			"-0.002": 14.0131094463,
			"-0.001": 15.2722383471,
			"0.0": 13.4509370103,
			"0.001": 15.007213677,
			"0.002": 14.5385032811,
			"0.003": 8.45905225829,
			"0.004": 3.44905105377,
			"0.005": 3.42301759398,
			"0.006": 3.55953778979,
			"0.007": 4.14330431531,
			"0.008": 4.69085492725,
			"0.009": 5.07848477433,
			"0.01": 4.09512932796,
			"0.011": 5.32676091494,
			"0.012": 5.36816655068,
			"0.013": 6.73053590126,
			"0.014": 1.43262477353,
			"0.015": 0.0132720694218,
			"0.016": 0.0,
			"0.017": 0.0,
			"0.018": 0.0,
			"0.019": 0.0,
			"0.02": 0.0,
			"0.021": 0.0,
			"0.022": 0.0,
			"0.023": 0.0,
			"0.024": 0.0,
			"0.025": 0.0
		}
	}
}
