{
	 "smiles": "COC1=CC=C(C=C(/C(N)=O)C2=NC3=C(S2)C=CC=C3)C=C1", 
	 "Tm": 441.15, 
	 "num_atms": 36, 
	 "gaussian": { 
		 "optdone": 1, 
		 "sigma_profile": "yes", 
		 "theory": "DFT", 
		 "functional": "B3LYP", 
		 "basiset": "6-31G**", 
		 "properties": { 
			 "R2extent": 11414.1583, 
			 "electric_dipole_moment_norm": 1.20194554785, 
			 "electric_quadrupole_moment_norm": 31.6829616873, 
			 "total_energy": -1314.39076937, 
			 "HOMO_LUMO_gap": 0.13458, 
			 "cosmo_polarized_energy": -13.85, 
			 "cosmo_cavitation_energy": 41.82, 
			 "cosmo_dispersion_energy": -31.18, 
			 "cosmo_repulsion_energy": 2.31, 
			 "cosmo_total_nonelectrostatic_energy": 12.95, 
			 "SMD_solvation_energy": 6.93 
		},
		"coords": [
			{
				"x": -6.5895854156,
				"y": -0.8550786919,
				"z": 0.3386898575,
				"element": "C" 
			},
			{
				"x": -5.5733059361,
				"y": -1.0367478624,
				"z": 1.3161531153,
				"element": "O" 
			},
			{
				"x": -4.2751950253,
				"y": -0.9789413257,
				"z": 0.9206715225,
				"element": "C" 
			},
			{
				"x": -3.8484127486,
				"y": -0.7596293955,
				"z": -0.3968591554,
				"element": "C" 
			},
			{
				"x": -2.4907229608,
				"y": -0.718537174,
				"z": -0.7000802827,
				"element": "C" 
			},
			{
				"x": -1.5116671858,
				"y": -0.8904954412,
				"z": 0.3003349817,
				"element": "C" 
			},
			{
				"x": -0.0641474559,
				"y": -0.859822119,
				"z": 0.1363628677,
				"element": "C" 
			},
			{
				"x": 0.8299286863,
				"y": -0.4579799376,
				"z": -0.8193409935,
				"element": "C" 
			},
			{
				"x": 0.4515441222,
				"y": 0.1203313442,
				"z": -2.1693126114,
				"element": "C" 
			},
			{
				"x": 1.2617065557,
				"y": 1.1031159112,
				"z": -2.6434842503,
				"element": "N" 
			},
			{
				"x": -0.5408055983,
				"y": -0.2581353168,
				"z": -2.7908082601,
				"element": "O" 
			},
			{
				"x": 2.262223099,
				"y": -0.5922544171,
				"z": -0.4959434724,
				"element": "C" 
			},
			{
				"x": 3.2237797099,
				"y": 0.1461589052,
				"z": -0.9769436692,
				"element": "N" 
			},
			{
				"x": 4.46701819,
				"y": -0.2136720105,
				"z": -0.4923074066,
				"element": "C" 
			},
			{
				"x": 4.4665750223,
				"y": -1.3033786607,
				"z": 0.4113012888,
				"element": "C" 
			},
			{
				"x": 2.8281664306,
				"y": -1.8828698018,
				"z": 0.614957126,
				"element": "S" 
			},
			{
				"x": 5.6500872137,
				"y": -1.7723065928,
				"z": 0.9857317445,
				"element": "C" 
			},
			{
				"x": 6.8422564604,
				"y": -1.1373062212,
				"z": 0.6447032373,
				"element": "C" 
			},
			{
				"x": 6.8548268777,
				"y": -0.0531122211,
				"z": -0.2499006882,
				"element": "C" 
			},
			{
				"x": 5.6775376306,
				"y": 0.414805319,
				"z": -0.8209137492,
				"element": "C" 
			},
			{
				"x": -1.9735232464,
				"y": -1.1299306093,
				"z": 1.6204454886,
				"element": "C" 
			},
			{
				"x": -3.3193349108,
				"y": -1.1681966999,
				"z": 1.9327579174,
				"element": "C" 
			},
			{
				"x": -7.5368941525,
				"y": -0.9339129498,
				"z": 0.8736951173,
				"element": "H" 
			},
			{
				"x": -6.521371707,
				"y": 0.132210014,
				"z": -0.1342918996,
				"element": "H" 
			},
			{
				"x": -6.5458070167,
				"y": -1.6299087607,
				"z": -0.4364818542,
				"element": "H" 
			},
			{
				"x": -4.5662112858,
				"y": -0.629425022,
				"z": -1.1981550999,
				"element": "H" 
			},
			{
				"x": -2.1698694678,
				"y": -0.5716932965,
				"z": -1.7222517868,
				"element": "H" 
			},
			{
				"x": 0.4225186805,
				"y": -1.1861747985,
				"z": 1.0548875379,
				"element": "H" 
			},
			{
				"x": 2.1882584785,
				"y": 1.2151117385,
				"z": -2.2407409358,
				"element": "H" 
			},
			{
				"x": 1.080977408,
				"y": 1.3951406772,
				"z": -3.5930155261,
				"element": "H" 
			},
			{
				"x": 5.6446279522,
				"y": -2.6082601543,
				"z": 1.6777422223,
				"element": "H" 
			},
			{
				"x": 7.77454948,
				"y": -1.4867437512,
				"z": 1.077938868,
				"element": "H" 
			},
			{
				"x": 7.7980206766,
				"y": 0.4246462556,
				"z": -0.4968817486,
				"element": "H" 
			},
			{
				"x": 5.6734188739,
				"y": 1.2526495321,
				"z": -1.5104361075,
				"element": "H" 
			},
			{
				"x": -1.2473905259,
				"y": -1.2786365494,
				"z": 2.4157702122,
				"element": "H" 
			},
			{
				"x": -3.6616769087,
				"y": -1.3459199161,
				"z": 2.9467063926,
				"element": "H" 
			}
		],
		 "valence_orbital": [ 
			{
				"type": "occ",
				"energy": -0.25451,
				"method": "rhf"
			},
			{
				"type": "occ",
				"energy": -0.24698,
				"method": "rhf"
			},
			{
				"type": "occ",
				"energy": -0.2424,
				"method": "rhf"
			},
			{
				"type": "occ",
				"energy": -0.23823,
				"method": "rhf"
			},
			{
				"type": "occ",
				"energy": -0.20631,
				"method": "rhf"
			},
			{
				"type": "unocc",
				"energy": -0.07173,
				"method": "rhf"
			},
			{
				"type": "unocc",
				"energy": -0.01619,
				"method": "rhf"
			},
			{
				"type": "unocc",
				"energy": -0.00902,
				"method": "rhf"
			},
			{
				"type": "unocc",
				"energy": -0.00163,
				"method": "rhf"
			},
			{
				"type": "unocc",
				"energy": 0.00804,
				"method": "rhf"
			}
		],
		"cosmo_sigma_profile": { 
			"-0.025": 0.0,
			"-0.024": 0.0,
			"-0.023": 0.0,
			"-0.022": 0.0,
			"-0.021": 0.0,
			"-0.02": 0.0,
			"-0.019": 0.0,
			"-0.018": 0.0,
			"-0.017": 0.0,
			"-0.016": 0.0,
			"-0.015": 0.0,
			"-0.014": 0.263428018426,
			"-0.013": 0.851874984235,
			"-0.012": 1.23558812923,
			"-0.011": 1.25442071583,
			"-0.01": 0.795748183863,
			"-0.009": 1.07824498531,
			"-0.008": 2.91385133498,
			"-0.007": 9.26298632687,
			"-0.006": 22.6373407564,
			"-0.005": 25.1848905158,
			"-0.004": 24.5309304404,
			"-0.003": 21.2077491857,
			"-0.002": 17.931699711,
			"-0.001": 19.8043840019,
			"0.0": 23.2433776935,
			"0.001": 29.1209697988,
			"0.002": 33.3446663476,
			"0.003": 33.5969811639,
			"0.004": 32.1563025557,
			"0.005": 12.2619583971,
			"0.006": 4.82311700879,
			"0.007": 3.13533313305,
			"0.008": 4.07841979624,
			"0.009": 3.03135992544,
			"0.01": 2.41150866691,
			"0.011": 1.28805602433,
			"0.012": 2.59097227112,
			"0.013": 2.70596643505,
			"0.014": 1.38937935209,
			"0.015": 0.169561267645,
			"0.016": 0.0,
			"0.017": 0.0,
			"0.018": 0.0,
			"0.019": 0.0,
			"0.02": 0.0,
			"0.021": 0.0,
			"0.022": 0.0,
			"0.023": 0.0,
			"0.024": 0.0,
			"0.025": 0.0
		}
	}
}
