{
	 "smiles": "CC(C)C(NCC(F)(F)F)C(O)=O", 
	 "Tm": 402.15, 
	 "num_atms": 25, 
	 "gaussian": { 
		 "optdone": 1, 
		 "sigma_profile": "yes", 
		 "theory": "DFT", 
		 "functional": "B3LYP", 
		 "basiset": "6-31G**", 
		 "properties": { 
			 "R2extent": 3240.0605, 
			 "electric_dipole_moment_norm": 3.47430965949, 
			 "electric_quadrupole_moment_norm": 5.93452402809, 
			 "total_energy": -778.719717287, 
			 "HOMO_LUMO_gap": 0.23356, 
			 "cosmo_polarized_energy": -11.43, 
			 "cosmo_cavitation_energy": 29.23, 
			 "cosmo_dispersion_energy": -19.78, 
			 "cosmo_repulsion_energy": 1.53, 
			 "cosmo_total_nonelectrostatic_energy": 10.98, 
			 "SMD_solvation_energy": 5.81 
		},
		"coords": [
			{
				"x": -1.6764756496,
				"y": -1.6002785368,
				"z": -1.2858411896,
				"element": "C" 
			},
			{
				"x": -0.4247929894,
				"y": -1.8465502232,
				"z": -0.4326733853,
				"element": "C" 
			},
			{
				"x": 0.477834345,
				"y": -2.9251170696,
				"z": -1.0498306657,
				"element": "C" 
			},
			{
				"x": 0.3634768374,
				"y": -0.5298377152,
				"z": -0.1136181667,
				"element": "C" 
			},
			{
				"x": -0.3763494756,
				"y": 0.5063739411,
				"z": 0.5968905671,
				"element": "N" 
			},
			{
				"x": -0.9882213593,
				"y": 0.1266719134,
				"z": 1.8501733749,
				"element": "C" 
			},
			{
				"x": -1.4004095867,
				"y": 1.3655444565,
				"z": 2.6259897096,
				"element": "C" 
			},
			{
				"x": -2.0499964936,
				"y": 1.0123280904,
				"z": 3.7582149696,
				"element": "F" 
			},
			{
				"x": -0.3538228696,
				"y": 2.1307265249,
				"z": 2.976814375,
				"element": "F" 
			},
			{
				"x": -2.2430808702,
				"y": 2.1332365173,
				"z": 1.895247236,
				"element": "F" 
			},
			{
				"x": 0.87702675,
				"y": 0.1201916898,
				"z": -1.3920311998,
				"element": "C" 
			},
			{
				"x": 2.1143151575,
				"y": -0.3018342871,
				"z": -1.7314409212,
				"element": "O" 
			},
			{
				"x": 0.2458657596,
				"y": 0.9105691156,
				"z": -2.0607404942,
				"element": "O" 
			},
			{
				"x": -1.4173647049,
				"y": -1.2351302743,
				"z": -2.2845393715,
				"element": "H" 
			},
			{
				"x": -2.3427347883,
				"y": -0.8614814767,
				"z": -0.8289408733,
				"element": "H" 
			},
			{
				"x": -2.2443027424,
				"y": -2.5288153806,
				"z": -1.4028851401,
				"element": "H" 
			},
			{
				"x": -0.7530903503,
				"y": -2.223068565,
				"z": 0.5461250566,
				"element": "H" 
			},
			{
				"x": 0.8131182679,
				"y": -2.647503451,
				"z": -2.0541776957,
				"element": "H" 
			},
			{
				"x": 1.3714500949,
				"y": -3.0997458541,
				"z": -0.4411747839,
				"element": "H" 
			},
			{
				"x": -0.0638084668,
				"y": -3.8730224623,
				"z": -1.1307226446,
				"element": "H" 
			},
			{
				"x": 1.233453118,
				"y": -0.8091989124,
				"z": 0.4935758073,
				"element": "H" 
			},
			{
				"x": -1.0302374808,
				"y": 0.968996599,
				"z": -0.0269134172,
				"element": "H" 
			},
			{
				"x": -1.8862887695,
				"y": -0.5090318443,
				"z": 1.7750324217,
				"element": "H" 
			},
			{
				"x": -0.2599636426,
				"y": -0.4111569513,
				"z": 2.4667008322,
				"element": "H" 
			},
			{
				"x": 2.3339999092,
				"y": 0.1428341559,
				"z": -2.5686344012,
				"element": "H" 
			}
		],
		 "valence_orbital": [ 
			{
				"type": "occ",
				"energy": -0.34432,
				"method": "rhf"
			},
			{
				"type": "occ",
				"energy": -0.34408,
				"method": "rhf"
			},
			{
				"type": "occ",
				"energy": -0.32695,
				"method": "rhf"
			},
			{
				"type": "occ",
				"energy": -0.28561,
				"method": "rhf"
			},
			{
				"type": "occ",
				"energy": -0.23607,
				"method": "rhf"
			},
			{
				"type": "unocc",
				"energy": -0.00251,
				"method": "rhf"
			},
			{
				"type": "unocc",
				"energy": 0.06617,
				"method": "rhf"
			},
			{
				"type": "unocc",
				"energy": 0.07074,
				"method": "rhf"
			},
			{
				"type": "unocc",
				"energy": 0.1027,
				"method": "rhf"
			},
			{
				"type": "unocc",
				"energy": 0.10797,
				"method": "rhf"
			}
		],
		"cosmo_sigma_profile": { 
			"-0.025": 0.0,
			"-0.024": 0.0,
			"-0.023": 0.0,
			"-0.022": 0.0,
			"-0.021": 0.0,
			"-0.02": 0.0,
			"-0.019": 0.0509230862142,
			"-0.018": 1.02088070026,
			"-0.017": 0.750951318532,
			"-0.016": 1.01205132003,
			"-0.015": 0.906366479528,
			"-0.014": 0.241702507685,
			"-0.013": 0.658426117674,
			"-0.012": 0.893995797818,
			"-0.011": 1.13312186291,
			"-0.01": 0.582927867462,
			"-0.009": 0.425825356551,
			"-0.008": 1.33211307695,
			"-0.007": 6.60215710649,
			"-0.006": 8.26414424559,
			"-0.005": 12.2695064386,
			"-0.004": 13.4747253121,
			"-0.003": 17.6239032574,
			"-0.002": 18.3533031397,
			"-0.001": 17.1334139853,
			"0.0": 17.2733036126,
			"0.001": 19.9967359214,
			"0.002": 15.5391416019,
			"0.003": 32.5910046694,
			"0.004": 10.6798460269,
			"0.005": 4.26504509872,
			"0.006": 3.87623030267,
			"0.007": 4.30727048133,
			"0.008": 3.32012866938,
			"0.009": 3.7000168332,
			"0.01": 2.5984869523,
			"0.011": 4.53429574548,
			"0.012": 2.43708574534,
			"0.013": 0.150703789523,
			"0.014": 0.0,
			"0.015": 0.0,
			"0.016": 0.0,
			"0.017": 0.0,
			"0.018": 0.0,
			"0.019": 0.0,
			"0.02": 0.0,
			"0.021": 0.0,
			"0.022": 0.0,
			"0.023": 0.0,
			"0.024": 0.0,
			"0.025": 0.0
		}
	}
}
