{
	 "smiles": "CCS(=O)(=O)CCN1C(C)=NC=C1[N+]([O-])=O", 
	 "Tm": 401.15, 
	 "num_atms": 29, 
	 "gaussian": { 
		 "optdone": 1, 
		 "sigma_profile": "yes", 
		 "theory": "DFT", 
		 "functional": "B3LYP", 
		 "basiset": "6-31G**", 
		 "properties": { 
			 "R2extent": 5099.3673, 
			 "electric_dipole_moment_norm": 1.6798091975, 
			 "electric_quadrupole_moment_norm": 24.0993434072, 
			 "total_energy": -1175.86677309, 
			 "HOMO_LUMO_gap": 0.16756, 
			 "cosmo_polarized_energy": -22.24, 
			 "cosmo_cavitation_energy": 34.02, 
			 "cosmo_dispersion_energy": -23.98, 
			 "cosmo_repulsion_energy": 1.81, 
			 "cosmo_total_nonelectrostatic_energy": 11.85, 
			 "SMD_solvation_energy": 5.18 
		},
		"coords": [
			{
				"x": 0.8699028956,
				"y": 2.4539023025,
				"z": -1.1276360571,
				"element": "C" 
			},
			{
				"x": 1.4854243971,
				"y": 2.2120411115,
				"z": 0.2470470883,
				"element": "C" 
			},
			{
				"x": 2.6235497142,
				"y": 0.7917424996,
				"z": 0.3194141392,
				"element": "S" 
			},
			{
				"x": 3.1384753808,
				"y": 0.7077540586,
				"z": 1.6989777515,
				"element": "O" 
			},
			{
				"x": 3.5435572583,
				"y": 0.8779736449,
				"z": -0.8252482503,
				"element": "O" 
			},
			{
				"x": 1.5856708694,
				"y": -0.6833661465,
				"z": 0.0486377191,
				"element": "C" 
			},
			{
				"x": 0.7694171703,
				"y": -1.0553745996,
				"z": 1.2888091677,
				"element": "C" 
			},
			{
				"x": -0.0239396269,
				"y": -2.2691511628,
				"z": 1.0686482152,
				"element": "N" 
			},
			{
				"x": 0.2954661595,
				"y": -3.5261209359,
				"z": 1.5046363484,
				"element": "C" 
			},
			{
				"x": 1.5150520205,
				"y": -3.8465863534,
				"z": 2.3045253143,
				"element": "C" 
			},
			{
				"x": -0.6150564525,
				"y": -4.4294923987,
				"z": 1.1431510544,
				"element": "N" 
			},
			{
				"x": -1.5622707625,
				"y": -3.7519575596,
				"z": 0.4495263993,
				"element": "C" 
			},
			{
				"x": -1.2269894678,
				"y": -2.4140940186,
				"z": 0.3813832646,
				"element": "C" 
			},
			{
				"x": -1.9430169289,
				"y": -1.3685264643,
				"z": -0.2521814393,
				"element": "N" 
			},
			{
				"x": -1.4585550032,
				"y": -0.2215597227,
				"z": -0.2407839343,
				"element": "O" 
			},
			{
				"x": -3.0132099823,
				"y": -1.6660038987,
				"z": -0.7837846341,
				"element": "O" 
			},
			{
				"x": 0.3372868061,
				"y": 3.4094794785,
				"z": -1.1191695625,
				"element": "H" 
			},
			{
				"x": 1.6455810636,
				"y": 2.4986356472,
				"z": -1.8956360136,
				"element": "H" 
			},
			{
				"x": 0.1458990649,
				"y": 1.6783248951,
				"z": -1.3908888866,
				"element": "H" 
			},
			{
				"x": 2.1304583925,
				"y": 3.0387213858,
				"z": 0.562096063,
				"element": "H" 
			},
			{
				"x": 0.7367621722,
				"y": 2.0567942324,
				"z": 1.0290800792,
				"element": "H" 
			},
			{
				"x": 0.9453002487,
				"y": -0.4916672118,
				"z": -0.8134148438,
				"element": "H" 
			},
			{
				"x": 2.3078343644,
				"y": -1.4627418905,
				"z": -0.211528371,
				"element": "H" 
			},
			{
				"x": 0.0871669036,
				"y": -0.2511940327,
				"z": 1.5601096707,
				"element": "H" 
			},
			{
				"x": 1.438044474,
				"y": -1.2401665842,
				"z": 2.1292311192,
				"element": "H" 
			},
			{
				"x": 1.5081677087,
				"y": -3.3456499155,
				"z": 3.2791693126,
				"element": "H" 
			},
			{
				"x": 2.4375553528,
				"y": -3.5589577479,
				"z": 1.7891216923,
				"element": "H" 
			},
			{
				"x": 1.5301394276,
				"y": -4.923924627,
				"z": 2.471115148,
				"element": "H" 
			},
			{
				"x": -2.4358736206,
				"y": -4.2245339858,
				"z": 0.0253924455,
				"element": "H" 
			}
		],
		 "valence_orbital": [ 
			{
				"type": "occ",
				"energy": -0.3076,
				"method": "rhf"
			},
			{
				"type": "occ",
				"energy": -0.30433,
				"method": "rhf"
			},
			{
				"type": "occ",
				"energy": -0.29624,
				"method": "rhf"
			},
			{
				"type": "occ",
				"energy": -0.28972,
				"method": "rhf"
			},
			{
				"type": "occ",
				"energy": -0.26716,
				"method": "rhf"
			},
			{
				"type": "unocc",
				"energy": -0.0996,
				"method": "rhf"
			},
			{
				"type": "unocc",
				"energy": 0.00123,
				"method": "rhf"
			},
			{
				"type": "unocc",
				"energy": 0.04611,
				"method": "rhf"
			},
			{
				"type": "unocc",
				"energy": 0.05112,
				"method": "rhf"
			},
			{
				"type": "unocc",
				"energy": 0.05548,
				"method": "rhf"
			}
		],
		"cosmo_sigma_profile": { 
			"-0.025": 0.0,
			"-0.024": 0.0,
			"-0.023": 0.0,
			"-0.022": 0.0,
			"-0.021": 0.0,
			"-0.02": 0.0,
			"-0.019": 0.0,
			"-0.018": 0.0,
			"-0.017": 0.0,
			"-0.016": 0.0,
			"-0.015": 0.0,
			"-0.014": 0.0,
			"-0.013": 0.0,
			"-0.012": 0.0,
			"-0.011": 0.129106957071,
			"-0.01": 1.11776561215,
			"-0.009": 7.11344513901,
			"-0.008": 13.388671756,
			"-0.007": 16.8634210814,
			"-0.006": 19.0900383749,
			"-0.005": 20.4665874935,
			"-0.004": 21.7757749495,
			"-0.003": 18.9385735639,
			"-0.002": 21.268065198,
			"-0.001": 17.8418012189,
			"0.0": 11.9156414038,
			"0.001": 8.07792543365,
			"0.002": 7.07453650919,
			"0.003": 7.8982212152,
			"0.004": 4.91222259165,
			"0.005": 5.25454602829,
			"0.006": 6.90110285231,
			"0.007": 7.69357465449,
			"0.008": 11.6092006809,
			"0.009": 6.8805965405,
			"0.01": 7.78559273694,
			"0.011": 10.314586357,
			"0.012": 10.3578025986,
			"0.013": 2.50347498464,
			"0.014": 0.662668882458,
			"0.015": 0.969800068704,
			"0.016": 0.569009987235,
			"0.017": 0.0,
			"0.018": 0.0,
			"0.019": 0.0,
			"0.02": 0.0,
			"0.021": 0.0,
			"0.022": 0.0,
			"0.023": 0.0,
			"0.024": 0.0,
			"0.025": 0.0
		}
	}
}
