{
	 "smiles": "NC(=O)C1=C(I)C=CC=C1", 
	 "Tm": 457.15, 
	 "num_atms": 16, 
	 "gaussian": { 
		 "optdone": 1, 
		 "sigma_profile": "yes", 
		 "theory": "DFT", 
		 "functional": "B3LYP", 
		 "basiset": "6-31G**", 
		 "properties": { 
			 "R2extent": 1726.6928, 
			 "electric_dipole_moment_norm": 4.52933117579, 
			 "electric_quadrupole_moment_norm": 15.5009923989, 
			 "total_energy": -411.731346494, 
			 "HOMO_LUMO_gap": 0.20066, 
			 "cosmo_polarized_energy": -14.59, 
			 "cosmo_cavitation_energy": 23.42, 
			 "cosmo_dispersion_energy": -18.57, 
			 "cosmo_repulsion_energy": 1.49, 
			 "cosmo_total_nonelectrostatic_energy": 6.34, 
			 "SMD_solvation_energy": 4.0 
		},
		"coords": [
			{
				"x": 0.0946496143,
				"y": -0.3923636147,
				"z": -2.0541633645,
				"element": "N" 
			},
			{
				"x": 0.1182366897,
				"y": -1.3448679799,
				"z": -1.0647219523,
				"element": "C" 
			},
			{
				"x": 0.1976082469,
				"y": -2.5386685304,
				"z": -1.303537993,
				"element": "O" 
			},
			{
				"x": 0.1138390829,
				"y": -0.7836754529,
				"z": 0.3377208282,
				"element": "C" 
			},
			{
				"x": -0.684211571,
				"y": -1.299093996,
				"z": 1.3716162922,
				"element": "C" 
			},
			{
				"x": -2.1149527202,
				"y": -2.837521495,
				"z": 1.0572228201,
				"element": "I" 
			},
			{
				"x": -0.6016811104,
				"y": -0.7710343999,
				"z": 2.6627119149,
				"element": "C" 
			},
			{
				"x": 0.2911509133,
				"y": 0.2646008583,
				"z": 2.9416283734,
				"element": "C" 
			},
			{
				"x": 1.094715562,
				"y": 0.785908662,
				"z": 1.928793818,
				"element": "C" 
			},
			{
				"x": 0.9968161244,
				"y": 0.2667363543,
				"z": 0.6400004519,
				"element": "C" 
			},
			{
				"x": 0.0165834103,
				"y": -0.7352295686,
				"z": -3.001150992,
				"element": "H" 
			},
			{
				"x": -0.2426519827,
				"y": 0.5380323837,
				"z": -1.8616429283,
				"element": "H" 
			},
			{
				"x": -1.2343351893,
				"y": -1.1680222066,
				"z": 3.4485190099,
				"element": "H" 
			},
			{
				"x": 0.3522297375,
				"y": 0.659009064,
				"z": 3.9516466526,
				"element": "H" 
			},
			{
				"x": 1.794963447,
				"y": 1.5884333707,
				"z": 2.1391852255,
				"element": "H" 
			},
			{
				"x": 1.6295397452,
				"y": 0.6559565512,
				"z": -0.1520281567,
				"element": "H" 
			}
		],
		 "valence_orbital": [ 
			{
				"type": "occ",
				"energy": -0.28279,
				"method": "rhf"
			},
			{
				"type": "occ",
				"energy": -0.27344,
				"method": "rhf"
			},
			{
				"type": "occ",
				"energy": -0.25866,
				"method": "rhf"
			},
			{
				"type": "occ",
				"energy": -0.24783,
				"method": "rhf"
			},
			{
				"type": "occ",
				"energy": -0.23924,
				"method": "rhf"
			},
			{
				"type": "unocc",
				"energy": -0.03858,
				"method": "rhf"
			},
			{
				"type": "unocc",
				"energy": -0.03543,
				"method": "rhf"
			},
			{
				"type": "unocc",
				"energy": -0.02358,
				"method": "rhf"
			},
			{
				"type": "unocc",
				"energy": 0.03602,
				"method": "rhf"
			},
			{
				"type": "unocc",
				"energy": 0.04784,
				"method": "rhf"
			}
		],
		"cosmo_sigma_profile": { 
			"-0.025": 0.0,
			"-0.024": 0.0,
			"-0.023": 0.0,
			"-0.022": 0.0,
			"-0.021": 0.0,
			"-0.02": 0.0,
			"-0.019": 0.0,
			"-0.018": 0.0,
			"-0.017": 0.0,
			"-0.016": 0.0,
			"-0.015": 0.170502687376,
			"-0.014": 1.72389433292,
			"-0.013": 2.19488675133,
			"-0.012": 2.67452124045,
			"-0.011": 2.32345399782,
			"-0.01": 2.26448488796,
			"-0.009": 1.67633927048,
			"-0.008": 2.57019475983,
			"-0.007": 7.62664401842,
			"-0.006": 12.7657864342,
			"-0.005": 11.1369182064,
			"-0.004": 9.6384428646,
			"-0.003": 9.54069980206,
			"-0.002": 10.5263960184,
			"-0.001": 9.17909617703,
			"0.0": 11.1080796719,
			"0.001": 12.8734493137,
			"0.002": 15.9517347699,
			"0.003": 19.9517904291,
			"0.004": 15.3441282516,
			"0.005": 7.53541175264,
			"0.006": 2.34041862087,
			"0.007": 2.17202677749,
			"0.008": 2.16271621823,
			"0.009": 1.09807721864,
			"0.01": 2.11740240629,
			"0.011": 2.26075330876,
			"0.012": 2.39375166975,
			"0.013": 4.35629166386,
			"0.014": 4.07316554648,
			"0.015": 0.311988709476,
			"0.016": 0.0,
			"0.017": 0.0,
			"0.018": 0.0,
			"0.019": 0.0,
			"0.02": 0.0,
			"0.021": 0.0,
			"0.022": 0.0,
			"0.023": 0.0,
			"0.024": 0.0,
			"0.025": 0.0
		}
	}
}
