{
	 "smiles": "NC1=C(C(O)=O)C(=CC=C1)[N+]([O-])=O", 
	 "Tm": 417.15, 
	 "num_atms": 19, 
	 "gaussian": { 
		 "optdone": 1, 
		 "sigma_profile": "yes", 
		 "theory": "DFT", 
		 "functional": "B3LYP", 
		 "basiset": "6-31G**", 
		 "properties": { 
			 "R2extent": 2319.8122, 
			 "electric_dipole_moment_norm": 5.67748627211, 
			 "electric_quadrupole_moment_norm": 9.37417728603, 
			 "total_energy": -680.667737394, 
			 "HOMO_LUMO_gap": 0.12108, 
			 "cosmo_polarized_energy": -14.11, 
			 "cosmo_cavitation_energy": 23.67, 
			 "cosmo_dispersion_energy": -18.05, 
			 "cosmo_repulsion_energy": 1.41, 
			 "cosmo_total_nonelectrostatic_energy": 7.02, 
			 "SMD_solvation_energy": 7.13 
		},
		"coords": [
			{
				"x": -3.3395878048,
				"y": -0.0880512982,
				"z": -0.0783455138,
				"element": "N" 
			},
			{
				"x": -2.0604165606,
				"y": 0.3435525039,
				"z": -0.2607703364,
				"element": "C" 
			},
			{
				"x": -0.9447153878,
				"y": -0.5602914749,
				"z": -0.2910524886,
				"element": "C" 
			},
			{
				"x": -1.2476867331,
				"y": -2.0236711324,
				"z": -0.0472976534,
				"element": "C" 
			},
			{
				"x": -0.4464749286,
				"y": -2.9606477696,
				"z": -0.5411349158,
				"element": "O" 
			},
			{
				"x": -2.2449463461,
				"y": -2.3654816244,
				"z": 0.5720188319,
				"element": "O" 
			},
			{
				"x": 0.332011143,
				"y": 0.0426397068,
				"z": -0.4467899589,
				"element": "C" 
			},
			{
				"x": 0.5325526815,
				"y": 1.4111678941,
				"z": -0.5826782363,
				"element": "C" 
			},
			{
				"x": -0.5807697995,
				"y": 2.2526255442,
				"z": -0.6216981701,
				"element": "C" 
			},
			{
				"x": -1.8466265684,
				"y": 1.7292234651,
				"z": -0.4700358388,
				"element": "C" 
			},
			{
				"x": 1.6089572883,
				"y": -0.7054589046,
				"z": -0.4953086923,
				"element": "N" 
			},
			{
				"x": 1.693966573,
				"y": -1.7168068827,
				"z": -1.2148424595,
				"element": "O" 
			},
			{
				"x": 2.5582840899,
				"y": -0.2414939427,
				"z": 0.1163051476,
				"element": "O" 
			},
			{
				"x": -4.0504643674,
				"y": 0.6061800465,
				"z": 0.0864125158,
				"element": "H" 
			},
			{
				"x": -3.4513443466,
				"y": -1.0120446748,
				"z": 0.3246188102,
				"element": "H" 
			},
			{
				"x": 0.3158114581,
				"y": -2.5691449115,
				"z": -1.0251606809,
				"element": "H" 
			},
			{
				"x": 1.5391548444,
				"y": 1.7968029965,
				"z": -0.670405891,
				"element": "H" 
			},
			{
				"x": -0.4452348295,
				"y": 3.3205801835,
				"z": -0.7592834078,
				"element": "H" 
			},
			{
				"x": -2.7131704058,
				"y": 2.384520275,
				"z": -0.4821510619,
				"element": "H" 
			}
		],
		 "valence_orbital": [ 
			{
				"type": "occ",
				"energy": -0.32173,
				"method": "rhf"
			},
			{
				"type": "occ",
				"energy": -0.31242,
				"method": "rhf"
			},
			{
				"type": "occ",
				"energy": -0.29125,
				"method": "rhf"
			},
			{
				"type": "occ",
				"energy": -0.27995,
				"method": "rhf"
			},
			{
				"type": "occ",
				"energy": -0.23173,
				"method": "rhf"
			},
			{
				"type": "unocc",
				"energy": -0.11065,
				"method": "rhf"
			},
			{
				"type": "unocc",
				"energy": -0.05427,
				"method": "rhf"
			},
			{
				"type": "unocc",
				"energy": -0.01759,
				"method": "rhf"
			},
			{
				"type": "unocc",
				"energy": 0.03146,
				"method": "rhf"
			},
			{
				"type": "unocc",
				"energy": 0.06826,
				"method": "rhf"
			}
		],
		"cosmo_sigma_profile": { 
			"-0.025": 0.0,
			"-0.024": 0.0,
			"-0.023": 0.0,
			"-0.022": 0.0,
			"-0.021": 0.0,
			"-0.02": 0.0,
			"-0.019": 0.0,
			"-0.018": 0.0,
			"-0.017": 0.0,
			"-0.016": 0.0,
			"-0.015": 0.000551460948175,
			"-0.014": 1.10346191058,
			"-0.013": 1.72569296504,
			"-0.012": 2.11921621902,
			"-0.011": 1.98541590979,
			"-0.01": 2.08675725365,
			"-0.009": 3.5340814582,
			"-0.008": 8.62717358085,
			"-0.007": 9.96185851775,
			"-0.006": 10.034882285,
			"-0.005": 8.67750571367,
			"-0.004": 8.0930807753,
			"-0.003": 8.06359649363,
			"-0.002": 9.94884793155,
			"-0.001": 9.73427644571,
			"0.0": 14.3226487108,
			"0.001": 15.2140402461,
			"0.002": 14.6471662321,
			"0.003": 7.27253349327,
			"0.004": 6.57333138549,
			"0.005": 6.9475823702,
			"0.006": 9.00901199423,
			"0.007": 8.18666091099,
			"0.008": 6.24934995308,
			"0.009": 4.16462412568,
			"0.01": 3.69831358872,
			"0.011": 4.13581739286,
			"0.012": 2.50090030059,
			"0.013": 1.57963898545,
			"0.014": 0.120663293719,
			"0.015": 0.0,
			"0.016": 0.0,
			"0.017": 0.0,
			"0.018": 0.0,
			"0.019": 0.0,
			"0.02": 0.0,
			"0.021": 0.0,
			"0.022": 0.0,
			"0.023": 0.0,
			"0.024": 0.0,
			"0.025": 0.0
		}
	}
}
