{
	 "smiles": "COC(=O)C1=C(Cl)C=CS1", 
	 "Tm": 312.65, 
	 "num_atms": 15, 
	 "gaussian": { 
		 "optdone": 1, 
		 "sigma_profile": "yes", 
		 "theory": "DFT", 
		 "functional": "B3LYP", 
		 "basiset": "6-31G**", 
		 "properties": { 
			 "R2extent": 2760.7851, 
			 "electric_dipole_moment_norm": 2.87280508563, 
			 "electric_quadrupole_moment_norm": 12.8753042826, 
			 "total_energy": -1240.46578214, 
			 "HOMO_LUMO_gap": 0.1893, 
			 "cosmo_polarized_energy": -8.65, 
			 "cosmo_cavitation_energy": 23.11, 
			 "cosmo_dispersion_energy": -17.77, 
			 "cosmo_repulsion_energy": 1.4, 
			 "cosmo_total_nonelectrostatic_energy": 6.74, 
			 "SMD_solvation_energy": 5.43 
		},
		"coords": [
			{
				"x": 1.8076733984,
				"y": -0.838769331,
				"z": 3.8322641323,
				"element": "C" 
			},
			{
				"x": 1.5474401473,
				"y": -0.5303770103,
				"z": 2.4541031632,
				"element": "O" 
			},
			{
				"x": 0.9453679411,
				"y": 0.6657985754,
				"z": 2.2335363843,
				"element": "C" 
			},
			{
				"x": 0.638600973,
				"y": 1.4374345339,
				"z": 3.1174353737,
				"element": "O" 
			},
			{
				"x": 0.7272201706,
				"y": 0.8781503066,
				"z": 0.7931406172,
				"element": "C" 
			},
			{
				"x": 0.1492619787,
				"y": 1.9574147284,
				"z": 0.1532766357,
				"element": "C" 
			},
			{
				"x": -0.4781219133,
				"y": 3.3698765082,
				"z": 0.9407765355,
				"element": "Cl" 
			},
			{
				"x": 0.1001047427,
				"y": 1.8275734639,
				"z": -1.2639412595,
				"element": "C" 
			},
			{
				"x": 0.6435454868,
				"y": 0.6459480722,
				"z": -1.6877117596,
				"element": "C" 
			},
			{
				"x": 1.2199172633,
				"y": -0.3210817136,
				"z": -0.3798801123,
				"element": "S" 
			},
			{
				"x": 0.8755878277,
				"y": -0.8682341223,
				"z": 4.4021735224,
				"element": "H" 
			},
			{
				"x": 2.2858092925,
				"y": -1.8178655618,
				"z": 3.8278019119,
				"element": "H" 
			},
			{
				"x": 2.4686118987,
				"y": -0.0897143141,
				"z": 4.2755808955,
				"element": "H" 
			},
			{
				"x": -0.320784187,
				"y": 2.583424832,
				"z": -1.9146395842,
				"element": "H" 
			},
			{
				"x": 0.7361649796,
				"y": 0.2907210323,
				"z": -2.7051164561,
				"element": "H" 
			}
		],
		 "valence_orbital": [ 
			{
				"type": "occ",
				"energy": -0.31664,
				"method": "rhf"
			},
			{
				"type": "occ",
				"energy": -0.30569,
				"method": "rhf"
			},
			{
				"type": "occ",
				"energy": -0.27549,
				"method": "rhf"
			},
			{
				"type": "occ",
				"energy": -0.26346,
				"method": "rhf"
			},
			{
				"type": "occ",
				"energy": -0.24996,
				"method": "rhf"
			},
			{
				"type": "unocc",
				"energy": -0.06066,
				"method": "rhf"
			},
			{
				"type": "unocc",
				"energy": 0.00456,
				"method": "rhf"
			},
			{
				"type": "unocc",
				"energy": 0.02151,
				"method": "rhf"
			},
			{
				"type": "unocc",
				"energy": 0.04585,
				"method": "rhf"
			},
			{
				"type": "unocc",
				"energy": 0.08651,
				"method": "rhf"
			}
		],
		"cosmo_sigma_profile": { 
			"-0.025": 0.0,
			"-0.024": 0.0,
			"-0.023": 0.0,
			"-0.022": 0.0,
			"-0.021": 0.0,
			"-0.02": 0.0,
			"-0.019": 0.0,
			"-0.018": 0.0,
			"-0.017": 0.0,
			"-0.016": 0.0,
			"-0.015": 0.0,
			"-0.014": 0.0,
			"-0.013": 0.0,
			"-0.012": 0.0,
			"-0.011": 0.0162574505733,
			"-0.01": 1.79214487709,
			"-0.009": 3.1032612389,
			"-0.008": 3.55316565386,
			"-0.007": 4.34959666228,
			"-0.006": 10.004181623,
			"-0.005": 10.1292939273,
			"-0.004": 12.0908110475,
			"-0.003": 14.9004220249,
			"-0.002": 10.741743086,
			"-0.001": 12.1302113692,
			"0.0": 18.3555496461,
			"0.001": 22.1727794681,
			"0.002": 18.7656043512,
			"0.003": 14.4561353133,
			"0.004": 8.65970002735,
			"0.005": 6.04143882332,
			"0.006": 3.35416961016,
			"0.007": 0.770433197513,
			"0.008": 2.22323767207,
			"0.009": 2.22793579148,
			"0.01": 2.02598069924,
			"0.011": 4.34150036119,
			"0.012": 3.65627257229,
			"0.013": 0.0648617250763,
			"0.014": 0.0,
			"0.015": 0.0,
			"0.016": 0.0,
			"0.017": 0.0,
			"0.018": 0.0,
			"0.019": 0.0,
			"0.02": 0.0,
			"0.021": 0.0,
			"0.022": 0.0,
			"0.023": 0.0,
			"0.024": 0.0,
			"0.025": 0.0
		}
	}
}
