{
	 "smiles": "ON1N=NC2=CC=C(Cl)C=C12", 
	 "Tm": 470.15, 
	 "num_atms": 15, 
	 "gaussian": { 
		 "optdone": 1, 
		 "sigma_profile": "yes", 
		 "theory": "DFT", 
		 "functional": "B3LYP", 
		 "basiset": "6-31G**", 
		 "properties": { 
			 "R2extent": 2589.8668, 
			 "electric_dipole_moment_norm": 1.30758982101, 
			 "electric_quadrupole_moment_norm": 16.5075831444, 
			 "total_energy": -930.612953938, 
			 "HOMO_LUMO_gap": 0.18415, 
			 "cosmo_polarized_energy": -10.68, 
			 "cosmo_cavitation_energy": 21.98, 
			 "cosmo_dispersion_energy": -16.77, 
			 "cosmo_repulsion_energy": 1.34, 
			 "cosmo_total_nonelectrostatic_energy": 6.55, 
			 "SMD_solvation_energy": 2.89 
		},
		"coords": [
			{
				"x": -0.9264550223,
				"y": 3.4689347856,
				"z": -0.3030062243,
				"element": "O" 
			},
			{
				"x": -0.9047379922,
				"y": 2.137139535,
				"z": 0.028266117,
				"element": "N" 
			},
			{
				"x": -1.3182570361,
				"y": 1.7187539766,
				"z": 1.2361102036,
				"element": "N" 
			},
			{
				"x": -1.1919756311,
				"y": 0.4212550077,
				"z": 1.2826544657,
				"element": "N" 
			},
			{
				"x": -0.6859004116,
				"y": 0.0005495635,
				"z": 0.0764996654,
				"element": "C" 
			},
			{
				"x": -0.3644619145,
				"y": -1.2867614986,
				"z": -0.3924470141,
				"element": "C" 
			},
			{
				"x": 0.1366600475,
				"y": -1.4009351246,
				"z": -1.6752330843,
				"element": "C" 
			},
			{
				"x": 0.3192039089,
				"y": -0.2513052827,
				"z": -2.4897017812,
				"element": "C" 
			},
			{
				"x": 0.9610100857,
				"y": -0.4835362928,
				"z": -4.1075382427,
				"element": "Cl" 
			},
			{
				"x": 0.0171533972,
				"y": 1.0317340496,
				"z": -2.0704386686,
				"element": "C" 
			},
			{
				"x": -0.4896839394,
				"y": 1.120166208,
				"z": -0.7651363735,
				"element": "C" 
			},
			{
				"x": -1.2801430791,
				"y": 3.8863485905,
				"z": 0.5030979352,
				"element": "H" 
			},
			{
				"x": -0.5086395502,
				"y": -2.1562178229,
				"z": 0.2395905689,
				"element": "H" 
			},
			{
				"x": 0.3988583734,
				"y": -2.3710147572,
				"z": -2.0810864556,
				"element": "H" 
			},
			{
				"x": 0.1621687639,
				"y": 1.8974890623,
				"z": -2.7037311114,
				"element": "H" 
			}
		],
		 "valence_orbital": [ 
			{
				"type": "occ",
				"energy": -0.3236,
				"method": "rhf"
			},
			{
				"type": "occ",
				"energy": -0.31104,
				"method": "rhf"
			},
			{
				"type": "occ",
				"energy": -0.28755,
				"method": "rhf"
			},
			{
				"type": "occ",
				"energy": -0.25861,
				"method": "rhf"
			},
			{
				"type": "occ",
				"energy": -0.24335,
				"method": "rhf"
			},
			{
				"type": "unocc",
				"energy": -0.0592,
				"method": "rhf"
			},
			{
				"type": "unocc",
				"energy": -0.00544,
				"method": "rhf"
			},
			{
				"type": "unocc",
				"energy": 0.01854,
				"method": "rhf"
			},
			{
				"type": "unocc",
				"energy": 0.02164,
				"method": "rhf"
			},
			{
				"type": "unocc",
				"energy": 0.04101,
				"method": "rhf"
			}
		],
		"cosmo_sigma_profile": { 
			"-0.025": 0.0,
			"-0.024": 0.0,
			"-0.023": 0.0,
			"-0.022": 0.0,
			"-0.021": 0.0,
			"-0.02": 0.428043911653,
			"-0.019": 1.26289873873,
			"-0.018": 0.721005114456,
			"-0.017": 0.676265326665,
			"-0.016": 0.748394560817,
			"-0.015": 0.828691975033,
			"-0.014": 0.990322111977,
			"-0.013": 0.50010365169,
			"-0.012": 0.309734871399,
			"-0.011": 0.972125025977,
			"-0.01": 0.959959392146,
			"-0.009": 1.75120201249,
			"-0.008": 5.15848903386,
			"-0.007": 6.0090380951,
			"-0.006": 5.76066611006,
			"-0.005": 6.05594165076,
			"-0.004": 5.65036371887,
			"-0.003": 10.4992689827,
			"-0.002": 13.0402745608,
			"-0.001": 11.9921218593,
			"0.0": 17.0578978934,
			"0.001": 19.8882081945,
			"0.002": 16.157096963,
			"0.003": 10.3606526645,
			"0.004": 12.8505220468,
			"0.005": 5.09726509164,
			"0.006": 3.77178022412,
			"0.007": 4.60500199869,
			"0.008": 2.93993128213,
			"0.009": 4.15497782196,
			"0.01": 2.72226252933,
			"0.011": 1.74995253358,
			"0.012": 0.943620590966,
			"0.013": 1.51795614168,
			"0.014": 1.08294879679,
			"0.015": 0.55356978268,
			"0.016": 0.00317744380556,
			"0.017": 0.0,
			"0.018": 0.0,
			"0.019": 0.0,
			"0.02": 0.0,
			"0.021": 0.0,
			"0.022": 0.0,
			"0.023": 0.0,
			"0.024": 0.0,
			"0.025": 0.0
		}
	}
}
