{
	 "smiles": "OC(=O)C1=CN(CC2=CC=CC=C2)N=C1C1=CC=CS1", 
	 "Tm": 405.15, 
	 "num_atms": 32, 
	 "gaussian": { 
		 "optdone": 1, 
		 "sigma_profile": "yes", 
		 "theory": "DFT", 
		 "functional": "B3LYP", 
		 "basiset": "6-31G**", 
		 "properties": { 
			 "R2extent": 7551.0561, 
			 "electric_dipole_moment_norm": 5.28343287645, 
			 "electric_quadrupole_moment_norm": 20.552249842, 
			 "total_energy": -1236.94598262, 
			 "HOMO_LUMO_gap": 0.17339, 
			 "cosmo_polarized_energy": -20.67, 
			 "cosmo_cavitation_energy": 38.69, 
			 "cosmo_dispersion_energy": -27.87, 
			 "cosmo_repulsion_energy": 2.09, 
			 "cosmo_total_nonelectrostatic_energy": 12.91, 
			 "SMD_solvation_energy": 6.76 
		},
		"coords": [
			{
				"x": -2.682153325,
				"y": -3.2027993968,
				"z": 1.3105033943,
				"element": "O" 
			},
			{
				"x": -2.6959082513,
				"y": -1.8442443442,
				"z": 1.4631087213,
				"element": "C" 
			},
			{
				"x": -3.3052434461,
				"y": -1.3642306797,
				"z": 2.3920056992,
				"element": "O" 
			},
			{
				"x": -1.9091564172,
				"y": -1.0949959439,
				"z": 0.4633567199,
				"element": "C" 
			},
			{
				"x": -0.8222433437,
				"y": -1.608798435,
				"z": -0.2393234615,
				"element": "C" 
			},
			{
				"x": -0.3680539722,
				"y": -0.6329282597,
				"z": -1.0491476957,
				"element": "N" 
			},
			{
				"x": 0.8228964782,
				"y": -0.6441415192,
				"z": -1.899497329,
				"element": "C" 
			},
			{
				"x": 2.1052881993,
				"y": -0.3302931146,
				"z": -1.1513208951,
				"element": "C" 
			},
			{
				"x": 3.1758931186,
				"y": -1.2293477288,
				"z": -1.1799202012,
				"element": "C" 
			},
			{
				"x": 4.3659036927,
				"y": -0.9365905194,
				"z": -0.5093577399,
				"element": "C" 
			},
			{
				"x": 4.489235755,
				"y": 0.2572363747,
				"z": 0.2008989195,
				"element": "C" 
			},
			{
				"x": 3.421149483,
				"y": 1.1584610859,
				"z": 0.2357507728,
				"element": "C" 
			},
			{
				"x": 2.2361490218,
				"y": 0.8697110577,
				"z": -0.4387091436,
				"element": "C" 
			},
			{
				"x": -1.0801138517,
				"y": 0.5080054039,
				"z": -0.9203215072,
				"element": "N" 
			},
			{
				"x": -2.022591717,
				"y": 0.2607242158,
				"z": -0.001104351,
				"element": "C" 
			},
			{
				"x": -2.9801304996,
				"y": 1.3137209486,
				"z": 0.3105387993,
				"element": "C" 
			},
			{
				"x": -3.8813345034,
				"y": 1.4263805523,
				"z": 1.3456598546,
				"element": "C" 
			},
			{
				"x": -4.6349494452,
				"y": 2.6342149141,
				"z": 1.299391853,
				"element": "C" 
			},
			{
				"x": -4.3023452019,
				"y": 3.4300029189,
				"z": 0.2369398123,
				"element": "C" 
			},
			{
				"x": -3.0565866518,
				"y": 2.7232012358,
				"z": -0.7355964056,
				"element": "S" 
			},
			{
				"x": -2.3521489379,
				"y": -3.4291811558,
				"z": 0.4302902362,
				"element": "H" 
			},
			{
				"x": -0.3245146951,
				"y": -2.5667645771,
				"z": -0.1767691854,
				"element": "H" 
			},
			{
				"x": 0.6275184964,
				"y": 0.0949634265,
				"z": -2.6806753253,
				"element": "H" 
			},
			{
				"x": 0.8886803356,
				"y": -1.6273694741,
				"z": -2.3740472872,
				"element": "H" 
			},
			{
				"x": 3.0827005856,
				"y": -2.1621426481,
				"z": -1.7315966961,
				"element": "H" 
			},
			{
				"x": 5.1908543664,
				"y": -1.6424513246,
				"z": -0.5396311779,
				"element": "H" 
			},
			{
				"x": 5.4120760408,
				"y": 0.4860156316,
				"z": 0.7259002131,
				"element": "H" 
			},
			{
				"x": 3.5128929097,
				"y": 2.0892725621,
				"z": 0.787829118,
				"element": "H" 
			},
			{
				"x": 1.4037105083,
				"y": 1.566981703,
				"z": -0.4101638584,
				"element": "H" 
			},
			{
				"x": -3.9789669372,
				"y": 0.6666940867,
				"z": 2.1092371838,
				"element": "H" 
			},
			{
				"x": -5.3899563549,
				"y": 2.8974376597,
				"z": 2.0314436177,
				"element": "H" 
			},
			{
				"x": -4.7134514402,
				"y": 4.3935553438,
				"z": -0.0320726547,
				"element": "H" 
			}
		],
		 "valence_orbital": [ 
			{
				"type": "occ",
				"energy": -0.26747,
				"method": "rhf"
			},
			{
				"type": "occ",
				"energy": -0.26257,
				"method": "rhf"
			},
			{
				"type": "occ",
				"energy": -0.25893,
				"method": "rhf"
			},
			{
				"type": "occ",
				"energy": -0.24211,
				"method": "rhf"
			},
			{
				"type": "occ",
				"energy": -0.21158,
				"method": "rhf"
			},
			{
				"type": "unocc",
				"energy": -0.03819,
				"method": "rhf"
			},
			{
				"type": "unocc",
				"energy": -0.0283,
				"method": "rhf"
			},
			{
				"type": "unocc",
				"energy": -0.01755,
				"method": "rhf"
			},
			{
				"type": "unocc",
				"energy": -0.01224,
				"method": "rhf"
			},
			{
				"type": "unocc",
				"energy": 0.03069,
				"method": "rhf"
			}
		],
		"cosmo_sigma_profile": { 
			"-0.025": 0.0,
			"-0.024": 0.0,
			"-0.023": 0.0,
			"-0.022": 0.0,
			"-0.021": 0.0,
			"-0.02": 0.0,
			"-0.019": 0.245569277951,
			"-0.018": 0.861943556909,
			"-0.017": 0.970437549154,
			"-0.016": 1.62721689856,
			"-0.015": 0.891509096744,
			"-0.014": 0.990857685175,
			"-0.013": 1.11490478474,
			"-0.012": 1.96370002588,
			"-0.011": 2.10068450083,
			"-0.01": 2.84218610327,
			"-0.009": 2.85936284315,
			"-0.008": 7.25397647783,
			"-0.007": 8.87421382944,
			"-0.006": 14.6641394694,
			"-0.005": 18.4016537734,
			"-0.004": 21.0277032581,
			"-0.003": 18.7239498706,
			"-0.002": 17.5842404615,
			"-0.001": 14.7675971979,
			"0.0": 18.2048877863,
			"0.001": 20.2829293229,
			"0.002": 22.2987030904,
			"0.003": 24.4226668046,
			"0.004": 30.1156661489,
			"0.005": 24.3754193931,
			"0.006": 8.5030354343,
			"0.007": 4.37077584775,
			"0.008": 3.96747720731,
			"0.009": 4.3056565011,
			"0.01": 5.30810332369,
			"0.011": 5.30865115117,
			"0.012": 2.53495148474,
			"0.013": 1.45622252487,
			"0.014": 0.0306728312358,
			"0.015": 0.0,
			"0.016": 0.0,
			"0.017": 0.0,
			"0.018": 0.0,
			"0.019": 0.0,
			"0.02": 0.0,
			"0.021": 0.0,
			"0.022": 0.0,
			"0.023": 0.0,
			"0.024": 0.0,
			"0.025": 0.0
		}
	}
}
