{
	 "smiles": "NC1(CCSC1)C#N", 
	 "Tm": 328.15, 
	 "num_atms": 16, 
	 "gaussian": { 
		 "optdone": 1, 
		 "sigma_profile": "yes", 
		 "theory": "DFT", 
		 "functional": "B3LYP", 
		 "basiset": "6-31G**", 
		 "properties": { 
			 "R2extent": 1351.1991, 
			 "electric_dipole_moment_norm": 3.75162488663, 
			 "electric_quadrupole_moment_norm": 18.2206397316, 
			 "total_energy": -703.018768378, 
			 "HOMO_LUMO_gap": 0.23733, 
			 "cosmo_polarized_energy": -13.12, 
			 "cosmo_cavitation_energy": 20.61, 
			 "cosmo_dispersion_energy": -15.39, 
			 "cosmo_repulsion_energy": 1.23, 
			 "cosmo_total_nonelectrostatic_energy": 6.46, 
			 "SMD_solvation_energy": 3.32 
		},
		"coords": [
			{
				"x": -0.395629328,
				"y": -2.3685936568,
				"z": 0.331069605,
				"element": "N" 
			},
			{
				"x": -0.4125117734,
				"y": -0.9303867475,
				"z": 0.6062299898,
				"element": "C" 
			},
			{
				"x": 0.1915058259,
				"y": -0.5090563762,
				"z": 1.9770447296,
				"element": "C" 
			},
			{
				"x": 1.7025534478,
				"y": -0.7540565997,
				"z": 1.8991701982,
				"element": "C" 
			},
			{
				"x": 2.2087885605,
				"y": -0.4120814526,
				"z": 0.1451211555,
				"element": "S" 
			},
			{
				"x": 0.4697388634,
				"y": -0.2084609866,
				"z": -0.44015918,
				"element": "C" 
			},
			{
				"x": -1.8106641015,
				"y": -0.4586211244,
				"z": 0.5062907645,
				"element": "C" 
			},
			{
				"x": -2.9041085586,
				"y": -0.0729704262,
				"z": 0.4557687928,
				"element": "N" 
			},
			{
				"x": 0.5654746002,
				"y": -2.6797414666,
				"z": 0.2135841823,
				"element": "H" 
			},
			{
				"x": -0.8088657212,
				"y": -2.8891727272,
				"z": 1.1001104976,
				"element": "H" 
			},
			{
				"x": -0.2687430593,
				"y": -1.0726994257,
				"z": 2.7955447703,
				"element": "H" 
			},
			{
				"x": -0.0115233195,
				"y": 0.5531632942,
				"z": 2.1491922518,
				"element": "H" 
			},
			{
				"x": 2.2562447905,
				"y": -0.0965347754,
				"z": 2.5715629692,
				"element": "H" 
			},
			{
				"x": 1.9578427682,
				"y": -1.7888757197,
				"z": 2.1402150211,
				"element": "H" 
			},
			{
				"x": 0.2133342469,
				"y": 0.8508095703,
				"z": -0.498310558,
				"element": "H" 
			},
			{
				"x": 0.3548627582,
				"y": -0.6654213799,
				"z": -1.4241351897,
				"element": "H" 
			}
		],
		 "valence_orbital": [ 
			{
				"type": "occ",
				"energy": -0.34314,
				"method": "rhf"
			},
			{
				"type": "occ",
				"energy": -0.33061,
				"method": "rhf"
			},
			{
				"type": "occ",
				"energy": -0.31793,
				"method": "rhf"
			},
			{
				"type": "occ",
				"energy": -0.2683,
				"method": "rhf"
			},
			{
				"type": "occ",
				"energy": -0.23695,
				"method": "rhf"
			},
			{
				"type": "unocc",
				"energy": 0.00038,
				"method": "rhf"
			},
			{
				"type": "unocc",
				"energy": 0.02656,
				"method": "rhf"
			},
			{
				"type": "unocc",
				"energy": 0.04153,
				"method": "rhf"
			},
			{
				"type": "unocc",
				"energy": 0.04461,
				"method": "rhf"
			},
			{
				"type": "unocc",
				"energy": 0.07346,
				"method": "rhf"
			}
		],
		"cosmo_sigma_profile": { 
			"-0.025": 0.0,
			"-0.024": 0.0,
			"-0.023": 0.0,
			"-0.022": 0.0,
			"-0.021": 0.0,
			"-0.02": 0.0,
			"-0.019": 0.0,
			"-0.018": 0.0,
			"-0.017": 0.0,
			"-0.016": 0.0,
			"-0.015": 0.0,
			"-0.014": 0.0,
			"-0.013": 0.0,
			"-0.012": 0.556785462767,
			"-0.011": 1.94094314579,
			"-0.01": 2.57267905039,
			"-0.009": 3.13427492153,
			"-0.008": 4.26939897301,
			"-0.007": 6.80530948532,
			"-0.006": 13.0849403052,
			"-0.005": 15.4536198541,
			"-0.004": 14.1574591321,
			"-0.003": 15.4455794216,
			"-0.002": 11.1502228452,
			"-0.001": 5.28538838512,
			"0.0": 4.98441310564,
			"0.001": 3.21687468454,
			"0.002": 5.11679886286,
			"0.003": 4.92665016284,
			"0.004": 5.43933915688,
			"0.005": 6.72866436739,
			"0.006": 6.17385295922,
			"0.007": 6.6188204903,
			"0.008": 6.60814725877,
			"0.009": 5.79085646005,
			"0.01": 5.00775856798,
			"0.011": 3.5168867698,
			"0.012": 2.85695188435,
			"0.013": 1.81210409989,
			"0.014": 0.545698355232,
			"0.015": 0.723482146788,
			"0.016": 0.391950285825,
			"0.017": 0.188024561658,
			"0.018": 0.0,
			"0.019": 0.0,
			"0.02": 0.0,
			"0.021": 0.0,
			"0.022": 0.0,
			"0.023": 0.0,
			"0.024": 0.0,
			"0.025": 0.0
		}
	}
}
