{
	 "smiles": "NC(=S)C1=CC(Cl)=CC=C1", 
	 "Tm": 385.15, 
	 "num_atms": 16, 
	 "gaussian": { 
		 "optdone": 1, 
		 "sigma_profile": "yes", 
		 "theory": "DFT", 
		 "functional": "B3LYP", 
		 "basiset": "6-31G**", 
		 "properties": { 
			 "R2extent": 2694.5883, 
			 "electric_dipole_moment_norm": 5.35469486526, 
			 "electric_quadrupole_moment_norm": 7.35526436642, 
			 "total_energy": -1183.50125118, 
			 "HOMO_LUMO_gap": 0.14529, 
			 "cosmo_polarized_energy": -15.16, 
			 "cosmo_cavitation_energy": 23.82, 
			 "cosmo_dispersion_energy": -18.2, 
			 "cosmo_repulsion_energy": 1.44, 
			 "cosmo_total_nonelectrostatic_energy": 7.06, 
			 "SMD_solvation_energy": 2.94 
		},
		"coords": [
			{
				"x": -0.2525937613,
				"y": 1.4586323441,
				"z": -1.6911300836,
				"element": "N" 
			},
			{
				"x": 0.2627586409,
				"y": 0.4208948924,
				"z": -0.9921594418,
				"element": "C" 
			},
			{
				"x": 1.9033597559,
				"y": 0.1357134974,
				"z": -0.9272412658,
				"element": "S" 
			},
			{
				"x": -0.7503846936,
				"y": -0.4495688722,
				"z": -0.3259866904,
				"element": "C" 
			},
			{
				"x": -0.4239353162,
				"y": -1.1031324113,
				"z": 0.8716163463,
				"element": "C" 
			},
			{
				"x": -1.3738458046,
				"y": -1.9034786126,
				"z": 1.4961930424,
				"element": "C" 
			},
			{
				"x": -0.9652637711,
				"y": -2.699809817,
				"z": 3.0071786178,
				"element": "Cl" 
			},
			{
				"x": -2.6457967298,
				"y": -2.0896883296,
				"z": 0.9505240279,
				"element": "C" 
			},
			{
				"x": -2.9603971665,
				"y": -1.4537926445,
				"z": -0.2496653236,
				"element": "C" 
			},
			{
				"x": -2.0268948819,
				"y": -0.6347783864,
				"z": -0.8836423961,
				"element": "C" 
			},
			{
				"x": -1.2081886135,
				"y": 1.7558796047,
				"z": -1.5594298989,
				"element": "H" 
			},
			{
				"x": 0.3910086754,
				"y": 2.0929360708,
				"z": -2.1416489391,
				"element": "H" 
			},
			{
				"x": 0.5651574502,
				"y": -0.9765259842,
				"z": 1.2950656566,
				"element": "H" 
			},
			{
				"x": -3.3663748415,
				"y": -2.7246369561,
				"z": 1.4537124571,
				"element": "H" 
			},
			{
				"x": -3.9384700301,
				"y": -1.6057677588,
				"z": -0.6959259755,
				"element": "H" 
			},
			{
				"x": -2.2765389123,
				"y": -0.1778766365,
				"z": -1.8360601331,
				"element": "H" 
			}
		],
		 "valence_orbital": [ 
			{
				"type": "occ",
				"energy": -0.31788,
				"method": "rhf"
			},
			{
				"type": "occ",
				"energy": -0.278,
				"method": "rhf"
			},
			{
				"type": "occ",
				"energy": -0.25891,
				"method": "rhf"
			},
			{
				"type": "occ",
				"energy": -0.23687,
				"method": "rhf"
			},
			{
				"type": "occ",
				"energy": -0.21412,
				"method": "rhf"
			},
			{
				"type": "unocc",
				"energy": -0.06883,
				"method": "rhf"
			},
			{
				"type": "unocc",
				"energy": -0.02623,
				"method": "rhf"
			},
			{
				"type": "unocc",
				"energy": 0.00774,
				"method": "rhf"
			},
			{
				"type": "unocc",
				"energy": 0.02534,
				"method": "rhf"
			},
			{
				"type": "unocc",
				"energy": 0.06766,
				"method": "rhf"
			}
		],
		"cosmo_sigma_profile": { 
			"-0.025": 0.0,
			"-0.024": 0.0,
			"-0.023": 0.0,
			"-0.022": 0.0,
			"-0.021": 0.0,
			"-0.02": 0.0,
			"-0.019": 0.0,
			"-0.018": 0.0,
			"-0.017": 0.0,
			"-0.016": 0.424970160616,
			"-0.015": 1.95851933673,
			"-0.014": 2.80502855916,
			"-0.013": 2.63759542502,
			"-0.012": 2.28602436091,
			"-0.011": 2.66681167303,
			"-0.01": 1.76480133549,
			"-0.009": 2.21784700602,
			"-0.008": 4.13264370563,
			"-0.007": 6.99466446849,
			"-0.006": 8.00058774389,
			"-0.005": 7.68982175012,
			"-0.004": 7.30645546868,
			"-0.003": 7.56503623279,
			"-0.002": 8.19847205276,
			"-0.001": 11.7353173145,
			"0.0": 13.5174219285,
			"0.001": 16.966956592,
			"0.002": 19.9096800304,
			"0.003": 15.0597207359,
			"0.004": 14.2216897382,
			"0.005": 8.63858444427,
			"0.006": 4.27227183324,
			"0.007": 5.18171092497,
			"0.008": 6.63471077146,
			"0.009": 5.72345406589,
			"0.01": 3.47120664808,
			"0.011": 3.35849157789,
			"0.012": 0.701418683424,
			"0.013": 0.0,
			"0.014": 0.0,
			"0.015": 0.0,
			"0.016": 0.0,
			"0.017": 0.0,
			"0.018": 0.0,
			"0.019": 0.0,
			"0.02": 0.0,
			"0.021": 0.0,
			"0.022": 0.0,
			"0.023": 0.0,
			"0.024": 0.0,
			"0.025": 0.0
		}
	}
}
