{
	 "smiles": "CCOC1=CC=CC(C=CC(O)=O)=C1", 
	 "Tm": 406.15, 
	 "num_atms": 26, 
	 "gaussian": { 
		 "optdone": 1, 
		 "sigma_profile": "yes", 
		 "theory": "DFT", 
		 "functional": "B3LYP", 
		 "basiset": "6-31G**", 
		 "properties": { 
			 "R2extent": 4340.9388, 
			 "electric_dipole_moment_norm": 2.78322668319, 
			 "electric_quadrupole_moment_norm": 8.63362149217, 
			 "total_energy": -652.076141056, 
			 "HOMO_LUMO_gap": 0.15837, 
			 "cosmo_polarized_energy": -12.0, 
			 "cosmo_cavitation_energy": 30.97, 
			 "cosmo_dispersion_energy": -22.34, 
			 "cosmo_repulsion_energy": 1.79, 
			 "cosmo_total_nonelectrostatic_energy": 10.41, 
			 "SMD_solvation_energy": 6.99 
		},
		"coords": [
			{
				"x": -1.5095718228,
				"y": -4.2905428108,
				"z": 1.4181710528,
				"element": "C" 
			},
			{
				"x": -0.9914512962,
				"y": -2.9485746713,
				"z": 0.931623294,
				"element": "C" 
			},
			{
				"x": -0.2481779994,
				"y": -3.1826481485,
				"z": -0.2649362085,
				"element": "O" 
			},
			{
				"x": 0.328387532,
				"y": -2.1243556017,
				"z": -0.9007672289,
				"element": "C" 
			},
			{
				"x": 1.045322858,
				"y": -2.44153172,
				"z": -2.0693199159,
				"element": "C" 
			},
			{
				"x": 1.6710578178,
				"y": -1.4348336841,
				"z": -2.7920639576,
				"element": "C" 
			},
			{
				"x": 1.5945764256,
				"y": -0.106301369,
				"z": -2.3676834524,
				"element": "C" 
			},
			{
				"x": 0.8830759425,
				"y": 0.2243359183,
				"z": -1.2046963194,
				"element": "C" 
			},
			{
				"x": 0.8298180271,
				"y": 1.6283886171,
				"z": -0.7989318635,
				"element": "C" 
			},
			{
				"x": 0.2073299991,
				"y": 2.1591961173,
				"z": 0.2703539146,
				"element": "C" 
			},
			{
				"x": 0.2691760481,
				"y": 3.6112628616,
				"z": 0.5121621536,
				"element": "C" 
			},
			{
				"x": -0.4164314401,
				"y": 3.9582703494,
				"z": 1.6346819836,
				"element": "O" 
			},
			{
				"x": 0.8458047226,
				"y": 4.4350357631,
				"z": -0.1739106196,
				"element": "O" 
			},
			{
				"x": 0.2476875634,
				"y": -0.8000937593,
				"z": -0.4711971026,
				"element": "C" 
			},
			{
				"x": -2.1545106316,
				"y": -4.750861464,
				"z": 0.6645825175,
				"element": "H" 
			},
			{
				"x": -2.0883793096,
				"y": -4.158680994,
				"z": 2.3373813653,
				"element": "H" 
			},
			{
				"x": -0.6798386274,
				"y": -4.9721301783,
				"z": 1.6248371902,
				"element": "H" 
			},
			{
				"x": -0.3446351917,
				"y": -2.4805707291,
				"z": 1.6872337415,
				"element": "H" 
			},
			{
				"x": -1.822252265,
				"y": -2.2587024034,
				"z": 0.7261186817,
				"element": "H" 
			},
			{
				"x": 1.0918201516,
				"y": -3.4798904207,
				"z": -2.3804965487,
				"element": "H" 
			},
			{
				"x": 2.2231212539,
				"y": -1.6851573761,
				"z": -3.6930981305,
				"element": "H" 
			},
			{
				"x": 2.0851324198,
				"y": 0.6788111908,
				"z": -2.9351939431,
				"element": "H" 
			},
			{
				"x": 1.3592075512,
				"y": 2.3299360966,
				"z": -1.4418879959,
				"element": "H" 
			},
			{
				"x": -0.3540819534,
				"y": 1.5698231535,
				"z": 0.987403964,
				"element": "H" 
			},
			{
				"x": -0.3213855059,
				"y": 4.9218310766,
				"z": 1.713024269,
				"element": "H" 
			},
			{
				"x": -0.3019022697,
				"y": -0.548715814,
				"z": 0.4267091588,
				"element": "H" 
			}
		],
		 "valence_orbital": [ 
			{
				"type": "occ",
				"energy": -0.31205,
				"method": "rhf"
			},
			{
				"type": "occ",
				"energy": -0.29345,
				"method": "rhf"
			},
			{
				"type": "occ",
				"energy": -0.26966,
				"method": "rhf"
			},
			{
				"type": "occ",
				"energy": -0.24288,
				"method": "rhf"
			},
			{
				"type": "occ",
				"energy": -0.22406,
				"method": "rhf"
			},
			{
				"type": "unocc",
				"energy": -0.06569,
				"method": "rhf"
			},
			{
				"type": "unocc",
				"energy": 0.00267,
				"method": "rhf"
			},
			{
				"type": "unocc",
				"energy": 0.02455,
				"method": "rhf"
			},
			{
				"type": "unocc",
				"energy": 0.08613,
				"method": "rhf"
			},
			{
				"type": "unocc",
				"energy": 0.08867,
				"method": "rhf"
			}
		],
		"cosmo_sigma_profile": { 
			"-0.025": 0.0,
			"-0.024": 0.0,
			"-0.023": 0.0,
			"-0.022": 0.0,
			"-0.021": 0.0,
			"-0.02": 0.0,
			"-0.019": 0.0,
			"-0.018": 0.485601348266,
			"-0.017": 0.844195150953,
			"-0.016": 0.825184515965,
			"-0.015": 0.914139489588,
			"-0.014": 0.828423203798,
			"-0.013": 0.39981155043,
			"-0.012": 0.46149262177,
			"-0.011": 0.831241858815,
			"-0.01": 0.932276032205,
			"-0.009": 1.06646360797,
			"-0.008": 2.41843457588,
			"-0.007": 5.20035457309,
			"-0.006": 11.2574561818,
			"-0.005": 15.9963145925,
			"-0.004": 20.9450940702,
			"-0.003": 18.5565614891,
			"-0.002": 17.9606835518,
			"-0.001": 18.0619261198,
			"0.0": 19.6407819538,
			"0.001": 16.322587749,
			"0.002": 17.9143155154,
			"0.003": 18.9196753619,
			"0.004": 16.8599333226,
			"0.005": 8.50016033475,
			"0.006": 4.19007327529,
			"0.007": 3.85183654411,
			"0.008": 4.08101356197,
			"0.009": 4.62978796802,
			"0.01": 3.56336447613,
			"0.011": 2.3697760732,
			"0.012": 5.50429451683,
			"0.013": 1.58141899822,
			"0.014": 0.0,
			"0.015": 0.0,
			"0.016": 0.0,
			"0.017": 0.0,
			"0.018": 0.0,
			"0.019": 0.0,
			"0.02": 0.0,
			"0.021": 0.0,
			"0.022": 0.0,
			"0.023": 0.0,
			"0.024": 0.0,
			"0.025": 0.0
		}
	}
}
