{
	 "smiles": "OC(=C/C1=CC(=O)NC(=O)N1)C(F)(F)C(F)(F)F", 
	 "Tm": 553.15, 
	 "num_atms": 23, 
	 "gaussian": { 
		 "optdone": 1, 
		 "sigma_profile": "yes", 
		 "theory": "DFT", 
		 "functional": "B3LYP", 
		 "basiset": "6-31G**", 
		 "properties": { 
			 "R2extent": 6397.1962, 
			 "electric_dipole_moment_norm": 2.09391396433, 
			 "electric_quadrupole_moment_norm": 14.4272071303, 
			 "total_energy": -1142.24966016, 
			 "HOMO_LUMO_gap": 0.17439, 
			 "cosmo_polarized_energy": -20.17, 
			 "cosmo_cavitation_energy": 31.31, 
			 "cosmo_dispersion_energy": -21.85, 
			 "cosmo_repulsion_energy": 1.6, 
			 "cosmo_total_nonelectrostatic_energy": 11.07, 
			 "SMD_solvation_energy": 9.24 
		},
		"coords": [
			{
				"x": 0.4646654705,
				"y": 2.0046056446,
				"z": -1.649518414,
				"element": "O" 
			},
			{
				"x": 0.628448251,
				"y": 0.7329303636,
				"z": -1.2449255443,
				"element": "C" 
			},
			{
				"x": -0.2951611985,
				"y": -0.2481042153,
				"z": -1.2174430317,
				"element": "C" 
			},
			{
				"x": -1.6785541639,
				"y": -0.088256773,
				"z": -1.6607930664,
				"element": "C" 
			},
			{
				"x": -2.0841577638,
				"y": 0.6974969551,
				"z": -2.7036921114,
				"element": "C" 
			},
			{
				"x": -3.4933496726,
				"y": 0.8039864966,
				"z": -3.0628340383,
				"element": "C" 
			},
			{
				"x": -3.9473649571,
				"y": 1.4743416695,
				"z": -3.9754479487,
				"element": "O" 
			},
			{
				"x": -4.3474786156,
				"y": 0.0343345378,
				"z": -2.2456347936,
				"element": "N" 
			},
			{
				"x": -3.9950758618,
				"y": -0.7852508933,
				"z": -1.1892553482,
				"element": "C" 
			},
			{
				"x": -4.7831286085,
				"y": -1.4273243116,
				"z": -0.5219989957,
				"element": "O" 
			},
			{
				"x": -2.6199790662,
				"y": -0.8030087965,
				"z": -0.9445551669,
				"element": "N" 
			},
			{
				"x": 2.0443460778,
				"y": 0.5017025288,
				"z": -0.7514408321,
				"element": "C" 
			},
			{
				"x": 2.2451104485,
				"y": -0.8218024083,
				"z": -0.5118517973,
				"element": "F" 
			},
			{
				"x": 2.9308183911,
				"y": 0.9092674757,
				"z": -1.6952427936,
				"element": "F" 
			},
			{
				"x": 2.3896248583,
				"y": 1.2478242986,
				"z": 0.5614209174,
				"element": "C" 
			},
			{
				"x": 3.6072353812,
				"y": 0.8872281286,
				"z": 0.982498778,
				"element": "F" 
			},
			{
				"x": 1.4912505326,
				"y": 0.92534323,
				"z": 1.5088219835,
				"element": "F" 
			},
			{
				"x": 2.3694187812,
				"y": 2.5714831262,
				"z": 0.3788727416,
				"element": "F" 
			},
			{
				"x": -0.475423308,
				"y": 2.1637733296,
				"z": -1.8431154496,
				"element": "H" 
			},
			{
				"x": -0.0009858754,
				"y": -1.2018675117,
				"z": -0.7960128072,
				"element": "H" 
			},
			{
				"x": -1.3755771502,
				"y": 1.1734861779,
				"z": -3.3687213215,
				"element": "H" 
			},
			{
				"x": -5.3360327571,
				"y": 0.073639742,
				"z": -2.4631029078,
				"element": "H" 
			},
			{
				"x": -2.3462491937,
				"y": -1.3493287949,
				"z": -0.139628052,
				"element": "H" 
			}
		],
		 "valence_orbital": [ 
			{
				"type": "occ",
				"energy": -0.3045,
				"method": "rhf"
			},
			{
				"type": "occ",
				"energy": -0.294,
				"method": "rhf"
			},
			{
				"type": "occ",
				"energy": -0.29259,
				"method": "rhf"
			},
			{
				"type": "occ",
				"energy": -0.27169,
				"method": "rhf"
			},
			{
				"type": "occ",
				"energy": -0.25611,
				"method": "rhf"
			},
			{
				"type": "unocc",
				"energy": -0.08172,
				"method": "rhf"
			},
			{
				"type": "unocc",
				"energy": -0.00622,
				"method": "rhf"
			},
			{
				"type": "unocc",
				"energy": 0.00284,
				"method": "rhf"
			},
			{
				"type": "unocc",
				"energy": 0.03838,
				"method": "rhf"
			},
			{
				"type": "unocc",
				"energy": 0.06177,
				"method": "rhf"
			}
		],
		"cosmo_sigma_profile": { 
			"-0.025": 0.0,
			"-0.024": 0.0,
			"-0.023": 0.0,
			"-0.022": 0.0,
			"-0.021": 0.0,
			"-0.02": 0.0,
			"-0.019": 0.0,
			"-0.018": 0.00920639616783,
			"-0.017": 0.879381635928,
			"-0.016": 2.60771436806,
			"-0.015": 2.9192080583,
			"-0.014": 2.42086292772,
			"-0.013": 3.82975419774,
			"-0.012": 3.36394928433,
			"-0.011": 2.34946334989,
			"-0.01": 3.75486946492,
			"-0.009": 4.61868982702,
			"-0.008": 3.46348955675,
			"-0.007": 4.56250118486,
			"-0.006": 4.98980359557,
			"-0.005": 7.00050234701,
			"-0.004": 9.94980776435,
			"-0.003": 13.3479814715,
			"-0.002": 17.1854999222,
			"-0.001": 16.6137110874,
			"0.0": 20.8566916808,
			"0.001": 36.8898473003,
			"0.002": 32.9198454338,
			"0.003": 7.71690867608,
			"0.004": 4.5189528308,
			"0.005": 4.30156288364,
			"0.006": 4.04331530727,
			"0.007": 4.13183883256,
			"0.008": 3.19291932925,
			"0.009": 1.96954863008,
			"0.01": 3.17453637057,
			"0.011": 4.26497437008,
			"0.012": 10.2142574985,
			"0.013": 7.88009868619,
			"0.014": 1.19825264925,
			"0.015": 0.0,
			"0.016": 0.0,
			"0.017": 0.0,
			"0.018": 0.0,
			"0.019": 0.0,
			"0.02": 0.0,
			"0.021": 0.0,
			"0.022": 0.0,
			"0.023": 0.0,
			"0.024": 0.0,
			"0.025": 0.0
		}
	}
}
