{
	 "smiles": "N1C=CC2=C1N=CC=C2", 
	 "Tm": 379.15, 
	 "num_atms": 15, 
	 "gaussian": { 
		 "optdone": 1, 
		 "sigma_profile": "yes", 
		 "theory": "DFT", 
		 "functional": "B3LYP", 
		 "basiset": "6-31G**", 
		 "properties": { 
			 "R2extent": 1247.4995, 
			 "electric_dipole_moment_norm": 1.63077161491, 
			 "electric_quadrupole_moment_norm": 8.64262904677, 
			 "total_energy": -379.864195488, 
			 "HOMO_LUMO_gap": 0.19119, 
			 "cosmo_polarized_energy": -8.5, 
			 "cosmo_cavitation_energy": 18.81, 
			 "cosmo_dispersion_energy": -14.55, 
			 "cosmo_repulsion_energy": 1.18, 
			 "cosmo_total_nonelectrostatic_energy": 5.43, 
			 "SMD_solvation_energy": 1.7 
		},
		"coords": [
			{
				"x": 0.1988817791,
				"y": 0.4840840305,
				"z": 1.9327828941,
				"element": "N" 
			},
			{
				"x": -0.2117079254,
				"y": 1.5826481321,
				"z": 1.2003034548,
				"element": "C" 
			},
			{
				"x": -0.8722114668,
				"y": 1.1702854322,
				"z": 0.0711499805,
				"element": "C" 
			},
			{
				"x": -0.8779579439,
				"y": -0.2648668801,
				"z": 0.0936570248,
				"element": "C" 
			},
			{
				"x": -0.1947282079,
				"y": -0.6621429089,
				"z": 1.2802408626,
				"element": "C" 
			},
			{
				"x": 0.0339221329,
				"y": -1.9044398192,
				"z": 1.7022874444,
				"element": "N" 
			},
			{
				"x": -0.4461307835,
				"y": -2.8571109369,
				"z": 0.8962866169,
				"element": "C" 
			},
			{
				"x": -1.1390371621,
				"y": -2.6066069293,
				"z": -0.3035989111,
				"element": "C" 
			},
			{
				"x": -1.3633657151,
				"y": -1.2977476066,
				"z": -0.7197006967,
				"element": "C" 
			},
			{
				"x": 0.7046254408,
				"y": 0.4941564142,
				"z": 2.8041081567,
				"element": "H" 
			},
			{
				"x": 0.0032365538,
				"y": 2.5828414065,
				"z": 1.5481954121,
				"element": "H" 
			},
			{
				"x": -1.3010260432,
				"y": 1.8151823153,
				"z": -0.6825197028,
				"element": "H" 
			},
			{
				"x": -0.2738964865,
				"y": -3.8828581338,
				"z": 1.2161887363,
				"element": "H" 
			},
			{
				"x": -1.4935771242,
				"y": -3.4442295303,
				"z": -0.8958221584,
				"element": "H" 
			},
			{
				"x": -1.8962270479,
				"y": -1.0866949858,
				"z": -1.6428591142,
				"element": "H" 
			}
		],
		 "valence_orbital": [ 
			{
				"type": "occ",
				"energy": -0.35021,
				"method": "rhf"
			},
			{
				"type": "occ",
				"energy": -0.29813,
				"method": "rhf"
			},
			{
				"type": "occ",
				"energy": -0.25537,
				"method": "rhf"
			},
			{
				"type": "occ",
				"energy": -0.23027,
				"method": "rhf"
			},
			{
				"type": "occ",
				"energy": -0.21441,
				"method": "rhf"
			},
			{
				"type": "unocc",
				"energy": -0.02322,
				"method": "rhf"
			},
			{
				"type": "unocc",
				"energy": 0.02364,
				"method": "rhf"
			},
			{
				"type": "unocc",
				"energy": 0.06359,
				"method": "rhf"
			},
			{
				"type": "unocc",
				"energy": 0.08677,
				"method": "rhf"
			},
			{
				"type": "unocc",
				"energy": 0.11384,
				"method": "rhf"
			}
		],
		"cosmo_sigma_profile": { 
			"-0.025": 0.0,
			"-0.024": 0.0,
			"-0.023": 0.0,
			"-0.022": 0.0,
			"-0.021": 0.0,
			"-0.02": 0.0,
			"-0.019": 0.0,
			"-0.018": 0.0,
			"-0.017": 0.0,
			"-0.016": 0.42586659067,
			"-0.015": 1.60688990328,
			"-0.014": 1.08728401007,
			"-0.013": 0.892782693518,
			"-0.012": 1.57130315556,
			"-0.011": 0.763347556449,
			"-0.01": 0.706519213873,
			"-0.009": 1.58235211128,
			"-0.008": 3.49809519828,
			"-0.007": 2.72956408057,
			"-0.006": 8.20114840627,
			"-0.005": 10.0287089762,
			"-0.004": 9.29580789907,
			"-0.003": 11.2698225102,
			"-0.002": 7.68587921994,
			"-0.001": 5.79247115574,
			"0.0": 8.49619173778,
			"0.001": 7.30705400384,
			"0.002": 9.16557398449,
			"0.003": 15.7180526654,
			"0.004": 16.8907616662,
			"0.005": 10.4245980573,
			"0.006": 4.91870515615,
			"0.007": 1.84975965657,
			"0.008": 1.20552907073,
			"0.009": 1.98274764737,
			"0.01": 0.884601089008,
			"0.011": 1.13723107177,
			"0.012": 0.97533903729,
			"0.013": 0.662230539819,
			"0.014": 0.991673040345,
			"0.015": 0.756641613033,
			"0.016": 0.781945117867,
			"0.017": 0.11771567009,
			"0.018": 0.0,
			"0.019": 0.0,
			"0.02": 0.0,
			"0.021": 0.0,
			"0.022": 0.0,
			"0.023": 0.0,
			"0.024": 0.0,
			"0.025": 0.0
		}
	}
}
