{
	 "smiles": "CC(=O)NC1=CC=C(C=C1N)C(F)(F)F", 
	 "Tm": 415.15, 
	 "num_atms": 24, 
	 "gaussian": { 
		 "optdone": 1, 
		 "sigma_profile": "yes", 
		 "theory": "DFT", 
		 "functional": "B3LYP", 
		 "basiset": "6-31G**", 
		 "properties": { 
			 "R2extent": 5451.0669, 
			 "electric_dipole_moment_norm": 1.86975594664, 
			 "electric_quadrupole_moment_norm": 26.5262112609, 
			 "total_energy": -832.658911946, 
			 "HOMO_LUMO_gap": 0.18863, 
			 "cosmo_polarized_energy": -14.72, 
			 "cosmo_cavitation_energy": 29.79, 
			 "cosmo_dispersion_energy": -20.85, 
			 "cosmo_repulsion_energy": 1.59, 
			 "cosmo_total_nonelectrostatic_energy": 10.52, 
			 "SMD_solvation_energy": 7.34 
		},
		"coords": [
			{
				"x": 0.9686646116,
				"y": 1.9768321165,
				"z": 0.0935618653,
				"element": "C" 
			},
			{
				"x": 2.0123272114,
				"y": 1.5200576051,
				"z": -0.9090570148,
				"element": "C" 
			},
			{
				"x": 2.8633442874,
				"y": 2.2748106816,
				"z": -1.3541822178,
				"element": "O" 
			},
			{
				"x": 1.9649877348,
				"y": 0.2037156776,
				"z": -1.3442927937,
				"element": "N" 
			},
			{
				"x": 1.1709296996,
				"y": -0.8843633793,
				"z": -0.9050627645,
				"element": "C" 
			},
			{
				"x": 1.0284248386,
				"y": -1.2142505514,
				"z": 0.4446778086,
				"element": "C" 
			},
			{
				"x": 0.2581217724,
				"y": -2.3055871699,
				"z": 0.8403596353,
				"element": "C" 
			},
			{
				"x": -0.3502386623,
				"y": -3.0964283718,
				"z": -0.1359945886,
				"element": "C" 
			},
			{
				"x": -0.2064269023,
				"y": -2.7918817659,
				"z": -1.4893724586,
				"element": "C" 
			},
			{
				"x": 0.5452873384,
				"y": -1.6822551265,
				"z": -1.8950424865,
				"element": "C" 
			},
			{
				"x": 0.7341052727,
				"y": -1.3777363443,
				"z": -3.2404379944,
				"element": "N" 
			},
			{
				"x": -1.121803985,
				"y": -4.3239679149,
				"z": 0.2654094802,
				"element": "C" 
			},
			{
				"x": -2.1170631744,
				"y": -4.6035670997,
				"z": -0.6076499018,
				"element": "F" 
			},
			{
				"x": -0.3283487528,
				"y": -5.419650646,
				"z": 0.3144464556,
				"element": "F" 
			},
			{
				"x": -1.6806997409,
				"y": -4.1903541971,
				"z": 1.4882684331,
				"element": "F" 
			},
			{
				"x": 0.7844993782,
				"y": 3.0368593073,
				"z": -0.0867250429,
				"element": "H" 
			},
			{
				"x": 1.3610128645,
				"y": 1.87745243,
				"z": 1.1110991803,
				"element": "H" 
			},
			{
				"x": 0.0349920299,
				"y": 1.4142488699,
				"z": 0.0330015265,
				"element": "H" 
			},
			{
				"x": 2.6766903872,
				"y": 0.0024021347,
				"z": -2.0398219378,
				"element": "H" 
			},
			{
				"x": 1.5402009234,
				"y": -0.6139261635,
				"z": 1.1889860873,
				"element": "H" 
			},
			{
				"x": 0.1437432641,
				"y": -2.5465886067,
				"z": 1.8905135974,
				"element": "H" 
			},
			{
				"x": -0.7006927183,
				"y": -3.4063812745,
				"z": -2.2352738558,
				"element": "H" 
			},
			{
				"x": 0.8311264056,
				"y": -0.3896026846,
				"z": -3.4380746848,
				"element": "H" 
			},
			{
				"x": 0.0959159161,
				"y": -1.8360375264,
				"z": -3.8762363277,
				"element": "H" 
			}
		],
		 "valence_orbital": [ 
			{
				"type": "occ",
				"energy": -0.33168,
				"method": "rhf"
			},
			{
				"type": "occ",
				"energy": -0.30088,
				"method": "rhf"
			},
			{
				"type": "occ",
				"energy": -0.25761,
				"method": "rhf"
			},
			{
				"type": "occ",
				"energy": -0.25345,
				"method": "rhf"
			},
			{
				"type": "occ",
				"energy": -0.22243,
				"method": "rhf"
			},
			{
				"type": "unocc",
				"energy": -0.0338,
				"method": "rhf"
			},
			{
				"type": "unocc",
				"energy": -0.01033,
				"method": "rhf"
			},
			{
				"type": "unocc",
				"energy": 0.02181,
				"method": "rhf"
			},
			{
				"type": "unocc",
				"energy": 0.06479,
				"method": "rhf"
			},
			{
				"type": "unocc",
				"energy": 0.08581,
				"method": "rhf"
			}
		],
		"cosmo_sigma_profile": { 
			"-0.025": 0.0,
			"-0.024": 0.0,
			"-0.023": 0.0,
			"-0.022": 0.0,
			"-0.021": 0.0,
			"-0.02": 0.0,
			"-0.019": 0.0,
			"-0.018": 0.0,
			"-0.017": 0.0,
			"-0.016": 0.0,
			"-0.015": 0.0,
			"-0.014": 0.117539950066,
			"-0.013": 1.93415327926,
			"-0.012": 3.71553092858,
			"-0.011": 3.22622817556,
			"-0.01": 4.44335521778,
			"-0.009": 3.46642221905,
			"-0.008": 4.26606770694,
			"-0.007": 7.85586887618,
			"-0.006": 9.1543637166,
			"-0.005": 11.2695899356,
			"-0.004": 12.0376480948,
			"-0.003": 13.8888899752,
			"-0.002": 15.5215317397,
			"-0.001": 15.3742970551,
			"0.0": 11.8639323062,
			"0.001": 15.1695482113,
			"0.002": 22.3769032657,
			"0.003": 42.0442488709,
			"0.004": 12.5505172428,
			"0.005": 2.48256395698,
			"0.006": 1.44179022649,
			"0.007": 1.81486311272,
			"0.008": 1.7268438252,
			"0.009": 2.3391943914,
			"0.01": 1.94976989857,
			"0.011": 1.93988233632,
			"0.012": 2.86540919615,
			"0.013": 5.25029339011,
			"0.014": 4.11199337614,
			"0.015": 0.581908961566,
			"0.016": 0.0,
			"0.017": 0.0,
			"0.018": 0.0,
			"0.019": 0.0,
			"0.02": 0.0,
			"0.021": 0.0,
			"0.022": 0.0,
			"0.023": 0.0,
			"0.024": 0.0,
			"0.025": 0.0
		}
	}
}
