{
	 "smiles": "CC1=NNC(O)=C1C#N", 
	 "Tm": 503.15, 
	 "num_atms": 14, 
	 "gaussian": { 
		 "optdone": 1, 
		 "sigma_profile": "yes", 
		 "theory": "DFT", 
		 "functional": "B3LYP", 
		 "basiset": "6-31G**", 
		 "properties": { 
			 "R2extent": 1142.3773, 
			 "electric_dipole_moment_norm": 3.06701092597, 
			 "electric_quadrupole_moment_norm": 11.2152213616, 
			 "total_energy": -432.986973092, 
			 "HOMO_LUMO_gap": 0.23892, 
			 "cosmo_polarized_energy": -15.48, 
			 "cosmo_cavitation_energy": 19.78, 
			 "cosmo_dispersion_energy": -14.16, 
			 "cosmo_repulsion_energy": 1.19, 
			 "cosmo_total_nonelectrostatic_energy": 6.81, 
			 "SMD_solvation_energy": 4.57 
		},
		"coords": [
			{
				"x": 1.1369813478,
				"y": -0.3858524442,
				"z": 2.0365553855,
				"element": "C" 
			},
			{
				"x": 0.8316104416,
				"y": 0.2907498239,
				"z": 0.7393059555,
				"element": "C" 
			},
			{
				"x": 1.5440213891,
				"y": 1.3209296576,
				"z": 0.3141148646,
				"element": "N" 
			},
			{
				"x": 0.9833493565,
				"y": 1.6714558535,
				"z": -0.8874790622,
				"element": "N" 
			},
			{
				"x": -0.0571909553,
				"y": 0.8894624314,
				"z": -1.2228408274,
				"element": "C" 
			},
			{
				"x": -0.7218254842,
				"y": 1.0944207314,
				"z": -2.3689122705,
				"element": "O" 
			},
			{
				"x": -0.2086202297,
				"y": -0.0394442584,
				"z": -0.1934511567,
				"element": "C" 
			},
			{
				"x": -1.1924694656,
				"y": -1.0511746111,
				"z": -0.1501371256,
				"element": "C" 
			},
			{
				"x": -2.0211525754,
				"y": -1.871713606,
				"z": -0.1553516576,
				"element": "N" 
			},
			{
				"x": 0.2798669794,
				"y": -0.340749772,
				"z": 2.7168153645,
				"element": "H" 
			},
			{
				"x": 1.3767958094,
				"y": -1.4434352049,
				"z": 1.8834604341,
				"element": "H" 
			},
			{
				"x": 1.9894124903,
				"y": 0.1025092793,
				"z": 2.5124190823,
				"element": "H" 
			},
			{
				"x": 1.3575317974,
				"y": 2.4438477195,
				"z": -1.4166227413,
				"element": "H" 
			},
			{
				"x": -1.4330109014,
				"y": 0.4405944001,
				"z": -2.4405762451,
				"element": "H" 
			}
		],
		 "valence_orbital": [ 
			{
				"type": "occ",
				"energy": -0.36165,
				"method": "rhf"
			},
			{
				"type": "occ",
				"energy": -0.34193,
				"method": "rhf"
			},
			{
				"type": "occ",
				"energy": -0.30253,
				"method": "rhf"
			},
			{
				"type": "occ",
				"energy": -0.26712,
				"method": "rhf"
			},
			{
				"type": "occ",
				"energy": -0.24497,
				"method": "rhf"
			},
			{
				"type": "unocc",
				"energy": -0.00605,
				"method": "rhf"
			},
			{
				"type": "unocc",
				"energy": 0.0111,
				"method": "rhf"
			},
			{
				"type": "unocc",
				"energy": 0.0152,
				"method": "rhf"
			},
			{
				"type": "unocc",
				"energy": 0.05555,
				"method": "rhf"
			},
			{
				"type": "unocc",
				"energy": 0.07665,
				"method": "rhf"
			}
		],
		"cosmo_sigma_profile": { 
			"-0.025": 0.0,
			"-0.024": 0.0,
			"-0.023": 0.0,
			"-0.022": 0.0,
			"-0.021": 0.0,
			"-0.02": 0.11743219811,
			"-0.019": 0.889847934513,
			"-0.018": 1.70543498956,
			"-0.017": 2.35049818322,
			"-0.016": 1.87235156052,
			"-0.015": 1.08999672972,
			"-0.014": 2.06848383637,
			"-0.013": 2.72722594099,
			"-0.012": 2.1227431724,
			"-0.011": 1.74368474832,
			"-0.01": 1.05188303766,
			"-0.009": 1.84458497738,
			"-0.008": 1.43459875087,
			"-0.007": 2.13958081976,
			"-0.006": 2.54824588791,
			"-0.005": 7.74860503657,
			"-0.004": 8.44290094429,
			"-0.003": 9.00175213951,
			"-0.002": 12.0242440821,
			"-0.001": 13.9000252443,
			"0.0": 11.9640366848,
			"0.001": 11.3779315783,
			"0.002": 5.99477485304,
			"0.003": 5.01480377279,
			"0.004": 4.66498012582,
			"0.005": 4.29027421836,
			"0.006": 5.49590934867,
			"0.007": 4.93870856233,
			"0.008": 5.20304545841,
			"0.009": 4.60823509709,
			"0.01": 4.86871938902,
			"0.011": 3.94391241896,
			"0.012": 3.90093462236,
			"0.013": 3.42382115845,
			"0.014": 1.25708573028,
			"0.015": 0.952333407604,
			"0.016": 0.0816287475512,
			"0.017": 0.0,
			"0.018": 0.0,
			"0.019": 0.0,
			"0.02": 0.0,
			"0.021": 0.0,
			"0.022": 0.0,
			"0.023": 0.0,
			"0.024": 0.0,
			"0.025": 0.0
		}
	}
}
