{
	 "smiles": "COC1=C2C=CC=CC2=NC=C1C#N", 
	 "Tm": 380.15, 
	 "num_atms": 22, 
	 "gaussian": { 
		 "optdone": 1, 
		 "sigma_profile": "yes", 
		 "theory": "DFT", 
		 "functional": "B3LYP", 
		 "basiset": "6-31G**", 
		 "properties": { 
			 "R2extent": 3028.2944, 
			 "electric_dipole_moment_norm": 4.14772780447, 
			 "electric_quadrupole_moment_norm": 7.56444580389, 
			 "total_energy": -608.694417585, 
			 "HOMO_LUMO_gap": 0.1714, 
			 "cosmo_polarized_energy": -10.6, 
			 "cosmo_cavitation_energy": 26.97, 
			 "cosmo_dispersion_energy": -19.56, 
			 "cosmo_repulsion_energy": 1.5, 
			 "cosmo_total_nonelectrostatic_energy": 8.91, 
			 "SMD_solvation_energy": 4.87 
		},
		"coords": [
			{
				"x": -1.9548791219,
				"y": 2.0383412751,
				"z": 0.4814561785,
				"element": "C" 
			},
			{
				"x": -1.4604872934,
				"y": 0.7307307692,
				"z": 0.795578581,
				"element": "O" 
			},
			{
				"x": -0.9024094923,
				"y": -0.0761390297,
				"z": -0.1200680969,
				"element": "C" 
			},
			{
				"x": -0.4729645392,
				"y": -1.3436704638,
				"z": 0.3980032637,
				"element": "C" 
			},
			{
				"x": -0.6335762337,
				"y": -1.6933690629,
				"z": 1.7623400426,
				"element": "C" 
			},
			{
				"x": -0.2064830152,
				"y": -2.9226488931,
				"z": 2.2182042417,
				"element": "C" 
			},
			{
				"x": 0.3947711949,
				"y": -3.845334617,
				"z": 1.3317190142,
				"element": "C" 
			},
			{
				"x": 0.5613344589,
				"y": -3.5270330478,
				"z": 0.0007403078,
				"element": "C" 
			},
			{
				"x": 0.1334437324,
				"y": -2.272672689,
				"z": -0.4987748941,
				"element": "C" 
			},
			{
				"x": 0.323458337,
				"y": -2.007984699,
				"z": -1.8308440369,
				"element": "N" 
			},
			{
				"x": -0.0775300688,
				"y": -0.8465197479,
				"z": -2.2722645973,
				"element": "C" 
			},
			{
				"x": -0.7008791127,
				"y": 0.1772513953,
				"z": -1.4805532686,
				"element": "C" 
			},
			{
				"x": -1.0587177439,
				"y": 1.3729469667,
				"z": -2.174753724,
				"element": "C" 
			},
			{
				"x": -1.3165723573,
				"y": 2.3098368373,
				"z": -2.8169717172,
				"element": "N" 
			},
			{
				"x": -1.1563692636,
				"y": 2.6863368849,
				"z": 0.11280815,
				"element": "H" 
			},
			{
				"x": -2.7611316698,
				"y": 1.9913464505,
				"z": -0.2541931994,
				"element": "H" 
			},
			{
				"x": -2.3389036816,
				"y": 2.4267554952,
				"z": 1.425168188,
				"element": "H" 
			},
			{
				"x": -1.0951806421,
				"y": -0.9814184265,
				"z": 2.4360470198,
				"element": "H" 
			},
			{
				"x": -0.3322670507,
				"y": -3.1846797988,
				"z": 3.2643758158,
				"element": "H" 
			},
			{
				"x": 0.7264504328,
				"y": -4.8100253134,
				"z": 1.704506685,
				"element": "H" 
			},
			{
				"x": 1.0191294503,
				"y": -4.2147872201,
				"z": -0.7022066923,
				"element": "H" 
			},
			{
				"x": 0.0731636797,
				"y": -0.6357630653,
				"z": -3.3298172614,
				"element": "H" 
			}
		],
		 "valence_orbital": [ 
			{
				"type": "occ",
				"energy": -0.3315,
				"method": "rhf"
			},
			{
				"type": "occ",
				"energy": -0.2822,
				"method": "rhf"
			},
			{
				"type": "occ",
				"energy": -0.26855,
				"method": "rhf"
			},
			{
				"type": "occ",
				"energy": -0.26304,
				"method": "rhf"
			},
			{
				"type": "occ",
				"energy": -0.23761,
				"method": "rhf"
			},
			{
				"type": "unocc",
				"energy": -0.06621,
				"method": "rhf"
			},
			{
				"type": "unocc",
				"energy": -0.04154,
				"method": "rhf"
			},
			{
				"type": "unocc",
				"energy": 0.01136,
				"method": "rhf"
			},
			{
				"type": "unocc",
				"energy": 0.02207,
				"method": "rhf"
			},
			{
				"type": "unocc",
				"energy": 0.04126,
				"method": "rhf"
			}
		],
		"cosmo_sigma_profile": { 
			"-0.025": 0.0,
			"-0.024": 0.0,
			"-0.023": 0.0,
			"-0.022": 0.0,
			"-0.021": 0.0,
			"-0.02": 0.0,
			"-0.019": 0.0,
			"-0.018": 0.0,
			"-0.017": 0.0,
			"-0.016": 0.0,
			"-0.015": 0.0,
			"-0.014": 0.0,
			"-0.013": 0.0,
			"-0.012": 0.0,
			"-0.011": 0.0,
			"-0.01": 0.0,
			"-0.009": 0.0624311901437,
			"-0.008": 2.26482566582,
			"-0.007": 10.4937158237,
			"-0.006": 15.606150619,
			"-0.005": 18.9538855078,
			"-0.004": 18.1812974944,
			"-0.003": 13.0787810495,
			"-0.002": 15.8991774553,
			"-0.001": 17.7459701941,
			"0.0": 13.3161555945,
			"0.001": 16.0688631301,
			"0.002": 17.2408192978,
			"0.003": 16.9273180757,
			"0.004": 9.16594340728,
			"0.005": 3.2185782383,
			"0.006": 3.34922822129,
			"0.007": 4.20771767901,
			"0.008": 3.61392487243,
			"0.009": 3.90557982453,
			"0.01": 3.58846349559,
			"0.011": 3.61746302231,
			"0.012": 3.76725202696,
			"0.013": 2.00275992787,
			"0.014": 0.813895963742,
			"0.015": 0.90726326464,
			"0.016": 0.101908892196,
			"0.017": 0.0,
			"0.018": 0.0,
			"0.019": 0.0,
			"0.02": 0.0,
			"0.021": 0.0,
			"0.022": 0.0,
			"0.023": 0.0,
			"0.024": 0.0,
			"0.025": 0.0
		}
	}
}
