{
	 "smiles": "COC1=CC(=CC=C1)C(=O)NCC(O)=O", 
	 "Tm": 352.15, 
	 "num_atms": 26, 
	 "gaussian": { 
		 "optdone": 1, 
		 "sigma_profile": "yes", 
		 "theory": "DFT", 
		 "functional": "B3LYP", 
		 "basiset": "6-31G**", 
		 "properties": { 
			 "R2extent": 4768.0596, 
			 "electric_dipole_moment_norm": 5.66457314014, 
			 "electric_quadrupole_moment_norm": 24.3641970994, 
			 "total_energy": -743.36122308, 
			 "HOMO_LUMO_gap": 0.18177, 
			 "cosmo_polarized_energy": -18.79, 
			 "cosmo_cavitation_energy": 30.51, 
			 "cosmo_dispersion_energy": -22.39, 
			 "cosmo_repulsion_energy": 1.76, 
			 "cosmo_total_nonelectrostatic_energy": 9.88, 
			 "SMD_solvation_energy": 7.15 
		},
		"coords": [
			{
				"x": -4.9159446991,
				"y": -0.4155889953,
				"z": 1.4906968457,
				"element": "C" 
			},
			{
				"x": -4.4922762999,
				"y": -1.3478245366,
				"z": 0.5034673006,
				"element": "O" 
			},
			{
				"x": -3.1985662366,
				"y": -1.3026322827,
				"z": 0.0875298218,
				"element": "C" 
			},
			{
				"x": -2.2420659978,
				"y": -0.4058340117,
				"z": 0.5684086238,
				"element": "C" 
			},
			{
				"x": -0.9300287242,
				"y": -0.4536065707,
				"z": 0.0733395455,
				"element": "C" 
			},
			{
				"x": -0.5790552684,
				"y": -1.379557051,
				"z": -0.915429624,
				"element": "C" 
			},
			{
				"x": -1.5442997639,
				"y": -2.2707945877,
				"z": -1.3923869672,
				"element": "C" 
			},
			{
				"x": -2.8412162835,
				"y": -2.2416124328,
				"z": -0.8953088151,
				"element": "C" 
			},
			{
				"x": 0.0374444184,
				"y": 0.5322194943,
				"z": 0.6425281461,
				"element": "C" 
			},
			{
				"x": -0.3471453021,
				"y": 1.5739151923,
				"z": 1.2019303882,
				"element": "O" 
			},
			{
				"x": 1.3615161295,
				"y": 0.2458815992,
				"z": 0.5336289479,
				"element": "N" 
			},
			{
				"x": 2.4005339755,
				"y": 1.1927525268,
				"z": 0.9322007764,
				"element": "C" 
			},
			{
				"x": 2.5927492535,
				"y": 1.3356636976,
				"z": 2.4563179093,
				"element": "C" 
			},
			{
				"x": 1.5060802188,
				"y": 1.7246601125,
				"z": 3.1329914857,
				"element": "O" 
			},
			{
				"x": 3.6591381508,
				"y": 1.1344849124,
				"z": 2.9883344914,
				"element": "O" 
			},
			{
				"x": -4.3586635895,
				"y": -0.5401000238,
				"z": 2.4273241117,
				"element": "H" 
			},
			{
				"x": -5.9710479806,
				"y": -0.6270976278,
				"z": 1.667961141,
				"element": "H" 
			},
			{
				"x": -4.8063603761,
				"y": 0.6183502089,
				"z": 1.1412989202,
				"element": "H" 
			},
			{
				"x": -2.4742392772,
				"y": 0.3398169467,
				"z": 1.3175754767,
				"element": "H" 
			},
			{
				"x": 0.4170959338,
				"y": -1.3867709245,
				"z": -1.3464247051,
				"element": "H" 
			},
			{
				"x": -1.283158814,
				"y": -2.9874965112,
				"z": -2.1650891159,
				"element": "H" 
			},
			{
				"x": -3.6010650479,
				"y": -2.9274939541,
				"z": -1.2550527427,
				"element": "H" 
			},
			{
				"x": 1.6405923394,
				"y": -0.6857945658,
				"z": 0.2673411411,
				"element": "H" 
			},
			{
				"x": 2.1461259131,
				"y": 2.1756607449,
				"z": 0.5188818112,
				"element": "H" 
			},
			{
				"x": 3.3502405939,
				"y": 0.8665581333,
				"z": 0.5097567513,
				"element": "H" 
			},
			{
				"x": 0.7456167339,
				"y": 1.8409405067,
				"z": 2.5087783343,
				"element": "H" 
			}
		],
		 "valence_orbital": [ 
			{
				"type": "occ",
				"energy": -0.29797,
				"method": "rhf"
			},
			{
				"type": "occ",
				"energy": -0.28406,
				"method": "rhf"
			},
			{
				"type": "occ",
				"energy": -0.27173,
				"method": "rhf"
			},
			{
				"type": "occ",
				"energy": -0.25246,
				"method": "rhf"
			},
			{
				"type": "occ",
				"energy": -0.2396,
				"method": "rhf"
			},
			{
				"type": "unocc",
				"energy": -0.05783,
				"method": "rhf"
			},
			{
				"type": "unocc",
				"energy": -0.01258,
				"method": "rhf"
			},
			{
				"type": "unocc",
				"energy": 0.01304,
				"method": "rhf"
			},
			{
				"type": "unocc",
				"energy": 0.04176,
				"method": "rhf"
			},
			{
				"type": "unocc",
				"energy": 0.06151,
				"method": "rhf"
			}
		],
		"cosmo_sigma_profile": { 
			"-0.025": 0.0,
			"-0.024": 0.0,
			"-0.023": 0.0,
			"-0.022": 0.0,
			"-0.021": 0.0,
			"-0.02": 0.0,
			"-0.019": 0.0,
			"-0.018": 0.0,
			"-0.017": 0.0,
			"-0.016": 0.806161398968,
			"-0.015": 1.27599525345,
			"-0.014": 1.38471597229,
			"-0.013": 1.27403054287,
			"-0.012": 1.34480575748,
			"-0.011": 1.28471956283,
			"-0.01": 2.00782299461,
			"-0.009": 2.22329195544,
			"-0.008": 5.37778127375,
			"-0.007": 7.65527255324,
			"-0.006": 15.2932910574,
			"-0.005": 21.2786817208,
			"-0.004": 20.4986755738,
			"-0.003": 19.3128321589,
			"-0.002": 13.8631114808,
			"-0.001": 12.7438652115,
			"0.0": 10.2932911507,
			"0.001": 11.8623029414,
			"0.002": 12.4590339167,
			"0.003": 15.6702296286,
			"0.004": 14.2554393742,
			"0.005": 5.86424832427,
			"0.006": 3.49335984534,
			"0.007": 5.54952274062,
			"0.008": 4.72259658949,
			"0.009": 5.59605518602,
			"0.01": 7.19543004915,
			"0.011": 7.45127004492,
			"0.012": 7.50155963993,
			"0.013": 3.30970883183,
			"0.014": 0.23724351858,
			"0.015": 0.0,
			"0.016": 0.0,
			"0.017": 0.0,
			"0.018": 0.0,
			"0.019": 0.0,
			"0.02": 0.0,
			"0.021": 0.0,
			"0.022": 0.0,
			"0.023": 0.0,
			"0.024": 0.0,
			"0.025": 0.0
		}
	}
}
