{
	 "smiles": "CN1N=CC(C(Cl)=O)=C1Cl", 
	 "Tm": 324.15, 
	 "num_atms": 14, 
	 "gaussian": { 
		 "optdone": 1, 
		 "sigma_profile": "yes", 
		 "theory": "DFT", 
		 "functional": "B3LYP", 
		 "basiset": "6-31G**", 
		 "properties": { 
			 "R2extent": 2554.1639, 
			 "electric_dipole_moment_norm": 4.79733666423, 
			 "electric_quadrupole_moment_norm": 9.17327697173, 
			 "total_energy": -1298.03226723, 
			 "HOMO_LUMO_gap": 0.20901, 
			 "cosmo_polarized_energy": -8.71, 
			 "cosmo_cavitation_energy": 22.67, 
			 "cosmo_dispersion_energy": -16.84, 
			 "cosmo_repulsion_energy": 1.37, 
			 "cosmo_total_nonelectrostatic_energy": 7.2, 
			 "SMD_solvation_energy": 3.7 
		},
		"coords": [
			{
				"x": -0.9937168196,
				"y": -0.8481959252,
				"z": -1.9926773579,
				"element": "C" 
			},
			{
				"x": -0.4823147677,
				"y": 0.1362849041,
				"z": -1.0507899996,
				"element": "N" 
			},
			{
				"x": 0.3874933979,
				"y": 1.0973344822,
				"z": -1.4776813576,
				"element": "N" 
			},
			{
				"x": 0.6600352381,
				"y": 1.8225021979,
				"z": -0.4053142162,
				"element": "C" 
			},
			{
				"x": -0.0251974827,
				"y": 1.3519542814,
				"z": 0.7454384524,
				"element": "C" 
			},
			{
				"x": -0.0229690137,
				"y": 1.8361778515,
				"z": 2.1137749093,
				"element": "C" 
			},
			{
				"x": 1.0613912951,
				"y": 3.301419566,
				"z": 2.3430745252,
				"element": "Cl" 
			},
			{
				"x": -0.6250334729,
				"y": 1.3958039237,
				"z": 3.0470184067,
				"element": "O" 
			},
			{
				"x": -0.7516684622,
				"y": 0.2549879424,
				"z": 0.265093246,
				"element": "C" 
			},
			{
				"x": -1.8151519289,
				"y": -0.8209039731,
				"z": 1.0689233767,
				"element": "Cl" 
			},
			{
				"x": -0.7107817779,
				"y": -1.8575790409,
				"z": -1.6837415518,
				"element": "H" 
			},
			{
				"x": -0.5462823802,
				"y": -0.6159707756,
				"z": -2.9574400462,
				"element": "H" 
			},
			{
				"x": -2.0825038307,
				"y": -0.7836522664,
				"z": -2.0614017667,
				"element": "H" 
			},
			{
				"x": 1.3356000054,
				"y": 2.662936832,
				"z": -0.4695766203,
				"element": "H" 
			}
		],
		 "valence_orbital": [ 
			{
				"type": "occ",
				"energy": -0.31787,
				"method": "rhf"
			},
			{
				"type": "occ",
				"energy": -0.3172,
				"method": "rhf"
			},
			{
				"type": "occ",
				"energy": -0.29114,
				"method": "rhf"
			},
			{
				"type": "occ",
				"energy": -0.28787,
				"method": "rhf"
			},
			{
				"type": "occ",
				"energy": -0.27329,
				"method": "rhf"
			},
			{
				"type": "unocc",
				"energy": -0.06428,
				"method": "rhf"
			},
			{
				"type": "unocc",
				"energy": -0.00978,
				"method": "rhf"
			},
			{
				"type": "unocc",
				"energy": 0.0059,
				"method": "rhf"
			},
			{
				"type": "unocc",
				"energy": 0.0225,
				"method": "rhf"
			},
			{
				"type": "unocc",
				"energy": 0.08701,
				"method": "rhf"
			}
		],
		"cosmo_sigma_profile": { 
			"-0.025": 0.0,
			"-0.024": 0.0,
			"-0.023": 0.0,
			"-0.022": 0.0,
			"-0.021": 0.0,
			"-0.02": 0.0,
			"-0.019": 0.0,
			"-0.018": 0.0,
			"-0.017": 0.0,
			"-0.016": 0.0,
			"-0.015": 0.0,
			"-0.014": 0.0,
			"-0.013": 0.0,
			"-0.012": 0.0,
			"-0.011": 0.0,
			"-0.01": 0.014134631675,
			"-0.009": 0.868579070189,
			"-0.008": 3.45068505279,
			"-0.007": 8.93210991527,
			"-0.006": 8.58045565039,
			"-0.005": 11.0501400812,
			"-0.004": 15.4618494454,
			"-0.003": 14.39752443,
			"-0.002": 14.6367902169,
			"-0.001": 15.9262039566,
			"0.0": 13.7419273161,
			"0.001": 13.5684505754,
			"0.002": 12.1351529243,
			"0.003": 10.0360875236,
			"0.004": 10.8946111381,
			"0.005": 9.24831574552,
			"0.006": 4.77542882437,
			"0.007": 4.14358991812,
			"0.008": 5.29924075344,
			"0.009": 5.33533292304,
			"0.01": 1.67541828761,
			"0.011": 0.899387655039,
			"0.012": 1.18050231171,
			"0.013": 0.56390555508,
			"0.014": 0.0857344532972,
			"0.015": 0.0,
			"0.016": 0.0,
			"0.017": 0.0,
			"0.018": 0.0,
			"0.019": 0.0,
			"0.02": 0.0,
			"0.021": 0.0,
			"0.022": 0.0,
			"0.023": 0.0,
			"0.024": 0.0,
			"0.025": 0.0
		}
	}
}
