{
	 "smiles": "OC(=O)C1=C(F)C=C(OC(F)F)C=C1F", 
	 "Tm": 380.15, 
	 "num_atms": 19, 
	 "gaussian": { 
		 "optdone": 1, 
		 "sigma_profile": "yes", 
		 "theory": "DFT", 
		 "functional": "B3LYP", 
		 "basiset": "6-31G**", 
		 "properties": { 
			 "R2extent": 3863.5345, 
			 "electric_dipole_moment_norm": 6.04371190908, 
			 "electric_quadrupole_moment_norm": 19.308070871, 
			 "total_energy": -932.274902795, 
			 "HOMO_LUMO_gap": 0.21183, 
			 "cosmo_polarized_energy": -13.76, 
			 "cosmo_cavitation_energy": 25.96, 
			 "cosmo_dispersion_energy": -19.04, 
			 "cosmo_repulsion_energy": 1.4, 
			 "cosmo_total_nonelectrostatic_energy": 8.32, 
			 "SMD_solvation_energy": 7.81 
		},
		"coords": [
			{
				"x": 2.0356170013,
				"y": 2.7155646614,
				"z": -2.1332561889,
				"element": "O" 
			},
			{
				"x": 2.3284196945,
				"y": 2.4966252051,
				"z": -0.8324700625,
				"element": "C" 
			},
			{
				"x": 3.0941616431,
				"y": 3.2276327812,
				"z": -0.2534394736,
				"element": "O" 
			},
			{
				"x": 1.6623464207,
				"y": 1.3192076217,
				"z": -0.1627535756,
				"element": "C" 
			},
			{
				"x": 1.9173551806,
				"y": 1.0258197119,
				"z": 1.1948801775,
				"element": "C" 
			},
			{
				"x": 2.7508143631,
				"y": 1.7869367898,
				"z": 1.9012666092,
				"element": "F" 
			},
			{
				"x": 1.3354773844,
				"y": -0.0412501514,
				"z": 1.8638195817,
				"element": "C" 
			},
			{
				"x": 0.453313617,
				"y": -0.8770671535,
				"z": 1.1816748799,
				"element": "C" 
			},
			{
				"x": -0.0658361072,
				"y": -1.9042004476,
				"z": 1.9415339164,
				"element": "O" 
			},
			{
				"x": -0.9506651662,
				"y": -2.8123523153,
				"z": 1.4087403834,
				"element": "C" 
			},
			{
				"x": -2.0717092032,
				"y": -2.2006527597,
				"z": 0.9495707072,
				"element": "F" 
			},
			{
				"x": -0.4048000801,
				"y": -3.4789597383,
				"z": 0.3602128874,
				"element": "F" 
			},
			{
				"x": 0.1533830347,
				"y": -0.6484227097,
				"z": -0.1628145992,
				"element": "C" 
			},
			{
				"x": 0.765280097,
				"y": 0.4320128364,
				"z": -0.7756924664,
				"element": "C" 
			},
			{
				"x": 0.4420441022,
				"y": 0.615929416,
				"z": -2.0889658291,
				"element": "F" 
			},
			{
				"x": 1.4106474455,
				"y": 2.0563262537,
				"z": -2.4699534031,
				"element": "H" 
			},
			{
				"x": 1.5695080665,
				"y": -0.2165834295,
				"z": 2.9062565913,
				"element": "H" 
			},
			{
				"x": -1.2091764729,
				"y": -3.5155057759,
				"z": 2.2027435055,
				"element": "H" 
			},
			{
				"x": -0.5228810209,
				"y": -1.2674607962,
				"z": -0.7329536411,
				"element": "H" 
			}
		],
		 "valence_orbital": [ 
			{
				"type": "occ",
				"energy": -0.3608,
				"method": "rhf"
			},
			{
				"type": "occ",
				"energy": -0.31311,
				"method": "rhf"
			},
			{
				"type": "occ",
				"energy": -0.27824,
				"method": "rhf"
			},
			{
				"type": "occ",
				"energy": -0.27333,
				"method": "rhf"
			},
			{
				"type": "occ",
				"energy": -0.27312,
				"method": "rhf"
			},
			{
				"type": "unocc",
				"energy": -0.06129,
				"method": "rhf"
			},
			{
				"type": "unocc",
				"energy": -0.03145,
				"method": "rhf"
			},
			{
				"type": "unocc",
				"energy": 0.04095,
				"method": "rhf"
			},
			{
				"type": "unocc",
				"energy": 0.04674,
				"method": "rhf"
			},
			{
				"type": "unocc",
				"energy": 0.09838,
				"method": "rhf"
			}
		],
		"cosmo_sigma_profile": { 
			"-0.025": 0.0,
			"-0.024": 0.0,
			"-0.023": 0.0,
			"-0.022": 0.0,
			"-0.021": 0.0,
			"-0.02": 0.0,
			"-0.019": 0.0,
			"-0.018": 0.0,
			"-0.017": 0.0,
			"-0.016": 0.0,
			"-0.015": 0.0,
			"-0.014": 0.110153168553,
			"-0.013": 0.466014894288,
			"-0.012": 2.59276991666,
			"-0.011": 3.26414228415,
			"-0.01": 4.78690708677,
			"-0.009": 4.24444219069,
			"-0.008": 4.88573097609,
			"-0.007": 4.88176938915,
			"-0.006": 7.01823863066,
			"-0.005": 6.9165269838,
			"-0.004": 7.37003838622,
			"-0.003": 12.8925754669,
			"-0.002": 20.301586089,
			"-0.001": 20.873750909,
			"0.0": 19.6389860713,
			"0.001": 11.9750578136,
			"0.002": 16.2848824768,
			"0.003": 21.8700470418,
			"0.004": 6.57411699314,
			"0.005": 4.08930676329,
			"0.006": 2.11061000121,
			"0.007": 2.78676243967,
			"0.008": 3.40674366974,
			"0.009": 3.62320036645,
			"0.01": 4.3835913541,
			"0.011": 6.85822715426,
			"0.012": 4.52109918915,
			"0.013": 1.19180553156,
			"0.014": 0.0,
			"0.015": 0.0,
			"0.016": 0.0,
			"0.017": 0.0,
			"0.018": 0.0,
			"0.019": 0.0,
			"0.02": 0.0,
			"0.021": 0.0,
			"0.022": 0.0,
			"0.023": 0.0,
			"0.024": 0.0,
			"0.025": 0.0
		}
	}
}
