{
	 "smiles": "CCC=CCC=CCC=CCCCCCCCC(O)=O", 
	 "Tm": 256.65, 
	 "num_atms": 50, 
	 "gaussian": { 
		 "optdone": 1, 
		 "sigma_profile": "yes", 
		 "theory": "DFT", 
		 "functional": "B3LYP", 
		 "basiset": "6-31G**", 
		 "properties": { 
			 "R2extent": 10116.6045, 
			 "electric_dipole_moment_norm": 4.30790110379, 
			 "electric_quadrupole_moment_norm": 27.2061612581, 
			 "total_energy": -854.424340803, 
			 "HOMO_LUMO_gap": 0.24445, 
			 "cosmo_polarized_energy": -16.01, 
			 "cosmo_cavitation_energy": 53.37, 
			 "cosmo_dispersion_energy": -32.7, 
			 "cosmo_repulsion_energy": 2.68, 
			 "cosmo_total_nonelectrostatic_energy": 23.34, 
			 "SMD_solvation_energy": 8.98 
		},
		"coords": [
			{
				"x": 2.7202929731,
				"y": 3.0001543567,
				"z": 1.0105544767,
				"element": "C" 
			},
			{
				"x": 1.7564512874,
				"y": 4.090594606,
				"z": 1.509133027,
				"element": "C" 
			},
			{
				"x": 0.7027300802,
				"y": 3.5563325056,
				"z": 2.4416067778,
				"element": "C" 
			},
			{
				"x": -0.6139988646,
				"y": 3.6029613252,
				"z": 2.2263535083,
				"element": "C" 
			},
			{
				"x": -1.6693270412,
				"y": 3.0562668702,
				"z": 3.1588333477,
				"element": "C" 
			},
			{
				"x": -2.5319887896,
				"y": 2.0021169536,
				"z": 2.5052476808,
				"element": "C" 
			},
			{
				"x": -2.6772841367,
				"y": 0.7495295807,
				"z": 2.9418847246,
				"element": "C" 
			},
			{
				"x": -3.5330229036,
				"y": -0.3059826726,
				"z": 2.2806148161,
				"element": "C" 
			},
			{
				"x": -2.7316935184,
				"y": -1.5151025716,
				"z": 1.8584837282,
				"element": "C" 
			},
			{
				"x": -2.591933098,
				"y": -1.9430302964,
				"z": 0.6013091151,
				"element": "C" 
			},
			{
				"x": -1.7789989767,
				"y": -3.1329665445,
				"z": 0.1664733677,
				"element": "C" 
			},
			{
				"x": -0.616808055,
				"y": -2.7659632913,
				"z": -0.7819539622,
				"element": "C" 
			},
			{
				"x": 0.475019022,
				"y": -1.9220920789,
				"z": -0.1098894452,
				"element": "C" 
			},
			{
				"x": 1.6620692232,
				"y": -1.566406751,
				"z": -1.0199723894,
				"element": "C" 
			},
			{
				"x": 1.3202037651,
				"y": -0.6048785922,
				"z": -2.1671003119,
				"element": "C" 
			},
			{
				"x": 2.5430652622,
				"y": -0.2217292134,
				"z": -3.0106408294,
				"element": "C" 
			},
			{
				"x": 2.2361834819,
				"y": 0.7885766315,
				"z": -4.1322009584,
				"element": "C" 
			},
			{
				"x": 1.1903553802,
				"y": 0.3352658264,
				"z": -5.1453196985,
				"element": "C" 
			},
			{
				"x": 1.3824144112,
				"y": -0.9021304597,
				"z": -5.6852434132,
				"element": "O" 
			},
			{
				"x": 0.2478571784,
				"y": 1.0004863726,
				"z": -5.4932504847,
				"element": "O" 
			},
			{
				"x": 2.1809499833,
				"y": 2.2312751669,
				"z": 0.4474101095,
				"element": "H" 
			},
			{
				"x": 3.2240271298,
				"y": 2.504554873,
				"z": 1.8480454954,
				"element": "H" 
			},
			{
				"x": 3.4929881853,
				"y": 3.4231602336,
				"z": 0.3598036941,
				"element": "H" 
			},
			{
				"x": 1.2763779298,
				"y": 4.5812009719,
				"z": 0.6537446256,
				"element": "H" 
			},
			{
				"x": 2.3411048766,
				"y": 4.8667834096,
				"z": 2.0241070372,
				"element": "H" 
			},
			{
				"x": 1.0696494676,
				"y": 3.0866106733,
				"z": 3.3571271235,
				"element": "H" 
			},
			{
				"x": -0.9820611502,
				"y": 4.064252945,
				"z": 1.3076954586,
				"element": "H" 
			},
			{
				"x": -2.3141922694,
				"y": 3.887094952,
				"z": 3.4884636715,
				"element": "H" 
			},
			{
				"x": -1.1977101868,
				"y": 2.6480994042,
				"z": 4.0602074611,
				"element": "H" 
			},
			{
				"x": -3.0630763765,
				"y": 2.3119632579,
				"z": 1.6031871228,
				"element": "H" 
			},
			{
				"x": -2.1388282568,
				"y": 0.4361030306,
				"z": 3.8383541979,
				"element": "H" 
			},
			{
				"x": -4.3148496293,
				"y": -0.6257527751,
				"z": 2.988174197,
				"element": "H" 
			},
			{
				"x": -4.0487497995,
				"y": 0.1219374905,
				"z": 1.4133283943,
				"element": "H" 
			},
			{
				"x": -2.227112423,
				"y": -2.0580745625,
				"z": 2.6600986237,
				"element": "H" 
			},
			{
				"x": -3.0909183336,
				"y": -1.3911054709,
				"z": -0.1987063983,
				"element": "H" 
			},
			{
				"x": -1.3833953779,
				"y": -3.6537002625,
				"z": 1.048304264,
				"element": "H" 
			},
			{
				"x": -2.4333870077,
				"y": -3.8485540791,
				"z": -0.3514880679,
				"element": "H" 
			},
			{
				"x": -1.0258708223,
				"y": -2.2348073391,
				"z": -1.6512839798,
				"element": "H" 
			},
			{
				"x": -0.1713536278,
				"y": -3.6918345116,
				"z": -1.1709227614,
				"element": "H" 
			},
			{
				"x": 0.030912259,
				"y": -1.0012740288,
				"z": 0.2892600574,
				"element": "H" 
			},
			{
				"x": 0.8548283961,
				"y": -2.4742044464,
				"z": 0.7607506703,
				"element": "H" 
			},
			{
				"x": 2.4526703157,
				"y": -1.1128472083,
				"z": -0.4066044253,
				"element": "H" 
			},
			{
				"x": 2.0932344455,
				"y": -2.4893137865,
				"z": -1.4352449512,
				"element": "H" 
			},
			{
				"x": 0.5594592702,
				"y": -1.0522112728,
				"z": -2.8188614663,
				"element": "H" 
			},
			{
				"x": 0.8699720344,
				"y": 0.3085737677,
				"z": -1.754402546,
				"element": "H" 
			},
			{
				"x": 3.3155125909,
				"y": 0.2129678169,
				"z": -2.3643614469,
				"element": "H" 
			},
			{
				"x": 3.0008447818,
				"y": -1.1332052308,
				"z": -3.4266668333,
				"element": "H" 
			},
			{
				"x": 3.1574578752,
				"y": 1.0194145343,
				"z": -4.6847208745,
				"element": "H" 
			},
			{
				"x": 1.869489063,
				"y": 1.7282980378,
				"z": -3.712797258,
				"element": "H" 
			},
			{
				"x": 2.1766399755,
				"y": -1.3092081477,
				"z": -5.311124272,
				"element": "H" 
			}
		],
		 "valence_orbital": [ 
			{
				"type": "occ",
				"energy": -0.30972,
				"method": "rhf"
			},
			{
				"type": "occ",
				"energy": -0.2637,
				"method": "rhf"
			},
			{
				"type": "occ",
				"energy": -0.2425,
				"method": "rhf"
			},
			{
				"type": "occ",
				"energy": -0.24229,
				"method": "rhf"
			},
			{
				"type": "occ",
				"energy": -0.23319,
				"method": "rhf"
			},
			{
				"type": "unocc",
				"energy": 0.01126,
				"method": "rhf"
			},
			{
				"type": "unocc",
				"energy": 0.01284,
				"method": "rhf"
			},
			{
				"type": "unocc",
				"energy": 0.0314,
				"method": "rhf"
			},
			{
				"type": "unocc",
				"energy": 0.04367,
				"method": "rhf"
			},
			{
				"type": "unocc",
				"energy": 0.05029,
				"method": "rhf"
			}
		],
		"cosmo_sigma_profile": { 
			"-0.025": 0.0,
			"-0.024": 0.0,
			"-0.023": 0.0,
			"-0.022": 0.0,
			"-0.021": 0.0,
			"-0.02": 0.0,
			"-0.019": 0.0,
			"-0.018": 0.190412631188,
			"-0.017": 1.04726277851,
			"-0.016": 0.874108711787,
			"-0.015": 0.989811539237,
			"-0.014": 1.19853771083,
			"-0.013": 1.03142360357,
			"-0.012": 1.11633895199,
			"-0.011": 0.908942348371,
			"-0.01": 1.12230846845,
			"-0.009": 1.23629487491,
			"-0.008": 1.47267327681,
			"-0.007": 2.60802442411,
			"-0.006": 3.60857680769,
			"-0.005": 4.12644694518,
			"-0.004": 18.9582178819,
			"-0.003": 50.6329737084,
			"-0.002": 67.7381171512,
			"-0.001": 61.5236186761,
			"0.0": 53.965843023,
			"0.001": 38.5725200076,
			"0.002": 21.3336226452,
			"0.003": 13.2391350308,
			"0.004": 11.0045678777,
			"0.005": 11.4138834487,
			"0.006": 8.89675093961,
			"0.007": 8.07160735974,
			"0.008": 4.09711230933,
			"0.009": 3.2905112667,
			"0.01": 3.45287338612,
			"0.011": 5.96358477867,
			"0.012": 6.17048646253,
			"0.013": 3.5012980939,
			"0.014": 0.387959812018,
			"0.015": 0.0,
			"0.016": 0.0,
			"0.017": 0.0,
			"0.018": 0.0,
			"0.019": 0.0,
			"0.02": 0.0,
			"0.021": 0.0,
			"0.022": 0.0,
			"0.023": 0.0,
			"0.024": 0.0,
			"0.025": 0.0
		}
	}
}
