{
	 "smiles": "CC1=CC(Cl)=CC(Cl)=C1", 
	 "Tm": 299.15, 
	 "num_atms": 15, 
	 "gaussian": { 
		 "optdone": 1, 
		 "sigma_profile": "yes", 
		 "theory": "DFT", 
		 "functional": "B3LYP", 
		 "basiset": "6-31G**", 
		 "properties": { 
			 "R2extent": 3565.8733, 
			 "electric_dipole_moment_norm": 2.30688998654, 
			 "electric_quadrupole_moment_norm": 2.18866809498, 
			 "total_energy": -1190.75458198, 
			 "HOMO_LUMO_gap": 0.22771, 
			 "cosmo_polarized_energy": -3.86, 
			 "cosmo_cavitation_energy": 22.57, 
			 "cosmo_dispersion_energy": -16.95, 
			 "cosmo_repulsion_energy": 1.4, 
			 "cosmo_total_nonelectrostatic_energy": 7.02, 
			 "SMD_solvation_energy": 3.4 
		},
		"coords": [
			{
				"x": -0.9049968158,
				"y": 0.5167308117,
				"z": -0.6038984416,
				"element": "C" 
			},
			{
				"x": 0.0370905665,
				"y": -0.6636885191,
				"z": -0.5554161938,
				"element": "C" 
			},
			{
				"x": 1.0975973274,
				"y": -0.6885846594,
				"z": 0.3589487585,
				"element": "C" 
			},
			{
				"x": 1.9398843375,
				"y": -1.7971641058,
				"z": 0.4134226583,
				"element": "C" 
			},
			{
				"x": 3.2677277753,
				"y": -1.8122112359,
				"z": 1.5640812736,
				"element": "Cl" 
			},
			{
				"x": 1.7638203725,
				"y": -2.8974379543,
				"z": -0.4239382395,
				"element": "C" 
			},
			{
				"x": 0.7048712311,
				"y": -2.8544339326,
				"z": -1.3292210746,
				"element": "C" 
			},
			{
				"x": 0.4543627786,
				"y": -4.2205649739,
				"z": -2.4054915063,
				"element": "Cl" 
			},
			{
				"x": -0.1534467965,
				"y": -1.7595793073,
				"z": -1.4063386936,
				"element": "C" 
			},
			{
				"x": -1.7489316882,
				"y": 0.3723407635,
				"z": 0.0817296,
				"element": "H" 
			},
			{
				"x": -1.318884806,
				"y": 0.6558797898,
				"z": -1.6064927169,
				"element": "H" 
			},
			{
				"x": -0.4007760805,
				"y": 1.4418020183,
				"z": -0.3108680614,
				"element": "H" 
			},
			{
				"x": 1.2691388334,
				"y": 0.150456833,
				"z": 1.0246498396,
				"element": "H" 
			},
			{
				"x": 2.4269204339,
				"y": -3.7518051904,
				"z": -0.3755214931,
				"element": "H" 
			},
			{
				"x": -0.9642774691,
				"y": -1.7615403376,
				"z": -2.1268457094,
				"element": "H" 
			}
		],
		 "valence_orbital": [ 
			{
				"type": "occ",
				"energy": -0.32224,
				"method": "rhf"
			},
			{
				"type": "occ",
				"energy": -0.31746,
				"method": "rhf"
			},
			{
				"type": "occ",
				"energy": -0.31516,
				"method": "rhf"
			},
			{
				"type": "occ",
				"energy": -0.25742,
				"method": "rhf"
			},
			{
				"type": "occ",
				"energy": -0.2511,
				"method": "rhf"
			},
			{
				"type": "unocc",
				"energy": -0.02339,
				"method": "rhf"
			},
			{
				"type": "unocc",
				"energy": -0.02275,
				"method": "rhf"
			},
			{
				"type": "unocc",
				"energy": 0.00688,
				"method": "rhf"
			},
			{
				"type": "unocc",
				"energy": 0.04916,
				"method": "rhf"
			},
			{
				"type": "unocc",
				"energy": 0.09868,
				"method": "rhf"
			}
		],
		"cosmo_sigma_profile": { 
			"-0.025": 0.0,
			"-0.024": 0.0,
			"-0.023": 0.0,
			"-0.022": 0.0,
			"-0.021": 0.0,
			"-0.02": 0.0,
			"-0.019": 0.0,
			"-0.018": 0.0,
			"-0.017": 0.0,
			"-0.016": 0.0,
			"-0.015": 0.0,
			"-0.014": 0.0,
			"-0.013": 0.0,
			"-0.012": 0.0,
			"-0.011": 0.0,
			"-0.01": 0.0,
			"-0.009": 0.002170628076,
			"-0.008": 1.23202515724,
			"-0.007": 4.40040875608,
			"-0.006": 5.68813208781,
			"-0.005": 10.7793178646,
			"-0.004": 10.3467522681,
			"-0.003": 11.6645745416,
			"-0.002": 13.6675261809,
			"-0.001": 18.9688733957,
			"0.0": 16.4127688118,
			"0.001": 19.9029539717,
			"0.002": 24.123346275,
			"0.003": 19.8822901228,
			"0.004": 19.4160656035,
			"0.005": 8.54834927502,
			"0.006": 0.0,
			"0.007": 0.0,
			"0.008": 0.0,
			"0.009": 0.0,
			"0.01": 0.0,
			"0.011": 0.0,
			"0.012": 0.0,
			"0.013": 0.0,
			"0.014": 0.0,
			"0.015": 0.0,
			"0.016": 0.0,
			"0.017": 0.0,
			"0.018": 0.0,
			"0.019": 0.0,
			"0.02": 0.0,
			"0.021": 0.0,
			"0.022": 0.0,
			"0.023": 0.0,
			"0.024": 0.0,
			"0.025": 0.0
		}
	}
}
