{
	 "smiles": "CC1(C)CC(=O)C(=CC2=CC=C(O2)C2=CC=C(Cl)C=C2)C(=O)C1", 
	 "Tm": 479.15, 
	 "num_atms": 40, 
	 "gaussian": { 
		 "optdone": 1, 
		 "sigma_profile": "yes", 
		 "theory": "DFT", 
		 "functional": "B3LYP", 
		 "basiset": "6-31G**", 
		 "properties": { 
			 "R2extent": 12931.306, 
			 "electric_dipole_moment_norm": 1.14207198109, 
			 "electric_quadrupole_moment_norm": 25.2637995309, 
			 "total_energy": -1420.12270341, 
			 "HOMO_LUMO_gap": 0.11909, 
			 "cosmo_polarized_energy": -15.09, 
			 "cosmo_cavitation_energy": 45.23, 
			 "cosmo_dispersion_energy": -31.98, 
			 "cosmo_repulsion_energy": 2.39, 
			 "cosmo_total_nonelectrostatic_energy": 15.63, 
			 "SMD_solvation_energy": 8.32 
		},
		"coords": [
			{
				"x": 3.5062899418,
				"y": 1.0134404996,
				"z": 1.7754936514,
				"element": "C" 
			},
			{
				"x": 3.6883775229,
				"y": -0.2810072386,
				"z": 0.9571236635,
				"element": "C" 
			},
			{
				"x": 4.8789893906,
				"y": -1.0738746907,
				"z": 1.5220104565,
				"element": "C" 
			},
			{
				"x": 3.9428604431,
				"y": 0.0500337717,
				"z": -0.525012125,
				"element": "C" 
			},
			{
				"x": 2.763900805,
				"y": 0.668512157,
				"z": -1.2638970394,
				"element": "C" 
			},
			{
				"x": 2.9703857418,
				"y": 1.41800311,
				"z": -2.2118707484,
				"element": "O" 
			},
			{
				"x": 1.3732699446,
				"y": 0.3082421114,
				"z": -0.8287650002,
				"element": "C" 
			},
			{
				"x": 0.384105442,
				"y": 0.8233351442,
				"z": -1.634532745,
				"element": "C" 
			},
			{
				"x": -1.0288577822,
				"y": 0.7571906136,
				"z": -1.6884927828,
				"element": "C" 
			},
			{
				"x": -1.8672600566,
				"y": 1.3507617769,
				"z": -2.628201933,
				"element": "C" 
			},
			{
				"x": -3.1877536988,
				"y": 1.0018043067,
				"z": -2.292231492,
				"element": "C" 
			},
			{
				"x": -3.1009334472,
				"y": 0.2057571108,
				"z": -1.1600148967,
				"element": "C" 
			},
			{
				"x": -1.8055128381,
				"y": 0.060571482,
				"z": -0.8022777148,
				"element": "O" 
			},
			{
				"x": -4.0824694417,
				"y": -0.4610320364,
				"z": -0.320533378,
				"element": "C" 
			},
			{
				"x": -5.4514040833,
				"y": -0.423021454,
				"z": -0.6395655571,
				"element": "C" 
			},
			{
				"x": -6.3875452187,
				"y": -1.0603777659,
				"z": 0.166993088,
				"element": "C" 
			},
			{
				"x": -5.9533317004,
				"y": -1.7445992509,
				"z": 1.3041982138,
				"element": "C" 
			},
			{
				"x": -7.1312186268,
				"y": -2.5507496797,
				"z": 2.3249962388,
				"element": "Cl" 
			},
			{
				"x": -4.5998649113,
				"y": -1.7970259015,
				"z": 1.6413826846,
				"element": "C" 
			},
			{
				"x": -3.6675565593,
				"y": -1.1565996173,
				"z": 0.831529273,
				"element": "C" 
			},
			{
				"x": 1.1737987674,
				"y": -0.5137857652,
				"z": 0.3931491154,
				"element": "C" 
			},
			{
				"x": 0.0764315893,
				"y": -0.7103855528,
				"z": 0.900439177,
				"element": "O" 
			},
			{
				"x": 2.412925126,
				"y": -1.1444513353,
				"z": 1.0232366578,
				"element": "C" 
			},
			{
				"x": 4.4104143649,
				"y": 1.6302370811,
				"z": 1.730764233,
				"element": "H" 
			},
			{
				"x": 2.6726318968,
				"y": 1.6206529241,
				"z": 1.407058568,
				"element": "H" 
			},
			{
				"x": 3.3079566565,
				"y": 0.7825979959,
				"z": 2.8277141019,
				"element": "H" 
			},
			{
				"x": 5.03607781,
				"y": -2.0062731717,
				"z": 0.9680164817,
				"element": "H" 
			},
			{
				"x": 5.8033329329,
				"y": -0.4883711635,
				"z": 1.4627830577,
				"element": "H" 
			},
			{
				"x": 4.7136412264,
				"y": -1.3319913331,
				"z": 2.5739233008,
				"element": "H" 
			},
			{
				"x": 4.1913911159,
				"y": -0.8782785522,
				"z": -1.0621917886,
				"element": "H" 
			},
			{
				"x": 4.7969228561,
				"y": 0.7218654201,
				"z": -0.655944565,
				"element": "H" 
			},
			{
				"x": 0.7880195529,
				"y": 1.4206192282,
				"z": -2.4524117224,
				"element": "H" 
			},
			{
				"x": -1.5403816736,
				"y": 1.9643473522,
				"z": -3.4561512549,
				"element": "H" 
			},
			{
				"x": -4.0917303154,
				"y": 1.2965251251,
				"z": -2.8042382072,
				"element": "H" 
			},
			{
				"x": -5.7903026527,
				"y": 0.1047560494,
				"z": -1.5255933102,
				"element": "H" 
			},
			{
				"x": -7.4427461654,
				"y": -1.0311258023,
				"z": -0.0801532098,
				"element": "H" 
			},
			{
				"x": -4.2819510989,
				"y": -2.3319595427,
				"z": 2.5292811759,
				"element": "H" 
			},
			{
				"x": -2.6124924778,
				"y": -1.1857550811,
				"z": 1.0844274861,
				"element": "H" 
			},
			{
				"x": 2.5961706976,
				"y": -2.0917028953,
				"z": 0.4929049073,
				"element": "H" 
			},
			{
				"x": 2.1503189236,
				"y": -1.4041854298,
				"z": 2.053253938,
				"element": "H" 
			}
		],
		 "valence_orbital": [ 
			{
				"type": "occ",
				"energy": -0.2724,
				"method": "rhf"
			},
			{
				"type": "occ",
				"energy": -0.26512,
				"method": "rhf"
			},
			{
				"type": "occ",
				"energy": -0.24822,
				"method": "rhf"
			},
			{
				"type": "occ",
				"energy": -0.23224,
				"method": "rhf"
			},
			{
				"type": "occ",
				"energy": -0.21425,
				"method": "rhf"
			},
			{
				"type": "unocc",
				"energy": -0.09516,
				"method": "rhf"
			},
			{
				"type": "unocc",
				"energy": -0.03598,
				"method": "rhf"
			},
			{
				"type": "unocc",
				"energy": -0.0209,
				"method": "rhf"
			},
			{
				"type": "unocc",
				"energy": -0.00938,
				"method": "rhf"
			},
			{
				"type": "unocc",
				"energy": 0.02506,
				"method": "rhf"
			}
		],
		"cosmo_sigma_profile": { 
			"-0.025": 0.0,
			"-0.024": 0.0,
			"-0.023": 0.0,
			"-0.022": 0.0,
			"-0.021": 0.0,
			"-0.02": 0.0,
			"-0.019": 0.0,
			"-0.018": 0.0,
			"-0.017": 0.0,
			"-0.016": 0.0,
			"-0.015": 0.0,
			"-0.014": 0.0,
			"-0.013": 0.0,
			"-0.012": 0.0,
			"-0.011": 0.0,
			"-0.01": 0.222411217158,
			"-0.009": 4.20183967406,
			"-0.008": 7.8619180378,
			"-0.007": 9.42089934898,
			"-0.006": 15.3203721428,
			"-0.005": 15.3688135031,
			"-0.004": 17.5085793453,
			"-0.003": 35.4429888356,
			"-0.002": 29.0583023966,
			"-0.001": 33.3943895227,
			"0.0": 42.2866533703,
			"0.001": 45.0483518499,
			"0.002": 30.1060920509,
			"0.003": 19.991953439,
			"0.004": 14.7413667975,
			"0.005": 6.86946621363,
			"0.006": 3.74256365544,
			"0.007": 4.09507154739,
			"0.008": 4.31363429656,
			"0.009": 4.003485592,
			"0.01": 4.48576377533,
			"0.011": 4.51463316967,
			"0.012": 5.56180260589,
			"0.013": 3.65558343566,
			"0.014": 0.948047774741,
			"0.015": 0.0,
			"0.016": 0.0,
			"0.017": 0.0,
			"0.018": 0.0,
			"0.019": 0.0,
			"0.02": 0.0,
			"0.021": 0.0,
			"0.022": 0.0,
			"0.023": 0.0,
			"0.024": 0.0,
			"0.025": 0.0
		}
	}
}
