{
	 "smiles": "ClC1=C(Cl)C=C(C=CC(=O)C=CC2=CC(Cl)=C(Cl)C=C2)C=C1", 
	 "Tm": 449.15, 
	 "num_atms": 32, 
	 "gaussian": { 
		 "optdone": 1, 
		 "sigma_profile": "yes", 
		 "theory": "DFT", 
		 "functional": "B3LYP", 
		 "basiset": "6-31G**", 
		 "properties": { 
			 "R2extent": 11925.8006, 
			 "electric_dipole_moment_norm": 2.89070689797, 
			 "electric_quadrupole_moment_norm": 22.7431303421, 
			 "total_energy": -2569.78691192, 
			 "HOMO_LUMO_gap": 0.14977, 
			 "cosmo_polarized_energy": -13.84, 
			 "cosmo_cavitation_energy": 45.4, 
			 "cosmo_dispersion_energy": -30.84, 
			 "cosmo_repulsion_energy": 2.42, 
			 "cosmo_total_nonelectrostatic_energy": 16.98, 
			 "SMD_solvation_energy": 7.01 
		},
		"coords": [
			{
				"x": -0.6478669163,
				"y": -5.4889272141,
				"z": -1.2474894512,
				"element": "Cl" 
			},
			{
				"x": -0.3293209101,
				"y": -3.7766990429,
				"z": -1.2656994122,
				"element": "C" 
			},
			{
				"x": -1.307768907,
				"y": -2.8502683938,
				"z": -1.6494238901,
				"element": "C" 
			},
			{
				"x": -2.9063142686,
				"y": -3.3582032393,
				"z": -2.1330259355,
				"element": "Cl" 
			},
			{
				"x": -1.0084403952,
				"y": -1.4889422264,
				"z": -1.6484266315,
				"element": "C" 
			},
			{
				"x": 0.2594487734,
				"y": -1.01878125,
				"z": -1.2710218975,
				"element": "C" 
			},
			{
				"x": 0.5016859257,
				"y": 0.4243189787,
				"z": -1.2960037917,
				"element": "C" 
			},
			{
				"x": 1.6556954852,
				"y": 1.059593179,
				"z": -1.0092719637,
				"element": "C" 
			},
			{
				"x": 1.8536017406,
				"y": 2.5213621548,
				"z": -1.0923520873,
				"element": "C" 
			},
			{
				"x": 2.9782606036,
				"y": 2.9989703996,
				"z": -0.9773896244,
				"element": "O" 
			},
			{
				"x": 0.6991805403,
				"y": 3.4371010567,
				"z": -1.3953202909,
				"element": "C" 
			},
			{
				"x": -0.3774310083,
				"y": 3.7090721329,
				"z": -0.6372837787,
				"element": "C" 
			},
			{
				"x": -0.7235918686,
				"y": 3.1872088097,
				"z": 0.6960342196,
				"element": "C" 
			},
			{
				"x": 0.2479157878,
				"y": 2.7961871323,
				"z": 1.6308700016,
				"element": "C" 
			},
			{
				"x": -0.1188276996,
				"y": 2.3076522016,
				"z": 2.8839515679,
				"element": "C" 
			},
			{
				"x": 1.1411643907,
				"y": 1.8418904801,
				"z": 4.0001337995,
				"element": "Cl" 
			},
			{
				"x": -1.4737606116,
				"y": 2.2099579181,
				"z": 3.2324235163,
				"element": "C" 
			},
			{
				"x": -1.9781995285,
				"y": 1.6052710182,
				"z": 4.7886749997,
				"element": "Cl" 
			},
			{
				"x": -2.4472430532,
				"y": 2.6198880066,
				"z": 2.3179649992,
				"element": "C" 
			},
			{
				"x": -2.0758302266,
				"y": 3.1101546971,
				"z": 1.0718237599,
				"element": "C" 
			},
			{
				"x": 1.2301558798,
				"y": -1.9635642181,
				"z": -0.8867818394,
				"element": "C" 
			},
			{
				"x": 0.9381675647,
				"y": -3.3193818673,
				"z": -0.8850479469,
				"element": "C" 
			},
			{
				"x": -1.7792386997,
				"y": -0.7866807737,
				"z": -1.9482027285,
				"element": "H" 
			},
			{
				"x": -0.3531814812,
				"y": 1.0323580113,
				"z": -1.5844611119,
				"element": "H" 
			},
			{
				"x": 2.5604691674,
				"y": 0.5217445853,
				"z": -0.7377140766,
				"element": "H" 
			},
			{
				"x": 0.827146487,
				"y": 3.9958057363,
				"z": -2.320620926,
				"element": "H" 
			},
			{
				"x": -1.0965228349,
				"y": 4.4210582894,
				"z": -1.041267296,
				"element": "H" 
			},
			{
				"x": 1.302387587,
				"y": 2.8987545036,
				"z": 1.4047607946,
				"element": "H" 
			},
			{
				"x": -3.4927942954,
				"y": 2.5528936177,
				"z": 2.5973338074,
				"element": "H" 
			},
			{
				"x": -2.8457019771,
				"y": 3.4286285874,
				"z": 0.3748220249,
				"element": "H" 
			},
			{
				"x": 2.2195931099,
				"y": -1.639556414,
				"z": -0.5835173781,
				"element": "H" 
			},
			{
				"x": 1.687761639,
				"y": -4.043966857,
				"z": -0.5871714326,
				"element": "H" 
			}
		],
		 "valence_orbital": [ 
			{
				"type": "occ",
				"energy": -0.27384,
				"method": "rhf"
			},
			{
				"type": "occ",
				"energy": -0.2683,
				"method": "rhf"
			},
			{
				"type": "occ",
				"energy": -0.26171,
				"method": "rhf"
			},
			{
				"type": "occ",
				"energy": -0.24801,
				"method": "rhf"
			},
			{
				"type": "occ",
				"energy": -0.2415,
				"method": "rhf"
			},
			{
				"type": "unocc",
				"energy": -0.09173,
				"method": "rhf"
			},
			{
				"type": "unocc",
				"energy": -0.06025,
				"method": "rhf"
			},
			{
				"type": "unocc",
				"energy": -0.03626,
				"method": "rhf"
			},
			{
				"type": "unocc",
				"energy": -0.03119,
				"method": "rhf"
			},
			{
				"type": "unocc",
				"energy": -0.0133,
				"method": "rhf"
			}
		],
		"cosmo_sigma_profile": { 
			"-0.025": 0.0,
			"-0.024": 0.0,
			"-0.023": 0.0,
			"-0.022": 0.0,
			"-0.021": 0.0,
			"-0.02": 0.0,
			"-0.019": 0.0,
			"-0.018": 0.0,
			"-0.017": 0.0,
			"-0.016": 0.0,
			"-0.015": 0.0,
			"-0.014": 0.0,
			"-0.013": 0.0,
			"-0.012": 0.0,
			"-0.011": 0.0,
			"-0.01": 0.292884688615,
			"-0.009": 3.57198916559,
			"-0.008": 9.94473356736,
			"-0.007": 15.8508767472,
			"-0.006": 16.4945735609,
			"-0.005": 14.5687909658,
			"-0.004": 15.2667854453,
			"-0.003": 19.8188829384,
			"-0.002": 22.4148910961,
			"-0.001": 30.6231710043,
			"0.0": 43.4207671917,
			"0.001": 53.6129802225,
			"0.002": 37.0312808336,
			"0.003": 32.2520893304,
			"0.004": 31.1723142023,
			"0.005": 10.2959698219,
			"0.006": 1.8565289359,
			"0.007": 0.444454616088,
			"0.008": 1.65403736812,
			"0.009": 1.95673410388,
			"0.01": 1.52026085873,
			"0.011": 3.12157384078,
			"0.012": 4.36398067271,
			"0.013": 2.97414070384,
			"0.014": 0.15909070288,
			"0.015": 0.0,
			"0.016": 0.0,
			"0.017": 0.0,
			"0.018": 0.0,
			"0.019": 0.0,
			"0.02": 0.0,
			"0.021": 0.0,
			"0.022": 0.0,
			"0.023": 0.0,
			"0.024": 0.0,
			"0.025": 0.0
		}
	}
}
