{
	 "smiles": "OC(=O)C(CC1=CC=CC=C1)NC(=O)C12CC3CC(CC(C3)C1)C2", 
	 "Tm": 436.15, 
	 "num_atms": 49, 
	 "gaussian": { 
		 "optdone": 1, 
		 "sigma_profile": "yes", 
		 "theory": "DFT", 
		 "functional": "B3LYP", 
		 "basiset": "6-31G**", 
		 "properties": { 
			 "R2extent": 8586.4859, 
			 "electric_dipole_moment_norm": 3.59363609037, 
			 "electric_quadrupole_moment_norm": 11.1943647779, 
			 "total_energy": -1057.68520942, 
			 "HOMO_LUMO_gap": 0.23064, 
			 "cosmo_polarized_energy": -18.78, 
			 "cosmo_cavitation_energy": 47.91, 
			 "cosmo_dispersion_energy": -31.63, 
			 "cosmo_repulsion_energy": 2.41, 
			 "cosmo_total_nonelectrostatic_energy": 18.69, 
			 "SMD_solvation_energy": 8.2 
		},
		"coords": [
			{
				"x": 0.9815692689,
				"y": -0.132186326,
				"z": -3.7281041362,
				"element": "O" 
			},
			{
				"x": -0.3626311242,
				"y": -0.2834746824,
				"z": -3.7301762319,
				"element": "C" 
			},
			{
				"x": -0.9954168382,
				"y": -0.4979667653,
				"z": -4.7407942256,
				"element": "O" 
			},
			{
				"x": -0.9948796253,
				"y": -0.1627293882,
				"z": -2.3430598143,
				"element": "C" 
			},
			{
				"x": -1.9733207283,
				"y": -1.3470473144,
				"z": -2.119524716,
				"element": "C" 
			},
			{
				"x": -2.8091470431,
				"y": -1.2007410678,
				"z": -0.8681884234,
				"element": "C" 
			},
			{
				"x": -2.4716846966,
				"y": -1.8791069699,
				"z": 0.3095453837,
				"element": "C" 
			},
			{
				"x": -3.2356200799,
				"y": -1.7284585925,
				"z": 1.4687170828,
				"element": "C" 
			},
			{
				"x": -4.3523773633,
				"y": -0.8918142118,
				"z": 1.4656861361,
				"element": "C" 
			},
			{
				"x": -4.7004062223,
				"y": -0.2106806121,
				"z": 0.2971202905,
				"element": "C" 
			},
			{
				"x": -3.9351564973,
				"y": -0.3658690913,
				"z": -0.8582643392,
				"element": "C" 
			},
			{
				"x": -0.0333578539,
				"y": -0.0162332828,
				"z": -1.2738541565,
				"element": "N" 
			},
			{
				"x": 0.0892515667,
				"y": 1.1548383257,
				"z": -0.5705712781,
				"element": "C" 
			},
			{
				"x": -0.6345211083,
				"y": 2.1209784001,
				"z": -0.7940352042,
				"element": "O" 
			},
			{
				"x": 1.1509119521,
				"y": 1.2063295285,
				"z": 0.5394551772,
				"element": "C" 
			},
			{
				"x": 0.4056727875,
				"y": 1.4199465734,
				"z": 1.8875070314,
				"element": "C" 
			},
			{
				"x": 1.4178294284,
				"y": 1.5950677352,
				"z": 3.0361931608,
				"element": "C" 
			},
			{
				"x": 2.3000079591,
				"y": 0.3341895059,
				"z": 3.1414530595,
				"element": "C" 
			},
			{
				"x": 3.0596994306,
				"y": 0.1261925736,
				"z": 1.8152179244,
				"element": "C" 
			},
			{
				"x": 3.9506447946,
				"y": 1.3533533307,
				"z": 1.5343847953,
				"element": "C" 
			},
			{
				"x": 3.0689017847,
				"y": 2.6143694184,
				"z": 1.4282446456,
				"element": "C" 
			},
			{
				"x": 2.3080940345,
				"y": 2.8230638546,
				"z": 2.754065233,
				"element": "C" 
			},
			{
				"x": 2.0596528529,
				"y": 2.4383175618,
				"z": 0.2772371649,
				"element": "C" 
			},
			{
				"x": 2.0448018688,
				"y": -0.0510434095,
				"z": 0.6632528354,
				"element": "C" 
			},
			{
				"x": 1.2563509385,
				"y": -0.2124336577,
				"z": -4.6576267363,
				"element": "H" 
			},
			{
				"x": -1.5640061989,
				"y": 0.7739871698,
				"z": -2.3487086268,
				"element": "H" 
			},
			{
				"x": -2.6087457512,
				"y": -1.4095586212,
				"z": -3.0075533489,
				"element": "H" 
			},
			{
				"x": -1.3962782537,
				"y": -2.2795291693,
				"z": -2.0771913936,
				"element": "H" 
			},
			{
				"x": -1.6075990751,
				"y": -2.5393644212,
				"z": 0.3164775145,
				"element": "H" 
			},
			{
				"x": -2.9606065349,
				"y": -2.2678261726,
				"z": 2.3709354867,
				"element": "H" 
			},
			{
				"x": -4.949499603,
				"y": -0.7737101295,
				"z": 2.3653074226,
				"element": "H" 
			},
			{
				"x": -5.5701811896,
				"y": 0.439974236,
				"z": 0.2844308879,
				"element": "H" 
			},
			{
				"x": -4.214876447,
				"y": 0.1662988565,
				"z": -1.7644616526,
				"element": "H" 
			},
			{
				"x": 0.6431316652,
				"y": -0.7491224801,
				"z": -1.1310984094,
				"element": "H" 
			},
			{
				"x": -0.2500355856,
				"y": 0.5612749528,
				"z": 2.0840773526,
				"element": "H" 
			},
			{
				"x": -0.2389670199,
				"y": 2.2998562681,
				"z": 1.7957871771,
				"element": "H" 
			},
			{
				"x": 0.8715220547,
				"y": 1.7428072344,
				"z": 3.9764065657,
				"element": "H" 
			},
			{
				"x": 1.6793424635,
				"y": -0.544144541,
				"z": 3.3634165715,
				"element": "H" 
			},
			{
				"x": 3.0136185658,
				"y": 0.437735355,
				"z": 3.9691558284,
				"element": "H" 
			},
			{
				"x": 3.6820755588,
				"y": -0.7751185668,
				"z": 1.8829260513,
				"element": "H" 
			},
			{
				"x": 4.6885010055,
				"y": 1.4718021391,
				"z": 2.3384992753,
				"element": "H" 
			},
			{
				"x": 4.5143301363,
				"y": 1.2064724029,
				"z": 0.6034582465,
				"element": "H" 
			},
			{
				"x": 3.699057072,
				"y": 3.4889445238,
				"z": 1.2226320384,
				"element": "H" 
			},
			{
				"x": 3.0189524552,
				"y": 2.9713676841,
				"z": 3.5776375128,
				"element": "H" 
			},
			{
				"x": 1.6917167823,
				"y": 3.7291921932,
				"z": 2.6956836647,
				"element": "H" 
			},
			{
				"x": 2.5919935895,
				"y": 2.306262304,
				"z": -0.6744655466,
				"element": "H" 
			},
			{
				"x": 1.4265371471,
				"y": 3.3242900769,
				"z": 0.1692668263,
				"element": "H" 
			},
			{
				"x": 2.5883660228,
				"y": -0.2262706107,
				"z": -0.2760326075,
				"element": "H" 
			},
			{
				"x": 1.4282816535,
				"y": -0.9387821203,
				"z": 0.8625325043,
				"element": "H" 
			}
		],
		 "valence_orbital": [ 
			{
				"type": "occ",
				"energy": -0.27943,
				"method": "rhf"
			},
			{
				"type": "occ",
				"energy": -0.25255,
				"method": "rhf"
			},
			{
				"type": "occ",
				"energy": -0.2466,
				"method": "rhf"
			},
			{
				"type": "occ",
				"energy": -0.24069,
				"method": "rhf"
			},
			{
				"type": "occ",
				"energy": -0.23884,
				"method": "rhf"
			},
			{
				"type": "unocc",
				"energy": -0.0082,
				"method": "rhf"
			},
			{
				"type": "unocc",
				"energy": 0.00047,
				"method": "rhf"
			},
			{
				"type": "unocc",
				"energy": 0.00879,
				"method": "rhf"
			},
			{
				"type": "unocc",
				"energy": 0.03026,
				"method": "rhf"
			},
			{
				"type": "unocc",
				"energy": 0.06046,
				"method": "rhf"
			}
		],
		"cosmo_sigma_profile": { 
			"-0.025": 0.0,
			"-0.024": 0.0,
			"-0.023": 0.0,
			"-0.022": 0.0,
			"-0.021": 0.0,
			"-0.02": 0.0,
			"-0.019": 0.137585684055,
			"-0.018": 0.631355980185,
			"-0.017": 0.991222462092,
			"-0.016": 1.26001758269,
			"-0.015": 0.460697491182,
			"-0.014": 0.488703291436,
			"-0.013": 1.56288024131,
			"-0.012": 1.41853728311,
			"-0.011": 1.63062646775,
			"-0.01": 2.25387067017,
			"-0.009": 1.53233559918,
			"-0.008": 2.92109500114,
			"-0.007": 3.05700312175,
			"-0.006": 8.69553176073,
			"-0.005": 18.940502669,
			"-0.004": 19.1991896441,
			"-0.003": 25.6153316979,
			"-0.002": 49.8269657483,
			"-0.001": 49.1527421202,
			"0.0": 46.6024233936,
			"0.001": 33.8470005595,
			"0.002": 16.9400224136,
			"0.003": 12.937290857,
			"0.004": 13.8969858964,
			"0.005": 11.6605981817,
			"0.006": 12.5913013777,
			"0.007": 6.47359880057,
			"0.008": 3.6426228311,
			"0.009": 3.72112750461,
			"0.01": 3.22809742672,
			"0.011": 5.53426981549,
			"0.012": 5.23047752095,
			"0.013": 2.35671612382,
			"0.014": 3.85225834636,
			"0.015": 0.465974537746,
			"0.016": 0.0,
			"0.017": 0.0,
			"0.018": 0.0,
			"0.019": 0.0,
			"0.02": 0.0,
			"0.021": 0.0,
			"0.022": 0.0,
			"0.023": 0.0,
			"0.024": 0.0,
			"0.025": 0.0
		}
	}
}
