{
	 "smiles": "SC1=NN=C(NC2CCCCC2)S1", 
	 "Tm": 418.15, 
	 "num_atms": 26, 
	 "gaussian": { 
		 "optdone": 1, 
		 "sigma_profile": "yes", 
		 "theory": "DFT", 
		 "functional": "B3LYP", 
		 "basiset": "6-31G**", 
		 "properties": { 
			 "R2extent": 5690.1834, 
			 "electric_dipole_moment_norm": 3.90459396096, 
			 "electric_quadrupole_moment_norm": 10.3611422049, 
			 "total_energy": -1273.28480812, 
			 "HOMO_LUMO_gap": 0.19374, 
			 "cosmo_polarized_energy": -11.69, 
			 "cosmo_cavitation_energy": 31.27, 
			 "cosmo_dispersion_energy": -23.86, 
			 "cosmo_repulsion_energy": 1.82, 
			 "cosmo_total_nonelectrostatic_energy": 9.23, 
			 "SMD_solvation_energy": 1.17 
		},
		"coords": [
			{
				"x": 0.4776894672,
				"y": -5.6444173167,
				"z": 2.3061518004,
				"element": "S" 
			},
			{
				"x": 0.6803739589,
				"y": -3.8872577744,
				"z": 2.3666934714,
				"element": "C" 
			},
			{
				"x": 1.6589982132,
				"y": -3.2729973447,
				"z": 2.949832757,
				"element": "N" 
			},
			{
				"x": 1.5967794447,
				"y": -1.9065564565,
				"z": 2.8297500578,
				"element": "N" 
			},
			{
				"x": 0.5450932314,
				"y": -1.499057026,
				"z": 2.168129877,
				"element": "C" 
			},
			{
				"x": 0.2208004401,
				"y": -0.1806711975,
				"z": 2.0100594361,
				"element": "N" 
			},
			{
				"x": -0.5479445988,
				"y": 0.3353404909,
				"z": 0.8738596137,
				"element": "C" 
			},
			{
				"x": -1.096807297,
				"y": 1.7295091737,
				"z": 1.2002119384,
				"element": "C" 
			},
			{
				"x": -2.1044001916,
				"y": 2.196810464,
				"z": 0.1213603091,
				"element": "C" 
			},
			{
				"x": -1.7981137777,
				"y": 1.604120317,
				"z": -1.2747939616,
				"element": "C" 
			},
			{
				"x": -0.2907218746,
				"y": 1.3901905864,
				"z": -1.4661191477,
				"element": "C" 
			},
			{
				"x": 0.2672997667,
				"y": 0.3664898451,
				"z": -0.446833323,
				"element": "C" 
			},
			{
				"x": -0.4923748608,
				"y": -2.8159053396,
				"z": 1.5843011759,
				"element": "S" 
			},
			{
				"x": 1.6241252403,
				"y": -5.8731016602,
				"z": 2.9775373617,
				"element": "H" 
			},
			{
				"x": 0.9664380644,
				"y": 0.4222109243,
				"z": 2.3420888845,
				"element": "H" 
			},
			{
				"x": -1.4055542356,
				"y": -0.3391437019,
				"z": 0.7544749974,
				"element": "H" 
			},
			{
				"x": -0.2518189333,
				"y": 2.4300484685,
				"z": 1.2565466426,
				"element": "H" 
			},
			{
				"x": -1.5624896825,
				"y": 1.7212895775,
				"z": 2.1904482317,
				"element": "H" 
			},
			{
				"x": -2.0889521405,
				"y": 3.2913389369,
				"z": 0.0728792188,
				"element": "H" 
			},
			{
				"x": -3.1211568015,
				"y": 1.9177837638,
				"z": 0.4204936132,
				"element": "H" 
			},
			{
				"x": -2.1969591543,
				"y": 2.2600070916,
				"z": -2.0560544813,
				"element": "H" 
			},
			{
				"x": -2.3136183945,
				"y": 0.6421092662,
				"z": -1.3944759312,
				"element": "H" 
			},
			{
				"x": -0.0725659373,
				"y": 1.058567754,
				"z": -2.4868030558,
				"element": "H" 
			},
			{
				"x": 0.2212405704,
				"y": 2.3531065536,
				"z": -1.3426285034,
				"element": "H" 
			},
			{
				"x": 1.3081307188,
				"y": 0.6134988985,
				"z": -0.2048846772,
				"element": "H" 
			},
			{
				"x": 0.2830087638,
				"y": -0.6397142944,
				"z": -0.8802263056,
				"element": "H" 
			}
		],
		 "valence_orbital": [ 
			{
				"type": "occ",
				"energy": -0.29764,
				"method": "rhf"
			},
			{
				"type": "occ",
				"energy": -0.29446,
				"method": "rhf"
			},
			{
				"type": "occ",
				"energy": -0.26788,
				"method": "rhf"
			},
			{
				"type": "occ",
				"energy": -0.25988,
				"method": "rhf"
			},
			{
				"type": "occ",
				"energy": -0.20995,
				"method": "rhf"
			},
			{
				"type": "unocc",
				"energy": -0.01621,
				"method": "rhf"
			},
			{
				"type": "unocc",
				"energy": -0.01053,
				"method": "rhf"
			},
			{
				"type": "unocc",
				"energy": 0.01988,
				"method": "rhf"
			},
			{
				"type": "unocc",
				"energy": 0.04084,
				"method": "rhf"
			},
			{
				"type": "unocc",
				"energy": 0.04767,
				"method": "rhf"
			}
		],
		"cosmo_sigma_profile": { 
			"-0.025": 0.0,
			"-0.024": 0.0,
			"-0.023": 0.0,
			"-0.022": 0.0,
			"-0.021": 0.0,
			"-0.02": 0.0,
			"-0.019": 0.0,
			"-0.018": 0.0,
			"-0.017": 0.0,
			"-0.016": 0.0,
			"-0.015": 0.0,
			"-0.014": 0.201274503593,
			"-0.013": 0.945547887347,
			"-0.012": 1.94353552071,
			"-0.011": 2.37222217383,
			"-0.01": 2.2409115326,
			"-0.009": 2.69053856143,
			"-0.008": 2.52660404486,
			"-0.007": 2.04736031263,
			"-0.006": 3.8473856175,
			"-0.005": 8.41552337446,
			"-0.004": 8.44602789446,
			"-0.003": 20.8056612771,
			"-0.002": 34.2706054753,
			"-0.001": 36.15424755,
			"0.0": 34.0755299141,
			"0.001": 27.014904686,
			"0.002": 12.2075406026,
			"0.003": 10.2141893455,
			"0.004": 5.67488152237,
			"0.005": 6.45766984394,
			"0.006": 4.4421282536,
			"0.007": 3.62083350471,
			"0.008": 2.11234235943,
			"0.009": 1.82958188333,
			"0.01": 2.67403018626,
			"0.011": 2.54234734562,
			"0.012": 3.83995864243,
			"0.013": 2.75038235647,
			"0.014": 2.02830275262,
			"0.015": 1.2339625942,
			"0.016": 0.11695562811,
			"0.017": 0.0,
			"0.018": 0.0,
			"0.019": 0.0,
			"0.02": 0.0,
			"0.021": 0.0,
			"0.022": 0.0,
			"0.023": 0.0,
			"0.024": 0.0,
			"0.025": 0.0
		}
	}
}
