{
	 "smiles": "O=C1C=CC(=O)N1C1=CC2=C(C=CC=C2)C=C1", 
	 "Tm": 395.15, 
	 "num_atms": 26, 
	 "gaussian": { 
		 "optdone": 1, 
		 "sigma_profile": "yes", 
		 "theory": "DFT", 
		 "functional": "B3LYP", 
		 "basiset": "6-31G**", 
		 "properties": { 
			 "R2extent": 4827.6869, 
			 "electric_dipole_moment_norm": 1.22809964579, 
			 "electric_quadrupole_moment_norm": 22.8749595486, 
			 "total_energy": -744.121901757, 
			 "HOMO_LUMO_gap": 0.11354, 
			 "cosmo_polarized_energy": -11.71, 
			 "cosmo_cavitation_energy": 31.0, 
			 "cosmo_dispersion_energy": -22.6, 
			 "cosmo_repulsion_energy": 1.7, 
			 "cosmo_total_nonelectrostatic_energy": 10.1, 
			 "SMD_solvation_energy": 6.55 
		},
		"coords": [
			{
				"x": 1.9010013007,
				"y": 3.4473964489,
				"z": -1.941436995,
				"element": "O" 
			},
			{
				"x": 2.6972907032,
				"y": 2.6642758518,
				"z": -1.4697295595,
				"element": "C" 
			},
			{
				"x": 4.1929580977,
				"y": 2.7276874834,
				"z": -1.5579887867,
				"element": "C" 
			},
			{
				"x": 4.7096600623,
				"y": 1.6817157027,
				"z": -0.9097538459,
				"element": "C" 
			},
			{
				"x": 3.5908167471,
				"y": 0.8530402463,
				"z": -0.3526012323,
				"element": "C" 
			},
			{
				"x": 3.6863495231,
				"y": -0.1730912924,
				"z": 0.2851876035,
				"element": "O" 
			},
			{
				"x": 2.3933612133,
				"y": 1.505003479,
				"z": -0.7234803916,
				"element": "N" 
			},
			{
				"x": 1.0775181708,
				"y": 1.0626478706,
				"z": -0.3900749365,
				"element": "C" 
			},
			{
				"x": 0.7739109959,
				"y": -0.2831508263,
				"z": -0.399028804,
				"element": "C" 
			},
			{
				"x": -0.5247545986,
				"y": -0.7297011483,
				"z": -0.0426791844,
				"element": "C" 
			},
			{
				"x": -1.5262869027,
				"y": 0.2324018766,
				"z": 0.3077966633,
				"element": "C" 
			},
			{
				"x": -2.8268747514,
				"y": -0.2220732044,
				"z": 0.6532186458,
				"element": "C" 
			},
			{
				"x": -3.1262932647,
				"y": -1.566012594,
				"z": 0.6525280033,
				"element": "C" 
			},
			{
				"x": -2.1359271583,
				"y": -2.5183437926,
				"z": 0.3057042586,
				"element": "C" 
			},
			{
				"x": -0.8657931665,
				"y": -2.1098831334,
				"z": -0.0331379271,
				"element": "C" 
			},
			{
				"x": -1.1755824928,
				"y": 1.6087804245,
				"z": 0.2987303003,
				"element": "C" 
			},
			{
				"x": 0.0924746468,
				"y": 2.0221786256,
				"z": -0.0319023674,
				"element": "C" 
			},
			{
				"x": 4.6929338722,
				"y": 3.5290547403,
				"z": -2.0857037401,
				"element": "H" 
			},
			{
				"x": 5.7446198207,
				"y": 1.4020786621,
				"z": -0.7637928644,
				"element": "H" 
			},
			{
				"x": 1.530496859,
				"y": -1.0128341057,
				"z": -0.6606452279,
				"element": "H" 
			},
			{
				"x": -3.5837014562,
				"y": 0.5114738366,
				"z": 0.9192385534,
				"element": "H" 
			},
			{
				"x": -4.1242876923,
				"y": -1.9020487818,
				"z": 0.9185496763,
				"element": "H" 
			},
			{
				"x": -2.3840242729,
				"y": -3.5757791746,
				"z": 0.3093750163,
				"element": "H" 
			},
			{
				"x": -0.1041204883,
				"y": -2.8386305893,
				"z": -0.2976211206,
				"element": "H" 
			},
			{
				"x": -1.9294576703,
				"y": 2.3443680279,
				"z": 0.5661530694,
				"element": "H" 
			},
			{
				"x": 0.3451119024,
				"y": 3.0745453664,
				"z": -0.0373048068,
				"element": "H" 
			}
		],
		 "valence_orbital": [ 
			{
				"type": "occ",
				"energy": -0.29788,
				"method": "rhf"
			},
			{
				"type": "occ",
				"energy": -0.281,
				"method": "rhf"
			},
			{
				"type": "occ",
				"energy": -0.27473,
				"method": "rhf"
			},
			{
				"type": "occ",
				"energy": -0.23801,
				"method": "rhf"
			},
			{
				"type": "occ",
				"energy": -0.21473,
				"method": "rhf"
			},
			{
				"type": "unocc",
				"energy": -0.10119,
				"method": "rhf"
			},
			{
				"type": "unocc",
				"energy": -0.04131,
				"method": "rhf"
			},
			{
				"type": "unocc",
				"energy": -0.01446,
				"method": "rhf"
			},
			{
				"type": "unocc",
				"energy": 0.02898,
				"method": "rhf"
			},
			{
				"type": "unocc",
				"energy": 0.05278,
				"method": "rhf"
			}
		],
		"cosmo_sigma_profile": { 
			"-0.025": 0.0,
			"-0.024": 0.0,
			"-0.023": 0.0,
			"-0.022": 0.0,
			"-0.021": 0.0,
			"-0.02": 0.0,
			"-0.019": 0.0,
			"-0.018": 0.0,
			"-0.017": 0.0,
			"-0.016": 0.0,
			"-0.015": 0.0,
			"-0.014": 0.0,
			"-0.013": 0.0,
			"-0.012": 0.0,
			"-0.011": 0.00373389401569,
			"-0.01": 2.22854646894,
			"-0.009": 4.03857562563,
			"-0.008": 2.84582494718,
			"-0.007": 4.89181599064,
			"-0.006": 18.267921459,
			"-0.005": 21.7461721272,
			"-0.004": 22.744948783,
			"-0.003": 19.2765282166,
			"-0.002": 16.3658604494,
			"-0.001": 14.3535657074,
			"0.0": 11.7009667255,
			"0.001": 12.825066014,
			"0.002": 11.582329677,
			"0.003": 22.6183132834,
			"0.004": 21.7597741336,
			"0.005": 11.8934430731,
			"0.006": 4.466901787,
			"0.007": 4.04922251977,
			"0.008": 3.74640484335,
			"0.009": 5.12272044865,
			"0.01": 7.47750637633,
			"0.011": 6.09435245727,
			"0.012": 0.495510240043,
			"0.013": 0.0,
			"0.014": 0.0,
			"0.015": 0.0,
			"0.016": 0.0,
			"0.017": 0.0,
			"0.018": 0.0,
			"0.019": 0.0,
			"0.02": 0.0,
			"0.021": 0.0,
			"0.022": 0.0,
			"0.023": 0.0,
			"0.024": 0.0,
			"0.025": 0.0
		}
	}
}
