{
	 "smiles": "CCCCCCC(C)=C", 
	 "Tm": 195.25, 
	 "num_atms": 27, 
	 "gaussian": { 
		 "optdone": 1, 
		 "sigma_profile": "yes", 
		 "theory": "DFT", 
		 "functional": "B3LYP", 
		 "basiset": "6-31G**", 
		 "properties": { 
			 "R2extent": 1963.2582, 
			 "electric_dipole_moment_norm": 0.487769269225, 
			 "electric_quadrupole_moment_norm": 1.69087011624, 
			 "total_energy": -353.8047659, 
			 "HOMO_LUMO_gap": 0.26758, 
			 "cosmo_polarized_energy": -1.74, 
			 "cosmo_cavitation_energy": 27.4, 
			 "cosmo_dispersion_energy": -18.89, 
			 "cosmo_repulsion_energy": 1.57, 
			 "cosmo_total_nonelectrostatic_energy": 10.08, 
			 "SMD_solvation_energy": 4.91 
		},
		"coords": [
			{
				"x": -0.0165036667,
				"y": -3.9212394379,
				"z": -1.0776084629,
				"element": "C" 
			},
			{
				"x": -0.4356892138,
				"y": -2.639122346,
				"z": -1.8067134707,
				"element": "C" 
			},
			{
				"x": -1.7705702534,
				"y": -2.0498831361,
				"z": -1.3105170838,
				"element": "C" 
			},
			{
				"x": -1.7390513606,
				"y": -1.4132720221,
				"z": 0.0989326755,
				"element": "C" 
			},
			{
				"x": -1.5438382839,
				"y": 0.1160077456,
				"z": 0.1216402758,
				"element": "C" 
			},
			{
				"x": -0.2384195792,
				"y": 0.6593604302,
				"z": -0.4797828577,
				"element": "C" 
			},
			{
				"x": 1.0601627719,
				"y": 0.3671645066,
				"z": 0.2493661305,
				"element": "C" 
			},
			{
				"x": 2.3069268628,
				"y": 0.7019579535,
				"z": -0.534884813,
				"element": "C" 
			},
			{
				"x": 1.1324422454,
				"y": -0.1101176003,
				"z": 1.4965147299,
				"element": "C" 
			},
			{
				"x": -0.7755836081,
				"y": -4.7041889322,
				"z": -1.1910435054,
				"element": "H" 
			},
			{
				"x": 0.1264672956,
				"y": -3.751795112,
				"z": -0.0052488236,
				"element": "H" 
			},
			{
				"x": 0.9263683636,
				"y": -4.3117571959,
				"z": -1.4748648166,
				"element": "H" 
			},
			{
				"x": -0.5246557471,
				"y": -2.8554042474,
				"z": -2.8794034385,
				"element": "H" 
			},
			{
				"x": 0.3630366198,
				"y": -1.8938142626,
				"z": -1.7112382374,
				"element": "H" 
			},
			{
				"x": -2.5174886893,
				"y": -2.85485759,
				"z": -1.326095039,
				"element": "H" 
			},
			{
				"x": -2.1281179466,
				"y": -1.3032513121,
				"z": -2.0329777573,
				"element": "H" 
			},
			{
				"x": -0.9652223104,
				"y": -1.8961491948,
				"z": 0.7055835603,
				"element": "H" 
			},
			{
				"x": -2.6887739496,
				"y": -1.6231388644,
				"z": 0.6063942498,
				"element": "H" 
			},
			{
				"x": -2.3770278431,
				"y": 0.5740731796,
				"z": -0.4281010958,
				"element": "H" 
			},
			{
				"x": -1.6405443389,
				"y": 0.4732718849,
				"z": 1.1548926555,
				"element": "H" 
			},
			{
				"x": -0.3247220168,
				"y": 1.7537401448,
				"z": -0.5670105194,
				"element": "H" 
			},
			{
				"x": -0.14059973,
				"y": 0.3113596626,
				"z": -1.5175926083,
				"element": "H" 
			},
			{
				"x": 2.3003680117,
				"y": 1.7520063753,
				"z": -0.855893029,
				"element": "H" 
			},
			{
				"x": 2.3709141084,
				"y": 0.0987418936,
				"z": -1.4500579392,
				"element": "H" 
			},
			{
				"x": 3.2147305016,
				"y": 0.5307708624,
				"z": 0.0497590726,
				"element": "H" 
			},
			{
				"x": 2.0913960354,
				"y": -0.2710131406,
				"z": 1.9813999358,
				"element": "H" 
			},
			{
				"x": 0.2513957211,
				"y": -0.3502502448,
				"z": 2.0821502121,
				"element": "H" 
			}
		],
		 "valence_orbital": [ 
			{
				"type": "occ",
				"energy": -0.3239,
				"method": "rhf"
			},
			{
				"type": "occ",
				"energy": -0.30828,
				"method": "rhf"
			},
			{
				"type": "occ",
				"energy": -0.30424,
				"method": "rhf"
			},
			{
				"type": "occ",
				"energy": -0.3024,
				"method": "rhf"
			},
			{
				"type": "occ",
				"energy": -0.239,
				"method": "rhf"
			},
			{
				"type": "unocc",
				"energy": 0.02858,
				"method": "rhf"
			},
			{
				"type": "unocc",
				"energy": 0.08106,
				"method": "rhf"
			},
			{
				"type": "unocc",
				"energy": 0.10499,
				"method": "rhf"
			},
			{
				"type": "unocc",
				"energy": 0.11474,
				"method": "rhf"
			},
			{
				"type": "unocc",
				"energy": 0.11753,
				"method": "rhf"
			}
		],
		"cosmo_sigma_profile": { 
			"-0.025": 0.0,
			"-0.024": 0.0,
			"-0.023": 0.0,
			"-0.022": 0.0,
			"-0.021": 0.0,
			"-0.02": 0.0,
			"-0.019": 0.0,
			"-0.018": 0.0,
			"-0.017": 0.0,
			"-0.016": 0.0,
			"-0.015": 0.0,
			"-0.014": 0.0,
			"-0.013": 0.0,
			"-0.012": 0.0,
			"-0.011": 0.0,
			"-0.01": 0.0,
			"-0.009": 0.0,
			"-0.008": 0.0,
			"-0.007": 0.0,
			"-0.006": 0.0,
			"-0.005": 0.00245720004977,
			"-0.004": 2.45578395346,
			"-0.003": 17.2757260478,
			"-0.002": 30.9929833079,
			"-0.001": 40.7192736846,
			"0.0": 43.7633029472,
			"0.001": 37.8663352962,
			"0.002": 20.3029329736,
			"0.003": 4.88921188192,
			"0.004": 4.15465406249,
			"0.005": 3.33292661296,
			"0.006": 3.01119310497,
			"0.007": 1.97702304546,
			"0.008": 0.53822502233,
			"0.009": 0.0,
			"0.01": 0.0,
			"0.011": 0.0,
			"0.012": 0.0,
			"0.013": 0.0,
			"0.014": 0.0,
			"0.015": 0.0,
			"0.016": 0.0,
			"0.017": 0.0,
			"0.018": 0.0,
			"0.019": 0.0,
			"0.02": 0.0,
			"0.021": 0.0,
			"0.022": 0.0,
			"0.023": 0.0,
			"0.024": 0.0,
			"0.025": 0.0
		}
	}
}
