{
	 "smiles": "OC(=O)C1=CC(F)=C(F)C=C1", 
	 "Tm": 397.15, 
	 "num_atms": 15, 
	 "gaussian": { 
		 "optdone": 1, 
		 "sigma_profile": "yes", 
		 "theory": "DFT", 
		 "functional": "B3LYP", 
		 "basiset": "6-31G**", 
		 "properties": { 
			 "R2extent": 2352.4663, 
			 "electric_dipole_moment_norm": 2.5901204972, 
			 "electric_quadrupole_moment_norm": 20.2168626095, 
			 "total_energy": -619.269612594, 
			 "HOMO_LUMO_gap": 0.20483, 
			 "cosmo_polarized_energy": -13.09, 
			 "cosmo_cavitation_energy": 21.19, 
			 "cosmo_dispersion_energy": -15.42, 
			 "cosmo_repulsion_energy": 1.19, 
			 "cosmo_total_nonelectrostatic_energy": 6.96, 
			 "SMD_solvation_energy": 5.91 
		},
		"coords": [
			{
				"x": 4.0556976213,
				"y": -0.07715464,
				"z": 1.9372849986,
				"element": "O" 
			},
			{
				"x": 2.8018520193,
				"y": 0.2628373274,
				"z": 2.3387337827,
				"element": "C" 
			},
			{
				"x": 2.6144335004,
				"y": 0.6675163755,
				"z": 3.4612128518,
				"element": "O" 
			},
			{
				"x": 1.7020772844,
				"y": 0.1087062345,
				"z": 1.3309371735,
				"element": "C" 
			},
			{
				"x": 1.9401471826,
				"y": 0.0654735663,
				"z": -0.0520112788,
				"element": "C" 
			},
			{
				"x": 0.8719859388,
				"y": -0.0627449588,
				"z": -0.9259980866,
				"element": "C" 
			},
			{
				"x": 1.0777816654,
				"y": -0.0947689103,
				"z": -2.2513141036,
				"element": "F" 
			},
			{
				"x": -0.4337869384,
				"y": -0.1495688886,
				"z": -0.4397613455,
				"element": "C" 
			},
			{
				"x": -1.4416896689,
				"y": -0.2772234532,
				"z": -1.3122282923,
				"element": "F" 
			},
			{
				"x": -0.6812221893,
				"y": -0.0959456044,
				"z": 0.9265384486,
				"element": "C" 
			},
			{
				"x": 0.3872914436,
				"y": 0.0422821199,
				"z": 1.8093489603,
				"element": "C" 
			},
			{
				"x": 4.0256596715,
				"y": -0.5513313489,
				"z": 1.0950956284,
				"element": "H" 
			},
			{
				"x": 2.9321906374,
				"y": 0.1721178535,
				"z": -0.4802305916,
				"element": "H" 
			},
			{
				"x": -1.7059164826,
				"y": -0.1598408386,
				"z": 1.2760687798,
				"element": "H" 
			},
			{
				"x": 0.2224983145,
				"y": 0.1002451658,
				"z": 2.8790230748,
				"element": "H" 
			}
		],
		 "valence_orbital": [ 
			{
				"type": "occ",
				"energy": -0.37779,
				"method": "rhf"
			},
			{
				"type": "occ",
				"energy": -0.32514,
				"method": "rhf"
			},
			{
				"type": "occ",
				"energy": -0.28779,
				"method": "rhf"
			},
			{
				"type": "occ",
				"energy": -0.28472,
				"method": "rhf"
			},
			{
				"type": "occ",
				"energy": -0.26618,
				"method": "rhf"
			},
			{
				"type": "unocc",
				"energy": -0.06135,
				"method": "rhf"
			},
			{
				"type": "unocc",
				"energy": -0.03434,
				"method": "rhf"
			},
			{
				"type": "unocc",
				"energy": 0.038,
				"method": "rhf"
			},
			{
				"type": "unocc",
				"energy": 0.04478,
				"method": "rhf"
			},
			{
				"type": "unocc",
				"energy": 0.07665,
				"method": "rhf"
			}
		],
		"cosmo_sigma_profile": { 
			"-0.025": 0.0,
			"-0.024": 0.0,
			"-0.023": 0.0,
			"-0.022": 0.0,
			"-0.021": 0.0,
			"-0.02": 0.0296481822913,
			"-0.019": 0.912504945466,
			"-0.018": 1.1701845939,
			"-0.017": 0.674693989707,
			"-0.016": 0.930127833682,
			"-0.015": 0.95941685704,
			"-0.014": 0.998519162471,
			"-0.013": 1.37900607857,
			"-0.012": 1.48046992761,
			"-0.011": 1.26045964189,
			"-0.01": 1.56162550199,
			"-0.009": 1.78305277872,
			"-0.008": 4.38797733433,
			"-0.007": 4.99346797955,
			"-0.006": 5.88504544188,
			"-0.005": 4.8443503556,
			"-0.004": 5.65759971602,
			"-0.003": 7.93742832807,
			"-0.002": 14.3236456291,
			"-0.001": 15.7949135498,
			"0.0": 13.7686473365,
			"0.001": 11.2313654738,
			"0.002": 11.7437159422,
			"0.003": 22.2051344301,
			"0.004": 6.81701592181,
			"0.005": 2.31567857885,
			"0.006": 1.90430442121,
			"0.007": 2.6569239202,
			"0.008": 2.49086364429,
			"0.009": 3.76598283155,
			"0.01": 5.02599342224,
			"0.011": 5.44703928121,
			"0.012": 3.84327202126,
			"0.013": 0.914808255119,
			"0.014": 0.0,
			"0.015": 0.0,
			"0.016": 0.0,
			"0.017": 0.0,
			"0.018": 0.0,
			"0.019": 0.0,
			"0.02": 0.0,
			"0.021": 0.0,
			"0.022": 0.0,
			"0.023": 0.0,
			"0.024": 0.0,
			"0.025": 0.0
		}
	}
}
