{
	 "smiles": "C1CC=C/C=CC=C/1", 
	 "Tm": 190.15, 
	 "num_atms": 18, 
	 "gaussian": { 
		 "optdone": 1, 
		 "sigma_profile": "yes", 
		 "theory": "DFT", 
		 "functional": "B3LYP", 
		 "basiset": "6-31G**", 
		 "properties": { 
			 "R2extent": 980.5506, 
			 "electric_dipole_moment_norm": 0.4773866986, 
			 "electric_quadrupole_moment_norm": 3.87777717256, 
			 "total_energy": -310.820445408, 
			 "HOMO_LUMO_gap": 0.17758, 
			 "cosmo_polarized_energy": -3.01, 
			 "cosmo_cavitation_energy": 19.97, 
			 "cosmo_dispersion_energy": -15.15, 
			 "cosmo_repulsion_energy": 1.27, 
			 "cosmo_total_nonelectrostatic_energy": 6.08, 
			 "SMD_solvation_energy": 3.17 
		},
		"coords": [
			{
				"x": -0.8026557167,
				"y": 0.7428306023,
				"z": 1.12814969,
				"element": "C" 
			},
			{
				"x": -0.2396310629,
				"y": 2.1061534596,
				"z": 0.691331571,
				"element": "C" 
			},
			{
				"x": 1.1025463355,
				"y": 2.0897526194,
				"z": 0.013093907,
				"element": "C" 
			},
			{
				"x": 1.9600939363,
				"y": 1.0960169397,
				"z": -0.2928181646,
				"element": "C" 
			},
			{
				"x": 1.9257006453,
				"y": -0.3684038955,
				"z": -0.1938337639,
				"element": "C" 
			},
			{
				"x": 0.9342648252,
				"y": -1.2653888415,
				"z": -0.3996402783,
				"element": "C" 
			},
			{
				"x": -0.4781742268,
				"y": -1.0117150362,
				"z": -0.6631927429,
				"element": "C" 
			},
			{
				"x": -1.2477541284,
				"y": -0.1187665584,
				"z": -0.0202608967,
				"element": "C" 
			},
			{
				"x": -0.038993317,
				"y": 0.2179268874,
				"z": 1.7125575856,
				"element": "H" 
			},
			{
				"x": -1.6547325341,
				"y": 0.920775868,
				"z": 1.7951872899,
				"element": "H" 
			},
			{
				"x": -0.965370464,
				"y": 2.6073288154,
				"z": 0.0353949028,
				"element": "H" 
			},
			{
				"x": -0.153109543,
				"y": 2.7653972324,
				"z": 1.569816443,
				"element": "H" 
			},
			{
				"x": 1.474147848,
				"y": 3.0932691566,
				"z": -0.1990911225,
				"element": "H" 
			},
			{
				"x": 2.9192023403,
				"y": 1.4410203335,
				"z": -0.6831466616,
				"element": "H" 
			},
			{
				"x": 2.9182417458,
				"y": -0.7981478291,
				"z": -0.0536757291,
				"element": "H" 
			},
			{
				"x": 1.2326309697,
				"y": -2.313933804,
				"z": -0.4254437322,
				"element": "H" 
			},
			{
				"x": -0.9416367456,
				"y": -1.6451982908,
				"z": -1.4200711099,
				"element": "H" 
			},
			{
				"x": -2.2875709075,
				"y": -0.0187176588,
				"z": -0.3298571876,
				"element": "H" 
			}
		],
		 "valence_orbital": [ 
			{
				"type": "occ",
				"energy": -0.32753,
				"method": "rhf"
			},
			{
				"type": "occ",
				"energy": -0.32554,
				"method": "rhf"
			},
			{
				"type": "occ",
				"energy": -0.29751,
				"method": "rhf"
			},
			{
				"type": "occ",
				"energy": -0.25492,
				"method": "rhf"
			},
			{
				"type": "occ",
				"energy": -0.20795,
				"method": "rhf"
			},
			{
				"type": "unocc",
				"energy": -0.03037,
				"method": "rhf"
			},
			{
				"type": "unocc",
				"energy": 0.03692,
				"method": "rhf"
			},
			{
				"type": "unocc",
				"energy": 0.08654,
				"method": "rhf"
			},
			{
				"type": "unocc",
				"energy": 0.09553,
				"method": "rhf"
			},
			{
				"type": "unocc",
				"energy": 0.12449,
				"method": "rhf"
			}
		],
		"cosmo_sigma_profile": { 
			"-0.025": 0.0,
			"-0.024": 0.0,
			"-0.023": 0.0,
			"-0.022": 0.0,
			"-0.021": 0.0,
			"-0.02": 0.0,
			"-0.019": 0.0,
			"-0.018": 0.0,
			"-0.017": 0.0,
			"-0.016": 0.0,
			"-0.015": 0.0,
			"-0.014": 0.0,
			"-0.013": 0.0,
			"-0.012": 0.0,
			"-0.011": 0.0,
			"-0.01": 0.0,
			"-0.009": 0.0,
			"-0.008": 0.0,
			"-0.007": 0.0,
			"-0.006": 0.0,
			"-0.005": 3.84873546992,
			"-0.004": 15.9096733075,
			"-0.003": 22.778130928,
			"-0.002": 24.6815995019,
			"-0.001": 17.7535602432,
			"0.0": 14.4094191759,
			"0.001": 10.4014616402,
			"0.002": 7.78770822461,
			"0.003": 8.9720961772,
			"0.004": 9.40788413041,
			"0.005": 7.93728534035,
			"0.006": 7.08234521686,
			"0.007": 4.18330259275,
			"0.008": 1.8160472386,
			"0.009": 0.211018430557,
			"0.01": 0.0,
			"0.011": 0.0,
			"0.012": 0.0,
			"0.013": 0.0,
			"0.014": 0.0,
			"0.015": 0.0,
			"0.016": 0.0,
			"0.017": 0.0,
			"0.018": 0.0,
			"0.019": 0.0,
			"0.02": 0.0,
			"0.021": 0.0,
			"0.022": 0.0,
			"0.023": 0.0,
			"0.024": 0.0,
			"0.025": 0.0
		}
	}
}
