{
	 "smiles": "OC(=O)C1=CC=C(O1)C1=NC2=C(S1)C=CC=C2", 
	 "Tm": 457.15, 
	 "num_atms": 24, 
	 "gaussian": { 
		 "optdone": 1, 
		 "sigma_profile": "yes", 
		 "theory": "DFT", 
		 "functional": "B3LYP", 
		 "basiset": "6-31G**", 
		 "properties": { 
			 "R2extent": 6220.9729, 
			 "electric_dipole_moment_norm": 5.242702328, 
			 "electric_quadrupole_moment_norm": 21.4145308389, 
			 "total_energy": -1140.1046513, 
			 "HOMO_LUMO_gap": 0.14564, 
			 "cosmo_polarized_energy": -14.11, 
			 "cosmo_cavitation_energy": 31.87, 
			 "cosmo_dispersion_energy": -23.83, 
			 "cosmo_repulsion_energy": 1.78, 
			 "cosmo_total_nonelectrostatic_energy": 9.81, 
			 "SMD_solvation_energy": 4.91 
		},
		"coords": [
			{
				"x": 0.3182077401,
				"y": 4.6857996875,
				"z": -2.5391064183,
				"element": "O" 
			},
			{
				"x": 0.0013856265,
				"y": 3.9292718162,
				"z": -3.6168312757,
				"element": "C" 
			},
			{
				"x": -0.0574600476,
				"y": 4.3964441913,
				"z": -4.7305485617,
				"element": "O" 
			},
			{
				"x": -0.2630939193,
				"y": 2.5066130517,
				"z": -3.3454302284,
				"element": "C" 
			},
			{
				"x": -0.6028500769,
				"y": 1.4700098291,
				"z": -4.1737478597,
				"element": "C" 
			},
			{
				"x": -0.7308067441,
				"y": 0.3187840437,
				"z": -3.3532010673,
				"element": "C" 
			},
			{
				"x": -0.4601058573,
				"y": 0.723494191,
				"z": -2.0666674254,
				"element": "C" 
			},
			{
				"x": -0.1727064868,
				"y": 2.059487185,
				"z": -2.0497399533,
				"element": "O" 
			},
			{
				"x": -0.4319723392,
				"y": 0.0111237524,
				"z": -0.8116154318,
				"element": "C" 
			},
			{
				"x": -0.6886009893,
				"y": -1.2600983134,
				"z": -0.7117959402,
				"element": "N" 
			},
			{
				"x": -0.5906210158,
				"y": -1.6828473746,
				"z": 0.5984082758,
				"element": "C" 
			},
			{
				"x": -0.2416715648,
				"y": -0.6789799422,
				"z": 1.538507639,
				"element": "C" 
			},
			{
				"x": -0.0349895271,
				"y": 0.8501402165,
				"z": 0.7080503942,
				"element": "S" 
			},
			{
				"x": -0.1079874818,
				"y": -0.9679729988,
				"z": 2.8983860152,
				"element": "C" 
			},
			{
				"x": -0.3279266002,
				"y": -2.2791189773,
				"z": 3.3126953698,
				"element": "C" 
			},
			{
				"x": -0.6744922232,
				"y": -3.2844758522,
				"z": 2.3915134528,
				"element": "C" 
			},
			{
				"x": -0.807707269,
				"y": -2.9985814848,
				"z": 1.0396108913,
				"element": "C" 
			},
			{
				"x": 0.316772017,
				"y": 4.1408450241,
				"z": -1.7367836767,
				"element": "H" 
			},
			{
				"x": -0.7397125603,
				"y": 1.5462898943,
				"z": -5.2420375056,
				"element": "H" 
			},
			{
				"x": -0.9875674436,
				"y": -0.6874802467,
				"z": -3.6474318695,
				"element": "H" 
			},
			{
				"x": 0.1590575904,
				"y": -0.1968498628,
				"z": 3.6135884289,
				"element": "H" 
			},
			{
				"x": -0.2297043233,
				"y": -2.5274204969,
				"z": 4.3651003811,
				"element": "H" 
			},
			{
				"x": -0.8395728255,
				"y": -4.2974814488,
				"z": 2.7453515006,
				"element": "H" 
			},
			{
				"x": -1.0742736788,
				"y": -3.7621958841,
				"z": 0.3166248648,
				"element": "H" 
			}
		],
		 "valence_orbital": [ 
			{
				"type": "occ",
				"energy": -0.29474,
				"method": "rhf"
			},
			{
				"type": "occ",
				"energy": -0.28313,
				"method": "rhf"
			},
			{
				"type": "occ",
				"energy": -0.28294,
				"method": "rhf"
			},
			{
				"type": "occ",
				"energy": -0.24841,
				"method": "rhf"
			},
			{
				"type": "occ",
				"energy": -0.23174,
				"method": "rhf"
			},
			{
				"type": "unocc",
				"energy": -0.0861,
				"method": "rhf"
			},
			{
				"type": "unocc",
				"energy": -0.02964,
				"method": "rhf"
			},
			{
				"type": "unocc",
				"energy": -0.01796,
				"method": "rhf"
			},
			{
				"type": "unocc",
				"energy": -0.00307,
				"method": "rhf"
			},
			{
				"type": "unocc",
				"energy": 0.00903,
				"method": "rhf"
			}
		],
		"cosmo_sigma_profile": { 
			"-0.025": 0.0,
			"-0.024": 0.0,
			"-0.023": 0.0,
			"-0.022": 0.0,
			"-0.021": 0.0,
			"-0.02": 0.0,
			"-0.019": 0.0,
			"-0.018": 0.00200511117112,
			"-0.017": 0.359181286036,
			"-0.016": 0.552784151564,
			"-0.015": 0.966176553762,
			"-0.014": 0.175118016936,
			"-0.013": 0.757092838497,
			"-0.012": 1.3458865408,
			"-0.011": 1.27797428712,
			"-0.01": 1.28200228084,
			"-0.009": 3.08075066744,
			"-0.008": 5.0992481057,
			"-0.007": 9.05780592845,
			"-0.006": 13.1918501848,
			"-0.005": 13.7615081647,
			"-0.004": 14.398124576,
			"-0.003": 13.6825941092,
			"-0.002": 20.5128737173,
			"-0.001": 21.6043809186,
			"0.0": 22.5602912789,
			"0.001": 24.5984833321,
			"0.002": 20.5407627561,
			"0.003": 17.536392807,
			"0.004": 14.0277801055,
			"0.005": 5.63703223531,
			"0.006": 3.66270319835,
			"0.007": 3.5689735145,
			"0.008": 3.72245921054,
			"0.009": 5.45194750776,
			"0.01": 5.70114506795,
			"0.011": 6.39821402581,
			"0.012": 4.67002056905,
			"0.013": 0.981446828167,
			"0.014": 0.0,
			"0.015": 0.0,
			"0.016": 0.0,
			"0.017": 0.0,
			"0.018": 0.0,
			"0.019": 0.0,
			"0.02": 0.0,
			"0.021": 0.0,
			"0.022": 0.0,
			"0.023": 0.0,
			"0.024": 0.0,
			"0.025": 0.0
		}
	}
}
