{
	 "smiles": "N1C=NC2=C1C=CC=N2", 
	 "Tm": 420.65, 
	 "num_atms": 14, 
	 "gaussian": { 
		 "optdone": 1, 
		 "sigma_profile": "yes", 
		 "theory": "DFT", 
		 "functional": "B3LYP", 
		 "basiset": "6-31G**", 
		 "properties": { 
			 "R2extent": 959.0366, 
			 "electric_dipole_moment_norm": 5.6009018015, 
			 "electric_quadrupole_moment_norm": 10.7094848261, 
			 "total_energy": -395.903240057, 
			 "HOMO_LUMO_gap": 0.20413, 
			 "cosmo_polarized_energy": -18.38, 
			 "cosmo_cavitation_energy": 18.18, 
			 "cosmo_dispersion_energy": -14.13, 
			 "cosmo_repulsion_energy": 1.14, 
			 "cosmo_total_nonelectrostatic_energy": 5.19, 
			 "SMD_solvation_energy": -0.18 
		},
		"coords": [
			{
				"x": 0.4554679944,
				"y": 1.5867716122,
				"z": 1.4484352143,
				"element": "N" 
			},
			{
				"x": 1.3131505159,
				"y": 2.0632952454,
				"z": 0.4787547715,
				"element": "C" 
			},
			{
				"x": 1.3801580531,
				"y": 1.3131152389,
				"z": -0.5888743443,
				"element": "N" 
			},
			{
				"x": 0.5141120398,
				"y": 0.2610260326,
				"z": -0.3291799923,
				"element": "C" 
			},
			{
				"x": -0.080799713,
				"y": 0.414285309,
				"z": 0.9528077755,
				"element": "C" 
			},
			{
				"x": -0.9891194761,
				"y": -0.5254967366,
				"z": 1.4314407233,
				"element": "C" 
			},
			{
				"x": -1.2513728627,
				"y": -1.5890884504,
				"z": 0.5715593814,
				"element": "C" 
			},
			{
				"x": -0.6141538074,
				"y": -1.6598839838,
				"z": -0.6840506254,
				"element": "C" 
			},
			{
				"x": 0.2570541884,
				"y": -0.763382883,
				"z": -1.1492844591,
				"element": "N" 
			},
			{
				"x": 0.2632077428,
				"y": 2.0154691504,
				"z": 2.3404891482,
				"element": "H" 
			},
			{
				"x": 1.865046291,
				"y": 2.9829242411,
				"z": 0.6271400564,
				"element": "H" 
			},
			{
				"x": -1.4641900267,
				"y": -0.4432493652,
				"z": 2.4046776428,
				"element": "H" 
			},
			{
				"x": -1.9468843905,
				"y": -2.3704240644,
				"z": 0.8603479377,
				"element": "H" 
			},
			{
				"x": -0.832676549,
				"y": -2.4993613461,
				"z": -1.34166323,
				"element": "H" 
			}
		],
		 "valence_orbital": [ 
			{
				"type": "occ",
				"energy": -0.3216,
				"method": "rhf"
			},
			{
				"type": "occ",
				"energy": -0.28731,
				"method": "rhf"
			},
			{
				"type": "occ",
				"energy": -0.25232,
				"method": "rhf"
			},
			{
				"type": "occ",
				"energy": -0.24773,
				"method": "rhf"
			},
			{
				"type": "occ",
				"energy": -0.23796,
				"method": "rhf"
			},
			{
				"type": "unocc",
				"energy": -0.03383,
				"method": "rhf"
			},
			{
				"type": "unocc",
				"energy": 0.01011,
				"method": "rhf"
			},
			{
				"type": "unocc",
				"energy": 0.04681,
				"method": "rhf"
			},
			{
				"type": "unocc",
				"energy": 0.06631,
				"method": "rhf"
			},
			{
				"type": "unocc",
				"energy": 0.10003,
				"method": "rhf"
			}
		],
		"cosmo_sigma_profile": { 
			"-0.025": 0.0,
			"-0.024": 0.0,
			"-0.023": 0.0,
			"-0.022": 0.0,
			"-0.021": 0.0,
			"-0.02": 0.0,
			"-0.019": 0.0,
			"-0.018": 0.0,
			"-0.017": 1.30378367635,
			"-0.016": 1.8135030328,
			"-0.015": 1.70806591185,
			"-0.014": 1.55920653192,
			"-0.013": 0.956291915331,
			"-0.012": 1.4048836207,
			"-0.011": 1.36986982118,
			"-0.01": 3.35101485616,
			"-0.009": 3.29470056357,
			"-0.008": 4.76561136184,
			"-0.007": 5.03193293748,
			"-0.006": 7.67396732246,
			"-0.005": 7.56833215088,
			"-0.004": 7.30289556241,
			"-0.003": 6.50375978521,
			"-0.002": 5.27083651847,
			"-0.001": 6.35514714,
			"0.0": 9.81775207154,
			"0.001": 12.4858061128,
			"0.002": 10.2643136476,
			"0.003": 10.7583529789,
			"0.004": 4.92227615682,
			"0.005": 3.05352415823,
			"0.006": 2.22540541276,
			"0.007": 2.26780418202,
			"0.008": 2.63797757738,
			"0.009": 1.95423149743,
			"0.01": 2.3230705159,
			"0.011": 2.04080726427,
			"0.012": 2.23962108766,
			"0.013": 2.5804746699,
			"0.014": 3.14382715543,
			"0.015": 2.68942267709,
			"0.016": 2.67000191567,
			"0.017": 1.47126509093,
			"0.018": 0.0792963950363,
			"0.019": 0.0,
			"0.02": 0.0,
			"0.021": 0.0,
			"0.022": 0.0,
			"0.023": 0.0,
			"0.024": 0.0,
			"0.025": 0.0
		}
	}
}
