{
	 "smiles": "CN1N=C(C=C1C1=CC2=C(OCO2)C=C1)C(O)=O", 
	 "Tm": 488.15, 
	 "num_atms": 28, 
	 "gaussian": { 
		 "optdone": 1, 
		 "sigma_profile": "yes", 
		 "theory": "DFT", 
		 "functional": "B3LYP", 
		 "basiset": "6-31G**", 
		 "properties": { 
			 "R2extent": 6254.2402, 
			 "electric_dipole_moment_norm": 5.32293509729, 
			 "electric_quadrupole_moment_norm": 14.3802977768, 
			 "total_energy": -873.672134441, 
			 "HOMO_LUMO_gap": 0.18446, 
			 "cosmo_polarized_energy": -18.17, 
			 "cosmo_cavitation_energy": 33.39, 
			 "cosmo_dispersion_energy": -24.57, 
			 "cosmo_repulsion_energy": 1.9, 
			 "cosmo_total_nonelectrostatic_energy": 10.72, 
			 "SMD_solvation_energy": 6.57 
		},
		"coords": [
			{
				"x": 2.4585654927,
				"y": -2.6025807004,
				"z": -0.2924912947,
				"element": "C" 
			},
			{
				"x": 1.7419469402,
				"y": -1.6770052974,
				"z": 0.5723536713,
				"element": "N" 
			},
			{
				"x": 2.1745268199,
				"y": -1.5268129205,
				"z": 1.8313864462,
				"element": "N" 
			},
			{
				"x": 1.3707061036,
				"y": -0.5972088081,
				"z": 2.3632430849,
				"element": "C" 
			},
			{
				"x": 0.4143621585,
				"y": -0.1446896358,
				"z": 1.4293701489,
				"element": "C" 
			},
			{
				"x": 0.669419352,
				"y": -0.8641028239,
				"z": 0.2719489053,
				"element": "C" 
			},
			{
				"x": -0.0098884455,
				"y": -0.8100682559,
				"z": -1.0326916618,
				"element": "C" 
			},
			{
				"x": -0.3549883806,
				"y": 0.4609364707,
				"z": -1.5575344544,
				"element": "C" 
			},
			{
				"x": -1.0314584799,
				"y": 0.4895322717,
				"z": -2.7573792791,
				"element": "C" 
			},
			{
				"x": -1.3631858471,
				"y": -0.6739807016,
				"z": -3.4509640169,
				"element": "C" 
			},
			{
				"x": -2.0019963821,
				"y": -0.3506801738,
				"z": -4.6203275987,
				"element": "O" 
			},
			{
				"x": -2.1749163611,
				"y": 1.0726251249,
				"z": -4.5933407305,
				"element": "C" 
			},
			{
				"x": -1.4482067614,
				"y": 1.5858870965,
				"z": -3.470309935,
				"element": "O" 
			},
			{
				"x": -1.0387440106,
				"y": -1.9244610303,
				"z": -2.9646552113,
				"element": "C" 
			},
			{
				"x": -0.3598318355,
				"y": -1.9736889755,
				"z": -1.7347598714,
				"element": "C" 
			},
			{
				"x": 1.5591291676,
				"y": -0.1760538151,
				"z": 3.7649934394,
				"element": "C" 
			},
			{
				"x": 0.6541045853,
				"y": 0.7799499311,
				"z": 4.113885638,
				"element": "O" 
			},
			{
				"x": 2.3926728289,
				"y": -0.5964021335,
				"z": 4.5375136364,
				"element": "O" 
			},
			{
				"x": 3.4949683329,
				"y": -2.6302328696,
				"z": 0.0431555359,
				"element": "H" 
			},
			{
				"x": 2.4069993923,
				"y": -2.2553635271,
				"z": -1.3249995786,
				"element": "H" 
			},
			{
				"x": 2.0374004439,
				"y": -3.611094982,
				"z": -0.2294183748,
				"element": "H" 
			},
			{
				"x": -0.3671120852,
				"y": 0.582019089,
				"z": 1.5861394443,
				"element": "H" 
			},
			{
				"x": -0.0818657502,
				"y": 1.373114449,
				"z": -1.0404004328,
				"element": "H" 
			},
			{
				"x": -1.7750074022,
				"y": 1.5055958519,
				"z": -5.5158237175,
				"element": "H" 
			},
			{
				"x": -3.2416364638,
				"y": 1.3094477454,
				"z": -4.4803514425,
				"element": "H" 
			},
			{
				"x": -1.3077279889,
				"y": -2.826559838,
				"z": -3.502050621,
				"element": "H" 
			},
			{
				"x": -0.1323860634,
				"y": -2.9438460316,
				"z": -1.3068651137,
				"element": "H" 
			},
			{
				"x": 0.8492506398,
				"y": 0.9939244899,
				"z": 5.0408733842,
				"element": "H" 
			}
		],
		 "valence_orbital": [ 
			{
				"type": "occ",
				"energy": -0.26995,
				"method": "rhf"
			},
			{
				"type": "occ",
				"energy": -0.26435,
				"method": "rhf"
			},
			{
				"type": "occ",
				"energy": -0.25587,
				"method": "rhf"
			},
			{
				"type": "occ",
				"energy": -0.2472,
				"method": "rhf"
			},
			{
				"type": "occ",
				"energy": -0.21325,
				"method": "rhf"
			},
			{
				"type": "unocc",
				"energy": -0.02879,
				"method": "rhf"
			},
			{
				"type": "unocc",
				"energy": -0.01861,
				"method": "rhf"
			},
			{
				"type": "unocc",
				"energy": -0.0113,
				"method": "rhf"
			},
			{
				"type": "unocc",
				"energy": 0.04637,
				"method": "rhf"
			},
			{
				"type": "unocc",
				"energy": 0.07977,
				"method": "rhf"
			}
		],
		"cosmo_sigma_profile": { 
			"-0.025": 0.0,
			"-0.024": 0.0,
			"-0.023": 0.0,
			"-0.022": 0.0,
			"-0.021": 0.0,
			"-0.02": 0.0,
			"-0.019": 0.107397937884,
			"-0.018": 0.741715981199,
			"-0.017": 0.838579158537,
			"-0.016": 0.832667112396,
			"-0.015": 0.90652415823,
			"-0.014": 0.591654440568,
			"-0.013": 0.374965725793,
			"-0.012": 0.407972110741,
			"-0.011": 1.49268403204,
			"-0.01": 0.383399232326,
			"-0.009": 0.424519720637,
			"-0.008": 5.71859476246,
			"-0.007": 17.3304260709,
			"-0.006": 19.2059760486,
			"-0.005": 18.1490948473,
			"-0.004": 16.199203152,
			"-0.003": 17.6527699543,
			"-0.002": 14.6865824782,
			"-0.001": 13.1945157064,
			"0.0": 14.2222581263,
			"0.001": 17.3957397321,
			"0.002": 22.9700590243,
			"0.003": 22.0805778301,
			"0.004": 11.3692425888,
			"0.005": 5.51705851069,
			"0.006": 5.58489468625,
			"0.007": 6.10326542192,
			"0.008": 6.92312418796,
			"0.009": 6.37518079947,
			"0.01": 2.93213597964,
			"0.011": 4.4654840692,
			"0.012": 6.08778988874,
			"0.013": 2.76189456216,
			"0.014": 1.84083732125,
			"0.015": 1.50154383077,
			"0.016": 0.127888889836,
			"0.017": 0.0,
			"0.018": 0.0,
			"0.019": 0.0,
			"0.02": 0.0,
			"0.021": 0.0,
			"0.022": 0.0,
			"0.023": 0.0,
			"0.024": 0.0,
			"0.025": 0.0
		}
	}
}
