{
	 "smiles": "FC1=C(Br)C=NC=C1Br", 
	 "Tm": 371.15, 
	 "num_atms": 11, 
	 "gaussian": { 
		 "optdone": 1, 
		 "sigma_profile": "yes", 
		 "theory": "DFT", 
		 "functional": "B3LYP", 
		 "basiset": "6-31G**", 
		 "properties": { 
			 "R2extent": 3298.2077, 
			 "electric_dipole_moment_norm": 0.140649955563, 
			 "electric_quadrupole_moment_norm": 5.47158939797, 
			 "total_energy": -5489.11276226, 
			 "HOMO_LUMO_gap": 0.21963, 
			 "cosmo_polarized_energy": -4.26, 
			 "cosmo_cavitation_energy": 20.88, 
			 "cosmo_dispersion_energy": -16.34, 
			 "cosmo_repulsion_energy": 1.31, 
			 "cosmo_total_nonelectrostatic_energy": 5.85, 
			 "SMD_solvation_energy": 0.52 
		},
		"coords": [
			{
				"x": 1.2030807002,
				"y": -1.1991896651,
				"z": 0.7783025909,
				"element": "F" 
			},
			{
				"x": 0.8982784846,
				"y": 0.0757944214,
				"z": 0.556115829,
				"element": "C" 
			},
			{
				"x": 0.8482668156,
				"y": 0.9871178301,
				"z": 1.6100354509,
				"element": "C" 
			},
			{
				"x": 1.2146840069,
				"y": 0.4223588628,
				"z": 3.3802834649,
				"element": "Br" 
			},
			{
				"x": 0.5235412422,
				"y": 2.3146518933,
				"z": 1.3252804767,
				"element": "C" 
			},
			{
				"x": 0.2592435633,
				"y": 2.7488790862,
				"z": 0.0902617669,
				"element": "N" 
			},
			{
				"x": 0.3082603,
				"y": 1.8725286751,
				"z": -0.9163666708,
				"element": "C" 
			},
			{
				"x": 0.6231445264,
				"y": 0.5246593167,
				"z": -0.7348504273,
				"element": "C" 
			},
			{
				"x": 0.6795886642,
				"y": -0.6776733296,
				"z": -2.1971547655,
				"element": "Br" 
			},
			{
				"x": 0.4786362924,
				"y": 3.0424566494,
				"z": 2.1307130576,
				"element": "H" 
			},
			{
				"x": 0.0902754044,
				"y": 2.2448162597,
				"z": -1.9135207734,
				"element": "H" 
			}
		],
		 "valence_orbital": [ 
			{
				"type": "occ",
				"energy": -0.31853,
				"method": "rhf"
			},
			{
				"type": "occ",
				"energy": -0.30671,
				"method": "rhf"
			},
			{
				"type": "occ",
				"energy": -0.28234,
				"method": "rhf"
			},
			{
				"type": "occ",
				"energy": -0.27998,
				"method": "rhf"
			},
			{
				"type": "occ",
				"energy": -0.26604,
				"method": "rhf"
			},
			{
				"type": "unocc",
				"energy": -0.04641,
				"method": "rhf"
			},
			{
				"type": "unocc",
				"energy": -0.04636,
				"method": "rhf"
			},
			{
				"type": "unocc",
				"energy": -0.03357,
				"method": "rhf"
			},
			{
				"type": "unocc",
				"energy": 0.0088,
				"method": "rhf"
			},
			{
				"type": "unocc",
				"energy": 0.11143,
				"method": "rhf"
			}
		],
		"cosmo_sigma_profile": { 
			"-0.025": 0.0,
			"-0.024": 0.0,
			"-0.023": 0.0,
			"-0.022": 0.0,
			"-0.021": 0.0,
			"-0.02": 0.0,
			"-0.019": 0.0,
			"-0.018": 0.0,
			"-0.017": 0.0,
			"-0.016": 0.0,
			"-0.015": 0.0,
			"-0.014": 0.0,
			"-0.013": 0.0,
			"-0.012": 0.0,
			"-0.011": 0.0,
			"-0.01": 0.0,
			"-0.009": 1.12737606515,
			"-0.008": 3.4844162852,
			"-0.007": 3.13463245515,
			"-0.006": 5.47401009925,
			"-0.005": 6.05031041215,
			"-0.004": 11.0626477494,
			"-0.003": 15.5488609279,
			"-0.002": 16.639997642,
			"-0.001": 18.9044464144,
			"0.0": 12.0181712445,
			"0.001": 14.3839470999,
			"0.002": 22.7937371306,
			"0.003": 28.5424467334,
			"0.004": 6.31975965348,
			"0.005": 1.40766962893,
			"0.006": 1.87103493507,
			"0.007": 0.730083221724,
			"0.008": 0.850041057677,
			"0.009": 0.891448856448,
			"0.01": 0.940986008494,
			"0.011": 1.01236036853,
			"0.012": 0.813528903065,
			"0.013": 1.09340220095,
			"0.014": 0.571027097912,
			"0.015": 0.194433268689,
			"0.016": 0.0,
			"0.017": 0.0,
			"0.018": 0.0,
			"0.019": 0.0,
			"0.02": 0.0,
			"0.021": 0.0,
			"0.022": 0.0,
			"0.023": 0.0,
			"0.024": 0.0,
			"0.025": 0.0
		}
	}
}
