{
	 "smiles": "CC(C)C1NC(=O)C2=C(NC1=O)C=CC=C2", 
	 "Tm": 533.15, 
	 "num_atms": 30, 
	 "gaussian": { 
		 "optdone": 1, 
		 "sigma_profile": "yes", 
		 "theory": "DFT", 
		 "functional": "B3LYP", 
		 "basiset": "6-31G**", 
		 "properties": { 
			 "R2extent": 4145.4729, 
			 "electric_dipole_moment_norm": 3.08584801473, 
			 "electric_quadrupole_moment_norm": 19.7945758623, 
			 "total_energy": -725.705812288, 
			 "HOMO_LUMO_gap": 0.19256, 
			 "cosmo_polarized_energy": -16.23, 
			 "cosmo_cavitation_energy": 31.96, 
			 "cosmo_dispersion_energy": -23.33, 
			 "cosmo_repulsion_energy": 1.79, 
			 "cosmo_total_nonelectrostatic_energy": 10.43, 
			 "SMD_solvation_energy": 5.99 
		},
		"coords": [
			{
				"x": 0.400827409,
				"y": -1.8003217567,
				"z": 2.4036515538,
				"element": "C" 
			},
			{
				"x": -0.1756775313,
				"y": -1.9989666913,
				"z": 0.9910008676,
				"element": "C" 
			},
			{
				"x": 0.7120275467,
				"y": -2.9332047717,
				"z": 0.1542112119,
				"element": "C" 
			},
			{
				"x": -0.4661727927,
				"y": -0.6820310674,
				"z": 0.2348902636,
				"element": "C" 
			},
			{
				"x": -1.4702669862,
				"y": 0.1087608253,
				"z": 0.9434236506,
				"element": "N" 
			},
			{
				"x": -2.3108318715,
				"y": 1.0381162716,
				"z": 0.3922263462,
				"element": "C" 
			},
			{
				"x": -3.3093937282,
				"y": 1.4267498273,
				"z": 0.9920234886,
				"element": "O" 
			},
			{
				"x": -1.96440047,
				"y": 1.5664669378,
				"z": -0.9692639014,
				"element": "C" 
			},
			{
				"x": -0.6569520735,
				"y": 1.7079526319,
				"z": -1.4847052985,
				"element": "C" 
			},
			{
				"x": 0.5108647708,
				"y": 1.3150739813,
				"z": -0.7976533218,
				"element": "N" 
			},
			{
				"x": 0.76398135,
				"y": 0.196854511,
				"z": -0.0276996624,
				"element": "C" 
			},
			{
				"x": 1.8965321853,
				"y": -0.028736133,
				"z": 0.3724966981,
				"element": "O" 
			},
			{
				"x": -0.4753341375,
				"y": 2.3412868881,
				"z": -2.7272511613,
				"element": "C" 
			},
			{
				"x": -1.5591984491,
				"y": 2.8131274673,
				"z": -3.4561912422,
				"element": "C" 
			},
			{
				"x": -2.8572140864,
				"y": 2.6645416483,
				"z": -2.9574492083,
				"element": "C" 
			},
			{
				"x": -3.0431600798,
				"y": 2.0577074964,
				"z": -1.722953923,
				"element": "C" 
			},
			{
				"x": 0.4830966205,
				"y": -2.7689568848,
				"z": 2.9070574874,
				"element": "H" 
			},
			{
				"x": 1.3916438477,
				"y": -1.3459448015,
				"z": 2.3560203318,
				"element": "H" 
			},
			{
				"x": -0.2329368397,
				"y": -1.1657346067,
				"z": 3.0334743335,
				"element": "H" 
			},
			{
				"x": -1.1598707446,
				"y": -2.479358434,
				"z": 1.0911631,
				"element": "H" 
			},
			{
				"x": 0.2838795221,
				"y": -3.1092939006,
				"z": -0.8393283131,
				"element": "H" 
			},
			{
				"x": 1.7121989681,
				"y": -2.5118544251,
				"z": 0.0310315657,
				"element": "H" 
			},
			{
				"x": 0.8076007211,
				"y": -3.9044908609,
				"z": 0.6496437033,
				"element": "H" 
			},
			{
				"x": -0.8714535292,
				"y": -0.9548581337,
				"z": -0.7511456077,
				"element": "H" 
			},
			{
				"x": -1.7566695463,
				"y": -0.2009834113,
				"z": 1.8627320179,
				"element": "H" 
			},
			{
				"x": 1.3596997924,
				"y": 1.8165282381,
				"z": -1.0311908342,
				"element": "H" 
			},
			{
				"x": 0.5334857809,
				"y": 2.4528927968,
				"z": -3.1159310516,
				"element": "H" 
			},
			{
				"x": -1.3902029589,
				"y": 3.2946301624,
				"z": -4.414862965,
				"element": "H" 
			},
			{
				"x": -3.7091069292,
				"y": 3.0312465442,
				"z": -3.5210298966,
				"element": "H" 
			},
			{
				"x": -4.0313957603,
				"y": 1.9655996508,
				"z": -1.2857902331,
				"element": "H" 
			}
		],
		 "valence_orbital": [ 
			{
				"type": "occ",
				"energy": -0.28342,
				"method": "rhf"
			},
			{
				"type": "occ",
				"energy": -0.26893,
				"method": "rhf"
			},
			{
				"type": "occ",
				"energy": -0.25464,
				"method": "rhf"
			},
			{
				"type": "occ",
				"energy": -0.24494,
				"method": "rhf"
			},
			{
				"type": "occ",
				"energy": -0.23436,
				"method": "rhf"
			},
			{
				"type": "unocc",
				"energy": -0.0418,
				"method": "rhf"
			},
			{
				"type": "unocc",
				"energy": -0.02492,
				"method": "rhf"
			},
			{
				"type": "unocc",
				"energy": 0.01657,
				"method": "rhf"
			},
			{
				"type": "unocc",
				"energy": 0.05012,
				"method": "rhf"
			},
			{
				"type": "unocc",
				"energy": 0.07717,
				"method": "rhf"
			}
		],
		"cosmo_sigma_profile": { 
			"-0.025": 0.0,
			"-0.024": 0.0,
			"-0.023": 0.0,
			"-0.022": 0.0,
			"-0.021": 0.0,
			"-0.02": 0.0,
			"-0.019": 0.0,
			"-0.018": 0.0,
			"-0.017": 0.0,
			"-0.016": 0.0,
			"-0.015": 0.383208444828,
			"-0.014": 1.48986165227,
			"-0.013": 1.6888272905,
			"-0.012": 2.18284121393,
			"-0.011": 2.5051390514,
			"-0.01": 2.06705819962,
			"-0.009": 1.7390227816,
			"-0.008": 2.71968402037,
			"-0.007": 6.14863684671,
			"-0.006": 12.0016346539,
			"-0.005": 15.6767414102,
			"-0.004": 16.055931341,
			"-0.003": 18.86010882,
			"-0.002": 18.8970433654,
			"-0.001": 21.0899754599,
			"0.0": 22.5076967034,
			"0.001": 26.4575187482,
			"0.002": 16.8237033911,
			"0.003": 13.1657150897,
			"0.004": 11.1402855052,
			"0.005": 4.05399691698,
			"0.006": 3.47411410136,
			"0.007": 2.95291478253,
			"0.008": 2.7026067502,
			"0.009": 3.34468866636,
			"0.01": 2.88195223904,
			"0.011": 3.22537749558,
			"0.012": 5.25289662525,
			"0.013": 5.68730425134,
			"0.014": 4.71884809521,
			"0.015": 0.391630107937,
			"0.016": 0.0,
			"0.017": 0.0,
			"0.018": 0.0,
			"0.019": 0.0,
			"0.02": 0.0,
			"0.021": 0.0,
			"0.022": 0.0,
			"0.023": 0.0,
			"0.024": 0.0,
			"0.025": 0.0
		}
	}
}
