{
	 "smiles": "CCOC(=O)C1=C(N)N(N=C1SC)C(=O)NNC1=CC=CC=C1", 
	 "Tm": 478.15, 
	 "num_atms": 40, 
	 "gaussian": { 
		 "optdone": 1, 
		 "sigma_profile": "yes", 
		 "theory": "DFT", 
		 "functional": "B3LYP", 
		 "basiset": "6-31G**", 
		 "properties": { 
			 "R2extent": 8904.1249, 
			 "electric_dipole_moment_norm": 5.2320816106, 
			 "electric_quadrupole_moment_norm": 19.329010842, 
			 "total_energy": -1441.33291476, 
			 "HOMO_LUMO_gap": 0.17477, 
			 "cosmo_polarized_energy": -25.59, 
			 "cosmo_cavitation_energy": 45.98, 
			 "cosmo_dispersion_energy": -31.56, 
			 "cosmo_repulsion_energy": 2.44, 
			 "cosmo_total_nonelectrostatic_energy": 16.85, 
			 "SMD_solvation_energy": 9.1 
		},
		"coords": [
			{
				"x": -2.6153865635,
				"y": 3.9730354868,
				"z": -2.6043173393,
				"element": "C" 
			},
			{
				"x": -2.7611058284,
				"y": 3.3144558631,
				"z": -1.2455855317,
				"element": "C" 
			},
			{
				"x": -1.5597120683,
				"y": 2.5464192957,
				"z": -0.9984140929,
				"element": "O" 
			},
			{
				"x": -1.5270118664,
				"y": 1.8720103727,
				"z": 0.1956045718,
				"element": "C" 
			},
			{
				"x": -2.4422198066,
				"y": 1.914788772,
				"z": 0.995192391,
				"element": "O" 
			},
			{
				"x": -0.2915921692,
				"y": 1.1276509819,
				"z": 0.3751147413,
				"element": "C" 
			},
			{
				"x": 0.8005206456,
				"y": 1.0288832115,
				"z": -0.4824914273,
				"element": "C" 
			},
			{
				"x": 0.9768875402,
				"y": 1.5547213593,
				"z": -1.7431392567,
				"element": "N" 
			},
			{
				"x": 1.7278160118,
				"y": 0.2368132971,
				"z": 0.1544821664,
				"element": "N" 
			},
			{
				"x": 1.298969382,
				"y": -0.1458516867,
				"z": 1.4201672712,
				"element": "N" 
			},
			{
				"x": 0.0916628508,
				"y": 0.3652355853,
				"z": 1.5343280475,
				"element": "C" 
			},
			{
				"x": -0.8991983141,
				"y": 0.1218210451,
				"z": 2.9659348876,
				"element": "S" 
			},
			{
				"x": 0.2520726709,
				"y": -0.9011497751,
				"z": 3.950551341,
				"element": "C" 
			},
			{
				"x": 3.0711194408,
				"y": -0.0596724818,
				"z": -0.2076612271,
				"element": "C" 
			},
			{
				"x": 3.9725482649,
				"y": -0.1124536981,
				"z": 0.5962093627,
				"element": "O" 
			},
			{
				"x": 3.2662757553,
				"y": -0.2065946917,
				"z": -1.584172636,
				"element": "N" 
			},
			{
				"x": 2.384878557,
				"y": -0.8999537274,
				"z": -2.4202484795,
				"element": "N" 
			},
			{
				"x": 2.0419962681,
				"y": -2.2382063476,
				"z": -2.1256848253,
				"element": "C" 
			},
			{
				"x": 0.9061354106,
				"y": -2.7816168144,
				"z": -2.7473802143,
				"element": "C" 
			},
			{
				"x": 0.5639653182,
				"y": -4.1141492815,
				"z": -2.5383489531,
				"element": "C" 
			},
			{
				"x": 1.3425798323,
				"y": -4.9270309902,
				"z": -1.7099234874,
				"element": "C" 
			},
			{
				"x": 2.4693007855,
				"y": -4.3843906909,
				"z": -1.0937174507,
				"element": "C" 
			},
			{
				"x": 2.8268048153,
				"y": -3.0498185573,
				"z": -1.2952527003,
				"element": "C" 
			},
			{
				"x": -2.4933613367,
				"y": 3.2249401374,
				"z": -3.393536065,
				"element": "H" 
			},
			{
				"x": -1.7533463029,
				"y": 4.6471030356,
				"z": -2.6259248818,
				"element": "H" 
			},
			{
				"x": -3.5106533125,
				"y": 4.561029423,
				"z": -2.8283250094,
				"element": "H" 
			},
			{
				"x": -2.8811072112,
				"y": 4.0489260078,
				"z": -0.4435237589,
				"element": "H" 
			},
			{
				"x": -3.6221698977,
				"y": 2.6407756365,
				"z": -1.2061406607,
				"element": "H" 
			},
			{
				"x": 1.9267911844,
				"y": 1.823324595,
				"z": -1.9727468064,
				"element": "H" 
			},
			{
				"x": 0.2713074893,
				"y": 2.2502460827,
				"z": -1.959026316,
				"element": "H" 
			},
			{
				"x": 0.4802354787,
				"y": -1.8337961188,
				"z": 3.4332063134,
				"element": "H" 
			},
			{
				"x": 1.1784661067,
				"y": -0.3603875622,
				"z": 4.1476588008,
				"element": "H" 
			},
			{
				"x": -0.2676853376,
				"y": -1.109635569,
				"z": 4.8878515375,
				"element": "H" 
			},
			{
				"x": 4.2447776084,
				"y": -0.3744754679,
				"z": -1.7936587943,
				"element": "H" 
			},
			{
				"x": 1.6143703226,
				"y": -0.307490619,
				"z": -2.711884864,
				"element": "H" 
			},
			{
				"x": 0.2971139449,
				"y": -2.1554877411,
				"z": -3.3948957451,
				"element": "H" 
			},
			{
				"x": -0.3205983771,
				"y": -4.5175884049,
				"z": -3.0231104975,
				"element": "H" 
			},
			{
				"x": 1.0712378578,
				"y": -5.9650553536,
				"z": -1.5459295744,
				"element": "H" 
			},
			{
				"x": 3.08339154,
				"y": -5.0003112981,
				"z": -0.4429173209,
				"element": "H" 
			},
			{
				"x": 3.7036233101,
				"y": -2.6478633113,
				"z": -0.7996435162,
				"element": "H" 
			}
		],
		 "valence_orbital": [ 
			{
				"type": "occ",
				"energy": -0.27358,
				"method": "rhf"
			},
			{
				"type": "occ",
				"energy": -0.2508,
				"method": "rhf"
			},
			{
				"type": "occ",
				"energy": -0.23885,
				"method": "rhf"
			},
			{
				"type": "occ",
				"energy": -0.21426,
				"method": "rhf"
			},
			{
				"type": "occ",
				"energy": -0.21354,
				"method": "rhf"
			},
			{
				"type": "unocc",
				"energy": -0.03877,
				"method": "rhf"
			},
			{
				"type": "unocc",
				"energy": -0.00608,
				"method": "rhf"
			},
			{
				"type": "unocc",
				"energy": 1e-05,
				"method": "rhf"
			},
			{
				"type": "unocc",
				"energy": 0.01055,
				"method": "rhf"
			},
			{
				"type": "unocc",
				"energy": 0.03771,
				"method": "rhf"
			}
		],
		"cosmo_sigma_profile": { 
			"-0.025": 0.0,
			"-0.024": 0.0,
			"-0.023": 0.0,
			"-0.022": 0.0,
			"-0.021": 0.0,
			"-0.02": 0.0,
			"-0.019": 0.0,
			"-0.018": 0.0,
			"-0.017": 0.0,
			"-0.016": 0.0,
			"-0.015": 0.709738948516,
			"-0.014": 1.80079759038,
			"-0.013": 3.17717464717,
			"-0.012": 2.21580868015,
			"-0.011": 3.53782657784,
			"-0.01": 3.79217691198,
			"-0.009": 3.91494371321,
			"-0.008": 4.4064040659,
			"-0.007": 6.64761386249,
			"-0.006": 11.1935289067,
			"-0.005": 24.2557922028,
			"-0.004": 32.8154867896,
			"-0.003": 33.4230169908,
			"-0.002": 31.8413030672,
			"-0.001": 30.4421016734,
			"0.0": 24.6408359442,
			"0.001": 20.2713372098,
			"0.002": 17.1183861555,
			"0.003": 16.8369094889,
			"0.004": 14.3153709035,
			"0.005": 16.0317699448,
			"0.006": 15.1496789124,
			"0.007": 9.30668816005,
			"0.008": 7.53458438257,
			"0.009": 5.82495476386,
			"0.01": 5.6415960227,
			"0.011": 8.88026804928,
			"0.012": 7.48623963978,
			"0.013": 2.1176706211,
			"0.014": 1.28140390721,
			"0.015": 0.622798739281,
			"0.016": 0.0,
			"0.017": 0.0,
			"0.018": 0.0,
			"0.019": 0.0,
			"0.02": 0.0,
			"0.021": 0.0,
			"0.022": 0.0,
			"0.023": 0.0,
			"0.024": 0.0,
			"0.025": 0.0
		}
	}
}
