{
	 "smiles": "OC(=O)CNS(=O)(=O)C1=C(F)C(F)=C(F)C=C1", 
	 "Tm": 449.15, 
	 "num_atms": 23, 
	 "gaussian": { 
		 "optdone": 1, 
		 "sigma_profile": "yes", 
		 "theory": "DFT", 
		 "functional": "B3LYP", 
		 "basiset": "6-31G**", 
		 "properties": { 
			 "R2extent": 5933.0058, 
			 "electric_dipole_moment_norm": 5.27107023478, 
			 "electric_quadrupole_moment_norm": 16.4174079553, 
			 "total_energy": -1361.71815677, 
			 "HOMO_LUMO_gap": 0.19985, 
			 "cosmo_polarized_energy": -19.09, 
			 "cosmo_cavitation_energy": 31.18, 
			 "cosmo_dispersion_energy": -22.35, 
			 "cosmo_repulsion_energy": 1.63, 
			 "cosmo_total_nonelectrostatic_energy": 10.45, 
			 "SMD_solvation_energy": 7.25 
		},
		"coords": [
			{
				"x": -3.3387629173,
				"y": 0.2081057879,
				"z": -2.0406753683,
				"element": "O" 
			},
			{
				"x": -3.0354895387,
				"y": -0.92370719,
				"z": -1.3900018758,
				"element": "C" 
			},
			{
				"x": -3.6269997214,
				"y": -1.9579117102,
				"z": -1.5886633954,
				"element": "O" 
			},
			{
				"x": -1.8765233489,
				"y": -0.8572944723,
				"z": -0.3735929938,
				"element": "C" 
			},
			{
				"x": -1.9910387178,
				"y": 0.1724523375,
				"z": 0.6641919585,
				"element": "N" 
			},
			{
				"x": -1.4976288762,
				"y": 1.7411254699,
				"z": 0.412297183,
				"element": "S" 
			},
			{
				"x": -1.4341171279,
				"y": 1.9756912852,
				"z": -1.0466856666,
				"element": "O" 
			},
			{
				"x": -2.3110822598,
				"y": 2.5829821143,
				"z": 1.2823180094,
				"element": "O" 
			},
			{
				"x": 0.2049960743,
				"y": 1.7707918406,
				"z": 0.9605756052,
				"element": "C" 
			},
			{
				"x": 0.5199726276,
				"y": 1.4514841618,
				"z": 2.2846627089,
				"element": "C" 
			},
			{
				"x": -0.424002286,
				"y": 1.0724534115,
				"z": 3.1484871722,
				"element": "F" 
			},
			{
				"x": 1.8386960111,
				"y": 1.5123608542,
				"z": 2.7233154645,
				"element": "C" 
			},
			{
				"x": 2.1430328466,
				"y": 1.1988784443,
				"z": 3.98426035,
				"element": "F" 
			},
			{
				"x": 2.8368346626,
				"y": 1.9050463398,
				"z": 1.8292377396,
				"element": "C" 
			},
			{
				"x": 4.0950077137,
				"y": 1.9577435991,
				"z": 2.2743988213,
				"element": "F" 
			},
			{
				"x": 2.5373606567,
				"y": 2.2306314488,
				"z": 0.511561048,
				"element": "C" 
			},
			{
				"x": 1.2146579947,
				"y": 2.1635834712,
				"z": 0.0780740801,
				"element": "C" 
			},
			{
				"x": -2.7158186713,
				"y": 0.9320569602,
				"z": -1.8176856663,
				"element": "H" 
			},
			{
				"x": -0.9337180859,
				"y": -0.7010650315,
				"z": -0.9079786526,
				"element": "H" 
			},
			{
				"x": -1.8261355647,
				"y": -1.8316379748,
				"z": 0.1147657346,
				"element": "H" 
			},
			{
				"x": -2.7995313612,
				"y": 0.1402408026,
				"z": 1.2767273172,
				"element": "H" 
			},
			{
				"x": 3.3389586181,
				"y": 2.5324361287,
				"z": -0.1523968369,
				"element": "H" 
			},
			{
				"x": 0.9488312718,
				"y": 2.4137519211,
				"z": -0.9418927368,
				"element": "H" 
			}
		],
		 "valence_orbital": [ 
			{
				"type": "occ",
				"energy": -0.31939,
				"method": "rhf"
			},
			{
				"type": "occ",
				"energy": -0.31472,
				"method": "rhf"
			},
			{
				"type": "occ",
				"energy": -0.29255,
				"method": "rhf"
			},
			{
				"type": "occ",
				"energy": -0.28927,
				"method": "rhf"
			},
			{
				"type": "occ",
				"energy": -0.26666,
				"method": "rhf"
			},
			{
				"type": "unocc",
				"energy": -0.06681,
				"method": "rhf"
			},
			{
				"type": "unocc",
				"energy": -0.0477,
				"method": "rhf"
			},
			{
				"type": "unocc",
				"energy": -0.00648,
				"method": "rhf"
			},
			{
				"type": "unocc",
				"energy": 0.00477,
				"method": "rhf"
			},
			{
				"type": "unocc",
				"energy": 0.04912,
				"method": "rhf"
			}
		],
		"cosmo_sigma_profile": { 
			"-0.025": 0.0,
			"-0.024": 0.0,
			"-0.023": 0.0,
			"-0.022": 0.0,
			"-0.021": 0.0,
			"-0.02": 0.0,
			"-0.019": 0.0,
			"-0.018": 0.0,
			"-0.017": 0.490724514536,
			"-0.016": 1.23577866419,
			"-0.015": 1.13475089579,
			"-0.014": 1.10623153747,
			"-0.013": 1.31058096356,
			"-0.012": 0.981316075363,
			"-0.011": 0.838173008295,
			"-0.01": 2.12929469854,
			"-0.009": 7.58024843446,
			"-0.008": 9.4751249791,
			"-0.007": 10.2622046426,
			"-0.006": 10.291577825,
			"-0.005": 9.10863319825,
			"-0.004": 17.5404844395,
			"-0.003": 16.5712061407,
			"-0.002": 16.7053692073,
			"-0.001": 13.6661428551,
			"0.0": 12.9110285171,
			"0.001": 13.5180110997,
			"0.002": 28.1652288331,
			"0.003": 17.701530832,
			"0.004": 5.80027828303,
			"0.005": 4.6442709972,
			"0.006": 5.18226949638,
			"0.007": 5.43826113809,
			"0.008": 5.40438729217,
			"0.009": 10.4844566562,
			"0.01": 8.93828371291,
			"0.011": 5.80970147543,
			"0.012": 4.96546449889,
			"0.013": 1.50751189507,
			"0.014": 0.0363907011387,
			"0.015": 0.0,
			"0.016": 0.0,
			"0.017": 0.0,
			"0.018": 0.0,
			"0.019": 0.0,
			"0.02": 0.0,
			"0.021": 0.0,
			"0.022": 0.0,
			"0.023": 0.0,
			"0.024": 0.0,
			"0.025": 0.0
		}
	}
}
