{
	 "smiles": "CN(C)CCC#N", 
	 "Tm": 230.15, 
	 "num_atms": 17, 
	 "gaussian": { 
		 "optdone": 1, 
		 "sigma_profile": "yes", 
		 "theory": "DFT", 
		 "functional": "B3LYP", 
		 "basiset": "6-31G**", 
		 "properties": { 
			 "R2extent": 1345.5686, 
			 "electric_dipole_moment_norm": 4.47761892193, 
			 "electric_quadrupole_moment_norm": 13.0299933016, 
			 "total_energy": -306.032172884, 
			 "HOMO_LUMO_gap": 0.25999, 
			 "cosmo_polarized_energy": -10.89, 
			 "cosmo_cavitation_energy": 20.39, 
			 "cosmo_dispersion_energy": -14.17, 
			 "cosmo_repulsion_energy": 1.22, 
			 "cosmo_total_nonelectrostatic_energy": 7.44, 
			 "SMD_solvation_energy": 3.51 
		},
		"coords": [
			{
				"x": -2.2991485256,
				"y": 0.9332363648,
				"z": -0.4916807802,
				"element": "C" 
			},
			{
				"x": -1.1925504586,
				"y": 0.0699095261,
				"z": -0.0992986515,
				"element": "N" 
			},
			{
				"x": -0.5732567558,
				"y": -0.5555119526,
				"z": -1.2616956244,
				"element": "C" 
			},
			{
				"x": -1.5650211964,
				"y": -0.9096397605,
				"z": 0.9108826099,
				"element": "C" 
			},
			{
				"x": -1.7571623187,
				"y": -0.2899109045,
				"z": 2.3105396644,
				"element": "C" 
			},
			{
				"x": -0.5403019131,
				"y": 0.341598714,
				"z": 2.8287844868,
				"element": "C" 
			},
			{
				"x": 0.4233358772,
				"y": 0.8259246796,
				"z": 3.2571514655,
				"element": "N" 
			},
			{
				"x": -1.942263697,
				"y": 1.6792148876,
				"z": -1.2076658518,
				"element": "H" 
			},
			{
				"x": -2.6939174032,
				"y": 1.4760905986,
				"z": 0.3718371621,
				"element": "H" 
			},
			{
				"x": -3.1363229507,
				"y": 0.3801388585,
				"z": -0.9607698355,
				"element": "H" 
			},
			{
				"x": -1.2542076365,
				"y": -1.2316722957,
				"z": -1.8139485508,
				"element": "H" 
			},
			{
				"x": 0.3029835582,
				"y": -1.1322518937,
				"z": -0.9506658138,
				"element": "H" 
			},
			{
				"x": -0.2361528276,
				"y": 0.2200810271,
				"z": -1.9561068912,
				"element": "H" 
			},
			{
				"x": -2.4937737235,
				"y": -1.4565085161,
				"z": 0.6535699837,
				"element": "H" 
			},
			{
				"x": -0.7655295634,
				"y": -1.6542609502,
				"z": 0.9751138655,
				"element": "H" 
			},
			{
				"x": -2.0667154644,
				"y": -1.0741863763,
				"z": 3.0113322017,
				"element": "H" 
			},
			{
				"x": -2.5601950009,
				"y": 0.4548479933,
				"z": 2.3041205595,
				"element": "H" 
			}
		],
		 "valence_orbital": [ 
			{
				"type": "occ",
				"energy": -0.36806,
				"method": "rhf"
			},
			{
				"type": "occ",
				"energy": -0.34726,
				"method": "rhf"
			},
			{
				"type": "occ",
				"energy": -0.3163,
				"method": "rhf"
			},
			{
				"type": "occ",
				"energy": -0.31464,
				"method": "rhf"
			},
			{
				"type": "occ",
				"energy": -0.22462,
				"method": "rhf"
			},
			{
				"type": "unocc",
				"energy": 0.03537,
				"method": "rhf"
			},
			{
				"type": "unocc",
				"energy": 0.04558,
				"method": "rhf"
			},
			{
				"type": "unocc",
				"energy": 0.0815,
				"method": "rhf"
			},
			{
				"type": "unocc",
				"energy": 0.09876,
				"method": "rhf"
			},
			{
				"type": "unocc",
				"energy": 0.11383,
				"method": "rhf"
			}
		],
		"cosmo_sigma_profile": { 
			"-0.025": 0.0,
			"-0.024": 0.0,
			"-0.023": 0.0,
			"-0.022": 0.0,
			"-0.021": 0.0,
			"-0.02": 0.0,
			"-0.019": 0.0,
			"-0.018": 0.0,
			"-0.017": 0.0,
			"-0.016": 0.0,
			"-0.015": 0.0,
			"-0.014": 0.0,
			"-0.013": 0.0,
			"-0.012": 0.0,
			"-0.011": 0.0,
			"-0.01": 0.0,
			"-0.009": 0.0995681665236,
			"-0.008": 4.52262939794,
			"-0.007": 5.88607030618,
			"-0.006": 7.11255729769,
			"-0.005": 10.7313126754,
			"-0.004": 17.1227142206,
			"-0.003": 13.5496864487,
			"-0.002": 20.5448650803,
			"-0.001": 20.1535921752,
			"0.0": 15.2748155788,
			"0.001": 3.45680692934,
			"0.002": 2.52086633293,
			"0.003": 1.92712037624,
			"0.004": 2.82391843976,
			"0.005": 2.1915204247,
			"0.006": 2.78965216996,
			"0.007": 4.42437724661,
			"0.008": 3.69100255363,
			"0.009": 5.5568631946,
			"0.01": 4.3342141465,
			"0.011": 4.11768608153,
			"0.012": 2.98305184547,
			"0.013": 2.80060934413,
			"0.014": 1.3272550618,
			"0.015": 0.000328900413976,
			"0.016": 0.0,
			"0.017": 0.0,
			"0.018": 0.0,
			"0.019": 0.0,
			"0.02": 0.0,
			"0.021": 0.0,
			"0.022": 0.0,
			"0.023": 0.0,
			"0.024": 0.0,
			"0.025": 0.0
		}
	}
}
