{
	 "smiles": "CC(C)=CCC1C(=O)N(N(C1=O)C1=CC=CC=C1)C1=CC=CC=C1", 
	 "Tm": 429.15, 
	 "num_atms": 44, 
	 "gaussian": { 
		 "optdone": 1, 
		 "sigma_profile": "yes", 
		 "theory": "DFT", 
		 "functional": "B3LYP", 
		 "basiset": "6-31G**", 
		 "properties": { 
			 "R2extent": 7563.4711, 
			 "electric_dipole_moment_norm": 2.04162709866, 
			 "electric_quadrupole_moment_norm": 6.74327065377, 
			 "total_energy": -1034.11195987, 
			 "HOMO_LUMO_gap": 0.18777, 
			 "cosmo_polarized_energy": -13.18, 
			 "cosmo_cavitation_energy": 46.78, 
			 "cosmo_dispersion_energy": -30.21, 
			 "cosmo_repulsion_energy": 2.34, 
			 "cosmo_total_nonelectrostatic_energy": 18.91, 
			 "SMD_solvation_energy": 8.89 
		},
		"coords": [
			{
				"x": -3.6923755465,
				"y": -0.4908529498,
				"z": -2.8057781918,
				"element": "C" 
			},
			{
				"x": -2.9588622279,
				"y": 0.7847185376,
				"z": -2.4655267377,
				"element": "C" 
			},
			{
				"x": -3.806480595,
				"y": 1.8348831959,
				"z": -1.7906521909,
				"element": "C" 
			},
			{
				"x": -1.6582652018,
				"y": 0.9223533569,
				"z": -2.7703736502,
				"element": "C" 
			},
			{
				"x": -0.7732259782,
				"y": 2.1177149016,
				"z": -2.5277150274,
				"element": "C" 
			},
			{
				"x": 0.2573773214,
				"y": 1.9006722652,
				"z": -1.3930037438,
				"element": "C" 
			},
			{
				"x": 1.1457384886,
				"y": 0.6803121547,
				"z": -1.5594424719,
				"element": "C" 
			},
			{
				"x": 1.8648917072,
				"y": 0.4139049064,
				"z": -2.5013300869,
				"element": "O" 
			},
			{
				"x": 1.0428347836,
				"y": -0.0802620311,
				"z": -0.3870149702,
				"element": "N" 
			},
			{
				"x": 0.1523702933,
				"y": 0.5476334569,
				"z": 0.536511305,
				"element": "N" 
			},
			{
				"x": -0.3935864177,
				"y": 1.7042736942,
				"z": -0.0357486946,
				"element": "C" 
			},
			{
				"x": -1.2647302416,
				"y": 2.3833879495,
				"z": 0.4698003054,
				"element": "O" 
			},
			{
				"x": -0.6071333908,
				"y": -0.2850668887,
				"z": 1.4207063901,
				"element": "C" 
			},
			{
				"x": -0.8052018433,
				"y": -1.6422201739,
				"z": 1.1427639661,
				"element": "C" 
			},
			{
				"x": -1.5554723023,
				"y": -2.4203933066,
				"z": 2.0236781017,
				"element": "C" 
			},
			{
				"x": -2.1162933563,
				"y": -1.8550613919,
				"z": 3.1699537332,
				"element": "C" 
			},
			{
				"x": -1.9162640138,
				"y": -0.499459841,
				"z": 3.436002194,
				"element": "C" 
			},
			{
				"x": -1.1552225686,
				"y": 0.2890980023,
				"z": 2.5738520468,
				"element": "C" 
			},
			{
				"x": 2.1323516021,
				"y": -0.8506380701,
				"z": 0.12856681,
				"element": "C" 
			},
			{
				"x": 2.7684963309,
				"y": -1.768038515,
				"z": -0.7175343482,
				"element": "C" 
			},
			{
				"x": 3.8469233545,
				"y": -2.5090571256,
				"z": -0.2357558981,
				"element": "C" 
			},
			{
				"x": 4.2819159687,
				"y": -2.3607564912,
				"z": 1.0822018499,
				"element": "C" 
			},
			{
				"x": 3.6333751152,
				"y": -1.4529838835,
				"z": 1.9206874619,
				"element": "C" 
			},
			{
				"x": 2.5630656774,
				"y": -0.6925242854,
				"z": 1.4513635408,
				"element": "C" 
			},
			{
				"x": -4.5522569129,
				"y": -0.2864009026,
				"z": -3.4573106805,
				"element": "H" 
			},
			{
				"x": -3.0468047769,
				"y": -1.2135099953,
				"z": -3.3123504372,
				"element": "H" 
			},
			{
				"x": -4.0946693668,
				"y": -0.9644522046,
				"z": -1.9008068217,
				"element": "H" 
			},
			{
				"x": -4.3141164376,
				"y": 1.4054683384,
				"z": -0.9183148281,
				"element": "H" 
			},
			{
				"x": -4.5951691332,
				"y": 2.1868722894,
				"z": -2.4690017231,
				"element": "H" 
			},
			{
				"x": -3.235628981,
				"y": 2.6947554359,
				"z": -1.4400388324,
				"element": "H" 
			},
			{
				"x": -1.1607103501,
				"y": 0.0827110949,
				"z": -3.2561866587,
				"element": "H" 
			},
			{
				"x": -0.201244972,
				"y": 2.3382009364,
				"z": -3.4364941112,
				"element": "H" 
			},
			{
				"x": -1.3509102415,
				"y": 3.010791968,
				"z": -2.2792053468,
				"element": "H" 
			},
			{
				"x": 0.9233683379,
				"y": 2.7730381033,
				"z": -1.3486240211,
				"element": "H" 
			},
			{
				"x": -0.3779560813,
				"y": -2.0816281942,
				"z": 0.2493577834,
				"element": "H" 
			},
			{
				"x": -1.7038805987,
				"y": -3.4739978585,
				"z": 1.8058348644,
				"element": "H" 
			},
			{
				"x": -2.700315884,
				"y": -2.4662383481,
				"z": 3.8513390403,
				"element": "H" 
			},
			{
				"x": -2.3464979223,
				"y": -0.0487379363,
				"z": 4.325482172,
				"element": "H" 
			},
			{
				"x": -0.9987976388,
				"y": 1.3408737481,
				"z": 2.7754625271,
				"element": "H" 
			},
			{
				"x": 2.4310970665,
				"y": -1.8776611115,
				"z": -1.7396146741,
				"element": "H" 
			},
			{
				"x": 4.3425044054,
				"y": -3.213122841,
				"z": -0.8976839435,
				"element": "H" 
			},
			{
				"x": 5.1154402324,
				"y": -2.9491829576,
				"z": 1.4534404428,
				"element": "H" 
			},
			{
				"x": 3.9616739843,
				"y": -1.3279327384,
				"z": 2.9483718468,
				"element": "H" 
			},
			{
				"x": 2.0669483116,
				"y": 0.0159157064,
				"z": 2.1038317085,
				"element": "H" 
			}
		],
		 "valence_orbital": [ 
			{
				"type": "occ",
				"energy": -0.25681,
				"method": "rhf"
			},
			{
				"type": "occ",
				"energy": -0.25353,
				"method": "rhf"
			},
			{
				"type": "occ",
				"energy": -0.24268,
				"method": "rhf"
			},
			{
				"type": "occ",
				"energy": -0.23608,
				"method": "rhf"
			},
			{
				"type": "occ",
				"energy": -0.21593,
				"method": "rhf"
			},
			{
				"type": "unocc",
				"energy": -0.02816,
				"method": "rhf"
			},
			{
				"type": "unocc",
				"energy": -0.01247,
				"method": "rhf"
			},
			{
				"type": "unocc",
				"energy": -0.0087,
				"method": "rhf"
			},
			{
				"type": "unocc",
				"energy": -0.00557,
				"method": "rhf"
			},
			{
				"type": "unocc",
				"energy": 0.00111,
				"method": "rhf"
			}
		],
		"cosmo_sigma_profile": { 
			"-0.025": 0.0,
			"-0.024": 0.0,
			"-0.023": 0.0,
			"-0.022": 0.0,
			"-0.021": 0.0,
			"-0.02": 0.0,
			"-0.019": 0.0,
			"-0.018": 0.0,
			"-0.017": 0.0,
			"-0.016": 0.0,
			"-0.015": 0.0,
			"-0.014": 0.0,
			"-0.013": 0.0,
			"-0.012": 0.0,
			"-0.011": 0.0,
			"-0.01": 0.625555481679,
			"-0.009": 3.82355122111,
			"-0.008": 2.85061255828,
			"-0.007": 2.77041648296,
			"-0.006": 15.5726917626,
			"-0.005": 24.6220775878,
			"-0.004": 32.6050113863,
			"-0.003": 38.0372201537,
			"-0.002": 35.1751200817,
			"-0.001": 32.1126158376,
			"0.0": 32.1365623493,
			"0.001": 26.4502436913,
			"0.002": 22.4164440718,
			"0.003": 22.5719278944,
			"0.004": 23.8498234895,
			"0.005": 23.369642688,
			"0.006": 6.2515345697,
			"0.007": 3.09331020245,
			"0.008": 3.84244622902,
			"0.009": 4.40621999156,
			"0.01": 3.715245085,
			"0.011": 6.28303757587,
			"0.012": 4.90553096403,
			"0.013": 0.293077411288,
			"0.014": 0.0,
			"0.015": 0.0,
			"0.016": 0.0,
			"0.017": 0.0,
			"0.018": 0.0,
			"0.019": 0.0,
			"0.02": 0.0,
			"0.021": 0.0,
			"0.022": 0.0,
			"0.023": 0.0,
			"0.024": 0.0,
			"0.025": 0.0
		}
	}
}
