{
	 "smiles": "NC1=CC=C(CC2=CC=CC=C2)C=C1", 
	 "Tm": 310.15, 
	 "num_atms": 27, 
	 "gaussian": { 
		 "optdone": 1, 
		 "sigma_profile": "yes", 
		 "theory": "DFT", 
		 "functional": "B3LYP", 
		 "basiset": "6-31G**", 
		 "properties": { 
			 "R2extent": 3739.4976, 
			 "electric_dipole_moment_norm": 1.72898581544, 
			 "electric_quadrupole_moment_norm": 10.9524912837, 
			 "total_energy": -557.980098325, 
			 "HOMO_LUMO_gap": 0.19668, 
			 "cosmo_polarized_energy": -9.79, 
			 "cosmo_cavitation_energy": 30.57, 
			 "cosmo_dispersion_energy": -21.9, 
			 "cosmo_repulsion_energy": 1.74, 
			 "cosmo_total_nonelectrostatic_energy": 10.41, 
			 "SMD_solvation_energy": 4.84 
		},
		"coords": [
			{
				"x": -0.8023049957,
				"y": -3.7426521872,
				"z": 1.6648101131,
				"element": "N" 
			},
			{
				"x": -0.2980095087,
				"y": -2.5790935429,
				"z": 1.0744130597,
				"element": "C" 
			},
			{
				"x": 0.6883034097,
				"y": -2.6422741008,
				"z": 0.0786462307,
				"element": "C" 
			},
			{
				"x": 1.2258905481,
				"y": -1.4740502941,
				"z": -0.4605508354,
				"element": "C" 
			},
			{
				"x": 0.8075114321,
				"y": -0.2085469369,
				"z": -0.0358924917,
				"element": "C" 
			},
			{
				"x": 1.4092786314,
				"y": 1.0605387453,
				"z": -0.6138471408,
				"element": "C" 
			},
			{
				"x": 0.4083578143,
				"y": 2.0043242002,
				"z": -1.2634262693,
				"element": "C" 
			},
			{
				"x": 0.3485610435,
				"y": 3.3530703941,
				"z": -0.8941422907,
				"element": "C" 
			},
			{
				"x": -0.5524237917,
				"y": 4.2279144853,
				"z": -1.5071032969,
				"element": "C" 
			},
			{
				"x": -1.4104223425,
				"y": 3.762784615,
				"z": -2.5030538571,
				"element": "C" 
			},
			{
				"x": -1.3621626214,
				"y": 2.4173827961,
				"z": -2.879263394,
				"element": "C" 
			},
			{
				"x": -0.4635028909,
				"y": 1.5480947621,
				"z": -2.2633621547,
				"element": "C" 
			},
			{
				"x": -0.1813500057,
				"y": -0.154399699,
				"z": 0.9576537175,
				"element": "C" 
			},
			{
				"x": -0.7253069666,
				"y": -1.3103368813,
				"z": 1.5060593658,
				"element": "C" 
			},
			{
				"x": -0.7368019695,
				"y": -4.5722815501,
				"z": 1.0906433067,
				"element": "H" 
			},
			{
				"x": -1.7225312594,
				"y": -3.6465619104,
				"z": 2.0724944007,
				"element": "H" 
			},
			{
				"x": 1.0371714986,
				"y": -3.6112673579,
				"z": -0.2708901908,
				"element": "H" 
			},
			{
				"x": 1.9905346607,
				"y": -1.5531725042,
				"z": -1.2302187242,
				"element": "H" 
			},
			{
				"x": 1.9446274301,
				"y": 1.6087757288,
				"z": 0.1720587026,
				"element": "H" 
			},
			{
				"x": 2.170543868,
				"y": 0.7802867242,
				"z": -1.3534950425,
				"element": "H" 
			},
			{
				"x": 1.0161693642,
				"y": 3.7235316335,
				"z": -0.119534135,
				"element": "H" 
			},
			{
				"x": -0.5829811873,
				"y": 5.2708587092,
				"z": -1.2035451944,
				"element": "H" 
			},
			{
				"x": -2.1125581529,
				"y": 4.4397257069,
				"z": -2.9814728881,
				"element": "H" 
			},
			{
				"x": -2.0281452225,
				"y": 2.0452691581,
				"z": -3.6531915943,
				"element": "H" 
			},
			{
				"x": -0.4391029441,
				"y": 0.5003900202,
				"z": -2.5516076318,
				"element": "H" 
			},
			{
				"x": -0.5383903952,
				"y": 0.8129257161,
				"z": 1.3026224773,
				"element": "H" 
			},
			{
				"x": -1.4869554466,
				"y": -1.2373364303,
				"z": 2.2790957577,
				"element": "H" 
			}
		],
		 "valence_orbital": [ 
			{
				"type": "occ",
				"energy": -0.29576,
				"method": "rhf"
			},
			{
				"type": "occ",
				"energy": -0.24306,
				"method": "rhf"
			},
			{
				"type": "occ",
				"energy": -0.24151,
				"method": "rhf"
			},
			{
				"type": "occ",
				"energy": -0.23424,
				"method": "rhf"
			},
			{
				"type": "occ",
				"energy": -0.19437,
				"method": "rhf"
			},
			{
				"type": "unocc",
				"energy": 0.00231,
				"method": "rhf"
			},
			{
				"type": "unocc",
				"energy": 0.00428,
				"method": "rhf"
			},
			{
				"type": "unocc",
				"energy": 0.01056,
				"method": "rhf"
			},
			{
				"type": "unocc",
				"energy": 0.02401,
				"method": "rhf"
			},
			{
				"type": "unocc",
				"energy": 0.08395,
				"method": "rhf"
			}
		],
		"cosmo_sigma_profile": { 
			"-0.025": 0.0,
			"-0.024": 0.0,
			"-0.023": 0.0,
			"-0.022": 0.0,
			"-0.021": 0.0,
			"-0.02": 0.0,
			"-0.019": 0.0,
			"-0.018": 0.0,
			"-0.017": 0.0,
			"-0.016": 0.0,
			"-0.015": 0.0,
			"-0.014": 0.0,
			"-0.013": 0.0915224352807,
			"-0.012": 1.73330532728,
			"-0.011": 3.06533865668,
			"-0.01": 2.6806246884,
			"-0.009": 2.99141720652,
			"-0.008": 2.56857369388,
			"-0.007": 2.88195828627,
			"-0.006": 5.51591922503,
			"-0.005": 15.8932426034,
			"-0.004": 22.7176276827,
			"-0.003": 23.1616953483,
			"-0.002": 20.9165191651,
			"-0.001": 16.5403305502,
			"0.0": 15.6456912053,
			"0.001": 13.433542244,
			"0.002": 12.4167976931,
			"0.003": 13.8973180902,
			"0.004": 13.9239947508,
			"0.005": 16.3381657718,
			"0.006": 17.3641795109,
			"0.007": 12.1557247121,
			"0.008": 1.82247733924,
			"0.009": 1.04308736973,
			"0.01": 0.558579142359,
			"0.011": 0.648739225758,
			"0.012": 1.02915091556,
			"0.013": 0.624400235816,
			"0.014": 0.51130195714,
			"0.015": 0.438557456534,
			"0.016": 0.0539386225974,
			"0.017": 0.0,
			"0.018": 0.0,
			"0.019": 0.0,
			"0.02": 0.0,
			"0.021": 0.0,
			"0.022": 0.0,
			"0.023": 0.0,
			"0.024": 0.0,
			"0.025": 0.0
		}
	}
}
