{
	 "smiles": "FC(F)(F)C1=CC(=CC=C1)N1C(=O)NC(=O)C2=C1CCCC2", 
	 "Tm": 527.15, 
	 "num_atms": 35, 
	 "gaussian": { 
		 "optdone": 1, 
		 "sigma_profile": "yes", 
		 "theory": "DFT", 
		 "functional": "B3LYP", 
		 "basiset": "6-31G**", 
		 "properties": { 
			 "R2extent": 7875.5886, 
			 "electric_dipole_moment_norm": 4.99629164681, 
			 "electric_quadrupole_moment_norm": 15.0957893411, 
			 "total_energy": -1138.96057002, 
			 "HOMO_LUMO_gap": 0.18855, 
			 "cosmo_polarized_energy": -17.05, 
			 "cosmo_cavitation_energy": 39.54, 
			 "cosmo_dispersion_energy": -27.34, 
			 "cosmo_repulsion_energy": 2.04, 
			 "cosmo_total_nonelectrostatic_energy": 14.24, 
			 "SMD_solvation_energy": 8.58 
		},
		"coords": [
			{
				"x": -4.3958698591,
				"y": 2.1137414638,
				"z": 1.8225642327,
				"element": "F" 
			},
			{
				"x": -3.2096672941,
				"y": 2.528190708,
				"z": 1.3237346277,
				"element": "C" 
			},
			{
				"x": -3.4376703101,
				"y": 3.0233141726,
				"z": 0.0878089933,
				"element": "F" 
			},
			{
				"x": -2.7967017864,
				"y": 3.5568977986,
				"z": 2.0949914165,
				"element": "F" 
			},
			{
				"x": -2.1994497526,
				"y": 1.4103616063,
				"z": 1.3019694172,
				"element": "C" 
			},
			{
				"x": -1.2505803587,
				"y": 1.349960375,
				"z": 0.2812592526,
				"element": "C" 
			},
			{
				"x": -0.2930183344,
				"y": 0.3358358374,
				"z": 0.2936063026,
				"element": "C" 
			},
			{
				"x": -0.2714528848,
				"y": -0.6027059512,
				"z": 1.3261383274,
				"element": "C" 
			},
			{
				"x": -1.2261562459,
				"y": -0.5383383921,
				"z": 2.3421130791,
				"element": "C" 
			},
			{
				"x": -2.1923782675,
				"y": 0.465490563,
				"z": 2.3323647285,
				"element": "C" 
			},
			{
				"x": 0.6873078734,
				"y": 0.2653397193,
				"z": -0.7625928288,
				"element": "N" 
			},
			{
				"x": 1.7835382904,
				"y": 1.1356264028,
				"z": -0.6286456309,
				"element": "C" 
			},
			{
				"x": 1.8927899313,
				"y": 1.9269007749,
				"z": 0.2911124392,
				"element": "O" 
			},
			{
				"x": 2.7220740808,
				"y": 1.0084253516,
				"z": -1.6329612607,
				"element": "N" 
			},
			{
				"x": 2.7071428931,
				"y": 0.1271924767,
				"z": -2.7231114565,
				"element": "C" 
			},
			{
				"x": 3.6290823774,
				"y": 0.1236804199,
				"z": -3.5278275634,
				"element": "O" 
			},
			{
				"x": 1.5279965595,
				"y": -0.7333620442,
				"z": -2.7855533003,
				"element": "C" 
			},
			{
				"x": 0.5608842185,
				"y": -0.6348558396,
				"z": -1.833554847,
				"element": "C" 
			},
			{
				"x": -0.695567776,
				"y": -1.4771421218,
				"z": -1.8727338373,
				"element": "C" 
			},
			{
				"x": -0.9066798916,
				"y": -2.1589978031,
				"z": -3.2319183835,
				"element": "C" 
			},
			{
				"x": 0.3954896072,
				"y": -2.7822144981,
				"z": -3.7424038702,
				"element": "C" 
			},
			{
				"x": 1.4556479169,
				"y": -1.696528286,
				"z": -3.9472888493,
				"element": "C" 
			},
			{
				"x": -1.2543448017,
				"y": 2.0815610725,
				"z": -0.5181982332,
				"element": "H" 
			},
			{
				"x": 0.4938302744,
				"y": -1.3724332971,
				"z": 1.3324332959,
				"element": "H" 
			},
			{
				"x": -1.2131360591,
				"y": -1.2706169113,
				"z": 3.1430409725,
				"element": "H" 
			},
			{
				"x": -2.9410982136,
				"y": 0.5165938763,
				"z": 3.1153716219,
				"element": "H" 
			},
			{
				"x": 3.5233216463,
				"y": 1.6235825914,
				"z": -1.5584084684,
				"element": "H" 
			},
			{
				"x": -0.6389116715,
				"y": -2.2336901041,
				"z": -1.0779967083,
				"element": "H" 
			},
			{
				"x": -1.559898268,
				"y": -0.8532909958,
				"z": -1.6220711498,
				"element": "H" 
			},
			{
				"x": -1.6959306145,
				"y": -2.9120658908,
				"z": -3.1354379015,
				"element": "H" 
			},
			{
				"x": -1.2634160849,
				"y": -1.4178385589,
				"z": -3.9586203292,
				"element": "H" 
			},
			{
				"x": 0.2239957375,
				"y": -3.3217821547,
				"z": -4.6797765902,
				"element": "H" 
			},
			{
				"x": 0.7555902039,
				"y": -3.5203446003,
				"z": -3.013147034,
				"element": "H" 
			},
			{
				"x": 1.2456192774,
				"y": -1.1335876394,
				"z": -4.8678269801,
				"element": "H" 
			},
			{
				"x": 2.4490175865,
				"y": -2.1317001213,
				"z": -4.0976334848,
				"element": "H" 
			}
		],
		 "valence_orbital": [ 
			{
				"type": "occ",
				"energy": -0.28562,
				"method": "rhf"
			},
			{
				"type": "occ",
				"energy": -0.28018,
				"method": "rhf"
			},
			{
				"type": "occ",
				"energy": -0.27993,
				"method": "rhf"
			},
			{
				"type": "occ",
				"energy": -0.25868,
				"method": "rhf"
			},
			{
				"type": "occ",
				"energy": -0.23356,
				"method": "rhf"
			},
			{
				"type": "unocc",
				"energy": -0.04501,
				"method": "rhf"
			},
			{
				"type": "unocc",
				"energy": -0.03929,
				"method": "rhf"
			},
			{
				"type": "unocc",
				"energy": -0.03018,
				"method": "rhf"
			},
			{
				"type": "unocc",
				"energy": 0.01426,
				"method": "rhf"
			},
			{
				"type": "unocc",
				"energy": 0.06885,
				"method": "rhf"
			}
		],
		"cosmo_sigma_profile": { 
			"-0.025": 0.0,
			"-0.024": 0.0,
			"-0.023": 0.0,
			"-0.022": 0.0,
			"-0.021": 0.0,
			"-0.02": 0.0,
			"-0.019": 0.0,
			"-0.018": 0.0,
			"-0.017": 0.0,
			"-0.016": 0.24795120267,
			"-0.015": 1.13390782671,
			"-0.014": 0.608222684979,
			"-0.013": 0.917313507064,
			"-0.012": 0.384515716344,
			"-0.011": 0.823397540951,
			"-0.01": 0.699978283776,
			"-0.009": 1.02955686665,
			"-0.008": 3.7694367899,
			"-0.007": 9.59170317788,
			"-0.006": 12.2098738765,
			"-0.005": 15.5420966366,
			"-0.004": 20.2022931542,
			"-0.003": 30.7598728986,
			"-0.002": 33.4639787116,
			"-0.001": 33.0860589236,
			"0.0": 27.7760982808,
			"0.001": 20.8231169855,
			"0.002": 27.8794698731,
			"0.003": 29.2986548418,
			"0.004": 3.48182172947,
			"0.005": 3.17808972844,
			"0.006": 3.26265222065,
			"0.007": 2.60542069938,
			"0.008": 2.46785494534,
			"0.009": 2.94453352696,
			"0.01": 3.46178674956,
			"0.011": 3.65907710183,
			"0.012": 7.26203264033,
			"0.013": 9.77845137528,
			"0.014": 1.80677267748,
			"0.015": 0.0,
			"0.016": 0.0,
			"0.017": 0.0,
			"0.018": 0.0,
			"0.019": 0.0,
			"0.02": 0.0,
			"0.021": 0.0,
			"0.022": 0.0,
			"0.023": 0.0,
			"0.024": 0.0,
			"0.025": 0.0
		}
	}
}
