{
	 "smiles": "CN1C=C(C=C1C(=O)NCC(O)=O)[N+]([O-])=O", 
	 "Tm": 404.15, 
	 "num_atms": 25, 
	 "gaussian": { 
		 "optdone": 1, 
		 "sigma_profile": "yes", 
		 "theory": "DFT", 
		 "functional": "B3LYP", 
		 "basiset": "6-31G**", 
		 "properties": { 
			 "R2extent": 5337.358, 
			 "electric_dipole_moment_norm": 7.71192566419, 
			 "electric_quadrupole_moment_norm": 44.8277960095, 
			 "total_energy": -850.560287604, 
			 "HOMO_LUMO_gap": 0.17696, 
			 "cosmo_polarized_energy": -28.98, 
			 "cosmo_cavitation_energy": 30.9, 
			 "cosmo_dispersion_energy": -22.14, 
			 "cosmo_repulsion_energy": 1.72, 
			 "cosmo_total_nonelectrostatic_energy": 10.48, 
			 "SMD_solvation_energy": 9.39 
		},
		"coords": [
			{
				"x": -1.0666934812,
				"y": 1.3331700798,
				"z": 3.1665044396,
				"element": "C" 
			},
			{
				"x": -0.9583724216,
				"y": 1.7904756955,
				"z": 1.7835467724,
				"element": "N" 
			},
			{
				"x": -0.918828533,
				"y": 3.104486998,
				"z": 1.4427613474,
				"element": "C" 
			},
			{
				"x": -0.8935617161,
				"y": 3.1826943944,
				"z": 0.0596977032,
				"element": "C" 
			},
			{
				"x": -0.9321688041,
				"y": 1.8793344009,
				"z": -0.4699012528,
				"element": "C" 
			},
			{
				"x": -0.964538453,
				"y": 1.0179861656,
				"z": 0.6127616189,
				"element": "C" 
			},
			{
				"x": -1.0021762985,
				"y": -0.4493522085,
				"z": 0.4935526976,
				"element": "C" 
			},
			{
				"x": -1.3991518465,
				"y": -0.9730980376,
				"z": -0.5588274556,
				"element": "O" 
			},
			{
				"x": -0.5959224104,
				"y": -1.2143625479,
				"z": 1.5511463213,
				"element": "N" 
			},
			{
				"x": -0.685945665,
				"y": -2.674824114,
				"z": 1.510332446,
				"element": "C" 
			},
			{
				"x": 0.3780809923,
				"y": -3.3626798476,
				"z": 0.6295951461,
				"element": "C" 
			},
			{
				"x": 0.3574460966,
				"y": -3.0203331277,
				"z": -0.6636956715,
				"element": "O" 
			},
			{
				"x": 1.1587380047,
				"y": -4.1655007819,
				"z": 1.0832087204,
				"element": "O" 
			},
			{
				"x": -0.8484261833,
				"y": 4.4118789664,
				"z": -0.6798452582,
				"element": "N" 
			},
			{
				"x": -0.8252976992,
				"y": 5.4612689535,
				"z": -0.0294435597,
				"element": "O" 
			},
			{
				"x": -0.83624658,
				"y": 4.3335879371,
				"z": -1.9083307658,
				"element": "O" 
			},
			{
				"x": -1.7868433061,
				"y": 0.5174130316,
				"z": 3.2391800427,
				"element": "H" 
			},
			{
				"x": -1.4134329847,
				"y": 2.1652707762,
				"z": 3.7801228184,
				"element": "H" 
			},
			{
				"x": -0.0980841055,
				"y": 1.0015739317,
				"z": 3.5573955829,
				"element": "H" 
			},
			{
				"x": -0.9245174255,
				"y": 3.895490081,
				"z": 2.1761966213,
				"element": "H" 
			},
			{
				"x": -0.9306078365,
				"y": 1.5913969236,
				"z": -1.5090359068,
				"element": "H" 
			},
			{
				"x": 0.0177897251,
				"y": -0.8099609613,
				"z": 2.2421402779,
				"element": "H" 
			},
			{
				"x": -0.5723305462,
				"y": -3.0576908658,
				"z": 2.5241869718,
				"element": "H" 
			},
			{
				"x": -1.6812649933,
				"y": -2.9390573876,
				"z": 1.1379719359,
				"element": "H" 
			},
			{
				"x": -0.3556435291,
				"y": -2.3553684553,
				"z": -0.8249215932,
				"element": "H" 
			}
		],
		 "valence_orbital": [ 
			{
				"type": "occ",
				"energy": -0.29923,
				"method": "rhf"
			},
			{
				"type": "occ",
				"energy": -0.29379,
				"method": "rhf"
			},
			{
				"type": "occ",
				"energy": -0.29258,
				"method": "rhf"
			},
			{
				"type": "occ",
				"energy": -0.27178,
				"method": "rhf"
			},
			{
				"type": "occ",
				"energy": -0.26083,
				"method": "rhf"
			},
			{
				"type": "unocc",
				"energy": -0.08387,
				"method": "rhf"
			},
			{
				"type": "unocc",
				"energy": -0.0641,
				"method": "rhf"
			},
			{
				"type": "unocc",
				"energy": -0.00086,
				"method": "rhf"
			},
			{
				"type": "unocc",
				"energy": 0.0267,
				"method": "rhf"
			},
			{
				"type": "unocc",
				"energy": 0.04015,
				"method": "rhf"
			}
		],
		"cosmo_sigma_profile": { 
			"-0.025": 0.0,
			"-0.024": 0.0,
			"-0.023": 0.0,
			"-0.022": 0.0,
			"-0.021": 0.0,
			"-0.02": 0.0,
			"-0.019": 0.0,
			"-0.018": 0.0,
			"-0.017": 0.028623690818,
			"-0.016": 1.5321139381,
			"-0.015": 1.58966062245,
			"-0.014": 1.91618499849,
			"-0.013": 1.46384690209,
			"-0.012": 1.79007087807,
			"-0.011": 3.12473697842,
			"-0.01": 4.21723713293,
			"-0.009": 5.09690792785,
			"-0.008": 10.0867676776,
			"-0.007": 12.8899284702,
			"-0.006": 14.4363888517,
			"-0.005": 17.989804367,
			"-0.004": 15.9060997801,
			"-0.003": 12.1906857764,
			"-0.002": 11.8652951444,
			"-0.001": 13.8489567248,
			"0.0": 13.1250803894,
			"0.001": 8.93133310554,
			"0.002": 8.6850113514,
			"0.003": 6.59664805031,
			"0.004": 5.2851528229,
			"0.005": 4.82914906588,
			"0.006": 7.28796148243,
			"0.007": 7.85860333544,
			"0.008": 15.6008275303,
			"0.009": 9.84674377187,
			"0.01": 9.85299852303,
			"0.011": 8.51827716252,
			"0.012": 7.63536343399,
			"0.013": 2.42794041211,
			"0.014": 0.144659686464,
			"0.015": 0.0,
			"0.016": 0.0,
			"0.017": 0.0,
			"0.018": 0.0,
			"0.019": 0.0,
			"0.02": 0.0,
			"0.021": 0.0,
			"0.022": 0.0,
			"0.023": 0.0,
			"0.024": 0.0,
			"0.025": 0.0
		}
	}
}
