{
	 "smiles": "CN1C=NC2=C1C=CC(=C2)C#N", 
	 "Tm": 413.15, 
	 "num_atms": 19, 
	 "gaussian": { 
		 "optdone": 1, 
		 "sigma_profile": "yes", 
		 "theory": "DFT", 
		 "functional": "B3LYP", 
		 "basiset": "6-31G**", 
		 "properties": { 
			 "R2extent": 2750.5883, 
			 "electric_dipole_moment_norm": 8.12342184612, 
			 "electric_quadrupole_moment_norm": 19.2146384181, 
			 "total_energy": -511.422867114, 
			 "HOMO_LUMO_gap": 0.20069, 
			 "cosmo_polarized_energy": -16.24, 
			 "cosmo_cavitation_energy": 24.48, 
			 "cosmo_dispersion_energy": -17.47, 
			 "cosmo_repulsion_energy": 1.36, 
			 "cosmo_total_nonelectrostatic_energy": 8.36, 
			 "SMD_solvation_energy": 4.03 
		},
		"coords": [
			{
				"x": 2.5651866879,
				"y": 1.5237897904,
				"z": 0.2917404631,
				"element": "C" 
			},
			{
				"x": 1.1872318158,
				"y": 1.0684548593,
				"z": 0.2945249857,
				"element": "N" 
			},
			{
				"x": 0.4408884854,
				"y": 0.6755647955,
				"z": 1.3874510874,
				"element": "C" 
			},
			{
				"x": -0.7814687153,
				"y": 0.3100670055,
				"z": 1.1031041683,
				"element": "N" 
			},
			{
				"x": -0.8739736783,
				"y": 0.4636870026,
				"z": -0.2724565998,
				"element": "C" 
			},
			{
				"x": 0.3543616434,
				"y": 0.9399285252,
				"z": -0.7994531481,
				"element": "C" 
			},
			{
				"x": 0.5446857956,
				"y": 1.1853492949,
				"z": -2.1627926141,
				"element": "C" 
			},
			{
				"x": -0.5333451765,
				"y": 0.9417131796,
				"z": -3.0023142764,
				"element": "C" 
			},
			{
				"x": -1.7698536607,
				"y": 0.4651276402,
				"z": -2.4931745897,
				"element": "C" 
			},
			{
				"x": -1.9517379153,
				"y": 0.221940971,
				"z": -1.1254996305,
				"element": "C" 
			},
			{
				"x": -2.850512288,
				"y": 0.2304292396,
				"z": -3.406125496,
				"element": "C" 
			},
			{
				"x": -3.7233897705,
				"y": 0.0420210726,
				"z": -4.1523313625,
				"element": "N" 
			},
			{
				"x": 2.9444239763,
				"y": 1.5115735737,
				"z": 1.315083716,
				"element": "H" 
			},
			{
				"x": 2.6362419581,
				"y": 2.5450757488,
				"z": -0.095815514,
				"element": "H" 
			},
			{
				"x": 3.1903271559,
				"y": 0.8666706018,
				"z": -0.3211723162,
				"element": "H" 
			},
			{
				"x": 0.873515127,
				"y": 0.6854361267,
				"z": 2.3807187151,
				"element": "H" 
			},
			{
				"x": 1.4870688244,
				"y": 1.5496441434,
				"z": -2.5588838417,
				"element": "H" 
			},
			{
				"x": -0.4408208621,
				"y": 1.1150935629,
				"z": -4.0687954751,
				"element": "H" 
			},
			{
				"x": -2.8971294031,
				"y": -0.1419671336,
				"z": -0.7396082716,
				"element": "H" 
			}
		],
		 "valence_orbital": [ 
			{
				"type": "occ",
				"energy": -0.32205,
				"method": "rhf"
			},
			{
				"type": "occ",
				"energy": -0.31295,
				"method": "rhf"
			},
			{
				"type": "occ",
				"energy": -0.28738,
				"method": "rhf"
			},
			{
				"type": "occ",
				"energy": -0.2463,
				"method": "rhf"
			},
			{
				"type": "occ",
				"energy": -0.24262,
				"method": "rhf"
			},
			{
				"type": "unocc",
				"energy": -0.04193,
				"method": "rhf"
			},
			{
				"type": "unocc",
				"energy": -0.0257,
				"method": "rhf"
			},
			{
				"type": "unocc",
				"energy": 0.03616,
				"method": "rhf"
			},
			{
				"type": "unocc",
				"energy": 0.0454,
				"method": "rhf"
			},
			{
				"type": "unocc",
				"energy": 0.06729,
				"method": "rhf"
			}
		],
		"cosmo_sigma_profile": { 
			"-0.025": 0.0,
			"-0.024": 0.0,
			"-0.023": 0.0,
			"-0.022": 0.0,
			"-0.021": 0.0,
			"-0.02": 0.0,
			"-0.019": 0.0,
			"-0.018": 0.0,
			"-0.017": 0.0,
			"-0.016": 0.0,
			"-0.015": 0.0,
			"-0.014": 0.0,
			"-0.013": 0.0,
			"-0.012": 0.0,
			"-0.011": 0.132943328809,
			"-0.01": 2.73703016988,
			"-0.009": 3.36491897777,
			"-0.008": 5.51366090465,
			"-0.007": 11.3356423862,
			"-0.006": 17.6339331433,
			"-0.005": 14.4770360258,
			"-0.004": 13.8937975858,
			"-0.003": 12.8049104356,
			"-0.002": 9.19816056363,
			"-0.001": 10.6650351703,
			"0.0": 13.0979921262,
			"0.001": 12.1634342347,
			"0.002": 15.5332523164,
			"0.003": 9.85308920046,
			"0.004": 4.84069956432,
			"0.005": 4.11770194863,
			"0.006": 3.83642824306,
			"0.007": 3.64587822697,
			"0.008": 5.03383129349,
			"0.009": 4.77997012212,
			"0.01": 4.34057848093,
			"0.011": 3.83580818978,
			"0.012": 4.09981221003,
			"0.013": 3.05485215323,
			"0.014": 1.64047823892,
			"0.015": 0.721545234081,
			"0.016": 1.07198907245,
			"0.017": 0.60089658866,
			"0.018": 0.0,
			"0.019": 0.0,
			"0.02": 0.0,
			"0.021": 0.0,
			"0.022": 0.0,
			"0.023": 0.0,
			"0.024": 0.0,
			"0.025": 0.0
		}
	}
}
