{
	 "smiles": "CCCCCCCCCCCCCCCC(=O)NN", 
	 "Tm": 424.15, 
	 "num_atms": 53, 
	 "gaussian": { 
		 "optdone": 1, 
		 "sigma_profile": "yes", 
		 "theory": "DFT", 
		 "functional": "B3LYP", 
		 "basiset": "6-31G**", 
		 "properties": { 
			 "R2extent": 8879.374, 
			 "electric_dipole_moment_norm": 4.03178268388, 
			 "electric_quadrupole_moment_norm": 29.7183078199, 
			 "total_energy": -814.937705312, 
			 "HOMO_LUMO_gap": 0.27058, 
			 "cosmo_polarized_energy": -13.88, 
			 "cosmo_cavitation_energy": 51.21, 
			 "cosmo_dispersion_energy": -32.24, 
			 "cosmo_repulsion_energy": 2.55, 
			 "cosmo_total_nonelectrostatic_energy": 21.52, 
			 "SMD_solvation_energy": 8.12 
		},
		"coords": [
			{
				"x": -1.4344691008,
				"y": -4.6343674482,
				"z": -0.952089521,
				"element": "C" 
			},
			{
				"x": -0.7866051588,
				"y": -3.3027879637,
				"z": -1.3470712953,
				"element": "C" 
			},
			{
				"x": 0.5998957461,
				"y": -3.0963365914,
				"z": -0.7224668241,
				"element": "C" 
			},
			{
				"x": 1.2473548089,
				"y": -1.7610193427,
				"z": -1.1151147028,
				"element": "C" 
			},
			{
				"x": 2.6733329713,
				"y": -1.5526664116,
				"z": -0.5746553114,
				"element": "C" 
			},
			{
				"x": 2.80737077,
				"y": -1.4622342764,
				"z": 0.9565686647,
				"element": "C" 
			},
			{
				"x": 2.1743763362,
				"y": -0.2310724855,
				"z": 1.6348779927,
				"element": "C" 
			},
			{
				"x": 2.8246932421,
				"y": 1.1223831842,
				"z": 1.253731066,
				"element": "C" 
			},
			{
				"x": 2.1246738791,
				"y": 1.9421548346,
				"z": 0.1424183478,
				"element": "C" 
			},
			{
				"x": 1.1461746649,
				"y": 3.0186630984,
				"z": 0.653172565,
				"element": "C" 
			},
			{
				"x": -0.1002462749,
				"y": 2.5206678514,
				"z": 1.4082229079,
				"element": "C" 
			},
			{
				"x": -1.1356973233,
				"y": 1.7505087834,
				"z": 0.5676409217,
				"element": "C" 
			},
			{
				"x": -1.865215614,
				"y": 2.6095849214,
				"z": -0.476064317,
				"element": "C" 
			},
			{
				"x": -2.8823942253,
				"y": 1.8458168323,
				"z": -1.3394610031,
				"element": "C" 
			},
			{
				"x": -4.0769209619,
				"y": 1.2745362172,
				"z": -0.5473252652,
				"element": "C" 
			},
			{
				"x": -5.1491710597,
				"y": 0.7433221282,
				"z": -1.4824508229,
				"element": "C" 
			},
			{
				"x": -6.0454369577,
				"y": 1.4419791143,
				"z": -1.9378652099,
				"element": "O" 
			},
			{
				"x": -5.0795597353,
				"y": -0.5859168179,
				"z": -1.8399723545,
				"element": "N" 
			},
			{
				"x": -4.0418762069,
				"y": -1.4430264446,
				"z": -1.4561065352,
				"element": "N" 
			},
			{
				"x": -1.5692498844,
				"y": -4.7029820306,
				"z": 0.1334006378,
				"element": "H" 
			},
			{
				"x": -2.4187293028,
				"y": -4.7606039687,
				"z": -1.4173666475,
				"element": "H" 
			},
			{
				"x": -0.8150107036,
				"y": -5.4840608324,
				"z": -1.2606798115,
				"element": "H" 
			},
			{
				"x": -1.441268889,
				"y": -2.4718977951,
				"z": -1.0497217598,
				"element": "H" 
			},
			{
				"x": -0.69878538,
				"y": -3.248919858,
				"z": -2.4415651848,
				"element": "H" 
			},
			{
				"x": 0.50912387,
				"y": -3.1641853068,
				"z": 0.3696962708,
				"element": "H" 
			},
			{
				"x": 1.2598988748,
				"y": -3.9227694985,
				"z": -1.0242012766,
				"element": "H" 
			},
			{
				"x": 1.2804780622,
				"y": -1.6955828268,
				"z": -2.2114484172,
				"element": "H" 
			},
			{
				"x": 0.5968872392,
				"y": -0.9390309986,
				"z": -0.787876245,
				"element": "H" 
			},
			{
				"x": 3.0965757967,
				"y": -0.6478615204,
				"z": -1.0292678763,
				"element": "H" 
			},
			{
				"x": 3.3015560257,
				"y": -2.3826469922,
				"z": -0.9267742525,
				"element": "H" 
			},
			{
				"x": 2.3884362397,
				"y": -2.369205361,
				"z": 1.4112014734,
				"element": "H" 
			},
			{
				"x": 3.8771305242,
				"y": -1.4743740772,
				"z": 1.2070303696,
				"element": "H" 
			},
			{
				"x": 2.264801356,
				"y": -0.3771944344,
				"z": 2.7186072162,
				"element": "H" 
			},
			{
				"x": 1.097214887,
				"y": -0.20303017,
				"z": 1.4318895592,
				"element": "H" 
			},
			{
				"x": 3.8638868081,
				"y": 0.9293318595,
				"z": 0.9567890652,
				"element": "H" 
			},
			{
				"x": 2.8948928585,
				"y": 1.7536332691,
				"z": 2.1491917678,
				"element": "H" 
			},
			{
				"x": 2.8892465883,
				"y": 2.4580307226,
				"z": -0.4521520156,
				"element": "H" 
			},
			{
				"x": 1.6141507285,
				"y": 1.2695709189,
				"z": -0.5574237185,
				"element": "H" 
			},
			{
				"x": 1.7031748963,
				"y": 3.6914701628,
				"z": 1.3198095745,
				"element": "H" 
			},
			{
				"x": 0.8330754825,
				"y": 3.6396663952,
				"z": -0.1959635247,
				"element": "H" 
			},
			{
				"x": -0.5996749879,
				"y": 3.3889768291,
				"z": 1.8599269426,
				"element": "H" 
			},
			{
				"x": 0.2153420039,
				"y": 1.8917302208,
				"z": 2.2501666269,
				"element": "H" 
			},
			{
				"x": -0.6554440947,
				"y": 0.9024285103,
				"z": 0.0607308991,
				"element": "H" 
			},
			{
				"x": -1.8714284955,
				"y": 1.3103782832,
				"z": 1.2521422377,
				"element": "H" 
			},
			{
				"x": -1.1317257435,
				"y": 3.0729702093,
				"z": -1.1476514073,
				"element": "H" 
			},
			{
				"x": -2.3761528977,
				"y": 3.4392194849,
				"z": 0.0334717756,
				"element": "H" 
			},
			{
				"x": -3.2730348416,
				"y": 2.5209654386,
				"z": -2.1101304975,
				"element": "H" 
			},
			{
				"x": -2.3747792775,
				"y": 1.025905093,
				"z": -1.8644676812,
				"element": "H" 
			},
			{
				"x": -4.5500355805,
				"y": 2.0764821126,
				"z": 0.02786465,
				"element": "H" 
			},
			{
				"x": -3.7417424964,
				"y": 0.4913563613,
				"z": 0.1353519156,
				"element": "H" 
			},
			{
				"x": -5.782975627,
				"y": -0.8820495057,
				"z": -2.5100871366,
				"element": "H" 
			},
			{
				"x": -4.4180380974,
				"y": -2.2603938079,
				"z": -0.9822931536,
				"element": "H" 
			},
			{
				"x": -3.5135757421,
				"y": -1.75301607,
				"z": -2.2681896792,
				"element": "H" 
			}
		],
		 "valence_orbital": [ 
			{
				"type": "occ",
				"energy": -0.29771,
				"method": "rhf"
			},
			{
				"type": "occ",
				"energy": -0.29239,
				"method": "rhf"
			},
			{
				"type": "occ",
				"energy": -0.28382,
				"method": "rhf"
			},
			{
				"type": "occ",
				"energy": -0.25107,
				"method": "rhf"
			},
			{
				"type": "occ",
				"energy": -0.23595,
				"method": "rhf"
			},
			{
				"type": "unocc",
				"energy": 0.03463,
				"method": "rhf"
			},
			{
				"type": "unocc",
				"energy": 0.04877,
				"method": "rhf"
			},
			{
				"type": "unocc",
				"energy": 0.06845,
				"method": "rhf"
			},
			{
				"type": "unocc",
				"energy": 0.08896,
				"method": "rhf"
			},
			{
				"type": "unocc",
				"energy": 0.09013,
				"method": "rhf"
			}
		],
		"cosmo_sigma_profile": { 
			"-0.025": 0.0,
			"-0.024": 0.0,
			"-0.023": 0.0,
			"-0.022": 0.0,
			"-0.021": 0.0,
			"-0.02": 0.0,
			"-0.019": 0.0,
			"-0.018": 0.0,
			"-0.017": 0.0,
			"-0.016": 0.0,
			"-0.015": 0.0,
			"-0.014": 0.0,
			"-0.013": 0.807286523994,
			"-0.012": 1.68883837147,
			"-0.011": 3.11373262504,
			"-0.01": 3.47040257457,
			"-0.009": 4.89456833718,
			"-0.008": 4.5936085796,
			"-0.007": 3.11288784327,
			"-0.006": 2.51379912666,
			"-0.005": 2.44809936501,
			"-0.004": 3.94034485754,
			"-0.003": 13.9679042704,
			"-0.002": 43.6131744634,
			"-0.001": 80.1137083802,
			"0.0": 90.6805472528,
			"0.001": 66.3320703918,
			"0.002": 30.8703848009,
			"0.003": 4.26771767549,
			"0.004": 3.44765257659,
			"0.005": 3.10490996476,
			"0.006": 2.03975506302,
			"0.007": 1.73975305257,
			"0.008": 2.56854567966,
			"0.009": 1.81261320737,
			"0.01": 1.52403567892,
			"0.011": 1.86285997394,
			"0.012": 1.60997530704,
			"0.013": 2.22256479882,
			"0.014": 5.74415939076,
			"0.015": 3.43053932218,
			"0.016": 0.433674932059,
			"0.017": 0.0,
			"0.018": 0.0,
			"0.019": 0.0,
			"0.02": 0.0,
			"0.021": 0.0,
			"0.022": 0.0,
			"0.023": 0.0,
			"0.024": 0.0,
			"0.025": 0.0
		}
	}
}
