{
	 "smiles": "SC1=NC2=C(N1)C=CC(Cl)=C2", 
	 "Tm": 573.15, 
	 "num_atms": 16, 
	 "gaussian": { 
		 "optdone": 1, 
		 "sigma_profile": "yes", 
		 "theory": "DFT", 
		 "functional": "B3LYP", 
		 "basiset": "6-31G**", 
		 "properties": { 
			 "R2extent": 3207.3862, 
			 "electric_dipole_moment_norm": 3.96015753348, 
			 "electric_quadrupole_moment_norm": 11.470968504, 
			 "total_energy": -1237.64624711, 
			 "HOMO_LUMO_gap": 0.19598, 
			 "cosmo_polarized_energy": -12.87, 
			 "cosmo_cavitation_energy": 24.17, 
			 "cosmo_dispersion_energy": -18.98, 
			 "cosmo_repulsion_energy": 1.47, 
			 "cosmo_total_nonelectrostatic_energy": 6.66, 
			 "SMD_solvation_energy": 1.16 
		},
		"coords": [
			{
				"x": 1.1533998905,
				"y": -3.1208761971,
				"z": 1.8963570189,
				"element": "S" 
			},
			{
				"x": 0.4734033434,
				"y": -2.0015111081,
				"z": 0.709825463,
				"element": "C" 
			},
			{
				"x": -0.0180712856,
				"y": -0.8164266918,
				"z": 0.9675225646,
				"element": "N" 
			},
			{
				"x": -0.4223713601,
				"y": -0.3304124584,
				"z": -0.2699073427,
				"element": "C" 
			},
			{
				"x": -0.1531355784,
				"y": -1.2754287194,
				"z": -1.2886885192,
				"element": "C" 
			},
			{
				"x": 0.4268007838,
				"y": -2.3468896975,
				"z": -0.6235119909,
				"element": "N" 
			},
			{
				"x": -0.460304384,
				"y": -1.0406332744,
				"z": -2.6271129861,
				"element": "C" 
			},
			{
				"x": -1.0542000317,
				"y": 0.1813709921,
				"z": -2.9376935799,
				"element": "C" 
			},
			{
				"x": -1.3222286382,
				"y": 1.1212544641,
				"z": -1.9264875707,
				"element": "C" 
			},
			{
				"x": -2.0746777494,
				"y": 2.6481383313,
				"z": -2.383367453,
				"element": "Cl" 
			},
			{
				"x": -1.0188457559,
				"y": 0.8946525031,
				"z": -0.5887837935,
				"element": "C" 
			},
			{
				"x": 0.9320764385,
				"y": -2.2841508445,
				"z": 2.9265454966,
				"element": "H" 
			},
			{
				"x": 0.7512349664,
				"y": -3.2097464909,
				"z": -1.0316246807,
				"element": "H" 
			},
			{
				"x": -0.2520566658,
				"y": -1.7683409018,
				"z": -3.4050734835,
				"element": "H" 
			},
			{
				"x": -1.3141861195,
				"y": 0.4161952067,
				"z": -3.9632981819,
				"element": "H" 
			},
			{
				"x": -1.2322378538,
				"y": 1.6299048867,
				"z": 0.1775990391,
				"element": "H" 
			}
		],
		 "valence_orbital": [ 
			{
				"type": "occ",
				"energy": -0.30737,
				"method": "rhf"
			},
			{
				"type": "occ",
				"energy": -0.28815,
				"method": "rhf"
			},
			{
				"type": "occ",
				"energy": -0.28809,
				"method": "rhf"
			},
			{
				"type": "occ",
				"energy": -0.23531,
				"method": "rhf"
			},
			{
				"type": "occ",
				"energy": -0.22281,
				"method": "rhf"
			},
			{
				"type": "unocc",
				"energy": -0.02683,
				"method": "rhf"
			},
			{
				"type": "unocc",
				"energy": -0.00596,
				"method": "rhf"
			},
			{
				"type": "unocc",
				"energy": 0.00664,
				"method": "rhf"
			},
			{
				"type": "unocc",
				"energy": 0.03306,
				"method": "rhf"
			},
			{
				"type": "unocc",
				"energy": 0.04106,
				"method": "rhf"
			}
		],
		"cosmo_sigma_profile": { 
			"-0.025": 0.0,
			"-0.024": 0.0,
			"-0.023": 0.0,
			"-0.022": 0.0,
			"-0.021": 0.0,
			"-0.02": 0.0,
			"-0.019": 0.0,
			"-0.018": 0.129127986685,
			"-0.017": 1.5753595612,
			"-0.016": 1.38419714582,
			"-0.015": 1.79967298482,
			"-0.014": 1.11938051085,
			"-0.013": 1.59949145795,
			"-0.012": 2.23443639565,
			"-0.011": 2.37411331974,
			"-0.01": 2.67478644833,
			"-0.009": 2.9373252342,
			"-0.008": 3.42395652602,
			"-0.007": 6.537182137,
			"-0.006": 6.2154227825,
			"-0.005": 7.84123116921,
			"-0.004": 6.23698907789,
			"-0.003": 7.03018001683,
			"-0.002": 7.71306685594,
			"-0.001": 8.93600672278,
			"0.0": 15.2372174003,
			"0.001": 16.1252215446,
			"0.002": 20.0981203722,
			"0.003": 24.315012602,
			"0.004": 19.1642574969,
			"0.005": 16.6779303627,
			"0.006": 5.22546654357,
			"0.007": 2.23096374993,
			"0.008": 1.20318617551,
			"0.009": 0.909644896935,
			"0.01": 1.75237010472,
			"0.011": 1.01573776543,
			"0.012": 0.52742146718,
			"0.013": 0.903641809386,
			"0.014": 0.815238511548,
			"0.015": 1.06778402928,
			"0.016": 0.474564382504,
			"0.017": 0.0,
			"0.018": 0.0,
			"0.019": 0.0,
			"0.02": 0.0,
			"0.021": 0.0,
			"0.022": 0.0,
			"0.023": 0.0,
			"0.024": 0.0,
			"0.025": 0.0
		}
	}
}
