{
	 "smiles": "ClCC1=CC(Cl)=CC(Cl)=C1", 
	 "Tm": 309.15, 
	 "num_atms": 15, 
	 "gaussian": { 
		 "optdone": 1, 
		 "sigma_profile": "yes", 
		 "theory": "DFT", 
		 "functional": "B3LYP", 
		 "basiset": "6-31G**", 
		 "properties": { 
			 "R2extent": 3093.2358, 
			 "electric_dipole_moment_norm": 1.90105849726, 
			 "electric_quadrupole_moment_norm": 7.95078335197, 
			 "total_energy": -1650.34070876, 
			 "HOMO_LUMO_gap": 0.21041, 
			 "cosmo_polarized_energy": -6.7, 
			 "cosmo_cavitation_energy": 24.92, 
			 "cosmo_dispersion_energy": -18.47, 
			 "cosmo_repulsion_energy": 1.52, 
			 "cosmo_total_nonelectrostatic_energy": 7.98, 
			 "SMD_solvation_energy": 3.31 
		},
		"coords": [
			{
				"x": 0.9693848687,
				"y": 2.7787511645,
				"z": 1.0799723663,
				"element": "Cl" 
			},
			{
				"x": 2.003168775,
				"y": 1.3550336876,
				"z": 0.5750072043,
				"element": "C" 
			},
			{
				"x": 1.2126652405,
				"y": 0.3173320236,
				"z": -0.1698631025,
				"element": "C" 
			},
			{
				"x": 1.0988633047,
				"y": 0.3890535474,
				"z": -1.5630309602,
				"element": "C" 
			},
			{
				"x": 0.3635977496,
				"y": -0.58132751,
				"z": -2.2396971112,
				"element": "C" 
			},
			{
				"x": 0.2267711378,
				"y": -0.4949056212,
				"z": -3.9865545694,
				"element": "Cl" 
			},
			{
				"x": -0.2651883601,
				"y": -1.6271262255,
				"z": -1.5648009712,
				"element": "C" 
			},
			{
				"x": -0.1396565844,
				"y": -1.6786333275,
				"z": -0.1769463989,
				"element": "C" 
			},
			{
				"x": -0.9159781798,
				"y": -2.9865677747,
				"z": 0.6973136608,
				"element": "Cl" 
			},
			{
				"x": 0.5887070513,
				"y": -0.7232394365,
				"z": 0.5279229817,
				"element": "C" 
			},
			{
				"x": 2.8014650285,
				"y": 1.7727755884,
				"z": -0.0383388411,
				"element": "H" 
			},
			{
				"x": 2.4268511741,
				"y": 0.9562926562,
				"z": 1.4966745101,
				"element": "H" 
			},
			{
				"x": 1.5736395727,
				"y": 1.1927188786,
				"z": -2.1151414569,
				"element": "H" 
			},
			{
				"x": -0.831482984,
				"y": -2.3774503433,
				"z": -2.1020993372,
				"element": "H" 
			},
			{
				"x": 0.6652922054,
				"y": -0.7877073076,
				"z": 1.6077820254,
				"element": "H" 
			}
		],
		 "valence_orbital": [ 
			{
				"type": "occ",
				"energy": -0.32375,
				"method": "rhf"
			},
			{
				"type": "occ",
				"energy": -0.30634,
				"method": "rhf"
			},
			{
				"type": "occ",
				"energy": -0.30481,
				"method": "rhf"
			},
			{
				"type": "occ",
				"energy": -0.27097,
				"method": "rhf"
			},
			{
				"type": "occ",
				"energy": -0.26155,
				"method": "rhf"
			},
			{
				"type": "unocc",
				"energy": -0.05114,
				"method": "rhf"
			},
			{
				"type": "unocc",
				"energy": -0.03448,
				"method": "rhf"
			},
			{
				"type": "unocc",
				"energy": -0.00164,
				"method": "rhf"
			},
			{
				"type": "unocc",
				"energy": 0.02748,
				"method": "rhf"
			},
			{
				"type": "unocc",
				"energy": 0.04019,
				"method": "rhf"
			}
		],
		"cosmo_sigma_profile": { 
			"-0.025": 0.0,
			"-0.024": 0.0,
			"-0.023": 0.0,
			"-0.022": 0.0,
			"-0.021": 0.0,
			"-0.02": 0.0,
			"-0.019": 0.0,
			"-0.018": 0.0,
			"-0.017": 0.0,
			"-0.016": 0.0,
			"-0.015": 0.0,
			"-0.014": 0.0,
			"-0.013": 0.0,
			"-0.012": 0.0,
			"-0.011": 0.0,
			"-0.01": 0.000441040214924,
			"-0.009": 3.69720178788,
			"-0.008": 10.6403349841,
			"-0.007": 7.90960745304,
			"-0.006": 7.58984303988,
			"-0.005": 8.22715537867,
			"-0.004": 7.7619391528,
			"-0.003": 7.61460702831,
			"-0.002": 9.55816156527,
			"-0.001": 12.3346600438,
			"0.0": 20.2550986602,
			"0.001": 28.4336395335,
			"0.002": 17.8189996531,
			"0.003": 19.6927640787,
			"0.004": 23.0828074956,
			"0.005": 9.46735846691,
			"0.006": 9.68583614791,
			"0.007": 2.95092973508,
			"0.008": 0.0,
			"0.009": 0.0,
			"0.01": 0.0,
			"0.011": 0.0,
			"0.012": 0.0,
			"0.013": 0.0,
			"0.014": 0.0,
			"0.015": 0.0,
			"0.016": 0.0,
			"0.017": 0.0,
			"0.018": 0.0,
			"0.019": 0.0,
			"0.02": 0.0,
			"0.021": 0.0,
			"0.022": 0.0,
			"0.023": 0.0,
			"0.024": 0.0,
			"0.025": 0.0
		}
	}
}
