{
	 "smiles": "C1CCCCCCCCCCC1", 
	 "Tm": 333.15, 
	 "num_atms": 36, 
	 "gaussian": { 
		 "optdone": 1, 
		 "sigma_profile": "yes", 
		 "theory": "DFT", 
		 "functional": "B3LYP", 
		 "basiset": "6-31G**", 
		 "properties": { 
			 "R2extent": 3890.3816, 
			 "electric_dipole_moment_norm": 0.0709628071598, 
			 "electric_quadrupole_moment_norm": 0.282158448394, 
			 "total_energy": -471.760982857, 
			 "HOMO_LUMO_gap": 0.3693, 
			 "cosmo_polarized_energy": -0.7, 
			 "cosmo_cavitation_energy": 31.3, 
			 "cosmo_dispersion_energy": -23.05, 
			 "cosmo_repulsion_energy": 1.83, 
			 "cosmo_total_nonelectrostatic_energy": 10.07, 
			 "SMD_solvation_energy": 3.57 
		},
		"coords": [
			{
				"x": -1.1837870355,
				"y": -2.422780428,
				"z": -0.1350129198,
				"element": "C" 
			},
			{
				"x": -1.6934285033,
				"y": -3.3956736509,
				"z": 0.9387736697,
				"element": "C" 
			},
			{
				"x": -0.6263203707,
				"y": -4.3404745506,
				"z": 1.5209420217,
				"element": "C" 
			},
			{
				"x": 0.6140546123,
				"y": -3.6969677005,
				"z": 2.1800484291,
				"element": "C" 
			},
			{
				"x": 0.3545180775,
				"y": -2.7635142723,
				"z": 3.3860076828,
				"element": "C" 
			},
			{
				"x": 0.076754318,
				"y": -1.283568927,
				"z": 3.0469415732,
				"element": "C" 
			},
			{
				"x": 1.3158601469,
				"y": -0.5132873289,
				"z": 2.552210142,
				"element": "C" 
			},
			{
				"x": 1.0471477946,
				"y": 0.832272823,
				"z": 1.8441055143,
				"element": "C" 
			},
			{
				"x": 0.4646999295,
				"y": 0.7084160383,
				"z": 0.4149134914,
				"element": "C" 
			},
			{
				"x": -1.0784832955,
				"y": 0.7523042507,
				"z": 0.3110488544,
				"element": "C" 
			},
			{
				"x": -1.6833770542,
				"y": 0.0156460675,
				"z": -0.9129258755,
				"element": "C" 
			},
			{
				"x": -2.2386706717,
				"y": -1.3844291186,
				"z": -0.5810072046,
				"element": "C" 
			},
			{
				"x": -0.3095802253,
				"y": -1.9019237318,
				"z": 0.2599220707,
				"element": "H" 
			},
			{
				"x": -0.8201747198,
				"y": -2.9859887574,
				"z": -1.0051112866,
				"element": "H" 
			},
			{
				"x": -2.1460635094,
				"y": -2.8151442564,
				"z": 1.7537919377,
				"element": "H" 
			},
			{
				"x": -2.5098662284,
				"y": -4.0034141139,
				"z": 0.5249386869,
				"element": "H" 
			},
			{
				"x": -1.1129562345,
				"y": -4.9899012606,
				"z": 2.2617632626,
				"element": "H" 
			},
			{
				"x": -0.2726292948,
				"y": -5.0094465271,
				"z": 0.7238773404,
				"element": "H" 
			},
			{
				"x": 1.2042198503,
				"y": -3.16726618,
				"z": 1.4218744632,
				"element": "H" 
			},
			{
				"x": 1.2552179974,
				"y": -4.5221731801,
				"z": 2.5149012679,
				"element": "H" 
			},
			{
				"x": 1.2251248648,
				"y": -2.8022508503,
				"z": 4.0549827182,
				"element": "H" 
			},
			{
				"x": -0.4854583929,
				"y": -3.1637534591,
				"z": 3.9701032377,
				"element": "H" 
			},
			{
				"x": -0.3140277504,
				"y": -0.7787545247,
				"z": 3.9406925155,
				"element": "H" 
			},
			{
				"x": -0.7216252234,
				"y": -1.2288128848,
				"z": 2.3052577454,
				"element": "H" 
			},
			{
				"x": 1.976905971,
				"y": -0.3391832132,
				"z": 3.4122788395,
				"element": "H" 
			},
			{
				"x": 1.8933423031,
				"y": -1.1430243518,
				"z": 1.8617868774,
				"element": "H" 
			},
			{
				"x": 0.3910177309,
				"y": 1.4606331932,
				"z": 2.4629823293,
				"element": "H" 
			},
			{
				"x": 2.002506589,
				"y": 1.3684122172,
				"z": 1.7862719623,
				"element": "H" 
			},
			{
				"x": 0.8462125512,
				"y": -0.2161926176,
				"z": -0.0354000858,
				"element": "H" 
			},
			{
				"x": 0.868066477,
				"y": 1.5149167853,
				"z": -0.2105552418,
				"element": "H" 
			},
			{
				"x": -1.5277195653,
				"y": 0.3412290048,
				"z": 1.2224975184,
				"element": "H" 
			},
			{
				"x": -1.3861291702,
				"y": 1.8052127317,
				"z": 0.2936983466,
				"element": "H" 
			},
			{
				"x": -0.9341580747,
				"y": -0.0545624946,
				"z": -1.7137558283,
				"element": "H" 
			},
			{
				"x": -2.5052165697,
				"y": 0.6129239397,
				"z": -1.3264303313,
				"element": "H" 
			},
			{
				"x": -2.7967620749,
				"y": -1.7711199818,
				"z": -1.4433150432,
				"element": "H" 
			},
			{
				"x": -2.9814152491,
				"y": -1.2624586892,
				"z": 0.2201013187,
				"element": "H" 
			}
		],
		 "valence_orbital": [ 
			{
				"type": "occ",
				"energy": -0.30843,
				"method": "rhf"
			},
			{
				"type": "occ",
				"energy": -0.30446,
				"method": "rhf"
			},
			{
				"type": "occ",
				"energy": -0.29785,
				"method": "rhf"
			},
			{
				"type": "occ",
				"energy": -0.29027,
				"method": "rhf"
			},
			{
				"type": "occ",
				"energy": -0.28582,
				"method": "rhf"
			},
			{
				"type": "unocc",
				"energy": 0.08348,
				"method": "rhf"
			},
			{
				"type": "unocc",
				"energy": 0.08698,
				"method": "rhf"
			},
			{
				"type": "unocc",
				"energy": 0.09848,
				"method": "rhf"
			},
			{
				"type": "unocc",
				"energy": 0.10739,
				"method": "rhf"
			},
			{
				"type": "unocc",
				"energy": 0.12071,
				"method": "rhf"
			}
		],
		"cosmo_sigma_profile": { 
			"-0.025": 0.0,
			"-0.024": 0.0,
			"-0.023": 0.0,
			"-0.022": 0.0,
			"-0.021": 0.0,
			"-0.02": 0.0,
			"-0.019": 0.0,
			"-0.018": 0.0,
			"-0.017": 0.0,
			"-0.016": 0.0,
			"-0.015": 0.0,
			"-0.014": 0.0,
			"-0.013": 0.0,
			"-0.012": 0.0,
			"-0.011": 0.0,
			"-0.01": 0.0,
			"-0.009": 0.0,
			"-0.008": 0.0,
			"-0.007": 0.0,
			"-0.006": 0.0,
			"-0.005": 0.0,
			"-0.004": 0.0217595153793,
			"-0.003": 2.31314639364,
			"-0.002": 25.6688609625,
			"-0.001": 54.3637219882,
			"0.0": 67.849147303,
			"0.001": 61.9184793371,
			"0.002": 26.2013702802,
			"0.003": 0.137126623907,
			"0.004": 0.0,
			"0.005": 0.0,
			"0.006": 0.0,
			"0.007": 0.0,
			"0.008": 0.0,
			"0.009": 0.0,
			"0.01": 0.0,
			"0.011": 0.0,
			"0.012": 0.0,
			"0.013": 0.0,
			"0.014": 0.0,
			"0.015": 0.0,
			"0.016": 0.0,
			"0.017": 0.0,
			"0.018": 0.0,
			"0.019": 0.0,
			"0.02": 0.0,
			"0.021": 0.0,
			"0.022": 0.0,
			"0.023": 0.0,
			"0.024": 0.0,
			"0.025": 0.0
		}
	}
}
