{
	 "smiles": "NC1=C(Br)C=C(C=C1Br)C1CCCCC1", 
	 "Tm": 310.65, 
	 "num_atms": 30, 
	 "gaussian": { 
		 "optdone": 1, 
		 "sigma_profile": "yes", 
		 "theory": "DFT", 
		 "functional": "B3LYP", 
		 "basiset": "6-31G**", 
		 "properties": { 
			 "R2extent": 7743.1554, 
			 "electric_dipole_moment_norm": 1.08473831867, 
			 "electric_quadrupole_moment_norm": 10.1996249176, 
			 "total_energy": -5663.90237864, 
			 "HOMO_LUMO_gap": 0.19117, 
			 "cosmo_polarized_energy": -5.77, 
			 "cosmo_cavitation_energy": 34.5, 
			 "cosmo_dispersion_energy": -26.09, 
			 "cosmo_repulsion_energy": 2.06, 
			 "cosmo_total_nonelectrostatic_energy": 10.47, 
			 "SMD_solvation_energy": 2.57 
		},
		"coords": [
			{
				"x": 2.2243184917,
				"y": 2.0892194701,
				"z": -3.209170445,
				"element": "N" 
			},
			{
				"x": 1.4918647499,
				"y": 1.2171442326,
				"z": -2.4374480046,
				"element": "C" 
			},
			{
				"x": 0.0848757195,
				"y": 1.1736757637,
				"z": -2.4622154997,
				"element": "C" 
			},
			{
				"x": -0.8537241716,
				"y": 2.4362040551,
				"z": -3.5629333442,
				"element": "Br" 
			},
			{
				"x": -0.6606164573,
				"y": 0.2597525416,
				"z": -1.7241921824,
				"element": "C" 
			},
			{
				"x": -0.0405305759,
				"y": -0.6770368714,
				"z": -0.8907889507,
				"element": "C" 
			},
			{
				"x": 1.3621305735,
				"y": -0.655458494,
				"z": -0.8508755065,
				"element": "C" 
			},
			{
				"x": 2.0936355334,
				"y": 0.2595650846,
				"z": -1.5929206208,
				"element": "C" 
			},
			{
				"x": 4.0088821915,
				"y": 0.2206281758,
				"z": -1.466329933,
				"element": "Br" 
			},
			{
				"x": -0.797775555,
				"y": -1.7432712794,
				"z": -0.0922256523,
				"element": "C" 
			},
			{
				"x": -0.4321626466,
				"y": -1.7326491804,
				"z": 1.4161121489,
				"element": "C" 
			},
			{
				"x": -1.0800324043,
				"y": -0.5677234358,
				"z": 2.1773786891,
				"element": "C" 
			},
			{
				"x": -2.6082263324,
				"y": -0.5972241893,
				"z": 2.0335217735,
				"element": "C" 
			},
			{
				"x": -3.0216786146,
				"y": -0.581227194,
				"z": 0.5544526232,
				"element": "C" 
			},
			{
				"x": -2.3364622687,
				"y": -1.7088086189,
				"z": -0.2402930222,
				"element": "C" 
			},
			{
				"x": 1.7319216857,
				"y": 2.8996949826,
				"z": -3.5547806599,
				"element": "H" 
			},
			{
				"x": 3.1798728578,
				"y": 2.243522083,
				"z": -2.9231195305,
				"element": "H" 
			},
			{
				"x": -1.737833842,
				"y": 0.2929555803,
				"z": -1.8168415161,
				"element": "H" 
			},
			{
				"x": 1.9017414054,
				"y": -1.3685515424,
				"z": -0.237759292,
				"element": "H" 
			},
			{
				"x": -0.4617034104,
				"y": -2.7104135808,
				"z": -0.4932844407,
				"element": "H" 
			},
			{
				"x": 0.6548531423,
				"y": -1.7141272916,
				"z": 1.5479097022,
				"element": "H" 
			},
			{
				"x": -0.7776384205,
				"y": -2.6795855538,
				"z": 1.8536502111,
				"element": "H" 
			},
			{
				"x": -0.6932385669,
				"y": 0.3838370886,
				"z": 1.7884090144,
				"element": "H" 
			},
			{
				"x": -0.7951532022,
				"y": -0.6122273146,
				"z": 3.2353201184,
				"element": "H" 
			},
			{
				"x": -2.9973934746,
				"y": -1.5078259532,
				"z": 2.5116910341,
				"element": "H" 
			},
			{
				"x": -3.0606758756,
				"y": 0.2503809063,
				"z": 2.561857997,
				"element": "H" 
			},
			{
				"x": -4.1099125478,
				"y": -0.6810222122,
				"z": 0.4615874094,
				"element": "H" 
			},
			{
				"x": -2.7643730402,
				"y": 0.3963946749,
				"z": 0.1290509137,
				"element": "H" 
			},
			{
				"x": -2.718689524,
				"y": -2.6695777245,
				"z": 0.1294241541,
				"element": "H" 
			},
			{
				"x": -2.6190754202,
				"y": -1.6633442027,
				"z": -1.2985871887,
				"element": "H" 
			}
		],
		 "valence_orbital": [ 
			{
				"type": "occ",
				"energy": -0.29718,
				"method": "rhf"
			},
			{
				"type": "occ",
				"energy": -0.29056,
				"method": "rhf"
			},
			{
				"type": "occ",
				"energy": -0.28955,
				"method": "rhf"
			},
			{
				"type": "occ",
				"energy": -0.24049,
				"method": "rhf"
			},
			{
				"type": "occ",
				"energy": -0.20798,
				"method": "rhf"
			},
			{
				"type": "unocc",
				"energy": -0.01681,
				"method": "rhf"
			},
			{
				"type": "unocc",
				"energy": -0.01414,
				"method": "rhf"
			},
			{
				"type": "unocc",
				"energy": 0.00208,
				"method": "rhf"
			},
			{
				"type": "unocc",
				"energy": 0.02821,
				"method": "rhf"
			},
			{
				"type": "unocc",
				"energy": 0.08135,
				"method": "rhf"
			}
		],
		"cosmo_sigma_profile": { 
			"-0.025": 0.0,
			"-0.024": 0.0,
			"-0.023": 0.0,
			"-0.022": 0.0,
			"-0.021": 0.0,
			"-0.02": 0.0,
			"-0.019": 0.0,
			"-0.018": 0.0,
			"-0.017": 0.0,
			"-0.016": 0.0,
			"-0.015": 0.0,
			"-0.014": 0.0,
			"-0.013": 0.0,
			"-0.012": 0.703324935197,
			"-0.011": 1.90612411509,
			"-0.01": 1.58266795049,
			"-0.009": 2.49038326683,
			"-0.008": 1.97283188818,
			"-0.007": 1.70049050056,
			"-0.006": 4.46688917466,
			"-0.005": 6.45444621208,
			"-0.004": 10.0219921091,
			"-0.003": 15.9854555599,
			"-0.002": 31.1876781198,
			"-0.001": 37.4589524994,
			"0.0": 38.6212148793,
			"0.001": 36.2425628931,
			"0.002": 22.9556094492,
			"0.003": 26.5122205441,
			"0.004": 24.3368533646,
			"0.005": 8.38729224055,
			"0.006": 0.639236458711,
			"0.007": 0.527810842255,
			"0.008": 0.79784413063,
			"0.009": 0.931261039314,
			"0.01": 0.533997123995,
			"0.011": 0.512323955244,
			"0.012": 0.355498755657,
			"0.013": 0.0,
			"0.014": 0.0,
			"0.015": 0.0,
			"0.016": 0.0,
			"0.017": 0.0,
			"0.018": 0.0,
			"0.019": 0.0,
			"0.02": 0.0,
			"0.021": 0.0,
			"0.022": 0.0,
			"0.023": 0.0,
			"0.024": 0.0,
			"0.025": 0.0
		}
	}
}
