{
	 "smiles": "NC1=CC=C(C=C1)S(=O)(=O)NC(=O)C1=CC=CC=C1", 
	 "Tm": 455.15, 
	 "num_atms": 31, 
	 "gaussian": { 
		 "optdone": 1, 
		 "sigma_profile": "yes", 
		 "theory": "DFT", 
		 "functional": "B3LYP", 
		 "basiset": "6-31G**", 
		 "properties": { 
			 "R2extent": 7150.2903, 
			 "electric_dipole_moment_norm": 6.97671592227, 
			 "electric_quadrupole_moment_norm": 30.9752861549, 
			 "total_energy": -1235.92580872, 
			 "HOMO_LUMO_gap": 0.17183, 
			 "cosmo_polarized_energy": -24.13, 
			 "cosmo_cavitation_energy": 37.22, 
			 "cosmo_dispersion_energy": -27.27, 
			 "cosmo_repulsion_energy": 2.05, 
			 "cosmo_total_nonelectrostatic_energy": 12.01, 
			 "SMD_solvation_energy": 6.02 
		},
		"coords": [
			{
				"x": -4.5610233297,
				"y": 0.5517365527,
				"z": 0.7534640483,
				"element": "N" 
			},
			{
				"x": -3.2028932023,
				"y": 0.7610798242,
				"z": 0.9018482914,
				"element": "C" 
			},
			{
				"x": -2.6031895022,
				"y": 1.943786261,
				"z": 0.422775074,
				"element": "C" 
			},
			{
				"x": -1.2486223202,
				"y": 2.1752440432,
				"z": 0.6147306099,
				"element": "C" 
			},
			{
				"x": -0.4730285125,
				"y": 1.2256203648,
				"z": 1.288469143,
				"element": "C" 
			},
			{
				"x": -1.0492639676,
				"y": 0.0474603864,
				"z": 1.7777976001,
				"element": "C" 
			},
			{
				"x": -2.4031539537,
				"y": -0.1802547274,
				"z": 1.5823558867,
				"element": "C" 
			},
			{
				"x": 1.2499595302,
				"y": 1.5482372839,
				"z": 1.5519974684,
				"element": "S" 
			},
			{
				"x": 1.5191360527,
				"y": 2.9599572954,
				"z": 1.2614142764,
				"element": "O" 
			},
			{
				"x": 1.6727110553,
				"y": 0.9198020195,
				"z": 2.7970656363,
				"element": "O" 
			},
			{
				"x": 2.0760538788,
				"y": 0.7723461401,
				"z": 0.2545250297,
				"element": "N" 
			},
			{
				"x": 2.1341768628,
				"y": -0.5964593075,
				"z": 0.0346854255,
				"element": "C" 
			},
			{
				"x": 1.4700296208,
				"y": -1.3877762911,
				"z": 0.6869881763,
				"element": "O" 
			},
			{
				"x": 3.0440612984,
				"y": -1.0326632943,
				"z": -1.0757380696,
				"element": "C" 
			},
			{
				"x": 4.1168587064,
				"y": -0.2615248604,
				"z": -1.5459933654,
				"element": "C" 
			},
			{
				"x": 4.9270317229,
				"y": -0.741014439,
				"z": -2.5751501275,
				"element": "C" 
			},
			{
				"x": 4.6709106301,
				"y": -1.990573049,
				"z": -3.142699911,
				"element": "C" 
			},
			{
				"x": 3.6103368022,
				"y": -2.768112248,
				"z": -2.6695934721,
				"element": "C" 
			},
			{
				"x": 2.8054214914,
				"y": -2.2950734578,
				"z": -1.6366872608,
				"element": "C" 
			},
			{
				"x": -5.0333325764,
				"y": 1.0808180024,
				"z": 0.0357895184,
				"element": "H" 
			},
			{
				"x": -4.8929123147,
				"y": -0.3965594112,
				"z": 0.8468762256,
				"element": "H" 
			},
			{
				"x": -3.2115840429,
				"y": 2.6838381763,
				"z": -0.0901519416,
				"element": "H" 
			},
			{
				"x": -0.7895591314,
				"y": 3.0921616867,
				"z": 0.2618070847,
				"element": "H" 
			},
			{
				"x": -0.4322169973,
				"y": -0.6803062151,
				"z": 2.2897959743,
				"element": "H" 
			},
			{
				"x": -2.8565135026,
				"y": -1.091790541,
				"z": 1.9623780539,
				"element": "H" 
			},
			{
				"x": 2.4954290264,
				"y": 1.4316695754,
				"z": -0.388227398,
				"element": "H" 
			},
			{
				"x": 4.3529579728,
				"y": 0.6954226987,
				"z": -1.0893140483,
				"element": "H" 
			},
			{
				"x": 5.7622688536,
				"y": -0.1428234438,
				"z": -2.9267957527,
				"element": "H" 
			},
			{
				"x": 5.3013295871,
				"y": -2.3610295623,
				"z": -3.945884164,
				"element": "H" 
			},
			{
				"x": 3.4144320696,
				"y": -3.7437133426,
				"z": -3.1045865811,
				"element": "H" 
			},
			{
				"x": 1.984888192,
				"y": -2.8861061202,
				"z": -1.2444414306,
				"element": "H" 
			}
		],
		 "valence_orbital": [ 
			{
				"type": "occ",
				"energy": -0.27102,
				"method": "rhf"
			},
			{
				"type": "occ",
				"energy": -0.26704,
				"method": "rhf"
			},
			{
				"type": "occ",
				"energy": -0.26504,
				"method": "rhf"
			},
			{
				"type": "occ",
				"energy": -0.25828,
				"method": "rhf"
			},
			{
				"type": "occ",
				"energy": -0.2214,
				"method": "rhf"
			},
			{
				"type": "unocc",
				"energy": -0.04957,
				"method": "rhf"
			},
			{
				"type": "unocc",
				"energy": -0.02192,
				"method": "rhf"
			},
			{
				"type": "unocc",
				"energy": -0.0165,
				"method": "rhf"
			},
			{
				"type": "unocc",
				"energy": -0.01177,
				"method": "rhf"
			},
			{
				"type": "unocc",
				"energy": 0.04396,
				"method": "rhf"
			}
		],
		"cosmo_sigma_profile": { 
			"-0.025": 0.0,
			"-0.024": 0.0,
			"-0.023": 0.0,
			"-0.022": 0.0,
			"-0.021": 0.0,
			"-0.02": 0.0,
			"-0.019": 0.0,
			"-0.018": 0.0,
			"-0.017": 0.0,
			"-0.016": 0.494486816193,
			"-0.015": 0.895603286178,
			"-0.014": 1.66161733755,
			"-0.013": 3.76711073506,
			"-0.012": 4.48206115996,
			"-0.011": 5.0338903205,
			"-0.01": 2.86120771945,
			"-0.009": 4.61378450698,
			"-0.008": 5.47266485321,
			"-0.007": 9.6839911423,
			"-0.006": 16.5675446389,
			"-0.005": 19.7263053737,
			"-0.004": 16.9628159355,
			"-0.003": 15.1356111698,
			"-0.002": 13.9650860926,
			"-0.001": 15.6489983154,
			"0.0": 15.0775147214,
			"0.001": 17.6317760811,
			"0.002": 20.5122640559,
			"0.003": 25.5734517066,
			"0.004": 23.8719323654,
			"0.005": 6.77767838969,
			"0.006": 5.70461651878,
			"0.007": 6.35123792333,
			"0.008": 6.41438490502,
			"0.009": 6.67040267296,
			"0.01": 13.4143726394,
			"0.011": 10.4884807808,
			"0.012": 2.47607579507,
			"0.013": 0.226242338287,
			"0.014": 0.0,
			"0.015": 0.0,
			"0.016": 0.0,
			"0.017": 0.0,
			"0.018": 0.0,
			"0.019": 0.0,
			"0.02": 0.0,
			"0.021": 0.0,
			"0.022": 0.0,
			"0.023": 0.0,
			"0.024": 0.0,
			"0.025": 0.0
		}
	}
}
