{
	 "smiles": "CSC1=C(C#N)C(N)=NC2=C(N=NC3=CC=C(F)C=C3)C(N)=NN12", 
	 "Tm": 501.15, 
	 "num_atms": 35, 
	 "gaussian": { 
		 "optdone": 1, 
		 "sigma_profile": "yes", 
		 "theory": "DFT", 
		 "functional": "B3LYP", 
		 "basiset": "6-31G**", 
		 "properties": { 
			 "R2extent": 8757.5519, 
			 "electric_dipole_moment_norm": 2.24696993749, 
			 "electric_quadrupole_moment_norm": 32.4952540869, 
			 "total_energy": -1476.06433978, 
			 "HOMO_LUMO_gap": 0.12666, 
			 "cosmo_polarized_energy": -21.69, 
			 "cosmo_cavitation_energy": 43.26, 
			 "cosmo_dispersion_energy": -29.49, 
			 "cosmo_repulsion_energy": 2.2, 
			 "cosmo_total_nonelectrostatic_energy": 15.97, 
			 "SMD_solvation_energy": 6.04 
		},
		"coords": [
			{
				"x": -1.6515824325,
				"y": -1.0119553591,
				"z": 4.82317504,
				"element": "C" 
			},
			{
				"x": -2.9809907325,
				"y": -1.2796070215,
				"z": 3.5872533556,
				"element": "S" 
			},
			{
				"x": -2.2722574185,
				"y": -0.7205717632,
				"z": 2.0721157006,
				"element": "C" 
			},
			{
				"x": -3.0060450393,
				"y": 0.0942364014,
				"z": 1.2034187478,
				"element": "C" 
			},
			{
				"x": -4.283174992,
				"y": 0.6156304786,
				"z": 1.5456323287,
				"element": "C" 
			},
			{
				"x": -5.3289816204,
				"y": 1.104005653,
				"z": 1.7097865531,
				"element": "N" 
			},
			{
				"x": -2.4362940283,
				"y": 0.4383882028,
				"z": -0.0777329092,
				"element": "C" 
			},
			{
				"x": -3.1304818691,
				"y": 1.2009643689,
				"z": -0.9529397717,
				"element": "N" 
			},
			{
				"x": -1.2251973631,
				"y": 0.0334395227,
				"z": -0.4461875068,
				"element": "N" 
			},
			{
				"x": -0.5270067755,
				"y": -0.7202419948,
				"z": 0.4016241337,
				"element": "C" 
			},
			{
				"x": 0.7263322773,
				"y": -1.357724326,
				"z": 0.3096981351,
				"element": "C" 
			},
			{
				"x": 1.687804119,
				"y": -1.5965726107,
				"z": -0.6668101826,
				"element": "N" 
			},
			{
				"x": 1.9258360274,
				"y": -0.9199960212,
				"z": -1.7036555758,
				"element": "N" 
			},
			{
				"x": 1.3726260939,
				"y": 0.3693005556,
				"z": -1.944433257,
				"element": "C" 
			},
			{
				"x": 1.4963120007,
				"y": 1.4197234745,
				"z": -1.0221195343,
				"element": "C" 
			},
			{
				"x": 1.0797318739,
				"y": 2.7048394012,
				"z": -1.3607037272,
				"element": "C" 
			},
			{
				"x": 0.5277666605,
				"y": 2.9231105482,
				"z": -2.6187143639,
				"element": "C" 
			},
			{
				"x": 0.1082089194,
				"y": 4.1661112691,
				"z": -2.9444598053,
				"element": "F" 
			},
			{
				"x": 0.4136591496,
				"y": 1.9036394312,
				"z": -3.5600689627,
				"element": "C" 
			},
			{
				"x": 0.8667964909,
				"y": 0.6302624016,
				"z": -3.2253399425,
				"element": "C" 
			},
			{
				"x": 0.8179956134,
				"y": -2.1353255995,
				"z": 1.5166968094,
				"element": "C" 
			},
			{
				"x": 1.8879259695,
				"y": -2.9141902648,
				"z": 1.8253635232,
				"element": "N" 
			},
			{
				"x": -0.2224079263,
				"y": -1.9922815284,
				"z": 2.3337977318,
				"element": "N" 
			},
			{
				"x": -1.0498428053,
				"y": -1.1233247236,
				"z": 1.6530327093,
				"element": "N" 
			},
			{
				"x": -0.7648374995,
				"y": -1.5800475753,
				"z": 4.5502174721,
				"element": "H" 
			},
			{
				"x": -2.0761169536,
				"y": -1.3756225684,
				"z": 5.7613681262,
				"element": "H" 
			},
			{
				"x": -1.4295189441,
				"y": 0.052075871,
				"z": 4.9159741401,
				"element": "H" 
			},
			{
				"x": -4.0103628829,
				"y": 1.6201117939,
				"z": -0.6970074538,
				"element": "H" 
			},
			{
				"x": -2.6470081969,
				"y": 1.5134708238,
				"z": -1.78103503,
				"element": "H" 
			},
			{
				"x": 1.931443566,
				"y": 1.2309838545,
				"z": -0.0462331574,
				"element": "H" 
			},
			{
				"x": 1.1769286079,
				"y": 3.534065243,
				"z": -0.6679708334,
				"element": "H" 
			},
			{
				"x": 0.0030853437,
				"y": 2.1223958551,
				"z": -4.5402155669,
				"element": "H" 
			},
			{
				"x": 0.8224503425,
				"y": -0.1803179996,
				"z": -3.945430903,
				"element": "H" 
			},
			{
				"x": 2.4768929668,
				"y": -3.136459594,
				"z": 1.032846484,
				"element": "H" 
			},
			{
				"x": 1.7455114573,
				"y": -3.6398161998,
				"z": 2.511857493,
				"element": "H" 
			}
		],
		 "valence_orbital": [ 
			{
				"type": "occ",
				"energy": -0.25848,
				"method": "rhf"
			},
			{
				"type": "occ",
				"energy": -0.24769,
				"method": "rhf"
			},
			{
				"type": "occ",
				"energy": -0.23636,
				"method": "rhf"
			},
			{
				"type": "occ",
				"energy": -0.22807,
				"method": "rhf"
			},
			{
				"type": "occ",
				"energy": -0.20236,
				"method": "rhf"
			},
			{
				"type": "unocc",
				"energy": -0.0757,
				"method": "rhf"
			},
			{
				"type": "unocc",
				"energy": -0.06605,
				"method": "rhf"
			},
			{
				"type": "unocc",
				"energy": -0.02055,
				"method": "rhf"
			},
			{
				"type": "unocc",
				"energy": -0.0116,
				"method": "rhf"
			},
			{
				"type": "unocc",
				"energy": 0.00458,
				"method": "rhf"
			}
		],
		"cosmo_sigma_profile": { 
			"-0.025": 0.0,
			"-0.024": 0.0,
			"-0.023": 0.0,
			"-0.022": 0.0,
			"-0.021": 0.0,
			"-0.02": 0.0,
			"-0.019": 0.0,
			"-0.018": 0.0,
			"-0.017": 0.0,
			"-0.016": 0.0,
			"-0.015": 0.183793851687,
			"-0.014": 1.88548506685,
			"-0.013": 3.17145498115,
			"-0.012": 3.94339642265,
			"-0.011": 3.96658797077,
			"-0.01": 4.29341525195,
			"-0.009": 3.21120598511,
			"-0.008": 6.42990576064,
			"-0.007": 11.398982926,
			"-0.006": 16.4879559094,
			"-0.005": 20.2425127169,
			"-0.004": 20.5166967794,
			"-0.003": 25.8616182346,
			"-0.002": 25.4960136952,
			"-0.001": 20.1723315469,
			"0.0": 21.3400265123,
			"0.001": 23.0870133953,
			"0.002": 22.096184482,
			"0.003": 22.2722603392,
			"0.004": 24.6655198642,
			"0.005": 16.1528419135,
			"0.006": 10.5967005084,
			"0.007": 8.68992019058,
			"0.008": 6.93283628136,
			"0.009": 7.16069469532,
			"0.01": 6.26126356792,
			"0.011": 5.00846090519,
			"0.012": 4.3272611636,
			"0.013": 2.17405083374,
			"0.014": 1.2788143898,
			"0.015": 0.896109856292,
			"0.016": 0.11352805303,
			"0.017": 0.0,
			"0.018": 0.0,
			"0.019": 0.0,
			"0.02": 0.0,
			"0.021": 0.0,
			"0.022": 0.0,
			"0.023": 0.0,
			"0.024": 0.0,
			"0.025": 0.0
		}
	}
}
