{
	 "smiles": "CC1=CC=C2C=C(C=CC2=N1)[N+]([O-])=O", 
	 "Tm": 439.15, 
	 "num_atms": 22, 
	 "gaussian": { 
		 "optdone": 1, 
		 "sigma_profile": "yes", 
		 "theory": "DFT", 
		 "functional": "B3LYP", 
		 "basiset": "6-31G**", 
		 "properties": { 
			 "R2extent": 3338.9069, 
			 "electric_dipole_moment_norm": 5.15935862099, 
			 "electric_quadrupole_moment_norm": 11.4695200972, 
			 "total_energy": -645.752454008, 
			 "HOMO_LUMO_gap": 0.16133, 
			 "cosmo_polarized_energy": -10.32, 
			 "cosmo_cavitation_energy": 27.02, 
			 "cosmo_dispersion_energy": -20.03, 
			 "cosmo_repulsion_energy": 1.55, 
			 "cosmo_total_nonelectrostatic_energy": 8.54, 
			 "SMD_solvation_energy": 5.39 
		},
		"coords": [
			{
				"x": -1.3015411654,
				"y": -2.7321412477,
				"z": -3.0934781514,
				"element": "C" 
			},
			{
				"x": -0.7339573812,
				"y": -1.6490959464,
				"z": -2.2127849277,
				"element": "C" 
			},
			{
				"x": -0.692706911,
				"y": -0.3002306713,
				"z": -2.6815074946,
				"element": "C" 
			},
			{
				"x": -0.1756934366,
				"y": 0.6808334231,
				"z": -1.8766218267,
				"element": "C" 
			},
			{
				"x": 0.3108181554,
				"y": 0.3351040078,
				"z": -0.5871695344,
				"element": "C" 
			},
			{
				"x": 0.8604706859,
				"y": 1.2787437269,
				"z": 0.3100123612,
				"element": "C" 
			},
			{
				"x": 1.3070717669,
				"y": 0.8501915721,
				"z": 1.5398414244,
				"element": "C" 
			},
			{
				"x": 1.2377002993,
				"y": -0.5026870087,
				"z": 1.9437004045,
				"element": "C" 
			},
			{
				"x": 0.7049930743,
				"y": -1.4292789404,
				"z": 1.0794275146,
				"element": "C" 
			},
			{
				"x": 0.2288947676,
				"y": -1.0411289588,
				"z": -0.202883762,
				"element": "C" 
			},
			{
				"x": -0.2895354674,
				"y": -2.0025093951,
				"z": -1.0191628037,
				"element": "N" 
			},
			{
				"x": 1.8780210435,
				"y": 1.837051689,
				"z": 2.4689539705,
				"element": "N" 
			},
			{
				"x": 2.2701493328,
				"y": 1.4283654003,
				"z": 3.5618540809,
				"element": "O" 
			},
			{
				"x": 1.9301870078,
				"y": 3.0106771145,
				"z": 2.1005242893,
				"element": "O" 
			},
			{
				"x": -2.3448057381,
				"y": -2.5187831461,
				"z": -3.3540083317,
				"element": "H" 
			},
			{
				"x": -1.2533142104,
				"y": -3.6917474508,
				"z": -2.5776239362,
				"element": "H" 
			},
			{
				"x": -0.744072418,
				"y": -2.8042184389,
				"z": -4.0346633309,
				"element": "H" 
			},
			{
				"x": -1.0721827041,
				"y": -0.0674271041,
				"z": -3.6718640397,
				"element": "H" 
			},
			{
				"x": -0.1315113804,
				"y": 1.7154680452,
				"z": -2.2065420612,
				"element": "H" 
			},
			{
				"x": 0.9350468596,
				"y": 2.327309513,
				"z": 0.0459030613,
				"element": "H" 
			},
			{
				"x": 1.6061573497,
				"y": -0.7753347012,
				"z": 2.9244021343,
				"element": "H" 
			},
			{
				"x": 0.6320104697,
				"y": -2.4777614824,
				"z": 1.3472909593,
				"element": "H" 
			}
		],
		 "valence_orbital": [ 
			{
				"type": "occ",
				"energy": -0.30677,
				"method": "rhf"
			},
			{
				"type": "occ",
				"energy": -0.2906,
				"method": "rhf"
			},
			{
				"type": "occ",
				"energy": -0.26908,
				"method": "rhf"
			},
			{
				"type": "occ",
				"energy": -0.26869,
				"method": "rhf"
			},
			{
				"type": "occ",
				"energy": -0.25492,
				"method": "rhf"
			},
			{
				"type": "unocc",
				"energy": -0.09359,
				"method": "rhf"
			},
			{
				"type": "unocc",
				"energy": -0.06163,
				"method": "rhf"
			},
			{
				"type": "unocc",
				"energy": -0.019,
				"method": "rhf"
			},
			{
				"type": "unocc",
				"energy": 0.0048,
				"method": "rhf"
			},
			{
				"type": "unocc",
				"energy": 0.07512,
				"method": "rhf"
			}
		],
		"cosmo_sigma_profile": { 
			"-0.025": 0.0,
			"-0.024": 0.0,
			"-0.023": 0.0,
			"-0.022": 0.0,
			"-0.021": 0.0,
			"-0.02": 0.0,
			"-0.019": 0.0,
			"-0.018": 0.0,
			"-0.017": 0.0,
			"-0.016": 0.0,
			"-0.015": 0.0,
			"-0.014": 0.0,
			"-0.013": 0.0,
			"-0.012": 0.0,
			"-0.011": 0.0,
			"-0.01": 0.0,
			"-0.009": 1.1845074216,
			"-0.008": 4.19560667877,
			"-0.007": 7.9274589797,
			"-0.006": 11.443969645,
			"-0.005": 14.4676753664,
			"-0.004": 14.7115710249,
			"-0.003": 15.5286452537,
			"-0.002": 14.7427997381,
			"-0.001": 22.1730449724,
			"0.0": 29.7389690445,
			"0.001": 17.2561247109,
			"0.002": 13.8403686085,
			"0.003": 5.34579905633,
			"0.004": 4.28472827025,
			"0.005": 3.62836336844,
			"0.006": 6.16296455601,
			"0.007": 8.69061603774,
			"0.008": 8.56946514987,
			"0.009": 5.78181436799,
			"0.01": 3.82653507593,
			"0.011": 1.04405244144,
			"0.012": 0.721928868468,
			"0.013": 0.762900668603,
			"0.014": 0.887737489422,
			"0.015": 0.149844374165,
			"0.016": 0.0,
			"0.017": 0.0,
			"0.018": 0.0,
			"0.019": 0.0,
			"0.02": 0.0,
			"0.021": 0.0,
			"0.022": 0.0,
			"0.023": 0.0,
			"0.024": 0.0,
			"0.025": 0.0
		}
	}
}
