{
	 "smiles": "NC1=CC2=C(COC2=O)C=C1", 
	 "Tm": 456.65, 
	 "num_atms": 18, 
	 "gaussian": { 
		 "optdone": 1, 
		 "sigma_profile": "yes", 
		 "theory": "DFT", 
		 "functional": "B3LYP", 
		 "basiset": "6-31G**", 
		 "properties": { 
			 "R2extent": 2063.8669, 
			 "electric_dipole_moment_norm": 5.75145428392, 
			 "electric_quadrupole_moment_norm": 18.53628196, 
			 "total_energy": -514.280732591, 
			 "HOMO_LUMO_gap": 0.17417, 
			 "cosmo_polarized_energy": -15.5, 
			 "cosmo_cavitation_energy": 22.28, 
			 "cosmo_dispersion_energy": -16.88, 
			 "cosmo_repulsion_energy": 1.36, 
			 "cosmo_total_nonelectrostatic_energy": 6.76, 
			 "SMD_solvation_energy": 4.75 
		},
		"coords": [
			{
				"x": 3.1467602902,
				"y": -2.3422802054,
				"z": -0.3183249205,
				"element": "N" 
			},
			{
				"x": 1.9841929231,
				"y": -1.5953444716,
				"z": -0.1457081304,
				"element": "C" 
			},
			{
				"x": 0.9716810266,
				"y": -2.028488294,
				"z": 0.7257819031,
				"element": "C" 
			},
			{
				"x": -0.1890112851,
				"y": -1.2693843943,
				"z": 0.8094823953,
				"element": "C" 
			},
			{
				"x": -0.3877217958,
				"y": -0.1075922478,
				"z": 0.0731346527,
				"element": "C" 
			},
			{
				"x": -1.7463592733,
				"y": 0.4371670581,
				"z": 0.4255471442,
				"element": "C" 
			},
			{
				"x": -2.2771092769,
				"y": -0.4862266333,
				"z": 1.3949800305,
				"element": "O" 
			},
			{
				"x": -1.3869568539,
				"y": -1.5065143095,
				"z": 1.6482227162,
				"element": "C" 
			},
			{
				"x": -1.6221630039,
				"y": -2.3938845798,
				"z": 2.4303356246,
				"element": "O" 
			},
			{
				"x": 0.609221196,
				"y": 0.3333378939,
				"z": -0.7941000332,
				"element": "C" 
			},
			{
				"x": 1.7824316716,
				"y": -0.4124874861,
				"z": -0.8954695681,
				"element": "C" 
			},
			{
				"x": 3.3767510416,
				"y": -2.9721438061,
				"z": 0.437338589,
				"element": "H" 
			},
			{
				"x": 3.9523492774,
				"y": -1.8323386883,
				"z": -0.6520992558,
				"element": "H" 
			},
			{
				"x": 1.081125233,
				"y": -2.9311274869,
				"z": 1.3201796786,
				"element": "H" 
			},
			{
				"x": -2.4352065851,
				"y": 0.4748876928,
				"z": -0.4270278231,
				"element": "H" 
			},
			{
				"x": -1.7118452527,
				"y": 1.4336628399,
				"z": 0.8823653578,
				"element": "H" 
			},
			{
				"x": 0.4925956937,
				"y": 1.2375101836,
				"z": -1.3854778474,
				"element": "H" 
			},
			{
				"x": 2.5670649735,
				"y": -0.0837530653,
				"z": -1.5725605136,
				"element": "H" 
			}
		],
		 "valence_orbital": [ 
			{
				"type": "occ",
				"energy": -0.32459,
				"method": "rhf"
			},
			{
				"type": "occ",
				"energy": -0.28698,
				"method": "rhf"
			},
			{
				"type": "occ",
				"energy": -0.26571,
				"method": "rhf"
			},
			{
				"type": "occ",
				"energy": -0.26317,
				"method": "rhf"
			},
			{
				"type": "occ",
				"energy": -0.2169,
				"method": "rhf"
			},
			{
				"type": "unocc",
				"energy": -0.04273,
				"method": "rhf"
			},
			{
				"type": "unocc",
				"energy": -0.00466,
				"method": "rhf"
			},
			{
				"type": "unocc",
				"energy": 0.06088,
				"method": "rhf"
			},
			{
				"type": "unocc",
				"energy": 0.07505,
				"method": "rhf"
			},
			{
				"type": "unocc",
				"energy": 0.09782,
				"method": "rhf"
			}
		],
		"cosmo_sigma_profile": { 
			"-0.025": 0.0,
			"-0.024": 0.0,
			"-0.023": 0.0,
			"-0.022": 0.0,
			"-0.021": 0.0,
			"-0.02": 0.0,
			"-0.019": 0.0,
			"-0.018": 0.0,
			"-0.017": 0.0,
			"-0.016": 0.0,
			"-0.015": 0.0,
			"-0.014": 0.0,
			"-0.013": 1.37649847874,
			"-0.012": 3.1776339622,
			"-0.011": 2.4804515715,
			"-0.01": 2.88789705097,
			"-0.009": 3.39735686285,
			"-0.008": 3.88094764597,
			"-0.007": 10.3365140512,
			"-0.006": 14.8558609828,
			"-0.005": 10.7101042668,
			"-0.004": 10.4812489686,
			"-0.003": 8.71606163304,
			"-0.002": 8.11146585296,
			"-0.001": 7.45238345789,
			"0.0": 8.40126028995,
			"0.001": 8.57206298738,
			"0.002": 9.4004360752,
			"0.003": 10.3468774567,
			"0.004": 13.952458869,
			"0.005": 5.02404564375,
			"0.006": 3.11714685467,
			"0.007": 3.72847846953,
			"0.008": 2.93864671579,
			"0.009": 3.60006364121,
			"0.01": 5.42263346711,
			"0.011": 5.6793536065,
			"0.012": 6.42325243554,
			"0.013": 2.79990996201,
			"0.014": 0.530930345209,
			"0.015": 0.0,
			"0.016": 0.0,
			"0.017": 0.0,
			"0.018": 0.0,
			"0.019": 0.0,
			"0.02": 0.0,
			"0.021": 0.0,
			"0.022": 0.0,
			"0.023": 0.0,
			"0.024": 0.0,
			"0.025": 0.0
		}
	}
}
