{
	 "smiles": "IC1=CC=C(C=C1)N1C=CC=N1", 
	 "Tm": 364.65, 
	 "num_atms": 19, 
	 "gaussian": { 
		 "optdone": 1, 
		 "sigma_profile": "no", 
		 "theory": "DFT", 
		 "functional": "B3LYP", 
		 "basiset": "6-31G**", 
		 "properties": { 
			 "R2extent": 2461.7553, 
			 "electric_dipole_moment_norm": 2.43517366321, 
			 "electric_quadrupole_moment_norm": 6.8033804884, 
			 "total_energy": -468.038784557, 
			 "HOMO_LUMO_gap": 0.1853, 
			 "cosmo_polarized_energy": -105163.23, 
			 "cosmo_cavitation_energy": 26.51, 
			 "cosmo_dispersion_energy": -21.27, 
			 "cosmo_repulsion_energy": 1.62, 
			 "cosmo_total_nonelectrostatic_energy": 6.87, 
			 "SMD_solvation_energy": 3.53 
		},
		"coords": [
			{
				"x": -4.8832089363,
				"y": 1.0155374748,
				"z": 0.7602838911,
				"element": "I" 
			},
			{
				"x": -2.8492109053,
				"y": 0.5038718703,
				"z": 0.4591514013,
				"element": "C" 
			},
			{
				"x": -2.4673631012,
				"y": -0.1623079218,
				"z": -0.7054473366,
				"element": "C" 
			},
			{
				"x": -1.1290005934,
				"y": -0.4989497701,
				"z": -0.9035294165,
				"element": "C" 
			},
			{
				"x": -0.1696841225,
				"y": -0.1706780377,
				"z": 0.0614531592,
				"element": "C" 
			},
			{
				"x": -0.5610390043,
				"y": 0.4980613598,
				"z": 1.2278796218,
				"element": "C" 
			},
			{
				"x": -1.8975669049,
				"y": 0.8344237767,
				"z": 1.4260939255,
				"element": "C" 
			},
			{
				"x": 1.1956802577,
				"y": -0.5046606592,
				"z": -0.1223989921,
				"element": "N" 
			},
			{
				"x": 1.7849227697,
				"y": -1.1501028899,
				"z": -1.1772826603,
				"element": "C" 
			},
			{
				"x": 3.1288083938,
				"y": -1.2404507879,
				"z": -0.8943781059,
				"element": "C" 
			},
			{
				"x": 3.2670845424,
				"y": -0.6159650598,
				"z": 0.3679857534,
				"element": "C" 
			},
			{
				"x": 2.1055747181,
				"y": -0.1734789449,
				"z": 0.832450387,
				"element": "N" 
			},
			{
				"x": -3.2006942292,
				"y": -0.4221212994,
				"z": -1.46029532,
				"element": "H" 
			},
			{
				"x": -0.8524168599,
				"y": -1.0164291678,
				"z": -1.8148592781,
				"element": "H" 
			},
			{
				"x": 0.1899198574,
				"y": 0.7465507223,
				"z": 1.9667826004,
				"element": "H" 
			},
			{
				"x": -2.1888474528,
				"y": 1.352076355,
				"z": 2.3330247265,
				"element": "H" 
			},
			{
				"x": 1.2223803383,
				"y": -1.4904440012,
				"z": -2.0316424473,
				"element": "H" 
			},
			{
				"x": 3.8953467673,
				"y": -1.6899327002,
				"z": -1.507350642,
				"element": "H" 
			},
			{
				"x": 4.164714465,
				"y": -0.4720003191,
				"z": 0.9544787328,
				"element": "H" 
			}
		],
		 "valence_orbital": [ 
			{
				"type": "occ",
				"energy": -0.27182,
				"method": "rhf"
			},
			{
				"type": "occ",
				"energy": -0.27026,
				"method": "rhf"
			},
			{
				"type": "occ",
				"energy": -0.26988,
				"method": "rhf"
			},
			{
				"type": "occ",
				"energy": -0.25686,
				"method": "rhf"
			},
			{
				"type": "occ",
				"energy": -0.22492,
				"method": "rhf"
			},
			{
				"type": "unocc",
				"energy": -0.03962,
				"method": "rhf"
			},
			{
				"type": "unocc",
				"energy": -0.03784,
				"method": "rhf"
			},
			{
				"type": "unocc",
				"energy": -0.02096,
				"method": "rhf"
			},
			{
				"type": "unocc",
				"energy": 0.0283,
				"method": "rhf"
			},
			{
				"type": "unocc",
				"energy": 0.04221,
				"method": "rhf"
			}
		],
		"cosmo_sigma_profile": { 
			"0.0": 0.0,
			"0.0": 0.0,
			"0.0": 0.0,
			"0.0": 0.0,
			"0.0": 0.0,
			"0.0": 0.0,
			"0.0": 0.0,
			"0.0": 0.0,
			"0.0": 0.0,
			"0.0": 0.0,
			"0.0": 0.0,
			"0.0": 0.0,
			"0.0": 0.0,
			"0.0": 0.0,
			"0.0": 0.0,
			"0.0": 0.0,
			"0.0": 0.0,
			"0.0": 0.0,
			"0.0": 0.0,
			"0.0": 0.0,
			"0.0": 0.0,
			"0.0": 0.0,
			"0.0": 0.0,
			"0.0": 0.0,
			"0.0": 0.0,
			"0.0": 0.0,
			"0.0": 0.0,
			"0.0": 0.0,
			"0.0": 0.0,
			"0.0": 0.0,
			"0.0": 0.0,
			"0.0": 0.0,
			"0.0": 0.0,
			"0.0": 0.0,
			"0.0": 0.0,
			"0.0": 0.0,
			"0.0": 0.0,
			"0.0": 0.0,
			"0.0": 0.0,
			"0.0": 0.0,
			"0.0": 0.0,
			"0.0": 0.0,
			"0.0": 0.0,
			"0.0": 0.0,
			"0.0": 0.0,
			"0.0": 0.0,
			"0.0": 0.0,
			"0.0": 0.0,
			"0.0": 0.0,
			"0.0": 0.0,
			"0.0": 0.0
		}
	}
}
