{
	 "smiles": "CN1C(=O)C(C2=NNC(=O)C2=N/NC2=CC=NC=C2)=C(O)C2=CC=CC=C12", 
	 "Tm": 567.15, 
	 "num_atms": 41, 
	 "gaussian": { 
		 "optdone": 1, 
		 "sigma_profile": "yes", 
		 "theory": "DFT", 
		 "functional": "B3LYP", 
		 "basiset": "6-31G**", 
		 "properties": { 
			 "R2extent": 11868.4929, 
			 "electric_dipole_moment_norm": 3.56802128357, 
			 "electric_quadrupole_moment_norm": 24.7011117669, 
			 "total_energy": -1248.51768032, 
			 "HOMO_LUMO_gap": 0.11716, 
			 "cosmo_polarized_energy": -20.44, 
			 "cosmo_cavitation_energy": 45.57, 
			 "cosmo_dispersion_energy": -33.26, 
			 "cosmo_repulsion_energy": 2.42, 
			 "cosmo_total_nonelectrostatic_energy": 14.74, 
			 "SMD_solvation_energy": 6.34 
		},
		"coords": [
			{
				"x": 1.5592655958,
				"y": -0.274874811,
				"z": -3.6644162293,
				"element": "C" 
			},
			{
				"x": 1.1875363401,
				"y": -1.1793716658,
				"z": -2.5770761994,
				"element": "N" 
			},
			{
				"x": 1.1787704074,
				"y": -0.6348748138,
				"z": -1.2727798052,
				"element": "C" 
			},
			{
				"x": 1.5183350187,
				"y": 0.5335913232,
				"z": -1.0947399874,
				"element": "O" 
			},
			{
				"x": 0.7740727415,
				"y": -1.5351816762,
				"z": -0.1910622822,
				"element": "C" 
			},
			{
				"x": 0.590044295,
				"y": -1.0205860933,
				"z": 1.1668455949,
				"element": "C" 
			},
			{
				"x": 0.6641224044,
				"y": -1.8620020431,
				"z": 2.184896524,
				"element": "N" 
			},
			{
				"x": 0.3445581607,
				"y": -1.180198751,
				"z": 3.3448084655,
				"element": "N" 
			},
			{
				"x": 0.0703588657,
				"y": 0.1427468801,
				"z": 3.1362049287,
				"element": "C" 
			},
			{
				"x": -0.2354335862,
				"y": 1.0007556559,
				"z": 3.9758806065,
				"element": "O" 
			},
			{
				"x": 0.1960992268,
				"y": 0.2920543752,
				"z": 1.6713384548,
				"element": "C" 
			},
			{
				"x": -0.1006641049,
				"y": 1.3734074219,
				"z": 0.9941203567,
				"element": "N" 
			},
			{
				"x": -0.4876446234,
				"y": 2.4288609459,
				"z": 1.6677408,
				"element": "N" 
			},
			{
				"x": -0.7835398534,
				"y": 3.6209402255,
				"z": 0.9973685763,
				"element": "C" 
			},
			{
				"x": -1.3111744524,
				"y": 4.6959116948,
				"z": 1.7209445155,
				"element": "C" 
			},
			{
				"x": -1.5943002677,
				"y": 5.8729520942,
				"z": 1.0308672088,
				"element": "C" 
			},
			{
				"x": -1.3943806529,
				"y": 6.0409822432,
				"z": -0.2817884732,
				"element": "N" 
			},
			{
				"x": -0.8828412707,
				"y": 4.9960004942,
				"z": -0.9509374176,
				"element": "C" 
			},
			{
				"x": -0.5563207091,
				"y": 3.7716029681,
				"z": -0.3763813055,
				"element": "C" 
			},
			{
				"x": 0.6074874329,
				"y": -2.8924161755,
				"z": -0.4396864822,
				"element": "C" 
			},
			{
				"x": 0.3775623129,
				"y": -3.7925265084,
				"z": 0.5167601123,
				"element": "O" 
			},
			{
				"x": 0.6464128733,
				"y": -3.4078488515,
				"z": -1.7880203415,
				"element": "C" 
			},
			{
				"x": 0.4055302122,
				"y": -4.7678761181,
				"z": -2.0574136484,
				"element": "C" 
			},
			{
				"x": 0.4226466004,
				"y": -5.2469586875,
				"z": -3.3569670527,
				"element": "C" 
			},
			{
				"x": 0.689190172,
				"y": -4.3602924642,
				"z": -4.4095475553,
				"element": "C" 
			},
			{
				"x": 0.937629409,
				"y": -3.0154472616,
				"z": -4.1685607717,
				"element": "C" 
			},
			{
				"x": 0.9222630183,
				"y": -2.513249013,
				"z": -2.8510582435,
				"element": "C" 
			},
			{
				"x": 1.7673102567,
				"y": 0.6942293956,
				"z": -3.2176983971,
				"element": "H" 
			},
			{
				"x": 0.7410301732,
				"y": -0.181383327,
				"z": -4.385595183,
				"element": "H" 
			},
			{
				"x": 2.4529909786,
				"y": -0.6383504881,
				"z": -4.1811712648,
				"element": "H" 
			},
			{
				"x": 0.4047156819,
				"y": -1.6526552131,
				"z": 4.2331601935,
				"element": "H" 
			},
			{
				"x": -0.5475493176,
				"y": 2.3624540995,
				"z": 2.6933977177,
				"element": "H" 
			},
			{
				"x": -1.4998046683,
				"y": 4.6174052733,
				"z": 2.7876142918,
				"element": "H" 
			},
			{
				"x": -2.0066444815,
				"y": 6.7251513238,
				"z": 1.5680574904,
				"element": "H" 
			},
			{
				"x": -0.7179859114,
				"y": 5.1479232479,
				"z": -2.0160606465,
				"element": "H" 
			},
			{
				"x": -0.1257126207,
				"y": 2.9603837451,
				"z": -0.9516609952,
				"element": "H" 
			},
			{
				"x": 0.448958224,
				"y": -3.328367173,
				"z": 1.3957611208,
				"element": "H" 
			},
			{
				"x": 0.2037847625,
				"y": -5.426674211,
				"z": -1.220916138,
				"element": "H" 
			},
			{
				"x": 0.2332961013,
				"y": -6.2964183276,
				"z": -3.5574596817,
				"element": "H" 
			},
			{
				"x": 0.7058905956,
				"y": -4.7234256933,
				"z": -5.4331469557,
				"element": "H" 
			},
			{
				"x": 1.1431346595,
				"y": -2.3563740404,
				"z": -5.0018219012,
				"element": "H" 
			}
		],
		 "valence_orbital": [ 
			{
				"type": "occ",
				"energy": -0.25634,
				"method": "rhf"
			},
			{
				"type": "occ",
				"energy": -0.25271,
				"method": "rhf"
			},
			{
				"type": "occ",
				"energy": -0.23463,
				"method": "rhf"
			},
			{
				"type": "occ",
				"energy": -0.22762,
				"method": "rhf"
			},
			{
				"type": "occ",
				"energy": -0.21439,
				"method": "rhf"
			},
			{
				"type": "unocc",
				"energy": -0.09723,
				"method": "rhf"
			},
			{
				"type": "unocc",
				"energy": -0.05402,
				"method": "rhf"
			},
			{
				"type": "unocc",
				"energy": -0.0142,
				"method": "rhf"
			},
			{
				"type": "unocc",
				"energy": -0.01174,
				"method": "rhf"
			},
			{
				"type": "unocc",
				"energy": -0.00257,
				"method": "rhf"
			}
		],
		"cosmo_sigma_profile": { 
			"-0.025": 0.0,
			"-0.024": 0.0,
			"-0.023": 0.0,
			"-0.022": 0.0,
			"-0.021": 0.0,
			"-0.02": 0.0,
			"-0.019": 0.0,
			"-0.018": 0.00317517701322,
			"-0.017": 0.944139743218,
			"-0.016": 1.65204800715,
			"-0.015": 1.12813243183,
			"-0.014": 0.830205262717,
			"-0.013": 0.743177120683,
			"-0.012": 2.30020095616,
			"-0.011": 1.86616788525,
			"-0.01": 1.7658927565,
			"-0.009": 2.17543262023,
			"-0.008": 3.39578515993,
			"-0.007": 8.15192806087,
			"-0.006": 20.5489316526,
			"-0.005": 23.827660862,
			"-0.004": 24.1200760087,
			"-0.003": 24.5290072668,
			"-0.002": 29.9171535796,
			"-0.001": 27.9929154088,
			"0.0": 32.1578622897,
			"0.001": 30.7103337157,
			"0.002": 31.7501934903,
			"0.003": 19.1232153236,
			"0.004": 18.7844962423,
			"0.005": 9.49788502892,
			"0.006": 7.40290995211,
			"0.007": 8.13342528587,
			"0.008": 7.20721478802,
			"0.009": 3.81484637835,
			"0.01": 4.63627099369,
			"0.011": 4.57558983362,
			"0.012": 4.72794757958,
			"0.013": 4.67642892556,
			"0.014": 2.39568478107,
			"0.015": 1.05662195329,
			"0.016": 0.663588653304,
			"0.017": 0.342313411983,
			"0.018": 0.0,
			"0.019": 0.0,
			"0.02": 0.0,
			"0.021": 0.0,
			"0.022": 0.0,
			"0.023": 0.0,
			"0.024": 0.0,
			"0.025": 0.0
		}
	}
}
