{
	 "smiles": "C[C@H](O)CN", 
	 "Tm": 296.35, 
	 "num_atms": 14, 
	 "gaussian": { 
		 "optdone": 1, 
		 "sigma_profile": "yes", 
		 "theory": "DFT", 
		 "functional": "B3LYP", 
		 "basiset": "6-31G**", 
		 "properties": { 
			 "R2extent": 526.2457, 
			 "electric_dipole_moment_norm": 1.27422012619, 
			 "electric_quadrupole_moment_norm": 7.62693563235, 
			 "total_energy": -249.708761637, 
			 "HOMO_LUMO_gap": 0.30123, 
			 "cosmo_polarized_energy": -9.82, 
			 "cosmo_cavitation_energy": 16.34, 
			 "cosmo_dispersion_energy": -12.2, 
			 "cosmo_repulsion_energy": 1.1, 
			 "cosmo_total_nonelectrostatic_energy": 5.24, 
			 "SMD_solvation_energy": 1.6 
		},
		"coords": [
			{
				"x": -0.1260615043,
				"y": -0.1056211787,
				"z": -1.6677714125,
				"element": "C" 
			},
			{
				"x": -0.5297411238,
				"y": 0.1504933998,
				"z": -0.2215944437,
				"element": "C" 
			},
			{
				"x": -0.0678342236,
				"y": 1.4621972189,
				"z": 0.097795585,
				"element": "O" 
			},
			{
				"x": 0.0577699031,
				"y": -0.8807856761,
				"z": 0.7635938751,
				"element": "C" 
			},
			{
				"x": -0.3865445561,
				"y": -2.2652832498,
				"z": 0.6197483151,
				"element": "N" 
			},
			{
				"x": -0.5584583199,
				"y": 0.6545707443,
				"z": -2.3238092842,
				"element": "H" 
			},
			{
				"x": 0.9638585314,
				"y": -0.0634240413,
				"z": -1.7682212164,
				"element": "H" 
			},
			{
				"x": -0.4737058589,
				"y": -1.0870136395,
				"z": -2.0048781854,
				"element": "H" 
			},
			{
				"x": -1.6325688655,
				"y": 0.1051245843,
				"z": -0.1477803957,
				"element": "H" 
			},
			{
				"x": -0.3018443767,
				"y": 1.6444982235,
				"z": 1.0174927111,
				"element": "H" 
			},
			{
				"x": -0.1838038689,
				"y": -0.5547393199,
				"z": 1.7860728851,
				"element": "H" 
			},
			{
				"x": 1.1512222923,
				"y": -0.8526322506,
				"z": 0.6816602105,
				"element": "H" 
			},
			{
				"x": -0.1027765319,
				"y": -2.6376992331,
				"z": -0.282425089,
				"element": "H" 
			},
			{
				"x": -1.4025114973,
				"y": -2.316885582,
				"z": 0.649716445,
				"element": "H" 
			}
		],
		 "valence_orbital": [ 
			{
				"type": "occ",
				"energy": -0.35984,
				"method": "rhf"
			},
			{
				"type": "occ",
				"energy": -0.35596,
				"method": "rhf"
			},
			{
				"type": "occ",
				"energy": -0.33109,
				"method": "rhf"
			},
			{
				"type": "occ",
				"energy": -0.27628,
				"method": "rhf"
			},
			{
				"type": "occ",
				"energy": -0.22941,
				"method": "rhf"
			},
			{
				"type": "unocc",
				"energy": 0.07182,
				"method": "rhf"
			},
			{
				"type": "unocc",
				"energy": 0.08185,
				"method": "rhf"
			},
			{
				"type": "unocc",
				"energy": 0.1217,
				"method": "rhf"
			},
			{
				"type": "unocc",
				"energy": 0.13377,
				"method": "rhf"
			},
			{
				"type": "unocc",
				"energy": 0.14672,
				"method": "rhf"
			}
		],
		"cosmo_sigma_profile": { 
			"-0.025": 0.0,
			"-0.024": 0.0,
			"-0.023": 0.0,
			"-0.022": 0.0,
			"-0.021": 0.0,
			"-0.02": 0.0,
			"-0.019": 0.0,
			"-0.018": 0.0,
			"-0.017": 0.0,
			"-0.016": 0.00336756528696,
			"-0.015": 0.603489572567,
			"-0.014": 1.08643370217,
			"-0.013": 0.691084464418,
			"-0.012": 0.756521414508,
			"-0.011": 1.26445562921,
			"-0.01": 1.40048262439,
			"-0.009": 3.36177790245,
			"-0.008": 3.42845936951,
			"-0.007": 4.26074916991,
			"-0.006": 4.92978252095,
			"-0.005": 5.76970937588,
			"-0.004": 7.28132203533,
			"-0.003": 12.7773436169,
			"-0.002": 11.9532661883,
			"-0.001": 10.4622950338,
			"0.0": 10.6115853542,
			"0.001": 9.05192973536,
			"0.002": 4.54460169663,
			"0.003": 2.68182946381,
			"0.004": 2.6634446604,
			"0.005": 2.7486364059,
			"0.006": 1.32989847681,
			"0.007": 1.83199736122,
			"0.008": 2.27568662853,
			"0.009": 2.36646846152,
			"0.01": 1.60141402888,
			"0.011": 1.96267817624,
			"0.012": 1.50695256201,
			"0.013": 2.67262110307,
			"0.014": 3.23960576709,
			"0.015": 1.37408112837,
			"0.016": 0.83823239421,
			"0.017": 0.396300595326,
			"0.018": 0.394163192599,
			"0.019": 0.933294266479,
			"0.02": 0.226194335744,
			"0.021": 0.0,
			"0.022": 0.0,
			"0.023": 0.0,
			"0.024": 0.0,
			"0.025": 0.0
		}
	}
}
