{
	 "smiles": "CC(=O)OCC(O)=O", 
	 "Tm": 340.65, 
	 "num_atms": 14, 
	 "gaussian": { 
		 "optdone": 1, 
		 "sigma_profile": "yes", 
		 "theory": "DFT", 
		 "functional": "B3LYP", 
		 "basiset": "6-31G**", 
		 "properties": { 
			 "R2extent": 1827.0846, 
			 "electric_dipole_moment_norm": 4.53412947102, 
			 "electric_quadrupole_moment_norm": 9.85079377157, 
			 "total_energy": -456.952431612, 
			 "HOMO_LUMO_gap": 0.26475, 
			 "cosmo_polarized_energy": -14.37, 
			 "cosmo_cavitation_energy": 19.05, 
			 "cosmo_dispersion_energy": -13.96, 
			 "cosmo_repulsion_energy": 1.21, 
			 "cosmo_total_nonelectrostatic_energy": 6.3, 
			 "SMD_solvation_energy": 6.19 
		},
		"coords": [
			{
				"x": -1.951833435,
				"y": 1.4681356691,
				"z": 1.0729025719,
				"element": "C" 
			},
			{
				"x": -1.8205793018,
				"y": 0.0464796784,
				"z": 1.5554117335,
				"element": "C" 
			},
			{
				"x": -2.6305668083,
				"y": -0.57353269,
				"z": 2.199566608,
				"element": "O" 
			},
			{
				"x": -0.6245935392,
				"y": -0.4932239113,
				"z": 1.165629159,
				"element": "O" 
			},
			{
				"x": -0.3811255839,
				"y": -1.8535546614,
				"z": 1.5686725897,
				"element": "C" 
			},
			{
				"x": 0.9874631239,
				"y": -2.2911586696,
				"z": 1.0533776801,
				"element": "C" 
			},
			{
				"x": 1.6783112289,
				"y": -1.3727258015,
				"z": 0.3537480972,
				"element": "O" 
			},
			{
				"x": 1.4088012291,
				"y": -3.398816084,
				"z": 1.2697715569,
				"element": "O" 
			},
			{
				"x": -2.9105824008,
				"y": 1.8704662885,
				"z": 1.3972178764,
				"element": "H" 
			},
			{
				"x": -1.137275986,
				"y": 2.0787986355,
				"z": 1.4737375199,
				"element": "H" 
			},
			{
				"x": -1.8834989116,
				"y": 1.503440551,
				"z": -0.0185014825,
				"element": "H" 
			},
			{
				"x": -0.403920499,
				"y": -1.9410384087,
				"z": 2.6583149158,
				"element": "H" 
			},
			{
				"x": -1.1504925547,
				"y": -2.5172035309,
				"z": 1.1647677116,
				"element": "H" 
			},
			{
				"x": 1.1464934384,
				"y": -0.5600670651,
				"z": 0.3061834626,
				"element": "H" 
			}
		],
		 "valence_orbital": [ 
			{
				"type": "occ",
				"energy": -0.38959,
				"method": "rhf"
			},
			{
				"type": "occ",
				"energy": -0.33722,
				"method": "rhf"
			},
			{
				"type": "occ",
				"energy": -0.31622,
				"method": "rhf"
			},
			{
				"type": "occ",
				"energy": -0.29952,
				"method": "rhf"
			},
			{
				"type": "occ",
				"energy": -0.27988,
				"method": "rhf"
			},
			{
				"type": "unocc",
				"energy": -0.01513,
				"method": "rhf"
			},
			{
				"type": "unocc",
				"energy": 0.00373,
				"method": "rhf"
			},
			{
				"type": "unocc",
				"energy": 0.06817,
				"method": "rhf"
			},
			{
				"type": "unocc",
				"energy": 0.10438,
				"method": "rhf"
			},
			{
				"type": "unocc",
				"energy": 0.10733,
				"method": "rhf"
			}
		],
		"cosmo_sigma_profile": { 
			"-0.025": 0.0,
			"-0.024": 0.0,
			"-0.023": 0.0,
			"-0.022": 0.0,
			"-0.021": 0.0,
			"-0.02": 0.0,
			"-0.019": 0.0,
			"-0.018": 0.0,
			"-0.017": 0.0,
			"-0.016": 0.129122286315,
			"-0.015": 0.414168022656,
			"-0.014": 1.01019925391,
			"-0.013": 0.250038412019,
			"-0.012": 0.5586694628,
			"-0.011": 0.679019206889,
			"-0.01": 1.12994228726,
			"-0.009": 3.72078514393,
			"-0.008": 6.21699302403,
			"-0.007": 10.4247060039,
			"-0.006": 12.5894008496,
			"-0.005": 11.5544224146,
			"-0.004": 9.85725561952,
			"-0.003": 13.1977716708,
			"-0.002": 11.7550244448,
			"-0.001": 6.0354317627,
			"0.0": 3.62148137148,
			"0.001": 3.25522013355,
			"0.002": 3.2039730841,
			"0.003": 2.96642952132,
			"0.004": 3.38484283128,
			"0.005": 3.56547217814,
			"0.006": 3.56608236291,
			"0.007": 2.85658741635,
			"0.008": 5.01744425799,
			"0.009": 6.61937861766,
			"0.01": 6.87576582121,
			"0.011": 9.68781317559,
			"0.012": 6.01635179695,
			"0.013": 0.806901552731,
			"0.014": 0.0,
			"0.015": 0.0,
			"0.016": 0.0,
			"0.017": 0.0,
			"0.018": 0.0,
			"0.019": 0.0,
			"0.02": 0.0,
			"0.021": 0.0,
			"0.022": 0.0,
			"0.023": 0.0,
			"0.024": 0.0,
			"0.025": 0.0
		}
	}
}
