{
	 "smiles": "NC(=NO)C1=CC(=CC(=C1)C(F)(F)F)C(F)(F)F", 
	 "Tm": 405.15, 
	 "num_atms": 24, 
	 "gaussian": { 
		 "optdone": 1, 
		 "sigma_profile": "yes", 
		 "theory": "DFT", 
		 "functional": "B3LYP", 
		 "basiset": "6-31G**", 
		 "properties": { 
			 "R2extent": 5794.0417, 
			 "electric_dipole_moment_norm": 3.26383064971, 
			 "electric_quadrupole_moment_norm": 7.65452232866, 
			 "total_energy": -1130.30869961, 
			 "HOMO_LUMO_gap": 0.17215, 
			 "cosmo_polarized_energy": -11.26, 
			 "cosmo_cavitation_energy": 32.27, 
			 "cosmo_dispersion_energy": -22.28, 
			 "cosmo_repulsion_energy": 1.63, 
			 "cosmo_total_nonelectrostatic_energy": 11.61, 
			 "SMD_solvation_energy": 7.96 
		},
		"coords": [
			{
				"x": -2.1932737511,
				"y": -1.6691999381,
				"z": 1.8537843676,
				"element": "N" 
			},
			{
				"x": -0.8205163959,
				"y": -1.7663842719,
				"z": 1.7343348641,
				"element": "C" 
			},
			{
				"x": -0.1250724982,
				"y": -2.7889373644,
				"z": 2.1147712084,
				"element": "N" 
			},
			{
				"x": -0.9905430372,
				"y": -3.8174742239,
				"z": 2.5595640269,
				"element": "O" 
			},
			{
				"x": -0.074460054,
				"y": -0.6001703503,
				"z": 1.2043790689,
				"element": "C" 
			},
			{
				"x": -0.6392118401,
				"y": 0.6801728517,
				"z": 1.2252257644,
				"element": "C" 
			},
			{
				"x": 0.0658126057,
				"y": 1.7701325875,
				"z": 0.7086625675,
				"element": "C" 
			},
			{
				"x": 1.3409084664,
				"y": 1.6006251297,
				"z": 0.1751901,
				"element": "C" 
			},
			{
				"x": 1.9097186148,
				"y": 0.3236133582,
				"z": 0.1649726511,
				"element": "C" 
			},
			{
				"x": 1.2118258183,
				"y": -0.7693527195,
				"z": 0.6697499317,
				"element": "C" 
			},
			{
				"x": 3.3094375823,
				"y": 0.1410752901,
				"z": -0.364608,
				"element": "C" 
			},
			{
				"x": 3.5824314045,
				"y": 1.0136195619,
				"z": -1.3595028528,
				"element": "F" 
			},
			{
				"x": 4.2320021696,
				"y": 0.3440509284,
				"z": 0.6021542119,
				"element": "F" 
			},
			{
				"x": 3.5063128731,
				"y": -1.1039471308,
				"z": -0.8465087252,
				"element": "F" 
			},
			{
				"x": -0.5444266671,
				"y": 3.1458463289,
				"z": 0.7856575056,
				"element": "C" 
			},
			{
				"x": -1.8832362523,
				"y": 3.1055466714,
				"z": 0.600545418,
				"element": "F" 
			},
			{
				"x": -0.028144916,
				"y": 3.9778673203,
				"z": -0.1429441594,
				"element": "F" 
			},
			{
				"x": -0.3324698206,
				"y": 3.7144523002,
				"z": 1.9931468578,
				"element": "F" 
			},
			{
				"x": -2.6675562443,
				"y": -1.1568848704,
				"z": 1.1236784325,
				"element": "H" 
			},
			{
				"x": -2.6361028191,
				"y": -2.5448228196,
				"z": 2.0993605131,
				"element": "H" 
			},
			{
				"x": -0.3691799164,
				"y": -4.5054579639,
				"z": 2.8275467487,
				"element": "H" 
			},
			{
				"x": -1.6215712672,
				"y": 0.8345067813,
				"z": 1.6571744031,
				"element": "H" 
			},
			{
				"x": 1.8778686864,
				"y": 2.4442644078,
				"z": -0.2411548502,
				"element": "H" 
			},
			{
				"x": 1.6459472584,
				"y": -1.7612418647,
				"z": 0.6462199461,
				"element": "H" 
			}
		],
		 "valence_orbital": [ 
			{
				"type": "occ",
				"energy": -0.33932,
				"method": "rhf"
			},
			{
				"type": "occ",
				"energy": -0.29154,
				"method": "rhf"
			},
			{
				"type": "occ",
				"energy": -0.2867,
				"method": "rhf"
			},
			{
				"type": "occ",
				"energy": -0.28397,
				"method": "rhf"
			},
			{
				"type": "occ",
				"energy": -0.22748,
				"method": "rhf"
			},
			{
				"type": "unocc",
				"energy": -0.05533,
				"method": "rhf"
			},
			{
				"type": "unocc",
				"energy": -0.04786,
				"method": "rhf"
			},
			{
				"type": "unocc",
				"energy": 0.03173,
				"method": "rhf"
			},
			{
				"type": "unocc",
				"energy": 0.05928,
				"method": "rhf"
			},
			{
				"type": "unocc",
				"energy": 0.08796,
				"method": "rhf"
			}
		],
		"cosmo_sigma_profile": { 
			"-0.025": 0.0,
			"-0.024": 0.0,
			"-0.023": 0.0,
			"-0.022": 0.0,
			"-0.021": 0.0,
			"-0.02": 0.0,
			"-0.019": 0.0,
			"-0.018": 0.0341944215252,
			"-0.017": 0.803853316766,
			"-0.016": 1.04913262145,
			"-0.015": 1.04850811231,
			"-0.014": 1.18890693923,
			"-0.013": 2.36317536171,
			"-0.012": 2.17232972988,
			"-0.011": 3.15605262211,
			"-0.01": 3.35804481183,
			"-0.009": 3.22596267658,
			"-0.008": 2.91511388182,
			"-0.007": 5.99213392649,
			"-0.006": 5.4273767582,
			"-0.005": 6.5863898407,
			"-0.004": 8.03881463274,
			"-0.003": 10.048333415,
			"-0.002": 12.3035810028,
			"-0.001": 18.8659635691,
			"0.0": 28.2732480059,
			"0.001": 23.5138805977,
			"0.002": 46.8271538423,
			"0.003": 41.2080037857,
			"0.004": 4.27090904588,
			"0.005": 4.56632691319,
			"0.006": 5.57417868121,
			"0.007": 4.64165249208,
			"0.008": 3.80649773747,
			"0.009": 3.30544224174,
			"0.01": 1.55533582556,
			"0.011": 1.28883391237,
			"0.012": 0.755705909038,
			"0.013": 0.304386208643,
			"0.014": 0.0,
			"0.015": 0.0,
			"0.016": 0.0,
			"0.017": 0.0,
			"0.018": 0.0,
			"0.019": 0.0,
			"0.02": 0.0,
			"0.021": 0.0,
			"0.022": 0.0,
			"0.023": 0.0,
			"0.024": 0.0,
			"0.025": 0.0
		}
	}
}
