{
	 "smiles": "CC1=CC(N)=C(C)C=C1Cl", 
	 "Tm": 368.15, 
	 "num_atms": 20, 
	 "gaussian": { 
		 "optdone": 1, 
		 "sigma_profile": "yes", 
		 "theory": "DFT", 
		 "functional": "B3LYP", 
		 "basiset": "6-31G**", 
		 "properties": { 
			 "R2extent": 2593.2701, 
			 "electric_dipole_moment_norm": 3.41141952126, 
			 "electric_quadrupole_moment_norm": 7.58274924813, 
			 "total_energy": -825.84178553, 
			 "HOMO_LUMO_gap": 0.20128, 
			 "cosmo_polarized_energy": -8.42, 
			 "cosmo_cavitation_energy": 24.55, 
			 "cosmo_dispersion_energy": -18.29, 
			 "cosmo_repulsion_energy": 1.48, 
			 "cosmo_total_nonelectrostatic_energy": 7.74, 
			 "SMD_solvation_energy": 3.88 
		},
		"coords": [
			{
				"x": 3.3638268268,
				"y": 0.2095782277,
				"z": -0.9948724406,
				"element": "C" 
			},
			{
				"x": 2.1353509278,
				"y": -0.134879516,
				"z": -0.192321722,
				"element": "C" 
			},
			{
				"x": 0.8604315111,
				"y": -0.0369345049,
				"z": -0.7582142809,
				"element": "C" 
			},
			{
				"x": -0.3082382748,
				"y": -0.3492049968,
				"z": -0.0491232381,
				"element": "C" 
			},
			{
				"x": -1.5542187416,
				"y": -0.2944120485,
				"z": -0.6822669691,
				"element": "N" 
			},
			{
				"x": -0.2099172301,
				"y": -0.7801650062,
				"z": 1.2923145851,
				"element": "C" 
			},
			{
				"x": -1.4480116633,
				"y": -1.1392616851,
				"z": 2.0751518311,
				"element": "C" 
			},
			{
				"x": 1.0586056835,
				"y": -0.8741028751,
				"z": 1.8654391828,
				"element": "C" 
			},
			{
				"x": 2.2056573819,
				"y": -0.5588992218,
				"z": 1.1406435932,
				"element": "C" 
			},
			{
				"x": 3.773727461,
				"y": -0.7064530915,
				"z": 1.9420663102,
				"element": "Cl" 
			},
			{
				"x": 3.0928158343,
				"y": 0.5209213269,
				"z": -2.0069076812,
				"element": "H" 
			},
			{
				"x": 3.9317242785,
				"y": 1.0205758865,
				"z": -0.5263216966,
				"element": "H" 
			},
			{
				"x": 4.0424653575,
				"y": -0.6469176457,
				"z": -1.0699226623,
				"element": "H" 
			},
			{
				"x": 0.7751393676,
				"y": 0.2913835229,
				"z": -1.792054559,
				"element": "H" 
			},
			{
				"x": -1.5761530463,
				"y": 0.2688485684,
				"z": -1.5214412691,
				"element": "H" 
			},
			{
				"x": -2.3387236321,
				"y": -0.0909120312,
				"z": -0.0784951299,
				"element": "H" 
			},
			{
				"x": -1.1912139028,
				"y": -1.5061589961,
				"z": 3.071826532,
				"element": "H" 
			},
			{
				"x": -2.1153447348,
				"y": -0.2758575365,
				"z": 2.2106168233,
				"element": "H" 
			},
			{
				"x": -2.0301465913,
				"y": -1.9184639423,
				"z": 1.5676807972,
				"element": "H" 
			},
			{
				"x": 1.1563231871,
				"y": -1.2018844345,
				"z": 2.895601994,
				"element": "H" 
			}
		],
		 "valence_orbital": [ 
			{
				"type": "occ",
				"energy": -0.34053,
				"method": "rhf"
			},
			{
				"type": "occ",
				"energy": -0.29863,
				"method": "rhf"
			},
			{
				"type": "occ",
				"energy": -0.28561,
				"method": "rhf"
			},
			{
				"type": "occ",
				"energy": -0.23973,
				"method": "rhf"
			},
			{
				"type": "occ",
				"energy": -0.19846,
				"method": "rhf"
			},
			{
				"type": "unocc",
				"energy": 0.00282,
				"method": "rhf"
			},
			{
				"type": "unocc",
				"energy": 0.01192,
				"method": "rhf"
			},
			{
				"type": "unocc",
				"energy": 0.04335,
				"method": "rhf"
			},
			{
				"type": "unocc",
				"energy": 0.07307,
				"method": "rhf"
			},
			{
				"type": "unocc",
				"energy": 0.10601,
				"method": "rhf"
			}
		],
		"cosmo_sigma_profile": { 
			"-0.025": 0.0,
			"-0.024": 0.0,
			"-0.023": 0.0,
			"-0.022": 0.0,
			"-0.021": 0.0,
			"-0.02": 0.0,
			"-0.019": 0.0,
			"-0.018": 0.0,
			"-0.017": 0.0,
			"-0.016": 0.0,
			"-0.015": 0.0,
			"-0.014": 0.0,
			"-0.013": 0.141715178759,
			"-0.012": 1.4244664206,
			"-0.011": 2.98374080164,
			"-0.01": 2.42098112568,
			"-0.009": 3.49553246683,
			"-0.008": 2.84637256805,
			"-0.007": 2.87202205353,
			"-0.006": 5.40216910658,
			"-0.005": 8.71822685101,
			"-0.004": 13.219005542,
			"-0.003": 13.3232774755,
			"-0.002": 13.2234212408,
			"-0.001": 16.108156246,
			"0.0": 20.4817032135,
			"0.001": 14.4228118285,
			"0.002": 10.7521455465,
			"0.003": 12.9333806114,
			"0.004": 14.7662802886,
			"0.005": 18.2983637175,
			"0.006": 12.0969831611,
			"0.007": 1.00174475529,
			"0.008": 0.701056806942,
			"0.009": 0.960130855523,
			"0.01": 0.589279868228,
			"0.011": 0.53322118053,
			"0.012": 0.582979952769,
			"0.013": 0.792755047595,
			"0.014": 0.460681879813,
			"0.015": 0.188312284143,
			"0.016": 0.0,
			"0.017": 0.0,
			"0.018": 0.0,
			"0.019": 0.0,
			"0.02": 0.0,
			"0.021": 0.0,
			"0.022": 0.0,
			"0.023": 0.0,
			"0.024": 0.0,
			"0.025": 0.0
		}
	}
}
