{
	 "smiles": "NC1=NC=C(C=C1)N1CCNCC1", 
	 "Tm": 436.15, 
	 "num_atms": 27, 
	 "gaussian": { 
		 "optdone": 1, 
		 "sigma_profile": "yes", 
		 "theory": "DFT", 
		 "functional": "B3LYP", 
		 "basiset": "6-31G**", 
		 "properties": { 
			 "R2extent": 3415.9774, 
			 "electric_dipole_moment_norm": 2.55823874375, 
			 "electric_quadrupole_moment_norm": 11.3374983475, 
			 "total_energy": -570.379877125, 
			 "HOMO_LUMO_gap": 0.16384, 
			 "cosmo_polarized_energy": -13.31, 
			 "cosmo_cavitation_energy": 28.39, 
			 "cosmo_dispersion_energy": -21.56, 
			 "cosmo_repulsion_energy": 1.7, 
			 "cosmo_total_nonelectrostatic_energy": 8.54, 
			 "SMD_solvation_energy": -0.44 
		},
		"coords": [
			{
				"x": 0.0922312968,
				"y": -4.4489488698,
				"z": -0.6836461072,
				"element": "N" 
			},
			{
				"x": -0.1852187202,
				"y": -3.0971554378,
				"z": -0.4624529932,
				"element": "C" 
			},
			{
				"x": -1.0249924921,
				"y": -2.8110494219,
				"z": 0.5368530391,
				"element": "N" 
			},
			{
				"x": -1.2782824131,
				"y": -1.5287565883,
				"z": 0.8234952887,
				"element": "C" 
			},
			{
				"x": -0.7146696621,
				"y": -0.4335235079,
				"z": 0.1418769942,
				"element": "C" 
			},
			{
				"x": 0.1640686798,
				"y": -0.7584982678,
				"z": -0.9144542115,
				"element": "C" 
			},
			{
				"x": 0.4300246084,
				"y": -2.0840355958,
				"z": -1.219314422,
				"element": "C" 
			},
			{
				"x": -0.9872906004,
				"y": 0.8899512928,
				"z": 0.4866945889,
				"element": "N" 
			},
			{
				"x": -1.7284050769,
				"y": 1.2019943992,
				"z": 1.7020681687,
				"element": "C" 
			},
			{
				"x": -1.457541645,
				"y": 2.6435187406,
				"z": 2.1348284161,
				"element": "C" 
			},
			{
				"x": -1.8828748479,
				"y": 3.603824948,
				"z": 1.1018736307,
				"element": "N" 
			},
			{
				"x": -1.9243332525,
				"y": 3.035983878,
				"z": -0.2491681918,
				"element": "C" 
			},
			{
				"x": -0.8667184964,
				"y": 1.9543662875,
				"z": -0.5099373133,
				"element": "C" 
			},
			{
				"x": 0.2651008471,
				"y": -4.7018116857,
				"z": -1.6471559774,
				"element": "H" 
			},
			{
				"x": -0.5905661939,
				"y": -5.0504562961,
				"z": -0.2405366321,
				"element": "H" 
			},
			{
				"x": -1.9834872491,
				"y": -1.3688120531,
				"z": 1.6346508113,
				"element": "H" 
			},
			{
				"x": 0.655785915,
				"y": 0.0259151787,
				"z": -1.4801224601,
				"element": "H" 
			},
			{
				"x": 1.1193667447,
				"y": -2.3352272818,
				"z": -2.0205610709,
				"element": "H" 
			},
			{
				"x": -1.3902496602,
				"y": 0.5358240779,
				"z": 2.502335515,
				"element": "H" 
			},
			{
				"x": -2.8152331925,
				"y": 1.0425532608,
				"z": 1.591156723,
				"element": "H" 
			},
			{
				"x": -0.3829053022,
				"y": 2.7253340864,
				"z": 2.3620933241,
				"element": "H" 
			},
			{
				"x": -2.0005052952,
				"y": 2.8390029521,
				"z": 3.0688533076,
				"element": "H" 
			},
			{
				"x": -1.2662359836,
				"y": 4.4087703255,
				"z": 1.1166220826,
				"element": "H" 
			},
			{
				"x": -1.8082045761,
				"y": 3.8466494363,
				"z": -0.9754863224,
				"element": "H" 
			},
			{
				"x": -2.9152830973,
				"y": 2.5976393357,
				"z": -0.4278799869,
				"element": "H" 
			},
			{
				"x": 0.13986053,
				"y": 2.4060911744,
				"z": -0.5012102556,
				"element": "H" 
			},
			{
				"x": -1.0220408649,
				"y": 1.5376556321,
				"z": -1.5135759457,
				"element": "H" 
			}
		],
		 "valence_orbital": [ 
			{
				"type": "occ",
				"energy": -0.26858,
				"method": "rhf"
			},
			{
				"type": "occ",
				"energy": -0.24825,
				"method": "rhf"
			},
			{
				"type": "occ",
				"energy": -0.23759,
				"method": "rhf"
			},
			{
				"type": "occ",
				"energy": -0.21823,
				"method": "rhf"
			},
			{
				"type": "occ",
				"energy": -0.16999,
				"method": "rhf"
			},
			{
				"type": "unocc",
				"energy": -0.00615,
				"method": "rhf"
			},
			{
				"type": "unocc",
				"energy": 0.03231,
				"method": "rhf"
			},
			{
				"type": "unocc",
				"energy": 0.07096,
				"method": "rhf"
			},
			{
				"type": "unocc",
				"energy": 0.0968,
				"method": "rhf"
			},
			{
				"type": "unocc",
				"energy": 0.10529,
				"method": "rhf"
			}
		],
		"cosmo_sigma_profile": { 
			"-0.025": 0.0,
			"-0.024": 0.0,
			"-0.023": 0.0,
			"-0.022": 0.0,
			"-0.021": 0.0,
			"-0.02": 0.0,
			"-0.019": 0.0,
			"-0.018": 0.0,
			"-0.017": 0.0,
			"-0.016": 0.0,
			"-0.015": 0.0,
			"-0.014": 0.0,
			"-0.013": 0.125627384385,
			"-0.012": 1.06379130808,
			"-0.011": 2.10901936719,
			"-0.01": 4.15966452779,
			"-0.009": 3.04760884048,
			"-0.008": 4.01326298331,
			"-0.007": 4.44702534891,
			"-0.006": 6.73731982241,
			"-0.005": 13.2311925595,
			"-0.004": 15.5580573503,
			"-0.003": 30.7643615379,
			"-0.002": 26.8308218507,
			"-0.001": 17.3703282666,
			"0.0": 10.0741316209,
			"0.001": 8.31239533225,
			"0.002": 7.86693670511,
			"0.003": 7.63274679448,
			"0.004": 11.7460218899,
			"0.005": 14.1271566849,
			"0.006": 5.69026233581,
			"0.007": 3.85723082232,
			"0.008": 3.59049912819,
			"0.009": 2.82390627619,
			"0.01": 3.37593510661,
			"0.011": 3.03505357497,
			"0.012": 1.59565892078,
			"0.013": 2.20691161845,
			"0.014": 2.40398801839,
			"0.015": 1.35194013396,
			"0.016": 1.78361417741,
			"0.017": 0.541852107256,
			"0.018": 0.56848389864,
			"0.019": 0.0749013630282,
			"0.02": 0.0,
			"0.021": 0.0,
			"0.022": 0.0,
			"0.023": 0.0,
			"0.024": 0.0,
			"0.025": 0.0
		}
	}
}
