{
	 "smiles": "NC1=C2C=CC=C3C(=O)NC(=O)C(C=C1)=C23", 
	 "Tm": 633.15, 
	 "num_atms": 24, 
	 "gaussian": { 
		 "optdone": 1, 
		 "sigma_profile": "yes", 
		 "theory": "DFT", 
		 "functional": "B3LYP", 
		 "basiset": "6-31G**", 
		 "properties": { 
			 "R2extent": 3882.5113, 
			 "electric_dipole_moment_norm": 6.94433617706, 
			 "electric_quadrupole_moment_norm": 8.95295241191, 
			 "total_energy": -722.1108133, 
			 "HOMO_LUMO_gap": 0.1344, 
			 "cosmo_polarized_energy": -19.71, 
			 "cosmo_cavitation_energy": 28.02, 
			 "cosmo_dispersion_energy": -21.27, 
			 "cosmo_repulsion_energy": 1.59, 
			 "cosmo_total_nonelectrostatic_energy": 8.34, 
			 "SMD_solvation_energy": 5.57 
		},
		"coords": [
			{
				"x": 1.9397739977,
				"y": 1.4493095786,
				"z": 1.9902013106,
				"element": "N" 
			},
			{
				"x": 1.4379453278,
				"y": 1.4247731005,
				"z": 0.7030713824,
				"element": "C" 
			},
			{
				"x": 0.2263945633,
				"y": 0.7027140447,
				"z": 0.4092051591,
				"element": "C" 
			},
			{
				"x": -0.5099889751,
				"y": 0.0004792606,
				"z": 1.3959116318,
				"element": "C" 
			},
			{
				"x": -1.6578578461,
				"y": -0.6992686349,
				"z": 1.0746027607,
				"element": "C" 
			},
			{
				"x": -2.1234961879,
				"y": -0.7212096363,
				"z": -0.2523399306,
				"element": "C" 
			},
			{
				"x": -1.4439673846,
				"y": -0.0294693684,
				"z": -1.2391609887,
				"element": "C" 
			},
			{
				"x": -1.9694123502,
				"y": -0.0532791067,
				"z": -2.6289220268,
				"element": "C" 
			},
			{
				"x": -2.9722675544,
				"y": -0.664705747,
				"z": -2.9700117026,
				"element": "O" 
			},
			{
				"x": -1.2334261533,
				"y": 0.6836012111,
				"z": -3.5510021582,
				"element": "N" 
			},
			{
				"x": -0.0734400204,
				"y": 1.4363821265,
				"z": -3.3336947752,
				"element": "C" 
			},
			{
				"x": 0.4534002361,
				"y": 2.0364702877,
				"z": -4.2608618385,
				"element": "O" 
			},
			{
				"x": 0.4215116493,
				"y": 1.4299812928,
				"z": -1.9462453862,
				"element": "C" 
			},
			{
				"x": 1.565147398,
				"y": 2.1418816938,
				"z": -1.6185130673,
				"element": "C" 
			},
			{
				"x": 2.0712716109,
				"y": 2.1379907397,
				"z": -0.3150057208,
				"element": "C" 
			},
			{
				"x": -0.262349998,
				"y": 0.7022730904,
				"z": -0.9347789224,
				"element": "C" 
			},
			{
				"x": 1.765071129,
				"y": 0.6457347377,
				"z": 2.5743358206,
				"element": "H" 
			},
			{
				"x": 2.8763544089,
				"y": 1.8132323561,
				"z": 2.0903942874,
				"element": "H" 
			},
			{
				"x": -0.1911282392,
				"y": 0.0296612584,
				"z": 2.4334601356,
				"element": "H" 
			},
			{
				"x": -2.2064641612,
				"y": -1.2259143288,
				"z": 1.8490319514,
				"element": "H" 
			},
			{
				"x": -3.0208730406,
				"y": -1.2649543342,
				"z": -0.5284643996,
				"element": "H" 
			},
			{
				"x": -1.5828517086,
				"y": 0.6785126512,
				"z": -4.5027754193,
				"element": "H" 
			},
			{
				"x": 2.0700714945,
				"y": 2.693033184,
				"z": -2.4052902599,
				"element": "H" 
			},
			{
				"x": 2.9806818043,
				"y": 2.6884705424,
				"z": -0.0892478435,
				"element": "H" 
			}
		],
		 "valence_orbital": [ 
			{
				"type": "occ",
				"energy": -0.27497,
				"method": "rhf"
			},
			{
				"type": "occ",
				"energy": -0.27454,
				"method": "rhf"
			},
			{
				"type": "occ",
				"energy": -0.26288,
				"method": "rhf"
			},
			{
				"type": "occ",
				"energy": -0.25281,
				"method": "rhf"
			},
			{
				"type": "occ",
				"energy": -0.21464,
				"method": "rhf"
			},
			{
				"type": "unocc",
				"energy": -0.08024,
				"method": "rhf"
			},
			{
				"type": "unocc",
				"energy": -0.02598,
				"method": "rhf"
			},
			{
				"type": "unocc",
				"energy": -0.01464,
				"method": "rhf"
			},
			{
				"type": "unocc",
				"energy": 0.01635,
				"method": "rhf"
			},
			{
				"type": "unocc",
				"energy": 0.05387,
				"method": "rhf"
			}
		],
		"cosmo_sigma_profile": { 
			"-0.025": 0.0,
			"-0.024": 0.0,
			"-0.023": 0.0,
			"-0.022": 0.0,
			"-0.021": 0.0,
			"-0.02": 0.0,
			"-0.019": 0.0,
			"-0.018": 0.0,
			"-0.017": 0.0,
			"-0.016": 0.0346868393377,
			"-0.015": 0.897879768475,
			"-0.014": 3.18804542824,
			"-0.013": 3.42204126065,
			"-0.012": 4.14700044605,
			"-0.011": 4.1507904761,
			"-0.01": 2.86267775771,
			"-0.009": 3.94893229333,
			"-0.008": 4.04506184442,
			"-0.007": 6.53361994022,
			"-0.006": 9.95886168559,
			"-0.005": 10.7821656034,
			"-0.004": 10.1812122384,
			"-0.003": 10.7031872144,
			"-0.002": 11.2733636974,
			"-0.001": 13.3772620605,
			"0.0": 14.3928853311,
			"0.001": 21.0443831254,
			"0.002": 26.0446091292,
			"0.003": 16.2372893145,
			"0.004": 6.14918967234,
			"0.005": 3.81206247293,
			"0.006": 3.50885807677,
			"0.007": 2.49371214411,
			"0.008": 3.53262459134,
			"0.009": 3.58671611452,
			"0.01": 3.60985802065,
			"0.011": 4.51472238085,
			"0.012": 8.19539261893,
			"0.013": 7.9925819881,
			"0.014": 0.583538882011,
			"0.015": 0.0,
			"0.016": 0.0,
			"0.017": 0.0,
			"0.018": 0.0,
			"0.019": 0.0,
			"0.02": 0.0,
			"0.021": 0.0,
			"0.022": 0.0,
			"0.023": 0.0,
			"0.024": 0.0,
			"0.025": 0.0
		}
	}
}
