{
	 "smiles": "CC1=NC(=NO1)C1=CC=C(O)C=C1", 
	 "Tm": 460.15, 
	 "num_atms": 21, 
	 "gaussian": { 
		 "optdone": 1, 
		 "sigma_profile": "yes", 
		 "theory": "DFT", 
		 "functional": "B3LYP", 
		 "basiset": "6-31G**", 
		 "properties": { 
			 "R2extent": 3741.8371, 
			 "electric_dipole_moment_norm": 2.86523480713, 
			 "electric_quadrupole_moment_norm": 11.6295271336, 
			 "total_energy": -607.699401032, 
			 "HOMO_LUMO_gap": 0.18484, 
			 "cosmo_polarized_energy": -13.0, 
			 "cosmo_cavitation_energy": 26.11, 
			 "cosmo_dispersion_energy": -19.6, 
			 "cosmo_repulsion_energy": 1.54, 
			 "cosmo_total_nonelectrostatic_energy": 8.05, 
			 "SMD_solvation_energy": 3.55 
		},
		"coords": [
			{
				"x": 3.0190015708,
				"y": 3.2070222339,
				"z": 0.948498103,
				"element": "C" 
			},
			{
				"x": 2.3273267533,
				"y": 1.975430184,
				"z": 0.4802600781,
				"element": "C" 
			},
			{
				"x": 1.9550986519,
				"y": 0.9416768393,
				"z": 1.173823921,
				"element": "N" 
			},
			{
				"x": 1.3737236864,
				"y": 0.1280632581,
				"z": 0.2144926111,
				"element": "C" 
			},
			{
				"x": 1.3879675574,
				"y": 0.6341243723,
				"z": -0.9998401328,
				"element": "N" 
			},
			{
				"x": 2.0276765771,
				"y": 1.8750719642,
				"z": -0.8269994394,
				"element": "O" 
			},
			{
				"x": 0.7946932648,
				"y": -1.1807490906,
				"z": 0.5291785004,
				"element": "C" 
			},
			{
				"x": 0.8151315515,
				"y": -1.6556017039,
				"z": 1.847072664,
				"element": "C" 
			},
			{
				"x": 0.2690352689,
				"y": -2.8970451383,
				"z": 2.160737701,
				"element": "C" 
			},
			{
				"x": -0.306531207,
				"y": -3.6813801982,
				"z": 1.1546476283,
				"element": "C" 
			},
			{
				"x": -0.8571356826,
				"y": -4.9042062991,
				"z": 1.3974535096,
				"element": "O" 
			},
			{
				"x": -0.3321577106,
				"y": -3.215364447,
				"z": -0.1676791621,
				"element": "C" 
			},
			{
				"x": 0.2136853022,
				"y": -1.9774270557,
				"z": -0.4736055583,
				"element": "C" 
			},
			{
				"x": 3.1900174774,
				"y": 3.1355270294,
				"z": 2.0225286622,
				"element": "H" 
			},
			{
				"x": 2.4135681941,
				"y": 4.0934275817,
				"z": 0.7357453203,
				"element": "H" 
			},
			{
				"x": 3.9780497572,
				"y": 3.3288405517,
				"z": 0.4357448955,
				"element": "H" 
			},
			{
				"x": 1.262857052,
				"y": -1.0423408794,
				"z": 2.6214461533,
				"element": "H" 
			},
			{
				"x": 0.2894043202,
				"y": -3.2577146711,
				"z": 3.1870502135,
				"element": "H" 
			},
			{
				"x": -0.7770250142,
				"y": -5.10881314,
				"z": 2.3383823406,
				"element": "H" 
			},
			{
				"x": -0.7827677162,
				"y": -3.8380984299,
				"z": -0.9331543764,
				"element": "H" 
			},
			{
				"x": 0.1954803453,
				"y": -1.6139429615,
				"z": -1.4957836329,
				"element": "H" 
			}
		],
		 "valence_orbital": [ 
			{
				"type": "occ",
				"energy": -0.318,
				"method": "rhf"
			},
			{
				"type": "occ",
				"energy": -0.28959,
				"method": "rhf"
			},
			{
				"type": "occ",
				"energy": -0.28449,
				"method": "rhf"
			},
			{
				"type": "occ",
				"energy": -0.25772,
				"method": "rhf"
			},
			{
				"type": "occ",
				"energy": -0.2199,
				"method": "rhf"
			},
			{
				"type": "unocc",
				"energy": -0.03506,
				"method": "rhf"
			},
			{
				"type": "unocc",
				"energy": -0.00763,
				"method": "rhf"
			},
			{
				"type": "unocc",
				"energy": 0.00631,
				"method": "rhf"
			},
			{
				"type": "unocc",
				"energy": 0.06556,
				"method": "rhf"
			},
			{
				"type": "unocc",
				"energy": 0.08138,
				"method": "rhf"
			}
		],
		"cosmo_sigma_profile": { 
			"-0.025": 0.0,
			"-0.024": 0.0,
			"-0.023": 0.0,
			"-0.022": 0.0,
			"-0.021": 0.0,
			"-0.02": 0.0,
			"-0.019": 0.0545159702727,
			"-0.018": 0.836669941774,
			"-0.017": 1.18682780156,
			"-0.016": 1.1034687472,
			"-0.015": 1.28683904208,
			"-0.014": 0.654611395473,
			"-0.013": 0.884329466432,
			"-0.012": 1.00472989937,
			"-0.011": 1.02269077578,
			"-0.01": 1.41339348399,
			"-0.009": 0.812133858827,
			"-0.008": 1.73495168767,
			"-0.007": 7.69363768733,
			"-0.006": 11.7883430974,
			"-0.005": 13.5199366839,
			"-0.004": 14.0455145259,
			"-0.003": 15.3728828967,
			"-0.002": 12.944202522,
			"-0.001": 9.20864690946,
			"0.0": 9.41771981041,
			"0.001": 12.2602237938,
			"0.002": 17.9210683426,
			"0.003": 17.2819756352,
			"0.004": 16.2429278894,
			"0.005": 6.92338724711,
			"0.006": 5.34641939427,
			"0.007": 8.60370025883,
			"0.008": 3.92232704694,
			"0.009": 3.92961446422,
			"0.01": 4.21487399481,
			"0.011": 3.76879676849,
			"0.012": 2.32812436056,
			"0.013": 0.650362704055,
			"0.014": 0.0,
			"0.015": 0.0,
			"0.016": 0.0,
			"0.017": 0.0,
			"0.018": 0.0,
			"0.019": 0.0,
			"0.02": 0.0,
			"0.021": 0.0,
			"0.022": 0.0,
			"0.023": 0.0,
			"0.024": 0.0,
			"0.025": 0.0
		}
	}
}
