{
	 "smiles": "CS(=O)(=O)CN1C(=O)NC(C1=O)(C1=CC=CC=C1)C1=CC=CC=C1", 
	 "Tm": 469.15, 
	 "num_atms": 40, 
	 "gaussian": { 
		 "optdone": 1, 
		 "sigma_profile": "yes", 
		 "theory": "DFT", 
		 "functional": "B3LYP", 
		 "basiset": "6-31G**", 
		 "properties": { 
			 "R2extent": 8090.5602, 
			 "electric_dipole_moment_norm": 6.41558975076, 
			 "electric_quadrupole_moment_norm": 24.7304887697, 
			 "total_energy": -1466.01135454, 
			 "HOMO_LUMO_gap": 0.21335, 
			 "cosmo_polarized_energy": -25.06, 
			 "cosmo_cavitation_energy": 45.15, 
			 "cosmo_dispersion_energy": -30.15, 
			 "cosmo_repulsion_energy": 2.26, 
			 "cosmo_total_nonelectrostatic_energy": 17.26, 
			 "SMD_solvation_energy": 8.44 
		},
		"coords": [
			{
				"x": 3.6538705639,
				"y": 0.4738266724,
				"z": 1.4798869182,
				"element": "C" 
			},
			{
				"x": 2.3509134179,
				"y": 0.1058339587,
				"z": 2.6768625694,
				"element": "S" 
			},
			{
				"x": 2.8269337348,
				"y": 0.5110380083,
				"z": 4.0079606075,
				"element": "O" 
			},
			{
				"x": 1.8565372903,
				"y": -1.253662611,
				"z": 2.4147959909,
				"element": "O" 
			},
			{
				"x": 0.979026694,
				"y": 1.2872600893,
				"z": 2.2571009672,
				"element": "C" 
			},
			{
				"x": 0.0840225472,
				"y": 0.7798252161,
				"z": 1.2662979648,
				"element": "N" 
			},
			{
				"x": -1.1372425238,
				"y": 0.132220672,
				"z": 1.6133169577,
				"element": "C" 
			},
			{
				"x": -1.6057596258,
				"y": 0.0897493052,
				"z": 2.7291032479,
				"element": "O" 
			},
			{
				"x": -1.6284559665,
				"y": -0.3773242265,
				"z": 0.4449444833,
				"element": "N" 
			},
			{
				"x": -0.8666215328,
				"y": 0.0107306053,
				"z": -0.7498085528,
				"element": "C" 
			},
			{
				"x": 0.3142446846,
				"y": 0.7721021836,
				"z": -0.0918410068,
				"element": "C" 
			},
			{
				"x": 1.277503379,
				"y": 1.2612999258,
				"z": -0.6509301186,
				"element": "O" 
			},
			{
				"x": -0.2858305084,
				"y": -1.2005079838,
				"z": -1.4978312606,
				"element": "C" 
			},
			{
				"x": -0.2213746691,
				"y": -2.4599306502,
				"z": -0.892829621,
				"element": "C" 
			},
			{
				"x": 0.3512800758,
				"y": -3.5377097537,
				"z": -1.5718537414,
				"element": "C" 
			},
			{
				"x": 0.8744167051,
				"y": -3.363936144,
				"z": -2.852817103,
				"element": "C" 
			},
			{
				"x": 0.8268606849,
				"y": -2.1035160812,
				"z": -3.4533195232,
				"element": "C" 
			},
			{
				"x": 0.2512447676,
				"y": -1.0269590113,
				"z": -2.780875564,
				"element": "C" 
			},
			{
				"x": -1.7247349052,
				"y": 0.9083304653,
				"z": -1.6539724467,
				"element": "C" 
			},
			{
				"x": -2.8152219256,
				"y": 0.3253738852,
				"z": -2.3180816356,
				"element": "C" 
			},
			{
				"x": -3.6757898088,
				"y": 1.1026398247,
				"z": -3.0901254534,
				"element": "C" 
			},
			{
				"x": -3.4522920331,
				"y": 2.4756878838,
				"z": -3.2203352464,
				"element": "C" 
			},
			{
				"x": -2.3628029416,
				"y": 3.0593581106,
				"z": -2.5761382269,
				"element": "C" 
			},
			{
				"x": -1.5030495601,
				"y": 2.2822153447,
				"z": -1.7948178861,
				"element": "C" 
			},
			{
				"x": 4.4314289223,
				"y": -0.2736873138,
				"z": 1.6483205425,
				"element": "H" 
			},
			{
				"x": 4.0410958037,
				"y": 1.4745087835,
				"z": 1.6772797056,
				"element": "H" 
			},
			{
				"x": 3.2468290432,
				"y": 0.4020061615,
				"z": 0.4711729128,
				"element": "H" 
			},
			{
				"x": 1.4291874857,
				"y": 2.2314283069,
				"z": 1.9440497198,
				"element": "H" 
			},
			{
				"x": 0.4345480913,
				"y": 1.401290011,
				"z": 3.1966654191,
				"element": "H" 
			},
			{
				"x": -2.596416021,
				"y": -0.6588187552,
				"z": 0.3996734948,
				"element": "H" 
			},
			{
				"x": -0.6113996834,
				"y": -2.5964133329,
				"z": 0.1096552011,
				"element": "H" 
			},
			{
				"x": 0.3912375252,
				"y": -4.5112992081,
				"z": -1.0923286839,
				"element": "H" 
			},
			{
				"x": 1.3195035832,
				"y": -4.2029850696,
				"z": -3.3797280972,
				"element": "H" 
			},
			{
				"x": 1.2371925867,
				"y": -1.9572462019,
				"z": -4.4482949641,
				"element": "H" 
			},
			{
				"x": 0.2186010077,
				"y": -0.0498613024,
				"z": -3.2508782846,
				"element": "H" 
			},
			{
				"x": -2.9813732914,
				"y": -0.7461532212,
				"z": -2.2419889543,
				"element": "H" 
			},
			{
				"x": -4.5157752809,
				"y": 0.6353456979,
				"z": -3.5957271578,
				"element": "H" 
			},
			{
				"x": -4.1193429603,
				"y": 3.0824739634,
				"z": -3.8254215039,
				"element": "H" 
			},
			{
				"x": -2.1743923194,
				"y": 4.1239436655,
				"z": -2.6794844192,
				"element": "H" 
			},
			{
				"x": -0.6498030369,
				"y": 2.7510221263,
				"z": -1.3175572509,
				"element": "H" 
			}
		],
		 "valence_orbital": [ 
			{
				"type": "occ",
				"energy": -0.27327,
				"method": "rhf"
			},
			{
				"type": "occ",
				"energy": -0.26844,
				"method": "rhf"
			},
			{
				"type": "occ",
				"energy": -0.26467,
				"method": "rhf"
			},
			{
				"type": "occ",
				"energy": -0.25628,
				"method": "rhf"
			},
			{
				"type": "occ",
				"energy": -0.25167,
				"method": "rhf"
			},
			{
				"type": "unocc",
				"energy": -0.03832,
				"method": "rhf"
			},
			{
				"type": "unocc",
				"energy": -0.02479,
				"method": "rhf"
			},
			{
				"type": "unocc",
				"energy": -0.02171,
				"method": "rhf"
			},
			{
				"type": "unocc",
				"energy": -0.00628,
				"method": "rhf"
			},
			{
				"type": "unocc",
				"energy": -0.00468,
				"method": "rhf"
			}
		],
		"cosmo_sigma_profile": { 
			"-0.025": 0.0,
			"-0.024": 0.0,
			"-0.023": 0.0,
			"-0.022": 0.0,
			"-0.021": 0.0,
			"-0.02": 0.0,
			"-0.019": 0.0,
			"-0.018": 0.0,
			"-0.017": 0.0,
			"-0.016": 0.381306743263,
			"-0.015": 0.805313411444,
			"-0.014": 0.830380154121,
			"-0.013": 1.70822532658,
			"-0.012": 2.01586783946,
			"-0.011": 2.18220607266,
			"-0.01": 3.76492761927,
			"-0.009": 6.54805336922,
			"-0.008": 7.78734624404,
			"-0.007": 8.38858659384,
			"-0.006": 24.1288425504,
			"-0.005": 31.4278773758,
			"-0.004": 31.1082172965,
			"-0.003": 24.9721388384,
			"-0.002": 20.0427865369,
			"-0.001": 17.3151892353,
			"0.0": 16.9570555271,
			"0.001": 17.7994914894,
			"0.002": 19.2088230299,
			"0.003": 20.0807806996,
			"0.004": 22.5460837128,
			"0.005": 21.1720162157,
			"0.006": 6.7440874761,
			"0.007": 5.66569408149,
			"0.008": 5.85798769841,
			"0.009": 6.82788697711,
			"0.01": 9.41849313912,
			"0.011": 15.0735545877,
			"0.012": 9.40063642371,
			"0.013": 0.497807133666,
			"0.014": 0.0,
			"0.015": 0.0,
			"0.016": 0.0,
			"0.017": 0.0,
			"0.018": 0.0,
			"0.019": 0.0,
			"0.02": 0.0,
			"0.021": 0.0,
			"0.022": 0.0,
			"0.023": 0.0,
			"0.024": 0.0,
			"0.025": 0.0
		}
	}
}
