{
	 "smiles": "CN1CCN(CC1)C(=O)CC1=CC(N)=CC=C1", 
	 "Tm": 412.15, 
	 "num_atms": 36, 
	 "gaussian": { 
		 "optdone": 1, 
		 "sigma_profile": "yes", 
		 "theory": "DFT", 
		 "functional": "B3LYP", 
		 "basiset": "6-31G**", 
		 "properties": { 
			 "R2extent": 5610.0038, 
			 "electric_dipole_moment_norm": 4.80254308258, 
			 "electric_quadrupole_moment_norm": 11.0090009238, 
			 "total_energy": -746.31455534, 
			 "HOMO_LUMO_gap": 0.20258, 
			 "cosmo_polarized_energy": -16.98, 
			 "cosmo_cavitation_energy": 37.0, 
			 "cosmo_dispersion_energy": -26.2, 
			 "cosmo_repulsion_energy": 2.05, 
			 "cosmo_total_nonelectrostatic_energy": 12.86, 
			 "SMD_solvation_energy": 3.01 
		},
		"coords": [
			{
				"x": 1.6444936728,
				"y": 0.3142180919,
				"z": -4.1113430514,
				"element": "C" 
			},
			{
				"x": 1.0803884163,
				"y": -0.4524672138,
				"z": -3.0122546822,
				"element": "N" 
			},
			{
				"x": -0.3964530159,
				"y": -0.4632004415,
				"z": -2.9738545949,
				"element": "C" 
			},
			{
				"x": -0.9848168122,
				"y": 0.3428026478,
				"z": -1.8139296769,
				"element": "C" 
			},
			{
				"x": -0.4569581929,
				"y": -0.1662766572,
				"z": -0.5434830696,
				"element": "N" 
			},
			{
				"x": 0.9141489122,
				"y": -0.6895983409,
				"z": -0.5607843216,
				"element": "C" 
			},
			{
				"x": 1.6829809192,
				"y": -0.0833282854,
				"z": -1.7328236701,
				"element": "C" 
			},
			{
				"x": -1.262595239,
				"y": -0.1242016668,
				"z": 0.5632451853,
				"element": "C" 
			},
			{
				"x": -2.3871407262,
				"y": 0.3734373461,
				"z": 0.5276000446,
				"element": "O" 
			},
			{
				"x": -0.711427455,
				"y": -0.7046093598,
				"z": 1.8694345193,
				"element": "C" 
			},
			{
				"x": 0.1154417693,
				"y": 0.3008350071,
				"z": 2.6583808443,
				"element": "C" 
			},
			{
				"x": 1.3544964277,
				"y": -0.0688026234,
				"z": 3.1889960716,
				"element": "C" 
			},
			{
				"x": 2.1239703836,
				"y": 0.8342787761,
				"z": 3.9441614863,
				"element": "C" 
			},
			{
				"x": 3.3298055312,
				"y": 0.4283171493,
				"z": 4.5218994571,
				"element": "N" 
			},
			{
				"x": 1.6268312736,
				"y": 2.1306484041,
				"z": 4.1527643604,
				"element": "C" 
			},
			{
				"x": 0.3920731286,
				"y": 2.4980000561,
				"z": 3.6213571424,
				"element": "C" 
			},
			{
				"x": -0.3695199343,
				"y": 1.5982313644,
				"z": 2.8765305678,
				"element": "C" 
			},
			{
				"x": 2.7320283486,
				"y": 0.1808654936,
				"z": -4.1297537494,
				"element": "H" 
			},
			{
				"x": 1.4438809349,
				"y": 1.4019537647,
				"z": -4.0495425552,
				"element": "H" 
			},
			{
				"x": 1.2507608187,
				"y": -0.0515791707,
				"z": -5.0645144263,
				"element": "H" 
			},
			{
				"x": -0.753393506,
				"y": -1.4996745259,
				"z": -2.8950509901,
				"element": "H" 
			},
			{
				"x": -0.7876228441,
				"y": -0.0654536406,
				"z": -3.9160777697,
				"element": "H" 
			},
			{
				"x": -2.0722012647,
				"y": 0.2534425296,
				"z": -1.7817456341,
				"element": "H" 
			},
			{
				"x": -0.7532158188,
				"y": 1.4115138185,
				"z": -1.925735974,
				"element": "H" 
			},
			{
				"x": 1.4234261423,
				"y": -0.4246185128,
				"z": 0.3685868167,
				"element": "H" 
			},
			{
				"x": 0.9194102355,
				"y": -1.7857590501,
				"z": -0.6545967859,
				"element": "H" 
			},
			{
				"x": 2.7172462822,
				"y": -0.4491802384,
				"z": -1.707119289,
				"element": "H" 
			},
			{
				"x": 1.7314100741,
				"y": 1.0139627861,
				"z": -1.5887433536,
				"element": "H" 
			},
			{
				"x": -0.1297722962,
				"y": -1.6149937944,
				"z": 1.6949466759,
				"element": "H" 
			},
			{
				"x": -1.5974851715,
				"y": -0.9858640222,
				"z": 2.4464191774,
				"element": "H" 
			},
			{
				"x": 1.726661348,
				"y": -1.080095731,
				"z": 3.0337169405,
				"element": "H" 
			},
			{
				"x": 3.9759930699,
				"y": 1.1759631485,
				"z": 4.7340553458,
				"element": "H" 
			},
			{
				"x": 3.7888794172,
				"y": -0.3454061746,
				"z": 4.0613775021,
				"element": "H" 
			},
			{
				"x": 2.2071242526,
				"y": 2.8415049546,
				"z": 4.7360174338,
				"element": "H" 
			},
			{
				"x": 0.0200822104,
				"y": 3.5047913255,
				"z": 3.7915685572,
				"element": "H" 
			},
			{
				"x": -1.3301312922,
				"y": 1.8879427856,
				"z": 2.4633954655,
				"element": "H" 
			}
		],
		 "valence_orbital": [ 
			{
				"type": "occ",
				"energy": -0.24602,
				"method": "rhf"
			},
			{
				"type": "occ",
				"energy": -0.23346,
				"method": "rhf"
			},
			{
				"type": "occ",
				"energy": -0.22898,
				"method": "rhf"
			},
			{
				"type": "occ",
				"energy": -0.20855,
				"method": "rhf"
			},
			{
				"type": "occ",
				"energy": -0.2001,
				"method": "rhf"
			},
			{
				"type": "unocc",
				"energy": 0.00248,
				"method": "rhf"
			},
			{
				"type": "unocc",
				"energy": 0.01669,
				"method": "rhf"
			},
			{
				"type": "unocc",
				"energy": 0.0358,
				"method": "rhf"
			},
			{
				"type": "unocc",
				"energy": 0.07584,
				"method": "rhf"
			},
			{
				"type": "unocc",
				"energy": 0.08028,
				"method": "rhf"
			}
		],
		"cosmo_sigma_profile": { 
			"-0.025": 0.0,
			"-0.024": 0.0,
			"-0.023": 0.0,
			"-0.022": 0.0,
			"-0.021": 0.0,
			"-0.02": 0.0,
			"-0.019": 0.0,
			"-0.018": 0.0,
			"-0.017": 0.0,
			"-0.016": 0.0,
			"-0.015": 0.0,
			"-0.014": 0.0,
			"-0.013": 0.124094971893,
			"-0.012": 2.40218952144,
			"-0.011": 2.80210202702,
			"-0.01": 2.54487491683,
			"-0.009": 3.1835511371,
			"-0.008": 2.88406834635,
			"-0.007": 2.50010882501,
			"-0.006": 6.01072254356,
			"-0.005": 15.3188718963,
			"-0.004": 29.7841460308,
			"-0.003": 37.5451745561,
			"-0.002": 36.4045098228,
			"-0.001": 26.5826111717,
			"0.0": 20.7450251817,
			"0.001": 12.2716864943,
			"0.002": 10.7541308874,
			"0.003": 9.40020798698,
			"0.004": 11.482441395,
			"0.005": 10.1204742757,
			"0.006": 11.1117086072,
			"0.007": 8.61852688192,
			"0.008": 3.5389609544,
			"0.009": 2.83906967244,
			"0.01": 2.43588288549,
			"0.011": 3.10237999786,
			"0.012": 2.53431920038,
			"0.013": 3.57228979058,
			"0.014": 5.10422196773,
			"0.015": 2.93428925414,
			"0.016": 0.463310263171,
			"0.017": 0.0571754576806,
			"0.018": 0.0,
			"0.019": 0.0,
			"0.02": 0.0,
			"0.021": 0.0,
			"0.022": 0.0,
			"0.023": 0.0,
			"0.024": 0.0,
			"0.025": 0.0
		}
	}
}
