{
	 "smiles": "CCOC1=C(OC)C=C(NC(=O)C=C)C=C1", 
	 "Tm": 391.15, 
	 "num_atms": 31, 
	 "gaussian": { 
		 "optdone": 1, 
		 "sigma_profile": "yes", 
		 "theory": "DFT", 
		 "functional": "B3LYP", 
		 "basiset": "6-31G**", 
		 "properties": { 
			 "R2extent": 5637.6168, 
			 "electric_dipole_moment_norm": 3.86463971671, 
			 "electric_quadrupole_moment_norm": 10.6728271639, 
			 "total_energy": -746.704273544, 
			 "HOMO_LUMO_gap": 0.18004, 
			 "cosmo_polarized_energy": -12.91, 
			 "cosmo_cavitation_energy": 35.25, 
			 "cosmo_dispersion_energy": -24.49, 
			 "cosmo_repulsion_energy": 1.95, 
			 "cosmo_total_nonelectrostatic_energy": 12.7, 
			 "SMD_solvation_energy": 8.5 
		},
		"coords": [
			{
				"x": 4.3326099306,
				"y": -1.0745998916,
				"z": -4.1604352181,
				"element": "C" 
			},
			{
				"x": 3.2279571155,
				"y": -1.2902282256,
				"z": -3.1424904438,
				"element": "C" 
			},
			{
				"x": 2.692480983,
				"y": 0.0035400074,
				"z": -2.7947670226,
				"element": "O" 
			},
			{
				"x": 1.6580878037,
				"y": -0.0179740108,
				"z": -1.8876059381,
				"element": "C" 
			},
			{
				"x": 1.8752510352,
				"y": -0.3155449198,
				"z": -0.5274730619,
				"element": "C" 
			},
			{
				"x": 3.1208317206,
				"y": -0.6595947173,
				"z": -0.0554775364,
				"element": "O" 
			},
			{
				"x": 4.0795814106,
				"y": 0.4062777245,
				"z": -0.0516781181,
				"element": "C" 
			},
			{
				"x": 0.8016883496,
				"y": -0.3264688143,
				"z": 0.3606650846,
				"element": "C" 
			},
			{
				"x": -0.4940075168,
				"y": -0.0105348268,
				"z": -0.0728234489,
				"element": "C" 
			},
			{
				"x": -1.5414259127,
				"y": 0.0073462068,
				"z": 0.8783409708,
				"element": "N" 
			},
			{
				"x": -2.864200659,
				"y": -0.3917464768,
				"z": 0.7789880616,
				"element": "C" 
			},
			{
				"x": -3.6498897212,
				"y": -0.1156403702,
				"z": 1.6792819391,
				"element": "O" 
			},
			{
				"x": -3.2550817681,
				"y": -1.2034451557,
				"z": -0.4111213794,
				"element": "C" 
			},
			{
				"x": -4.5417173074,
				"y": -1.4810471597,
				"z": -0.633503698,
				"element": "C" 
			},
			{
				"x": -0.6981228288,
				"y": 0.3407281958,
				"z": -1.41438292,
				"element": "C" 
			},
			{
				"x": 0.3700781372,
				"y": 0.3104147748,
				"z": -2.3104388779,
				"element": "C" 
			},
			{
				"x": 5.1373846006,
				"y": -0.4653947821,
				"z": -3.7384979026,
				"element": "H" 
			},
			{
				"x": 3.9466684835,
				"y": -0.5656583386,
				"z": -5.0483668921,
				"element": "H" 
			},
			{
				"x": 4.7538084506,
				"y": -2.0371764192,
				"z": -4.4670863297,
				"element": "H" 
			},
			{
				"x": 2.4219154741,
				"y": -1.9079191717,
				"z": -3.5622649395,
				"element": "H" 
			},
			{
				"x": 3.6051648099,
				"y": -1.7869615801,
				"z": -2.2414219159,
				"element": "H" 
			},
			{
				"x": 3.7546167837,
				"y": 1.2162482047,
				"z": 0.6134015274,
				"element": "H" 
			},
			{
				"x": 5.00878666,
				"y": -0.0216002963,
				"z": 0.3296649749,
				"element": "H" 
			},
			{
				"x": 4.2382954576,
				"y": 0.8026463678,
				"z": -1.058873582,
				"element": "H" 
			},
			{
				"x": 0.9900799872,
				"y": -0.5951710135,
				"z": 1.3954436489,
				"element": "H" 
			},
			{
				"x": -1.3387818763,
				"y": 0.4180154154,
				"z": 1.7815640309,
				"element": "H" 
			},
			{
				"x": -2.475674455,
				"y": -1.5784934527,
				"z": -1.0662357967,
				"element": "H" 
			},
			{
				"x": -4.8570117046,
				"y": -2.0919795459,
				"z": -1.473294079,
				"element": "H" 
			},
			{
				"x": -5.3040901692,
				"y": -1.0975871421,
				"z": 0.0378259001,
				"element": "H" 
			},
			{
				"x": -1.6829819653,
				"y": 0.6435968861,
				"z": -1.7518114703,
				"element": "H" 
			},
			{
				"x": 0.2245986915,
				"y": 0.5664525274,
				"z": -3.3551255675,
				"element": "H" 
			}
		],
		 "valence_orbital": [ 
			{
				"type": "occ",
				"energy": -0.27301,
				"method": "rhf"
			},
			{
				"type": "occ",
				"energy": -0.26819,
				"method": "rhf"
			},
			{
				"type": "occ",
				"energy": -0.25192,
				"method": "rhf"
			},
			{
				"type": "occ",
				"energy": -0.24739,
				"method": "rhf"
			},
			{
				"type": "occ",
				"energy": -0.21965,
				"method": "rhf"
			},
			{
				"type": "unocc",
				"energy": -0.03961,
				"method": "rhf"
			},
			{
				"type": "unocc",
				"energy": -0.00953,
				"method": "rhf"
			},
			{
				"type": "unocc",
				"energy": -0.00211,
				"method": "rhf"
			},
			{
				"type": "unocc",
				"energy": 0.07995,
				"method": "rhf"
			},
			{
				"type": "unocc",
				"energy": 0.09177,
				"method": "rhf"
			}
		],
		"cosmo_sigma_profile": { 
			"-0.025": 0.0,
			"-0.024": 0.0,
			"-0.023": 0.0,
			"-0.022": 0.0,
			"-0.021": 0.0,
			"-0.02": 0.0,
			"-0.019": 0.0,
			"-0.018": 0.0,
			"-0.017": 0.0,
			"-0.016": 0.0,
			"-0.015": 0.00402721802684,
			"-0.014": 1.22220855214,
			"-0.013": 0.65011362038,
			"-0.012": 0.796930097561,
			"-0.011": 1.45566063396,
			"-0.01": 1.03263514012,
			"-0.009": 0.990000622948,
			"-0.008": 1.38330846119,
			"-0.007": 3.88603874198,
			"-0.006": 9.36581520667,
			"-0.005": 13.7118140852,
			"-0.004": 24.855098491,
			"-0.003": 30.8805275956,
			"-0.002": 30.8376389333,
			"-0.001": 27.0642799724,
			"0.0": 25.6538699964,
			"0.001": 19.1023110251,
			"0.002": 17.7313842169,
			"0.003": 18.2807523548,
			"0.004": 12.3699733835,
			"0.005": 4.74995059736,
			"0.006": 4.5262527847,
			"0.007": 3.81645961178,
			"0.008": 3.56837646063,
			"0.009": 3.21332510296,
			"0.01": 2.72208345645,
			"0.011": 4.03096403671,
			"0.012": 2.58688425478,
			"0.013": 4.97652010505,
			"0.014": 3.69147571097,
			"0.015": 0.0381554484248,
			"0.016": 0.0,
			"0.017": 0.0,
			"0.018": 0.0,
			"0.019": 0.0,
			"0.02": 0.0,
			"0.021": 0.0,
			"0.022": 0.0,
			"0.023": 0.0,
			"0.024": 0.0,
			"0.025": 0.0
		}
	}
}
