{
	 "smiles": "NS(=O)(=O)CC1(CCCC1)C#N", 
	 "Tm": 346.15, 
	 "num_atms": 24, 
	 "gaussian": { 
		 "optdone": 1, 
		 "sigma_profile": "yes", 
		 "theory": "DFT", 
		 "functional": "B3LYP", 
		 "basiset": "6-31G**", 
		 "properties": { 
			 "R2extent": 2528.9106, 
			 "electric_dipole_moment_norm": 3.62310140211, 
			 "electric_quadrupole_moment_norm": 16.0321587848, 
			 "total_energy": -932.036726564, 
			 "HOMO_LUMO_gap": 0.30694, 
			 "cosmo_polarized_energy": -17.9, 
			 "cosmo_cavitation_energy": 27.23, 
			 "cosmo_dispersion_energy": -20.09, 
			 "cosmo_repulsion_energy": 1.56, 
			 "cosmo_total_nonelectrostatic_energy": 8.7, 
			 "SMD_solvation_energy": 4.65 
		},
		"coords": [
			{
				"x": 2.3313183871,
				"y": 2.5102759835,
				"z": 0.3513908878,
				"element": "N" 
			},
			{
				"x": 1.3861559332,
				"y": 1.5446600257,
				"z": 1.3593990596,
				"element": "S" 
			},
			{
				"x": 2.1822613037,
				"y": 1.3454902287,
				"z": 2.5729576843,
				"element": "O" 
			},
			{
				"x": 0.0063050971,
				"y": 2.0406703631,
				"z": 1.434845808,
				"element": "O" 
			},
			{
				"x": 1.38287888,
				"y": -0.044912617,
				"z": 0.4674960356,
				"element": "C" 
			},
			{
				"x": 0.4041655283,
				"y": -0.1996011323,
				"z": -0.7252019596,
				"element": "C" 
			},
			{
				"x": -1.0742727492,
				"y": -0.3858723766,
				"z": -0.2677234558,
				"element": "C" 
			},
			{
				"x": -1.1625193209,
				"y": -1.8632795446,
				"z": 0.1798875002,
				"element": "C" 
			},
			{
				"x": -0.0208272371,
				"y": -2.6160090657,
				"z": -0.5653572179,
				"element": "C" 
			},
			{
				"x": 0.6819449188,
				"y": -1.5568888954,
				"z": -1.4430915525,
				"element": "C" 
			},
			{
				"x": 0.5452995892,
				"y": 0.9283318979,
				"z": -1.6559355409,
				"element": "C" 
			},
			{
				"x": 0.6519755726,
				"y": 1.8276311216,
				"z": -2.3834694989,
				"element": "N" 
			},
			{
				"x": 1.771584099,
				"y": 3.004257058,
				"z": -0.3406780523,
				"element": "H" 
			},
			{
				"x": 2.8789755581,
				"y": 3.1410866617,
				"z": 0.9310751973,
				"element": "H" 
			},
			{
				"x": 2.4192880617,
				"y": -0.1960450739,
				"z": 0.1594381241,
				"element": "H" 
			},
			{
				"x": 1.1415407616,
				"y": -0.7740560186,
				"z": 1.2450966953,
				"element": "H" 
			},
			{
				"x": -1.7200340921,
				"y": -0.2104931331,
				"z": -1.13398188,
				"element": "H" 
			},
			{
				"x": -1.3518468899,
				"y": 0.3318270985,
				"z": 0.5047605371,
				"element": "H" 
			},
			{
				"x": -1.0387301019,
				"y": -1.9494050562,
				"z": 1.2639494339,
				"element": "H" 
			},
			{
				"x": -2.1475091043,
				"y": -2.2775434628,
				"z": -0.0510441572,
				"element": "H" 
			},
			{
				"x": -0.3967345666,
				"y": -3.4397614443,
				"z": -1.1780096621,
				"element": "H" 
			},
			{
				"x": 0.6834345735,
				"y": -3.0558536129,
				"z": 0.1479173511,
				"element": "H" 
			},
			{
				"x": 1.750412159,
				"y": -1.7417155969,
				"z": -1.5870207407,
				"element": "H" 
			},
			{
				"x": 0.2216336387,
				"y": -1.5155934084,
				"z": -2.4354005965,
				"element": "H" 
			}
		],
		 "valence_orbital": [ 
			{
				"type": "occ",
				"energy": -0.32715,
				"method": "rhf"
			},
			{
				"type": "occ",
				"energy": -0.32515,
				"method": "rhf"
			},
			{
				"type": "occ",
				"energy": -0.31446,
				"method": "rhf"
			},
			{
				"type": "occ",
				"energy": -0.30423,
				"method": "rhf"
			},
			{
				"type": "occ",
				"energy": -0.29082,
				"method": "rhf"
			},
			{
				"type": "unocc",
				"energy": 0.01612,
				"method": "rhf"
			},
			{
				"type": "unocc",
				"energy": 0.02178,
				"method": "rhf"
			},
			{
				"type": "unocc",
				"energy": 0.03709,
				"method": "rhf"
			},
			{
				"type": "unocc",
				"energy": 0.05878,
				"method": "rhf"
			},
			{
				"type": "unocc",
				"energy": 0.06873,
				"method": "rhf"
			}
		],
		"cosmo_sigma_profile": { 
			"-0.025": 0.0,
			"-0.024": 0.0,
			"-0.023": 0.0,
			"-0.022": 0.0,
			"-0.021": 0.0,
			"-0.02": 0.0,
			"-0.019": 0.0,
			"-0.018": 0.0,
			"-0.017": 0.0,
			"-0.016": 0.0,
			"-0.015": 1.14898661796,
			"-0.014": 1.05491746074,
			"-0.013": 2.32204455876,
			"-0.012": 2.44288058743,
			"-0.011": 1.67491047652,
			"-0.01": 1.72354278533,
			"-0.009": 5.10180300316,
			"-0.008": 6.19474013995,
			"-0.007": 5.95698341294,
			"-0.006": 10.2655877714,
			"-0.005": 12.7448870677,
			"-0.004": 15.3734160616,
			"-0.003": 19.675537915,
			"-0.002": 20.2358635089,
			"-0.001": 17.6740644813,
			"0.0": 12.0646282654,
			"0.001": 5.8462792457,
			"0.002": 4.79991401757,
			"0.003": 5.83624407336,
			"0.004": 4.21226475655,
			"0.005": 6.3028079719,
			"0.006": 4.40696123521,
			"0.007": 5.31719324931,
			"0.008": 5.70500202185,
			"0.009": 7.53194845289,
			"0.01": 8.65041688305,
			"0.011": 12.9913909796,
			"0.012": 5.45217891857,
			"0.013": 0.926286571376,
			"0.014": 0.0,
			"0.015": 0.0,
			"0.016": 0.0,
			"0.017": 0.0,
			"0.018": 0.0,
			"0.019": 0.0,
			"0.02": 0.0,
			"0.021": 0.0,
			"0.022": 0.0,
			"0.023": 0.0,
			"0.024": 0.0,
			"0.025": 0.0
		}
	}
}
