{
	 "smiles": "NC(=O)C1=CC(Cl)=CC(Cl)=C1", 
	 "Tm": 434.15, 
	 "num_atms": 16, 
	 "gaussian": { 
		 "optdone": 1, 
		 "sigma_profile": "yes", 
		 "theory": "DFT", 
		 "functional": "B3LYP", 
		 "basiset": "6-31G**", 
		 "properties": { 
			 "R2extent": 3225.0223, 
			 "electric_dipole_moment_norm": 3.2647766769, 
			 "electric_quadrupole_moment_norm": 15.1405373798, 
			 "total_energy": -1320.1365569, 
			 "HOMO_LUMO_gap": 0.20078, 
			 "cosmo_polarized_energy": -12.5, 
			 "cosmo_cavitation_energy": 24.61, 
			 "cosmo_dispersion_energy": -18.42, 
			 "cosmo_repulsion_energy": 1.5, 
			 "cosmo_total_nonelectrostatic_energy": 7.7, 
			 "SMD_solvation_energy": 4.46 
		},
		"coords": [
			{
				"x": 2.8299256574,
				"y": -0.5008574361,
				"z": -2.5865254549,
				"element": "N" 
			},
			{
				"x": 1.4825315592,
				"y": -0.4456334363,
				"z": -2.334123241,
				"element": "C" 
			},
			{
				"x": 0.6638889362,
				"y": -1.0413424145,
				"z": -3.0205809071,
				"element": "O" 
			},
			{
				"x": 1.061513412,
				"y": 0.3741409711,
				"z": -1.1405121108,
				"element": "C" 
			},
			{
				"x": -0.2822979586,
				"y": 0.7597178873,
				"z": -1.0833498453,
				"element": "C" 
			},
			{
				"x": -0.7257263992,
				"y": 1.5189562116,
				"z": -0.005795005,
				"element": "C" 
			},
			{
				"x": -2.4044562584,
				"y": 2.0204802916,
				"z": 0.0668265678,
				"element": "Cl" 
			},
			{
				"x": 0.1334869847,
				"y": 1.8946876911,
				"z": 1.0285344405,
				"element": "C" 
			},
			{
				"x": 1.4633185159,
				"y": 1.4830092743,
				"z": 0.9595519806,
				"element": "C" 
			},
			{
				"x": 2.5587295908,
				"y": 1.9219704826,
				"z": 2.258699215,
				"element": "Cl" 
			},
			{
				"x": 1.9407715724,
				"y": 0.7273834361,
				"z": -0.109834511,
				"element": "C" 
			},
			{
				"x": 3.4492075212,
				"y": 0.2185996057,
				"z": -2.247658971,
				"element": "H" 
			},
			{
				"x": 3.091635074,
				"y": -0.9632514139,
				"z": -3.4455106506,
				"element": "H" 
			},
			{
				"x": -0.951483795,
				"y": 0.455057075,
				"z": -1.8787382003,
				"element": "H" 
			},
			{
				"x": -0.2243952787,
				"y": 2.4831094247,
				"z": 1.8642460329,
				"element": "H" 
			},
			{
				"x": 2.9722508661,
				"y": 0.3949723497,
				"z": -0.1079293398,
				"element": "H" 
			}
		],
		 "valence_orbital": [ 
			{
				"type": "occ",
				"energy": -0.32281,
				"method": "rhf"
			},
			{
				"type": "occ",
				"energy": -0.28699,
				"method": "rhf"
			},
			{
				"type": "occ",
				"energy": -0.2753,
				"method": "rhf"
			},
			{
				"type": "occ",
				"energy": -0.26625,
				"method": "rhf"
			},
			{
				"type": "occ",
				"energy": -0.26011,
				"method": "rhf"
			},
			{
				"type": "unocc",
				"energy": -0.05933,
				"method": "rhf"
			},
			{
				"type": "unocc",
				"energy": -0.03427,
				"method": "rhf"
			},
			{
				"type": "unocc",
				"energy": -0.00083,
				"method": "rhf"
			},
			{
				"type": "unocc",
				"energy": 0.03638,
				"method": "rhf"
			},
			{
				"type": "unocc",
				"energy": 0.04379,
				"method": "rhf"
			}
		],
		"cosmo_sigma_profile": { 
			"-0.025": 0.0,
			"-0.024": 0.0,
			"-0.023": 0.0,
			"-0.022": 0.0,
			"-0.021": 0.0,
			"-0.02": 0.0,
			"-0.019": 0.0,
			"-0.018": 0.0,
			"-0.017": 0.0,
			"-0.016": 0.02927695945,
			"-0.015": 0.857216273307,
			"-0.014": 2.75879416523,
			"-0.013": 2.0696044151,
			"-0.012": 2.69018189956,
			"-0.011": 2.42638668851,
			"-0.01": 3.58986224389,
			"-0.009": 2.80690921506,
			"-0.008": 4.17905093562,
			"-0.007": 4.12588860845,
			"-0.006": 4.59621872446,
			"-0.005": 5.14958108249,
			"-0.004": 6.58993306044,
			"-0.003": 8.44894479757,
			"-0.002": 12.7523292016,
			"-0.001": 15.5538637434,
			"0.0": 25.70235111,
			"0.001": 24.5409031122,
			"0.002": 13.3302916485,
			"0.003": 16.8485182791,
			"0.004": 19.7598744234,
			"0.005": 4.1301122637,
			"0.006": 1.74553714994,
			"0.007": 2.11348149105,
			"0.008": 1.24305650159,
			"0.009": 1.78662951116,
			"0.01": 1.17601262396,
			"0.011": 2.04483963302,
			"0.012": 2.31925921369,
			"0.013": 5.57263670774,
			"0.014": 1.12226251174,
			"0.015": 0.0,
			"0.016": 0.0,
			"0.017": 0.0,
			"0.018": 0.0,
			"0.019": 0.0,
			"0.02": 0.0,
			"0.021": 0.0,
			"0.022": 0.0,
			"0.023": 0.0,
			"0.024": 0.0,
			"0.025": 0.0
		}
	}
}
