{
	 "smiles": "OC(=O)C1=NOC(=C1)C1=CC=C(Cl)S1", 
	 "Tm": 443.15, 
	 "num_atms": 18, 
	 "gaussian": { 
		 "optdone": 1, 
		 "sigma_profile": "yes", 
		 "theory": "DFT", 
		 "functional": "B3LYP", 
		 "basiset": "6-31G**", 
		 "properties": { 
			 "R2extent": 6361.5596, 
			 "electric_dipole_moment_norm": 6.77096882285, 
			 "electric_quadrupole_moment_norm": 19.5931454223, 
			 "total_energy": -1445.98679475, 
			 "HOMO_LUMO_gap": 0.15809, 
			 "cosmo_polarized_energy": -19.59, 
			 "cosmo_cavitation_energy": 28.15, 
			 "cosmo_dispersion_energy": -21.25, 
			 "cosmo_repulsion_energy": 1.62, 
			 "cosmo_total_nonelectrostatic_energy": 8.52, 
			 "SMD_solvation_energy": 5.35 
		},
		"coords": [
			{
				"x": -1.6197619779,
				"y": -1.186760127,
				"z": 3.5376440039,
				"element": "O" 
			},
			{
				"x": -1.245060984,
				"y": 0.060381888,
				"z": 3.1472341308,
				"element": "C" 
			},
			{
				"x": -1.6435002738,
				"y": 1.0406614728,
				"z": 3.7159079336,
				"element": "O" 
			},
			{
				"x": -0.2904984273,
				"y": 0.0820848092,
				"z": 1.9894802868,
				"element": "C" 
			},
			{
				"x": -0.3043299541,
				"y": 1.1053671025,
				"z": 1.158571565,
				"element": "N" 
			},
			{
				"x": 0.6854564743,
				"y": 0.8242436654,
				"z": 0.2259134458,
				"element": "O" 
			},
			{
				"x": 1.2825626665,
				"y": -0.3564707124,
				"z": 0.5181812114,
				"element": "C" 
			},
			{
				"x": 0.6916303938,
				"y": -0.8862767873,
				"z": 1.6377696988,
				"element": "C" 
			},
			{
				"x": 2.351333727,
				"y": -0.7902602093,
				"z": -0.3473368402,
				"element": "C" 
			},
			{
				"x": 3.0966950001,
				"y": -1.9464301223,
				"z": -0.2566296645,
				"element": "C" 
			},
			{
				"x": 4.0791238762,
				"y": -2.0681511844,
				"z": -1.2738049892,
				"element": "C" 
			},
			{
				"x": 4.0645439097,
				"y": -0.9955966446,
				"z": -2.1270202212,
				"element": "C" 
			},
			{
				"x": 5.0898388335,
				"y": -0.749752906,
				"z": -3.4936751286,
				"element": "Cl" 
			},
			{
				"x": 2.8570345025,
				"y": 0.1856503157,
				"z": -1.7115151463,
				"element": "S" 
			},
			{
				"x": -1.3290479182,
				"y": -1.8449403473,
				"z": 2.8901022263,
				"element": "H" 
			},
			{
				"x": 0.9568500617,
				"y": -1.7944997491,
				"z": 2.1570674814,
				"element": "H" 
			},
			{
				"x": 2.9456035278,
				"y": -2.6889457521,
				"z": 0.5184694613,
				"element": "H" 
			},
			{
				"x": 4.7626265623,
				"y": -2.9015047117,
				"z": -1.3742594549,
				"element": "H" 
			}
		],
		 "valence_orbital": [ 
			{
				"type": "occ",
				"energy": -0.32161,
				"method": "rhf"
			},
			{
				"type": "occ",
				"energy": -0.31015,
				"method": "rhf"
			},
			{
				"type": "occ",
				"energy": -0.28828,
				"method": "rhf"
			},
			{
				"type": "occ",
				"energy": -0.28715,
				"method": "rhf"
			},
			{
				"type": "occ",
				"energy": -0.24174,
				"method": "rhf"
			},
			{
				"type": "unocc",
				"energy": -0.08365,
				"method": "rhf"
			},
			{
				"type": "unocc",
				"energy": -0.04686,
				"method": "rhf"
			},
			{
				"type": "unocc",
				"energy": -0.00833,
				"method": "rhf"
			},
			{
				"type": "unocc",
				"energy": 0.00198,
				"method": "rhf"
			},
			{
				"type": "unocc",
				"energy": 0.00528,
				"method": "rhf"
			}
		],
		"cosmo_sigma_profile": { 
			"-0.025": 0.0,
			"-0.024": 0.0,
			"-0.023": 0.0,
			"-0.022": 0.0,
			"-0.021": 0.0,
			"-0.02": 0.0609517523484,
			"-0.019": 0.728588264085,
			"-0.018": 0.7924324408,
			"-0.017": 1.27076103528,
			"-0.016": 1.27650314688,
			"-0.015": 1.6695344598,
			"-0.014": 0.989115225235,
			"-0.013": 1.40120804821,
			"-0.012": 1.2083435346,
			"-0.011": 1.86122817798,
			"-0.01": 3.43362906484,
			"-0.009": 5.46262520443,
			"-0.008": 6.60489739904,
			"-0.007": 5.240181756,
			"-0.006": 6.09683184603,
			"-0.005": 5.20704499128,
			"-0.004": 7.84461047018,
			"-0.003": 10.8445043846,
			"-0.002": 17.2688212249,
			"-0.001": 18.3479606564,
			"0.0": 25.6447249963,
			"0.001": 24.6622321211,
			"0.002": 21.3018573666,
			"0.003": 13.4352307598,
			"0.004": 5.31345409564,
			"0.005": 5.20085016659,
			"0.006": 5.10267905176,
			"0.007": 4.34843927957,
			"0.008": 5.03749821545,
			"0.009": 7.12939815084,
			"0.01": 7.47471867923,
			"0.011": 7.12929068585,
			"0.012": 2.55066369661,
			"0.013": 0.364780442776,
			"0.014": 0.0,
			"0.015": 0.0,
			"0.016": 0.0,
			"0.017": 0.0,
			"0.018": 0.0,
			"0.019": 0.0,
			"0.02": 0.0,
			"0.021": 0.0,
			"0.022": 0.0,
			"0.023": 0.0,
			"0.024": 0.0,
			"0.025": 0.0
		}
	}
}
