{
	 "smiles": "ClC1=C(N2C=CC=CC2=N1)S(Cl)(=O)=O", 
	 "Tm": 375.15, 
	 "num_atms": 18, 
	 "gaussian": { 
		 "optdone": 1, 
		 "sigma_profile": "yes", 
		 "theory": "DFT", 
		 "functional": "B3LYP", 
		 "basiset": "6-31G**", 
		 "properties": { 
			 "R2extent": 3648.1553, 
			 "electric_dipole_moment_norm": 6.17628167266, 
			 "electric_quadrupole_moment_norm": 11.6776175597, 
			 "total_energy": -1847.58863603, 
			 "HOMO_LUMO_gap": 0.16035, 
			 "cosmo_polarized_energy": -11.91, 
			 "cosmo_cavitation_energy": 27.93, 
			 "cosmo_dispersion_energy": -21.13, 
			 "cosmo_repulsion_energy": 1.6, 
			 "cosmo_total_nonelectrostatic_energy": 8.4, 
			 "SMD_solvation_energy": 1.73 
		},
		"coords": [
			{
				"x": 2.4808685392,
				"y": 0.8797877993,
				"z": -1.1209707621,
				"element": "Cl" 
			},
			{
				"x": 1.1191157684,
				"y": 0.353574873,
				"z": -0.2177493083,
				"element": "C" 
			},
			{
				"x": -0.033988401,
				"y": -0.2712075938,
				"z": -0.7246579952,
				"element": "C" 
			},
			{
				"x": -0.8498563738,
				"y": -0.4708597918,
				"z": 0.3939084174,
				"element": "N" 
			},
			{
				"x": -2.1001074767,
				"y": -1.0209039427,
				"z": 0.5385317709,
				"element": "C" 
			},
			{
				"x": -2.6439843719,
				"y": -1.0970650371,
				"z": 1.793665577,
				"element": "C" 
			},
			{
				"x": -1.9289536973,
				"y": -0.6294090739,
				"z": 2.9242580783,
				"element": "C" 
			},
			{
				"x": -0.6726118344,
				"y": -0.0869163425,
				"z": 2.7743106284,
				"element": "C" 
			},
			{
				"x": -0.1156534177,
				"y": 0.0034813,
				"z": 1.4847842638,
				"element": "C" 
			},
			{
				"x": 1.0769821789,
				"y": 0.4947584429,
				"z": 1.1065700839,
				"element": "N" 
			},
			{
				"x": -0.5719699367,
				"y": -0.5383158036,
				"z": -2.3506518445,
				"element": "S" 
			},
			{
				"x": -1.7365433306,
				"y": 1.2145716554,
				"z": -2.7661106562,
				"element": "Cl" 
			},
			{
				"x": -1.5393399567,
				"y": -1.6338876305,
				"z": -2.352189246,
				"element": "O" 
			},
			{
				"x": 0.5636910597,
				"y": -0.4949013332,
				"z": -3.2548109705,
				"element": "O" 
			},
			{
				"x": -2.5798304558,
				"y": -1.3752165134,
				"z": -0.3625432006,
				"element": "H" 
			},
			{
				"x": -3.6317578992,
				"y": -1.528688135,
				"z": 1.9034377147,
				"element": "H" 
			},
			{
				"x": -2.3755159538,
				"y": -0.7039643353,
				"z": 3.9100214206,
				"element": "H" 
			},
			{
				"x": -0.0858444405,
				"y": 0.2800614622,
				"z": 3.6075960284,
				"element": "H" 
			}
		],
		 "valence_orbital": [ 
			{
				"type": "occ",
				"energy": -0.32865,
				"method": "rhf"
			},
			{
				"type": "occ",
				"energy": -0.31814,
				"method": "rhf"
			},
			{
				"type": "occ",
				"energy": -0.31719,
				"method": "rhf"
			},
			{
				"type": "occ",
				"energy": -0.27644,
				"method": "rhf"
			},
			{
				"type": "occ",
				"energy": -0.25842,
				"method": "rhf"
			},
			{
				"type": "unocc",
				"energy": -0.09807,
				"method": "rhf"
			},
			{
				"type": "unocc",
				"energy": -0.06816,
				"method": "rhf"
			},
			{
				"type": "unocc",
				"energy": -0.0416,
				"method": "rhf"
			},
			{
				"type": "unocc",
				"energy": 0.00567,
				"method": "rhf"
			},
			{
				"type": "unocc",
				"energy": 0.02382,
				"method": "rhf"
			}
		],
		"cosmo_sigma_profile": { 
			"-0.025": 0.0,
			"-0.024": 0.0,
			"-0.023": 0.0,
			"-0.022": 0.0,
			"-0.021": 0.0,
			"-0.02": 0.0,
			"-0.019": 0.0,
			"-0.018": 0.0,
			"-0.017": 0.0,
			"-0.016": 0.0,
			"-0.015": 0.0,
			"-0.014": 0.0,
			"-0.013": 0.0,
			"-0.012": 0.0,
			"-0.011": 0.0,
			"-0.01": 0.100281250942,
			"-0.009": 4.01997367259,
			"-0.008": 9.45120141819,
			"-0.007": 8.44452797146,
			"-0.006": 8.51167896832,
			"-0.005": 11.3377949811,
			"-0.004": 15.1311775939,
			"-0.003": 14.9981971537,
			"-0.002": 16.6018300421,
			"-0.001": 18.9635005761,
			"0.0": 19.6798240917,
			"0.001": 17.9818983181,
			"0.002": 16.980799376,
			"0.003": 19.8617126684,
			"0.004": 13.0000145506,
			"0.005": 5.62084620927,
			"0.006": 5.46445344808,
			"0.007": 8.7697328574,
			"0.008": 9.32926773938,
			"0.009": 2.92194327547,
			"0.01": 1.00163908811,
			"0.011": 0.813727503663,
			"0.012": 1.1397532463,
			"0.013": 0.752969255558,
			"0.014": 0.552040817701,
			"0.015": 0.0,
			"0.016": 0.0,
			"0.017": 0.0,
			"0.018": 0.0,
			"0.019": 0.0,
			"0.02": 0.0,
			"0.021": 0.0,
			"0.022": 0.0,
			"0.023": 0.0,
			"0.024": 0.0,
			"0.025": 0.0
		}
	}
}
