{
	 "smiles": "CC1=CC(C)=C(C=C)C(C)=C1", 
	 "Tm": 236.15, 
	 "num_atms": 25, 
	 "gaussian": { 
		 "optdone": 1, 
		 "sigma_profile": "yes", 
		 "theory": "DFT", 
		 "functional": "B3LYP", 
		 "basiset": "6-31G**", 
		 "properties": { 
			 "R2extent": 2152.8656, 
			 "electric_dipole_moment_norm": 0.208233834907, 
			 "electric_quadrupole_moment_norm": 4.50712524565, 
			 "total_energy": -427.60641769, 
			 "HOMO_LUMO_gap": 0.19595, 
			 "cosmo_polarized_energy": -3.7, 
			 "cosmo_cavitation_energy": 27.05, 
			 "cosmo_dispersion_energy": -19.47, 
			 "cosmo_repulsion_energy": 1.55, 
			 "cosmo_total_nonelectrostatic_energy": 9.14, 
			 "SMD_solvation_energy": 5.19 
		},
		"coords": [
			{
				"x": 3.1180308828,
				"y": 0.4745076167,
				"z": -0.8684614571,
				"element": "C" 
			},
			{
				"x": 1.7745650674,
				"y": 0.3204860011,
				"z": -0.1960849764,
				"element": "C" 
			},
			{
				"x": 1.4889925952,
				"y": -0.7820362784,
				"z": 0.6089555907,
				"element": "C" 
			},
			{
				"x": 0.2632310924,
				"y": -0.9341562797,
				"z": 1.2704298319,
				"element": "C" 
			},
			{
				"x": 0.0587784377,
				"y": -2.1842370707,
				"z": 2.0982954628,
				"element": "C" 
			},
			{
				"x": -0.7311158506,
				"y": 0.0608205755,
				"z": 1.1145213932,
				"element": "C" 
			},
			{
				"x": -2.0644475667,
				"y": -0.021053398,
				"z": 1.7500416196,
				"element": "C" 
			},
			{
				"x": -2.3608838137,
				"y": -0.4185874846,
				"z": 2.9938944563,
				"element": "C" 
			},
			{
				"x": -0.4630076906,
				"y": 1.1750644319,
				"z": 0.2769776045,
				"element": "C" 
			},
			{
				"x": -1.4963059561,
				"y": 2.2602690472,
				"z": 0.0668495578,
				"element": "C" 
			},
			{
				"x": 0.7769013493,
				"y": 1.2889933108,
				"z": -0.3510471423,
				"element": "C" 
			},
			{
				"x": 3.6413778391,
				"y": -0.4833554269,
				"z": -0.941389404,
				"element": "H" 
			},
			{
				"x": 3.7665820732,
				"y": 1.1600311429,
				"z": -0.3082565387,
				"element": "H" 
			},
			{
				"x": 3.0162570212,
				"y": 0.8829785245,
				"z": -1.8792830218,
				"element": "H" 
			},
			{
				"x": 2.2411857165,
				"y": -1.5597294701,
				"z": 0.7252251624,
				"element": "H" 
			},
			{
				"x": 0.7203470075,
				"y": -2.9825950992,
				"z": 1.7493729834,
				"element": "H" 
			},
			{
				"x": 0.2909047952,
				"y": -2.0162748619,
				"z": 3.1571741775,
				"element": "H" 
			},
			{
				"x": -0.9727938905,
				"y": -2.5422364581,
				"z": 2.0515252895,
				"element": "H" 
			},
			{
				"x": -2.8933921395,
				"y": 0.3168514546,
				"z": 1.1286195519,
				"element": "H" 
			},
			{
				"x": -3.388556101,
				"y": -0.4235775079,
				"z": 3.345017108,
				"element": "H" 
			},
			{
				"x": -1.6045852881,
				"y": -0.7280018685,
				"z": 3.7072766341,
				"element": "H" 
			},
			{
				"x": -2.3818855445,
				"y": 1.8860777961,
				"z": -0.4625442252,
				"element": "H" 
			},
			{
				"x": -1.0826235092,
				"y": 3.0784314873,
				"z": -0.5285379512,
				"element": "H" 
			},
			{
				"x": -1.8475815942,
				"y": 2.6774706277,
				"z": 1.0167091831,
				"element": "H" 
			},
			{
				"x": 0.969325067,
				"y": 2.1552591877,
				"z": -0.9808808902,
				"element": "H" 
			}
		],
		 "valence_orbital": [ 
			{
				"type": "occ",
				"energy": -0.32486,
				"method": "rhf"
			},
			{
				"type": "occ",
				"energy": -0.31796,
				"method": "rhf"
			},
			{
				"type": "occ",
				"energy": -0.2755,
				"method": "rhf"
			},
			{
				"type": "occ",
				"energy": -0.22948,
				"method": "rhf"
			},
			{
				"type": "occ",
				"energy": -0.21412,
				"method": "rhf"
			},
			{
				"type": "unocc",
				"energy": -0.01817,
				"method": "rhf"
			},
			{
				"type": "unocc",
				"energy": 0.01009,
				"method": "rhf"
			},
			{
				"type": "unocc",
				"energy": 0.04955,
				"method": "rhf"
			},
			{
				"type": "unocc",
				"energy": 0.10415,
				"method": "rhf"
			},
			{
				"type": "unocc",
				"energy": 0.11048,
				"method": "rhf"
			}
		],
		"cosmo_sigma_profile": { 
			"-0.025": 0.0,
			"-0.024": 0.0,
			"-0.023": 0.0,
			"-0.022": 0.0,
			"-0.021": 0.0,
			"-0.02": 0.0,
			"-0.019": 0.0,
			"-0.018": 0.0,
			"-0.017": 0.0,
			"-0.016": 0.0,
			"-0.015": 0.0,
			"-0.014": 0.0,
			"-0.013": 0.0,
			"-0.012": 0.0,
			"-0.011": 0.0,
			"-0.01": 0.0,
			"-0.009": 0.0,
			"-0.008": 0.0,
			"-0.007": 0.0982145944194,
			"-0.006": 0.955436154613,
			"-0.005": 5.42044542123,
			"-0.004": 20.9966630512,
			"-0.003": 25.0528559267,
			"-0.002": 24.4262090618,
			"-0.001": 24.2707956813,
			"0.0": 30.5798134551,
			"0.001": 22.4781760484,
			"0.002": 12.8442609231,
			"0.003": 11.7697507692,
			"0.004": 9.66880172105,
			"0.005": 9.99070621176,
			"0.006": 9.61526471742,
			"0.007": 4.73920777734,
			"0.008": 0.0303221503831,
			"0.009": 0.0,
			"0.01": 0.0,
			"0.011": 0.0,
			"0.012": 0.0,
			"0.013": 0.0,
			"0.014": 0.0,
			"0.015": 0.0,
			"0.016": 0.0,
			"0.017": 0.0,
			"0.018": 0.0,
			"0.019": 0.0,
			"0.02": 0.0,
			"0.021": 0.0,
			"0.022": 0.0,
			"0.023": 0.0,
			"0.024": 0.0,
			"0.025": 0.0
		}
	}
}
