{
	 "smiles": "CCC(C=CC(C)C1CCC2C3CC=C4CC(O)CCC4(C)C3CCC12C)C(C)C", 
	 "Tm": 443.15, 
	 "num_atms": 78, 
	 "gaussian": { 
		 "optdone": 1, 
		 "sigma_profile": "yes", 
		 "theory": "DFT", 
		 "functional": "B3LYP", 
		 "basiset": "6-31G**", 
		 "properties": { 
			 "R2extent": 16290.7193, 
			 "electric_dipole_moment_norm": 1.60897145717, 
			 "electric_quadrupole_moment_norm": 12.7795749229, 
			 "total_energy": -1209.23000878, 
			 "HOMO_LUMO_gap": 0.24907, 
			 "cosmo_polarized_energy": -8.48, 
			 "cosmo_cavitation_energy": 66.77, 
			 "cosmo_dispersion_energy": -42.05, 
			 "cosmo_repulsion_energy": 3.15, 
			 "cosmo_total_nonelectrostatic_energy": 27.87, 
			 "SMD_solvation_energy": 9.49 
		},
		"coords": [
			{
				"x": -3.1738564959,
				"y": -3.4498308737,
				"z": 4.9513230534,
				"element": "C" 
			},
			{
				"x": -2.1778427471,
				"y": -3.2332698642,
				"z": 3.8058150024,
				"element": "C" 
			},
			{
				"x": -2.7982448391,
				"y": -3.2686428609,
				"z": 2.3940067763,
				"element": "C" 
			},
			{
				"x": -1.7627171257,
				"y": -3.2451093299,
				"z": 1.2876333667,
				"element": "C" 
			},
			{
				"x": -0.4546852779,
				"y": -2.9901042771,
				"z": 1.395120565,
				"element": "C" 
			},
			{
				"x": 0.5279132756,
				"y": -3.0017931495,
				"z": 0.2435464114,
				"element": "C" 
			},
			{
				"x": 1.5272327026,
				"y": -4.1610091554,
				"z": 0.4465613727,
				"element": "C" 
			},
			{
				"x": 1.1784997909,
				"y": -1.5931441969,
				"z": 0.0788744722,
				"element": "C" 
			},
			{
				"x": 2.4582646064,
				"y": -1.308733537,
				"z": 0.8833748861,
				"element": "C" 
			},
			{
				"x": 2.8880542773,
				"y": 0.0765600481,
				"z": 0.3745068967,
				"element": "C" 
			},
			{
				"x": 2.4968862297,
				"y": 0.1156112572,
				"z": -1.1328486336,
				"element": "C" 
			},
			{
				"x": 1.8833842953,
				"y": 1.4561390982,
				"z": -1.6109106973,
				"element": "C" 
			},
			{
				"x": 2.7914043291,
				"y": 2.6632324954,
				"z": -1.3246912395,
				"element": "C" 
			},
			{
				"x": 2.1474217168,
				"y": 3.9087492045,
				"z": -1.8677374805,
				"element": "C" 
			},
			{
				"x": 0.82491,
				"y": 4.0995392052,
				"z": -1.8104003454,
				"element": "C" 
			},
			{
				"x": 0.159528914,
				"y": 5.3162892178,
				"z": -2.4059376845,
				"element": "C" 
			},
			{
				"x": -0.9115335629,
				"y": 4.9546222095,
				"z": -3.4593102864,
				"element": "C" 
			},
			{
				"x": -0.2905258297,
				"y": 5.0266542522,
				"z": -4.7426218844,
				"element": "O" 
			},
			{
				"x": -1.4932615686,
				"y": 3.5550559548,
				"z": -3.1842964947,
				"element": "C" 
			},
			{
				"x": -1.5363391643,
				"y": 3.2718420387,
				"z": -1.6758520372,
				"element": "C" 
			},
			{
				"x": -0.1058139675,
				"y": 3.1296316021,
				"z": -1.0665202848,
				"element": "C" 
			},
			{
				"x": -0.1794367178,
				"y": 3.602951278,
				"z": 0.4102715202,
				"element": "C" 
			},
			{
				"x": 0.452702372,
				"y": 1.6313418111,
				"z": -1.0507135661,
				"element": "C" 
			},
			{
				"x": -0.4641833668,
				"y": 0.5438600578,
				"z": -1.6808039099,
				"element": "C" 
			},
			{
				"x": 0.2982556972,
				"y": -0.7036092738,
				"z": -2.1855960929,
				"element": "C" 
			},
			{
				"x": 1.5397084274,
				"y": -1.1203044749,
				"z": -1.3712937606,
				"element": "C" 
			},
			{
				"x": 2.2938216683,
				"y": -2.1985147635,
				"z": -2.1740931988,
				"element": "C" 
			},
			{
				"x": -3.9101048016,
				"y": -2.1899113097,
				"z": 2.1768603359,
				"element": "C" 
			},
			{
				"x": -4.6613988503,
				"y": -2.3903105907,
				"z": 0.8502720056,
				"element": "C" 
			},
			{
				"x": -3.3849741869,
				"y": -0.7509995191,
				"z": 2.2880617851,
				"element": "C" 
			},
			{
				"x": -3.7487091015,
				"y": -4.3726120458,
				"z": 4.8094578367,
				"element": "H" 
			},
			{
				"x": -2.64894054,
				"y": -3.5323877124,
				"z": 5.9087555459,
				"element": "H" 
			},
			{
				"x": -3.8883795141,
				"y": -2.6258138958,
				"z": 5.0435245089,
				"element": "H" 
			},
			{
				"x": -1.647510562,
				"y": -2.2857596102,
				"z": 3.9616373579,
				"element": "H" 
			},
			{
				"x": -1.4112092361,
				"y": -4.0160783815,
				"z": 3.8535386767,
				"element": "H" 
			},
			{
				"x": -3.3175064876,
				"y": -4.2381854617,
				"z": 2.3061056574,
				"element": "H" 
			},
			{
				"x": -2.1483141827,
				"y": -3.4741580993,
				"z": 0.2928769475,
				"element": "H" 
			},
			{
				"x": -0.0228880521,
				"y": -2.7659656734,
				"z": 2.3711655089,
				"element": "H" 
			},
			{
				"x": -0.0461429756,
				"y": -3.2106532192,
				"z": -0.6699259435,
				"element": "H" 
			},
			{
				"x": 2.0613526402,
				"y": -4.0615630044,
				"z": 1.3977210847,
				"element": "H" 
			},
			{
				"x": 0.9895708017,
				"y": -5.1140983013,
				"z": 0.4725470191,
				"element": "H" 
			},
			{
				"x": 2.2729485376,
				"y": -4.2164481646,
				"z": -0.350121045,
				"element": "H" 
			},
			{
				"x": 0.4266674325,
				"y": -0.8793539969,
				"z": 0.4416082362,
				"element": "H" 
			},
			{
				"x": 3.229946638,
				"y": -2.0545513993,
				"z": 0.6604797002,
				"element": "H" 
			},
			{
				"x": 2.2985878171,
				"y": -1.3291552136,
				"z": 1.9673217186,
				"element": "H" 
			},
			{
				"x": 2.3476240858,
				"y": 0.8477910733,
				"z": 0.9354402411,
				"element": "H" 
			},
			{
				"x": 3.9539872127,
				"y": 0.2720905095,
				"z": 0.5281602683,
				"element": "H" 
			},
			{
				"x": 3.4065734068,
				"y": -0.0383987564,
				"z": -1.7270786907,
				"element": "H" 
			},
			{
				"x": 1.8057434464,
				"y": 1.4074050443,
				"z": -2.7064114311,
				"element": "H" 
			},
			{
				"x": 2.9821514574,
				"y": 2.7569831876,
				"z": -0.2453141337,
				"element": "H" 
			},
			{
				"x": 3.7725284498,
				"y": 2.5048980474,
				"z": -1.7894688116,
				"element": "H" 
			},
			{
				"x": 2.7761166475,
				"y": 4.6504507974,
				"z": -2.3573534092,
				"element": "H" 
			},
			{
				"x": 0.8936333129,
				"y": 5.9773274982,
				"z": -2.8752028853,
				"element": "H" 
			},
			{
				"x": -0.3291325659,
				"y": 5.8948206211,
				"z": -1.609477611,
				"element": "H" 
			},
			{
				"x": -1.7213930879,
				"y": 5.7009626679,
				"z": -3.399394747,
				"element": "H" 
			},
			{
				"x": -0.937930408,
				"y": 4.7365705937,
				"z": -5.3987371564,
				"element": "H" 
			},
			{
				"x": -0.8364090043,
				"y": 2.8314389918,
				"z": -3.6818126208,
				"element": "H" 
			},
			{
				"x": -2.4886315601,
				"y": 3.4559292366,
				"z": -3.6358060315,
				"element": "H" 
			},
			{
				"x": -2.1431984516,
				"y": 2.3911626286,
				"z": -1.4534022049,
				"element": "H" 
			},
			{
				"x": -2.0484563714,
				"y": 4.1082754022,
				"z": -1.1819942201,
				"element": "H" 
			},
			{
				"x": 0.7913818811,
				"y": 3.5069482078,
				"z": 0.9060916387,
				"element": "H" 
			},
			{
				"x": -0.4870251084,
				"y": 4.6520469403,
				"z": 0.4796116207,
				"element": "H" 
			},
			{
				"x": -0.9074797225,
				"y": 3.0035576482,
				"z": 0.9711584015,
				"element": "H" 
			},
			{
				"x": 0.519932877,
				"y": 1.3814715053,
				"z": 0.0141713094,
				"element": "H" 
			},
			{
				"x": -1.227266433,
				"y": 0.2470066172,
				"z": -0.9513827964,
				"element": "H" 
			},
			{
				"x": -1.0117394609,
				"y": 0.9432853541,
				"z": -2.5383749484,
				"element": "H" 
			},
			{
				"x": -0.4001079962,
				"y": -1.5476228601,
				"z": -2.2550461699,
				"element": "H" 
			},
			{
				"x": 0.6271230017,
				"y": -0.5173797121,
				"z": -3.2158109395,
				"element": "H" 
			},
			{
				"x": 2.6012226859,
				"y": -1.7939611779,
				"z": -3.1453423271,
				"element": "H" 
			},
			{
				"x": 1.6690347966,
				"y": -3.0767447694,
				"z": -2.3700320905,
				"element": "H" 
			},
			{
				"x": 3.2013731276,
				"y": -2.5348418187,
				"z": -1.6626153413,
				"element": "H" 
			},
			{
				"x": -4.6450651347,
				"y": -2.340078389,
				"z": 2.9785460518,
				"element": "H" 
			},
			{
				"x": -5.5361809143,
				"y": -1.7328236181,
				"z": 0.8008716945,
				"element": "H" 
			},
			{
				"x": -5.0145422482,
				"y": -3.4221109579,
				"z": 0.7395450555,
				"element": "H" 
			},
			{
				"x": -4.0306341202,
				"y": -2.1569748563,
				"z": -0.0141948937,
				"element": "H" 
			},
			{
				"x": -2.9529508468,
				"y": -0.5444779664,
				"z": 3.2723766619,
				"element": "H" 
			},
			{
				"x": -4.1956034402,
				"y": -0.0315589727,
				"z": 2.1285244383,
				"element": "H" 
			},
			{
				"x": -2.6104225299,
				"y": -0.5571570921,
				"z": 1.5379624152,
				"element": "H" 
			}
		],
		 "valence_orbital": [ 
			{
				"type": "occ",
				"energy": -0.27214,
				"method": "rhf"
			},
			{
				"type": "occ",
				"energy": -0.271,
				"method": "rhf"
			},
			{
				"type": "occ",
				"energy": -0.2539,
				"method": "rhf"
			},
			{
				"type": "occ",
				"energy": -0.23427,
				"method": "rhf"
			},
			{
				"type": "occ",
				"energy": -0.22065,
				"method": "rhf"
			},
			{
				"type": "unocc",
				"energy": 0.02842,
				"method": "rhf"
			},
			{
				"type": "unocc",
				"energy": 0.03172,
				"method": "rhf"
			},
			{
				"type": "unocc",
				"energy": 0.06379,
				"method": "rhf"
			},
			{
				"type": "unocc",
				"energy": 0.07912,
				"method": "rhf"
			},
			{
				"type": "unocc",
				"energy": 0.08265,
				"method": "rhf"
			}
		],
		"cosmo_sigma_profile": { 
			"-0.025": 0.0,
			"-0.024": 0.0,
			"-0.023": 0.0,
			"-0.022": 0.0,
			"-0.021": 0.0,
			"-0.02": 0.0,
			"-0.019": 0.0,
			"-0.018": 0.0,
			"-0.017": 0.0,
			"-0.016": 0.0,
			"-0.015": 0.375625789223,
			"-0.014": 1.18668540445,
			"-0.013": 0.798375071246,
			"-0.012": 0.745513699306,
			"-0.011": 0.698055632447,
			"-0.01": 1.1157555024,
			"-0.009": 0.734687184543,
			"-0.008": 1.3553634346,
			"-0.007": 0.816428100753,
			"-0.006": 0.505504209709,
			"-0.005": 1.10384496195,
			"-0.004": 3.25915699598,
			"-0.003": 25.4670989623,
			"-0.002": 91.5389676682,
			"-0.001": 108.450437645,
			"0.0": 97.1485546507,
			"0.001": 76.2422402182,
			"0.002": 51.3432494047,
			"0.003": 13.1029894254,
			"0.004": 7.8355847906,
			"0.005": 6.3987232256,
			"0.006": 4.01397351656,
			"0.007": 2.94669946168,
			"0.008": 2.06997788707,
			"0.009": 1.40838900765,
			"0.01": 1.2594712522,
			"0.011": 1.99100441981,
			"0.012": 1.42462574627,
			"0.013": 1.5537319388,
			"0.014": 1.97725578928,
			"0.015": 1.07580577119,
			"0.016": 0.0,
			"0.017": 0.0,
			"0.018": 0.0,
			"0.019": 0.0,
			"0.02": 0.0,
			"0.021": 0.0,
			"0.022": 0.0,
			"0.023": 0.0,
			"0.024": 0.0,
			"0.025": 0.0
		}
	}
}
