{
	 "smiles": "ClC1=CC=CC=C1COC(=O)ON1C(=O)CCC1=O", 
	 "Tm": 377.15, 
	 "num_atms": 29, 
	 "gaussian": { 
		 "optdone": 1, 
		 "sigma_profile": "yes", 
		 "theory": "DFT", 
		 "functional": "B3LYP", 
		 "basiset": "6-31G**", 
		 "properties": { 
			 "R2extent": 7388.6701, 
			 "electric_dipole_moment_norm": 3.10276943552, 
			 "electric_quadrupole_moment_norm": 24.0213841325, 
			 "total_energy": -1354.342085, 
			 "HOMO_LUMO_gap": 0.22201, 
			 "cosmo_polarized_energy": -17.47, 
			 "cosmo_cavitation_energy": 36.97, 
			 "cosmo_dispersion_energy": -25.77, 
			 "cosmo_repulsion_energy": 2.03, 
			 "cosmo_total_nonelectrostatic_energy": 13.23, 
			 "SMD_solvation_energy": 9.3 
		},
		"coords": [
			{
				"x": 3.4812278452,
				"y": 0.6016610389,
				"z": 3.9400455408,
				"element": "Cl" 
			},
			{
				"x": 3.7603613642,
				"y": -0.0773618705,
				"z": 2.3398226228,
				"element": "C" 
			},
			{
				"x": 4.6573259796,
				"y": -1.1388074036,
				"z": 2.2283560741,
				"element": "C" 
			},
			{
				"x": 4.9011252595,
				"y": -1.7019706102,
				"z": 0.9759133402,
				"element": "C" 
			},
			{
				"x": 4.2518479022,
				"y": -1.2055353559,
				"z": -0.1546474564,
				"element": "C" 
			},
			{
				"x": 3.3596597723,
				"y": -0.1429267074,
				"z": -0.0277722132,
				"element": "C" 
			},
			{
				"x": 3.0967460447,
				"y": 0.4449785897,
				"z": 1.2183339734,
				"element": "C" 
			},
			{
				"x": 2.1268550004,
				"y": 1.5922524424,
				"z": 1.3133955266,
				"element": "C" 
			},
			{
				"x": 0.7966779993,
				"y": 1.1432023962,
				"z": 1.7189449529,
				"element": "O" 
			},
			{
				"x": -0.0011297811,
				"y": 0.7597956456,
				"z": 0.7338655411,
				"element": "C" 
			},
			{
				"x": 0.197325361,
				"y": 0.7563970327,
				"z": -0.4528432609,
				"element": "O" 
			},
			{
				"x": -1.1785876185,
				"y": 0.3503103432,
				"z": 1.3445142619,
				"element": "O" 
			},
			{
				"x": -2.1170558487,
				"y": -0.0460816126,
				"z": 0.422285558,
				"element": "N" 
			},
			{
				"x": -2.9779835294,
				"y": 0.877757413,
				"z": -0.181774706,
				"element": "C" 
			},
			{
				"x": -2.9916454598,
				"y": 2.0635232483,
				"z": 0.0396221913,
				"element": "O" 
			},
			{
				"x": -3.8456355912,
				"y": 0.0593664863,
				"z": -1.1318760521,
				"element": "C" 
			},
			{
				"x": -3.3208308092,
				"y": -1.3904025463,
				"z": -1.0463885139,
				"element": "C" 
			},
			{
				"x": -2.1660624313,
				"y": -1.3630606434,
				"z": -0.0503477645,
				"element": "C" 
			},
			{
				"x": -1.4290622705,
				"y": -2.2542255036,
				"z": 0.2922025741,
				"element": "O" 
			},
			{
				"x": 5.1543668055,
				"y": -1.5155653982,
				"z": 3.1152161737,
				"element": "H" 
			},
			{
				"x": 5.5989803259,
				"y": -2.5294562518,
				"z": 0.8897761361,
				"element": "H" 
			},
			{
				"x": 4.4369655562,
				"y": -1.6441492324,
				"z": -1.1300485027,
				"element": "H" 
			},
			{
				"x": 2.8373684503,
				"y": 0.2402451093,
				"z": -0.8986632521,
				"element": "H" 
			},
			{
				"x": 2.0388018926,
				"y": 2.1048779833,
				"z": 0.354766234,
				"element": "H" 
			},
			{
				"x": 2.4078492513,
				"y": 2.2995901378,
				"z": 2.0921426099,
				"element": "H" 
			},
			{
				"x": -3.7584445449,
				"y": 0.4900067722,
				"z": -2.1328039879,
				"element": "H" 
			},
			{
				"x": -4.890862584,
				"y": 0.1590597773,
				"z": -0.8261935333,
				"element": "H" 
			},
			{
				"x": -4.0723775598,
				"y": -2.1014516203,
				"z": -0.6921816575,
				"element": "H" 
			},
			{
				"x": -2.9422067818,
				"y": -1.7675296599,
				"z": -1.9999624104,
				"element": "H" 
			}
		],
		 "valence_orbital": [ 
			{
				"type": "occ",
				"energy": -0.29885,
				"method": "rhf"
			},
			{
				"type": "occ",
				"energy": -0.28958,
				"method": "rhf"
			},
			{
				"type": "occ",
				"energy": -0.26924,
				"method": "rhf"
			},
			{
				"type": "occ",
				"energy": -0.26674,
				"method": "rhf"
			},
			{
				"type": "occ",
				"energy": -0.2535,
				"method": "rhf"
			},
			{
				"type": "unocc",
				"energy": -0.03149,
				"method": "rhf"
			},
			{
				"type": "unocc",
				"energy": -0.02692,
				"method": "rhf"
			},
			{
				"type": "unocc",
				"energy": -0.01922,
				"method": "rhf"
			},
			{
				"type": "unocc",
				"energy": 0.01743,
				"method": "rhf"
			},
			{
				"type": "unocc",
				"energy": 0.01795,
				"method": "rhf"
			}
		],
		"cosmo_sigma_profile": { 
			"-0.025": 0.0,
			"-0.024": 0.0,
			"-0.023": 0.0,
			"-0.022": 0.0,
			"-0.021": 0.0,
			"-0.02": 0.0,
			"-0.019": 0.0,
			"-0.018": 0.0,
			"-0.017": 0.0,
			"-0.016": 0.0,
			"-0.015": 0.0,
			"-0.014": 0.0,
			"-0.013": 0.0,
			"-0.012": 0.0,
			"-0.011": 0.0,
			"-0.01": 0.0250999576967,
			"-0.009": 0.954629408597,
			"-0.008": 13.406089329,
			"-0.007": 23.2146031317,
			"-0.006": 21.988852972,
			"-0.005": 21.2440220773,
			"-0.004": 18.1519722874,
			"-0.003": 14.6330073681,
			"-0.002": 13.3924160278,
			"-0.001": 13.4292223947,
			"0.0": 13.8305828529,
			"0.001": 21.7073538168,
			"0.002": 22.6993887418,
			"0.003": 22.2266084684,
			"0.004": 19.7546417384,
			"0.005": 12.2094182082,
			"0.006": 8.07299452781,
			"0.007": 6.46922543984,
			"0.008": 4.08994930223,
			"0.009": 7.37076628295,
			"0.01": 8.06320729224,
			"0.011": 9.37781689029,
			"0.012": 1.86055486803,
			"0.013": 0.0,
			"0.014": 0.0,
			"0.015": 0.0,
			"0.016": 0.0,
			"0.017": 0.0,
			"0.018": 0.0,
			"0.019": 0.0,
			"0.02": 0.0,
			"0.021": 0.0,
			"0.022": 0.0,
			"0.023": 0.0,
			"0.024": 0.0,
			"0.025": 0.0
		}
	}
}
