{
	 "smiles": "CN(C)S(=O)N(C)C", 
	 "Tm": 304.15, 
	 "num_atms": 20, 
	 "gaussian": { 
		 "optdone": 1, 
		 "sigma_profile": "yes", 
		 "theory": "DFT", 
		 "functional": "B3LYP", 
		 "basiset": "6-31G**", 
		 "properties": { 
			 "R2extent": 1341.6732, 
			 "electric_dipole_moment_norm": 2.71082637032, 
			 "electric_quadrupole_moment_norm": 9.48922180529, 
			 "total_energy": -742.499939782, 
			 "HOMO_LUMO_gap": 0.24205, 
			 "cosmo_polarized_energy": -8.6, 
			 "cosmo_cavitation_energy": 23.22, 
			 "cosmo_dispersion_energy": -17.13, 
			 "cosmo_repulsion_energy": 1.37, 
			 "cosmo_total_nonelectrostatic_energy": 7.47, 
			 "SMD_solvation_energy": 3.72 
		},
		"coords": [
			{
				"x": 0.2896480317,
				"y": 1.7425280935,
				"z": -1.5461680319,
				"element": "C" 
			},
			{
				"x": -0.3385878368,
				"y": 1.2614467946,
				"z": -0.310964184,
				"element": "N" 
			},
			{
				"x": -1.1409817524,
				"y": 2.2819662542,
				"z": 0.3718114156,
				"element": "C" 
			},
			{
				"x": 0.7174809279,
				"y": 0.4495882912,
				"z": 0.7863217359,
				"element": "S" 
			},
			{
				"x": 2.0541345249,
				"y": 1.1151118686,
				"z": 0.8748488411,
				"element": "O" 
			},
			{
				"x": 0.9781855479,
				"y": -0.9244163726,
				"z": -0.2909097126,
				"element": "N" 
			},
			{
				"x": 2.258972692,
				"y": -1.5905554093,
				"z": -0.0476849013,
				"element": "C" 
			},
			{
				"x": -0.1616095801,
				"y": -1.8422416777,
				"z": -0.2722207968,
				"element": "C" 
			},
			{
				"x": 0.8736798114,
				"y": 0.9312723951,
				"z": -1.9822343602,
				"element": "H" 
			},
			{
				"x": 0.9423408788,
				"y": 2.6095237563,
				"z": -1.3741874588,
				"element": "H" 
			},
			{
				"x": -0.5014132456,
				"y": 2.0276293918,
				"z": -2.2471169995,
				"element": "H" 
			},
			{
				"x": -0.5769614009,
				"y": 3.2016183462,
				"z": 0.5892267335,
				"element": "H" 
			},
			{
				"x": -1.5291429031,
				"y": 1.8784551152,
				"z": 1.3113790882,
				"element": "H" 
			},
			{
				"x": -1.9926600082,
				"y": 2.5420280565,
				"z": -0.2648908709,
				"element": "H" 
			},
			{
				"x": 3.044106063,
				"y": -0.8389756701,
				"z": 0.0330163787,
				"element": "H" 
			},
			{
				"x": 2.4748631161,
				"y": -2.2357564401,
				"z": -0.9058530608,
				"element": "H" 
			},
			{
				"x": 2.2620275482,
				"y": -2.2154420731,
				"z": 0.8617696598,
				"element": "H" 
			},
			{
				"x": -1.0834404139,
				"y": -1.2797234391,
				"z": -0.432491086,
				"element": "H" 
			},
			{
				"x": -0.0486598118,
				"y": -2.5535145569,
				"z": -1.0970122538,
				"element": "H" 
			},
			{
				"x": -0.2461821892,
				"y": -2.4172427243,
				"z": 0.6652598638,
				"element": "H" 
			}
		],
		 "valence_orbital": [ 
			{
				"type": "occ",
				"energy": -0.36706,
				"method": "rhf"
			},
			{
				"type": "occ",
				"energy": -0.29571,
				"method": "rhf"
			},
			{
				"type": "occ",
				"energy": -0.26676,
				"method": "rhf"
			},
			{
				"type": "occ",
				"energy": -0.23998,
				"method": "rhf"
			},
			{
				"type": "occ",
				"energy": -0.21766,
				"method": "rhf"
			},
			{
				"type": "unocc",
				"energy": 0.02439,
				"method": "rhf"
			},
			{
				"type": "unocc",
				"energy": 0.05073,
				"method": "rhf"
			},
			{
				"type": "unocc",
				"energy": 0.08781,
				"method": "rhf"
			},
			{
				"type": "unocc",
				"energy": 0.09406,
				"method": "rhf"
			},
			{
				"type": "unocc",
				"energy": 0.1144,
				"method": "rhf"
			}
		],
		"cosmo_sigma_profile": { 
			"-0.025": 0.0,
			"-0.024": 0.0,
			"-0.023": 0.0,
			"-0.022": 0.0,
			"-0.021": 0.0,
			"-0.02": 0.0,
			"-0.019": 0.0,
			"-0.018": 0.0,
			"-0.017": 0.0,
			"-0.016": 0.0,
			"-0.015": 0.0,
			"-0.014": 0.0,
			"-0.013": 0.0,
			"-0.012": 0.0,
			"-0.011": 0.0,
			"-0.01": 0.0,
			"-0.009": 0.0,
			"-0.008": 0.0,
			"-0.007": 0.0,
			"-0.006": 0.758259998308,
			"-0.005": 10.9078357666,
			"-0.004": 19.4682575639,
			"-0.003": 28.9121947867,
			"-0.002": 31.8089737427,
			"-0.001": 30.4590599898,
			"0.0": 8.75623079534,
			"0.001": 6.24878922301,
			"0.002": 6.50561222733,
			"0.003": 4.51771200744,
			"0.004": 4.75260564297,
			"0.005": 4.59394822357,
			"0.006": 3.9381548098,
			"0.007": 4.01391608886,
			"0.008": 1.89265551434,
			"0.009": 1.21644802891,
			"0.01": 1.55857500038,
			"0.011": 1.09609433032,
			"0.012": 2.17623524108,
			"0.013": 4.28965436374,
			"0.014": 3.5164039749,
			"0.015": 0.526265463091,
			"0.016": 0.0,
			"0.017": 0.0,
			"0.018": 0.0,
			"0.019": 0.0,
			"0.02": 0.0,
			"0.021": 0.0,
			"0.022": 0.0,
			"0.023": 0.0,
			"0.024": 0.0,
			"0.025": 0.0
		}
	}
}
