{
	 "smiles": "O=C(C[N+]#N)C1=CC(=CC=C1)C(=O)C[N+]#N", 
	 "Tm": 400.15, 
	 "num_atms": 24, 
	 "gaussian": { 
		 "optdone": 1, 
		 "sigma_profile": "yes", 
		 "theory": "DFT", 
		 "functional": "B3LYP", 
		 "basiset": "6-31G**", 
		 "properties": { 
			 "R2extent": 5276.014, 
			 "electric_dipole_moment_norm": 6.11416317577, 
			 "electric_quadrupole_moment_norm": 114.086845276, 
			 "total_energy": -754.600667921, 
			 "HOMO_LUMO_gap": 0.15087, 
			 "cosmo_polarized_energy": -28.13, 
			 "cosmo_cavitation_energy": 31.74, 
			 "cosmo_dispersion_energy": -21.93, 
			 "cosmo_repulsion_energy": 1.72, 
			 "cosmo_total_nonelectrostatic_energy": 11.54, 
			 "SMD_solvation_energy": 2.11 
		},
		"coords": [
			{
				"x": -1.8981289149,
				"y": 2.2709068937,
				"z": -1.1063422299,
				"element": "O" 
			},
			{
				"x": -1.6102297223,
				"y": 1.2172333893,
				"z": -1.6110204225,
				"element": "C" 
			},
			{
				"x": -1.9590529894,
				"y": 1.0065844664,
				"z": -3.1589685912,
				"element": "C" 
			},
			{
				"x": -2.5808424391,
				"y": 2.2265418496,
				"z": -3.6036611272,
				"element": "N" 
			},
			{
				"x": -3.0381312489,
				"y": 3.2130668097,
				"z": -3.8010781063,
				"element": "N" 
			},
			{
				"x": -0.953078786,
				"y": 0.0790204886,
				"z": -0.9238060192,
				"element": "C" 
			},
			{
				"x": -0.648090805,
				"y": 0.2661124572,
				"z": 0.4318845321,
				"element": "C" 
			},
			{
				"x": -0.0257780395,
				"y": -0.7614847738,
				"z": 1.1548666848,
				"element": "C" 
			},
			{
				"x": 0.2894846319,
				"y": -1.9748856135,
				"z": 0.5169927222,
				"element": "C" 
			},
			{
				"x": -0.0146266926,
				"y": -2.1592713876,
				"z": -0.8313948089,
				"element": "C" 
			},
			{
				"x": -0.6334931638,
				"y": -1.138293847,
				"z": -1.5519927096,
				"element": "C" 
			},
			{
				"x": 0.2603769833,
				"y": -0.4783739297,
				"z": 2.5823103659,
				"element": "C" 
			},
			{
				"x": 0.0052882235,
				"y": 0.5457891639,
				"z": 3.1600906347,
				"element": "O" 
			},
			{
				"x": 0.9709773494,
				"y": -1.6497831726,
				"z": 3.4099933053,
				"element": "C" 
			},
			{
				"x": 1.1448068754,
				"y": -1.1513708351,
				"z": 4.7494000805,
				"element": "N" 
			},
			{
				"x": 1.2114442151,
				"y": -0.6399676127,
				"z": 5.7268166246,
				"element": "N" 
			},
			{
				"x": -1.0738773599,
				"y": 0.8652835993,
				"z": -3.7899846032,
				"element": "H" 
			},
			{
				"x": -2.6883374685,
				"y": 0.2076815761,
				"z": -3.3367084825,
				"element": "H" 
			},
			{
				"x": -0.8929145671,
				"y": 1.2035254187,
				"z": 0.9201385993,
				"element": "H" 
			},
			{
				"x": 0.7715363369,
				"y": -2.7903245117,
				"z": 1.0489150813,
				"element": "H" 
			},
			{
				"x": 0.2300557167,
				"y": -3.0962303286,
				"z": -1.3194109426,
				"element": "H" 
			},
			{
				"x": -0.8564531429,
				"y": -1.3146759083,
				"z": -2.6005304439,
				"element": "H" 
			},
			{
				"x": 0.3594444522,
				"y": -2.555473659,
				"z": 3.4962604708,
				"element": "H" 
			},
			{
				"x": 1.9734205555,
				"y": -1.8974105329,
				"z": 3.0419293856,
				"element": "H" 
			}
		],
		 "valence_orbital": [ 
			{
				"type": "occ",
				"energy": -0.62747,
				"method": "rhf"
			},
			{
				"type": "occ",
				"energy": -0.55723,
				"method": "rhf"
			},
			{
				"type": "occ",
				"energy": -0.55349,
				"method": "rhf"
			},
			{
				"type": "occ",
				"energy": -0.54043,
				"method": "rhf"
			},
			{
				"type": "occ",
				"energy": -0.52829,
				"method": "rhf"
			},
			{
				"type": "unocc",
				"energy": -0.37742,
				"method": "rhf"
			},
			{
				"type": "unocc",
				"energy": -0.37454,
				"method": "rhf"
			},
			{
				"type": "unocc",
				"energy": -0.37155,
				"method": "rhf"
			},
			{
				"type": "unocc",
				"energy": -0.37086,
				"method": "rhf"
			},
			{
				"type": "unocc",
				"energy": -0.34492,
				"method": "rhf"
			}
		],
		"cosmo_sigma_profile": { 
			"-0.025": 0.0,
			"-0.024": 0.0,
			"-0.023": 0.0,
			"-0.022": 0.0,
			"-0.021": 0.0,
			"-0.02": 0.0,
			"-0.019": 0.0,
			"-0.018": 0.0,
			"-0.017": 0.0,
			"-0.016": 0.0,
			"-0.015": 0.0,
			"-0.014": 0.0,
			"-0.013": 1.09436648503,
			"-0.012": 10.3513354594,
			"-0.011": 10.5218927553,
			"-0.01": 10.3897374447,
			"-0.009": 11.5316899529,
			"-0.008": 9.23702241287,
			"-0.007": 7.68827928714,
			"-0.006": 6.3708900713,
			"-0.005": 8.26417137144,
			"-0.004": 8.59168303266,
			"-0.003": 7.64827477593,
			"-0.002": 10.2373729531,
			"-0.001": 10.9555600242,
			"0.0": 10.0886658773,
			"0.001": 13.2297307285,
			"0.002": 12.5342597676,
			"0.003": 15.6247290355,
			"0.004": 16.9282363697,
			"0.005": 16.6692713927,
			"0.006": 11.5286866851,
			"0.007": 8.4701212476,
			"0.008": 8.74240262041,
			"0.009": 8.47107907497,
			"0.01": 4.36575373231,
			"0.011": 4.1542755266,
			"0.012": 5.57758991401,
			"0.013": 6.4806082185,
			"0.014": 0.284043891336,
			"0.015": 0.0,
			"0.016": 0.0,
			"0.017": 0.0,
			"0.018": 0.0,
			"0.019": 0.0,
			"0.02": 0.0,
			"0.021": 0.0,
			"0.022": 0.0,
			"0.023": 0.0,
			"0.024": 0.0,
			"0.025": 0.0
		}
	}
}
