{
	 "smiles": "CC(C)C[C@@H]1OC[C@H](C)CO1", 
	 "Tm": 252.15, 
	 "num_atms": 29, 
	 "gaussian": { 
		 "optdone": 1, 
		 "sigma_profile": "yes", 
		 "theory": "DFT", 
		 "functional": "B3LYP", 
		 "basiset": "6-31G**", 
		 "properties": { 
			 "R2extent": 2301.4811, 
			 "electric_dipole_moment_norm": 1.93495513385, 
			 "electric_quadrupole_moment_norm": 4.64568708804, 
			 "total_energy": -504.259350451, 
			 "HOMO_LUMO_gap": 0.33598, 
			 "cosmo_polarized_energy": -5.51, 
			 "cosmo_cavitation_energy": 28.79, 
			 "cosmo_dispersion_energy": -20.6, 
			 "cosmo_repulsion_energy": 1.67, 
			 "cosmo_total_nonelectrostatic_energy": 9.86, 
			 "SMD_solvation_energy": 4.76 
		},
		"coords": [
			{
				"x": -1.8591368487,
				"y": 0.477639561,
				"z": -0.6412875355,
				"element": "C" 
			},
			{
				"x": -1.0214770915,
				"y": 1.3226388938,
				"z": 0.3311598581,
				"element": "C" 
			},
			{
				"x": -1.7439608296,
				"y": 2.6398545618,
				"z": 0.6552658683,
				"element": "C" 
			},
			{
				"x": -0.686400991,
				"y": 0.5735912296,
				"z": 1.6392921646,
				"element": "C" 
			},
			{
				"x": 0.413363232,
				"y": -0.4784366564,
				"z": 1.564775804,
				"element": "C" 
			},
			{
				"x": 1.5903573617,
				"y": 0.1263852655,
				"z": 1.064494816,
				"element": "O" 
			},
			{
				"x": 2.6798633886,
				"y": -0.7932403981,
				"z": 1.0196392671,
				"element": "C" 
			},
			{
				"x": 2.3312127859,
				"y": -2.0169314482,
				"z": 0.1570654049,
				"element": "C" 
			},
			{
				"x": 2.2421561445,
				"y": -1.6639312419,
				"z": -1.332518644,
				"element": "C" 
			},
			{
				"x": 1.0083576901,
				"y": -2.5814090219,
				"z": 0.6998656602,
				"element": "C" 
			},
			{
				"x": 0.005226953,
				"y": -1.568255081,
				"z": 0.7593983559,
				"element": "O" 
			},
			{
				"x": -2.0541514629,
				"y": 1.0318025314,
				"z": -1.5666232434,
				"element": "H" 
			},
			{
				"x": -1.3568575897,
				"y": -0.4579290751,
				"z": -0.8925318321,
				"element": "H" 
			},
			{
				"x": -2.8305534292,
				"y": 0.2258141268,
				"z": -0.196642852,
				"element": "H" 
			},
			{
				"x": -0.0691551058,
				"y": 1.5694068847,
				"z": -0.1541644821,
				"element": "H" 
			},
			{
				"x": -1.9842972757,
				"y": 3.1919623711,
				"z": -0.2598969385,
				"element": "H" 
			},
			{
				"x": -2.6873504481,
				"y": 2.4521566262,
				"z": 1.1835958245,
				"element": "H" 
			},
			{
				"x": -1.1312846571,
				"y": 3.2910328005,
				"z": 1.2886632596,
				"element": "H" 
			},
			{
				"x": -1.5855249789,
				"y": 0.0892097899,
				"z": 2.0405331012,
				"element": "H" 
			},
			{
				"x": -0.3541925031,
				"y": 1.2989306494,
				"z": 2.3917210485,
				"element": "H" 
			},
			{
				"x": 0.6294104068,
				"y": -0.8680747411,
				"z": 2.5808564127,
				"element": "H" 
			},
			{
				"x": 2.9348958034,
				"y": -1.1150740957,
				"z": 2.0438583928,
				"element": "H" 
			},
			{
				"x": 3.5328968398,
				"y": -0.2409892493,
				"z": 0.6143334504,
				"element": "H" 
			},
			{
				"x": 3.1126153658,
				"y": -2.7754605622,
				"z": 0.306419221,
				"element": "H" 
			},
			{
				"x": 3.1985053266,
				"y": -1.2786136822,
				"z": -1.7022650777,
				"element": "H" 
			},
			{
				"x": 1.4803800115,
				"y": -0.8990812455,
				"z": -1.5011508338,
				"element": "H" 
			},
			{
				"x": 1.981018453,
				"y": -2.5434933856,
				"z": -1.9308074374,
				"element": "H" 
			},
			{
				"x": 1.1655429265,
				"y": -3.0038770039,
				"z": 1.7071313545,
				"element": "H" 
			},
			{
				"x": 0.6101405224,
				"y": -3.3722284036,
				"z": 0.0574196122,
				"element": "H" 
			}
		],
		 "valence_orbital": [ 
			{
				"type": "occ",
				"energy": -0.31484,
				"method": "rhf"
			},
			{
				"type": "occ",
				"energy": -0.30557,
				"method": "rhf"
			},
			{
				"type": "occ",
				"energy": -0.30081,
				"method": "rhf"
			},
			{
				"type": "occ",
				"energy": -0.26404,
				"method": "rhf"
			},
			{
				"type": "occ",
				"energy": -0.25555,
				"method": "rhf"
			},
			{
				"type": "unocc",
				"energy": 0.08043,
				"method": "rhf"
			},
			{
				"type": "unocc",
				"energy": 0.09759,
				"method": "rhf"
			},
			{
				"type": "unocc",
				"energy": 0.11332,
				"method": "rhf"
			},
			{
				"type": "unocc",
				"energy": 0.11829,
				"method": "rhf"
			},
			{
				"type": "unocc",
				"energy": 0.12793,
				"method": "rhf"
			}
		],
		"cosmo_sigma_profile": { 
			"-0.025": 0.0,
			"-0.024": 0.0,
			"-0.023": 0.0,
			"-0.022": 0.0,
			"-0.021": 0.0,
			"-0.02": 0.0,
			"-0.019": 0.0,
			"-0.018": 0.0,
			"-0.017": 0.0,
			"-0.016": 0.0,
			"-0.015": 0.0,
			"-0.014": 0.0,
			"-0.013": 0.0,
			"-0.012": 0.0,
			"-0.011": 0.0,
			"-0.01": 0.0,
			"-0.009": 0.0,
			"-0.008": 0.0,
			"-0.007": 0.0,
			"-0.006": 0.0,
			"-0.005": 2.8958881497,
			"-0.004": 18.7041023371,
			"-0.003": 32.755388336,
			"-0.002": 32.7307494407,
			"-0.001": 28.3584801029,
			"0.0": 25.0498901709,
			"0.001": 27.758385758,
			"0.002": 19.0979385889,
			"0.003": 6.04099619261,
			"0.004": 4.70167455437,
			"0.005": 4.74195828138,
			"0.006": 4.59741738626,
			"0.007": 3.3281207348,
			"0.008": 2.31882570356,
			"0.009": 2.38840396069,
			"0.01": 1.95937119006,
			"0.011": 1.94475511843,
			"0.012": 1.49826978195,
			"0.013": 0.333331268478,
			"0.014": 0.0,
			"0.015": 0.0,
			"0.016": 0.0,
			"0.017": 0.0,
			"0.018": 0.0,
			"0.019": 0.0,
			"0.02": 0.0,
			"0.021": 0.0,
			"0.022": 0.0,
			"0.023": 0.0,
			"0.024": 0.0,
			"0.025": 0.0
		}
	}
}
