{
	 "smiles": "CCNC(C(O)=O)C1=CC(F)=C(F)C=C1", 
	 "Tm": 551.15, 
	 "num_atms": 26, 
	 "gaussian": { 
		 "optdone": 1, 
		 "sigma_profile": "yes", 
		 "theory": "DFT", 
		 "functional": "B3LYP", 
		 "basiset": "6-31G**", 
		 "properties": { 
			 "R2extent": 3886.3747, 
			 "electric_dipole_moment_norm": 2.63151593383, 
			 "electric_quadrupole_moment_norm": 13.4802336719, 
			 "total_energy": -792.559390777, 
			 "HOMO_LUMO_gap": 0.1973, 
			 "cosmo_polarized_energy": -12.61, 
			 "cosmo_cavitation_energy": 30.81, 
			 "cosmo_dispersion_energy": -21.21, 
			 "cosmo_repulsion_energy": 1.65, 
			 "cosmo_total_nonelectrostatic_energy": 11.24, 
			 "SMD_solvation_energy": 6.34 
		},
		"coords": [
			{
				"x": 3.5912983425,
				"y": 0.8889574392,
				"z": -0.2150214659,
				"element": "C" 
			},
			{
				"x": 2.5111017267,
				"y": 1.4423166902,
				"z": 0.7266247083,
				"element": "C" 
			},
			{
				"x": 1.6532400338,
				"y": 0.4497073716,
				"z": 1.3765039662,
				"element": "N" 
			},
			{
				"x": 0.7327556079,
				"y": -0.2641877991,
				"z": 0.5147761438,
				"element": "C" 
			},
			{
				"x": 0.4366834891,
				"y": -1.635953314,
				"z": 1.1732122855,
				"element": "C" 
			},
			{
				"x": -0.6892271601,
				"y": -2.2607167726,
				"z": 0.7817170783,
				"element": "O" 
			},
			{
				"x": 1.1995651888,
				"y": -2.1557155556,
				"z": 1.9517006624,
				"element": "O" 
			},
			{
				"x": -0.5371944984,
				"y": 0.5346495421,
				"z": 0.2314163968,
				"element": "C" 
			},
			{
				"x": -1.1653580973,
				"y": 0.4453230993,
				"z": -1.0205357897,
				"element": "C" 
			},
			{
				"x": -2.3468040609,
				"y": 1.1391164747,
				"z": -1.2565226817,
				"element": "C" 
			},
			{
				"x": -2.9486170308,
				"y": 1.0657255364,
				"z": -2.4544704508,
				"element": "F" 
			},
			{
				"x": -2.9127207072,
				"y": 1.9283852105,
				"z": -0.2572393146,
				"element": "C" 
			},
			{
				"x": -4.0505894988,
				"y": 2.5921030403,
				"z": -0.5144288066,
				"element": "F" 
			},
			{
				"x": -2.2957810389,
				"y": 2.0309521459,
				"z": 0.9841562108,
				"element": "C" 
			},
			{
				"x": -1.111940479,
				"y": 1.3353951464,
				"z": 1.2271878289,
				"element": "C" 
			},
			{
				"x": 4.1892839288,
				"y": 1.7047804894,
				"z": -0.6354279897,
				"element": "H" 
			},
			{
				"x": 3.1631035327,
				"y": 0.3321235631,
				"z": -1.0554833391,
				"element": "H" 
			},
			{
				"x": 4.2701730759,
				"y": 0.2164002387,
				"z": 0.3207963965,
				"element": "H" 
			},
			{
				"x": 2.990509943,
				"y": 2.0244191995,
				"z": 1.5222226691,
				"element": "H" 
			},
			{
				"x": 1.8650531987,
				"y": 2.1435320344,
				"z": 0.1845290355,
				"element": "H" 
			},
			{
				"x": 2.1941977415,
				"y": -0.234713107,
				"z": 1.8998472942,
				"element": "H" 
			},
			{
				"x": 1.1698817882,
				"y": -0.5378669177,
				"z": -0.4668282741,
				"element": "H" 
			},
			{
				"x": -1.2226142195,
				"y": -1.6620392142,
				"z": 0.233406471,
				"element": "H" 
			},
			{
				"x": -0.7355186633,
				"y": -0.134532829,
				"z": -1.833041698,
				"element": "H" 
			},
			{
				"x": -2.7537246022,
				"y": 2.6561571228,
				"z": 1.7434328615,
				"element": "H" 
			},
			{
				"x": -0.606257541,
				"y": 1.4164811646,
				"z": 2.1828698012,
				"element": "H" 
			}
		],
		 "valence_orbital": [ 
			{
				"type": "occ",
				"energy": -0.32432,
				"method": "rhf"
			},
			{
				"type": "occ",
				"energy": -0.29384,
				"method": "rhf"
			},
			{
				"type": "occ",
				"energy": -0.27619,
				"method": "rhf"
			},
			{
				"type": "occ",
				"energy": -0.25668,
				"method": "rhf"
			},
			{
				"type": "occ",
				"energy": -0.23269,
				"method": "rhf"
			},
			{
				"type": "unocc",
				"energy": -0.03539,
				"method": "rhf"
			},
			{
				"type": "unocc",
				"energy": -0.02397,
				"method": "rhf"
			},
			{
				"type": "unocc",
				"energy": 0.00308,
				"method": "rhf"
			},
			{
				"type": "unocc",
				"energy": 0.06033,
				"method": "rhf"
			},
			{
				"type": "unocc",
				"energy": 0.07726,
				"method": "rhf"
			}
		],
		"cosmo_sigma_profile": { 
			"-0.025": 0.0,
			"-0.024": 0.0,
			"-0.023": 0.0,
			"-0.022": 0.0,
			"-0.021": 0.0,
			"-0.02": 0.0,
			"-0.019": 0.0,
			"-0.018": 0.0,
			"-0.017": 0.0,
			"-0.016": 0.0,
			"-0.015": 0.0829534440622,
			"-0.014": 0.669977770102,
			"-0.013": 0.802099154908,
			"-0.012": 1.9702847562,
			"-0.011": 1.90212128784,
			"-0.01": 1.53754343754,
			"-0.009": 2.8953975068,
			"-0.008": 6.15683336978,
			"-0.007": 6.3001228508,
			"-0.006": 8.40700503599,
			"-0.005": 9.30353052009,
			"-0.004": 10.6702509104,
			"-0.003": 19.2314290335,
			"-0.002": 21.6870339746,
			"-0.001": 25.1053045172,
			"0.0": 22.3224891128,
			"0.001": 20.6194982511,
			"0.002": 14.0041455678,
			"0.003": 20.2579209687,
			"0.004": 18.1584290453,
			"0.005": 3.22904262507,
			"0.006": 3.49844715911,
			"0.007": 3.82066671438,
			"0.008": 3.47777746821,
			"0.009": 5.03572806606,
			"0.01": 5.65553316886,
			"0.011": 4.62934664027,
			"0.012": 2.64500981184,
			"0.013": 0.3883880026,
			"0.014": 0.0,
			"0.015": 0.0,
			"0.016": 0.0,
			"0.017": 0.0,
			"0.018": 0.0,
			"0.019": 0.0,
			"0.02": 0.0,
			"0.021": 0.0,
			"0.022": 0.0,
			"0.023": 0.0,
			"0.024": 0.0,
			"0.025": 0.0
		}
	}
}
