{
	 "smiles": "ClCC(=O)NC(=O)NC1=CC=CC=C1", 
	 "Tm": 435.15, 
	 "num_atms": 23, 
	 "gaussian": { 
		 "optdone": 1, 
		 "sigma_profile": "yes", 
		 "theory": "DFT", 
		 "functional": "B3LYP", 
		 "basiset": "6-31G**", 
		 "properties": { 
			 "R2extent": 3629.7027, 
			 "electric_dipole_moment_norm": 4.86015307681, 
			 "electric_quadrupole_moment_norm": 12.9044058166, 
			 "total_energy": -1068.5448974, 
			 "HOMO_LUMO_gap": 0.20534, 
			 "cosmo_polarized_energy": -17.6, 
			 "cosmo_cavitation_energy": 29.36, 
			 "cosmo_dispersion_energy": -20.77, 
			 "cosmo_repulsion_energy": 1.68, 
			 "cosmo_total_nonelectrostatic_energy": 10.27, 
			 "SMD_solvation_energy": 6.68 
		},
		"coords": [
			{
				"x": 1.9173016999,
				"y": 3.6752450849,
				"z": -1.0162271554,
				"element": "Cl" 
			},
			{
				"x": 1.1433851448,
				"y": 2.3466666222,
				"z": -0.1002839432,
				"element": "C" 
			},
			{
				"x": 2.1730037635,
				"y": 1.366255963,
				"z": 0.4597461604,
				"element": "C" 
			},
			{
				"x": 3.336153136,
				"y": 1.3424635303,
				"z": 0.1235028877,
				"element": "O" 
			},
			{
				"x": 1.7241783433,
				"y": 0.4596582927,
				"z": 1.4354230024,
				"element": "N" 
			},
			{
				"x": 0.5421637282,
				"y": 0.3909355906,
				"z": 2.2051896141,
				"element": "C" 
			},
			{
				"x": 0.5972130084,
				"y": 0.2293093983,
				"z": 3.4115318445,
				"element": "O" 
			},
			{
				"x": -0.6616290987,
				"y": 0.5197843259,
				"z": 1.5361545853,
				"element": "N" 
			},
			{
				"x": -1.0421766096,
				"y": 0.0470158392,
				"z": 0.2476054182,
				"element": "C" 
			},
			{
				"x": -0.3328089419,
				"y": -0.9488153016,
				"z": -0.4377995555,
				"element": "C" 
			},
			{
				"x": -0.7780673789,
				"y": -1.3764527307,
				"z": -1.6890044853,
				"element": "C" 
			},
			{
				"x": -1.936883207,
				"y": -0.8441167797,
				"z": -2.2563193442,
				"element": "C" 
			},
			{
				"x": -2.6520314566,
				"y": 0.1336839496,
				"z": -1.5625613107,
				"element": "C" 
			},
			{
				"x": -2.2044412906,
				"y": 0.5857084511,
				"z": -0.3224429727,
				"element": "C" 
			},
			{
				"x": 0.5494282624,
				"y": 2.7871293591,
				"z": 0.7011932217,
				"element": "H" 
			},
			{
				"x": 0.4668947807,
				"y": 1.8270076333,
				"z": -0.7799988604,
				"element": "H" 
			},
			{
				"x": 2.5102442464,
				"y": 0.0496436786,
				"z": 1.9293201061,
				"element": "H" 
			},
			{
				"x": -1.4199873503,
				"y": 0.6049997499,
				"z": 2.2023116731,
				"element": "H" 
			},
			{
				"x": 0.5560834574,
				"y": -1.3858178429,
				"z": 0.0013562758,
				"element": "H" 
			},
			{
				"x": -0.2184563466,
				"y": -2.1448536447,
				"z": -2.2139779833,
				"element": "H" 
			},
			{
				"x": -2.2794999857,
				"y": -1.1885459926,
				"z": -3.2268607024,
				"element": "H" 
			},
			{
				"x": -3.5562458736,
				"y": 0.5566372229,
				"z": -1.98991314,
				"element": "H" 
			},
			{
				"x": -2.7496220314,
				"y": 1.3610576007,
				"z": 0.2089546638,
				"element": "H" 
			}
		],
		 "valence_orbital": [ 
			{
				"type": "occ",
				"energy": -0.30211,
				"method": "rhf"
			},
			{
				"type": "occ",
				"energy": -0.28657,
				"method": "rhf"
			},
			{
				"type": "occ",
				"energy": -0.27424,
				"method": "rhf"
			},
			{
				"type": "occ",
				"energy": -0.27372,
				"method": "rhf"
			},
			{
				"type": "occ",
				"energy": -0.24622,
				"method": "rhf"
			},
			{
				"type": "unocc",
				"energy": -0.04088,
				"method": "rhf"
			},
			{
				"type": "unocc",
				"energy": -0.02599,
				"method": "rhf"
			},
			{
				"type": "unocc",
				"energy": -0.01216,
				"method": "rhf"
			},
			{
				"type": "unocc",
				"energy": 0.02078,
				"method": "rhf"
			},
			{
				"type": "unocc",
				"energy": 0.0317,
				"method": "rhf"
			}
		],
		"cosmo_sigma_profile": { 
			"-0.025": 0.0,
			"-0.024": 0.0,
			"-0.023": 0.0,
			"-0.022": 0.0,
			"-0.021": 0.0,
			"-0.02": 0.0,
			"-0.019": 0.0,
			"-0.018": 0.0,
			"-0.017": 0.0,
			"-0.016": 0.103504774949,
			"-0.015": 1.65666160161,
			"-0.014": 1.47435708429,
			"-0.013": 2.63999383855,
			"-0.012": 1.27419160174,
			"-0.011": 1.95790515366,
			"-0.01": 3.34533310611,
			"-0.009": 3.24974318885,
			"-0.008": 4.06799819587,
			"-0.007": 6.48917773985,
			"-0.006": 15.9629011174,
			"-0.005": 16.2318808544,
			"-0.004": 18.001035,
			"-0.003": 16.4400573061,
			"-0.002": 14.3598444006,
			"-0.001": 12.5522989632,
			"0.0": 10.6210171305,
			"0.001": 11.0787727313,
			"0.002": 12.5369410393,
			"0.003": 13.3837569309,
			"0.004": 13.5645976692,
			"0.005": 14.4228625536,
			"0.006": 7.54059087658,
			"0.007": 2.97947090238,
			"0.008": 2.90930859612,
			"0.009": 3.45097728255,
			"0.01": 5.49895969428,
			"0.011": 7.55536417416,
			"0.012": 8.67756322,
			"0.013": 2.42304667096,
			"0.014": 0.0,
			"0.015": 0.0,
			"0.016": 0.0,
			"0.017": 0.0,
			"0.018": 0.0,
			"0.019": 0.0,
			"0.02": 0.0,
			"0.021": 0.0,
			"0.022": 0.0,
			"0.023": 0.0,
			"0.024": 0.0,
			"0.025": 0.0
		}
	}
}
