{
	 "smiles": "CC1=CC=C(S1)C1=C(C)SC(N)=N1", 
	 "Tm": 401.15, 
	 "num_atms": 23, 
	 "gaussian": { 
		 "optdone": 1, 
		 "sigma_profile": "yes", 
		 "theory": "DFT", 
		 "functional": "B3LYP", 
		 "basiset": "6-31G**", 
		 "properties": { 
			 "R2extent": 3889.4118, 
			 "electric_dipole_moment_norm": 1.29369509159, 
			 "electric_quadrupole_moment_norm": 16.1353551916, 
			 "total_energy": -1254.86154731, 
			 "HOMO_LUMO_gap": 0.16153, 
			 "cosmo_polarized_energy": -12.07, 
			 "cosmo_cavitation_energy": 29.74, 
			 "cosmo_dispersion_energy": -22.92, 
			 "cosmo_repulsion_energy": 1.74, 
			 "cosmo_total_nonelectrostatic_energy": 8.56, 
			 "SMD_solvation_energy": 3.19 
		},
		"coords": [
			{
				"x": 2.6109713531,
				"y": -0.4400877911,
				"z": -3.589213524,
				"element": "C" 
			},
			{
				"x": 1.8970337055,
				"y": -0.4917447609,
				"z": -2.2714124463,
				"element": "C" 
			},
			{
				"x": 1.6125766738,
				"y": -1.5916582737,
				"z": -1.5046658692,
				"element": "C" 
			},
			{
				"x": 0.9271316359,
				"y": -1.2850712552,
				"z": -0.2935100305,
				"element": "C" 
			},
			{
				"x": 0.6767532609,
				"y": 0.0597201185,
				"z": -0.1325274389,
				"element": "C" 
			},
			{
				"x": 1.3184325555,
				"y": 0.9616917223,
				"z": -1.4958470358,
				"element": "S" 
			},
			{
				"x": 0.0041430431,
				"y": 0.7879926686,
				"z": 0.9364739031,
				"element": "C" 
			},
			{
				"x": -0.8510525661,
				"y": 0.2649631441,
				"z": 1.8783808965,
				"element": "C" 
			},
			{
				"x": -1.3610299185,
				"y": -1.1316084365,
				"z": 2.0593415977,
				"element": "C" 
			},
			{
				"x": -1.3838836873,
				"y": 1.5591057494,
				"z": 2.9474304551,
				"element": "S" 
			},
			{
				"x": -0.4394920858,
				"y": 2.6984418427,
				"z": 1.9827338901,
				"element": "C" 
			},
			{
				"x": -0.3534692772,
				"y": 4.0288459944,
				"z": 2.3342716142,
				"element": "N" 
			},
			{
				"x": 0.2113187943,
				"y": 2.1629758413,
				"z": 0.997641866,
				"element": "N" 
			},
			{
				"x": 2.9005538437,
				"y": -1.4498639837,
				"z": -3.893690904,
				"element": "H" 
			},
			{
				"x": 3.5211317192,
				"y": 0.1688388821,
				"z": -3.5387048927,
				"element": "H" 
			},
			{
				"x": 1.9809920655,
				"y": -0.0190404699,
				"z": -4.3814753154,
				"element": "H" 
			},
			{
				"x": 1.8968198702,
				"y": -2.5983441321,
				"z": -1.7937906402,
				"element": "H" 
			},
			{
				"x": 0.663694011,
				"y": -2.0332906419,
				"z": 0.4429683396,
				"element": "H" 
			},
			{
				"x": -2.3356205078,
				"y": -1.1388402562,
				"z": 2.5564998671,
				"element": "H" 
			},
			{
				"x": -1.4787867397,
				"y": -1.6190605874,
				"z": 1.086414043,
				"element": "H" 
			},
			{
				"x": -0.6827685535,
				"y": -1.7499552903,
				"z": 2.6619379603,
				"element": "H" 
			},
			{
				"x": -1.188707646,
				"y": 4.4481643656,
				"z": 2.7187059712,
				"element": "H" 
			},
			{
				"x": 0.0845584504,
				"y": 4.5889255499,
				"z": 1.6136376931,
				"element": "H" 
			}
		],
		 "valence_orbital": [ 
			{
				"type": "occ",
				"energy": -0.27519,
				"method": "rhf"
			},
			{
				"type": "occ",
				"energy": -0.26935,
				"method": "rhf"
			},
			{
				"type": "occ",
				"energy": -0.23806,
				"method": "rhf"
			},
			{
				"type": "occ",
				"energy": -0.23061,
				"method": "rhf"
			},
			{
				"type": "occ",
				"energy": -0.18682,
				"method": "rhf"
			},
			{
				"type": "unocc",
				"energy": -0.02529,
				"method": "rhf"
			},
			{
				"type": "unocc",
				"energy": 0.00515,
				"method": "rhf"
			},
			{
				"type": "unocc",
				"energy": 0.01392,
				"method": "rhf"
			},
			{
				"type": "unocc",
				"energy": 0.04919,
				"method": "rhf"
			},
			{
				"type": "unocc",
				"energy": 0.06572,
				"method": "rhf"
			}
		],
		"cosmo_sigma_profile": { 
			"-0.025": 0.0,
			"-0.024": 0.0,
			"-0.023": 0.0,
			"-0.022": 0.0,
			"-0.021": 0.0,
			"-0.02": 0.0,
			"-0.019": 0.0,
			"-0.018": 0.0,
			"-0.017": 0.0,
			"-0.016": 0.0,
			"-0.015": 0.205154904487,
			"-0.014": 1.72714271622,
			"-0.013": 2.76551544843,
			"-0.012": 2.25255519627,
			"-0.011": 2.81973748537,
			"-0.01": 2.32499132256,
			"-0.009": 2.01470846268,
			"-0.008": 2.09393973359,
			"-0.007": 1.86812294925,
			"-0.006": 4.91843186061,
			"-0.005": 13.9214538505,
			"-0.004": 19.0830771619,
			"-0.003": 19.3071032195,
			"-0.002": 19.1363361053,
			"-0.001": 19.9752034563,
			"0.0": 15.5747819755,
			"0.001": 12.8437734569,
			"0.002": 14.7778088706,
			"0.003": 16.5804470611,
			"0.004": 21.5798880518,
			"0.005": 19.3255854724,
			"0.006": 10.8697289952,
			"0.007": 3.17730097251,
			"0.008": 2.7974884045,
			"0.009": 2.18819622482,
			"0.01": 2.11884196223,
			"0.011": 2.15845466453,
			"0.012": 1.26846688779,
			"0.013": 0.999118986054,
			"0.014": 0.11605843419,
			"0.015": 0.0,
			"0.016": 0.0,
			"0.017": 0.0,
			"0.018": 0.0,
			"0.019": 0.0,
			"0.02": 0.0,
			"0.021": 0.0,
			"0.022": 0.0,
			"0.023": 0.0,
			"0.024": 0.0,
			"0.025": 0.0
		}
	}
}
