{
	 "smiles": "COC1=C(Br)C=CC(=C1)S(Cl)(=O)=O", 
	 "Tm": 339.15, 
	 "num_atms": 19, 
	 "gaussian": { 
		 "optdone": 1, 
		 "sigma_profile": "yes", 
		 "theory": "DFT", 
		 "functional": "B3LYP", 
		 "basiset": "6-31G**", 
		 "properties": { 
			 "R2extent": 5176.9932, 
			 "electric_dipole_moment_norm": 3.87096920809, 
			 "electric_quadrupole_moment_norm": 17.7325616776, 
			 "total_energy": -3925.73098929, 
			 "HOMO_LUMO_gap": 0.16132, 
			 "cosmo_polarized_energy": -10.27, 
			 "cosmo_cavitation_energy": 29.35, 
			 "cosmo_dispersion_energy": -22.13, 
			 "cosmo_repulsion_energy": 1.73, 
			 "cosmo_total_nonelectrostatic_energy": 8.95, 
			 "SMD_solvation_energy": 3.49 
		},
		"coords": [
			{
				"x": 0.5072311264,
				"y": 3.3065969303,
				"z": -0.097110429,
				"element": "C" 
			},
			{
				"x": 0.9556822347,
				"y": 2.3343470562,
				"z": 0.8438330754,
				"element": "O" 
			},
			{
				"x": 0.4432752138,
				"y": 1.0877470928,
				"z": 0.7798510789,
				"element": "C" 
			},
			{
				"x": 0.9068922119,
				"y": 0.1484934765,
				"z": 1.728049856,
				"element": "C" 
			},
			{
				"x": 2.1926334829,
				"y": 0.6833666628,
				"z": 3.0159595124,
				"element": "Br" 
			},
			{
				"x": 0.4412574617,
				"y": -1.162227197,
				"z": 1.7324675384,
				"element": "C" 
			},
			{
				"x": -0.5050489969,
				"y": -1.5817275113,
				"z": 0.7964490246,
				"element": "C" 
			},
			{
				"x": -0.9545647623,
				"y": -0.6479858263,
				"z": -0.1308118775,
				"element": "C" 
			},
			{
				"x": -0.5044475114,
				"y": 0.6728784944,
				"z": -0.1617003782,
				"element": "C" 
			},
			{
				"x": -2.1566438084,
				"y": -1.1518387901,
				"z": -1.3518023877,
				"element": "S" 
			},
			{
				"x": -3.9889018923,
				"y": -0.7082797271,
				"z": -0.3479582465,
				"element": "Cl" 
			},
			{
				"x": -2.1174151362,
				"y": -2.6004845081,
				"z": -1.5023662942,
				"element": "O" 
			},
			{
				"x": -2.0949032596,
				"y": -0.2456449598,
				"z": -2.4925114188,
				"element": "O" 
			},
			{
				"x": 1.0476474632,
				"y": 4.2211288595,
				"z": 0.1465017418,
				"element": "H" 
			},
			{
				"x": 0.7431917692,
				"y": 3.0059299973,
				"z": -1.1246434472,
				"element": "H" 
			},
			{
				"x": -0.5707066238,
				"y": 3.4838304098,
				"z": -0.0044713812,
				"element": "H" 
			},
			{
				"x": 0.8241609464,
				"y": -1.8569314194,
				"z": 2.4709275213,
				"element": "H" 
			},
			{
				"x": -0.8711270576,
				"y": -2.6011046216,
				"z": 0.7838696409,
				"element": "H" 
			},
			{
				"x": -0.8829128617,
				"y": 1.348705581,
				"z": -0.9171331294,
				"element": "H" 
			}
		],
		 "valence_orbital": [ 
			{
				"type": "occ",
				"energy": -0.32613,
				"method": "rhf"
			},
			{
				"type": "occ",
				"energy": -0.31567,
				"method": "rhf"
			},
			{
				"type": "occ",
				"energy": -0.30141,
				"method": "rhf"
			},
			{
				"type": "occ",
				"energy": -0.28051,
				"method": "rhf"
			},
			{
				"type": "occ",
				"energy": -0.25513,
				"method": "rhf"
			},
			{
				"type": "unocc",
				"energy": -0.09381,
				"method": "rhf"
			},
			{
				"type": "unocc",
				"energy": -0.04951,
				"method": "rhf"
			},
			{
				"type": "unocc",
				"energy": -0.03205,
				"method": "rhf"
			},
			{
				"type": "unocc",
				"energy": -0.01029,
				"method": "rhf"
			},
			{
				"type": "unocc",
				"energy": 0.05209,
				"method": "rhf"
			}
		],
		"cosmo_sigma_profile": { 
			"-0.025": 0.0,
			"-0.024": 0.0,
			"-0.023": 0.0,
			"-0.022": 0.0,
			"-0.021": 0.0,
			"-0.02": 0.0,
			"-0.019": 0.0,
			"-0.018": 0.0,
			"-0.017": 0.0,
			"-0.016": 0.0,
			"-0.015": 0.0,
			"-0.014": 0.0,
			"-0.013": 0.0,
			"-0.012": 0.0,
			"-0.011": 0.0,
			"-0.01": 0.0,
			"-0.009": 2.30145870714,
			"-0.008": 6.96618521503,
			"-0.007": 10.559902848,
			"-0.006": 13.4901574611,
			"-0.005": 12.9921453517,
			"-0.004": 14.9826063268,
			"-0.003": 12.2250060528,
			"-0.002": 12.4484398638,
			"-0.001": 23.1610537547,
			"0.0": 23.8494814129,
			"0.001": 18.1883725,
			"0.002": 14.6056512434,
			"0.003": 23.3235729926,
			"0.004": 17.1759489059,
			"0.005": 5.37921897216,
			"0.006": 5.10637968629,
			"0.007": 7.9789662704,
			"0.008": 11.5840950806,
			"0.009": 5.21560494642,
			"0.01": 0.0181083242857,
			"0.011": 0.0,
			"0.012": 0.0,
			"0.013": 0.0,
			"0.014": 0.0,
			"0.015": 0.0,
			"0.016": 0.0,
			"0.017": 0.0,
			"0.018": 0.0,
			"0.019": 0.0,
			"0.02": 0.0,
			"0.021": 0.0,
			"0.022": 0.0,
			"0.023": 0.0,
			"0.024": 0.0,
			"0.025": 0.0
		}
	}
}
