{
	 "smiles": "OC(=O)CNS(=O)(=O)C1=CC=C(F)C=C1", 
	 "Tm": 420.15, 
	 "num_atms": 23, 
	 "gaussian": { 
		 "optdone": 1, 
		 "sigma_profile": "yes", 
		 "theory": "DFT", 
		 "functional": "B3LYP", 
		 "basiset": "6-31G**", 
		 "properties": { 
			 "R2extent": 4285.956, 
			 "electric_dipole_moment_norm": 2.84782649928, 
			 "electric_quadrupole_moment_norm": 20.6086770199, 
			 "total_energy": -1163.27456783, 
			 "HOMO_LUMO_gap": 0.21432, 
			 "cosmo_polarized_energy": -21.29, 
			 "cosmo_cavitation_energy": 30.01, 
			 "cosmo_dispersion_energy": -21.25, 
			 "cosmo_repulsion_energy": 1.61, 
			 "cosmo_total_nonelectrostatic_energy": 10.37, 
			 "SMD_solvation_energy": 6.04 
		},
		"coords": [
			{
				"x": -1.6489314864,
				"y": 0.585310183,
				"z": -0.912734577,
				"element": "O" 
			},
			{
				"x": -2.3859487983,
				"y": 1.4891211587,
				"z": -0.2449461222,
				"element": "C" 
			},
			{
				"x": -3.0039649866,
				"y": 2.3687149709,
				"z": -0.7906850649,
				"element": "O" 
			},
			{
				"x": -2.4014603133,
				"y": 1.3179311821,
				"z": 1.2818738343,
				"element": "C" 
			},
			{
				"x": -1.5122464367,
				"y": 0.2381271118,
				"z": 1.7407582233,
				"element": "N" 
			},
			{
				"x": -0.0897441031,
				"y": 0.6590544669,
				"z": 2.6163653028,
				"element": "S" 
			},
			{
				"x": 0.1326781092,
				"y": -0.493470512,
				"z": 3.4915200208,
				"element": "O" 
			},
			{
				"x": -0.2311912516,
				"y": 2.0227951914,
				"z": 3.1326038605,
				"element": "O" 
			},
			{
				"x": 1.1743709379,
				"y": 0.6833790695,
				"z": 1.3537450261,
				"element": "C" 
			},
			{
				"x": 1.5327747621,
				"y": 1.8992642701,
				"z": 0.7656371328,
				"element": "C" 
			},
			{
				"x": 2.5120921405,
				"y": 1.9139480549,
				"z": -0.2249426451,
				"element": "C" 
			},
			{
				"x": 3.1074027805,
				"y": 0.7113096693,
				"z": -0.5944452427,
				"element": "C" 
			},
			{
				"x": 4.052230611,
				"y": 0.7231079094,
				"z": -1.5471587529,
				"element": "F" 
			},
			{
				"x": 2.7663016039,
				"y": -0.5050719988,
				"z": -0.0060123398,
				"element": "C" 
			},
			{
				"x": 1.7869000058,
				"y": -0.5181193909,
				"z": 0.9825612762,
				"element": "C" 
			},
			{
				"x": -1.2612298451,
				"y": -0.0130924149,
				"z": -0.2442596585,
				"element": "H" 
			},
			{
				"x": -2.1355838835,
				"y": 2.2741848945,
				"z": 1.7416502958,
				"element": "H" 
			},
			{
				"x": -3.430540516,
				"y": 1.0998132168,
				"z": 1.5807074728,
				"element": "H" 
			},
			{
				"x": -1.9732273539,
				"y": -0.4795679344,
				"z": 2.2951335088,
				"element": "H" 
			},
			{
				"x": 1.0618331303,
				"y": 2.8195845236,
				"z": 1.0921184728,
				"element": "H" 
			},
			{
				"x": 2.8191886086,
				"y": 2.8353853255,
				"z": -0.706383775,
				"element": "H" 
			},
			{
				"x": 3.2705294677,
				"y": -1.4121004029,
				"z": -0.3198071055,
				"element": "H" 
			},
			{
				"x": 1.5116668169,
				"y": -1.4434085447,
				"z": 1.4768008567,
				"element": "H" 
			}
		],
		 "valence_orbital": [ 
			{
				"type": "occ",
				"energy": -0.32244,
				"method": "rhf"
			},
			{
				"type": "occ",
				"energy": -0.31634,
				"method": "rhf"
			},
			{
				"type": "occ",
				"energy": -0.29519,
				"method": "rhf"
			},
			{
				"type": "occ",
				"energy": -0.28171,
				"method": "rhf"
			},
			{
				"type": "occ",
				"energy": -0.26889,
				"method": "rhf"
			},
			{
				"type": "unocc",
				"energy": -0.05457,
				"method": "rhf"
			},
			{
				"type": "unocc",
				"energy": -0.04509,
				"method": "rhf"
			},
			{
				"type": "unocc",
				"energy": 0.00382,
				"method": "rhf"
			},
			{
				"type": "unocc",
				"energy": 0.03015,
				"method": "rhf"
			},
			{
				"type": "unocc",
				"energy": 0.05169,
				"method": "rhf"
			}
		],
		"cosmo_sigma_profile": { 
			"-0.025": 0.0,
			"-0.024": 0.0,
			"-0.023": 0.0,
			"-0.022": 0.0,
			"-0.021": 0.0,
			"-0.02": 0.0,
			"-0.019": 0.0,
			"-0.018": 0.0,
			"-0.017": 0.0,
			"-0.016": 0.763909947045,
			"-0.015": 1.29825277999,
			"-0.014": 1.55782951347,
			"-0.013": 1.48883951083,
			"-0.012": 1.29781615112,
			"-0.011": 2.05428220097,
			"-0.01": 4.00250301154,
			"-0.009": 7.61035282444,
			"-0.008": 10.7145149416,
			"-0.007": 12.4583922486,
			"-0.006": 13.642977458,
			"-0.005": 11.4818906998,
			"-0.004": 11.17839868,
			"-0.003": 9.75012910042,
			"-0.002": 11.76851019,
			"-0.001": 15.978915891,
			"0.0": 17.7910891431,
			"0.001": 16.107035907,
			"0.002": 8.69420128993,
			"0.003": 12.5210822094,
			"0.004": 9.02967997897,
			"0.005": 4.69548990448,
			"0.006": 5.57757749345,
			"0.007": 3.82394570615,
			"0.008": 5.75993085834,
			"0.009": 9.94418304833,
			"0.01": 13.0840307117,
			"0.011": 8.69569289076,
			"0.012": 5.56418946329,
			"0.013": 2.06840632828,
			"0.014": 0.0690077507834,
			"0.015": 0.0,
			"0.016": 0.0,
			"0.017": 0.0,
			"0.018": 0.0,
			"0.019": 0.0,
			"0.02": 0.0,
			"0.021": 0.0,
			"0.022": 0.0,
			"0.023": 0.0,
			"0.024": 0.0,
			"0.025": 0.0
		}
	}
}
