{
	 "smiles": "O=CC1=CC=C(C=C1)C1=CC=CC=C1", 
	 "Tm": 332.65, 
	 "num_atms": 24, 
	 "gaussian": { 
		 "optdone": 1, 
		 "sigma_profile": "yes", 
		 "theory": "DFT", 
		 "functional": "B3LYP", 
		 "basiset": "6-31G**", 
		 "properties": { 
			 "R2extent": 3843.4746, 
			 "electric_dipole_moment_norm": 3.8295768291, 
			 "electric_quadrupole_moment_norm": 17.4009476877, 
			 "total_energy": -576.634721541, 
			 "HOMO_LUMO_gap": 0.16784, 
			 "cosmo_polarized_energy": -9.0, 
			 "cosmo_cavitation_energy": 28.55, 
			 "cosmo_dispersion_energy": -20.76, 
			 "cosmo_repulsion_energy": 1.6, 
			 "cosmo_total_nonelectrostatic_energy": 9.39, 
			 "SMD_solvation_energy": 5.71 
		},
		"coords": [
			{
				"x": 0.9535764836,
				"y": 1.4406442791,
				"z": 4.7633626768,
				"element": "O" 
			},
			{
				"x": 1.1514241873,
				"y": 1.7871406397,
				"z": 3.6134806156,
				"element": "C" 
			},
			{
				"x": 0.8493507484,
				"y": 0.965386847,
				"z": 2.4226089747,
				"element": "C" 
			},
			{
				"x": 1.114229861,
				"y": 1.4609573736,
				"z": 1.1395127784,
				"element": "C" 
			},
			{
				"x": 0.8329334655,
				"y": 0.6917768864,
				"z": 0.0149184794,
				"element": "C" 
			},
			{
				"x": 0.2767559056,
				"y": -0.5937124684,
				"z": 0.1439119562,
				"element": "C" 
			},
			{
				"x": 0.0133237465,
				"y": -1.0816953619,
				"z": 1.4404401633,
				"element": "C" 
			},
			{
				"x": 0.2950080486,
				"y": -0.316342719,
				"z": 2.5630917749,
				"element": "C" 
			},
			{
				"x": -0.0251171005,
				"y": -1.4158942992,
				"z": -1.0539070742,
				"element": "C" 
			},
			{
				"x": -0.5189712924,
				"y": -0.8241649625,
				"z": -2.2294959348,
				"element": "C" 
			},
			{
				"x": -0.8025999644,
				"y": -1.5968473661,
				"z": -3.3543789218,
				"element": "C" 
			},
			{
				"x": -0.5965847264,
				"y": -2.9775828752,
				"z": -3.3289634476,
				"element": "C" 
			},
			{
				"x": -0.1057587587,
				"y": -3.5792443749,
				"z": -2.1685447769,
				"element": "C" 
			},
			{
				"x": 0.1757414273,
				"y": -2.8071445402,
				"z": -1.0427013573,
				"element": "C" 
			},
			{
				"x": 1.5896731686,
				"y": 2.7852081427,
				"z": 3.3864502702,
				"element": "H" 
			},
			{
				"x": 1.551914564,
				"y": 2.4503944507,
				"z": 1.0264260256,
				"element": "H" 
			},
			{
				"x": 1.0688132222,
				"y": 1.0748025942,
				"z": -0.9730029129,
				"element": "H" 
			},
			{
				"x": -0.4410791462,
				"y": -2.0607619455,
				"z": 1.557239812,
				"element": "H" 
			},
			{
				"x": 0.0865656342,
				"y": -0.683309556,
				"z": 3.5632202738,
				"element": "H" 
			},
			{
				"x": -0.7082323383,
				"y": 0.2449521534,
				"z": -2.2510752889,
				"element": "H" 
			},
			{
				"x": -1.1928664277,
				"y": -1.1206533591,
				"z": -4.2492998715,
				"element": "H" 
			},
			{
				"x": -0.8169744777,
				"y": -3.5794907768,
				"z": -4.2056843514,
				"element": "H" 
			},
			{
				"x": 0.0658698068,
				"y": -4.6515013475,
				"z": -2.1416076722,
				"element": "H" 
			},
			{
				"x": 0.5816039628,
				"y": -3.2817174146,
				"z": -0.1543021916,
				"element": "H" 
			}
		],
		 "valence_orbital": [ 
			{
				"type": "occ",
				"energy": -0.28381,
				"method": "rhf"
			},
			{
				"type": "occ",
				"energy": -0.26577,
				"method": "rhf"
			},
			{
				"type": "occ",
				"energy": -0.25936,
				"method": "rhf"
			},
			{
				"type": "occ",
				"energy": -0.25272,
				"method": "rhf"
			},
			{
				"type": "occ",
				"energy": -0.23618,
				"method": "rhf"
			},
			{
				"type": "unocc",
				"energy": -0.06834,
				"method": "rhf"
			},
			{
				"type": "unocc",
				"energy": -0.01619,
				"method": "rhf"
			},
			{
				"type": "unocc",
				"energy": -0.00982,
				"method": "rhf"
			},
			{
				"type": "unocc",
				"energy": -0.00831,
				"method": "rhf"
			},
			{
				"type": "unocc",
				"energy": 0.04983,
				"method": "rhf"
			}
		],
		"cosmo_sigma_profile": { 
			"-0.025": 0.0,
			"-0.024": 0.0,
			"-0.023": 0.0,
			"-0.022": 0.0,
			"-0.021": 0.0,
			"-0.02": 0.0,
			"-0.019": 0.0,
			"-0.018": 0.0,
			"-0.017": 0.0,
			"-0.016": 0.0,
			"-0.015": 0.0,
			"-0.014": 0.0,
			"-0.013": 0.0,
			"-0.012": 0.0,
			"-0.011": 0.0,
			"-0.01": 0.0,
			"-0.009": 0.0,
			"-0.008": 0.54235048548,
			"-0.007": 4.92637166853,
			"-0.006": 17.9853577545,
			"-0.005": 20.983754269,
			"-0.004": 20.7775241323,
			"-0.003": 17.7628779317,
			"-0.002": 14.4240656316,
			"-0.001": 13.2465926864,
			"0.0": 13.4630648498,
			"0.001": 18.0580090806,
			"0.002": 18.6888148223,
			"0.003": 22.8568996822,
			"0.004": 14.0854296192,
			"0.005": 11.9627919168,
			"0.006": 3.55603673894,
			"0.007": 1.23331468238,
			"0.008": 2.12828474294,
			"0.009": 2.03685780694,
			"0.01": 2.53641975097,
			"0.011": 3.62520110746,
			"0.012": 3.57887582252,
			"0.013": 1.07778797953,
			"0.014": 0.0351473519903,
			"0.015": 0.0,
			"0.016": 0.0,
			"0.017": 0.0,
			"0.018": 0.0,
			"0.019": 0.0,
			"0.02": 0.0,
			"0.021": 0.0,
			"0.022": 0.0,
			"0.023": 0.0,
			"0.024": 0.0,
			"0.025": 0.0
		}
	}
}
