{
	 "smiles": "CCC(=O)NC1=CC(Cl)=C(Cl)C=C1", 
	 "Tm": 365.15, 
	 "num_atms": 22, 
	 "gaussian": { 
		 "optdone": 1, 
		 "sigma_profile": "yes", 
		 "theory": "DFT", 
		 "functional": "B3LYP", 
		 "basiset": "6-31G**", 
		 "properties": { 
			 "R2extent": 4578.0238, 
			 "electric_dipole_moment_norm": 1.45159260469, 
			 "electric_quadrupole_moment_norm": 20.0164076255, 
			 "total_energy": -1398.75706389, 
			 "HOMO_LUMO_gap": 0.2021, 
			 "cosmo_polarized_energy": -11.71, 
			 "cosmo_cavitation_energy": 29.68, 
			 "cosmo_dispersion_energy": -21.42, 
			 "cosmo_repulsion_energy": 1.72, 
			 "cosmo_total_nonelectrostatic_energy": 9.98, 
			 "SMD_solvation_energy": 5.23 
		},
		"coords": [
			{
				"x": -1.4823200903,
				"y": -0.4974744243,
				"z": 3.036416079,
				"element": "C" 
			},
			{
				"x": -1.5685085713,
				"y": 0.0841397691,
				"z": 1.6171882387,
				"element": "C" 
			},
			{
				"x": -1.6901142122,
				"y": -1.014470578,
				"z": 0.5708693864,
				"element": "C" 
			},
			{
				"x": -2.6450470645,
				"y": -1.7771280667,
				"z": 0.5577548629,
				"element": "O" 
			},
			{
				"x": -0.7271926722,
				"y": -1.1250900859,
				"z": -0.4244019833,
				"element": "N" 
			},
			{
				"x": 0.5115606223,
				"y": -0.4787858293,
				"z": -0.6127476033,
				"element": "C" 
			},
			{
				"x": 1.4032258368,
				"y": -0.2616538403,
				"z": 0.4447887316,
				"element": "C" 
			},
			{
				"x": 2.6277395595,
				"y": 0.3694262229,
				"z": 0.2197768485,
				"element": "C" 
			},
			{
				"x": 3.6879421069,
				"y": 0.627214453,
				"z": 1.5832220761,
				"element": "Cl" 
			},
			{
				"x": 2.9975387242,
				"y": 0.7549793746,
				"z": -1.0749243689,
				"element": "C" 
			},
			{
				"x": 4.5239442651,
				"y": 1.5347293639,
				"z": -1.4022022294,
				"element": "Cl" 
			},
			{
				"x": 2.121856664,
				"y": 0.5038874595,
				"z": -2.1345441137,
				"element": "C" 
			},
			{
				"x": 0.889582197,
				"y": -0.0969602148,
				"z": -1.908881887,
				"element": "C" 
			},
			{
				"x": -0.5497738517,
				"y": -1.0510991591,
				"z": 3.1923016579,
				"element": "H" 
			},
			{
				"x": -2.3140022474,
				"y": -1.1851935766,
				"z": 3.2075013156,
				"element": "H" 
			},
			{
				"x": -1.5270141501,
				"y": 0.3003012731,
				"z": 3.7829727449,
				"element": "H" 
			},
			{
				"x": -0.7380124044,
				"y": 0.76327664,
				"z": 1.4147869365,
				"element": "H" 
			},
			{
				"x": -2.4930324801,
				"y": 0.665347549,
				"z": 1.5260524827,
				"element": "H" 
			},
			{
				"x": -1.0067942309,
				"y": -1.7898199992,
				"z": -1.1364988105,
				"element": "H" 
			},
			{
				"x": 1.1664477805,
				"y": -0.6029823655,
				"z": 1.4446811673,
				"element": "H" 
			},
			{
				"x": 2.4108451325,
				"y": 0.8005264572,
				"z": -3.136612169,
				"element": "H" 
			},
			{
				"x": 0.2084290864,
				"y": -0.2618704225,
				"z": -2.7379993629,
				"element": "H" 
			}
		],
		 "valence_orbital": [ 
			{
				"type": "occ",
				"energy": -0.31675,
				"method": "rhf"
			},
			{
				"type": "occ",
				"energy": -0.2962,
				"method": "rhf"
			},
			{
				"type": "occ",
				"energy": -0.27032,
				"method": "rhf"
			},
			{
				"type": "occ",
				"energy": -0.26033,
				"method": "rhf"
			},
			{
				"type": "occ",
				"energy": -0.23922,
				"method": "rhf"
			},
			{
				"type": "unocc",
				"energy": -0.03712,
				"method": "rhf"
			},
			{
				"type": "unocc",
				"energy": -0.03622,
				"method": "rhf"
			},
			{
				"type": "unocc",
				"energy": -0.00606,
				"method": "rhf"
			},
			{
				"type": "unocc",
				"energy": 0.01837,
				"method": "rhf"
			},
			{
				"type": "unocc",
				"energy": 0.05287,
				"method": "rhf"
			}
		],
		"cosmo_sigma_profile": { 
			"-0.025": 0.0,
			"-0.024": 0.0,
			"-0.023": 0.0,
			"-0.022": 0.0,
			"-0.021": 0.0,
			"-0.02": 0.0,
			"-0.019": 0.0,
			"-0.018": 0.0,
			"-0.017": 0.0,
			"-0.016": 0.0,
			"-0.015": 0.220824359313,
			"-0.014": 1.11597575482,
			"-0.013": 0.934462522848,
			"-0.012": 1.32762571332,
			"-0.011": 1.25924021288,
			"-0.01": 0.924978959593,
			"-0.009": 1.78475280961,
			"-0.008": 5.35255548369,
			"-0.007": 7.30270591549,
			"-0.006": 6.79017838175,
			"-0.005": 9.60349391551,
			"-0.004": 11.8774117921,
			"-0.003": 17.7347709361,
			"-0.002": 20.9686726793,
			"-0.001": 20.1741010042,
			"0.0": 26.7059091374,
			"0.001": 28.8331342705,
			"0.002": 18.7205665374,
			"0.003": 15.4059445025,
			"0.004": 17.6298891263,
			"0.005": 6.58785261848,
			"0.006": 2.37243928126,
			"0.007": 0.837929923043,
			"0.008": 1.35391289091,
			"0.009": 1.4513737294,
			"0.01": 1.6917308497,
			"0.011": 1.20102763942,
			"0.012": 2.34516483115,
			"0.013": 5.22026115004,
			"0.014": 2.87711734689,
			"0.015": 0.159495350942,
			"0.016": 0.0,
			"0.017": 0.0,
			"0.018": 0.0,
			"0.019": 0.0,
			"0.02": 0.0,
			"0.021": 0.0,
			"0.022": 0.0,
			"0.023": 0.0,
			"0.024": 0.0,
			"0.025": 0.0
		}
	}
}
