{
	 "smiles": "CC1=NN(C(F)F)C(C)=C1CC(O)=O", 
	 "Tm": 447.15, 
	 "num_atms": 24, 
	 "gaussian": { 
		 "optdone": 1, 
		 "sigma_profile": "yes", 
		 "theory": "DFT", 
		 "functional": "B3LYP", 
		 "basiset": "6-31G**", 
		 "properties": { 
			 "R2extent": 3655.4063, 
			 "electric_dipole_moment_norm": 2.66314149831, 
			 "electric_quadrupole_moment_norm": 6.11421745034, 
			 "total_energy": -770.516302577, 
			 "HOMO_LUMO_gap": 0.24258, 
			 "cosmo_polarized_energy": -13.14, 
			 "cosmo_cavitation_energy": 29.0, 
			 "cosmo_dispersion_energy": -20.26, 
			 "cosmo_repulsion_energy": 1.58, 
			 "cosmo_total_nonelectrostatic_energy": 10.33, 
			 "SMD_solvation_energy": 5.92 
		},
		"coords": [
			{
				"x": 2.3529634853,
				"y": 0.930977612,
				"z": -1.3004979739,
				"element": "C" 
			},
			{
				"x": 1.7253471341,
				"y": 0.3220037719,
				"z": -0.0859541863,
				"element": "C" 
			},
			{
				"x": 1.9716411618,
				"y": -0.9365266121,
				"z": 0.2444573069,
				"element": "N" 
			},
			{
				"x": 1.2339015351,
				"y": -1.1496429571,
				"z": 1.3742472376,
				"element": "N" 
			},
			{
				"x": 1.3159662649,
				"y": -2.421154608,
				"z": 1.9996511214,
				"element": "C" 
			},
			{
				"x": 0.0743641561,
				"y": -2.962879947,
				"z": 2.1517691286,
				"element": "F" 
			},
			{
				"x": 1.8382736559,
				"y": -2.3135396998,
				"z": 3.257150355,
				"element": "F" 
			},
			{
				"x": 0.5270598853,
				"y": -0.0397698281,
				"z": 1.7702570085,
				"element": "C" 
			},
			{
				"x": -0.3577479276,
				"y": -0.0401111159,
				"z": 2.9761361624,
				"element": "C" 
			},
			{
				"x": 0.8238202267,
				"y": 0.9366942119,
				"z": 0.8389212998,
				"element": "C" 
			},
			{
				"x": 0.3209489734,
				"y": 2.3465043923,
				"z": 0.8128940476,
				"element": "C" 
			},
			{
				"x": -0.6744677337,
				"y": 2.6410525622,
				"z": -0.3006700325,
				"element": "C" 
			},
			{
				"x": -1.3372557334,
				"y": 3.7986426833,
				"z": -0.0584262981,
				"element": "O" 
			},
			{
				"x": -0.8591378811,
				"y": 1.9802585904,
				"z": -1.2972580996,
				"element": "O" 
			},
			{
				"x": 2.941347621,
				"y": 1.8202021816,
				"z": -1.0433452893,
				"element": "H" 
			},
			{
				"x": 3.0168046863,
				"y": 0.207410967,
				"z": -1.777931542,
				"element": "H" 
			},
			{
				"x": 1.5836255369,
				"y": 1.2369628983,
				"z": -2.0157830706,
				"element": "H" 
			},
			{
				"x": 1.9433942239,
				"y": -3.0705712325,
				"z": 1.3872188429,
				"element": "H" 
			},
			{
				"x": -1.2336863429,
				"y": -0.6793762796,
				"z": 2.8249214041,
				"element": "H" 
			},
			{
				"x": 0.1737835673,
				"y": -0.4164779173,
				"z": 3.8549158989,
				"element": "H" 
			},
			{
				"x": -0.7075538436,
				"y": 0.9713038241,
				"z": 3.1927455122,
				"element": "H" 
			},
			{
				"x": 1.1495050239,
				"y": 3.0553646297,
				"z": 0.6719580354,
				"element": "H" 
			},
			{
				"x": -0.1423438719,
				"y": 2.6292637066,
				"z": 1.7628062727,
				"element": "H" 
			},
			{
				"x": -1.9222538036,
				"y": 3.940208166,
				"z": -0.8218831413,
				"element": "H" 
			}
		],
		 "valence_orbital": [ 
			{
				"type": "occ",
				"energy": -0.3255,
				"method": "rhf"
			},
			{
				"type": "occ",
				"energy": -0.29234,
				"method": "rhf"
			},
			{
				"type": "occ",
				"energy": -0.28361,
				"method": "rhf"
			},
			{
				"type": "occ",
				"energy": -0.24972,
				"method": "rhf"
			},
			{
				"type": "occ",
				"energy": -0.24213,
				"method": "rhf"
			},
			{
				"type": "unocc",
				"energy": 0.00045,
				"method": "rhf"
			},
			{
				"type": "unocc",
				"energy": 0.00644,
				"method": "rhf"
			},
			{
				"type": "unocc",
				"energy": 0.05884,
				"method": "rhf"
			},
			{
				"type": "unocc",
				"energy": 0.07246,
				"method": "rhf"
			},
			{
				"type": "unocc",
				"energy": 0.08665,
				"method": "rhf"
			}
		],
		"cosmo_sigma_profile": { 
			"-0.025": 0.0,
			"-0.024": 0.0,
			"-0.023": 0.0,
			"-0.022": 0.0,
			"-0.021": 0.0,
			"-0.02": 0.0,
			"-0.019": 0.0730270570981,
			"-0.018": 0.667049975783,
			"-0.017": 1.10709875102,
			"-0.016": 0.832744673494,
			"-0.015": 0.509349898903,
			"-0.014": 0.773819432392,
			"-0.013": 0.617649882616,
			"-0.012": 0.543869264029,
			"-0.011": 1.4486066619,
			"-0.01": 2.87831741373,
			"-0.009": 1.81971277412,
			"-0.008": 3.48705957263,
			"-0.007": 7.47818793063,
			"-0.006": 8.15891849828,
			"-0.005": 12.1227815811,
			"-0.004": 14.2129662988,
			"-0.003": 16.3262140595,
			"-0.002": 19.4162637917,
			"-0.001": 19.3907831449,
			"0.0": 17.036392734,
			"0.001": 14.5658000747,
			"0.002": 11.5477438274,
			"0.003": 19.0534993748,
			"0.004": 18.034704509,
			"0.005": 4.69966966582,
			"0.006": 5.38050534779,
			"0.007": 4.7700641761,
			"0.008": 3.60898376785,
			"0.009": 4.62036418064,
			"0.01": 4.0909622362,
			"0.011": 4.95958253655,
			"0.012": 3.36263323124,
			"0.013": 0.771513800513,
			"0.014": 1.05763828602,
			"0.015": 0.170590097828,
			"0.016": 0.0,
			"0.017": 0.0,
			"0.018": 0.0,
			"0.019": 0.0,
			"0.02": 0.0,
			"0.021": 0.0,
			"0.022": 0.0,
			"0.023": 0.0,
			"0.024": 0.0,
			"0.025": 0.0
		}
	}
}
