{
	 "smiles": "CC1(NC(=O)NC1=O)C1=C(F)C=CC(F)=C1", 
	 "Tm": 501.15, 
	 "num_atms": 24, 
	 "gaussian": { 
		 "optdone": 1, 
		 "sigma_profile": "yes", 
		 "theory": "DFT", 
		 "functional": "B3LYP", 
		 "basiset": "6-31G**", 
		 "properties": { 
			 "R2extent": 3676.0091, 
			 "electric_dipole_moment_norm": 2.6230108044, 
			 "electric_quadrupole_moment_norm": 16.5031552935, 
			 "total_energy": -845.546915884, 
			 "HOMO_LUMO_gap": 0.21877, 
			 "cosmo_polarized_energy": -14.24, 
			 "cosmo_cavitation_energy": 29.08, 
			 "cosmo_dispersion_energy": -20.73, 
			 "cosmo_repulsion_energy": 1.57, 
			 "cosmo_total_nonelectrostatic_energy": 9.92, 
			 "SMD_solvation_energy": 7.03 
		},
		"coords": [
			{
				"x": 0.546272612,
				"y": 1.7008895277,
				"z": 0.8051274934,
				"element": "C" 
			},
			{
				"x": 0.1548136274,
				"y": 0.3534196453,
				"z": 0.1663277913,
				"element": "C" 
			},
			{
				"x": 1.3181260615,
				"y": -0.3768273749,
				"z": -0.3410918987,
				"element": "N" 
			},
			{
				"x": 1.4904389339,
				"y": -1.6144555762,
				"z": 0.2160164451,
				"element": "C" 
			},
			{
				"x": 2.3130139881,
				"y": -2.4647942285,
				"z": -0.0483801859,
				"element": "O" 
			},
			{
				"x": 0.4922958386,
				"y": -1.7119921277,
				"z": 1.215234398,
				"element": "N" 
			},
			{
				"x": -0.3287765199,
				"y": -0.6151991978,
				"z": 1.2777720243,
				"element": "C" 
			},
			{
				"x": -1.239704151,
				"y": -0.4223923782,
				"z": 2.0587047494,
				"element": "O" 
			},
			{
				"x": -0.9116883902,
				"y": 0.5644927566,
				"z": -0.9184737662,
				"element": "C" 
			},
			{
				"x": -0.5385485231,
				"y": 1.077077489,
				"z": -2.1654927716,
				"element": "C" 
			},
			{
				"x": 0.775685073,
				"y": 1.3667882787,
				"z": -2.3892117695,
				"element": "F" 
			},
			{
				"x": -1.4398892727,
				"y": 1.3135452446,
				"z": -3.1924092537,
				"element": "C" 
			},
			{
				"x": -2.7921109396,
				"y": 1.0440671525,
				"z": -2.9819784737,
				"element": "C" 
			},
			{
				"x": -3.1803465272,
				"y": 0.5510762849,
				"z": -1.7425280008,
				"element": "C" 
			},
			{
				"x": -4.4849812878,
				"y": 0.2941721811,
				"z": -1.5225763501,
				"element": "F" 
			},
			{
				"x": -2.2732845685,
				"y": 0.3120521439,
				"z": -0.7151831818,
				"element": "C" 
			},
			{
				"x": 0.9172850946,
				"y": 2.3836860713,
				"z": 0.0370959483,
				"element": "H" 
			},
			{
				"x": 1.3306754911,
				"y": 1.5517723445,
				"z": 1.5524304683,
				"element": "H" 
			},
			{
				"x": -0.3270099189,
				"y": 2.1442911257,
				"z": 1.289252565,
				"element": "H" 
			},
			{
				"x": 1.8078866365,
				"y": -0.1112535054,
				"z": -1.1806158401,
				"element": "H" 
			},
			{
				"x": 0.4211322721,
				"y": -2.5094674422,
				"z": 1.8309328416,
				"element": "H" 
			},
			{
				"x": -1.0779347484,
				"y": 1.7057947472,
				"z": -4.1362055652,
				"element": "H" 
			},
			{
				"x": -3.532592579,
				"y": 1.2141972971,
				"z": -3.7551062169,
				"element": "H" 
			},
			{
				"x": -2.6317582027,
				"y": -0.0561404591,
				"z": 0.2383585496,
				"element": "H" 
			}
		],
		 "valence_orbital": [ 
			{
				"type": "occ",
				"energy": -0.29525,
				"method": "rhf"
			},
			{
				"type": "occ",
				"energy": -0.28379,
				"method": "rhf"
			},
			{
				"type": "occ",
				"energy": -0.27223,
				"method": "rhf"
			},
			{
				"type": "occ",
				"energy": -0.26657,
				"method": "rhf"
			},
			{
				"type": "occ",
				"energy": -0.25376,
				"method": "rhf"
			},
			{
				"type": "unocc",
				"energy": -0.03499,
				"method": "rhf"
			},
			{
				"type": "unocc",
				"energy": -0.02184,
				"method": "rhf"
			},
			{
				"type": "unocc",
				"energy": -0.00835,
				"method": "rhf"
			},
			{
				"type": "unocc",
				"energy": 0.05642,
				"method": "rhf"
			},
			{
				"type": "unocc",
				"energy": 0.06796,
				"method": "rhf"
			}
		],
		"cosmo_sigma_profile": { 
			"-0.025": 0.0,
			"-0.024": 0.0,
			"-0.023": 0.0,
			"-0.022": 0.0,
			"-0.021": 0.0,
			"-0.02": 0.0,
			"-0.019": 0.0,
			"-0.018": 0.0,
			"-0.017": 0.820365573622,
			"-0.016": 1.36203597091,
			"-0.015": 0.925209520726,
			"-0.014": 1.37077487349,
			"-0.013": 1.02431104769,
			"-0.012": 1.44937267866,
			"-0.011": 1.86764817525,
			"-0.01": 1.88072794362,
			"-0.009": 1.24042474822,
			"-0.008": 5.58587803617,
			"-0.007": 5.99101629014,
			"-0.006": 7.41936256597,
			"-0.005": 11.7313146904,
			"-0.004": 13.4683903257,
			"-0.003": 17.2951530434,
			"-0.002": 20.1569107548,
			"-0.001": 19.8406092168,
			"0.0": 19.7509539898,
			"0.001": 21.5720640656,
			"0.002": 15.2118681489,
			"0.003": 11.9765748266,
			"0.004": 14.6209829926,
			"0.005": 3.41088075393,
			"0.006": 2.7119016017,
			"0.007": 2.46947993482,
			"0.008": 2.59213675623,
			"0.009": 2.36556291251,
			"0.01": 3.52256191526,
			"0.011": 5.96650401281,
			"0.012": 7.94834488504,
			"0.013": 4.93426966267,
			"0.014": 0.276458436879,
			"0.015": 0.0,
			"0.016": 0.0,
			"0.017": 0.0,
			"0.018": 0.0,
			"0.019": 0.0,
			"0.02": 0.0,
			"0.021": 0.0,
			"0.022": 0.0,
			"0.023": 0.0,
			"0.024": 0.0,
			"0.025": 0.0
		}
	}
}
