{
	 "smiles": "CC1=CC(=C(Br)C=C1)S(Cl)(=O)=O", 
	 "Tm": 331.15, 
	 "num_atms": 18, 
	 "gaussian": { 
		 "optdone": 1, 
		 "sigma_profile": "yes", 
		 "theory": "DFT", 
		 "functional": "B3LYP", 
		 "basiset": "6-31G**", 
		 "properties": { 
			 "R2extent": 5773.9364, 
			 "electric_dipole_moment_norm": 6.14829602248, 
			 "electric_quadrupole_moment_norm": 14.5945690762, 
			 "total_energy": -3850.51476079, 
			 "HOMO_LUMO_gap": 0.17393, 
			 "cosmo_polarized_energy": -10.06, 
			 "cosmo_cavitation_energy": 27.58, 
			 "cosmo_dispersion_energy": -21.0, 
			 "cosmo_repulsion_energy": 1.62, 
			 "cosmo_total_nonelectrostatic_energy": 8.2, 
			 "SMD_solvation_energy": 2.57 
		},
		"coords": [
			{
				"x": -1.3120169483,
				"y": -2.1258023874,
				"z": 0.4140764678,
				"element": "C" 
			},
			{
				"x": -0.7289148733,
				"y": -0.7345253235,
				"z": 0.3637527832,
				"element": "C" 
			},
			{
				"x": -1.498996654,
				"y": 0.3477105597,
				"z": -0.0751906494,
				"element": "C" 
			},
			{
				"x": -0.960143366,
				"y": 1.6328063978,
				"z": -0.1493978771,
				"element": "C" 
			},
			{
				"x": 0.3738109127,
				"y": 1.864138171,
				"z": 0.2213256455,
				"element": "C" 
			},
			{
				"x": 1.1951772137,
				"y": 3.576606282,
				"z": 0.1609075457,
				"element": "Br" 
			},
			{
				"x": 1.1441501,
				"y": 0.7880870136,
				"z": 0.6626981331,
				"element": "C" 
			},
			{
				"x": 0.5986827624,
				"y": -0.4904317868,
				"z": 0.7327801791,
				"element": "C" 
			},
			{
				"x": -1.9503787176,
				"y": 3.0467212016,
				"z": -0.7128185359,
				"element": "S" 
			},
			{
				"x": -3.8548260901,
				"y": 2.1626859432,
				"z": -1.1562847779,
				"element": "Cl" 
			},
			{
				"x": -2.1906199334,
				"y": 3.9448302945,
				"z": 0.4068966411,
				"element": "O" 
			},
			{
				"x": -1.4354227956,
				"y": 3.5179233724,
				"z": -1.9897988606,
				"element": "O" 
			},
			{
				"x": -0.9543499329,
				"y": -2.6742793205,
				"z": 1.2905436295,
				"element": "H" 
			},
			{
				"x": -1.0235512226,
				"y": -2.7032568886,
				"z": -0.4724628321,
				"element": "H" 
			},
			{
				"x": -2.4041195585,
				"y": -2.1016824587,
				"z": 0.4500528434,
				"element": "H" 
			},
			{
				"x": -2.5300477543,
				"y": 0.1851332471,
				"z": -0.361365465,
				"element": "H" 
			},
			{
				"x": 2.1734630098,
				"y": 0.9640310291,
				"z": 0.9532634422,
				"element": "H" 
			},
			{
				"x": 1.2201038482,
				"y": -1.3099953465,
				"z": 1.0832216874,
				"element": "H" 
			}
		],
		 "valence_orbital": [ 
			{
				"type": "occ",
				"energy": -0.32979,
				"method": "rhf"
			},
			{
				"type": "occ",
				"energy": -0.31504,
				"method": "rhf"
			},
			{
				"type": "occ",
				"energy": -0.30138,
				"method": "rhf"
			},
			{
				"type": "occ",
				"energy": -0.29269,
				"method": "rhf"
			},
			{
				"type": "occ",
				"energy": -0.26317,
				"method": "rhf"
			},
			{
				"type": "unocc",
				"energy": -0.08924,
				"method": "rhf"
			},
			{
				"type": "unocc",
				"energy": -0.05878,
				"method": "rhf"
			},
			{
				"type": "unocc",
				"energy": -0.04123,
				"method": "rhf"
			},
			{
				"type": "unocc",
				"energy": -0.0197,
				"method": "rhf"
			},
			{
				"type": "unocc",
				"energy": 0.04325,
				"method": "rhf"
			}
		],
		"cosmo_sigma_profile": { 
			"-0.025": 0.0,
			"-0.024": 0.0,
			"-0.023": 0.0,
			"-0.022": 0.0,
			"-0.021": 0.0,
			"-0.02": 0.0,
			"-0.019": 0.0,
			"-0.018": 0.0,
			"-0.017": 0.0,
			"-0.016": 0.0,
			"-0.015": 0.0,
			"-0.014": 0.0,
			"-0.013": 0.0,
			"-0.012": 0.0,
			"-0.011": 0.0,
			"-0.01": 0.0,
			"-0.009": 0.445557106518,
			"-0.008": 3.38123883879,
			"-0.007": 7.36112333049,
			"-0.006": 9.07331786831,
			"-0.005": 13.3865690092,
			"-0.004": 15.2053648027,
			"-0.003": 14.9513194194,
			"-0.002": 18.6532826116,
			"-0.001": 23.6354383971,
			"0.0": 25.7659789686,
			"0.001": 20.0260095788,
			"0.002": 16.1451762769,
			"0.003": 18.42370421,
			"0.004": 8.17567507727,
			"0.005": 4.8765276905,
			"0.006": 4.1127535657,
			"0.007": 7.89507106723,
			"0.008": 12.6727421965,
			"0.009": 2.58196301054,
			"0.01": 0.0,
			"0.011": 0.0,
			"0.012": 0.0,
			"0.013": 0.0,
			"0.014": 0.0,
			"0.015": 0.0,
			"0.016": 0.0,
			"0.017": 0.0,
			"0.018": 0.0,
			"0.019": 0.0,
			"0.02": 0.0,
			"0.021": 0.0,
			"0.022": 0.0,
			"0.023": 0.0,
			"0.024": 0.0,
			"0.025": 0.0
		}
	}
}
