{
	 "smiles": "[O-][N+](=O)C1=CC=C(Br)C2=C1C(C=O)=CC=C2", 
	 "Tm": 408.15, 
	 "num_atms": 22, 
	 "gaussian": { 
		 "optdone": 1, 
		 "sigma_profile": "yes", 
		 "theory": "DFT", 
		 "functional": "B3LYP", 
		 "basiset": "6-31G**", 
		 "properties": { 
			 "R2extent": 4965.7577, 
			 "electric_dipole_moment_norm": 5.44995427962, 
			 "electric_quadrupole_moment_norm": 21.4570543964, 
			 "total_energy": -3274.49193094, 
			 "HOMO_LUMO_gap": 0.15163, 
			 "cosmo_polarized_energy": -14.0, 
			 "cosmo_cavitation_energy": 29.24, 
			 "cosmo_dispersion_energy": -21.69, 
			 "cosmo_repulsion_energy": 1.64, 
			 "cosmo_total_nonelectrostatic_energy": 9.2, 
			 "SMD_solvation_energy": 6.75 
		},
		"coords": [
			{
				"x": -3.1516749005,
				"y": -0.4749515397,
				"z": 1.7660392167,
				"element": "O" 
			},
			{
				"x": -2.3424317473,
				"y": 0.0986806494,
				"z": 1.0444893255,
				"element": "N" 
			},
			{
				"x": -2.5979630983,
				"y": 1.0388869918,
				"z": 0.29503822,
				"element": "O" 
			},
			{
				"x": -0.9751590738,
				"y": -0.4514197811,
				"z": 0.9789161734,
				"element": "C" 
			},
			{
				"x": -0.9033920357,
				"y": -1.8260145007,
				"z": 0.9704470466,
				"element": "C" 
			},
			{
				"x": 0.3009148353,
				"y": -2.4737092109,
				"z": 0.6446965657,
				"element": "C" 
			},
			{
				"x": 1.3954931473,
				"y": -1.7215777922,
				"z": 0.2880814556,
				"element": "C" 
			},
			{
				"x": 2.9669184735,
				"y": -2.6603098215,
				"z": -0.2561160594,
				"element": "Br" 
			},
			{
				"x": 1.3737989959,
				"y": -0.2942891378,
				"z": 0.3204849427,
				"element": "C" 
			},
			{
				"x": 0.1691178214,
				"y": 0.3678865176,
				"z": 0.7508009084,
				"element": "C" 
			},
			{
				"x": 0.2167743177,
				"y": 1.7919558055,
				"z": 0.9364129073,
				"element": "C" 
			},
			{
				"x": -0.7389167502,
				"y": 2.5575298249,
				"z": 1.7821492467,
				"element": "C" 
			},
			{
				"x": -1.4688274104,
				"y": 2.0787563314,
				"z": 2.6248128314,
				"element": "O" 
			},
			{
				"x": 1.325630972,
				"y": 2.5054829685,
				"z": 0.5174593644,
				"element": "C" 
			},
			{
				"x": 2.4615038804,
				"y": 1.8612917833,
				"z": -0.0110384795,
				"element": "C" 
			},
			{
				"x": 2.4974717017,
				"y": 0.4892468322,
				"z": -0.0635658804,
				"element": "C" 
			},
			{
				"x": -1.8005902351,
				"y": -2.3980505397,
				"z": 1.1739025432,
				"element": "H" 
			},
			{
				"x": 0.3481595781,
				"y": -3.5556791974,
				"z": 0.6281242787,
				"element": "H" 
			},
			{
				"x": -0.6660503508,
				"y": 3.6579232076,
				"z": 1.6463400789,
				"element": "H" 
			},
			{
				"x": 1.3356332618,
				"y": 3.5837799694,
				"z": 0.6562342449,
				"element": "H" 
			},
			{
				"x": 3.3203992933,
				"y": 2.4439236299,
				"z": -0.3277663736,
				"element": "H" 
			},
			{
				"x": 3.3894893238,
				"y": -0.0214429906,
				"z": -0.4052425568,
				"element": "H" 
			}
		],
		 "valence_orbital": [ 
			{
				"type": "occ",
				"energy": -0.29896,
				"method": "rhf"
			},
			{
				"type": "occ",
				"energy": -0.28684,
				"method": "rhf"
			},
			{
				"type": "occ",
				"energy": -0.28223,
				"method": "rhf"
			},
			{
				"type": "occ",
				"energy": -0.26633,
				"method": "rhf"
			},
			{
				"type": "occ",
				"energy": -0.25009,
				"method": "rhf"
			},
			{
				"type": "unocc",
				"energy": -0.09846,
				"method": "rhf"
			},
			{
				"type": "unocc",
				"energy": -0.07881,
				"method": "rhf"
			},
			{
				"type": "unocc",
				"energy": -0.04854,
				"method": "rhf"
			},
			{
				"type": "unocc",
				"energy": -0.02102,
				"method": "rhf"
			},
			{
				"type": "unocc",
				"energy": -0.01464,
				"method": "rhf"
			}
		],
		"cosmo_sigma_profile": { 
			"-0.025": 0.0,
			"-0.024": 0.0,
			"-0.023": 0.0,
			"-0.022": 0.0,
			"-0.021": 0.0,
			"-0.02": 0.0,
			"-0.019": 0.0,
			"-0.018": 0.0,
			"-0.017": 0.0,
			"-0.016": 0.0,
			"-0.015": 0.0,
			"-0.014": 0.0,
			"-0.013": 0.0,
			"-0.012": 0.0,
			"-0.011": 0.0,
			"-0.01": 0.0995176894836,
			"-0.009": 4.59594854209,
			"-0.008": 9.68758739282,
			"-0.007": 12.6725157725,
			"-0.006": 11.7330380672,
			"-0.005": 11.0460626887,
			"-0.004": 11.5350656807,
			"-0.003": 10.7064747952,
			"-0.002": 17.3148311787,
			"-0.001": 28.0694821625,
			"0.0": 25.2444007431,
			"0.001": 18.3063692876,
			"0.002": 12.8654516901,
			"0.003": 11.4313934922,
			"0.004": 6.0798489438,
			"0.005": 4.92902742713,
			"0.006": 6.5460189856,
			"0.007": 13.9092472093,
			"0.008": 8.45798620839,
			"0.009": 6.49440078453,
			"0.01": 4.06214345757,
			"0.011": 2.13413499424,
			"0.012": 1.38954318767,
			"0.013": 0.16253041694,
			"0.014": 0.0,
			"0.015": 0.0,
			"0.016": 0.0,
			"0.017": 0.0,
			"0.018": 0.0,
			"0.019": 0.0,
			"0.02": 0.0,
			"0.021": 0.0,
			"0.022": 0.0,
			"0.023": 0.0,
			"0.024": 0.0,
			"0.025": 0.0
		}
	}
}
