{
	 "smiles": "CCC(C)C(NC1=NS(=O)(=O)C2=C1C=CC=C2)C(O)=O", 
	 "Tm": 477.15, 
	 "num_atms": 36, 
	 "gaussian": { 
		 "optdone": 1, 
		 "sigma_profile": "yes", 
		 "theory": "DFT", 
		 "functional": "B3LYP", 
		 "basiset": "6-31G**", 
		 "properties": { 
			 "R2extent": 6589.3875, 
			 "electric_dipole_moment_norm": 7.46707747181, 
			 "electric_quadrupole_moment_norm": 22.876791442, 
			 "total_energy": -1313.55598485, 
			 "HOMO_LUMO_gap": 0.1817, 
			 "cosmo_polarized_energy": -31.46, 
			 "cosmo_cavitation_energy": 39.98, 
			 "cosmo_dispersion_energy": -28.14, 
			 "cosmo_repulsion_energy": 2.14, 
			 "cosmo_total_nonelectrostatic_energy": 13.98, 
			 "SMD_solvation_energy": 5.95 
		},
		"coords": [
			{
				"x": 2.4665069623,
				"y": -1.0442340717,
				"z": -5.0673586986,
				"element": "C" 
			},
			{
				"x": 2.3636383171,
				"y": -1.5306336074,
				"z": -3.617025123,
				"element": "C" 
			},
			{
				"x": 1.6966876213,
				"y": -0.512473728,
				"z": -2.6626448951,
				"element": "C" 
			},
			{
				"x": 0.2094701222,
				"y": -0.2873119238,
				"z": -2.9723856239,
				"element": "C" 
			},
			{
				"x": 2.0172089325,
				"y": -0.8577031911,
				"z": -1.181943339,
				"element": "C" 
			},
			{
				"x": 1.7501655221,
				"y": 0.2500749656,
				"z": -0.2542181713,
				"element": "N" 
			},
			{
				"x": 0.5964479112,
				"y": 0.4460636371,
				"z": 0.4211083938,
				"element": "C" 
			},
			{
				"x": -0.4650866751,
				"y": -0.2794720045,
				"z": 0.208342996,
				"element": "N" 
			},
			{
				"x": -1.7402566364,
				"y": 0.2475660801,
				"z": 1.1880810991,
				"element": "S" 
			},
			{
				"x": -2.786244973,
				"y": 0.8439226845,
				"z": 0.3551649908,
				"element": "O" 
			},
			{
				"x": -2.0943941195,
				"y": -0.7945483704,
				"z": 2.1515535302,
				"element": "O" 
			},
			{
				"x": -0.7796644482,
				"y": 1.5466766483,
				"z": 1.9905454737,
				"element": "C" 
			},
			{
				"x": 0.5005449357,
				"y": 1.5332092539,
				"z": 1.442606924,
				"element": "C" 
			},
			{
				"x": 1.4522343828,
				"y": 2.4543601233,
				"z": 1.8786128981,
				"element": "C" 
			},
			{
				"x": 1.0872583693,
				"y": 3.3714309854,
				"z": 2.869180371,
				"element": "C" 
			},
			{
				"x": -0.2026579531,
				"y": 3.3684635762,
				"z": 3.4106351597,
				"element": "C" 
			},
			{
				"x": -1.1610185436,
				"y": 2.4474654334,
				"z": 2.9715753258,
				"element": "C" 
			},
			{
				"x": 1.4840356197,
				"y": -2.1672280057,
				"z": -0.5609272281,
				"element": "C" 
			},
			{
				"x": 0.7582918304,
				"y": -2.9254324168,
				"z": -1.4028015964,
				"element": "O" 
			},
			{
				"x": 1.7630278579,
				"y": -2.5051320125,
				"z": 0.5652079227,
				"element": "O" 
			},
			{
				"x": 1.4817922515,
				"y": -0.8928853205,
				"z": -5.5193230894,
				"element": "H" 
			},
			{
				"x": 2.9987585441,
				"y": -1.7763152373,
				"z": -5.6830904349,
				"element": "H" 
			},
			{
				"x": 3.0126617363,
				"y": -0.0958663735,
				"z": -5.1329666043,
				"element": "H" 
			},
			{
				"x": 1.8133397455,
				"y": -2.4760518119,
				"z": -3.583008148,
				"element": "H" 
			},
			{
				"x": 3.3775766091,
				"y": -1.750591108,
				"z": -3.2525210886,
				"element": "H" 
			},
			{
				"x": 2.2133264936,
				"y": 0.4475953144,
				"z": -2.8168399199,
				"element": "H" 
			},
			{
				"x": -0.3676166108,
				"y": -1.2048080417,
				"z": -2.8414102614,
				"element": "H" 
			},
			{
				"x": 0.0906370385,
				"y": 0.0520110259,
				"z": -4.0055837917,
				"element": "H" 
			},
			{
				"x": -0.227880873,
				"y": 0.4734212501,
				"z": -2.3234276726,
				"element": "H" 
			},
			{
				"x": 3.1042423349,
				"y": -0.9978289052,
				"z": -1.1325274699,
				"element": "H" 
			},
			{
				"x": 2.5530245826,
				"y": 0.767452083,
				"z": 0.06587425,
				"element": "H" 
			},
			{
				"x": 2.4587263731,
				"y": 2.4781025934,
				"z": 1.4699117665,
				"element": "H" 
			},
			{
				"x": 1.8154616168,
				"y": 4.0951082944,
				"z": 3.2217466186,
				"element": "H" 
			},
			{
				"x": -0.4636228244,
				"y": 4.0893848439,
				"z": 4.1792854183,
				"element": "H" 
			},
			{
				"x": -2.1644023172,
				"y": 2.4387067365,
				"z": 3.3841888841,
				"element": "H" 
			},
			{
				"x": 0.4854802638,
				"y": -3.7073993993,
				"z": -0.8923188663,
				"element": "H" 
			}
		],
		 "valence_orbital": [ 
			{
				"type": "occ",
				"energy": -0.28751,
				"method": "rhf"
			},
			{
				"type": "occ",
				"energy": -0.28594,
				"method": "rhf"
			},
			{
				"type": "occ",
				"energy": -0.27922,
				"method": "rhf"
			},
			{
				"type": "occ",
				"energy": -0.27269,
				"method": "rhf"
			},
			{
				"type": "occ",
				"energy": -0.25152,
				"method": "rhf"
			},
			{
				"type": "unocc",
				"energy": -0.06982,
				"method": "rhf"
			},
			{
				"type": "unocc",
				"energy": -0.0427,
				"method": "rhf"
			},
			{
				"type": "unocc",
				"energy": -0.00742,
				"method": "rhf"
			},
			{
				"type": "unocc",
				"energy": 0.03015,
				"method": "rhf"
			},
			{
				"type": "unocc",
				"energy": 0.04401,
				"method": "rhf"
			}
		],
		"cosmo_sigma_profile": { 
			"-0.025": 0.0,
			"-0.024": 0.0,
			"-0.023": 0.0,
			"-0.022": 0.0,
			"-0.021": 0.0,
			"-0.02": 0.0,
			"-0.019": 0.0842842553877,
			"-0.018": 1.21276306399,
			"-0.017": 1.5286823345,
			"-0.016": 2.69811434806,
			"-0.015": 2.32548202173,
			"-0.014": 2.24485292658,
			"-0.013": 1.63299680777,
			"-0.012": 2.98027639979,
			"-0.011": 2.41774906355,
			"-0.01": 2.18373845255,
			"-0.009": 4.56795195634,
			"-0.008": 9.35726190456,
			"-0.007": 14.0580750646,
			"-0.006": 12.4750770939,
			"-0.005": 9.36399521041,
			"-0.004": 10.9480068185,
			"-0.003": 20.2197881948,
			"-0.002": 23.2809103087,
			"-0.001": 24.5158805871,
			"0.0": 30.650331207,
			"0.001": 34.5742366742,
			"0.002": 19.0277176417,
			"0.003": 6.27856289767,
			"0.004": 6.86198496614,
			"0.005": 6.06074661001,
			"0.006": 4.30946401273,
			"0.007": 5.80423901695,
			"0.008": 7.51542043873,
			"0.009": 8.1720396328,
			"0.01": 11.2490984415,
			"0.011": 19.2470195574,
			"0.012": 8.26245129872,
			"0.013": 0.1242310958,
			"0.014": 0.0,
			"0.015": 0.0,
			"0.016": 0.0,
			"0.017": 0.0,
			"0.018": 0.0,
			"0.019": 0.0,
			"0.02": 0.0,
			"0.021": 0.0,
			"0.022": 0.0,
			"0.023": 0.0,
			"0.024": 0.0,
			"0.025": 0.0
		}
	}
}
