{
	 "smiles": "ClC1=C2NC(=O)C(=O)C2=CC(Br)=C1", 
	 "Tm": 499.15, 
	 "num_atms": 16, 
	 "gaussian": { 
		 "optdone": 1, 
		 "sigma_profile": "yes", 
		 "theory": "DFT", 
		 "functional": "B3LYP", 
		 "basiset": "6-31G**", 
		 "properties": { 
			 "R2extent": 4855.1338, 
			 "electric_dipole_moment_norm": 3.87667173488, 
			 "electric_quadrupole_moment_norm": 15.209814634, 
			 "total_energy": -3543.45014019, 
			 "HOMO_LUMO_gap": 0.13269, 
			 "cosmo_polarized_energy": -12.82, 
			 "cosmo_cavitation_energy": 26.15, 
			 "cosmo_dispersion_energy": -19.7, 
			 "cosmo_repulsion_energy": 1.56, 
			 "cosmo_total_nonelectrostatic_energy": 8.01, 
			 "SMD_solvation_energy": 4.36 
		},
		"coords": [
			{
				"x": -1.5531243677,
				"y": -2.3187150456,
				"z": -3.2225981155,
				"element": "Cl" 
			},
			{
				"x": -1.2266521788,
				"y": -1.5325207982,
				"z": -1.6936923367,
				"element": "C" 
			},
			{
				"x": -0.9887384881,
				"y": -0.16359372,
				"z": -1.6493353211,
				"element": "C" 
			},
			{
				"x": -0.9636284693,
				"y": 0.7606959666,
				"z": -2.6926222007,
				"element": "N" 
			},
			{
				"x": -0.688198573,
				"y": 2.0455399842,
				"z": -2.2389805153,
				"element": "C" 
			},
			{
				"x": -0.6012172511,
				"y": 3.051478292,
				"z": -2.9014004541,
				"element": "O" 
			},
			{
				"x": -0.517313638,
				"y": 1.8964238269,
				"z": -0.6844603868,
				"element": "C" 
			},
			{
				"x": -0.2672529448,
				"y": 2.8049291648,
				"z": 0.0727320968,
				"element": "O" 
			},
			{
				"x": -0.7270800819,
				"y": 0.4586174195,
				"z": -0.4134015007,
				"element": "C" 
			},
			{
				"x": -0.69830208,
				"y": -0.2575651461,
				"z": 0.777242774,
				"element": "C" 
			},
			{
				"x": -0.9394425199,
				"y": -1.6308781481,
				"z": 0.7134789318,
				"element": "C" 
			},
			{
				"x": -0.914557066,
				"y": -2.6717533185,
				"z": 2.3109678284,
				"element": "Br" 
			},
			{
				"x": -1.2011319671,
				"y": -2.2674150921,
				"z": -0.5036348925,
				"element": "C" 
			},
			{
				"x": -1.1252201566,
				"y": 0.5311175631,
				"z": -3.6629606501,
				"element": "H" 
			},
			{
				"x": -0.4948452416,
				"y": 0.2421914659,
				"z": 1.7172920906,
				"element": "H" 
			},
			{
				"x": -1.3859949761,
				"y": -3.3344524145,
				"z": -0.533327348,
				"element": "H" 
			}
		],
		 "valence_orbital": [ 
			{
				"type": "occ",
				"energy": -0.30965,
				"method": "rhf"
			},
			{
				"type": "occ",
				"energy": -0.30834,
				"method": "rhf"
			},
			{
				"type": "occ",
				"energy": -0.28944,
				"method": "rhf"
			},
			{
				"type": "occ",
				"energy": -0.26341,
				"method": "rhf"
			},
			{
				"type": "occ",
				"energy": -0.24849,
				"method": "rhf"
			},
			{
				"type": "unocc",
				"energy": -0.1158,
				"method": "rhf"
			},
			{
				"type": "unocc",
				"energy": -0.04521,
				"method": "rhf"
			},
			{
				"type": "unocc",
				"energy": -0.02564,
				"method": "rhf"
			},
			{
				"type": "unocc",
				"energy": -0.01653,
				"method": "rhf"
			},
			{
				"type": "unocc",
				"energy": 0.01579,
				"method": "rhf"
			}
		],
		"cosmo_sigma_profile": { 
			"-0.025": 0.0,
			"-0.024": 0.0,
			"-0.023": 0.0,
			"-0.022": 0.0,
			"-0.021": 0.0,
			"-0.02": 0.0,
			"-0.019": 0.0,
			"-0.018": 0.0230324077693,
			"-0.017": 0.423474424706,
			"-0.016": 1.05132018208,
			"-0.015": 0.482821982046,
			"-0.014": 0.615809052476,
			"-0.013": 0.844792651114,
			"-0.012": 1.05975697965,
			"-0.011": 1.1773819354,
			"-0.01": 1.12097652552,
			"-0.009": 4.58592496433,
			"-0.008": 5.080065496,
			"-0.007": 7.03079420327,
			"-0.006": 6.46086240973,
			"-0.005": 8.79634247004,
			"-0.004": 11.0933334105,
			"-0.003": 14.7159732213,
			"-0.002": 19.3265481656,
			"-0.001": 21.6265979002,
			"0.0": 21.3256641085,
			"0.001": 12.2220411451,
			"0.002": 13.1325410052,
			"0.003": 17.3155191085,
			"0.004": 13.2482498382,
			"0.005": 2.36085143101,
			"0.006": 2.90603208982,
			"0.007": 3.25966567185,
			"0.008": 4.3840846027,
			"0.009": 7.1354049988,
			"0.01": 8.49493832107,
			"0.011": 5.47424740572,
			"0.012": 0.641635745707,
			"0.013": 0.0,
			"0.014": 0.0,
			"0.015": 0.0,
			"0.016": 0.0,
			"0.017": 0.0,
			"0.018": 0.0,
			"0.019": 0.0,
			"0.02": 0.0,
			"0.021": 0.0,
			"0.022": 0.0,
			"0.023": 0.0,
			"0.024": 0.0,
			"0.025": 0.0
		}
	}
}
