{
	 "smiles": "NC1=CC=C(C=C1)S(=O)(=O)NC1=CC(Cl)=C(F)C=C1", 
	 "Tm": 447.15, 
	 "num_atms": 29, 
	 "gaussian": { 
		 "optdone": 1, 
		 "sigma_profile": "yes", 
		 "theory": "DFT", 
		 "functional": "B3LYP", 
		 "basiset": "6-31G**", 
		 "properties": { 
			 "R2extent": 7069.1729, 
			 "electric_dipole_moment_norm": 6.08941391268, 
			 "electric_quadrupole_moment_norm": 31.8483416242, 
			 "total_energy": -1681.40082049, 
			 "HOMO_LUMO_gap": 0.19109, 
			 "cosmo_polarized_energy": -21.17, 
			 "cosmo_cavitation_energy": 37.63, 
			 "cosmo_dispersion_energy": -26.51, 
			 "cosmo_repulsion_energy": 2.01, 
			 "cosmo_total_nonelectrostatic_energy": 13.12, 
			 "SMD_solvation_energy": 5.69 
		},
		"coords": [
			{
				"x": -2.410139783,
				"y": 4.1515318138,
				"z": -1.8563012671,
				"element": "N" 
			},
			{
				"x": -1.9741570373,
				"y": 3.1699064961,
				"z": -0.9880636345,
				"element": "C" 
			},
			{
				"x": -1.7721055117,
				"y": 1.8496800717,
				"z": -1.4401683626,
				"element": "C" 
			},
			{
				"x": -1.3814220229,
				"y": 0.8513841735,
				"z": -0.5591045759,
				"element": "C" 
			},
			{
				"x": -1.182237268,
				"y": 1.1556152244,
				"z": 0.7925982172,
				"element": "C" 
			},
			{
				"x": -1.384690349,
				"y": 2.4592181419,
				"z": 1.2605219867,
				"element": "C" 
			},
			{
				"x": -1.7780012621,
				"y": 3.4559032028,
				"z": 0.3791514569,
				"element": "C" 
			},
			{
				"x": -0.634881874,
				"y": -0.1079366442,
				"z": 1.9197906188,
				"element": "S" 
			},
			{
				"x": -0.9400135864,
				"y": 0.3239241689,
				"z": 3.2841998125,
				"element": "O" 
			},
			{
				"x": -1.0559711926,
				"y": -1.4034934207,
				"z": 1.3862248117,
				"element": "O" 
			},
			{
				"x": 1.0780397938,
				"y": -0.1077032335,
				"z": 1.8842204239,
				"element": "N" 
			},
			{
				"x": 1.8152313356,
				"y": -0.3678738292,
				"z": 0.6999502486,
				"element": "C" 
			},
			{
				"x": 2.7274212944,
				"y": 0.5837324803,
				"z": 0.2250082124,
				"element": "C" 
			},
			{
				"x": 3.5030656917,
				"y": 0.3094170135,
				"z": -0.8999539286,
				"element": "C" 
			},
			{
				"x": 4.6557816395,
				"y": 1.4823758788,
				"z": -1.4874212366,
				"element": "Cl" 
			},
			{
				"x": 3.3429017169,
				"y": -0.9024809144,
				"z": -1.5715312658,
				"element": "C" 
			},
			{
				"x": 4.0784215594,
				"y": -1.1663441597,
				"z": -2.6629839722,
				"element": "F" 
			},
			{
				"x": 2.42821067,
				"y": -1.8450269067,
				"z": -1.1143105683,
				"element": "C" 
			},
			{
				"x": 1.6742464131,
				"y": -1.5917813524,
				"z": 0.0279279243,
				"element": "C" 
			},
			{
				"x": -2.2722330387,
				"y": 3.9914221133,
				"z": -2.8428426649,
				"element": "H" 
			},
			{
				"x": -2.278359128,
				"y": 5.1112218353,
				"z": -1.5743888601,
				"element": "H" 
			},
			{
				"x": -1.9362375583,
				"y": 1.6116979375,
				"z": -2.4876348251,
				"element": "H" 
			},
			{
				"x": -1.2458071295,
				"y": -0.1658520683,
				"z": -0.9086392507,
				"element": "H" 
			},
			{
				"x": -1.2535987302,
				"y": 2.6783018364,
				"z": 2.3149369987,
				"element": "H" 
			},
			{
				"x": -1.9499152662,
				"y": 4.4645904616,
				"z": 0.7451051468,
				"element": "H" 
			},
			{
				"x": 1.4195659845,
				"y": 0.6705739916,
				"z": 2.4393955221,
				"element": "H" 
			},
			{
				"x": 2.8409479471,
				"y": 1.5395586767,
				"z": 0.7259615055,
				"element": "H" 
			},
			{
				"x": 2.3359567999,
				"y": -2.7827037664,
				"z": -1.6517077779,
				"element": "H" 
			},
			{
				"x": 0.976679892,
				"y": -2.3279592228,
				"z": 0.406759304,
				"element": "H" 
			}
		],
		 "valence_orbital": [ 
			{
				"type": "occ",
				"energy": -0.30175,
				"method": "rhf"
			},
			{
				"type": "occ",
				"energy": -0.27337,
				"method": "rhf"
			},
			{
				"type": "occ",
				"energy": -0.26516,
				"method": "rhf"
			},
			{
				"type": "occ",
				"energy": -0.23975,
				"method": "rhf"
			},
			{
				"type": "occ",
				"energy": -0.22468,
				"method": "rhf"
			},
			{
				"type": "unocc",
				"energy": -0.03359,
				"method": "rhf"
			},
			{
				"type": "unocc",
				"energy": -0.028,
				"method": "rhf"
			},
			{
				"type": "unocc",
				"energy": -0.02232,
				"method": "rhf"
			},
			{
				"type": "unocc",
				"energy": -0.0112,
				"method": "rhf"
			},
			{
				"type": "unocc",
				"energy": 0.01542,
				"method": "rhf"
			}
		],
		"cosmo_sigma_profile": { 
			"-0.025": 0.0,
			"-0.024": 0.0,
			"-0.023": 0.0,
			"-0.022": 0.0,
			"-0.021": 0.0,
			"-0.02": 0.0,
			"-0.019": 0.0,
			"-0.018": 0.0,
			"-0.017": 0.0,
			"-0.016": 0.620350641884,
			"-0.015": 1.31892225478,
			"-0.014": 1.63497260708,
			"-0.013": 4.09909719317,
			"-0.012": 4.53712138573,
			"-0.011": 4.3135208117,
			"-0.01": 4.25101023017,
			"-0.009": 5.18489521249,
			"-0.008": 7.81480403239,
			"-0.007": 9.25190773257,
			"-0.006": 11.7204597643,
			"-0.005": 12.4417232758,
			"-0.004": 11.8552368741,
			"-0.003": 10.4083329298,
			"-0.002": 12.941002189,
			"-0.001": 19.8096914477,
			"0.0": 22.2952585933,
			"0.001": 26.3882502135,
			"0.002": 24.9685170574,
			"0.003": 30.0010578414,
			"0.004": 31.1591053936,
			"0.005": 9.10842368611,
			"0.006": 4.93978915916,
			"0.007": 5.50949047975,
			"0.008": 3.98223172943,
			"0.009": 4.78963709762,
			"0.01": 7.70386034458,
			"0.011": 8.42007308088,
			"0.012": 2.4362596665,
			"0.013": 0.0,
			"0.014": 0.0,
			"0.015": 0.0,
			"0.016": 0.0,
			"0.017": 0.0,
			"0.018": 0.0,
			"0.019": 0.0,
			"0.02": 0.0,
			"0.021": 0.0,
			"0.022": 0.0,
			"0.023": 0.0,
			"0.024": 0.0,
			"0.025": 0.0
		}
	}
}
