{
	 "smiles": "OC(=O)C1=CC(=NN1C1=CC=CC=C1)C1CC1", 
	 "Tm": 412.15, 
	 "num_atms": 29, 
	 "gaussian": { 
		 "optdone": 1, 
		 "sigma_profile": "yes", 
		 "theory": "DFT", 
		 "functional": "B3LYP", 
		 "basiset": "6-31G**", 
		 "properties": { 
			 "R2extent": 4476.6339, 
			 "electric_dipole_moment_norm": 3.15635819577, 
			 "electric_quadrupole_moment_norm": 16.9256211038, 
			 "total_energy": -762.522587879, 
			 "HOMO_LUMO_gap": 0.17837, 
			 "cosmo_polarized_energy": -16.49, 
			 "cosmo_cavitation_energy": 33.53, 
			 "cosmo_dispersion_energy": -23.83, 
			 "cosmo_repulsion_energy": 1.86, 
			 "cosmo_total_nonelectrostatic_energy": 11.56, 
			 "SMD_solvation_energy": 5.65 
		},
		"coords": [
			{
				"x": -0.3011792291,
				"y": -2.8758456477,
				"z": 1.7284150669,
				"element": "O" 
			},
			{
				"x": 0.4389004986,
				"y": -1.930141778,
				"z": 1.0877682288,
				"element": "C" 
			},
			{
				"x": 1.616560446,
				"y": -1.8101907934,
				"z": 1.3235956851,
				"element": "O" 
			},
			{
				"x": -0.3218743018,
				"y": -1.1407733472,
				"z": 0.0881037253,
				"element": "C" 
			},
			{
				"x": -1.429403019,
				"y": -1.5352550486,
				"z": -0.6545552621,
				"element": "C" 
			},
			{
				"x": -1.6576256478,
				"y": -0.492387739,
				"z": -1.5762693594,
				"element": "C" 
			},
			{
				"x": -0.7616740889,
				"y": 0.4846771703,
				"z": -1.4069643064,
				"element": "N" 
			},
			{
				"x": 0.0516297248,
				"y": 0.0857710224,
				"z": -0.4023539213,
				"element": "N" 
			},
			{
				"x": 1.0906984047,
				"y": 0.9734002766,
				"z": 0.0190592877,
				"element": "C" 
			},
			{
				"x": 1.3330443275,
				"y": 1.2021690958,
				"z": 1.3748260812,
				"element": "C" 
			},
			{
				"x": 2.3369450895,
				"y": 2.0938056185,
				"z": 1.7484900415,
				"element": "C" 
			},
			{
				"x": 3.0817723938,
				"y": 2.7669759888,
				"z": 0.7784268147,
				"element": "C" 
			},
			{
				"x": 2.8196063658,
				"y": 2.543900076,
				"z": -0.5746993081,
				"element": "C" 
			},
			{
				"x": 1.8264010807,
				"y": 1.645574249,
				"z": -0.960217365,
				"element": "C" 
			},
			{
				"x": -2.7119967928,
				"y": -0.405314353,
				"z": -2.6107039845,
				"element": "C" 
			},
			{
				"x": -3.3287573119,
				"y": 0.9376052695,
				"z": -2.959008029,
				"element": "C" 
			},
			{
				"x": -2.421174559,
				"y": 0.2611059705,
				"z": -3.9431129247,
				"element": "C" 
			},
			{
				"x": -1.2399508649,
				"y": -2.7487417663,
				"z": 1.5297126993,
				"element": "H" 
			},
			{
				"x": -1.9587037676,
				"y": -2.4759913786,
				"z": -0.5906048253,
				"element": "H" 
			},
			{
				"x": 0.7441660509,
				"y": 0.6945141928,
				"z": 2.1294232683,
				"element": "H" 
			},
			{
				"x": 2.5289162636,
				"y": 2.2678481192,
				"z": 2.8027943929,
				"element": "H" 
			},
			{
				"x": 3.859806621,
				"y": 3.4636185635,
				"z": 1.0757014422,
				"element": "H" 
			},
			{
				"x": 3.3928496795,
				"y": 3.0652936156,
				"z": -1.3353908199,
				"element": "H" 
			},
			{
				"x": 1.6084087159,
				"y": 1.4610164838,
				"z": -2.0054512087,
				"element": "H" 
			},
			{
				"x": -3.3751127147,
				"y": -1.2654285195,
				"z": -2.6317505594,
				"element": "H" 
			},
			{
				"x": -2.9404021877,
				"y": 1.7985961686,
				"z": -2.4246508065,
				"element": "H" 
			},
			{
				"x": -4.3946219948,
				"y": 0.9651026823,
				"z": -3.1645863122,
				"element": "H" 
			},
			{
				"x": -1.4233014383,
				"y": 0.6681207486,
				"z": -4.0707315606,
				"element": "H" 
			},
			{
				"x": -2.8541277442,
				"y": -0.1828249402,
				"z": -4.8344661807,
				"element": "H" 
			}
		],
		 "valence_orbital": [ 
			{
				"type": "occ",
				"energy": -0.28338,
				"method": "rhf"
			},
			{
				"type": "occ",
				"energy": -0.27691,
				"method": "rhf"
			},
			{
				"type": "occ",
				"energy": -0.25744,
				"method": "rhf"
			},
			{
				"type": "occ",
				"energy": -0.25511,
				"method": "rhf"
			},
			{
				"type": "occ",
				"energy": -0.2296,
				"method": "rhf"
			},
			{
				"type": "unocc",
				"energy": -0.05123,
				"method": "rhf"
			},
			{
				"type": "unocc",
				"energy": -0.00619,
				"method": "rhf"
			},
			{
				"type": "unocc",
				"energy": -0.00281,
				"method": "rhf"
			},
			{
				"type": "unocc",
				"energy": 0.03094,
				"method": "rhf"
			},
			{
				"type": "unocc",
				"energy": 0.06566,
				"method": "rhf"
			}
		],
		"cosmo_sigma_profile": { 
			"-0.025": 0.0,
			"-0.024": 0.0,
			"-0.023": 0.0,
			"-0.022": 0.0,
			"-0.021": 0.0,
			"-0.02": 0.0,
			"-0.019": 0.181537554433,
			"-0.018": 0.8651788139,
			"-0.017": 0.571328478808,
			"-0.016": 1.51501094914,
			"-0.015": 1.01294233048,
			"-0.014": 0.510621561426,
			"-0.013": 1.37484107507,
			"-0.012": 1.46714096744,
			"-0.011": 1.16293665826,
			"-0.01": 1.33123517021,
			"-0.009": 1.63995781419,
			"-0.008": 3.37136247935,
			"-0.007": 5.65780508164,
			"-0.006": 13.3824471376,
			"-0.005": 18.104194216,
			"-0.004": 21.4011263399,
			"-0.003": 16.9825521196,
			"-0.002": 16.9997446849,
			"-0.001": 17.1691342723,
			"0.0": 19.4678611174,
			"0.001": 17.15746503,
			"0.002": 18.0303617027,
			"0.003": 21.7407583346,
			"0.004": 20.689443858,
			"0.005": 11.0148837352,
			"0.006": 4.59148787875,
			"0.007": 4.39293403144,
			"0.008": 4.63294635836,
			"0.009": 4.81645740386,
			"0.01": 6.67705977244,
			"0.011": 6.01992957291,
			"0.012": 3.61848292394,
			"0.013": 0.438907428704,
			"0.014": 0.0,
			"0.015": 0.0,
			"0.016": 0.0,
			"0.017": 0.0,
			"0.018": 0.0,
			"0.019": 0.0,
			"0.02": 0.0,
			"0.021": 0.0,
			"0.022": 0.0,
			"0.023": 0.0,
			"0.024": 0.0,
			"0.025": 0.0
		}
	}
}
