{
	 "smiles": "NC1=C(F)C=C(Cl)C(=C1)S(=O)(=O)NC1CC1", 
	 "Tm": 394.15, 
	 "num_atms": 26, 
	 "gaussian": { 
		 "optdone": 1, 
		 "sigma_profile": "yes", 
		 "theory": "DFT", 
		 "functional": "B3LYP", 
		 "basiset": "6-31G**", 
		 "properties": { 
			 "R2extent": 6391.1598, 
			 "electric_dipole_moment_norm": 6.15682094104, 
			 "electric_quadrupole_moment_norm": 24.2274213174, 
			 "total_energy": -1567.03275065, 
			 "HOMO_LUMO_gap": 0.18988, 
			 "cosmo_polarized_energy": -20.37, 
			 "cosmo_cavitation_energy": 33.41, 
			 "cosmo_dispersion_energy": -24.26, 
			 "cosmo_repulsion_energy": 1.84, 
			 "cosmo_total_nonelectrostatic_energy": 10.99, 
			 "SMD_solvation_energy": 4.64 
		},
		"coords": [
			{
				"x": 2.332440138,
				"y": -1.003109716,
				"z": -1.3107895469,
				"element": "N" 
			},
			{
				"x": 1.6070076262,
				"y": 0.1507410072,
				"z": -1.5712344138,
				"element": "C" 
			},
			{
				"x": 1.5330093853,
				"y": 0.6569329118,
				"z": -2.8764303035,
				"element": "C" 
			},
			{
				"x": 2.2454077096,
				"y": 0.0176410215,
				"z": -3.8338201446,
				"element": "F" 
			},
			{
				"x": 0.7913085781,
				"y": 1.774079157,
				"z": -3.2098566523,
				"element": "C" 
			},
			{
				"x": 0.0671957125,
				"y": 2.439156867,
				"z": -2.2177914325,
				"element": "C" 
			},
			{
				"x": -0.8283070973,
				"y": 3.8652630328,
				"z": -2.6844164949,
				"element": "Cl" 
			},
			{
				"x": 0.105498637,
				"y": 1.9576963572,
				"z": -0.9008173941,
				"element": "C" 
			},
			{
				"x": 0.8759221066,
				"y": 0.8330893917,
				"z": -0.5908732387,
				"element": "C" 
			},
			{
				"x": -0.8017499811,
				"y": 2.802171761,
				"z": 0.4184614956,
				"element": "S" 
			},
			{
				"x": -2.2102900182,
				"y": 2.8407435285,
				"z": 0.0280249886,
				"element": "O" 
			},
			{
				"x": -0.0705748511,
				"y": 4.0194530927,
				"z": 0.7825509309,
				"element": "O" 
			},
			{
				"x": -0.5946775798,
				"y": 1.7691970704,
				"z": 1.7378211853,
				"element": "N" 
			},
			{
				"x": -1.5782746853,
				"y": 0.7704270181,
				"z": 2.091197527,
				"element": "C" 
			},
			{
				"x": -2.9890464773,
				"y": 1.1362058083,
				"z": 2.4845504635,
				"element": "C" 
			},
			{
				"x": -2.0103689956,
				"y": 0.6807658256,
				"z": 3.5345772305,
				"element": "C" 
			},
			{
				"x": 2.6741132693,
				"y": -1.1037338284,
				"z": -0.3659106275,
				"element": "H" 
			},
			{
				"x": 3.0225077339,
				"y": -1.234332787,
				"z": -2.0115004621,
				"element": "H" 
			},
			{
				"x": 0.7848367246,
				"y": 2.1264738979,
				"z": -4.2342175598,
				"element": "H" 
			},
			{
				"x": 0.9044212946,
				"y": 0.4896305549,
				"z": 0.4365676899,
				"element": "H" 
			},
			{
				"x": -0.1767083174,
				"y": 2.2977006668,
				"z": 2.4957803178,
				"element": "H" 
			},
			{
				"x": -1.4419818254,
				"y": -0.1694488677,
				"z": 1.5611332258,
				"element": "H" 
			},
			{
				"x": -3.2533725808,
				"y": 2.1863425728,
				"z": 2.4483543623,
				"element": "H" 
			},
			{
				"x": -3.7818638654,
				"y": 0.4607773957,
				"z": 2.1793790285,
				"element": "H" 
			},
			{
				"x": -1.6226763955,
				"y": 1.4285788194,
				"z": 4.2216428177,
				"element": "H" 
			},
			{
				"x": -2.1140762456,
				"y": -0.3082425588,
				"z": 3.9695170074,
				"element": "H" 
			}
		],
		 "valence_orbital": [ 
			{
				"type": "occ",
				"energy": -0.29621,
				"method": "rhf"
			},
			{
				"type": "occ",
				"energy": -0.29357,
				"method": "rhf"
			},
			{
				"type": "occ",
				"energy": -0.26812,
				"method": "rhf"
			},
			{
				"type": "occ",
				"energy": -0.26325,
				"method": "rhf"
			},
			{
				"type": "occ",
				"energy": -0.22158,
				"method": "rhf"
			},
			{
				"type": "unocc",
				"energy": -0.0317,
				"method": "rhf"
			},
			{
				"type": "unocc",
				"energy": -0.01903,
				"method": "rhf"
			},
			{
				"type": "unocc",
				"energy": 0.01672,
				"method": "rhf"
			},
			{
				"type": "unocc",
				"energy": 0.0595,
				"method": "rhf"
			},
			{
				"type": "unocc",
				"energy": 0.06777,
				"method": "rhf"
			}
		],
		"cosmo_sigma_profile": { 
			"-0.025": 0.0,
			"-0.024": 0.0,
			"-0.023": 0.0,
			"-0.022": 0.0,
			"-0.021": 0.0,
			"-0.02": 0.0,
			"-0.019": 0.0,
			"-0.018": 0.0,
			"-0.017": 0.0,
			"-0.016": 0.0,
			"-0.015": 0.0,
			"-0.014": 1.55299942455,
			"-0.013": 3.56145759104,
			"-0.012": 3.85592585559,
			"-0.011": 2.91408340316,
			"-0.01": 4.22592102158,
			"-0.009": 5.0184148079,
			"-0.008": 5.80817486519,
			"-0.007": 5.21289728846,
			"-0.006": 8.20090333437,
			"-0.005": 16.2635800676,
			"-0.004": 15.8728048962,
			"-0.003": 14.2606137168,
			"-0.002": 15.9824034134,
			"-0.001": 18.5348409829,
			"0.0": 22.6920732476,
			"0.001": 24.7570787184,
			"0.002": 17.8994178577,
			"0.003": 18.2122563059,
			"0.004": 13.7704549167,
			"0.005": 6.10847609923,
			"0.006": 4.75684375699,
			"0.007": 5.21034642813,
			"0.008": 4.9370118109,
			"0.009": 5.6053528417,
			"0.01": 8.14388690619,
			"0.011": 11.9193282858,
			"0.012": 2.72050625153,
			"0.013": 0.0778043624969,
			"0.014": 0.0,
			"0.015": 0.0,
			"0.016": 0.0,
			"0.017": 0.0,
			"0.018": 0.0,
			"0.019": 0.0,
			"0.02": 0.0,
			"0.021": 0.0,
			"0.022": 0.0,
			"0.023": 0.0,
			"0.024": 0.0,
			"0.025": 0.0
		}
	}
}
