{
	 "smiles": "OC1=CC2=C(C[C@H]3N(CC4CCC4)CC[C@@]22CCCC[C@@]32O)C=C1", 
	 "Tm": 489.15, 
	 "num_atms": 53, 
	 "gaussian": { 
		 "optdone": 1, 
		 "sigma_profile": "yes", 
		 "theory": "DFT", 
		 "functional": "B3LYP", 
		 "basiset": "6-31G**", 
		 "properties": { 
			 "R2extent": 8682.8949, 
			 "electric_dipole_moment_norm": 2.0460853208, 
			 "electric_quadrupole_moment_norm": 12.1841392355, 
			 "total_energy": -1022.86888133, 
			 "HOMO_LUMO_gap": 0.19467, 
			 "cosmo_polarized_energy": -12.9, 
			 "cosmo_cavitation_energy": 46.84, 
			 "cosmo_dispersion_energy": -33.06, 
			 "cosmo_repulsion_energy": 2.48, 
			 "cosmo_total_nonelectrostatic_energy": 16.26, 
			 "SMD_solvation_energy": 5.09 
		},
		"coords": [
			{
				"x": 3.7232744999,
				"y": -2.116463828,
				"z": -2.7660339594,
				"element": "O" 
			},
			{
				"x": 2.7097993321,
				"y": -1.3653070969,
				"z": -2.2329101614,
				"element": "C" 
			},
			{
				"x": 2.7096294021,
				"y": -1.1819432274,
				"z": -0.8492186196,
				"element": "C" 
			},
			{
				"x": 1.7173374019,
				"y": -0.4264088586,
				"z": -0.2129954951,
				"element": "C" 
			},
			{
				"x": 0.6924749025,
				"y": 0.1508349707,
				"z": -0.9955917805,
				"element": "C" 
			},
			{
				"x": -0.413669385,
				"y": 1.0077500825,
				"z": -0.4013134234,
				"element": "C" 
			},
			{
				"x": -0.4251606523,
				"y": 1.0731672642,
				"z": 1.144208506,
				"element": "C" 
			},
			{
				"x": -1.26665703,
				"y": -0.0050812822,
				"z": 1.7113049245,
				"element": "N" 
			},
			{
				"x": -2.4834872536,
				"y": 0.4611415262,
				"z": 2.3674346822,
				"element": "C" 
			},
			{
				"x": -3.5508361338,
				"y": 1.0342619823,
				"z": 1.4347810549,
				"element": "C" 
			},
			{
				"x": -3.493716445,
				"y": 2.5063572429,
				"z": 0.9240336727,
				"element": "C" 
			},
			{
				"x": -5.0309548982,
				"y": 2.5904896972,
				"z": 1.1099815247,
				"element": "C" 
			},
			{
				"x": -4.9358847849,
				"y": 1.3676326366,
				"z": 2.0591438212,
				"element": "C" 
			},
			{
				"x": -0.5740482493,
				"y": -1.0331733925,
				"z": 2.4959453554,
				"element": "C" 
			},
			{
				"x": 0.7043007164,
				"y": -1.4965117368,
				"z": 1.7965842891,
				"element": "C" 
			},
			{
				"x": 1.6495455208,
				"y": -0.3249351533,
				"z": 1.3253150443,
				"element": "C" 
			},
			{
				"x": 3.0198947221,
				"y": -0.4219112812,
				"z": 2.053621319,
				"element": "C" 
			},
			{
				"x": 3.8305977866,
				"y": 0.8997995965,
				"z": 2.0955485412,
				"element": "C" 
			},
			{
				"x": 3.3861384267,
				"y": 1.8989428178,
				"z": 1.020939825,
				"element": "C" 
			},
			{
				"x": 1.8812603405,
				"y": 2.2268199696,
				"z": 1.1246676031,
				"element": "C" 
			},
			{
				"x": 1.0229765623,
				"y": 1.0507432914,
				"z": 1.6779360504,
				"element": "C" 
			},
			{
				"x": 1.0233995004,
				"y": 1.1372707173,
				"z": 3.1147548337,
				"element": "O" 
			},
			{
				"x": 0.7099998128,
				"y": -0.0462579436,
				"z": -2.3812728946,
				"element": "C" 
			},
			{
				"x": 1.7011173892,
				"y": -0.7930999409,
				"z": -3.0111619073,
				"element": "C" 
			},
			{
				"x": 3.6030104521,
				"y": -2.1696420344,
				"z": -3.7227830412,
				"element": "H" 
			},
			{
				"x": 3.5087407721,
				"y": -1.6521232132,
				"z": -0.2890352593,
				"element": "H" 
			},
			{
				"x": -0.3284536122,
				"y": 2.023651136,
				"z": -0.8109881511,
				"element": "H" 
			},
			{
				"x": -1.3882152401,
				"y": 0.6299393032,
				"z": -0.7259781138,
				"element": "H" 
			},
			{
				"x": -0.8635181492,
				"y": 2.0390755887,
				"z": 1.4359215316,
				"element": "H" 
			},
			{
				"x": -2.2708608036,
				"y": 1.2002350839,
				"z": 3.1689710805,
				"element": "H" 
			},
			{
				"x": -2.9277765302,
				"y": -0.4073636226,
				"z": 2.8710080491,
				"element": "H" 
			},
			{
				"x": -3.6779034111,
				"y": 0.3495670504,
				"z": 0.5878999883,
				"element": "H" 
			},
			{
				"x": -2.9748847959,
				"y": 3.1533190153,
				"z": 1.641405896,
				"element": "H" 
			},
			{
				"x": -3.0839128126,
				"y": 2.6936723198,
				"z": -0.0729806439,
				"element": "H" 
			},
			{
				"x": -5.4463767153,
				"y": 3.5191081881,
				"z": 1.5121436796,
				"element": "H" 
			},
			{
				"x": -5.5639478971,
				"y": 2.3433639553,
				"z": 0.1862939979,
				"element": "H" 
			},
			{
				"x": -5.7177843713,
				"y": 0.6040242141,
				"z": 2.0029495269,
				"element": "H" 
			},
			{
				"x": -4.8313883916,
				"y": 1.6812671405,
				"z": 3.1047508405,
				"element": "H" 
			},
			{
				"x": -1.252683473,
				"y": -1.8919904262,
				"z": 2.5823592098,
				"element": "H" 
			},
			{
				"x": -0.3401533106,
				"y": -0.6950370701,
				"z": 3.5153705539,
				"element": "H" 
			},
			{
				"x": 0.4225824925,
				"y": -2.0959715286,
				"z": 0.9264358466,
				"element": "H" 
			},
			{
				"x": 1.251975719,
				"y": -2.16203429,
				"z": 2.4724427853,
				"element": "H" 
			},
			{
				"x": 3.6130408516,
				"y": -1.2280669875,
				"z": 1.6126039519,
				"element": "H" 
			},
			{
				"x": 2.8153615878,
				"y": -0.7323708399,
				"z": 3.080986608,
				"element": "H" 
			},
			{
				"x": 3.6963913422,
				"y": 1.3617326154,
				"z": 3.0792057873,
				"element": "H" 
			},
			{
				"x": 4.9007406496,
				"y": 0.6899521238,
				"z": 1.9872769892,
				"element": "H" 
			},
			{
				"x": 3.9696198481,
				"y": 2.8236827035,
				"z": 1.0992416629,
				"element": "H" 
			},
			{
				"x": 3.598548126,
				"y": 1.4835760744,
				"z": 0.0305056242,
				"element": "H" 
			},
			{
				"x": 1.7296689011,
				"y": 3.0712911815,
				"z": 1.8101959533,
				"element": "H" 
			},
			{
				"x": 1.5201426652,
				"y": 2.5609632404,
				"z": 0.1492306911,
				"element": "H" 
			},
			{
				"x": 0.5998762074,
				"y": 1.9733982286,
				"z": 3.3509768908,
				"element": "H" 
			},
			{
				"x": -0.0766815042,
				"y": 0.4004678436,
				"z": -2.9855836403,
				"element": "H" 
			},
			{
				"x": 1.6894099191,
				"y": -0.9295050479,
				"z": -4.0906311013,
				"element": "H" 
			}
		],
		 "valence_orbital": [ 
			{
				"type": "occ",
				"energy": -0.27317,
				"method": "rhf"
			},
			{
				"type": "occ",
				"energy": -0.25854,
				"method": "rhf"
			},
			{
				"type": "occ",
				"energy": -0.23555,
				"method": "rhf"
			},
			{
				"type": "occ",
				"energy": -0.2073,
				"method": "rhf"
			},
			{
				"type": "occ",
				"energy": -0.19156,
				"method": "rhf"
			},
			{
				"type": "unocc",
				"energy": 0.00311,
				"method": "rhf"
			},
			{
				"type": "unocc",
				"energy": 0.01846,
				"method": "rhf"
			},
			{
				"type": "unocc",
				"energy": 0.06472,
				"method": "rhf"
			},
			{
				"type": "unocc",
				"energy": 0.07609,
				"method": "rhf"
			},
			{
				"type": "unocc",
				"energy": 0.08762,
				"method": "rhf"
			}
		],
		"cosmo_sigma_profile": { 
			"-0.025": 0.0,
			"-0.024": 0.0,
			"-0.023": 0.0,
			"-0.022": 0.0,
			"-0.021": 0.0,
			"-0.02": 0.0,
			"-0.019": 0.0,
			"-0.018": 0.0462396579741,
			"-0.017": 0.809629784053,
			"-0.016": 1.23995595413,
			"-0.015": 0.884812189376,
			"-0.014": 1.69097839269,
			"-0.013": 2.35075897907,
			"-0.012": 1.44580871561,
			"-0.011": 1.63015007538,
			"-0.01": 2.61639182652,
			"-0.009": 2.14370742841,
			"-0.008": 1.74552079819,
			"-0.007": 2.31085621327,
			"-0.006": 3.70136918261,
			"-0.005": 6.82274083562,
			"-0.004": 9.3024004472,
			"-0.003": 22.1143561486,
			"-0.002": 46.6125522554,
			"-0.001": 55.2438499551,
			"0.0": 55.8957445831,
			"0.001": 47.3124876398,
			"0.002": 25.0852342737,
			"0.003": 14.254126755,
			"0.004": 11.4588755187,
			"0.005": 11.3086319437,
			"0.006": 9.67032112263,
			"0.007": 6.19331540628,
			"0.008": 3.8664092274,
			"0.009": 2.81484066736,
			"0.01": 3.86698735499,
			"0.011": 2.59014493002,
			"0.012": 3.34804471554,
			"0.013": 0.916197699625,
			"0.014": 0.10454405298,
			"0.015": 0.0,
			"0.016": 0.0,
			"0.017": 0.0,
			"0.018": 0.0,
			"0.019": 0.0,
			"0.02": 0.0,
			"0.021": 0.0,
			"0.022": 0.0,
			"0.023": 0.0,
			"0.024": 0.0,
			"0.025": 0.0
		}
	}
}
