{
	 "smiles": "NC1=CC(=CC=C1)S(=O)(=O)NC1=CNN=C1", 
	 "Tm": 468.15, 
	 "num_atms": 26, 
	 "gaussian": { 
		 "optdone": 1, 
		 "sigma_profile": "yes", 
		 "theory": "DFT", 
		 "functional": "B3LYP", 
		 "basiset": "6-31G**", 
		 "properties": { 
			 "R2extent": 3917.8263, 
			 "electric_dipole_moment_norm": 5.44357131762, 
			 "electric_quadrupole_moment_norm": 18.6581454033, 
			 "total_energy": -1116.52755888, 
			 "HOMO_LUMO_gap": 0.18514, 
			 "cosmo_polarized_energy": -24.95, 
			 "cosmo_cavitation_energy": 32.25, 
			 "cosmo_dispersion_energy": -22.9, 
			 "cosmo_repulsion_energy": 1.76, 
			 "cosmo_total_nonelectrostatic_energy": 11.11, 
			 "SMD_solvation_energy": 4.09 
		},
		"coords": [
			{
				"x": -2.7452549156,
				"y": 1.2903247006,
				"z": -1.3020846514,
				"element": "N" 
			},
			{
				"x": -1.8421426075,
				"y": 0.2521196138,
				"z": -1.5008515555,
				"element": "C" 
			},
			{
				"x": -0.5706608458,
				"y": 0.2876387954,
				"z": -0.9025025397,
				"element": "C" 
			},
			{
				"x": 0.3369534152,
				"y": -0.737454129,
				"z": -1.1603397581,
				"element": "C" 
			},
			{
				"x": 0.0361279111,
				"y": -1.8087814366,
				"z": -2.0043989769,
				"element": "C" 
			},
			{
				"x": -1.2262333112,
				"y": -1.8322194787,
				"z": -2.5992977897,
				"element": "C" 
			},
			{
				"x": -2.155323234,
				"y": -0.8251893379,
				"z": -2.3511001796,
				"element": "C" 
			},
			{
				"x": 1.9253984603,
				"y": -0.7117323363,
				"z": -0.3239799467,
				"element": "S" 
			},
			{
				"x": 2.8299434816,
				"y": -1.6150448151,
				"z": -1.0354376542,
				"element": "O" 
			},
			{
				"x": 2.2634181176,
				"y": 0.6821090325,
				"z": -0.0336179332,
				"element": "O" 
			},
			{
				"x": 1.6898160235,
				"y": -1.4576520891,
				"z": 1.1896139284,
				"element": "N" 
			},
			{
				"x": 0.8669123802,
				"y": -0.8579331464,
				"z": 2.1666934948,
				"element": "C" 
			},
			{
				"x": 1.1513631847,
				"y": 0.2993298619,
				"z": 2.8746350905,
				"element": "C" 
			},
			{
				"x": 0.0919441863,
				"y": 0.4930298013,
				"z": 3.6986086202,
				"element": "N" 
			},
			{
				"x": -0.8564941653,
				"y": -0.4637325013,
				"z": 3.5985841622,
				"element": "N" 
			},
			{
				"x": -0.3956170601,
				"y": -1.2817693912,
				"z": 2.6552519104,
				"element": "C" 
			},
			{
				"x": -2.6108398812,
				"y": 1.8364266325,
				"z": -0.4630941199,
				"element": "H" 
			},
			{
				"x": -3.7163608906,
				"y": 1.067870752,
				"z": -1.4681186183,
				"element": "H" 
			},
			{
				"x": -0.2830018573,
				"y": 1.1161287857,
				"z": -0.2643104054,
				"element": "H" 
			},
			{
				"x": 0.7761373837,
				"y": -2.5749473473,
				"z": -2.2021283362,
				"element": "H" 
			},
			{
				"x": -1.4899264784,
				"y": -2.6454840557,
				"z": -3.2691459928,
				"element": "H" 
			},
			{
				"x": -3.1321583831,
				"y": -0.860006544,
				"z": -2.8268391862,
				"element": "H" 
			},
			{
				"x": 1.5952254827,
				"y": -2.4619556388,
				"z": 1.0808170049,
				"element": "H" 
			},
			{
				"x": 1.995540435,
				"y": 0.9686690565,
				"z": 2.8217817218,
				"element": "H" 
			},
			{
				"x": -0.0401680616,
				"y": 1.2418694224,
				"z": 4.3602881832,
				"element": "H" 
			},
			{
				"x": -0.9679987703,
				"y": -2.1532142073,
				"z": 2.3652735273,
				"element": "H" 
			}
		],
		 "valence_orbital": [ 
			{
				"type": "occ",
				"energy": -0.29022,
				"method": "rhf"
			},
			{
				"type": "occ",
				"energy": -0.2664,
				"method": "rhf"
			},
			{
				"type": "occ",
				"energy": -0.26505,
				"method": "rhf"
			},
			{
				"type": "occ",
				"energy": -0.23452,
				"method": "rhf"
			},
			{
				"type": "occ",
				"energy": -0.21806,
				"method": "rhf"
			},
			{
				"type": "unocc",
				"energy": -0.03292,
				"method": "rhf"
			},
			{
				"type": "unocc",
				"energy": -0.00317,
				"method": "rhf"
			},
			{
				"type": "unocc",
				"energy": 0.00884,
				"method": "rhf"
			},
			{
				"type": "unocc",
				"energy": 0.04234,
				"method": "rhf"
			},
			{
				"type": "unocc",
				"energy": 0.06589,
				"method": "rhf"
			}
		],
		"cosmo_sigma_profile": { 
			"-0.025": 0.0,
			"-0.024": 0.0,
			"-0.023": 0.0,
			"-0.022": 0.0,
			"-0.021": 0.0,
			"-0.02": 0.0,
			"-0.019": 0.0,
			"-0.018": 0.0,
			"-0.017": 0.774186050819,
			"-0.016": 2.17230270771,
			"-0.015": 2.4712707126,
			"-0.014": 2.14697773249,
			"-0.013": 4.07221432469,
			"-0.012": 5.1623793195,
			"-0.011": 4.26480921562,
			"-0.01": 6.99044037376,
			"-0.009": 6.61285072142,
			"-0.008": 8.10241692217,
			"-0.007": 8.97825220423,
			"-0.006": 10.6068002327,
			"-0.005": 11.5942304105,
			"-0.004": 10.7077123565,
			"-0.003": 8.96933404166,
			"-0.002": 9.44006949733,
			"-0.001": 9.89712675029,
			"0.0": 11.1964904595,
			"0.001": 11.6199933995,
			"0.002": 16.1736721367,
			"0.003": 20.1452145164,
			"0.004": 20.6624899722,
			"0.005": 10.3386722463,
			"0.006": 6.2244739249,
			"0.007": 7.83180749634,
			"0.008": 6.16462035087,
			"0.009": 5.43611173666,
			"0.01": 9.13124674616,
			"0.011": 10.1376285168,
			"0.012": 5.24017563838,
			"0.013": 1.51797670521,
			"0.014": 1.08222162011,
			"0.015": 1.14150342623,
			"0.016": 0.368423016599,
			"0.017": 0.0,
			"0.018": 0.0,
			"0.019": 0.0,
			"0.02": 0.0,
			"0.021": 0.0,
			"0.022": 0.0,
			"0.023": 0.0,
			"0.024": 0.0,
			"0.025": 0.0
		}
	}
}
