{
	 "smiles": "CC(C)CN1C(=O)C(=O)C2=C1C=CC=C2", 
	 "Tm": 356.15, 
	 "num_atms": 28, 
	 "gaussian": { 
		 "optdone": 1, 
		 "sigma_profile": "yes", 
		 "theory": "DFT", 
		 "functional": "B3LYP", 
		 "basiset": "6-31G**", 
		 "properties": { 
			 "R2extent": 3516.7271, 
			 "electric_dipole_moment_norm": 5.7486461093, 
			 "electric_quadrupole_moment_norm": 11.1449927936, 
			 "total_energy": -670.325717361, 
			 "HOMO_LUMO_gap": 0.13659, 
			 "cosmo_polarized_energy": -12.97, 
			 "cosmo_cavitation_energy": 30.89, 
			 "cosmo_dispersion_energy": -21.69, 
			 "cosmo_repulsion_energy": 1.67, 
			 "cosmo_total_nonelectrostatic_energy": 10.87, 
			 "SMD_solvation_energy": 6.38 
		},
		"coords": [
			{
				"x": 1.5146052302,
				"y": -0.3870271072,
				"z": -2.7849365574,
				"element": "C" 
			},
			{
				"x": 0.2300830458,
				"y": -1.0038002273,
				"z": -2.2138467845,
				"element": "C" 
			},
			{
				"x": 0.5407393402,
				"y": -2.2299275566,
				"z": -1.3436477586,
				"element": "C" 
			},
			{
				"x": -0.6632358199,
				"y": 0.0214580607,
				"z": -1.4796188669,
				"element": "C" 
			},
			{
				"x": -0.1316114399,
				"y": 0.5484023885,
				"z": -0.2223813295,
				"element": "N" 
			},
			{
				"x": -0.4849425266,
				"y": 0.0095452756,
				"z": 1.0103899593,
				"element": "C" 
			},
			{
				"x": -1.1772109564,
				"y": -0.9688655198,
				"z": 1.1972456432,
				"element": "O" 
			},
			{
				"x": 0.1676628545,
				"y": 0.9326385447,
				"z": 2.0902710187,
				"element": "C" 
			},
			{
				"x": 0.1004440685,
				"y": 0.7476508891,
				"z": 3.286457944,
				"element": "O" 
			},
			{
				"x": 0.8176257815,
				"y": 2.0020434777,
				"z": 1.3221370956,
				"element": "C" 
			},
			{
				"x": 0.6008867661,
				"y": 1.7406042735,
				"z": -0.0478702172,
				"element": "C" 
			},
			{
				"x": 1.0784203962,
				"y": 2.6205485782,
				"z": -1.0143243242,
				"element": "C" 
			},
			{
				"x": 1.7789243481,
				"y": 3.7542048127,
				"z": -0.5780802565,
				"element": "C" 
			},
			{
				"x": 2.0051026356,
				"y": 4.0136578253,
				"z": 0.7783492852,
				"element": "C" 
			},
			{
				"x": 1.5180486385,
				"y": 3.1280091813,
				"z": 1.7425880258,
				"element": "C" 
			},
			{
				"x": 2.0829157065,
				"y": -1.1362340684,
				"z": -3.3457671008,
				"element": "H" 
			},
			{
				"x": 2.1656512675,
				"y": -0.0093269778,
				"z": -1.9892543376,
				"element": "H" 
			},
			{
				"x": 1.2983499232,
				"y": 0.4414167691,
				"z": -3.469233405,
				"element": "H" 
			},
			{
				"x": -0.3837326918,
				"y": -1.3396321228,
				"z": -3.0628152433,
				"element": "H" 
			},
			{
				"x": -0.3683304316,
				"y": -2.6703672852,
				"z": -0.9256497605,
				"element": "H" 
			},
			{
				"x": 1.0583528001,
				"y": -2.994242935,
				"z": -1.9324619729,
				"element": "H" 
			},
			{
				"x": 1.1921378266,
				"y": -1.9627201933,
				"z": -0.5046985531,
				"element": "H" 
			},
			{
				"x": -0.8847018628,
				"y": 0.8703596237,
				"z": -2.1362152801,
				"element": "H" 
			},
			{
				"x": -1.6123062188,
				"y": -0.4575695617,
				"z": -1.2207639612,
				"element": "H" 
			},
			{
				"x": 0.9258822645,
				"y": 2.4436494024,
				"z": -2.0722329545,
				"element": "H" 
			},
			{
				"x": 2.1580783551,
				"y": 4.4488097457,
				"z": -1.3223919984,
				"element": "H" 
			},
			{
				"x": 2.5546867994,
				"y": 4.900666962,
				"z": 1.0756690978,
				"element": "H" 
			},
			{
				"x": 1.6675738997,
				"y": 3.3011477452,
				"z": 2.8040825928,
				"element": "H" 
			}
		],
		 "valence_orbital": [ 
			{
				"type": "occ",
				"energy": -0.31334,
				"method": "rhf"
			},
			{
				"type": "occ",
				"energy": -0.30535,
				"method": "rhf"
			},
			{
				"type": "occ",
				"energy": -0.27542,
				"method": "rhf"
			},
			{
				"type": "occ",
				"energy": -0.24355,
				"method": "rhf"
			},
			{
				"type": "occ",
				"energy": -0.23139,
				"method": "rhf"
			},
			{
				"type": "unocc",
				"energy": -0.0948,
				"method": "rhf"
			},
			{
				"type": "unocc",
				"energy": -0.01992,
				"method": "rhf"
			},
			{
				"type": "unocc",
				"energy": 0.00783,
				"method": "rhf"
			},
			{
				"type": "unocc",
				"energy": 0.06564,
				"method": "rhf"
			},
			{
				"type": "unocc",
				"energy": 0.0858,
				"method": "rhf"
			}
		],
		"cosmo_sigma_profile": { 
			"-0.025": 0.0,
			"-0.024": 0.0,
			"-0.023": 0.0,
			"-0.022": 0.0,
			"-0.021": 0.0,
			"-0.02": 0.0,
			"-0.019": 0.0,
			"-0.018": 0.0,
			"-0.017": 0.0,
			"-0.016": 0.0,
			"-0.015": 0.0,
			"-0.014": 0.0,
			"-0.013": 0.0,
			"-0.012": 0.0,
			"-0.011": 0.0,
			"-0.01": 0.0,
			"-0.009": 0.0,
			"-0.008": 0.661008104587,
			"-0.007": 8.75850655377,
			"-0.006": 13.4199097189,
			"-0.005": 15.6412222631,
			"-0.004": 16.202747124,
			"-0.003": 25.5093299762,
			"-0.002": 27.8414601291,
			"-0.001": 22.5085717258,
			"0.0": 21.1126439522,
			"0.001": 23.5477478401,
			"0.002": 16.148465391,
			"0.003": 11.4056290425,
			"0.004": 5.77503462153,
			"0.005": 2.78000547916,
			"0.006": 2.68064979525,
			"0.007": 3.0653242651,
			"0.008": 3.77135706506,
			"0.009": 4.25341572872,
			"0.01": 7.01655360388,
			"0.011": 7.6873411562,
			"0.012": 3.96436050808,
			"0.013": 0.763334470766,
			"0.014": 0.0,
			"0.015": 0.0,
			"0.016": 0.0,
			"0.017": 0.0,
			"0.018": 0.0,
			"0.019": 0.0,
			"0.02": 0.0,
			"0.021": 0.0,
			"0.022": 0.0,
			"0.023": 0.0,
			"0.024": 0.0,
			"0.0": 0.0
		}
	}
}
