{
	 "smiles": "CS(=O)(=O)CCOC1=CC(N)=CC=C1", 
	 "Tm": 353.15, 
	 "num_atms": 27, 
	 "gaussian": { 
		 "optdone": 1, 
		 "sigma_profile": "yes", 
		 "theory": "DFT", 
		 "functional": "B3LYP", 
		 "basiset": "6-31G**", 
		 "properties": { 
			 "R2extent": 4529.0595, 
			 "electric_dipole_moment_norm": 5.77301141087, 
			 "electric_quadrupole_moment_norm": 28.1708336467, 
			 "total_energy": -1029.32949265, 
			 "HOMO_LUMO_gap": 0.20536, 
			 "cosmo_polarized_energy": -22.8, 
			 "cosmo_cavitation_energy": 31.2, 
			 "cosmo_dispersion_energy": -23.04, 
			 "cosmo_repulsion_energy": 1.77, 
			 "cosmo_total_nonelectrostatic_energy": 9.93, 
			 "SMD_solvation_energy": 4.95 
		},
		"coords": [
			{
				"x": -1.5711643906,
				"y": -0.4579332454,
				"z": -3.34884417,
				"element": "C" 
			},
			{
				"x": -2.287303978,
				"y": -0.4181352127,
				"z": -1.6905896475,
				"element": "S" 
			},
			{
				"x": -1.7443311921,
				"y": 0.7677520288,
				"z": -1.0074445951,
				"element": "O" 
			},
			{
				"x": -3.7436655347,
				"y": -0.5896228467,
				"z": -1.8188682312,
				"element": "O" 
			},
			{
				"x": -1.6498096293,
				"y": -1.9170950722,
				"z": -0.8428385939,
				"element": "C" 
			},
			{
				"x": -0.284556866,
				"y": -2.4354086463,
				"z": -1.3012220796,
				"element": "C" 
			},
			{
				"x": 0.7480224034,
				"y": -1.4612560377,
				"z": -1.2471745338,
				"element": "O" 
			},
			{
				"x": 1.3259027434,
				"y": -1.2482424368,
				"z": 0.0023868622,
				"element": "C" 
			},
			{
				"x": 2.2346958915,
				"y": -2.1857029671,
				"z": 0.4944356355,
				"element": "C" 
			},
			{
				"x": 2.8658542316,
				"y": -1.9686136355,
				"z": 1.7300526733,
				"element": "C" 
			},
			{
				"x": 3.824002897,
				"y": -2.866207809,
				"z": 2.2045174758,
				"element": "N" 
			},
			{
				"x": 2.5638465032,
				"y": -0.7954508338,
				"z": 2.4454837081,
				"element": "C" 
			},
			{
				"x": 1.6593273941,
				"y": 0.1287782489,
				"z": 1.9299710281,
				"element": "C" 
			},
			{
				"x": 1.0222246889,
				"y": -0.0820578036,
				"z": 0.7042829958,
				"element": "C" 
			},
			{
				"x": -0.4847569848,
				"y": -0.4125197583,
				"z": -3.2678113219,
				"element": "H" 
			},
			{
				"x": -1.956193252,
				"y": 0.4336055296,
				"z": -3.8473086181,
				"element": "H" 
			},
			{
				"x": -1.9058129926,
				"y": -1.3528269825,
				"z": -3.8764914081,
				"element": "H" 
			},
			{
				"x": -1.6301410791,
				"y": -1.6208327694,
				"z": 0.2098451086,
				"element": "H" 
			},
			{
				"x": -2.4136422266,
				"y": -2.6861957854,
				"z": -0.9853000613,
				"element": "H" 
			},
			{
				"x": -0.0318784218,
				"y": -3.3087277569,
				"z": -0.6845376819,
				"element": "H" 
			},
			{
				"x": -0.3309085211,
				"y": -2.7702568108,
				"z": -2.3418633637,
				"element": "H" 
			},
			{
				"x": 2.4727886318,
				"y": -3.064780243,
				"z": -0.0986182413,
				"element": "H" 
			},
			{
				"x": 3.7382544645,
				"y": -3.8133297507,
				"z": 1.8630709343,
				"element": "H" 
			},
			{
				"x": 3.9835558634,
				"y": -2.8366883044,
				"z": 3.201908124,
				"element": "H" 
			},
			{
				"x": 3.0506201157,
				"y": -0.6109436658,
				"z": 3.3997510005,
				"element": "H" 
			},
			{
				"x": 1.4394436068,
				"y": 1.0289276047,
				"z": 2.4970181607,
				"element": "H" 
			},
			{
				"x": 0.3061256334,
				"y": 0.6200649621,
				"z": 0.2931888402,
				"element": "H" 
			}
		],
		 "valence_orbital": [ 
			{
				"type": "occ",
				"energy": -0.29003,
				"method": "rhf"
			},
			{
				"type": "occ",
				"energy": -0.2872,
				"method": "rhf"
			},
			{
				"type": "occ",
				"energy": -0.27711,
				"method": "rhf"
			},
			{
				"type": "occ",
				"energy": -0.24081,
				"method": "rhf"
			},
			{
				"type": "occ",
				"energy": -0.20536,
				"method": "rhf"
			},
			{
				"type": "unocc",
				"energy": -0.0,
				"method": "rhf"
			},
			{
				"type": "unocc",
				"energy": 0.01624,
				"method": "rhf"
			},
			{
				"type": "unocc",
				"energy": 0.05943,
				"method": "rhf"
			},
			{
				"type": "unocc",
				"energy": 0.06724,
				"method": "rhf"
			},
			{
				"type": "unocc",
				"energy": 0.0747,
				"method": "rhf"
			}
		],
		"cosmo_sigma_profile": { 
			"-0.025": 0.0,
			"-0.024": 0.0,
			"-0.023": 0.0,
			"-0.022": 0.0,
			"-0.021": 0.0,
			"-0.02": 0.0,
			"-0.019": 0.0,
			"-0.018": 0.0,
			"-0.017": 0.0,
			"-0.016": 0.0,
			"-0.015": 0.0,
			"-0.014": 0.0,
			"-0.013": 0.374455090935,
			"-0.012": 2.46878200292,
			"-0.011": 3.54213183213,
			"-0.01": 3.65585593378,
			"-0.009": 8.21795834652,
			"-0.008": 10.4932852697,
			"-0.007": 14.1326034213,
			"-0.006": 18.5136005806,
			"-0.005": 19.2688113437,
			"-0.004": 16.1425189726,
			"-0.003": 14.1530105015,
			"-0.002": 10.0647916268,
			"-0.001": 7.82594924232,
			"0.0": 8.35520541128,
			"0.001": 8.54300200713,
			"0.002": 8.00994150531,
			"0.003": 8.83958769365,
			"0.004": 11.7532522545,
			"0.005": 13.2858626612,
			"0.006": 13.07769284,
			"0.007": 7.32729115373,
			"0.008": 6.01547385994,
			"0.009": 4.73101490592,
			"0.01": 5.52448849555,
			"0.011": 6.49080972019,
			"0.012": 10.4732855346,
			"0.013": 4.23916974065,
			"0.014": 0.899809241626,
			"0.015": 0.0524540781023,
			"0.016": 0.0,
			"0.017": 0.0,
			"0.018": 0.0,
			"0.019": 0.0,
			"0.02": 0.0,
			"0.021": 0.0,
			"0.022": 0.0,
			"0.023": 0.0,
			"0.024": 0.0,
			"0.025": 0.0
		}
	}
}
