{
	 "smiles": "NC1=CN=C2C=CC=CC2=C1N", 
	 "Tm": 457.15, 
	 "num_atms": 21, 
	 "gaussian": { 
		 "optdone": 1, 
		 "sigma_profile": "yes", 
		 "theory": "DFT", 
		 "functional": "B3LYP", 
		 "basiset": "6-31G**", 
		 "properties": { 
			 "R2extent": 2968.4699, 
			 "electric_dipole_moment_norm": 3.16641465541, 
			 "electric_quadrupole_moment_norm": 14.826221951, 
			 "total_energy": -512.649385067, 
			 "HOMO_LUMO_gap": 0.15961, 
			 "cosmo_polarized_energy": -14.5, 
			 "cosmo_cavitation_energy": 24.2, 
			 "cosmo_dispersion_energy": -18.56, 
			 "cosmo_repulsion_energy": 1.45, 
			 "cosmo_total_nonelectrostatic_energy": 7.1, 
			 "SMD_solvation_energy": 2.37 
		},
		"coords": [
			{
				"x": 1.998695893,
				"y": 1.7572558077,
				"z": 3.1275268037,
				"element": "N" 
			},
			{
				"x": 1.0280441139,
				"y": 1.998643265,
				"z": 2.1220365866,
				"element": "C" 
			},
			{
				"x": 0.6809939953,
				"y": 3.2980877072,
				"z": 1.6937587999,
				"element": "C" 
			},
			{
				"x": -0.2474061225,
				"y": 3.5837857016,
				"z": 0.8016591289,
				"element": "N" 
			},
			{
				"x": -0.8949742477,
				"y": 2.5319259092,
				"z": 0.2236009003,
				"element": "C" 
			},
			{
				"x": -1.8799920622,
				"y": 2.8127949622,
				"z": -0.7607910692,
				"element": "C" 
			},
			{
				"x": -2.5678859744,
				"y": 1.7977622072,
				"z": -1.3860463967,
				"element": "C" 
			},
			{
				"x": -2.2960046572,
				"y": 0.4478659724,
				"z": -1.0576777466,
				"element": "C" 
			},
			{
				"x": -1.3480425465,
				"y": 0.1397369081,
				"z": -0.1064550105,
				"element": "C" 
			},
			{
				"x": -0.6287887413,
				"y": 1.1653047058,
				"z": 0.5644038688,
				"element": "C" 
			},
			{
				"x": 0.3452489997,
				"y": 0.9112529122,
				"z": 1.5774374369,
				"element": "C" 
			},
			{
				"x": 0.6665396812,
				"y": -0.369097529,
				"z": 2.011867273,
				"element": "N" 
			},
			{
				"x": 2.3758738576,
				"y": 2.6180812338,
				"z": 3.5083627541,
				"element": "H" 
			},
			{
				"x": 2.7697877824,
				"y": 1.1880928451,
				"z": 2.786038463,
				"element": "H" 
			},
			{
				"x": 1.2061413837,
				"y": 4.1460518577,
				"z": 2.1399242727,
				"element": "H" 
			},
			{
				"x": -2.0603644907,
				"y": 3.8569084146,
				"z": -0.9957003802,
				"element": "H" 
			},
			{
				"x": -3.3174233674,
				"y": 2.0279702756,
				"z": -2.1377119926,
				"element": "H" 
			},
			{
				"x": -2.8325792769,
				"y": -0.349094467,
				"z": -1.5643596166,
				"element": "H" 
			},
			{
				"x": -1.1350982122,
				"y": -0.9040712361,
				"z": 0.1077183204,
				"element": "H" 
			},
			{
				"x": 1.0324202339,
				"y": -0.3692153495,
				"z": 2.9586889822,
				"element": "H" 
			},
			{
				"x": -0.0597862416,
				"y": -1.0607421038,
				"z": 1.8871186216,
				"element": "H" 
			}
		],
		 "valence_orbital": [ 
			{
				"type": "occ",
				"energy": -0.30088,
				"method": "rhf"
			},
			{
				"type": "occ",
				"energy": -0.25362,
				"method": "rhf"
			},
			{
				"type": "occ",
				"energy": -0.24319,
				"method": "rhf"
			},
			{
				"type": "occ",
				"energy": -0.22897,
				"method": "rhf"
			},
			{
				"type": "occ",
				"energy": -0.19329,
				"method": "rhf"
			},
			{
				"type": "unocc",
				"energy": -0.03368,
				"method": "rhf"
			},
			{
				"type": "unocc",
				"energy": -0.00039,
				"method": "rhf"
			},
			{
				"type": "unocc",
				"energy": 0.03893,
				"method": "rhf"
			},
			{
				"type": "unocc",
				"energy": 0.06458,
				"method": "rhf"
			},
			{
				"type": "unocc",
				"energy": 0.09061,
				"method": "rhf"
			}
		],
		"cosmo_sigma_profile": { 
			"-0.025": 0.0,
			"-0.024": 0.0,
			"-0.023": 0.0,
			"-0.022": 0.0,
			"-0.021": 0.0,
			"-0.02": 0.0,
			"-0.019": 0.0,
			"-0.018": 0.0,
			"-0.017": 0.0,
			"-0.016": 0.0,
			"-0.015": 0.0,
			"-0.014": 0.0,
			"-0.013": 1.01460264504,
			"-0.012": 3.28683537703,
			"-0.011": 4.5748831374,
			"-0.01": 5.66217924829,
			"-0.009": 6.045618049,
			"-0.008": 5.03524965039,
			"-0.007": 4.79221112545,
			"-0.006": 8.55638101982,
			"-0.005": 11.1951289947,
			"-0.004": 11.1320234966,
			"-0.003": 10.0610995475,
			"-0.002": 8.91058368472,
			"-0.001": 8.39341573845,
			"0.0": 7.77889683462,
			"0.001": 8.47097535354,
			"0.002": 11.2800197422,
			"0.003": 17.7096445872,
			"0.004": 15.9889085512,
			"0.005": 15.4522281646,
			"0.006": 6.35545514201,
			"0.007": 2.51321738535,
			"0.008": 2.81597958998,
			"0.009": 3.86103528697,
			"0.01": 1.59919899678,
			"0.011": 1.71722964936,
			"0.012": 2.79964945926,
			"0.013": 1.75460647418,
			"0.014": 1.50319613998,
			"0.015": 0.697771534835,
			"0.016": 0.933874487362,
			"0.017": 0.787933816533,
			"0.018": 0.176880352729,
			"0.019": 0.0,
			"0.02": 0.0,
			"0.021": 0.0,
			"0.022": 0.0,
			"0.023": 0.0,
			"0.024": 0.0,
			"0.025": 0.0
		}
	}
}
