{
	 "smiles": "CCOC(=O)C(=CNC1=CC(C)=NN1C)C(=O)OCC", 
	 "Tm": 359.65, 
	 "num_atms": 39, 
	 "gaussian": { 
		 "optdone": 1, 
		 "sigma_profile": "yes", 
		 "theory": "DFT", 
		 "functional": "B3LYP", 
		 "basiset": "6-31G**", 
		 "properties": { 
			 "R2extent": 6923.9975, 
			 "electric_dipole_moment_norm": 4.0243221305, 
			 "electric_quadrupole_moment_norm": 15.156195231, 
			 "total_energy": -971.979907548, 
			 "HOMO_LUMO_gap": 0.19416, 
			 "cosmo_polarized_energy": -21.32, 
			 "cosmo_cavitation_energy": 43.56, 
			 "cosmo_dispersion_energy": -28.78, 
			 "cosmo_repulsion_energy": 2.31, 
			 "cosmo_total_nonelectrostatic_energy": 17.09, 
			 "SMD_solvation_energy": 9.15 
		},
		"coords": [
			{
				"x": 0.892432013,
				"y": -2.9530162912,
				"z": -3.3099146725,
				"element": "C" 
			},
			{
				"x": 1.2988385708,
				"y": -2.2072053468,
				"z": -2.0532191851,
				"element": "C" 
			},
			{
				"x": 0.5429737874,
				"y": -0.975148688,
				"z": -2.0206021238,
				"element": "O" 
			},
			{
				"x": 0.8196187931,
				"y": -0.1442477246,
				"z": -1.003608253,
				"element": "C" 
			},
			{
				"x": 1.6015516196,
				"y": -0.4130106125,
				"z": -0.1097485463,
				"element": "O" 
			},
			{
				"x": 0.066649114,
				"y": 1.1430578201,
				"z": -1.1096557133,
				"element": "C" 
			},
			{
				"x": -0.6545254253,
				"y": 1.6816099211,
				"z": -0.0889359007,
				"element": "C" 
			},
			{
				"x": -0.9780934671,
				"y": 1.1560996566,
				"z": 1.1328467041,
				"element": "N" 
			},
			{
				"x": -0.930732551,
				"y": -0.2055295952,
				"z": 1.5001792205,
				"element": "C" 
			},
			{
				"x": -1.7161527408,
				"y": -1.2762508128,
				"z": 1.1092626893,
				"element": "C" 
			},
			{
				"x": -1.2250417208,
				"y": -2.36895199,
				"z": 1.860323705,
				"element": "C" 
			},
			{
				"x": -1.6992688669,
				"y": -3.7908358287,
				"z": 1.8685193933,
				"element": "C" 
			},
			{
				"x": -0.217723231,
				"y": -1.9896236244,
				"z": 2.6542668353,
				"element": "N" 
			},
			{
				"x": -0.0543382145,
				"y": -0.6687027182,
				"z": 2.4345873911,
				"element": "N" 
			},
			{
				"x": 1.0781890123,
				"y": 0.0322151954,
				"z": 3.0148858329,
				"element": "C" 
			},
			{
				"x": 0.2576999323,
				"y": 1.9108384345,
				"z": -2.3564706629,
				"element": "C" 
			},
			{
				"x": 1.045747344,
				"y": 1.617793146,
				"z": -3.2358536255,
				"element": "O" 
			},
			{
				"x": -0.5343076447,
				"y": 3.0191393408,
				"z": -2.4228867422,
				"element": "O" 
			},
			{
				"x": -0.3341708106,
				"y": 3.8536593961,
				"z": -3.5823585134,
				"element": "C" 
			},
			{
				"x": -1.2929070957,
				"y": 5.0247411469,
				"z": -3.4724758397,
				"element": "C" 
			},
			{
				"x": 1.1100851223,
				"y": -2.3575352565,
				"z": -4.2008177131,
				"element": "H" 
			},
			{
				"x": -0.1774359549,
				"y": -3.1813466387,
				"z": -3.3012224304,
				"element": "H" 
			},
			{
				"x": 1.4450923003,
				"y": -3.8954292782,
				"z": -3.3781981237,
				"element": "H" 
			},
			{
				"x": 2.3660148693,
				"y": -1.9651508298,
				"z": -2.0453889795,
				"element": "H" 
			},
			{
				"x": 1.0818891743,
				"y": -2.7766600816,
				"z": -1.143675632,
				"element": "H" 
			},
			{
				"x": -1.0553951205,
				"y": 2.6783084888,
				"z": -0.2413789832,
				"element": "H" 
			},
			{
				"x": -1.5672428921,
				"y": 1.7458975197,
				"z": 1.7044585518,
				"element": "H" 
			},
			{
				"x": -2.5281265919,
				"y": -1.257707179,
				"z": 0.3972332514,
				"element": "H" 
			},
			{
				"x": -2.7388947253,
				"y": -3.8684468272,
				"z": 2.2068578273,
				"element": "H" 
			},
			{
				"x": -1.0749132038,
				"y": -4.3817734291,
				"z": 2.5424406626,
				"element": "H" 
			},
			{
				"x": -1.6478906652,
				"y": -4.2369929778,
				"z": 0.8691745898,
				"element": "H" 
			},
			{
				"x": 1.8578326957,
				"y": 0.160329494,
				"z": 2.2599118617,
				"element": "H" 
			},
			{
				"x": 0.7665322788,
				"y": 1.0103030202,
				"z": 3.3899276477,
				"element": "H" 
			},
			{
				"x": 1.4445848222,
				"y": -0.5769975302,
				"z": 3.8403294465,
				"element": "H" 
			},
			{
				"x": -0.5155386342,
				"y": 3.2590114663,
				"z": -4.4831076518,
				"element": "H" 
			},
			{
				"x": 0.7103745489,
				"y": 4.180597911,
				"z": -3.6130123454,
				"element": "H" 
			},
			{
				"x": -1.0971433789,
				"y": 5.6091090908,
				"z": -2.5683251227,
				"element": "H" 
			},
			{
				"x": -1.175820458,
				"y": 5.6840740911,
				"z": -4.3382272012,
				"element": "H" 
			},
			{
				"x": -2.3306426053,
				"y": 4.6796781209,
				"z": -3.441921649,
				"element": "H" 
			}
		],
		 "valence_orbital": [ 
			{
				"type": "occ",
				"energy": -0.26711,
				"method": "rhf"
			},
			{
				"type": "occ",
				"energy": -0.25919,
				"method": "rhf"
			},
			{
				"type": "occ",
				"energy": -0.24687,
				"method": "rhf"
			},
			{
				"type": "occ",
				"energy": -0.23482,
				"method": "rhf"
			},
			{
				"type": "occ",
				"energy": -0.22405,
				"method": "rhf"
			},
			{
				"type": "unocc",
				"energy": -0.02989,
				"method": "rhf"
			},
			{
				"type": "unocc",
				"energy": 0.00917,
				"method": "rhf"
			},
			{
				"type": "unocc",
				"energy": 0.02432,
				"method": "rhf"
			},
			{
				"type": "unocc",
				"energy": 0.05836,
				"method": "rhf"
			},
			{
				"type": "unocc",
				"energy": 0.07204,
				"method": "rhf"
			}
		],
		"cosmo_sigma_profile": { 
			"-0.025": 0.0,
			"-0.024": 0.0,
			"-0.023": 0.0,
			"-0.022": 0.0,
			"-0.021": 0.0,
			"-0.02": 0.0,
			"-0.019": 0.0,
			"-0.018": 0.0,
			"-0.017": 0.00119718250804,
			"-0.016": 1.59951010603,
			"-0.015": 2.0036532906,
			"-0.014": 1.61149660541,
			"-0.013": 1.27289476799,
			"-0.012": 1.24805504165,
			"-0.011": 1.47991320871,
			"-0.01": 1.27696851403,
			"-0.009": 1.7128062786,
			"-0.008": 1.86385166665,
			"-0.007": 3.7162735642,
			"-0.006": 6.7927291983,
			"-0.005": 15.2095402928,
			"-0.004": 33.2808021217,
			"-0.003": 40.2034111622,
			"-0.002": 38.3413892317,
			"-0.001": 33.9892772224,
			"0.0": 33.4830850275,
			"0.001": 20.316280549,
			"0.002": 16.9608837661,
			"0.003": 13.0735662842,
			"0.004": 12.2224533919,
			"0.005": 9.77946853448,
			"0.006": 7.82661061281,
			"0.007": 6.42786367737,
			"0.008": 6.86266389242,
			"0.009": 6.11055024948,
			"0.01": 5.46004315477,
			"0.011": 5.36653194299,
			"0.012": 6.68534418558,
			"0.013": 4.94341279626,
			"0.014": 0.616317436167,
			"0.015": 0.899236000412,
			"0.016": 0.481430182975,
			"0.017": 0.0,
			"0.018": 0.0,
			"0.019": 0.0,
			"0.02": 0.0,
			"0.021": 0.0,
			"0.022": 0.0,
			"0.023": 0.0,
			"0.024": 0.0,
			"0.025": 0.0
		}
	}
}
