{
	 "smiles": "CCN(C(C)C)C(=O)N1CCC(CC1)C(O)=O", 
	 "Tm": 381.15, 
	 "num_atms": 39, 
	 "gaussian": { 
		 "optdone": 1, 
		 "sigma_profile": "yes", 
		 "theory": "DFT", 
		 "functional": "B3LYP", 
		 "basiset": "6-31G**", 
		 "properties": { 
			 "R2extent": 5015.7851, 
			 "electric_dipole_moment_norm": 4.04918541314, 
			 "electric_quadrupole_moment_norm": 16.0617328253, 
			 "total_energy": -805.749887183, 
			 "HOMO_LUMO_gap": 0.2266, 
			 "cosmo_polarized_energy": -15.81, 
			 "cosmo_cavitation_energy": 37.61, 
			 "cosmo_dispersion_energy": -25.54, 
			 "cosmo_repulsion_energy": 1.95, 
			 "cosmo_total_nonelectrostatic_energy": 14.02, 
			 "SMD_solvation_energy": 7.48 
		},
		"coords": [
			{
				"x": 0.4601998252,
				"y": 1.7754237631,
				"z": -1.6341204186,
				"element": "C" 
			},
			{
				"x": 0.3458790024,
				"y": 0.2468982142,
				"z": -1.7236181155,
				"element": "C" 
			},
			{
				"x": -1.0014742217,
				"y": -0.2589233678,
				"z": -2.0357799274,
				"element": "N" 
			},
			{
				"x": -1.3388158107,
				"y": -0.5729957685,
				"z": -3.4427716897,
				"element": "C" 
			},
			{
				"x": -1.2554339401,
				"y": 0.6369239777,
				"z": -4.3851165979,
				"element": "C" 
			},
			{
				"x": -0.5125684075,
				"y": -1.7600796959,
				"z": -3.9558583387,
				"element": "C" 
			},
			{
				"x": -2.0788942763,
				"y": 0.0578561728,
				"z": -1.2109002632,
				"element": "C" 
			},
			{
				"x": -3.1950053015,
				"y": 0.3314213485,
				"z": -1.645529726,
				"element": "O" 
			},
			{
				"x": -1.8099264828,
				"y": 0.0582183186,
				"z": 0.1651357542,
				"element": "N" 
			},
			{
				"x": -1.156707994,
				"y": -1.0958431163,
				"z": 0.795205385,
				"element": "C" 
			},
			{
				"x": -0.3115692195,
				"y": -0.6345655611,
				"z": 2.0003621502,
				"element": "C" 
			},
			{
				"x": -0.9267675299,
				"y": 0.6381276744,
				"z": 2.6398109138,
				"element": "C" 
			},
			{
				"x": -2.4556629285,
				"y": 0.6220113504,
				"z": 2.4861421681,
				"element": "C" 
			},
			{
				"x": -2.8834004727,
				"y": 0.6220910327,
				"z": 1.0008799077,
				"element": "C" 
			},
			{
				"x": -0.3509695829,
				"y": 1.9390046889,
				"z": 2.0971990506,
				"element": "C" 
			},
			{
				"x": 0.9975033685,
				"y": 1.8926609895,
				"z": 1.944991497,
				"element": "O" 
			},
			{
				"x": -0.9833100949,
				"y": 2.948601464,
				"z": 1.8693217317,
				"element": "O" 
			},
			{
				"x": 1.4860062761,
				"y": 2.0530979583,
				"z": -1.3651542475,
				"element": "H" 
			},
			{
				"x": 0.2176751542,
				"y": 2.2562529329,
				"z": -2.5847156569,
				"element": "H" 
			},
			{
				"x": -0.2117593451,
				"y": 2.1738214548,
				"z": -0.8697081082,
				"element": "H" 
			},
			{
				"x": 0.7046189344,
				"y": -0.1895427317,
				"z": -0.7875862261,
				"element": "H" 
			},
			{
				"x": 1.0163022432,
				"y": -0.1279395201,
				"z": -2.5015060186,
				"element": "H" 
			},
			{
				"x": -2.3863905243,
				"y": -0.8782900111,
				"z": -3.4060804575,
				"element": "H" 
			},
			{
				"x": -1.6235155688,
				"y": 0.3629791222,
				"z": -5.3798417806,
				"element": "H" 
			},
			{
				"x": -0.2263889335,
				"y": 0.9938239323,
				"z": -4.5045650838,
				"element": "H" 
			},
			{
				"x": -1.8738167493,
				"y": 1.4545173733,
				"z": -4.0064811109,
				"element": "H" 
			},
			{
				"x": 0.5490587036,
				"y": -1.5141582874,
				"z": -4.0712880498,
				"element": "H" 
			},
			{
				"x": -0.5935150433,
				"y": -2.6144704574,
				"z": -3.277150189,
				"element": "H" 
			},
			{
				"x": -0.879223112,
				"y": -2.0686928297,
				"z": -4.9403307154,
				"element": "H" 
			},
			{
				"x": -1.9284564824,
				"y": -1.8090834219,
				"z": 1.1278843612,
				"element": "H" 
			},
			{
				"x": -0.5507323928,
				"y": -1.6210382503,
				"z": 0.0571431001,
				"element": "H" 
			},
			{
				"x": -0.279852425,
				"y": -1.4378205904,
				"z": 2.7444466942,
				"element": "H" 
			},
			{
				"x": 0.71988995,
				"y": -0.4349837049,
				"z": 1.7020118342,
				"element": "H" 
			},
			{
				"x": -0.6664593375,
				"y": 0.6476434512,
				"z": 3.7073177668,
				"element": "H" 
			},
			{
				"x": -2.8331830954,
				"y": -0.2732206715,
				"z": 2.9930625313,
				"element": "H" 
			},
			{
				"x": -2.8985629504,
				"y": 1.4857221485,
				"z": 2.9875013016,
				"element": "H" 
			},
			{
				"x": -3.8168147624,
				"y": 0.0583517367,
				"z": 0.8684791501,
				"element": "H" 
			},
			{
				"x": -3.0675940951,
				"y": 1.6410607203,
				"z": 0.6584621457,
				"element": "H" 
			},
			{
				"x": 1.2575376227,
				"y": 2.7765381609,
				"z": 1.635645278,
				"element": "H" 
			}
		],
		 "valence_orbital": [ 
			{
				"type": "occ",
				"energy": -0.31807,
				"method": "rhf"
			},
			{
				"type": "occ",
				"energy": -0.27372,
				"method": "rhf"
			},
			{
				"type": "occ",
				"energy": -0.25818,
				"method": "rhf"
			},
			{
				"type": "occ",
				"energy": -0.22734,
				"method": "rhf"
			},
			{
				"type": "occ",
				"energy": -0.22179,
				"method": "rhf"
			},
			{
				"type": "unocc",
				"energy": 0.00481,
				"method": "rhf"
			},
			{
				"type": "unocc",
				"energy": 0.0413,
				"method": "rhf"
			},
			{
				"type": "unocc",
				"energy": 0.06012,
				"method": "rhf"
			},
			{
				"type": "unocc",
				"energy": 0.07928,
				"method": "rhf"
			},
			{
				"type": "unocc",
				"energy": 0.08975,
				"method": "rhf"
			}
		],
		"cosmo_sigma_profile": { 
			"-0.025": 0.0,
			"-0.024": 0.0,
			"-0.023": 0.0,
			"-0.022": 0.0,
			"-0.021": 0.0,
			"-0.02": 0.0,
			"-0.019": 0.0,
			"-0.018": 0.246966367268,
			"-0.017": 0.674530085148,
			"-0.016": 0.934556771979,
			"-0.015": 0.455098104604,
			"-0.014": 1.03642900912,
			"-0.013": 0.614519714949,
			"-0.012": 0.196971421402,
			"-0.011": 0.724575538456,
			"-0.01": 1.04302278575,
			"-0.009": 0.236575601196,
			"-0.008": 0.524481818751,
			"-0.007": 2.02784343925,
			"-0.006": 4.02180916445,
			"-0.005": 8.8639662459,
			"-0.004": 23.9644185766,
			"-0.003": 41.3667744808,
			"-0.002": 40.714981055,
			"-0.001": 36.6914485028,
			"0.0": 29.6613885852,
			"0.001": 27.1397174051,
			"0.002": 13.1652510634,
			"0.003": 8.48771223502,
			"0.004": 4.8220597032,
			"0.005": 5.43117861192,
			"0.006": 4.43471618992,
			"0.007": 4.47477343351,
			"0.008": 3.84005246684,
			"0.009": 4.07578240652,
			"0.01": 3.01559509265,
			"0.011": 4.15162233086,
			"0.012": 5.46379931925,
			"0.013": 2.3593200448,
			"0.014": 4.36055363733,
			"0.015": 1.656867633,
			"0.016": 0.0,
			"0.017": 0.0,
			"0.018": 0.0,
			"0.019": 0.0,
			"0.02": 0.0,
			"0.021": 0.0,
			"0.022": 0.0,
			"0.023": 0.0,
			"0.024": 0.0,
			"0.025": 0.0
		}
	}
}
