{
	 "smiles": "S=C1NC2CCCCC2N1", 
	 "Tm": 408.15, 
	 "num_atms": 22, 
	 "gaussian": { 
		 "optdone": 1, 
		 "sigma_profile": "yes", 
		 "theory": "DFT", 
		 "functional": "B3LYP", 
		 "basiset": "6-31G**", 
		 "properties": { 
			 "R2extent": 2691.9932, 
			 "electric_dipole_moment_norm": 6.37075433917, 
			 "electric_quadrupole_moment_norm": 25.2148474679, 
			 "total_energy": -781.694168564, 
			 "HOMO_LUMO_gap": 0.20472, 
			 "cosmo_polarized_energy": -16.36, 
			 "cosmo_cavitation_energy": 24.65, 
			 "cosmo_dispersion_energy": -19.13, 
			 "cosmo_repulsion_energy": 1.52, 
			 "cosmo_total_nonelectrostatic_energy": 7.04, 
			 "SMD_solvation_energy": 0.92 
		},
		"coords": [
			{
				"x": -2.8240215505,
				"y": 3.8072950406,
				"z": -0.7834695261,
				"element": "S" 
			},
			{
				"x": -1.6307345763,
				"y": 2.640422213,
				"z": -0.858997176,
				"element": "C" 
			},
			{
				"x": -0.2822262819,
				"y": 2.8514716611,
				"z": -0.8106499649,
				"element": "N" 
			},
			{
				"x": 0.4861027967,
				"y": 1.6116401488,
				"z": -0.717271029,
				"element": "C" 
			},
			{
				"x": 0.9968315153,
				"y": 1.2907927317,
				"z": 0.6941377623,
				"element": "C" 
			},
			{
				"x": 1.6921381285,
				"y": -0.0886521956,
				"z": 0.7314752676,
				"element": "C" 
			},
			{
				"x": 0.9904241378,
				"y": -1.1313048195,
				"z": -0.1794193816,
				"element": "C" 
			},
			{
				"x": -0.4812924314,
				"y": -0.7661774212,
				"z": -0.4259401528,
				"element": "C" 
			},
			{
				"x": -0.5688272246,
				"y": 0.562036997,
				"z": -1.1970012426,
				"element": "C" 
			},
			{
				"x": -1.8172212439,
				"y": 1.2926622574,
				"z": -0.9784587066,
				"element": "N" 
			},
			{
				"x": 0.0579118745,
				"y": 3.7376338851,
				"z": -0.4688262899,
				"element": "H" 
			},
			{
				"x": 1.3332671889,
				"y": 1.6404693227,
				"z": -1.4128913161,
				"element": "H" 
			},
			{
				"x": 1.6835349691,
				"y": 2.0749759172,
				"z": 1.0326637556,
				"element": "H" 
			},
			{
				"x": 0.1422065768,
				"y": 1.3069906998,
				"z": 1.3800961772,
				"element": "H" 
			},
			{
				"x": 2.7405173104,
				"y": 0.0132257295,
				"z": 0.4289624482,
				"element": "H" 
			},
			{
				"x": 1.7060961764,
				"y": -0.4441782075,
				"z": 1.7673188804,
				"element": "H" 
			},
			{
				"x": 1.5039751229,
				"y": -1.1876065037,
				"z": -1.1482609465,
				"element": "H" 
			},
			{
				"x": 1.0655222349,
				"y": -2.1310034797,
				"z": 0.2597491245,
				"element": "H" 
			},
			{
				"x": -0.9904660367,
				"y": -1.5581004433,
				"z": -0.9861767086,
				"element": "H" 
			},
			{
				"x": -1.0109498066,
				"y": -0.6610584153,
				"z": 0.5278026927,
				"element": "H" 
			},
			{
				"x": -0.419637778,
				"y": 0.3694141146,
				"z": -2.2702869426,
				"element": "H" 
			},
			{
				"x": -2.7155511022,
				"y": 0.9537507673,
				"z": -1.2874567253,
				"element": "H" 
			}
		],
		 "valence_orbital": [ 
			{
				"type": "occ",
				"energy": -0.33226,
				"method": "rhf"
			},
			{
				"type": "occ",
				"energy": -0.3262,
				"method": "rhf"
			},
			{
				"type": "occ",
				"energy": -0.24983,
				"method": "rhf"
			},
			{
				"type": "occ",
				"energy": -0.20614,
				"method": "rhf"
			},
			{
				"type": "occ",
				"energy": -0.19643,
				"method": "rhf"
			},
			{
				"type": "unocc",
				"energy": 0.00829,
				"method": "rhf"
			},
			{
				"type": "unocc",
				"energy": 0.05881,
				"method": "rhf"
			},
			{
				"type": "unocc",
				"energy": 0.07482,
				"method": "rhf"
			},
			{
				"type": "unocc",
				"energy": 0.08962,
				"method": "rhf"
			},
			{
				"type": "unocc",
				"energy": 0.10832,
				"method": "rhf"
			}
		],
		"cosmo_sigma_profile": { 
			"-0.025": 0.0,
			"-0.024": 0.0,
			"-0.023": 0.0,
			"-0.022": 0.0,
			"-0.021": 0.0,
			"-0.02": 0.0,
			"-0.019": 0.0,
			"-0.018": 0.0,
			"-0.017": 0.0,
			"-0.016": 0.0,
			"-0.015": 0.18281851999,
			"-0.014": 1.98108003454,
			"-0.013": 2.18530719337,
			"-0.012": 1.99658919815,
			"-0.011": 1.3314239657,
			"-0.01": 2.27617506507,
			"-0.009": 1.72071536026,
			"-0.008": 2.31968398867,
			"-0.007": 1.62243618071,
			"-0.006": 2.78801305465,
			"-0.005": 11.6451245895,
			"-0.004": 15.7687207794,
			"-0.003": 23.0514599501,
			"-0.002": 25.1427236526,
			"-0.001": 22.5051002285,
			"0.0": 18.0293330075,
			"0.001": 7.75501067476,
			"0.002": 1.75106977725,
			"0.003": 2.57164492262,
			"0.004": 3.58500276749,
			"0.005": 4.73187062393,
			"0.006": 5.28033885911,
			"0.007": 2.99808800095,
			"0.008": 3.28235586023,
			"0.009": 4.74126850181,
			"0.01": 4.23721826865,
			"0.011": 6.96172484512,
			"0.012": 7.41423371063,
			"0.013": 3.9824199735,
			"0.014": 0.410072819139,
			"0.015": 0.0,
			"0.016": 0.0,
			"0.017": 0.0,
			"0.018": 0.0,
			"0.019": 0.0,
			"0.02": 0.0,
			"0.021": 0.0,
			"0.022": 0.0,
			"0.023": 0.0,
			"0.024": 0.0,
			"0.025": 0.0
		}
	}
}
