{
	 "smiles": "CN(C)CCN1C2=C(NC3=CC=CC=C3C1=O)C=C(Cl)C=C2", 
	 "Tm": 439.15, 
	 "num_atms": 40, 
	 "gaussian": { 
		 "optdone": 1, 
		 "sigma_profile": "yes", 
		 "theory": "DFT", 
		 "functional": "B3LYP", 
		 "basiset": "6-31G**", 
		 "properties": { 
			 "R2extent": 8560.9931, 
			 "electric_dipole_moment_norm": 0.482111563852, 
			 "electric_quadrupole_moment_norm": 23.5796678255, 
			 "total_energy": -1358.33278217, 
			 "HOMO_LUMO_gap": 0.17239, 
			 "cosmo_polarized_energy": -13.73, 
			 "cosmo_cavitation_energy": 43.12, 
			 "cosmo_dispersion_energy": -30.23, 
			 "cosmo_repulsion_energy": 2.28, 
			 "cosmo_total_nonelectrostatic_energy": 15.17, 
			 "SMD_solvation_energy": 6.63 
		},
		"coords": [
			{
				"x": 2.8781986286,
				"y": 2.831143716,
				"z": -0.2186052744,
				"element": "C" 
			},
			{
				"x": 2.4118435288,
				"y": 1.5177756197,
				"z": -0.654046619,
				"element": "N" 
			},
			{
				"x": 3.2106585353,
				"y": 1.0290597769,
				"z": -1.7737715894,
				"element": "C" 
			},
			{
				"x": 2.3754198298,
				"y": 0.5598757853,
				"z": 0.4557427709,
				"element": "C" 
			},
			{
				"x": 1.4163627605,
				"y": -0.6280591086,
				"z": 0.2536782693,
				"element": "C" 
			},
			{
				"x": -0.0042087184,
				"y": -0.3807544867,
				"z": 0.5878202324,
				"element": "N" 
			},
			{
				"x": -0.9382848865,
				"y": -0.1759158859,
				"z": -0.4709218157,
				"element": "C" 
			},
			{
				"x": -2.1785802933,
				"y": -0.8398368035,
				"z": -0.5092313175,
				"element": "C" 
			},
			{
				"x": -2.6078022803,
				"y": -1.6326993891,
				"z": 0.580354926,
				"element": "N" 
			},
			{
				"x": -2.7610634629,
				"y": -1.0170312253,
				"z": 1.8429267584,
				"element": "C" 
			},
			{
				"x": -3.9829006227,
				"y": -1.1304183236,
				"z": 2.5236072712,
				"element": "C" 
			},
			{
				"x": -4.160193706,
				"y": -0.5374605995,
				"z": 3.7693178937,
				"element": "C" 
			},
			{
				"x": -3.1185839998,
				"y": 0.1856786058,
				"z": 4.3572043622,
				"element": "C" 
			},
			{
				"x": -1.8968116075,
				"y": 0.271127177,
				"z": 3.7002437085,
				"element": "C" 
			},
			{
				"x": -1.6969859312,
				"y": -0.3189839791,
				"z": 2.4427560171,
				"element": "C" 
			},
			{
				"x": -0.2849413866,
				"y": -0.345481802,
				"z": 1.9417600332,
				"element": "C" 
			},
			{
				"x": 0.6382168215,
				"y": -0.3588737636,
				"z": 2.7570160973,
				"element": "O" 
			},
			{
				"x": -2.9981835,
				"y": -0.7182262412,
				"z": -1.6382804522,
				"element": "C" 
			},
			{
				"x": -2.5873296522,
				"y": 0.0522658841,
				"z": -2.7208821453,
				"element": "C" 
			},
			{
				"x": -3.6248982821,
				"y": 0.1652100408,
				"z": -4.1367021398,
				"element": "Cl" 
			},
			{
				"x": -1.3840472715,
				"y": 0.7510201105,
				"z": -2.6834533894,
				"element": "C" 
			},
			{
				"x": -0.5773634709,
				"y": 0.638064799,
				"z": -1.5530141173,
				"element": "C" 
			},
			{
				"x": 3.9146894016,
				"y": 2.8187681256,
				"z": 0.1677575169,
				"element": "H" 
			},
			{
				"x": 2.8422329718,
				"y": 3.5317423121,
				"z": -1.05907628,
				"element": "H" 
			},
			{
				"x": 2.225326791,
				"y": 3.2135850834,
				"z": 0.5712429088,
				"element": "H" 
			},
			{
				"x": 3.1673721903,
				"y": 1.7447697683,
				"z": -2.6007201614,
				"element": "H" 
			},
			{
				"x": 4.273372121,
				"y": 0.8761617521,
				"z": -1.5056773075,
				"element": "H" 
			},
			{
				"x": 2.8168430528,
				"y": 0.0764453479,
				"z": -2.1402363048,
				"element": "H" 
			},
			{
				"x": 2.0728005526,
				"y": 1.0786965629,
				"z": 1.3664968204,
				"element": "H" 
			},
			{
				"x": 3.3836484831,
				"y": 0.1478842392,
				"z": 0.6534306451,
				"element": "H" 
			},
			{
				"x": 1.7508820236,
				"y": -1.4344766089,
				"z": 0.910928911,
				"element": "H" 
			},
			{
				"x": 1.4457232444,
				"y": -0.9945500849,
				"z": -0.7745842035,
				"element": "H" 
			},
			{
				"x": -3.4188765999,
				"y": -2.1891598519,
				"z": 0.3385973061,
				"element": "H" 
			},
			{
				"x": -4.7986814896,
				"y": -1.6803927965,
				"z": 2.0603066219,
				"element": "H" 
			},
			{
				"x": -5.1163105209,
				"y": -0.6329046435,
				"z": 4.2759578349,
				"element": "H" 
			},
			{
				"x": -3.2529142699,
				"y": 0.6560466636,
				"z": 5.3259642303,
				"element": "H" 
			},
			{
				"x": -1.0509107749,
				"y": 0.7696996987,
				"z": 4.1604254505,
				"element": "H" 
			},
			{
				"x": -3.9565219586,
				"y": -1.2270118039,
				"z": -1.6659023431,
				"element": "H" 
			},
			{
				"x": -1.0820021159,
				"y": 1.3723817749,
				"z": -3.5186495053,
				"element": "H" 
			},
			{
				"x": 0.3647058649,
				"y": 1.1789345541,
				"z": -1.4915816208,
				"element": "H" 
			}
		],
		 "valence_orbital": [ 
			{
				"type": "occ",
				"energy": -0.25838,
				"method": "rhf"
			},
			{
				"type": "occ",
				"energy": -0.24725,
				"method": "rhf"
			},
			{
				"type": "occ",
				"energy": -0.22923,
				"method": "rhf"
			},
			{
				"type": "occ",
				"energy": -0.22131,
				"method": "rhf"
			},
			{
				"type": "occ",
				"energy": -0.20882,
				"method": "rhf"
			},
			{
				"type": "unocc",
				"energy": -0.03643,
				"method": "rhf"
			},
			{
				"type": "unocc",
				"energy": -0.01648,
				"method": "rhf"
			},
			{
				"type": "unocc",
				"energy": -0.00694,
				"method": "rhf"
			},
			{
				"type": "unocc",
				"energy": 0.00108,
				"method": "rhf"
			},
			{
				"type": "unocc",
				"energy": 0.03053,
				"method": "rhf"
			}
		],
		"cosmo_sigma_profile": { 
			"-0.025": 0.0,
			"-0.024": 0.0,
			"-0.023": 0.0,
			"-0.022": 0.0,
			"-0.021": 0.0,
			"-0.02": 0.0,
			"-0.019": 0.0,
			"-0.018": 0.0,
			"-0.017": 0.0,
			"-0.016": 0.0,
			"-0.015": 0.0508027962658,
			"-0.014": 1.36677426052,
			"-0.013": 2.06446928349,
			"-0.012": 1.32400874507,
			"-0.011": 1.58990326627,
			"-0.01": 1.75147025969,
			"-0.009": 1.95494848154,
			"-0.008": 2.50122275525,
			"-0.007": 4.25807972604,
			"-0.006": 10.7170060458,
			"-0.005": 13.6672036623,
			"-0.004": 23.1335006022,
			"-0.003": 25.9518729351,
			"-0.002": 33.2791330411,
			"-0.001": 38.6330086769,
			"0.0": 35.0188380922,
			"0.001": 24.2222318626,
			"0.002": 27.2320519397,
			"0.003": 29.2027398255,
			"0.004": 27.6460285229,
			"0.005": 17.5991862747,
			"0.006": 4.01227847239,
			"0.007": 2.69001859842,
			"0.008": 2.12143286274,
			"0.009": 1.83954828934,
			"0.01": 2.24298051667,
			"0.011": 1.69135244422,
			"0.012": 1.70682515774,
			"0.013": 3.53791031457,
			"0.014": 1.62280522301,
			"0.015": 0.0,
			"0.016": 0.0,
			"0.017": 0.0,
			"0.018": 0.0,
			"0.019": 0.0,
			"0.02": 0.0,
			"0.021": 0.0,
			"0.022": 0.0,
			"0.023": 0.0,
			"0.024": 0.0,
			"0.025": 0.0
		}
	}
}
