{
	 "smiles": "OC(=O)CCNC(=O)C1=CC=C(Br)C=C1", 
	 "Tm": 416.15, 
	 "num_atms": 25, 
	 "gaussian": { 
		 "optdone": 1, 
		 "sigma_profile": "yes", 
		 "theory": "DFT", 
		 "functional": "B3LYP", 
		 "basiset": "6-31G**", 
		 "properties": { 
			 "R2extent": 6151.3165, 
			 "electric_dipole_moment_norm": 5.39640047254, 
			 "electric_quadrupole_moment_norm": 21.6320262001, 
			 "total_energy": -3238.9344266, 
			 "HOMO_LUMO_gap": 0.19943, 
			 "cosmo_polarized_energy": -24.21, 
			 "cosmo_cavitation_energy": 32.13, 
			 "cosmo_dispersion_energy": -22.9, 
			 "cosmo_repulsion_energy": 1.81, 
			 "cosmo_total_nonelectrostatic_energy": 11.04, 
			 "SMD_solvation_energy": 5.64 
		},
		"coords": [
			{
				"x": 1.4291528233,
				"y": 1.512958792,
				"z": 3.2379237764,
				"element": "O" 
			},
			{
				"x": 2.4118748353,
				"y": 2.2371941894,
				"z": 2.6225968532,
				"element": "C" 
			},
			{
				"x": 2.4977700746,
				"y": 3.4202164374,
				"z": 2.8176557678,
				"element": "O" 
			},
			{
				"x": 3.3445850541,
				"y": 1.444538641,
				"z": 1.7132990363,
				"element": "C" 
			},
			{
				"x": 2.637066569,
				"y": 0.7582131321,
				"z": 0.532655789,
				"element": "C" 
			},
			{
				"x": 1.9394079375,
				"y": 1.7267454463,
				"z": -0.3079581425,
				"element": "N" 
			},
			{
				"x": 0.8758210154,
				"y": 1.4560331039,
				"z": -1.1551323194,
				"element": "C" 
			},
			{
				"x": 0.7552363723,
				"y": 2.0535875548,
				"z": -2.2169019049,
				"element": "O" 
			},
			{
				"x": -0.1561257844,
				"y": 0.4588899337,
				"z": -0.7115011654,
				"element": "C" 
			},
			{
				"x": -0.7339231732,
				"y": -0.3603398917,
				"z": -1.6903456097,
				"element": "C" 
			},
			{
				"x": -1.73890686,
				"y": -1.2653984425,
				"z": -1.3592122448,
				"element": "C" 
			},
			{
				"x": -2.1892102066,
				"y": -1.326199917,
				"z": -0.0397718548,
				"element": "C" 
			},
			{
				"x": -3.5715822642,
				"y": -2.5584984512,
				"z": 0.4235399379,
				"element": "Br" 
			},
			{
				"x": -1.6553950428,
				"y": -0.4954624599,
				"z": 0.9444209678,
				"element": "C" 
			},
			{
				"x": -0.63485379,
				"y": 0.3934338135,
				"z": 0.6048191325,
				"element": "C" 
			},
			{
				"x": 1.5210749448,
				"y": 0.5713482068,
				"z": 3.0345413059,
				"element": "H" 
			},
			{
				"x": 3.8689839582,
				"y": 0.6814117267,
				"z": 2.3036740803,
				"element": "H" 
			},
			{
				"x": 4.0981408474,
				"y": 2.1470373604,
				"z": 1.3492786645,
				"element": "H" 
			},
			{
				"x": 1.9122868932,
				"y": 0.018261587,
				"z": 0.8795743164,
				"element": "H" 
			},
			{
				"x": 3.3914242992,
				"y": 0.2025644368,
				"z": -0.0435200464,
				"element": "H" 
			},
			{
				"x": 2.5364751456,
				"y": 2.4359025097,
				"z": -0.7219307451,
				"element": "H" 
			},
			{
				"x": -0.3906620292,
				"y": -0.274004361,
				"z": -2.7159665458,
				"element": "H" 
			},
			{
				"x": -2.1755698764,
				"y": -1.9086533534,
				"z": -2.1145149762,
				"element": "H" 
			},
			{
				"x": -2.0390809677,
				"y": -0.5338763288,
				"z": 1.9576246149,
				"element": "H" 
			},
			{
				"x": -0.2390907755,
				"y": 1.0606963337,
				"z": 1.364351312,
				"element": "H" 
			}
		],
		 "valence_orbital": [ 
			{
				"type": "occ",
				"energy": -0.28689,
				"method": "rhf"
			},
			{
				"type": "occ",
				"energy": -0.27885,
				"method": "rhf"
			},
			{
				"type": "occ",
				"energy": -0.27543,
				"method": "rhf"
			},
			{
				"type": "occ",
				"energy": -0.26162,
				"method": "rhf"
			},
			{
				"type": "occ",
				"energy": -0.25019,
				"method": "rhf"
			},
			{
				"type": "unocc",
				"energy": -0.05076,
				"method": "rhf"
			},
			{
				"type": "unocc",
				"energy": -0.02868,
				"method": "rhf"
			},
			{
				"type": "unocc",
				"energy": -0.00676,
				"method": "rhf"
			},
			{
				"type": "unocc",
				"energy": -0.00229,
				"method": "rhf"
			},
			{
				"type": "unocc",
				"energy": 0.02947,
				"method": "rhf"
			}
		],
		"cosmo_sigma_profile": { 
			"-0.025": 0.0,
			"-0.024": 0.0,
			"-0.023": 0.0,
			"-0.022": 0.0,
			"-0.021": 0.0,
			"-0.02": 8.96467904221e-05,
			"-0.019": 0.474382394697,
			"-0.018": 0.878764325909,
			"-0.017": 1.27104158818,
			"-0.016": 1.16372539498,
			"-0.015": 1.29621497089,
			"-0.014": 1.38778160656,
			"-0.013": 2.46353812772,
			"-0.012": 2.35703200848,
			"-0.011": 2.16799549131,
			"-0.01": 3.0010449346,
			"-0.009": 2.93513172406,
			"-0.008": 5.41959608511,
			"-0.007": 9.40900832579,
			"-0.006": 15.2609742701,
			"-0.005": 17.1750041898,
			"-0.004": 16.2425220532,
			"-0.003": 15.4420820035,
			"-0.002": 12.4773714133,
			"-0.001": 11.2777055452,
			"0.0": 12.8298781525,
			"0.001": 16.8990444409,
			"0.002": 23.181011777,
			"0.003": 15.8371951933,
			"0.004": 15.9139886143,
			"0.005": 7.05827883951,
			"0.006": 3.05802017493,
			"0.007": 3.07235696864,
			"0.008": 4.55304879117,
			"0.009": 4.51307349786,
			"0.01": 6.30552009737,
			"0.011": 7.37057212702,
			"0.012": 8.29618464557,
			"0.013": 6.52797286636,
			"0.014": 1.62014036428,
			"0.015": 0.0,
			"0.016": 0.0,
			"0.017": 0.0,
			"0.018": 0.0,
			"0.019": 0.0,
			"0.02": 0.0,
			"0.021": 0.0,
			"0.022": 0.0,
			"0.023": 0.0,
			"0.024": 0.0,
			"0.025": 0.0
		}
	}
}
