{
	 "smiles": "NC(=O)C1=COC(Br)=C1", 
	 "Tm": 439.15, 
	 "num_atms": 13, 
	 "gaussian": { 
		 "optdone": 1, 
		 "sigma_profile": "yes", 
		 "theory": "DFT", 
		 "functional": "B3LYP", 
		 "basiset": "6-31G**", 
		 "properties": { 
			 "R2extent": 2973.852, 
			 "electric_dipole_moment_norm": 3.25563340842, 
			 "electric_quadrupole_moment_norm": 9.04598930576, 
			 "total_energy": -2969.5239021, 
			 "HOMO_LUMO_gap": 0.211, 
			 "cosmo_polarized_energy": -13.24, 
			 "cosmo_cavitation_energy": 20.65, 
			 "cosmo_dispersion_energy": -15.88, 
			 "cosmo_repulsion_energy": 1.32, 
			 "cosmo_total_nonelectrostatic_energy": 6.09, 
			 "SMD_solvation_energy": 4.33 
		},
		"coords": [
			{
				"x": -1.735472753,
				"y": 0.3560184117,
				"z": 1.540148747,
				"element": "N" 
			},
			{
				"x": -1.5883481974,
				"y": -0.4607712955,
				"z": 0.4543851167,
				"element": "C" 
			},
			{
				"x": -2.3044946264,
				"y": -1.4375003147,
				"z": 0.2657596856,
				"element": "O" 
			},
			{
				"x": -0.5037203091,
				"y": -0.0975577292,
				"z": -0.4958760344,
				"element": "C" 
			},
			{
				"x": -0.2462480155,
				"y": -0.8254951117,
				"z": -1.622041477,
				"element": "C" 
			},
			{
				"x": 0.7915495892,
				"y": -0.2850757651,
				"z": -2.3169751281,
				"element": "O" 
			},
			{
				"x": 1.1981010626,
				"y": 0.8072829129,
				"z": -1.6157389945,
				"element": "C" 
			},
			{
				"x": 2.628775382,
				"y": 1.7775580116,
				"z": -2.3248654574,
				"element": "Br" 
			},
			{
				"x": 0.4519571543,
				"y": 0.9819160463,
				"z": -0.4931298877,
				"element": "C" 
			},
			{
				"x": -2.4645590078,
				"y": 0.1306516262,
				"z": 2.1989162978,
				"element": "H" 
			},
			{
				"x": -1.1563421134,
				"y": 1.1610315404,
				"z": 1.708426544,
				"element": "H" 
			},
			{
				"x": -0.7012561314,
				"y": -1.7110878129,
				"z": -2.034480838,
				"element": "H" 
			},
			{
				"x": 0.5788579659,
				"y": 1.7761294801,
				"z": 0.2269714259,
				"element": "H" 
			}
		],
		 "valence_orbital": [ 
			{
				"type": "occ",
				"energy": -0.31164,
				"method": "rhf"
			},
			{
				"type": "occ",
				"energy": -0.29583,
				"method": "rhf"
			},
			{
				"type": "occ",
				"energy": -0.27252,
				"method": "rhf"
			},
			{
				"type": "occ",
				"energy": -0.25749,
				"method": "rhf"
			},
			{
				"type": "occ",
				"energy": -0.23677,
				"method": "rhf"
			},
			{
				"type": "unocc",
				"energy": -0.02577,
				"method": "rhf"
			},
			{
				"type": "unocc",
				"energy": 0.00051,
				"method": "rhf"
			},
			{
				"type": "unocc",
				"energy": 0.00653,
				"method": "rhf"
			},
			{
				"type": "unocc",
				"energy": 0.06152,
				"method": "rhf"
			},
			{
				"type": "unocc",
				"energy": 0.11369,
				"method": "rhf"
			}
		],
		"cosmo_sigma_profile": { 
			"-0.025": 0.0,
			"-0.024": 0.0,
			"-0.023": 0.0,
			"-0.022": 0.0,
			"-0.021": 0.0,
			"-0.02": 0.0,
			"-0.019": 0.0,
			"-0.018": 0.0,
			"-0.017": 0.0,
			"-0.016": 0.0,
			"-0.015": 1.15618358328,
			"-0.014": 2.59507873833,
			"-0.013": 2.03266672016,
			"-0.012": 3.07765347722,
			"-0.011": 2.76088580702,
			"-0.01": 4.04242448113,
			"-0.009": 4.19250930539,
			"-0.008": 3.82457075184,
			"-0.007": 3.33937229478,
			"-0.006": 5.77578995561,
			"-0.005": 3.90539089465,
			"-0.004": 4.70990689775,
			"-0.003": 6.37865963987,
			"-0.002": 6.0995201533,
			"-0.001": 9.73385403125,
			"0.0": 16.9815126755,
			"0.001": 18.0964224746,
			"0.002": 20.1585040232,
			"0.003": 20.1917739329,
			"0.004": 5.4280776788,
			"0.005": 2.93935486987,
			"0.006": 3.20883253002,
			"0.007": 1.66767707418,
			"0.008": 1.60103773242,
			"0.009": 1.14556526669,
			"0.01": 1.27958169636,
			"0.011": 1.53970682001,
			"0.012": 2.10481995495,
			"0.013": 4.14517414352,
			"0.014": 4.65483509994,
			"0.015": 0.450667997475,
			"0.016": 0.0,
			"0.017": 0.0,
			"0.018": 0.0,
			"0.019": 0.0,
			"0.02": 0.0,
			"0.021": 0.0,
			"0.022": 0.0,
			"0.023": 0.0,
			"0.024": 0.0,
			"0.025": 0.0
		}
	}
}
