{
	 "smiles": "NC(=O)C1(N)CCOCC1", 
	 "Tm": 352.15, 
	 "num_atms": 22, 
	 "gaussian": { 
		 "optdone": 1, 
		 "sigma_profile": "yes", 
		 "theory": "DFT", 
		 "functional": "B3LYP", 
		 "basiset": "6-31G**", 
		 "properties": { 
			 "R2extent": 1658.6844, 
			 "electric_dipole_moment_norm": 3.97440852706, 
			 "electric_quadrupole_moment_norm": 8.07418534281, 
			 "total_energy": -495.821759658, 
			 "HOMO_LUMO_gap": 0.26622, 
			 "cosmo_polarized_energy": -15.34, 
			 "cosmo_cavitation_energy": 23.15, 
			 "cosmo_dispersion_energy": -17.49, 
			 "cosmo_repulsion_energy": 1.43, 
			 "cosmo_total_nonelectrostatic_energy": 7.09, 
			 "SMD_solvation_energy": 3.98 
		},
		"coords": [
			{
				"x": -1.1367102944,
				"y": 2.8901609426,
				"z": 1.8738837621,
				"element": "N" 
			},
			{
				"x": -0.4341173005,
				"y": 2.1385273514,
				"z": 0.9884409377,
				"element": "C" 
			},
			{
				"x": 0.0650940654,
				"y": 2.5874257483,
				"z": -0.0377313723,
				"element": "O" 
			},
			{
				"x": -0.362729454,
				"y": 0.6301043641,
				"z": 1.3449531054,
				"element": "C" 
			},
			{
				"x": -0.6520698088,
				"y": 0.4585102627,
				"z": 2.780937523,
				"element": "N" 
			},
			{
				"x": 1.0093635771,
				"y": 0.0625956022,
				"z": 0.8889651804,
				"element": "C" 
			},
			{
				"x": 0.8910472593,
				"y": -1.3915558609,
				"z": 0.4415323571,
				"element": "C" 
			},
			{
				"x": 0.0385138143,
				"y": -1.5506513049,
				"z": -0.6909618231,
				"element": "O" 
			},
			{
				"x": -0.9826653423,
				"y": -0.558854526,
				"z": -0.8175179369,
				"element": "C" 
			},
			{
				"x": -1.4922606139,
				"y": -0.0857745056,
				"z": 0.5407778139,
				"element": "C" 
			},
			{
				"x": -1.3018846441,
				"y": 3.8617073826,
				"z": 1.6629894042,
				"element": "H" 
			},
			{
				"x": -1.5486494993,
				"y": 2.437736495,
				"z": 2.677629241,
				"element": "H" 
			},
			{
				"x": 0.1570410718,
				"y": 0.7367054248,
				"z": 3.3337382862,
				"element": "H" 
			},
			{
				"x": -0.8194037581,
				"y": -0.5236005167,
				"z": 2.9861360297,
				"element": "H" 
			},
			{
				"x": 1.3829499025,
				"y": 0.6699471342,
				"z": 0.0601839557,
				"element": "H" 
			},
			{
				"x": 1.7354215658,
				"y": 0.1444373391,
				"z": 1.7075662228,
				"element": "H" 
			},
			{
				"x": 1.8704073646,
				"y": -1.7896206452,
				"z": 0.1546552881,
				"element": "H" 
			},
			{
				"x": 0.5242434451,
				"y": -2.014785825,
				"z": 1.2768459196,
				"element": "H" 
			},
			{
				"x": -0.6157340295,
				"y": 0.3038678707,
				"z": -1.3913062547,
				"element": "H" 
			},
			{
				"x": -1.7894521976,
				"y": -1.0268847712,
				"z": -1.390878356,
				"element": "H" 
			},
			{
				"x": -1.8339687232,
				"y": -0.9596836037,
				"z": 1.1106493188,
				"element": "H" 
			},
			{
				"x": -2.3598364002,
				"y": 0.5710856414,
				"z": 0.4223113973,
				"element": "H" 
			}
		],
		 "valence_orbital": [ 
			{
				"type": "occ",
				"energy": -0.29454,
				"method": "rhf"
			},
			{
				"type": "occ",
				"energy": -0.26909,
				"method": "rhf"
			},
			{
				"type": "occ",
				"energy": -0.263,
				"method": "rhf"
			},
			{
				"type": "occ",
				"energy": -0.2391,
				"method": "rhf"
			},
			{
				"type": "occ",
				"energy": -0.23507,
				"method": "rhf"
			},
			{
				"type": "unocc",
				"energy": 0.03115,
				"method": "rhf"
			},
			{
				"type": "unocc",
				"energy": 0.06255,
				"method": "rhf"
			},
			{
				"type": "unocc",
				"energy": 0.09772,
				"method": "rhf"
			},
			{
				"type": "unocc",
				"energy": 0.1084,
				"method": "rhf"
			},
			{
				"type": "unocc",
				"energy": 0.11435,
				"method": "rhf"
			}
		],
		"cosmo_sigma_profile": { 
			"-0.025": 0.0,
			"-0.024": 0.0,
			"-0.023": 0.0,
			"-0.022": 0.0,
			"-0.021": 0.0,
			"-0.02": 0.0,
			"-0.019": 0.0,
			"-0.018": 0.0,
			"-0.017": 0.0,
			"-0.016": 0.0,
			"-0.015": 0.0,
			"-0.014": 0.404670513153,
			"-0.013": 0.929748387081,
			"-0.012": 1.52152546032,
			"-0.011": 1.46281952848,
			"-0.01": 3.93334717987,
			"-0.009": 4.14423734199,
			"-0.008": 7.10226159393,
			"-0.007": 6.83087835668,
			"-0.006": 4.84034823281,
			"-0.005": 7.63481053777,
			"-0.004": 14.4971277466,
			"-0.003": 16.7602432015,
			"-0.002": 17.4470083546,
			"-0.001": 14.7117783282,
			"0.0": 11.0184696564,
			"0.001": 7.84419184833,
			"0.002": 7.6943174236,
			"0.003": 4.28017230605,
			"0.004": 5.25536241476,
			"0.005": 4.96880333898,
			"0.006": 4.32484712409,
			"0.007": 3.05127650461,
			"0.008": 3.69466737467,
			"0.009": 3.21672683125,
			"0.01": 2.27730448587,
			"0.011": 3.49817620082,
			"0.012": 3.68545435086,
			"0.013": 3.31642423809,
			"0.014": 6.70767049815,
			"0.015": 1.80868967859,
			"0.016": 0.0462944778902,
			"0.017": 0.0,
			"0.018": 0.0,
			"0.019": 0.0,
			"0.02": 0.0,
			"0.021": 0.0,
			"0.022": 0.0,
			"0.023": 0.0,
			"0.024": 0.0,
			"0.025": 0.0
		}
	}
}
