{
	 "smiles": "OC(=O)CCC1NC(=O)N(C1=O)C1=CC(Cl)=C(Cl)C=C1", 
	 "Tm": 447.15, 
	 "num_atms": 30, 
	 "gaussian": { 
		 "optdone": 1, 
		 "sigma_profile": "yes", 
		 "theory": "DFT", 
		 "functional": "B3LYP", 
		 "basiset": "6-31G**", 
		 "properties": { 
			 "R2extent": 10285.4383, 
			 "electric_dipole_moment_norm": 5.883111301, 
			 "electric_quadrupole_moment_norm": 18.4696496772, 
			 "total_energy": -1794.13927335, 
			 "HOMO_LUMO_gap": 0.20135, 
			 "cosmo_polarized_energy": -22.17, 
			 "cosmo_cavitation_energy": 39.03, 
			 "cosmo_dispersion_energy": -27.81, 
			 "cosmo_repulsion_energy": 2.17, 
			 "cosmo_total_nonelectrostatic_energy": 13.39, 
			 "SMD_solvation_energy": 8.11 
		},
		"coords": [
			{
				"x": 1.2737296711,
				"y": -5.225066079,
				"z": -3.0494285807,
				"element": "O" 
			},
			{
				"x": 0.716810186,
				"y": -4.1115676316,
				"z": -3.5931495044,
				"element": "C" 
			},
			{
				"x": 0.3671083771,
				"y": -4.0598735082,
				"z": -4.749720241,
				"element": "O" 
			},
			{
				"x": 0.6283697308,
				"y": -2.9772079526,
				"z": -2.5943052492,
				"element": "C" 
			},
			{
				"x": 0.0283629796,
				"y": -3.3884158,
				"z": -1.241239616,
				"element": "C" 
			},
			{
				"x": 0.0674215744,
				"y": -2.2723095763,
				"z": -0.1854245666,
				"element": "C" 
			},
			{
				"x": 1.3823329766,
				"y": -1.7159708197,
				"z": 0.0797027845,
				"element": "N" 
			},
			{
				"x": 1.4106513317,
				"y": -0.3449393391,
				"z": 0.0426598433,
				"element": "C" 
			},
			{
				"x": 2.3321139412,
				"y": 0.3815389748,
				"z": 0.346033723,
				"element": "O" 
			},
			{
				"x": 0.1297921694,
				"y": 0.069655115,
				"z": -0.4428068959,
				"element": "N" 
			},
			{
				"x": -0.7182885811,
				"y": -1.0256899233,
				"z": -0.6085299946,
				"element": "C" 
			},
			{
				"x": -1.8623507473,
				"y": -1.017337207,
				"z": -1.0110296285,
				"element": "O" 
			},
			{
				"x": -0.2103310815,
				"y": 1.4268631967,
				"z": -0.7186024681,
				"element": "C" 
			},
			{
				"x": -1.5289435037,
				"y": 1.8572725944,
				"z": -0.5429907397,
				"element": "C" 
			},
			{
				"x": -1.8716179529,
				"y": 3.1804662342,
				"z": -0.8205860608,
				"element": "C" 
			},
			{
				"x": -3.5318970244,
				"y": 3.6700496016,
				"z": -0.5906856324,
				"element": "Cl" 
			},
			{
				"x": -0.8986572194,
				"y": 4.0842331111,
				"z": -1.2654936962,
				"element": "C" 
			},
			{
				"x": -1.2848466492,
				"y": 5.7486865922,
				"z": -1.61912153,
				"element": "Cl" 
			},
			{
				"x": 0.4154157852,
				"y": 3.6432001671,
				"z": -1.43279691,
				"element": "C" 
			},
			{
				"x": 0.7658003205,
				"y": 2.3238962043,
				"z": -1.1696925443,
				"element": "C" 
			},
			{
				"x": 1.303729389,
				"y": -5.8851171783,
				"z": -3.7624775459,
				"element": "H" 
			},
			{
				"x": 1.6467121523,
				"y": -2.5986143778,
				"z": -2.4392508249,
				"element": "H" 
			},
			{
				"x": 0.0432956646,
				"y": -2.1850028386,
				"z": -3.066673599,
				"element": "H" 
			},
			{
				"x": -1.0211216079,
				"y": -3.6750248898,
				"z": -1.3654087192,
				"element": "H" 
			},
			{
				"x": 0.5591211906,
				"y": -4.2615936685,
				"z": -0.8501473492,
				"element": "H" 
			},
			{
				"x": -0.3976478058,
				"y": -2.6510858983,
				"z": 0.7364757391,
				"element": "H" 
			},
			{
				"x": 2.0997338455,
				"y": -2.1934302417,
				"z": 0.6048428816,
				"element": "H" 
			},
			{
				"x": -2.2951169496,
				"y": 1.1698410657,
				"z": -0.2142062736,
				"element": "H" 
			},
			{
				"x": 1.166025154,
				"y": 4.3452922523,
				"z": -1.7775934062,
				"element": "H" 
			},
			{
				"x": 1.790292683,
				"y": 2.0011518205,
				"z": -1.291753395,
				"element": "H" 
			}
		],
		 "valence_orbital": [ 
			{
				"type": "occ",
				"energy": -0.29193,
				"method": "rhf"
			},
			{
				"type": "occ",
				"energy": -0.28403,
				"method": "rhf"
			},
			{
				"type": "occ",
				"energy": -0.2818,
				"method": "rhf"
			},
			{
				"type": "occ",
				"energy": -0.26296,
				"method": "rhf"
			},
			{
				"type": "occ",
				"energy": -0.24403,
				"method": "rhf"
			},
			{
				"type": "unocc",
				"energy": -0.04268,
				"method": "rhf"
			},
			{
				"type": "unocc",
				"energy": -0.0266,
				"method": "rhf"
			},
			{
				"type": "unocc",
				"energy": -0.02161,
				"method": "rhf"
			},
			{
				"type": "unocc",
				"energy": -0.00153,
				"method": "rhf"
			},
			{
				"type": "unocc",
				"energy": 0.00178,
				"method": "rhf"
			}
		],
		"cosmo_sigma_profile": { 
			"-0.025": 0.0,
			"-0.024": 0.0,
			"-0.023": 0.0,
			"-0.022": 0.0,
			"-0.021": 0.0,
			"-0.02": 0.0,
			"-0.019": 0.00739513760886,
			"-0.018": 0.686461928429,
			"-0.017": 0.83191653257,
			"-0.016": 1.84384913605,
			"-0.015": 2.29487395424,
			"-0.014": 2.17860340068,
			"-0.013": 1.64239611664,
			"-0.012": 1.52022311668,
			"-0.011": 1.70782373258,
			"-0.01": 2.28362403367,
			"-0.009": 3.42404339398,
			"-0.008": 8.78286245492,
			"-0.007": 9.86032490433,
			"-0.006": 16.6336165574,
			"-0.005": 18.8104915035,
			"-0.004": 16.5783449885,
			"-0.003": 17.864572696,
			"-0.002": 15.9253398485,
			"-0.001": 19.2303931812,
			"0.0": 25.2944531251,
			"0.001": 25.8646855353,
			"0.002": 21.7784371977,
			"0.003": 21.3058672628,
			"0.004": 20.5465670497,
			"0.005": 9.29110853249,
			"0.006": 5.71930456785,
			"0.007": 5.02234727046,
			"0.008": 5.69704309659,
			"0.009": 5.34998684076,
			"0.01": 6.4670993389,
			"0.011": 10.469084845,
			"0.012": 9.3489372262,
			"0.013": 1.5135842667,
			"0.014": 0.0,
			"0.015": 0.0,
			"0.016": 0.0,
			"0.017": 0.0,
			"0.018": 0.0,
			"0.019": 0.0,
			"0.02": 0.0,
			"0.021": 0.0,
			"0.022": 0.0,
			"0.023": 0.0,
			"0.024": 0.0,
			"0.025": 0.0
		}
	}
}
