{
	 "smiles": "NC(=O)C1=CC(Cl)=C(Cl)N=C1", 
	 "Tm": 478.15, 
	 "num_atms": 15, 
	 "gaussian": { 
		 "optdone": 1, 
		 "sigma_profile": "yes", 
		 "theory": "DFT", 
		 "functional": "B3LYP", 
		 "basiset": "6-31G**", 
		 "properties": { 
			 "R2extent": 2961.6304, 
			 "electric_dipole_moment_norm": 3.49373923039, 
			 "electric_quadrupole_moment_norm": 13.4611698663, 
			 "total_energy": -1336.16784695, 
			 "HOMO_LUMO_gap": 0.2004, 
			 "cosmo_polarized_energy": -13.93, 
			 "cosmo_cavitation_energy": 23.77, 
			 "cosmo_dispersion_energy": -17.99, 
			 "cosmo_repulsion_energy": 1.46, 
			 "cosmo_total_nonelectrostatic_energy": 7.23, 
			 "SMD_solvation_energy": 3.03 
		},
		"coords": [
			{
				"x": -2.1609220995,
				"y": -0.7085029617,
				"z": -2.3522571231,
				"element": "N" 
			},
			{
				"x": -1.1416369061,
				"y": 0.1977890019,
				"z": -2.2285194714,
				"element": "C" 
			},
			{
				"x": -1.0419839685,
				"y": 1.1783041605,
				"z": -2.9538790865,
				"element": "O" 
			},
			{
				"x": -0.1200477491,
				"y": -0.0885213334,
				"z": -1.1621886464,
				"element": "C" 
			},
			{
				"x": 0.7442747433,
				"y": 0.9491308999,
				"z": -0.797731327,
				"element": "C" 
			},
			{
				"x": 1.7052646225,
				"y": 0.7285617026,
				"z": 0.1802321419,
				"element": "C" 
			},
			{
				"x": 2.7767485212,
				"y": 2.0190384118,
				"z": 0.6439965021,
				"element": "Cl" 
			},
			{
				"x": 1.772637262,
				"y": -0.5533853473,
				"z": 0.7617103785,
				"element": "C" 
			},
			{
				"x": 2.9447588028,
				"y": -0.9038644717,
				"z": 2.008521329,
				"element": "Cl" 
			},
			{
				"x": 0.9768093726,
				"y": -1.5456791328,
				"z": 0.4052140735,
				"element": "N" 
			},
			{
				"x": 0.0530865226,
				"y": -1.3249176536,
				"z": -0.5354974274,
				"element": "C" 
			},
			{
				"x": -2.8903219903,
				"y": -0.4636992906,
				"z": -3.0063902006,
				"element": "H" 
			},
			{
				"x": -2.406081517,
				"y": -1.3307252135,
				"z": -1.5985127128,
				"element": "H" 
			},
			{
				"x": 0.6518834812,
				"y": 1.9109839998,
				"z": -1.2894981902,
				"element": "H" 
			},
			{
				"x": -0.5470690978,
				"y": -2.1898127719,
				"z": -0.8085002397,
				"element": "H" 
			}
		],
		 "valence_orbital": [ 
			{
				"type": "occ",
				"energy": -0.30253,
				"method": "rhf"
			},
			{
				"type": "occ",
				"energy": -0.29958,
				"method": "rhf"
			},
			{
				"type": "occ",
				"energy": -0.28885,
				"method": "rhf"
			},
			{
				"type": "occ",
				"energy": -0.27077,
				"method": "rhf"
			},
			{
				"type": "occ",
				"energy": -0.26879,
				"method": "rhf"
			},
			{
				"type": "unocc",
				"energy": -0.06839,
				"method": "rhf"
			},
			{
				"type": "unocc",
				"energy": -0.05409,
				"method": "rhf"
			},
			{
				"type": "unocc",
				"energy": 0.00015,
				"method": "rhf"
			},
			{
				"type": "unocc",
				"energy": 0.03037,
				"method": "rhf"
			},
			{
				"type": "unocc",
				"energy": 0.04679,
				"method": "rhf"
			}
		],
		"cosmo_sigma_profile": { 
			"-0.025": 0.0,
			"-0.024": 0.0,
			"-0.023": 0.0,
			"-0.022": 0.0,
			"-0.021": 0.0,
			"-0.02": 0.0,
			"-0.019": 0.0,
			"-0.018": 0.0,
			"-0.017": 0.0,
			"-0.016": 0.189935516348,
			"-0.015": 1.65438334096,
			"-0.014": 2.61416441495,
			"-0.013": 2.80270457765,
			"-0.012": 2.48820489674,
			"-0.011": 2.68472490506,
			"-0.01": 2.95775195612,
			"-0.009": 2.76599404348,
			"-0.008": 3.20423869486,
			"-0.007": 4.11540893321,
			"-0.006": 4.18959405761,
			"-0.005": 3.42867823531,
			"-0.004": 6.23526106785,
			"-0.003": 16.4522563159,
			"-0.002": 20.732422116,
			"-0.001": 15.973487639,
			"0.0": 12.719609817,
			"0.001": 11.9753964218,
			"0.002": 14.1953170221,
			"0.003": 19.7115372945,
			"0.004": 12.9913373448,
			"0.005": 4.94362702847,
			"0.006": 3.90690256486,
			"0.007": 2.60512768939,
			"0.008": 2.81776207491,
			"0.009": 1.77851527644,
			"0.01": 3.11986165088,
			"0.011": 2.15982553063,
			"0.012": 4.71137933864,
			"0.013": 4.8463224358,
			"0.014": 0.709610391846,
			"0.015": 0.0,
			"0.016": 0.0,
			"0.017": 0.0,
			"0.018": 0.0,
			"0.019": 0.0,
			"0.02": 0.0,
			"0.021": 0.0,
			"0.022": 0.0,
			"0.023": 0.0,
			"0.024": 0.0,
			"0.025": 0.0
		}
	}
}
