{
	 "smiles": "CC(C)C(N1C(C)=NC2=C1C=CC=C2)C(O)=O", 
	 "Tm": 393.15, 
	 "num_atms": 33, 
	 "gaussian": { 
		 "optdone": 1, 
		 "sigma_profile": "yes", 
		 "theory": "DFT", 
		 "functional": "B3LYP", 
		 "basiset": "6-31G**", 
		 "properties": { 
			 "R2extent": 4273.9671, 
			 "electric_dipole_moment_norm": 2.47472488168, 
			 "electric_quadrupole_moment_norm": 12.2750551416, 
			 "total_energy": -765.007109025, 
			 "HOMO_LUMO_gap": 0.20632, 
			 "cosmo_polarized_energy": -16.74, 
			 "cosmo_cavitation_energy": 33.99, 
			 "cosmo_dispersion_energy": -23.82, 
			 "cosmo_repulsion_energy": 1.81, 
			 "cosmo_total_nonelectrostatic_energy": 11.98, 
			 "SMD_solvation_energy": 5.02 
		},
		"coords": [
			{
				"x": 1.1496498153,
				"y": 1.5487099283,
				"z": -1.4500182643,
				"element": "C" 
			},
			{
				"x": 1.3692172042,
				"y": 0.8728219054,
				"z": -0.0914478917,
				"element": "C" 
			},
			{
				"x": 1.8104315417,
				"y": -0.5864951384,
				"z": -0.2742843552,
				"element": "C" 
			},
			{
				"x": 0.1793727552,
				"y": 0.981227645,
				"z": 0.898928327,
				"element": "C" 
			},
			{
				"x": -1.0795935109,
				"y": 0.3307561132,
				"z": 0.5090596481,
				"element": "N" 
			},
			{
				"x": -2.1033968023,
				"y": 0.768776826,
				"z": -0.3519934521,
				"element": "C" 
			},
			{
				"x": -2.2090483627,
				"y": 2.1491589926,
				"z": -0.9220941672,
				"element": "C" 
			},
			{
				"x": -3.0263993231,
				"y": -0.1414455715,
				"z": -0.5399377787,
				"element": "N" 
			},
			{
				"x": -2.6348135195,
				"y": -1.2451367362,
				"z": 0.2002527694,
				"element": "C" 
			},
			{
				"x": -1.4197929948,
				"y": -0.9797313081,
				"z": 0.8672889284,
				"element": "C" 
			},
			{
				"x": -0.8143484544,
				"y": -1.9192344881,
				"z": 1.7058514615,
				"element": "C" 
			},
			{
				"x": -1.4633682612,
				"y": -3.1436185055,
				"z": 1.855766749,
				"element": "C" 
			},
			{
				"x": -2.6728666997,
				"y": -3.4232678251,
				"z": 1.1909937572,
				"element": "C" 
			},
			{
				"x": -3.2711087812,
				"y": -2.4820789184,
				"z": 0.359597043,
				"element": "C" 
			},
			{
				"x": -0.0499940625,
				"y": 2.4202873437,
				"z": 1.4074074636,
				"element": "C" 
			},
			{
				"x": -1.1753439252,
				"y": 2.6022406093,
				"z": 2.1369090075,
				"element": "O" 
			},
			{
				"x": 0.7389555943,
				"y": 3.3171445892,
				"z": 1.2502741421,
				"element": "O" 
			},
			{
				"x": 0.3695670612,
				"y": 1.0448227548,
				"z": -2.0303172257,
				"element": "H" 
			},
			{
				"x": 2.0726504687,
				"y": 1.4961995753,
				"z": -2.0360201953,
				"element": "H" 
			},
			{
				"x": 0.8928080106,
				"y": 2.6044200153,
				"z": -1.3356182644,
				"element": "H" 
			},
			{
				"x": 2.1755638782,
				"y": 1.4160215449,
				"z": 0.4151396548,
				"element": "H" 
			},
			{
				"x": 2.7003913376,
				"y": -0.6305462799,
				"z": -0.9097175593,
				"element": "H" 
			},
			{
				"x": 2.0621202805,
				"y": -1.0614945097,
				"z": 0.6799785936,
				"element": "H" 
			},
			{
				"x": 1.0305634228,
				"y": -1.1874668544,
				"z": -0.7527040863,
				"element": "H" 
			},
			{
				"x": 0.4932310383,
				"y": 0.4465448768,
				"z": 1.8063815501,
				"element": "H" 
			},
			{
				"x": -2.3267106953,
				"y": 2.9031262733,
				"z": -0.1368468283,
				"element": "H" 
			},
			{
				"x": -3.0976207158,
				"y": 2.16730011,
				"z": -1.5537644758,
				"element": "H" 
			},
			{
				"x": -1.343977809,
				"y": 2.4309673462,
				"z": -1.5245328425,
				"element": "H" 
			},
			{
				"x": 0.1208400778,
				"y": -1.7241122644,
				"z": 2.2210016359,
				"element": "H" 
			},
			{
				"x": -1.0225549068,
				"y": -3.8988906408,
				"z": 2.4994724428,
				"element": "H" 
			},
			{
				"x": -3.1438517291,
				"y": -4.3911084653,
				"z": 1.3340669317,
				"element": "H" 
			},
			{
				"x": -4.2055125395,
				"y": -2.6830509281,
				"z": -0.1541875757,
				"element": "H" 
			},
			{
				"x": -1.6998593933,
				"y": 1.7851519844,
				"z": 2.134314857,
				"element": "H" 
			}
		],
		 "valence_orbital": [ 
			{
				"type": "occ",
				"energy": -0.30926,
				"method": "rhf"
			},
			{
				"type": "occ",
				"energy": -0.28625,
				"method": "rhf"
			},
			{
				"type": "occ",
				"energy": -0.27499,
				"method": "rhf"
			},
			{
				"type": "occ",
				"energy": -0.23402,
				"method": "rhf"
			},
			{
				"type": "occ",
				"energy": -0.22984,
				"method": "rhf"
			},
			{
				"type": "unocc",
				"energy": -0.02352,
				"method": "rhf"
			},
			{
				"type": "unocc",
				"energy": -0.01217,
				"method": "rhf"
			},
			{
				"type": "unocc",
				"energy": 0.01024,
				"method": "rhf"
			},
			{
				"type": "unocc",
				"energy": 0.04157,
				"method": "rhf"
			},
			{
				"type": "unocc",
				"energy": 0.05344,
				"method": "rhf"
			}
		],
		"cosmo_sigma_profile": { 
			"-0.025": 0.0,
			"-0.024": 0.0,
			"-0.023": 0.0,
			"-0.022": 0.0,
			"-0.021": 0.0,
			"-0.02": 0.0,
			"-0.019": 0.0,
			"-0.018": 0.0,
			"-0.017": 0.352866591265,
			"-0.016": 1.27050704117,
			"-0.015": 0.32895487394,
			"-0.014": 0.931511362043,
			"-0.013": 2.0830188475,
			"-0.012": 1.4094727053,
			"-0.011": 1.95703016083,
			"-0.01": 2.93749431485,
			"-0.009": 4.12278610623,
			"-0.008": 3.84329499764,
			"-0.007": 3.48328004994,
			"-0.006": 5.87404851597,
			"-0.005": 13.4146995539,
			"-0.004": 21.64435192,
			"-0.003": 29.5766023219,
			"-0.002": 26.7679056109,
			"-0.001": 22.1590803422,
			"0.0": 18.9038162769,
			"0.001": 18.5088793684,
			"0.002": 10.8738663041,
			"0.003": 9.48000462767,
			"0.004": 11.9542087982,
			"0.005": 12.7397618704,
			"0.006": 10.5739812745,
			"0.007": 4.45309833883,
			"0.008": 4.25660163214,
			"0.009": 4.90812230203,
			"0.01": 5.88287381346,
			"0.011": 5.82800228613,
			"0.012": 3.0502773018,
			"0.013": 0.992130625145,
			"0.014": 1.1733381175,
			"0.015": 0.615542925323,
			"0.016": 0.969237425677,
			"0.017": 0.793353462168,
			"0.018": 0.0720641630013,
			"0.019": 0.0,
			"0.02": 0.0,
			"0.021": 0.0,
			"0.022": 0.0,
			"0.023": 0.0,
			"0.024": 0.0,
			"0.025": 0.0
		}
	}
}
