{
	 "smiles": "CC1=CC=C(N)C=C1C", 
	 "Tm": 323.65, 
	 "num_atms": 20, 
	 "gaussian": { 
		 "optdone": 1, 
		 "sigma_profile": "yes", 
		 "theory": "DFT", 
		 "functional": "B3LYP", 
		 "basiset": "6-31G**", 
		 "properties": { 
			 "R2extent": 2310.2285, 
			 "electric_dipole_moment_norm": 1.40665724325, 
			 "electric_quadrupole_moment_norm": 9.18197487363, 
			 "total_energy": -366.248748795, 
			 "HOMO_LUMO_gap": 0.20339, 
			 "cosmo_polarized_energy": -7.51, 
			 "cosmo_cavitation_energy": 22.6, 
			 "cosmo_dispersion_energy": -16.74, 
			 "cosmo_repulsion_energy": 1.37, 
			 "cosmo_total_nonelectrostatic_energy": 7.23, 
			 "SMD_solvation_energy": 3.87 
		},
		"coords": [
			{
				"x": 2.2139139684,
				"y": 0.8214431739,
				"z": 2.3853484076,
				"element": "C" 
			},
			{
				"x": 1.5820231811,
				"y": -0.3722094855,
				"z": 1.7091972943,
				"element": "C" 
			},
			{
				"x": 0.4544385171,
				"y": -0.9896313504,
				"z": 2.2594466797,
				"element": "C" 
			},
			{
				"x": -0.1548982683,
				"y": -2.0908784564,
				"z": 1.6619453586,
				"element": "C" 
			},
			{
				"x": 0.3621852754,
				"y": -2.6155732986,
				"z": 0.4698943972,
				"element": "C" 
			},
			{
				"x": -0.1950543735,
				"y": -3.7576712404,
				"z": -0.1195372796,
				"element": "N" 
			},
			{
				"x": 1.4943161202,
				"y": -2.001058422,
				"z": -0.0894815511,
				"element": "C" 
			},
			{
				"x": 2.1061431049,
				"y": -0.8973126741,
				"z": 0.5079780227,
				"element": "C" 
			},
			{
				"x": 3.3216531095,
				"y": -0.2742198419,
				"z": -0.137779905,
				"element": "C" 
			},
			{
				"x": 1.6742915052,
				"y": 1.0839002675,
				"z": 3.299719815,
				"element": "H" 
			},
			{
				"x": 2.2173309168,
				"y": 1.7080975736,
				"z": 1.7383746666,
				"element": "H" 
			},
			{
				"x": 3.2590411591,
				"y": 0.6325497838,
				"z": 2.6621403179,
				"element": "H" 
			},
			{
				"x": 0.036781676,
				"y": -0.5962475883,
				"z": 3.1835729297,
				"element": "H" 
			},
			{
				"x": -1.0283867643,
				"y": -2.5476041894,
				"z": 2.1211653877,
				"element": "H" 
			},
			{
				"x": -0.0286291145,
				"y": -3.8414048693,
				"z": -1.1135042072,
				"element": "H" 
			},
			{
				"x": -1.1694947519,
				"y": -3.9113986344,
				"z": 0.102922613,
				"element": "H" 
			},
			{
				"x": 1.9090742617,
				"y": -2.4008008469,
				"z": -1.0130981392,
				"element": "H" 
			},
			{
				"x": 3.59572919,
				"y": -0.7975389986,
				"z": -1.0577670958,
				"element": "H" 
			},
			{
				"x": 3.1502205789,
				"y": 0.7793944329,
				"z": -0.3905753719,
				"element": "H" 
			},
			{
				"x": 4.190620708,
				"y": -0.2978353356,
				"z": 0.5312376599,
				"element": "H" 
			}
		],
		 "valence_orbital": [ 
			{
				"type": "occ",
				"energy": -0.33455,
				"method": "rhf"
			},
			{
				"type": "occ",
				"energy": -0.32252,
				"method": "rhf"
			},
			{
				"type": "occ",
				"energy": -0.28717,
				"method": "rhf"
			},
			{
				"type": "occ",
				"energy": -0.23081,
				"method": "rhf"
			},
			{
				"type": "occ",
				"energy": -0.18938,
				"method": "rhf"
			},
			{
				"type": "unocc",
				"energy": 0.01401,
				"method": "rhf"
			},
			{
				"type": "unocc",
				"energy": 0.02709,
				"method": "rhf"
			},
			{
				"type": "unocc",
				"energy": 0.0874,
				"method": "rhf"
			},
			{
				"type": "unocc",
				"energy": 0.10019,
				"method": "rhf"
			},
			{
				"type": "unocc",
				"energy": 0.11739,
				"method": "rhf"
			}
		],
		"cosmo_sigma_profile": { 
			"-0.025": 0.0,
			"-0.024": 0.0,
			"-0.023": 0.0,
			"-0.022": 0.0,
			"-0.021": 0.0,
			"-0.02": 0.0,
			"-0.019": 0.0,
			"-0.018": 0.0,
			"-0.017": 0.0,
			"-0.016": 0.0,
			"-0.015": 0.0,
			"-0.014": 0.0,
			"-0.013": 0.030453753442,
			"-0.012": 1.43544015706,
			"-0.011": 2.22162403773,
			"-0.01": 3.18485217109,
			"-0.009": 2.05207745715,
			"-0.008": 3.4033372424,
			"-0.007": 2.77730086733,
			"-0.006": 3.02370783087,
			"-0.005": 5.08336846879,
			"-0.004": 11.7789022003,
			"-0.003": 19.1985520599,
			"-0.002": 17.0090795605,
			"-0.001": 14.9593328727,
			"0.0": 17.9128366924,
			"0.001": 16.7053028394,
			"0.002": 8.57141494338,
			"0.003": 6.78091755069,
			"0.004": 6.68798703591,
			"0.005": 6.70089152342,
			"0.006": 7.02985887624,
			"0.007": 9.55300333712,
			"0.008": 5.51421935226,
			"0.009": 1.53895812919,
			"0.01": 0.635461336186,
			"0.011": 0.483600826172,
			"0.012": 0.727456277158,
			"0.013": 0.633101651584,
			"0.014": 0.895432397729,
			"0.015": 0.4966334855,
			"0.016": 0.18823401552,
			"0.017": 0.0,
			"0.018": 0.0,
			"0.019": 0.0,
			"0.02": 0.0,
			"0.021": 0.0,
			"0.022": 0.0,
			"0.023": 0.0,
			"0.024": 0.0,
			"0.025": 0.0
		}
	}
}
