{
	 "smiles": "COC1=CC=C(C=NC2=CC=CC=C2)C=C1", 
	 "Tm": 336.15, 
	 "num_atms": 29, 
	 "gaussian": { 
		 "optdone": 1, 
		 "sigma_profile": "yes", 
		 "theory": "DFT", 
		 "functional": "B3LYP", 
		 "basiset": "6-31G**", 
		 "properties": { 
			 "R2extent": 5000.2531, 
			 "electric_dipole_moment_norm": 3.75355403851, 
			 "electric_quadrupole_moment_norm": 8.29784770588, 
			 "total_energy": -671.272458561, 
			 "HOMO_LUMO_gap": 0.16222, 
			 "cosmo_polarized_energy": -9.51, 
			 "cosmo_cavitation_energy": 33.12, 
			 "cosmo_dispersion_energy": -23.63, 
			 "cosmo_repulsion_energy": 1.84, 
			 "cosmo_total_nonelectrostatic_energy": 11.33, 
			 "SMD_solvation_energy": 5.04 
		},
		"coords": [
			{
				"x": -3.4270164997,
				"y": 0.7947820796,
				"z": -1.9086373841,
				"element": "C" 
			},
			{
				"x": -2.1551621227,
				"y": 0.6715473246,
				"z": -2.5308487491,
				"element": "O" 
			},
			{
				"x": -1.0974831507,
				"y": 0.27609376,
				"z": -1.7745245921,
				"element": "C" 
			},
			{
				"x": 0.1304948095,
				"y": 0.1747990782,
				"z": -2.4477133906,
				"element": "C" 
			},
			{
				"x": 1.2630158214,
				"y": -0.220841114,
				"z": -1.7562778228,
				"element": "C" 
			},
			{
				"x": 1.2227386731,
				"y": -0.5318245916,
				"z": -0.380786487,
				"element": "C" 
			},
			{
				"x": 2.4962385829,
				"y": -0.9392476216,
				"z": 0.2441641917,
				"element": "C" 
			},
			{
				"x": 2.8097763101,
				"y": -1.3039542575,
				"z": 1.4284829996,
				"element": "N" 
			},
			{
				"x": 1.9240447564,
				"y": -1.4249702562,
				"z": 2.5120544445,
				"element": "C" 
			},
			{
				"x": 1.7783104896,
				"y": -0.3696556948,
				"z": 3.4291091079,
				"element": "C" 
			},
			{
				"x": 0.9760604975,
				"y": -0.5273407766,
				"z": 4.5585555305,
				"element": "C" 
			},
			{
				"x": 0.3193965872,
				"y": -1.7358493258,
				"z": 4.8029439311,
				"element": "C" 
			},
			{
				"x": 0.4791383025,
				"y": -2.7924094861,
				"z": 3.903211042,
				"element": "C" 
			},
			{
				"x": 1.2769310829,
				"y": -2.6462566507,
				"z": 2.7691264311,
				"element": "C" 
			},
			{
				"x": -0.0155348515,
				"y": -0.4232768264,
				"z": 0.2763170546,
				"element": "C" 
			},
			{
				"x": -1.1628508466,
				"y": -0.0248364786,
				"z": -0.4061705341,
				"element": "C" 
			},
			{
				"x": -3.7704952514,
				"y": -0.1635377317,
				"z": -1.49977647,
				"element": "H" 
			},
			{
				"x": -3.4131950833,
				"y": 1.544315838,
				"z": -1.1076740075,
				"element": "H" 
			},
			{
				"x": -4.1135217546,
				"y": 1.1182959458,
				"z": -2.6920989562,
				"element": "H" 
			},
			{
				"x": 0.1644449974,
				"y": 0.4123069931,
				"z": -3.5057266309,
				"element": "H" 
			},
			{
				"x": 2.2091287263,
				"y": -0.2946618638,
				"z": -2.2868409021,
				"element": "H" 
			},
			{
				"x": 3.3354527888,
				"y": -0.9196452948,
				"z": -0.4611189139,
				"element": "H" 
			},
			{
				"x": 2.2984938869,
				"y": 0.5650397013,
				"z": 3.2434224277,
				"element": "H" 
			},
			{
				"x": 0.8680281334,
				"y": 0.3007038822,
				"z": 5.254088589,
				"element": "H" 
			},
			{
				"x": -0.300162934,
				"y": -1.855565528,
				"z": 5.6865327891,
				"element": "H" 
			},
			{
				"x": -0.0186253559,
				"y": -3.7413071588,
				"z": 4.0846995925,
				"element": "H" 
			},
			{
				"x": 1.4095036803,
				"y": -3.4694390824,
				"z": 2.0737546933,
				"element": "H" 
			},
			{
				"x": -0.0920385413,
				"y": -0.6488557254,
				"z": 1.3315674032,
				"element": "H" 
			},
			{
				"x": -2.0986117344,
				"y": 0.0478908619,
				"z": 0.1349646125,
				"element": "H" 
			}
		],
		 "valence_orbital": [ 
			{
				"type": "occ",
				"energy": -0.28475,
				"method": "rhf"
			},
			{
				"type": "occ",
				"energy": -0.26172,
				"method": "rhf"
			},
			{
				"type": "occ",
				"energy": -0.24369,
				"method": "rhf"
			},
			{
				"type": "occ",
				"energy": -0.2246,
				"method": "rhf"
			},
			{
				"type": "occ",
				"energy": -0.20556,
				"method": "rhf"
			},
			{
				"type": "unocc",
				"energy": -0.04334,
				"method": "rhf"
			},
			{
				"type": "unocc",
				"energy": -0.01083,
				"method": "rhf"
			},
			{
				"type": "unocc",
				"energy": 0.008,
				"method": "rhf"
			},
			{
				"type": "unocc",
				"energy": 0.01475,
				"method": "rhf"
			},
			{
				"type": "unocc",
				"energy": 0.05556,
				"method": "rhf"
			}
		],
		"cosmo_sigma_profile": { 
			"-0.025": 0.0,
			"-0.024": 0.0,
			"-0.023": 0.0,
			"-0.022": 0.0,
			"-0.021": 0.0,
			"-0.02": 0.0,
			"-0.019": 0.0,
			"-0.018": 0.0,
			"-0.017": 0.0,
			"-0.016": 0.0,
			"-0.015": 0.0,
			"-0.014": 0.0,
			"-0.013": 0.0,
			"-0.012": 0.0,
			"-0.011": 0.0,
			"-0.01": 0.0,
			"-0.009": 0.0,
			"-0.008": 0.217267460068,
			"-0.007": 4.93353763822,
			"-0.006": 16.2537647384,
			"-0.005": 25.574203595,
			"-0.004": 24.2926138123,
			"-0.003": 24.0450657473,
			"-0.002": 16.8454665079,
			"-0.001": 16.3869921175,
			"0.0": 16.2602495427,
			"0.001": 19.4360805692,
			"0.002": 21.2840754387,
			"0.003": 19.7915263081,
			"0.004": 21.9289115075,
			"0.005": 13.9398706834,
			"0.006": 8.61086398309,
			"0.007": 3.52303279957,
			"0.008": 2.77628016903,
			"0.009": 2.6566163319,
			"0.01": 1.8939256214,
			"0.011": 0.897594608528,
			"0.012": 0.968682367563,
			"0.013": 1.08518767488,
			"0.014": 0.922180818745,
			"0.015": 0.626676167699,
			"0.016": 0.057706954377,
			"0.017": 0.0,
			"0.018": 0.0,
			"0.019": 0.0,
			"0.02": 0.0,
			"0.021": 0.0,
			"0.022": 0.0,
			"0.023": 0.0,
			"0.024": 0.0,
			"0.025": 0.0
		}
	}
}
