{
	 "smiles": "CN1N=C(CCl)C=C1C1=CC=CS1", 
	 "Tm": 314.65, 
	 "num_atms": 22, 
	 "gaussian": { 
		 "optdone": 1, 
		 "sigma_profile": "yes", 
		 "theory": "DFT", 
		 "functional": "B3LYP", 
		 "basiset": "6-31G**", 
		 "properties": { 
			 "R2extent": 4283.8793, 
			 "electric_dipole_moment_norm": 4.41757025637, 
			 "electric_quadrupole_moment_norm": 14.392301143, 
			 "total_energy": -1316.23730537, 
			 "HOMO_LUMO_gap": 0.18273, 
			 "cosmo_polarized_energy": -9.89, 
			 "cosmo_cavitation_energy": 29.57, 
			 "cosmo_dispersion_energy": -21.97, 
			 "cosmo_repulsion_energy": 1.71, 
			 "cosmo_total_nonelectrostatic_energy": 9.31, 
			 "SMD_solvation_energy": 3.66 
		},
		"coords": [
			{
				"x": -1.9791641897,
				"y": 0.5709477726,
				"z": -0.8351490819,
				"element": "C" 
			},
			{
				"x": -0.6187987649,
				"y": 1.0826691894,
				"z": -0.7889312904,
				"element": "N" 
			},
			{
				"x": -0.3854838251,
				"y": 2.3310750428,
				"z": -1.237369064,
				"element": "N" 
			},
			{
				"x": 0.9318740451,
				"y": 2.5159376099,
				"z": -1.1033518294,
				"element": "C" 
			},
			{
				"x": 1.5346055563,
				"y": 3.8078153722,
				"z": -1.5244721339,
				"element": "C" 
			},
			{
				"x": 2.0329463239,
				"y": 4.8584199948,
				"z": -0.1013768606,
				"element": "Cl" 
			},
			{
				"x": 1.5543237334,
				"y": 1.3759889276,
				"z": -0.556234056,
				"element": "C" 
			},
			{
				"x": 0.5284276025,
				"y": 0.4598704851,
				"z": -0.3579662318,
				"element": "C" 
			},
			{
				"x": 0.6138157248,
				"y": -0.8991427891,
				"z": 0.1607197743,
				"element": "C" 
			},
			{
				"x": 1.6426468578,
				"y": -1.7882800756,
				"z": -0.0575970244,
				"element": "C" 
			},
			{
				"x": 1.4963838904,
				"y": -3.0152954817,
				"z": 0.6500237302,
				"element": "C" 
			},
			{
				"x": 0.3576965941,
				"y": -3.0584410694,
				"z": 1.4067762428,
				"element": "C" 
			},
			{
				"x": -0.5518280607,
				"y": -1.5897977167,
				"z": 1.2764244942,
				"element": "S" 
			},
			{
				"x": -2.4633281186,
				"y": 0.6315031948,
				"z": 0.1447595491,
				"element": "H" 
			},
			{
				"x": -1.9801823769,
				"y": -0.4678342047,
				"z": -1.1711736915,
				"element": "H" 
			},
			{
				"x": -2.5292313224,
				"y": 1.1896145126,
				"z": -1.543329099,
				"element": "H" 
			},
			{
				"x": 2.4471315353,
				"y": 3.6693020688,
				"z": -2.1044288043,
				"element": "H" 
			},
			{
				"x": 0.8136270524,
				"y": 4.3917315831,
				"z": -2.094618837,
				"element": "H" 
			},
			{
				"x": 2.594337245,
				"y": 1.2405254588,
				"z": -0.3002557781,
				"element": "H" 
			},
			{
				"x": 2.4698775503,
				"y": -1.5654084247,
				"z": -0.7214644425,
				"element": "H" 
			},
			{
				"x": 2.2028791933,
				"y": -3.8350051833,
				"z": 0.5883751473,
				"element": "H" 
			},
			{
				"x": -0.0103562461,
				"y": -3.8653962672,
				"z": 2.0250392869,
				"element": "H" 
			}
		],
		 "valence_orbital": [ 
			{
				"type": "occ",
				"energy": -0.2858,
				"method": "rhf"
			},
			{
				"type": "occ",
				"energy": -0.27685,
				"method": "rhf"
			},
			{
				"type": "occ",
				"energy": -0.26261,
				"method": "rhf"
			},
			{
				"type": "occ",
				"energy": -0.24947,
				"method": "rhf"
			},
			{
				"type": "occ",
				"energy": -0.22211,
				"method": "rhf"
			},
			{
				"type": "unocc",
				"energy": -0.03938,
				"method": "rhf"
			},
			{
				"type": "unocc",
				"energy": -0.00153,
				"method": "rhf"
			},
			{
				"type": "unocc",
				"energy": 0.01726,
				"method": "rhf"
			},
			{
				"type": "unocc",
				"energy": 0.02781,
				"method": "rhf"
			},
			{
				"type": "unocc",
				"energy": 0.05835,
				"method": "rhf"
			}
		],
		"cosmo_sigma_profile": { 
			"-0.025": 0.0,
			"-0.024": 0.0,
			"-0.023": 0.0,
			"-0.022": 0.0,
			"-0.021": 0.0,
			"-0.02": 0.0,
			"-0.019": 0.0,
			"-0.018": 0.0,
			"-0.017": 0.0,
			"-0.016": 0.0,
			"-0.015": 0.0,
			"-0.014": 0.0,
			"-0.013": 0.0,
			"-0.012": 0.0,
			"-0.011": 0.0,
			"-0.01": 0.0,
			"-0.009": 0.919108693414,
			"-0.008": 3.78075730195,
			"-0.007": 10.2034959579,
			"-0.006": 17.3585437851,
			"-0.005": 17.1091138063,
			"-0.004": 21.1316702451,
			"-0.003": 18.027925886,
			"-0.002": 12.9363428227,
			"-0.001": 10.9754557317,
			"0.0": 13.068466847,
			"0.001": 15.2706472566,
			"0.002": 17.207561047,
			"0.003": 20.4304205706,
			"0.004": 20.7039951666,
			"0.005": 14.829176444,
			"0.006": 10.9039720268,
			"0.007": 9.03697831025,
			"0.008": 1.204261333,
			"0.009": 0.783876111568,
			"0.01": 1.02805333913,
			"0.011": 1.16993119062,
			"0.012": 0.771420344402,
			"0.013": 0.681867339121,
			"0.014": 0.986215923493,
			"0.015": 0.261943306769,
			"0.016": 0.0,
			"0.017": 0.0,
			"0.018": 0.0,
			"0.019": 0.0,
			"0.02": 0.0,
			"0.021": 0.0,
			"0.022": 0.0,
			"0.023": 0.0,
			"0.024": 0.0,
			"0.025": 0.0
		}
	}
}
