{
	 "smiles": "OCC1=CC(=C(Cl)C=C1)C(F)(F)F", 
	 "Tm": 318.15, 
	 "num_atms": 19, 
	 "gaussian": { 
		 "optdone": 1, 
		 "sigma_profile": "yes", 
		 "theory": "DFT", 
		 "functional": "B3LYP", 
		 "basiset": "6-31G**", 
		 "properties": { 
			 "R2extent": 3229.6808, 
			 "electric_dipole_moment_norm": 4.51348230195, 
			 "electric_quadrupole_moment_norm": 10.608898423, 
			 "total_energy": -1143.39586685, 
			 "HOMO_LUMO_gap": 0.21705, 
			 "cosmo_polarized_energy": -8.6, 
			 "cosmo_cavitation_energy": 26.08, 
			 "cosmo_dispersion_energy": -19.05, 
			 "cosmo_repulsion_energy": 1.46, 
			 "cosmo_total_nonelectrostatic_energy": 8.5, 
			 "SMD_solvation_energy": 5.42 
		},
		"coords": [
			{
				"x": 3.6985410155,
				"y": -0.2578364009,
				"z": 1.9657051704,
				"element": "O" 
			},
			{
				"x": 2.3705492481,
				"y": 0.0846881531,
				"z": 2.3202468311,
				"element": "C" 
			},
			{
				"x": 1.4207268803,
				"y": -0.3982988964,
				"z": 1.2459463076,
				"element": "C" 
			},
			{
				"x": 0.05210064,
				"y": -0.1441981313,
				"z": 1.3693624011,
				"element": "C" 
			},
			{
				"x": -0.8629317543,
				"y": -0.5730836421,
				"z": 0.405957536,
				"element": "C" 
			},
			{
				"x": -0.3832210105,
				"y": -1.2761361073,
				"z": -0.7114217571,
				"element": "C" 
			},
			{
				"x": -1.4599849359,
				"y": -1.8522012412,
				"z": -1.9707785568,
				"element": "Cl" 
			},
			{
				"x": 0.9783589407,
				"y": -1.5346804837,
				"z": -0.8460145414,
				"element": "C" 
			},
			{
				"x": 1.876173161,
				"y": -1.0980438968,
				"z": 0.128226177,
				"element": "C" 
			},
			{
				"x": -2.330861456,
				"y": -0.267576518,
				"z": 0.5960999936,
				"element": "C" 
			},
			{
				"x": -2.8240718048,
				"y": 0.4842716689,
				"z": -0.4091745057,
				"element": "F" 
			},
			{
				"x": -2.5469294499,
				"y": 0.4178014039,
				"z": 1.7430241622,
				"element": "F" 
			},
			{
				"x": -3.0751400421,
				"y": -1.3903476782,
				"z": 0.6638175378,
				"element": "F" 
			},
			{
				"x": 4.2865101354,
				"y": 0.0461853768,
				"z": 2.6668323488,
				"element": "H" 
			},
			{
				"x": 2.082915275,
				"y": -0.3699970028,
				"z": 3.2828831639,
				"element": "H" 
			},
			{
				"x": 2.2547457305,
				"y": 1.1750332651,
				"z": 2.4369927574,
				"element": "H" 
			},
			{
				"x": -0.3236958136,
				"y": 0.3991114621,
				"z": 2.2299717213,
				"element": "H" 
			},
			{
				"x": 1.330903185,
				"y": -2.0782906295,
				"z": -1.7154858854,
				"element": "H" 
			},
			{
				"x": 2.9357120558,
				"y": -1.2988007017,
				"z": 0.0236091383,
				"element": "H" 
			}
		],
		 "valence_orbital": [ 
			{
				"type": "occ",
				"energy": -0.33729,
				"method": "rhf"
			},
			{
				"type": "occ",
				"energy": -0.31434,
				"method": "rhf"
			},
			{
				"type": "occ",
				"energy": -0.29218,
				"method": "rhf"
			},
			{
				"type": "occ",
				"energy": -0.27493,
				"method": "rhf"
			},
			{
				"type": "occ",
				"energy": -0.24863,
				"method": "rhf"
			},
			{
				"type": "unocc",
				"energy": -0.03158,
				"method": "rhf"
			},
			{
				"type": "unocc",
				"energy": -0.02448,
				"method": "rhf"
			},
			{
				"type": "unocc",
				"energy": 0.02626,
				"method": "rhf"
			},
			{
				"type": "unocc",
				"energy": 0.05937,
				"method": "rhf"
			},
			{
				"type": "unocc",
				"energy": 0.10838,
				"method": "rhf"
			}
		],
		"cosmo_sigma_profile": { 
			"-0.025": 0.0,
			"-0.024": 0.0,
			"-0.023": 0.0,
			"-0.022": 0.0,
			"-0.021": 0.0,
			"-0.02": 0.0,
			"-0.019": 0.0,
			"-0.018": 0.0,
			"-0.017": 0.095950078757,
			"-0.016": 1.15646506338,
			"-0.015": 1.11750620333,
			"-0.014": 0.88829050481,
			"-0.013": 0.738025234119,
			"-0.012": 0.853645905034,
			"-0.011": 1.11036732793,
			"-0.01": 0.630342231593,
			"-0.009": 1.64725271171,
			"-0.008": 2.17546117139,
			"-0.007": 4.48522039123,
			"-0.006": 7.97650169551,
			"-0.005": 12.6866016942,
			"-0.004": 9.81016694667,
			"-0.003": 10.1528250037,
			"-0.002": 10.3508789681,
			"-0.001": 9.62962455302,
			"0.0": 16.5870651868,
			"0.001": 21.0409454658,
			"0.002": 33.2083984432,
			"0.003": 34.4219875641,
			"0.004": 15.7830322271,
			"0.005": 3.92221703733,
			"0.006": 1.74432630429,
			"0.007": 1.16636385856,
			"0.008": 1.34103673728,
			"0.009": 1.98565948207,
			"0.01": 1.41946973538,
			"0.011": 1.53608075723,
			"0.012": 0.780972972513,
			"0.013": 0.0292492537956,
			"0.014": 0.0,
			"0.015": 0.0,
			"0.016": 0.0,
			"0.017": 0.0,
			"0.018": 0.0,
			"0.019": 0.0,
			"0.02": 0.0,
			"0.021": 0.0,
			"0.022": 0.0,
			"0.023": 0.0,
			"0.024": 0.0,
			"0.025": 0.0
		}
	}
}
