{
	 "smiles": "CCNC1CC(C)S(=O)(=O)C2=C1C=C(S2)S(N)(=O)=O", 
	 "Tm": 557.15, 
	 "num_atms": 35, 
	 "gaussian": { 
		 "optdone": 1, 
		 "sigma_profile": "yes", 
		 "theory": "DFT", 
		 "functional": "B3LYP", 
		 "basiset": "6-31G**", 
		 "properties": { 
			 "R2extent": 8438.3155, 
			 "electric_dipole_moment_norm": 6.46674269242, 
			 "electric_quadrupole_moment_norm": 21.3768833771, 
			 "total_energy": -1995.51079971, 
			 "HOMO_LUMO_gap": 0.16715, 
			 "cosmo_polarized_energy": -26.51, 
			 "cosmo_cavitation_energy": 41.02, 
			 "cosmo_dispersion_energy": -30.01, 
			 "cosmo_repulsion_energy": 2.23, 
			 "cosmo_total_nonelectrostatic_energy": 13.24, 
			 "SMD_solvation_energy": 3.92 
		},
		"coords": [
			{
				"x": -4.2495870553,
				"y": 0.8956317452,
				"z": -0.6499268157,
				"element": "C" 
			},
			{
				"x": -2.8100750677,
				"y": 1.158610539,
				"z": -1.0875191734,
				"element": "C" 
			},
			{
				"x": -1.9243583155,
				"y": 0.1134571298,
				"z": -0.5773886739,
				"element": "N" 
			},
			{
				"x": -0.5303691837,
				"y": 0.101739657,
				"z": -1.0227069661,
				"element": "C" 
			},
			{
				"x": -0.0902489729,
				"y": -1.3708272006,
				"z": -1.17213935,
				"element": "C" 
			},
			{
				"x": 1.3895249058,
				"y": -1.5949672157,
				"z": -1.5270539813,
				"element": "C" 
			},
			{
				"x": 1.8844525957,
				"y": -0.9082894731,
				"z": -2.8001243603,
				"element": "C" 
			},
			{
				"x": 2.3914280164,
				"y": -1.1230684734,
				"z": -0.0704344571,
				"element": "S" 
			},
			{
				"x": 2.0570159896,
				"y": -2.047860962,
				"z": 1.0236341874,
				"element": "O" 
			},
			{
				"x": 3.7976973294,
				"y": -0.9129348829,
				"z": -0.4473036812,
				"element": "O" 
			},
			{
				"x": 1.6697009488,
				"y": 0.4773328893,
				"z": 0.2741077161,
				"element": "C" 
			},
			{
				"x": 0.4267747988,
				"y": 0.9063773875,
				"z": -0.1454531898,
				"element": "C" 
			},
			{
				"x": 0.1673993402,
				"y": 2.2291295603,
				"z": 0.334641624,
				"element": "C" 
			},
			{
				"x": 1.1956370016,
				"y": 2.7330664389,
				"z": 1.0850684412,
				"element": "C" 
			},
			{
				"x": 2.5299296946,
				"y": 1.6343689192,
				"z": 1.2433174058,
				"element": "S" 
			},
			{
				"x": 1.1719475439,
				"y": 4.3289351472,
				"z": 1.8663291214,
				"element": "S" 
			},
			{
				"x": 2.3341400163,
				"y": 5.1908125376,
				"z": 0.9994478528,
				"element": "N" 
			},
			{
				"x": -0.1514201237,
				"y": 4.8917742985,
				"z": 1.5902152092,
				"element": "O" 
			},
			{
				"x": 1.702473974,
				"y": 4.1883444876,
				"z": 3.2212024735,
				"element": "O" 
			},
			{
				"x": -4.3423786465,
				"y": 0.9326503915,
				"z": 0.4416038106,
				"element": "H" 
			},
			{
				"x": -4.923411327,
				"y": 1.6520309358,
				"z": -1.0636352663,
				"element": "H" 
			},
			{
				"x": -4.5789640749,
				"y": -0.0920630262,
				"z": -0.9845241295,
				"element": "H" 
			},
			{
				"x": -2.7491171167,
				"y": 1.1356573896,
				"z": -2.1831256646,
				"element": "H" 
			},
			{
				"x": -2.5258333585,
				"y": 2.1820102992,
				"z": -0.7843642284,
				"element": "H" 
			},
			{
				"x": -1.9825914667,
				"y": 0.0405831196,
				"z": 0.4345306965,
				"element": "H" 
			},
			{
				"x": -0.5200363045,
				"y": 0.5659656623,
				"z": -2.0183612422,
				"element": "H" 
			},
			{
				"x": -0.712297589,
				"y": -1.8267056444,
				"z": -1.9486623451,
				"element": "H" 
			},
			{
				"x": -0.3159500366,
				"y": -1.9018399315,
				"z": -0.2416121138,
				"element": "H" 
			},
			{
				"x": 1.5801411268,
				"y": -2.6732264498,
				"z": -1.5839649266,
				"element": "H" 
			},
			{
				"x": 2.9368584575,
				"y": -1.1370820401,
				"z": -2.977568296,
				"element": "H" 
			},
			{
				"x": 1.7814819889,
				"y": 0.1792696817,
				"z": -2.7487646858,
				"element": "H" 
			},
			{
				"x": 1.2996330204,
				"y": -1.2666426326,
				"z": -3.6535982741,
				"element": "H" 
			},
			{
				"x": -0.7362133469,
				"y": 2.7935982183,
				"z": 0.1471762566,
				"element": "H" 
			},
			{
				"x": 2.9531672607,
				"y": 5.6644539462,
				"z": 1.6522579998,
				"element": "H" 
			},
			{
				"x": 1.8939479768,
				"y": 5.8406075508,
				"z": 0.3535990262,
				"element": "H" 
			}
		],
		 "valence_orbital": [ 
			{
				"type": "occ",
				"energy": -0.30266,
				"method": "rhf"
			},
			{
				"type": "occ",
				"energy": -0.29111,
				"method": "rhf"
			},
			{
				"type": "occ",
				"energy": -0.28306,
				"method": "rhf"
			},
			{
				"type": "occ",
				"energy": -0.26577,
				"method": "rhf"
			},
			{
				"type": "occ",
				"energy": -0.23654,
				"method": "rhf"
			},
			{
				"type": "unocc",
				"energy": -0.06939,
				"method": "rhf"
			},
			{
				"type": "unocc",
				"energy": -0.00042,
				"method": "rhf"
			},
			{
				"type": "unocc",
				"energy": 0.00728,
				"method": "rhf"
			},
			{
				"type": "unocc",
				"energy": 0.01769,
				"method": "rhf"
			},
			{
				"type": "unocc",
				"energy": 0.04619,
				"method": "rhf"
			}
		],
		"cosmo_sigma_profile": { 
			"-0.025": 0.0,
			"-0.024": 0.0,
			"-0.023": 0.0,
			"-0.022": 0.0,
			"-0.021": 0.0,
			"-0.02": 0.0,
			"-0.019": 0.0,
			"-0.018": 0.0,
			"-0.017": 0.0,
			"-0.016": 0.229643661676,
			"-0.015": 2.08788866189,
			"-0.014": 3.07468673676,
			"-0.013": 2.54060509838,
			"-0.012": 2.47717596723,
			"-0.011": 1.78210757567,
			"-0.01": 3.25238311832,
			"-0.009": 4.88719606532,
			"-0.008": 6.32212554055,
			"-0.007": 8.09269368947,
			"-0.006": 16.4928492708,
			"-0.005": 21.4385283292,
			"-0.004": 21.4285321681,
			"-0.003": 24.4082161947,
			"-0.002": 26.5281281805,
			"-0.001": 32.6466174178,
			"0.0": 22.611272987,
			"0.001": 19.3046699944,
			"0.002": 12.7656207473,
			"0.003": 8.37663004531,
			"0.004": 6.61622734409,
			"0.005": 6.09471191575,
			"0.006": 7.15022815871,
			"0.007": 7.07373571626,
			"0.008": 8.03902085413,
			"0.009": 8.38962683494,
			"0.01": 19.5662635929,
			"0.011": 16.3467699914,
			"0.012": 4.07625891447,
			"0.013": 0.226093305903,
			"0.014": 0.470842569235,
			"0.015": 0.0257397218393,
			"0.016": 0.0,
			"0.017": 0.0,
			"0.018": 0.0,
			"0.019": 0.0,
			"0.02": 0.0,
			"0.021": 0.0,
			"0.022": 0.0,
			"0.023": 0.0,
			"0.024": 0.0,
			"0.025": 0.0
		}
	}
}
