{
	 "smiles": "OC(=O)C1=CC=C(CN2CCS(=O)(=O)CC2)C=C1", 
	 "Tm": 495.15, 
	 "num_atms": 33, 
	 "gaussian": { 
		 "optdone": 1, 
		 "sigma_profile": "yes", 
		 "theory": "DFT", 
		 "functional": "B3LYP", 
		 "basiset": "6-31G**", 
		 "properties": { 
			 "R2extent": 8088.4009, 
			 "electric_dipole_moment_norm": 3.93263348661, 
			 "electric_quadrupole_moment_norm": 33.6682735716, 
			 "total_energy": -1220.10640739, 
			 "HOMO_LUMO_gap": 0.1892, 
			 "cosmo_polarized_energy": -22.75, 
			 "cosmo_cavitation_energy": 37.09, 
			 "cosmo_dispersion_energy": -27.03, 
			 "cosmo_repulsion_energy": 2.03, 
			 "cosmo_total_nonelectrostatic_energy": 12.08, 
			 "SMD_solvation_energy": 5.11 
		},
		"coords": [
			{
				"x": 4.4483629989,
				"y": -2.0220309816,
				"z": -3.7089889217,
				"element": "O" 
			},
			{
				"x": 4.0422348998,
				"y": -0.7282907416,
				"z": -3.7617275423,
				"element": "C" 
			},
			{
				"x": 4.4379924568,
				"y": 0.0373699007,
				"z": -4.618636309,
				"element": "O" 
			},
			{
				"x": 3.0865494921,
				"y": -0.3731121402,
				"z": -2.6799948384,
				"element": "C" 
			},
			{
				"x": 2.5978426896,
				"y": 0.9382827473,
				"z": -2.6383967817,
				"element": "C" 
			},
			{
				"x": 1.6972710142,
				"y": 1.3162573685,
				"z": -1.646273216,
				"element": "C" 
			},
			{
				"x": 1.2750685673,
				"y": 0.3984494248,
				"z": -0.6759506316,
				"element": "C" 
			},
			{
				"x": 0.3402133474,
				"y": 0.8294880192,
				"z": 0.4388956744,
				"element": "C" 
			},
			{
				"x": -0.703279118,
				"y": -0.1590864102,
				"z": 0.7299596517,
				"element": "N" 
			},
			{
				"x": -1.6784848515,
				"y": -0.2500691821,
				"z": -0.3645414471,
				"element": "C" 
			},
			{
				"x": -2.5703613816,
				"y": -1.487072057,
				"z": -0.233654872,
				"element": "C" 
			},
			{
				"x": -3.5316028461,
				"y": -1.4254812839,
				"z": 1.3031015806,
				"element": "S" 
			},
			{
				"x": -4.3822882714,
				"y": -0.2224177847,
				"z": 1.2541989301,
				"element": "O" 
			},
			{
				"x": -4.1127004511,
				"y": -2.7485253176,
				"z": 1.5744656412,
				"element": "O" 
			},
			{
				"x": -2.1880967984,
				"y": -1.1034486388,
				"z": 2.4787822518,
				"element": "C" 
			},
			{
				"x": -1.3434099027,
				"y": 0.0909389948,
				"z": 2.0256661242,
				"element": "C" 
			},
			{
				"x": 1.7673998026,
				"y": -0.9140150768,
				"z": -0.7243537432,
				"element": "C" 
			},
			{
				"x": 2.6635643981,
				"y": -1.3005308998,
				"z": -1.7162942269,
				"element": "C" 
			},
			{
				"x": 5.0619222539,
				"y": -2.1357732418,
				"z": -4.4532562913,
				"element": "H" 
			},
			{
				"x": 2.9301908587,
				"y": 1.6416552095,
				"z": -3.3943822021,
				"element": "H" 
			},
			{
				"x": 1.3166793199,
				"y": 2.3342532258,
				"z": -1.623636795,
				"element": "H" 
			},
			{
				"x": -0.081594581,
				"y": 1.8233135712,
				"z": 0.2002540853,
				"element": "H" 
			},
			{
				"x": 0.9289561837,
				"y": 0.9588879391,
				"z": 1.3561863037,
				"element": "H" 
			},
			{
				"x": -1.1281558275,
				"y": -0.3283015032,
				"z": -1.3064905015,
				"element": "H" 
			},
			{
				"x": -2.3144900078,
				"y": 0.6505542177,
				"z": -0.4244828055,
				"element": "H" 
			},
			{
				"x": -1.9838850572,
				"y": -2.4088418874,
				"z": -0.2079970629,
				"element": "H" 
			},
			{
				"x": -3.3057492166,
				"y": -1.5429041562,
				"z": -1.0408380648,
				"element": "H" 
			},
			{
				"x": -2.6747491949,
				"y": -0.914589297,
				"z": 3.439507795,
				"element": "H" 
			},
			{
				"x": -1.5928573129,
				"y": -2.0177879224,
				"z": 2.5421544583,
				"element": "H" 
			},
			{
				"x": -1.9763833133,
				"y": 0.995581382,
				"z": 2.0153225158,
				"element": "H" 
			},
			{
				"x": -0.5577682725,
				"y": 0.2498942061,
				"z": 2.7720500406,
				"element": "H" 
			},
			{
				"x": 1.4294073881,
				"y": -1.6285438971,
				"z": 0.0195458721,
				"element": "H" 
			},
			{
				"x": 3.0409007337,
				"y": -2.3164037875,
				"z": -1.7490946717,
				"element": "H" 
			}
		],
		 "valence_orbital": [ 
			{
				"type": "occ",
				"energy": -0.28189,
				"method": "rhf"
			},
			{
				"type": "occ",
				"energy": -0.28113,
				"method": "rhf"
			},
			{
				"type": "occ",
				"energy": -0.26974,
				"method": "rhf"
			},
			{
				"type": "occ",
				"energy": -0.26543,
				"method": "rhf"
			},
			{
				"type": "occ",
				"energy": -0.24607,
				"method": "rhf"
			},
			{
				"type": "unocc",
				"energy": -0.05687,
				"method": "rhf"
			},
			{
				"type": "unocc",
				"energy": -0.01954,
				"method": "rhf"
			},
			{
				"type": "unocc",
				"energy": 0.04099,
				"method": "rhf"
			},
			{
				"type": "unocc",
				"energy": 0.06194,
				"method": "rhf"
			},
			{
				"type": "unocc",
				"energy": 0.06824,
				"method": "rhf"
			}
		],
		"cosmo_sigma_profile": { 
			"-0.025": 0.0,
			"-0.024": 0.0,
			"-0.023": 0.0,
			"-0.022": 0.0,
			"-0.021": 0.0,
			"-0.02": 0.0,
			"-0.019": 0.0682868982605,
			"-0.018": 0.68897848401,
			"-0.017": 1.18596897458,
			"-0.016": 0.786552595418,
			"-0.015": 0.307390227664,
			"-0.014": 0.721706048624,
			"-0.013": 0.578716091522,
			"-0.012": 0.743242101949,
			"-0.011": 1.14885158757,
			"-0.01": 0.701384317909,
			"-0.009": 2.68447722678,
			"-0.008": 7.79607154387,
			"-0.007": 12.067716036,
			"-0.006": 19.0423465704,
			"-0.005": 23.1920525441,
			"-0.004": 27.7374114405,
			"-0.003": 24.3052112469,
			"-0.002": 20.2666981776,
			"-0.001": 13.1833015693,
			"0.0": 13.4378629385,
			"0.001": 15.8337507747,
			"0.002": 15.5904637965,
			"0.003": 17.4053138767,
			"0.004": 11.051316201,
			"0.005": 5.15646169322,
			"0.006": 5.63105090501,
			"0.007": 6.20356232138,
			"0.008": 4.56260777982,
			"0.009": 4.24871941828,
			"0.01": 5.00954256721,
			"0.011": 12.4758249268,
			"0.012": 15.6590708408,
			"0.013": 3.09083707015,
			"0.014": 0.0,
			"0.015": 0.0,
			"0.016": 0.0,
			"0.017": 0.0,
			"0.018": 0.0,
			"0.019": 0.0,
			"0.02": 0.0,
			"0.021": 0.0,
			"0.022": 0.0,
			"0.023": 0.0,
			"0.024": 0.0,
			"0.025": 0.0
		}
	}
}
