{
	 "smiles": "CC1=C(C=CC2=CC=C(C=CC3=C(C)C=CC=C3)C=C2)C=CC=C1", 
	 "Tm": 454.65, 
	 "num_atms": 46, 
	 "gaussian": { 
		 "optdone": 1, 
		 "sigma_profile": "yes", 
		 "theory": "DFT", 
		 "functional": "B3LYP", 
		 "basiset": "6-31G**", 
		 "properties": { 
			 "R2extent": 18269.2132, 
			 "electric_dipole_moment_norm": 0.000836660026534, 
			 "electric_quadrupole_moment_norm": 14.2769802392, 
			 "total_energy": -927.817220583, 
			 "HOMO_LUMO_gap": 0.12688, 
			 "cosmo_polarized_energy": -9.68, 
			 "cosmo_cavitation_energy": 49.7, 
			 "cosmo_dispersion_energy": -35.27, 
			 "cosmo_repulsion_energy": 2.63, 
			 "cosmo_total_nonelectrostatic_energy": 17.06, 
			 "SMD_solvation_energy": 7.96 
		},
		"coords": [
			{
				"x": -1.39658213,
				"y": 3.0219137622,
				"z": 5.6454179049,
				"element": "C" 
			},
			{
				"x": -2.6509169684,
				"y": 3.3709619745,
				"z": 4.8763422948,
				"element": "C" 
			},
			{
				"x": -2.8372436718,
				"y": 2.9581043823,
				"z": 3.5313931326,
				"element": "C" 
			},
			{
				"x": -1.7978937136,
				"y": 2.1834761118,
				"z": 2.8421068254,
				"element": "C" 
			},
			{
				"x": -1.9925141336,
				"y": 1.3650666411,
				"z": 1.7853151482,
				"element": "C" 
			},
			{
				"x": -0.9737652343,
				"y": 0.6065025406,
				"z": 1.0602377745,
				"element": "C" 
			},
			{
				"x": -1.3812159545,
				"y": -0.3454078771,
				"z": 0.1026707412,
				"element": "C" 
			},
			{
				"x": -0.4645990587,
				"y": -1.1059269123,
				"z": -0.6086717936,
				"element": "C" 
			},
			{
				"x": 0.9211157504,
				"y": -0.9476711875,
				"z": -0.4090475468,
				"element": "C" 
			},
			{
				"x": 1.9398995469,
				"y": -1.7063962591,
				"z": -1.1339406814,
				"element": "C" 
			},
			{
				"x": 1.7450763033,
				"y": -2.5264590527,
				"z": -2.1894072598,
				"element": "C" 
			},
			{
				"x": 2.7844501746,
				"y": -3.3011666253,
				"z": -2.8785840301,
				"element": "C" 
			},
			{
				"x": 2.5970927899,
				"y": -3.7161913978,
				"z": -4.2227139148,
				"element": "C" 
			},
			{
				"x": 1.3416634365,
				"y": -3.3693621926,
				"z": -4.991011786,
				"element": "C" 
			},
			{
				"x": 3.610205742,
				"y": -4.4466031357,
				"z": -4.852955928,
				"element": "C" 
			},
			{
				"x": 4.7934516042,
				"y": -4.7794991267,
				"z": -4.1935354869,
				"element": "C" 
			},
			{
				"x": 4.9755414242,
				"y": -4.3828138177,
				"z": -2.8681005598,
				"element": "C" 
			},
			{
				"x": 3.9779517426,
				"y": -3.6593354825,
				"z": -2.2226326246,
				"element": "C" 
			},
			{
				"x": 1.3285712908,
				"y": 0.0043489489,
				"z": 0.5483993757,
				"element": "C" 
			},
			{
				"x": 0.4119496999,
				"y": 0.764874963,
				"z": 1.259739432,
				"element": "C" 
			},
			{
				"x": -4.0297830327,
				"y": 3.3182272095,
				"z": 2.874760276,
				"element": "C" 
			},
			{
				"x": -5.0274608094,
				"y": 4.0415005513,
				"z": 3.5203123013,
				"element": "C" 
			},
			{
				"x": -4.8464191725,
				"y": 4.436013549,
				"z": 4.8465393085,
				"element": "C" 
			},
			{
				"x": -3.6641057382,
				"y": 4.1011951843,
				"z": 5.5066614529,
				"element": "C" 
			},
			{
				"x": -0.5016195451,
				"y": 3.4704086181,
				"z": 5.1963436682,
				"element": "H" 
			},
			{
				"x": -1.4609530519,
				"y": 3.3845201175,
				"z": 6.6746220044,
				"element": "H" 
			},
			{
				"x": -1.2284296768,
				"y": 1.9398526395,
				"z": 5.6821164195,
				"element": "H" 
			},
			{
				"x": -0.792674896,
				"y": 2.274879353,
				"z": 3.2454084501,
				"element": "H" 
			},
			{
				"x": -3.0101064665,
				"y": 1.2130078498,
				"z": 1.4283289401,
				"element": "H" 
			},
			{
				"x": -2.4443647073,
				"y": -0.4930736422,
				"z": -0.0711675596,
				"element": "H" 
			},
			{
				"x": -0.8294929618,
				"y": -1.8404413975,
				"z": -1.3200390699,
				"element": "H" 
			},
			{
				"x": 2.9576326723,
				"y": -1.5530480542,
				"z": -0.7779237294,
				"element": "H" 
			},
			{
				"x": 0.7395684007,
				"y": -2.6193633583,
				"z": -2.5916484743,
				"element": "H" 
			},
			{
				"x": 1.1719544531,
				"y": -2.2875728614,
				"z": -5.0282640917,
				"element": "H" 
			},
			{
				"x": 0.4476974677,
				"y": -3.8188578931,
				"z": -4.5409316337,
				"element": "H" 
			},
			{
				"x": 1.4057265138,
				"y": -3.7325375512,
				"z": -6.0200343656,
				"element": "H" 
			},
			{
				"x": 3.4672443608,
				"y": -4.7570159764,
				"z": -5.885121095,
				"element": "H" 
			},
			{
				"x": 5.5611321295,
				"y": -5.3500611773,
				"z": -4.7082669889,
				"element": "H" 
			},
			{
				"x": 5.8840576077,
				"y": -4.6475350594,
				"z": -2.3347121736,
				"element": "H" 
			},
			{
				"x": 4.1089775073,
				"y": -3.3858886564,
				"z": -1.1800942881,
				"element": "H" 
			},
			{
				"x": 2.3917221307,
				"y": 0.1521129328,
				"z": 0.722142531,
				"element": "H" 
			},
			{
				"x": 0.7768395251,
				"y": 1.4996107809,
				"z": 1.9708839818,
				"element": "H" 
			},
			{
				"x": -4.1599333155,
				"y": 3.0464502227,
				"z": 1.8316736385,
				"element": "H" 
			},
			{
				"x": -5.9352196579,
				"y": 4.3077612044,
				"z": 2.9864001124,
				"element": "H" 
			},
			{
				"x": -5.614182573,
				"y": 5.0063880624,
				"z": 5.3613551771,
				"element": "H" 
			},
			{
				"x": -3.5219458045,
				"y": 4.409951095,
				"z": 6.5394341904,
				"element": "H" 
			}
		],
		 "valence_orbital": [ 
			{
				"type": "occ",
				"energy": -0.25231,
				"method": "rhf"
			},
			{
				"type": "occ",
				"energy": -0.24144,
				"method": "rhf"
			},
			{
				"type": "occ",
				"energy": -0.2409,
				"method": "rhf"
			},
			{
				"type": "occ",
				"energy": -0.22327,
				"method": "rhf"
			},
			{
				"type": "occ",
				"energy": -0.19056,
				"method": "rhf"
			},
			{
				"type": "unocc",
				"energy": -0.06368,
				"method": "rhf"
			},
			{
				"type": "unocc",
				"energy": -0.02452,
				"method": "rhf"
			},
			{
				"type": "unocc",
				"energy": -0.00015,
				"method": "rhf"
			},
			{
				"type": "unocc",
				"energy": 0.00491,
				"method": "rhf"
			},
			{
				"type": "unocc",
				"energy": 0.00495,
				"method": "rhf"
			}
		],
		"cosmo_sigma_profile": { 
			"-0.025": 0.0,
			"-0.024": 0.0,
			"-0.023": 0.0,
			"-0.022": 0.0,
			"-0.021": 0.0,
			"-0.02": 0.0,
			"-0.019": 0.0,
			"-0.018": 0.0,
			"-0.017": 0.0,
			"-0.016": 0.0,
			"-0.015": 0.0,
			"-0.014": 0.0,
			"-0.013": 0.0,
			"-0.012": 0.0,
			"-0.011": 0.0,
			"-0.01": 0.0,
			"-0.009": 0.0,
			"-0.008": 0.0039538634458,
			"-0.007": 1.99476927906,
			"-0.006": 15.7874792175,
			"-0.005": 33.0230300493,
			"-0.004": 39.5753237777,
			"-0.003": 38.4786072081,
			"-0.002": 32.407940683,
			"-0.001": 29.0823635826,
			"0.0": 30.0120604097,
			"0.001": 27.2679905017,
			"0.002": 23.6873875553,
			"0.003": 27.688973138,
			"0.004": 37.1232754163,
			"0.005": 37.8223327952,
			"0.006": 20.3536021105,
			"0.007": 2.43766490263,
			"0.008": 0.0,
			"0.009": 0.0,
			"0.01": 0.0,
			"0.011": 0.0,
			"0.012": 0.0,
			"0.013": 0.0,
			"0.014": 0.0,
			"0.015": 0.0,
			"0.016": 0.0,
			"0.017": 0.0,
			"0.018": 0.0,
			"0.019": 0.0,
			"0.02": 0.0,
			"0.021": 0.0,
			"0.022": 0.0,
			"0.023": 0.0,
			"0.024": 0.0,
			"0.025": 0.0
		}
	}
}
