{
	 "smiles": "OC(=O)C1=CNC=C1C1=CC=CC=C1", 
	 "Tm": 486.15, 
	 "num_atms": 23, 
	 "gaussian": { 
		 "optdone": 1, 
		 "sigma_profile": "yes", 
		 "theory": "DFT", 
		 "functional": "B3LYP", 
		 "basiset": "6-31G**", 
		 "properties": { 
			 "R2extent": 3304.5143, 
			 "electric_dipole_moment_norm": 3.03523973518, 
			 "electric_quadrupole_moment_norm": 17.0695171748, 
			 "total_energy": -629.805529689, 
			 "HOMO_LUMO_gap": 0.19584, 
			 "cosmo_polarized_energy": -16.11, 
			 "cosmo_cavitation_energy": 27.64, 
			 "cosmo_dispersion_energy": -20.15, 
			 "cosmo_repulsion_energy": 1.59, 
			 "cosmo_total_nonelectrostatic_energy": 9.09, 
			 "SMD_solvation_energy": 6.14 
		},
		"coords": [
			{
				"x": -1.237817341,
				"y": 2.4514249882,
				"z": 1.8267916632,
				"element": "O" 
			},
			{
				"x": -2.0901692128,
				"y": 1.4025745668,
				"z": 1.945066691,
				"element": "C" 
			},
			{
				"x": -3.2020607297,
				"y": 1.5380633642,
				"z": 2.427694023,
				"element": "O" 
			},
			{
				"x": -1.5615220971,
				"y": 0.1335296799,
				"z": 1.4330280662,
				"element": "C" 
			},
			{
				"x": -2.385450491,
				"y": -0.9806495584,
				"z": 1.3855934106,
				"element": "C" 
			},
			{
				"x": -1.6903118582,
				"y": -1.9949811307,
				"z": 0.8066018163,
				"element": "N" 
			},
			{
				"x": -0.4237679534,
				"y": -1.5643206949,
				"z": 0.4744330968,
				"element": "C" 
			},
			{
				"x": -0.2925049215,
				"y": -0.240534726,
				"z": 0.8463474134,
				"element": "C" 
			},
			{
				"x": 0.9546222879,
				"y": 0.5306924051,
				"z": 0.6530604996,
				"element": "C" 
			},
			{
				"x": 1.5231383207,
				"y": 1.2970878,
				"z": 1.6838041292,
				"element": "C" 
			},
			{
				"x": 2.7339436911,
				"y": 1.959979458,
				"z": 1.4934485544,
				"element": "C" 
			},
			{
				"x": 3.4059813551,
				"y": 1.869200084,
				"z": 0.2721629724,
				"element": "C" 
			},
			{
				"x": 2.8534679769,
				"y": 1.1105499078,
				"z": -0.7603821539,
				"element": "C" 
			},
			{
				"x": 1.6392162805,
				"y": 0.4504041671,
				"z": -0.571580299,
				"element": "C" 
			},
			{
				"x": -1.7212292845,
				"y": 3.2141236402,
				"z": 2.1854370666,
				"element": "H" 
			},
			{
				"x": -3.409095435,
				"y": -1.081718611,
				"z": 1.7108833431,
				"element": "H" 
			},
			{
				"x": -2.0435210848,
				"y": -2.9265283005,
				"z": 0.655137517,
				"element": "H" 
			},
			{
				"x": 0.3010381973,
				"y": -2.234126075,
				"z": 0.0368496583,
				"element": "H" 
			},
			{
				"x": 1.011773746,
				"y": 1.3686255254,
				"z": 2.6370395194,
				"element": "H" 
			},
			{
				"x": 3.1578865423,
				"y": 2.5453394885,
				"z": 2.3047836059,
				"element": "H" 
			},
			{
				"x": 4.3496083709,
				"y": 2.3873728051,
				"z": 0.1267891222,
				"element": "H" 
			},
			{
				"x": 3.3625304065,
				"y": 1.0381126695,
				"z": -1.7175883309,
				"element": "H" 
			},
			{
				"x": 1.2013432339,
				"y": -0.1215214535,
				"z": -1.3848013848,
				"element": "H" 
			}
		],
		 "valence_orbital": [ 
			{
				"type": "occ",
				"energy": -0.27068,
				"method": "rhf"
			},
			{
				"type": "occ",
				"energy": -0.26344,
				"method": "rhf"
			},
			{
				"type": "occ",
				"energy": -0.24186,
				"method": "rhf"
			},
			{
				"type": "occ",
				"energy": -0.23746,
				"method": "rhf"
			},
			{
				"type": "occ",
				"energy": -0.21369,
				"method": "rhf"
			},
			{
				"type": "unocc",
				"energy": -0.01785,
				"method": "rhf"
			},
			{
				"type": "unocc",
				"energy": 0.00082,
				"method": "rhf"
			},
			{
				"type": "unocc",
				"energy": 0.0072,
				"method": "rhf"
			},
			{
				"type": "unocc",
				"energy": 0.04732,
				"method": "rhf"
			},
			{
				"type": "unocc",
				"energy": 0.06634,
				"method": "rhf"
			}
		],
		"cosmo_sigma_profile": { 
			"-0.025": 0.0,
			"-0.024": 0.0,
			"-0.023": 0.0,
			"-0.022": 0.0,
			"-0.021": 0.0,
			"-0.02": 0.0,
			"-0.019": 0.0,
			"-0.018": 0.124285384001,
			"-0.017": 1.52430533676,
			"-0.016": 2.50206281196,
			"-0.015": 2.53870383248,
			"-0.014": 2.30582119808,
			"-0.013": 1.62800318437,
			"-0.012": 1.51330677181,
			"-0.011": 2.31474810746,
			"-0.01": 1.59084488981,
			"-0.009": 3.03080240516,
			"-0.008": 4.89225699293,
			"-0.007": 3.88900682819,
			"-0.006": 5.55116267074,
			"-0.005": 12.6432450932,
			"-0.004": 13.7743574924,
			"-0.003": 15.0768248791,
			"-0.002": 11.4899055004,
			"-0.001": 12.3124161075,
			"0.0": 12.1588028134,
			"0.001": 11.0216379604,
			"0.002": 14.3368934981,
			"0.003": 15.3965376917,
			"0.004": 18.5103352058,
			"0.005": 16.2261940785,
			"0.006": 10.4867184789,
			"0.007": 4.87867233507,
			"0.008": 3.70042374214,
			"0.009": 2.61047676592,
			"0.01": 2.68875918563,
			"0.011": 2.06209639287,
			"0.012": 4.42167719429,
			"0.013": 3.9389664859,
			"0.014": 0.0543002870634,
			"0.015": 0.0,
			"0.016": 0.0,
			"0.017": 0.0,
			"0.018": 0.0,
			"0.019": 0.0,
			"0.02": 0.0,
			"0.021": 0.0,
			"0.022": 0.0,
			"0.023": 0.0,
			"0.024": 0.0,
			"0.025": 0.0
		}
	}
}
