{
	 "smiles": "CC1C2CC(=O)C3C4(C2OC(C)(C)OC4CC2C(C)(C)CCC(=O)C32C)C1=O", 
	 "Tm": 470.15, 
	 "num_atms": 60, 
	 "gaussian": { 
		 "optdone": 1, 
		 "sigma_profile": "yes", 
		 "theory": "DFT", 
		 "functional": "B3LYP", 
		 "basiset": "6-31G**", 
		 "properties": { 
			 "R2extent": 8933.2679, 
			 "electric_dipole_moment_norm": 2.90291020357, 
			 "electric_quadrupole_moment_norm": 16.492416581, 
			 "total_energy": -1271.83977091, 
			 "HOMO_LUMO_gap": 0.19963, 
			 "cosmo_polarized_energy": -17.48, 
			 "cosmo_cavitation_energy": 51.06, 
			 "cosmo_dispersion_energy": -34.21, 
			 "cosmo_repulsion_energy": 2.47, 
			 "cosmo_total_nonelectrostatic_energy": 19.32, 
			 "SMD_solvation_energy": 8.94 
		},
		"coords": [
			{
				"x": -2.9788919408,
				"y": -1.6252453607,
				"z": -2.8107292362,
				"element": "C" 
			},
			{
				"x": -1.53368241,
				"y": -1.12581616,
				"z": -2.7557320581,
				"element": "C" 
			},
			{
				"x": -0.4109253736,
				"y": -2.0904871909,
				"z": -2.2720121682,
				"element": "C" 
			},
			{
				"x": -0.719211268,
				"y": -3.0100347723,
				"z": -1.0543809453,
				"element": "C" 
			},
			{
				"x": -0.3789961122,
				"y": -2.319243614,
				"z": 0.2701680607,
				"element": "C" 
			},
			{
				"x": 0.2283654895,
				"y": -2.8853111172,
				"z": 1.1588381771,
				"element": "O" 
			},
			{
				"x": -0.8443057234,
				"y": -0.8655773807,
				"z": 0.3225611381,
				"element": "C" 
			},
			{
				"x": -0.1803494568,
				"y": -0.1306923953,
				"z": -0.9224190171,
				"element": "C" 
			},
			{
				"x": 0.6618521186,
				"y": -1.1135813643,
				"z": -1.768720745,
				"element": "C" 
			},
			{
				"x": 1.2268070851,
				"y": -0.4164500386,
				"z": -2.8651055564,
				"element": "O" 
			},
			{
				"x": 2.0941410207,
				"y": 0.6636378604,
				"z": -2.5002235365,
				"element": "C" 
			},
			{
				"x": 3.424928022,
				"y": 0.1352223676,
				"z": -1.9428588166,
				"element": "C" 
			},
			{
				"x": 2.3081763928,
				"y": 1.4621549065,
				"z": -3.780995157,
				"element": "C" 
			},
			{
				"x": 1.4555725553,
				"y": 1.5601857684,
				"z": -1.5994996089,
				"element": "O" 
			},
			{
				"x": 0.6582016482,
				"y": 1.0729146075,
				"z": -0.512585563,
				"element": "C" 
			},
			{
				"x": 1.4474104908,
				"y": 0.7442024972,
				"z": 0.7628898324,
				"element": "C" 
			},
			{
				"x": 0.4957545903,
				"y": 0.7621623082,
				"z": 1.9733562899,
				"element": "C" 
			},
			{
				"x": 1.1928145118,
				"y": 0.510555002,
				"z": 3.3576392389,
				"element": "C" 
			},
			{
				"x": 0.3924369524,
				"y": 1.2387569819,
				"z": 4.463433004,
				"element": "C" 
			},
			{
				"x": 2.6231830401,
				"y": 1.0845241537,
				"z": 3.3854795876,
				"element": "C" 
			},
			{
				"x": 1.2585541761,
				"y": -1.0021127386,
				"z": 3.6498747227,
				"element": "C" 
			},
			{
				"x": -0.1283768275,
				"y": -1.612360472,
				"z": 3.8287296366,
				"element": "C" 
			},
			{
				"x": -1.1361563282,
				"y": -1.2051787591,
				"z": 2.7681867021,
				"element": "C" 
			},
			{
				"x": -2.235915968,
				"y": -1.7303809362,
				"z": 2.7352373361,
				"element": "O" 
			},
			{
				"x": -0.8083732614,
				"y": -0.1052345513,
				"z": 1.7083300426,
				"element": "C" 
			},
			{
				"x": -2.0325666926,
				"y": 0.8549054971,
				"z": 1.6982771835,
				"element": "C" 
			},
			{
				"x": -1.3515381206,
				"y": 0.1308618484,
				"z": -1.8821142322,
				"element": "C" 
			},
			{
				"x": -2.0463649883,
				"y": 1.1227993652,
				"z": -1.9072996966,
				"element": "O" 
			},
			{
				"x": -3.0840585599,
				"y": -2.4573517131,
				"z": -3.5140538562,
				"element": "H" 
			},
			{
				"x": -3.3428865725,
				"y": -1.9600057997,
				"z": -1.8338800956,
				"element": "H" 
			},
			{
				"x": -3.6308861958,
				"y": -0.811490759,
				"z": -3.1394033251,
				"element": "H" 
			},
			{
				"x": -1.2467694097,
				"y": -0.8022930513,
				"z": -3.7645797509,
				"element": "H" 
			},
			{
				"x": -0.0423597355,
				"y": -2.6980009385,
				"z": -3.1028642255,
				"element": "H" 
			},
			{
				"x": -0.1245058138,
				"y": -3.9256338208,
				"z": -1.1002733085,
				"element": "H" 
			},
			{
				"x": -1.77366606,
				"y": -3.3097061261,
				"z": -1.0269614237,
				"element": "H" 
			},
			{
				"x": -1.9170744042,
				"y": -0.9566703971,
				"z": 0.1085813093,
				"element": "H" 
			},
			{
				"x": 1.4418165535,
				"y": -1.6301908837,
				"z": -1.1935662432,
				"element": "H" 
			},
			{
				"x": 3.2945222315,
				"y": -0.470356525,
				"z": -1.0443275207,
				"element": "H" 
			},
			{
				"x": 4.0715295697,
				"y": 0.9782093598,
				"z": -1.6862742267,
				"element": "H" 
			},
			{
				"x": 3.9263570021,
				"y": -0.4766981748,
				"z": -2.6978933333,
				"element": "H" 
			},
			{
				"x": 2.943693772,
				"y": 2.3277334676,
				"z": -3.5798346642,
				"element": "H" 
			},
			{
				"x": 1.3423296964,
				"y": 1.8109301929,
				"z": -4.1519024078,
				"element": "H" 
			},
			{
				"x": 2.7823580866,
				"y": 0.8372353509,
				"z": -4.5419430466,
				"element": "H" 
			},
			{
				"x": -0.0060780188,
				"y": 1.9187410632,
				"z": -0.3034198353,
				"element": "H" 
			},
			{
				"x": 1.9527452806,
				"y": -0.2250258337,
				"z": 0.673713787,
				"element": "H" 
			},
			{
				"x": 2.2232142585,
				"y": 1.5035800479,
				"z": 0.8816060512,
				"element": "H" 
			},
			{
				"x": 0.1436828638,
				"y": 1.8012574067,
				"z": 2.0200936647,
				"element": "H" 
			},
			{
				"x": 0.4535416049,
				"y": 2.3241393342,
				"z": 4.3271861883,
				"element": "H" 
			},
			{
				"x": 0.7985625244,
				"y": 1.0044524012,
				"z": 5.4542393351,
				"element": "H" 
			},
			{
				"x": -0.6685373673,
				"y": 0.9735215315,
				"z": 4.4735838073,
				"element": "H" 
			},
			{
				"x": 2.642201493,
				"y": 2.1449479839,
				"z": 3.1093577961,
				"element": "H" 
			},
			{
				"x": 3.033056047,
				"y": 1.0020652036,
				"z": 4.3981209753,
				"element": "H" 
			},
			{
				"x": 3.2995462019,
				"y": 0.5460511717,
				"z": 2.7149335057,
				"element": "H" 
			},
			{
				"x": 1.7714805564,
				"y": -1.5115301035,
				"z": 2.82632338,
				"element": "H" 
			},
			{
				"x": 1.8591458502,
				"y": -1.1776746985,
				"z": 4.5511381323,
				"element": "H" 
			},
			{
				"x": -0.5631610509,
				"y": -1.3289409325,
				"z": 4.7955600096,
				"element": "H" 
			},
			{
				"x": -0.0943996459,
				"y": -2.7049808247,
				"z": 3.8213933343,
				"element": "H" 
			},
			{
				"x": -2.0545711172,
				"y": 1.4625782249,
				"z": 2.6079285721,
				"element": "H" 
			},
			{
				"x": -2.9603482686,
				"y": 0.2812916047,
				"z": 1.651848526,
				"element": "H" 
			},
			{
				"x": -1.9947249947,
				"y": 1.5306399244,
				"z": 0.8393442738,
				"element": "H" 
			}
		],
		 "valence_orbital": [ 
			{
				"type": "occ",
				"energy": -0.27521,
				"method": "rhf"
			},
			{
				"type": "occ",
				"energy": -0.26548,
				"method": "rhf"
			},
			{
				"type": "occ",
				"energy": -0.2546,
				"method": "rhf"
			},
			{
				"type": "occ",
				"energy": -0.24129,
				"method": "rhf"
			},
			{
				"type": "occ",
				"energy": -0.23175,
				"method": "rhf"
			},
			{
				"type": "unocc",
				"energy": -0.03212,
				"method": "rhf"
			},
			{
				"type": "unocc",
				"energy": -0.02452,
				"method": "rhf"
			},
			{
				"type": "unocc",
				"energy": -0.00652,
				"method": "rhf"
			},
			{
				"type": "unocc",
				"energy": 0.06394,
				"method": "rhf"
			},
			{
				"type": "unocc",
				"energy": 0.07419,
				"method": "rhf"
			}
		],
		"cosmo_sigma_profile": { 
			"-0.025": 0.0,
			"-0.024": 0.0,
			"-0.023": 0.0,
			"-0.022": 0.0,
			"-0.021": 0.0,
			"-0.02": 0.0,
			"-0.019": 0.0,
			"-0.018": 0.0,
			"-0.017": 0.0,
			"-0.016": 0.0,
			"-0.015": 0.0,
			"-0.014": 0.0,
			"-0.013": 0.0,
			"-0.012": 0.00299525070563,
			"-0.011": 0.169354722605,
			"-0.01": 0.642112879114,
			"-0.009": 1.69421596676,
			"-0.008": 2.00938512387,
			"-0.007": 4.75377039231,
			"-0.006": 7.80937361839,
			"-0.005": 20.6638771056,
			"-0.004": 33.1661697324,
			"-0.003": 52.6482539128,
			"-0.002": 56.0698798466,
			"-0.001": 44.6959971578,
			"0.0": 42.0553798116,
			"0.001": 31.6120591663,
			"0.002": 14.0033123174,
			"0.003": 8.94833736137,
			"0.004": 8.68857806619,
			"0.005": 9.04344229792,
			"0.006": 7.98007459302,
			"0.007": 6.9441577935,
			"0.008": 6.25319267861,
			"0.009": 7.38606904779,
			"0.01": 6.9185465111,
			"0.011": 8.12389346968,
			"0.012": 8.17709283023,
			"0.013": 2.49022543727,
			"0.014": 0.509310041093,
			"0.015": 0.0,
			"0.016": 0.0,
			"0.017": 0.0,
			"0.018": 0.0,
			"0.019": 0.0,
			"0.02": 0.0,
			"0.021": 0.0,
			"0.022": 0.0,
			"0.023": 0.0,
			"0.024": 0.0,
			"0.025": 0.0
		}
	}
}
