{
	 "smiles": "C1=CC=C(C=C1)C1=C2C=CC=CC2=CC2=C1C=CC=C2", 
	 "Tm": 429.15, 
	 "num_atms": 34, 
	 "gaussian": { 
		 "optdone": 1, 
		 "sigma_profile": "yes", 
		 "theory": "DFT", 
		 "functional": "B3LYP", 
		 "basiset": "6-31G**", 
		 "properties": { 
			 "R2extent": 5611.883, 
			 "electric_dipole_moment_norm": 0.329921111783, 
			 "electric_quadrupole_moment_norm": 8.5452055733, 
			 "total_energy": -770.586433433, 
			 "HOMO_LUMO_gap": 0.13019, 
			 "cosmo_polarized_energy": -6.68, 
			 "cosmo_cavitation_energy": 37.12, 
			 "cosmo_dispersion_energy": -26.32, 
			 "cosmo_repulsion_energy": 1.98, 
			 "cosmo_total_nonelectrostatic_energy": 12.78, 
			 "SMD_solvation_energy": 5.57 
		},
		"coords": [
			{
				"x": 2.8480110322,
				"y": -3.037350734,
				"z": 2.2524509646,
				"element": "C" 
			},
			{
				"x": 3.0276408006,
				"y": -2.5322600069,
				"z": 0.9633354069,
				"element": "C" 
			},
			{
				"x": 2.2106184939,
				"y": -1.5025810072,
				"z": 0.4932770684,
				"element": "C" 
			},
			{
				"x": 1.2012985548,
				"y": -0.9616066399,
				"z": 1.304311702,
				"element": "C" 
			},
			{
				"x": 1.0303673747,
				"y": -1.4775137551,
				"z": 2.5980648192,
				"element": "C" 
			},
			{
				"x": 1.8470595709,
				"y": -2.5072002558,
				"z": 3.0686830836,
				"element": "C" 
			},
			{
				"x": 0.324643019,
				"y": 0.1437474591,
				"z": 0.7995983493,
				"element": "C" 
			},
			{
				"x": 0.7060397143,
				"y": 1.4910606688,
				"z": 0.997602752,
				"element": "C" 
			},
			{
				"x": 1.9160893155,
				"y": 1.8577736341,
				"z": 1.6716384743,
				"element": "C" 
			},
			{
				"x": 2.2604448966,
				"y": 3.1723805735,
				"z": 1.8492798373,
				"element": "C" 
			},
			{
				"x": 1.4200291369,
				"y": 4.2163568588,
				"z": 1.3659610326,
				"element": "C" 
			},
			{
				"x": 0.254205233,
				"y": 3.9121895633,
				"z": 0.7159727379,
				"element": "C" 
			},
			{
				"x": -0.1437213064,
				"y": 2.5540027503,
				"z": 0.5087805812,
				"element": "C" 
			},
			{
				"x": -1.3323599777,
				"y": 2.2331892205,
				"z": -0.1538505663,
				"element": "C" 
			},
			{
				"x": -1.7230523758,
				"y": 0.9062394003,
				"z": -0.3574183092,
				"element": "C" 
			},
			{
				"x": -0.8807295867,
				"y": -0.1644764955,
				"z": 0.1273199906,
				"element": "C" 
			},
			{
				"x": -1.3132843907,
				"y": -1.5114971403,
				"z": -0.0995720952,
				"element": "C" 
			},
			{
				"x": -2.486808329,
				"y": -1.780468168,
				"z": -0.7544276356,
				"element": "C" 
			},
			{
				"x": -3.3135683843,
				"y": -0.7222379651,
				"z": -1.2302430031,
				"element": "C" 
			},
			{
				"x": -2.939458994,
				"y": 0.5801878966,
				"z": -1.0356358892,
				"element": "C" 
			},
			{
				"x": 3.4836895454,
				"y": -3.8385730751,
				"z": 2.6184457372,
				"element": "H" 
			},
			{
				"x": 3.804292235,
				"y": -2.9393187229,
				"z": 0.3218290541,
				"element": "H" 
			},
			{
				"x": 2.351658634,
				"y": -1.1106399886,
				"z": -0.5100340852,
				"element": "H" 
			},
			{
				"x": 0.2519834047,
				"y": -1.0660305552,
				"z": 3.2344182951,
				"element": "H" 
			},
			{
				"x": 1.7007246492,
				"y": -2.8946436599,
				"z": 4.073117178,
				"element": "H" 
			},
			{
				"x": 2.5631526241,
				"y": 1.0711863072,
				"z": 2.0435382949,
				"element": "H" 
			},
			{
				"x": 3.1833215717,
				"y": 3.4248650713,
				"z": 2.3636558989,
				"element": "H" 
			},
			{
				"x": 1.7096594634,
				"y": 5.2523841315,
				"z": 1.5162057642,
				"element": "H" 
			},
			{
				"x": -0.3944287328,
				"y": 4.7009122168,
				"z": 0.3431121031,
				"element": "H" 
			},
			{
				"x": -1.9688741443,
				"y": 3.0357784197,
				"z": -0.5200811269,
				"element": "H" 
			},
			{
				"x": -0.6916769021,
				"y": -2.3246528607,
				"z": 0.2583666737,
				"element": "H" 
			},
			{
				"x": -2.793084467,
				"y": -2.8103686341,
				"z": -0.9142269015,
				"element": "H" 
			},
			{
				"x": -4.2401217791,
				"y": -0.9550673055,
				"z": -1.7470595793,
				"element": "H" 
			},
			{
				"x": -3.5627598999,
				"y": 1.3953327982,
				"z": -1.3946166077,
				"element": "H" 
			}
		],
		 "valence_orbital": [ 
			{
				"type": "occ",
				"energy": -0.25578,
				"method": "rhf"
			},
			{
				"type": "occ",
				"energy": -0.24768,
				"method": "rhf"
			},
			{
				"type": "occ",
				"energy": -0.24685,
				"method": "rhf"
			},
			{
				"type": "occ",
				"energy": -0.23616,
				"method": "rhf"
			},
			{
				"type": "occ",
				"energy": -0.18998,
				"method": "rhf"
			},
			{
				"type": "unocc",
				"energy": -0.05979,
				"method": "rhf"
			},
			{
				"type": "unocc",
				"energy": -0.0134,
				"method": "rhf"
			},
			{
				"type": "unocc",
				"energy": -0.00355,
				"method": "rhf"
			},
			{
				"type": "unocc",
				"energy": -0.00057,
				"method": "rhf"
			},
			{
				"type": "unocc",
				"energy": 0.01263,
				"method": "rhf"
			}
		],
		"cosmo_sigma_profile": { 
			"-0.025": 0.0,
			"-0.024": 0.0,
			"-0.023": 0.0,
			"-0.022": 0.0,
			"-0.021": 0.0,
			"-0.02": 0.0,
			"-0.019": 0.0,
			"-0.018": 0.0,
			"-0.017": 0.0,
			"-0.016": 0.0,
			"-0.015": 0.0,
			"-0.014": 0.0,
			"-0.013": 0.0,
			"-0.012": 0.0,
			"-0.011": 0.0,
			"-0.01": 0.0,
			"-0.009": 0.0,
			"-0.008": 0.0,
			"-0.007": 0.00402171508442,
			"-0.006": 15.6066338266,
			"-0.005": 25.8882259147,
			"-0.004": 26.3914303852,
			"-0.003": 28.240835103,
			"-0.002": 18.9129348897,
			"-0.001": 19.4109294219,
			"0.0": 17.4693002363,
			"0.001": 24.1075456094,
			"0.002": 24.727532229,
			"0.003": 29.2277836499,
			"0.004": 39.251683769,
			"0.005": 24.4812965407,
			"0.006": 4.86067981237,
			"0.007": 0.0,
			"0.008": 0.0,
			"0.009": 0.0,
			"0.01": 0.0,
			"0.011": 0.0,
			"0.012": 0.0,
			"0.013": 0.0,
			"0.014": 0.0,
			"0.015": 0.0,
			"0.016": 0.0,
			"0.017": 0.0,
			"0.018": 0.0,
			"0.019": 0.0,
			"0.02": 0.0,
			"0.021": 0.0,
			"0.022": 0.0,
			"0.023": 0.0,
			"0.024": 0.0,
			"0.025": 0.0
		}
	}
}
