{
	 "smiles": "CNS(=O)(=O)C1=CC(C(O)=O)=C(C)O1", 
	 "Tm": 428.15, 
	 "num_atms": 23, 
	 "gaussian": { 
		 "optdone": 1, 
		 "sigma_profile": "yes", 
		 "theory": "DFT", 
		 "functional": "B3LYP", 
		 "basiset": "6-31G**", 
		 "properties": { 
			 "R2extent": 3935.5801, 
			 "electric_dipole_moment_norm": 5.88051266643, 
			 "electric_quadrupole_moment_norm": 31.6228675605, 
			 "total_energy": -1101.13324736, 
			 "HOMO_LUMO_gap": 0.2079, 
			 "cosmo_polarized_energy": -25.3, 
			 "cosmo_cavitation_energy": 29.7, 
			 "cosmo_dispersion_energy": -21.49, 
			 "cosmo_repulsion_energy": 1.68, 
			 "cosmo_total_nonelectrostatic_energy": 9.89, 
			 "SMD_solvation_energy": 5.84 
		},
		"coords": [
			{
				"x": 1.2611635189,
				"y": -2.5813803228,
				"z": -2.4851379697,
				"element": "C" 
			},
			{
				"x": 0.105211063,
				"y": -2.0175711273,
				"z": -3.1857743932,
				"element": "N" 
			},
			{
				"x": -0.1477375184,
				"y": -0.3704940135,
				"z": -3.1583894947,
				"element": "S" 
			},
			{
				"x": -1.3817867772,
				"y": -0.144327886,
				"z": -3.9027339818,
				"element": "O" 
			},
			{
				"x": 1.1223381279,
				"y": 0.2715818576,
				"z": -3.4822607423,
				"element": "O" 
			},
			{
				"x": -0.4485866442,
				"y": 0.0704289263,
				"z": -1.463482641,
				"element": "C" 
			},
			{
				"x": 0.2895326525,
				"y": 0.7739826153,
				"z": -0.5672101258,
				"element": "C" 
			},
			{
				"x": -0.4969170985,
				"y": 0.8208261599,
				"z": 0.6333459652,
				"element": "C" 
			},
			{
				"x": -0.0312282451,
				"y": 1.4596796642,
				"z": 1.8891475282,
				"element": "C" 
			},
			{
				"x": -0.9939811219,
				"y": 1.8626943318,
				"z": 2.7674955771,
				"element": "O" 
			},
			{
				"x": 1.1360570367,
				"y": 1.6190086225,
				"z": 2.1495186331,
				"element": "O" 
			},
			{
				"x": -1.6489974416,
				"y": 0.1075917418,
				"z": 0.3793493514,
				"element": "C" 
			},
			{
				"x": -2.8404364449,
				"y": -0.2787176364,
				"z": 1.1874241462,
				"element": "C" 
			},
			{
				"x": -1.6248830896,
				"y": -0.3534232154,
				"z": -0.89974015,
				"element": "O" 
			},
			{
				"x": 1.3586611295,
				"y": -3.6280611087,
				"z": -2.7817688175,
				"element": "H" 
			},
			{
				"x": 2.1555665282,
				"y": -2.0467254256,
				"z": -2.8075409095,
				"element": "H" 
			},
			{
				"x": 1.1819693665,
				"y": -2.5242907876,
				"z": -1.3911617286,
				"element": "H" 
			},
			{
				"x": -0.7720941261,
				"y": -2.5194706735,
				"z": -3.0913561399,
				"element": "H" 
			},
			{
				"x": 1.2572686324,
				"y": 1.2238123011,
				"z": -0.7259736966,
				"element": "H" 
			},
			{
				"x": -1.8560564427,
				"y": 1.8855251003,
				"z": 2.3299745707,
				"element": "H" 
			},
			{
				"x": -3.0721414127,
				"y": -1.3371060113,
				"z": 1.035950967,
				"element": "H" 
			},
			{
				"x": -3.7290405956,
				"y": 0.2937556482,
				"z": 0.894947139,
				"element": "H" 
			},
			{
				"x": -2.651781097,
				"y": -0.1214187608,
				"z": 2.2512769127,
				"element": "H" 
			}
		],
		 "valence_orbital": [ 
			{
				"type": "occ",
				"energy": -0.3152,
				"method": "rhf"
			},
			{
				"type": "occ",
				"energy": -0.31361,
				"method": "rhf"
			},
			{
				"type": "occ",
				"energy": -0.29713,
				"method": "rhf"
			},
			{
				"type": "occ",
				"energy": -0.28664,
				"method": "rhf"
			},
			{
				"type": "occ",
				"energy": -0.26109,
				"method": "rhf"
			},
			{
				"type": "unocc",
				"energy": -0.05319,
				"method": "rhf"
			},
			{
				"type": "unocc",
				"energy": -0.02602,
				"method": "rhf"
			},
			{
				"type": "unocc",
				"energy": 0.04246,
				"method": "rhf"
			},
			{
				"type": "unocc",
				"energy": 0.06047,
				"method": "rhf"
			},
			{
				"type": "unocc",
				"energy": 0.06297,
				"method": "rhf"
			}
		],
		"cosmo_sigma_profile": { 
			"-0.025": 0.0,
			"-0.024": 0.0,
			"-0.023": 0.0,
			"-0.022": 0.0,
			"-0.021": 0.0,
			"-0.02": 0.0,
			"-0.019": 0.0693436336992,
			"-0.018": 0.99272328758,
			"-0.017": 0.813068418018,
			"-0.016": 1.33818269311,
			"-0.015": 2.19355098885,
			"-0.014": 1.58862488667,
			"-0.013": 2.30211149032,
			"-0.012": 2.16787426362,
			"-0.011": 1.61029833577,
			"-0.01": 3.0389078728,
			"-0.009": 3.25013766858,
			"-0.008": 3.70290381226,
			"-0.007": 10.9524095043,
			"-0.006": 12.9589357504,
			"-0.005": 15.5152989616,
			"-0.004": 16.5806767516,
			"-0.003": 23.4330733466,
			"-0.002": 17.6403016079,
			"-0.001": 10.1538922798,
			"0.0": 9.03022278576,
			"0.001": 7.13462515548,
			"0.002": 7.3792342576,
			"0.003": 5.38067117316,
			"0.004": 7.07117526119,
			"0.005": 7.36686893753,
			"0.006": 7.19613560778,
			"0.007": 6.05712188562,
			"0.008": 7.00663690007,
			"0.009": 9.17444342817,
			"0.01": 15.715129038,
			"0.011": 13.0147290895,
			"0.012": 3.81198604026,
			"0.013": 0.810023418362,
			"0.014": 0.0,
			"0.015": 0.0,
			"0.016": 0.0,
			"0.017": 0.0,
			"0.018": 0.0,
			"0.019": 0.0,
			"0.02": 0.0,
			"0.021": 0.0,
			"0.022": 0.0,
			"0.023": 0.0,
			"0.024": 0.0,
			"0.025": 0.0
		}
	}
}
