{
	 "smiles": "SC1=NC2=C(S1)C=CC(Cl)=C2", 
	 "Tm": 472.15, 
	 "num_atms": 15, 
	 "gaussian": { 
		 "optdone": 1, 
		 "sigma_profile": "yes", 
		 "theory": "DFT", 
		 "functional": "B3LYP", 
		 "basiset": "6-31G**", 
		 "properties": { 
			 "R2extent": 4093.6224, 
			 "electric_dipole_moment_norm": 1.42051084473, 
			 "electric_quadrupole_moment_norm": 12.3252191295, 
			 "total_energy": -1580.47390317, 
			 "HOMO_LUMO_gap": 0.18753, 
			 "cosmo_polarized_energy": -6.39, 
			 "cosmo_cavitation_energy": 24.84, 
			 "cosmo_dispersion_energy": -19.85, 
			 "cosmo_repulsion_energy": 1.49, 
			 "cosmo_total_nonelectrostatic_energy": 6.48, 
			 "SMD_solvation_energy": 1.28 
		},
		"coords": [
			{
				"x": -0.2700260339,
				"y": 2.6444628821,
				"z": 0.122467115,
				"element": "S" 
			},
			{
				"x": -0.0772484969,
				"y": 0.9735739935,
				"z": 0.663769205,
				"element": "C" 
			},
			{
				"x": -0.2398488275,
				"y": -0.0658645777,
				"z": -0.0862376185,
				"element": "N" 
			},
			{
				"x": -0.0160967794,
				"y": -1.2295250712,
				"z": 0.6352499564,
				"element": "C" 
			},
			{
				"x": 0.3317287521,
				"y": -1.0483389775,
				"z": 1.9953393096,
				"element": "C" 
			},
			{
				"x": 0.3728305881,
				"y": 0.6700380885,
				"z": 2.3596280737,
				"element": "S" 
			},
			{
				"x": 0.5829458145,
				"y": -2.1362577886,
				"z": 2.8313042778,
				"element": "C" 
			},
			{
				"x": 0.4849681853,
				"y": -3.4200555318,
				"z": 2.3001508474,
				"element": "C" 
			},
			{
				"x": 0.1398517128,
				"y": -3.5955962423,
				"z": 0.9511676257,
				"element": "C" 
			},
			{
				"x": 0.0256983456,
				"y": -5.2316111183,
				"z": 0.3154714402,
				"element": "Cl" 
			},
			{
				"x": -0.1133500169,
				"y": -2.5236464756,
				"z": 0.105689983,
				"element": "C" 
			},
			{
				"x": -0.5872146877,
				"y": 2.2887326864,
				"z": -1.1378787231,
				"element": "H" 
			},
			{
				"x": 0.849585574,
				"y": -1.9977929214,
				"z": 3.8738443601,
				"element": "H" 
			},
			{
				"x": 0.673764564,
				"y": -4.2870565089,
				"z": 2.9224911523,
				"element": "H" 
			},
			{
				"x": -0.3791886941,
				"y": -2.6676624373,
				"z": -0.9344570046,
				"element": "H" 
			}
		],
		 "valence_orbital": [ 
			{
				"type": "occ",
				"energy": -0.3131,
				"method": "rhf"
			},
			{
				"type": "occ",
				"energy": -0.29457,
				"method": "rhf"
			},
			{
				"type": "occ",
				"energy": -0.29139,
				"method": "rhf"
			},
			{
				"type": "occ",
				"energy": -0.2467,
				"method": "rhf"
			},
			{
				"type": "occ",
				"energy": -0.23507,
				"method": "rhf"
			},
			{
				"type": "unocc",
				"energy": -0.04754,
				"method": "rhf"
			},
			{
				"type": "unocc",
				"energy": -0.02219,
				"method": "rhf"
			},
			{
				"type": "unocc",
				"energy": -0.02121,
				"method": "rhf"
			},
			{
				"type": "unocc",
				"energy": 0.01045,
				"method": "rhf"
			},
			{
				"type": "unocc",
				"energy": 0.01793,
				"method": "rhf"
			}
		],
		"cosmo_sigma_profile": { 
			"-0.025": 0.0,
			"-0.024": 0.0,
			"-0.023": 0.0,
			"-0.022": 0.0,
			"-0.021": 0.0,
			"-0.02": 0.0,
			"-0.019": 0.0,
			"-0.018": 0.0,
			"-0.017": 0.0,
			"-0.016": 0.0,
			"-0.015": 0.0,
			"-0.014": 0.0,
			"-0.013": 0.178648908161,
			"-0.012": 1.31314995331,
			"-0.011": 1.7412285176,
			"-0.01": 1.39373431833,
			"-0.009": 1.01629111324,
			"-0.008": 5.6486161834,
			"-0.007": 7.56057291645,
			"-0.006": 7.30828881626,
			"-0.005": 7.48157052404,
			"-0.004": 7.2243332341,
			"-0.003": 9.10375348918,
			"-0.002": 11.5947710823,
			"-0.001": 16.1353001749,
			"0.0": 19.2825338168,
			"0.001": 27.2272327201,
			"0.002": 30.9033638064,
			"0.003": 19.0046232906,
			"0.004": 14.9600436156,
			"0.005": 10.1014280571,
			"0.006": 2.57033006502,
			"0.007": 1.07744132337,
			"0.008": 1.29363269782,
			"0.009": 0.883925518045,
			"0.01": 0.79728348474,
			"0.011": 0.918347437404,
			"0.012": 0.822350953071,
			"0.013": 0.291228593533,
			"0.014": 0.0,
			"0.015": 0.0,
			"0.016": 0.0,
			"0.017": 0.0,
			"0.018": 0.0,
			"0.019": 0.0,
			"0.02": 0.0,
			"0.021": 0.0,
			"0.022": 0.0,
			"0.023": 0.0,
			"0.024": 0.0,
			"0.025": 0.0
		}
	}
}
