{
	 "smiles": "[O-][N+](=O)C1=CC=CC2=C1C(=O)NC2=O", 
	 "Tm": 489.15, 
	 "num_atms": 18, 
	 "gaussian": { 
		 "optdone": 1, 
		 "sigma_profile": "yes", 
		 "theory": "DFT", 
		 "functional": "B3LYP", 
		 "basiset": "6-31G**", 
		 "properties": { 
			 "R2extent": 2533.9252, 
			 "electric_dipole_moment_norm": 4.22547419706, 
			 "electric_quadrupole_moment_norm": 16.6114107143, 
			 "total_energy": -717.572183643, 
			 "HOMO_LUMO_gap": 0.17164, 
			 "cosmo_polarized_energy": -17.23, 
			 "cosmo_cavitation_energy": 24.49, 
			 "cosmo_dispersion_energy": -17.95, 
			 "cosmo_repulsion_energy": 1.4, 
			 "cosmo_total_nonelectrostatic_energy": 7.94, 
			 "SMD_solvation_energy": 7.74 
		},
		"coords": [
			{
				"x": -0.3200019609,
				"y": 2.3181224141,
				"z": 2.1183575774,
				"element": "O" 
			},
			{
				"x": 0.7164045804,
				"y": 1.6930235536,
				"z": 1.9379189877,
				"element": "N" 
			},
			{
				"x": 1.7877981999,
				"y": 1.8844129524,
				"z": 2.5127093081,
				"element": "O" 
			},
			{
				"x": 0.6737804036,
				"y": 0.5767428981,
				"z": 0.9753175178,
				"element": "C" 
			},
			{
				"x": 1.4262925046,
				"y": -0.5615850884,
				"z": 1.2777236029,
				"element": "C" 
			},
			{
				"x": 1.3711284058,
				"y": -1.6852809497,
				"z": 0.4500247879,
				"element": "C" 
			},
			{
				"x": 0.5782510268,
				"y": -1.6816168843,
				"z": -0.7019325391,
				"element": "C" 
			},
			{
				"x": -0.1335359744,
				"y": -0.5264435265,
				"z": -0.9934427997,
				"element": "C" 
			},
			{
				"x": -0.1071079156,
				"y": 0.6096018543,
				"z": -0.1769640111,
				"element": "C" 
			},
			{
				"x": -0.9267466469,
				"y": 1.6851200798,
				"z": -0.8542393386,
				"element": "C" 
			},
			{
				"x": -1.0951379103,
				"y": 2.844718782,
				"z": -0.5636471477,
				"element": "O" 
			},
			{
				"x": -1.4512903847,
				"y": 1.0550740544,
				"z": -1.9949258591,
				"element": "N" 
			},
			{
				"x": -1.0171375117,
				"y": -0.2587390325,
				"z": -2.1708636162,
				"element": "C" 
			},
			{
				"x": -1.3027588408,
				"y": -1.0007607522,
				"z": -3.0860021467,
				"element": "O" 
			},
			{
				"x": 2.0433230534,
				"y": -0.5514255415,
				"z": 2.1682964479,
				"element": "H" 
			},
			{
				"x": 1.951199922,
				"y": -2.5646824074,
				"z": 0.7101784362,
				"element": "H" 
			},
			{
				"x": 0.5191973357,
				"y": -2.5420489133,
				"z": -1.3602084459,
				"element": "H" 
			},
			{
				"x": -2.0333582871,
				"y": 1.5442665071,
				"z": -2.6609007619,
				"element": "H" 
			}
		],
		 "valence_orbital": [ 
			{
				"type": "occ",
				"energy": -0.31067,
				"method": "rhf"
			},
			{
				"type": "occ",
				"energy": -0.30607,
				"method": "rhf"
			},
			{
				"type": "occ",
				"energy": -0.29912,
				"method": "rhf"
			},
			{
				"type": "occ",
				"energy": -0.29401,
				"method": "rhf"
			},
			{
				"type": "occ",
				"energy": -0.2808,
				"method": "rhf"
			},
			{
				"type": "unocc",
				"energy": -0.10916,
				"method": "rhf"
			},
			{
				"type": "unocc",
				"energy": -0.09551,
				"method": "rhf"
			},
			{
				"type": "unocc",
				"energy": -0.04083,
				"method": "rhf"
			},
			{
				"type": "unocc",
				"energy": 0.00486,
				"method": "rhf"
			},
			{
				"type": "unocc",
				"energy": 0.05724,
				"method": "rhf"
			}
		],
		"cosmo_sigma_profile": { 
			"-0.025": 0.0,
			"-0.024": 0.0,
			"-0.023": 0.0,
			"-0.022": 0.0,
			"-0.021": 0.0,
			"-0.02": 0.0,
			"-0.019": 0.0,
			"-0.018": 0.0,
			"-0.017": 0.971238708435,
			"-0.016": 1.30968866018,
			"-0.015": 1.24671428076,
			"-0.014": 0.840421434213,
			"-0.013": 0.504249932913,
			"-0.012": 1.09907373093,
			"-0.011": 1.07740220165,
			"-0.01": 0.608962508529,
			"-0.009": 4.46466497792,
			"-0.008": 10.5947049308,
			"-0.007": 10.6932197512,
			"-0.006": 9.67660962597,
			"-0.005": 9.30974272575,
			"-0.004": 11.3006440453,
			"-0.003": 14.578513639,
			"-0.002": 16.3689065344,
			"-0.001": 13.9859787993,
			"0.0": 10.384015645,
			"0.001": 5.09940816906,
			"0.002": 4.31356377361,
			"0.003": 4.31188372207,
			"0.004": 5.06060042432,
			"0.005": 4.91210705375,
			"0.006": 7.29884434459,
			"0.007": 11.7858398154,
			"0.008": 8.68577104708,
			"0.009": 8.4162033951,
			"0.01": 9.40604684299,
			"0.011": 8.79278190852,
			"0.012": 1.0009822301,
			"0.013": 0.0,
			"0.014": 0.0,
			"0.015": 0.0,
			"0.016": 0.0,
			"0.017": 0.0,
			"0.018": 0.0,
			"0.019": 0.0,
			"0.02": 0.0,
			"0.021": 0.0,
			"0.022": 0.0,
			"0.023": 0.0,
			"0.024": 0.0,
			"0.025": 0.0
		}
	}
}
