{
	 "smiles": "NC1=CNN=C1C1=CC=CC=C1", 
	 "Tm": 421.15, 
	 "num_atms": 21, 
	 "gaussian": { 
		 "optdone": 1, 
		 "sigma_profile": "yes", 
		 "theory": "DFT", 
		 "functional": "B3LYP", 
		 "basiset": "6-31G**", 
		 "properties": { 
			 "R2extent": 2217.4885, 
			 "electric_dipole_moment_norm": 3.0762936352, 
			 "electric_quadrupole_moment_norm": 16.1099295864, 
			 "total_energy": -512.61409741, 
			 "HOMO_LUMO_gap": 0.1849, 
			 "cosmo_polarized_energy": -14.34, 
			 "cosmo_cavitation_energy": 24.73, 
			 "cosmo_dispersion_energy": -18.72, 
			 "cosmo_repulsion_energy": 1.49, 
			 "cosmo_total_nonelectrostatic_energy": 7.51, 
			 "SMD_solvation_energy": 3.62 
		},
		"coords": [
			{
				"x": -1.4697656479,
				"y": 1.8005904624,
				"z": 0.8477167002,
				"element": "N" 
			},
			{
				"x": -1.7232024947,
				"y": 0.4278979254,
				"z": 0.6727540902,
				"element": "C" 
			},
			{
				"x": -2.9440969932,
				"y": -0.2212547676,
				"z": 0.7180471075,
				"element": "C" 
			},
			{
				"x": -2.6743614554,
				"y": -1.5459142241,
				"z": 0.5216271628,
				"element": "N" 
			},
			{
				"x": -1.3721914994,
				"y": -1.803272382,
				"z": 0.3533571843,
				"element": "N" 
			},
			{
				"x": -0.7646402817,
				"y": -0.6098225662,
				"z": 0.4468554441,
				"element": "C" 
			},
			{
				"x": 0.6953162354,
				"y": -0.501843855,
				"z": 0.2904900401,
				"element": "C" 
			},
			{
				"x": 1.4223752386,
				"y": 0.5492535519,
				"z": 0.8771182927,
				"element": "C" 
			},
			{
				"x": 2.8066601019,
				"y": 0.6319197947,
				"z": 0.7173681761,
				"element": "C" 
			},
			{
				"x": 3.4906713969,
				"y": -0.3328817877,
				"z": -0.0223689819,
				"element": "C" 
			},
			{
				"x": 2.7784281526,
				"y": -1.3891527466,
				"z": -0.5983805073,
				"element": "C" 
			},
			{
				"x": 1.3971957688,
				"y": -1.4727004525,
				"z": -0.4470267008,
				"element": "C" 
			},
			{
				"x": -0.7270557717,
				"y": 2.1312349964,
				"z": 0.2412537159,
				"element": "H" 
			},
			{
				"x": -2.2964605847,
				"y": 2.3680533461,
				"z": 0.7014624484,
				"element": "H" 
			},
			{
				"x": -3.9478091082,
				"y": 0.1489998419,
				"z": 0.865774201,
				"element": "H" 
			},
			{
				"x": -3.3276076125,
				"y": -2.3125016467,
				"z": 0.5270784531,
				"element": "H" 
			},
			{
				"x": 0.9065801892,
				"y": 1.2834960861,
				"z": 1.4877769096,
				"element": "H" 
			},
			{
				"x": 3.3515772363,
				"y": 1.4488459929,
				"z": 1.1827496845,
				"element": "H" 
			},
			{
				"x": 4.567756982,
				"y": -0.2662811517,
				"z": -0.1468210333,
				"element": "H" 
			},
			{
				"x": 3.3024691412,
				"y": -2.1481178975,
				"z": -1.1730472404,
				"element": "H" 
			},
			{
				"x": 0.8405610064,
				"y": -2.28904852,
				"z": -0.8949851468,
				"element": "H" 
			}
		],
		 "valence_orbital": [ 
			{
				"type": "occ",
				"energy": -0.28223,
				"method": "rhf"
			},
			{
				"type": "occ",
				"energy": -0.27347,
				"method": "rhf"
			},
			{
				"type": "occ",
				"energy": -0.24046,
				"method": "rhf"
			},
			{
				"type": "occ",
				"energy": -0.21884,
				"method": "rhf"
			},
			{
				"type": "occ",
				"energy": -0.19486,
				"method": "rhf"
			},
			{
				"type": "unocc",
				"energy": -0.00996,
				"method": "rhf"
			},
			{
				"type": "unocc",
				"energy": 0.00773,
				"method": "rhf"
			},
			{
				"type": "unocc",
				"energy": 0.03842,
				"method": "rhf"
			},
			{
				"type": "unocc",
				"energy": 0.07646,
				"method": "rhf"
			},
			{
				"type": "unocc",
				"energy": 0.09154,
				"method": "rhf"
			}
		],
		"cosmo_sigma_profile": { 
			"-0.025": 0.0,
			"-0.024": 0.0,
			"-0.023": 0.0,
			"-0.022": 0.0,
			"-0.021": 0.0,
			"-0.02": 0.0,
			"-0.019": 0.0,
			"-0.018": 0.0,
			"-0.017": 0.0235920364376,
			"-0.016": 1.4017228765,
			"-0.015": 1.39002987091,
			"-0.014": 1.62040778116,
			"-0.013": 1.20679261994,
			"-0.012": 1.43357260574,
			"-0.011": 3.05660131628,
			"-0.01": 4.02259906258,
			"-0.009": 4.14460561281,
			"-0.008": 6.55091039181,
			"-0.007": 4.48281129583,
			"-0.006": 6.37140253319,
			"-0.005": 11.1165100225,
			"-0.004": 12.9514609153,
			"-0.003": 12.8320540401,
			"-0.002": 9.03295341175,
			"-0.001": 8.21598060901,
			"0.0": 10.3196303995,
			"0.001": 8.27801617469,
			"0.002": 9.98082544452,
			"0.003": 11.4901426052,
			"0.004": 15.0445673241,
			"0.005": 18.4440134526,
			"0.006": 14.5359427793,
			"0.007": 3.8358571587,
			"0.008": 2.61201371541,
			"0.009": 3.01639417727,
			"0.01": 2.05890419566,
			"0.011": 1.7024978061,
			"0.012": 2.02467985498,
			"0.013": 1.18125610772,
			"0.014": 1.6693386093,
			"0.015": 1.25509279098,
			"0.016": 0.283044193113,
			"0.017": 0.0,
			"0.018": 0.0,
			"0.019": 0.0,
			"0.02": 0.0,
			"0.021": 0.0,
			"0.022": 0.0,
			"0.023": 0.0,
			"0.024": 0.0,
			"0.025": 0.0
		}
	}
}
