{
	 "smiles": "NS(=O)(=O)C=CC1=CC=C(F)C=C1", 
	 "Tm": 422.15, 
	 "num_atms": 21, 
	 "gaussian": { 
		 "optdone": 1, 
		 "sigma_profile": "yes", 
		 "theory": "DFT", 
		 "functional": "B3LYP", 
		 "basiset": "6-31G**", 
		 "properties": { 
			 "R2extent": 3396.3044, 
			 "electric_dipole_moment_norm": 3.82842568427, 
			 "electric_quadrupole_moment_norm": 17.4602560921, 
			 "total_energy": -1012.80105321, 
			 "HOMO_LUMO_gap": 0.17756, 
			 "cosmo_polarized_energy": -16.3, 
			 "cosmo_cavitation_energy": 27.14, 
			 "cosmo_dispersion_energy": -20.24, 
			 "cosmo_repulsion_energy": 1.53, 
			 "cosmo_total_nonelectrostatic_energy": 8.43, 
			 "SMD_solvation_energy": 5.16 
		},
		"coords": [
			{
				"x": -0.2811451054,
				"y": -1.0025515354,
				"z": -1.6172680246,
				"element": "N" 
			},
			{
				"x": 1.1844248361,
				"y": -1.6786096539,
				"z": -1.102391731,
				"element": "S" 
			},
			{
				"x": 1.397580021,
				"y": -2.9784234765,
				"z": -1.746658567,
				"element": "O" 
			},
			{
				"x": 2.1719929304,
				"y": -0.6005549365,
				"z": -1.2527136719,
				"element": "O" 
			},
			{
				"x": 0.8731284214,
				"y": -2.0640017696,
				"z": 0.6064773437,
				"element": "C" 
			},
			{
				"x": 0.4001498959,
				"y": -1.2934933245,
				"z": 1.6031301405,
				"element": "C" 
			},
			{
				"x": -0.0040079206,
				"y": 0.1108220593,
				"z": 1.6943402585,
				"element": "C" 
			},
			{
				"x": 0.4359629163,
				"y": 1.127786716,
				"z": 0.8231556379,
				"element": "C" 
			},
			{
				"x": 0.0097152232,
				"y": 2.4410164234,
				"z": 0.9937816239,
				"element": "C" 
			},
			{
				"x": -0.8626232223,
				"y": 2.7415053158,
				"z": 2.035541924,
				"element": "C" 
			},
			{
				"x": -1.2771473512,
				"y": 4.0121157396,
				"z": 2.1950505209,
				"element": "F" 
			},
			{
				"x": -1.3067400167,
				"y": 1.7707529594,
				"z": 2.9273048736,
				"element": "C" 
			},
			{
				"x": -0.861959679,
				"y": 0.4645804403,
				"z": 2.7554815046,
				"element": "C" 
			},
			{
				"x": -0.0782907073,
				"y": -0.2906005674,
				"z": -2.3148576354,
				"element": "H" 
			},
			{
				"x": -0.8865034063,
				"y": -1.7247204543,
				"z": -2.0006597662,
				"element": "H" 
			},
			{
				"x": 1.1207826327,
				"y": -3.1043451515,
				"z": 0.7875160523,
				"element": "H" 
			},
			{
				"x": 0.2682285818,
				"y": -1.8385962307,
				"z": 2.5387678219,
				"element": "H" 
			},
			{
				"x": 1.142895105,
				"y": 0.8977674333,
				"z": 0.0354283826,
				"element": "H" 
			},
			{
				"x": 0.3512421254,
				"y": 3.2348559165,
				"z": 0.338376882,
				"element": "H" 
			},
			{
				"x": -1.9752649888,
				"y": 2.0462968999,
				"z": 3.735331736,
				"element": "H" 
			},
			{
				"x": -1.1939202915,
				"y": -0.302802803,
				"z": 3.4495646936,
				"element": "H" 
			}
		],
		 "valence_orbital": [ 
			{
				"type": "occ",
				"energy": -0.30981,
				"method": "rhf"
			},
			{
				"type": "occ",
				"energy": -0.30185,
				"method": "rhf"
			},
			{
				"type": "occ",
				"energy": -0.2882,
				"method": "rhf"
			},
			{
				"type": "occ",
				"energy": -0.27185,
				"method": "rhf"
			},
			{
				"type": "occ",
				"energy": -0.24368,
				"method": "rhf"
			},
			{
				"type": "unocc",
				"energy": -0.06612,
				"method": "rhf"
			},
			{
				"type": "unocc",
				"energy": -0.02181,
				"method": "rhf"
			},
			{
				"type": "unocc",
				"energy": 0.02226,
				"method": "rhf"
			},
			{
				"type": "unocc",
				"energy": 0.05992,
				"method": "rhf"
			},
			{
				"type": "unocc",
				"energy": 0.0637,
				"method": "rhf"
			}
		],
		"cosmo_sigma_profile": { 
			"-0.025": 0.0,
			"-0.024": 0.0,
			"-0.023": 0.0,
			"-0.022": 0.0,
			"-0.021": 0.0,
			"-0.02": 0.0,
			"-0.019": 0.0,
			"-0.018": 0.0,
			"-0.017": 0.0,
			"-0.016": 0.0,
			"-0.015": 1.07876742991,
			"-0.014": 2.87676429001,
			"-0.013": 2.69963745086,
			"-0.012": 2.24231169005,
			"-0.011": 2.73124704286,
			"-0.01": 1.57704013199,
			"-0.009": 3.16267772012,
			"-0.008": 9.34751470736,
			"-0.007": 10.8863533044,
			"-0.006": 9.30455932329,
			"-0.005": 9.89810510006,
			"-0.004": 8.11925323437,
			"-0.003": 10.1016300308,
			"-0.002": 9.51300395881,
			"-0.001": 10.3629635638,
			"0.0": 16.8442197982,
			"0.001": 16.2793036743,
			"0.002": 16.9530495922,
			"0.003": 17.5101591476,
			"0.004": 14.4642839709,
			"0.005": 4.45302879286,
			"0.006": 2.53934072325,
			"0.007": 3.48200949211,
			"0.008": 4.3535696277,
			"0.009": 3.83759939073,
			"0.01": 6.83779735626,
			"0.011": 10.2693819448,
			"0.012": 5.57958800247,
			"0.013": 0.0292406149394,
			"0.014": 0.0,
			"0.015": 0.0,
			"0.016": 0.0,
			"0.017": 0.0,
			"0.018": 0.0,
			"0.019": 0.0,
			"0.02": 0.0,
			"0.021": 0.0,
			"0.022": 0.0,
			"0.023": 0.0,
			"0.024": 0.0,
			"0.025": 0.0
		}
	}
}
