{
	 "smiles": "OC(=O)C1=CC(OC2=CC(=CC=C2)C(F)(F)F)=CC=C1", 
	 "Tm": 389.15, 
	 "num_atms": 29, 
	 "gaussian": { 
		 "optdone": 1, 
		 "sigma_profile": "yes", 
		 "theory": "DFT", 
		 "functional": "B3LYP", 
		 "basiset": "6-31G**", 
		 "properties": { 
			 "R2extent": 7570.6849, 
			 "electric_dipole_moment_norm": 4.50924034955, 
			 "electric_quadrupole_moment_norm": 36.0950321025, 
			 "total_energy": -1064.11187484, 
			 "HOMO_LUMO_gap": 0.18413, 
			 "cosmo_polarized_energy": -16.15, 
			 "cosmo_cavitation_energy": 36.26, 
			 "cosmo_dispersion_energy": -25.25, 
			 "cosmo_repulsion_energy": 1.88, 
			 "cosmo_total_nonelectrostatic_energy": 12.89, 
			 "SMD_solvation_energy": 8.69 
		},
		"coords": [
			{
				"x": -2.5824063192,
				"y": -4.0079693831,
				"z": 3.5891410418,
				"element": "O" 
			},
			{
				"x": -2.3621589594,
				"y": -2.6665181248,
				"z": 3.5848166711,
				"element": "C" 
			},
			{
				"x": -3.0381027869,
				"y": -1.938976008,
				"z": 4.2722292548,
				"element": "O" 
			},
			{
				"x": -1.2583453929,
				"y": -2.1690176866,
				"z": 2.6958641344,
				"element": "C" 
			},
			{
				"x": -1.2934657994,
				"y": -0.8199463384,
				"z": 2.3285014848,
				"element": "C" 
			},
			{
				"x": -0.2947560389,
				"y": -0.2993149529,
				"z": 1.5089183234,
				"element": "C" 
			},
			{
				"x": -0.3582153754,
				"y": 1.0521194409,
				"z": 1.242422234,
				"element": "O" 
			},
			{
				"x": 0.0187962587,
				"y": 1.5581396249,
				"z": 0.0158804762,
				"element": "C" 
			},
			{
				"x": -0.2607845193,
				"y": 0.9060444658,
				"z": -1.1866320628,
				"element": "C" 
			},
			{
				"x": 0.097066522,
				"y": 1.5200830337,
				"z": -2.3886256024,
				"element": "C" 
			},
			{
				"x": 0.7144136278,
				"y": 2.7732361202,
				"z": -2.3994288833,
				"element": "C" 
			},
			{
				"x": 0.9745934499,
				"y": 3.4155536472,
				"z": -1.1887361448,
				"element": "C" 
			},
			{
				"x": 0.6327381536,
				"y": 2.8129534564,
				"z": 0.0205090496,
				"element": "C" 
			},
			{
				"x": -0.2518093667,
				"y": 0.8479578237,
				"z": -3.691041886,
				"element": "C" 
			},
			{
				"x": -1.4684662852,
				"y": 1.2324264423,
				"z": -4.1390022843,
				"element": "F" 
			},
			{
				"x": -0.2849860257,
				"y": -0.4982447358,
				"z": -3.5699433127,
				"element": "F" 
			},
			{
				"x": 0.6376118913,
				"y": 1.1472331878,
				"z": -4.6628048043,
				"element": "F" 
			},
			{
				"x": 0.7580771888,
				"y": -1.1085260302,
				"z": 1.0647184643,
				"element": "C" 
			},
			{
				"x": 0.7942380707,
				"y": -2.4490023217,
				"z": 1.4454951281,
				"element": "C" 
			},
			{
				"x": -0.2066281817,
				"y": -2.985445652,
				"z": 2.2558573987,
				"element": "C" 
			},
			{
				"x": -2.0838404355,
				"y": -4.4307372727,
				"z": 2.8762390007,
				"element": "H" 
			},
			{
				"x": -2.0948641112,
				"y": -0.1841046624,
				"z": 2.6862899594,
				"element": "H" 
			},
			{
				"x": -0.7438670203,
				"y": -0.0635680939,
				"z": -1.1895377213,
				"element": "H" 
			},
			{
				"x": 0.9918435294,
				"y": 3.2324937943,
				"z": -3.3412885905,
				"element": "H" 
			},
			{
				"x": 1.4548744628,
				"y": 4.3890356167,
				"z": -1.185157293,
				"element": "H" 
			},
			{
				"x": 0.8300948519,
				"y": 3.2953870574,
				"z": 0.9718151187,
				"element": "H" 
			},
			{
				"x": 1.5404716869,
				"y": -0.6904803636,
				"z": 0.4410196742,
				"element": "H" 
			},
			{
				"x": 1.6192703363,
				"y": -3.0742870298,
				"z": 1.1185305558,
				"element": "H" 
			},
			{
				"x": -0.1308934121,
				"y": -4.0216250555,
				"z": 2.5743506155,
				"element": "H" 
			}
		],
		 "valence_orbital": [ 
			{
				"type": "occ",
				"energy": -0.28498,
				"method": "rhf"
			},
			{
				"type": "occ",
				"energy": -0.27962,
				"method": "rhf"
			},
			{
				"type": "occ",
				"energy": -0.27579,
				"method": "rhf"
			},
			{
				"type": "occ",
				"energy": -0.27149,
				"method": "rhf"
			},
			{
				"type": "occ",
				"energy": -0.24277,
				"method": "rhf"
			},
			{
				"type": "unocc",
				"energy": -0.05864,
				"method": "rhf"
			},
			{
				"type": "unocc",
				"energy": -0.0382,
				"method": "rhf"
			},
			{
				"type": "unocc",
				"energy": -0.02803,
				"method": "rhf"
			},
			{
				"type": "unocc",
				"energy": -0.01608,
				"method": "rhf"
			},
			{
				"type": "unocc",
				"energy": 0.04286,
				"method": "rhf"
			}
		],
		"cosmo_sigma_profile": { 
			"-0.025": 0.0,
			"-0.024": 0.0,
			"-0.023": 0.0,
			"-0.022": 0.0,
			"-0.021": 0.0,
			"-0.02": 0.0,
			"-0.019": 0.164207029883,
			"-0.018": 0.814562309107,
			"-0.017": 1.22410922779,
			"-0.016": 0.706309650035,
			"-0.015": 1.47867443768,
			"-0.014": 0.692355565176,
			"-0.013": 0.726405808382,
			"-0.012": 1.370850979,
			"-0.011": 1.36936568338,
			"-0.01": 0.840046414749,
			"-0.009": 1.57743413254,
			"-0.008": 2.68456923274,
			"-0.007": 12.4365713862,
			"-0.006": 13.8604744598,
			"-0.005": 16.3955855608,
			"-0.004": 15.0535289848,
			"-0.003": 14.6269774814,
			"-0.002": 15.257164311,
			"-0.001": 17.7308204244,
			"0.0": 20.8285235302,
			"0.001": 27.2759470622,
			"0.002": 41.7138402107,
			"0.003": 42.7339286977,
			"0.004": 5.88617723492,
			"0.005": 4.1973021886,
			"0.006": 3.81200163559,
			"0.007": 3.90234692682,
			"0.008": 3.27685934857,
			"0.009": 3.33732544322,
			"0.01": 5.20300563176,
			"0.011": 5.48680877786,
			"0.012": 3.9472038995,
			"0.013": 1.29378348946,
			"0.014": 0.00437606400101,
			"0.015": 0.0,
			"0.016": 0.0,
			"0.017": 0.0,
			"0.018": 0.0,
			"0.019": 0.0,
			"0.02": 0.0,
			"0.021": 0.0,
			"0.022": 0.0,
			"0.023": 0.0,
			"0.024": 0.0,
			"0.025": 0.0
		}
	}
}
