{
	 "smiles": "ClC1=NC(=O)C2=C(S1)C=CC=C2", 
	 "Tm": 382.15, 
	 "num_atms": 16, 
	 "gaussian": { 
		 "optdone": 1, 
		 "sigma_profile": "yes", 
		 "theory": "DFT", 
		 "functional": "B3LYP", 
		 "basiset": "6-31G**", 
		 "properties": { 
			 "R2extent": 3705.3236, 
			 "electric_dipole_moment_norm": 5.21504820112, 
			 "electric_quadrupole_moment_norm": 6.07025342799, 
			 "total_energy": -1295.60608532, 
			 "HOMO_LUMO_gap": 0.17589, 
			 "cosmo_polarized_energy": -10.71, 
			 "cosmo_cavitation_energy": 24.17, 
			 "cosmo_dispersion_energy": -18.91, 
			 "cosmo_repulsion_energy": 1.44, 
			 "cosmo_total_nonelectrostatic_energy": 6.69, 
			 "SMD_solvation_energy": 2.91 
		},
		"coords": [
			{
				"x": 0.6982352361,
				"y": 4.6421292296,
				"z": 2.0301983794,
				"element": "Cl" 
			},
			{
				"x": 0.2879517083,
				"y": 3.0707047794,
				"z": 1.3386575222,
				"element": "C" 
			},
			{
				"x": 0.3132666056,
				"y": 2.0480561168,
				"z": 2.0778888812,
				"element": "N" 
			},
			{
				"x": 0.0036622852,
				"y": 0.7374906578,
				"z": 1.6336258507,
				"element": "C" 
			},
			{
				"x": 0.0591126418,
				"y": -0.1806787457,
				"z": 2.4297247435,
				"element": "O" 
			},
			{
				"x": -0.3802407818,
				"y": 0.5171228474,
				"z": 0.2096661593,
				"element": "C" 
			},
			{
				"x": -0.4595688647,
				"y": 1.5405147988,
				"z": -0.7493832767,
				"element": "C" 
			},
			{
				"x": -0.1060039857,
				"y": 3.2369798325,
				"z": -0.3671715753,
				"element": "S" 
			},
			{
				"x": -0.8286558416,
				"y": 1.2535784555,
				"z": -2.0717797028,
				"element": "C" 
			},
			{
				"x": -1.1188012935,
				"y": -0.0553723195,
				"z": -2.4376776292,
				"element": "C" 
			},
			{
				"x": -1.0442216638,
				"y": -1.0871917949,
				"z": -1.4928421655,
				"element": "C" 
			},
			{
				"x": -0.678816251,
				"y": -0.7988646297,
				"z": -0.1861320251,
				"element": "C" 
			},
			{
				"x": -0.886552819,
				"y": 2.0532173954,
				"z": -2.8045056924,
				"element": "H" 
			},
			{
				"x": -1.4040731363,
				"y": -0.2726003245,
				"z": -3.4626270585,
				"element": "H" 
			},
			{
				"x": -1.2714590411,
				"y": -2.1083682098,
				"z": -1.7820063973,
				"element": "H" 
			},
			{
				"x": -0.6111347984,
				"y": -1.5728180891,
				"z": 0.5703639866,
				"element": "H" 
			}
		],
		 "valence_orbital": [ 
			{
				"type": "occ",
				"energy": -0.30869,
				"method": "rhf"
			},
			{
				"type": "occ",
				"energy": -0.29829,
				"method": "rhf"
			},
			{
				"type": "occ",
				"energy": -0.28112,
				"method": "rhf"
			},
			{
				"type": "occ",
				"energy": -0.27229,
				"method": "rhf"
			},
			{
				"type": "occ",
				"energy": -0.25652,
				"method": "rhf"
			},
			{
				"type": "unocc",
				"energy": -0.08063,
				"method": "rhf"
			},
			{
				"type": "unocc",
				"energy": -0.05038,
				"method": "rhf"
			},
			{
				"type": "unocc",
				"energy": -0.02886,
				"method": "rhf"
			},
			{
				"type": "unocc",
				"energy": -0.01838,
				"method": "rhf"
			},
			{
				"type": "unocc",
				"energy": 0.0087,
				"method": "rhf"
			}
		],
		"cosmo_sigma_profile": { 
			"-0.025": 0.0,
			"-0.024": 0.0,
			"-0.023": 0.0,
			"-0.022": 0.0,
			"-0.021": 0.0,
			"-0.02": 0.0,
			"-0.019": 0.0,
			"-0.018": 0.0,
			"-0.017": 0.0,
			"-0.016": 0.0,
			"-0.015": 0.0,
			"-0.014": 0.0,
			"-0.013": 0.0,
			"-0.012": 0.0,
			"-0.011": 0.0,
			"-0.01": 0.0,
			"-0.009": 1.33554403456,
			"-0.008": 4.74738786,
			"-0.007": 8.96190305782,
			"-0.006": 10.2530041952,
			"-0.005": 11.4234765427,
			"-0.004": 11.9422723428,
			"-0.003": 12.3776369033,
			"-0.002": 16.1721165292,
			"-0.001": 19.0748755931,
			"0.0": 19.310510122,
			"0.001": 22.0877640603,
			"0.002": 22.7473841792,
			"0.003": 9.51006702917,
			"0.004": 3.02243699427,
			"0.005": 2.81332258952,
			"0.006": 2.08443085957,
			"0.007": 2.72135661829,
			"0.008": 2.31469377274,
			"0.009": 2.58677367877,
			"0.01": 3.00221956938,
			"0.011": 5.27333262058,
			"0.012": 4.3529442691,
			"0.013": 2.07629745749,
			"0.014": 0.149507062881,
			"0.015": 0.0,
			"0.016": 0.0,
			"0.017": 0.0,
			"0.018": 0.0,
			"0.019": 0.0,
			"0.02": 0.0,
			"0.021": 0.0,
			"0.022": 0.0,
			"0.023": 0.0,
			"0.024": 0.0,
			"0.025": 0.0
		}
	}
}
