{
	 "smiles": "[O-][N+](=O)C1=CC(NN=C2C(=O)NN=C2C(F)(F)F)=CC=C1", 
	 "Tm": 527.15, 
	 "num_atms": 27, 
	 "gaussian": { 
		 "optdone": 1, 
		 "sigma_profile": "yes", 
		 "theory": "DFT", 
		 "functional": "B3LYP", 
		 "basiset": "6-31G**", 
		 "properties": { 
			 "R2extent": 9750.8723, 
			 "electric_dipole_moment_norm": 5.94805302851, 
			 "electric_quadrupole_moment_norm": 25.9491945149, 
			 "total_energy": -1183.47887715, 
			 "HOMO_LUMO_gap": 0.12728, 
			 "cosmo_polarized_energy": -17.28, 
			 "cosmo_cavitation_energy": 36.11, 
			 "cosmo_dispersion_energy": -25.19, 
			 "cosmo_repulsion_energy": 1.87, 
			 "cosmo_total_nonelectrostatic_energy": 12.78, 
			 "SMD_solvation_energy": 8.78 
		},
		"coords": [
			{
				"x": -2.3936486916,
				"y": 5.1507405375,
				"z": 4.2183526073,
				"element": "O" 
			},
			{
				"x": -2.1630445205,
				"y": 4.616442769,
				"z": 3.1351082669,
				"element": "N" 
			},
			{
				"x": -2.3350496192,
				"y": 5.1425737637,
				"z": 2.03830747,
				"element": "O" 
			},
			{
				"x": -1.638828409,
				"y": 3.2350769853,
				"z": 3.1570903403,
				"element": "C" 
			},
			{
				"x": -1.3714851306,
				"y": 2.6152984207,
				"z": 1.9434171174,
				"element": "C" 
			},
			{
				"x": -0.8754833853,
				"y": 1.3073729816,
				"z": 1.974686382,
				"element": "C" 
			},
			{
				"x": -0.5799726845,
				"y": 0.6104250622,
				"z": 0.7957363822,
				"element": "N" 
			},
			{
				"x": -0.7558382252,
				"y": 1.1568847316,
				"z": -0.3840373894,
				"element": "N" 
			},
			{
				"x": -0.4504510252,
				"y": 0.4249424528,
				"z": -1.4289484972,
				"element": "C" 
			},
			{
				"x": 0.0731911537,
				"y": -0.9554350075,
				"z": -1.423251898,
				"element": "C" 
			},
			{
				"x": 0.322679442,
				"y": -1.6796002946,
				"z": -0.4526473437,
				"element": "O" 
			},
			{
				"x": 0.2146747687,
				"y": -1.2334879929,
				"z": -2.7629441356,
				"element": "N" 
			},
			{
				"x": -0.1558601966,
				"y": -0.1991222166,
				"z": -3.5949851835,
				"element": "N" 
			},
			{
				"x": -0.5469986097,
				"y": 0.7777898959,
				"z": -2.8258544601,
				"element": "C" 
			},
			{
				"x": -1.0276355436,
				"y": 2.0793705931,
				"z": -3.3972120645,
				"element": "C" 
			},
			{
				"x": -0.9814328558,
				"y": 2.0827754174,
				"z": -4.735680121,
				"element": "F" 
			},
			{
				"x": -2.2996553933,
				"y": 2.3227717723,
				"z": -3.0167890729,
				"element": "F" 
			},
			{
				"x": -0.2727041469,
				"y": 3.1025528241,
				"z": -2.9444700647,
				"element": "F" 
			},
			{
				"x": -0.6605908589,
				"y": 0.6569699232,
				"z": 3.1992505613,
				"element": "C" 
			},
			{
				"x": -0.9415088638,
				"y": 1.3137021394,
				"z": 4.3955834715,
				"element": "C" 
			},
			{
				"x": -1.436341492,
				"y": 2.6167387713,
				"z": 4.3901494604,
				"element": "C" 
			},
			{
				"x": -1.5428966662,
				"y": 3.1312753857,
				"z": 1.0086898697,
				"element": "H" 
			},
			{
				"x": -0.2161524909,
				"y": -0.3513532546,
				"z": 0.8332776675,
				"element": "H" 
			},
			{
				"x": 0.5523539684,
				"y": -2.0928686618,
				"z": -3.1692402106,
				"element": "H" 
			},
			{
				"x": -0.2750691627,
				"y": -0.3587095419,
				"z": 3.2100431687,
				"element": "H" 
			},
			{
				"x": -0.7727830332,
				"y": 0.8042642643,
				"z": 5.3385034957,
				"element": "H" 
			},
			{
				"x": -1.6637683283,
				"y": 3.1525082789,
				"z": 5.3022641804,
				"element": "H" 
			}
		],
		 "valence_orbital": [ 
			{
				"type": "occ",
				"energy": -0.2996,
				"method": "rhf"
			},
			{
				"type": "occ",
				"energy": -0.29755,
				"method": "rhf"
			},
			{
				"type": "occ",
				"energy": -0.28005,
				"method": "rhf"
			},
			{
				"type": "occ",
				"energy": -0.27902,
				"method": "rhf"
			},
			{
				"type": "occ",
				"energy": -0.24273,
				"method": "rhf"
			},
			{
				"type": "unocc",
				"energy": -0.11545,
				"method": "rhf"
			},
			{
				"type": "unocc",
				"energy": -0.09864,
				"method": "rhf"
			},
			{
				"type": "unocc",
				"energy": -0.02834,
				"method": "rhf"
			},
			{
				"type": "unocc",
				"energy": -0.00684,
				"method": "rhf"
			},
			{
				"type": "unocc",
				"energy": -0.00147,
				"method": "rhf"
			}
		],
		"cosmo_sigma_profile": { 
			"-0.025": 0.0,
			"-0.024": 0.0,
			"-0.023": 0.0,
			"-0.022": 0.0,
			"-0.021": 0.0,
			"-0.02": 0.0,
			"-0.019": 0.0,
			"-0.018": 0.0799700762791,
			"-0.017": 1.46176360453,
			"-0.016": 1.07639655015,
			"-0.015": 1.31945422146,
			"-0.014": 1.66470441216,
			"-0.013": 1.11316029585,
			"-0.012": 2.15329648434,
			"-0.011": 2.48874924205,
			"-0.01": 1.67048473019,
			"-0.009": 2.60952178087,
			"-0.008": 6.93105275573,
			"-0.007": 9.10225417218,
			"-0.006": 9.17428379388,
			"-0.005": 10.6311851266,
			"-0.004": 15.301558196,
			"-0.003": 16.62984425,
			"-0.002": 22.7444283885,
			"-0.001": 24.7488310603,
			"0.0": 23.7913888042,
			"0.001": 20.6204282443,
			"0.002": 34.1497601834,
			"0.003": 22.5929387786,
			"0.004": 7.84100454477,
			"0.005": 6.42154674068,
			"0.006": 7.35541014212,
			"0.007": 11.2419878589,
			"0.008": 8.44381882417,
			"0.009": 7.08711597477,
			"0.01": 4.2069146996,
			"0.011": 3.51365946552,
			"0.012": 2.94961449206,
			"0.013": 0.743241331897,
			"0.014": 0.0,
			"0.015": 0.0,
			"0.016": 0.0,
			"0.017": 0.0,
			"0.018": 0.0,
			"0.019": 0.0,
			"0.02": 0.0,
			"0.021": 0.0,
			"0.022": 0.0,
			"0.023": 0.0,
			"0.024": 0.0,
			"0.025": 0.0
		}
	}
}
