{
	 "smiles": "CN(C)C1=C(N)C(=O)NC=N1", 
	 "Tm": 432.15, 
	 "num_atms": 21, 
	 "gaussian": { 
		 "optdone": 1, 
		 "sigma_profile": "yes", 
		 "theory": "DFT", 
		 "functional": "B3LYP", 
		 "basiset": "6-31G**", 
		 "properties": { 
			 "R2extent": 1925.761, 
			 "electric_dipole_moment_norm": 2.22915518751, 
			 "electric_quadrupole_moment_norm": 17.6031935324, 
			 "total_energy": -528.902674849, 
			 "HOMO_LUMO_gap": 0.16078, 
			 "cosmo_polarized_energy": -14.44, 
			 "cosmo_cavitation_energy": 23.95, 
			 "cosmo_dispersion_energy": -18.01, 
			 "cosmo_repulsion_energy": 1.45, 
			 "cosmo_total_nonelectrostatic_energy": 7.4, 
			 "SMD_solvation_energy": 3.81 
		},
		"coords": [
			{
				"x": 2.0792140269,
				"y": 0.1487100954,
				"z": 0.9643515884,
				"element": "C" 
			},
			{
				"x": 0.94354381,
				"y": -0.7736575014,
				"z": 0.8587297386,
				"element": "N" 
			},
			{
				"x": 0.3909813292,
				"y": -1.1386921686,
				"z": 2.1590706428,
				"element": "C" 
			},
			{
				"x": 0.0203036916,
				"y": -0.5069662941,
				"z": -0.1652641583,
				"element": "C" 
			},
			{
				"x": 0.4191505451,
				"y": -0.5090614626,
				"z": -1.4950686909,
				"element": "C" 
			},
			{
				"x": 1.7185225866,
				"y": -0.7653121143,
				"z": -1.9283419777,
				"element": "N" 
			},
			{
				"x": -0.5423513821,
				"y": -0.221132559,
				"z": -2.538243747,
				"element": "C" 
			},
			{
				"x": -0.2984284824,
				"y": -0.2114851745,
				"z": -3.7472139124,
				"element": "O" 
			},
			{
				"x": -1.8336070989,
				"y": 0.0184504596,
				"z": -2.0489788947,
				"element": "N" 
			},
			{
				"x": -2.157910764,
				"y": -0.0623094926,
				"z": -0.7269580784,
				"element": "C" 
			},
			{
				"x": -1.2915504633,
				"y": -0.3073368326,
				"z": 0.2044273355,
				"element": "N" 
			},
			{
				"x": 2.8578955324,
				"y": -0.3095151022,
				"z": 1.5827179128,
				"element": "H" 
			},
			{
				"x": 1.7886590045,
				"y": 1.1041372327,
				"z": 1.430318528,
				"element": "H" 
			},
			{
				"x": 2.4944154704,
				"y": 0.3560355322,
				"z": -0.0232491978,
				"element": "H" 
			},
			{
				"x": 1.1969684647,
				"y": -1.5623790535,
				"z": 2.7670163006,
				"element": "H" 
			},
			{
				"x": -0.0421167394,
				"y": -0.2828925275,
				"z": 2.6982093231,
				"element": "H" 
			},
			{
				"x": -0.3914858651,
				"y": -1.8886870175,
				"z": 2.0373517939,
				"element": "H" 
			},
			{
				"x": 1.7326417654,
				"y": -0.9262405962,
				"z": -2.9308240868,
				"element": "H" 
			},
			{
				"x": 2.1829472003,
				"y": -1.4952051986,
				"z": -1.3991662609,
				"element": "H" 
			},
			{
				"x": -2.5402031753,
				"y": 0.2026328431,
				"z": -2.750850597,
				"element": "H" 
			},
			{
				"x": -3.2030894564,
				"y": 0.0975069322,
				"z": -0.4742335619,
				"element": "H" 
			}
		],
		 "valence_orbital": [ 
			{
				"type": "occ",
				"energy": -0.28277,
				"method": "rhf"
			},
			{
				"type": "occ",
				"energy": -0.27852,
				"method": "rhf"
			},
			{
				"type": "occ",
				"energy": -0.25509,
				"method": "rhf"
			},
			{
				"type": "occ",
				"energy": -0.24222,
				"method": "rhf"
			},
			{
				"type": "occ",
				"energy": -0.18422,
				"method": "rhf"
			},
			{
				"type": "unocc",
				"energy": -0.02344,
				"method": "rhf"
			},
			{
				"type": "unocc",
				"energy": 0.01134,
				"method": "rhf"
			},
			{
				"type": "unocc",
				"energy": 0.07678,
				"method": "rhf"
			},
			{
				"type": "unocc",
				"energy": 0.09281,
				"method": "rhf"
			},
			{
				"type": "unocc",
				"energy": 0.11199,
				"method": "rhf"
			}
		],
		"cosmo_sigma_profile": { 
			"-0.025": 0.0,
			"-0.024": 0.0,
			"-0.023": 0.0,
			"-0.022": 0.0,
			"-0.021": 0.0,
			"-0.02": 0.0,
			"-0.019": 0.0,
			"-0.018": 0.0,
			"-0.017": 0.299916737102,
			"-0.016": 1.52567103273,
			"-0.015": 1.35608241103,
			"-0.014": 1.11371032913,
			"-0.013": 1.24948851747,
			"-0.012": 1.14975077451,
			"-0.011": 2.23966001092,
			"-0.01": 3.80395711614,
			"-0.009": 4.52861086512,
			"-0.008": 4.24201701915,
			"-0.007": 3.54202362648,
			"-0.006": 3.78763567954,
			"-0.005": 4.13891211294,
			"-0.004": 10.8368330965,
			"-0.003": 12.1963484381,
			"-0.002": 19.3814188399,
			"-0.001": 26.7834103131,
			"0.0": 17.2057752844,
			"0.001": 10.2536432302,
			"0.002": 7.57101778281,
			"0.003": 6.17642346126,
			"0.004": 4.98709959257,
			"0.005": 5.80289289753,
			"0.006": 5.43371278982,
			"0.007": 3.16425046129,
			"0.008": 3.69862735146,
			"0.009": 3.30440905594,
			"0.01": 2.55952965158,
			"0.011": 2.75146024547,
			"0.012": 2.93264957191,
			"0.013": 3.7467267127,
			"0.014": 5.98218372798,
			"0.015": 1.05432160621,
			"0.016": 0.0,
			"0.017": 0.0,
			"0.018": 0.0,
			"0.019": 0.0,
			"0.02": 0.0,
			"0.021": 0.0,
			"0.022": 0.0,
			"0.023": 0.0,
			"0.024": 0.0,
			"0.025": 0.0
		}
	}
}
