{
	 "smiles": "CN1C=NC(=C1Cl)[N+]([O-])=O", 
	 "Tm": 421.15, 
	 "num_atms": 14, 
	 "gaussian": { 
		 "optdone": 1, 
		 "sigma_profile": "yes", 
		 "theory": "DFT", 
		 "functional": "B3LYP", 
		 "basiset": "6-31G**", 
		 "properties": { 
			 "R2extent": 3554.1566, 
			 "electric_dipole_moment_norm": 7.87174251484, 
			 "electric_quadrupole_moment_norm": 21.5335407783, 
			 "total_energy": -929.605695131, 
			 "HOMO_LUMO_gap": 0.18609, 
			 "cosmo_polarized_energy": -17.47, 
			 "cosmo_cavitation_energy": 21.15, 
			 "cosmo_dispersion_energy": -15.71, 
			 "cosmo_repulsion_energy": 1.27, 
			 "cosmo_total_nonelectrostatic_energy": 6.72, 
			 "SMD_solvation_energy": 4.95 
		},
		"coords": [
			{
				"x": 0.0850605361,
				"y": -1.2315678701,
				"z": 1.3323608099,
				"element": "C" 
			},
			{
				"x": 0.4745854965,
				"y": 0.1549997086,
				"z": 1.1097180641,
				"element": "N" 
			},
			{
				"x": 0.0207191011,
				"y": 0.992516523,
				"z": 0.1182083672,
				"element": "C" 
			},
			{
				"x": 0.5588984327,
				"y": 2.1851857067,
				"z": 0.1794662213,
				"element": "N" 
			},
			{
				"x": 1.3992578953,
				"y": 2.1366586852,
				"z": 1.2492435537,
				"element": "C" 
			},
			{
				"x": 1.3706882678,
				"y": 0.8888394006,
				"z": 1.8499767469,
				"element": "C" 
			},
			{
				"x": 2.1737692966,
				"y": 0.2060033923,
				"z": 3.1968520861,
				"element": "Cl" 
			},
			{
				"x": 2.1855896104,
				"y": 3.2808268324,
				"z": 1.6438064217,
				"element": "N" 
			},
			{
				"x": 2.073796032,
				"y": 4.3065182295,
				"z": 0.9818444561,
				"element": "O" 
			},
			{
				"x": 2.9170026517,
				"y": 3.1340391266,
				"z": 2.6283387029,
				"element": "O" 
			},
			{
				"x": -0.6426043128,
				"y": -1.5070718619,
				"z": 0.5682123194,
				"element": "H" 
			},
			{
				"x": 0.9536533289,
				"y": -1.8899656979,
				"z": 1.2569696955,
				"element": "H" 
			},
			{
				"x": -0.3676446016,
				"y": -1.3480707616,
				"z": 2.3198359126,
				"element": "H" 
			},
			{
				"x": -0.7034717346,
				"y": 0.6611885865,
				"z": -0.6135333575,
				"element": "H" 
			}
		],
		 "valence_orbital": [ 
			{
				"type": "occ",
				"energy": -0.31031,
				"method": "rhf"
			},
			{
				"type": "occ",
				"energy": -0.29767,
				"method": "rhf"
			},
			{
				"type": "occ",
				"energy": -0.29645,
				"method": "rhf"
			},
			{
				"type": "occ",
				"energy": -0.27972,
				"method": "rhf"
			},
			{
				"type": "occ",
				"energy": -0.26092,
				"method": "rhf"
			},
			{
				"type": "unocc",
				"energy": -0.07483,
				"method": "rhf"
			},
			{
				"type": "unocc",
				"energy": -0.00813,
				"method": "rhf"
			},
			{
				"type": "unocc",
				"energy": 0.01049,
				"method": "rhf"
			},
			{
				"type": "unocc",
				"energy": 0.05979,
				"method": "rhf"
			},
			{
				"type": "unocc",
				"energy": 0.06839,
				"method": "rhf"
			}
		],
		"cosmo_sigma_profile": { 
			"-0.025": 0.0,
			"-0.024": 0.0,
			"-0.023": 0.0,
			"-0.022": 0.0,
			"-0.021": 0.0,
			"-0.02": 0.0,
			"-0.019": 0.0,
			"-0.018": 0.0,
			"-0.017": 0.0,
			"-0.016": 0.0,
			"-0.015": 0.0,
			"-0.014": 0.0,
			"-0.013": 0.0,
			"-0.012": 0.380184814596,
			"-0.011": 3.33449626961,
			"-0.01": 2.77271150934,
			"-0.009": 2.80027189734,
			"-0.008": 5.10525967433,
			"-0.007": 9.18687923597,
			"-0.006": 11.3593653072,
			"-0.005": 13.6653319345,
			"-0.004": 14.3644520549,
			"-0.003": 12.033917591,
			"-0.002": 9.1878777152,
			"-0.001": 8.59615344156,
			"0.0": 7.78149580058,
			"0.001": 8.91338540636,
			"0.002": 7.59273991807,
			"0.003": 4.07210370305,
			"0.004": 3.17161975059,
			"0.005": 4.98288522114,
			"0.006": 4.31813447845,
			"0.007": 6.06367358635,
			"0.008": 12.4748115387,
			"0.009": 7.01839187573,
			"0.01": 4.9950809505,
			"0.011": 2.32364500435,
			"0.012": 1.49333030277,
			"0.013": 1.20918528478,
			"0.014": 1.50101432046,
			"0.015": 1.23718612608,
			"0.016": 0.187378060569,
			"0.017": 0.0,
			"0.018": 0.0,
			"0.019": 0.0,
			"0.02": 0.0,
			"0.021": 0.0,
			"0.022": 0.0,
			"0.023": 0.0,
			"0.024": 0.0,
			"0.025": 0.0
		}
	}
}
