{
	 "smiles": "CCC(=C/C)C(=O)NC(N)=O", 
	 "Tm": 471.15, 
	 "num_atms": 23, 
	 "gaussian": { 
		 "optdone": 1, 
		 "sigma_profile": "yes", 
		 "theory": "DFT", 
		 "functional": "B3LYP", 
		 "basiset": "6-31G**", 
		 "properties": { 
			 "R2extent": 2102.4667, 
			 "electric_dipole_moment_norm": 3.61857940496, 
			 "electric_quadrupole_moment_norm": 14.8818739932, 
			 "total_energy": -533.952463633, 
			 "HOMO_LUMO_gap": 0.2086, 
			 "cosmo_polarized_energy": -17.31, 
			 "cosmo_cavitation_energy": 26.8, 
			 "cosmo_dispersion_energy": -18.7, 
			 "cosmo_repulsion_energy": 1.56, 
			 "cosmo_total_nonelectrostatic_energy": 9.66, 
			 "SMD_solvation_energy": 6.41 
		},
		"coords": [
			{
				"x": -3.0121749491,
				"y": -1.0630590058,
				"z": 1.3153994244,
				"element": "C" 
			},
			{
				"x": -2.6159454595,
				"y": -0.6209954581,
				"z": -0.1045604215,
				"element": "C" 
			},
			{
				"x": -1.1298621829,
				"y": -0.3796691928,
				"z": -0.2464966607,
				"element": "C" 
			},
			{
				"x": -0.2665033788,
				"y": -1.1402305349,
				"z": -0.9424052066,
				"element": "C" 
			},
			{
				"x": -0.5526094597,
				"y": -2.4021062996,
				"z": -1.6964013223,
				"element": "C" 
			},
			{
				"x": -0.6568767386,
				"y": 0.8916859945,
				"z": 0.3720500188,
				"element": "C" 
			},
			{
				"x": -1.3717075875,
				"y": 1.8807540699,
				"z": 0.4548471542,
				"element": "O" 
			},
			{
				"x": 0.6826847726,
				"y": 1.01714425,
				"z": 0.8085085285,
				"element": "N" 
			},
			{
				"x": 1.4563015603,
				"y": 0.0693813393,
				"z": 1.5117075708,
				"element": "C" 
			},
			{
				"x": 2.6455394265,
				"y": 0.6168704844,
				"z": 1.9593883133,
				"element": "N" 
			},
			{
				"x": 1.1232607019,
				"y": -1.0762821125,
				"z": 1.7454817947,
				"element": "O" 
			},
			{
				"x": -2.7414476514,
				"y": -0.3000444278,
				"z": 2.0516999768,
				"element": "H" 
			},
			{
				"x": -4.0932097804,
				"y": -1.2234225481,
				"z": 1.382828859,
				"element": "H" 
			},
			{
				"x": -2.5073993651,
				"y": -1.992714035,
				"z": 1.5955585858,
				"element": "H" 
			},
			{
				"x": -3.13367987,
				"y": 0.3129350679,
				"z": -0.3463953518,
				"element": "H" 
			},
			{
				"x": -2.947116009,
				"y": -1.3697738854,
				"z": -0.8290112123,
				"element": "H" 
			},
			{
				"x": 0.773036271,
				"y": -0.8227402836,
				"z": -0.9744668809,
				"element": "H" 
			},
			{
				"x": -0.2441523696,
				"y": -2.3067022745,
				"z": -2.7451332247,
				"element": "H" 
			},
			{
				"x": -1.6040739932,
				"y": -2.69312956,
				"z": -1.6736429749,
				"element": "H" 
			},
			{
				"x": 0.0361780679,
				"y": -3.2255469131,
				"z": -1.2720846179,
				"element": "H" 
			},
			{
				"x": 0.8618402085,
				"y": 1.984770419,
				"z": 1.0558373754,
				"element": "H" 
			},
			{
				"x": 3.0729868855,
				"y": 1.3665887029,
				"z": 1.4347886555,
				"element": "H" 
			},
			{
				"x": 3.2830309008,
				"y": -0.0635137968,
				"z": 2.3465016161,
				"element": "H" 
			}
		],
		 "valence_orbital": [ 
			{
				"type": "occ",
				"energy": -0.29374,
				"method": "rhf"
			},
			{
				"type": "occ",
				"energy": -0.28508,
				"method": "rhf"
			},
			{
				"type": "occ",
				"energy": -0.27065,
				"method": "rhf"
			},
			{
				"type": "occ",
				"energy": -0.25671,
				"method": "rhf"
			},
			{
				"type": "occ",
				"energy": -0.24197,
				"method": "rhf"
			},
			{
				"type": "unocc",
				"energy": -0.03337,
				"method": "rhf"
			},
			{
				"type": "unocc",
				"energy": 0.03467,
				"method": "rhf"
			},
			{
				"type": "unocc",
				"energy": 0.06069,
				"method": "rhf"
			},
			{
				"type": "unocc",
				"energy": 0.07775,
				"method": "rhf"
			},
			{
				"type": "unocc",
				"energy": 0.10031,
				"method": "rhf"
			}
		],
		"cosmo_sigma_profile": { 
			"-0.025": 0.0,
			"-0.024": 0.0,
			"-0.023": 0.0,
			"-0.022": 0.0,
			"-0.021": 0.0,
			"-0.02": 0.0,
			"-0.019": 0.0,
			"-0.018": 0.0,
			"-0.017": 0.0,
			"-0.016": 0.106862584894,
			"-0.015": 2.27599170742,
			"-0.014": 3.3981292867,
			"-0.013": 3.34067969375,
			"-0.012": 2.71379220082,
			"-0.011": 3.17225965099,
			"-0.01": 2.35970172471,
			"-0.009": 2.59338945788,
			"-0.008": 2.21260991379,
			"-0.007": 1.93687467938,
			"-0.006": 2.67579468941,
			"-0.005": 7.85345141697,
			"-0.004": 10.7183849482,
			"-0.003": 18.7848719784,
			"-0.002": 19.0192177175,
			"-0.001": 24.0695285783,
			"0.0": 23.415663691,
			"0.001": 16.1729876051,
			"0.002": 9.43525340849,
			"0.003": 6.95794822002,
			"0.004": 4.40352899709,
			"0.005": 4.51256145161,
			"0.006": 3.2468763964,
			"0.007": 3.62204143609,
			"0.008": 3.12558322725,
			"0.009": 3.93446058907,
			"0.01": 3.74331361126,
			"0.011": 3.99871088839,
			"0.012": 7.44932571171,
			"0.013": 6.93306372883,
			"0.014": 1.77390199558,
			"0.015": 0.0,
			"0.016": 0.0,
			"0.017": 0.0,
			"0.018": 0.0,
			"0.019": 0.0,
			"0.02": 0.0,
			"0.021": 0.0,
			"0.022": 0.0,
			"0.023": 0.0,
			"0.024": 0.0,
			"0.025": 0.0
		}
	}
}
