{
	 "smiles": "BrC1=NC2=C(S1)C=CC=C2", 
	 "Tm": 314.15, 
	 "num_atms": 14, 
	 "gaussian": { 
		 "optdone": 1, 
		 "sigma_profile": "yes", 
		 "theory": "DFT", 
		 "functional": "B3LYP", 
		 "basiset": "6-31G**", 
		 "properties": { 
			 "R2extent": 5733.853, 
			 "electric_dipole_moment_norm": 2.25479933253, 
			 "electric_quadrupole_moment_norm": 6.62919576646, 
			 "total_energy": -3293.49520625, 
			 "HOMO_LUMO_gap": 0.19817, 
			 "cosmo_polarized_energy": -5.13, 
			 "cosmo_cavitation_energy": 22.37, 
			 "cosmo_dispersion_energy": -17.92, 
			 "cosmo_repulsion_energy": 1.39, 
			 "cosmo_total_nonelectrostatic_energy": 5.84, 
			 "SMD_solvation_energy": 0.4 
		},
		"coords": [
			{
				"x": 1.3385895851,
				"y": 0.4966291814,
				"z": -5.094577265,
				"element": "Br" 
			},
			{
				"x": 0.8781991632,
				"y": -0.3605106652,
				"z": -3.4745532238,
				"element": "C" 
			},
			{
				"x": 1.7143816999,
				"y": -1.0143713574,
				"z": -2.7560853732,
				"element": "N" 
			},
			{
				"x": 1.0789547493,
				"y": -1.5274963282,
				"z": -1.6302187338,
				"element": "C" 
			},
			{
				"x": -0.3019588587,
				"y": -1.2306225576,
				"z": -1.5207424336,
				"element": "C" 
			},
			{
				"x": -0.79449921,
				"y": -0.2649384975,
				"z": -2.9049416329,
				"element": "S" 
			},
			{
				"x": -1.0613514765,
				"y": -1.6838723325,
				"z": -0.4402293677,
				"element": "C" 
			},
			{
				"x": -0.419669246,
				"y": -2.442443863,
				"z": 0.5360464189,
				"element": "C" 
			},
			{
				"x": 0.9499344053,
				"y": -2.7435758073,
				"z": 0.4385285105,
				"element": "C" 
			},
			{
				"x": 1.7057154829,
				"y": -2.2924712164,
				"z": -0.6368769734,
				"element": "C" 
			},
			{
				"x": -2.1189251411,
				"y": -1.4544705494,
				"z": -0.3598041199,
				"element": "H" 
			},
			{
				"x": -0.9890983293,
				"y": -2.8062774798,
				"z": 1.385918711,
				"element": "H" 
			},
			{
				"x": 1.4220325853,
				"y": -3.3370906325,
				"z": 1.2153673506,
				"element": "H" 
			},
			{
				"x": 2.7633945905,
				"y": -2.5155878946,
				"z": -0.7278318678,
				"element": "H" 
			}
		],
		 "valence_orbital": [ 
			{
				"type": "occ",
				"energy": -0.31048,
				"method": "rhf"
			},
			{
				"type": "occ",
				"energy": -0.30445,
				"method": "rhf"
			},
			{
				"type": "occ",
				"energy": -0.29403,
				"method": "rhf"
			},
			{
				"type": "occ",
				"energy": -0.24641,
				"method": "rhf"
			},
			{
				"type": "occ",
				"energy": -0.2442,
				"method": "rhf"
			},
			{
				"type": "unocc",
				"energy": -0.04603,
				"method": "rhf"
			},
			{
				"type": "unocc",
				"energy": -0.02196,
				"method": "rhf"
			},
			{
				"type": "unocc",
				"energy": -0.01575,
				"method": "rhf"
			},
			{
				"type": "unocc",
				"energy": 0.00974,
				"method": "rhf"
			},
			{
				"type": "unocc",
				"energy": 0.02217,
				"method": "rhf"
			}
		],
		"cosmo_sigma_profile": { 
			"-0.025": 0.0,
			"-0.024": 0.0,
			"-0.023": 0.0,
			"-0.022": 0.0,
			"-0.021": 0.0,
			"-0.02": 0.0,
			"-0.019": 0.0,
			"-0.018": 0.0,
			"-0.017": 0.0,
			"-0.016": 0.0,
			"-0.015": 0.0,
			"-0.014": 0.0,
			"-0.013": 0.0,
			"-0.012": 0.0,
			"-0.011": 0.0,
			"-0.01": 0.0,
			"-0.009": 0.0,
			"-0.008": 1.8629322734,
			"-0.007": 5.20640903211,
			"-0.006": 10.58427262,
			"-0.005": 10.3891216695,
			"-0.004": 9.60178472405,
			"-0.003": 9.17726733294,
			"-0.002": 16.3525086962,
			"-0.001": 15.8409368326,
			"0.0": 17.2097007169,
			"0.001": 20.0620422798,
			"0.002": 24.4840385175,
			"0.003": 22.0574395077,
			"0.004": 11.7542378582,
			"0.005": 3.21473939798,
			"0.006": 1.64530348169,
			"0.007": 1.2292731344,
			"0.008": 1.63072515364,
			"0.009": 1.17439746534,
			"0.01": 0.443455342948,
			"0.011": 1.05010845775,
			"0.012": 1.14176994637,
			"0.013": 0.568488973784,
			"0.014": 0.0768442232304,
			"0.015": 0.0,
			"0.016": 0.0,
			"0.017": 0.0,
			"0.018": 0.0,
			"0.019": 0.0,
			"0.02": 0.0,
			"0.021": 0.0,
			"0.022": 0.0,
			"0.023": 0.0,
			"0.024": 0.0,
			"0.025": 0.0
		}
	}
}
