{
	 "smiles": "NNC(=S)NC1=C(F)C=CC=C1", 
	 "Tm": 433.15, 
	 "num_atms": 20, 
	 "gaussian": { 
		 "optdone": 1, 
		 "sigma_profile": "yes", 
		 "theory": "DFT", 
		 "functional": "B3LYP", 
		 "basiset": "6-31G**", 
		 "properties": { 
			 "R2extent": 2923.7306, 
			 "electric_dipole_moment_norm": 4.99606974431, 
			 "electric_quadrupole_moment_norm": 9.37806934875, 
			 "total_energy": -933.8204328, 
			 "HOMO_LUMO_gap": 0.17435, 
			 "cosmo_polarized_energy": -13.86, 
			 "cosmo_cavitation_energy": 26.12, 
			 "cosmo_dispersion_energy": -19.58, 
			 "cosmo_repulsion_energy": 1.5, 
			 "cosmo_total_nonelectrostatic_energy": 8.05, 
			 "SMD_solvation_energy": 4.23 
		},
		"coords": [
			{
				"x": 2.8226984106,
				"y": -1.9231047603,
				"z": -1.5254342249,
				"element": "N" 
			},
			{
				"x": 1.8114580129,
				"y": -0.9896256648,
				"z": -1.2232543181,
				"element": "N" 
			},
			{
				"x": 1.9483017301,
				"y": 0.3386547004,
				"z": -1.4583560453,
				"element": "C" 
			},
			{
				"x": 3.3716841367,
				"y": 1.0377345555,
				"z": -2.0228330517,
				"element": "S" 
			},
			{
				"x": 0.8481950801,
				"y": 1.1383716874,
				"z": -1.2046486314,
				"element": "N" 
			},
			{
				"x": -0.273326348,
				"y": 0.9028103999,
				"z": -0.3706534809,
				"element": "C" 
			},
			{
				"x": -1.1871462578,
				"y": -0.1360212011,
				"z": -0.5797432495,
				"element": "C" 
			},
			{
				"x": -0.9715228383,
				"y": -1.0104964944,
				"z": -1.5994279547,
				"element": "F" 
			},
			{
				"x": -2.3074541501,
				"y": -0.3213937437,
				"z": 0.2171409317,
				"element": "C" 
			},
			{
				"x": -2.5656689276,
				"y": 0.5824906316,
				"z": 1.2471197717,
				"element": "C" 
			},
			{
				"x": -1.69093152,
				"y": 1.648880016,
				"z": 1.466289838,
				"element": "C" 
			},
			{
				"x": -0.5574394879,
				"y": 1.8004818165,
				"z": 0.6710030603,
				"element": "C" 
			},
			{
				"x": 3.2574284147,
				"y": -1.6240078857,
				"z": -2.4013674047,
				"element": "H" 
			},
			{
				"x": 3.5520296843,
				"y": -1.8135485772,
				"z": -0.8209902182,
				"element": "H" 
			},
			{
				"x": 0.8865047966,
				"y": -1.3952018962,
				"z": -1.2123290036,
				"element": "H" 
			},
			{
				"x": 1.0899614738,
				"y": 2.1134802393,
				"z": -1.3236367976,
				"element": "H" 
			},
			{
				"x": -2.9676870754,
				"y": -1.1547995991,
				"z": 0.0029483882,
				"element": "H" 
			},
			{
				"x": -3.4445090573,
				"y": 0.453138666,
				"z": 1.8702307521,
				"element": "H" 
			},
			{
				"x": -1.8835790792,
				"y": 2.3588341096,
				"z": 2.2641628458,
				"element": "H" 
			},
			{
				"x": 0.1338030021,
				"y": 2.6188230004,
				"z": 0.8514787928,
				"element": "H" 
			}
		],
		 "valence_orbital": [ 
			{
				"type": "occ",
				"energy": -0.28354,
				"method": "rhf"
			},
			{
				"type": "occ",
				"energy": -0.2716,
				"method": "rhf"
			},
			{
				"type": "occ",
				"energy": -0.25297,
				"method": "rhf"
			},
			{
				"type": "occ",
				"energy": -0.2195,
				"method": "rhf"
			},
			{
				"type": "occ",
				"energy": -0.21108,
				"method": "rhf"
			},
			{
				"type": "unocc",
				"energy": -0.03673,
				"method": "rhf"
			},
			{
				"type": "unocc",
				"energy": -0.02148,
				"method": "rhf"
			},
			{
				"type": "unocc",
				"energy": 0.00175,
				"method": "rhf"
			},
			{
				"type": "unocc",
				"energy": 0.0617,
				"method": "rhf"
			},
			{
				"type": "unocc",
				"energy": 0.0734,
				"method": "rhf"
			}
		],
		"cosmo_sigma_profile": { 
			"-0.025": 0.0,
			"-0.024": 0.0,
			"-0.023": 0.0,
			"-0.022": 0.0,
			"-0.021": 0.0,
			"-0.02": 0.0,
			"-0.019": 0.0,
			"-0.018": 0.0,
			"-0.017": 0.0,
			"-0.016": 0.0,
			"-0.015": 0.122168126765,
			"-0.014": 0.985668496666,
			"-0.013": 0.508835705054,
			"-0.012": 1.38391893454,
			"-0.011": 2.88228313186,
			"-0.01": 2.8537546821,
			"-0.009": 4.13381359299,
			"-0.008": 6.73486591976,
			"-0.007": 9.6543090023,
			"-0.006": 11.5791454419,
			"-0.005": 12.7392385888,
			"-0.004": 10.8323767812,
			"-0.003": 9.36035455208,
			"-0.002": 10.8547151672,
			"-0.001": 12.7350075545,
			"0.0": 15.5531715794,
			"0.001": 15.027630855,
			"0.002": 15.9296248065,
			"0.003": 17.6975738744,
			"0.004": 9.92710926641,
			"0.005": 3.99750259516,
			"0.006": 4.20108080836,
			"0.007": 4.58119045165,
			"0.008": 4.68297245819,
			"0.009": 5.46037943797,
			"0.01": 8.21388010323,
			"0.011": 5.31461747006,
			"0.012": 1.09478797999,
			"0.013": 0.927785267277,
			"0.014": 0.309686389696,
			"0.015": 0.796572456009,
			"0.016": 0.366304207991,
			"0.017": 0.0,
			"0.018": 0.0,
			"0.019": 0.0,
			"0.02": 0.0,
			"0.021": 0.0,
			"0.022": 0.0,
			"0.023": 0.0,
			"0.024": 0.0,
			"0.025": 0.0
		}
	}
}
