{
	 "smiles": "CC1=CC(OCC(=O)NN)=CC=C1", 
	 "Tm": 383.15, 
	 "num_atms": 25, 
	 "gaussian": { 
		 "optdone": 1, 
		 "sigma_profile": "yes", 
		 "theory": "DFT", 
		 "functional": "B3LYP", 
		 "basiset": "6-31G**", 
		 "properties": { 
			 "R2extent": 2871.6615, 
			 "electric_dipole_moment_norm": 1.95408964482, 
			 "electric_quadrupole_moment_norm": 10.3476824265, 
			 "total_energy": -610.110042238, 
			 "HOMO_LUMO_gap": 0.21752, 
			 "cosmo_polarized_energy": -14.04, 
			 "cosmo_cavitation_energy": 28.68, 
			 "cosmo_dispersion_energy": -20.48, 
			 "cosmo_repulsion_energy": 1.65, 
			 "cosmo_total_nonelectrostatic_energy": 9.84, 
			 "SMD_solvation_energy": 6.26 
		},
		"coords": [
			{
				"x": -2.6817110423,
				"y": 0.2456519126,
				"z": 2.2014589397,
				"element": "C" 
			},
			{
				"x": -1.5839790215,
				"y": 0.9301965396,
				"z": 1.4202819752,
				"element": "C" 
			},
			{
				"x": -0.7429417644,
				"y": 0.1685897541,
				"z": 0.5911839601,
				"element": "C" 
			},
			{
				"x": 0.2842532763,
				"y": 0.7920104725,
				"z": -0.119549943,
				"element": "C" 
			},
			{
				"x": 1.1624933659,
				"y": 0.1317790976,
				"z": -0.9579905817,
				"element": "O" 
			},
			{
				"x": 1.188695924,
				"y": -1.2938785475,
				"z": -0.936727238,
				"element": "C" 
			},
			{
				"x": 0.0453292137,
				"y": -1.953607156,
				"z": -1.7250499943,
				"element": "C" 
			},
			{
				"x": -0.7337740443,
				"y": -2.7374928399,
				"z": -1.1958348576,
				"element": "O" 
			},
			{
				"x": -0.043356842,
				"y": -1.6236354482,
				"z": -3.0468906089,
				"element": "N" 
			},
			{
				"x": 0.7504853863,
				"y": -0.6984889551,
				"z": -3.7503655716,
				"element": "N" 
			},
			{
				"x": 0.4825447792,
				"y": 2.1751317911,
				"z": -0.0245901577,
				"element": "C" 
			},
			{
				"x": -0.3560450122,
				"y": 2.9251914512,
				"z": 0.791395673,
				"element": "C" 
			},
			{
				"x": -1.3834319659,
				"y": 2.3098588486,
				"z": 1.5132898692,
				"element": "C" 
			},
			{
				"x": -3.2347108729,
				"y": -0.4626397743,
				"z": 1.5758982907,
				"element": "H" 
			},
			{
				"x": -3.3939106692,
				"y": 0.9696900192,
				"z": 2.6066997627,
				"element": "H" 
			},
			{
				"x": -2.2716377469,
				"y": -0.3233899962,
				"z": 3.0447795831,
				"element": "H" 
			},
			{
				"x": -0.9207287977,
				"y": -0.8971167275,
				"z": 0.4935883388,
				"element": "H" 
			},
			{
				"x": 1.143920394,
				"y": -1.6811985297,
				"z": 0.0845530255,
				"element": "H" 
			},
			{
				"x": 2.1525108932,
				"y": -1.5699547178,
				"z": -1.377514095,
				"element": "H" 
			},
			{
				"x": -0.8486714893,
				"y": -1.9808912112,
				"z": -3.5447807392,
				"element": "H" 
			},
			{
				"x": 0.8665176705,
				"y": 0.1369163585,
				"z": -3.1824302687,
				"element": "H" 
			},
			{
				"x": 1.6710613491,
				"y": -1.098253341,
				"z": -3.9220059611,
				"element": "H" 
			},
			{
				"x": 1.2903714022,
				"y": 2.6319359048,
				"z": -0.5868821167,
				"element": "H" 
			},
			{
				"x": -0.2076046275,
				"y": 3.9986190417,
				"z": 0.8684077635,
				"element": "H" 
			},
			{
				"x": -2.0330797583,
				"y": 2.9063760529,
				"z": 2.147674952,
				"element": "H" 
			}
		],
		 "valence_orbital": [ 
			{
				"type": "occ",
				"energy": -0.29463,
				"method": "rhf"
			},
			{
				"type": "occ",
				"energy": -0.26172,
				"method": "rhf"
			},
			{
				"type": "occ",
				"energy": -0.25253,
				"method": "rhf"
			},
			{
				"type": "occ",
				"energy": -0.24225,
				"method": "rhf"
			},
			{
				"type": "occ",
				"energy": -0.2199,
				"method": "rhf"
			},
			{
				"type": "unocc",
				"energy": -0.00238,
				"method": "rhf"
			},
			{
				"type": "unocc",
				"energy": 0.00406,
				"method": "rhf"
			},
			{
				"type": "unocc",
				"energy": 0.0129,
				"method": "rhf"
			},
			{
				"type": "unocc",
				"energy": 0.07117,
				"method": "rhf"
			},
			{
				"type": "unocc",
				"energy": 0.09807,
				"method": "rhf"
			}
		],
		"cosmo_sigma_profile": { 
			"-0.025": 0.0440199041174,
			"-0.024": -0.00124651111741,
			"-0.023": 0.0739431155234,
			"-0.022": 0.0743214923235,
			"-0.021": 0.242624645153,
			"-0.02": 0.0569083254883,
			"-0.019": 0.153478645084,
			"-0.018": 0.149925453151,
			"-0.017": 0.144429728277,
			"-0.016": 0.0,
			"-0.015": 0.216323564073,
			"-0.014": 0.757998175243,
			"-0.013": 1.39118316947,
			"-0.012": 1.31029235741,
			"-0.011": 2.6741663601,
			"-0.01": 3.07242204028,
			"-0.009": 3.65154409625,
			"-0.008": 5.01897255041,
			"-0.007": 4.51787759945,
			"-0.006": 7.77317408567,
			"-0.005": 12.1194933272,
			"-0.004": 19.1926055586,
			"-0.003": 18.3053555039,
			"-0.002": 16.5408720395,
			"-0.001": 16.0854655577,
			"0.0": 17.9930669472,
			"0.001": 13.4319323029,
			"0.002": 11.2686889909,
			"0.003": 12.2144546301,
			"0.004": 11.2653973312,
			"0.005": 11.492130177,
			"0.006": 10.4220986725,
			"0.007": 2.66146021825,
			"0.008": 2.4094169063,
			"0.009": 2.32055210917,
			"0.01": 2.24550164754,
			"0.011": 2.25192348426,
			"0.012": 3.17022131498,
			"0.013": 4.92411361664,
			"0.014": 3.44834512768,
			"0.015": 0.704652612733,
			"0.016": 0.639886140519,
			"0.017": 0.0,
			"0.018": 0.0,
			"0.019": 0.0,
			"0.02": 0.0,
			"0.021": 0.0,
			"0.022": 0.0,
			"0.023": 0.0,
			"0.024": 0.0,
			"0.025": 0.0
		}
	}
}
