{
	 "smiles": "CC(=O)C1=CC=C(C=C1)N1C=CN=C1C", 
	 "Tm": 406.15, 
	 "num_atms": 27, 
	 "gaussian": { 
		 "optdone": 1, 
		 "sigma_profile": "yes", 
		 "theory": "DFT", 
		 "functional": "B3LYP", 
		 "basiset": "6-31G**", 
		 "properties": { 
			 "R2extent": 4784.1399, 
			 "electric_dipole_moment_norm": 2.91006564187, 
			 "electric_quadrupole_moment_norm": 21.0628776469, 
			 "total_energy": -649.239176121, 
			 "HOMO_LUMO_gap": 0.15544, 
			 "cosmo_polarized_energy": -14.22, 
			 "cosmo_cavitation_energy": 31.07, 
			 "cosmo_dispersion_energy": -22.25, 
			 "cosmo_repulsion_energy": 1.71, 
			 "cosmo_total_nonelectrostatic_energy": 10.53, 
			 "SMD_solvation_energy": 4.82 
		},
		"coords": [
			{
				"x": -0.6629957855,
				"y": 5.3561667648,
				"z": 0.8605142389,
				"element": "C" 
			},
			{
				"x": 0.2978156753,
				"y": 4.7363772608,
				"z": -0.1396633835,
				"element": "C" 
			},
			{
				"x": 0.9104282117,
				"y": 5.4363797346,
				"z": -0.9317188838,
				"element": "O" 
			},
			{
				"x": 0.4832758791,
				"y": 3.2483690954,
				"z": -0.1396376829,
				"element": "C" 
			},
			{
				"x": 1.3823191445,
				"y": 2.6919785143,
				"z": -1.062700823,
				"element": "C" 
			},
			{
				"x": 1.6042422553,
				"y": 1.3217176054,
				"z": -1.1076791608,
				"element": "C" 
			},
			{
				"x": 0.9106011298,
				"y": 0.4724789993,
				"z": -0.2332266151,
				"element": "C" 
			},
			{
				"x": 0.0086695993,
				"y": 1.0155858016,
				"z": 0.6915767695,
				"element": "C" 
			},
			{
				"x": -0.195357753,
				"y": 2.3916759286,
				"z": 0.7396666743,
				"element": "C" 
			},
			{
				"x": 1.1250882858,
				"y": -0.9297349607,
				"z": -0.2586775071,
				"element": "N" 
			},
			{
				"x": 1.2904386464,
				"y": -1.7301263181,
				"z": 0.8684270333,
				"element": "C" 
			},
			{
				"x": 1.4072876829,
				"y": -3.0082167767,
				"z": 0.4000670877,
				"element": "C" 
			},
			{
				"x": 1.3001349228,
				"y": -3.0348774956,
				"z": -0.9734285053,
				"element": "N" 
			},
			{
				"x": 1.13531893,
				"y": -1.7857117069,
				"z": -1.3531354801,
				"element": "C" 
			},
			{
				"x": 0.9313627361,
				"y": -1.3549356851,
				"z": -2.7710027081,
				"element": "C" 
			},
			{
				"x": -0.3608784919,
				"y": 5.1302047798,
				"z": 1.8891717032,
				"element": "H" 
			},
			{
				"x": -1.6779976826,
				"y": 4.9663594682,
				"z": 0.7248363183,
				"element": "H" 
			},
			{
				"x": -0.6686303744,
				"y": 6.4365213181,
				"z": 0.7145749298,
				"element": "H" 
			},
			{
				"x": 1.9114143959,
				"y": 3.3644552601,
				"z": -1.7294362681,
				"element": "H" 
			},
			{
				"x": 2.3286074637,
				"y": 0.9066524655,
				"z": -1.7990636816,
				"element": "H" 
			},
			{
				"x": -0.5400415171,
				"y": 0.354145716,
				"z": 1.3536902122,
				"element": "H" 
			},
			{
				"x": -0.8999866952,
				"y": 2.7910774572,
				"z": 1.4616653027,
				"element": "H" 
			},
			{
				"x": 1.348489294,
				"y": -1.302688776,
				"z": 1.8570556449,
				"element": "H" 
			},
			{
				"x": 1.5657412434,
				"y": -3.9126093246,
				"z": 0.971068923,
				"element": "H" 
			},
			{
				"x": 0.6493665976,
				"y": -2.2366521259,
				"z": -3.3484323311,
				"element": "H" 
			},
			{
				"x": 1.8422229509,
				"y": -0.9405467865,
				"z": -3.2186663194,
				"element": "H" 
			},
			{
				"x": 0.1437632551,
				"y": -0.6010462134,
				"z": -2.8644454881,
				"element": "H" 
			}
		],
		 "valence_orbital": [ 
			{
				"type": "occ",
				"energy": -0.27609,
				"method": "rhf"
			},
			{
				"type": "occ",
				"energy": -0.26624,
				"method": "rhf"
			},
			{
				"type": "occ",
				"energy": -0.25586,
				"method": "rhf"
			},
			{
				"type": "occ",
				"energy": -0.25003,
				"method": "rhf"
			},
			{
				"type": "occ",
				"energy": -0.22281,
				"method": "rhf"
			},
			{
				"type": "unocc",
				"energy": -0.06737,
				"method": "rhf"
			},
			{
				"type": "unocc",
				"energy": -0.02581,
				"method": "rhf"
			},
			{
				"type": "unocc",
				"energy": 0.01144,
				"method": "rhf"
			},
			{
				"type": "unocc",
				"energy": 0.04272,
				"method": "rhf"
			},
			{
				"type": "unocc",
				"energy": 0.06748,
				"method": "rhf"
			}
		],
		"cosmo_sigma_profile": { 
			"-0.025": 0.0,
			"-0.024": 0.0,
			"-0.023": 0.0,
			"-0.022": 0.0,
			"-0.021": 0.0,
			"-0.02": 0.0,
			"-0.019": 0.0,
			"-0.018": 0.0,
			"-0.017": 0.0,
			"-0.016": 0.0,
			"-0.015": 0.0,
			"-0.014": 0.0,
			"-0.013": 0.0,
			"-0.012": 0.0,
			"-0.011": 0.0,
			"-0.01": 0.0,
			"-0.009": 0.239883563423,
			"-0.008": 2.40400530512,
			"-0.007": 10.4842471353,
			"-0.006": 19.3906002738,
			"-0.005": 20.8328779878,
			"-0.004": 18.7116643795,
			"-0.003": 20.3811524324,
			"-0.002": 20.5501489532,
			"-0.001": 23.0594268326,
			"0.0": 17.5514687811,
			"0.001": 14.9162533403,
			"0.002": 16.5343959189,
			"0.003": 14.0053832199,
			"0.004": 6.51934888899,
			"0.005": 6.95074837508,
			"0.006": 5.4932059473,
			"0.007": 3.70430588472,
			"0.008": 3.5457131874,
			"0.009": 2.86627242013,
			"0.01": 3.65340914858,
			"0.011": 4.3512613268,
			"0.012": 4.48727347929,
			"0.013": 2.44880008142,
			"0.014": 1.25904885464,
			"0.015": 1.20454469057,
			"0.016": 0.964928873357,
			"0.017": 0.710374423362,
			"0.018": 0.884187688254,
			"0.019": 0.00674334268342,
			"0.02": 0.0,
			"0.021": 0.0,
			"0.022": 0.0,
			"0.023": 0.0,
			"0.024": 0.0,
			"0.025": 0.0
		}
	}
}
