{
	 "smiles": "FC(F)(F)COC(=O)NCCCl", 
	 "Tm": 305.15, 
	 "num_atms": 19, 
	 "gaussian": { 
		 "optdone": 1, 
		 "sigma_profile": "yes", 
		 "theory": "DFT", 
		 "functional": "B3LYP", 
		 "basiset": "6-31G**", 
		 "properties": { 
			 "R2extent": 3430.3128, 
			 "electric_dipole_moment_norm": 2.54491666072, 
			 "electric_quadrupole_moment_norm": 12.3192318523, 
			 "total_energy": -1159.69203756, 
			 "HOMO_LUMO_gap": 0.28781, 
			 "cosmo_polarized_energy": -11.65, 
			 "cosmo_cavitation_energy": 26.98, 
			 "cosmo_dispersion_energy": -18.6, 
			 "cosmo_repulsion_energy": 1.48, 
			 "cosmo_total_nonelectrostatic_energy": 9.87, 
			 "SMD_solvation_energy": 6.14 
		},
		"coords": [
			{
				"x": 0.7563041449,
				"y": -2.8678440061,
				"z": -0.2518192978,
				"element": "F" 
			},
			{
				"x": 0.8756554619,
				"y": -2.6146781156,
				"z": 1.0640127492,
				"element": "C" 
			},
			{
				"x": 0.7411801632,
				"y": -3.7776843404,
				"z": 1.7348142558,
				"element": "F" 
			},
			{
				"x": 2.1238841646,
				"y": -2.1534003436,
				"z": 1.2801031926,
				"element": "F" 
			},
			{
				"x": -0.1778655299,
				"y": -1.6297578586,
				"z": 1.5400572185,
				"element": "C" 
			},
			{
				"x": -0.0296246329,
				"y": -0.4040994059,
				"z": 0.8351125635,
				"element": "O" 
			},
			{
				"x": -0.9735696227,
				"y": -0.1570915582,
				"z": -0.1380338145,
				"element": "C" 
			},
			{
				"x": -1.9691492293,
				"y": -0.8294143838,
				"z": -0.3103684699,
				"element": "O" 
			},
			{
				"x": -0.6310425021,
				"y": 0.9410350922,
				"z": -0.8661191295,
				"element": "N" 
			},
			{
				"x": 0.5068163248,
				"y": 1.8098379403,
				"z": -0.6236916239,
				"element": "C" 
			},
			{
				"x": 0.2636950538,
				"y": 2.8925191817,
				"z": 0.4248670033,
				"element": "C" 
			},
			{
				"x": -1.0281977251,
				"y": 4.0557688364,
				"z": -0.1012483141,
				"element": "Cl" 
			},
			{
				"x": -0.020766471,
				"y": -1.4329121458,
				"z": 2.6026512541,
				"element": "H" 
			},
			{
				"x": -1.1700394683,
				"y": -2.05152607,
				"z": 1.3698306102,
				"element": "H" 
			},
			{
				"x": -1.3560288975,
				"y": 1.255866601,
				"z": -1.4937554078,
				"element": "H" 
			},
			{
				"x": 0.7907195423,
				"y": 2.2721910894,
				"z": -1.5734496565,
				"element": "H" 
			},
			{
				"x": 1.347206346,
				"y": 1.1971974977,
				"z": -0.2862379424,
				"element": "H" 
			},
			{
				"x": -0.0681695256,
				"y": 2.4593521376,
				"z": 1.3689627345,
				"element": "H" 
			},
			{
				"x": 1.1677924026,
				"y": 3.4815398517,
				"z": 0.5895120746,
				"element": "H" 
			}
		],
		 "valence_orbital": [ 
			{
				"type": "occ",
				"energy": -0.31821,
				"method": "rhf"
			},
			{
				"type": "occ",
				"energy": -0.3125,
				"method": "rhf"
			},
			{
				"type": "occ",
				"energy": -0.30709,
				"method": "rhf"
			},
			{
				"type": "occ",
				"energy": -0.29111,
				"method": "rhf"
			},
			{
				"type": "occ",
				"energy": -0.2738,
				"method": "rhf"
			},
			{
				"type": "unocc",
				"energy": 0.01401,
				"method": "rhf"
			},
			{
				"type": "unocc",
				"energy": 0.03607,
				"method": "rhf"
			},
			{
				"type": "unocc",
				"energy": 0.06689,
				"method": "rhf"
			},
			{
				"type": "unocc",
				"energy": 0.09318,
				"method": "rhf"
			},
			{
				"type": "unocc",
				"energy": 0.10418,
				"method": "rhf"
			}
		],
		"cosmo_sigma_profile": { 
			"-0.025": 0.0,
			"-0.024": 0.0,
			"-0.023": 0.0,
			"-0.022": 0.0,
			"-0.021": 0.0,
			"-0.02": 0.0,
			"-0.019": 0.0,
			"-0.018": 0.0,
			"-0.017": 0.0,
			"-0.016": 0.0,
			"-0.015": 0.19278084643,
			"-0.014": 0.720139209405,
			"-0.013": 1.09811938474,
			"-0.012": 0.822593928013,
			"-0.011": 0.528543606214,
			"-0.01": 0.891217697255,
			"-0.009": 3.65986777117,
			"-0.008": 5.34939413892,
			"-0.007": 11.761485635,
			"-0.006": 13.5043571628,
			"-0.005": 12.857597497,
			"-0.004": 11.6786875575,
			"-0.003": 8.75422867341,
			"-0.002": 8.16723422506,
			"-0.001": 9.91346568611,
			"0.0": 13.1450557356,
			"0.001": 13.0663454696,
			"0.002": 29.2824808357,
			"0.003": 29.7522101016,
			"0.004": 7.56876080911,
			"0.005": 7.08641711368,
			"0.006": 9.36820468408,
			"0.007": 3.53269793424,
			"0.008": 1.11517012431,
			"0.009": 1.81405528358,
			"0.01": 1.50955028759,
			"0.011": 1.74809202955,
			"0.012": 4.71928704667,
			"0.013": 2.30706895945,
			"0.014": 0.00284141303437,
			"0.015": 0.0,
			"0.016": 0.0,
			"0.017": 0.0,
			"0.018": 0.0,
			"0.019": 0.0,
			"0.02": 0.0,
			"0.021": 0.0,
			"0.022": 0.0,
			"0.023": 0.0,
			"0.024": 0.0,
			"0.025": 0.0
		}
	}
}
