{
	 "smiles": "C[Si](C)(C)O[Si](C)(C)O[Si](C)(C)O[Si](C)(C)C", 
	 "Tm": 205.15, 
	 "num_atms": 47, 
	 "gaussian": { 
		 "optdone": 1, 
		 "sigma_profile": "yes", 
		 "theory": "DFT", 
		 "functional": "B3LYP", 
		 "basiset": "6-31G**", 
		 "properties": { 
			 "R2extent": 7361.6333, 
			 "electric_dipole_moment_norm": 1.06961497278, 
			 "electric_quadrupole_moment_norm": 2.63649692585, 
			 "total_energy": -1783.2372069, 
			 "HOMO_LUMO_gap": 0.30753, 
			 "cosmo_polarized_energy": -5.07, 
			 "cosmo_cavitation_energy": 56.17, 
			 "cosmo_dispersion_energy": -25.7, 
			 "cosmo_repulsion_energy": 2.39, 
			 "cosmo_total_nonelectrostatic_energy": 32.86, 
			 "SMD_solvation_energy": 13.64 
		},
		"coords": [
			{
				"x": 0.9610375588,
				"y": -2.0787913044,
				"z": 3.7676202739,
				"element": "C" 
			},
			{
				"x": 0.0674468581,
				"y": -1.1118379326,
				"z": 2.4210591352,
				"element": "Si" 
			},
			{
				"x": 0.9976725554,
				"y": 0.4788152592,
				"z": 2.0205500186,
				"element": "C" 
			},
			{
				"x": -1.6968301775,
				"y": -0.7122540145,
				"z": 2.9553426208,
				"element": "C" 
			},
			{
				"x": 0.0362626869,
				"y": -2.0832810145,
				"z": 1.0662976412,
				"element": "O" 
			},
			{
				"x": -0.5108265563,
				"y": -2.3517157287,
				"z": -0.468602234,
				"element": "Si" 
			},
			{
				"x": -1.7044847374,
				"y": -3.7970655121,
				"z": -0.4397645372,
				"element": "C" 
			},
			{
				"x": 0.9728145976,
				"y": -2.6799320756,
				"z": -1.5696712264,
				"element": "C" 
			},
			{
				"x": -1.3435542521,
				"y": -1.0255137967,
				"z": -1.0092677655,
				"element": "O" 
			},
			{
				"x": -1.5523523567,
				"y": 0.3619914993,
				"z": -1.8791554827,
				"element": "Si" 
			},
			{
				"x": -2.9984031507,
				"y": 1.2895032877,
				"z": -1.1289709567,
				"element": "C" 
			},
			{
				"x": -1.8575113873,
				"y": -0.0835677575,
				"z": -3.6786647295,
				"element": "C" 
			},
			{
				"x": -0.1950880303,
				"y": 1.2917951236,
				"z": -1.7547823075,
				"element": "O" 
			},
			{
				"x": 1.0299754696,
				"y": 2.3225666396,
				"z": -2.2025742146,
				"element": "Si" 
			},
			{
				"x": 0.6649359477,
				"y": 3.0396917109,
				"z": -3.9097386171,
				"element": "C" 
			},
			{
				"x": 2.6435355048,
				"y": 1.3496600282,
				"z": -2.2396425412,
				"element": "C" 
			},
			{
				"x": 1.1260863377,
				"y": 3.704352182,
				"z": -0.9258537005,
				"element": "C" 
			},
			{
				"x": 0.4365647726,
				"y": -3.0124507475,
				"z": 3.9973763101,
				"element": "H" 
			},
			{
				"x": 1.0319944753,
				"y": -1.4983246481,
				"z": 4.694678236,
				"element": "H" 
			},
			{
				"x": 1.9788755077,
				"y": -2.3374204979,
				"z": 3.4566834596,
				"element": "H" 
			},
			{
				"x": 0.5248904427,
				"y": 1.0016807741,
				"z": 1.1822948444,
				"element": "H" 
			},
			{
				"x": 1.0170058369,
				"y": 1.1607611397,
				"z": 2.8785607133,
				"element": "H" 
			},
			{
				"x": 2.0352720343,
				"y": 0.2668394108,
				"z": 1.7393310618,
				"element": "H" 
			},
			{
				"x": -2.2558852613,
				"y": -1.6241424223,
				"z": 3.1921343906,
				"element": "H" 
			},
			{
				"x": -2.2382279277,
				"y": -0.1878441843,
				"z": 2.1605527073,
				"element": "H" 
			},
			{
				"x": -1.709346723,
				"y": -0.0737864221,
				"z": 3.846302862,
				"element": "H" 
			},
			{
				"x": -1.2259775929,
				"y": -4.6969632182,
				"z": -0.03896141,
				"element": "H" 
			},
			{
				"x": -2.0730392677,
				"y": -4.0291443667,
				"z": -1.4448868895,
				"element": "H" 
			},
			{
				"x": -2.571193242,
				"y": -3.5691935306,
				"z": 0.1894108814,
				"element": "H" 
			},
			{
				"x": 0.667897813,
				"y": -2.8948274321,
				"z": -2.5999168518,
				"element": "H" 
			},
			{
				"x": 1.5493975526,
				"y": -3.5368355562,
				"z": -1.2051416316,
				"element": "H" 
			},
			{
				"x": 1.6406951514,
				"y": -1.8124788516,
				"z": -1.5896753034,
				"element": "H" 
			},
			{
				"x": -3.9090731375,
				"y": 0.6813450582,
				"z": -1.1423522806,
				"element": "H" 
			},
			{
				"x": -3.2038942658,
				"y": 2.216355445,
				"z": -1.6757341553,
				"element": "H" 
			},
			{
				"x": -2.7884355848,
				"y": 1.5559038311,
				"z": -0.0877781849,
				"element": "H" 
			},
			{
				"x": -2.7436981769,
				"y": -0.7191021315,
				"z": -3.7820965255,
				"element": "H" 
			},
			{
				"x": -2.0136570021,
				"y": 0.8106886688,
				"z": -4.291884264,
				"element": "H" 
			},
			{
				"x": -1.0056249185,
				"y": -0.630159444,
				"z": -4.0977361658,
				"element": "H" 
			},
			{
				"x": 0.5859518805,
				"y": 2.2521232593,
				"z": -4.6670491466,
				"element": "H" 
			},
			{
				"x": -0.2750305555,
				"y": 3.60269722,
				"z": -3.9143714042,
				"element": "H" 
			},
			{
				"x": 1.4602598726,
				"y": 3.7242260487,
				"z": -4.2268088465,
				"element": "H" 
			},
			{
				"x": 3.4909616431,
				"y": 1.9910930466,
				"z": -2.5079023439,
				"element": "H" 
			},
			{
				"x": 2.5992115888,
				"y": 0.5351591595,
				"z": -2.9709798002,
				"element": "H" 
			},
			{
				"x": 2.857384766,
				"y": 0.9076466066,
				"z": -1.260529221,
				"element": "H" 
			},
			{
				"x": 1.3179355774,
				"y": 3.3028664716,
				"z": 0.0748440659,
				"element": "H" 
			},
			{
				"x": 1.9309354743,
				"y": 4.4097072209,
				"z": -1.1629894836,
				"element": "H" 
			},
			{
				"x": 0.1893323982,
				"y": 4.2705634984,
				"z": -0.8832570007,
				"element": "H" 
			}
		],
		 "valence_orbital": [ 
			{
				"type": "occ",
				"energy": -0.28479,
				"method": "rhf"
			},
			{
				"type": "occ",
				"energy": -0.27903,
				"method": "rhf"
			},
			{
				"type": "occ",
				"energy": -0.27633,
				"method": "rhf"
			},
			{
				"type": "occ",
				"energy": -0.2662,
				"method": "rhf"
			},
			{
				"type": "occ",
				"energy": -0.26159,
				"method": "rhf"
			},
			{
				"type": "unocc",
				"energy": 0.04594,
				"method": "rhf"
			},
			{
				"type": "unocc",
				"energy": 0.0713,
				"method": "rhf"
			},
			{
				"type": "unocc",
				"energy": 0.07552,
				"method": "rhf"
			},
			{
				"type": "unocc",
				"energy": 0.078,
				"method": "rhf"
			},
			{
				"type": "unocc",
				"energy": 0.08433,
				"method": "rhf"
			}
		],
		"cosmo_sigma_profile": { 
			"-0.025": 0.0,
			"-0.024": 0.0,
			"-0.023": 0.0,
			"-0.022": 0.0,
			"-0.021": 0.0,
			"-0.02": 0.0,
			"-0.019": 0.0,
			"-0.018": 0.0,
			"-0.017": 0.0,
			"-0.016": 0.0,
			"-0.015": 0.0,
			"-0.014": 0.0,
			"-0.013": 0.0,
			"-0.012": 0.0,
			"-0.011": 0.0,
			"-0.01": 0.0,
			"-0.009": 0.0,
			"-0.008": 0.0,
			"-0.007": 0.0,
			"-0.006": 0.0,
			"-0.005": 0.0,
			"-0.004": 14.6556810984,
			"-0.003": 47.2956475766,
			"-0.002": 56.4808291241,
			"-0.001": 66.3846960391,
			"0.0": 64.9993594003,
			"0.001": 74.0878976206,
			"0.002": 46.2822185096,
			"0.003": 24.0762228031,
			"0.004": 7.41721193476,
			"0.005": 4.98520774441,
			"0.006": 3.08099858582,
			"0.007": 2.88900172239,
			"0.008": 2.1304089418,
			"0.009": 1.23205111688,
			"0.01": 1.2125370715,
			"0.011": 0.158069530687,
			"0.012": 0.0,
			"0.013": 0.0,
			"0.014": 0.0,
			"0.015": 0.0,
			"0.016": 0.0,
			"0.017": 0.0,
			"0.018": 0.0,
			"0.019": 0.0,
			"0.02": 0.0,
			"0.021": 0.0,
			"0.022": 0.0,
			"0.023": 0.0,
			"0.024": 0.0,
			"0.025": 0.0
		}
	}
}
