{
	 "smiles": "CC(OC1=C(C=C(Cl)C=C1)[N+]([O-])=O)C(O)=O", 
	 "Tm": 393.15, 
	 "num_atms": 24, 
	 "gaussian": { 
		 "optdone": 1, 
		 "sigma_profile": "yes", 
		 "theory": "DFT", 
		 "functional": "B3LYP", 
		 "basiset": "6-31G**", 
		 "properties": { 
			 "R2extent": 5394.5344, 
			 "electric_dipole_moment_norm": 3.54278128876, 
			 "electric_quadrupole_moment_norm": 12.8130370338, 
			 "total_energy": -1238.73714634, 
			 "HOMO_LUMO_gap": 0.16496, 
			 "cosmo_polarized_energy": -12.78, 
			 "cosmo_cavitation_energy": 31.15, 
			 "cosmo_dispersion_energy": -22.44, 
			 "cosmo_repulsion_energy": 1.76, 
			 "cosmo_total_nonelectrostatic_energy": 10.47, 
			 "SMD_solvation_energy": 8.42 
		},
		"coords": [
			{
				"x": 2.6348500369,
				"y": 1.4037453633,
				"z": 0.0748025501,
				"element": "C" 
			},
			{
				"x": 1.1206535086,
				"y": 1.2696432667,
				"z": 0.2261220085,
				"element": "C" 
			},
			{
				"x": 0.8368637842,
				"y": -0.1263290952,
				"z": 0.3656716554,
				"element": "O" 
			},
			{
				"x": -0.3300842009,
				"y": -0.5067717885,
				"z": 0.9662538686,
				"element": "C" 
			},
			{
				"x": -0.4469414337,
				"y": -0.715559234,
				"z": 2.3557716976,
				"element": "C" 
			},
			{
				"x": -1.6122943286,
				"y": -1.2403313546,
				"z": 2.9196890377,
				"element": "C" 
			},
			{
				"x": -2.6878348344,
				"y": -1.5386164286,
				"z": 2.0945079362,
				"element": "C" 
			},
			{
				"x": -4.1636104052,
				"y": -2.1716646793,
				"z": 2.7951146148,
				"element": "Cl" 
			},
			{
				"x": -2.6005614629,
				"y": -1.3477934112,
				"z": 0.7132536512,
				"element": "C" 
			},
			{
				"x": -1.4257586464,
				"y": -0.8463207173,
				"z": 0.1623956827,
				"element": "C" 
			},
			{
				"x": 0.6514179242,
				"y": -0.4292501487,
				"z": 3.2883890797,
				"element": "N" 
			},
			{
				"x": 1.4563889243,
				"y": 0.4534992144,
				"z": 2.9902617434,
				"element": "O" 
			},
			{
				"x": 0.6892882717,
				"y": -1.0818523328,
				"z": 4.3297967465,
				"element": "O" 
			},
			{
				"x": 0.3918812826,
				"y": 1.8472626427,
				"z": -0.9882170094,
				"element": "C" 
			},
			{
				"x": 0.5463084944,
				"y": 3.1902471228,
				"z": -1.0298073585,
				"element": "O" 
			},
			{
				"x": -0.2321355419,
				"y": 1.2296442209,
				"z": -1.8207959205,
				"element": "O" 
			},
			{
				"x": 3.11343301,
				"y": 1.0128074685,
				"z": 0.9739794605,
				"element": "H" 
			},
			{
				"x": 2.9115162776,
				"y": 2.4516995724,
				"z": -0.058100249,
				"element": "H" 
			},
			{
				"x": 2.9788836297,
				"y": 0.8299104894,
				"z": -0.7904798683,
				"element": "H" 
			},
			{
				"x": 0.7919675081,
				"y": 1.8122158773,
				"z": 1.1177469416,
				"element": "H" 
			},
			{
				"x": -1.6516066563,
				"y": -1.4085475338,
				"z": 3.9879603415,
				"element": "H" 
			},
			{
				"x": -3.442782507,
				"y": -1.5958017624,
				"z": 0.0768700239,
				"element": "H" 
			},
			{
				"x": -1.3228747065,
				"y": -0.6958211649,
				"z": -0.9052859269,
				"element": "H" 
			},
			{
				"x": 0.0845320715,
				"y": 3.4975844127,
				"z": -1.8283007071,
				"element": "H" 
			}
		],
		 "valence_orbital": [ 
			{
				"type": "occ",
				"energy": -0.30782,
				"method": "rhf"
			},
			{
				"type": "occ",
				"energy": -0.30228,
				"method": "rhf"
			},
			{
				"type": "occ",
				"energy": -0.28822,
				"method": "rhf"
			},
			{
				"type": "occ",
				"energy": -0.28521,
				"method": "rhf"
			},
			{
				"type": "occ",
				"energy": -0.26114,
				"method": "rhf"
			},
			{
				"type": "unocc",
				"energy": -0.09618,
				"method": "rhf"
			},
			{
				"type": "unocc",
				"energy": -0.03469,
				"method": "rhf"
			},
			{
				"type": "unocc",
				"energy": -0.01756,
				"method": "rhf"
			},
			{
				"type": "unocc",
				"energy": -0.00933,
				"method": "rhf"
			},
			{
				"type": "unocc",
				"energy": 0.01353,
				"method": "rhf"
			}
		],
		"cosmo_sigma_profile": { 
			"-0.025": 0.0,
			"-0.024": 0.0,
			"-0.023": 0.0,
			"-0.022": 0.0,
			"-0.021": 0.0,
			"-0.02": 0.0,
			"-0.019": 0.325406874039,
			"-0.018": 0.908387683835,
			"-0.017": 1.00940852901,
			"-0.016": 0.760451966267,
			"-0.015": 1.08289302048,
			"-0.014": 0.558787101892,
			"-0.013": 0.313215684507,
			"-0.012": 0.770798977929,
			"-0.011": 1.0631883528,
			"-0.01": 0.386537417999,
			"-0.009": 2.03761836085,
			"-0.008": 5.1964141653,
			"-0.007": 8.28726173157,
			"-0.006": 9.23131903536,
			"-0.005": 12.2296484082,
			"-0.004": 14.543013656,
			"-0.003": 15.9379453428,
			"-0.002": 19.8538390218,
			"-0.001": 24.7317028418,
			"0.0": 26.0872271515,
			"0.001": 15.5154278722,
			"0.002": 12.0687927325,
			"0.003": 15.4441909225,
			"0.004": 14.0580205776,
			"0.005": 7.66023610961,
			"0.006": 7.36989344415,
			"0.007": 10.7153938535,
			"0.008": 9.14543246499,
			"0.009": 6.52835540839,
			"0.01": 4.64339101861,
			"0.011": 2.27864913841,
			"0.012": 0.343498811687,
			"0.013": 0.0,
			"0.014": 0.0,
			"0.015": 0.0,
			"0.016": 0.0,
			"0.017": 0.0,
			"0.018": 0.0,
			"0.019": 0.0,
			"0.02": 0.0,
			"0.021": 0.0,
			"0.022": 0.0,
			"0.023": 0.0,
			"0.024": 0.0,
			"0.025": 0.0
		}
	}
}
