{
	 "smiles": "ClC1=C(C=C2NC(=O)CCC2=C1)S(Cl)(=O)=O", 
	 "Tm": 481.15, 
	 "num_atms": 23, 
	 "gaussian": { 
		 "optdone": 1, 
		 "sigma_profile": "yes", 
		 "theory": "DFT", 
		 "functional": "B3LYP", 
		 "basiset": "6-31G**", 
		 "properties": { 
			 "R2extent": 8339.2032, 
			 "electric_dipole_moment_norm": 4.87939415706, 
			 "electric_quadrupole_moment_norm": 24.8835871369, 
			 "total_energy": -1946.12190148, 
			 "HOMO_LUMO_gap": 0.15422, 
			 "cosmo_polarized_energy": -17.59, 
			 "cosmo_cavitation_energy": 32.07, 
			 "cosmo_dispersion_energy": -24.26, 
			 "cosmo_repulsion_energy": 1.84, 
			 "cosmo_total_nonelectrostatic_energy": 9.65, 
			 "SMD_solvation_energy": 4.15 
		},
		"coords": [
			{
				"x": 4.7433924076,
				"y": -0.5538677093,
				"z": -0.3999948804,
				"element": "Cl" 
			},
			{
				"x": 3.0500247035,
				"y": -0.2317851497,
				"z": -0.6502295735,
				"element": "C" 
			},
			{
				"x": 2.4151739099,
				"y": -0.3680126608,
				"z": -1.8924465729,
				"element": "C" 
			},
			{
				"x": 1.0600485117,
				"y": -0.0612071908,
				"z": -2.0400548191,
				"element": "C" 
			},
			{
				"x": 0.3184442063,
				"y": 0.3660824491,
				"z": -0.9383553311,
				"element": "C" 
			},
			{
				"x": -1.0428214644,
				"y": 0.6618597885,
				"z": -1.063789432,
				"element": "N" 
			},
			{
				"x": -1.7953229172,
				"y": 1.3948553642,
				"z": -0.1552440858,
				"element": "C" 
			},
			{
				"x": -2.9679808336,
				"y": 1.6429052508,
				"z": -0.3656054825,
				"element": "O" 
			},
			{
				"x": -1.019971048,
				"y": 1.8771718569,
				"z": 1.0615446985,
				"element": "C" 
			},
			{
				"x": 0.0748139981,
				"y": 0.8908107979,
				"z": 1.4952012584,
				"element": "C" 
			},
			{
				"x": 0.9355636069,
				"y": 0.4876178112,
				"z": 0.3225018357,
				"element": "C" 
			},
			{
				"x": 2.2917633927,
				"y": 0.1993299407,
				"z": 0.4416966891,
				"element": "C" 
			},
			{
				"x": 3.2311113723,
				"y": -0.9659689603,
				"z": -3.3805213728,
				"element": "S" 
			},
			{
				"x": 4.5015128921,
				"y": 0.6666006739,
				"z": -3.854808705,
				"element": "Cl" 
			},
			{
				"x": 2.2365173626,
				"y": -1.0226394334,
				"z": -4.4454459194,
				"element": "O" 
			},
			{
				"x": 4.086558946,
				"y": -2.1023240656,
				"z": -3.0768266029,
				"element": "O" 
			},
			{
				"x": 0.6014278008,
				"y": -0.1596385245,
				"z": -3.017451745,
				"element": "H" 
			},
			{
				"x": -1.5244186576,
				"y": 0.4263655294,
				"z": -1.9227671797,
				"element": "H" 
			},
			{
				"x": -0.5715442469,
				"y": 2.8437427207,
				"z": 0.7947900833,
				"element": "H" 
			},
			{
				"x": -1.741697148,
				"y": 2.0639440292,
				"z": 1.8586121832,
				"element": "H" 
			},
			{
				"x": 0.6862030411,
				"y": 1.3196716648,
				"z": 2.2944590276,
				"element": "H" 
			},
			{
				"x": -0.3962860683,
				"y": -0.0115039368,
				"z": 1.910935543,
				"element": "H" 
			},
			{
				"x": 2.7798862323,
				"y": 0.299089754,
				"z": 1.4057003832,
				"element": "H" 
			}
		],
		 "valence_orbital": [ 
			{
				"type": "occ",
				"energy": -0.3227,
				"method": "rhf"
			},
			{
				"type": "occ",
				"energy": -0.31682,
				"method": "rhf"
			},
			{
				"type": "occ",
				"energy": -0.29634,
				"method": "rhf"
			},
			{
				"type": "occ",
				"energy": -0.27703,
				"method": "rhf"
			},
			{
				"type": "occ",
				"energy": -0.24857,
				"method": "rhf"
			},
			{
				"type": "unocc",
				"energy": -0.09435,
				"method": "rhf"
			},
			{
				"type": "unocc",
				"energy": -0.05924,
				"method": "rhf"
			},
			{
				"type": "unocc",
				"energy": -0.04885,
				"method": "rhf"
			},
			{
				"type": "unocc",
				"energy": -2e-05,
				"method": "rhf"
			},
			{
				"type": "unocc",
				"energy": 0.00531,
				"method": "rhf"
			}
		],
		"cosmo_sigma_profile": { 
			"-0.025": 0.0,
			"-0.024": 0.0,
			"-0.023": 0.0,
			"-0.022": 0.0,
			"-0.021": 0.0,
			"-0.02": 0.0,
			"-0.019": 0.0,
			"-0.018": 0.0,
			"-0.017": 0.0,
			"-0.016": 0.737655594928,
			"-0.015": 1.79252952599,
			"-0.014": 1.38155055093,
			"-0.013": 1.26068711343,
			"-0.012": 1.04529128137,
			"-0.011": 1.13153133529,
			"-0.01": 1.64515752346,
			"-0.009": 1.64064100064,
			"-0.008": 4.48401444815,
			"-0.007": 7.38707288798,
			"-0.006": 14.5833001589,
			"-0.005": 15.6730715948,
			"-0.004": 16.9830847913,
			"-0.003": 18.8784035228,
			"-0.002": 15.4397484842,
			"-0.001": 24.4384192249,
			"0.0": 21.5338526169,
			"0.001": 14.1761255252,
			"0.002": 16.9542317182,
			"0.003": 23.0951982582,
			"0.004": 8.72937721867,
			"0.005": 4.71379880116,
			"0.006": 6.22712378535,
			"0.007": 8.74273583718,
			"0.008": 10.7635747159,
			"0.009": 4.4567684775,
			"0.01": 1.33971101728,
			"0.011": 2.22955272967,
			"0.012": 4.32337455391,
			"0.013": 4.6044649299,
			"0.014": 0.837434859963,
			"0.015": 0.0,
			"0.016": 0.0,
			"0.017": 0.0,
			"0.018": 0.0,
			"0.019": 0.0,
			"0.02": 0.0,
			"0.021": 0.0,
			"0.022": 0.0,
			"0.023": 0.0,
			"0.024": 0.0,
			"0.025": 0.0
		}
	}
}
