{
	 "smiles": "FC1=C(Cl)C=C(C=C1)S(=O)(=O)N1CCN(CC1)C(=O)CCl", 
	 "Tm": 395.15, 
	 "num_atms": 34, 
	 "gaussian": { 
		 "optdone": 1, 
		 "sigma_profile": "yes", 
		 "theory": "DFT", 
		 "functional": "B3LYP", 
		 "basiset": "6-31G**", 
		 "properties": { 
			 "R2extent": 11666.0128, 
			 "electric_dipole_moment_norm": 2.8071266359, 
			 "electric_quadrupole_moment_norm": 14.8693767882, 
			 "total_energy": -2218.61555294, 
			 "HOMO_LUMO_gap": 0.20125, 
			 "cosmo_polarized_energy": -19.99, 
			 "cosmo_cavitation_energy": 42.56, 
			 "cosmo_dispersion_energy": -30.1, 
			 "cosmo_repulsion_energy": 2.25, 
			 "cosmo_total_nonelectrostatic_energy": 14.72, 
			 "SMD_solvation_energy": 5.28 
		},
		"coords": [
			{
				"x": 0.3848323538,
				"y": 3.8372403354,
				"z": -4.9699645403,
				"element": "F" 
			},
			{
				"x": 0.5374816912,
				"y": 2.9685147382,
				"z": -3.9656902209,
				"element": "C" 
			},
			{
				"x": 1.1598347531,
				"y": 3.387418227,
				"z": -2.7823029638,
				"element": "C" 
			},
			{
				"x": 1.7260990649,
				"y": 5.0281447987,
				"z": -2.6404034497,
				"element": "Cl" 
			},
			{
				"x": 1.3184830738,
				"y": 2.4843539431,
				"z": -1.7365660432,
				"element": "C" 
			},
			{
				"x": 0.8432838822,
				"y": 1.1791683422,
				"z": -1.8899083192,
				"element": "C" 
			},
			{
				"x": 0.2301950542,
				"y": 0.7584821624,
				"z": -3.0699327447,
				"element": "C" 
			},
			{
				"x": 0.0751356812,
				"y": 1.6667849462,
				"z": -4.1164076877,
				"element": "C" 
			},
			{
				"x": 1.0988700436,
				"y": -0.0039820819,
				"z": -0.563114771,
				"element": "S" 
			},
			{
				"x": 0.481603129,
				"y": -1.2659956789,
				"z": -0.9986529463,
				"element": "O" 
			},
			{
				"x": 2.5008289457,
				"y": 0.0363851274,
				"z": -0.1415649498,
				"element": "O" 
			},
			{
				"x": 0.2268038278,
				"y": 0.7001895532,
				"z": 0.7042558826,
				"element": "N" 
			},
			{
				"x": 0.8206079763,
				"y": 0.4978091693,
				"z": 2.0519580909,
				"element": "C" 
			},
			{
				"x": -0.1722516607,
				"y": 0.9615309052,
				"z": 3.1107702771,
				"element": "C" 
			},
			{
				"x": -1.4076491784,
				"y": 0.1697172705,
				"z": 3.0431029346,
				"element": "N" 
			},
			{
				"x": -1.7915009733,
				"y": -0.3531468031,
				"z": 1.7261102888,
				"element": "C" 
			},
			{
				"x": -1.2453482008,
				"y": 0.5684941074,
				"z": 0.6348560394,
				"element": "C" 
			},
			{
				"x": -2.0811852149,
				"y": -0.0605063868,
				"z": 4.2109102345,
				"element": "C" 
			},
			{
				"x": -1.7005298514,
				"y": 0.3763409909,
				"z": 5.2912173889,
				"element": "O" 
			},
			{
				"x": -3.3432724146,
				"y": -0.9235058121,
				"z": 4.1481295226,
				"element": "C" 
			},
			{
				"x": -4.7677320008,
				"y": -0.0031027015,
				"z": 3.4896315919,
				"element": "Cl" 
			},
			{
				"x": 1.8042038542,
				"y": 2.7965215698,
				"z": -0.8195997626,
				"element": "H" 
			},
			{
				"x": -0.1125419094,
				"y": -0.2656720925,
				"z": -3.160685016,
				"element": "H" 
			},
			{
				"x": -0.3961057444,
				"y": 1.3841658059,
				"z": -5.0512620975,
				"element": "H" 
			},
			{
				"x": 1.0775900335,
				"y": -0.554125165,
				"z": 2.2308087735,
				"element": "H" 
			},
			{
				"x": 1.7413807902,
				"y": 1.079155788,
				"z": 2.1220440015,
				"element": "H" 
			},
			{
				"x": -0.3933366885,
				"y": 2.030001314,
				"z": 2.9867728191,
				"element": "H" 
			},
			{
				"x": 0.2541801774,
				"y": 0.8324178964,
				"z": 4.1069461167,
				"element": "H" 
			},
			{
				"x": -2.8794114833,
				"y": -0.3861237559,
				"z": 1.6404275983,
				"element": "H" 
			},
			{
				"x": -1.3998672097,
				"y": -1.367750566,
				"z": 1.5697008181,
				"element": "H" 
			},
			{
				"x": -1.5294782749,
				"y": 0.16772522,
				"z": -0.3399732452,
				"element": "H" 
			},
			{
				"x": -1.6945380161,
				"y": 1.5631145362,
				"z": 0.7326251268,
				"element": "H" 
			},
			{
				"x": -3.2303562712,
				"y": -1.8157620597,
				"z": 3.5303249829,
				"element": "H" 
			},
			{
				"x": -3.5936092394,
				"y": -1.1991036442,
				"z": 5.1697362698,
				"element": "H" 
			}
		],
		 "valence_orbital": [ 
			{
				"type": "occ",
				"energy": -0.29225,
				"method": "rhf"
			},
			{
				"type": "occ",
				"energy": -0.27693,
				"method": "rhf"
			},
			{
				"type": "occ",
				"energy": -0.26629,
				"method": "rhf"
			},
			{
				"type": "occ",
				"energy": -0.26164,
				"method": "rhf"
			},
			{
				"type": "occ",
				"energy": -0.25654,
				"method": "rhf"
			},
			{
				"type": "unocc",
				"energy": -0.05529,
				"method": "rhf"
			},
			{
				"type": "unocc",
				"energy": -0.04644,
				"method": "rhf"
			},
			{
				"type": "unocc",
				"energy": -0.02939,
				"method": "rhf"
			},
			{
				"type": "unocc",
				"energy": 0.0006,
				"method": "rhf"
			},
			{
				"type": "unocc",
				"energy": 0.04424,
				"method": "rhf"
			}
		],
		"cosmo_sigma_profile": { 
			"-0.025": 0.0,
			"-0.024": 0.0,
			"-0.023": 0.0,
			"-0.022": 0.0,
			"-0.021": 0.0,
			"-0.02": 0.0,
			"-0.019": 0.0,
			"-0.018": 0.0,
			"-0.017": 0.0,
			"-0.016": 0.0,
			"-0.015": 0.0,
			"-0.014": 0.0,
			"-0.013": 0.0,
			"-0.012": 0.0,
			"-0.011": 0.0,
			"-0.01": 0.0357740169091,
			"-0.009": 5.2857548575,
			"-0.008": 9.08817703258,
			"-0.007": 12.7663161571,
			"-0.006": 25.0409005578,
			"-0.005": 29.4557692691,
			"-0.004": 21.951310173,
			"-0.003": 20.8946477734,
			"-0.002": 24.2929381234,
			"-0.001": 25.6221653085,
			"0.0": 25.7234313873,
			"0.001": 19.7519515604,
			"0.002": 18.3821930704,
			"0.003": 27.3152758047,
			"0.004": 17.738184322,
			"0.005": 11.8691942932,
			"0.006": 6.0700285595,
			"0.007": 3.89736736814,
			"0.008": 4.54641356745,
			"0.009": 5.33517665441,
			"0.01": 8.90918808235,
			"0.011": 8.89972050019,
			"0.012": 3.7064104941,
			"0.013": 5.08194422339,
			"0.014": 1.36635411523,
			"0.015": 0.0,
			"0.016": 0.0,
			"0.017": 0.0,
			"0.018": 0.0,
			"0.019": 0.0,
			"0.02": 0.0,
			"0.021": 0.0,
			"0.022": 0.0,
			"0.023": 0.0,
			"0.024": 0.0,
			"0.025": 0.0
		}
	}
}
