{
	 "smiles": "CC1=C(SC(COC2=CC=C(Cl)C=C2)=N1)C(O)=O", 
	 "Tm": 513.15, 
	 "num_atms": 28, 
	 "gaussian": { 
		 "optdone": 1, 
		 "sigma_profile": "yes", 
		 "theory": "DFT", 
		 "functional": "B3LYP", 
		 "basiset": "6-31G**", 
		 "properties": { 
			 "R2extent": 10890.6143, 
			 "electric_dipole_moment_norm": 2.91394718209, 
			 "electric_quadrupole_moment_norm": 40.2732479102, 
			 "total_energy": -1602.10031694, 
			 "HOMO_LUMO_gap": 0.16849, 
			 "cosmo_polarized_energy": -16.48, 
			 "cosmo_cavitation_energy": 36.78, 
			 "cosmo_dispersion_energy": -27.49, 
			 "cosmo_repulsion_energy": 2.09, 
			 "cosmo_total_nonelectrostatic_energy": 11.38, 
			 "SMD_solvation_energy": 5.46 
		},
		"coords": [
			{
				"x": -4.9664141833,
				"y": 2.0085932823,
				"z": 0.4492062447,
				"element": "C" 
			},
			{
				"x": -3.8853788954,
				"y": 1.0597206008,
				"z": 0.8662543505,
				"element": "C" 
			},
			{
				"x": -4.0396761303,
				"y": -0.1612878197,
				"z": 1.4964119235,
				"element": "C" 
			},
			{
				"x": -2.4684063325,
				"y": -0.8932114125,
				"z": 1.7704217011,
				"element": "S" 
			},
			{
				"x": -1.7392121968,
				"y": 0.5114775634,
				"z": 1.0339778261,
				"element": "C" 
			},
			{
				"x": -0.2531700737,
				"y": 0.6250429486,
				"z": 0.849978636,
				"element": "C" 
			},
			{
				"x": 0.3590171827,
				"y": -0.4258194005,
				"z": 1.5743110553,
				"element": "O" 
			},
			{
				"x": 1.721695039,
				"y": -0.5612021286,
				"z": 1.5099456631,
				"element": "C" 
			},
			{
				"x": 2.568673728,
				"y": 0.3040634224,
				"z": 0.8112990846,
				"element": "C" 
			},
			{
				"x": 3.9479854286,
				"y": 0.0749393823,
				"z": 0.814634035,
				"element": "C" 
			},
			{
				"x": 4.4687341792,
				"y": -1.0095938325,
				"z": 1.512371719,
				"element": "C" 
			},
			{
				"x": 6.2032040732,
				"y": -1.2941424098,
				"z": 1.5142174808,
				"element": "Cl" 
			},
			{
				"x": 3.6263662672,
				"y": -1.8766769191,
				"z": 2.213484287,
				"element": "C" 
			},
			{
				"x": 2.2553644309,
				"y": -1.6507602678,
				"z": 2.2105725396,
				"element": "C" 
			},
			{
				"x": -2.5763407304,
				"y": 1.4163528413,
				"z": 0.622168248,
				"element": "N" 
			},
			{
				"x": -5.3087222599,
				"y": -0.8038223745,
				"z": 1.9113176551,
				"element": "C" 
			},
			{
				"x": -5.2159466892,
				"y": -1.8243711231,
				"z": 2.8072193693,
				"element": "O" 
			},
			{
				"x": -6.396258491,
				"y": -0.4758858729,
				"z": 1.4939053691,
				"element": "O" 
			},
			{
				"x": -5.0051506371,
				"y": 2.0644409766,
				"z": -0.6447855578,
				"element": "H" 
			},
			{
				"x": -4.7351474286,
				"y": 3.0139631367,
				"z": 0.8145844077,
				"element": "H" 
			},
			{
				"x": -5.9397704727,
				"y": 1.6850206803,
				"z": 0.812156205,
				"element": "H" 
			},
			{
				"x": 0.0755960166,
				"y": 1.6099480937,
				"z": 1.2093143297,
				"element": "H" 
			},
			{
				"x": -0.0115098238,
				"y": 0.5578040456,
				"z": -0.2209265163,
				"element": "H" 
			},
			{
				"x": 2.1805949634,
				"y": 1.1556648289,
				"z": 0.265416082,
				"element": "H" 
			},
			{
				"x": 4.6097746964,
				"y": 0.7428145774,
				"z": 0.2745490425,
				"element": "H" 
			},
			{
				"x": 4.0419381854,
				"y": -2.7195212122,
				"z": 2.7543824067,
				"element": "H" 
			},
			{
				"x": 1.5806171763,
				"y": -2.3098718813,
				"z": 2.7463142752,
				"element": "H" 
			},
			{
				"x": -4.3254570225,
				"y": -1.8903797256,
				"z": 3.1810981375,
				"element": "H" 
			}
		],
		 "valence_orbital": [ 
			{
				"type": "occ",
				"energy": -0.29664,
				"method": "rhf"
			},
			{
				"type": "occ",
				"energy": -0.28241,
				"method": "rhf"
			},
			{
				"type": "occ",
				"energy": -0.2765,
				"method": "rhf"
			},
			{
				"type": "occ",
				"energy": -0.25901,
				"method": "rhf"
			},
			{
				"type": "occ",
				"energy": -0.23704,
				"method": "rhf"
			},
			{
				"type": "unocc",
				"energy": -0.06855,
				"method": "rhf"
			},
			{
				"type": "unocc",
				"energy": -0.02687,
				"method": "rhf"
			},
			{
				"type": "unocc",
				"energy": -0.01354,
				"method": "rhf"
			},
			{
				"type": "unocc",
				"energy": -0.01246,
				"method": "rhf"
			},
			{
				"type": "unocc",
				"energy": -9e-05,
				"method": "rhf"
			}
		],
		"cosmo_sigma_profile": { 
			"-0.025": 0.0,
			"-0.024": 0.0,
			"-0.023": 0.0,
			"-0.022": 0.0,
			"-0.021": 0.0,
			"-0.02": 0.0,
			"-0.019": 0.0,
			"-0.018": 0.491333288375,
			"-0.017": 0.682898994181,
			"-0.016": 0.674545790706,
			"-0.015": 1.31014656048,
			"-0.014": 1.22621971605,
			"-0.013": 0.645133315392,
			"-0.012": 1.02645903542,
			"-0.011": 1.04541277073,
			"-0.01": 0.614056014878,
			"-0.009": 2.43591926882,
			"-0.008": 10.0357237067,
			"-0.007": 12.5372282859,
			"-0.006": 13.5893146341,
			"-0.005": 13.8404900878,
			"-0.004": 14.4662972384,
			"-0.003": 14.1778675444,
			"-0.002": 20.9563790789,
			"-0.001": 25.3864108154,
			"0.0": 23.2856560351,
			"0.001": 22.6123779737,
			"0.002": 25.717950244,
			"0.003": 26.5026369586,
			"0.004": 19.2747135271,
			"0.005": 12.4951397813,
			"0.006": 5.38778185018,
			"0.007": 3.46612680924,
			"0.008": 3.51841537668,
			"0.009": 4.68039367121,
			"0.01": 5.9536296217,
			"0.011": 5.52515008859,
			"0.012": 3.78658267376,
			"0.013": 1.46564927282,
			"0.014": 0.359610754403,
			"0.015": 0.0,
			"0.016": 0.0,
			"0.017": 0.0,
			"0.018": 0.0,
			"0.019": 0.0,
			"0.02": 0.0,
			"0.021": 0.0,
			"0.022": 0.0,
			"0.023": 0.0,
			"0.024": 0.0,
			"0.025": 0.0
		}
	}
}
