{
	 "smiles": "CC1=C(OC=N1)C(O)=O", 
	 "Tm": 513.15, 
	 "num_atms": 14, 
	 "gaussian": { 
		 "optdone": 1, 
		 "sigma_profile": "yes", 
		 "theory": "DFT", 
		 "functional": "B3LYP", 
		 "basiset": "6-31G**", 
		 "properties": { 
			 "R2extent": 1285.9737, 
			 "electric_dipole_moment_norm": 1.56727131346, 
			 "electric_quadrupole_moment_norm": 10.5086109068, 
			 "total_energy": -473.965522248, 
			 "HOMO_LUMO_gap": 0.20601, 
			 "cosmo_polarized_energy": -11.45, 
			 "cosmo_cavitation_energy": 19.19, 
			 "cosmo_dispersion_energy": -14.22, 
			 "cosmo_repulsion_energy": 1.18, 
			 "cosmo_total_nonelectrostatic_energy": 6.15, 
			 "SMD_solvation_energy": 4.31 
		},
		"coords": [
			{
				"x": -2.1285048264,
				"y": 1.3853665277,
				"z": -0.1774723975,
				"element": "C" 
			},
			{
				"x": -1.4821366221,
				"y": 0.0390173822,
				"z": -0.2367310848,
				"element": "C" 
			},
			{
				"x": -0.5197520365,
				"y": -0.5209191331,
				"z": 0.5681233897,
				"element": "C" 
			},
			{
				"x": -0.2590504178,
				"y": -1.7873526758,
				"z": 0.0969568181,
				"element": "O" 
			},
			{
				"x": -1.0757983122,
				"y": -1.9190873423,
				"z": -0.9612226466,
				"element": "C" 
			},
			{
				"x": -1.8220151032,
				"y": -0.8848918612,
				"z": -1.2143236173,
				"element": "N" 
			},
			{
				"x": 0.2339796818,
				"y": -0.0829073116,
				"z": 1.7401599847,
				"element": "C" 
			},
			{
				"x": -0.1173596908,
				"y": 1.1802519791,
				"z": 2.1001600344,
				"element": "O" 
			},
			{
				"x": 1.0666206751,
				"y": -0.7368857349,
				"z": 2.3309394642,
				"element": "O" 
			},
			{
				"x": -2.8518446069,
				"y": 1.4713509214,
				"z": -0.9897589496,
				"element": "H" 
			},
			{
				"x": -2.6415366615,
				"y": 1.5367051039,
				"z": 0.7768733429,
				"element": "H" 
			},
			{
				"x": -1.3875803906,
				"y": 2.1848295179,
				"z": -0.2711275717,
				"element": "H" 
			},
			{
				"x": -1.0369309311,
				"y": -2.8577537044,
				"z": -1.494991977,
				"element": "H" 
			},
			{
				"x": 0.4248092423,
				"y": 1.391176331,
				"z": 2.8783152105,
				"element": "H" 
			}
		],
		 "valence_orbital": [ 
			{
				"type": "occ",
				"energy": -0.33003,
				"method": "rhf"
			},
			{
				"type": "occ",
				"energy": -0.32454,
				"method": "rhf"
			},
			{
				"type": "occ",
				"energy": -0.31052,
				"method": "rhf"
			},
			{
				"type": "occ",
				"energy": -0.28107,
				"method": "rhf"
			},
			{
				"type": "occ",
				"energy": -0.2591,
				"method": "rhf"
			},
			{
				"type": "unocc",
				"energy": -0.05309,
				"method": "rhf"
			},
			{
				"type": "unocc",
				"energy": 0.01946,
				"method": "rhf"
			},
			{
				"type": "unocc",
				"energy": 0.06894,
				"method": "rhf"
			},
			{
				"type": "unocc",
				"energy": 0.09132,
				"method": "rhf"
			},
			{
				"type": "unocc",
				"energy": 0.11679,
				"method": "rhf"
			}
		],
		"cosmo_sigma_profile": { 
			"-0.025": 0.0,
			"-0.024": 0.0,
			"-0.023": 0.0,
			"-0.022": 0.0,
			"-0.021": 0.0,
			"-0.02": 0.0,
			"-0.019": 0.0944424337756,
			"-0.018": 1.4285380155,
			"-0.017": 0.403163598,
			"-0.016": 0.922687548852,
			"-0.015": 0.793740692465,
			"-0.014": 0.955301524194,
			"-0.013": 0.843436132612,
			"-0.012": 1.32936718527,
			"-0.011": 3.19181101825,
			"-0.01": 2.18477357178,
			"-0.009": 2.13054196396,
			"-0.008": 1.62563021817,
			"-0.007": 2.47854755238,
			"-0.006": 2.94919104743,
			"-0.005": 6.19472423072,
			"-0.004": 8.95755075783,
			"-0.003": 14.1473779712,
			"-0.002": 18.0471553756,
			"-0.001": 16.7177444689,
			"0.0": 7.38295468359,
			"0.001": 6.04641375507,
			"0.002": 7.41243534024,
			"0.003": 4.42315921544,
			"0.004": 5.10300329266,
			"0.005": 5.53094101924,
			"0.006": 5.43164699134,
			"0.007": 3.03347117832,
			"0.008": 3.33379048891,
			"0.009": 3.38491862668,
			"0.01": 4.11482250777,
			"0.011": 6.03154857974,
			"0.012": 4.30586410524,
			"0.013": 1.08510631005,
			"0.014": 0.948588528456,
			"0.015": 0.557606972281,
			"0.016": 0.0203484381921,
			"0.017": 0.0,
			"0.018": 0.0,
			"0.019": 0.0,
			"0.02": 0.0,
			"0.021": 0.0,
			"0.022": 0.0,
			"0.023": 0.0,
			"0.024": 0.0,
			"0.025": 0.0
		}
	}
}
