{
	 "smiles": "OC(=O)C1CC2=C(CN1C(=O)OCC1C3=C(C=CC=C3)C3=C1C=CC=C3)C=CC=C2", 
	 "Tm": 421.15, 
	 "num_atms": 51, 
	 "gaussian": { 
		 "optdone": 1, 
		 "sigma_profile": "yes", 
		 "theory": "DFT", 
		 "functional": "B3LYP", 
		 "basiset": "6-31G**", 
		 "properties": { 
			 "R2extent": 11595.0478, 
			 "electric_dipole_moment_norm": 5.55304058062, 
			 "electric_quadrupole_moment_norm": 22.661529051, 
			 "total_energy": -1321.01656128, 
			 "HOMO_LUMO_gap": 0.1839, 
			 "cosmo_polarized_energy": -19.79, 
			 "cosmo_cavitation_energy": 53.15, 
			 "cosmo_dispersion_energy": -34.04, 
			 "cosmo_repulsion_energy": 2.52, 
			 "cosmo_total_nonelectrostatic_energy": 21.63, 
			 "SMD_solvation_energy": 9.31 
		},
		"coords": [
			{
				"x": 1.1914743447,
				"y": 2.9669702657,
				"z": -1.5458183978,
				"element": "O" 
			},
			{
				"x": 0.4180265618,
				"y": 4.0237448521,
				"z": -1.2507484789,
				"element": "C" 
			},
			{
				"x": 0.5297570325,
				"y": 5.0781450732,
				"z": -1.8301143126,
				"element": "O" 
			},
			{
				"x": -0.6120039631,
				"y": 3.8438286905,
				"z": -0.1109458895,
				"element": "C" 
			},
			{
				"x": -1.9851549926,
				"y": 4.3600749349,
				"z": -0.5736916809,
				"element": "C" 
			},
			{
				"x": -2.586868637,
				"y": 3.4067647102,
				"z": -1.5765363431,
				"element": "C" 
			},
			{
				"x": -2.4727295323,
				"y": 2.034943311,
				"z": -1.3045364568,
				"element": "C" 
			},
			{
				"x": -1.8468259686,
				"y": 1.6007131397,
				"z": -0.0012547486,
				"element": "C" 
			},
			{
				"x": -0.70172554,
				"y": 2.4607431545,
				"z": 0.3861902559,
				"element": "N" 
			},
			{
				"x": 0.0431003325,
				"y": 2.1600652056,
				"z": 1.5065024375,
				"element": "C" 
			},
			{
				"x": 0.9220064171,
				"y": 2.8761186859,
				"z": 1.9565913641,
				"element": "O" 
			},
			{
				"x": -0.3215936974,
				"y": 0.9587107517,
				"z": 2.0249959326,
				"element": "O" 
			},
			{
				"x": 0.5650305023,
				"y": 0.3859493648,
				"z": 3.0041543115,
				"element": "C" 
			},
			{
				"x": 1.288791821,
				"y": -0.8337826346,
				"z": 2.4129309806,
				"element": "C" 
			},
			{
				"x": 1.9752468848,
				"y": -0.5577523007,
				"z": 1.0811721687,
				"element": "C" 
			},
			{
				"x": 1.5209474756,
				"y": -1.4665461143,
				"z": 0.1027484271,
				"element": "C" 
			},
			{
				"x": 2.0038876456,
				"y": -1.3980482578,
				"z": -1.2060684433,
				"element": "C" 
			},
			{
				"x": 2.9339586353,
				"y": -0.4074656861,
				"z": -1.5306794348,
				"element": "C" 
			},
			{
				"x": 3.3785053691,
				"y": 0.4993311685,
				"z": -0.5616659267,
				"element": "C" 
			},
			{
				"x": 2.9032929437,
				"y": 0.4261130867,
				"z": 0.7544926117,
				"element": "C" 
			},
			{
				"x": 0.5353946262,
				"y": -2.3671870248,
				"z": 0.7173434444,
				"element": "C" 
			},
			{
				"x": 0.3799501965,
				"y": -2.0058846289,
				"z": 2.0707138774,
				"element": "C" 
			},
			{
				"x": -0.4989882242,
				"y": -2.704236412,
				"z": 2.89052861,
				"element": "C" 
			},
			{
				"x": -1.2310807876,
				"y": -3.768785616,
				"z": 2.3511560353,
				"element": "C" 
			},
			{
				"x": -1.0775967032,
				"y": -4.1276889689,
				"z": 1.0077341007,
				"element": "C" 
			},
			{
				"x": -0.19288987,
				"y": -3.4313097517,
				"z": 0.1807863748,
				"element": "C" 
			},
			{
				"x": -2.9813499025,
				"y": 1.0998714395,
				"z": -2.2098870153,
				"element": "C" 
			},
			{
				"x": -3.6132112399,
				"y": 1.5254387149,
				"z": -3.3790342966,
				"element": "C" 
			},
			{
				"x": -3.7242305393,
				"y": 2.8899709008,
				"z": -3.6529472895,
				"element": "C" 
			},
			{
				"x": -3.2044978936,
				"y": 3.8258187415,
				"z": -2.7574597596,
				"element": "C" 
			},
			{
				"x": 0.940275076,
				"y": 2.2222706401,
				"z": -0.9732624955,
				"element": "H" 
			},
			{
				"x": -0.2377165312,
				"y": 4.4606286776,
				"z": 0.7108464879,
				"element": "H" 
			},
			{
				"x": -2.6359511201,
				"y": 4.4632215498,
				"z": 0.3051302051,
				"element": "H" 
			},
			{
				"x": -1.8436266517,
				"y": 5.3536292878,
				"z": -1.0030017774,
				"element": "H" 
			},
			{
				"x": -2.6004001218,
				"y": 1.6272483139,
				"z": 0.7996593677,
				"element": "H" 
			},
			{
				"x": -1.498292044,
				"y": 0.5684013346,
				"z": -0.0650447294,
				"element": "H" 
			},
			{
				"x": -0.0585486715,
				"y": 0.0902728722,
				"z": 3.8523510405,
				"element": "H" 
			},
			{
				"x": 1.2721743314,
				"y": 1.1508453221,
				"z": 3.3292616561,
				"element": "H" 
			},
			{
				"x": 2.0282577873,
				"y": -1.1442687427,
				"z": 3.1671870568,
				"element": "H" 
			},
			{
				"x": 1.6596941339,
				"y": -2.0960633371,
				"z": -1.9642345112,
				"element": "H" 
			},
			{
				"x": 3.3114573941,
				"y": -0.3346953426,
				"z": -2.5463093713,
				"element": "H" 
			},
			{
				"x": 4.0914735162,
				"y": 1.2713731027,
				"z": -0.8333913008,
				"element": "H" 
			},
			{
				"x": 3.2399240694,
				"y": 1.1458906987,
				"z": 1.4946210975,
				"element": "H" 
			},
			{
				"x": -0.6213028602,
				"y": -2.4357684366,
				"z": 3.9371279036,
				"element": "H" 
			},
			{
				"x": -1.9215878784,
				"y": -4.3218200331,
				"z": 2.9812081106,
				"element": "H" 
			},
			{
				"x": -1.6505231253,
				"y": -4.9578823478,
				"z": 0.6046171829,
				"element": "H" 
			},
			{
				"x": -0.0754786408,
				"y": -3.7177616472,
				"z": -0.8607286773,
				"element": "H" 
			},
			{
				"x": -2.8823503971,
				"y": 0.0377601748,
				"z": -1.9993815837,
				"element": "H" 
			},
			{
				"x": -4.0064593361,
				"y": 0.7941457257,
				"z": -4.0790470964,
				"element": "H" 
			},
			{
				"x": -4.2035215227,
				"y": 3.2249404157,
				"z": -4.5681589683,
				"element": "H" 
			},
			{
				"x": -3.2717207052,
				"y": 4.8879029754,
				"z": -2.9774020558,
				"element": "H" 
			}
		],
		 "valence_orbital": [ 
			{
				"type": "occ",
				"energy": -0.25593,
				"method": "rhf"
			},
			{
				"type": "occ",
				"energy": -0.25136,
				"method": "rhf"
			},
			{
				"type": "occ",
				"energy": -0.24897,
				"method": "rhf"
			},
			{
				"type": "occ",
				"energy": -0.24216,
				"method": "rhf"
			},
			{
				"type": "occ",
				"energy": -0.22208,
				"method": "rhf"
			},
			{
				"type": "unocc",
				"energy": -0.03818,
				"method": "rhf"
			},
			{
				"type": "unocc",
				"energy": -0.0201,
				"method": "rhf"
			},
			{
				"type": "unocc",
				"energy": -0.01112,
				"method": "rhf"
			},
			{
				"type": "unocc",
				"energy": -0.0092,
				"method": "rhf"
			},
			{
				"type": "unocc",
				"energy": 0.00118,
				"method": "rhf"
			}
		],
		"cosmo_sigma_profile": { 
			"-0.025": 0.0,
			"-0.024": 0.0,
			"-0.023": 0.0,
			"-0.022": 0.0,
			"-0.021": 0.0,
			"-0.02": 0.0,
			"-0.019": 0.0,
			"-0.018": 0.0,
			"-0.017": 0.0,
			"-0.016": 0.0,
			"-0.015": 0.0,
			"-0.014": 0.0,
			"-0.013": 0.0,
			"-0.012": 0.0,
			"-0.011": 0.0,
			"-0.01": 0.253583019318,
			"-0.009": 1.03890892208,
			"-0.008": 1.72618191288,
			"-0.007": 5.48459293537,
			"-0.006": 33.3223458959,
			"-0.005": 45.4614991532,
			"-0.004": 40.2417377005,
			"-0.003": 38.0350123235,
			"-0.002": 25.9722494922,
			"-0.001": 25.4388563744,
			"0.0": 23.2994689153,
			"0.001": 24.6468007611,
			"0.002": 27.0745023913,
			"0.003": 28.4606470854,
			"0.004": 25.717353691,
			"0.005": 28.2318390089,
			"0.006": 14.4031669183,
			"0.007": 4.46266617041,
			"0.008": 3.90959160412,
			"0.009": 3.73903581505,
			"0.01": 6.38625551982,
			"0.011": 5.64321816605,
			"0.012": 8.11574927708,
			"0.013": 2.2053815864,
			"0.014": 0.0336516285031,
			"0.015": 0.0,
			"0.016": 0.0,
			"0.017": 0.0,
			"0.018": 0.0,
			"0.019": 0.0,
			"0.02": 0.0,
			"0.021": 0.0,
			"0.022": 0.0,
			"0.023": 0.0,
			"0.024": 0.0,
			"0.025": 0.0
		}
	}
}
