{
	 "smiles": "CC(CCC1=C(C2=CC=C(C)O2)C2=C(O1)C=CC(C)=C2)=NO", 
	 "Tm": 377.15, 
	 "num_atms": 41, 
	 "gaussian": { 
		 "optdone": 1, 
		 "sigma_profile": "yes", 
		 "theory": "DFT", 
		 "functional": "B3LYP", 
		 "basiset": "6-31G**", 
		 "properties": { 
			 "R2extent": 7683.0448, 
			 "electric_dipole_moment_norm": 1.29247494753, 
			 "electric_quadrupole_moment_norm": 12.6414401644, 
			 "total_energy": -977.731930374, 
			 "HOMO_LUMO_gap": 0.17237, 
			 "cosmo_polarized_energy": -13.22, 
			 "cosmo_cavitation_energy": 44.65, 
			 "cosmo_dispersion_energy": -29.93, 
			 "cosmo_repulsion_energy": 2.32, 
			 "cosmo_total_nonelectrostatic_energy": 17.04, 
			 "SMD_solvation_energy": 7.79 
		},
		"coords": [
			{
				"x": 0.2538057075,
				"y": 3.45860214,
				"z": 3.7098236174,
				"element": "C" 
			},
			{
				"x": 0.9455098022,
				"y": 2.5775933447,
				"z": 2.7032891407,
				"element": "C" 
			},
			{
				"x": 1.4516605074,
				"y": 1.2257639856,
				"z": 3.1494486151,
				"element": "C" 
			},
			{
				"x": 0.3953252644,
				"y": 0.0908416678,
				"z": 3.0184135929,
				"element": "C" 
			},
			{
				"x": 0.1554228303,
				"y": -0.387694593,
				"z": 1.6282839315,
				"element": "C" 
			},
			{
				"x": -0.9333060576,
				"y": -0.3615709777,
				"z": 0.7949638836,
				"element": "C" 
			},
			{
				"x": -2.215806418,
				"y": 0.271631504,
				"z": 1.0384082503,
				"element": "C" 
			},
			{
				"x": -2.6102142575,
				"y": 1.4221552628,
				"z": 1.6673218081,
				"element": "C" 
			},
			{
				"x": -4.0367154879,
				"y": 1.4822782915,
				"z": 1.5595272145,
				"element": "C" 
			},
			{
				"x": -4.4263224879,
				"y": 0.3767641055,
				"z": 0.861701306,
				"element": "C" 
			},
			{
				"x": -5.744961932,
				"y": -0.1422594359,
				"z": 0.4074050046,
				"element": "C" 
			},
			{
				"x": -3.3263833308,
				"y": -0.3712909605,
				"z": 0.5370557475,
				"element": "O" 
			},
			{
				"x": -0.5379674308,
				"y": -1.0893058297,
				"z": -0.3996316764,
				"element": "C" 
			},
			{
				"x": 0.7900118067,
				"y": -1.4792823395,
				"z": -0.1782439146,
				"element": "C" 
			},
			{
				"x": 1.2109921671,
				"y": -1.0586002872,
				"z": 1.054853929,
				"element": "O" 
			},
			{
				"x": 1.5389216435,
				"y": -2.1948224667,
				"z": -1.104200691,
				"element": "C" 
			},
			{
				"x": 0.9030780504,
				"y": -2.5221062563,
				"z": -2.2995087187,
				"element": "C" 
			},
			{
				"x": -0.4347127675,
				"y": -2.150729238,
				"z": -2.5667616958,
				"element": "C" 
			},
			{
				"x": -1.0704265738,
				"y": -2.5399704285,
				"z": -3.8829344456,
				"element": "C" 
			},
			{
				"x": -1.1552867859,
				"y": -1.4314147162,
				"z": -1.6117182614,
				"element": "C" 
			},
			{
				"x": 1.0553509434,
				"y": 3.0546752174,
				"z": 1.5172573672,
				"element": "N" 
			},
			{
				"x": 1.7289710302,
				"y": 2.1710451043,
				"z": 0.6521308097,
				"element": "O" 
			},
			{
				"x": 0.9380582941,
				"y": 3.7233591553,
				"z": 4.5254517456,
				"element": "H" 
			},
			{
				"x": -0.5996319048,
				"y": 2.9420667512,
				"z": 4.1667701776,
				"element": "H" 
			},
			{
				"x": -0.1004736532,
				"y": 4.3760705573,
				"z": 3.235923403,
				"element": "H" 
			},
			{
				"x": 2.3379202273,
				"y": 0.9524239829,
				"z": 2.5725054942,
				"element": "H" 
			},
			{
				"x": 1.7411033791,
				"y": 1.2950127281,
				"z": 4.204071116,
				"element": "H" 
			},
			{
				"x": -0.5612963669,
				"y": 0.4033383264,
				"z": 3.4478441574,
				"element": "H" 
			},
			{
				"x": 0.752124722,
				"y": -0.7616853482,
				"z": 3.6109480098,
				"element": "H" 
			},
			{
				"x": -1.9541590901,
				"y": 2.1615234712,
				"z": 2.1011960962,
				"element": "H" 
			},
			{
				"x": -4.6883088338,
				"y": 2.256494411,
				"z": 1.9396055296,
				"element": "H" 
			},
			{
				"x": -6.5399042743,
				"y": 0.5366922013,
				"z": 0.7247066665,
				"element": "H" 
			},
			{
				"x": -5.7875412625,
				"y": -0.2325415357,
				"z": -0.6845119901,
				"element": "H" 
			},
			{
				"x": -5.9536686956,
				"y": -1.1339908026,
				"z": 0.8256133193,
				"element": "H" 
			},
			{
				"x": 2.565527415,
				"y": -2.4803288626,
				"z": -0.9012110708,
				"element": "H" 
			},
			{
				"x": 1.4520874146,
				"y": -3.0830303623,
				"z": -3.0516902377,
				"element": "H" 
			},
			{
				"x": -1.1005794046,
				"y": -3.6289483832,
				"z": -4.0077141506,
				"element": "H" 
			},
			{
				"x": -2.0968526242,
				"y": -2.1696194948,
				"z": -3.9535008423,
				"element": "H" 
			},
			{
				"x": -0.5109568278,
				"y": -2.1354669009,
				"z": -4.7346893636,
				"element": "H" 
			},
			{
				"x": -2.1854402699,
				"y": -1.1459748512,
				"z": -1.7989622265,
				"element": "H" 
			},
			{
				"x": 1.703645532,
				"y": 2.6505018622,
				"z": -0.1859406482,
				"element": "H" 
			}
		],
		 "valence_orbital": [ 
			{
				"type": "occ",
				"energy": -0.26549,
				"method": "rhf"
			},
			{
				"type": "occ",
				"energy": -0.24365,
				"method": "rhf"
			},
			{
				"type": "occ",
				"energy": -0.22996,
				"method": "rhf"
			},
			{
				"type": "occ",
				"energy": -0.21749,
				"method": "rhf"
			},
			{
				"type": "occ",
				"energy": -0.18811,
				"method": "rhf"
			},
			{
				"type": "unocc",
				"energy": -0.01574,
				"method": "rhf"
			},
			{
				"type": "unocc",
				"energy": 0.0097,
				"method": "rhf"
			},
			{
				"type": "unocc",
				"energy": 0.01169,
				"method": "rhf"
			},
			{
				"type": "unocc",
				"energy": 0.02308,
				"method": "rhf"
			},
			{
				"type": "unocc",
				"energy": 0.06054,
				"method": "rhf"
			}
		],
		"cosmo_sigma_profile": { 
			"-0.025": 0.0,
			"-0.024": 0.0,
			"-0.023": 0.0,
			"-0.022": 0.0,
			"-0.021": 0.0,
			"-0.02": 0.0,
			"-0.019": 0.0,
			"-0.018": 0.0,
			"-0.017": 0.520878870316,
			"-0.016": 0.982746538651,
			"-0.015": 0.763106644423,
			"-0.014": 1.25746392469,
			"-0.013": 0.622527878975,
			"-0.012": 0.300845152838,
			"-0.011": 0.51740710711,
			"-0.01": 0.475769567409,
			"-0.009": 0.531432913785,
			"-0.008": 1.03753933844,
			"-0.007": 2.43792489668,
			"-0.006": 7.06351290091,
			"-0.005": 23.7608773926,
			"-0.004": 33.9442330636,
			"-0.003": 35.4252832286,
			"-0.002": 35.8203227731,
			"-0.001": 32.1911605206,
			"0.0": 28.7903346891,
			"0.001": 20.8357004512,
			"0.002": 20.3385243837,
			"0.003": 22.1796034909,
			"0.004": 22.7889603651,
			"0.005": 24.4205687636,
			"0.006": 15.068860377,
			"0.007": 8.45657192031,
			"0.008": 5.25961779383,
			"0.009": 3.17482752027,
			"0.01": 1.54072368103,
			"0.011": 0.690830576764,
			"0.012": 0.950827599161,
			"0.013": 1.07970818147,
			"0.014": 0.475402838904,
			"0.015": 0.0,
			"0.016": 0.0,
			"0.017": 0.0,
			"0.018": 0.0,
			"0.019": 0.0,
			"0.02": 0.0,
			"0.021": 0.0,
			"0.022": 0.0,
			"0.023": 0.0,
			"0.024": 0.0,
			"0.025": 0.0
		}
	}
}
