{
	 "smiles": "OC(NC(=O)C=C)C(O)=O", 
	 "Tm": 398.15, 
	 "num_atms": 17, 
	 "gaussian": { 
		 "optdone": 1, 
		 "sigma_profile": "yes", 
		 "theory": "DFT", 
		 "functional": "B3LYP", 
		 "basiset": "6-31G**", 
		 "properties": { 
			 "R2extent": 2260.6691, 
			 "electric_dipole_moment_norm": 4.6720607648, 
			 "electric_quadrupole_moment_norm": 14.1488317034, 
			 "total_energy": -550.381876895, 
			 "HOMO_LUMO_gap": 0.21314, 
			 "cosmo_polarized_energy": -18.88, 
			 "cosmo_cavitation_energy": 21.87, 
			 "cosmo_dispersion_energy": -15.82, 
			 "cosmo_repulsion_energy": 1.3, 
			 "cosmo_total_nonelectrostatic_energy": 7.35, 
			 "SMD_solvation_energy": 6.17 
		},
		"coords": [
			{
				"x": -2.7301829161,
				"y": 0.0941041802,
				"z": -0.0447248533,
				"element": "O" 
			},
			{
				"x": -1.7792904237,
				"y": 0.1146576685,
				"z": -1.1265391092,
				"element": "C" 
			},
			{
				"x": -0.7030016687,
				"y": 1.031435527,
				"z": -0.9398063965,
				"element": "N" 
			},
			{
				"x": 0.5697825537,
				"y": 0.7576552221,
				"z": -0.4304354752,
				"element": "C" 
			},
			{
				"x": 1.4896985581,
				"y": 1.5214960195,
				"z": -0.681736011,
				"element": "O" 
			},
			{
				"x": 0.8058597463,
				"y": -0.4385932276,
				"z": 0.4277631575,
				"element": "C" 
			},
			{
				"x": -0.0656286727,
				"y": -1.0691392415,
				"z": 1.2222204617,
				"element": "C" 
			},
			{
				"x": -2.5272853114,
				"y": 0.4667233784,
				"z": -2.4382036302,
				"element": "C" 
			},
			{
				"x": -3.8121843378,
				"y": 0.0891829313,
				"z": -2.4307374826,
				"element": "O" 
			},
			{
				"x": -1.9971163154,
				"y": 1.0112227769,
				"z": -3.3748347919,
				"element": "O" 
			},
			{
				"x": -2.7991872528,
				"y": 1.004506017,
				"z": 0.282466258,
				"element": "H" 
			},
			{
				"x": -1.4246872903,
				"y": -0.920104952,
				"z": -1.1957621339,
				"element": "H" 
			},
			{
				"x": -0.6599491117,
				"y": 1.7723210127,
				"z": -1.634224316,
				"element": "H" 
			},
			{
				"x": 1.8555296732,
				"y": -0.7198401923,
				"z": 0.4314537992,
				"element": "H" 
			},
			{
				"x": -1.1125109681,
				"y": -0.7925965498,
				"z": 1.2867798905,
				"element": "H" 
			},
			{
				"x": 0.2667898523,
				"y": -1.8873294806,
				"z": 1.8546217239,
				"element": "H" 
			},
			{
				"x": -4.0163361148,
				"y": -0.1990010899,
				"z": -1.5202010909,
				"element": "H" 
			}
		],
		 "valence_orbital": [ 
			{
				"type": "occ",
				"energy": -0.33452,
				"method": "rhf"
			},
			{
				"type": "occ",
				"energy": -0.29697,
				"method": "rhf"
			},
			{
				"type": "occ",
				"energy": -0.29097,
				"method": "rhf"
			},
			{
				"type": "occ",
				"energy": -0.28333,
				"method": "rhf"
			},
			{
				"type": "occ",
				"energy": -0.26394,
				"method": "rhf"
			},
			{
				"type": "unocc",
				"energy": -0.0508,
				"method": "rhf"
			},
			{
				"type": "unocc",
				"energy": -0.01801,
				"method": "rhf"
			},
			{
				"type": "unocc",
				"energy": 0.04389,
				"method": "rhf"
			},
			{
				"type": "unocc",
				"energy": 0.0628,
				"method": "rhf"
			},
			{
				"type": "unocc",
				"energy": 0.09885,
				"method": "rhf"
			}
		],
		"cosmo_sigma_profile": { 
			"-0.025": 0.0,
			"-0.024": 0.0,
			"-0.023": 0.0,
			"-0.022": 0.0,
			"-0.021": 0.0,
			"-0.02": 0.0,
			"-0.019": 0.0,
			"-0.018": 0.0440725063948,
			"-0.017": 1.0144523636,
			"-0.016": 1.19905882458,
			"-0.015": 1.5307771739,
			"-0.014": 1.70651273417,
			"-0.013": 1.93180446937,
			"-0.012": 2.02322727116,
			"-0.011": 3.3393067915,
			"-0.01": 4.89461845436,
			"-0.009": 5.59811234204,
			"-0.008": 3.51709617793,
			"-0.007": 5.81493360358,
			"-0.006": 8.88145019249,
			"-0.005": 7.40415901205,
			"-0.004": 8.94960486033,
			"-0.003": 9.99247214029,
			"-0.002": 10.6161677335,
			"-0.001": 9.08821427465,
			"0.0": 8.68917023225,
			"0.001": 8.50484642384,
			"0.002": 8.19292163649,
			"0.003": 7.14656787944,
			"0.004": 4.79109857339,
			"0.005": 3.81678063496,
			"0.006": 4.38654362567,
			"0.007": 4.95387067124,
			"0.008": 4.97430331401,
			"0.009": 6.79304124862,
			"0.01": 6.65548136142,
			"0.011": 5.7925178331,
			"0.012": 5.29398930154,
			"0.013": 4.96039592087,
			"0.014": 1.18137828326,
			"0.015": 0.0,
			"0.016": 0.0,
			"0.017": 0.0,
			"0.018": 0.0,
			"0.019": 0.0,
			"0.02": 0.0,
			"0.021": 0.0,
			"0.022": 0.0,
			"0.023": 0.0,
			"0.024": 0.0,
			"0.025": 0.0
		}
	}
}
