{
	 "smiles": "CCCCC1NCCNC1=O", 
	 "Tm": 341.15, 
	 "num_atms": 27, 
	 "gaussian": { 
		 "optdone": 1, 
		 "sigma_profile": "yes", 
		 "theory": "DFT", 
		 "functional": "B3LYP", 
		 "basiset": "6-31G**", 
		 "properties": { 
			 "R2extent": 2648.3684, 
			 "electric_dipole_moment_norm": 3.63881735046, 
			 "electric_quadrupole_moment_norm": 8.99412026993, 
			 "total_energy": -499.239891059, 
			 "HOMO_LUMO_gap": 0.24275, 
			 "cosmo_polarized_energy": -12.85, 
			 "cosmo_cavitation_energy": 27.98, 
			 "cosmo_dispersion_energy": -20.62, 
			 "cosmo_repulsion_energy": 1.7, 
			 "cosmo_total_nonelectrostatic_energy": 9.06, 
			 "SMD_solvation_energy": 2.05 
		},
		"coords": [
			{
				"x": 2.7422261488,
				"y": -0.045090183,
				"z": -3.6122645371,
				"element": "C" 
			},
			{
				"x": 2.6588420787,
				"y": -0.0414516135,
				"z": -2.0824520376,
				"element": "C" 
			},
			{
				"x": 1.4378956121,
				"y": -0.8001442601,
				"z": -1.5467006885,
				"element": "C" 
			},
			{
				"x": 1.3736315671,
				"y": -0.8129216629,
				"z": -0.0140462851,
				"element": "C" 
			},
			{
				"x": 0.1485554404,
				"y": -1.5558112213,
				"z": 0.5751042864,
				"element": "C" 
			},
			{
				"x": 0.382244972,
				"y": -1.904021667,
				"z": 1.9895098011,
				"element": "N" 
			},
			{
				"x": 0.1037103952,
				"y": -0.7914853524,
				"z": 2.8949805907,
				"element": "C" 
			},
			{
				"x": -1.3415690232,
				"y": -0.2986233286,
				"z": 2.7912917179,
				"element": "C" 
			},
			{
				"x": -1.6974730986,
				"y": -0.1161468825,
				"z": 1.3875851032,
				"element": "N" 
			},
			{
				"x": -1.1422333709,
				"y": -0.7631943815,
				"z": 0.314014673,
				"element": "C" 
			},
			{
				"x": -1.6322112448,
				"y": -0.6691435471,
				"z": -0.8072957334,
				"element": "O" 
			},
			{
				"x": 1.8528431749,
				"y": 0.4153036915,
				"z": -4.0569944149,
				"element": "H" 
			},
			{
				"x": 3.6179817047,
				"y": 0.5078913386,
				"z": -3.9680752491,
				"element": "H" 
			},
			{
				"x": 2.8130340542,
				"y": -1.0669467577,
				"z": -4.0023493462,
				"element": "H" 
			},
			{
				"x": 3.5759290845,
				"y": -0.4793809624,
				"z": -1.6642123433,
				"element": "H" 
			},
			{
				"x": 2.6273539371,
				"y": 0.9959907187,
				"z": -1.7214836486,
				"element": "H" 
			},
			{
				"x": 0.5176747718,
				"y": -0.3637328242,
				"z": -1.9487216978,
				"element": "H" 
			},
			{
				"x": 1.4667004325,
				"y": -1.8368692149,
				"z": -1.9121261816,
				"element": "H" 
			},
			{
				"x": 1.3958023846,
				"y": 0.2199289756,
				"z": 0.3594266779,
				"element": "H" 
			},
			{
				"x": 2.2595164476,
				"y": -1.312260805,
				"z": 0.3962550795,
				"element": "H" 
			},
			{
				"x": 0.0345258896,
				"y": -2.4948407085,
				"z": 0.0225655222,
				"element": "H" 
			},
			{
				"x": -0.2111704667,
				"y": -2.6915625304,
				"z": 2.2416261012,
				"element": "H" 
			},
			{
				"x": 0.3146346729,
				"y": -1.1010542701,
				"z": 3.9239107171,
				"element": "H" 
			},
			{
				"x": 0.7906906444,
				"y": 0.0282712534,
				"z": 2.6573801823,
				"element": "H" 
			},
			{
				"x": -1.4652348842,
				"y": 0.6535255261,
				"z": 3.3222028183,
				"element": "H" 
			},
			{
				"x": -2.0169185138,
				"y": -1.0262794067,
				"z": 3.2700330339,
				"element": "H" 
			},
			{
				"x": -2.567782811,
				"y": 0.3508500761,
				"z": 1.1644358587,
				"element": "H" 
			}
		],
		 "valence_orbital": [ 
			{
				"type": "occ",
				"energy": -0.31491,
				"method": "rhf"
			},
			{
				"type": "occ",
				"energy": -0.31261,
				"method": "rhf"
			},
			{
				"type": "occ",
				"energy": -0.2654,
				"method": "rhf"
			},
			{
				"type": "occ",
				"energy": -0.24582,
				"method": "rhf"
			},
			{
				"type": "occ",
				"energy": -0.21496,
				"method": "rhf"
			},
			{
				"type": "unocc",
				"energy": 0.02779,
				"method": "rhf"
			},
			{
				"type": "unocc",
				"energy": 0.06845,
				"method": "rhf"
			},
			{
				"type": "unocc",
				"energy": 0.09754,
				"method": "rhf"
			},
			{
				"type": "unocc",
				"energy": 0.10547,
				"method": "rhf"
			},
			{
				"type": "unocc",
				"energy": 0.10995,
				"method": "rhf"
			}
		],
		"cosmo_sigma_profile": { 
			"-0.025": 0.0,
			"-0.024": 0.0,
			"-0.023": 0.0,
			"-0.022": 0.0,
			"-0.021": 0.0,
			"-0.02": 0.0,
			"-0.019": 0.0,
			"-0.018": 0.0,
			"-0.017": 0.0,
			"-0.016": 0.0,
			"-0.015": 0.0,
			"-0.014": 0.0553883749112,
			"-0.013": 0.877693739802,
			"-0.012": 1.10743032083,
			"-0.011": 1.59014190476,
			"-0.01": 2.39826605476,
			"-0.009": 3.11278407133,
			"-0.008": 3.17239614577,
			"-0.007": 2.74190359564,
			"-0.006": 3.41887128064,
			"-0.005": 10.2198774378,
			"-0.004": 17.0811693389,
			"-0.003": 17.8183968469,
			"-0.002": 25.3088473378,
			"-0.001": 26.4496634892,
			"0.0": 25.9557847991,
			"0.001": 21.4629752253,
			"0.002": 13.8229057507,
			"0.003": 4.45722697574,
			"0.004": 3.48302708962,
			"0.005": 2.6964418941,
			"0.006": 2.49854960732,
			"0.007": 2.41916613895,
			"0.008": 2.54544875046,
			"0.009": 2.13996501794,
			"0.01": 2.03746844481,
			"0.011": 2.36351380081,
			"0.012": 2.36954403255,
			"0.013": 2.07867794749,
			"0.014": 5.06657152044,
			"0.015": 4.17124126052,
			"0.016": 0.290270903461,
			"0.017": 0.46420248969,
			"0.018": 0.00498887201595,
			"0.019": 0.0,
			"0.02": 0.0,
			"0.021": 0.0,
			"0.022": 0.0,
			"0.023": 0.0,
			"0.024": 0.0,
			"0.025": 0.0
		}
	}
}
