{
	 "smiles": "FC(F)(F)C1=NC(Cl)=C(C=C1)C#N", 
	 "Tm": 312.15, 
	 "num_atms": 15, 
	 "gaussian": { 
		 "optdone": 1, 
		 "sigma_profile": "yes", 
		 "theory": "DFT", 
		 "functional": "B3LYP", 
		 "basiset": "6-31G**", 
		 "properties": { 
			 "R2extent": 3278.9219, 
			 "electric_dipole_moment_norm": 3.30790279482, 
			 "electric_quadrupole_moment_norm": 16.4595432768, 
			 "total_energy": -1137.14010884, 
			 "HOMO_LUMO_gap": 0.19529, 
			 "cosmo_polarized_energy": -10.46, 
			 "cosmo_cavitation_energy": 24.84, 
			 "cosmo_dispersion_energy": -17.26, 
			 "cosmo_repulsion_energy": 1.32, 
			 "cosmo_total_nonelectrostatic_energy": 8.9, 
			 "SMD_solvation_energy": 5.37 
		},
		"coords": [
			{
				"x": 2.294272842,
				"y": -1.2834894329,
				"z": 0.9046937545,
				"element": "F" 
			},
			{
				"x": 1.492526326,
				"y": -1.3066746031,
				"z": -0.1723541254,
				"element": "C" 
			},
			{
				"x": 2.2683561962,
				"y": -1.3143376649,
				"z": -1.2682937654,
				"element": "F" 
			},
			{
				"x": 0.7964181443,
				"y": -2.4641254182,
				"z": -0.1475407576,
				"element": "F" 
			},
			{
				"x": 0.5545812264,
				"y": -0.1117369409,
				"z": -0.1779530198,
				"element": "C" 
			},
			{
				"x": 1.1646801972,
				"y": 1.0782034648,
				"z": -0.2042187866,
				"element": "N" 
			},
			{
				"x": 0.4199553035,
				"y": 2.1629282558,
				"z": -0.2108306546,
				"element": "C" 
			},
			{
				"x": 1.2517431345,
				"y": 3.694537049,
				"z": -0.2454387746,
				"element": "Cl" 
			},
			{
				"x": -0.9949293974,
				"y": 2.1365585277,
				"z": -0.1915455858,
				"element": "C" 
			},
			{
				"x": -1.6122708604,
				"y": 0.8795298139,
				"z": -0.1642309818,
				"element": "C" 
			},
			{
				"x": -0.8278828017,
				"y": -0.2710679769,
				"z": -0.1572558796,
				"element": "C" 
			},
			{
				"x": -1.7839295272,
				"y": 3.3291542592,
				"z": -0.1991465039,
				"element": "C" 
			},
			{
				"x": -2.459294783,
				"y": 4.2754165136,
				"z": -0.2044742752,
				"element": "N" 
			},
			{
				"x": -2.6950642453,
				"y": 0.8184114229,
				"z": -0.1489711519,
				"element": "H" 
			},
			{
				"x": -1.272161755,
				"y": -1.2577072701,
				"z": -0.1363394921,
				"element": "H" 
			}
		],
		 "valence_orbital": [ 
			{
				"type": "occ",
				"energy": -0.36358,
				"method": "rhf"
			},
			{
				"type": "occ",
				"energy": -0.34075,
				"method": "rhf"
			},
			{
				"type": "occ",
				"energy": -0.32701,
				"method": "rhf"
			},
			{
				"type": "occ",
				"energy": -0.31487,
				"method": "rhf"
			},
			{
				"type": "occ",
				"energy": -0.29406,
				"method": "rhf"
			},
			{
				"type": "unocc",
				"energy": -0.09877,
				"method": "rhf"
			},
			{
				"type": "unocc",
				"energy": -0.07065,
				"method": "rhf"
			},
			{
				"type": "unocc",
				"energy": -0.00073,
				"method": "rhf"
			},
			{
				"type": "unocc",
				"energy": 0.01724,
				"method": "rhf"
			},
			{
				"type": "unocc",
				"energy": 0.03094,
				"method": "rhf"
			}
		],
		"cosmo_sigma_profile": { 
			"-0.025": 0.0,
			"-0.024": 0.0,
			"-0.023": 0.0,
			"-0.022": 0.0,
			"-0.021": 0.0,
			"-0.02": 0.0,
			"-0.019": 0.0,
			"-0.018": 0.0,
			"-0.017": 0.0,
			"-0.016": 0.0,
			"-0.015": 0.0,
			"-0.014": 0.0,
			"-0.013": 0.0,
			"-0.012": 0.00978166822086,
			"-0.011": 1.77037137779,
			"-0.01": 3.62664308335,
			"-0.009": 4.8182394878,
			"-0.008": 3.17406925473,
			"-0.007": 3.66627633724,
			"-0.006": 7.61221228333,
			"-0.005": 14.0139101301,
			"-0.004": 15.176330707,
			"-0.003": 12.1335717602,
			"-0.002": 11.5175136718,
			"-0.001": 9.13932024751,
			"0.0": 10.3450291757,
			"0.001": 17.0425555682,
			"0.002": 38.4092483467,
			"0.003": 16.9309969466,
			"0.004": 7.28743517923,
			"0.005": 4.60264025017,
			"0.006": 4.22359038318,
			"0.007": 4.95621068481,
			"0.008": 3.85353595825,
			"0.009": 4.1693885685,
			"0.01": 2.9236208031,
			"0.011": 2.4684545482,
			"0.012": 0.932869877341,
			"0.013": 0.0,
			"0.014": 0.0,
			"0.015": 0.0,
			"0.016": 0.0,
			"0.017": 0.0,
			"0.018": 0.0,
			"0.019": 0.0,
			"0.02": 0.0,
			"0.021": 0.0,
			"0.022": 0.0,
			"0.023": 0.0,
			"0.024": 0.0,
			"0.025": 0.0
		}
	}
}
