{
	 "smiles": "O=C(NN=CC=CC1=CC=C(O1)N(=O)=O)C1=CC=C(S1)N(=O)=O", 
	 "Tm": 509.15, 
	 "num_atms": 31, 
	 "gaussian": { 
		 "optdone": 1, 
		 "sigma_profile": "yes", 
		 "theory": "DFT", 
		 "functional": "B3LYP", 
		 "basiset": "6-31G**", 
		 "properties": { 
			 "R2extent": 11497.8418, 
			 "electric_dipole_moment_norm": 9.18913171578, 
			 "electric_quadrupole_moment_norm": 25.8850716157, 
			 "total_energy": -1530.34021053, 
			 "HOMO_LUMO_gap": 0.11533, 
			 "cosmo_polarized_energy": -26.69, 
			 "cosmo_cavitation_energy": 42.44, 
			 "cosmo_dispersion_energy": -29.62, 
			 "cosmo_repulsion_energy": 2.2, 
			 "cosmo_total_nonelectrostatic_energy": 15.02, 
			 "SMD_solvation_energy": 13.52 
		},
		"coords": [
			{
				"x": -2.1858159377,
				"y": -3.2466954592,
				"z": -4.1141400862,
				"element": "O" 
			},
			{
				"x": -1.7673335274,
				"y": -2.4743667641,
				"z": -3.2607364993,
				"element": "C" 
			},
			{
				"x": -0.8376781439,
				"y": -2.935768155,
				"z": -2.3446840315,
				"element": "N" 
			},
			{
				"x": -0.3025335814,
				"y": -2.1868050743,
				"z": -1.360418942,
				"element": "N" 
			},
			{
				"x": 0.5552197454,
				"y": -2.7553855796,
				"z": -0.5786518412,
				"element": "C" 
			},
			{
				"x": 1.2060138978,
				"y": -2.0681590659,
				"z": 0.5173487013,
				"element": "C" 
			},
			{
				"x": 1.0139223004,
				"y": -0.7727545611,
				"z": 0.8653467796,
				"element": "C" 
			},
			{
				"x": 1.6788886793,
				"y": -0.1255586427,
				"z": 1.9610332104,
				"element": "C" 
			},
			{
				"x": 2.6080557968,
				"y": -0.5219338668,
				"z": 2.9102788326,
				"element": "C" 
			},
			{
				"x": 2.8681355814,
				"y": 0.6012620897,
				"z": 3.7281509351,
				"element": "C" 
			},
			{
				"x": 2.0817600054,
				"y": 1.6040772444,
				"z": 3.2233619131,
				"element": "C" 
			},
			{
				"x": 1.3591495553,
				"y": 1.1905635419,
				"z": 2.1621996525,
				"element": "O" 
			},
			{
				"x": 1.9311786564,
				"y": 2.9593668583,
				"z": 3.6471883034,
				"element": "N" 
			},
			{
				"x": 1.1520682072,
				"y": 3.6773804119,
				"z": 3.0239015929,
				"element": "O" 
			},
			{
				"x": 2.6135146045,
				"y": 3.2914468488,
				"z": 4.6229567498,
				"element": "O" 
			},
			{
				"x": -2.2377529583,
				"y": -1.0688352467,
				"z": -3.196794838,
				"element": "C" 
			},
			{
				"x": -3.166900983,
				"y": -0.6030909296,
				"z": -4.1099432731,
				"element": "C" 
			},
			{
				"x": -3.512010807,
				"y": 0.7522579736,
				"z": -3.9172628769,
				"element": "C" 
			},
			{
				"x": -2.8276892523,
				"y": 1.2825996717,
				"z": -2.8518696881,
				"element": "C" 
			},
			{
				"x": -1.7600515729,
				"y": 0.1689896618,
				"z": -2.0626835521,
				"element": "S" 
			},
			{
				"x": -2.9323953804,
				"y": 2.6355904982,
				"z": -2.3696860512,
				"element": "N" 
			},
			{
				"x": -2.2380755772,
				"y": 2.9368823593,
				"z": -1.3950877619,
				"element": "O" 
			},
			{
				"x": -3.7037733352,
				"y": 3.3891530764,
				"z": -2.9628043121,
				"element": "O" 
			},
			{
				"x": -0.5757047183,
				"y": -3.9139642717,
				"z": -2.4679893901,
				"element": "H" 
			},
			{
				"x": 0.8232494329,
				"y": -3.8082281912,
				"z": -0.7277222746,
				"element": "H" 
			},
			{
				"x": 1.9026431295,
				"y": -2.6779778117,
				"z": 1.0873687855,
				"element": "H" 
			},
			{
				"x": 0.3206139903,
				"y": -0.1542896231,
				"z": 0.3026561013,
				"element": "H" 
			},
			{
				"x": 3.0463203049,
				"y": -1.5049127811,
				"z": 3.0020074164,
				"element": "H" 
			},
			{
				"x": 3.5338749441,
				"y": 0.6847572247,
				"z": 4.5727220294,
				"element": "H" 
			},
			{
				"x": -3.5673181579,
				"y": -1.2462850829,
				"z": -4.8830486282,
				"element": "H" 
			},
			{
				"x": -4.2150748986,
				"y": 1.3211836462,
				"z": -4.5107969567,
				"element": "H" 
			}
		],
		 "valence_orbital": [ 
			{
				"type": "occ",
				"energy": -0.29103,
				"method": "rhf"
			},
			{
				"type": "occ",
				"energy": -0.28957,
				"method": "rhf"
			},
			{
				"type": "occ",
				"energy": -0.2864,
				"method": "rhf"
			},
			{
				"type": "occ",
				"energy": -0.27377,
				"method": "rhf"
			},
			{
				"type": "occ",
				"energy": -0.23426,
				"method": "rhf"
			},
			{
				"type": "unocc",
				"energy": -0.11893,
				"method": "rhf"
			},
			{
				"type": "unocc",
				"energy": -0.10502,
				"method": "rhf"
			},
			{
				"type": "unocc",
				"energy": -0.07409,
				"method": "rhf"
			},
			{
				"type": "unocc",
				"energy": -0.04094,
				"method": "rhf"
			},
			{
				"type": "unocc",
				"energy": 0.00294,
				"method": "rhf"
			}
		],
		"cosmo_sigma_profile": { 
			"-0.025": 0.0,
			"-0.024": 0.0,
			"-0.023": 0.0,
			"-0.022": 0.0,
			"-0.021": 0.0,
			"-0.02": 0.0,
			"-0.019": 0.0,
			"-0.018": 0.0,
			"-0.017": 0.152589945912,
			"-0.016": 1.28213922868,
			"-0.015": 1.53226730571,
			"-0.014": 1.27039110197,
			"-0.013": 1.29921411629,
			"-0.012": 1.37767376073,
			"-0.011": 1.41668749165,
			"-0.01": 3.24203606702,
			"-0.009": 9.62910251346,
			"-0.008": 11.1762452176,
			"-0.007": 11.5311869748,
			"-0.006": 14.5274996997,
			"-0.005": 15.4665853656,
			"-0.004": 15.7860076871,
			"-0.003": 21.2304923215,
			"-0.002": 30.5743927893,
			"-0.001": 32.1568579724,
			"0.0": 30.6430098739,
			"0.001": 23.0064919813,
			"0.002": 15.4986252953,
			"0.003": 10.6255100962,
			"0.004": 7.78390128683,
			"0.005": 8.44856785895,
			"0.006": 8.23953641053,
			"0.007": 17.8768761591,
			"0.008": 20.2017548381,
			"0.009": 12.0179845481,
			"0.01": 7.89622687296,
			"0.011": 3.85388369898,
			"0.012": 4.53325125747,
			"0.013": 0.209167600932,
			"0.014": 0.0,
			"0.015": 0.0,
			"0.016": 0.0,
			"0.017": 0.0,
			"0.018": 0.0,
			"0.019": 0.0,
			"0.02": 0.0,
			"0.021": 0.0,
			"0.022": 0.0,
			"0.023": 0.0,
			"0.024": 0.0,
			"0.025": 0.0
		}
	}
}
