{
	 "smiles": "C1CCN(CC1)C1=CC=CC=C1", 
	 "Tm": 277.85, 
	 "num_atms": 27, 
	 "gaussian": { 
		 "optdone": 1, 
		 "sigma_profile": "yes", 
		 "theory": "DFT", 
		 "functional": "B3LYP", 
		 "basiset": "6-31G**", 
		 "properties": { 
			 "R2extent": 2560.448, 
			 "electric_dipole_moment_norm": 2.23653993928, 
			 "electric_quadrupole_moment_norm": 4.49671275823, 
			 "total_energy": -482.961229112, 
			 "HOMO_LUMO_gap": 0.19232, 
			 "cosmo_polarized_energy": -4.75, 
			 "cosmo_cavitation_energy": 27.43, 
			 "cosmo_dispersion_energy": -20.72, 
			 "cosmo_repulsion_energy": 1.64, 
			 "cosmo_total_nonelectrostatic_energy": 8.34, 
			 "SMD_solvation_energy": 3.18 
		},
		"coords": [
			{
				"x": -1.1967333739,
				"y": -3.0551792597,
				"z": -1.2175099708,
				"element": "C" 
			},
			{
				"x": -1.8376181724,
				"y": -1.6648124315,
				"z": -1.4167500312,
				"element": "C" 
			},
			{
				"x": -1.3384309185,
				"y": -0.643405638,
				"z": -0.3885526149,
				"element": "C" 
			},
			{
				"x": 0.1100858847,
				"y": -0.4772033878,
				"z": -0.4889565809,
				"element": "N" 
			},
			{
				"x": 0.8973785023,
				"y": -1.6151123929,
				"z": -0.9592740534,
				"element": "C" 
			},
			{
				"x": 0.2104011366,
				"y": -2.9356758363,
				"z": -0.5932621544,
				"element": "C" 
			},
			{
				"x": 0.7185849727,
				"y": 0.7240187747,
				"z": -0.1493545272,
				"element": "C" 
			},
			{
				"x": 0.0419133258,
				"y": 1.6979042693,
				"z": 0.6213131027,
				"element": "C" 
			},
			{
				"x": 0.6579817256,
				"y": 2.902223441,
				"z": 0.9528376601,
				"element": "C" 
			},
			{
				"x": 1.9632491947,
				"y": 3.1823277047,
				"z": 0.5455031314,
				"element": "C" 
			},
			{
				"x": 2.6426804623,
				"y": 2.2263692381,
				"z": -0.2112116907,
				"element": "C" 
			},
			{
				"x": 2.0387207104,
				"y": 1.0210207075,
				"z": -0.5608264609,
				"element": "C" 
			},
			{
				"x": -1.1424613205,
				"y": -3.5706530673,
				"z": -2.1830170553,
				"element": "H" 
			},
			{
				"x": -1.8277874793,
				"y": -3.6763135772,
				"z": -0.5718935215,
				"element": "H" 
			},
			{
				"x": -1.5969844535,
				"y": -1.2820813018,
				"z": -2.415536202,
				"element": "H" 
			},
			{
				"x": -2.9296898402,
				"y": -1.728185852,
				"z": -1.3609590188,
				"element": "H" 
			},
			{
				"x": -1.6484869874,
				"y": -0.9484382258,
				"z": 0.6263364442,
				"element": "H" 
			},
			{
				"x": -1.8146105001,
				"y": 0.3226731518,
				"z": -0.5850831034,
				"element": "H" 
			},
			{
				"x": 1.0739566086,
				"y": -1.5716077741,
				"z": -2.0483549285,
				"element": "H" 
			},
			{
				"x": 1.8811939464,
				"y": -1.5801104646,
				"z": -0.4801958681,
				"element": "H" 
			},
			{
				"x": 0.1399317599,
				"y": -2.9866129118,
				"z": 0.4996248468,
				"element": "H" 
			},
			{
				"x": 0.8464736141,
				"y": -3.7712296506,
				"z": -0.9047330721,
				"element": "H" 
			},
			{
				"x": -0.9590726874,
				"y": 1.5020017007,
				"z": 0.9881249062,
				"element": "H" 
			},
			{
				"x": 0.1084716481,
				"y": 3.6248539599,
				"z": 1.5508625794,
				"element": "H" 
			},
			{
				"x": 2.4386505057,
				"y": 4.1213423078,
				"z": 0.8108888869,
				"element": "H" 
			},
			{
				"x": 3.6570434455,
				"y": 2.4219464158,
				"z": -0.5497454192,
				"element": "H" 
			},
			{
				"x": 2.5857582898,
				"y": 0.3204401002,
				"z": -1.1811752844,
				"element": "H" 
			}
		],
		 "valence_orbital": [ 
			{
				"type": "occ",
				"energy": -0.32334,
				"method": "rhf"
			},
			{
				"type": "occ",
				"energy": -0.31483,
				"method": "rhf"
			},
			{
				"type": "occ",
				"energy": -0.26847,
				"method": "rhf"
			},
			{
				"type": "occ",
				"energy": -0.23433,
				"method": "rhf"
			},
			{
				"type": "occ",
				"energy": -0.17845,
				"method": "rhf"
			},
			{
				"type": "unocc",
				"energy": 0.01387,
				"method": "rhf"
			},
			{
				"type": "unocc",
				"energy": 0.02963,
				"method": "rhf"
			},
			{
				"type": "unocc",
				"energy": 0.07426,
				"method": "rhf"
			},
			{
				"type": "unocc",
				"energy": 0.10488,
				"method": "rhf"
			},
			{
				"type": "unocc",
				"energy": 0.10892,
				"method": "rhf"
			}
		],
		"cosmo_sigma_profile": { 
			"-0.025": 0.0,
			"-0.024": 0.0,
			"-0.023": 0.0,
			"-0.022": 0.0,
			"-0.021": 0.0,
			"-0.02": 0.0,
			"-0.019": 0.0,
			"-0.018": 0.0,
			"-0.017": 0.0,
			"-0.016": 0.0,
			"-0.015": 0.0,
			"-0.014": 0.0,
			"-0.013": 0.0,
			"-0.012": 0.0,
			"-0.011": 0.0,
			"-0.01": 0.0,
			"-0.009": 0.0,
			"-0.008": 0.0,
			"-0.007": 0.0,
			"-0.006": 0.00818441279592,
			"-0.005": 4.75043663637,
			"-0.004": 14.6546217378,
			"-0.003": 27.0742809347,
			"-0.002": 43.5605277957,
			"-0.001": 35.9060104775,
			"0.0": 19.4725358325,
			"0.001": 15.0094783833,
			"0.002": 7.36585761056,
			"0.003": 7.14053882591,
			"0.004": 7.94380981445,
			"0.005": 9.13308910716,
			"0.006": 8.25440344773,
			"0.007": 7.87804087153,
			"0.008": 6.09674453189,
			"0.009": 0.448212177102,
			"0.01": 0.0,
			"0.011": 0.0,
			"0.012": 0.0,
			"0.013": 0.0,
			"0.014": 0.0,
			"0.015": 0.0,
			"0.016": 0.0,
			"0.017": 0.0,
			"0.018": 0.0,
			"0.019": 0.0,
			"0.02": 0.0,
			"0.021": 0.0,
			"0.022": 0.0,
			"0.023": 0.0,
			"0.024": 0.0,
			"0.025": 0.0
		}
	}
}
