{
	 "smiles": "CC1=C(O)C(=O)CC1", 
	 "Tm": 379.15, 
	 "num_atms": 16, 
	 "gaussian": { 
		 "optdone": 1, 
		 "sigma_profile": "yes", 
		 "theory": "DFT", 
		 "functional": "B3LYP", 
		 "basiset": "6-31G**", 
		 "properties": { 
			 "R2extent": 1029.9621, 
			 "electric_dipole_moment_norm": 2.81673407691, 
			 "electric_quadrupole_moment_norm": 3.90977479914, 
			 "total_energy": -383.903151637, 
			 "HOMO_LUMO_gap": 0.1864, 
			 "cosmo_polarized_energy": -8.23, 
			 "cosmo_cavitation_energy": 19.29, 
			 "cosmo_dispersion_energy": -14.54, 
			 "cosmo_repulsion_energy": 1.23, 
			 "cosmo_total_nonelectrostatic_energy": 5.99, 
			 "SMD_solvation_energy": 4.25 
		},
		"coords": [
			{
				"x": -1.6544623691,
				"y": -0.8474735186,
				"z": 2.0160976971,
				"element": "C" 
			},
			{
				"x": -1.0252805704,
				"y": 0.0204008847,
				"z": 0.9771727281,
				"element": "C" 
			},
			{
				"x": 0.2902264204,
				"y": 0.1192558863,
				"z": 0.6902398868,
				"element": "C" 
			},
			{
				"x": 1.3347358951,
				"y": -0.5240986976,
				"z": 1.2555871387,
				"element": "O" 
			},
			{
				"x": 0.5412348703,
				"y": 1.075563975,
				"z": -0.3946833825,
				"element": "C" 
			},
			{
				"x": 1.6616209969,
				"y": 1.3245696538,
				"z": -0.8205080706,
				"element": "O" 
			},
			{
				"x": -0.8011889538,
				"y": 1.6412280018,
				"z": -0.8347030661,
				"element": "C" 
			},
			{
				"x": -1.8336217594,
				"y": 0.9372910959,
				"z": 0.0793615587,
				"element": "C" 
			},
			{
				"x": -2.2151987725,
				"y": -0.2459721416,
				"z": 2.7436107892,
				"element": "H" 
			},
			{
				"x": -0.9041367601,
				"y": -1.4301828267,
				"z": 2.5550996331,
				"element": "H" 
			},
			{
				"x": -2.374593923,
				"y": -1.5422612451,
				"z": 1.5642183861,
				"element": "H" 
			},
			{
				"x": 2.1211283973,
				"y": -0.1917918685,
				"z": 0.7837542476,
				"element": "H" 
			},
			{
				"x": -0.8004928529,
				"y": 2.7301316365,
				"z": -0.7208413698,
				"element": "H" 
			},
			{
				"x": -0.960140407,
				"y": 1.4353065165,
				"z": -1.8981904642,
				"element": "H" 
			},
			{
				"x": -2.5707133609,
				"y": 0.3657603563,
				"z": -0.5004840147,
				"element": "H" 
			},
			{
				"x": -2.4108168509,
				"y": 1.6573722914,
				"z": 0.6747683025,
				"element": "H" 
			}
		],
		 "valence_orbital": [ 
			{
				"type": "occ",
				"energy": -0.36859,
				"method": "rhf"
			},
			{
				"type": "occ",
				"energy": -0.35301,
				"method": "rhf"
			},
			{
				"type": "occ",
				"energy": -0.34088,
				"method": "rhf"
			},
			{
				"type": "occ",
				"energy": -0.25278,
				"method": "rhf"
			},
			{
				"type": "occ",
				"energy": -0.22793,
				"method": "rhf"
			},
			{
				"type": "unocc",
				"energy": -0.04153,
				"method": "rhf"
			},
			{
				"type": "unocc",
				"energy": 0.07643,
				"method": "rhf"
			},
			{
				"type": "unocc",
				"energy": 0.08966,
				"method": "rhf"
			},
			{
				"type": "unocc",
				"energy": 0.09423,
				"method": "rhf"
			},
			{
				"type": "unocc",
				"energy": 0.11894,
				"method": "rhf"
			}
		],
		"cosmo_sigma_profile": { 
			"-0.025": 0.0,
			"-0.024": 0.0,
			"-0.023": 0.0,
			"-0.022": 0.0,
			"-0.021": 0.0,
			"-0.02": 0.0,
			"-0.019": 0.0,
			"-0.018": 0.0,
			"-0.017": 0.0,
			"-0.016": 0.0,
			"-0.015": 0.0596997900263,
			"-0.014": 0.432534073717,
			"-0.013": 0.421098019416,
			"-0.012": 0.839265979436,
			"-0.011": 0.648936037333,
			"-0.01": 0.680636096774,
			"-0.009": 0.777303355754,
			"-0.008": 0.439103985933,
			"-0.007": 0.392682975568,
			"-0.006": 3.4592342234,
			"-0.005": 9.49467237792,
			"-0.004": 21.2545834477,
			"-0.003": 19.2405478345,
			"-0.002": 16.1034134193,
			"-0.001": 18.7644123031,
			"0.0": 11.1366029584,
			"0.001": 6.19517549621,
			"0.002": 4.90216257969,
			"0.003": 4.93009303299,
			"0.004": 2.686092814,
			"0.005": 2.64317275094,
			"0.006": 2.90384471591,
			"0.007": 2.55548302844,
			"0.008": 3.39972733532,
			"0.009": 2.60233651639,
			"0.01": 3.33824113468,
			"0.011": 4.79496451213,
			"0.012": 3.88447007925,
			"0.013": 2.11126354732,
			"0.014": 0.67001697134,
			"0.015": 0.0,
			"0.016": 0.0,
			"0.017": 0.0,
			"0.018": 0.0,
			"0.019": 0.0,
			"0.02": 0.0,
			"0.021": 0.0,
			"0.022": 0.0,
			"0.023": 0.0,
			"0.024": 0.0,
			"0.025": 0.0
		}
	}
}
