{
	 "smiles": "CCCCCCCCCCCCS", 
	 "Tm": 265.65, 
	 "num_atms": 39, 
	 "gaussian": { 
		 "optdone": 1, 
		 "sigma_profile": "yes", 
		 "theory": "DFT", 
		 "functional": "B3LYP", 
		 "basiset": "6-31G**", 
		 "properties": { 
			 "R2extent": 7129.9307, 
			 "electric_dipole_moment_norm": 1.807966305, 
			 "electric_quadrupole_moment_norm": 14.0861261967, 
			 "total_energy": -871.171459953, 
			 "HOMO_LUMO_gap": 0.26438, 
			 "cosmo_polarized_energy": -4.44, 
			 "cosmo_cavitation_energy": 40.48, 
			 "cosmo_dispersion_energy": -28.21, 
			 "cosmo_repulsion_energy": 2.3, 
			 "cosmo_total_nonelectrostatic_energy": 14.57, 
			 "SMD_solvation_energy": 5.01 
		},
		"coords": [
			{
				"x": -4.9640585749,
				"y": -1.2767019615,
				"z": 1.1963093081,
				"element": "C" 
			},
			{
				"x": -4.0759372659,
				"y": -1.7973354299,
				"z": 0.0617415801,
				"element": "C" 
			},
			{
				"x": -2.6329288658,
				"y": -1.2810421376,
				"z": 0.1348721133,
				"element": "C" 
			},
			{
				"x": -1.7435599964,
				"y": -1.8023623898,
				"z": -1.0027254331,
				"element": "C" 
			},
			{
				"x": -0.3094573685,
				"y": -1.2465140633,
				"z": -1.0077421975,
				"element": "C" 
			},
			{
				"x": 0.546352213,
				"y": -1.6827857956,
				"z": 0.1912753292,
				"element": "C" 
			},
			{
				"x": 2.0259319559,
				"y": -1.2677778167,
				"z": 0.0991299619,
				"element": "C" 
			},
			{
				"x": 2.3017473631,
				"y": 0.246634827,
				"z": 0.0786009557,
				"element": "C" 
			},
			{
				"x": 1.8676053652,
				"y": 0.9849043105,
				"z": 1.354417937,
				"element": "C" 
			},
			{
				"x": 2.3006376666,
				"y": 2.4594775562,
				"z": 1.415908801,
				"element": "C" 
			},
			{
				"x": 1.6209383587,
				"y": 3.3617367306,
				"z": 0.37796489,
				"element": "C" 
			},
			{
				"x": 1.9892810311,
				"y": 4.8452788622,
				"z": 0.4880796313,
				"element": "C" 
			},
			{
				"x": 3.7547666518,
				"y": 5.2562734224,
				"z": 0.1326850645,
				"element": "S" 
			},
			{
				"x": -4.5727024814,
				"y": -1.5760627106,
				"z": 2.1754384756,
				"element": "H" 
			},
			{
				"x": -5.0201764963,
				"y": -0.1820459769,
				"z": 1.1853263053,
				"element": "H" 
			},
			{
				"x": -5.9858050209,
				"y": -1.662117182,
				"z": 1.1154247736,
				"element": "H" 
			},
			{
				"x": -4.0675020658,
				"y": -2.8958142966,
				"z": 0.0782340769,
				"element": "H" 
			},
			{
				"x": -4.512807126,
				"y": -1.5133070148,
				"z": -0.9054952252,
				"element": "H" 
			},
			{
				"x": -2.2037137197,
				"y": -1.5612458822,
				"z": 1.1060306819,
				"element": "H" 
			},
			{
				"x": -2.640917272,
				"y": -0.1811896496,
				"z": 0.1124992124,
				"element": "H" 
			},
			{
				"x": -1.7055655321,
				"y": -2.9004611608,
				"z": -0.9581514084,
				"element": "H" 
			},
			{
				"x": -2.2201234191,
				"y": -1.5559240679,
				"z": -1.961498486,
				"element": "H" 
			},
			{
				"x": -0.3540549448,
				"y": -0.1499689512,
				"z": -1.0574040159,
				"element": "H" 
			},
			{
				"x": 0.1904843503,
				"y": -1.5704935174,
				"z": -1.9312421879,
				"element": "H" 
			},
			{
				"x": 0.5010029384,
				"y": -2.7777046648,
				"z": 0.2736064866,
				"element": "H" 
			},
			{
				"x": 0.1126813652,
				"y": -1.2962039569,
				"z": 1.1216171879,
				"element": "H" 
			},
			{
				"x": 2.5680248098,
				"y": -1.7109672325,
				"z": 0.9458326371,
				"element": "H" 
			},
			{
				"x": 2.4601546327,
				"y": -1.715128256,
				"z": -0.8056078938,
				"element": "H" 
			},
			{
				"x": 1.8190059363,
				"y": 0.6952597413,
				"z": -0.7984835427,
				"element": "H" 
			},
			{
				"x": 3.3805390662,
				"y": 0.3987470799,
				"z": -0.0636101672,
				"element": "H" 
			},
			{
				"x": 2.2919629507,
				"y": 0.4616547699,
				"z": 2.2223268106,
				"element": "H" 
			},
			{
				"x": 0.7767625627,
				"y": 0.925010305,
				"z": 1.4701268711,
				"element": "H" 
			},
			{
				"x": 3.3888960636,
				"y": 2.5287455697,
				"z": 1.2981107765,
				"element": "H" 
			},
			{
				"x": 2.0761395565,
				"y": 2.852754692,
				"z": 2.4171663018,
				"element": "H" 
			},
			{
				"x": 1.8432737266,
				"y": 3.0132092583,
				"z": -0.6382539537,
				"element": "H" 
			},
			{
				"x": 0.5294738382,
				"y": 3.2856819572,
				"z": 0.4940234087,
				"element": "H" 
			},
			{
				"x": 1.835276468,
				"y": 5.2056310023,
				"z": 1.5106452946,
				"element": "H" 
			},
			{
				"x": 1.3584073732,
				"y": 5.4535507785,
				"z": -0.1655514855,
				"element": "H" 
			},
			{
				"x": 3.7424639059,
				"y": 4.8891032519,
				"z": -1.1654288761,
				"element": "H" 
			}
		],
		 "valence_orbital": [ 
			{
				"type": "occ",
				"energy": -0.31099,
				"method": "rhf"
			},
			{
				"type": "occ",
				"energy": -0.30612,
				"method": "rhf"
			},
			{
				"type": "occ",
				"energy": -0.3017,
				"method": "rhf"
			},
			{
				"type": "occ",
				"energy": -0.30128,
				"method": "rhf"
			},
			{
				"type": "occ",
				"energy": -0.23348,
				"method": "rhf"
			},
			{
				"type": "unocc",
				"energy": 0.0309,
				"method": "rhf"
			},
			{
				"type": "unocc",
				"energy": 0.07388,
				"method": "rhf"
			},
			{
				"type": "unocc",
				"energy": 0.07981,
				"method": "rhf"
			},
			{
				"type": "unocc",
				"energy": 0.0955,
				"method": "rhf"
			},
			{
				"type": "unocc",
				"energy": 0.10025,
				"method": "rhf"
			}
		],
		"cosmo_sigma_profile": { 
			"-0.025": 0.0,
			"-0.024": 0.0,
			"-0.023": 0.0,
			"-0.022": 0.0,
			"-0.021": 0.0,
			"-0.02": 0.0,
			"-0.019": 0.0,
			"-0.018": 0.0,
			"-0.017": 0.0,
			"-0.016": 0.0,
			"-0.015": 0.0,
			"-0.014": 0.0,
			"-0.013": 0.0,
			"-0.012": 0.0,
			"-0.011": 0.0,
			"-0.01": 0.0,
			"-0.009": 0.389269392669,
			"-0.008": 1.97651726595,
			"-0.007": 2.26958193399,
			"-0.006": 2.05625738782,
			"-0.005": 5.56276231926,
			"-0.004": 7.20028792433,
			"-0.003": 12.2930233837,
			"-0.002": 37.6618997733,
			"-0.001": 63.5691749995,
			"0.0": 69.1043371223,
			"0.001": 57.1262405156,
			"0.002": 25.6202480274,
			"0.003": 4.153447006,
			"0.004": 3.4236646519,
			"0.005": 4.26215023196,
			"0.006": 4.07400914561,
			"0.007": 2.95759542403,
			"0.008": 2.90947686364,
			"0.009": 2.54220509413,
			"0.01": 1.97797790853,
			"0.011": 1.1777724076,
			"0.012": 0.114331564696,
			"0.013": 0.0,
			"0.014": 0.0,
			"0.015": 0.0,
			"0.016": 0.0,
			"0.017": 0.0,
			"0.018": 0.0,
			"0.019": 0.0,
			"0.02": 0.0,
			"0.021": 0.0,
			"0.022": 0.0,
			"0.023": 0.0,
			"0.024": 0.0,
			"0.025": 0.0
		}
	}
}
