{
	 "smiles": "OC(=O)CCCCCCCCCCC(O)=O", 
	 "Tm": 401.15, 
	 "num_atms": 38, 
	 "gaussian": { 
		 "optdone": 1, 
		 "sigma_profile": "yes", 
		 "theory": "DFT", 
		 "functional": "B3LYP", 
		 "basiset": "6-31G**", 
		 "properties": { 
			 "R2extent": 5770.2205, 
			 "electric_dipole_moment_norm": 4.69485191886, 
			 "electric_quadrupole_moment_norm": 9.71724509828, 
			 "total_energy": -771.477331529, 
			 "HOMO_LUMO_gap": 0.27238, 
			 "cosmo_polarized_energy": -20.31, 
			 "cosmo_cavitation_energy": 39.66, 
			 "cosmo_dispersion_energy": -25.85, 
			 "cosmo_repulsion_energy": 2.06, 
			 "cosmo_total_nonelectrostatic_energy": 15.86, 
			 "SMD_solvation_energy": 7.5 
		},
		"coords": [
			{
				"x": 1.7574644702,
				"y": -0.9406765759,
				"z": -0.7595983129,
				"element": "O" 
			},
			{
				"x": 1.8001740149,
				"y": -0.2057379927,
				"z": -1.9137701273,
				"element": "C" 
			},
			{
				"x": 1.2492171736,
				"y": -0.616237831,
				"z": -2.9024269121,
				"element": "O" 
			},
			{
				"x": 2.5582057063,
				"y": 1.1104938401,
				"z": -1.8153220951,
				"element": "C" 
			},
			{
				"x": 1.907075738,
				"y": 2.1187315955,
				"z": -0.8445108677,
				"element": "C" 
			},
			{
				"x": 0.5257429186,
				"y": 2.605224726,
				"z": -1.304889018,
				"element": "C" 
			},
			{
				"x": -0.1243818194,
				"y": 3.6247129173,
				"z": -0.3532294797,
				"element": "C" 
			},
			{
				"x": -0.5708475098,
				"y": 3.1198796543,
				"z": 1.0345452509,
				"element": "C" 
			},
			{
				"x": -1.8031662703,
				"y": 2.1862591046,
				"z": 1.0466028719,
				"element": "C" 
			},
			{
				"x": -1.5440107676,
				"y": 0.6714738088,
				"z": 0.9277935536,
				"element": "C" 
			},
			{
				"x": -0.899153873,
				"y": 0.0501539712,
				"z": 2.1758210206,
				"element": "C" 
			},
			{
				"x": -0.5663469573,
				"y": -1.4461821101,
				"z": 2.0416234451,
				"element": "C" 
			},
			{
				"x": -1.7793408821,
				"y": -2.3671844891,
				"z": 1.7680105797,
				"element": "C" 
			},
			{
				"x": -2.8432338276,
				"y": -2.2354677521,
				"z": 2.8318162711,
				"element": "C" 
			},
			{
				"x": -2.5154984341,
				"y": -2.9100338277,
				"z": 3.9641664725,
				"element": "O" 
			},
			{
				"x": -3.8633432184,
				"y": -1.5857234458,
				"z": 2.7414099399,
				"element": "O" 
			},
			{
				"x": 2.2491211568,
				"y": -0.4898493743,
				"z": -0.0585995171,
				"element": "H" 
			},
			{
				"x": 3.5875015663,
				"y": 0.8982271237,
				"z": -1.4958830973,
				"element": "H" 
			},
			{
				"x": 2.6050296552,
				"y": 1.5265220661,
				"z": -2.8243079606,
				"element": "H" 
			},
			{
				"x": 2.5787202782,
				"y": 2.9801605902,
				"z": -0.7427598136,
				"element": "H" 
			},
			{
				"x": 1.8371753394,
				"y": 1.6778009049,
				"z": 0.1593606405,
				"element": "H" 
			},
			{
				"x": -0.1414857554,
				"y": 1.7499282156,
				"z": -1.4619057925,
				"element": "H" 
			},
			{
				"x": 0.6409457001,
				"y": 3.0735867196,
				"z": -2.2913727126,
				"element": "H" 
			},
			{
				"x": 0.5800644869,
				"y": 4.45635804,
				"z": -0.2098573818,
				"element": "H" 
			},
			{
				"x": -0.9989357067,
				"y": 4.0586919331,
				"z": -0.8555974051,
				"element": "H" 
			},
			{
				"x": 0.2706683438,
				"y": 2.6459747688,
				"z": 1.5569199671,
				"element": "H" 
			},
			{
				"x": -0.8113432197,
				"y": 4.0086404056,
				"z": 1.6310116637,
				"element": "H" 
			},
			{
				"x": -2.4822022915,
				"y": 2.4953107738,
				"z": 0.2407128323,
				"element": "H" 
			},
			{
				"x": -2.3601536624,
				"y": 2.3523795421,
				"z": 1.9781874412,
				"element": "H" 
			},
			{
				"x": -0.9215536771,
				"y": 0.449539782,
				"z": 0.0521155544,
				"element": "H" 
			},
			{
				"x": -2.5083446581,
				"y": 0.1811793642,
				"z": 0.7526708317,
				"element": "H" 
			},
			{
				"x": -1.5650847576,
				"y": 0.207740183,
				"z": 3.0350907598,
				"element": "H" 
			},
			{
				"x": 0.0317835736,
				"y": 0.5796481107,
				"z": 2.4199033345,
				"element": "H" 
			},
			{
				"x": 0.1422149432,
				"y": -1.5905723569,
				"z": 1.2176343675,
				"element": "H" 
			},
			{
				"x": -0.0696191817,
				"y": -1.7893972087,
				"z": 2.956763477,
				"element": "H" 
			},
			{
				"x": -2.2430848713,
				"y": -2.12426155,
				"z": 0.8101494329,
				"element": "H" 
			},
			{
				"x": -1.4363316485,
				"y": -3.4058622868,
				"z": 1.7323008657,
				"element": "H" 
			},
			{
				"x": -3.2347420754,
				"y": -2.73743134,
				"z": 4.5950199194,
				"element": "H" 
			}
		],
		 "valence_orbital": [ 
			{
				"type": "occ",
				"energy": -0.31219,
				"method": "rhf"
			},
			{
				"type": "occ",
				"energy": -0.30623,
				"method": "rhf"
			},
			{
				"type": "occ",
				"energy": -0.30526,
				"method": "rhf"
			},
			{
				"type": "occ",
				"energy": -0.27021,
				"method": "rhf"
			},
			{
				"type": "occ",
				"energy": -0.2675,
				"method": "rhf"
			},
			{
				"type": "unocc",
				"energy": 0.00488,
				"method": "rhf"
			},
			{
				"type": "unocc",
				"energy": 0.01032,
				"method": "rhf"
			},
			{
				"type": "unocc",
				"energy": 0.03509,
				"method": "rhf"
			},
			{
				"type": "unocc",
				"energy": 0.07678,
				"method": "rhf"
			},
			{
				"type": "unocc",
				"energy": 0.08398,
				"method": "rhf"
			}
		],
		"cosmo_sigma_profile": { 
			"-0.025": 0.0,
			"-0.024": 0.0,
			"-0.023": 0.0,
			"-0.022": 0.0,
			"-0.021": 0.0,
			"-0.02": 0.0,
			"-0.019": 0.015812912396,
			"-0.018": 0.848403157344,
			"-0.017": 1.60251618905,
			"-0.016": 2.18070808349,
			"-0.015": 1.62092068007,
			"-0.014": 1.75116719794,
			"-0.013": 1.09940212651,
			"-0.012": 1.93385086157,
			"-0.011": 2.26789520909,
			"-0.01": 1.81329515271,
			"-0.009": 1.50453564858,
			"-0.008": 1.71688262627,
			"-0.007": 3.36619530864,
			"-0.006": 5.18597003455,
			"-0.005": 7.80806659503,
			"-0.004": 13.1806245639,
			"-0.003": 29.0544501682,
			"-0.002": 44.1635040134,
			"-0.001": 43.8435909389,
			"0.0": 38.0099354789,
			"0.001": 26.6404186687,
			"0.002": 11.631334038,
			"0.003": 5.70241374903,
			"0.004": 5.14706930489,
			"0.005": 5.69031996691,
			"0.006": 4.2735528345,
			"0.007": 5.49569569748,
			"0.008": 4.66615606195,
			"0.009": 5.3958539683,
			"0.01": 6.62412341756,
			"0.011": 6.91048337985,
			"0.012": 11.1740470153,
			"0.013": 4.11532341716,
			"0.014": 0.139854326808,
			"0.015": 0.0,
			"0.016": 0.0,
			"0.017": 0.0,
			"0.018": 0.0,
			"0.019": 0.0,
			"0.02": 0.0,
			"0.021": 0.0,
			"0.022": 0.0,
			"0.023": 0.0,
			"0.024": 0.0,
			"0.025": 0.0
		}
	}
}
