{
	 "smiles": "CN1C=C(C=N1)C1=CSC(N)=N1", 
	 "Tm": 504.15, 
	 "num_atms": 20, 
	 "gaussian": { 
		 "optdone": 1, 
		 "sigma_profile": "yes", 
		 "theory": "DFT", 
		 "functional": "B3LYP", 
		 "basiset": "6-31G**", 
		 "properties": { 
			 "R2extent": 3981.6068, 
			 "electric_dipole_moment_norm": 3.06195877993, 
			 "electric_quadrupole_moment_norm": 12.5310528113, 
			 "total_energy": -888.735330259, 
			 "HOMO_LUMO_gap": 0.18471, 
			 "cosmo_polarized_energy": -14.87, 
			 "cosmo_cavitation_energy": 26.41, 
			 "cosmo_dispersion_energy": -20.15, 
			 "cosmo_repulsion_energy": 1.56, 
			 "cosmo_total_nonelectrostatic_energy": 7.82, 
			 "SMD_solvation_energy": 2.62 
		},
		"coords": [
			{
				"x": -1.1540614827,
				"y": -1.0738126012,
				"z": -3.594711337,
				"element": "C" 
			},
			{
				"x": -0.3144821481,
				"y": -0.1536704209,
				"z": -2.8528447501,
				"element": "N" 
			},
			{
				"x": -0.5490938123,
				"y": 0.3988644062,
				"z": -1.6358746528,
				"element": "C" 
			},
			{
				"x": 0.536640771,
				"y": 1.2131280746,
				"z": -1.341958272,
				"element": "C" 
			},
			{
				"x": 1.3794830632,
				"y": 1.0704209934,
				"z": -2.474415473,
				"element": "C" 
			},
			{
				"x": 0.8640973318,
				"y": 0.2463204052,
				"z": -3.3832489774,
				"element": "N" 
			},
			{
				"x": 0.7161572448,
				"y": 2.0087974817,
				"z": -0.1339595693,
				"element": "C" 
			},
			{
				"x": 1.7820170563,
				"y": 2.8159906935,
				"z": 0.1534076897,
				"element": "C" 
			},
			{
				"x": 1.5652965552,
				"y": 3.58018232,
				"z": 1.7097720655,
				"element": "S" 
			},
			{
				"x": 0.0295321964,
				"y": 2.7131842783,
				"z": 1.8558693068,
				"element": "C" 
			},
			{
				"x": -0.7957656801,
				"y": 2.9126639644,
				"z": 2.9419976517,
				"element": "N" 
			},
			{
				"x": -0.2712832277,
				"y": 1.9547996411,
				"z": 0.8448596874,
				"element": "N" 
			},
			{
				"x": -0.6190795456,
				"y": -2.0097148087,
				"z": -3.7770871709,
				"element": "H" 
			},
			{
				"x": -1.4370544858,
				"y": -0.6357402957,
				"z": -4.5556352881,
				"element": "H" 
			},
			{
				"x": -2.0537548688,
				"y": -1.2794291322,
				"z": -3.0125613274,
				"element": "H" 
			},
			{
				"x": -1.4416357082,
				"y": 0.1931745835,
				"z": -1.0653635419,
				"element": "H" 
			},
			{
				"x": 2.3386153944,
				"y": 1.5353363653,
				"z": -2.6613961565,
				"element": "H" 
			},
			{
				"x": 2.6676086209,
				"y": 3.0064292578,
				"z": -0.433979575,
				"element": "H" 
			},
			{
				"x": -0.343368966,
				"y": 3.0981826361,
				"z": 3.8259574503,
				"element": "H" 
			},
			{
				"x": -1.5341683086,
				"y": 2.2233921575,
				"z": 3.00127224,
				"element": "H" 
			}
		],
		 "valence_orbital": [ 
			{
				"type": "occ",
				"energy": -0.28094,
				"method": "rhf"
			},
			{
				"type": "occ",
				"energy": -0.27012,
				"method": "rhf"
			},
			{
				"type": "occ",
				"energy": -0.24689,
				"method": "rhf"
			},
			{
				"type": "occ",
				"energy": -0.24053,
				"method": "rhf"
			},
			{
				"type": "occ",
				"energy": -0.1918,
				"method": "rhf"
			},
			{
				"type": "unocc",
				"energy": -0.00709,
				"method": "rhf"
			},
			{
				"type": "unocc",
				"energy": 0.01476,
				"method": "rhf"
			},
			{
				"type": "unocc",
				"energy": 0.02163,
				"method": "rhf"
			},
			{
				"type": "unocc",
				"energy": 0.04443,
				"method": "rhf"
			},
			{
				"type": "unocc",
				"energy": 0.07279,
				"method": "rhf"
			}
		],
		"cosmo_sigma_profile": { 
			"-0.025": 0.0,
			"-0.024": 0.0,
			"-0.023": 0.0,
			"-0.022": 0.0,
			"-0.021": 0.0,
			"-0.02": 0.0,
			"-0.019": 0.0,
			"-0.018": 0.0,
			"-0.017": 0.0,
			"-0.016": 0.0,
			"-0.015": 0.311391008279,
			"-0.014": 1.66196115075,
			"-0.013": 2.82320560838,
			"-0.012": 2.59888427157,
			"-0.011": 2.32083941704,
			"-0.01": 2.49205590544,
			"-0.009": 3.18677635195,
			"-0.008": 7.29320371861,
			"-0.007": 9.08812022594,
			"-0.006": 12.0016152862,
			"-0.005": 10.7902472319,
			"-0.004": 12.2763286923,
			"-0.003": 14.0865062814,
			"-0.002": 9.69416504408,
			"-0.001": 8.42484779767,
			"0.0": 8.64780364534,
			"0.001": 8.92841862325,
			"0.002": 12.9637218747,
			"0.003": 13.9312752864,
			"0.004": 20.6404083159,
			"0.005": 18.0636975465,
			"0.006": 5.93849212119,
			"0.007": 4.73691867449,
			"0.008": 3.86104194924,
			"0.009": 2.96398366673,
			"0.01": 3.92320009295,
			"0.011": 2.66445883756,
			"0.012": 3.16638846468,
			"0.013": 1.18490031377,
			"0.014": 1.03609775865,
			"0.015": 1.03212071659,
			"0.016": 0.598855525598,
			"0.017": 0.0,
			"0.018": 0.0,
			"0.019": 0.0,
			"0.02": 0.0,
			"0.021": 0.0,
			"0.022": 0.0,
			"0.023": 0.0,
			"0.024": 0.0,
			"0.025": 0.0
		}
	}
}
