{
	 "smiles": "BrCC1=CC=CC=C1I", 
	 "Tm": 329.15, 
	 "num_atms": 15, 
	 "gaussian": { 
		 "optdone": 1, 
		 "sigma_profile": "no", 
		 "theory": "DFT", 
		 "functional": "B3LYP", 
		 "basiset": "6-31G**", 
		 "properties": { 
			 "R2extent": 2865.0627, 
			 "electric_dipole_moment_norm": 2.92290708029, 
			 "electric_quadrupole_moment_norm": 5.00774469697, 
			 "total_energy": -2853.15327297, 
			 "HOMO_LUMO_gap": 0.19769, 
			 "cosmo_polarized_energy": -82221.92, 
			 "cosmo_cavitation_energy": 24.03, 
			 "cosmo_dispersion_energy": -19.13, 
			 "cosmo_repulsion_energy": 1.53, 
			 "cosmo_total_nonelectrostatic_energy": 6.43, 
			 "SMD_solvation_energy": 2.05 
		},
		"coords": [
			{
				"x": 3.4149321259,
				"y": 0.3433963129,
				"z": 0.9610909518,
				"element": "Br" 
			},
			{
				"x": 2.5195751058,
				"y": 0.7163296849,
				"z": -0.79121194,
				"element": "C" 
			},
			{
				"x": 1.0301685873,
				"y": 0.7143910849,
				"z": -0.67545125,
				"element": "C" 
			},
			{
				"x": 0.341196641,
				"y": -0.4941046596,
				"z": -0.8771884219,
				"element": "C" 
			},
			{
				"x": -1.0455869635,
				"y": -0.5690438258,
				"z": -0.7992832928,
				"element": "C" 
			},
			{
				"x": -1.7829961746,
				"y": 0.580642783,
				"z": -0.5146656103,
				"element": "C" 
			},
			{
				"x": -1.1291380054,
				"y": 1.7953590888,
				"z": -0.3094483315,
				"element": "C" 
			},
			{
				"x": 0.2642310008,
				"y": 1.8576033124,
				"z": -0.387461152,
				"element": "C" 
			},
			{
				"x": 1.1672726651,
				"y": 3.7545782137,
				"z": -0.0539291943,
				"element": "I" 
			},
			{
				"x": 2.8738684019,
				"y": -0.0771034969,
				"z": -1.4459537749,
				"element": "H" 
			},
			{
				"x": 2.9252508239,
				"y": 1.6746904535,
				"z": -1.1056086252,
				"element": "H" 
			},
			{
				"x": 0.9197218576,
				"y": -1.3882841898,
				"z": -1.0933927748,
				"element": "H" 
			},
			{
				"x": -1.5475870705,
				"y": -1.517850971,
				"z": -0.9611789779,
				"element": "H" 
			},
			{
				"x": -2.8663147169,
				"y": 0.5397392193,
				"z": -0.4521087669,
				"element": "H" 
			},
			{
				"x": -1.7003942784,
				"y": 2.6901569897,
				"z": -0.0903088394,
				"element": "H" 
			}
		],
		 "valence_orbital": [ 
			{
				"type": "occ",
				"energy": -0.27962,
				"method": "rhf"
			},
			{
				"type": "occ",
				"energy": -0.27209,
				"method": "rhf"
			},
			{
				"type": "occ",
				"energy": -0.26877,
				"method": "rhf"
			},
			{
				"type": "occ",
				"energy": -0.26158,
				"method": "rhf"
			},
			{
				"type": "occ",
				"energy": -0.24532,
				"method": "rhf"
			},
			{
				"type": "unocc",
				"energy": -0.04763,
				"method": "rhf"
			},
			{
				"type": "unocc",
				"energy": -0.04256,
				"method": "rhf"
			},
			{
				"type": "unocc",
				"energy": -0.0242,
				"method": "rhf"
			},
			{
				"type": "unocc",
				"energy": 0.01948,
				"method": "rhf"
			},
			{
				"type": "unocc",
				"energy": 0.04467,
				"method": "rhf"
			}
		],
		"cosmo_sigma_profile": { 
			"0.0": 0.0,
			"0.0": 0.0,
			"0.0": 0.0,
			"0.0": 0.0,
			"0.0": 0.0,
			"0.0": 0.0,
			"0.0": 0.0,
			"0.0": 0.0,
			"0.0": 0.0,
			"0.0": 0.0,
			"0.0": 0.0,
			"0.0": 0.0,
			"0.0": 0.0,
			"0.0": 0.0,
			"0.0": 0.0,
			"0.0": 0.0,
			"0.0": 0.0,
			"0.0": 0.0,
			"0.0": 0.0,
			"0.0": 0.0,
			"0.0": 0.0,
			"0.0": 0.0,
			"0.0": 0.0,
			"0.0": 0.0,
			"0.0": 0.0,
			"0.0": 0.0,
			"0.0": 0.0,
			"0.0": 0.0,
			"0.0": 0.0,
			"0.0": 0.0,
			"0.0": 0.0,
			"0.0": 0.0,
			"0.0": 0.0,
			"0.0": 0.0,
			"0.0": 0.0,
			"0.0": 0.0,
			"0.0": 0.0,
			"0.0": 0.0,
			"0.0": 0.0,
			"0.0": 0.0,
			"0.0": 0.0,
			"0.0": 0.0,
			"0.0": 0.0,
			"0.0": 0.0,
			"0.0": 0.0,
			"0.0": 0.0,
			"0.0": 0.0,
			"0.0": 0.0,
			"0.0": 0.0,
			"0.0": 0.0,
			"0.0": 0.0
		}
	}
}
