{
	 "smiles": "ClC1=C2C=CC=CC2=NC(=N1)C1=CN=CC=C1", 
	 "Tm": 454.15, 
	 "num_atms": 25, 
	 "gaussian": { 
		 "optdone": 1, 
		 "sigma_profile": "yes", 
		 "theory": "DFT", 
		 "functional": "B3LYP", 
		 "basiset": "6-31G**", 
		 "properties": { 
			 "R2extent": 5645.136, 
			 "electric_dipole_moment_norm": 2.91467146348, 
			 "electric_quadrupole_moment_norm": 23.3954471002, 
			 "total_energy": -1124.66334135, 
			 "HOMO_LUMO_gap": 0.15873, 
			 "cosmo_polarized_energy": -9.06, 
			 "cosmo_cavitation_energy": 31.69, 
			 "cosmo_dispersion_energy": -23.7, 
			 "cosmo_repulsion_energy": 1.8, 
			 "cosmo_total_nonelectrostatic_energy": 9.78, 
			 "SMD_solvation_energy": 1.36 
		},
		"coords": [
			{
				"x": -1.0163443112,
				"y": -0.1143314556,
				"z": -4.3453716934,
				"element": "Cl" 
			},
			{
				"x": -0.7327296345,
				"y": -0.6141551123,
				"z": -2.6771833337,
				"element": "C" 
			},
			{
				"x": -0.9200119373,
				"y": -1.9803503892,
				"z": -2.3185998965,
				"element": "C" 
			},
			{
				"x": -1.3239831521,
				"y": -3.0255907384,
				"z": -3.1822307721,
				"element": "C" 
			},
			{
				"x": -1.4631843294,
				"y": -4.305099646,
				"z": -2.6893158912,
				"element": "C" 
			},
			{
				"x": -1.20491108,
				"y": -4.5820350182,
				"z": -1.3242438946,
				"element": "C" 
			},
			{
				"x": -0.810588473,
				"y": -3.5817034388,
				"z": -0.4637339385,
				"element": "C" 
			},
			{
				"x": -0.657626661,
				"y": -2.2534224533,
				"z": -0.938592075,
				"element": "C" 
			},
			{
				"x": -0.2671690538,
				"y": -1.2798408773,
				"z": -0.0722910009,
				"element": "N" 
			},
			{
				"x": -0.1345845067,
				"y": -0.0564234768,
				"z": -0.5464332102,
				"element": "C" 
			},
			{
				"x": -0.360546135,
				"y": 0.3119085928,
				"z": -1.8498745375,
				"element": "N" 
			},
			{
				"x": 0.2888754612,
				"y": 1.0240137657,
				"z": 0.3714332081,
				"element": "C" 
			},
			{
				"x": 0.5466904704,
				"y": 0.7568234536,
				"z": 1.7273253383,
				"element": "C" 
			},
			{
				"x": 0.9314776021,
				"y": 1.6834699139,
				"z": 2.6085570855,
				"element": "N" 
			},
			{
				"x": 1.0762956516,
				"y": 2.9382952459,
				"z": 2.1593079539,
				"element": "C" 
			},
			{
				"x": 0.8474151337,
				"y": 3.3156389962,
				"z": 0.8351376852,
				"element": "C" 
			},
			{
				"x": 0.446823786,
				"y": 2.3426954363,
				"z": -0.0752316007,
				"element": "C" 
			},
			{
				"x": -1.5198471876,
				"y": -2.806091071,
				"z": -4.2255775753,
				"element": "H" 
			},
			{
				"x": -1.7729715693,
				"y": -5.108834766,
				"z": -3.3499204126,
				"element": "H" 
			},
			{
				"x": -1.3205702847,
				"y": -5.5972162716,
				"z": -0.9560733736,
				"element": "H" 
			},
			{
				"x": -0.6073314747,
				"y": -3.7698062042,
				"z": 0.5849259995,
				"element": "H" 
			},
			{
				"x": 0.4314566053,
				"y": -0.257519233,
				"z": 2.0986219799,
				"element": "H" 
			},
			{
				"x": 1.3906450012,
				"y": 3.6764304293,
				"z": 2.8953351726,
				"element": "H" 
			},
			{
				"x": 0.9808669159,
				"y": 4.3481723795,
				"z": 0.52805615,
				"element": "H" 
			},
			{
				"x": 0.2553531631,
				"y": 2.5802719384,
				"z": -1.1157273672,
				"element": "H" 
			}
		],
		 "valence_orbital": [ 
			{
				"type": "occ",
				"energy": -0.28002,
				"method": "rhf"
			},
			{
				"type": "occ",
				"energy": -0.26999,
				"method": "rhf"
			},
			{
				"type": "occ",
				"energy": -0.26847,
				"method": "rhf"
			},
			{
				"type": "occ",
				"energy": -0.25117,
				"method": "rhf"
			},
			{
				"type": "occ",
				"energy": -0.24049,
				"method": "rhf"
			},
			{
				"type": "unocc",
				"energy": -0.08176,
				"method": "rhf"
			},
			{
				"type": "unocc",
				"energy": -0.06043,
				"method": "rhf"
			},
			{
				"type": "unocc",
				"energy": -0.01975,
				"method": "rhf"
			},
			{
				"type": "unocc",
				"energy": -0.00592,
				"method": "rhf"
			},
			{
				"type": "unocc",
				"energy": 0.01204,
				"method": "rhf"
			}
		],
		"cosmo_sigma_profile": { 
			"-0.025": 0.0,
			"-0.024": 0.0,
			"-0.023": 0.0,
			"-0.022": 0.0,
			"-0.021": 0.0,
			"-0.02": 0.0,
			"-0.019": 0.0,
			"-0.018": 0.0,
			"-0.017": 0.0,
			"-0.016": 0.0,
			"-0.015": 0.0,
			"-0.014": 0.0,
			"-0.013": 0.0,
			"-0.012": 0.0,
			"-0.011": 0.0,
			"-0.01": 0.0,
			"-0.009": 0.0,
			"-0.008": 0.733486269408,
			"-0.007": 10.43327202,
			"-0.006": 14.5337118649,
			"-0.005": 15.7520854421,
			"-0.004": 13.6752606139,
			"-0.003": 16.8784406524,
			"-0.002": 19.677191982,
			"-0.001": 20.8123444637,
			"0.0": 27.708011061,
			"0.001": 33.7341441985,
			"0.002": 30.2951818391,
			"0.003": 16.8254113069,
			"0.004": 10.0174345798,
			"0.005": 6.1829312443,
			"0.006": 4.31415085473,
			"0.007": 4.82540673541,
			"0.008": 4.49613911645,
			"0.009": 1.84177920598,
			"0.01": 1.09208861238,
			"0.011": 0.703739949666,
			"0.012": 1.3513970149,
			"0.013": 0.770709550137,
			"0.014": 0.674861164382,
			"0.015": 1.09825457618,
			"0.016": 0.734760581037,
			"0.017": 0.143051010651,
			"0.018": 0.0,
			"0.019": 0.0,
			"0.02": 0.0,
			"0.021": 0.0,
			"0.022": 0.0,
			"0.023": 0.0,
			"0.024": 0.0,
			"0.025": 0.0
		}
	}
}
