{
	 "smiles": "OC(=O)C1=CC(=C(Cl)C=C1)S(=O)(=O)NC1CC1", 
	 "Tm": 495.15, 
	 "num_atms": 27, 
	 "gaussian": { 
		 "optdone": 1, 
		 "sigma_profile": "yes", 
		 "theory": "DFT", 
		 "functional": "B3LYP", 
		 "basiset": "6-31G**", 
		 "properties": { 
			 "R2extent": 5339.5437, 
			 "electric_dipole_moment_norm": 6.31635869311, 
			 "electric_quadrupole_moment_norm": 24.8095199941, 
			 "total_energy": -1601.0219788, 
			 "HOMO_LUMO_gap": 0.18635, 
			 "cosmo_polarized_energy": -20.48, 
			 "cosmo_cavitation_energy": 34.63, 
			 "cosmo_dispersion_energy": -24.53, 
			 "cosmo_repulsion_energy": 1.87, 
			 "cosmo_total_nonelectrostatic_energy": 11.97, 
			 "SMD_solvation_energy": 5.21 
		},
		"coords": [
			{
				"x": -4.0114725338,
				"y": 1.0484617824,
				"z": 1.7559610157,
				"element": "O" 
			},
			{
				"x": -2.7386568013,
				"y": 1.5143110998,
				"z": 1.7548286394,
				"element": "C" 
			},
			{
				"x": -2.2817417053,
				"y": 2.1706175328,
				"z": 2.6669364477,
				"element": "O" 
			},
			{
				"x": -1.9871983363,
				"y": 1.1294378427,
				"z": 0.5278228158,
				"element": "C" 
			},
			{
				"x": -0.664627946,
				"y": 1.5677142048,
				"z": 0.4063530722,
				"element": "C" 
			},
			{
				"x": 0.0927267365,
				"y": 1.2395437686,
				"z": -0.7168882924,
				"element": "C" 
			},
			{
				"x": -0.4885745997,
				"y": 0.4564313859,
				"z": -1.7266742938,
				"element": "C" 
			},
			{
				"x": 0.4008069667,
				"y": -0.0278153205,
				"z": -3.1571272531,
				"element": "Cl" 
			},
			{
				"x": -1.8075534328,
				"y": 0.0139541316,
				"z": -1.6101203582,
				"element": "C" 
			},
			{
				"x": -2.5572238569,
				"y": 0.3528442304,
				"z": -0.4874506684,
				"element": "C" 
			},
			{
				"x": 1.7784366606,
				"y": 1.9183538282,
				"z": -0.8001032483,
				"element": "S" 
			},
			{
				"x": 1.899506347,
				"y": 2.6373169907,
				"z": -2.0647146184,
				"element": "O" 
			},
			{
				"x": 2.0058219331,
				"y": 2.5609071761,
				"z": 0.4929590039,
				"element": "O" 
			},
			{
				"x": 2.8377847353,
				"y": 0.6347713518,
				"z": -0.8826218726,
				"element": "N" 
			},
			{
				"x": 3.0749278633,
				"y": -0.206339916,
				"z": 0.2669529321,
				"element": "C" 
			},
			{
				"x": 3.5239642188,
				"y": -1.6200933704,
				"z": 0.0294582815,
				"element": "C" 
			},
			{
				"x": 2.1630091443,
				"y": -1.3595092467,
				"z": 0.6315696969,
				"element": "C" 
			},
			{
				"x": -4.4076999936,
				"y": 1.3539384086,
				"z": 2.5886541218,
				"element": "H" 
			},
			{
				"x": -0.2227101817,
				"y": 2.1715024583,
				"z": 1.190687123,
				"element": "H" 
			},
			{
				"x": -2.2367515348,
				"y": -0.5905327929,
				"z": -2.4011745451,
				"element": "H" 
			},
			{
				"x": -3.5822931383,
				"y": 0.012824108,
				"z": -0.3973616324,
				"element": "H" 
			},
			{
				"x": 2.8777024583,
				"y": 0.2151855665,
				"z": -1.8043591459,
				"element": "H" 
			},
			{
				"x": 3.5397238029,
				"y": 0.338647241,
				"z": 1.0815608125,
				"element": "H" 
			},
			{
				"x": 3.5578759894,
				"y": -1.976012575,
				"z": -0.9969477271,
				"element": "H" 
			},
			{
				"x": 4.3184526341,
				"y": -2.0103847707,
				"z": 0.6571359596,
				"element": "H" 
			},
			{
				"x": 2.0078999439,
				"y": -1.5677643434,
				"z": 1.6856300542,
				"element": "H" 
			},
			{
				"x": 1.297464626,
				"y": -1.5420107727,
				"z": 0.0029336793,
				"element": "H" 
			}
		],
		 "valence_orbital": [ 
			{
				"type": "occ",
				"energy": -0.30166,
				"method": "rhf"
			},
			{
				"type": "occ",
				"energy": -0.29321,
				"method": "rhf"
			},
			{
				"type": "occ",
				"energy": -0.28856,
				"method": "rhf"
			},
			{
				"type": "occ",
				"energy": -0.27711,
				"method": "rhf"
			},
			{
				"type": "occ",
				"energy": -0.26184,
				"method": "rhf"
			},
			{
				"type": "unocc",
				"energy": -0.07549,
				"method": "rhf"
			},
			{
				"type": "unocc",
				"energy": -0.04772,
				"method": "rhf"
			},
			{
				"type": "unocc",
				"energy": -0.00106,
				"method": "rhf"
			},
			{
				"type": "unocc",
				"energy": 0.02206,
				"method": "rhf"
			},
			{
				"type": "unocc",
				"energy": 0.06461,
				"method": "rhf"
			}
		],
		"cosmo_sigma_profile": { 
			"-0.025": 0.0,
			"-0.024": 0.0,
			"-0.023": 0.0,
			"-0.022": 0.0,
			"-0.021": 0.0,
			"-0.02": 0.0,
			"-0.019": 0.420702677542,
			"-0.018": 0.955218223874,
			"-0.017": 1.0207440077,
			"-0.016": 0.66559657419,
			"-0.015": 0.603200555136,
			"-0.014": 1.01907817307,
			"-0.013": 1.52616845456,
			"-0.012": 1.84340567121,
			"-0.011": 1.29041485563,
			"-0.01": 1.24018626832,
			"-0.009": 3.9848562068,
			"-0.008": 6.25041615408,
			"-0.007": 7.63668931174,
			"-0.006": 9.07002555803,
			"-0.005": 14.5899069443,
			"-0.004": 17.3647806623,
			"-0.003": 20.5755230606,
			"-0.002": 23.1804418371,
			"-0.001": 29.6189711023,
			"0.0": 24.1378697281,
			"0.001": 16.4854877288,
			"0.002": 13.5104702137,
			"0.003": 13.0575768206,
			"0.004": 10.02825913,
			"0.005": 7.41754803374,
			"0.006": 7.05555260672,
			"0.007": 7.39387080036,
			"0.008": 5.08647631427,
			"0.009": 5.8987799086,
			"0.01": 11.6085642892,
			"0.011": 12.4479607203,
			"0.012": 1.54300606001,
			"0.013": 0.0,
			"0.014": 0.0,
			"0.015": 0.0,
			"0.016": 0.0,
			"0.017": 0.0,
			"0.018": 0.0,
			"0.019": 0.0,
			"0.02": 0.0,
			"0.021": 0.0,
			"0.022": 0.0,
			"0.023": 0.0,
			"0.024": 0.0,
			"0.025": 0.0
		}
	}
}
