{
	 "smiles": "COC1=C(NC2=NN=C(S)S2)C=CC=C1", 
	 "Tm": 456.15, 
	 "num_atms": 24, 
	 "gaussian": { 
		 "optdone": 1, 
		 "sigma_profile": "yes", 
		 "theory": "DFT", 
		 "functional": "B3LYP", 
		 "basiset": "6-31G**", 
		 "properties": { 
			 "R2extent": 5566.899, 
			 "electric_dipole_moment_norm": 4.06196199145, 
			 "electric_quadrupole_moment_norm": 15.6654348098, 
			 "total_energy": -1384.18285644, 
			 "HOMO_LUMO_gap": 0.16803, 
			 "cosmo_polarized_energy": -12.42, 
			 "cosmo_cavitation_energy": 31.72, 
			 "cosmo_dispersion_energy": -24.67, 
			 "cosmo_repulsion_energy": 1.83, 
			 "cosmo_total_nonelectrostatic_energy": 8.89, 
			 "SMD_solvation_energy": 3.55 
		},
		"coords": [
			{
				"x": -0.4004022468,
				"y": 3.5142423333,
				"z": -2.0213135616,
				"element": "C" 
			},
			{
				"x": -0.1943702068,
				"y": 2.1703871192,
				"z": -1.6104055588,
				"element": "O" 
			},
			{
				"x": -0.9860358857,
				"y": 1.6629896778,
				"z": -0.6139056834,
				"element": "C" 
			},
			{
				"x": -0.7331496958,
				"y": 0.302360235,
				"z": -0.2984802198,
				"element": "C" 
			},
			{
				"x": 0.2779283352,
				"y": -0.3184134725,
				"z": -1.0380965323,
				"element": "N" 
			},
			{
				"x": 0.9667574268,
				"y": -1.480585326,
				"z": -0.8422316618,
				"element": "C" 
			},
			{
				"x": 1.7993369956,
				"y": -1.9247663328,
				"z": -1.752546224,
				"element": "N" 
			},
			{
				"x": 2.4680075756,
				"y": -3.05289271,
				"z": -1.3637903285,
				"element": "N" 
			},
			{
				"x": 2.1378111594,
				"y": -3.4676166984,
				"z": -0.1812834634,
				"element": "C" 
			},
			{
				"x": 2.7931957642,
				"y": -4.9096588507,
				"z": 0.6067191152,
				"element": "S" 
			},
			{
				"x": 0.9256057288,
				"y": -2.4672069624,
				"z": 0.6283988399,
				"element": "S" 
			},
			{
				"x": -1.5109098599,
				"y": -0.3155973145,
				"z": 0.6834028154,
				"element": "C" 
			},
			{
				"x": -2.4963077226,
				"y": 0.4052425762,
				"z": 1.3664368014,
				"element": "C" 
			},
			{
				"x": -2.7270923794,
				"y": 1.7411806122,
				"z": 1.0620158812,
				"element": "C" 
			},
			{
				"x": -1.9740101284,
				"y": 2.3707777039,
				"z": 0.0624497453,
				"element": "C" 
			},
			{
				"x": -0.2152948039,
				"y": 4.2157914948,
				"z": -1.1986968298,
				"element": "H" 
			},
			{
				"x": -1.4176147916,
				"y": 3.6643342388,
				"z": -2.4034741398,
				"element": "H" 
			},
			{
				"x": 0.318042029,
				"y": 3.6985173128,
				"z": -2.820961617,
				"element": "H" 
			},
			{
				"x": 0.6090103365,
				"y": 0.2087341685,
				"z": -1.8372725735,
				"element": "H" 
			},
			{
				"x": 3.5531391453,
				"y": -5.2342959252,
				"z": -0.458397564,
				"element": "H" 
			},
			{
				"x": -1.3753458746,
				"y": -1.3672682509,
				"z": 0.9044137039,
				"element": "H" 
			},
			{
				"x": -3.0852741275,
				"y": -0.0946396574,
				"z": 2.1287385968,
				"element": "H" 
			},
			{
				"x": -3.4918926363,
				"y": 2.3031365554,
				"z": 1.5885089514,
				"element": "H" 
			},
			{
				"x": -2.1610341371,
				"y": 3.410647473,
				"z": -0.1778284924,
				"element": "H" 
			}
		],
		 "valence_orbital": [ 
			{
				"type": "occ",
				"energy": -0.28837,
				"method": "rhf"
			},
			{
				"type": "occ",
				"energy": -0.26299,
				"method": "rhf"
			},
			{
				"type": "occ",
				"energy": -0.25391,
				"method": "rhf"
			},
			{
				"type": "occ",
				"energy": -0.2373,
				"method": "rhf"
			},
			{
				"type": "occ",
				"energy": -0.19834,
				"method": "rhf"
			},
			{
				"type": "unocc",
				"energy": -0.03031,
				"method": "rhf"
			},
			{
				"type": "unocc",
				"energy": -0.01228,
				"method": "rhf"
			},
			{
				"type": "unocc",
				"energy": -0.00063,
				"method": "rhf"
			},
			{
				"type": "unocc",
				"energy": 0.00901,
				"method": "rhf"
			},
			{
				"type": "unocc",
				"energy": 0.02227,
				"method": "rhf"
			}
		],
		"cosmo_sigma_profile": { 
			"-0.025": 0.0,
			"-0.024": 0.0,
			"-0.023": 0.0,
			"-0.022": 0.0,
			"-0.021": 0.0,
			"-0.02": 0.0,
			"-0.019": 0.0,
			"-0.018": 0.0,
			"-0.017": 0.0,
			"-0.016": 0.0,
			"-0.015": 0.0,
			"-0.014": 0.0,
			"-0.013": 0.156507547234,
			"-0.012": 1.37421206798,
			"-0.011": 1.7298990684,
			"-0.01": 1.68545490647,
			"-0.009": 2.15111137135,
			"-0.008": 1.78133308294,
			"-0.007": 3.09994365483,
			"-0.006": 14.2427792674,
			"-0.005": 21.7280236102,
			"-0.004": 20.6440429635,
			"-0.003": 19.9645330285,
			"-0.002": 17.4049339037,
			"-0.001": 20.185740227,
			"0.0": 20.7666914499,
			"0.001": 20.8359377672,
			"0.002": 21.0217135145,
			"0.003": 14.3587477849,
			"0.004": 13.8835946575,
			"0.005": 13.0481167358,
			"0.006": 8.57702874964,
			"0.007": 3.23181816211,
			"0.008": 2.06092047104,
			"0.009": 1.86259728589,
			"0.01": 2.65265710802,
			"0.011": 2.77686570988,
			"0.012": 3.33499035173,
			"0.013": 2.50752476851,
			"0.014": 1.98237287914,
			"0.015": 0.244223849672,
			"0.016": 0.0,
			"0.017": 0.0,
			"0.018": 0.0,
			"0.019": 0.0,
			"0.02": 0.0,
			"0.021": 0.0,
			"0.022": 0.0,
			"0.023": 0.0,
			"0.024": 0.0,
			"0.025": 0.0
		}
	}
}
