{
	 "smiles": "NC1=C2C=CC=CC2=NC(=C1)C(O)=O", 
	 "Tm": 550.15, 
	 "num_atms": 22, 
	 "gaussian": { 
		 "optdone": 1, 
		 "sigma_profile": "yes", 
		 "theory": "DFT", 
		 "functional": "B3LYP", 
		 "basiset": "6-31G**", 
		 "properties": { 
			 "R2extent": 2907.908, 
			 "electric_dipole_moment_norm": 7.05203799621, 
			 "electric_quadrupole_moment_norm": 19.6039343623, 
			 "total_energy": -645.871523948, 
			 "HOMO_LUMO_gap": 0.16073, 
			 "cosmo_polarized_energy": -17.01, 
			 "cosmo_cavitation_energy": 26.41, 
			 "cosmo_dispersion_energy": -19.98, 
			 "cosmo_repulsion_energy": 1.55, 
			 "cosmo_total_nonelectrostatic_energy": 7.98, 
			 "SMD_solvation_energy": 4.68 
		},
		"coords": [
			{
				"x": 0.4133274588,
				"y": -0.3141388636,
				"z": -2.5793658986,
				"element": "N" 
			},
			{
				"x": 0.0419562258,
				"y": -0.1909422567,
				"z": -1.2611881047,
				"element": "C" 
			},
			{
				"x": 0.6580661995,
				"y": -0.9985310323,
				"z": -0.2412832725,
				"element": "C" 
			},
			{
				"x": 1.668843405,
				"y": -1.9569638934,
				"z": -0.5068603475,
				"element": "C" 
			},
			{
				"x": 2.2109734518,
				"y": -2.715400326,
				"z": 0.5090290183,
				"element": "C" 
			},
			{
				"x": 1.7667377207,
				"y": -2.5453552397,
				"z": 1.8407066373,
				"element": "C" 
			},
			{
				"x": 0.7989063134,
				"y": -1.6118034567,
				"z": 2.1347366501,
				"element": "C" 
			},
			{
				"x": 0.2255124499,
				"y": -0.8123350677,
				"z": 1.111258429,
				"element": "C" 
			},
			{
				"x": -0.7162765792,
				"y": 0.1089561738,
				"z": 1.4612175451,
				"element": "N" 
			},
			{
				"x": -1.2345383772,
				"y": 0.8493819037,
				"z": 0.4924846702,
				"element": "C" 
			},
			{
				"x": -0.9048330615,
				"y": 0.7463995275,
				"z": -0.8655919494,
				"element": "C" 
			},
			{
				"x": -2.2718772771,
				"y": 1.8569923122,
				"z": 0.9351814293,
				"element": "C" 
			},
			{
				"x": -2.4947371883,
				"y": 1.8396125273,
				"z": 2.2567059996,
				"element": "O" 
			},
			{
				"x": -2.84316856,
				"y": 2.6031824175,
				"z": 0.1710023345,
				"element": "O" 
			},
			{
				"x": -0.17501136,
				"y": 0.1458729569,
				"z": -3.2582655329,
				"element": "H" 
			},
			{
				"x": 0.7825191737,
				"y": -1.1990685394,
				"z": -2.8901278156,
				"element": "H" 
			},
			{
				"x": 2.0478416616,
				"y": -2.0837811523,
				"z": -1.5165917881,
				"element": "H" 
			},
			{
				"x": 2.9876225564,
				"y": -3.4410093403,
				"z": 0.2874945172,
				"element": "H" 
			},
			{
				"x": 2.1987978016,
				"y": -3.1492843052,
				"z": 2.6330663482,
				"element": "H" 
			},
			{
				"x": 0.4483125499,
				"y": -1.4533315111,
				"z": 3.1492910014,
				"element": "H" 
			},
			{
				"x": -1.4071193463,
				"y": 1.3950755304,
				"z": -1.5747634142,
				"element": "H" 
			},
			{
				"x": -1.8985552186,
				"y": 1.142871635,
				"z": 2.6110635433,
				"element": "H" 
			}
		],
		 "valence_orbital": [ 
			{
				"type": "occ",
				"energy": -0.2925,
				"method": "rhf"
			},
			{
				"type": "occ",
				"energy": -0.27584,
				"method": "rhf"
			},
			{
				"type": "occ",
				"energy": -0.26379,
				"method": "rhf"
			},
			{
				"type": "occ",
				"energy": -0.25732,
				"method": "rhf"
			},
			{
				"type": "occ",
				"energy": -0.2277,
				"method": "rhf"
			},
			{
				"type": "unocc",
				"energy": -0.06697,
				"method": "rhf"
			},
			{
				"type": "unocc",
				"energy": -0.03797,
				"method": "rhf"
			},
			{
				"type": "unocc",
				"energy": 0.00745,
				"method": "rhf"
			},
			{
				"type": "unocc",
				"energy": 0.04172,
				"method": "rhf"
			},
			{
				"type": "unocc",
				"energy": 0.05659,
				"method": "rhf"
			}
		],
		"cosmo_sigma_profile": { 
			"-0.025": 0.0,
			"-0.024": 0.0,
			"-0.023": 0.0,
			"-0.022": 0.0,
			"-0.021": 0.0,
			"-0.02": 0.0,
			"-0.019": 0.0,
			"-0.018": 0.0,
			"-0.017": 0.0,
			"-0.016": 0.0,
			"-0.015": 0.377726662055,
			"-0.014": 2.74490514438,
			"-0.013": 2.65163226613,
			"-0.012": 3.17915089019,
			"-0.011": 3.73418660321,
			"-0.01": 3.64370741198,
			"-0.009": 3.45545210609,
			"-0.008": 2.85367875165,
			"-0.007": 4.46126834799,
			"-0.006": 9.99548910182,
			"-0.005": 10.9316305242,
			"-0.004": 12.3174972716,
			"-0.003": 11.318939602,
			"-0.002": 9.1086091557,
			"-0.001": 9.84836834405,
			"0.0": 13.1795543634,
			"0.001": 18.9824508208,
			"0.002": 19.6183867159,
			"0.003": 18.1874578767,
			"0.004": 12.9160440199,
			"0.005": 4.67830386695,
			"0.006": 5.642375032,
			"0.007": 3.01728773174,
			"0.008": 3.6450395377,
			"0.009": 4.01783742009,
			"0.01": 5.90269492997,
			"0.011": 5.27861260256,
			"0.012": 4.62857741422,
			"0.013": 1.63034046353,
			"0.014": 0.0693236195416,
			"0.015": 0.0,
			"0.016": 0.0,
			"0.017": 0.0,
			"0.018": 0.0,
			"0.019": 0.0,
			"0.02": 0.0,
			"0.021": 0.0,
			"0.022": 0.0,
			"0.023": 0.0,
			"0.024": 0.0,
			"0.025": 0.0
		}
	}
}
