{
	 "smiles": "CCS(=O)(=O)C1=CC=C(C=C1)C(O)=O", 
	 "Tm": 490.15, 
	 "num_atms": 24, 
	 "gaussian": { 
		 "optdone": 1, 
		 "sigma_profile": "yes", 
		 "theory": "DFT", 
		 "functional": "B3LYP", 
		 "basiset": "6-31G**", 
		 "properties": { 
			 "R2extent": 3898.3625, 
			 "electric_dipole_moment_norm": 4.62678144502, 
			 "electric_quadrupole_moment_norm": 20.4757231931, 
			 "total_energy": -1048.0266651, 
			 "HOMO_LUMO_gap": 0.20541, 
			 "cosmo_polarized_energy": -18.24, 
			 "cosmo_cavitation_energy": 29.79, 
			 "cosmo_dispersion_energy": -21.82, 
			 "cosmo_repulsion_energy": 1.67, 
			 "cosmo_total_nonelectrostatic_energy": 9.64, 
			 "SMD_solvation_energy": 5.76 
		},
		"coords": [
			{
				"x": 0.396943112,
				"y": 3.3572236983,
				"z": 1.6779521735,
				"element": "C" 
			},
			{
				"x": 0.6395721313,
				"y": 2.2129808155,
				"z": 2.6551243825,
				"element": "C" 
			},
			{
				"x": -0.5951977367,
				"y": 0.875434951,
				"z": 2.5490027814,
				"element": "S" 
			},
			{
				"x": -0.2482184786,
				"y": -0.108386859,
				"z": 3.5874744973,
				"element": "O" 
			},
			{
				"x": -1.9309804739,
				"y": 1.4927966502,
				"z": 2.49216784,
				"element": "O" 
			},
			{
				"x": -0.2852641845,
				"y": 0.1037182546,
				"z": 0.9445309908,
				"element": "C" 
			},
			{
				"x": -1.0409060977,
				"y": 0.4989824406,
				"z": -0.1616983538,
				"element": "C" 
			},
			{
				"x": -0.797926193,
				"y": -0.1030602403,
				"z": -1.3935955149,
				"element": "C" 
			},
			{
				"x": 0.1881110337,
				"y": -1.091451242,
				"z": -1.5106724556,
				"element": "C" 
			},
			{
				"x": 0.928568272,
				"y": -1.4885753509,
				"z": -0.388162064,
				"element": "C" 
			},
			{
				"x": 0.6903308064,
				"y": -0.8910442226,
				"z": 0.8475169526,
				"element": "C" 
			},
			{
				"x": 0.4043607343,
				"y": -1.6982343257,
				"z": -2.8557428671,
				"element": "C" 
			},
			{
				"x": 1.3700587846,
				"y": -2.6477019797,
				"z": -2.8576480719,
				"element": "O" 
			},
			{
				"x": -0.2073177548,
				"y": -1.3884995126,
				"z": -3.8575985431,
				"element": "O" 
			},
			{
				"x": -0.5998368161,
				"y": 3.7805621489,
				"z": 1.8207760594,
				"element": "H" 
			},
			{
				"x": 1.1365163566,
				"y": 4.1456155456,
				"z": 1.8467784075,
				"element": "H" 
			},
			{
				"x": 0.489958512,
				"y": 3.0271816458,
				"z": 0.6393069041,
				"element": "H" 
			},
			{
				"x": 0.5567018586,
				"y": 2.5366108195,
				"z": 3.6977739933,
				"element": "H" 
			},
			{
				"x": 1.615075208,
				"y": 1.7358670921,
				"z": 2.5252433678,
				"element": "H" 
			},
			{
				"x": -1.8153853639,
				"y": 1.2487070372,
				"z": -0.0428962565,
				"element": "H" 
			},
			{
				"x": -1.3647789746,
				"y": 0.1740300381,
				"z": -2.2757190294,
				"element": "H" 
			},
			{
				"x": 1.6779819428,
				"y": -2.2653195716,
				"z": -0.4858918597,
				"element": "H" 
			},
			{
				"x": 1.2325331042,
				"y": -1.204241077,
				"z": 1.7333830217,
				"element": "H" 
			},
			{
				"x": 1.4246002176,
				"y": -2.9729967559,
				"z": -3.7714063559,
				"element": "H" 
			}
		],
		 "valence_orbital": [ 
			{
				"type": "occ",
				"energy": -0.3002,
				"method": "rhf"
			},
			{
				"type": "occ",
				"energy": -0.29275,
				"method": "rhf"
			},
			{
				"type": "occ",
				"energy": -0.29118,
				"method": "rhf"
			},
			{
				"type": "occ",
				"energy": -0.28344,
				"method": "rhf"
			},
			{
				"type": "occ",
				"energy": -0.28211,
				"method": "rhf"
			},
			{
				"type": "unocc",
				"energy": -0.0767,
				"method": "rhf"
			},
			{
				"type": "unocc",
				"energy": -0.03278,
				"method": "rhf"
			},
			{
				"type": "unocc",
				"energy": 0.02253,
				"method": "rhf"
			},
			{
				"type": "unocc",
				"energy": 0.05663,
				"method": "rhf"
			},
			{
				"type": "unocc",
				"energy": 0.07092,
				"method": "rhf"
			}
		],
		"cosmo_sigma_profile": { 
			"-0.025": 0.0,
			"-0.024": 0.0,
			"-0.023": 0.0,
			"-0.022": 0.0,
			"-0.021": 0.0,
			"-0.02": 0.0,
			"-0.019": 0.168310336084,
			"-0.018": 1.07572110524,
			"-0.017": 1.11504824669,
			"-0.016": 0.352038018768,
			"-0.015": 0.550773456106,
			"-0.014": 1.08143911992,
			"-0.013": 0.944041159797,
			"-0.012": 0.284431033127,
			"-0.011": 0.900365863163,
			"-0.01": 1.10469408002,
			"-0.009": 0.672730777065,
			"-0.008": 6.53602997831,
			"-0.007": 12.0704702667,
			"-0.006": 12.6336524268,
			"-0.005": 12.740623068,
			"-0.004": 18.1322290912,
			"-0.003": 18.663306055,
			"-0.002": 17.8689290383,
			"-0.001": 19.7926619054,
			"0.0": 18.7645887654,
			"0.001": 18.8789398053,
			"0.002": 7.83925834901,
			"0.003": 5.24116750986,
			"0.004": 4.52413770468,
			"0.005": 6.31353753984,
			"0.006": 5.39836640104,
			"0.007": 4.15155883413,
			"0.008": 4.04631378435,
			"0.009": 5.2292423371,
			"0.01": 6.93407327095,
			"0.011": 13.8161840652,
			"0.012": 8.82293211373,
			"0.013": 0.439709769659,
			"0.014": 0.0,
			"0.015": 0.0,
			"0.016": 0.0,
			"0.017": 0.0,
			"0.018": 0.0,
			"0.019": 0.0,
			"0.02": 0.0,
			"0.021": 0.0,
			"0.022": 0.0,
			"0.023": 0.0,
			"0.024": 0.0,
			"0.025": 0.0
		}
	}
}
