{
	 "smiles": "OC(=O)C=CC1=CN(N=C1C1=CC=C(F)C=C1)C1=CC=CC=C1", 
	 "Tm": 503.15, 
	 "num_atms": 36, 
	 "gaussian": { 
		 "optdone": 1, 
		 "sigma_profile": "yes", 
		 "theory": "DFT", 
		 "functional": "B3LYP", 
		 "basiset": "6-31G**", 
		 "properties": { 
			 "R2extent": 10106.4665, 
			 "electric_dipole_moment_norm": 7.31196239255, 
			 "electric_quadrupole_moment_norm": 20.7712611519, 
			 "total_energy": -1053.51226346, 
			 "HOMO_LUMO_gap": 0.16053, 
			 "cosmo_polarized_energy": -21.63, 
			 "cosmo_cavitation_energy": 42.49, 
			 "cosmo_dispersion_energy": -29.78, 
			 "cosmo_repulsion_energy": 2.23, 
			 "cosmo_total_nonelectrostatic_energy": 14.94, 
			 "SMD_solvation_energy": 8.31 
		},
		"coords": [
			{
				"x": 0.4930658908,
				"y": 3.1253260531,
				"z": 4.3191457234,
				"element": "O" 
			},
			{
				"x": -0.4872967972,
				"y": 3.2319632467,
				"z": 3.3725516775,
				"element": "C" 
			},
			{
				"x": -1.4604914701,
				"y": 3.917084349,
				"z": 3.5876766846,
				"element": "O" 
			},
			{
				"x": -0.3040316632,
				"y": 2.4716680396,
				"z": 2.1119559539,
				"element": "C" 
			},
			{
				"x": 0.4531134199,
				"y": 1.3610120496,
				"z": 2.0016406616,
				"element": "C" 
			},
			{
				"x": 0.6298172099,
				"y": 0.4902493088,
				"z": 0.8530654149,
				"element": "C" 
			},
			{
				"x": 1.1383311122,
				"y": -0.7983108888,
				"z": 0.9596113269,
				"element": "C" 
			},
			{
				"x": 1.0886985024,
				"y": -1.3673874537,
				"z": -0.2703710127,
				"element": "N" 
			},
			{
				"x": 0.5955946689,
				"y": -0.506464092,
				"z": -1.1984342078,
				"element": "N" 
			},
			{
				"x": 0.313339413,
				"y": 0.6196514933,
				"z": -0.5458657451,
				"element": "C" 
			},
			{
				"x": -0.2276032193,
				"y": 1.7591127816,
				"z": -1.3147930178,
				"element": "C" 
			},
			{
				"x": 0.2251836234,
				"y": 3.0713298474,
				"z": -1.1037494483,
				"element": "C" 
			},
			{
				"x": -0.2588666728,
				"y": 4.1287176628,
				"z": -1.8715689861,
				"element": "C" 
			},
			{
				"x": -1.1975394265,
				"y": 3.8606418805,
				"z": -2.8618051674,
				"element": "C" 
			},
			{
				"x": -1.6710650406,
				"y": 4.8791554387,
				"z": -3.6068563852,
				"element": "F" 
			},
			{
				"x": -1.6597470714,
				"y": 2.5721214016,
				"z": -3.1073786749,
				"element": "C" 
			},
			{
				"x": -1.1689934862,
				"y": 1.5253424015,
				"z": -2.3311388534,
				"element": "C" 
			},
			{
				"x": 1.5036588677,
				"y": -2.6714888082,
				"z": -0.6569933479,
				"element": "C" 
			},
			{
				"x": 1.8156319864,
				"y": -2.9204950122,
				"z": -1.997788645,
				"element": "C" 
			},
			{
				"x": 2.2304296258,
				"y": -4.1953131837,
				"z": -2.3769196911,
				"element": "C" 
			},
			{
				"x": 2.3433449804,
				"y": -5.2178197385,
				"z": -1.4321586171,
				"element": "C" 
			},
			{
				"x": 2.0249454972,
				"y": -4.9602465235,
				"z": -0.0979496147,
				"element": "C" 
			},
			{
				"x": 1.5966979266,
				"y": -3.6927473477,
				"z": 0.2947490037,
				"element": "C" 
			},
			{
				"x": 1.2791251465,
				"y": 2.7197956598,
				"z": 3.9282693994,
				"element": "H" 
			},
			{
				"x": -0.9170312806,
				"y": 2.825869568,
				"z": 1.2916569256,
				"element": "H" 
			},
			{
				"x": 0.9644266554,
				"y": 1.00165124,
				"z": 2.8966068743,
				"element": "H" 
			},
			{
				"x": 1.523044653,
				"y": -1.3220827303,
				"z": 1.8215164766,
				"element": "H" 
			},
			{
				"x": 0.9715583402,
				"y": 3.2676476438,
				"z": -0.3413299751,
				"element": "H" 
			},
			{
				"x": 0.0848828964,
				"y": 5.145876984,
				"z": -1.7191191648,
				"element": "H" 
			},
			{
				"x": -2.3920489592,
				"y": 2.4053312346,
				"z": -3.8898058271,
				"element": "H" 
			},
			{
				"x": -1.5123740434,
				"y": 0.5117487328,
				"z": -2.5071681148,
				"element": "H" 
			},
			{
				"x": 1.7265745533,
				"y": -2.1160254579,
				"z": -2.717177151,
				"element": "H" 
			},
			{
				"x": 2.4726930436,
				"y": -4.3867316386,
				"z": -3.417975345,
				"element": "H" 
			},
			{
				"x": 2.6708669124,
				"y": -6.2078593058,
				"z": -1.7337564146,
				"element": "H" 
			},
			{
				"x": 2.0950250018,
				"y": -5.7507575263,
				"z": 0.6430869882,
				"element": "H" 
			},
			{
				"x": 1.3162392029,
				"y": -3.5127673102,
				"z": 1.3270702962,
				"element": "H" 
			}
		],
		 "valence_orbital": [ 
			{
				"type": "occ",
				"energy": -0.26811,
				"method": "rhf"
			},
			{
				"type": "occ",
				"energy": -0.26643,
				"method": "rhf"
			},
			{
				"type": "occ",
				"energy": -0.26179,
				"method": "rhf"
			},
			{
				"type": "occ",
				"energy": -0.24784,
				"method": "rhf"
			},
			{
				"type": "occ",
				"energy": -0.22441,
				"method": "rhf"
			},
			{
				"type": "unocc",
				"energy": -0.06388,
				"method": "rhf"
			},
			{
				"type": "unocc",
				"energy": -0.04263,
				"method": "rhf"
			},
			{
				"type": "unocc",
				"energy": -0.02102,
				"method": "rhf"
			},
			{
				"type": "unocc",
				"energy": -0.01679,
				"method": "rhf"
			},
			{
				"type": "unocc",
				"energy": -0.00684,
				"method": "rhf"
			}
		],
		"cosmo_sigma_profile": { 
			"-0.025": 0.0,
			"-0.024": 0.0,
			"-0.023": 0.0,
			"-0.022": 0.0,
			"-0.021": 0.0,
			"-0.02": 0.0,
			"-0.019": 0.112206498287,
			"-0.018": 0.596671634711,
			"-0.017": 0.779576571185,
			"-0.016": 0.913510089821,
			"-0.015": 1.37590722328,
			"-0.014": 0.676137377911,
			"-0.013": 0.935923451908,
			"-0.012": 1.19860703288,
			"-0.011": 2.28211330204,
			"-0.01": 4.87021677727,
			"-0.009": 4.61961284123,
			"-0.008": 5.29622255936,
			"-0.007": 8.3458864748,
			"-0.006": 16.293326701,
			"-0.005": 21.7827981442,
			"-0.004": 19.867571118,
			"-0.003": 20.0027195487,
			"-0.002": 20.536181007,
			"-0.001": 19.6925483329,
			"0.0": 27.1371308593,
			"0.001": 30.4079195231,
			"0.002": 28.2585412305,
			"0.003": 27.3126534831,
			"0.004": 29.2458465821,
			"0.005": 11.6531736908,
			"0.006": 4.3831156076,
			"0.007": 4.64680530166,
			"0.008": 3.15565811583,
			"0.009": 4.67712886162,
			"0.01": 5.14098023982,
			"0.011": 5.34189921382,
			"0.012": 6.05355361588,
			"0.013": 4.26218199901,
			"0.014": 0.579796229199,
			"0.015": 0.0,
			"0.016": 0.0,
			"0.017": 0.0,
			"0.018": 0.0,
			"0.019": 0.0,
			"0.02": 0.0,
			"0.021": 0.0,
			"0.022": 0.0,
			"0.023": 0.0,
			"0.024": 0.0,
			"0.0": 0.0
		}
	}
}
