{
	 "smiles": "CNC(=O)C1=C(N)C=CC(OC)=C1", 
	 "Tm": 393.15, 
	 "num_atms": 25, 
	 "gaussian": { 
		 "optdone": 1, 
		 "sigma_profile": "yes", 
		 "theory": "DFT", 
		 "functional": "B3LYP", 
		 "basiset": "6-31G**", 
		 "properties": { 
			 "R2extent": 3549.6711, 
			 "electric_dipole_moment_norm": 2.7314322287, 
			 "electric_quadrupole_moment_norm": 12.3273057068, 
			 "total_energy": -610.151172742, 
			 "HOMO_LUMO_gap": 0.15294, 
			 "cosmo_polarized_energy": -14.13, 
			 "cosmo_cavitation_energy": 28.16, 
			 "cosmo_dispersion_energy": -21.02, 
			 "cosmo_repulsion_energy": 1.67, 
			 "cosmo_total_nonelectrostatic_energy": 8.81, 
			 "SMD_solvation_energy": 5.61 
		},
		"coords": [
			{
				"x": -2.0128504217,
				"y": -1.5071697138,
				"z": 2.4836083271,
				"element": "C" 
			},
			{
				"x": -0.8169594808,
				"y": -0.8093565626,
				"z": 2.0422764958,
				"element": "N" 
			},
			{
				"x": -0.8979191988,
				"y": 0.1581010835,
				"z": 1.0700486488,
				"element": "C" 
			},
			{
				"x": -1.9831526459,
				"y": 0.383181657,
				"z": 0.5130906516,
				"element": "O" 
			},
			{
				"x": 0.3535325444,
				"y": 0.8963817443,
				"z": 0.7480496292,
				"element": "C" 
			},
			{
				"x": 0.2835007968,
				"y": 2.1263304628,
				"z": 0.0411067117,
				"element": "C" 
			},
			{
				"x": -0.882986539,
				"y": 2.6031629153,
				"z": -0.5009344878,
				"element": "N" 
			},
			{
				"x": 1.4844259692,
				"y": 2.8597268067,
				"z": -0.1258688211,
				"element": "C" 
			},
			{
				"x": 2.6970103181,
				"y": 2.3841655603,
				"z": 0.3283275779,
				"element": "C" 
			},
			{
				"x": 2.7780949491,
				"y": 1.1340134436,
				"z": 0.9684169733,
				"element": "C" 
			},
			{
				"x": 4.0388608154,
				"y": 0.733814092,
				"z": 1.3352587561,
				"element": "O" 
			},
			{
				"x": 4.1718903125,
				"y": -0.517727543,
				"z": 1.9797785071,
				"element": "C" 
			},
			{
				"x": 1.6133448452,
				"y": 0.4087082569,
				"z": 1.1720688513,
				"element": "C" 
			},
			{
				"x": -2.6403209768,
				"y": -0.8924533711,
				"z": 3.1425706117,
				"element": "H" 
			},
			{
				"x": -2.6092343955,
				"y": -1.7743995453,
				"z": 1.6105011413,
				"element": "H" 
			},
			{
				"x": -1.7224107325,
				"y": -2.4164382669,
				"z": 3.0159307351,
				"element": "H" 
			},
			{
				"x": -0.0394753481,
				"y": -0.7677198175,
				"z": 2.6820502881,
				"element": "H" 
			},
			{
				"x": -0.9535273904,
				"y": 3.5899470726,
				"z": -0.6889075596,
				"element": "H" 
			},
			{
				"x": -1.7215829439,
				"y": 2.0725709473,
				"z": -0.2928877998,
				"element": "H" 
			},
			{
				"x": 1.4420926378,
				"y": 3.8134598591,
				"z": -0.6458782983,
				"element": "H" 
			},
			{
				"x": 3.6102119005,
				"y": 2.9522130994,
				"z": 0.1813841235,
				"element": "H" 
			},
			{
				"x": 3.832857188,
				"y": -1.3446919566,
				"z": 1.3404472884,
				"element": "H" 
			},
			{
				"x": 5.2357101686,
				"y": -0.6424510668,
				"z": 2.1893847486,
				"element": "H" 
			},
			{
				"x": 3.6140238717,
				"y": -0.5508791515,
				"z": 2.926486261,
				"element": "H" 
			},
			{
				"x": 1.6651637561,
				"y": -0.5729900057,
				"z": 1.6265906393,
				"element": "H" 
			}
		],
		 "valence_orbital": [ 
			{
				"type": "occ",
				"energy": -0.27513,
				"method": "rhf"
			},
			{
				"type": "occ",
				"energy": -0.25732,
				"method": "rhf"
			},
			{
				"type": "occ",
				"energy": -0.24787,
				"method": "rhf"
			},
			{
				"type": "occ",
				"energy": -0.24327,
				"method": "rhf"
			},
			{
				"type": "occ",
				"energy": -0.18191,
				"method": "rhf"
			},
			{
				"type": "unocc",
				"energy": -0.02897,
				"method": "rhf"
			},
			{
				"type": "unocc",
				"energy": 0.02589,
				"method": "rhf"
			},
			{
				"type": "unocc",
				"energy": 0.0661,
				"method": "rhf"
			},
			{
				"type": "unocc",
				"energy": 0.07917,
				"method": "rhf"
			},
			{
				"type": "unocc",
				"energy": 0.10045,
				"method": "rhf"
			}
		],
		"cosmo_sigma_profile": { 
			"-0.025": 0.0,
			"-0.024": 0.0,
			"-0.023": 0.0,
			"-0.022": 0.0,
			"-0.021": 0.0,
			"-0.02": 0.0,
			"-0.019": 0.0,
			"-0.018": 0.0,
			"-0.017": 0.0,
			"-0.016": 0.0,
			"-0.015": 0.0,
			"-0.014": 0.277469341748,
			"-0.013": 1.42599129361,
			"-0.012": 2.55106908088,
			"-0.011": 2.67024597354,
			"-0.01": 2.84592981832,
			"-0.009": 2.0248526322,
			"-0.008": 3.3241133376,
			"-0.007": 4.70687714944,
			"-0.006": 10.0590572599,
			"-0.005": 15.8827506548,
			"-0.004": 18.4202726344,
			"-0.003": 20.6344738123,
			"-0.002": 16.2117198801,
			"-0.001": 15.4972500808,
			"0.0": 8.74169265931,
			"0.001": 10.5300118019,
			"0.002": 11.0707083022,
			"0.003": 11.6086025116,
			"0.004": 15.4770367742,
			"0.005": 16.0028567817,
			"0.006": 5.95855573389,
			"0.007": 4.84714747882,
			"0.008": 4.24440179862,
			"0.009": 4.33774993269,
			"0.01": 3.51747678374,
			"0.011": 3.72419385489,
			"0.012": 2.18911822978,
			"0.013": 2.44911483487,
			"0.014": 1.60448226141,
			"0.015": 0.0266750396332,
			"0.016": 0.0,
			"0.017": 0.0,
			"0.018": 0.0,
			"0.019": 0.0,
			"0.02": 0.0,
			"0.021": 0.0,
			"0.022": 0.0,
			"0.023": 0.0,
			"0.024": 0.0,
			"0.025": 0.0
		}
	}
}
