{
	 "smiles": "NC(=O)N1CCN2C(C1)C(=O)NC2=O", 
	 "Tm": 524.15, 
	 "num_atms": 24, 
	 "gaussian": { 
		 "optdone": 1, 
		 "sigma_profile": "yes", 
		 "theory": "DFT", 
		 "functional": "B3LYP", 
		 "basiset": "6-31G**", 
		 "properties": { 
			 "R2extent": 3004.9958, 
			 "electric_dipole_moment_norm": 1.59315117299, 
			 "electric_quadrupole_moment_norm": 16.9313178374, 
			 "total_energy": -717.502133562, 
			 "HOMO_LUMO_gap": 0.22648, 
			 "cosmo_polarized_energy": -24.18, 
			 "cosmo_cavitation_energy": 27.32, 
			 "cosmo_dispersion_energy": -20.26, 
			 "cosmo_repulsion_energy": 1.61, 
			 "cosmo_total_nonelectrostatic_energy": 8.67, 
			 "SMD_solvation_energy": 5.09 
		},
		"coords": [
			{
				"x": -1.6379592602,
				"y": -2.1315515802,
				"z": 1.9442208907,
				"element": "N" 
			},
			{
				"x": -1.7744112293,
				"y": -0.7946570286,
				"z": 1.5903270219,
				"element": "C" 
			},
			{
				"x": -2.7377734664,
				"y": -0.12311762,
				"z": 1.9427312946,
				"element": "O" 
			},
			{
				"x": -0.7263045029,
				"y": -0.2683525368,
				"z": 0.8550397332,
				"element": "N" 
			},
			{
				"x": -0.8072679508,
				"y": 1.1407754673,
				"z": 0.46503974,
				"element": "C" 
			},
			{
				"x": -0.2019820303,
				"y": 1.3650836866,
				"z": -0.9196648562,
				"element": "C" 
			},
			{
				"x": 1.157769544,
				"y": 0.8223255375,
				"z": -0.9252531814,
				"element": "N" 
			},
			{
				"x": 1.6085061618,
				"y": -0.0478289882,
				"z": 0.1531489536,
				"element": "C" 
			},
			{
				"x": 0.5016298587,
				"y": -1.018397663,
				"z": 0.5856277659,
				"element": "C" 
			},
			{
				"x": 2.8177545518,
				"y": -0.7671913593,
				"z": -0.4618737724,
				"element": "C" 
			},
			{
				"x": 3.5243129109,
				"y": -1.5924206036,
				"z": 0.0768070379,
				"element": "O" 
			},
			{
				"x": 2.9103454853,
				"y": -0.2795546952,
				"z": -1.7464552381,
				"element": "N" 
			},
			{
				"x": 1.868026999,
				"y": 0.619031621,
				"z": -2.0830356501,
				"element": "C" 
			},
			{
				"x": 1.6585883433,
				"y": 1.0894742183,
				"z": -3.1816991218,
				"element": "O" 
			},
			{
				"x": -1.1602723105,
				"y": -2.7638036017,
				"z": 1.3179320295,
				"element": "H" 
			},
			{
				"x": -2.490639105,
				"y": -2.5020739861,
				"z": 2.3391944774,
				"element": "H" 
			},
			{
				"x": -0.2997191918,
				"y": 1.7810865212,
				"z": 1.2009612093,
				"element": "H" 
			},
			{
				"x": -1.8609903509,
				"y": 1.419203541,
				"z": 0.473553925,
				"element": "H" 
			},
			{
				"x": -0.8048507533,
				"y": 0.871491458,
				"z": -1.6916870935,
				"element": "H" 
			},
			{
				"x": -0.1796030508,
				"y": 2.4353503898,
				"z": -1.1489210767,
				"element": "H" 
			},
			{
				"x": 1.9507815353,
				"y": 0.5302891891,
				"z": 1.0212139208,
				"element": "H" 
			},
			{
				"x": 0.8316071695,
				"y": -1.5610730636,
				"z": 1.4777502023,
				"element": "H" 
			},
			{
				"x": 0.3481122872,
				"y": -1.755578217,
				"z": -0.2189497092,
				"element": "H" 
			},
			{
				"x": 3.5968383554,
				"y": -0.5824106864,
				"z": -2.4228085025,
				"element": "H" 
			}
		],
		 "valence_orbital": [ 
			{
				"type": "occ",
				"energy": -0.28109,
				"method": "rhf"
			},
			{
				"type": "occ",
				"energy": -0.27602,
				"method": "rhf"
			},
			{
				"type": "occ",
				"energy": -0.26451,
				"method": "rhf"
			},
			{
				"type": "occ",
				"energy": -0.25925,
				"method": "rhf"
			},
			{
				"type": "occ",
				"energy": -0.24793,
				"method": "rhf"
			},
			{
				"type": "unocc",
				"energy": -0.02145,
				"method": "rhf"
			},
			{
				"type": "unocc",
				"energy": 0.04201,
				"method": "rhf"
			},
			{
				"type": "unocc",
				"energy": 0.0464,
				"method": "rhf"
			},
			{
				"type": "unocc",
				"energy": 0.06293,
				"method": "rhf"
			},
			{
				"type": "unocc",
				"energy": 0.07334,
				"method": "rhf"
			}
		],
		"cosmo_sigma_profile": { 
			"-0.025": 0.0,
			"-0.024": 0.0,
			"-0.023": 0.0,
			"-0.022": 0.0,
			"-0.021": 0.0,
			"-0.02": 0.0,
			"-0.019": 0.0,
			"-0.018": 0.0,
			"-0.017": 0.601390270858,
			"-0.016": 1.51493211524,
			"-0.015": 1.07818205563,
			"-0.014": 0.811793452191,
			"-0.013": 3.29302665701,
			"-0.012": 3.6312049888,
			"-0.011": 3.58068053663,
			"-0.01": 3.47575414883,
			"-0.009": 4.41911865818,
			"-0.008": 8.59349497304,
			"-0.007": 10.0752800171,
			"-0.006": 14.8987153449,
			"-0.005": 19.3282243923,
			"-0.004": 12.7339830922,
			"-0.003": 12.5081846352,
			"-0.002": 10.9602041153,
			"-0.001": 9.61624044694,
			"0.0": 7.28156912093,
			"0.001": 7.09587882003,
			"0.002": 5.68590941545,
			"0.003": 6.16762741699,
			"0.004": 4.90205730586,
			"0.005": 5.20021598717,
			"0.006": 3.97173122756,
			"0.007": 3.92839917715,
			"0.008": 3.31329684991,
			"0.009": 5.74396494848,
			"0.01": 5.71395218532,
			"0.011": 8.08821369382,
			"0.012": 10.7044883235,
			"0.013": 7.83275454477,
			"0.014": 5.26931892133,
			"0.015": 2.84986935104,
			"0.016": 0.0326173442205,
			"0.017": 0.0,
			"0.018": 0.0,
			"0.019": 0.0,
			"0.02": 0.0,
			"0.021": 0.0,
			"0.022": 0.0,
			"0.023": 0.0,
			"0.024": 0.0,
			"0.025": 0.0
		}
	}
}
