{
	 "smiles": "OC(=O)CCCCOC1=CC2=C(OC3=C2C=CC=C3)C=C1", 
	 "Tm": 388.15, 
	 "num_atms": 37, 
	 "gaussian": { 
		 "optdone": 1, 
		 "sigma_profile": "yes", 
		 "theory": "DFT", 
		 "functional": "B3LYP", 
		 "basiset": "6-31G**", 
		 "properties": { 
			 "R2extent": 10419.1821, 
			 "electric_dipole_moment_norm": 2.74393568984, 
			 "electric_quadrupole_moment_norm": 14.1111297925, 
			 "total_energy": -958.367591311, 
			 "HOMO_LUMO_gap": 0.17046, 
			 "cosmo_polarized_energy": -15.07, 
			 "cosmo_cavitation_energy": 41.23, 
			 "cosmo_dispersion_energy": -29.6, 
			 "cosmo_repulsion_energy": 2.26, 
			 "cosmo_total_nonelectrostatic_energy": 13.9, 
			 "SMD_solvation_energy": 7.83 
		},
		"coords": [
			{
				"x": -1.1189710405,
				"y": 2.3085908202,
				"z": -6.0754350437,
				"element": "O" 
			},
			{
				"x": -0.7385956663,
				"y": 1.1987258868,
				"z": -5.3972839417,
				"element": "C" 
			},
			{
				"x": -1.1859653498,
				"y": 0.0999785344,
				"z": -5.6444420138,
				"element": "O" 
			},
			{
				"x": 0.3082949321,
				"y": 1.5199260741,
				"z": -4.3497436019,
				"element": "C" 
			},
			{
				"x": 0.5544143647,
				"y": 0.3678627799,
				"z": -3.366726301,
				"element": "C" 
			},
			{
				"x": -0.6065352143,
				"y": 0.0731740648,
				"z": -2.4015878028,
				"element": "C" 
			},
			{
				"x": -0.8479170175,
				"y": 1.1842087742,
				"z": -1.375975284,
				"element": "C" 
			},
			{
				"x": -1.9391441288,
				"y": 0.8948527139,
				"z": -0.5030662396,
				"element": "O" 
			},
			{
				"x": -1.7553395311,
				"y": 0.0667438136,
				"z": 0.5723365223,
				"element": "C" 
			},
			{
				"x": -0.5370753135,
				"y": -0.5066487926,
				"z": 0.9466211623,
				"element": "C" 
			},
			{
				"x": -0.5105237566,
				"y": -1.3146312275,
				"z": 2.0931362949,
				"element": "C" 
			},
			{
				"x": -1.6875111353,
				"y": -1.5296798521,
				"z": 2.826207981,
				"element": "C" 
			},
			{
				"x": -1.4720020822,
				"y": -2.3491783023,
				"z": 3.9154238843,
				"element": "O" 
			},
			{
				"x": -0.1358493657,
				"y": -2.6674537575,
				"z": 3.8846684201,
				"element": "C" 
			},
			{
				"x": 0.5176554054,
				"y": -2.066104121,
				"z": 2.7899353533,
				"element": "C" 
			},
			{
				"x": 1.8881775505,
				"y": -2.289620904,
				"z": 2.6110899208,
				"element": "C" 
			},
			{
				"x": 2.5580117799,
				"y": -3.1011428936,
				"z": 3.5250851739,
				"element": "C" 
			},
			{
				"x": 1.8792431433,
				"y": -3.6870800495,
				"z": 4.6073161301,
				"element": "C" 
			},
			{
				"x": 0.5132496484,
				"y": -3.478637661,
				"z": 4.8060942951,
				"element": "C" 
			},
			{
				"x": -2.9072436939,
				"y": -0.9701942818,
				"z": 2.4654078605,
				"element": "C" 
			},
			{
				"x": -2.9249065144,
				"y": -0.1696467859,
				"z": 1.3287303303,
				"element": "C" 
			},
			{
				"x": -1.7639729165,
				"y": 2.0118876583,
				"z": -6.7396173098,
				"element": "H" 
			},
			{
				"x": 1.2312847452,
				"y": 1.7565715388,
				"z": -4.8955311902,
				"element": "H" 
			},
			{
				"x": 0.0217803989,
				"y": 2.451630187,
				"z": -3.8506054815,
				"element": "H" 
			},
			{
				"x": 1.463766284,
				"y": 0.5899543694,
				"z": -2.7935131225,
				"element": "H" 
			},
			{
				"x": 0.7613710736,
				"y": -0.5361923567,
				"z": -3.9474069568,
				"element": "H" 
			},
			{
				"x": -1.5285137047,
				"y": -0.0954514563,
				"z": -2.9673100251,
				"element": "H" 
			},
			{
				"x": -0.3948872657,
				"y": -0.861340543,
				"z": -1.8709314534,
				"element": "H" 
			},
			{
				"x": -1.1409115722,
				"y": 2.1148698044,
				"z": -1.8708011524,
				"element": "H" 
			},
			{
				"x": 0.0619671135,
				"y": 1.3980107701,
				"z": -0.7976353436,
				"element": "H" 
			},
			{
				"x": 0.3691177905,
				"y": -0.344106785,
				"z": 0.3761543608,
				"element": "H" 
			},
			{
				"x": 2.4203644468,
				"y": -1.8406001067,
				"z": 1.7774605107,
				"element": "H" 
			},
			{
				"x": 3.6209255341,
				"y": -3.2850726525,
				"z": 3.401089864,
				"element": "H" 
			},
			{
				"x": 2.4266586505,
				"y": -4.3149909656,
				"z": 5.3039235796,
				"element": "H" 
			},
			{
				"x": -0.0234057188,
				"y": -3.9243185461,
				"z": 5.6364486838,
				"element": "H" 
			},
			{
				"x": -3.8049416144,
				"y": -1.1506147687,
				"z": 3.0463986566,
				"element": "H" 
			},
			{
				"x": -3.8440702591,
				"y": 0.2992190194,
				"z": 0.9944832792,
				"element": "H" 
			}
		],
		 "valence_orbital": [ 
			{
				"type": "occ",
				"energy": -0.28064,
				"method": "rhf"
			},
			{
				"type": "occ",
				"energy": -0.27963,
				"method": "rhf"
			},
			{
				"type": "occ",
				"energy": -0.2476,
				"method": "rhf"
			},
			{
				"type": "occ",
				"energy": -0.22098,
				"method": "rhf"
			},
			{
				"type": "occ",
				"energy": -0.20399,
				"method": "rhf"
			},
			{
				"type": "unocc",
				"energy": -0.03353,
				"method": "rhf"
			},
			{
				"type": "unocc",
				"energy": 0.00393,
				"method": "rhf"
			},
			{
				"type": "unocc",
				"energy": 0.00703,
				"method": "rhf"
			},
			{
				"type": "unocc",
				"energy": 0.02235,
				"method": "rhf"
			},
			{
				"type": "unocc",
				"energy": 0.04029,
				"method": "rhf"
			}
		],
		"cosmo_sigma_profile": { 
			"-0.025": 0.0,
			"-0.024": 0.0,
			"-0.023": 0.0,
			"-0.022": 0.0,
			"-0.021": 0.0,
			"-0.02": 0.0,
			"-0.019": 0.0,
			"-0.018": 0.524005660076,
			"-0.017": 0.957851602062,
			"-0.016": 0.523361585697,
			"-0.015": 1.08626424328,
			"-0.014": 0.905339767637,
			"-0.013": 0.839906831364,
			"-0.012": 0.452970262974,
			"-0.011": 0.647444632253,
			"-0.01": 0.65043245297,
			"-0.009": 0.618030694538,
			"-0.008": 0.485364698052,
			"-0.007": 8.69122346204,
			"-0.006": 21.0671345707,
			"-0.005": 23.0158035208,
			"-0.004": 26.8586155549,
			"-0.003": 26.1976681281,
			"-0.002": 25.2115320917,
			"-0.001": 18.6919218048,
			"0.0": 19.8202491273,
			"0.001": 19.5345411761,
			"0.002": 23.2778342269,
			"0.003": 26.7419503214,
			"0.004": 28.4605806465,
			"0.005": 16.4890328157,
			"0.006": 6.94599414362,
			"0.007": 5.29399666786,
			"0.008": 5.43277207795,
			"0.009": 5.95739201504,
			"0.01": 4.33690884376,
			"0.011": 3.09208389944,
			"0.012": 4.55625977204,
			"0.013": 0.447380713493,
			"0.014": 0.0,
			"0.015": 0.0,
			"0.016": 0.0,
			"0.017": 0.0,
			"0.018": 0.0,
			"0.019": 0.0,
			"0.02": 0.0,
			"0.021": 0.0,
			"0.022": 0.0,
			"0.023": 0.0,
			"0.024": 0.0,
			"0.025": 0.0
		}
	}
}
