{
	 "smiles": "OC(=O)C1=COCCO1", 
	 "Tm": 438.15, 
	 "num_atms": 15, 
	 "gaussian": { 
		 "optdone": 1, 
		 "sigma_profile": "yes", 
		 "theory": "DFT", 
		 "functional": "B3LYP", 
		 "basiset": "6-31G**", 
		 "properties": { 
			 "R2extent": 1727.5341, 
			 "electric_dipole_moment_norm": 6.03579927267, 
			 "electric_quadrupole_moment_norm": 14.3271111491, 
			 "total_energy": -495.010247966, 
			 "HOMO_LUMO_gap": 0.20109, 
			 "cosmo_polarized_energy": -13.75, 
			 "cosmo_cavitation_energy": 18.99, 
			 "cosmo_dispersion_energy": -14.7, 
			 "cosmo_repulsion_energy": 1.22, 
			 "cosmo_total_nonelectrostatic_energy": 5.51, 
			 "SMD_solvation_energy": 5.49 
		},
		"coords": [
			{
				"x": -2.2668297986,
				"y": -3.065113899,
				"z": -0.762653438,
				"element": "O" 
			},
			{
				"x": -2.2305676774,
				"y": -1.8878081562,
				"z": -1.4285491495,
				"element": "C" 
			},
			{
				"x": -3.035402018,
				"y": -1.6136165649,
				"z": -2.2909077822,
				"element": "O" 
			},
			{
				"x": -1.1343856475,
				"y": -0.9845584801,
				"z": -1.0094462009,
				"element": "C" 
			},
			{
				"x": -0.9958031806,
				"y": 0.2565325336,
				"z": -1.5106956302,
				"element": "C" 
			},
			{
				"x": 0.0035226766,
				"y": 1.1072018286,
				"z": -1.1688156944,
				"element": "O" 
			},
			{
				"x": 1.0365005766,
				"y": 0.4972109979,
				"z": -0.3841088486,
				"element": "C" 
			},
			{
				"x": 0.4363569107,
				"y": -0.4608201346,
				"z": 0.6389689794,
				"element": "C" 
			},
			{
				"x": -0.2851636733,
				"y": -1.4944948473,
				"z": -0.03629849,
				"element": "O" 
			},
			{
				"x": -1.5461942094,
				"y": -3.0694489714,
				"z": -0.1100239399,
				"element": "H" 
			},
			{
				"x": -1.6993814656,
				"y": 0.6581350406,
				"z": -2.2275742684,
				"element": "H" 
			},
			{
				"x": 1.5797188606,
				"y": 1.3109352971,
				"z": 0.1020473803,
				"element": "H" 
			},
			{
				"x": 1.7182009643,
				"y": -0.0467513728,
				"z": -1.0492006977,
				"element": "H" 
			},
			{
				"x": -0.240483621,
				"y": 0.0822848788,
				"z": 1.3114492128,
				"element": "H" 
			},
			{
				"x": 1.2167113025,
				"y": -0.9493881503,
				"z": 1.2267085673,
				"element": "H" 
			}
		],
		 "valence_orbital": [ 
			{
				"type": "occ",
				"energy": -0.35248,
				"method": "rhf"
			},
			{
				"type": "occ",
				"energy": -0.32789,
				"method": "rhf"
			},
			{
				"type": "occ",
				"energy": -0.30722,
				"method": "rhf"
			},
			{
				"type": "occ",
				"energy": -0.26812,
				"method": "rhf"
			},
			{
				"type": "occ",
				"energy": -0.22985,
				"method": "rhf"
			},
			{
				"type": "unocc",
				"energy": -0.02876,
				"method": "rhf"
			},
			{
				"type": "unocc",
				"energy": 0.05948,
				"method": "rhf"
			},
			{
				"type": "unocc",
				"energy": 0.08346,
				"method": "rhf"
			},
			{
				"type": "unocc",
				"energy": 0.10464,
				"method": "rhf"
			},
			{
				"type": "unocc",
				"energy": 0.11061,
				"method": "rhf"
			}
		],
		"cosmo_sigma_profile": { 
			"-0.025": 0.0,
			"-0.024": 0.0,
			"-0.023": 0.0,
			"-0.022": 0.0,
			"-0.021": 0.0,
			"-0.02": 0.0,
			"-0.019": 0.0,
			"-0.018": 0.0,
			"-0.017": 0.0,
			"-0.016": 0.0,
			"-0.015": 0.40788165083,
			"-0.014": 0.55405480468,
			"-0.013": 0.68307237712,
			"-0.012": 0.21759499005,
			"-0.011": 0.649290904495,
			"-0.01": 1.00699517876,
			"-0.009": 1.46608073782,
			"-0.008": 4.56803222005,
			"-0.007": 13.2891292241,
			"-0.006": 14.2608082359,
			"-0.005": 10.8961046047,
			"-0.004": 9.36593253422,
			"-0.003": 6.9511842857,
			"-0.002": 7.49962172014,
			"-0.001": 7.62269770879,
			"0.0": 9.13814988413,
			"0.001": 9.6970940213,
			"0.002": 4.89660580294,
			"0.003": 4.15075523958,
			"0.004": 4.20786124989,
			"0.005": 4.41293059151,
			"0.006": 4.07202328275,
			"0.007": 3.65956174669,
			"0.008": 4.16525618655,
			"0.009": 4.87890001523,
			"0.01": 4.93431660304,
			"0.011": 4.45266721234,
			"0.012": 5.89645342334,
			"0.013": 2.48951217851,
			"0.014": 0.351293271866,
			"0.015": 0.0,
			"0.016": 0.0,
			"0.017": 0.0,
			"0.018": 0.0,
			"0.019": 0.0,
			"0.02": 0.0,
			"0.021": 0.0,
			"0.022": 0.0,
			"0.023": 0.0,
			"0.024": 0.0,
			"0.0": 0.0
		}
	}
}
