{
	 "smiles": "SC1=NN=C(CC2=CC=CC=C2)O1", 
	 "Tm": 398.15, 
	 "num_atms": 21, 
	 "gaussian": { 
		 "optdone": 1, 
		 "sigma_profile": "yes", 
		 "theory": "DFT", 
		 "functional": "B3LYP", 
		 "basiset": "6-31G**", 
		 "properties": { 
			 "R2extent": 4728.5572, 
			 "electric_dipole_moment_norm": 2.4278960542, 
			 "electric_quadrupole_moment_norm": 6.7177009341, 
			 "total_energy": -930.655197699, 
			 "HOMO_LUMO_gap": 0.22851, 
			 "cosmo_polarized_energy": -11.48, 
			 "cosmo_cavitation_energy": 28.1, 
			 "cosmo_dispersion_energy": -20.7, 
			 "cosmo_repulsion_energy": 1.61, 
			 "cosmo_total_nonelectrostatic_energy": 9.01, 
			 "SMD_solvation_energy": 2.58 
		},
		"coords": [
			{
				"x": -5.4254354485,
				"y": 0.0249507121,
				"z": -0.9295430563,
				"element": "S" 
			},
			{
				"x": -3.8712754888,
				"y": 0.7408368433,
				"z": -0.5378718919,
				"element": "C" 
			},
			{
				"x": -3.4910257085,
				"y": 1.3534356863,
				"z": 0.5381666448,
				"element": "N" 
			},
			{
				"x": -2.1564905246,
				"y": 1.7207608233,
				"z": 0.3060407572,
				"element": "N" 
			},
			{
				"x": -1.8511129398,
				"y": 1.3016414156,
				"z": -0.8785050842,
				"element": "C" 
			},
			{
				"x": -0.5517389042,
				"y": 1.405566161,
				"z": -1.6020710953,
				"element": "C" 
			},
			{
				"x": 0.165764141,
				"y": 0.0697642064,
				"z": -1.7473580637,
				"element": "C" 
			},
			{
				"x": 0.5746845924,
				"y": -0.6373250178,
				"z": -0.6086878247,
				"element": "C" 
			},
			{
				"x": 1.2423109914,
				"y": -1.8546908605,
				"z": -0.7349258866,
				"element": "C" 
			},
			{
				"x": 1.5093539726,
				"y": -2.3810914277,
				"z": -2.0014968562,
				"element": "C" 
			},
			{
				"x": 1.1039847988,
				"y": -1.6832390026,
				"z": -3.1391906159,
				"element": "C" 
			},
			{
				"x": 0.4339182789,
				"y": -0.4643450817,
				"z": -3.0111516262,
				"element": "C" 
			},
			{
				"x": -2.9026079997,
				"y": 0.6599615278,
				"z": -1.4879914045,
				"element": "O" 
			},
			{
				"x": -5.963910555,
				"y": 0.3773566763,
				"z": 0.2535422967,
				"element": "H" 
			},
			{
				"x": 0.0592940109,
				"y": 2.1118816698,
				"z": -1.0315262043,
				"element": "H" 
			},
			{
				"x": -0.7251762961,
				"y": 1.8445807981,
				"z": -2.5904333112,
				"element": "H" 
			},
			{
				"x": 0.3642777993,
				"y": -0.2311095535,
				"z": 0.3775325069,
				"element": "H" 
			},
			{
				"x": 1.5551819728,
				"y": -2.3924844705,
				"z": 0.1554808197,
				"element": "H" 
			},
			{
				"x": 2.0300424485,
				"y": -3.3292218411,
				"z": -2.0993649493,
				"element": "H" 
			},
			{
				"x": 1.3066111997,
				"y": -2.0857091017,
				"z": -4.1275778448,
				"element": "H" 
			},
			{
				"x": 0.1188496589,
				"y": 0.0753798371,
				"z": -3.9007673103,
				"element": "H" 
			}
		],
		 "valence_orbital": [ 
			{
				"type": "occ",
				"energy": -0.32087,
				"method": "rhf"
			},
			{
				"type": "occ",
				"energy": -0.28388,
				"method": "rhf"
			},
			{
				"type": "occ",
				"energy": -0.25676,
				"method": "rhf"
			},
			{
				"type": "occ",
				"energy": -0.25467,
				"method": "rhf"
			},
			{
				"type": "occ",
				"energy": -0.24554,
				"method": "rhf"
			},
			{
				"type": "unocc",
				"energy": -0.01703,
				"method": "rhf"
			},
			{
				"type": "unocc",
				"energy": -0.01069,
				"method": "rhf"
			},
			{
				"type": "unocc",
				"energy": -0.00248,
				"method": "rhf"
			},
			{
				"type": "unocc",
				"energy": -0.00181,
				"method": "rhf"
			},
			{
				"type": "unocc",
				"energy": 0.03154,
				"method": "rhf"
			}
		],
		"cosmo_sigma_profile": { 
			"-0.025": 0.0,
			"-0.024": 0.0,
			"-0.023": 0.0,
			"-0.022": 0.0,
			"-0.021": 0.0,
			"-0.02": 0.0,
			"-0.019": 0.0,
			"-0.018": 0.0,
			"-0.017": 0.0,
			"-0.016": 0.0,
			"-0.015": 0.0,
			"-0.014": 0.0725802138359,
			"-0.013": 1.45290006664,
			"-0.012": 1.57183942096,
			"-0.011": 1.29840014139,
			"-0.01": 1.44015724696,
			"-0.009": 0.976223402022,
			"-0.008": 1.72506113091,
			"-0.007": 6.70151984259,
			"-0.006": 12.0381029424,
			"-0.005": 16.4762134548,
			"-0.004": 19.4048577347,
			"-0.003": 18.4310005482,
			"-0.002": 17.1926748223,
			"-0.001": 17.352720929,
			"0.0": 14.3910142149,
			"0.001": 14.4804337373,
			"0.002": 14.4273428457,
			"0.003": 13.4905050549,
			"0.004": 14.5037295813,
			"0.005": 13.5899411192,
			"0.006": 7.16785443979,
			"0.007": 0.997928921526,
			"0.008": 2.35069659492,
			"0.009": 2.60070258577,
			"0.01": 1.88576927719,
			"0.011": 4.12664460013,
			"0.012": 2.59118182025,
			"0.013": 1.97207413411,
			"0.014": 2.38889132544,
			"0.015": 1.02216006138,
			"0.016": 0.0247736055147,
			"0.017": 0.0,
			"0.018": 0.0,
			"0.019": 0.0,
			"0.02": 0.0,
			"0.021": 0.0,
			"0.022": 0.0,
			"0.023": 0.0,
			"0.024": 0.0,
			"0.025": 0.0
		}
	}
}
