{
	 "smiles": "CC1=C(C)C(=O)N2N1C(CBr)=C(C)C2=O", 
	 "Tm": 425.15, 
	 "num_atms": 26, 
	 "gaussian": { 
		 "optdone": 1, 
		 "sigma_profile": "yes", 
		 "theory": "DFT", 
		 "functional": "B3LYP", 
		 "basiset": "6-31G**", 
		 "properties": { 
			 "R2extent": 5251.3558, 
			 "electric_dipole_moment_norm": 7.10929515916, 
			 "electric_quadrupole_moment_norm": 19.1205387319, 
			 "total_energy": -3219.03260057, 
			 "HOMO_LUMO_gap": 0.13307, 
			 "cosmo_polarized_energy": -21.38, 
			 "cosmo_cavitation_energy": 32.0, 
			 "cosmo_dispersion_energy": -22.79, 
			 "cosmo_repulsion_energy": 1.78, 
			 "cosmo_total_nonelectrostatic_energy": 11.0, 
			 "SMD_solvation_energy": 5.89 
		},
		"coords": [
			{
				"x": -0.6311271978,
				"y": -1.6266546076,
				"z": -0.7218217284,
				"element": "C" 
			},
			{
				"x": -0.2192030773,
				"y": -0.4920952437,
				"z": 0.1586001849,
				"element": "C" 
			},
			{
				"x": -0.6487094114,
				"y": -0.1560457541,
				"z": 1.4091972819,
				"element": "C" 
			},
			{
				"x": -1.6574496604,
				"y": -0.8223952054,
				"z": 2.2874302032,
				"element": "C" 
			},
			{
				"x": 0.0669140998,
				"y": 1.0514458107,
				"z": 1.8511421083,
				"element": "C" 
			},
			{
				"x": -0.0268714464,
				"y": 1.6952244935,
				"z": 2.8758045921,
				"element": "O" 
			},
			{
				"x": 0.9637170998,
				"y": 1.3323694706,
				"z": 0.7735043911,
				"element": "N" 
			},
			{
				"x": 0.7811981462,
				"y": 0.4025777173,
				"z": -0.230914765,
				"element": "N" 
			},
			{
				"x": 1.3930490298,
				"y": 0.8810733188,
				"z": -1.3871828121,
				"element": "C" 
			},
			{
				"x": 1.3933964527,
				"y": 0.1245858746,
				"z": -2.6587758432,
				"element": "C" 
			},
			{
				"x": 2.6779663404,
				"y": -1.4090689688,
				"z": -2.6389086449,
				"element": "Br" 
			},
			{
				"x": 1.9858842367,
				"y": 2.0837318796,
				"z": -1.122434404,
				"element": "C" 
			},
			{
				"x": 2.8279943938,
				"y": 2.9560167506,
				"z": -1.9934877598,
				"element": "C" 
			},
			{
				"x": 1.6985237722,
				"y": 2.4454911571,
				"z": 0.278752754,
				"element": "C" 
			},
			{
				"x": 1.9990140859,
				"y": 3.4402033767,
				"z": 0.9073473605,
				"element": "O" 
			},
			{
				"x": -1.2492830188,
				"y": -1.2837896553,
				"z": -1.560503071,
				"element": "H" 
			},
			{
				"x": -1.2257632314,
				"y": -2.3398983236,
				"z": -0.1492129047,
				"element": "H" 
			},
			{
				"x": 0.2384202993,
				"y": -2.1501889058,
				"z": -1.130024649,
				"element": "H" 
			},
			{
				"x": -2.0070547336,
				"y": -1.7693922884,
				"z": 1.8689185358,
				"element": "H" 
			},
			{
				"x": -1.2328474661,
				"y": -1.0183024982,
				"z": 3.2775749817,
				"element": "H" 
			},
			{
				"x": -2.529644573,
				"y": -0.1768761127,
				"z": 2.4414019883,
				"element": "H" 
			},
			{
				"x": 1.7223878374,
				"y": 0.758547094,
				"z": -3.4776032208,
				"element": "H" 
			},
			{
				"x": 0.4331101878,
				"y": -0.3245423392,
				"z": -2.9007171808,
				"element": "H" 
			},
			{
				"x": 2.6424114508,
				"y": 2.7913823425,
				"z": -3.0584994448,
				"element": "H" 
			},
			{
				"x": 3.8960131506,
				"y": 2.7874636393,
				"z": -1.8093748891,
				"element": "H" 
			},
			{
				"x": 2.6260532331,
				"y": 4.0057369775,
				"z": -1.7623130641,
				"element": "H" 
			}
		],
		 "valence_orbital": [ 
			{
				"type": "occ",
				"energy": -0.28403,
				"method": "rhf"
			},
			{
				"type": "occ",
				"energy": -0.28114,
				"method": "rhf"
			},
			{
				"type": "occ",
				"energy": -0.27549,
				"method": "rhf"
			},
			{
				"type": "occ",
				"energy": -0.2542,
				"method": "rhf"
			},
			{
				"type": "occ",
				"energy": -0.21648,
				"method": "rhf"
			},
			{
				"type": "unocc",
				"energy": -0.08341,
				"method": "rhf"
			},
			{
				"type": "unocc",
				"energy": -0.03185,
				"method": "rhf"
			},
			{
				"type": "unocc",
				"energy": 0.02875,
				"method": "rhf"
			},
			{
				"type": "unocc",
				"energy": 0.05057,
				"method": "rhf"
			},
			{
				"type": "unocc",
				"energy": 0.06517,
				"method": "rhf"
			}
		],
		"cosmo_sigma_profile": { 
			"-0.025": 0.0,
			"-0.024": 0.0,
			"-0.023": 0.0,
			"-0.022": 0.0,
			"-0.021": 0.0,
			"-0.02": 0.0,
			"-0.019": 0.0,
			"-0.018": 0.0,
			"-0.017": 0.0,
			"-0.016": 0.0,
			"-0.015": 0.0,
			"-0.014": 0.0,
			"-0.013": 0.0,
			"-0.012": 0.0137767009146,
			"-0.011": 0.733522769045,
			"-0.01": 3.38224305805,
			"-0.009": 5.00587240064,
			"-0.008": 6.20681629689,
			"-0.007": 7.42719795822,
			"-0.006": 10.6191694278,
			"-0.005": 14.821189738,
			"-0.004": 17.232971112,
			"-0.003": 26.2975268751,
			"-0.002": 28.5437555495,
			"-0.001": 30.3357923971,
			"0.0": 20.5198707982,
			"0.001": 10.1399112547,
			"0.002": 8.40660900125,
			"0.003": 8.14224540635,
			"0.004": 9.66850999593,
			"0.005": 9.64197426719,
			"0.006": 4.26848797309,
			"0.007": 2.30792847463,
			"0.008": 3.57978097895,
			"0.009": 2.40416632723,
			"0.01": 3.55196084945,
			"0.011": 6.87760707302,
			"0.012": 11.9016667254,
			"0.013": 5.50761655492,
			"0.014": 0.510515656434,
			"0.015": 0.0,
			"0.016": 0.0,
			"0.017": 0.0,
			"0.018": 0.0,
			"0.019": 0.0,
			"0.02": 0.0,
			"0.021": 0.0,
			"0.022": 0.0,
			"0.023": 0.0,
			"0.024": 0.0,
			"0.025": 0.0
		}
	}
}
