{
	 "smiles": "CCOP(=O)(CN1C(=O)C2=CC=CC=C2C1=O)OCC", 
	 "Tm": 335.15, 
	 "num_atms": 36, 
	 "gaussian": { 
		 "optdone": 1, 
		 "sigma_profile": "yes", 
		 "theory": "DFT", 
		 "functional": "B3LYP", 
		 "basiset": "6-31G**", 
		 "properties": { 
			 "R2extent": 6951.2207, 
			 "electric_dipole_moment_norm": 2.94295149297, 
			 "electric_quadrupole_moment_norm": 16.3618326385, 
			 "total_energy": -1277.34896602, 
			 "HOMO_LUMO_gap": 0.1763, 
			 "cosmo_polarized_energy": -17.57, 
			 "cosmo_cavitation_energy": 41.94, 
			 "cosmo_dispersion_energy": -28.74, 
			 "cosmo_repulsion_energy": 2.22, 
			 "cosmo_total_nonelectrostatic_energy": 15.42, 
			 "SMD_solvation_energy": 9.71 
		},
		"coords": [
			{
				"x": 0.5234263056,
				"y": 0.6865093566,
				"z": -4.6508177813,
				"element": "C" 
			},
			{
				"x": 0.7780948999,
				"y": 0.3795279815,
				"z": -3.1879319284,
				"element": "C" 
			},
			{
				"x": 0.1825335695,
				"y": -0.9170657418,
				"z": -2.9023187786,
				"element": "O" 
			},
			{
				"x": 0.2725542046,
				"y": -1.4877236479,
				"z": -1.3981098569,
				"element": "P" 
			},
			{
				"x": 1.5380738141,
				"y": -1.2696638887,
				"z": -0.6526622611,
				"element": "O" 
			},
			{
				"x": -1.2003147751,
				"y": -0.7517928648,
				"z": -0.5192323149,
				"element": "C" 
			},
			{
				"x": -0.8282524761,
				"y": -0.1075194791,
				"z": 0.7171755766,
				"element": "N" 
			},
			{
				"x": -0.6782721131,
				"y": -0.7950540778,
				"z": 1.9315526426,
				"element": "C" 
			},
			{
				"x": -0.9593643961,
				"y": -1.9653273719,
				"z": 2.1076286185,
				"element": "O" 
			},
			{
				"x": -0.1366039777,
				"y": 0.2079295345,
				"z": 2.8934961147,
				"element": "C" 
			},
			{
				"x": 0.1661031206,
				"y": 0.0837805049,
				"z": 4.2410203741,
				"element": "C" 
			},
			{
				"x": 0.6758894581,
				"y": 1.214490972,
				"z": 4.8940045164,
				"element": "C" 
			},
			{
				"x": 0.8701493887,
				"y": 2.4197095245,
				"z": 4.2077929888,
				"element": "C" 
			},
			{
				"x": 0.5611785962,
				"y": 2.534934907,
				"z": 2.8454199174,
				"element": "C" 
			},
			{
				"x": 0.0572984385,
				"y": 1.4109574473,
				"z": 2.2085251879,
				"element": "C" 
			},
			{
				"x": -0.3547397363,
				"y": 1.2116980873,
				"z": 0.7889264109,
				"element": "C" 
			},
			{
				"x": -0.3214737872,
				"y": 1.9905751579,
				"z": -0.1448276696,
				"element": "O" 
			},
			{
				"x": -0.155613826,
				"y": -3.0082910894,
				"z": -1.7162253185,
				"element": "O" 
			},
			{
				"x": 0.0677968382,
				"y": -4.0188211282,
				"z": -0.6933997324,
				"element": "C" 
			},
			{
				"x": -0.4481908039,
				"y": -5.3379288418,
				"z": -1.2345479702,
				"element": "C" 
			},
			{
				"x": 0.9663057365,
				"y": -0.0820630517,
				"z": -5.2903888262,
				"element": "H" 
			},
			{
				"x": -0.5493818154,
				"y": 0.7333088149,
				"z": -4.858781641,
				"element": "H" 
			},
			{
				"x": 0.9681865478,
				"y": 1.6528919079,
				"z": -4.9090488064,
				"element": "H" 
			},
			{
				"x": 1.8480557345,
				"y": 0.3267804679,
				"z": -2.9659313168,
				"element": "H" 
			},
			{
				"x": 0.3305417009,
				"y": 1.1378875625,
				"z": -2.5349284035,
				"element": "H" 
			},
			{
				"x": -1.6729008637,
				"y": -0.0134582809,
				"z": -1.1705049014,
				"element": "H" 
			},
			{
				"x": -1.9172536244,
				"y": -1.5453703119,
				"z": -0.298179468,
				"element": "H" 
			},
			{
				"x": 0.014628114,
				"y": -0.8557435321,
				"z": 4.7623690303,
				"element": "H" 
			},
			{
				"x": 0.9269920151,
				"y": 1.1563380903,
				"z": 5.9488270033,
				"element": "H" 
			},
			{
				"x": 1.2688676702,
				"y": 3.2773865755,
				"z": 4.741176461,
				"element": "H" 
			},
			{
				"x": 0.7107538751,
				"y": 3.463020694,
				"z": 2.3034451764,
				"element": "H" 
			},
			{
				"x": 1.139094977,
				"y": -4.0620557478,
				"z": -0.4758644797,
				"element": "H" 
			},
			{
				"x": -0.4559653394,
				"y": -3.7295469763,
				"z": 0.2252325811,
				"element": "H" 
			},
			{
				"x": -0.28694056,
				"y": -6.1295113224,
				"z": -0.4957785709,
				"element": "H" 
			},
			{
				"x": -1.5189240831,
				"y": -5.2793603744,
				"z": -1.450073757,
				"element": "H" 
			},
			{
				"x": 0.0753671723,
				"y": -5.6098298576,
				"z": -2.1553388174,
				"element": "H" 
			}
		],
		 "valence_orbital": [ 
			{
				"type": "occ",
				"energy": -0.28531,
				"method": "rhf"
			},
			{
				"type": "occ",
				"energy": -0.28174,
				"method": "rhf"
			},
			{
				"type": "occ",
				"energy": -0.27927,
				"method": "rhf"
			},
			{
				"type": "occ",
				"energy": -0.27331,
				"method": "rhf"
			},
			{
				"type": "occ",
				"energy": -0.2611,
				"method": "rhf"
			},
			{
				"type": "unocc",
				"energy": -0.0848,
				"method": "rhf"
			},
			{
				"type": "unocc",
				"energy": -0.04264,
				"method": "rhf"
			},
			{
				"type": "unocc",
				"energy": 0.02592,
				"method": "rhf"
			},
			{
				"type": "unocc",
				"energy": 0.06161,
				"method": "rhf"
			},
			{
				"type": "unocc",
				"energy": 0.07144,
				"method": "rhf"
			}
		],
		"cosmo_sigma_profile": { 
			"-0.025": 0.0,
			"-0.024": 0.0,
			"-0.023": 0.0,
			"-0.022": 0.0,
			"-0.021": 0.0,
			"-0.02": 0.0,
			"-0.019": 0.0,
			"-0.018": 0.0,
			"-0.017": 0.0,
			"-0.016": 0.0,
			"-0.015": 0.0,
			"-0.014": 0.0,
			"-0.013": 0.0,
			"-0.012": 0.0,
			"-0.011": 0.0,
			"-0.01": 0.0,
			"-0.009": 0.141696034848,
			"-0.008": 4.55589391165,
			"-0.007": 11.4879515013,
			"-0.006": 14.9003495466,
			"-0.005": 22.3024757667,
			"-0.004": 32.9141739172,
			"-0.003": 35.016067494,
			"-0.002": 28.2907859273,
			"-0.001": 30.7704276712,
			"0.0": 29.6951927947,
			"0.001": 24.9502958828,
			"0.002": 18.6213305898,
			"0.003": 10.8690358244,
			"0.004": 9.05042429755,
			"0.005": 6.19875314483,
			"0.006": 6.55460413322,
			"0.007": 5.96547622953,
			"0.008": 5.94893755445,
			"0.009": 6.69380079152,
			"0.01": 9.27297186596,
			"0.011": 7.05775776776,
			"0.012": 2.04492145486,
			"0.013": 2.44226304108,
			"0.014": 3.52105433861,
			"0.015": 1.48508510876,
			"0.016": 0.0250526783209,
			"0.017": 0.0,
			"0.018": 0.0,
			"0.019": 0.0,
			"0.02": 0.0,
			"0.021": 0.0,
			"0.022": 0.0,
			"0.023": 0.0,
			"0.024": 0.0,
			"0.025": 0.0
		}
	}
}
