{
	 "smiles": "OCCN1CCN(CC1)C1=NC(=CC=N1)C(F)(F)F", 
	 "Tm": 343.65, 
	 "num_atms": 34, 
	 "gaussian": { 
		 "optdone": 1, 
		 "sigma_profile": "yes", 
		 "theory": "DFT", 
		 "functional": "B3LYP", 
		 "basiset": "6-31G**", 
		 "properties": { 
			 "R2extent": 7550.4642, 
			 "electric_dipole_moment_norm": 4.11183718671, 
			 "electric_quadrupole_moment_norm": 13.8640436403, 
			 "total_energy": -1021.94899788, 
			 "HOMO_LUMO_gap": 0.15903, 
			 "cosmo_polarized_energy": -11.31, 
			 "cosmo_cavitation_energy": 37.4, 
			 "cosmo_dispersion_energy": -26.61, 
			 "cosmo_repulsion_energy": 2.02, 
			 "cosmo_total_nonelectrostatic_energy": 12.81, 
			 "SMD_solvation_energy": 2.95 
		},
		"coords": [
			{
				"x": 1.9846360134,
				"y": -4.0201929283,
				"z": 0.8364115101,
				"element": "O" 
			},
			{
				"x": 1.9213086005,
				"y": -4.0520142681,
				"z": -0.5846044721,
				"element": "C" 
			},
			{
				"x": 0.464879301,
				"y": -3.8517667048,
				"z": -1.019145838,
				"element": "C" 
			},
			{
				"x": -0.1426629068,
				"y": -2.5400416959,
				"z": -0.8261166512,
				"element": "N" 
			},
			{
				"x": -0.3841464111,
				"y": -2.1454221659,
				"z": 0.5631356814,
				"element": "C" 
			},
			{
				"x": -1.3153183939,
				"y": -0.9313409118,
				"z": 0.6033875224,
				"element": "C" 
			},
			{
				"x": -0.7602103138,
				"y": 0.1533329995,
				"z": -0.2064233065,
				"element": "N" 
			},
			{
				"x": -0.4334577342,
				"y": -0.224581528,
				"z": -1.5788325559,
				"element": "C" 
			},
			{
				"x": 0.4757961056,
				"y": -1.457544337,
				"z": -1.5825092999,
				"element": "C" 
			},
			{
				"x": -0.6817865008,
				"y": 1.4381583701,
				"z": 0.2391163221,
				"element": "C" 
			},
			{
				"x": -1.0754333042,
				"y": 1.6869914732,
				"z": 1.5091341616,
				"element": "N" 
			},
			{
				"x": -0.9719031202,
				"y": 2.9434789413,
				"z": 1.9255766785,
				"element": "C" 
			},
			{
				"x": -0.4954960947,
				"y": 3.98620067,
				"z": 1.1376682821,
				"element": "C" 
			},
			{
				"x": -0.1234221679,
				"y": 3.6168629589,
				"z": -0.1584961658,
				"element": "C" 
			},
			{
				"x": -0.2071049973,
				"y": 2.3758592875,
				"z": -0.6211534737,
				"element": "N" 
			},
			{
				"x": -1.4223954172,
				"y": 3.176574194,
				"z": 3.3574660495,
				"element": "C" 
			},
			{
				"x": -1.2866747637,
				"y": 4.4738581464,
				"z": 3.7114294403,
				"element": "F" 
			},
			{
				"x": -0.6980350759,
				"y": 2.4411317293,
				"z": 4.2215432803,
				"element": "F" 
			},
			{
				"x": -2.7159882968,
				"y": 2.8429690555,
				"z": 3.5216994601,
				"element": "F" 
			},
			{
				"x": 2.9110871933,
				"y": -4.0707739809,
				"z": 1.1017965765,
				"element": "H" 
			},
			{
				"x": 2.562005705,
				"y": -3.2763652409,
				"z": -1.0326513605,
				"element": "H" 
			},
			{
				"x": 2.2650002605,
				"y": -5.0236009203,
				"z": -0.9777985833,
				"element": "H" 
			},
			{
				"x": 0.4036527372,
				"y": -4.0937374734,
				"z": -2.0891145611,
				"element": "H" 
			},
			{
				"x": -0.1472120162,
				"y": -4.5904188083,
				"z": -0.487177357,
				"element": "H" 
			},
			{
				"x": 0.5476796175,
				"y": -1.9104725824,
				"z": 1.1022431243,
				"element": "H" 
			},
			{
				"x": -0.8588926013,
				"y": -2.9807932144,
				"z": 1.0882773009,
				"element": "H" 
			},
			{
				"x": -1.4467170686,
				"y": -0.5731277641,
				"z": 1.6229673152,
				"element": "H" 
			},
			{
				"x": -2.2980445059,
				"y": -1.2126977738,
				"z": 0.1977675964,
				"element": "H" 
			},
			{
				"x": 0.0478061009,
				"y": 0.6202480996,
				"z": -2.0685655125,
				"element": "H" 
			},
			{
				"x": -1.3621862812,
				"y": -0.4644689513,
				"z": -2.116893599,
				"element": "H" 
			},
			{
				"x": 0.6225189431,
				"y": -1.7854274444,
				"z": -2.6187696752,
				"element": "H" 
			},
			{
				"x": 1.4652024782,
				"y": -1.1640525625,
				"z": -1.1822117648,
				"element": "H" 
			},
			{
				"x": -0.4232240517,
				"y": 5.0024805381,
				"z": 1.4986631282,
				"element": "H" 
			},
			{
				"x": 0.2590389672,
				"y": 4.3614947932,
				"z": -0.8558192531,
				"element": "H" 
			}
		],
		 "valence_orbital": [ 
			{
				"type": "occ",
				"energy": -0.31043,
				"method": "rhf"
			},
			{
				"type": "occ",
				"energy": -0.27335,
				"method": "rhf"
			},
			{
				"type": "occ",
				"energy": -0.25044,
				"method": "rhf"
			},
			{
				"type": "occ",
				"energy": -0.22035,
				"method": "rhf"
			},
			{
				"type": "occ",
				"energy": -0.20534,
				"method": "rhf"
			},
			{
				"type": "unocc",
				"energy": -0.04631,
				"method": "rhf"
			},
			{
				"type": "unocc",
				"energy": -0.00544,
				"method": "rhf"
			},
			{
				"type": "unocc",
				"energy": 0.06566,
				"method": "rhf"
			},
			{
				"type": "unocc",
				"energy": 0.09792,
				"method": "rhf"
			},
			{
				"type": "unocc",
				"energy": 0.11159,
				"method": "rhf"
			}
		],
		"cosmo_sigma_profile": { 
			"-0.025": 0.0,
			"-0.024": 0.0,
			"-0.023": 0.0,
			"-0.022": 0.0,
			"-0.021": 0.0,
			"-0.02": 0.0,
			"-0.019": 0.0,
			"-0.018": 0.0,
			"-0.017": 0.0,
			"-0.016": 0.259246054382,
			"-0.015": 0.957619452552,
			"-0.014": 1.10813330718,
			"-0.013": 0.810781566119,
			"-0.012": 1.24882729577,
			"-0.011": 0.599638908786,
			"-0.01": 0.68748386581,
			"-0.009": 0.979729557641,
			"-0.008": 1.64941728703,
			"-0.007": 5.73064983391,
			"-0.006": 5.12609110566,
			"-0.005": 5.66788054937,
			"-0.004": 22.0353478972,
			"-0.003": 37.4920941484,
			"-0.002": 33.7473802535,
			"-0.001": 28.6251994525,
			"0.0": 25.0653264156,
			"0.001": 19.7557160266,
			"0.002": 29.5344685847,
			"0.003": 26.6282258803,
			"0.004": 8.55068596732,
			"0.005": 7.41275647072,
			"0.006": 6.5045058336,
			"0.007": 6.18289838497,
			"0.008": 5.49086534304,
			"0.009": 3.7411434627,
			"0.01": 2.37084559269,
			"0.011": 2.11615265513,
			"0.012": 1.56674863303,
			"0.013": 1.14011635613,
			"0.014": 1.21630347275,
			"0.015": 0.384712785789,
			"0.016": 0.0,
			"0.017": 0.0,
			"0.018": 0.0,
			"0.019": 0.0,
			"0.02": 0.0,
			"0.021": 0.0,
			"0.022": 0.0,
			"0.023": 0.0,
			"0.024": 0.0,
			"0.025": 0.0
		}
	}
}
