{
	 "smiles": "COC1CC2C3(C)CCCC2(COC3)C2C(CC3C(C)C(=O)C12C3O)OC(C)=O", 
	 "Tm": 438.15, 
	 "num_atms": 63, 
	 "gaussian": { 
		 "optdone": 1, 
		 "sigma_profile": "yes", 
		 "theory": "DFT", 
		 "functional": "B3LYP", 
		 "basiset": "6-31G**", 
		 "properties": { 
			 "R2extent": 9596.8507, 
			 "electric_dipole_moment_norm": 2.75972944326, 
			 "electric_quadrupole_moment_norm": 19.1704364757, 
			 "total_energy": -1348.25171647, 
			 "HOMO_LUMO_gap": 0.21889, 
			 "cosmo_polarized_energy": -18.24, 
			 "cosmo_cavitation_energy": 53.7, 
			 "cosmo_dispersion_energy": -35.34, 
			 "cosmo_repulsion_energy": 2.58, 
			 "cosmo_total_nonelectrostatic_energy": 20.94, 
			 "SMD_solvation_energy": 9.77 
		},
		"coords": [
			{
				"x": 1.3114419651,
				"y": 2.9500275669,
				"z": 1.7667729503,
				"element": "C" 
			},
			{
				"x": 0.878173055,
				"y": 1.6290111481,
				"z": 1.4874892222,
				"element": "O" 
			},
			{
				"x": 1.5934486093,
				"y": 0.9774365823,
				"z": 0.4094548145,
				"element": "C" 
			},
			{
				"x": 1.0704725295,
				"y": 1.4536316228,
				"z": -0.9371616213,
				"element": "C" 
			},
			{
				"x": -0.3937381317,
				"y": 1.0248346439,
				"z": -1.1368127516,
				"element": "C" 
			},
			{
				"x": -1.1000286862,
				"y": 1.6715839947,
				"z": -2.3709365125,
				"element": "C" 
			},
			{
				"x": -1.0046621081,
				"y": 3.2078118886,
				"z": -2.3477593592,
				"element": "C" 
			},
			{
				"x": -2.6005347449,
				"y": 1.2909744168,
				"z": -2.3256513518,
				"element": "C" 
			},
			{
				"x": -2.8270443631,
				"y": -0.2216713729,
				"z": -2.3385768656,
				"element": "C" 
			},
			{
				"x": -2.0100716567,
				"y": -0.919376804,
				"z": -1.2458185731,
				"element": "C" 
			},
			{
				"x": -0.5083569415,
				"y": -0.5215580535,
				"z": -1.2336228489,
				"element": "C" 
			},
			{
				"x": 0.1454901273,
				"y": -0.9517933088,
				"z": -2.6066487104,
				"element": "C" 
			},
			{
				"x": 0.5274229012,
				"y": 0.1167122064,
				"z": -3.4580494233,
				"element": "O" 
			},
			{
				"x": -0.4486454948,
				"y": 1.1238232741,
				"z": -3.6807685183,
				"element": "C" 
			},
			{
				"x": 0.2418507845,
				"y": -1.2922203737,
				"z": -0.0614395448,
				"element": "C" 
			},
			{
				"x": -0.5881830632,
				"y": -2.0487508465,
				"z": 0.9871357834,
				"element": "C" 
			},
			{
				"x": 0.3388931639,
				"y": -2.9696398764,
				"z": 1.8285739873,
				"element": "C" 
			},
			{
				"x": 1.7927796195,
				"y": -2.4637897749,
				"z": 2.007745729,
				"element": "C" 
			},
			{
				"x": 2.7506271927,
				"y": -2.6723824248,
				"z": 0.7958068328,
				"element": "C" 
			},
			{
				"x": 4.1996346851,
				"y": -3.0098704534,
				"z": 1.1711504908,
				"element": "C" 
			},
			{
				"x": 2.6765277009,
				"y": -1.3220945804,
				"z": 0.0354705229,
				"element": "C" 
			},
			{
				"x": 3.445878918,
				"y": -0.9545869288,
				"z": -0.826788899,
				"element": "O" 
			},
			{
				"x": 1.4845429164,
				"y": -0.5400522633,
				"z": 0.615644844,
				"element": "C" 
			},
			{
				"x": 1.7567199721,
				"y": -0.939580915,
				"z": 2.114053916,
				"element": "C" 
			},
			{
				"x": 0.8906101629,
				"y": -0.5078970234,
				"z": 3.1265457238,
				"element": "O" 
			},
			{
				"x": -1.3397259458,
				"y": -1.0949632334,
				"z": 1.7792295447,
				"element": "O" 
			},
			{
				"x": -2.3420698634,
				"y": -1.5869287438,
				"z": 2.5397141748,
				"element": "C" 
			},
			{
				"x": -2.9590685052,
				"y": -0.4948318862,
				"z": 3.3805305653,
				"element": "C" 
			},
			{
				"x": -2.6784662216,
				"y": -2.7528540548,
				"z": 2.5471531969,
				"element": "O" 
			},
			{
				"x": 0.7543257686,
				"y": 3.2904357399,
				"z": 2.6428918602,
				"element": "H" 
			},
			{
				"x": 1.1092774195,
				"y": 3.6384075444,
				"z": 0.9360865617,
				"element": "H" 
			},
			{
				"x": 2.3874374406,
				"y": 2.9806843339,
				"z": 1.9923065059,
				"element": "H" 
			},
			{
				"x": 2.657776112,
				"y": 1.2418437175,
				"z": 0.5032596298,
				"element": "H" 
			},
			{
				"x": 1.7124488062,
				"y": 1.052799178,
				"z": -1.7241773581,
				"element": "H" 
			},
			{
				"x": 1.1634031973,
				"y": 2.542734568,
				"z": -0.9802121723,
				"element": "H" 
			},
			{
				"x": -0.9480226131,
				"y": 1.348227996,
				"z": -0.2453748464,
				"element": "H" 
			},
			{
				"x": -1.4104885406,
				"y": 3.6151894422,
				"z": -1.4142812715,
				"element": "H" 
			},
			{
				"x": -1.5853081573,
				"y": 3.6365039091,
				"z": -3.1729768159,
				"element": "H" 
			},
			{
				"x": 0.0235930949,
				"y": 3.5642371929,
				"z": -2.456120706,
				"element": "H" 
			},
			{
				"x": -3.0431753488,
				"y": 1.7203267565,
				"z": -1.4159024198,
				"element": "H" 
			},
			{
				"x": -3.1197480858,
				"y": 1.7579438699,
				"z": -3.1730502968,
				"element": "H" 
			},
			{
				"x": -2.5683767223,
				"y": -0.6278410872,
				"z": -3.3239733675,
				"element": "H" 
			},
			{
				"x": -3.8904152227,
				"y": -0.4470624222,
				"z": -2.1955732498,
				"element": "H" 
			},
			{
				"x": -2.1053810534,
				"y": -2.0056526614,
				"z": -1.3677018911,
				"element": "H" 
			},
			{
				"x": -2.4443654184,
				"y": -0.6690104087,
				"z": -0.2740405033,
				"element": "H" 
			},
			{
				"x": 1.0804486469,
				"y": -1.4918048693,
				"z": -2.4391077814,
				"element": "H" 
			},
			{
				"x": -0.5345843781,
				"y": -1.6381062915,
				"z": -3.1381405539,
				"element": "H" 
			},
			{
				"x": 0.0945066546,
				"y": 1.9196403952,
				"z": -4.1995860129,
				"element": "H" 
			},
			{
				"x": -1.2220569493,
				"y": 0.758829536,
				"z": -4.375871079,
				"element": "H" 
			},
			{
				"x": 0.6778661651,
				"y": -2.1513937761,
				"z": -0.5879873527,
				"element": "H" 
			},
			{
				"x": -1.323522844,
				"y": -2.6877488924,
				"z": 0.4967445398,
				"element": "H" 
			},
			{
				"x": -0.121493749,
				"y": -3.114444824,
				"z": 2.8062750284,
				"element": "H" 
			},
			{
				"x": 0.3533311869,
				"y": -3.9556812148,
				"z": 1.3477927092,
				"element": "H" 
			},
			{
				"x": 2.2138875661,
				"y": -2.9209339152,
				"z": 2.9089386809,
				"element": "H" 
			},
			{
				"x": 2.3810770465,
				"y": -3.4628628631,
				"z": 0.1294276721,
				"element": "H" 
			},
			{
				"x": 4.8398574537,
				"y": -2.9608819366,
				"z": 0.2864482623,
				"element": "H" 
			},
			{
				"x": 4.5935451404,
				"y": -2.304077424,
				"z": 1.9103226105,
				"element": "H" 
			},
			{
				"x": 4.2653682905,
				"y": -4.0155246528,
				"z": 1.5971920892,
				"element": "H" 
			},
			{
				"x": 2.7782903255,
				"y": -0.5645551365,
				"z": 2.3223229397,
				"element": "H" 
			},
			{
				"x": 0.6256575588,
				"y": 0.3890593482,
				"z": 2.862994853,
				"element": "H" 
			},
			{
				"x": -3.8595893081,
				"y": -0.8712444832,
				"z": 3.8651013186,
				"element": "H" 
			},
			{
				"x": -3.1920317143,
				"y": 0.381375828,
				"z": 2.7697014631,
				"element": "H" 
			},
			{
				"x": -2.2353563455,
				"y": -0.1829169233,
				"z": 4.1405336355,
				"element": "H" 
			}
		],
		 "valence_orbital": [ 
			{
				"type": "occ",
				"energy": -0.26432,
				"method": "rhf"
			},
			{
				"type": "occ",
				"energy": -0.26315,
				"method": "rhf"
			},
			{
				"type": "occ",
				"energy": -0.25146,
				"method": "rhf"
			},
			{
				"type": "occ",
				"energy": -0.24041,
				"method": "rhf"
			},
			{
				"type": "occ",
				"energy": -0.23677,
				"method": "rhf"
			},
			{
				"type": "unocc",
				"energy": -0.01788,
				"method": "rhf"
			},
			{
				"type": "unocc",
				"energy": 0.01782,
				"method": "rhf"
			},
			{
				"type": "unocc",
				"energy": 0.059,
				"method": "rhf"
			},
			{
				"type": "unocc",
				"energy": 0.07324,
				"method": "rhf"
			},
			{
				"type": "unocc",
				"energy": 0.07882,
				"method": "rhf"
			}
		],
		"cosmo_sigma_profile": { 
			"-0.025": 0.0,
			"-0.024": 0.0,
			"-0.023": 0.0,
			"-0.022": 0.0,
			"-0.021": 0.0,
			"-0.02": 0.0,
			"-0.019": 0.0,
			"-0.018": 0.0,
			"-0.017": 0.0,
			"-0.016": 0.0,
			"-0.015": 0.0,
			"-0.014": 0.0,
			"-0.013": 0.0,
			"-0.012": 0.0,
			"-0.011": 0.0,
			"-0.01": 0.0,
			"-0.009": 0.0,
			"-0.008": 1.51069546395,
			"-0.007": 3.1063397141,
			"-0.006": 9.98713671606,
			"-0.005": 21.3278752994,
			"-0.004": 37.0778150147,
			"-0.003": 57.7254022891,
			"-0.002": 68.1936569785,
			"-0.001": 49.6056870948,
			"0.0": 38.9224128459,
			"0.001": 28.2054486163,
			"0.002": 13.764430147,
			"0.003": 10.4154488207,
			"0.004": 7.41853676082,
			"0.005": 8.2970241997,
			"0.006": 9.23676410891,
			"0.007": 7.85842539251,
			"0.008": 7.15626987725,
			"0.009": 5.15127028035,
			"0.01": 5.95940423269,
			"0.011": 7.54639129034,
			"0.012": 8.27953092989,
			"0.013": 4.673878804,
			"0.014": 1.76330954546,
			"0.015": 0.715870228475,
			"0.016": 0.0,
			"0.017": 0.0,
			"0.018": 0.0,
			"0.019": 0.0,
			"0.02": 0.0,
			"0.021": 0.0,
			"0.022": 0.0,
			"0.023": 0.0,
			"0.024": 0.0,
			"0.025": 0.0
		}
	}
}
