{
	 "smiles": "COC(=O)C1=C2C=CC=CC2=NC(=C1)C1=CC=CC=C1", 
	 "Tm": 334.15, 
	 "num_atms": 33, 
	 "gaussian": { 
		 "optdone": 1, 
		 "sigma_profile": "yes", 
		 "theory": "DFT", 
		 "functional": "B3LYP", 
		 "basiset": "6-31G**", 
		 "properties": { 
			 "R2extent": 7019.2342, 
			 "electric_dipole_moment_norm": 1.82783433057, 
			 "electric_quadrupole_moment_norm": 14.3899384332, 
			 "total_energy": -860.867226443, 
			 "HOMO_LUMO_gap": 0.14535, 
			 "cosmo_polarized_energy": -9.63, 
			 "cosmo_cavitation_energy": 37.27, 
			 "cosmo_dispersion_energy": -27.29, 
			 "cosmo_repulsion_energy": 2.05, 
			 "cosmo_total_nonelectrostatic_energy": 12.03, 
			 "SMD_solvation_energy": 6.44 
		},
		"coords": [
			{
				"x": -2.5155330365,
				"y": -3.8871264297,
				"z": 0.6674563218,
				"element": "C" 
			},
			{
				"x": -1.7264658126,
				"y": -2.6925124982,
				"z": 0.7788611452,
				"element": "O" 
			},
			{
				"x": -0.3981890242,
				"y": -2.8579759126,
				"z": 0.5789258516,
				"element": "C" 
			},
			{
				"x": 0.0828032339,
				"y": -3.9444386809,
				"z": 0.3194539349,
				"element": "O" 
			},
			{
				"x": 0.3551453256,
				"y": -1.5679534983,
				"z": 0.7161846488,
				"element": "C" 
			},
			{
				"x": 1.7778425268,
				"y": -1.4919394471,
				"z": 0.5413818475,
				"element": "C" 
			},
			{
				"x": 2.63238072,
				"y": -2.5792968706,
				"z": 0.2118791881,
				"element": "C" 
			},
			{
				"x": 3.9910088329,
				"y": -2.3861257497,
				"z": 0.0787206827,
				"element": "C" 
			},
			{
				"x": 4.5691924218,
				"y": -1.1082602933,
				"z": 0.2656596565,
				"element": "C" 
			},
			{
				"x": 3.7717409267,
				"y": -0.0348170279,
				"z": 0.5837243189,
				"element": "C" 
			},
			{
				"x": 2.3664634138,
				"y": -0.1941967599,
				"z": 0.7281686676,
				"element": "C" 
			},
			{
				"x": 1.6482673379,
				"y": 0.918160578,
				"z": 1.036231637,
				"element": "N" 
			},
			{
				"x": 0.334713728,
				"y": 0.8257876108,
				"z": 1.1766982652,
				"element": "C" 
			},
			{
				"x": -0.3403819512,
				"y": -0.4179014208,
				"z": 1.0314526233,
				"element": "C" 
			},
			{
				"x": -0.4048766472,
				"y": 2.0726112779,
				"z": 1.5136092068,
				"element": "C" 
			},
			{
				"x": 0.2976930652,
				"y": 3.1757553977,
				"z": 2.0281341788,
				"element": "C" 
			},
			{
				"x": -0.3683830101,
				"y": 4.3533041781,
				"z": 2.3558351954,
				"element": "C" 
			},
			{
				"x": -1.7496731512,
				"y": 4.4570219277,
				"z": 2.1707109609,
				"element": "C" 
			},
			{
				"x": -2.4571835806,
				"y": 3.3725641722,
				"z": 1.6505350674,
				"element": "C" 
			},
			{
				"x": -1.7917419675,
				"y": 2.1908630843,
				"z": 1.3253813927,
				"element": "C" 
			},
			{
				"x": -2.1966972206,
				"y": -4.6290050739,
				"z": 1.4037221077,
				"element": "H" 
			},
			{
				"x": -2.420182146,
				"y": -4.3193680833,
				"z": -0.3316437598,
				"element": "H" 
			},
			{
				"x": -3.5432202918,
				"y": -3.576899146,
				"z": 0.8553095296,
				"element": "H" 
			},
			{
				"x": 2.19839109,
				"y": -3.5587694349,
				"z": 0.0696863781,
				"element": "H" 
			},
			{
				"x": 4.6269611361,
				"y": -3.2297224799,
				"z": -0.1739284944,
				"element": "H" 
			},
			{
				"x": 5.6421078747,
				"y": -0.9793372326,
				"z": 0.1559025392,
				"element": "H" 
			},
			{
				"x": 4.1757700128,
				"y": 0.9609965064,
				"z": 0.7324337988,
				"element": "H" 
			},
			{
				"x": -1.4076628902,
				"y": -0.478138061,
				"z": 1.189799816,
				"element": "H" 
			},
			{
				"x": 1.369667032,
				"y": 3.0861860061,
				"z": 2.1623900577,
				"element": "H" 
			},
			{
				"x": 0.1907643957,
				"y": 5.1931221856,
				"z": 2.7587181559,
				"element": "H" 
			},
			{
				"x": -2.2689165966,
				"y": 5.3762693126,
				"z": 2.4262283933,
				"element": "H" 
			},
			{
				"x": -3.529129601,
				"y": 3.4464844603,
				"z": 1.4910371847,
				"element": "H" 
			},
			{
				"x": -2.3593761462,
				"y": 1.3693574029,
				"z": 0.9001395022,
				"element": "H" 
			}
		],
		 "valence_orbital": [ 
			{
				"type": "occ",
				"energy": -0.27206,
				"method": "rhf"
			},
			{
				"type": "occ",
				"energy": -0.25541,
				"method": "rhf"
			},
			{
				"type": "occ",
				"energy": -0.25045,
				"method": "rhf"
			},
			{
				"type": "occ",
				"energy": -0.23938,
				"method": "rhf"
			},
			{
				"type": "occ",
				"energy": -0.22348,
				"method": "rhf"
			},
			{
				"type": "unocc",
				"energy": -0.07813,
				"method": "rhf"
			},
			{
				"type": "unocc",
				"energy": -0.03551,
				"method": "rhf"
			},
			{
				"type": "unocc",
				"energy": -0.00353,
				"method": "rhf"
			},
			{
				"type": "unocc",
				"energy": -0.00047,
				"method": "rhf"
			},
			{
				"type": "unocc",
				"energy": 0.01383,
				"method": "rhf"
			}
		],
		"cosmo_sigma_profile": { 
			"-0.025": 0.0,
			"-0.024": 0.0,
			"-0.023": 0.0,
			"-0.022": 0.0,
			"-0.021": 0.0,
			"-0.02": 0.0,
			"-0.019": 0.0,
			"-0.018": 0.0,
			"-0.017": 0.0,
			"-0.016": 0.0,
			"-0.015": 0.0,
			"-0.014": 0.0,
			"-0.013": 0.0,
			"-0.012": 0.0,
			"-0.011": 0.0,
			"-0.01": 0.0,
			"-0.009": 0.0342011909238,
			"-0.008": 0.991380138774,
			"-0.007": 3.60558968976,
			"-0.006": 17.6362720165,
			"-0.005": 22.0778585151,
			"-0.004": 29.0023348925,
			"-0.003": 25.3003171182,
			"-0.002": 19.1448340721,
			"-0.001": 20.210455481,
			"0.0": 26.4026695072,
			"0.001": 23.8760763753,
			"0.002": 24.4300580761,
			"0.003": 26.1894368955,
			"0.004": 24.4709483218,
			"0.005": 16.1133837087,
			"0.006": 4.99562307593,
			"0.007": 3.13061040239,
			"0.008": 3.61710725485,
			"0.009": 2.23867415892,
			"0.01": 2.96428043734,
			"0.011": 3.19853861941,
			"0.012": 0.552287742807,
			"0.013": 0.0,
			"0.014": 0.0,
			"0.015": 0.0,
			"0.016": 0.0,
			"0.017": 0.0,
			"0.018": 0.0,
			"0.019": 0.0,
			"0.02": 0.0,
			"0.021": 0.0,
			"0.022": 0.0,
			"0.023": 0.0,
			"0.024": 0.0,
			"0.025": 0.0
		}
	}
}
