{
	 "smiles": "CC1=CC=C(C=C1)C(=O)C1=CSC(=C1)S(N)(=O)=O", 
	 "Tm": 449.15, 
	 "num_atms": 29, 
	 "gaussian": { 
		 "optdone": 1, 
		 "sigma_profile": "yes", 
		 "theory": "DFT", 
		 "functional": "B3LYP", 
		 "basiset": "6-31G**", 
		 "properties": { 
			 "R2extent": 8549.0729, 
			 "electric_dipole_moment_norm": 5.04678547295, 
			 "electric_quadrupole_moment_norm": 21.1582177435, 
			 "total_energy": -1540.62388593, 
			 "HOMO_LUMO_gap": 0.18043, 
			 "cosmo_polarized_energy": -19.89, 
			 "cosmo_cavitation_energy": 37.13, 
			 "cosmo_dispersion_energy": -27.65, 
			 "cosmo_repulsion_energy": 2.05, 
			 "cosmo_total_nonelectrostatic_energy": 11.54, 
			 "SMD_solvation_energy": 6.17 
		},
		"coords": [
			{
				"x": -0.8497124775,
				"y": 5.1424563042,
				"z": 3.3099079039,
				"element": "C" 
			},
			{
				"x": -0.2540922214,
				"y": 3.9976595285,
				"z": 2.5274403376,
				"element": "C" 
			},
			{
				"x": 1.1385129518,
				"y": 3.8719987333,
				"z": 2.3886370311,
				"element": "C" 
			},
			{
				"x": 1.6943730922,
				"y": 2.830569275,
				"z": 1.6573318431,
				"element": "C" 
			},
			{
				"x": 0.8722692311,
				"y": 1.8881208408,
				"z": 1.0169142002,
				"element": "C" 
			},
			{
				"x": -0.5183238048,
				"y": 1.9990767088,
				"z": 1.1630503928,
				"element": "C" 
			},
			{
				"x": -1.0683359731,
				"y": 3.0381488328,
				"z": 1.9133969204,
				"element": "C" 
			},
			{
				"x": 1.5362303069,
				"y": 0.7729674667,
				"z": 0.2766761087,
				"element": "C" 
			},
			{
				"x": 2.6675199035,
				"y": 0.4064778406,
				"z": 0.5773023431,
				"element": "O" 
			},
			{
				"x": 0.8427737348,
				"y": 0.0994194789,
				"z": -0.8624323933,
				"element": "C" 
			},
			{
				"x": -0.142346328,
				"y": 0.6320804146,
				"z": -1.6665575459,
				"element": "C" 
			},
			{
				"x": -0.5992426483,
				"y": -0.4204746189,
				"z": -2.9530038221,
				"element": "S" 
			},
			{
				"x": 0.5603150075,
				"y": -1.6081366733,
				"z": -2.4144803638,
				"element": "C" 
			},
			{
				"x": 1.2517648964,
				"y": -1.1975054918,
				"z": -1.3109656705,
				"element": "C" 
			},
			{
				"x": 0.7592033958,
				"y": -3.1688826202,
				"z": -3.2286733166,
				"element": "S" 
			},
			{
				"x": 1.6016048507,
				"y": -2.7499574111,
				"z": -4.6333800805,
				"element": "N" 
			},
			{
				"x": -0.5545481352,
				"y": -3.6245027378,
				"z": -3.6844576228,
				"element": "O" 
			},
			{
				"x": 1.6162193305,
				"y": -3.9801088096,
				"z": -2.3628072808,
				"element": "O" 
			},
			{
				"x": -0.2938799333,
				"y": 5.3250788784,
				"z": 4.235158885,
				"element": "H" 
			},
			{
				"x": -1.8936074561,
				"y": 4.9499012563,
				"z": 3.5718467349,
				"element": "H" 
			},
			{
				"x": -0.8211437725,
				"y": 6.0723216937,
				"z": 2.7284172214,
				"element": "H" 
			},
			{
				"x": 1.7898749869,
				"y": 4.5985592314,
				"z": 2.8681208771,
				"element": "H" 
			},
			{
				"x": 2.7702585823,
				"y": 2.7226706638,
				"z": 1.5676070698,
				"element": "H" 
			},
			{
				"x": -1.1732458643,
				"y": 1.2523332137,
				"z": 0.7264879291,
				"element": "H" 
			},
			{
				"x": -2.147166735,
				"y": 3.0991435703,
				"z": 2.0308627976,
				"element": "H" 
			},
			{
				"x": -0.6101615238,
				"y": 1.6030713557,
				"z": -1.582903396,
				"element": "H" 
			},
			{
				"x": 2.016651485,
				"y": -1.7860889406,
				"z": -0.8215336907,
				"element": "H" 
			},
			{
				"x": 1.2087277284,
				"y": -3.2713460035,
				"z": -5.4133563935,
				"element": "H" 
			},
			{
				"x": 2.5955073892,
				"y": -2.9355519808,
				"z": -4.523607019,
				"element": "H" 
			}
		],
		 "valence_orbital": [ 
			{
				"type": "occ",
				"energy": -0.27762,
				"method": "rhf"
			},
			{
				"type": "occ",
				"energy": -0.26621,
				"method": "rhf"
			},
			{
				"type": "occ",
				"energy": -0.26302,
				"method": "rhf"
			},
			{
				"type": "occ",
				"energy": -0.26043,
				"method": "rhf"
			},
			{
				"type": "occ",
				"energy": -0.25169,
				"method": "rhf"
			},
			{
				"type": "unocc",
				"energy": -0.07126,
				"method": "rhf"
			},
			{
				"type": "unocc",
				"energy": -0.04904,
				"method": "rhf"
			},
			{
				"type": "unocc",
				"energy": -0.01621,
				"method": "rhf"
			},
			{
				"type": "unocc",
				"energy": 0.00292,
				"method": "rhf"
			},
			{
				"type": "unocc",
				"energy": 0.00597,
				"method": "rhf"
			}
		],
		"cosmo_sigma_profile": { 
			"-0.025": 0.0,
			"-0.024": 0.0,
			"-0.023": 0.0,
			"-0.022": 0.0,
			"-0.021": 0.0,
			"-0.02": 0.0,
			"-0.019": 0.0,
			"-0.018": 0.0,
			"-0.017": 0.0,
			"-0.016": 0.182577284018,
			"-0.015": 2.07627391394,
			"-0.014": 2.83200464522,
			"-0.013": 2.2156087493,
			"-0.012": 2.37583628249,
			"-0.011": 2.94487928608,
			"-0.01": 4.08881736408,
			"-0.009": 3.52922125125,
			"-0.008": 3.0847712747,
			"-0.007": 4.53084685404,
			"-0.006": 10.9200139477,
			"-0.005": 15.7858762096,
			"-0.004": 23.3720767305,
			"-0.003": 20.4029838999,
			"-0.002": 20.9385628748,
			"-0.001": 26.5899659722,
			"0.0": 29.5710059019,
			"0.001": 20.7910812288,
			"0.002": 16.4949125221,
			"0.003": 13.7556440355,
			"0.004": 15.8801239491,
			"0.005": 6.85763028167,
			"0.006": 5.11867601447,
			"0.007": 5.08352514523,
			"0.008": 5.45237163599,
			"0.009": 6.7456755427,
			"0.01": 12.3692551444,
			"0.011": 11.1846337464,
			"0.012": 3.79889078528,
			"0.013": 0.219844099548,
			"0.014": 0.0,
			"0.015": 0.0,
			"0.016": 0.0,
			"0.017": 0.0,
			"0.018": 0.0,
			"0.019": 0.0,
			"0.02": 0.0,
			"0.021": 0.0,
			"0.022": 0.0,
			"0.023": 0.0,
			"0.024": 0.0,
			"0.025": 0.0
		}
	}
}
