{
	 "smiles": "NC1=C(CO)C=NC=C1", 
	 "Tm": 441.15, 
	 "num_atms": 17, 
	 "gaussian": { 
		 "optdone": 1, 
		 "sigma_profile": "yes", 
		 "theory": "DFT", 
		 "functional": "B3LYP", 
		 "basiset": "6-31G**", 
		 "properties": { 
			 "R2extent": 1258.2113, 
			 "electric_dipole_moment_norm": 2.74342998453, 
			 "electric_quadrupole_moment_norm": 10.3155144569, 
			 "total_energy": -418.181146722, 
			 "HOMO_LUMO_gap": 0.21385, 
			 "cosmo_polarized_energy": -12.8, 
			 "cosmo_cavitation_energy": 20.28, 
			 "cosmo_dispersion_energy": -15.4, 
			 "cosmo_repulsion_energy": 1.27, 
			 "cosmo_total_nonelectrostatic_energy": 6.15, 
			 "SMD_solvation_energy": 2.06 
		},
		"coords": [
			{
				"x": 2.348289153,
				"y": 0.805155194,
				"z": 0.9635287741,
				"element": "N" 
			},
			{
				"x": 1.0025717513,
				"y": 0.5454935821,
				"z": 0.8237099502,
				"element": "C" 
			},
			{
				"x": 0.4647772662,
				"y": 0.2188883839,
				"z": -0.4467903728,
				"element": "C" 
			},
			{
				"x": 1.355075435,
				"y": 0.133355919,
				"z": -1.6586734883,
				"element": "C" 
			},
			{
				"x": 2.1467472787,
				"y": 1.3158944558,
				"z": -1.8690394884,
				"element": "O" 
			},
			{
				"x": -0.9004981352,
				"y": -0.0515293722,
				"z": -0.5248092029,
				"element": "C" 
			},
			{
				"x": -1.7543771214,
				"y": -0.0493156011,
				"z": 0.5071898528,
				"element": "N" 
			},
			{
				"x": -1.2226468695,
				"y": 0.2434615834,
				"z": 1.7026308012,
				"element": "C" 
			},
			{
				"x": 0.1174537012,
				"y": 0.5463597993,
				"z": 1.9154061826,
				"element": "C" 
			},
			{
				"x": 2.8055805382,
				"y": 1.1632913403,
				"z": 0.1330060423,
				"element": "H" 
			},
			{
				"x": 2.6426594033,
				"y": 1.2250033722,
				"z": 1.8327779349,
				"element": "H" 
			},
			{
				"x": 2.0931480431,
				"y": -0.6683459616,
				"z": -1.539775402,
				"element": "H" 
			},
			{
				"x": 0.7559397084,
				"y": -0.0991239022,
				"z": -2.5499726138,
				"element": "H" 
			},
			{
				"x": 1.5333452913,
				"y": 2.0600667762,
				"z": -1.9424201476,
				"element": "H" 
			},
			{
				"x": -1.331181264,
				"y": -0.29308127,
				"z": -1.4978083913,
				"element": "H" 
			},
			{
				"x": -1.9124212467,
				"y": 0.2450799785,
				"z": 2.5456165096,
				"element": "H" 
			},
			{
				"x": 0.4754370669,
				"y": 0.7836457224,
				"z": 2.9138230593,
				"element": "H" 
			}
		],
		 "valence_orbital": [ 
			{
				"type": "occ",
				"energy": -0.3352,
				"method": "rhf"
			},
			{
				"type": "occ",
				"energy": -0.29048,
				"method": "rhf"
			},
			{
				"type": "occ",
				"energy": -0.25251,
				"method": "rhf"
			},
			{
				"type": "occ",
				"energy": -0.24343,
				"method": "rhf"
			},
			{
				"type": "occ",
				"energy": -0.22204,
				"method": "rhf"
			},
			{
				"type": "unocc",
				"energy": -0.00819,
				"method": "rhf"
			},
			{
				"type": "unocc",
				"energy": 0.00142,
				"method": "rhf"
			},
			{
				"type": "unocc",
				"energy": 0.07145,
				"method": "rhf"
			},
			{
				"type": "unocc",
				"energy": 0.09509,
				"method": "rhf"
			},
			{
				"type": "unocc",
				"energy": 0.11769,
				"method": "rhf"
			}
		],
		"cosmo_sigma_profile": { 
			"-0.025": 0.0,
			"-0.024": 0.0,
			"-0.023": 0.0,
			"-0.022": 0.0,
			"-0.021": 0.0,
			"-0.02": 0.0,
			"-0.019": 0.0,
			"-0.018": 0.0,
			"-0.017": 0.0,
			"-0.016": 0.532172601903,
			"-0.015": 1.00842427412,
			"-0.014": 0.871291664813,
			"-0.013": 2.44756413799,
			"-0.012": 1.61543280287,
			"-0.011": 1.81429587879,
			"-0.01": 2.28606078522,
			"-0.009": 3.25491364239,
			"-0.008": 2.99682582567,
			"-0.007": 4.53823942525,
			"-0.006": 6.91361286974,
			"-0.005": 12.6929150124,
			"-0.004": 11.7026309832,
			"-0.003": 10.1226606356,
			"-0.002": 10.7854382591,
			"-0.001": 8.33766157769,
			"0.0": 6.77531421545,
			"0.001": 8.34635909233,
			"0.002": 6.83905594955,
			"0.003": 9.88192123225,
			"0.004": 11.7201478994,
			"0.005": 6.11302647727,
			"0.006": 4.37153984383,
			"0.007": 3.50846080153,
			"0.008": 2.20443175091,
			"0.009": 3.07407799453,
			"0.01": 3.23593789534,
			"0.011": 3.25177335264,
			"0.012": 1.73523371505,
			"0.013": 2.13651218885,
			"0.014": 1.77478483663,
			"0.015": 0.649585309842,
			"0.016": 1.14881857555,
			"0.017": 0.976734123608,
			"0.018": 0.681356630846,
			"0.019": 0.0352621127998,
			"0.02": 0.0,
			"0.021": 0.0,
			"0.022": 0.0,
			"0.023": 0.0,
			"0.024": 0.0,
			"0.025": 0.0
		}
	}
}
