{
	 "smiles": "COC1=C(C(O)=O)C(Cl)=CC=C1", 
	 "Tm": 414.15, 
	 "num_atms": 19, 
	 "gaussian": { 
		 "optdone": 1, 
		 "sigma_profile": "yes", 
		 "theory": "DFT", 
		 "functional": "B3LYP", 
		 "basiset": "6-31G**", 
		 "properties": { 
			 "R2extent": 3164.7124, 
			 "electric_dipole_moment_norm": 6.29576526723, 
			 "electric_quadrupole_moment_norm": 18.1243716371, 
			 "total_energy": -994.920848948, 
			 "HOMO_LUMO_gap": 0.20235, 
			 "cosmo_polarized_energy": -14.38, 
			 "cosmo_cavitation_energy": 24.88, 
			 "cosmo_dispersion_energy": -18.42, 
			 "cosmo_repulsion_energy": 1.46, 
			 "cosmo_total_nonelectrostatic_energy": 7.92, 
			 "SMD_solvation_energy": 5.74 
		},
		"coords": [
			{
				"x": 1.7042351199,
				"y": -0.579191415,
				"z": 2.6302071931,
				"element": "C" 
			},
			{
				"x": 0.9181278146,
				"y": 0.458737886,
				"z": 2.0153876898,
				"element": "O" 
			},
			{
				"x": 0.0922115042,
				"y": 0.0351116193,
				"z": 0.9793586216,
				"element": "C" 
			},
			{
				"x": -1.2743486432,
				"y": -0.2216312918,
				"z": 1.2340499947,
				"element": "C" 
			},
			{
				"x": -1.848458127,
				"y": -0.1725687738,
				"z": 2.6388251767,
				"element": "C" 
			},
			{
				"x": -1.2090859491,
				"y": 0.6235117134,
				"z": 3.5195526781,
				"element": "O" 
			},
			{
				"x": -2.8205617587,
				"y": -0.8043406295,
				"z": 2.9744601438,
				"element": "O" 
			},
			{
				"x": -2.0659171581,
				"y": -0.5627270783,
				"z": 0.1150204223,
				"element": "C" 
			},
			{
				"x": -3.7898740791,
				"y": -0.8326364554,
				"z": 0.2283858641,
				"element": "Cl" 
			},
			{
				"x": -1.515509323,
				"y": -0.6634830456,
				"z": -1.1645843625,
				"element": "C" 
			},
			{
				"x": -0.1586993901,
				"y": -0.4262344033,
				"z": -1.3651467964,
				"element": "C" 
			},
			{
				"x": 0.6511094605,
				"y": -0.0699330482,
				"z": -0.2910771776,
				"element": "C" 
			},
			{
				"x": 2.3325406311,
				"y": -1.0753219529,
				"z": 1.8836864698,
				"element": "H" 
			},
			{
				"x": 1.0610458555,
				"y": -1.3180851446,
				"z": 3.1203632803,
				"element": "H" 
			},
			{
				"x": 2.3331313965,
				"y": -0.0867134961,
				"z": 3.372913184,
				"element": "H" 
			},
			{
				"x": -0.3768764425,
				"y": 0.9468689127,
				"z": 3.1203749255,
				"element": "H" 
			},
			{
				"x": -2.1621965466,
				"y": -0.9202396016,
				"z": -1.9954176605,
				"element": "H" 
			},
			{
				"x": 0.2609116656,
				"y": -0.5047149168,
				"z": -2.3631904979,
				"element": "H" 
			},
			{
				"x": 1.7052139695,
				"y": 0.1509911212,
				"z": -0.420769149,
				"element": "H" 
			}
		],
		 "valence_orbital": [ 
			{
				"type": "occ",
				"energy": -0.30894,
				"method": "rhf"
			},
			{
				"type": "occ",
				"energy": -0.30342,
				"method": "rhf"
			},
			{
				"type": "occ",
				"energy": -0.27639,
				"method": "rhf"
			},
			{
				"type": "occ",
				"energy": -0.26218,
				"method": "rhf"
			},
			{
				"type": "occ",
				"energy": -0.25858,
				"method": "rhf"
			},
			{
				"type": "unocc",
				"energy": -0.05623,
				"method": "rhf"
			},
			{
				"type": "unocc",
				"energy": -0.03019,
				"method": "rhf"
			},
			{
				"type": "unocc",
				"energy": 0.02374,
				"method": "rhf"
			},
			{
				"type": "unocc",
				"energy": 0.04144,
				"method": "rhf"
			},
			{
				"type": "unocc",
				"energy": 0.07856,
				"method": "rhf"
			}
		],
		"cosmo_sigma_profile": { 
			"-0.025": 0.0,
			"-0.024": 0.0,
			"-0.023": 0.0,
			"-0.022": 0.0,
			"-0.021": 0.0,
			"-0.02": 0.0,
			"-0.019": 0.0,
			"-0.018": 0.0,
			"-0.017": 0.0,
			"-0.016": 0.0,
			"-0.015": 0.0,
			"-0.014": 0.0,
			"-0.013": 0.0,
			"-0.012": 0.0,
			"-0.011": 0.0,
			"-0.01": 0.75291525892,
			"-0.009": 1.64551340505,
			"-0.008": 4.531142859,
			"-0.007": 11.0619741424,
			"-0.006": 17.0922991105,
			"-0.005": 15.1385678439,
			"-0.004": 16.3882388871,
			"-0.003": 12.9553675426,
			"-0.002": 10.6648185002,
			"-0.001": 9.25376534414,
			"0.0": 14.7188991377,
			"0.001": 17.6906397225,
			"0.002": 14.4888639612,
			"0.003": 8.43642623231,
			"0.004": 9.03854752264,
			"0.005": 5.48276280472,
			"0.006": 3.04753264055,
			"0.007": 3.64257666262,
			"0.008": 2.90651818276,
			"0.009": 3.93372218015,
			"0.01": 4.75838663081,
			"0.011": 5.9879898013,
			"0.012": 6.096702402,
			"0.013": 1.69116898145,
			"0.014": 0.0176150454895,
			"0.015": 0.0,
			"0.016": 0.0,
			"0.017": 0.0,
			"0.018": 0.0,
			"0.019": 0.0,
			"0.02": 0.0,
			"0.021": 0.0,
			"0.022": 0.0,
			"0.023": 0.0,
			"0.024": 0.0,
			"0.025": 0.0
		}
	}
}
