{
	 "smiles": "OCC1=CC=CC2=CC=CC=C12", 
	 "Tm": 335.65, 
	 "num_atms": 22, 
	 "gaussian": { 
		 "optdone": 1, 
		 "sigma_profile": "yes", 
		 "theory": "DFT", 
		 "functional": "B3LYP", 
		 "basiset": "6-31G**", 
		 "properties": { 
			 "R2extent": 2024.5733, 
			 "electric_dipole_moment_norm": 1.4403592538, 
			 "electric_quadrupole_moment_norm": 5.9367420611, 
			 "total_energy": -500.422139609, 
			 "HOMO_LUMO_gap": 0.17438, 
			 "cosmo_polarized_energy": -7.86, 
			 "cosmo_cavitation_energy": 24.95, 
			 "cosmo_dispersion_energy": -18.61, 
			 "cosmo_repulsion_energy": 1.46, 
			 "cosmo_total_nonelectrostatic_energy": 7.8, 
			 "SMD_solvation_energy": 4.03 
		},
		"coords": [
			{
				"x": 0.421131448,
				"y": 0.6627531109,
				"z": -2.8148999055,
				"element": "O" 
			},
			{
				"x": 0.4916791973,
				"y": -0.5877731729,
				"z": -2.1303727274,
				"element": "C" 
			},
			{
				"x": 0.8969935695,
				"y": -0.4799541265,
				"z": -0.6752190333,
				"element": "C" 
			},
			{
				"x": 2.0160842563,
				"y": -1.1566743287,
				"z": -0.2307159574,
				"element": "C" 
			},
			{
				"x": 2.4163522524,
				"y": -1.1215042077,
				"z": 1.1264976948,
				"element": "C" 
			},
			{
				"x": 1.6831135819,
				"y": -0.4027790437,
				"z": 2.0397088878,
				"element": "C" 
			},
			{
				"x": 0.5246984447,
				"y": 0.3157058883,
				"z": 1.6352825696,
				"element": "C" 
			},
			{
				"x": -0.2483617377,
				"y": 1.05753976,
				"z": 2.5685731921,
				"element": "C" 
			},
			{
				"x": -1.3693534325,
				"y": 1.7482274518,
				"z": 2.1681063303,
				"element": "C" 
			},
			{
				"x": -1.7605684746,
				"y": 1.7328189021,
				"z": 0.8084610637,
				"element": "C" 
			},
			{
				"x": -1.0319679461,
				"y": 1.0270054086,
				"z": -0.1242468051,
				"element": "C" 
			},
			{
				"x": 0.1244882326,
				"y": 0.2905114824,
				"z": 0.2575204424,
				"element": "C" 
			},
			{
				"x": 1.2438639911,
				"y": 1.1368825527,
				"z": -2.6353352568,
				"element": "H" 
			},
			{
				"x": 1.179803236,
				"y": -1.2774820034,
				"z": -2.6419461826,
				"element": "H" 
			},
			{
				"x": -0.514213295,
				"y": -1.0145995927,
				"z": -2.2167431944,
				"element": "H" 
			},
			{
				"x": 2.5995558908,
				"y": -1.7392010982,
				"z": -0.9399085391,
				"element": "H" 
			},
			{
				"x": 3.3017220403,
				"y": -1.6672635906,
				"z": 1.4393945085,
				"element": "H" 
			},
			{
				"x": 1.9777594348,
				"y": -0.3730311424,
				"z": 3.0856808709,
				"element": "H" 
			},
			{
				"x": 0.0634389403,
				"y": 1.0684690101,
				"z": 3.6100093956,
				"element": "H" 
			},
			{
				"x": -1.9525795985,
				"y": 2.3104685684,
				"z": 2.8917700448,
				"element": "H" 
			},
			{
				"x": -2.6399143858,
				"y": 2.2894163855,
				"z": 0.4968548221,
				"element": "H" 
			},
			{
				"x": -1.3145256458,
				"y": 1.0546637862,
				"z": -1.170072221,
				"element": "H" 
			}
		],
		 "valence_orbital": [ 
			{
				"type": "occ",
				"energy": -0.32041,
				"method": "rhf"
			},
			{
				"type": "occ",
				"energy": -0.2848,
				"method": "rhf"
			},
			{
				"type": "occ",
				"energy": -0.2646,
				"method": "rhf"
			},
			{
				"type": "occ",
				"energy": -0.24243,
				"method": "rhf"
			},
			{
				"type": "occ",
				"energy": -0.21465,
				"method": "rhf"
			},
			{
				"type": "unocc",
				"energy": -0.04027,
				"method": "rhf"
			},
			{
				"type": "unocc",
				"energy": -0.00855,
				"method": "rhf"
			},
			{
				"type": "unocc",
				"energy": 0.028,
				"method": "rhf"
			},
			{
				"type": "unocc",
				"energy": 0.08806,
				"method": "rhf"
			},
			{
				"type": "unocc",
				"energy": 0.09667,
				"method": "rhf"
			}
		],
		"cosmo_sigma_profile": { 
			"-0.025": 0.0,
			"-0.024": 0.0,
			"-0.023": 0.0,
			"-0.022": 0.0,
			"-0.021": 0.0,
			"-0.02": 0.0,
			"-0.019": 0.0,
			"-0.018": 0.0,
			"-0.017": 0.0,
			"-0.016": 0.0940543333567,
			"-0.015": 0.719442466735,
			"-0.014": 0.741931026644,
			"-0.013": 1.07473431339,
			"-0.012": 0.558057137927,
			"-0.011": 1.1059211879,
			"-0.01": 0.839636630839,
			"-0.009": 0.410160801816,
			"-0.008": 0.57267023317,
			"-0.007": 1.18145815704,
			"-0.006": 8.11144291789,
			"-0.005": 17.1180121734,
			"-0.004": 20.0963086871,
			"-0.003": 18.8632251213,
			"-0.002": 13.4142304434,
			"-0.001": 13.6526142762,
			"0.0": 10.5487959201,
			"0.001": 9.800255299,
			"0.002": 10.9688521165,
			"0.003": 12.8354486967,
			"0.004": 22.0639195794,
			"0.005": 18.5795210519,
			"0.006": 5.5604258561,
			"0.007": 1.17375168549,
			"0.008": 1.07139617749,
			"0.009": 1.07155767185,
			"0.01": 1.24521501836,
			"0.011": 1.16932915957,
			"0.012": 0.902574733116,
			"0.013": 1.47235163701,
			"0.014": 1.49306332581,
			"0.015": 0.21747639755,
			"0.016": 0.0,
			"0.017": 0.0,
			"0.018": 0.0,
			"0.019": 0.0,
			"0.02": 0.0,
			"0.021": 0.0,
			"0.022": 0.0,
			"0.023": 0.0,
			"0.024": 0.0,
			"0.025": 0.0
		}
	}
}
