{
	 "smiles": "NC1=NN=C(N1)C1=C2C=CC=CC2=CC=C1", 
	 "Tm": 493.15, 
	 "num_atms": 26, 
	 "gaussian": { 
		 "optdone": 1, 
		 "sigma_profile": "yes", 
		 "theory": "DFT", 
		 "functional": "B3LYP", 
		 "basiset": "6-31G**", 
		 "properties": { 
			 "R2extent": 4096.8706, 
			 "electric_dipole_moment_norm": 4.73259105037, 
			 "electric_quadrupole_moment_norm": 18.7960018946, 
			 "total_energy": -682.306049055, 
			 "HOMO_LUMO_gap": 0.15372, 
			 "cosmo_polarized_energy": -22.91, 
			 "cosmo_cavitation_energy": 30.06, 
			 "cosmo_dispersion_energy": -22.62, 
			 "cosmo_repulsion_energy": 1.73, 
			 "cosmo_total_nonelectrostatic_energy": 9.17, 
			 "SMD_solvation_energy": 2.86 
		},
		"coords": [
			{
				"x": 3.1916671614,
				"y": -1.78144258,
				"z": 1.9495034,
				"element": "N" 
			},
			{
				"x": 2.3507575036,
				"y": -0.9777979112,
				"z": 1.1922820019,
				"element": "C" 
			},
			{
				"x": 2.6262008251,
				"y": 0.2204236865,
				"z": 0.7307273547,
				"element": "N" 
			},
			{
				"x": 1.4766700641,
				"y": 0.6960738049,
				"z": 0.1265068049,
				"element": "N" 
			},
			{
				"x": 0.5407045454,
				"y": -0.2239503427,
				"z": 0.2216244366,
				"element": "C" 
			},
			{
				"x": 1.0616615909,
				"y": -1.3225769407,
				"z": 0.8931142439,
				"element": "N" 
			},
			{
				"x": -0.8311141395,
				"y": -0.2018304454,
				"z": -0.3027899994,
				"element": "C" 
			},
			{
				"x": -1.5626072284,
				"y": 1.0234625715,
				"z": -0.502319326,
				"element": "C" 
			},
			{
				"x": -1.023196806,
				"y": 2.3118020783,
				"z": -0.2317962572,
				"element": "C" 
			},
			{
				"x": -1.7754033923,
				"y": 3.4485146446,
				"z": -0.4349195057,
				"element": "C" 
			},
			{
				"x": -3.1025812239,
				"y": 3.3648755382,
				"z": -0.9159833252,
				"element": "C" 
			},
			{
				"x": -3.6557946868,
				"y": 2.1347917908,
				"z": -1.184629971,
				"element": "C" 
			},
			{
				"x": -2.91237027,
				"y": 0.9397326401,
				"z": -0.9871584929,
				"element": "C" 
			},
			{
				"x": -3.4905333369,
				"y": -0.3278717301,
				"z": -1.2620714715,
				"element": "C" 
			},
			{
				"x": -2.7691188612,
				"y": -1.4822953487,
				"z": -1.071640742,
				"element": "C" 
			},
			{
				"x": -1.4432907203,
				"y": -1.4136729499,
				"z": -0.5960888157,
				"element": "C" 
			},
			{
				"x": 4.0946708229,
				"y": -1.3316811805,
				"z": 2.0510972474,
				"element": "H" 
			},
			{
				"x": 3.3049795233,
				"y": -2.7212252289,
				"z": 1.5844069579,
				"element": "H" 
			},
			{
				"x": 0.5427633236,
				"y": -2.0966843429,
				"z": 1.2776872267,
				"element": "H" 
			},
			{
				"x": 0.0001684504,
				"y": 2.3838681813,
				"z": 0.1142618621,
				"element": "H" 
			},
			{
				"x": -1.3416544914,
				"y": 4.4217089906,
				"z": -0.2235135292,
				"element": "H" 
			},
			{
				"x": -3.6810273188,
				"y": 4.2711256339,
				"z": -1.0713502642,
				"element": "H" 
			},
			{
				"x": -4.6752208126,
				"y": 2.055317478,
				"z": -1.5535455277,
				"element": "H" 
			},
			{
				"x": -4.511963639,
				"y": -0.3676604283,
				"z": -1.631259351,
				"element": "H" 
			},
			{
				"x": -3.2077978634,
				"y": -2.4505256226,
				"z": -1.2935815925,
				"element": "H" 
			},
			{
				"x": -0.8817690201,
				"y": -2.3377819871,
				"z": -0.4911633649,
				"element": "H" 
			}
		],
		 "valence_orbital": [ 
			{
				"type": "occ",
				"energy": -0.28475,
				"method": "rhf"
			},
			{
				"type": "occ",
				"energy": -0.24936,
				"method": "rhf"
			},
			{
				"type": "occ",
				"energy": -0.24391,
				"method": "rhf"
			},
			{
				"type": "occ",
				"energy": -0.23398,
				"method": "rhf"
			},
			{
				"type": "occ",
				"energy": -0.20281,
				"method": "rhf"
			},
			{
				"type": "unocc",
				"energy": -0.04909,
				"method": "rhf"
			},
			{
				"type": "unocc",
				"energy": -0.01013,
				"method": "rhf"
			},
			{
				"type": "unocc",
				"energy": 0.01098,
				"method": "rhf"
			},
			{
				"type": "unocc",
				"energy": 0.04876,
				"method": "rhf"
			},
			{
				"type": "unocc",
				"energy": 0.05844,
				"method": "rhf"
			}
		],
		"cosmo_sigma_profile": { 
			"-0.025": 0.0,
			"-0.024": 0.0,
			"-0.023": 0.0,
			"-0.022": 0.0,
			"-0.021": 0.0,
			"-0.02": 0.0,
			"-0.019": 0.0,
			"-0.018": 0.0,
			"-0.017": 0.929546573631,
			"-0.016": 1.12249860217,
			"-0.015": 1.07212888997,
			"-0.014": 3.25327330656,
			"-0.013": 4.43908669093,
			"-0.012": 4.60584653003,
			"-0.011": 3.37737050796,
			"-0.01": 3.37794225047,
			"-0.009": 3.03702113207,
			"-0.008": 3.16016922168,
			"-0.007": 3.60539820279,
			"-0.006": 12.7836011263,
			"-0.005": 14.7793354504,
			"-0.004": 13.9846657406,
			"-0.003": 12.3935616307,
			"-0.002": 12.1317805203,
			"-0.001": 9.39774174474,
			"0.0": 13.9018876163,
			"0.001": 13.7699397842,
			"0.002": 14.1627683993,
			"0.003": 21.9413096786,
			"0.004": 24.0624840691,
			"0.005": 13.6633768148,
			"0.006": 3.77175961039,
			"0.007": 2.88423046305,
			"0.008": 2.28802406809,
			"0.009": 2.78117078202,
			"0.01": 2.61932236432,
			"0.011": 2.56913056925,
			"0.012": 3.20964721619,
			"0.013": 2.61392568091,
			"0.014": 3.43369982175,
			"0.015": 3.20158804191,
			"0.016": 1.62008914023,
			"0.017": 1.12559486786,
			"0.018": 0.216364416436,
			"0.019": 0.0,
			"0.02": 0.0,
			"0.021": 0.0,
			"0.022": 0.0,
			"0.023": 0.0,
			"0.024": 0.0,
			"0.025": 0.0
		}
	}
}
