{
	 "smiles": "NC1=CC(C2=NN=C3CCCCCN23)=C(Cl)C=C1", 
	 "Tm": 558.15, 
	 "num_atms": 33, 
	 "gaussian": { 
		 "optdone": 1, 
		 "sigma_profile": "yes", 
		 "theory": "DFT", 
		 "functional": "B3LYP", 
		 "basiset": "6-31G**", 
		 "properties": { 
			 "R2extent": 6191.4101, 
			 "electric_dipole_moment_norm": 6.95094979553, 
			 "electric_quadrupole_moment_norm": 25.1824580466, 
			 "total_energy": -1183.61631025, 
			 "HOMO_LUMO_gap": 0.18543, 
			 "cosmo_polarized_energy": -22.13, 
			 "cosmo_cavitation_energy": 36.24, 
			 "cosmo_dispersion_energy": -26.17, 
			 "cosmo_repulsion_energy": 2.03, 
			 "cosmo_total_nonelectrostatic_energy": 12.09, 
			 "SMD_solvation_energy": 2.58 
		},
		"coords": [
			{
				"x": 4.8842549354,
				"y": 0.7514307629,
				"z": 2.606945946,
				"element": "N" 
			},
			{
				"x": 4.1542946678,
				"y": -0.2057765775,
				"z": 1.9104057001,
				"element": "C" 
			},
			{
				"x": 3.2015719141,
				"y": 0.1738853248,
				"z": 0.9529608098,
				"element": "C" 
			},
			{
				"x": 2.4945717858,
				"y": -0.7683366274,
				"z": 0.1941894099,
				"element": "C" 
			},
			{
				"x": 1.5345389418,
				"y": -0.2548868992,
				"z": -0.8048556375,
				"element": "C" 
			},
			{
				"x": 1.8602853713,
				"y": 0.5693010458,
				"z": -1.7784681453,
				"element": "N" 
			},
			{
				"x": 0.7063779784,
				"y": 0.8847337102,
				"z": -2.4565787109,
				"element": "N" 
			},
			{
				"x": -0.2897233833,
				"y": 0.2535033196,
				"z": -1.8733072543,
				"element": "C" 
			},
			{
				"x": -1.7207839533,
				"y": 0.3492771548,
				"z": -2.2912418073,
				"element": "C" 
			},
			{
				"x": -2.628221593,
				"y": 1.0505379669,
				"z": -1.2555496565,
				"element": "C" 
			},
			{
				"x": -2.4018278349,
				"y": 0.5798496468,
				"z": 0.197980896,
				"element": "C" 
			},
			{
				"x": -2.0732329833,
				"y": -0.9201631364,
				"z": 0.3077655806,
				"element": "C" 
			},
			{
				"x": -0.5751771416,
				"y": -1.2587441727,
				"z": 0.196608862,
				"element": "C" 
			},
			{
				"x": 0.1729283427,
				"y": -0.4879724839,
				"z": -0.8092111261,
				"element": "N" 
			},
			{
				"x": 2.7732952235,
				"y": -2.1301890919,
				"z": 0.3979044501,
				"element": "C" 
			},
			{
				"x": 2.0199816513,
				"y": -3.3770883203,
				"z": -0.5949907526,
				"element": "Cl" 
			},
			{
				"x": 3.7074239015,
				"y": -2.5263233963,
				"z": 1.3541011409,
				"element": "C" 
			},
			{
				"x": 4.3870840648,
				"y": -1.577775275,
				"z": 2.1096725049,
				"element": "C" 
			},
			{
				"x": 5.2731091945,
				"y": 0.457443952,
				"z": 3.4912364811,
				"element": "H" 
			},
			{
				"x": 4.4796132118,
				"y": 1.6757647299,
				"z": 2.6455355516,
				"element": "H" 
			},
			{
				"x": 3.0038276065,
				"y": 1.2256823054,
				"z": 0.7705210099,
				"element": "H" 
			},
			{
				"x": -1.7347722143,
				"y": 0.8976686043,
				"z": -3.2362814043,
				"element": "H" 
			},
			{
				"x": -2.1078601626,
				"y": -0.6544486786,
				"z": -2.5046772793,
				"element": "H" 
			},
			{
				"x": -2.4732977141,
				"y": 2.133372847,
				"z": -1.3118922147,
				"element": "H" 
			},
			{
				"x": -3.6707567242,
				"y": 0.8684795024,
				"z": -1.5433485322,
				"element": "H" 
			},
			{
				"x": -1.5883436357,
				"y": 1.1579703731,
				"z": 0.6536240059,
				"element": "H" 
			},
			{
				"x": -3.2975703196,
				"y": 0.805253959,
				"z": 0.7867862165,
				"element": "H" 
			},
			{
				"x": -2.6460981723,
				"y": -1.4834436695,
				"z": -0.4374932372,
				"element": "H" 
			},
			{
				"x": -2.3944452922,
				"y": -1.3073383901,
				"z": 1.2810892868,
				"element": "H" 
			},
			{
				"x": -0.0897007564,
				"y": -1.0530396315,
				"z": 1.1558710482,
				"element": "H" 
			},
			{
				"x": -0.4461813658,
				"y": -2.3260979377,
				"z": -0.0043574177,
				"element": "H" 
			},
			{
				"x": 3.9113064902,
				"y": -3.5820890958,
				"z": 1.4952473453,
				"element": "H" 
			},
			{
				"x": 5.117827965,
				"y": -1.9016418211,
				"z": 2.8460069305,
				"element": "H" 
			}
		],
		 "valence_orbital": [ 
			{
				"type": "occ",
				"energy": -0.27214,
				"method": "rhf"
			},
			{
				"type": "occ",
				"energy": -0.26756,
				"method": "rhf"
			},
			{
				"type": "occ",
				"energy": -0.23573,
				"method": "rhf"
			},
			{
				"type": "occ",
				"energy": -0.23261,
				"method": "rhf"
			},
			{
				"type": "occ",
				"energy": -0.20942,
				"method": "rhf"
			},
			{
				"type": "unocc",
				"energy": -0.02399,
				"method": "rhf"
			},
			{
				"type": "unocc",
				"energy": -0.00186,
				"method": "rhf"
			},
			{
				"type": "unocc",
				"energy": 0.02818,
				"method": "rhf"
			},
			{
				"type": "unocc",
				"energy": 0.03529,
				"method": "rhf"
			},
			{
				"type": "unocc",
				"energy": 0.0586,
				"method": "rhf"
			}
		],
		"cosmo_sigma_profile": { 
			"-0.025": 0.0,
			"-0.024": 0.0,
			"-0.023": 0.0,
			"-0.022": 0.0,
			"-0.021": 0.0,
			"-0.02": 0.0,
			"-0.019": 0.0,
			"-0.018": 0.0,
			"-0.017": 0.0,
			"-0.016": 0.0,
			"-0.015": 0.0,
			"-0.014": 0.00774208431921,
			"-0.013": 1.65181675057,
			"-0.012": 3.08116470452,
			"-0.011": 2.77677263586,
			"-0.01": 3.8980310429,
			"-0.009": 3.16311856314,
			"-0.008": 3.07520356877,
			"-0.007": 5.61252292026,
			"-0.006": 8.83962112798,
			"-0.005": 17.4363986544,
			"-0.004": 23.6456858444,
			"-0.003": 28.0680172797,
			"-0.002": 31.872982334,
			"-0.001": 25.7750037087,
			"0.0": 19.5831187522,
			"0.001": 13.244291019,
			"0.002": 15.194750639,
			"0.003": 17.3357257612,
			"0.004": 18.9110761389,
			"0.005": 9.56341713218,
			"0.006": 3.28388937657,
			"0.007": 2.75235607341,
			"0.008": 2.46914785794,
			"0.009": 2.60214660931,
			"0.01": 3.08549514031,
			"0.011": 2.9053026341,
			"0.012": 3.18258112827,
			"0.013": 2.83396580793,
			"0.014": 3.5781629805,
			"0.015": 3.19739822131,
			"0.016": 2.54497040385,
			"0.017": 2.21570993189,
			"0.018": 0.580476836452,
			"0.019": 0.0,
			"0.02": 0.0,
			"0.021": 0.0,
			"0.022": 0.0,
			"0.023": 0.0,
			"0.024": 0.0,
			"0.025": 0.0
		}
	}
}
