{
	 "smiles": "CCCCN1C2=C(N(C)C(CCl)=N2)C(=O)NC1=O", 
	 "Tm": 496.15, 
	 "num_atms": 33, 
	 "gaussian": { 
		 "optdone": 1, 
		 "sigma_profile": "yes", 
		 "theory": "DFT", 
		 "functional": "B3LYP", 
		 "basiset": "6-31G**", 
		 "properties": { 
			 "R2extent": 6164.5352, 
			 "electric_dipole_moment_norm": 3.29595429732, 
			 "electric_quadrupole_moment_norm": 15.5685019372, 
			 "total_energy": -1257.92702522, 
			 "HOMO_LUMO_gap": 0.1689, 
			 "cosmo_polarized_energy": -16.46, 
			 "cosmo_cavitation_energy": 37.72, 
			 "cosmo_dispersion_energy": -26.56, 
			 "cosmo_repulsion_energy": 2.09, 
			 "cosmo_total_nonelectrostatic_energy": 13.25, 
			 "SMD_solvation_energy": 5.74 
		},
		"coords": [
			{
				"x": 2.9443379701,
				"y": -2.0828967478,
				"z": 2.1952170201,
				"element": "C" 
			},
			{
				"x": 2.4179100572,
				"y": -0.7373864969,
				"z": 1.6855427249,
				"element": "C" 
			},
			{
				"x": 0.9263955315,
				"y": -0.5397714014,
				"z": 1.9837793569,
				"element": "C" 
			},
			{
				"x": 0.3581953312,
				"y": 0.8179071803,
				"z": 1.5511228105,
				"element": "C" 
			},
			{
				"x": 0.4127013284,
				"y": 1.0480494885,
				"z": 0.0969835824,
				"element": "N" 
			},
			{
				"x": -0.5171887482,
				"y": 0.4775231544,
				"z": -0.747722169,
				"element": "C" 
			},
			{
				"x": -0.5047940833,
				"y": 0.6781326603,
				"z": -2.1192123514,
				"element": "C" 
			},
			{
				"x": -1.586852518,
				"y": -0.03344037,
				"z": -2.6048801291,
				"element": "N" 
			},
			{
				"x": -1.9820875236,
				"y": -0.14091172,
				"z": -4.0096193449,
				"element": "C" 
			},
			{
				"x": -2.172439227,
				"y": -0.6121539811,
				"z": -1.5186157836,
				"element": "C" 
			},
			{
				"x": -3.3746635105,
				"y": -1.4770592614,
				"z": -1.5914744919,
				"element": "C" 
			},
			{
				"x": -2.9971744881,
				"y": -3.1556023694,
				"z": -2.2307309748,
				"element": "Cl" 
			},
			{
				"x": -1.546616855,
				"y": -0.3222069408,
				"z": -0.3740742088,
				"element": "N" 
			},
			{
				"x": 0.4749919531,
				"y": 1.4996472048,
				"z": -2.7784002213,
				"element": "C" 
			},
			{
				"x": 0.5810164851,
				"y": 1.7481224513,
				"z": -3.9750472161,
				"element": "O" 
			},
			{
				"x": 1.3653703104,
				"y": 2.0286200694,
				"z": -1.8286220483,
				"element": "N" 
			},
			{
				"x": 1.407138599,
				"y": 1.86586508,
				"z": -0.4363927746,
				"element": "C" 
			},
			{
				"x": 2.2633316837,
				"y": 2.414895609,
				"z": 0.2385912872,
				"element": "O" 
			},
			{
				"x": 4.0074860539,
				"y": -2.2067303889,
				"z": 1.9656012493,
				"element": "H" 
			},
			{
				"x": 2.4051864605,
				"y": -2.9202162824,
				"z": 1.7373483778,
				"element": "H" 
			},
			{
				"x": 2.8267357305,
				"y": -2.1701848261,
				"z": 3.2815453246,
				"element": "H" 
			},
			{
				"x": 2.5879733874,
				"y": -0.6681173067,
				"z": 0.6039654024,
				"element": "H" 
			},
			{
				"x": 2.992181142,
				"y": 0.0832159612,
				"z": 2.1325933127,
				"element": "H" 
			},
			{
				"x": 0.3379506894,
				"y": -1.3385709528,
				"z": 1.5161138332,
				"element": "H" 
			},
			{
				"x": 0.7552128858,
				"y": -0.6257505331,
				"z": 3.0656969936,
				"element": "H" 
			},
			{
				"x": 0.9176711499,
				"y": 1.6374313071,
				"z": 2.0046310348,
				"element": "H" 
			},
			{
				"x": -0.6911764669,
				"y": 0.8951644631,
				"z": 1.8476523348,
				"element": "H" 
			},
			{
				"x": -1.9806349839,
				"y": -1.188273059,
				"z": -4.3195322409,
				"element": "H" 
			},
			{
				"x": -1.2616215767,
				"y": 0.4265856243,
				"z": -4.5978514067,
				"element": "H" 
			},
			{
				"x": -2.9814417373,
				"y": 0.2794700894,
				"z": -4.1558033298,
				"element": "H" 
			},
			{
				"x": -3.7764683251,
				"y": -1.6097891128,
				"z": -0.5894195536,
				"element": "H" 
			},
			{
				"x": -4.1421483527,
				"y": -1.0785387707,
				"z": -2.2559232007,
				"element": "H" 
			},
			{
				"x": 2.0982216473,
				"y": 2.6253701786,
				"z": -2.1926631994,
				"element": "H" 
			}
		],
		 "valence_orbital": [ 
			{
				"type": "occ",
				"energy": -0.29255,
				"method": "rhf"
			},
			{
				"type": "occ",
				"energy": -0.28708,
				"method": "rhf"
			},
			{
				"type": "occ",
				"energy": -0.2853,
				"method": "rhf"
			},
			{
				"type": "occ",
				"energy": -0.26669,
				"method": "rhf"
			},
			{
				"type": "occ",
				"energy": -0.2255,
				"method": "rhf"
			},
			{
				"type": "unocc",
				"energy": -0.0566,
				"method": "rhf"
			},
			{
				"type": "unocc",
				"energy": -0.00222,
				"method": "rhf"
			},
			{
				"type": "unocc",
				"energy": 0.01871,
				"method": "rhf"
			},
			{
				"type": "unocc",
				"energy": 0.04514,
				"method": "rhf"
			},
			{
				"type": "unocc",
				"energy": 0.08022,
				"method": "rhf"
			}
		],
		"cosmo_sigma_profile": { 
			"-0.025": 0.0,
			"-0.024": 0.0,
			"-0.023": 0.0,
			"-0.022": 0.0,
			"-0.021": 0.0,
			"-0.02": 0.0,
			"-0.019": 0.0,
			"-0.018": 0.0,
			"-0.017": 0.0,
			"-0.016": 0.295761784716,
			"-0.015": 0.938922017609,
			"-0.014": 0.928736651632,
			"-0.013": 0.676715719815,
			"-0.012": 0.88800322408,
			"-0.011": 0.565350834233,
			"-0.01": 1.98330360444,
			"-0.009": 5.62140498127,
			"-0.008": 5.12531786715,
			"-0.007": 6.41279737282,
			"-0.006": 8.61505366802,
			"-0.005": 12.6672235455,
			"-0.004": 20.1192855516,
			"-0.003": 29.718858668,
			"-0.002": 36.1911249583,
			"-0.001": 33.0111695046,
			"0.0": 23.6614351264,
			"0.001": 22.459301638,
			"0.002": 13.1503495839,
			"0.003": 10.1593235608,
			"0.004": 10.9488253037,
			"0.005": 11.1101536513,
			"0.006": 10.0291909781,
			"0.007": 3.87765706589,
			"0.008": 3.97964498505,
			"0.009": 3.60878742532,
			"0.01": 2.95099360307,
			"0.011": 5.35878913825,
			"0.012": 8.45641166788,
			"0.013": 6.1819071391,
			"0.014": 0.226291156351,
			"0.015": 0.0,
			"0.016": 0.0,
			"0.017": 0.0,
			"0.018": 0.0,
			"0.019": 0.0,
			"0.02": 0.0,
			"0.021": 0.0,
			"0.022": 0.0,
			"0.023": 0.0,
			"0.024": 0.0,
			"0.025": 0.0
		}
	}
}
