{
	 "smiles": "OC(=O)C1CC2(C1)NC(=O)NC2=O", 
	 "Tm": 520.15, 
	 "num_atms": 21, 
	 "gaussian": { 
		 "optdone": 1, 
		 "sigma_profile": "yes", 
		 "theory": "DFT", 
		 "functional": "B3LYP", 
		 "basiset": "6-31G**", 
		 "properties": { 
			 "R2extent": 2622.9626, 
			 "electric_dipole_moment_norm": 1.36836460419, 
			 "electric_quadrupole_moment_norm": 12.1623757683, 
			 "total_energy": -681.994915423, 
			 "HOMO_LUMO_gap": 0.23793, 
			 "cosmo_polarized_energy": -19.96, 
			 "cosmo_cavitation_energy": 25.38, 
			 "cosmo_dispersion_energy": -18.58, 
			 "cosmo_repulsion_energy": 1.5, 
			 "cosmo_total_nonelectrostatic_energy": 8.29, 
			 "SMD_solvation_energy": 6.44 
		},
		"coords": [
			{
				"x": -0.6761261655,
				"y": -1.6865264482,
				"z": 2.4502826459,
				"element": "O" 
			},
			{
				"x": -1.3463372716,
				"y": -2.4094779198,
				"z": 1.502653756,
				"element": "C" 
			},
			{
				"x": -2.1316401083,
				"y": -3.2773599786,
				"z": 1.8053967165,
				"element": "O" 
			},
			{
				"x": -0.9863977353,
				"y": -1.9938522,
				"z": 0.0994855746,
				"element": "C" 
			},
			{
				"x": -1.057978427,
				"y": -0.4567937335,
				"z": -0.1693337064,
				"element": "C" 
			},
			{
				"x": 0.4986945278,
				"y": -0.3638160373,
				"z": -0.1274083518,
				"element": "C" 
			},
			{
				"x": 0.5470549177,
				"y": -1.9217838959,
				"z": -0.1903850532,
				"element": "C" 
			},
			{
				"x": 1.0980172824,
				"y": 0.2765579767,
				"z": 1.019562641,
				"element": "N" 
			},
			{
				"x": 1.9939906475,
				"y": 1.2623478738,
				"z": 0.7010090012,
				"element": "C" 
			},
			{
				"x": 2.6483672381,
				"y": 1.9683038758,
				"z": 1.4387183833,
				"element": "O" 
			},
			{
				"x": 2.0103527161,
				"y": 1.3013614542,
				"z": -0.7152177003,
				"element": "N" 
			},
			{
				"x": 1.1643986198,
				"y": 0.3816728474,
				"z": -1.290594079,
				"element": "C" 
			},
			{
				"x": 0.9701416553,
				"y": 0.1843227985,
				"z": -2.4733547386,
				"element": "O" 
			},
			{
				"x": -0.9745772775,
				"y": -2.0273436656,
				"z": 3.3102548699,
				"element": "H" 
			},
			{
				"x": -1.5671336617,
				"y": -2.6204620907,
				"z": -0.577093891,
				"element": "H" 
			},
			{
				"x": -1.4350081106,
				"y": -0.2452458892,
				"z": -1.1725273096,
				"element": "H" 
			},
			{
				"x": -1.5847566504,
				"y": 0.1577977827,
				"z": 0.5634279317,
				"element": "H" 
			},
			{
				"x": 0.7776223453,
				"y": -2.2645964765,
				"z": -1.2016247594,
				"element": "H" 
			},
			{
				"x": 1.2172830875,
				"y": -2.4000914968,
				"z": 0.5266568734,
				"element": "H" 
			},
			{
				"x": 0.8834725163,
				"y": 0.0276282246,
				"z": 1.9726613307,
				"element": "H" 
			},
			{
				"x": 2.594059854,
				"y": 1.9455569982,
				"z": -1.2288701347,
				"element": "H" 
			}
		],
		 "valence_orbital": [ 
			{
				"type": "occ",
				"energy": -0.29458,
				"method": "rhf"
			},
			{
				"type": "occ",
				"energy": -0.29206,
				"method": "rhf"
			},
			{
				"type": "occ",
				"energy": -0.28902,
				"method": "rhf"
			},
			{
				"type": "occ",
				"energy": -0.26558,
				"method": "rhf"
			},
			{
				"type": "occ",
				"energy": -0.26498,
				"method": "rhf"
			},
			{
				"type": "unocc",
				"energy": -0.02705,
				"method": "rhf"
			},
			{
				"type": "unocc",
				"energy": -0.0047,
				"method": "rhf"
			},
			{
				"type": "unocc",
				"energy": 0.05034,
				"method": "rhf"
			},
			{
				"type": "unocc",
				"energy": 0.06255,
				"method": "rhf"
			},
			{
				"type": "unocc",
				"energy": 0.06567,
				"method": "rhf"
			}
		],
		"cosmo_sigma_profile": { 
			"-0.025": 0.0,
			"-0.024": 0.0,
			"-0.023": 0.0,
			"-0.022": 0.0,
			"-0.021": 0.0,
			"-0.02": 0.0,
			"-0.019": 0.14447677819,
			"-0.018": 0.854905244246,
			"-0.017": 0.677523562038,
			"-0.016": 2.78272285938,
			"-0.015": 1.47987034996,
			"-0.014": 2.12756948084,
			"-0.013": 2.29362346764,
			"-0.012": 1.60471361585,
			"-0.011": 1.7447747929,
			"-0.01": 2.01029605355,
			"-0.009": 1.35798981479,
			"-0.008": 2.9195674881,
			"-0.007": 3.28856464431,
			"-0.006": 9.6906246408,
			"-0.005": 17.7158519005,
			"-0.004": 18.5105859122,
			"-0.003": 19.1145808457,
			"-0.002": 19.8193323599,
			"-0.001": 10.6533640041,
			"0.0": 6.93264466817,
			"0.001": 6.40537357801,
			"0.002": 5.05575295418,
			"0.003": 5.20332756477,
			"0.004": 3.60231635024,
			"0.005": 3.37310880589,
			"0.006": 3.19881233851,
			"0.007": 3.73805440658,
			"0.008": 3.19871917002,
			"0.009": 5.07028699127,
			"0.01": 5.20166423538,
			"0.011": 9.74443527102,
			"0.012": 12.7805514659,
			"0.013": 7.44456641244,
			"0.014": 0.770178815674,
			"0.015": 0.0,
			"0.016": 0.0,
			"0.017": 0.0,
			"0.018": 0.0,
			"0.019": 0.0,
			"0.02": 0.0,
			"0.021": 0.0,
			"0.022": 0.0,
			"0.023": 0.0,
			"0.024": 0.0,
			"0.025": 0.0
		}
	}
}
