{
	 "smiles": "NC(C(O)=O)C1=C(Cl)C=C(Cl)C=C1", 
	 "Tm": 489.15, 
	 "num_atms": 20, 
	 "gaussian": { 
		 "optdone": 1, 
		 "sigma_profile": "yes", 
		 "theory": "DFT", 
		 "functional": "B3LYP", 
		 "basiset": "6-31G**", 
		 "properties": { 
			 "R2extent": 3900.2894, 
			 "electric_dipole_moment_norm": 3.5340627626, 
			 "electric_quadrupole_moment_norm": 6.83549722698, 
			 "total_energy": -1434.65965716, 
			 "HOMO_LUMO_gap": 0.22218, 
			 "cosmo_polarized_energy": -12.9, 
			 "cosmo_cavitation_energy": 28.11, 
			 "cosmo_dispersion_energy": -20.5, 
			 "cosmo_repulsion_energy": 1.66, 
			 "cosmo_total_nonelectrostatic_energy": 9.27, 
			 "SMD_solvation_energy": 4.79 
		},
		"coords": [
			{
				"x": 1.8293168886,
				"y": 0.8034910345,
				"z": -0.9576079918,
				"element": "N" 
			},
			{
				"x": 1.28725077,
				"y": 0.5039430399,
				"z": 0.3733602242,
				"element": "C" 
			},
			{
				"x": 2.368682227,
				"y": -0.1971917854,
				"z": 1.2076246731,
				"element": "C" 
			},
			{
				"x": 3.5442357907,
				"y": 0.4765129262,
				"z": 1.1261479062,
				"element": "O" 
			},
			{
				"x": 2.2251436343,
				"y": -1.1848875421,
				"z": 1.8852973617,
				"element": "O" 
			},
			{
				"x": 0.0377839227,
				"y": -0.3548886342,
				"z": 0.278981253,
				"element": "C" 
			},
			{
				"x": -0.960018614,
				"y": -0.3464843108,
				"z": 1.2627391225,
				"element": "C" 
			},
			{
				"x": -0.8135140298,
				"y": 0.6789759078,
				"z": 2.6878752442,
				"element": "Cl" 
			},
			{
				"x": -2.1038649454,
				"y": -1.1381921695,
				"z": 1.1652211183,
				"element": "C" 
			},
			{
				"x": -2.2507910572,
				"y": -1.9639609677,
				"z": 0.0535869382,
				"element": "C" 
			},
			{
				"x": -3.6882641669,
				"y": -2.9624286029,
				"z": -0.0833930979,
				"element": "Cl" 
			},
			{
				"x": -1.2806290863,
				"y": -2.0062529703,
				"z": -0.9456819093,
				"element": "C" 
			},
			{
				"x": -0.1510816557,
				"y": -1.20175266,
				"z": -0.8198994888,
				"element": "C" 
			},
			{
				"x": 1.1972771691,
				"y": 1.4341280945,
				"z": -1.4439591046,
				"element": "H" 
			},
			{
				"x": 2.7196245369,
				"y": 1.2815342978,
				"z": -0.8558453099,
				"element": "H" 
			},
			{
				"x": 1.0391144936,
				"y": 1.409067101,
				"z": 0.9522625713,
				"element": "H" 
			},
			{
				"x": 4.1767202802,
				"y": -0.0093666622,
				"z": 1.6817036049,
				"element": "H" 
			},
			{
				"x": -2.8593077647,
				"y": -1.1091761127,
				"z": 1.9403684986,
				"element": "H" 
			},
			{
				"x": -1.4075517483,
				"y": -2.6562504635,
				"z": -1.8038464513,
				"element": "H" 
			},
			{
				"x": 0.6162733553,
				"y": -1.2107195204,
				"z": -1.5863351627,
				"element": "H" 
			}
		],
		 "valence_orbital": [ 
			{
				"type": "occ",
				"energy": -0.31612,
				"method": "rhf"
			},
			{
				"type": "occ",
				"energy": -0.28843,
				"method": "rhf"
			},
			{
				"type": "occ",
				"energy": -0.26361,
				"method": "rhf"
			},
			{
				"type": "occ",
				"energy": -0.25692,
				"method": "rhf"
			},
			{
				"type": "occ",
				"energy": -0.2467,
				"method": "rhf"
			},
			{
				"type": "unocc",
				"energy": -0.02452,
				"method": "rhf"
			},
			{
				"type": "unocc",
				"energy": -0.02284,
				"method": "rhf"
			},
			{
				"type": "unocc",
				"energy": -0.00253,
				"method": "rhf"
			},
			{
				"type": "unocc",
				"energy": 0.00822,
				"method": "rhf"
			},
			{
				"type": "unocc",
				"energy": 0.04953,
				"method": "rhf"
			}
		],
		"cosmo_sigma_profile": { 
			"-0.025": 0.0,
			"-0.024": 0.0,
			"-0.023": 0.0,
			"-0.022": 0.0,
			"-0.021": 0.0,
			"-0.02": 0.0,
			"-0.019": 0.281499714667,
			"-0.018": 1.02238231439,
			"-0.017": 1.06702038748,
			"-0.016": 0.563253404935,
			"-0.015": 0.712742322191,
			"-0.014": 0.340563234343,
			"-0.013": 0.363872679433,
			"-0.012": 1.53459764118,
			"-0.011": 2.29554093524,
			"-0.01": 2.67989608001,
			"-0.009": 3.11264879088,
			"-0.008": 4.94766017883,
			"-0.007": 8.2069964141,
			"-0.006": 10.1891121166,
			"-0.005": 9.53814622729,
			"-0.004": 8.63423141775,
			"-0.003": 9.35539526146,
			"-0.002": 11.9374933041,
			"-0.001": 14.3621069048,
			"0.0": 18.4341529952,
			"0.001": 23.131254767,
			"0.002": 23.3476096731,
			"0.003": 19.0499712173,
			"0.004": 19.9686377154,
			"0.005": 7.91738935487,
			"0.006": 4.5898117688,
			"0.007": 3.3081445082,
			"0.008": 3.62601552148,
			"0.009": 2.55213662347,
			"0.01": 3.31341223813,
			"0.011": 5.26180359655,
			"0.012": 1.6819056586,
			"0.013": 0.437460119887,
			"0.014": 0.629222847266,
			"0.015": 0.0,
			"0.016": 0.0,
			"0.017": 0.0,
			"0.018": 0.0,
			"0.019": 0.0,
			"0.02": 0.0,
			"0.021": 0.0,
			"0.022": 0.0,
			"0.023": 0.0,
			"0.024": 0.0,
			"0.025": 0.0
		}
	}
}
