{
	 "smiles": "CC1=C(N=NN1C1=CC=C(C)C=C1)C(O)=O", 
	 "Tm": 458.15, 
	 "num_atms": 27, 
	 "gaussian": { 
		 "optdone": 1, 
		 "sigma_profile": "yes", 
		 "theory": "DFT", 
		 "functional": "B3LYP", 
		 "basiset": "6-31G**", 
		 "properties": { 
			 "R2extent": 4849.2954, 
			 "electric_dipole_moment_norm": 9.22956333691, 
			 "electric_quadrupole_moment_norm": 19.6041683932, 
			 "total_energy": -740.475931838, 
			 "HOMO_LUMO_gap": 0.20587, 
			 "cosmo_polarized_energy": -24.21, 
			 "cosmo_cavitation_energy": 31.8, 
			 "cosmo_dispersion_energy": -22.8, 
			 "cosmo_repulsion_energy": 1.77, 
			 "cosmo_total_nonelectrostatic_energy": 10.77, 
			 "SMD_solvation_energy": 5.2 
		},
		"coords": [
			{
				"x": -1.9965359581,
				"y": -0.4435221166,
				"z": 0.4600259673,
				"element": "C" 
			},
			{
				"x": -1.0058303345,
				"y": 0.6165221203,
				"z": 0.8270488718,
				"element": "C" 
			},
			{
				"x": -0.986123411,
				"y": 1.5538240801,
				"z": 1.8548666155,
				"element": "C" 
			},
			{
				"x": 0.0913667409,
				"y": 2.3799179383,
				"z": 1.6821411994,
				"element": "N" 
			},
			{
				"x": 0.7490306605,
				"y": 2.0112210782,
				"z": 0.6347352163,
				"element": "N" 
			},
			{
				"x": 0.0960341978,
				"y": 0.9337610939,
				"z": 0.0882194753,
				"element": "N" 
			},
			{
				"x": 0.5841335391,
				"y": 0.3662742384,
				"z": -1.1257872619,
				"element": "C" 
			},
			{
				"x": 0.9935764931,
				"y": 1.2218306539,
				"z": -2.1534133117,
				"element": "C" 
			},
			{
				"x": 1.4930114225,
				"y": 0.6817902327,
				"z": -3.3342067255,
				"element": "C" 
			},
			{
				"x": 1.5840512561,
				"y": -0.7057336138,
				"z": -3.523446709,
				"element": "C" 
			},
			{
				"x": 2.0956666179,
				"y": -1.2763208654,
				"z": -4.824248816,
				"element": "C" 
			},
			{
				"x": 1.1744720206,
				"y": -1.541073319,
				"z": -2.47706207,
				"element": "C" 
			},
			{
				"x": 0.6856226907,
				"y": -1.0175231386,
				"z": -1.2804046058,
				"element": "C" 
			},
			{
				"x": -1.9558174701,
				"y": 1.7876453773,
				"z": 2.9558288117,
				"element": "C" 
			},
			{
				"x": -2.6455329857,
				"y": 0.679522304,
				"z": 3.3726626953,
				"element": "O" 
			},
			{
				"x": -2.1724524302,
				"y": 2.8607244338,
				"z": 3.4545289293,
				"element": "O" 
			},
			{
				"x": -2.1214684839,
				"y": -0.503308354,
				"z": -0.6244498437,
				"element": "H" 
			},
			{
				"x": -1.6909533214,
				"y": -1.4387372852,
				"z": 0.8052127922,
				"element": "H" 
			},
			{
				"x": -2.9668148696,
				"y": -0.2148751331,
				"z": 0.9061826648,
				"element": "H" 
			},
			{
				"x": 0.9260133639,
				"y": 2.2941390223,
				"z": -2.0105480851,
				"element": "H" 
			},
			{
				"x": 1.8144492983,
				"y": 1.3518576257,
				"z": -4.127102574,
				"element": "H" 
			},
			{
				"x": 1.3206081763,
				"y": -1.2463199641,
				"z": -5.5999402208,
				"element": "H" 
			},
			{
				"x": 2.405840679,
				"y": -2.3185670913,
				"z": -4.7100712581,
				"element": "H" 
			},
			{
				"x": 2.9510298912,
				"y": -0.7067413832,
				"z": -5.2006630274,
				"element": "H" 
			},
			{
				"x": 1.253032954,
				"y": -2.6188945473,
				"z": -2.5899619108,
				"element": "H" 
			},
			{
				"x": 0.412935405,
				"y": -1.680993675,
				"z": -0.46693494,
				"element": "H" 
			},
			{
				"x": -2.2072461426,
				"y": -0.1212197121,
				"z": 3.0536881209,
				"element": "H" 
			}
		],
		 "valence_orbital": [ 
			{
				"type": "occ",
				"energy": -0.27958,
				"method": "rhf"
			},
			{
				"type": "occ",
				"energy": -0.27712,
				"method": "rhf"
			},
			{
				"type": "occ",
				"energy": -0.27404,
				"method": "rhf"
			},
			{
				"type": "occ",
				"energy": -0.26817,
				"method": "rhf"
			},
			{
				"type": "occ",
				"energy": -0.25379,
				"method": "rhf"
			},
			{
				"type": "unocc",
				"energy": -0.04792,
				"method": "rhf"
			},
			{
				"type": "unocc",
				"energy": -0.02796,
				"method": "rhf"
			},
			{
				"type": "unocc",
				"energy": -0.021,
				"method": "rhf"
			},
			{
				"type": "unocc",
				"energy": 0.0004,
				"method": "rhf"
			},
			{
				"type": "unocc",
				"energy": 0.04702,
				"method": "rhf"
			}
		],
		"cosmo_sigma_profile": { 
			"-0.025": 0.0,
			"-0.024": 0.0,
			"-0.023": 0.0,
			"-0.022": 0.0,
			"-0.021": 0.0,
			"-0.02": 0.0,
			"-0.019": 0.120808711205,
			"-0.018": 0.789123332884,
			"-0.017": 1.09666323413,
			"-0.016": 0.734604113673,
			"-0.015": 1.34080918969,
			"-0.014": 0.677701199538,
			"-0.013": 0.798029402989,
			"-0.012": 1.11122759982,
			"-0.011": 1.12926695098,
			"-0.01": 0.970547052001,
			"-0.009": 2.07135512323,
			"-0.008": 4.40419771145,
			"-0.007": 9.01754863338,
			"-0.006": 15.0494522502,
			"-0.005": 18.6050236673,
			"-0.004": 21.9319880219,
			"-0.003": 23.1973224666,
			"-0.002": 18.8892096217,
			"-0.001": 16.446505442,
			"0.0": 15.5517069708,
			"0.001": 10.4450085208,
			"0.002": 10.9222709063,
			"0.003": 13.0906779862,
			"0.004": 11.5384434479,
			"0.005": 3.95403299714,
			"0.006": 3.91628620154,
			"0.007": 4.82279148245,
			"0.008": 4.85618861473,
			"0.009": 6.92386583264,
			"0.01": 8.94890586749,
			"0.011": 9.15290714181,
			"0.012": 6.60239357799,
			"0.013": 3.15930229546,
			"0.014": 1.31210580657,
			"0.015": 0.414382720443,
			"0.016": 0.0,
			"0.017": 0.0,
			"0.018": 0.0,
			"0.019": 0.0,
			"0.02": 0.0,
			"0.021": 0.0,
			"0.022": 0.0,
			"0.023": 0.0,
			"0.024": 0.0,
			"0.025": 0.0
		}
	}
}
