{
	 "smiles": "CC1=C(C)C=C2C=C(OC2=C1)C=O", 
	 "Tm": 343.15, 
	 "num_atms": 23, 
	 "gaussian": { 
		 "optdone": 1, 
		 "sigma_profile": "yes", 
		 "theory": "DFT", 
		 "functional": "B3LYP", 
		 "basiset": "6-31G**", 
		 "properties": { 
			 "R2extent": 3338.6295, 
			 "electric_dipole_moment_norm": 4.8626746272, 
			 "electric_quadrupole_moment_norm": 18.7013429293, 
			 "total_energy": -575.635921171, 
			 "HOMO_LUMO_gap": 0.16051, 
			 "cosmo_polarized_energy": -10.53, 
			 "cosmo_cavitation_energy": 27.3, 
			 "cosmo_dispersion_energy": -19.92, 
			 "cosmo_repulsion_energy": 1.55, 
			 "cosmo_total_nonelectrostatic_energy": 8.93, 
			 "SMD_solvation_energy": 6.14 
		},
		"coords": [
			{
				"x": -0.4640074258,
				"y": 2.2846055373,
				"z": 1.1840427435,
				"element": "C" 
			},
			{
				"x": -0.1350092843,
				"y": 0.9667776668,
				"z": 0.524490099,
				"element": "C" 
			},
			{
				"x": 1.0011758805,
				"y": 0.8608532857,
				"z": -0.3377351941,
				"element": "C" 
			},
			{
				"x": 1.8734974399,
				"y": 2.0691944105,
				"z": -0.5888556253,
				"element": "C" 
			},
			{
				"x": 1.307858968,
				"y": -0.3510164301,
				"z": -0.9473621888,
				"element": "C" 
			},
			{
				"x": 0.4958828386,
				"y": -1.4746057655,
				"z": -0.713129663,
				"element": "C" 
			},
			{
				"x": 0.4774132031,
				"y": -2.8429728384,
				"z": -1.1354825119,
				"element": "C" 
			},
			{
				"x": -0.6071092686,
				"y": -3.4210986326,
				"z": -0.528807401,
				"element": "C" 
			},
			{
				"x": -1.2877336262,
				"y": -2.5176226154,
				"z": 0.2552579552,
				"element": "O" 
			},
			{
				"x": -0.6151717616,
				"y": -1.3379157315,
				"z": 0.1406067954,
				"element": "C" 
			},
			{
				"x": -0.9481730147,
				"y": -0.1408295297,
				"z": 0.7646759697,
				"element": "C" 
			},
			{
				"x": -1.095873384,
				"y": -4.7919567684,
				"z": -0.6091222766,
				"element": "C" 
			},
			{
				"x": -2.0765319743,
				"y": -5.2233623665,
				"z": -0.0313605558,
				"element": "O" 
			},
			{
				"x": 0.3582197357,
				"y": 2.6343854391,
				"z": 1.8198486514,
				"element": "H" 
			},
			{
				"x": -1.3569098433,
				"y": 2.200645226,
				"z": 1.8081690123,
				"element": "H" 
			},
			{
				"x": -0.6451282493,
				"y": 3.0727944935,
				"z": 0.4433615221,
				"element": "H" 
			},
			{
				"x": 2.6952694245,
				"y": 1.8241381852,
				"z": -1.2664847074,
				"element": "H" 
			},
			{
				"x": 2.3110847604,
				"y": 2.4555514837,
				"z": 0.3395349887,
				"element": "H" 
			},
			{
				"x": 1.3069807582,
				"y": 2.8944185939,
				"z": -1.0368623839,
				"element": "H" 
			},
			{
				"x": 2.1724463526,
				"y": -0.4247343801,
				"z": -1.6012596734,
				"element": "H" 
			},
			{
				"x": 1.1696517455,
				"y": -3.3425886726,
				"z": -1.7993829662,
				"element": "H" 
			},
			{
				"x": -1.8131146509,
				"y": -0.0750160927,
				"z": 1.4162728387,
				"element": "H" 
			},
			{
				"x": -0.4717186239,
				"y": -5.4335444982,
				"z": -1.2684154288,
				"element": "H" 
			}
		],
		 "valence_orbital": [ 
			{
				"type": "occ",
				"energy": -0.34266,
				"method": "rhf"
			},
			{
				"type": "occ",
				"energy": -0.30047,
				"method": "rhf"
			},
			{
				"type": "occ",
				"energy": -0.25486,
				"method": "rhf"
			},
			{
				"type": "occ",
				"energy": -0.24036,
				"method": "rhf"
			},
			{
				"type": "occ",
				"energy": -0.22957,
				"method": "rhf"
			},
			{
				"type": "unocc",
				"energy": -0.06906,
				"method": "rhf"
			},
			{
				"type": "unocc",
				"energy": 0.00098,
				"method": "rhf"
			},
			{
				"type": "unocc",
				"energy": 0.01249,
				"method": "rhf"
			},
			{
				"type": "unocc",
				"energy": 0.08569,
				"method": "rhf"
			},
			{
				"type": "unocc",
				"energy": 0.08594,
				"method": "rhf"
			}
		],
		"cosmo_sigma_profile": { 
			"-0.025": 0.0,
			"-0.024": 0.0,
			"-0.023": 0.0,
			"-0.022": 0.0,
			"-0.021": 0.0,
			"-0.02": 0.0,
			"-0.019": 0.0,
			"-0.018": 0.0,
			"-0.017": 0.0,
			"-0.016": 0.0,
			"-0.015": 0.0,
			"-0.014": 0.0,
			"-0.013": 0.0,
			"-0.012": 0.0,
			"-0.011": 0.0,
			"-0.01": 0.0,
			"-0.009": 1.22347847062,
			"-0.008": 4.30835299976,
			"-0.007": 5.64553239542,
			"-0.006": 9.83549762865,
			"-0.005": 12.1877495199,
			"-0.004": 20.5878098674,
			"-0.003": 16.3725784651,
			"-0.002": 18.5399864786,
			"-0.001": 20.0355465617,
			"0.0": 24.3796129012,
			"0.001": 17.5927956459,
			"0.002": 15.1230559745,
			"0.003": 13.2555932968,
			"0.004": 10.5899983481,
			"0.005": 2.73784522334,
			"0.006": 2.37914125478,
			"0.007": 2.81140502737,
			"0.008": 2.30077180786,
			"0.009": 3.5410935648,
			"0.01": 2.91670545069,
			"0.011": 5.08674975762,
			"0.012": 4.62081255423,
			"0.013": 1.67623765513,
			"0.014": 0.0481737684482,
			"0.015": 0.0,
			"0.016": 0.0,
			"0.017": 0.0,
			"0.018": 0.0,
			"0.019": 0.0,
			"0.02": 0.0,
			"0.021": 0.0,
			"0.022": 0.0,
			"0.023": 0.0,
			"0.024": 0.0,
			"0.025": 0.0
		}
	}
}
