{
	 "smiles": "CCC1=CC=CC(CC)=C1N(COC)C(=O)CCl", 
	 "Tm": 314.15, 
	 "num_atms": 38, 
	 "gaussian": { 
		 "optdone": 1, 
		 "sigma_profile": "yes", 
		 "theory": "DFT", 
		 "functional": "B3LYP", 
		 "basiset": "6-31G**", 
		 "properties": { 
			 "R2extent": 5694.4467, 
			 "electric_dipole_moment_norm": 3.85759021411, 
			 "electric_quadrupole_moment_norm": 13.2511893179, 
			 "total_energy": -1210.94089855, 
			 "HOMO_LUMO_gap": 0.21226, 
			 "cosmo_polarized_energy": -12.0, 
			 "cosmo_cavitation_energy": 39.89, 
			 "cosmo_dispersion_energy": -26.58, 
			 "cosmo_repulsion_energy": 2.09, 
			 "cosmo_total_nonelectrostatic_energy": 15.4, 
			 "SMD_solvation_energy": 7.87 
		},
		"coords": [
			{
				"x": 0.5780102829,
				"y": -4.1835039211,
				"z": -0.0990511743,
				"element": "C" 
			},
			{
				"x": -0.2586617593,
				"y": -2.9312130125,
				"z": 0.2242487521,
				"element": "C" 
			},
			{
				"x": -0.0781603096,
				"y": -1.8235825157,
				"z": -0.7964613074,
				"element": "C" 
			},
			{
				"x": -0.6413919917,
				"y": -1.9856332169,
				"z": -2.067940073,
				"element": "C" 
			},
			{
				"x": -0.4675053803,
				"y": -1.0286214767,
				"z": -3.0639337117,
				"element": "C" 
			},
			{
				"x": 0.2888131932,
				"y": 0.1093113852,
				"z": -2.8015579849,
				"element": "C" 
			},
			{
				"x": 0.8654021053,
				"y": 0.3214950145,
				"z": -1.5428053457,
				"element": "C" 
			},
			{
				"x": 1.7041972418,
				"y": 1.5680263763,
				"z": -1.3257716766,
				"element": "C" 
			},
			{
				"x": 0.8909487996,
				"y": 2.8753231695,
				"z": -1.313953257,
				"element": "C" 
			},
			{
				"x": 0.6567508877,
				"y": -0.6470921977,
				"z": -0.5393169144,
				"element": "C" 
			},
			{
				"x": 1.1994105842,
				"y": -0.4090756143,
				"z": 0.7807732267,
				"element": "N" 
			},
			{
				"x": 0.527525462,
				"y": 0.5382318411,
				"z": 1.6730590553,
				"element": "C" 
			},
			{
				"x": -0.2417198529,
				"y": -0.0605537302,
				"z": 2.6945310472,
				"element": "O" 
			},
			{
				"x": -1.6105048283,
				"y": -0.2796931676,
				"z": 2.3748439325,
				"element": "C" 
			},
			{
				"x": 2.3341041721,
				"y": -1.0954723207,
				"z": 1.1652995904,
				"element": "C" 
			},
			{
				"x": 2.907580688,
				"y": -1.8935970806,
				"z": 0.4397796033,
				"element": "O" 
			},
			{
				"x": 2.8597426989,
				"y": -0.8476472722,
				"z": 2.5826837526,
				"element": "C" 
			},
			{
				"x": 3.8697396898,
				"y": 0.6652878356,
				"z": 2.6644381056,
				"element": "Cl" 
			},
			{
				"x": 0.4166440767,
				"y": -4.9581261326,
				"z": 0.6583462281,
				"element": "H" 
			},
			{
				"x": 1.6407101598,
				"y": -3.9335296555,
				"z": -0.1243793215,
				"element": "H" 
			},
			{
				"x": 0.3004029586,
				"y": -4.6024437524,
				"z": -1.0717575206,
				"element": "H" 
			},
			{
				"x": -0.0017223373,
				"y": -2.5710060918,
				"z": 1.2233028591,
				"element": "H" 
			},
			{
				"x": -1.3204139779,
				"y": -3.2096308906,
				"z": 0.2557595666,
				"element": "H" 
			},
			{
				"x": -1.2204718776,
				"y": -2.8821384536,
				"z": -2.2749134348,
				"element": "H" 
			},
			{
				"x": -0.9109012089,
				"y": -1.1752957124,
				"z": -4.0447700175,
				"element": "H" 
			},
			{
				"x": 0.4485279642,
				"y": 0.845638304,
				"z": -3.5852304215,
				"element": "H" 
			},
			{
				"x": 2.2773139181,
				"y": 1.4823037884,
				"z": -0.3992113095,
				"element": "H" 
			},
			{
				"x": 2.4427110286,
				"y": 1.6253336108,
				"z": -2.1348157803,
				"element": "H" 
			},
			{
				"x": 0.1627931877,
				"y": 2.8935209547,
				"z": -0.4960506245,
				"element": "H" 
			},
			{
				"x": 1.5518446456,
				"y": 3.7394548378,
				"z": -1.1915790346,
				"element": "H" 
			},
			{
				"x": 0.3351112306,
				"y": 3.0066440543,
				"z": -2.2478081355,
				"element": "H" 
			},
			{
				"x": 1.2769663775,
				"y": 1.1506087367,
				"z": 2.1772569465,
				"element": "H" 
			},
			{
				"x": -0.0931021018,
				"y": 1.1850749972,
				"z": 1.0454666121,
				"element": "H" 
			},
			{
				"x": -1.739733795,
				"y": -1.0006806683,
				"z": 1.5598822324,
				"element": "H" 
			},
			{
				"x": -2.1069367914,
				"y": 0.6611222995,
				"z": 2.0974019188,
				"element": "H" 
			},
			{
				"x": -2.0839119436,
				"y": -0.6746324955,
				"z": 3.2763392898,
				"element": "H" 
			},
			{
				"x": 2.0682019181,
				"y": -0.7502379968,
				"z": 3.3251931081,
				"element": "H" 
			},
			{
				"x": 3.5230848845,
				"y": -1.6740698296,
				"z": 2.826701218,
				"element": "H" 
			}
		],
		 "valence_orbital": [ 
			{
				"type": "occ",
				"energy": -0.28625,
				"method": "rhf"
			},
			{
				"type": "occ",
				"energy": -0.26722,
				"method": "rhf"
			},
			{
				"type": "occ",
				"energy": -0.25695,
				"method": "rhf"
			},
			{
				"type": "occ",
				"energy": -0.24259,
				"method": "rhf"
			},
			{
				"type": "occ",
				"energy": -0.23851,
				"method": "rhf"
			},
			{
				"type": "unocc",
				"energy": -0.02625,
				"method": "rhf"
			},
			{
				"type": "unocc",
				"energy": -0.00695,
				"method": "rhf"
			},
			{
				"type": "unocc",
				"energy": -0.00562,
				"method": "rhf"
			},
			{
				"type": "unocc",
				"energy": 0.04933,
				"method": "rhf"
			},
			{
				"type": "unocc",
				"energy": 0.07984,
				"method": "rhf"
			}
		],
		"cosmo_sigma_profile": { 
			"-0.025": 0.0,
			"-0.024": 0.0,
			"-0.023": 0.0,
			"-0.022": 0.0,
			"-0.021": 0.0,
			"-0.02": 0.0,
			"-0.019": 0.0,
			"-0.018": 0.0,
			"-0.017": 0.0,
			"-0.016": 0.0,
			"-0.015": 0.0,
			"-0.014": 0.0,
			"-0.013": 0.0,
			"-0.012": 0.0,
			"-0.011": 0.0,
			"-0.01": 0.0,
			"-0.009": 0.26919471025,
			"-0.008": 1.64640997743,
			"-0.007": 3.79442422283,
			"-0.006": 10.5249700724,
			"-0.005": 18.1467397164,
			"-0.004": 26.926038602,
			"-0.003": 36.5409637715,
			"-0.002": 34.3733835122,
			"-0.001": 33.9535071546,
			"0.0": 29.1390558519,
			"0.001": 26.0767579909,
			"0.002": 18.6904445073,
			"0.003": 14.4748633247,
			"0.004": 14.4693304767,
			"0.005": 16.0085173084,
			"0.006": 9.69031299943,
			"0.007": 2.95897810602,
			"0.008": 3.00682342276,
			"0.009": 3.12841080834,
			"0.01": 2.29305267778,
			"0.011": 3.09440972349,
			"0.012": 3.57046326736,
			"0.013": 2.66736618324,
			"0.014": 0.261907390177,
			"0.015": 0.0,
			"0.016": 0.0,
			"0.017": 0.0,
			"0.018": 0.0,
			"0.019": 0.0,
			"0.02": 0.0,
			"0.021": 0.0,
			"0.022": 0.0,
			"0.023": 0.0,
			"0.024": 0.0,
			"0.025": 0.0
		}
	}
}
