{
	 "smiles": "[O-][N+](=O)C1=C(C=CC=C1)C1=CC=C(O1)C=O", 
	 "Tm": 370.15, 
	 "num_atms": 23, 
	 "gaussian": { 
		 "optdone": 1, 
		 "sigma_profile": "yes", 
		 "theory": "DFT", 
		 "functional": "B3LYP", 
		 "basiset": "6-31G**", 
		 "properties": { 
			 "R2extent": 3991.2767, 
			 "electric_dipole_moment_norm": 7.23059881199, 
			 "electric_quadrupole_moment_norm": 26.5630152059, 
			 "total_energy": -778.894255006, 
			 "HOMO_LUMO_gap": 0.14818, 
			 "cosmo_polarized_energy": -17.44, 
			 "cosmo_cavitation_energy": 29.7, 
			 "cosmo_dispersion_energy": -20.72, 
			 "cosmo_repulsion_energy": 1.61, 
			 "cosmo_total_nonelectrostatic_energy": 10.59, 
			 "SMD_solvation_energy": 8.81 
		},
		"coords": [
			{
				"x": -2.5301753543,
				"y": -1.1940994924,
				"z": 0.6861458118,
				"element": "O" 
			},
			{
				"x": -2.7113285407,
				"y": -1.0766923029,
				"z": -0.5225996992,
				"element": "N" 
			},
			{
				"x": -3.8062661593,
				"y": -1.0975319143,
				"z": -1.0813872247,
				"element": "O" 
			},
			{
				"x": -1.518330345,
				"y": -0.9681010875,
				"z": -1.3856531316,
				"element": "C" 
			},
			{
				"x": -0.3275512665,
				"y": -0.3725680167,
				"z": -0.9275159374,
				"element": "C" 
			},
			{
				"x": 0.7890422545,
				"y": -0.4439399289,
				"z": -1.776726671,
				"element": "C" 
			},
			{
				"x": 0.7202599551,
				"y": -1.0727546327,
				"z": -3.0182925728,
				"element": "C" 
			},
			{
				"x": -0.4840504132,
				"y": -1.6228107132,
				"z": -3.4598592962,
				"element": "C" 
			},
			{
				"x": -1.6092849663,
				"y": -1.5639287889,
				"z": -2.6411001976,
				"element": "C" 
			},
			{
				"x": -0.1947729734,
				"y": 0.354339402,
				"z": 0.3378068542,
				"element": "C" 
			},
			{
				"x": 0.8087379845,
				"y": 0.3679604575,
				"z": 1.2795384451,
				"element": "C" 
			},
			{
				"x": 0.4069563918,
				"y": 1.3004473788,
				"z": 2.2703369281,
				"element": "C" 
			},
			{
				"x": -0.8065428286,
				"y": 1.8052379038,
				"z": 1.8638997607,
				"element": "C" 
			},
			{
				"x": -1.1706643118,
				"y": 1.2320713341,
				"z": 0.6783820173,
				"element": "O" 
			},
			{
				"x": -1.6708066613,
				"y": 2.811396839,
				"z": 2.4661572849,
				"element": "C" 
			},
			{
				"x": -2.7140883374,
				"y": 3.2178807447,
				"z": 1.9900369177,
				"element": "O" 
			},
			{
				"x": 1.7104014087,
				"y": 0.033037572,
				"z": -1.4589379331,
				"element": "H" 
			},
			{
				"x": 1.6027779739,
				"y": -1.1121291023,
				"z": -3.6492295961,
				"element": "H" 
			},
			{
				"x": -0.5492409844,
				"y": -2.0984593865,
				"z": -4.4329755646,
				"element": "H" 
			},
			{
				"x": -2.5578506817,
				"y": -1.9890198177,
				"z": -2.9454884507,
				"element": "H" 
			},
			{
				"x": 1.6995417142,
				"y": -0.2429096122,
				"z": 1.2709290162,
				"element": "H" 
			},
			{
				"x": 0.9363144422,
				"y": 1.5691925965,
				"z": 3.1737799281,
				"element": "H" 
			},
			{
				"x": -1.2757783009,
				"y": 3.1922805678,
				"z": 3.4330533108,
				"element": "H" 
			}
		],
		 "valence_orbital": [ 
			{
				"type": "occ",
				"energy": -0.3017,
				"method": "rhf"
			},
			{
				"type": "occ",
				"energy": -0.29407,
				"method": "rhf"
			},
			{
				"type": "occ",
				"energy": -0.28043,
				"method": "rhf"
			},
			{
				"type": "occ",
				"energy": -0.25602,
				"method": "rhf"
			},
			{
				"type": "occ",
				"energy": -0.24075,
				"method": "rhf"
			},
			{
				"type": "unocc",
				"energy": -0.09257,
				"method": "rhf"
			},
			{
				"type": "unocc",
				"energy": -0.06695,
				"method": "rhf"
			},
			{
				"type": "unocc",
				"energy": -0.03608,
				"method": "rhf"
			},
			{
				"type": "unocc",
				"energy": -0.01678,
				"method": "rhf"
			},
			{
				"type": "unocc",
				"energy": 0.03567,
				"method": "rhf"
			}
		],
		"cosmo_sigma_profile": { 
			"-0.025": 0.0,
			"-0.024": 0.0,
			"-0.023": 0.0,
			"-0.022": 0.0,
			"-0.021": 0.0,
			"-0.02": 0.0,
			"-0.019": 0.0,
			"-0.018": 0.0,
			"-0.017": 0.0,
			"-0.016": 0.0,
			"-0.015": 0.0,
			"-0.014": 0.0,
			"-0.013": 0.0,
			"-0.012": 0.0,
			"-0.011": 0.0,
			"-0.01": 0.0381046378157,
			"-0.009": 2.66841465127,
			"-0.008": 10.2340008102,
			"-0.007": 18.3922383276,
			"-0.006": 16.9359221897,
			"-0.005": 13.0085848451,
			"-0.004": 13.4989403185,
			"-0.003": 11.615635252,
			"-0.002": 14.2068610983,
			"-0.001": 17.7318153382,
			"0.0": 20.6896959393,
			"0.001": 19.4097579663,
			"0.002": 14.4429189504,
			"0.003": 6.9414880465,
			"0.004": 6.05489466113,
			"0.005": 5.88504935956,
			"0.006": 7.91429621833,
			"0.007": 11.0433963291,
			"0.008": 8.35846426142,
			"0.009": 6.04871781125,
			"0.01": 4.67475044152,
			"0.011": 4.228645882,
			"0.012": 4.5626519366,
			"0.013": 1.38192233249,
			"0.014": 0.0150788352734,
			"0.015": 0.0,
			"0.016": 0.0,
			"0.017": 0.0,
			"0.018": 0.0,
			"0.019": 0.0,
			"0.02": 0.0,
			"0.021": 0.0,
			"0.022": 0.0,
			"0.023": 0.0,
			"0.024": 0.0,
			"0.025": 0.0
		}
	}
}
