{
	 "smiles": "CC1=CC=C(C=C1)S(=O)(=O)NC1=C(C)C=CC=C1", 
	 "Tm": 383.15, 
	 "num_atms": 33, 
	 "gaussian": { 
		 "optdone": 1, 
		 "sigma_profile": "yes", 
		 "theory": "DFT", 
		 "functional": "B3LYP", 
		 "basiset": "6-31G**", 
		 "properties": { 
			 "R2extent": 5470.9416, 
			 "electric_dipole_moment_norm": 6.07699238604, 
			 "electric_quadrupole_moment_norm": 17.8191060348, 
			 "total_energy": -1145.86306123, 
			 "HOMO_LUMO_gap": 0.18905, 
			 "cosmo_polarized_energy": -15.33, 
			 "cosmo_cavitation_energy": 37.69, 
			 "cosmo_dispersion_energy": -26.1, 
			 "cosmo_repulsion_energy": 1.98, 
			 "cosmo_total_nonelectrostatic_energy": 13.57, 
			 "SMD_solvation_energy": 5.42 
		},
		"coords": [
			{
				"x": -2.0487545677,
				"y": 0.4679224661,
				"z": -3.3643232143,
				"element": "C" 
			},
			{
				"x": -0.990557774,
				"y": 0.2568356195,
				"z": -2.3085562217,
				"element": "C" 
			},
			{
				"x": -0.5326920831,
				"y": -1.0326384243,
				"z": -1.999318645,
				"element": "C" 
			},
			{
				"x": 0.4647670037,
				"y": -1.234659634,
				"z": -1.0478781306,
				"element": "C" 
			},
			{
				"x": 1.0149908612,
				"y": -0.1293439609,
				"z": -0.3939402048,
				"element": "C" 
			},
			{
				"x": 0.5827177708,
				"y": 1.1664344285,
				"z": -0.6856724517,
				"element": "C" 
			},
			{
				"x": -0.4186694964,
				"y": 1.3473598944,
				"z": -1.6377086704,
				"element": "C" 
			},
			{
				"x": 2.2714441114,
				"y": -0.3887597633,
				"z": 0.8592032977,
				"element": "S" 
			},
			{
				"x": 2.8315014801,
				"y": -1.7282818342,
				"z": 0.6708635273,
				"element": "O" 
			},
			{
				"x": 3.1036614987,
				"y": 0.8126866051,
				"z": 0.9030538347,
				"element": "O" 
			},
			{
				"x": 1.4607109552,
				"y": -0.498505752,
				"z": 2.3492937737,
				"element": "N" 
			},
			{
				"x": 0.64816907,
				"y": 0.5460382495,
				"z": 2.8775739039,
				"element": "C" 
			},
			{
				"x": -0.7033257043,
				"y": 0.292728786,
				"z": 3.1950933606,
				"element": "C" 
			},
			{
				"x": -1.3308069486,
				"y": -1.0580580581,
				"z": 2.9411337871,
				"element": "C" 
			},
			{
				"x": -1.4502930868,
				"y": 1.330883259,
				"z": 3.7629736483,
				"element": "C" 
			},
			{
				"x": -0.8974221777,
				"y": 2.5910781866,
				"z": 3.9902026457,
				"element": "C" 
			},
			{
				"x": 0.4380507676,
				"y": 2.8259835923,
				"z": 3.6626303441,
				"element": "C" 
			},
			{
				"x": 1.2156785104,
				"y": 1.803341778,
				"z": 3.12316689,
				"element": "C" 
			},
			{
				"x": -2.6449180497,
				"y": 1.3620838478,
				"z": -3.1607247306,
				"element": "H" 
			},
			{
				"x": -2.7267967831,
				"y": -0.387970392,
				"z": -3.4290129059,
				"element": "H" 
			},
			{
				"x": -1.5929948021,
				"y": 0.5981923567,
				"z": -4.3537350632,
				"element": "H" 
			},
			{
				"x": -0.9581139001,
				"y": -1.8893625305,
				"z": -2.515416467,
				"element": "H" 
			},
			{
				"x": 0.832499895,
				"y": -2.2305873529,
				"z": -0.8248683378,
				"element": "H" 
			},
			{
				"x": 1.033770409,
				"y": 2.0144804706,
				"z": -0.1833392418,
				"element": "H" 
			},
			{
				"x": -0.7582791888,
				"y": 2.353915302,
				"z": -1.8670749894,
				"element": "H" 
			},
			{
				"x": 1.0919257605,
				"y": -1.4373622547,
				"z": 2.4515359098,
				"element": "H" 
			},
			{
				"x": -1.2275793286,
				"y": -1.3646016438,
				"z": 1.8934383291,
				"element": "H" 
			},
			{
				"x": -2.397887946,
				"y": -1.0374887007,
				"z": 3.1750542441,
				"element": "H" 
			},
			{
				"x": -0.8834175457,
				"y": -1.847593309,
				"z": 3.5602418331,
				"element": "H" 
			},
			{
				"x": -2.4902633388,
				"y": 1.1449213331,
				"z": 4.0192246457,
				"element": "H" 
			},
			{
				"x": -1.5046299648,
				"y": 3.3798755993,
				"z": 4.4241386774,
				"element": "H" 
			},
			{
				"x": 0.8848825705,
				"y": 3.7990284974,
				"z": 3.8441288742,
				"element": "H" 
			},
			{
				"x": 2.2613320222,
				"y": 1.9605233384,
				"z": 2.8875177478,
				"element": "H" 
			}
		],
		 "valence_orbital": [ 
			{
				"type": "occ",
				"energy": -0.30133,
				"method": "rhf"
			},
			{
				"type": "occ",
				"energy": -0.27,
				"method": "rhf"
			},
			{
				"type": "occ",
				"energy": -0.26237,
				"method": "rhf"
			},
			{
				"type": "occ",
				"energy": -0.24921,
				"method": "rhf"
			},
			{
				"type": "occ",
				"energy": -0.22807,
				"method": "rhf"
			},
			{
				"type": "unocc",
				"energy": -0.03902,
				"method": "rhf"
			},
			{
				"type": "unocc",
				"energy": -0.02136,
				"method": "rhf"
			},
			{
				"type": "unocc",
				"energy": -0.00692,
				"method": "rhf"
			},
			{
				"type": "unocc",
				"energy": -0.00393,
				"method": "rhf"
			},
			{
				"type": "unocc",
				"energy": 0.06065,
				"method": "rhf"
			}
		],
		"cosmo_sigma_profile": { 
			"-0.025": 0.0,
			"-0.024": 0.0,
			"-0.023": 0.0,
			"-0.022": 0.0,
			"-0.021": 0.0,
			"-0.02": 0.0,
			"-0.019": 0.0,
			"-0.018": 0.0,
			"-0.017": 0.0,
			"-0.016": 0.0,
			"-0.015": 0.0,
			"-0.014": 0.267306273424,
			"-0.013": 0.783191912884,
			"-0.012": 0.966440145905,
			"-0.011": 1.54079842303,
			"-0.01": 1.48396441254,
			"-0.009": 1.43872168387,
			"-0.008": 1.74722979943,
			"-0.007": 3.52571634204,
			"-0.006": 13.5318584024,
			"-0.005": 24.3599293373,
			"-0.004": 26.1750862254,
			"-0.003": 24.4299651701,
			"-0.002": 24.4832867413,
			"-0.001": 27.9051084925,
			"0.0": 23.818712967,
			"0.001": 18.1418786926,
			"0.002": 19.5538158523,
			"0.003": 22.6825271576,
			"0.004": 14.8427582389,
			"0.005": 12.4730548337,
			"0.006": 6.74386736199,
			"0.007": 5.18258879374,
			"0.008": 3.91916383367,
			"0.009": 3.17904261217,
			"0.01": 7.4171913225,
			"0.011": 7.48244391195,
			"0.012": 2.0738605817,
			"0.013": 0.0,
			"0.014": 0.0,
			"0.015": 0.0,
			"0.016": 0.0,
			"0.017": 0.0,
			"0.018": 0.0,
			"0.019": 0.0,
			"0.02": 0.0,
			"0.021": 0.0,
			"0.022": 0.0,
			"0.023": 0.0,
			"0.024": 0.0,
			"0.025": 0.0
		}
	}
}
