{
	 "smiles": "COC(=O)C1=C(F)C=CC=N1", 
	 "Tm": 355.15, 
	 "num_atms": 17, 
	 "gaussian": { 
		 "optdone": 1, 
		 "sigma_profile": "yes", 
		 "theory": "DFT", 
		 "functional": "B3LYP", 
		 "basiset": "6-31G**", 
		 "properties": { 
			 "R2extent": 1789.3239, 
			 "electric_dipole_moment_norm": 3.15488265709, 
			 "electric_quadrupole_moment_norm": 15.2626573663, 
			 "total_energy": -575.38342405, 
			 "HOMO_LUMO_gap": 0.20693, 
			 "cosmo_polarized_energy": -12.1, 
			 "cosmo_cavitation_energy": 22.57, 
			 "cosmo_dispersion_energy": -16.5, 
			 "cosmo_repulsion_energy": 1.31, 
			 "cosmo_total_nonelectrostatic_energy": 7.39, 
			 "SMD_solvation_energy": 4.94 
		},
		"coords": [
			{
				"x": -1.4565903423,
				"y": -2.6827343342,
				"z": 0.3670166071,
				"element": "C" 
			},
			{
				"x": -1.0393611401,
				"y": -1.3734482836,
				"z": -0.0536290805,
				"element": "O" 
			},
			{
				"x": 0.1751301982,
				"y": -0.9932589769,
				"z": 0.3924259991,
				"element": "C" 
			},
			{
				"x": 0.8773200806,
				"y": -1.6703627499,
				"z": 1.1072445399,
				"element": "O" 
			},
			{
				"x": 0.548985898,
				"y": 0.3867408304,
				"z": -0.0874268836,
				"element": "C" 
			},
			{
				"x": 0.0378660602,
				"y": 0.986134927,
				"z": -1.2473926159,
				"element": "C" 
			},
			{
				"x": -0.8419602647,
				"y": 0.3540735992,
				"z": -2.0377460108,
				"element": "F" 
			},
			{
				"x": 0.4573323588,
				"y": 2.2585594612,
				"z": -1.6233063516,
				"element": "C" 
			},
			{
				"x": 1.3835359163,
				"y": 2.9076014263,
				"z": -0.8156206912,
				"element": "C" 
			},
			{
				"x": 1.8504068967,
				"y": 2.2445866538,
				"z": 0.3244606645,
				"element": "C" 
			},
			{
				"x": 1.451749496,
				"y": 1.023376161,
				"z": 0.6740576809,
				"element": "N" 
			},
			{
				"x": -0.7489742622,
				"y": -3.4409453935,
				"z": 0.0225241213,
				"element": "H" 
			},
			{
				"x": -1.5225665448,
				"y": -2.7327937785,
				"z": 1.4567742,
				"element": "H" 
			},
			{
				"x": -2.4360458443,
				"y": -2.8367783431,
				"z": -0.0850958609,
				"element": "H" 
			},
			{
				"x": 0.0568554404,
				"y": 2.7041519321,
				"z": -2.5276986599,
				"element": "H" 
			},
			{
				"x": 1.7406207075,
				"y": 3.9020747406,
				"z": -1.0637140539,
				"element": "H" 
			},
			{
				"x": 2.5770953455,
				"y": 2.7186221281,
				"z": 0.9806263951,
				"element": "H" 
			}
		],
		 "valence_orbital": [ 
			{
				"type": "occ",
				"energy": -0.30391,
				"method": "rhf"
			},
			{
				"type": "occ",
				"energy": -0.29964,
				"method": "rhf"
			},
			{
				"type": "occ",
				"energy": -0.27705,
				"method": "rhf"
			},
			{
				"type": "occ",
				"energy": -0.26914,
				"method": "rhf"
			},
			{
				"type": "occ",
				"energy": -0.26635,
				"method": "rhf"
			},
			{
				"type": "unocc",
				"energy": -0.05942,
				"method": "rhf"
			},
			{
				"type": "unocc",
				"energy": -0.02742,
				"method": "rhf"
			},
			{
				"type": "unocc",
				"energy": 0.04134,
				"method": "rhf"
			},
			{
				"type": "unocc",
				"energy": 0.08292,
				"method": "rhf"
			},
			{
				"type": "unocc",
				"energy": 0.11503,
				"method": "rhf"
			}
		],
		"cosmo_sigma_profile": { 
			"-0.025": 0.0,
			"-0.024": 0.0,
			"-0.023": 0.0,
			"-0.022": 0.0,
			"-0.021": 0.0,
			"-0.02": 0.0,
			"-0.019": 0.0,
			"-0.018": 0.0,
			"-0.017": 0.0,
			"-0.016": 0.0,
			"-0.015": 0.0,
			"-0.014": 0.0,
			"-0.013": 0.0,
			"-0.012": 0.0,
			"-0.011": 0.0,
			"-0.01": 0.00848199856055,
			"-0.009": 2.04049121332,
			"-0.008": 4.21348105034,
			"-0.007": 9.4151939777,
			"-0.006": 11.817422524,
			"-0.005": 12.2935995993,
			"-0.004": 15.4724165601,
			"-0.003": 14.8770403245,
			"-0.002": 15.679262988,
			"-0.001": 15.095701327,
			"0.0": 13.6151613576,
			"0.001": 9.72406805146,
			"0.002": 6.54316488429,
			"0.003": 9.52708941709,
			"0.004": 6.65221461299,
			"0.005": 4.22443914735,
			"0.006": 3.88187748306,
			"0.007": 3.70919910131,
			"0.008": 3.56523154635,
			"0.009": 2.1860428923,
			"0.01": 2.32104647577,
			"0.011": 4.79292218653,
			"0.012": 3.67698224201,
			"0.013": 1.77045856575,
			"0.014": 1.55905850653,
			"0.015": 1.08980772328,
			"0.016": 1.29053416011,
			"0.017": 0.419534292463,
			"0.018": 0.0,
			"0.019": 0.0,
			"0.02": 0.0,
			"0.021": 0.0,
			"0.022": 0.0,
			"0.023": 0.0,
			"0.024": 0.0,
			"0.025": 0.0
		}
	}
}
