{
	 "smiles": "CNC(=O)COC1=CC=CC=C1OCC(O)CNC(C)(C)C", 
	 "Tm": 369.65, 
	 "num_atms": 48, 
	 "gaussian": { 
		 "optdone": 1, 
		 "sigma_profile": "yes", 
		 "theory": "DFT", 
		 "functional": "B3LYP", 
		 "basiset": "6-31G**", 
		 "properties": { 
			 "R2extent": 9185.3947, 
			 "electric_dipole_moment_norm": 5.09302396028, 
			 "electric_quadrupole_moment_norm": 20.9781045557, 
			 "total_energy": -1035.74914048, 
			 "HOMO_LUMO_gap": 0.21997, 
			 "cosmo_polarized_energy": -20.48, 
			 "cosmo_cavitation_energy": 49.37, 
			 "cosmo_dispersion_energy": -31.72, 
			 "cosmo_repulsion_energy": 2.5, 
			 "cosmo_total_nonelectrostatic_energy": 20.15, 
			 "SMD_solvation_energy": 7.87 
		},
		"coords": [
			{
				"x": -1.0145920179,
				"y": 4.7478030041,
				"z": 0.3516697039,
				"element": "C" 
			},
			{
				"x": -0.6911541194,
				"y": 3.4742818458,
				"z": -0.2657227909,
				"element": "N" 
			},
			{
				"x": 0.0325120457,
				"y": 3.3993312194,
				"z": -1.4189434909,
				"element": "C" 
			},
			{
				"x": 0.3842571866,
				"y": 4.3695511,
				"z": -2.0792402069,
				"element": "O" 
			},
			{
				"x": 0.3656731636,
				"y": 1.9649050773,
				"z": -1.859578037,
				"element": "C" 
			},
			{
				"x": 1.7159797202,
				"y": 1.5762637933,
				"z": -1.5534312565,
				"element": "O" 
			},
			{
				"x": 2.2401270261,
				"y": 1.8075497779,
				"z": -0.3034770691,
				"element": "C" 
			},
			{
				"x": 3.5137176549,
				"y": 2.3831343649,
				"z": -0.2497103871,
				"element": "C" 
			},
			{
				"x": 4.1473043602,
				"y": 2.5966542545,
				"z": 0.9731589135,
				"element": "C" 
			},
			{
				"x": 3.5069272003,
				"y": 2.2501524858,
				"z": 2.1650294664,
				"element": "C" 
			},
			{
				"x": 2.2382223152,
				"y": 1.673018465,
				"z": 2.1213595312,
				"element": "C" 
			},
			{
				"x": 1.6076684827,
				"y": 1.4404706859,
				"z": 0.8983590513,
				"element": "C" 
			},
			{
				"x": 0.336845003,
				"y": 0.8846306007,
				"z": 0.901166303,
				"element": "O" 
			},
			{
				"x": 0.3005859424,
				"y": -0.5123655825,
				"z": 0.5632404941,
				"element": "C" 
			},
			{
				"x": -1.116065882,
				"y": -1.0254699216,
				"z": 0.7490686382,
				"element": "C" 
			},
			{
				"x": -1.3525130057,
				"y": -1.0777024912,
				"z": 2.1521152659,
				"element": "O" 
			},
			{
				"x": -1.3130489184,
				"y": -2.4129699447,
				"z": 0.1085542946,
				"element": "C" 
			},
			{
				"x": -1.1904761963,
				"y": -2.3536434045,
				"z": -1.3474107954,
				"element": "N" 
			},
			{
				"x": -1.9190457059,
				"y": -3.3626591632,
				"z": -2.155511697,
				"element": "C" 
			},
			{
				"x": -1.4556653064,
				"y": -3.1570015918,
				"z": -3.607422102,
				"element": "C" 
			},
			{
				"x": -1.6183849408,
				"y": -4.8130552559,
				"z": -1.7179594774,
				"element": "C" 
			},
			{
				"x": -3.4306035466,
				"y": -3.0860470892,
				"z": -2.0695243504,
				"element": "C" 
			},
			{
				"x": -2.0595480148,
				"y": 4.7634977958,
				"z": 0.6773687607,
				"element": "H" 
			},
			{
				"x": -0.8543219443,
				"y": 5.5272254539,
				"z": -0.3940605057,
				"element": "H" 
			},
			{
				"x": -0.3729496589,
				"y": 4.9527444237,
				"z": 1.2174012734,
				"element": "H" 
			},
			{
				"x": -0.7867702389,
				"y": 2.6256882122,
				"z": 0.2791672747,
				"element": "H" 
			},
			{
				"x": -0.3486147514,
				"y": 1.2433075167,
				"z": -1.4516576178,
				"element": "H" 
			},
			{
				"x": 0.3170621338,
				"y": 1.9410525033,
				"z": -2.9492415961,
				"element": "H" 
			},
			{
				"x": 3.9812327086,
				"y": 2.6626943258,
				"z": -1.1879829635,
				"element": "H" 
			},
			{
				"x": 5.1347956032,
				"y": 3.0478370381,
				"z": 0.9935458897,
				"element": "H" 
			},
			{
				"x": 3.9910399468,
				"y": 2.4238417482,
				"z": 3.1211000545,
				"element": "H" 
			},
			{
				"x": 1.7114752166,
				"y": 1.3854678709,
				"z": 3.0261706371,
				"element": "H" 
			},
			{
				"x": 0.623974932,
				"y": -0.644510759,
				"z": -0.4759571089,
				"element": "H" 
			},
			{
				"x": 0.9787612515,
				"y": -1.0665539979,
				"z": 1.2248892077,
				"element": "H" 
			},
			{
				"x": -1.8031515376,
				"y": -0.3237438103,
				"z": 0.2515550079,
				"element": "H" 
			},
			{
				"x": -2.2937418372,
				"y": -1.2420792736,
				"z": 2.2913355382,
				"element": "H" 
			},
			{
				"x": -0.6278284232,
				"y": -3.127048091,
				"z": 0.5952299972,
				"element": "H" 
			},
			{
				"x": -2.3259018124,
				"y": -2.7395952344,
				"z": 0.3670298188,
				"element": "H" 
			},
			{
				"x": -0.2076060948,
				"y": -2.4044246781,
				"z": -1.6016783185,
				"element": "H" 
			},
			{
				"x": -1.9810782133,
				"y": -3.8364594638,
				"z": -4.2853300504,
				"element": "H" 
			},
			{
				"x": -0.3812703118,
				"y": -3.3533945387,
				"z": -3.7089334942,
				"element": "H" 
			},
			{
				"x": -1.6448190269,
				"y": -2.1282203662,
				"z": -3.9275944543,
				"element": "H" 
			},
			{
				"x": -2.1416833894,
				"y": -5.5341467291,
				"z": -2.3553076798,
				"element": "H" 
			},
			{
				"x": -1.934290399,
				"y": -4.9955527181,
				"z": -0.6855683827,
				"element": "H" 
			},
			{
				"x": -0.5449920144,
				"y": -5.0253328267,
				"z": -1.7847517738,
				"element": "H" 
			},
			{
				"x": -3.6437396696,
				"y": -2.0522242566,
				"z": -2.3564201867,
				"element": "H" 
			},
			{
				"x": -3.9784079936,
				"y": -3.754940267,
				"z": -2.7409430203,
				"element": "H" 
			},
			{
				"x": -3.8245969228,
				"y": -3.249562108,
				"z": -1.0610563086,
				"element": "H" 
			}
		],
		 "valence_orbital": [ 
			{
				"type": "occ",
				"energy": -0.24755,
				"method": "rhf"
			},
			{
				"type": "occ",
				"energy": -0.24286,
				"method": "rhf"
			},
			{
				"type": "occ",
				"energy": -0.24171,
				"method": "rhf"
			},
			{
				"type": "occ",
				"energy": -0.22849,
				"method": "rhf"
			},
			{
				"type": "occ",
				"energy": -0.21984,
				"method": "rhf"
			},
			{
				"type": "unocc",
				"energy": 0.00013,
				"method": "rhf"
			},
			{
				"type": "unocc",
				"energy": 0.00479,
				"method": "rhf"
			},
			{
				"type": "unocc",
				"energy": 0.02038,
				"method": "rhf"
			},
			{
				"type": "unocc",
				"energy": 0.05869,
				"method": "rhf"
			},
			{
				"type": "unocc",
				"energy": 0.06673,
				"method": "rhf"
			}
		],
		"cosmo_sigma_profile": { 
			"-0.025": 0.0,
			"-0.024": 0.0,
			"-0.023": 0.0,
			"-0.022": 0.0,
			"-0.021": 0.0,
			"-0.02": 0.0,
			"-0.019": 0.0,
			"-0.018": 0.0,
			"-0.017": 0.0,
			"-0.016": 0.287732964975,
			"-0.015": 0.96429828166,
			"-0.014": 1.23588611768,
			"-0.013": 0.765083060869,
			"-0.012": 0.9249836331,
			"-0.011": 1.16465825089,
			"-0.01": 1.66740397298,
			"-0.009": 3.36618507484,
			"-0.008": 2.44495939672,
			"-0.007": 5.60538670284,
			"-0.006": 15.2364619812,
			"-0.005": 22.9887309746,
			"-0.004": 30.3752182054,
			"-0.003": 38.4233481591,
			"-0.002": 42.7626861511,
			"-0.001": 36.1422322654,
			"0.0": 30.3471604514,
			"0.001": 35.7268756371,
			"0.002": 23.7088530221,
			"0.003": 16.8425615294,
			"0.004": 14.0471084147,
			"0.005": 12.1142599701,
			"0.006": 5.90763937758,
			"0.007": 5.32610345785,
			"0.008": 5.15122089592,
			"0.009": 4.38821911937,
			"0.01": 4.34581014308,
			"0.011": 3.65861604938,
			"0.012": 3.65250328826,
			"0.013": 6.92810975582,
			"0.014": 7.00841227513,
			"0.015": 1.34317424653,
			"0.016": 0.0,
			"0.017": 0.0,
			"0.018": 0.0,
			"0.019": 0.0,
			"0.02": 0.0,
			"0.021": 0.0,
			"0.022": 0.0,
			"0.023": 0.0,
			"0.024": 0.0,
			"0.025": 0.0
		}
	}
}
