{
	 "smiles": "ClS(=O)(=O)C1=CC(=CC=C1)C(=O)N1CCCC1", 
	 "Tm": 339.15, 
	 "num_atms": 29, 
	 "gaussian": { 
		 "optdone": 1, 
		 "sigma_profile": "yes", 
		 "theory": "DFT", 
		 "functional": "B3LYP", 
		 "basiset": "6-31G**", 
		 "properties": { 
			 "R2extent": 6937.5839, 
			 "electric_dipole_moment_norm": 4.74907978034, 
			 "electric_quadrupole_moment_norm": 23.0357584088, 
			 "total_energy": -1565.15118305, 
			 "HOMO_LUMO_gap": 0.15941, 
			 "cosmo_polarized_energy": -14.43, 
			 "cosmo_cavitation_energy": 35.65, 
			 "cosmo_dispersion_energy": -25.93, 
			 "cosmo_repulsion_energy": 2.0, 
			 "cosmo_total_nonelectrostatic_energy": 11.72, 
			 "SMD_solvation_energy": 4.03 
		},
		"coords": [
			{
				"x": -0.4004690187,
				"y": -4.1526749712,
				"z": -2.9697589008,
				"element": "Cl" 
			},
			{
				"x": -1.2553062026,
				"y": -2.2489206854,
				"z": -3.4103193255,
				"element": "S" 
			},
			{
				"x": -2.5021454525,
				"y": -2.1812672662,
				"z": -2.656600509,
				"element": "O" 
			},
			{
				"x": -1.2150481304,
				"y": -2.1103919391,
				"z": -4.8607528008,
				"element": "O" 
			},
			{
				"x": -0.0636542883,
				"y": -1.1388877672,
				"z": -2.6750030475,
				"element": "C" 
			},
			{
				"x": -0.2471731991,
				"y": -0.7556811367,
				"z": -1.3463918768,
				"element": "C" 
			},
			{
				"x": 0.6680360563,
				"y": 0.1285107873,
				"z": -0.7690000916,
				"element": "C" 
			},
			{
				"x": 1.7598197047,
				"y": 0.5754286997,
				"z": -1.528555488,
				"element": "C" 
			},
			{
				"x": 1.9129355596,
				"y": 0.1941082416,
				"z": -2.8607055754,
				"element": "C" 
			},
			{
				"x": 0.9951764642,
				"y": -0.6735682827,
				"z": -3.4540199618,
				"element": "C" 
			},
			{
				"x": 0.6131890771,
				"y": 0.5404212825,
				"z": 0.683203495,
				"element": "C" 
			},
			{
				"x": 1.6534991518,
				"y": 0.5422905217,
				"z": 1.3402451385,
				"element": "O" 
			},
			{
				"x": -0.5961108867,
				"y": 0.8902359214,
				"z": 1.2160310921,
				"element": "N" 
			},
			{
				"x": -0.6414835722,
				"y": 1.3631700766,
				"z": 2.6148532029,
				"element": "C" 
			},
			{
				"x": -1.743591918,
				"y": 2.4275982966,
				"z": 2.6063314665,
				"element": "C" 
			},
			{
				"x": -2.7190540446,
				"y": 1.9061544145,
				"z": 1.5403964173,
				"element": "C" 
			},
			{
				"x": -1.7988857087,
				"y": 1.3116240444,
				"z": 0.4607037673,
				"element": "C" 
			},
			{
				"x": -1.0769936513,
				"y": -1.1596606651,
				"z": -0.7796386764,
				"element": "H" 
			},
			{
				"x": 2.4894148472,
				"y": 1.2201646095,
				"z": -1.0502195323,
				"element": "H" 
			},
			{
				"x": 2.7521069089,
				"y": 0.5664842702,
				"z": -3.439552795,
				"element": "H" 
			},
			{
				"x": 1.0912879445,
				"y": -0.9824511622,
				"z": -4.4887054802,
				"element": "H" 
			},
			{
				"x": 0.3436197976,
				"y": 1.7340919098,
				"z": 2.9019216839,
				"element": "H" 
			},
			{
				"x": -0.8931293955,
				"y": 0.5284624688,
				"z": 3.2819095991,
				"element": "H" 
			},
			{
				"x": -2.2086389872,
				"y": 2.5574795318,
				"z": 3.5869910212,
				"element": "H" 
			},
			{
				"x": -1.3280439143,
				"y": 3.3947247696,
				"z": 2.3006652995,
				"element": "H" 
			},
			{
				"x": -3.3784806959,
				"y": 2.6775172046,
				"z": 1.1341635047,
				"element": "H" 
			},
			{
				"x": -3.3509635347,
				"y": 1.1174659694,
				"z": 1.9636357446,
				"element": "H" 
			},
			{
				"x": -2.2773399744,
				"y": 0.4761254308,
				"z": -0.054943374,
				"element": "H" 
			},
			{
				"x": -1.5313729369,
				"y": 2.0609454248,
				"z": -0.2948839974,
				"element": "H" 
			}
		],
		 "valence_orbital": [ 
			{
				"type": "occ",
				"energy": -0.31423,
				"method": "rhf"
			},
			{
				"type": "occ",
				"energy": -0.29269,
				"method": "rhf"
			},
			{
				"type": "occ",
				"energy": -0.2897,
				"method": "rhf"
			},
			{
				"type": "occ",
				"energy": -0.258,
				"method": "rhf"
			},
			{
				"type": "occ",
				"energy": -0.25059,
				"method": "rhf"
			},
			{
				"type": "unocc",
				"energy": -0.09118,
				"method": "rhf"
			},
			{
				"type": "unocc",
				"energy": -0.05494,
				"method": "rhf"
			},
			{
				"type": "unocc",
				"energy": -0.0449,
				"method": "rhf"
			},
			{
				"type": "unocc",
				"energy": 0.02238,
				"method": "rhf"
			},
			{
				"type": "unocc",
				"energy": 0.05281,
				"method": "rhf"
			}
		],
		"cosmo_sigma_profile": { 
			"-0.025": 0.0,
			"-0.024": 0.0,
			"-0.023": 0.0,
			"-0.022": 0.0,
			"-0.021": 0.0,
			"-0.02": 0.0,
			"-0.019": 0.0,
			"-0.018": 0.0,
			"-0.017": 0.0,
			"-0.016": 0.0,
			"-0.015": 0.0,
			"-0.014": 0.0,
			"-0.013": 0.0,
			"-0.012": 0.0,
			"-0.011": 0.0,
			"-0.01": 0.0,
			"-0.009": 1.16360861728,
			"-0.008": 5.59724229916,
			"-0.007": 8.75180267031,
			"-0.006": 8.68101709911,
			"-0.005": 13.4004189453,
			"-0.004": 27.690409564,
			"-0.003": 35.1336599878,
			"-0.002": 29.4749391022,
			"-0.001": 26.7956930673,
			"0.0": 24.8077178966,
			"0.001": 17.9897726981,
			"0.002": 13.7237109632,
			"0.003": 15.6747921466,
			"0.004": 10.5720507745,
			"0.005": 4.60698923723,
			"0.006": 5.27733897096,
			"0.007": 7.15365152792,
			"0.008": 11.3377636817,
			"0.009": 5.77608521156,
			"0.01": 1.3563748716,
			"0.011": 1.75955106805,
			"0.012": 1.96148989047,
			"0.013": 4.36313434758,
			"0.014": 2.85853721097,
			"0.015": 0.106166978477,
			"0.016": 0.0,
			"0.017": 0.0,
			"0.018": 0.0,
			"0.019": 0.0,
			"0.02": 0.0,
			"0.021": 0.0,
			"0.022": 0.0,
			"0.023": 0.0,
			"0.024": 0.0,
			"0.025": 0.0
		}
	}
}
