{
	 "smiles": "NC1(CCC(O)CC1)C(F)(F)F", 
	 "Tm": 372.15, 
	 "num_atms": 24, 
	 "gaussian": { 
		 "optdone": 1, 
		 "sigma_profile": "yes", 
		 "theory": "DFT", 
		 "functional": "B3LYP", 
		 "basiset": "6-31G**", 
		 "properties": { 
			 "R2extent": 2202.0113, 
			 "electric_dipole_moment_norm": 3.50585119194, 
			 "electric_quadrupole_moment_norm": 7.91079664952, 
			 "total_energy": -703.47830165, 
			 "HOMO_LUMO_gap": 0.30948, 
			 "cosmo_polarized_energy": -11.54, 
			 "cosmo_cavitation_energy": 25.66, 
			 "cosmo_dispersion_energy": -18.57, 
			 "cosmo_repulsion_energy": 1.42, 
			 "cosmo_total_nonelectrostatic_energy": 8.51, 
			 "SMD_solvation_energy": 4.11 
		},
		"coords": [
			{
				"x": 2.10536477,
				"y": 0.3642363851,
				"z": -0.4471498009,
				"element": "N" 
			},
			{
				"x": 0.8322152245,
				"y": -0.0561953095,
				"z": 0.1512738175,
				"element": "C" 
			},
			{
				"x": 0.8663029455,
				"y": -0.1137796162,
				"z": 1.7130515233,
				"element": "C" 
			},
			{
				"x": -0.0776889152,
				"y": -1.1751444975,
				"z": 2.2940090057,
				"element": "C" 
			},
			{
				"x": 0.3101724448,
				"y": -2.598821702,
				"z": 1.834841891,
				"element": "C" 
			},
			{
				"x": -0.837957775,
				"y": -3.4437115573,
				"z": 1.7434184889,
				"element": "O" 
			},
			{
				"x": 0.9607590278,
				"y": -2.5823121983,
				"z": 0.4391092137,
				"element": "C" 
			},
			{
				"x": 0.4276848697,
				"y": -1.4368799089,
				"z": -0.4278127817,
				"element": "C" 
			},
			{
				"x": -0.1922278766,
				"y": 0.994774042,
				"z": -0.2983817706,
				"element": "C" 
			},
			{
				"x": 0.2029092432,
				"y": 2.2427614544,
				"z": 0.0589902567,
				"element": "F" 
			},
			{
				"x": -1.4051819,
				"y": 0.7906453206,
				"z": 0.276545962,
				"element": "F" 
			},
			{
				"x": -0.3816532065,
				"y": 0.9968513612,
				"z": -1.6279786432,
				"element": "F" 
			},
			{
				"x": 2.798586999,
				"y": -0.3677796689,
				"z": -0.3183847603,
				"element": "H" 
			},
			{
				"x": 2.455791454,
				"y": 1.1939071835,
				"z": 0.0258933183,
				"element": "H" 
			},
			{
				"x": 0.6488690272,
				"y": 0.8753913682,
				"z": 2.1288427508,
				"element": "H" 
			},
			{
				"x": 1.8975119595,
				"y": -0.3469975445,
				"z": 2.0058336278,
				"element": "H" 
			},
			{
				"x": -1.0978447227,
				"y": -0.976353258,
				"z": 1.9514124961,
				"element": "H" 
			},
			{
				"x": -0.0889643195,
				"y": -1.1164913087,
				"z": 3.3890801663,
				"element": "H" 
			},
			{
				"x": 1.0296081402,
				"y": -3.0288638522,
				"z": 2.5509721151,
				"element": "H" 
			},
			{
				"x": -1.3153062306,
				"y": -3.3902016282,
				"z": 2.5817841491,
				"element": "H" 
			},
			{
				"x": 0.7670872097,
				"y": -3.5489397717,
				"z": -0.0349919523,
				"element": "H" 
			},
			{
				"x": 2.0498989317,
				"y": -2.5006511963,
				"z": 0.5481016044,
				"element": "H" 
			},
			{
				"x": -0.6627816898,
				"y": -1.5151605118,
				"z": -0.4749151922,
				"element": "H" 
			},
			{
				"x": 0.7991443891,
				"y": -1.4995835847,
				"z": -1.4541454857,
				"element": "H" 
			}
		],
		 "valence_orbital": [ 
			{
				"type": "occ",
				"energy": -0.3364,
				"method": "rhf"
			},
			{
				"type": "occ",
				"energy": -0.32287,
				"method": "rhf"
			},
			{
				"type": "occ",
				"energy": -0.30942,
				"method": "rhf"
			},
			{
				"type": "occ",
				"energy": -0.2664,
				"method": "rhf"
			},
			{
				"type": "occ",
				"energy": -0.24732,
				"method": "rhf"
			},
			{
				"type": "unocc",
				"energy": 0.06216,
				"method": "rhf"
			},
			{
				"type": "unocc",
				"energy": 0.08037,
				"method": "rhf"
			},
			{
				"type": "unocc",
				"energy": 0.09979,
				"method": "rhf"
			},
			{
				"type": "unocc",
				"energy": 0.10908,
				"method": "rhf"
			},
			{
				"type": "unocc",
				"energy": 0.13317,
				"method": "rhf"
			}
		],
		"cosmo_sigma_profile": { 
			"-0.025": 0.0,
			"-0.024": 0.0,
			"-0.023": 0.0,
			"-0.022": 0.0,
			"-0.021": 0.0,
			"-0.02": 0.0,
			"-0.019": 0.0,
			"-0.018": 0.0,
			"-0.017": 0.0,
			"-0.016": 0.0483447106858,
			"-0.015": 0.66474548531,
			"-0.014": 0.757368723408,
			"-0.013": 1.19427860185,
			"-0.012": 0.627958584476,
			"-0.011": 0.919393934706,
			"-0.01": 2.9230726507,
			"-0.009": 3.59818414332,
			"-0.008": 3.82396507399,
			"-0.007": 4.68826658205,
			"-0.006": 5.48906425572,
			"-0.005": 5.3283739495,
			"-0.004": 9.90625260425,
			"-0.003": 19.004908804,
			"-0.002": 21.2279591828,
			"-0.001": 19.1131294559,
			"0.0": 14.9348001839,
			"0.001": 9.94717637912,
			"0.002": 11.7940214217,
			"0.003": 27.3299003922,
			"0.004": 10.2244055813,
			"0.005": 2.95425087393,
			"0.006": 2.82663440029,
			"0.007": 2.43036407338,
			"0.008": 2.14300792038,
			"0.009": 2.00185893242,
			"0.01": 2.10094532379,
			"0.011": 1.89014810376,
			"0.012": 1.7170248115,
			"0.013": 2.37583859343,
			"0.014": 2.47324129946,
			"0.015": 0.88240359724,
			"0.016": 0.578120262579,
			"0.017": 0.430998743564,
			"0.018": 0.0471723625241,
			"0.019": 0.0,
			"0.02": 0.0,
			"0.021": 0.0,
			"0.022": 0.0,
			"0.023": 0.0,
			"0.024": 0.0,
			"0.025": 0.0
		}
	}
}
