{
	 "smiles": "ClCC(=O)NC1C2CC3CC(C2)CC1C3", 
	 "Tm": 393.15, 
	 "num_atms": 33, 
	 "gaussian": { 
		 "optdone": 1, 
		 "sigma_profile": "yes", 
		 "theory": "DFT", 
		 "functional": "B3LYP", 
		 "basiset": "6-31G**", 
		 "properties": { 
			 "R2extent": 4823.1477, 
			 "electric_dipole_moment_norm": 4.10912184658, 
			 "electric_quadrupole_moment_norm": 16.1484689076, 
			 "total_energy": -1058.33455277, 
			 "HOMO_LUMO_gap": 0.23154, 
			 "cosmo_polarized_energy": -10.73, 
			 "cosmo_cavitation_energy": 32.71, 
			 "cosmo_dispersion_energy": -23.8, 
			 "cosmo_repulsion_energy": 1.85, 
			 "cosmo_total_nonelectrostatic_energy": 10.75, 
			 "SMD_solvation_energy": 4.26 
		},
		"coords": [
			{
				"x": 1.1354236803,
				"y": -4.7496377921,
				"z": 1.4779483542,
				"element": "Cl" 
			},
			{
				"x": 0.080584133,
				"y": -3.9109208787,
				"z": 2.69923861,
				"element": "C" 
			},
			{
				"x": 0.5514562257,
				"y": -2.4895691447,
				"z": 3.0170161332,
				"element": "C" 
			},
			{
				"x": 1.0098481136,
				"y": -2.241570829,
				"z": 4.125491914,
				"element": "O" 
			},
			{
				"x": 0.4162105907,
				"y": -1.5289275335,
				"z": 2.0581249839,
				"element": "N" 
			},
			{
				"x": -0.1347915479,
				"y": -1.6143527113,
				"z": 0.7064060196,
				"element": "C" 
			},
			{
				"x": 0.9157397025,
				"y": -1.2625236361,
				"z": -0.3795261448,
				"element": "C" 
			},
			{
				"x": 1.3102544611,
				"y": 0.2272537344,
				"z": -0.284679611,
				"element": "C" 
			},
			{
				"x": 0.0621153877,
				"y": 1.1142328468,
				"z": -0.4813645349,
				"element": "C" 
			},
			{
				"x": -0.5524628301,
				"y": 0.8327615212,
				"z": -1.8689026341,
				"element": "C" 
			},
			{
				"x": -0.9534335659,
				"y": -0.654269865,
				"z": -1.9678141158,
				"element": "C" 
			},
			{
				"x": 0.296157956,
				"y": -1.5367282512,
				"z": -1.7670294473,
				"element": "C" 
			},
			{
				"x": -1.9868543761,
				"y": -0.9800911131,
				"z": -0.8692520253,
				"element": "C" 
			},
			{
				"x": -1.3774589098,
				"y": -0.7034740521,
				"z": 0.5225289741,
				"element": "C" 
			},
			{
				"x": -0.974871069,
				"y": 0.7844789343,
				"z": 0.6137449317,
				"element": "C" 
			},
			{
				"x": -0.93930431,
				"y": -3.9427424606,
				"z": 2.3114720943,
				"element": "H" 
			},
			{
				"x": 0.150810905,
				"y": -4.4816061841,
				"z": 3.6219766929,
				"element": "H" 
			},
			{
				"x": 0.76270551,
				"y": -0.6316105905,
				"z": 2.3722017998,
				"element": "H" 
			},
			{
				"x": -0.4401209447,
				"y": -2.6521272643,
				"z": 0.5524255473,
				"element": "H" 
			},
			{
				"x": 1.795963305,
				"y": -1.8972834944,
				"z": -0.2285716615,
				"element": "H" 
			},
			{
				"x": 1.7861715358,
				"y": 0.4449129911,
				"z": 0.6807465055,
				"element": "H" 
			},
			{
				"x": 2.0617880088,
				"y": 0.4549364594,
				"z": -1.0510294006,
				"element": "H" 
			},
			{
				"x": 0.3467992504,
				"y": 2.1713969655,
				"z": -0.4110625815,
				"element": "H" 
			},
			{
				"x": -1.4307983753,
				"y": 1.4718988986,
				"z": -2.0284007687,
				"element": "H" 
			},
			{
				"x": 0.1696546836,
				"y": 1.0812504709,
				"z": -2.6575558265,
				"element": "H" 
			},
			{
				"x": -1.3908937214,
				"y": -0.8545852175,
				"z": -2.9537590434,
				"element": "H" 
			},
			{
				"x": 0.0309027244,
				"y": -2.598115248,
				"z": -1.8576143333,
				"element": "H" 
			},
			{
				"x": 1.0369780267,
				"y": -1.3276547755,
				"z": -2.5492213894,
				"element": "H" 
			},
			{
				"x": -2.8895480851,
				"y": -0.3707089849,
				"z": -1.0045646021,
				"element": "H" 
			},
			{
				"x": -2.2992165984,
				"y": -2.0302456359,
				"z": -0.9435370429,
				"element": "H" 
			},
			{
				"x": -2.1072332492,
				"y": -0.9411296844,
				"z": 1.3065721022,
				"element": "H" 
			},
			{
				"x": -0.5701315668,
				"y": 1.0190299603,
				"z": 1.6071876714,
				"element": "H" 
			},
			{
				"x": -1.8669450504,
				"y": 1.4119225647,
				"z": 0.4931028293,
				"element": "H" 
			}
		],
		 "valence_orbital": [ 
			{
				"type": "occ",
				"energy": -0.29625,
				"method": "rhf"
			},
			{
				"type": "occ",
				"energy": -0.29283,
				"method": "rhf"
			},
			{
				"type": "occ",
				"energy": -0.29047,
				"method": "rhf"
			},
			{
				"type": "occ",
				"energy": -0.25216,
				"method": "rhf"
			},
			{
				"type": "occ",
				"energy": -0.24779,
				"method": "rhf"
			},
			{
				"type": "unocc",
				"energy": -0.01625,
				"method": "rhf"
			},
			{
				"type": "unocc",
				"energy": 0.05036,
				"method": "rhf"
			},
			{
				"type": "unocc",
				"energy": 0.05997,
				"method": "rhf"
			},
			{
				"type": "unocc",
				"energy": 0.08027,
				"method": "rhf"
			},
			{
				"type": "unocc",
				"energy": 0.10022,
				"method": "rhf"
			}
		],
		"cosmo_sigma_profile": { 
			"-0.025": 0.0,
			"-0.024": 0.0,
			"-0.023": 0.0,
			"-0.022": 0.0,
			"-0.021": 0.0,
			"-0.02": 0.0,
			"-0.019": 0.0,
			"-0.018": 0.0,
			"-0.017": 0.0,
			"-0.016": 0.0,
			"-0.015": 0.0,
			"-0.014": 0.0,
			"-0.013": 0.0,
			"-0.012": 0.557427362851,
			"-0.011": 1.03701893986,
			"-0.01": 1.71491896471,
			"-0.009": 1.97315004321,
			"-0.008": 5.76897054999,
			"-0.007": 5.16395712248,
			"-0.006": 6.61226692363,
			"-0.005": 5.8556028947,
			"-0.004": 6.22809737945,
			"-0.003": 13.0277810285,
			"-0.002": 37.4063476354,
			"-0.001": 40.3466933518,
			"0.0": 41.8565970958,
			"0.001": 29.9613482197,
			"0.002": 12.8639427447,
			"0.003": 6.22890469592,
			"0.004": 7.37872856512,
			"0.005": 7.66288307542,
			"0.006": 5.54020930457,
			"0.007": 1.65744246064,
			"0.008": 0.930495749113,
			"0.009": 0.62986157757,
			"0.01": 1.02537088402,
			"0.011": 2.26331411347,
			"0.012": 1.69976736313,
			"0.013": 5.15415827134,
			"0.014": 4.05627136704,
			"0.015": 0.225157646811,
			"0.016": 0.0,
			"0.017": 0.0,
			"0.018": 0.0,
			"0.019": 0.0,
			"0.02": 0.0,
			"0.021": 0.0,
			"0.022": 0.0,
			"0.023": 0.0,
			"0.024": 0.0,
			"0.025": 0.0
		}
	}
}
