{
	 "smiles": "OC(=O)CC1=CSC(=N1)C1=COC=C1", 
	 "Tm": 402.15, 
	 "num_atms": 21, 
	 "gaussian": { 
		 "optdone": 1, 
		 "sigma_profile": "yes", 
		 "theory": "DFT", 
		 "functional": "B3LYP", 
		 "basiset": "6-31G**", 
		 "properties": { 
			 "R2extent": 4237.9239, 
			 "electric_dipole_moment_norm": 6.40311242132, 
			 "electric_quadrupole_moment_norm": 19.4660453719, 
			 "total_energy": -1025.76843839, 
			 "HOMO_LUMO_gap": 0.16995, 
			 "cosmo_polarized_energy": -14.34, 
			 "cosmo_cavitation_energy": 28.0, 
			 "cosmo_dispersion_energy": -20.92, 
			 "cosmo_repulsion_energy": 1.58, 
			 "cosmo_total_nonelectrostatic_energy": 8.66, 
			 "SMD_solvation_energy": 6.62 
		},
		"coords": [
			{
				"x": -1.8822485551,
				"y": 1.8442347044,
				"z": 0.9707965025,
				"element": "O" 
			},
			{
				"x": -2.7153701238,
				"y": 1.0210084277,
				"z": 1.6265215889,
				"element": "C" 
			},
			{
				"x": -3.6401680335,
				"y": 1.4333288034,
				"z": 2.2844710647,
				"element": "O" 
			},
			{
				"x": -2.3777439916,
				"y": -0.4812011336,
				"z": 1.5606039163,
				"element": "C" 
			},
			{
				"x": -1.8298059315,
				"y": -0.9809838634,
				"z": 0.2517191955,
				"element": "C" 
			},
			{
				"x": -2.2231411613,
				"y": -2.1018113539,
				"z": -0.4232930213,
				"element": "C" 
			},
			{
				"x": -1.2828076218,
				"y": -2.2939201749,
				"z": -1.8678665995,
				"element": "S" 
			},
			{
				"x": -0.4129656319,
				"y": -0.820760704,
				"z": -1.4746836133,
				"element": "C" 
			},
			{
				"x": -0.8113699447,
				"y": -0.2706425259,
				"z": -0.3510878844,
				"element": "N" 
			},
			{
				"x": 0.6375797718,
				"y": -0.2949858648,
				"z": -2.3261661063,
				"element": "C" 
			},
			{
				"x": 1.4137318624,
				"y": 0.8043577644,
				"z": -2.0588715112,
				"element": "C" 
			},
			{
				"x": 2.296037846,
				"y": 1.016448078,
				"z": -3.0629279377,
				"element": "O" 
			},
			{
				"x": 2.0899239822,
				"y": 0.0394115008,
				"z": -3.9961427383,
				"element": "C" 
			},
			{
				"x": 1.0913653135,
				"y": -0.7909156214,
				"z": -3.6024081845,
				"element": "C" 
			},
			{
				"x": -1.2384860325,
				"y": 1.3131424603,
				"z": 0.4454291305,
				"element": "H" 
			},
			{
				"x": -3.2779324573,
				"y": -1.0268589248,
				"z": 1.8448384761,
				"element": "H" 
			},
			{
				"x": -1.6323719431,
				"y": -0.6564797916,
				"z": 2.3499808245,
				"element": "H" 
			},
			{
				"x": -2.9945088765,
				"y": -2.8103062567,
				"z": -0.1589594276,
				"element": "H" 
			},
			{
				"x": 1.446622606,
				"y": 1.4935412261,
				"z": -1.2304899628,
				"element": "H" 
			},
			{
				"x": 2.7253727521,
				"y": 0.0786631681,
				"z": -4.8665788288,
				"element": "H" 
			},
			{
				"x": 0.7151861705,
				"y": -1.6460699181,
				"z": -4.1452848832,
				"element": "H" 
			}
		],
		 "valence_orbital": [ 
			{
				"type": "occ",
				"energy": -0.30473,
				"method": "rhf"
			},
			{
				"type": "occ",
				"energy": -0.29474,
				"method": "rhf"
			},
			{
				"type": "occ",
				"energy": -0.27217,
				"method": "rhf"
			},
			{
				"type": "occ",
				"energy": -0.25482,
				"method": "rhf"
			},
			{
				"type": "occ",
				"energy": -0.234,
				"method": "rhf"
			},
			{
				"type": "unocc",
				"energy": -0.06405,
				"method": "rhf"
			},
			{
				"type": "unocc",
				"energy": -0.00573,
				"method": "rhf"
			},
			{
				"type": "unocc",
				"energy": -0.00189,
				"method": "rhf"
			},
			{
				"type": "unocc",
				"energy": 0.01695,
				"method": "rhf"
			},
			{
				"type": "unocc",
				"energy": 0.03168,
				"method": "rhf"
			}
		],
		"cosmo_sigma_profile": { 
			"-0.025": 0.0,
			"-0.024": 0.0,
			"-0.023": 0.0,
			"-0.022": 0.0,
			"-0.021": 0.0,
			"-0.02": 0.0,
			"-0.019": 0.0,
			"-0.018": 0.0,
			"-0.017": 0.0,
			"-0.016": 0.0,
			"-0.015": 0.0,
			"-0.014": 0.0,
			"-0.013": 0.0,
			"-0.012": 0.0,
			"-0.011": 0.0,
			"-0.01": 1.81313377939,
			"-0.009": 6.45594877081,
			"-0.008": 9.77228070349,
			"-0.007": 11.8681121068,
			"-0.006": 11.5248390809,
			"-0.005": 11.4219257722,
			"-0.004": 13.2305087346,
			"-0.003": 12.8573777852,
			"-0.002": 11.6709239407,
			"-0.001": 15.3210465335,
			"0.0": 19.2803544144,
			"0.001": 22.0707308275,
			"0.002": 23.067064246,
			"0.003": 12.3015140503,
			"0.004": 6.50975899501,
			"0.005": 4.22177590268,
			"0.006": 4.10037364867,
			"0.007": 4.36150172895,
			"0.008": 3.14968110365,
			"0.009": 2.65296480273,
			"0.01": 4.10019825908,
			"0.011": 5.58955312351,
			"0.012": 6.35366730121,
			"0.013": 3.61595467629,
			"0.014": 0.510562669499,
			"0.015": 0.0,
			"0.016": 0.0,
			"0.017": 0.0,
			"0.018": 0.0,
			"0.019": 0.0,
			"0.02": 0.0,
			"0.021": 0.0,
			"0.022": 0.0,
			"0.023": 0.0,
			"0.024": 0.0,
			"0.025": 0.0
		}
	}
}
