{
	 "smiles": "COC(=O)C1=NOC(C)=C1", 
	 "Tm": 365.15, 
	 "num_atms": 17, 
	 "gaussian": { 
		 "optdone": 1, 
		 "sigma_profile": "yes", 
		 "theory": "DFT", 
		 "functional": "B3LYP", 
		 "basiset": "6-31G**", 
		 "properties": { 
			 "R2extent": 2002.7202, 
			 "electric_dipole_moment_norm": 4.86662049168, 
			 "electric_quadrupole_moment_norm": 11.5029577188, 
			 "total_energy": -513.231857777, 
			 "HOMO_LUMO_gap": 0.21665, 
			 "cosmo_polarized_energy": -12.09, 
			 "cosmo_cavitation_energy": 22.31, 
			 "cosmo_dispersion_energy": -16.41, 
			 "cosmo_repulsion_energy": 1.35, 
			 "cosmo_total_nonelectrostatic_energy": 7.26, 
			 "SMD_solvation_energy": 5.83 
		},
		"coords": [
			{
				"x": -2.3794137618,
				"y": 2.6594850256,
				"z": 1.2034133422,
				"element": "C" 
			},
			{
				"x": -1.6987387008,
				"y": 1.3962430864,
				"z": 1.1178739908,
				"element": "O" 
			},
			{
				"x": -0.3498212089,
				"y": 1.479552744,
				"z": 1.0504816266,
				"element": "C" 
			},
			{
				"x": 0.2706696884,
				"y": 2.5174878171,
				"z": 1.0590454579,
				"element": "O" 
			},
			{
				"x": 0.2407328523,
				"y": 0.1146991843,
				"z": 0.9660120146,
				"element": "C" 
			},
			{
				"x": 1.5506946286,
				"y": -0.0182533679,
				"z": 0.8931132592,
				"element": "N" 
			},
			{
				"x": 1.7690116851,
				"y": -1.3845143126,
				"z": 0.8279454692,
				"element": "O" 
			},
			{
				"x": 0.5861535636,
				"y": -2.0487753005,
				"z": 0.8628609399,
				"element": "C" 
			},
			{
				"x": 0.6492125041,
				"y": -3.5347485974,
				"z": 0.8009901349,
				"element": "C" 
			},
			{
				"x": -0.4278325613,
				"y": -1.1439163749,
				"z": 0.9509370485,
				"element": "C" 
			},
			{
				"x": -2.0678932803,
				"y": 3.202812924,
				"z": 2.0990520737,
				"element": "H" 
			},
			{
				"x": -2.1609028385,
				"y": 3.2727750607,
				"z": 0.3256103708,
				"element": "H" 
			},
			{
				"x": -3.441146677,
				"y": 2.4191990681,
				"z": 1.2496245339,
				"element": "H" 
			},
			{
				"x": 1.1342706684,
				"y": -3.8666693754,
				"z": -0.122791977,
				"element": "H" 
			},
			{
				"x": -0.3576695561,
				"y": -3.9549880706,
				"z": 0.8365531935,
				"element": "H" 
			},
			{
				"x": 1.2255844859,
				"y": -3.9362213571,
				"z": 1.6408937294,
				"element": "H" 
			},
			{
				"x": -1.4890114918,
				"y": -1.3263681539,
				"z": 0.9985847921,
				"element": "H" 
			}
		],
		 "valence_orbital": [ 
			{
				"type": "occ",
				"energy": -0.3107,
				"method": "rhf"
			},
			{
				"type": "occ",
				"energy": -0.30898,
				"method": "rhf"
			},
			{
				"type": "occ",
				"energy": -0.30258,
				"method": "rhf"
			},
			{
				"type": "occ",
				"energy": -0.28097,
				"method": "rhf"
			},
			{
				"type": "occ",
				"energy": -0.26471,
				"method": "rhf"
			},
			{
				"type": "unocc",
				"energy": -0.04806,
				"method": "rhf"
			},
			{
				"type": "unocc",
				"energy": 0.00883,
				"method": "rhf"
			},
			{
				"type": "unocc",
				"energy": 0.08582,
				"method": "rhf"
			},
			{
				"type": "unocc",
				"energy": 0.10756,
				"method": "rhf"
			},
			{
				"type": "unocc",
				"energy": 0.10825,
				"method": "rhf"
			}
		],
		"cosmo_sigma_profile": { 
			"-0.025": 0.0,
			"-0.024": 0.0,
			"-0.023": 0.0,
			"-0.022": 0.0,
			"-0.021": 0.0,
			"-0.02": 0.0,
			"-0.019": 0.0,
			"-0.018": 0.0,
			"-0.017": 0.0,
			"-0.016": 0.0,
			"-0.015": 0.0,
			"-0.014": 0.0,
			"-0.013": 0.0,
			"-0.012": 0.0,
			"-0.011": 0.0,
			"-0.01": 0.0,
			"-0.009": 0.487105546215,
			"-0.008": 1.31397312092,
			"-0.007": 5.98443662986,
			"-0.006": 14.7316831176,
			"-0.005": 14.7606173454,
			"-0.004": 20.1032822546,
			"-0.003": 18.822783365,
			"-0.002": 15.3170469929,
			"-0.001": 11.8917592807,
			"0.0": 11.1674614545,
			"0.001": 8.1098680796,
			"0.002": 6.64863759068,
			"0.003": 4.00373764306,
			"0.004": 4.75018790336,
			"0.005": 5.73141996245,
			"0.006": 4.77495169566,
			"0.007": 6.05097300826,
			"0.008": 3.44332752555,
			"0.009": 3.01920120773,
			"0.01": 4.37953822486,
			"0.011": 6.46713349745,
			"0.012": 3.89976298151,
			"0.013": 1.93713827088,
			"0.014": 0.307103927298,
			"0.015": 0.0,
			"0.016": 0.0,
			"0.017": 0.0,
			"0.018": 0.0,
			"0.019": 0.0,
			"0.02": 0.0,
			"0.021": 0.0,
			"0.022": 0.0,
			"0.023": 0.0,
			"0.024": 0.0,
			"0.025": 0.0
		}
	}
}
