{
	 "smiles": "ClC1=CC=C(C2=NOC(=C2)C(=O)CBr)C(Cl)=C1", 
	 "Tm": 359.15, 
	 "num_atms": 23, 
	 "gaussian": { 
		 "optdone": 1, 
		 "sigma_profile": "yes", 
		 "theory": "DFT", 
		 "functional": "B3LYP", 
		 "basiset": "6-31G**", 
		 "properties": { 
			 "R2extent": 13974.6095, 
			 "electric_dipole_moment_norm": 4.17266271582, 
			 "electric_quadrupole_moment_norm": 27.943365485, 
			 "total_energy": -4119.70710301, 
			 "HOMO_LUMO_gap": 0.17097, 
			 "cosmo_polarized_energy": -15.7, 
			 "cosmo_cavitation_energy": 35.15, 
			 "cosmo_dispersion_energy": -26.01, 
			 "cosmo_repulsion_energy": 2.03, 
			 "cosmo_total_nonelectrostatic_energy": 11.17, 
			 "SMD_solvation_energy": 4.78 
		},
		"coords": [
			{
				"x": 1.7292788077,
				"y": 0.5411934733,
				"z": -4.6595555356,
				"element": "Cl" 
			},
			{
				"x": 1.2700133447,
				"y": 0.6713779383,
				"z": -2.9754691786,
				"element": "C" 
			},
			{
				"x": 1.0202376594,
				"y": -0.4825787273,
				"z": -2.2327900245,
				"element": "C" 
			},
			{
				"x": 0.6468062001,
				"y": -0.3550832719,
				"z": -0.9010342893,
				"element": "C" 
			},
			{
				"x": 0.5170841862,
				"y": 0.8995139031,
				"z": -0.2761852222,
				"element": "C" 
			},
			{
				"x": 0.1195987796,
				"y": 0.9293206672,
				"z": 1.1453609038,
				"element": "C" 
			},
			{
				"x": 0.4763216805,
				"y": -0.0823193707,
				"z": 1.923693819,
				"element": "N" 
			},
			{
				"x": -0.0731312721,
				"y": 0.1572753098,
				"z": 3.1620819077,
				"element": "O" 
			},
			{
				"x": -0.7628064201,
				"y": 1.3198932083,
				"z": 3.1258538293,
				"element": "C" 
			},
			{
				"x": -0.678540461,
				"y": 1.8614300238,
				"z": 1.8739383973,
				"element": "C" 
			},
			{
				"x": -1.4348057458,
				"y": 1.7444706292,
				"z": 4.3829278272,
				"element": "C" 
			},
			{
				"x": -1.3857448537,
				"y": 1.0689103013,
				"z": 5.3862352354,
				"element": "O" 
			},
			{
				"x": -2.1647657964,
				"y": 3.082566212,
				"z": 4.2740914379,
				"element": "C" 
			},
			{
				"x": -3.068569445,
				"y": 3.5953699337,
				"z": 5.9202476924,
				"element": "Br" 
			},
			{
				"x": 0.7895509459,
				"y": 2.0361273168,
				"z": -1.0571613777,
				"element": "C" 
			},
			{
				"x": 0.7226383573,
				"y": 3.6598766329,
				"z": -0.3847001239,
				"element": "Cl" 
			},
			{
				"x": 1.1602802449,
				"y": 1.9334779104,
				"z": -2.3978851813,
				"element": "C" 
			},
			{
				"x": 1.1096303532,
				"y": -1.4600576639,
				"z": -2.6921338274,
				"element": "H" 
			},
			{
				"x": 0.4431518804,
				"y": -1.2415659589,
				"z": -0.3109603571,
				"element": "H" 
			},
			{
				"x": -1.1224108379,
				"y": 2.7734102238,
				"z": 1.5117345067,
				"element": "H" 
			},
			{
				"x": -2.9205843646,
				"y": 3.0390274554,
				"z": 3.4870349129,
				"element": "H" 
			},
			{
				"x": -1.4566460479,
				"y": 3.8773060926,
				"z": 4.029242111,
				"element": "H" 
			},
			{
				"x": 1.3672128046,
				"y": 2.8261577608,
				"z": -2.9746674628,
				"element": "H" 
			}
		],
		 "valence_orbital": [ 
			{
				"type": "occ",
				"energy": -0.28858,
				"method": "rhf"
			},
			{
				"type": "occ",
				"energy": -0.28512,
				"method": "rhf"
			},
			{
				"type": "occ",
				"energy": -0.28444,
				"method": "rhf"
			},
			{
				"type": "occ",
				"energy": -0.27975,
				"method": "rhf"
			},
			{
				"type": "occ",
				"energy": -0.26248,
				"method": "rhf"
			},
			{
				"type": "unocc",
				"energy": -0.09151,
				"method": "rhf"
			},
			{
				"type": "unocc",
				"energy": -0.06032,
				"method": "rhf"
			},
			{
				"type": "unocc",
				"energy": -0.04158,
				"method": "rhf"
			},
			{
				"type": "unocc",
				"energy": -0.01321,
				"method": "rhf"
			},
			{
				"type": "unocc",
				"energy": -0.01025,
				"method": "rhf"
			}
		],
		"cosmo_sigma_profile": { 
			"-0.025": 0.0,
			"-0.024": 0.0,
			"-0.023": 0.0,
			"-0.022": 0.0,
			"-0.021": 0.0,
			"-0.02": 0.0,
			"-0.019": 0.0,
			"-0.018": 0.0,
			"-0.017": 0.0,
			"-0.016": 0.0,
			"-0.015": 0.0,
			"-0.014": 0.0,
			"-0.013": 0.0,
			"-0.012": 0.0,
			"-0.011": 1.54817094307,
			"-0.01": 9.1802355175,
			"-0.009": 7.10239459702,
			"-0.008": 8.23057967477,
			"-0.007": 9.91630641265,
			"-0.006": 9.87109416959,
			"-0.005": 8.9828123712,
			"-0.004": 10.1973517415,
			"-0.003": 16.4246306194,
			"-0.002": 21.5474126958,
			"-0.001": 22.748061345,
			"0.0": 29.064544433,
			"0.001": 27.3076205301,
			"0.002": 20.1737757165,
			"0.003": 21.1257561807,
			"0.004": 19.6159455891,
			"0.005": 13.257459391,
			"0.006": 8.84842203955,
			"0.007": 5.10565198148,
			"0.008": 5.41795897984,
			"0.009": 5.08344939701,
			"0.01": 6.38866841359,
			"0.011": 3.56348246017,
			"0.012": 0.701231341441,
			"0.013": 0.0,
			"0.014": 0.0,
			"0.015": 0.0,
			"0.016": 0.0,
			"0.017": 0.0,
			"0.018": 0.0,
			"0.019": 0.0,
			"0.02": 0.0,
			"0.021": 0.0,
			"0.022": 0.0,
			"0.023": 0.0,
			"0.024": 0.0,
			"0.025": 0.0
		}
	}
}
