{
	 "smiles": "OC1=CC=C(C=C)C=C1", 
	 "Tm": 346.35, 
	 "num_atms": 17, 
	 "gaussian": { 
		 "optdone": 1, 
		 "sigma_profile": "yes", 
		 "theory": "DFT", 
		 "functional": "B3LYP", 
		 "basiset": "6-31G**", 
		 "properties": { 
			 "R2extent": 1648.0504, 
			 "electric_dipole_moment_norm": 1.53137536222, 
			 "electric_quadrupole_moment_norm": 10.6934274861, 
			 "total_energy": -384.873749179, 
			 "HOMO_LUMO_gap": 0.18288, 
			 "cosmo_polarized_energy": -8.58, 
			 "cosmo_cavitation_energy": 21.03, 
			 "cosmo_dispersion_energy": -15.51, 
			 "cosmo_repulsion_energy": 1.25, 
			 "cosmo_total_nonelectrostatic_energy": 6.77, 
			 "SMD_solvation_energy": 4.64 
		},
		"coords": [
			{
				"x": -0.2429387153,
				"y": -3.481480623,
				"z": -1.5226420173,
				"element": "O" 
			},
			{
				"x": -0.4089059459,
				"y": -2.4353041471,
				"z": -0.6609477396,
				"element": "C" 
			},
			{
				"x": 0.500192704,
				"y": -1.3720642421,
				"z": -0.753650451,
				"element": "C" 
			},
			{
				"x": 0.3808962624,
				"y": -0.2818634942,
				"z": 0.0960375124,
				"element": "C" 
			},
			{
				"x": -0.6408900565,
				"y": -0.2088235649,
				"z": 1.0638753656,
				"element": "C" 
			},
			{
				"x": -0.8049224663,
				"y": 0.9257322966,
				"z": 1.9840162313,
				"element": "C" 
			},
			{
				"x": -0.056033799,
				"y": 2.0333163491,
				"z": 2.0646600764,
				"element": "C" 
			},
			{
				"x": -1.5382881401,
				"y": -1.2860328789,
				"z": 1.1365534732,
				"element": "C" 
			},
			{
				"x": -1.4316016401,
				"y": -2.387936692,
				"z": 0.2901806058,
				"element": "C" 
			},
			{
				"x": -0.9285295946,
				"y": -4.1411490341,
				"z": -1.3552339816,
				"element": "H" 
			},
			{
				"x": 1.289029114,
				"y": -1.4229021234,
				"z": -1.4970224088,
				"element": "H" 
			},
			{
				"x": 1.0963864814,
				"y": 0.529708684,
				"z": 0.0059834879,
				"element": "H" 
			},
			{
				"x": -1.6444430562,
				"y": 0.8278260527,
				"z": 2.6724472205,
				"element": "H" 
			},
			{
				"x": -0.2811783547,
				"y": 2.8053245939,
				"z": 2.7929564834,
				"element": "H" 
			},
			{
				"x": 0.7987846411,
				"y": 2.2155848768,
				"z": 1.4198474785,
				"element": "H" 
			},
			{
				"x": -2.3382191388,
				"y": -1.2610294273,
				"z": 1.8723667776,
				"element": "H" 
			},
			{
				"x": -2.1419382954,
				"y": -3.208506626,
				"z": 0.369471886,
				"element": "H" 
			}
		],
		 "valence_orbital": [ 
			{
				"type": "occ",
				"energy": -0.34838,
				"method": "rhf"
			},
			{
				"type": "occ",
				"energy": -0.33374,
				"method": "rhf"
			},
			{
				"type": "occ",
				"energy": -0.2775,
				"method": "rhf"
			},
			{
				"type": "occ",
				"energy": -0.25312,
				"method": "rhf"
			},
			{
				"type": "occ",
				"energy": -0.20494,
				"method": "rhf"
			},
			{
				"type": "unocc",
				"energy": -0.02206,
				"method": "rhf"
			},
			{
				"type": "unocc",
				"energy": -0.00151,
				"method": "rhf"
			},
			{
				"type": "unocc",
				"energy": 0.06892,
				"method": "rhf"
			},
			{
				"type": "unocc",
				"energy": 0.07019,
				"method": "rhf"
			},
			{
				"type": "unocc",
				"energy": 0.09604,
				"method": "rhf"
			}
		],
		"cosmo_sigma_profile": { 
			"-0.025": 0.0,
			"-0.024": 0.0,
			"-0.023": 0.0,
			"-0.022": 0.0,
			"-0.021": 0.0,
			"-0.02": 0.0,
			"-0.019": 0.0,
			"-0.018": 0.411723500735,
			"-0.017": 1.20949644696,
			"-0.016": 0.972812424614,
			"-0.015": 1.07352434896,
			"-0.014": 0.968013763914,
			"-0.013": 1.2131632527,
			"-0.012": 0.527315652315,
			"-0.011": 1.08597758746,
			"-0.01": 0.993738331732,
			"-0.009": 1.26441957286,
			"-0.008": 0.946645070363,
			"-0.007": 1.81096925547,
			"-0.006": 7.58482744664,
			"-0.005": 13.1023205262,
			"-0.004": 11.7748849826,
			"-0.003": 11.3224395124,
			"-0.002": 9.57205735851,
			"-0.001": 8.74680049292,
			"0.0": 9.19766956085,
			"0.001": 8.66555363348,
			"0.002": 9.6412809109,
			"0.003": 13.3484780403,
			"0.004": 14.8349230954,
			"0.005": 18.1422440405,
			"0.006": 8.56161232531,
			"0.007": 3.61216668938,
			"0.008": 1.69481890077,
			"0.009": 1.4279340571,
			"0.01": 1.58286227068,
			"0.011": 2.03752613172,
			"0.012": 0.50250764941,
			"0.013": 0.0,
			"0.014": 0.0,
			"0.015": 0.0,
			"0.016": 0.0,
			"0.017": 0.0,
			"0.018": 0.0,
			"0.019": 0.0,
			"0.02": 0.0,
			"0.021": 0.0,
			"0.022": 0.0,
			"0.023": 0.0,
			"0.024": 0.0,
			"0.025": 0.0
		}
	}
}
