{
	 "smiles": "COC1=C(OC(C)=O)C2=C(C(Cl)=CC=C2)C(OC(C)=O)=C1OC", 
	 "Tm": 407.15, 
	 "num_atms": 38, 
	 "gaussian": { 
		 "optdone": 1, 
		 "sigma_profile": "yes", 
		 "theory": "DFT", 
		 "functional": "B3LYP", 
		 "basiset": "6-31G**", 
		 "properties": { 
			 "R2extent": 7713.4594, 
			 "electric_dipole_moment_norm": 5.25646480917, 
			 "electric_quadrupole_moment_norm": 19.2944392753, 
			 "total_energy": -1530.25573311, 
			 "HOMO_LUMO_gap": 0.16, 
			 "cosmo_polarized_energy": -15.42, 
			 "cosmo_cavitation_energy": 43.58, 
			 "cosmo_dispersion_energy": -28.94, 
			 "cosmo_repulsion_energy": 2.21, 
			 "cosmo_total_nonelectrostatic_energy": 16.85, 
			 "SMD_solvation_energy": 10.74 
		},
		"coords": [
			{
				"x": -3.3323341541,
				"y": 0.4984662544,
				"z": 1.6258815055,
				"element": "C" 
			},
			{
				"x": -2.6894186421,
				"y": -0.7879262385,
				"z": 1.5054365757,
				"element": "O" 
			},
			{
				"x": -1.5063180528,
				"y": -0.8133450943,
				"z": 0.8292621444,
				"element": "C" 
			},
			{
				"x": -0.355151991,
				"y": -1.2250855983,
				"z": 1.4697724256,
				"element": "C" 
			},
			{
				"x": -0.4074224158,
				"y": -1.6228969351,
				"z": 2.8014067399,
				"element": "O" 
			},
			{
				"x": -0.6845577277,
				"y": -0.6816756595,
				"z": 3.7649186793,
				"element": "C" 
			},
			{
				"x": -0.8334609328,
				"y": -1.3545672665,
				"z": 5.1045735958,
				"element": "C" 
			},
			{
				"x": -0.7849693662,
				"y": 0.4986732323,
				"z": 3.5428363392,
				"element": "O" 
			},
			{
				"x": 0.887456027,
				"y": -1.3506234473,
				"z": 0.7913060293,
				"element": "C" 
			},
			{
				"x": 0.968417132,
				"y": -1.0229838178,
				"z": -0.6125450121,
				"element": "C" 
			},
			{
				"x": 2.2583574511,
				"y": -1.1407138605,
				"z": -1.2229234134,
				"element": "C" 
			},
			{
				"x": 2.5527492655,
				"y": -0.7279460789,
				"z": -2.90789249,
				"element": "Cl" 
			},
			{
				"x": 3.3593234261,
				"y": -1.5683701241,
				"z": -0.5116661008,
				"element": "C" 
			},
			{
				"x": 3.2487506946,
				"y": -1.9005065369,
				"z": 0.8532785034,
				"element": "C" 
			},
			{
				"x": 2.039375346,
				"y": -1.7900953588,
				"z": 1.493748964,
				"element": "C" 
			},
			{
				"x": -0.2420867353,
				"y": -0.6215985241,
				"z": -1.257808649,
				"element": "C" 
			},
			{
				"x": -0.3027278428,
				"y": -0.4547061021,
				"z": -2.6260945485,
				"element": "O" 
			},
			{
				"x": -0.4867114514,
				"y": 0.7870196765,
				"z": -3.2166694482,
				"element": "C" 
			},
			{
				"x": -0.3352901952,
				"y": 2.0017640627,
				"z": -2.3328306891,
				"element": "C" 
			},
			{
				"x": -0.7287208125,
				"y": 0.8122755001,
				"z": -4.39281105,
				"element": "O" 
			},
			{
				"x": -1.4351482401,
				"y": -0.5218906118,
				"z": -0.5600204656,
				"element": "C" 
			},
			{
				"x": -2.5687304359,
				"y": -0.1164851174,
				"z": -1.2199529475,
				"element": "O" 
			},
			{
				"x": -3.3271621565,
				"y": -1.1904206575,
				"z": -1.8061873558,
				"element": "C" 
			},
			{
				"x": -4.231048789,
				"y": 0.319555196,
				"z": 2.2186735694,
				"element": "H" 
			},
			{
				"x": -3.6059048565,
				"y": 0.8912578766,
				"z": 0.6445794755,
				"element": "H" 
			},
			{
				"x": -2.6753778672,
				"y": 1.1947697226,
				"z": 2.1532649416,
				"element": "H" 
			},
			{
				"x": -1.7269038955,
				"y": -1.9866111144,
				"z": 5.0941076294,
				"element": "H" 
			},
			{
				"x": 0.023003656,
				"y": -2.0032414043,
				"z": 5.3068062205,
				"element": "H" 
			},
			{
				"x": -0.926906319,
				"y": -0.5971532292,
				"z": 5.8818992202,
				"element": "H" 
			},
			{
				"x": 4.3153912882,
				"y": -1.64100812,
				"z": -1.0173000783,
				"element": "H" 
			},
			{
				"x": 4.1283865153,
				"y": -2.2380252295,
				"z": 1.3923871805,
				"element": "H" 
			},
			{
				"x": 1.9405769501,
				"y": -2.0411483815,
				"z": 2.542417809,
				"element": "H" 
			},
			{
				"x": 0.5609799426,
				"y": 1.9378117145,
				"z": -1.7105285947,
				"element": "H" 
			},
			{
				"x": -0.2823835339,
				"y": 2.8797330713,
				"z": -2.9758670025,
				"element": "H" 
			},
			{
				"x": -1.2032349238,
				"y": 2.0906880641,
				"z": -1.6737031659,
				"element": "H" 
			},
			{
				"x": -3.6621524074,
				"y": -1.8901045103,
				"z": -1.0331910069,
				"element": "H" 
			},
			{
				"x": -2.7307044684,
				"y": -1.7146115755,
				"z": -2.5592071869,
				"element": "H" 
			},
			{
				"x": -4.1916394817,
				"y": -0.7255737771,
				"z": -2.2826583428,
				"element": "H" 
			}
		],
		 "valence_orbital": [ 
			{
				"type": "occ",
				"energy": -0.28259,
				"method": "rhf"
			},
			{
				"type": "occ",
				"energy": -0.27589,
				"method": "rhf"
			},
			{
				"type": "occ",
				"energy": -0.26731,
				"method": "rhf"
			},
			{
				"type": "occ",
				"energy": -0.2493,
				"method": "rhf"
			},
			{
				"type": "occ",
				"energy": -0.21693,
				"method": "rhf"
			},
			{
				"type": "unocc",
				"energy": -0.05693,
				"method": "rhf"
			},
			{
				"type": "unocc",
				"energy": -0.02837,
				"method": "rhf"
			},
			{
				"type": "unocc",
				"energy": -0.00561,
				"method": "rhf"
			},
			{
				"type": "unocc",
				"energy": 0.00767,
				"method": "rhf"
			},
			{
				"type": "unocc",
				"energy": 0.02288,
				"method": "rhf"
			}
		],
		"cosmo_sigma_profile": { 
			"-0.025": 0.0,
			"-0.024": 0.0,
			"-0.023": 0.0,
			"-0.022": 0.0,
			"-0.021": 0.0,
			"-0.02": 0.0,
			"-0.019": 0.0,
			"-0.018": 0.0,
			"-0.017": 0.0,
			"-0.016": 0.0,
			"-0.015": 0.0,
			"-0.014": 0.0,
			"-0.013": 0.0,
			"-0.012": 0.0,
			"-0.011": 0.0,
			"-0.01": 0.0,
			"-0.009": 0.0,
			"-0.008": 0.499565805651,
			"-0.007": 7.77952724755,
			"-0.006": 19.9053425396,
			"-0.005": 26.9443782368,
			"-0.004": 30.3231533344,
			"-0.003": 39.6062101554,
			"-0.002": 35.3648086265,
			"-0.001": 22.9377598201,
			"0.0": 23.8676600981,
			"0.001": 29.3416278389,
			"0.002": 25.7351048172,
			"0.003": 18.115739771,
			"0.004": 14.6724067253,
			"0.005": 8.69454589266,
			"0.006": 7.99144772539,
			"0.007": 6.69432070451,
			"0.008": 4.17147590801,
			"0.009": 6.14646234166,
			"0.01": 7.40718555643,
			"0.011": 8.70160484523,
			"0.012": 4.30330584156,
			"0.013": 0.324257752035,
			"0.014": 0.0,
			"0.015": 0.0,
			"0.016": 0.0,
			"0.017": 0.0,
			"0.018": 0.0,
			"0.019": 0.0,
			"0.02": 0.0,
			"0.021": 0.0,
			"0.022": 0.0,
			"0.023": 0.0,
			"0.024": 0.0,
			"0.025": 0.0
		}
	}
}
