{
	 "smiles": "COC1=C(OC(F)F)C=CC(C=NO)=C1", 
	 "Tm": 331.15, 
	 "num_atms": 24, 
	 "gaussian": { 
		 "optdone": 1, 
		 "sigma_profile": "yes", 
		 "theory": "DFT", 
		 "functional": "B3LYP", 
		 "basiset": "6-31G**", 
		 "properties": { 
			 "R2extent": 4234.0451, 
			 "electric_dipole_moment_norm": 3.44315972037, 
			 "electric_quadrupole_moment_norm": 19.7050608603, 
			 "total_energy": -828.397956687, 
			 "HOMO_LUMO_gap": 0.17721, 
			 "cosmo_polarized_energy": -11.31, 
			 "cosmo_cavitation_energy": 29.81, 
			 "cosmo_dispersion_energy": -21.01, 
			 "cosmo_repulsion_energy": 1.62, 
			 "cosmo_total_nonelectrostatic_energy": 10.42, 
			 "SMD_solvation_energy": 7.31 
		},
		"coords": [
			{
				"x": 3.5595883311,
				"y": 0.2940743604,
				"z": -0.0264955575,
				"element": "C" 
			},
			{
				"x": 2.5667495292,
				"y": 0.5488716164,
				"z": 0.9600503945,
				"element": "O" 
			},
			{
				"x": 1.2577706116,
				"y": 0.3752189507,
				"z": 0.6169498659,
				"element": "C" 
			},
			{
				"x": 0.3132975765,
				"y": 0.6852269473,
				"z": 1.6176191081,
				"element": "C" 
			},
			{
				"x": 0.7165320659,
				"y": 1.2158836309,
				"z": 2.833902544,
				"element": "O" 
			},
			{
				"x": 1.3770701147,
				"y": 0.3614509125,
				"z": 3.6924967499,
				"element": "C" 
			},
			{
				"x": 1.8306498365,
				"y": 1.1207412816,
				"z": 4.7060807737,
				"element": "F" 
			},
			{
				"x": 0.5030265204,
				"y": -0.5482445128,
				"z": 4.2088363031,
				"element": "F" 
			},
			{
				"x": -1.0445611582,
				"y": 0.5446456254,
				"z": 1.365621633,
				"element": "C" 
			},
			{
				"x": -1.4821709349,
				"y": 0.0969218311,
				"z": 0.1220273744,
				"element": "C" 
			},
			{
				"x": -0.5604112368,
				"y": -0.2235046016,
				"z": -0.8886403574,
				"element": "C" 
			},
			{
				"x": -1.1194816038,
				"y": -0.6913986668,
				"z": -2.1629853729,
				"element": "C" 
			},
			{
				"x": -0.6009393902,
				"y": -1.059185892,
				"z": -3.2805230111,
				"element": "N" 
			},
			{
				"x": 0.8007256021,
				"y": -1.007425004,
				"z": -3.3060778233,
				"element": "O" 
			},
			{
				"x": 0.8184713287,
				"y": -0.080121682,
				"z": -0.6256268037,
				"element": "C" 
			},
			{
				"x": 3.5484445818,
				"y": -0.7545133347,
				"z": -0.347959436,
				"element": "H" 
			},
			{
				"x": 4.5154414861,
				"y": 0.5178063186,
				"z": 0.4487534754,
				"element": "H" 
			},
			{
				"x": 3.4274413081,
				"y": 0.9411173921,
				"z": -0.9016885687,
				"element": "H" 
			},
			{
				"x": 2.2042947578,
				"y": -0.1750966351,
				"z": 3.2208152733,
				"element": "H" 
			},
			{
				"x": -1.74245701,
				"y": 0.7966971785,
				"z": 2.1565295058,
				"element": "H" 
			},
			{
				"x": -2.5462810161,
				"y": -0.008736757,
				"z": -0.0662186597,
				"element": "H" 
			},
			{
				"x": -2.2072214737,
				"y": -0.7491697236,
				"z": -2.1961475182,
				"element": "H" 
			},
			{
				"x": 0.9949034589,
				"y": -1.3124424544,
				"z": -4.2018223608,
				"element": "H" 
			},
			{
				"x": 1.5261167142,
				"y": -0.3225167815,
				"z": -1.4018975318,
				"element": "H" 
			}
		],
		 "valence_orbital": [ 
			{
				"type": "occ",
				"energy": -0.31624,
				"method": "rhf"
			},
			{
				"type": "occ",
				"energy": -0.28565,
				"method": "rhf"
			},
			{
				"type": "occ",
				"energy": -0.27675,
				"method": "rhf"
			},
			{
				"type": "occ",
				"energy": -0.2491,
				"method": "rhf"
			},
			{
				"type": "occ",
				"energy": -0.22565,
				"method": "rhf"
			},
			{
				"type": "unocc",
				"energy": -0.04844,
				"method": "rhf"
			},
			{
				"type": "unocc",
				"energy": -0.00375,
				"method": "rhf"
			},
			{
				"type": "unocc",
				"energy": 0.05115,
				"method": "rhf"
			},
			{
				"type": "unocc",
				"energy": 0.05957,
				"method": "rhf"
			},
			{
				"type": "unocc",
				"energy": 0.08816,
				"method": "rhf"
			}
		],
		"cosmo_sigma_profile": { 
			"-0.025": 0.0,
			"-0.024": 0.0,
			"-0.023": 0.0,
			"-0.022": 0.0,
			"-0.021": 0.0,
			"-0.02": 0.0,
			"-0.019": 0.0,
			"-0.018": 0.309060970329,
			"-0.017": 1.10200388945,
			"-0.016": 0.706816969109,
			"-0.015": 0.872711064569,
			"-0.014": 1.02656308579,
			"-0.013": 0.645683116061,
			"-0.012": 0.632791451568,
			"-0.011": 0.767454169376,
			"-0.01": 0.390864016053,
			"-0.009": 1.81100447128,
			"-0.008": 4.86660868292,
			"-0.007": 8.19637180464,
			"-0.006": 11.4688918137,
			"-0.005": 17.5932958736,
			"-0.004": 15.8939987115,
			"-0.003": 12.9150473034,
			"-0.002": 9.44513083096,
			"-0.001": 10.2938386846,
			"0.0": 11.8148184114,
			"0.001": 14.6278275009,
			"0.002": 22.3183689026,
			"0.003": 31.7100943862,
			"0.004": 26.4196654247,
			"0.005": 8.71617920573,
			"0.006": 5.82918341361,
			"0.007": 6.18141390037,
			"0.008": 5.31765127843,
			"0.009": 2.33009342883,
			"0.01": 0.820780430346,
			"0.011": 1.18043911768,
			"0.012": 0.852713151112,
			"0.013": 0.716840705285,
			"0.014": 0.263570961945,
			"0.015": 0.0,
			"0.016": 0.0,
			"0.017": 0.0,
			"0.018": 0.0,
			"0.019": 0.0,
			"0.02": 0.0,
			"0.021": 0.0,
			"0.022": 0.0,
			"0.023": 0.0,
			"0.024": 0.0,
			"0.025": 0.0
		}
	}
}
