{
	 "smiles": "CCC(CCC(C)C1CCC2C3CCC4CC(O)CCC4(C)C3CCC12C)C(C)C", 
	 "Tm": 417.15, 
	 "num_atms": 82, 
	 "gaussian": { 
		 "optdone": 1, 
		 "sigma_profile": "yes", 
		 "theory": "DFT", 
		 "functional": "B3LYP", 
		 "basiset": "6-31G**", 
		 "properties": { 
			 "R2extent": 20707.8469, 
			 "electric_dipole_moment_norm": 1.32481375672, 
			 "electric_quadrupole_moment_norm": 13.6559879419, 
			 "total_energy": -1211.67667432, 
			 "HOMO_LUMO_gap": 0.31403, 
			 "cosmo_polarized_energy": -6.67, 
			 "cosmo_cavitation_energy": 65.91, 
			 "cosmo_dispersion_energy": -44.31, 
			 "cosmo_repulsion_energy": 3.24, 
			 "cosmo_total_nonelectrostatic_energy": 24.84, 
			 "SMD_solvation_energy": 9.01 
		},
		"coords": [
			{
				"x": -4.1047421614,
				"y": -4.5711737915,
				"z": 1.9165890056,
				"element": "C" 
			},
			{
				"x": -4.6534911267,
				"y": -3.1701249588,
				"z": 1.6146277116,
				"element": "C" 
			},
			{
				"x": -4.3272253595,
				"y": -2.0786854724,
				"z": 2.6717386186,
				"element": "C" 
			},
			{
				"x": -4.078954397,
				"y": -0.7009970858,
				"z": 1.9874448773,
				"element": "C" 
			},
			{
				"x": -2.5978068166,
				"y": -0.3214367789,
				"z": 1.7818774027,
				"element": "C" 
			},
			{
				"x": -1.7937093621,
				"y": -1.1609048381,
				"z": 0.7624960833,
				"element": "C" 
			},
			{
				"x": -2.3199800243,
				"y": -0.9580754217,
				"z": -0.6717644559,
				"element": "C" 
			},
			{
				"x": -0.2535606174,
				"y": -1.0255789518,
				"z": 0.9679203005,
				"element": "C" 
			},
			{
				"x": 0.5712052254,
				"y": -2.0745192325,
				"z": 0.1972294995,
				"element": "C" 
			},
			{
				"x": 2.0182772238,
				"y": -1.6045921022,
				"z": 0.3861504525,
				"element": "C" 
			},
			{
				"x": 1.9541446034,
				"y": -0.0685716883,
				"z": 0.2242165242,
				"element": "C" 
			},
			{
				"x": 2.3108991118,
				"y": 0.4186169599,
				"z": -1.2148400766,
				"element": "C" 
			},
			{
				"x": 1.7307698698,
				"y": -0.3760946958,
				"z": -2.4008946145,
				"element": "C" 
			},
			{
				"x": 2.4094072051,
				"y": 0.0461589142,
				"z": -3.7273473587,
				"element": "C" 
			},
			{
				"x": 2.975772308,
				"y": 1.4820560482,
				"z": -3.698715831,
				"element": "C" 
			},
			{
				"x": 3.2835861864,
				"y": 1.9875123421,
				"z": -5.1194362538,
				"element": "C" 
			},
			{
				"x": 3.8653475007,
				"y": 3.4083547983,
				"z": -5.1389150568,
				"element": "C" 
			},
			{
				"x": 5.150550567,
				"y": 3.4603663347,
				"z": -4.5095621093,
				"element": "O" 
			},
			{
				"x": 2.9616602872,
				"y": 4.3754335331,
				"z": -4.369661245,
				"element": "C" 
			},
			{
				"x": 2.6842657837,
				"y": 3.8716968637,
				"z": -2.9454483162,
				"element": "C" 
			},
			{
				"x": 2.0678402016,
				"y": 2.4467918121,
				"z": -2.8828773244,
				"element": "C" 
			},
			{
				"x": 0.6419266985,
				"y": 2.4911573315,
				"z": -3.4873567087,
				"element": "C" 
			},
			{
				"x": 2.0975007475,
				"y": 1.9653324019,
				"z": -1.377088507,
				"element": "C" 
			},
			{
				"x": 0.9150817089,
				"y": 2.4947621418,
				"z": -0.5162825795,
				"element": "C" 
			},
			{
				"x": -0.0989826638,
				"y": 1.4056709925,
				"z": -0.1315608251,
				"element": "C" 
			},
			{
				"x": 0.5360347318,
				"y": 0.3448366324,
				"z": 0.7955313738,
				"element": "C" 
			},
			{
				"x": 0.7238249018,
				"y": 0.9615586582,
				"z": 2.2023296609,
				"element": "C" 
			},
			{
				"x": -5.4117159999,
				"y": -1.9374117209,
				"z": 3.7841375547,
				"element": "C" 
			},
			{
				"x": -4.8954618501,
				"y": -1.0957955812,
				"z": 4.9651041966,
				"element": "C" 
			},
			{
				"x": -5.9549026207,
				"y": -3.2669906026,
				"z": 4.332505542,
				"element": "C" 
			},
			{
				"x": -4.3542971947,
				"y": -5.2701002085,
				"z": 1.1105969643,
				"element": "H" 
			},
			{
				"x": -3.0120829148,
				"y": -4.5472860597,
				"z": 2.0042312758,
				"element": "H" 
			},
			{
				"x": -4.4976040687,
				"y": -4.987146188,
				"z": 2.8474921508,
				"element": "H" 
			},
			{
				"x": -5.7406887792,
				"y": -3.2163891748,
				"z": 1.4617509375,
				"element": "H" 
			},
			{
				"x": -4.2419036038,
				"y": -2.8585591616,
				"z": 0.6488483335,
				"element": "H" 
			},
			{
				"x": -3.3932973244,
				"y": -2.3777706826,
				"z": 3.1742328634,
				"element": "H" 
			},
			{
				"x": -4.6169878989,
				"y": -0.6697728959,
				"z": 1.0312963678,
				"element": "H" 
			},
			{
				"x": -4.5284609615,
				"y": 0.0952402354,
				"z": 2.5906851873,
				"element": "H" 
			},
			{
				"x": -2.5511130707,
				"y": 0.7349644896,
				"z": 1.4865622339,
				"element": "H" 
			},
			{
				"x": -2.1018436835,
				"y": -0.3845348347,
				"z": 2.7599518393,
				"element": "H" 
			},
			{
				"x": -1.9782757164,
				"y": -2.217659944,
				"z": 1.0086285396,
				"element": "H" 
			},
			{
				"x": -2.4104053765,
				"y": 0.0998176727,
				"z": -0.9319217808,
				"element": "H" 
			},
			{
				"x": -3.3153245178,
				"y": -1.3994280814,
				"z": -0.7843997384,
				"element": "H" 
			},
			{
				"x": -1.6765317178,
				"y": -1.4349996415,
				"z": -1.4172539269,
				"element": "H" 
			},
			{
				"x": -0.1173310485,
				"y": -1.2858498767,
				"z": 2.0275088527,
				"element": "H" 
			},
			{
				"x": 0.3970371845,
				"y": -3.0880519514,
				"z": 0.5772768089,
				"element": "H" 
			},
			{
				"x": 0.3074101067,
				"y": -2.0829893875,
				"z": -0.8651616625,
				"element": "H" 
			},
			{
				"x": 2.7293151103,
				"y": -2.0778989417,
				"z": -0.2999210307,
				"element": "H" 
			},
			{
				"x": 2.3483436489,
				"y": -1.8551427826,
				"z": 1.4022417785,
				"element": "H" 
			},
			{
				"x": 2.7161613375,
				"y": 0.3934317452,
				"z": 0.8651804348,
				"element": "H" 
			},
			{
				"x": 3.3950311399,
				"y": 0.2496828559,
				"z": -1.2814863314,
				"element": "H" 
			},
			{
				"x": 0.6471964694,
				"y": -0.2401472705,
				"z": -2.4705971705,
				"element": "H" 
			},
			{
				"x": 1.8885637082,
				"y": -1.4479578642,
				"z": -2.2512724819,
				"element": "H" 
			},
			{
				"x": 3.2303755248,
				"y": -0.6443145156,
				"z": -3.9600094633,
				"element": "H" 
			},
			{
				"x": 1.6931790712,
				"y": -0.0534073477,
				"z": -4.5527377284,
				"element": "H" 
			},
			{
				"x": 3.9384315631,
				"y": 1.4599180832,
				"z": -3.1703108675,
				"element": "H" 
			},
			{
				"x": 2.3772502238,
				"y": 1.9702754463,
				"z": -5.7390220531,
				"element": "H" 
			},
			{
				"x": 3.9868839795,
				"y": 1.2959386555,
				"z": -5.6078010752,
				"element": "H" 
			},
			{
				"x": 3.9527441372,
				"y": 3.7480715042,
				"z": -6.1843354796,
				"element": "H" 
			},
			{
				"x": 5.7159580333,
				"y": 2.805555775,
				"z": -4.9391230453,
				"element": "H" 
			},
			{
				"x": 3.4482166718,
				"y": 5.3563709543,
				"z": -4.3302340418,
				"element": "H" 
			},
			{
				"x": 2.0297135004,
				"y": 4.5059852073,
				"z": -4.9324579555,
				"element": "H" 
			},
			{
				"x": 2.0311746628,
				"y": 4.5808140574,
				"z": -2.4204518901,
				"element": "H" 
			},
			{
				"x": 3.6380684783,
				"y": 3.863685589,
				"z": -2.4064022703,
				"element": "H" 
			},
			{
				"x": 0.0428661148,
				"y": 3.2904933834,
				"z": -3.0422145708,
				"element": "H" 
			},
			{
				"x": 0.0931400997,
				"y": 1.5571332271,
				"z": -3.3514431008,
				"element": "H" 
			},
			{
				"x": 0.6719167489,
				"y": 2.6894503038,
				"z": -4.5623188238,
				"element": "H" 
			},
			{
				"x": 3.0066076606,
				"y": 2.418465216,
				"z": -0.9626388541,
				"element": "H" 
			},
			{
				"x": 0.3970317653,
				"y": 3.3087668221,
				"z": -1.0308645523,
				"element": "H" 
			},
			{
				"x": 1.3127271862,
				"y": 2.9484264679,
				"z": 0.3975959431,
				"element": "H" 
			},
			{
				"x": -0.9626063389,
				"y": 1.8675014032,
				"z": 0.3621850377,
				"element": "H" 
			},
			{
				"x": -0.4785151073,
				"y": 0.9411021027,
				"z": -1.0439331093,
				"element": "H" 
			},
			{
				"x": 1.2697602986,
				"y": 0.2744462404,
				"z": 2.8585989702,
				"element": "H" 
			},
			{
				"x": 1.2894833588,
				"y": 1.8979630997,
				"z": 2.1723820485,
				"element": "H" 
			},
			{
				"x": -0.2420050158,
				"y": 1.1721324153,
				"z": 2.6736729276,
				"element": "H" 
			},
			{
				"x": -6.2609476129,
				"y": -1.4029405065,
				"z": 3.3295179206,
				"element": "H" 
			},
			{
				"x": -5.6899812091,
				"y": -0.9250925427,
				"z": 5.6997314612,
				"element": "H" 
			},
			{
				"x": -4.0786244662,
				"y": -1.6179099282,
				"z": 5.4787854609,
				"element": "H" 
			},
			{
				"x": -4.5183210012,
				"y": -0.1164143965,
				"z": 4.6569818955,
				"element": "H" 
			},
			{
				"x": -6.4155343985,
				"y": -3.8856551035,
				"z": 3.5578315737,
				"element": "H" 
			},
			{
				"x": -6.7195240169,
				"y": -3.0747187878,
				"z": 5.0934494632,
				"element": "H" 
			},
			{
				"x": -5.1619426034,
				"y": -3.8547477188,
				"z": 4.8101481927,
				"element": "H" 
			}
		],
		 "valence_orbital": [ 
			{
				"type": "occ",
				"energy": -0.28088,
				"method": "rhf"
			},
			{
				"type": "occ",
				"energy": -0.26925,
				"method": "rhf"
			},
			{
				"type": "occ",
				"energy": -0.26456,
				"method": "rhf"
			},
			{
				"type": "occ",
				"energy": -0.26248,
				"method": "rhf"
			},
			{
				"type": "occ",
				"energy": -0.25259,
				"method": "rhf"
			},
			{
				"type": "unocc",
				"energy": 0.06144,
				"method": "rhf"
			},
			{
				"type": "unocc",
				"energy": 0.06985,
				"method": "rhf"
			},
			{
				"type": "unocc",
				"energy": 0.07725,
				"method": "rhf"
			},
			{
				"type": "unocc",
				"energy": 0.08606,
				"method": "rhf"
			},
			{
				"type": "unocc",
				"energy": 0.09409,
				"method": "rhf"
			}
		],
		"cosmo_sigma_profile": { 
			"-0.025": 0.0,
			"-0.024": 0.0,
			"-0.023": 0.0,
			"-0.022": 0.0,
			"-0.021": 0.0,
			"-0.02": 0.0,
			"-0.019": 0.0,
			"-0.018": 0.0,
			"-0.017": 0.0,
			"-0.016": 0.0,
			"-0.015": 0.358278692146,
			"-0.014": 0.805465875295,
			"-0.013": 0.781344400243,
			"-0.012": 1.53911005471,
			"-0.011": 0.398573837459,
			"-0.01": 0.856021364304,
			"-0.009": 0.679293951817,
			"-0.008": 0.800567408137,
			"-0.007": 1.33832896146,
			"-0.006": 1.65770188572,
			"-0.005": 0.962869175496,
			"-0.004": 2.45290099466,
			"-0.003": 15.3376696332,
			"-0.002": 61.9419867304,
			"-0.001": 113.59270748,
			"0.0": 123.05320782,
			"0.001": 86.7697974239,
			"0.002": 62.6801411904,
			"0.003": 8.64615845111,
			"0.004": 1.37382045193,
			"0.005": 0.969908024862,
			"0.006": 2.00512410041,
			"0.007": 1.69612623395,
			"0.008": 1.30133961939,
			"0.009": 1.53013548909,
			"0.01": 1.7446119305,
			"0.011": 0.680439898053,
			"0.012": 1.10524207512,
			"0.013": 1.62900277833,
			"0.014": 1.25335097326,
			"0.015": 0.91140689086,
			"0.016": 0.0159196386878,
			"0.017": 0.0,
			"0.018": 0.0,
			"0.019": 0.0,
			"0.02": 0.0,
			"0.021": 0.0,
			"0.022": 0.0,
			"0.023": 0.0,
			"0.024": 0.0,
			"0.025": 0.0
		}
	}
}
