{
	 "smiles": "CC1=C(C=CC=C1)C1(CCOCC1)C(O)=O", 
	 "Tm": 444.15, 
	 "num_atms": 32, 
	 "gaussian": { 
		 "optdone": 1, 
		 "sigma_profile": "yes", 
		 "theory": "DFT", 
		 "functional": "B3LYP", 
		 "basiset": "6-31G**", 
		 "properties": { 
			 "R2extent": 3749.504, 
			 "electric_dipole_moment_norm": 1.6598815771, 
			 "electric_quadrupole_moment_norm": 9.3116902558, 
			 "total_energy": -730.698719157, 
			 "HOMO_LUMO_gap": 0.23426, 
			 "cosmo_polarized_energy": -11.66, 
			 "cosmo_cavitation_energy": 31.86, 
			 "cosmo_dispersion_energy": -23.29, 
			 "cosmo_repulsion_energy": 1.78, 
			 "cosmo_total_nonelectrostatic_energy": 10.36, 
			 "SMD_solvation_energy": 6.01 
		},
		"coords": [
			{
				"x": -0.5233826979,
				"y": 0.22887294,
				"z": -2.1381905018,
				"element": "C" 
			},
			{
				"x": -0.5047993448,
				"y": 1.0543628769,
				"z": -0.8620569955,
				"element": "C" 
			},
			{
				"x": 0.212631257,
				"y": 0.7512214206,
				"z": 0.3271396242,
				"element": "C" 
			},
			{
				"x": 0.0641385797,
				"y": 1.6268291976,
				"z": 1.4176172028,
				"element": "C" 
			},
			{
				"x": -0.7500116883,
				"y": 2.7558915619,
				"z": 1.3754580383,
				"element": "C" 
			},
			{
				"x": -1.4490640151,
				"y": 3.0508273913,
				"z": 0.2102451874,
				"element": "C" 
			},
			{
				"x": -1.3128379217,
				"y": 2.203027728,
				"z": -0.8839116592,
				"element": "C" 
			},
			{
				"x": 1.163219266,
				"y": -0.4699901283,
				"z": 0.4659702167,
				"element": "C" 
			},
			{
				"x": 2.4183708787,
				"y": -0.3039810336,
				"z": -0.4429897558,
				"element": "C" 
			},
			{
				"x": 3.2650767317,
				"y": -1.5799419293,
				"z": -0.4859907408,
				"element": "C" 
			},
			{
				"x": 2.498131116,
				"y": -2.7103823915,
				"z": -0.8759513834,
				"element": "O" 
			},
			{
				"x": 1.4587505436,
				"y": -2.974843555,
				"z": 0.0598770012,
				"element": "C" 
			},
			{
				"x": 0.4574873246,
				"y": -1.817867255,
				"z": 0.1389650876,
				"element": "C" 
			},
			{
				"x": 1.6115949937,
				"y": -0.5859374492,
				"z": 1.9408590046,
				"element": "C" 
			},
			{
				"x": 2.727893026,
				"y": 0.1306638315,
				"z": 2.2280242019,
				"element": "O" 
			},
			{
				"x": 1.0488438574,
				"y": -1.237190699,
				"z": 2.7937908087,
				"element": "O" 
			},
			{
				"x": -1.3115822071,
				"y": -0.5332370657,
				"z": -2.1039355334,
				"element": "H" 
			},
			{
				"x": 0.4107186216,
				"y": -0.2862028516,
				"z": -2.3589765661,
				"element": "H" 
			},
			{
				"x": -0.7479474592,
				"y": 0.875912783,
				"z": -2.9910452088,
				"element": "H" 
			},
			{
				"x": 0.6020070001,
				"y": 1.4368044734,
				"z": 2.3383834189,
				"element": "H" 
			},
			{
				"x": -0.828388834,
				"y": 3.3958137549,
				"z": 2.2494216422,
				"element": "H" 
			},
			{
				"x": -2.0871727,
				"y": 3.9274850612,
				"z": 0.1479331443,
				"element": "H" 
			},
			{
				"x": -1.8538435607,
				"y": 2.4296752661,
				"z": -1.7994422475,
				"element": "H" 
			},
			{
				"x": 3.0209987747,
				"y": 0.5381134002,
				"z": -0.0940516244,
				"element": "H" 
			},
			{
				"x": 2.0973074576,
				"y": -0.0689228148,
				"z": -1.4590749557,
				"element": "H" 
			},
			{
				"x": 3.7349044223,
				"y": -1.7611657035,
				"z": 0.4957028052,
				"element": "H" 
			},
			{
				"x": 4.067112282,
				"y": -1.4805965306,
				"z": -1.2237605431,
				"element": "H" 
			},
			{
				"x": 0.9602821998,
				"y": -3.8859017125,
				"z": -0.2841281609,
				"element": "H" 
			},
			{
				"x": 1.8885076474,
				"y": -3.1825510654,
				"z": 1.0531449307,
				"element": "H" 
			},
			{
				"x": -0.0523962294,
				"y": -1.7471054167,
				"z": -0.8196573802,
				"element": "H" 
			},
			{
				"x": -0.292657343,
				"y": -2.0248646706,
				"z": 0.9064937674,
				"element": "H" 
			},
			{
				"x": 2.8992080212,
				"y": -0.0190194144,
				"z": 3.1736371748,
				"element": "H" 
			}
		],
		 "valence_orbital": [ 
			{
				"type": "occ",
				"energy": -0.29915,
				"method": "rhf"
			},
			{
				"type": "occ",
				"energy": -0.27764,
				"method": "rhf"
			},
			{
				"type": "occ",
				"energy": -0.24709,
				"method": "rhf"
			},
			{
				"type": "occ",
				"energy": -0.24586,
				"method": "rhf"
			},
			{
				"type": "occ",
				"energy": -0.2399,
				"method": "rhf"
			},
			{
				"type": "unocc",
				"energy": -0.00564,
				"method": "rhf"
			},
			{
				"type": "unocc",
				"energy": -0.00181,
				"method": "rhf"
			},
			{
				"type": "unocc",
				"energy": -0.00039,
				"method": "rhf"
			},
			{
				"type": "unocc",
				"energy": 0.06654,
				"method": "rhf"
			},
			{
				"type": "unocc",
				"energy": 0.09704,
				"method": "rhf"
			}
		],
		"cosmo_sigma_profile": { 
			"-0.025": 0.0,
			"-0.024": 0.0,
			"-0.023": 0.0,
			"-0.022": 0.0,
			"-0.021": 0.0,
			"-0.02": 0.0,
			"-0.019": 0.0383399664876,
			"-0.018": 0.660358053077,
			"-0.017": 0.838640725818,
			"-0.016": 0.796486757535,
			"-0.015": 1.22551742061,
			"-0.014": 0.691435210075,
			"-0.013": 0.420451676514,
			"-0.012": 0.64007050098,
			"-0.011": 1.21125218721,
			"-0.01": 0.478740146105,
			"-0.009": 0.277948376824,
			"-0.008": 0.636277440697,
			"-0.007": 1.69939573085,
			"-0.006": 4.36686393829,
			"-0.005": 16.0344215236,
			"-0.004": 25.0228906615,
			"-0.003": 29.5330467391,
			"-0.002": 27.8084179602,
			"-0.001": 22.5130621712,
			"0.0": 18.2966277549,
			"0.001": 13.2653038563,
			"0.002": 11.6509945426,
			"0.003": 12.8795488568,
			"0.004": 12.1840144265,
			"0.005": 12.5245350067,
			"0.006": 10.6730759919,
			"0.007": 4.1670804029,
			"0.008": 2.77817497497,
			"0.009": 2.75699001353,
			"0.01": 2.5564213123,
			"0.011": 5.2173993788,
			"0.012": 3.66874646961,
			"0.013": 1.92641169453,
			"0.014": 0.856127655101,
			"0.015": 0.0,
			"0.016": 0.0,
			"0.017": 0.0,
			"0.018": 0.0,
			"0.019": 0.0,
			"0.02": 0.0,
			"0.021": 0.0,
			"0.022": 0.0,
			"0.023": 0.0,
			"0.024": 0.0,
			"0.025": 0.0
		}
	}
}
