{
	 "smiles": "CN(CC1=CC=CC=C1)S(=O)(=O)C1=CC=C(N)C=C1", 
	 "Tm": 402.15, 
	 "num_atms": 35, 
	 "gaussian": { 
		 "optdone": 1, 
		 "sigma_profile": "yes", 
		 "theory": "DFT", 
		 "functional": "B3LYP", 
		 "basiset": "6-31G**", 
		 "properties": { 
			 "R2extent": 5924.9412, 
			 "electric_dipole_moment_norm": 7.42988900994, 
			 "electric_quadrupole_moment_norm": 23.585983795, 
			 "total_energy": -1201.20106055, 
			 "HOMO_LUMO_gap": 0.19853, 
			 "cosmo_polarized_energy": -20.8, 
			 "cosmo_cavitation_energy": 38.85, 
			 "cosmo_dispersion_energy": -26.71, 
			 "cosmo_repulsion_energy": 2.01, 
			 "cosmo_total_nonelectrostatic_energy": 14.15, 
			 "SMD_solvation_energy": 4.89 
		},
		"coords": [
			{
				"x": 1.4778594843,
				"y": 0.8885493632,
				"z": -1.3166425888,
				"element": "C" 
			},
			{
				"x": 1.8208260074,
				"y": 0.3138379467,
				"z": -0.0196185912,
				"element": "N" 
			},
			{
				"x": 1.6172795122,
				"y": -1.1305162311,
				"z": 0.1871409649,
				"element": "C" 
			},
			{
				"x": 0.1825048,
				"y": -1.6268313661,
				"z": 0.262985133,
				"element": "C" 
			},
			{
				"x": -0.5910467649,
				"y": -1.8006280733,
				"z": -0.8935089843,
				"element": "C" 
			},
			{
				"x": -1.9043386851,
				"y": -2.2654051963,
				"z": -0.812260895,
				"element": "C" 
			},
			{
				"x": -2.4605407185,
				"y": -2.578018166,
				"z": 0.4298897438,
				"element": "C" 
			},
			{
				"x": -1.6949992247,
				"y": -2.426269281,
				"z": 1.587212586,
				"element": "C" 
			},
			{
				"x": -0.3842395833,
				"y": -1.9537662437,
				"z": 1.5021978926,
				"element": "C" 
			},
			{
				"x": 1.852574208,
				"y": 1.3628363697,
				"z": 1.3020211163,
				"element": "S" 
			},
			{
				"x": 2.7025101487,
				"y": 2.4875442903,
				"z": 0.8983283997,
				"element": "O" 
			},
			{
				"x": 2.1731548405,
				"y": 0.5256985538,
				"z": 2.4642792115,
				"element": "O" 
			},
			{
				"x": 0.2131294476,
				"y": 2.0361379088,
				"z": 1.5421790072,
				"element": "C" 
			},
			{
				"x": -0.670180757,
				"y": 1.4370975466,
				"z": 2.4455354962,
				"element": "C" 
			},
			{
				"x": -1.9424889824,
				"y": 1.9626005117,
				"z": 2.6250269911,
				"element": "C" 
			},
			{
				"x": -2.3598599838,
				"y": 3.0981926752,
				"z": 1.9035088782,
				"element": "C" 
			},
			{
				"x": -3.6129341018,
				"y": 3.6493332678,
				"z": 2.1174303541,
				"element": "N" 
			},
			{
				"x": -1.4544580034,
				"y": 3.6995219217,
				"z": 1.007202218,
				"element": "C" 
			},
			{
				"x": -0.179822128,
				"y": 3.1769532295,
				"z": 0.832724513,
				"element": "C" 
			},
			{
				"x": 1.8986650661,
				"y": 0.2496163472,
				"z": -2.0998970311,
				"element": "H" 
			},
			{
				"x": 0.3946420896,
				"y": 0.975915356,
				"z": -1.4803077899,
				"element": "H" 
			},
			{
				"x": 1.9391725844,
				"y": 1.8734232553,
				"z": -1.4033853028,
				"element": "H" 
			},
			{
				"x": 2.1310758407,
				"y": -1.6186149002,
				"z": -0.6504563416,
				"element": "H" 
			},
			{
				"x": 2.1530800987,
				"y": -1.3984915268,
				"z": 1.097989439,
				"element": "H" 
			},
			{
				"x": -0.1582646365,
				"y": -1.5860310814,
				"z": -1.8674742289,
				"element": "H" 
			},
			{
				"x": -2.4888075101,
				"y": -2.3954139831,
				"z": -1.7188825438,
				"element": "H" 
			},
			{
				"x": -3.4797402814,
				"y": -2.9486150829,
				"z": 0.493413991,
				"element": "H" 
			},
			{
				"x": -2.1152657627,
				"y": -2.6825034145,
				"z": 2.555885217,
				"element": "H" 
			},
			{
				"x": 0.2147893437,
				"y": -1.843989383,
				"z": 2.4024226179,
				"element": "H" 
			},
			{
				"x": -0.3497826178,
				"y": 0.5738600663,
				"z": 3.0159546364,
				"element": "H" 
			},
			{
				"x": -2.6221729005,
				"y": 1.5011888972,
				"z": 3.3365936129,
				"element": "H" 
			},
			{
				"x": -4.3127924261,
				"y": 3.0411736526,
				"z": 2.5163751308,
				"element": "H" 
			},
			{
				"x": -3.9726821401,
				"y": 4.2520370432,
				"z": 1.3920845816,
				"element": "H" 
			},
			{
				"x": -1.7528461965,
				"y": 4.5909694337,
				"z": 0.4616335891,
				"element": "H" 
			},
			{
				"x": 0.5233999328,
				"y": 3.665606293,
				"z": 0.1674189759,
				"element": "H" 
			}
		],
		 "valence_orbital": [ 
			{
				"type": "occ",
				"energy": -0.26321,
				"method": "rhf"
			},
			{
				"type": "occ",
				"energy": -0.25362,
				"method": "rhf"
			},
			{
				"type": "occ",
				"energy": -0.25306,
				"method": "rhf"
			},
			{
				"type": "occ",
				"energy": -0.24374,
				"method": "rhf"
			},
			{
				"type": "occ",
				"energy": -0.2151,
				"method": "rhf"
			},
			{
				"type": "unocc",
				"energy": -0.01657,
				"method": "rhf"
			},
			{
				"type": "unocc",
				"energy": -0.01362,
				"method": "rhf"
			},
			{
				"type": "unocc",
				"energy": -0.00905,
				"method": "rhf"
			},
			{
				"type": "unocc",
				"energy": -0.00323,
				"method": "rhf"
			},
			{
				"type": "unocc",
				"energy": 0.06177,
				"method": "rhf"
			}
		],
		"cosmo_sigma_profile": { 
			"-0.025": 0.0,
			"-0.024": 0.0,
			"-0.023": 0.0,
			"-0.022": 0.0,
			"-0.021": 0.0,
			"-0.02": 0.0,
			"-0.019": 0.0,
			"-0.018": 0.0,
			"-0.017": 0.0,
			"-0.016": 0.0,
			"-0.015": 0.0,
			"-0.014": 0.16579450573,
			"-0.013": 2.34356069604,
			"-0.012": 3.25106611307,
			"-0.011": 2.7742582731,
			"-0.01": 3.38493546377,
			"-0.009": 2.9182645272,
			"-0.008": 3.44141156696,
			"-0.007": 6.29523850848,
			"-0.006": 15.2789744721,
			"-0.005": 25.135472252,
			"-0.004": 26.6367364469,
			"-0.003": 25.6262643577,
			"-0.002": 22.1051506306,
			"-0.001": 17.5769351849,
			"0.0": 14.8342940002,
			"0.001": 15.3054047658,
			"0.002": 15.200240919,
			"0.003": 18.9891381324,
			"0.004": 24.006530607,
			"0.005": 17.3110885789,
			"0.006": 10.9142180591,
			"0.007": 3.99660221348,
			"0.008": 4.24024331869,
			"0.009": 5.35146652829,
			"0.01": 4.87984871218,
			"0.011": 7.52171655958,
			"0.012": 7.81196798289,
			"0.013": 0.910096552949,
			"0.014": 0.0,
			"0.015": 0.0,
			"0.016": 0.0,
			"0.017": 0.0,
			"0.018": 0.0,
			"0.019": 0.0,
			"0.02": 0.0,
			"0.021": 0.0,
			"0.022": 0.0,
			"0.023": 0.0,
			"0.024": 0.0,
			"0.025": 0.0
		}
	}
}
