{
	 "smiles": "OS(=O)(=O)C1=CC=C(C=C1[N+]([O-])=O)[N+]([O-])=O", 
	 "Tm": 381.15, 
	 "num_atms": 20, 
	 "gaussian": { 
		 "optdone": 1, 
		 "sigma_profile": "yes", 
		 "theory": "DFT", 
		 "functional": "B3LYP", 
		 "basiset": "6-31G**", 
		 "properties": { 
			 "R2extent": 4454.5212, 
			 "electric_dipole_moment_norm": 2.52253121289, 
			 "electric_quadrupole_moment_norm": 16.733851669, 
			 "total_energy": -1265.01448847, 
			 "HOMO_LUMO_gap": 0.18367, 
			 "cosmo_polarized_energy": -17.35, 
			 "cosmo_cavitation_energy": 27.73, 
			 "cosmo_dispersion_energy": -21.14, 
			 "cosmo_repulsion_energy": 1.57, 
			 "cosmo_total_nonelectrostatic_energy": 8.16, 
			 "SMD_solvation_energy": 8.01 
		},
		"coords": [
			{
				"x": -2.3505938238,
				"y": 0.6210220046,
				"z": -1.0182822292,
				"element": "O" 
			},
			{
				"x": -1.5446045602,
				"y": -0.7505073363,
				"z": -0.7569501558,
				"element": "S" 
			},
			{
				"x": -2.1066591251,
				"y": -1.3126837525,
				"z": 0.4584421405,
				"element": "O" 
			},
			{
				"x": -1.4220671115,
				"y": -1.5253743077,
				"z": -1.9827770067,
				"element": "O" 
			},
			{
				"x": 0.121752591,
				"y": -0.1467845886,
				"z": -0.338145166,
				"element": "C" 
			},
			{
				"x": 0.5371416127,
				"y": -0.3891577251,
				"z": 0.9723621153,
				"element": "C" 
			},
			{
				"x": 1.8285177281,
				"y": -0.0650366326,
				"z": 1.3865818699,
				"element": "C" 
			},
			{
				"x": 2.7066195963,
				"y": 0.4831628411,
				"z": 0.4598200928,
				"element": "C" 
			},
			{
				"x": 2.3385297527,
				"y": 0.720726379,
				"z": -0.8584192967,
				"element": "C" 
			},
			{
				"x": 1.0387010585,
				"y": 0.412997198,
				"z": -1.2453915531,
				"element": "C" 
			},
			{
				"x": 0.7022008902,
				"y": 0.7445685767,
				"z": -2.6462305976,
				"element": "N" 
			},
			{
				"x": 1.6086830166,
				"y": 0.6976161639,
				"z": -3.4617834738,
				"element": "O" 
			},
			{
				"x": -0.4531584163,
				"y": 1.0952772159,
				"z": -2.9093751503,
				"element": "O" 
			},
			{
				"x": 4.0821915399,
				"y": 0.8258505362,
				"z": 0.8815221409,
				"element": "N" 
			},
			{
				"x": 4.8217367243,
				"y": 1.3186233564,
				"z": 0.0352753877,
				"element": "O" 
			},
			{
				"x": 4.3821596452,
				"y": 0.592723193,
				"z": 2.0483568357,
				"element": "O" 
			},
			{
				"x": -1.9613886081,
				"y": 1.0177852528,
				"z": -1.8281081659,
				"element": "H" 
			},
			{
				"x": -0.1672430243,
				"y": -0.8433160222,
				"z": 1.6595459662,
				"element": "H" 
			},
			{
				"x": 2.1593903973,
				"y": -0.2384588418,
				"z": 2.4029898968,
				"element": "H" 
			},
			{
				"x": 3.0441901166,
				"y": 1.1388664893,
				"z": -1.5638336508,
				"element": "H" 
			}
		],
		 "valence_orbital": [ 
			{
				"type": "occ",
				"energy": -0.3428,
				"method": "rhf"
			},
			{
				"type": "occ",
				"energy": -0.33127,
				"method": "rhf"
			},
			{
				"type": "occ",
				"energy": -0.32964,
				"method": "rhf"
			},
			{
				"type": "occ",
				"energy": -0.32828,
				"method": "rhf"
			},
			{
				"type": "occ",
				"energy": -0.32734,
				"method": "rhf"
			},
			{
				"type": "unocc",
				"energy": -0.14367,
				"method": "rhf"
			},
			{
				"type": "unocc",
				"energy": -0.12672,
				"method": "rhf"
			},
			{
				"type": "unocc",
				"energy": -0.06726,
				"method": "rhf"
			},
			{
				"type": "unocc",
				"energy": -0.05109,
				"method": "rhf"
			},
			{
				"type": "unocc",
				"energy": 0.00879,
				"method": "rhf"
			}
		],
		"cosmo_sigma_profile": { 
			"-0.025": 0.0,
			"-0.024": 0.0,
			"-0.023": 0.0,
			"-0.022": 0.0,
			"-0.021": 0.0,
			"-0.02": 0.0,
			"-0.019": 0.0,
			"-0.018": 0.0,
			"-0.017": 0.0,
			"-0.016": 0.0,
			"-0.015": 0.162328280496,
			"-0.014": 0.379182800557,
			"-0.013": 0.749005832933,
			"-0.012": 0.761706191019,
			"-0.011": 2.01707286422,
			"-0.01": 5.50536773196,
			"-0.009": 8.02683239704,
			"-0.008": 8.24379094451,
			"-0.007": 9.09546642056,
			"-0.006": 13.1191216069,
			"-0.005": 19.1055397731,
			"-0.004": 14.8704623811,
			"-0.003": 13.1814726771,
			"-0.002": 8.19961877088,
			"-0.001": 7.15241785026,
			"0.0": 6.57069763313,
			"0.001": 7.49843932578,
			"0.002": 7.59420345813,
			"0.003": 8.05704612449,
			"0.004": 11.0093257649,
			"0.005": 13.9732236385,
			"0.006": 18.0948607908,
			"0.007": 14.9993699428,
			"0.008": 13.0353110321,
			"0.009": 10.6585789564,
			"0.01": 2.35132115734,
			"0.011": 0.0,
			"0.012": 0.0,
			"0.013": 0.0,
			"0.014": 0.0,
			"0.015": 0.0,
			"0.016": 0.0,
			"0.017": 0.0,
			"0.018": 0.0,
			"0.019": 0.0,
			"0.02": 0.0,
			"0.021": 0.0,
			"0.022": 0.0,
			"0.023": 0.0,
			"0.024": 0.0,
			"0.025": 0.0
		}
	}
}
