{
	 "smiles": "CC(=O)NC1=C(C)C=C2OCOC2=C1", 
	 "Tm": 438.15, 
	 "num_atms": 25, 
	 "gaussian": { 
		 "optdone": 1, 
		 "sigma_profile": "yes", 
		 "theory": "DFT", 
		 "functional": "B3LYP", 
		 "basiset": "6-31G**", 
		 "properties": { 
			 "R2extent": 3290.3539, 
			 "electric_dipole_moment_norm": 3.77564754843, 
			 "electric_quadrupole_moment_norm": 18.1091822206, 
			 "total_energy": -668.109521528, 
			 "HOMO_LUMO_gap": 0.19465, 
			 "cosmo_polarized_energy": -12.93, 
			 "cosmo_cavitation_energy": 28.73, 
			 "cosmo_dispersion_energy": -21.0, 
			 "cosmo_repulsion_energy": 1.66, 
			 "cosmo_total_nonelectrostatic_energy": 9.39, 
			 "SMD_solvation_energy": 6.61 
		},
		"coords": [
			{
				"x": -1.1923973931,
				"y": 1.1508936263,
				"z": 2.9499055268,
				"element": "C" 
			},
			{
				"x": -0.0687706514,
				"y": 0.1775852693,
				"z": 3.2587303535,
				"element": "C" 
			},
			{
				"x": 0.1736812648,
				"y": -0.1937025799,
				"z": 4.398606847,
				"element": "O" 
			},
			{
				"x": 0.6862943613,
				"y": -0.3036006994,
				"z": 2.2037621548,
				"element": "N" 
			},
			{
				"x": 0.6204029055,
				"y": -0.0133085892,
				"z": 0.8154745954,
				"element": "C" 
			},
			{
				"x": 0.5552451809,
				"y": -1.0816762638,
				"z": -0.1015265852,
				"element": "C" 
			},
			{
				"x": 0.5138226636,
				"y": -2.5111445868,
				"z": 0.3845543143,
				"element": "C" 
			},
			{
				"x": 0.5352919286,
				"y": -0.8093988369,
				"z": -1.4854922079,
				"element": "C" 
			},
			{
				"x": 0.5623547488,
				"y": 0.5079357676,
				"z": -1.8944411955,
				"element": "C" 
			},
			{
				"x": 0.5153057677,
				"y": 1.0119163444,
				"z": -3.1730674157,
				"element": "O" 
			},
			{
				"x": 0.738074378,
				"y": 2.4204475009,
				"z": -3.037640476,
				"element": "C" 
			},
			{
				"x": 0.6275726588,
				"y": 2.7556786121,
				"z": -1.6483725579,
				"element": "O" 
			},
			{
				"x": 0.6250998339,
				"y": 1.554384541,
				"z": -0.980608524,
				"element": "C" 
			},
			{
				"x": 0.6755730245,
				"y": 1.3291915269,
				"z": 0.378280211,
				"element": "C" 
			},
			{
				"x": -1.6415558858,
				"y": 0.9910413181,
				"z": 1.9676105132,
				"element": "H" 
			},
			{
				"x": -0.8210572754,
				"y": 2.180409212,
				"z": 2.9895428542,
				"element": "H" 
			},
			{
				"x": -1.9438637736,
				"y": 1.0386921259,
				"z": 3.7324790382,
				"element": "H" 
			},
			{
				"x": 1.345487148,
				"y": -1.010519967,
				"z": 2.5070870821,
				"element": "H" 
			},
			{
				"x": 0.2780645219,
				"y": -3.1941581746,
				"z": -0.4353054611,
				"element": "H" 
			},
			{
				"x": -0.2377916968,
				"y": -2.6457010813,
				"z": 1.1692132395,
				"element": "H" 
			},
			{
				"x": 1.4761378522,
				"y": -2.8326875819,
				"z": 0.8055461649,
				"element": "H" 
			},
			{
				"x": 0.4850331192,
				"y": -1.616207724,
				"z": -2.2086340521,
				"element": "H" 
			},
			{
				"x": 1.7478965149,
				"y": 2.6691738217,
				"z": -3.3950103266,
				"element": "H" 
			},
			{
				"x": -0.0215951412,
				"y": 2.9657832118,
				"z": -3.6054058914,
				"element": "H" 
			},
			{
				"x": 0.7709939446,
				"y": 2.1450732069,
				"z": 1.0836117984,
				"element": "H" 
			}
		],
		 "valence_orbital": [ 
			{
				"type": "occ",
				"energy": -0.32051,
				"method": "rhf"
			},
			{
				"type": "occ",
				"energy": -0.27081,
				"method": "rhf"
			},
			{
				"type": "occ",
				"energy": -0.24722,
				"method": "rhf"
			},
			{
				"type": "occ",
				"energy": -0.24388,
				"method": "rhf"
			},
			{
				"type": "occ",
				"energy": -0.20468,
				"method": "rhf"
			},
			{
				"type": "unocc",
				"energy": -0.01003,
				"method": "rhf"
			},
			{
				"type": "unocc",
				"energy": -0.00359,
				"method": "rhf"
			},
			{
				"type": "unocc",
				"energy": 0.03718,
				"method": "rhf"
			},
			{
				"type": "unocc",
				"energy": 0.0835,
				"method": "rhf"
			},
			{
				"type": "unocc",
				"energy": 0.09181,
				"method": "rhf"
			}
		],
		"cosmo_sigma_profile": { 
			"-0.025": 0.0,
			"-0.024": 0.0,
			"-0.023": 0.0,
			"-0.022": 0.0,
			"-0.021": 0.0,
			"-0.02": 0.0,
			"-0.019": 0.0,
			"-0.018": 0.0,
			"-0.017": 0.0,
			"-0.016": 0.0,
			"-0.015": 0.0,
			"-0.014": 0.00414297176274,
			"-0.013": 0.582614306904,
			"-0.012": 0.724321330362,
			"-0.011": 0.946475454981,
			"-0.01": 1.46895520728,
			"-0.009": 1.35860027737,
			"-0.008": 4.19112193363,
			"-0.007": 11.8516385696,
			"-0.006": 13.5885905736,
			"-0.005": 14.8573106589,
			"-0.004": 14.0413589932,
			"-0.003": 16.8351654252,
			"-0.002": 19.8216409368,
			"-0.001": 20.5030699305,
			"0.0": 18.1492622191,
			"0.001": 12.0139940458,
			"0.002": 14.1531341384,
			"0.003": 14.8463055847,
			"0.004": 10.2588598936,
			"0.005": 4.2161715886,
			"0.006": 3.19017772713,
			"0.007": 3.95727482327,
			"0.008": 4.30269468405,
			"0.009": 4.6915992263,
			"0.01": 3.38313344757,
			"0.011": 1.19063244859,
			"0.012": 2.05890626741,
			"0.013": 3.77942901609,
			"0.014": 5.52152504749,
			"0.015": 1.32908309452,
			"0.016": 0.0114620152529,
			"0.017": 0.0,
			"0.018": 0.0,
			"0.019": 0.0,
			"0.02": 0.0,
			"0.021": 0.0,
			"0.022": 0.0,
			"0.023": 0.0,
			"0.024": 0.0,
			"0.025": 0.0
		}
	}
}
