{
	 "smiles": "COC(=O)C1=CC=CC2=C1C=CN2", 
	 "Tm": 343.15, 
	 "num_atms": 22, 
	 "gaussian": { 
		 "optdone": 1, 
		 "sigma_profile": "yes", 
		 "theory": "DFT", 
		 "functional": "B3LYP", 
		 "basiset": "6-31G**", 
		 "properties": { 
			 "R2extent": 2931.6437, 
			 "electric_dipole_moment_norm": 2.70086384699, 
			 "electric_quadrupole_moment_norm": 13.7235808687, 
			 "total_energy": -591.701949466, 
			 "HOMO_LUMO_gap": 0.16636, 
			 "cosmo_polarized_energy": -12.79, 
			 "cosmo_cavitation_energy": 26.08, 
			 "cosmo_dispersion_energy": -19.57, 
			 "cosmo_repulsion_energy": 1.53, 
			 "cosmo_total_nonelectrostatic_energy": 8.03, 
			 "SMD_solvation_energy": 5.95 
		},
		"coords": [
			{
				"x": -3.3182655339,
				"y": -0.5118013356,
				"z": 3.985706068,
				"element": "C" 
			},
			{
				"x": -2.4864060622,
				"y": 0.1526161091,
				"z": 3.0264848166,
				"element": "O" 
			},
			{
				"x": -1.8197370829,
				"y": -0.6691641767,
				"z": 2.1757061428,
				"element": "C" 
			},
			{
				"x": -1.9241526674,
				"y": -1.8818528492,
				"z": 2.2288166012,
				"element": "O" 
			},
			{
				"x": -0.9752061916,
				"y": 0.0739900019,
				"z": 1.2084629687,
				"element": "C" 
			},
			{
				"x": -0.9083586925,
				"y": 1.4702888703,
				"z": 1.212394737,
				"element": "C" 
			},
			{
				"x": -0.107638297,
				"y": 2.1695056383,
				"z": 0.2951713621,
				"element": "C" 
			},
			{
				"x": 0.6524790266,
				"y": 1.4947341223,
				"z": -0.6560254904,
				"element": "C" 
			},
			{
				"x": 0.5895476438,
				"y": 0.1002002239,
				"z": -0.6645054414,
				"element": "C" 
			},
			{
				"x": -0.2126801646,
				"y": -0.6408477684,
				"z": 0.2519842634,
				"element": "C" 
			},
			{
				"x": -0.0251027685,
				"y": -2.0286369125,
				"z": -0.056153375,
				"element": "C" 
			},
			{
				"x": 0.8509011508,
				"y": -2.0889031884,
				"z": -1.1093033139,
				"element": "C" 
			},
			{
				"x": 1.2254462193,
				"y": -0.8120815705,
				"z": -1.4812357971,
				"element": "N" 
			},
			{
				"x": -3.7732299326,
				"y": 0.28075009,
				"z": 4.5803978097,
				"element": "H" 
			},
			{
				"x": -2.7248376218,
				"y": -1.1746583339,
				"z": 4.6211112996,
				"element": "H" 
			},
			{
				"x": -4.0883064965,
				"y": -1.1059011255,
				"z": 3.4863513581,
				"element": "H" 
			},
			{
				"x": -1.4904698659,
				"y": 2.0192096681,
				"z": 1.9428439102,
				"element": "H" 
			},
			{
				"x": -0.0820358263,
				"y": 3.254267042,
				"z": 0.3297362441,
				"element": "H" 
			},
			{
				"x": 1.2720461986,
				"y": 2.0363644864,
				"z": -1.365704485,
				"element": "H" 
			},
			{
				"x": -0.4896299197,
				"y": -2.8583614615,
				"z": 0.4505148817,
				"element": "H" 
			},
			{
				"x": 1.2450947772,
				"y": -2.9481293536,
				"z": -1.6332553186,
				"element": "H" 
			},
			{
				"x": 1.860342107,
				"y": -0.5835881765,
				"z": -2.2280992416,
				"element": "H" 
			}
		],
		 "valence_orbital": [ 
			{
				"type": "occ",
				"energy": -0.29126,
				"method": "rhf"
			},
			{
				"type": "occ",
				"energy": -0.27561,
				"method": "rhf"
			},
			{
				"type": "occ",
				"energy": -0.26055,
				"method": "rhf"
			},
			{
				"type": "occ",
				"energy": -0.22511,
				"method": "rhf"
			},
			{
				"type": "occ",
				"energy": -0.20727,
				"method": "rhf"
			},
			{
				"type": "unocc",
				"energy": -0.04091,
				"method": "rhf"
			},
			{
				"type": "unocc",
				"energy": 0.0185,
				"method": "rhf"
			},
			{
				"type": "unocc",
				"energy": 0.06126,
				"method": "rhf"
			},
			{
				"type": "unocc",
				"energy": 0.07707,
				"method": "rhf"
			},
			{
				"type": "unocc",
				"energy": 0.08097,
				"method": "rhf"
			}
		],
		"cosmo_sigma_profile": { 
			"-0.025": 0.0,
			"-0.024": 0.0,
			"-0.023": 0.0,
			"-0.022": 0.0,
			"-0.021": 0.0,
			"-0.02": 0.0,
			"-0.019": 0.0,
			"-0.018": 0.0,
			"-0.017": 0.0,
			"-0.016": 0.758680920604,
			"-0.015": 1.82459446651,
			"-0.014": 1.30008229761,
			"-0.013": 1.25837108729,
			"-0.012": 1.42664948184,
			"-0.011": 1.27037939461,
			"-0.01": 1.18558498888,
			"-0.009": 2.11711631505,
			"-0.008": 3.83061238018,
			"-0.007": 4.08380528379,
			"-0.006": 8.73575874435,
			"-0.005": 13.361631011,
			"-0.004": 14.5484688028,
			"-0.003": 18.0537001841,
			"-0.002": 11.8365384353,
			"-0.001": 10.2273723578,
			"0.0": 11.5683812894,
			"0.001": 10.0938168774,
			"0.002": 11.9852199253,
			"0.003": 14.969615399,
			"0.004": 20.3604182433,
			"0.005": 18.3144083622,
			"0.006": 10.3334054068,
			"0.007": 3.64533488055,
			"0.008": 1.59269682556,
			"0.009": 2.17816721654,
			"0.01": 1.93632015189,
			"0.011": 2.12258894216,
			"0.012": 2.96568141885,
			"0.013": 0.906996948482,
			"0.014": 0.0,
			"0.015": 0.0,
			"0.016": 0.0,
			"0.017": 0.0,
			"0.018": 0.0,
			"0.019": 0.0,
			"0.02": 0.0,
			"0.021": 0.0,
			"0.022": 0.0,
			"0.023": 0.0,
			"0.024": 0.0,
			"0.025": 0.0
		}
	}
}
