{
	 "smiles": "OP(=O)(OCC1=CC=CC=C1)OCC1=CC=CC=C1", 
	 "Tm": 353.15, 
	 "num_atms": 34, 
	 "gaussian": { 
		 "optdone": 1, 
		 "sigma_profile": "yes", 
		 "theory": "DFT", 
		 "functional": "B3LYP", 
		 "basiset": "6-31G**", 
		 "properties": { 
			 "R2extent": 7427.5016, 
			 "electric_dipole_moment_norm": 3.40419162063, 
			 "electric_quadrupole_moment_norm": 25.4505389357, 
			 "total_energy": -1184.85678922, 
			 "HOMO_LUMO_gap": 0.22912, 
			 "cosmo_polarized_energy": -18.16, 
			 "cosmo_cavitation_energy": 40.58, 
			 "cosmo_dispersion_energy": -27.71, 
			 "cosmo_repulsion_energy": 2.15, 
			 "cosmo_total_nonelectrostatic_energy": 15.01, 
			 "SMD_solvation_energy": 8.69 
		},
		"coords": [
			{
				"x": 4.0744855244,
				"y": -0.9085190238,
				"z": -0.1157737474,
				"element": "O" 
			},
			{
				"x": 2.7572033231,
				"y": -1.8663280549,
				"z": -0.1582648617,
				"element": "P" 
			},
			{
				"x": 3.0594864464,
				"y": -3.305941242,
				"z": -0.033073591,
				"element": "O" 
			},
			{
				"x": 1.836744845,
				"y": -1.181683342,
				"z": 0.9720168863,
				"element": "O" 
			},
			{
				"x": 2.2183335649,
				"y": -1.3271469954,
				"z": 2.3694362843,
				"element": "C" 
			},
			{
				"x": 1.017401927,
				"y": -1.048447306,
				"z": 3.2321075356,
				"element": "C" 
			},
			{
				"x": -0.0745959534,
				"y": -1.9278228659,
				"z": 3.2215441393,
				"element": "C" 
			},
			{
				"x": -1.1896587734,
				"y": -1.6773308174,
				"z": 4.0188036559,
				"element": "C" 
			},
			{
				"x": -1.2235333231,
				"y": -0.5473952637,
				"z": 4.8414708401,
				"element": "C" 
			},
			{
				"x": -0.1402572387,
				"y": 0.3311951155,
				"z": 4.8592647129,
				"element": "C" 
			},
			{
				"x": 0.9733423712,
				"y": 0.0820503012,
				"z": 4.0538378786,
				"element": "C" 
			},
			{
				"x": 1.9595206821,
				"y": -1.4811538408,
				"z": -1.4860624217,
				"element": "O" 
			},
			{
				"x": 1.6167135609,
				"y": -0.1031456159,
				"z": -1.813601172,
				"element": "C" 
			},
			{
				"x": 0.1642372432,
				"y": -0.0167457829,
				"z": -2.2024701465,
				"element": "C" 
			},
			{
				"x": -0.8353350996,
				"y": -0.2884005592,
				"z": -1.2573480658,
				"element": "C" 
			},
			{
				"x": -2.1797210371,
				"y": -0.196158438,
				"z": -1.6111253645,
				"element": "C" 
			},
			{
				"x": -2.5413921801,
				"y": 0.1726843565,
				"z": -2.9104677917,
				"element": "C" 
			},
			{
				"x": -1.5521750924,
				"y": 0.4444281987,
				"z": -3.8552602737,
				"element": "C" 
			},
			{
				"x": -0.2044900883,
				"y": 0.3452625326,
				"z": -3.5014660209,
				"element": "C" 
			},
			{
				"x": 4.8536289667,
				"y": -1.4206266696,
				"z": -0.3753890792,
				"element": "H" 
			},
			{
				"x": 3.0306344739,
				"y": -0.6252824793,
				"z": 2.581976866,
				"element": "H" 
			},
			{
				"x": 2.5839125769,
				"y": -2.348513573,
				"z": 2.5204665589,
				"element": "H" 
			},
			{
				"x": -0.0457472408,
				"y": -2.8072563355,
				"z": 2.5837392249,
				"element": "H" 
			},
			{
				"x": -2.0302827531,
				"y": -2.3650947665,
				"z": 4.0042181977,
				"element": "H" 
			},
			{
				"x": -2.0911382666,
				"y": -0.3550976956,
				"z": 5.4661439403,
				"element": "H" 
			},
			{
				"x": -0.1615743314,
				"y": 1.2112423702,
				"z": 5.4955209569,
				"element": "H" 
			},
			{
				"x": 1.8145264349,
				"y": 0.770703944,
				"z": 4.0640167706,
				"element": "H" 
			},
			{
				"x": 2.2638921631,
				"y": 0.2006987386,
				"z": -2.6409805137,
				"element": "H" 
			},
			{
				"x": 1.8284942494,
				"y": 0.5378154921,
				"z": -0.9531691071,
				"element": "H" 
			},
			{
				"x": -0.5517529803,
				"y": -0.5747898129,
				"z": -0.2485985539,
				"element": "H" 
			},
			{
				"x": -2.9477720805,
				"y": -0.4087713756,
				"z": -0.8729159166,
				"element": "H" 
			},
			{
				"x": -3.5902867897,
				"y": 0.246356098,
				"z": -3.1834020803,
				"element": "H" 
			},
			{
				"x": -1.8264195226,
				"y": 0.7278018366,
				"z": -4.867376756,
				"element": "H" 
			},
			{
				"x": 0.5658743983,
				"y": 0.549812872,
				"z": -4.2410189848,
				"element": "H" 
			}
		],
		 "valence_orbital": [ 
			{
				"type": "occ",
				"energy": -0.28629,
				"method": "rhf"
			},
			{
				"type": "occ",
				"energy": -0.25704,
				"method": "rhf"
			},
			{
				"type": "occ",
				"energy": -0.254,
				"method": "rhf"
			},
			{
				"type": "occ",
				"energy": -0.25111,
				"method": "rhf"
			},
			{
				"type": "occ",
				"energy": -0.24719,
				"method": "rhf"
			},
			{
				"type": "unocc",
				"energy": -0.01807,
				"method": "rhf"
			},
			{
				"type": "unocc",
				"energy": -0.0105,
				"method": "rhf"
			},
			{
				"type": "unocc",
				"energy": -0.00722,
				"method": "rhf"
			},
			{
				"type": "unocc",
				"energy": -0.00112,
				"method": "rhf"
			},
			{
				"type": "unocc",
				"energy": 0.05111,
				"method": "rhf"
			}
		],
		"cosmo_sigma_profile": { 
			"-0.025": 0.0,
			"-0.024": 0.0,
			"-0.023": 0.0,
			"-0.022": 0.0,
			"-0.021": 0.0,
			"-0.02": 0.0,
			"-0.019": 0.875568579426,
			"-0.018": 0.890771036574,
			"-0.017": 0.860151175503,
			"-0.016": 0.770278637976,
			"-0.015": 1.06919176162,
			"-0.014": 1.0960607691,
			"-0.013": 0.629498886198,
			"-0.012": 0.232560389828,
			"-0.011": 0.677332994102,
			"-0.01": 1.23257947923,
			"-0.009": 0.574584649989,
			"-0.008": 0.4571691617,
			"-0.007": 5.89558803774,
			"-0.006": 22.3954671258,
			"-0.005": 28.9747855168,
			"-0.004": 29.6746575782,
			"-0.003": 23.6390480888,
			"-0.002": 18.2796623128,
			"-0.001": 19.4006684884,
			"0.0": 16.9413611547,
			"0.001": 20.7779674404,
			"0.002": 20.8962304114,
			"0.003": 20.3881522732,
			"0.004": 21.6099554363,
			"0.005": 24.7821125089,
			"0.006": 9.82364778782,
			"0.007": 3.63821262939,
			"0.008": 3.86517449354,
			"0.009": 3.32195714216,
			"0.01": 3.600191157,
			"0.011": 0.905837280514,
			"0.012": 1.66795256994,
			"0.013": 2.91344258044,
			"0.014": 6.8681923552,
			"0.015": 1.14110925639,
			"0.016": 0.0,
			"0.017": 0.0,
			"0.018": 0.0,
			"0.019": 0.0,
			"0.02": 0.0,
			"0.021": 0.0,
			"0.022": 0.0,
			"0.023": 0.0,
			"0.024": 0.0,
			"0.025": 0.0
		}
	}
}
