{
	 "smiles": "CCN1C(S)=NC2=C(SC=C2)C1=O", 
	 "Tm": 560.15, 
	 "num_atms": 21, 
	 "gaussian": { 
		 "optdone": 1, 
		 "sigma_profile": "yes", 
		 "theory": "DFT", 
		 "functional": "B3LYP", 
		 "basiset": "6-31G**", 
		 "properties": { 
			 "R2extent": 3139.3346, 
			 "electric_dipole_moment_norm": 2.34896633863, 
			 "electric_quadrupole_moment_norm": 11.5517238272, 
			 "total_energy": -1290.78608298, 
			 "HOMO_LUMO_gap": 0.17486, 
			 "cosmo_polarized_energy": -10.19, 
			 "cosmo_cavitation_energy": 27.76, 
			 "cosmo_dispersion_energy": -21.58, 
			 "cosmo_repulsion_energy": 1.6, 
			 "cosmo_total_nonelectrostatic_energy": 7.78, 
			 "SMD_solvation_energy": 3.38 
		},
		"coords": [
			{
				"x": -2.7660570538,
				"y": -0.6615444196,
				"z": -2.5908276797,
				"element": "C" 
			},
			{
				"x": -2.5941617028,
				"y": 0.5551216421,
				"z": -1.680750234,
				"element": "C" 
			},
			{
				"x": -1.344094158,
				"y": 0.5048532476,
				"z": -0.8945588952,
				"element": "N" 
			},
			{
				"x": -0.1624384724,
				"y": 1.0589294435,
				"z": -1.3329815864,
				"element": "C" 
			},
			{
				"x": -0.1975286742,
				"y": 1.8846357497,
				"z": -2.9224173819,
				"element": "S" 
			},
			{
				"x": 0.9696131582,
				"y": 1.0320627311,
				"z": -0.6924194514,
				"element": "N" 
			},
			{
				"x": 0.9653343471,
				"y": 0.3891132963,
				"z": 0.5204038749,
				"element": "C" 
			},
			{
				"x": -0.1748221793,
				"y": -0.208146578,
				"z": 1.0487009848,
				"element": "C" 
			},
			{
				"x": 0.1226827757,
				"y": -0.9499162685,
				"z": 2.5903703563,
				"element": "S" 
			},
			{
				"x": 1.7883487201,
				"y": -0.4467417874,
				"z": 2.517791518,
				"element": "C" 
			},
			{
				"x": 2.1001266334,
				"y": 0.2448809988,
				"z": 1.3829141298,
				"element": "C" 
			},
			{
				"x": -1.4298862426,
				"y": -0.1970990344,
				"z": 0.354348058,
				"element": "C" 
			},
			{
				"x": -2.4868004748,
				"y": -0.7004804234,
				"z": 0.7159674466,
				"element": "O" 
			},
			{
				"x": -2.80245553,
				"y": -1.5752521138,
				"z": -1.9928745493,
				"element": "H" 
			},
			{
				"x": -1.9502634068,
				"y": -0.7412775076,
				"z": -3.3149033089,
				"element": "H" 
			},
			{
				"x": -3.7067588521,
				"y": -0.5767702282,
				"z": -3.1439654728,
				"element": "H" 
			},
			{
				"x": -2.6024488841,
				"y": 1.4891220219,
				"z": -2.2477859211,
				"element": "H" 
			},
			{
				"x": -3.4032821335,
				"y": 0.5937436156,
				"z": -0.9506413879,
				"element": "H" 
			},
			{
				"x": 1.103633312,
				"y": 2.214560633,
				"z": -2.8350397792,
				"element": "H" 
			},
			{
				"x": 2.4493652753,
				"y": -0.6981332441,
				"z": 3.3364345269,
				"element": "H" 
			},
			{
				"x": 3.0804935425,
				"y": 0.6413382254,
				"z": 1.1500347525,
				"element": "H" 
			}
		],
		 "valence_orbital": [ 
			{
				"type": "occ",
				"energy": -0.28394,
				"method": "rhf"
			},
			{
				"type": "occ",
				"energy": -0.27885,
				"method": "rhf"
			},
			{
				"type": "occ",
				"energy": -0.26843,
				"method": "rhf"
			},
			{
				"type": "occ",
				"energy": -0.25464,
				"method": "rhf"
			},
			{
				"type": "occ",
				"energy": -0.225,
				"method": "rhf"
			},
			{
				"type": "unocc",
				"energy": -0.05014,
				"method": "rhf"
			},
			{
				"type": "unocc",
				"energy": -0.01405,
				"method": "rhf"
			},
			{
				"type": "unocc",
				"energy": -0.0003,
				"method": "rhf"
			},
			{
				"type": "unocc",
				"energy": 0.0234,
				"method": "rhf"
			},
			{
				"type": "unocc",
				"energy": 0.03696,
				"method": "rhf"
			}
		],
		"cosmo_sigma_profile": { 
			"-0.025": 0.0,
			"-0.024": 0.0,
			"-0.023": 0.0,
			"-0.022": 0.0,
			"-0.021": 0.0,
			"-0.02": 0.0,
			"-0.019": 0.0,
			"-0.018": 0.0,
			"-0.017": 0.0,
			"-0.016": 0.0,
			"-0.015": 0.0,
			"-0.014": 0.0,
			"-0.013": 0.0,
			"-0.012": 0.760445520716,
			"-0.011": 1.31013796774,
			"-0.01": 2.2559324888,
			"-0.009": 3.32357001609,
			"-0.008": 3.38128900206,
			"-0.007": 5.54370818577,
			"-0.006": 5.88714236407,
			"-0.005": 11.3930512833,
			"-0.004": 15.1258115924,
			"-0.003": 22.3398476193,
			"-0.002": 17.3440909603,
			"-0.001": 17.4816382361,
			"0.0": 19.243094125,
			"0.001": 24.0550301724,
			"0.002": 22.2532410968,
			"0.003": 16.0629223637,
			"0.004": 8.85103006252,
			"0.005": 5.57875022272,
			"0.006": 5.35747335599,
			"0.007": 2.14952172084,
			"0.008": 2.42186142737,
			"0.009": 2.52473721939,
			"0.01": 2.42087450309,
			"0.011": 2.62381266457,
			"0.012": 3.99744135326,
			"0.013": 3.16816768182,
			"0.014": 0.069010286804,
			"0.015": 0.0,
			"0.016": 0.0,
			"0.017": 0.0,
			"0.018": 0.0,
			"0.019": 0.0,
			"0.02": 0.0,
			"0.021": 0.0,
			"0.022": 0.0,
			"0.023": 0.0,
			"0.024": 0.0,
			"0.025": 0.0
		}
	}
}
