{
	 "smiles": "C[Si](C)(C)OC1(C#N)C2=CC=CC=C2CCC2=CC=CC=C2C1(O[Si](C)(C)C)C#N", 
	 "Tm": 361.15, 
	 "num_atms": 60, 
	 "gaussian": { 
		 "optdone": 1, 
		 "sigma_profile": "yes", 
		 "theory": "DFT", 
		 "functional": "B3LYP", 
		 "basiset": "6-31G**", 
		 "properties": { 
			 "R2extent": 11279.7952, 
			 "electric_dipole_moment_norm": 5.21768356074, 
			 "electric_quadrupole_moment_norm": 18.0107108966, 
			 "total_energy": -1771.66436016, 
			 "HOMO_LUMO_gap": 0.20325, 
			 "cosmo_polarized_energy": -13.91, 
			 "cosmo_cavitation_energy": 62.34, 
			 "cosmo_dispersion_energy": -32.81, 
			 "cosmo_repulsion_energy": 2.63, 
			 "cosmo_total_nonelectrostatic_energy": 32.16, 
			 "SMD_solvation_energy": 14.06 
		},
		"coords": [
			{
				"x": -1.0410870371,
				"y": 2.6434444267,
				"z": -2.8612045207,
				"element": "C" 
			},
			{
				"x": -1.1009550929,
				"y": 0.7803249848,
				"z": -3.105271192,
				"element": "Si" 
			},
			{
				"x": -2.8614610158,
				"y": 0.189694441,
				"z": -3.4135665913,
				"element": "C" 
			},
			{
				"x": 0.0545699561,
				"y": 0.2621285991,
				"z": -4.4952090953,
				"element": "C" 
			},
			{
				"x": -0.5058411111,
				"y": 0.1885817642,
				"z": -1.6177862335,
				"element": "O" 
			},
			{
				"x": -0.6238974282,
				"y": -1.0482796118,
				"z": -0.966416401,
				"element": "C" 
			},
			{
				"x": -0.6445680721,
				"y": -2.120634698,
				"z": -2.001396059,
				"element": "C" 
			},
			{
				"x": -0.6866171851,
				"y": -2.8928433389,
				"z": -2.8674921813,
				"element": "N" 
			},
			{
				"x": -1.9137322428,
				"y": -1.1626414161,
				"z": -0.1187410875,
				"element": "C" 
			},
			{
				"x": -2.6750546911,
				"y": -2.3374612674,
				"z": -0.2027622239,
				"element": "C" 
			},
			{
				"x": -3.8709887202,
				"y": -2.4931626797,
				"z": 0.4963199172,
				"element": "C" 
			},
			{
				"x": -4.3344344725,
				"y": -1.4552923923,
				"z": 1.2976442292,
				"element": "C" 
			},
			{
				"x": -3.5774428788,
				"y": -0.2900369336,
				"z": 1.4011380308,
				"element": "C" 
			},
			{
				"x": -2.3629582729,
				"y": -0.1173972664,
				"z": 0.721661474,
				"element": "C" 
			},
			{
				"x": -1.5886210565,
				"y": 1.1540428389,
				"z": 1.0039677496,
				"element": "C" 
			},
			{
				"x": -0.3362650429,
				"y": 0.9247200435,
				"z": 1.9080150131,
				"element": "C" 
			},
			{
				"x": 0.9740096658,
				"y": 1.0469078162,
				"z": 1.1569445742,
				"element": "C" 
			},
			{
				"x": 1.7256398201,
				"y": 2.2117084494,
				"z": 1.3684460125,
				"element": "C" 
			},
			{
				"x": 2.8995460209,
				"y": 2.4829407162,
				"z": 0.6684638316,
				"element": "C" 
			},
			{
				"x": 3.3456423388,
				"y": 1.5708560952,
				"z": -0.2818885203,
				"element": "C" 
			},
			{
				"x": 2.6244657965,
				"y": 0.3974245251,
				"z": -0.4967773558,
				"element": "C" 
			},
			{
				"x": 1.4507335608,
				"y": 0.1069310668,
				"z": 0.2137242934,
				"element": "C" 
			},
			{
				"x": 0.7362731108,
				"y": -1.2409962223,
				"z": -0.0467044207,
				"element": "C" 
			},
			{
				"x": 0.3441178772,
				"y": -1.8890568416,
				"z": 1.1341711369,
				"element": "O" 
			},
			{
				"x": 1.1559230088,
				"y": -2.9419282561,
				"z": 2.2063168504,
				"element": "Si" 
			},
			{
				"x": 1.0650542427,
				"y": -4.7010902822,
				"z": 1.5484422917,
				"element": "C" 
			},
			{
				"x": 2.9371243172,
				"y": -2.3949441604,
				"z": 2.4731179241,
				"element": "C" 
			},
			{
				"x": 0.148930781,
				"y": -2.7777261938,
				"z": 3.78534386,
				"element": "C" 
			},
			{
				"x": 1.6743753143,
				"y": -2.1365443142,
				"z": -0.7812286194,
				"element": "C" 
			},
			{
				"x": 2.4211978444,
				"y": -2.8761157715,
				"z": -1.2746722863,
				"element": "N" 
			},
			{
				"x": -1.7465167866,
				"y": 2.9737738597,
				"z": -2.0917799132,
				"element": "H" 
			},
			{
				"x": -0.0394301736,
				"y": 2.9664610747,
				"z": -2.5598031168,
				"element": "H" 
			},
			{
				"x": -1.2951235531,
				"y": 3.1642093795,
				"z": -3.791428246,
				"element": "H" 
			},
			{
				"x": -3.2579920223,
				"y": 0.6647200218,
				"z": -4.3187915036,
				"element": "H" 
			},
			{
				"x": -3.5239721283,
				"y": 0.4495724714,
				"z": -2.5818504858,
				"element": "H" 
			},
			{
				"x": -2.9102334318,
				"y": -0.8931911009,
				"z": -3.5603454077,
				"element": "H" 
			},
			{
				"x": -0.2672150273,
				"y": 0.7091452329,
				"z": -5.4433248824,
				"element": "H" 
			},
			{
				"x": 1.0777237367,
				"y": 0.5998143239,
				"z": -4.299077616,
				"element": "H" 
			},
			{
				"x": 0.0748899438,
				"y": -0.8233581173,
				"z": -4.6258790151,
				"element": "H" 
			},
			{
				"x": -2.3386042242,
				"y": -3.1505733828,
				"z": -0.8355284366,
				"element": "H" 
			},
			{
				"x": -4.4340674282,
				"y": -3.416488896,
				"z": 0.3997338138,
				"element": "H" 
			},
			{
				"x": -5.2703693888,
				"y": -1.5478686794,
				"z": 1.8410142099,
				"element": "H" 
			},
			{
				"x": -3.928850302,
				"y": 0.5171586742,
				"z": 2.0387995572,
				"element": "H" 
			},
			{
				"x": -2.2638730138,
				"y": 1.8456883122,
				"z": 1.5169590275,
				"element": "H" 
			},
			{
				"x": -1.2786505937,
				"y": 1.6408805555,
				"z": 0.0784898564,
				"element": "H" 
			},
			{
				"x": -0.3364744449,
				"y": 1.6816863247,
				"z": 2.6982734809,
				"element": "H" 
			},
			{
				"x": -0.4208281758,
				"y": -0.0460054317,
				"z": 2.3980890255,
				"element": "H" 
			},
			{
				"x": 1.3657458808,
				"y": 2.929638212,
				"z": 2.1010595908,
				"element": "H" 
			},
			{
				"x": 3.4519941733,
				"y": 3.3975978396,
				"z": 0.8633912696,
				"element": "H" 
			},
			{
				"x": 4.2530676086,
				"y": 1.7558154113,
				"z": -0.8487149966,
				"element": "H" 
			},
			{
				"x": 2.996856387,
				"y": -0.3093382953,
				"z": -1.2292765341,
				"element": "H" 
			},
			{
				"x": 1.5032496839,
				"y": -5.4001010743,
				"z": 2.2706951052,
				"element": "H" 
			},
			{
				"x": 0.0255368729,
				"y": -5.0030911649,
				"z": 1.3824868992,
				"element": "H" 
			},
			{
				"x": 1.605145798,
				"y": -4.8118142558,
				"z": 0.6040932973,
				"element": "H" 
			},
			{
				"x": 3.5354643115,
				"y": -2.490316486,
				"z": 1.5623634668,
				"element": "H" 
			},
			{
				"x": 2.9918829919,
				"y": -1.3541248844,
				"z": 2.8076028575,
				"element": "H" 
			},
			{
				"x": 3.404767271,
				"y": -3.0195923822,
				"z": 3.2434624833,
				"element": "H" 
			},
			{
				"x": -0.9113028893,
				"y": -2.9728469204,
				"z": 3.5946488499,
				"element": "H" 
			},
			{
				"x": 0.2337673066,
				"y": -1.7752558368,
				"z": 4.2173545055,
				"element": "H" 
			},
			{
				"x": 0.4912322819,
				"y": -3.4953489059,
				"z": 4.5395824566,
				"element": "H" 
			}
		],
		 "valence_orbital": [ 
			{
				"type": "occ",
				"energy": -0.27454,
				"method": "rhf"
			},
			{
				"type": "occ",
				"energy": -0.25976,
				"method": "rhf"
			},
			{
				"type": "occ",
				"energy": -0.25193,
				"method": "rhf"
			},
			{
				"type": "occ",
				"energy": -0.25031,
				"method": "rhf"
			},
			{
				"type": "occ",
				"energy": -0.23998,
				"method": "rhf"
			},
			{
				"type": "unocc",
				"energy": -0.03673,
				"method": "rhf"
			},
			{
				"type": "unocc",
				"energy": -0.0095,
				"method": "rhf"
			},
			{
				"type": "unocc",
				"energy": -0.00673,
				"method": "rhf"
			},
			{
				"type": "unocc",
				"energy": -0.00517,
				"method": "rhf"
			},
			{
				"type": "unocc",
				"energy": 0.00438,
				"method": "rhf"
			}
		],
		"cosmo_sigma_profile": { 
			"-0.025": 0.0,
			"-0.024": 0.0,
			"-0.023": 0.0,
			"-0.022": 0.0,
			"-0.021": 0.0,
			"-0.02": 0.0,
			"-0.019": 0.0,
			"-0.018": 0.0,
			"-0.017": 0.0,
			"-0.016": 0.0,
			"-0.015": 0.0,
			"-0.014": 0.0,
			"-0.013": 0.0,
			"-0.012": 0.0,
			"-0.011": 0.0,
			"-0.01": 0.0,
			"-0.009": 0.0,
			"-0.008": 0.0,
			"-0.007": 0.252751995389,
			"-0.006": 9.80840311605,
			"-0.005": 22.0183427656,
			"-0.004": 43.8224511974,
			"-0.003": 52.2557024456,
			"-0.002": 49.0090025141,
			"-0.001": 55.1243485303,
			"0.0": 66.9707236603,
			"0.001": 54.882109555,
			"0.002": 33.4339146326,
			"0.003": 21.9076052416,
			"0.004": 20.4544171059,
			"0.005": 16.4934007453,
			"0.006": 8.27609038492,
			"0.007": 6.05863830729,
			"0.008": 5.94921840433,
			"0.009": 4.64218804978,
			"0.01": 4.28307575518,
			"0.011": 4.20540765206,
			"0.012": 2.61115094237,
			"0.013": 0.00951938987841,
			"0.014": 0.0,
			"0.015": 0.0,
			"0.016": 0.0,
			"0.017": 0.0,
			"0.018": 0.0,
			"0.019": 0.0,
			"0.02": 0.0,
			"0.021": 0.0,
			"0.022": 0.0,
			"0.023": 0.0,
			"0.024": 0.0,
			"0.025": 0.0
		}
	}
}
