{
	 "smiles": "OC(=O)C1=CC=C(OCC2=NC=CC=C2)C=C1", 
	 "Tm": 483.15, 
	 "num_atms": 28, 
	 "gaussian": { 
		 "optdone": 1, 
		 "sigma_profile": "yes", 
		 "theory": "DFT", 
		 "functional": "B3LYP", 
		 "basiset": "6-31G**", 
		 "properties": { 
			 "R2extent": 6927.3824, 
			 "electric_dipole_moment_norm": 2.94007971491, 
			 "electric_quadrupole_moment_norm": 18.2009538061, 
			 "total_energy": -782.444494621, 
			 "HOMO_LUMO_gap": 0.19407, 
			 "cosmo_polarized_energy": -13.36, 
			 "cosmo_cavitation_energy": 33.45, 
			 "cosmo_dispersion_energy": -24.56, 
			 "cosmo_repulsion_energy": 1.88, 
			 "cosmo_total_nonelectrostatic_energy": 10.78, 
			 "SMD_solvation_energy": 5.72 
		},
		"coords": [
			{
				"x": 3.8986072062,
				"y": 3.0769365722,
				"z": -2.9419874106,
				"element": "O" 
			},
			{
				"x": 4.1353732698,
				"y": 1.8829922475,
				"z": -2.3361141517,
				"element": "C" 
			},
			{
				"x": 5.2234023383,
				"y": 1.3413051879,
				"z": -2.3935217548,
				"element": "O" 
			},
			{
				"x": 2.9534659317,
				"y": 1.3446379914,
				"z": -1.6262879231,
				"element": "C" 
			},
			{
				"x": 1.7244497718,
				"y": 2.0129886282,
				"z": -1.593912959,
				"element": "C" 
			},
			{
				"x": 0.6345853787,
				"y": 1.4719938903,
				"z": -0.9136340818,
				"element": "C" 
			},
			{
				"x": 0.7737129723,
				"y": 0.2423528917,
				"z": -0.2540393265,
				"element": "C" 
			},
			{
				"x": -0.2202130086,
				"y": -0.3759099262,
				"z": 0.4383108786,
				"element": "O" 
			},
			{
				"x": -1.4967373333,
				"y": 0.2467129106,
				"z": 0.5141970932,
				"element": "C" 
			},
			{
				"x": -2.43579063,
				"y": -0.6152538684,
				"z": 1.328928379,
				"element": "C" 
			},
			{
				"x": -3.6683522429,
				"y": -0.1020555014,
				"z": 1.455733327,
				"element": "N" 
			},
			{
				"x": -4.5635404209,
				"y": -0.8000293997,
				"z": 2.1614789908,
				"element": "C" 
			},
			{
				"x": -4.2823700165,
				"y": -2.0257961002,
				"z": 2.767946458,
				"element": "C" 
			},
			{
				"x": -2.9980088769,
				"y": -2.5480467092,
				"z": 2.6285834152,
				"element": "C" 
			},
			{
				"x": -2.0512587403,
				"y": -1.8326314718,
				"z": 1.8952450844,
				"element": "C" 
			},
			{
				"x": 2.0054614182,
				"y": -0.4346562151,
				"z": -0.2824775099,
				"element": "C" 
			},
			{
				"x": 3.080299945,
				"y": 0.1127570602,
				"z": -0.9613585322,
				"element": "C" 
			},
			{
				"x": 4.7365445785,
				"y": 3.3221446691,
				"z": -3.366888949,
				"element": "H" 
			},
			{
				"x": 1.6192659948,
				"y": 2.9635431804,
				"z": -2.1045772076,
				"element": "H" 
			},
			{
				"x": -0.3061963049,
				"y": 2.0084170026,
				"z": -0.9031920383,
				"element": "H" 
			},
			{
				"x": -1.9178186812,
				"y": 0.390097281,
				"z": -0.4903241815,
				"element": "H" 
			},
			{
				"x": -1.4172143247,
				"y": 1.2370456458,
				"z": 0.9830296604,
				"element": "H" 
			},
			{
				"x": -5.5547003927,
				"y": -0.3576108931,
				"z": 2.2464359607,
				"element": "H" 
			},
			{
				"x": -5.0490434806,
				"y": -2.5494449831,
				"z": 3.3299439485,
				"element": "H" 
			},
			{
				"x": -2.7341319191,
				"y": -3.4987219816,
				"z": 3.0833039165,
				"element": "H" 
			},
			{
				"x": -1.0409520037,
				"y": -2.1981398801,
				"z": 1.7597107258,
				"element": "H" 
			},
			{
				"x": 2.0871900317,
				"y": -1.384325014,
				"z": 0.2356421888,
				"element": "H" 
			},
			{
				"x": 4.0371695395,
				"y": -0.397203215,
				"z": -0.9925740009,
				"element": "H" 
			}
		],
		 "valence_orbital": [ 
			{
				"type": "occ",
				"energy": -0.27109,
				"method": "rhf"
			},
			{
				"type": "occ",
				"energy": -0.26407,
				"method": "rhf"
			},
			{
				"type": "occ",
				"energy": -0.263,
				"method": "rhf"
			},
			{
				"type": "occ",
				"energy": -0.2606,
				"method": "rhf"
			},
			{
				"type": "occ",
				"energy": -0.23385,
				"method": "rhf"
			},
			{
				"type": "unocc",
				"energy": -0.03978,
				"method": "rhf"
			},
			{
				"type": "unocc",
				"energy": -0.02972,
				"method": "rhf"
			},
			{
				"type": "unocc",
				"energy": -0.01568,
				"method": "rhf"
			},
			{
				"type": "unocc",
				"energy": -0.00879,
				"method": "rhf"
			},
			{
				"type": "unocc",
				"energy": 0.06645,
				"method": "rhf"
			}
		],
		"cosmo_sigma_profile": { 
			"-0.025": 0.0,
			"-0.024": 0.0,
			"-0.023": 0.0,
			"-0.022": 0.0,
			"-0.021": 0.0,
			"-0.02": 0.0,
			"-0.019": 0.0,
			"-0.018": 0.664367428219,
			"-0.017": 0.786625493996,
			"-0.016": 0.932829535318,
			"-0.015": 0.97967401673,
			"-0.014": 0.413337278234,
			"-0.013": 0.421481159416,
			"-0.012": 0.515933343431,
			"-0.011": 0.840336408409,
			"-0.01": 1.05285664034,
			"-0.009": 0.360052654238,
			"-0.008": 1.81091895409,
			"-0.007": 10.1897522094,
			"-0.006": 19.5757208246,
			"-0.005": 20.6999413927,
			"-0.004": 15.3122462444,
			"-0.003": 14.1530151275,
			"-0.002": 14.4505361552,
			"-0.001": 15.0636697337,
			"0.0": 17.5951201367,
			"0.001": 22.3766420809,
			"0.002": 30.018115782,
			"0.003": 30.5006946516,
			"0.004": 12.3707918134,
			"0.005": 6.49359685225,
			"0.006": 4.45193111669,
			"0.007": 3.84483598347,
			"0.008": 4.29898389809,
			"0.009": 2.82892173219,
			"0.01": 2.5699252763,
			"0.011": 3.34461418654,
			"0.012": 5.86450879596,
			"0.013": 1.40711786304,
			"0.014": 0.876856939221,
			"0.015": 0.755640861656,
			"0.016": 0.302867604202,
			"0.017": 0.0,
			"0.018": 0.0,
			"0.019": 0.0,
			"0.02": 0.0,
			"0.021": 0.0,
			"0.022": 0.0,
			"0.023": 0.0,
			"0.024": 0.0,
			"0.025": 0.0
		}
	}
}
