{
	 "smiles": "NC1=CC=C(OCC#N)C=C1", 
	 "Tm": 325.15, 
	 "num_atms": 19, 
	 "gaussian": { 
		 "optdone": 1, 
		 "sigma_profile": "yes", 
		 "theory": "DFT", 
		 "functional": "B3LYP", 
		 "basiset": "6-31G**", 
		 "properties": { 
			 "R2extent": 2355.4232, 
			 "electric_dipole_moment_norm": 4.69102680764, 
			 "electric_quadrupole_moment_norm": 12.2681208337, 
			 "total_energy": -494.359141703, 
			 "HOMO_LUMO_gap": 0.18892, 
			 "cosmo_polarized_energy": -14.8, 
			 "cosmo_cavitation_energy": 24.14, 
			 "cosmo_dispersion_energy": -17.35, 
			 "cosmo_repulsion_energy": 1.41, 
			 "cosmo_total_nonelectrostatic_energy": 8.21, 
			 "SMD_solvation_energy": 5.78 
		},
		"coords": [
			{
				"x": -0.5877287174,
				"y": 3.9119161567,
				"z": 0.1569640352,
				"element": "N" 
			},
			{
				"x": -0.8947513867,
				"y": 2.5503768782,
				"z": 0.2729613917,
				"element": "C" 
			},
			{
				"x": -2.2303401061,
				"y": 2.1208686307,
				"z": 0.3816001745,
				"element": "C" 
			},
			{
				"x": -2.5430984825,
				"y": 0.7690425549,
				"z": 0.4385602364,
				"element": "C" 
			},
			{
				"x": -1.5302663325,
				"y": -0.1934424298,
				"z": 0.3851837116,
				"element": "C" 
			},
			{
				"x": -1.9598354823,
				"y": -1.5103885318,
				"z": 0.4549846767,
				"element": "O" 
			},
			{
				"x": -0.9953196998,
				"y": -2.5221167852,
				"z": 0.621481069,
				"element": "C" 
			},
			{
				"x": -0.2712860522,
				"y": -2.8627080856,
				"z": -0.6226401731,
				"element": "C" 
			},
			{
				"x": 0.2983650721,
				"y": -3.1448092822,
				"z": -1.5932345993,
				"element": "N" 
			},
			{
				"x": -0.2004631477,
				"y": 0.2118372716,
				"z": 0.2692866666,
				"element": "C" 
			},
			{
				"x": 0.1081296429,
				"y": 1.5736803159,
				"z": 0.2176681653,
				"element": "C" 
			},
			{
				"x": 0.352965724,
				"y": 4.1575448124,
				"z": 0.4345211683,
				"element": "H" 
			},
			{
				"x": -1.2669070525,
				"y": 4.5344959852,
				"z": 0.5734352694,
				"element": "H" 
			},
			{
				"x": -3.0293873496,
				"y": 2.857035376,
				"z": 0.4189944915,
				"element": "H" 
			},
			{
				"x": -3.5730088186,
				"y": 0.4392423418,
				"z": 0.5281363637,
				"element": "H" 
			},
			{
				"x": -1.5408274196,
				"y": -3.4108784912,
				"z": 0.952191783,
				"element": "H" 
			},
			{
				"x": -0.2603522767,
				"y": -2.2639118375,
				"z": 1.3966900047,
				"element": "H" 
			},
			{
				"x": 0.6081350888,
				"y": -0.5067166384,
				"z": 0.1984334904,
				"element": "H" 
			},
			{
				"x": 1.1475767966,
				"y": 1.8760317583,
				"z": 0.1193820744,
				"element": "H" 
			}
		],
		 "valence_orbital": [ 
			{
				"type": "occ",
				"energy": -0.33358,
				"method": "rhf"
			},
			{
				"type": "occ",
				"energy": -0.32766,
				"method": "rhf"
			},
			{
				"type": "occ",
				"energy": -0.28878,
				"method": "rhf"
			},
			{
				"type": "occ",
				"energy": -0.25397,
				"method": "rhf"
			},
			{
				"type": "occ",
				"energy": -0.19583,
				"method": "rhf"
			},
			{
				"type": "unocc",
				"energy": -0.00691,
				"method": "rhf"
			},
			{
				"type": "unocc",
				"energy": 0.00903,
				"method": "rhf"
			},
			{
				"type": "unocc",
				"energy": 0.02061,
				"method": "rhf"
			},
			{
				"type": "unocc",
				"energy": 0.03315,
				"method": "rhf"
			},
			{
				"type": "unocc",
				"energy": 0.0773,
				"method": "rhf"
			}
		],
		"cosmo_sigma_profile": { 
			"-0.025": 0.0,
			"-0.024": 0.0,
			"-0.023": 0.0,
			"-0.022": 0.0,
			"-0.021": 0.0,
			"-0.02": 0.0,
			"-0.019": 0.0,
			"-0.018": 0.0,
			"-0.017": 0.0,
			"-0.016": 0.0,
			"-0.015": 0.0,
			"-0.014": 0.0,
			"-0.013": 0.0408591957729,
			"-0.012": 2.27891848705,
			"-0.011": 2.93142826701,
			"-0.01": 7.80254147921,
			"-0.009": 8.74545989882,
			"-0.008": 8.26086867904,
			"-0.007": 7.96102909672,
			"-0.006": 9.51429251868,
			"-0.005": 9.77381764479,
			"-0.004": 10.03429809,
			"-0.003": 8.34673170492,
			"-0.002": 7.14560007094,
			"-0.001": 6.51950872731,
			"0.0": 7.69364753673,
			"0.001": 8.56573711957,
			"0.002": 9.43576946929,
			"0.003": 10.9218847678,
			"0.004": 11.6700612832,
			"0.005": 13.3627052747,
			"0.006": 13.789161021,
			"0.007": 5.86137400937,
			"0.008": 5.30840849545,
			"0.009": 4.81528895075,
			"0.01": 4.09440733235,
			"0.011": 3.34179698239,
			"0.012": 2.85313375534,
			"0.013": 0.965737622269,
			"0.014": 0.623824143225,
			"0.015": 0.614264547308,
			"0.016": 0.0,
			"0.017": 0.0,
			"0.018": 0.0,
			"0.019": 0.0,
			"0.02": 0.0,
			"0.021": 0.0,
			"0.022": 0.0,
			"0.023": 0.0,
			"0.024": 0.0,
			"0.025": 0.0
		}
	}
}
