{
	 "smiles": "CN[C@H]1CC[C@@H](C2=CC=C(Cl)C(Cl)=C2)C2=CC=CC=C12", 
	 "Tm": 517.15, 
	 "num_atms": 37, 
	 "gaussian": { 
		 "optdone": 1, 
		 "sigma_profile": "yes", 
		 "theory": "DFT", 
		 "functional": "B3LYP", 
		 "basiset": "6-31G**", 
		 "properties": { 
			 "R2extent": 10029.7783, 
			 "electric_dipole_moment_norm": 3.85310718901, 
			 "electric_quadrupole_moment_norm": 14.8195146408, 
			 "total_energy": -1633.19157917, 
			 "HOMO_LUMO_gap": 0.20219, 
			 "cosmo_polarized_energy": -9.06, 
			 "cosmo_cavitation_energy": 41.5, 
			 "cosmo_dispersion_energy": -29.6, 
			 "cosmo_repulsion_energy": 2.28, 
			 "cosmo_total_nonelectrostatic_energy": 14.19, 
			 "SMD_solvation_energy": 4.51 
		},
		"coords": [
			{
				"x": 3.0646981299,
				"y": 3.4143082873,
				"z": -0.4469650828,
				"element": "C" 
			},
			{
				"x": 2.0340105393,
				"y": 2.9289855744,
				"z": 0.4674691845,
				"element": "N" 
			},
			{
				"x": 1.7518560303,
				"y": 1.4991589219,
				"z": 0.3456318723,
				"element": "C" 
			},
			{
				"x": 1.3398967938,
				"y": 0.9057192211,
				"z": 1.708951027,
				"element": "C" 
			},
			{
				"x": 0.888270512,
				"y": -0.5752990523,
				"z": 1.6116751737,
				"element": "C" 
			},
			{
				"x": 0.9428731967,
				"y": -1.1495401753,
				"z": 0.1626547394,
				"element": "C" 
			},
			{
				"x": 0.4189609116,
				"y": -2.5744762455,
				"z": 0.1175646954,
				"element": "C" 
			},
			{
				"x": 1.2436691652,
				"y": -3.6242842298,
				"z": -0.3034589352,
				"element": "C" 
			},
			{
				"x": 0.786540427,
				"y": -4.9400247507,
				"z": -0.3212933012,
				"element": "C" 
			},
			{
				"x": -0.514928556,
				"y": -5.2381378934,
				"z": 0.0831069539,
				"element": "C" 
			},
			{
				"x": -1.0545651361,
				"y": -6.8995759921,
				"z": 0.0501032992,
				"element": "Cl" 
			},
			{
				"x": -1.3554113406,
				"y": -4.1985050681,
				"z": 0.5042746125,
				"element": "C" 
			},
			{
				"x": -2.9976987133,
				"y": -4.5083980945,
				"z": 1.0188961615,
				"element": "Cl" 
			},
			{
				"x": -0.8868919141,
				"y": -2.8845716469,
				"z": 0.5189985831,
				"element": "C" 
			},
			{
				"x": 0.2749239929,
				"y": -0.1660781311,
				"z": -0.7935357402,
				"element": "C" 
			},
			{
				"x": -0.6897341654,
				"y": -0.5146121062,
				"z": -1.7430975093,
				"element": "C" 
			},
			{
				"x": -1.2769731909,
				"y": 0.4625501188,
				"z": -2.5507492002,
				"element": "C" 
			},
			{
				"x": -0.9126695938,
				"y": 1.7999922571,
				"z": -2.4030473721,
				"element": "C" 
			},
			{
				"x": 0.057335297,
				"y": 2.1572561325,
				"z": -1.4640658074,
				"element": "C" 
			},
			{
				"x": 0.6703439962,
				"y": 1.182800179,
				"z": -0.6750707399,
				"element": "C" 
			},
			{
				"x": 4.0252705276,
				"y": 2.8733379221,
				"z": -0.3703473737,
				"element": "H" 
			},
			{
				"x": 2.7185522592,
				"y": 3.3198115587,
				"z": -1.4809378177,
				"element": "H" 
			},
			{
				"x": 3.2519910636,
				"y": 4.4753296421,
				"z": -0.2559642198,
				"element": "H" 
			},
			{
				"x": 2.3146371152,
				"y": 3.1311317844,
				"z": 1.4223147186,
				"element": "H" 
			},
			{
				"x": 2.6678728241,
				"y": 0.9607233154,
				"z": 0.0276366692,
				"element": "H" 
			},
			{
				"x": 2.1827446427,
				"y": 1.0009927262,
				"z": 2.4043815729,
				"element": "H" 
			},
			{
				"x": 0.5274776637,
				"y": 1.5250951917,
				"z": 2.1047562994,
				"element": "H" 
			},
			{
				"x": 1.5064221372,
				"y": -1.2089186865,
				"z": 2.2559312991,
				"element": "H" 
			},
			{
				"x": -0.1373524142,
				"y": -0.6699788525,
				"z": 1.980354079,
				"element": "H" 
			},
			{
				"x": 2.0059140239,
				"y": -1.2020009749,
				"z": -0.1146660817,
				"element": "H" 
			},
			{
				"x": 2.2607798934,
				"y": -3.4140142974,
				"z": -0.622122689,
				"element": "H" 
			},
			{
				"x": 1.4342369679,
				"y": -5.7462166672,
				"z": -0.6477116861,
				"element": "H" 
			},
			{
				"x": -1.5634975581,
				"y": -2.1005650406,
				"z": 0.8408468221,
				"element": "H" 
			},
			{
				"x": -0.9912785904,
				"y": -1.551081455,
				"z": -1.8525481502,
				"element": "H" 
			},
			{
				"x": -2.0243879642,
				"y": 0.1759201101,
				"z": -3.2851980728,
				"element": "H" 
			},
			{
				"x": -1.3819159177,
				"y": 2.5652162989,
				"z": -3.0152221482,
				"element": "H" 
			},
			{
				"x": 0.3352269444,
				"y": 3.195850118,
				"z": -1.3203458354,
				"element": "H" 
			}
		],
		 "valence_orbital": [ 
			{
				"type": "occ",
				"energy": -0.26047,
				"method": "rhf"
			},
			{
				"type": "occ",
				"energy": -0.24592,
				"method": "rhf"
			},
			{
				"type": "occ",
				"energy": -0.24066,
				"method": "rhf"
			},
			{
				"type": "occ",
				"energy": -0.23528,
				"method": "rhf"
			},
			{
				"type": "occ",
				"energy": -0.22739,
				"method": "rhf"
			},
			{
				"type": "unocc",
				"energy": -0.0252,
				"method": "rhf"
			},
			{
				"type": "unocc",
				"energy": -0.02154,
				"method": "rhf"
			},
			{
				"type": "unocc",
				"energy": 0.00121,
				"method": "rhf"
			},
			{
				"type": "unocc",
				"energy": 0.00473,
				"method": "rhf"
			},
			{
				"type": "unocc",
				"energy": 0.00631,
				"method": "rhf"
			}
		],
		"cosmo_sigma_profile": { 
			"-0.025": 0.0,
			"-0.024": 0.0,
			"-0.023": 0.0,
			"-0.022": 0.0,
			"-0.021": 0.0,
			"-0.02": 0.0,
			"-0.019": 0.0,
			"-0.018": 0.0,
			"-0.017": 0.0,
			"-0.016": 0.0,
			"-0.015": 0.0,
			"-0.014": 0.0,
			"-0.013": 0.0,
			"-0.012": 0.0,
			"-0.011": 0.0,
			"-0.01": 0.685075276704,
			"-0.009": 1.10425773936,
			"-0.008": 1.50698082796,
			"-0.007": 6.18436502456,
			"-0.006": 9.31662988403,
			"-0.005": 14.0979696472,
			"-0.004": 19.4876098422,
			"-0.003": 31.6470920459,
			"-0.002": 37.7525847706,
			"-0.001": 34.3047681635,
			"0.0": 36.5943133846,
			"0.001": 31.4037376223,
			"0.002": 25.4519375843,
			"0.003": 23.7480645918,
			"0.004": 24.5773457457,
			"0.005": 14.6222440412,
			"0.006": 9.31585837225,
			"0.007": 5.90766484229,
			"0.008": 0.682694110143,
			"0.009": 1.19174114883,
			"0.01": 0.234585061967,
			"0.011": 0.525643335525,
			"0.012": 1.18902954978,
			"0.013": 0.393098727285,
			"0.014": 0.280386182809,
			"0.015": 0.478292658732,
			"0.016": 0.124158340656,
			"0.017": 0.0,
			"0.018": 0.0,
			"0.019": 0.0,
			"0.02": 0.0,
			"0.021": 0.0,
			"0.022": 0.0,
			"0.023": 0.0,
			"0.024": 0.0,
			"0.025": 0.0
		}
	}
}
