{
	 "smiles": "CCN(CC)C(Cl)=O", 
	 "Tm": 241.15, 
	 "num_atms": 18, 
	 "gaussian": { 
		 "optdone": 1, 
		 "sigma_profile": "yes", 
		 "theory": "DFT", 
		 "functional": "B3LYP", 
		 "basiset": "6-31G**", 
		 "properties": { 
			 "R2extent": 1599.3591, 
			 "electric_dipole_moment_norm": 4.44820937682, 
			 "electric_quadrupole_moment_norm": 7.97632500341, 
			 "total_energy": -786.751957885, 
			 "HOMO_LUMO_gap": 0.2789, 
			 "cosmo_polarized_energy": -7.99, 
			 "cosmo_cavitation_energy": 22.58, 
			 "cosmo_dispersion_energy": -16.18, 
			 "cosmo_repulsion_energy": 1.36, 
			 "cosmo_total_nonelectrostatic_energy": 7.76, 
			 "SMD_solvation_energy": 4.75 
		},
		"coords": [
			{
				"x": -2.1899179673,
				"y": 2.1359038394,
				"z": 0.366202449,
				"element": "C" 
			},
			{
				"x": -1.8140155807,
				"y": 0.6530752025,
				"z": 0.3304865643,
				"element": "C" 
			},
			{
				"x": -0.5065287954,
				"y": 0.4031336559,
				"z": -0.2916442304,
				"element": "N" 
			},
			{
				"x": 0.6854856182,
				"y": 0.441401701,
				"z": 0.5792822517,
				"element": "C" 
			},
			{
				"x": 1.0591395794,
				"y": -0.934375423,
				"z": 1.1324580751,
				"element": "C" 
			},
			{
				"x": -0.2771307137,
				"y": 0.1206724132,
				"z": -1.5934157504,
				"element": "C" 
			},
			{
				"x": -1.7878614243,
				"y": 0.1354666279,
				"z": -2.6388442653,
				"element": "Cl" 
			},
			{
				"x": 0.7841625285,
				"y": -0.1181098446,
				"z": -2.1075172043,
				"element": "O" 
			},
			{
				"x": -2.2920909021,
				"y": 2.5317537687,
				"z": -0.6475881389,
				"element": "H" 
			},
			{
				"x": -1.4338754921,
				"y": 2.7274327834,
				"z": 0.8925580748,
				"element": "H" 
			},
			{
				"x": -3.1445342223,
				"y": 2.2691128202,
				"z": 0.8854890209,
				"element": "H" 
			},
			{
				"x": -2.5736642399,
				"y": 0.0785168306,
				"z": -0.1992363632,
				"element": "H" 
			},
			{
				"x": -1.7586595471,
				"y": 0.2479387926,
				"z": 1.3465207896,
				"element": "H" 
			},
			{
				"x": 0.4666269365,
				"y": 1.1423791673,
				"z": 1.390701778,
				"element": "H" 
			},
			{
				"x": 1.5125934049,
				"y": 0.8525091528,
				"z": -0.0025975503,
				"element": "H" 
			},
			{
				"x": 0.2380500649,
				"y": -1.3715758759,
				"z": 1.709971933,
				"element": "H" 
			},
			{
				"x": 1.3113202701,
				"y": -1.6151120312,
				"z": 0.3154274752,
				"element": "H" 
			},
			{
				"x": 1.9297004824,
				"y": -0.851523581,
				"z": 1.7912450911,
				"element": "H" 
			}
		],
		 "valence_orbital": [ 
			{
				"type": "occ",
				"energy": -0.36257,
				"method": "rhf"
			},
			{
				"type": "occ",
				"energy": -0.31851,
				"method": "rhf"
			},
			{
				"type": "occ",
				"energy": -0.31046,
				"method": "rhf"
			},
			{
				"type": "occ",
				"energy": -0.28102,
				"method": "rhf"
			},
			{
				"type": "occ",
				"energy": -0.26137,
				"method": "rhf"
			},
			{
				"type": "unocc",
				"energy": 0.01753,
				"method": "rhf"
			},
			{
				"type": "unocc",
				"energy": 0.01991,
				"method": "rhf"
			},
			{
				"type": "unocc",
				"energy": 0.07261,
				"method": "rhf"
			},
			{
				"type": "unocc",
				"energy": 0.10836,
				"method": "rhf"
			},
			{
				"type": "unocc",
				"energy": 0.12483,
				"method": "rhf"
			}
		],
		"cosmo_sigma_profile": { 
			"-0.025": 0.0,
			"-0.024": 0.0,
			"-0.023": 0.0,
			"-0.022": 0.0,
			"-0.021": 0.0,
			"-0.02": 0.0,
			"-0.019": 0.0,
			"-0.018": 0.0,
			"-0.017": 0.0,
			"-0.016": 0.0,
			"-0.015": 0.0,
			"-0.014": 0.0,
			"-0.013": 0.0,
			"-0.012": 0.0,
			"-0.011": 0.0,
			"-0.01": 0.0,
			"-0.009": 0.0,
			"-0.008": 0.0,
			"-0.007": 0.128805242105,
			"-0.006": 5.71647937859,
			"-0.005": 10.1054540423,
			"-0.004": 17.3767855449,
			"-0.003": 23.8767375047,
			"-0.002": 21.3913307076,
			"-0.001": 19.1795146304,
			"0.0": 21.8495063326,
			"0.001": 11.9483686651,
			"0.002": 7.34152129026,
			"0.003": 6.11075251685,
			"0.004": 6.37500616529,
			"0.005": 8.08465524669,
			"0.006": 4.08812458345,
			"0.007": 1.65968957538,
			"0.008": 2.38189491613,
			"0.009": 1.60548211977,
			"0.01": 3.08479897655,
			"0.011": 5.15627588347,
			"0.012": 1.60486048498,
			"0.013": 0.0,
			"0.014": 0.0,
			"0.015": 0.0,
			"0.016": 0.0,
			"0.017": 0.0,
			"0.018": 0.0,
			"0.019": 0.0,
			"0.02": 0.0,
			"0.021": 0.0,
			"0.022": 0.0,
			"0.023": 0.0,
			"0.024": 0.0,
			"0.025": 0.0
		}
	}
}
