{
	 "smiles": "FC1=C(F)C(F)=C(OC(=O)CNC(=O)OCC2C3=C(C=CC=C3)C3=C2C=CC=C3)C(F)=C1F", 
	 "Tm": 433.15, 
	 "num_atms": 47, 
	 "gaussian": { 
		 "optdone": 1, 
		 "sigma_profile": "yes", 
		 "theory": "DFT", 
		 "functional": "B3LYP", 
		 "basiset": "6-31G**", 
		 "properties": { 
			 "R2extent": 21330.2769, 
			 "electric_dipole_moment_norm": 2.0620216027, 
			 "electric_quadrupole_moment_norm": 17.0186106492, 
			 "total_energy": -1739.69967942, 
			 "HOMO_LUMO_gap": 0.17624, 
			 "cosmo_polarized_energy": -16.46, 
			 "cosmo_cavitation_energy": 56.49, 
			 "cosmo_dispersion_energy": -36.7, 
			 "cosmo_repulsion_energy": 2.62, 
			 "cosmo_total_nonelectrostatic_energy": 22.4, 
			 "SMD_solvation_energy": 12.08 
		},
		"coords": [
			{
				"x": -1.3952762397,
				"y": -6.7110466402,
				"z": -3.7838439144,
				"element": "F" 
			},
			{
				"x": -1.741705504,
				"y": -5.8817096271,
				"z": -2.7971374229,
				"element": "C" 
			},
			{
				"x": -1.3862514165,
				"y": -6.1789903879,
				"z": -1.4819978076,
				"element": "C" 
			},
			{
				"x": -0.6988004734,
				"y": -7.2920750596,
				"z": -1.2112632336,
				"element": "F" 
			},
			{
				"x": -1.7548779505,
				"y": -5.3142540648,
				"z": -0.4554107051,
				"element": "C" 
			},
			{
				"x": -1.4202042321,
				"y": -5.6011084104,
				"z": 0.8065131923,
				"element": "F" 
			},
			{
				"x": -2.4733820496,
				"y": -4.1515144133,
				"z": -0.7323966728,
				"element": "C" 
			},
			{
				"x": -2.8973494434,
				"y": -3.3187954934,
				"z": 0.2844603887,
				"element": "O" 
			},
			{
				"x": -1.9374932921,
				"y": -2.565511295,
				"z": 0.926234576,
				"element": "C" 
			},
			{
				"x": -0.7712669212,
				"y": -2.5759325831,
				"z": 0.6359438166,
				"element": "O" 
			},
			{
				"x": -2.5935056335,
				"y": -1.7643148391,
				"z": 2.0413322049,
				"element": "C" 
			},
			{
				"x": -1.651772465,
				"y": -0.9513846619,
				"z": 2.7623566274,
				"element": "N" 
			},
			{
				"x": -1.4603394552,
				"y": 0.356596008,
				"z": 2.3759896045,
				"element": "C" 
			},
			{
				"x": -2.2193269215,
				"y": 0.9886829904,
				"z": 1.6679495326,
				"element": "O" 
			},
			{
				"x": -0.3179323209,
				"y": 0.8237625521,
				"z": 2.9374109501,
				"element": "O" 
			},
			{
				"x": 0.0703601335,
				"y": 2.176568332,
				"z": 2.6191687919,
				"element": "C" 
			},
			{
				"x": 1.5216083502,
				"y": 2.1794390716,
				"z": 2.1176549953,
				"element": "C" 
			},
			{
				"x": 2.0341246927,
				"y": 3.5980744189,
				"z": 1.9157270442,
				"element": "C" 
			},
			{
				"x": 2.4364498221,
				"y": 3.7852009779,
				"z": 0.5771739618,
				"element": "C" 
			},
			{
				"x": 2.9391718624,
				"y": 5.0185070605,
				"z": 0.157514916,
				"element": "C" 
			},
			{
				"x": 3.0336568116,
				"y": 6.059975818,
				"z": 1.0838039634,
				"element": "C" 
			},
			{
				"x": 2.6354546686,
				"y": 5.873306696,
				"z": 2.4116202783,
				"element": "C" 
			},
			{
				"x": 2.1328335237,
				"y": 4.6369277693,
				"z": 2.8350144287,
				"element": "C" 
			},
			{
				"x": 2.2330404433,
				"y": 2.5273526616,
				"z": -0.1537292877,
				"element": "C" 
			},
			{
				"x": 1.7047235954,
				"y": 1.5676071554,
				"z": 0.7357839509,
				"element": "C" 
			},
			{
				"x": 1.4287873795,
				"y": 0.2767826418,
				"z": 0.2949947314,
				"element": "C" 
			},
			{
				"x": 1.6744103846,
				"y": -0.0483234365,
				"z": -1.04434686,
				"element": "C" 
			},
			{
				"x": 2.1968542452,
				"y": 0.9031888054,
				"z": -1.9262807664,
				"element": "C" 
			},
			{
				"x": 2.4824242607,
				"y": 2.1980953025,
				"z": -1.487422622,
				"element": "C" 
			},
			{
				"x": -2.8175136282,
				"y": -3.855836335,
				"z": -2.0505556159,
				"element": "C" 
			},
			{
				"x": -3.4959610678,
				"y": -2.7411110766,
				"z": -2.3303442057,
				"element": "F" 
			},
			{
				"x": -2.4594966849,
				"y": -4.7218314509,
				"z": -3.0824074504,
				"element": "C" 
			},
			{
				"x": -2.7975297033,
				"y": -4.4395392404,
				"z": -4.3435563129,
				"element": "F" 
			},
			{
				"x": -3.3489593434,
				"y": -1.106186385,
				"z": 1.6034244284,
				"element": "H" 
			},
			{
				"x": -3.1124117488,
				"y": -2.4639841481,
				"z": 2.7064780356,
				"element": "H" 
			},
			{
				"x": -0.8474628985,
				"y": -1.4084004425,
				"z": 3.1692294251,
				"element": "H" 
			},
			{
				"x": -0.0165414478,
				"y": 2.7588194333,
				"z": 3.5418494865,
				"element": "H" 
			},
			{
				"x": -0.6142521543,
				"y": 2.5818334037,
				"z": 1.872544412,
				"element": "H" 
			},
			{
				"x": 2.1310826135,
				"y": 1.6481923842,
				"z": 2.8623920879,
				"element": "H" 
			},
			{
				"x": 3.2533020162,
				"y": 5.1703456037,
				"z": -0.8714140613,
				"element": "H" 
			},
			{
				"x": 3.4225936239,
				"y": 7.0246464405,
				"z": 0.7703566315,
				"element": "H" 
			},
			{
				"x": 2.7188183835,
				"y": 6.6923875033,
				"z": 3.1199948918,
				"element": "H" 
			},
			{
				"x": 1.8323294379,
				"y": 4.4983709502,
				"z": 3.8706813145,
				"element": "H" 
			},
			{
				"x": 1.0250135747,
				"y": -0.4753559579,
				"z": 0.9640717152,
				"element": "H" 
			},
			{
				"x": 1.4535497507,
				"y": -1.0515910128,
				"z": -1.3964008162,
				"element": "H" 
			},
			{
				"x": 2.3837286799,
				"y": 0.6327595738,
				"z": -2.9617598361,
				"element": "H" 
			},
			{
				"x": 2.891494742,
				"y": 2.9330734073,
				"z": -2.1753027927,
				"element": "H" 
			}
		],
		 "valence_orbital": [ 
			{
				"type": "occ",
				"energy": -0.26967,
				"method": "rhf"
			},
			{
				"type": "occ",
				"energy": -0.2672,
				"method": "rhf"
			},
			{
				"type": "occ",
				"energy": -0.24962,
				"method": "rhf"
			},
			{
				"type": "occ",
				"energy": -0.24178,
				"method": "rhf"
			},
			{
				"type": "occ",
				"energy": -0.2135,
				"method": "rhf"
			},
			{
				"type": "unocc",
				"energy": -0.03726,
				"method": "rhf"
			},
			{
				"type": "unocc",
				"energy": -0.0294,
				"method": "rhf"
			},
			{
				"type": "unocc",
				"energy": -0.02721,
				"method": "rhf"
			},
			{
				"type": "unocc",
				"energy": -0.0189,
				"method": "rhf"
			},
			{
				"type": "unocc",
				"energy": -0.01096,
				"method": "rhf"
			}
		],
		"cosmo_sigma_profile": { 
			"-0.025": 0.0,
			"-0.024": 0.0,
			"-0.023": 0.0,
			"-0.022": 0.0,
			"-0.021": 0.0,
			"-0.02": 0.0,
			"-0.019": 0.0,
			"-0.018": 0.0,
			"-0.017": 0.0,
			"-0.016": 0.0,
			"-0.015": 0.351015653035,
			"-0.014": 1.08377589306,
			"-0.013": 0.901029189775,
			"-0.012": 0.901407216213,
			"-0.011": 1.1412312037,
			"-0.01": 1.27168056181,
			"-0.009": 3.42390244872,
			"-0.008": 4.04432673905,
			"-0.007": 5.03769710299,
			"-0.006": 18.2281383029,
			"-0.005": 28.5644310149,
			"-0.004": 42.3282535273,
			"-0.003": 36.4824315666,
			"-0.002": 27.3128321872,
			"-0.001": 28.6763124778,
			"0.0": 29.170137286,
			"0.001": 33.2475057583,
			"0.002": 67.9491232027,
			"0.003": 42.5970335175,
			"0.004": 24.7847337691,
			"0.005": 24.2289738611,
			"0.006": 14.5763690182,
			"0.007": 3.84818649446,
			"0.008": 2.27249537692,
			"0.009": 2.74098813531,
			"0.01": 1.91991040937,
			"0.011": 2.05592842986,
			"0.012": 4.38855562779,
			"0.013": 1.09412421626,
			"0.014": 0.0,
			"0.015": 0.0,
			"0.016": 0.0,
			"0.017": 0.0,
			"0.018": 0.0,
			"0.019": 0.0,
			"0.02": 0.0,
			"0.021": 0.0,
			"0.022": 0.0,
			"0.023": 0.0,
			"0.024": 0.0,
			"0.025": 0.0
		}
	}
}
