{
	 "smiles": "CC1=NOC(C2CC2)=C1C(O)=O", 
	 "Tm": 438.15, 
	 "num_atms": 21, 
	 "gaussian": { 
		 "optdone": 1, 
		 "sigma_profile": "yes", 
		 "theory": "DFT", 
		 "functional": "B3LYP", 
		 "basiset": "6-31G**", 
		 "properties": { 
			 "R2extent": 2196.671, 
			 "electric_dipole_moment_norm": 1.41389144208, 
			 "electric_quadrupole_moment_norm": 11.9468925516, 
			 "total_energy": -590.648389615, 
			 "HOMO_LUMO_gap": 0.21306, 
			 "cosmo_polarized_energy": -10.52, 
			 "cosmo_cavitation_energy": 25.37, 
			 "cosmo_dispersion_energy": -18.55, 
			 "cosmo_repulsion_energy": 1.49, 
			 "cosmo_total_nonelectrostatic_energy": 8.31, 
			 "SMD_solvation_energy": 5.0 
		},
		"coords": [
			{
				"x": -2.5213462669,
				"y": -1.5389242696,
				"z": -0.4732374164,
				"element": "C" 
			},
			{
				"x": -1.1303993449,
				"y": -1.1766920433,
				"z": -0.0560581841,
				"element": "C" 
			},
			{
				"x": -0.6066817034,
				"y": -1.7591698099,
				"z": 0.9940626719,
				"element": "N" 
			},
			{
				"x": 0.6944661104,
				"y": -1.211446338,
				"z": 1.1246717386,
				"element": "O" 
			},
			{
				"x": 0.9106230415,
				"y": -0.3189998742,
				"z": 0.1508224806,
				"element": "C" 
			},
			{
				"x": 2.2039356574,
				"y": 0.3628813908,
				"z": 0.1093664229,
				"element": "C" 
			},
			{
				"x": 3.465123594,
				"y": -0.3795083231,
				"z": 0.5360435932,
				"element": "C" 
			},
			{
				"x": 2.9220808583,
				"y": 0.7041764497,
				"z": 1.4098750565,
				"element": "C" 
			},
			{
				"x": -0.2125243105,
				"y": -0.2398876824,
				"z": -0.6478957582,
				"element": "C" 
			},
			{
				"x": -0.3634232888,
				"y": 0.6242779608,
				"z": -1.8157588496,
				"element": "C" 
			},
			{
				"x": -1.5782842512,
				"y": 0.4941298617,
				"z": -2.410983368,
				"element": "O" 
			},
			{
				"x": 0.4793976933,
				"y": 1.3930239045,
				"z": -2.246033343,
				"element": "O" 
			},
			{
				"x": -3.1691715722,
				"y": -0.6581250689,
				"z": -0.4653004988,
				"element": "H" 
			},
			{
				"x": -2.528915495,
				"y": -1.9330795069,
				"z": -1.4930908528,
				"element": "H" 
			},
			{
				"x": -2.9230048534,
				"y": -2.2904924811,
				"z": 0.208920048,
				"element": "H" 
			},
			{
				"x": 2.2800030025,
				"y": 1.063698449,
				"z": -0.7127300789,
				"element": "H" 
			},
			{
				"x": 4.3601236051,
				"y": -0.1872054161,
				"z": -0.0468905025,
				"element": "H" 
			},
			{
				"x": 3.3432285344,
				"y": -1.4059255679,
				"z": 0.8658973937,
				"element": "H" 
			},
			{
				"x": 3.4343109497,
				"y": 1.6603928813,
				"z": 1.4430813683,
				"element": "H" 
			},
			{
				"x": 2.4316428359,
				"y": 0.4133864988,
				"z": 2.3329724863,
				"element": "H" 
			},
			{
				"x": -1.5650847966,
				"y": 1.1071889848,
				"z": -3.1647344079,
				"element": "H" 
			}
		],
		 "valence_orbital": [ 
			{
				"type": "occ",
				"energy": -0.32186,
				"method": "rhf"
			},
			{
				"type": "occ",
				"energy": -0.30839,
				"method": "rhf"
			},
			{
				"type": "occ",
				"energy": -0.29198,
				"method": "rhf"
			},
			{
				"type": "occ",
				"energy": -0.27979,
				"method": "rhf"
			},
			{
				"type": "occ",
				"energy": -0.25002,
				"method": "rhf"
			},
			{
				"type": "unocc",
				"energy": -0.03696,
				"method": "rhf"
			},
			{
				"type": "unocc",
				"energy": 0.00038,
				"method": "rhf"
			},
			{
				"type": "unocc",
				"energy": 0.07347,
				"method": "rhf"
			},
			{
				"type": "unocc",
				"energy": 0.08006,
				"method": "rhf"
			},
			{
				"type": "unocc",
				"energy": 0.10109,
				"method": "rhf"
			}
		],
		"cosmo_sigma_profile": { 
			"-0.025": 0.0,
			"-0.024": 0.0,
			"-0.023": 0.0,
			"-0.022": 0.0,
			"-0.021": 0.0,
			"-0.02": 0.0,
			"-0.019": 0.11121505317,
			"-0.018": 0.664477291189,
			"-0.017": 1.00154215374,
			"-0.016": 0.613556545157,
			"-0.015": 1.17649178693,
			"-0.014": 0.361080891808,
			"-0.013": 0.117229979443,
			"-0.012": 0.986028833178,
			"-0.011": 0.569866623167,
			"-0.01": 1.04049589732,
			"-0.009": 0.667392010982,
			"-0.008": 0.526016023869,
			"-0.007": 1.14027698266,
			"-0.006": 7.28394277326,
			"-0.005": 15.1854665397,
			"-0.004": 12.4038603136,
			"-0.003": 15.2072961561,
			"-0.002": 21.490789422,
			"-0.001": 27.3672332013,
			"0.0": 19.0460007833,
			"0.001": 12.7355588417,
			"0.002": 11.3327833946,
			"0.003": 6.98280797304,
			"0.004": 5.85140981594,
			"0.005": 6.92060933016,
			"0.006": 4.6151004095,
			"0.007": 4.73677914088,
			"0.008": 3.69547472906,
			"0.009": 3.64945588885,
			"0.01": 3.67723100493,
			"0.011": 4.1263378777,
			"0.012": 4.19106947674,
			"0.013": 1.18017012133,
			"0.014": 0.848937808802,
			"0.015": 0.0358122368515,
			"0.016": 0.0,
			"0.017": 0.0,
			"0.018": 0.0,
			"0.019": 0.0,
			"0.02": 0.0,
			"0.021": 0.0,
			"0.022": 0.0,
			"0.023": 0.0,
			"0.024": 0.0,
			"0.025": 0.0
		}
	}
}
