{
	 "smiles": "NC1=C(C=C(C(Cl)=C1)S(N)(=O)=O)S(N)(=O)=O", 
	 "Tm": 527.15, 
	 "num_atms": 24, 
	 "gaussian": { 
		 "optdone": 1, 
		 "sigma_profile": "yes", 
		 "theory": "DFT", 
		 "functional": "B3LYP", 
		 "basiset": "6-31G**", 
		 "properties": { 
			 "R2extent": 5281.7743, 
			 "electric_dipole_moment_norm": 7.27412940083, 
			 "electric_quadrupole_moment_norm": 26.5140225134, 
			 "total_energy": -1955.03893267, 
			 "HOMO_LUMO_gap": 0.1887, 
			 "cosmo_polarized_energy": -32.65, 
			 "cosmo_cavitation_energy": 32.34, 
			 "cosmo_dispersion_energy": -24.96, 
			 "cosmo_repulsion_energy": 1.86, 
			 "cosmo_total_nonelectrostatic_energy": 9.24, 
			 "SMD_solvation_energy": 4.45 
		},
		"coords": [
			{
				"x": 1.1255664666,
				"y": -2.8082020824,
				"z": 0.4917851137,
				"element": "N" 
			},
			{
				"x": 0.9532223224,
				"y": -1.4485056166,
				"z": 0.366591457,
				"element": "C" 
			},
			{
				"x": -0.0558451834,
				"y": -0.893690394,
				"z": -0.4605712812,
				"element": "C" 
			},
			{
				"x": -0.1924729742,
				"y": 0.4832268219,
				"z": -0.6018820765,
				"element": "C" 
			},
			{
				"x": 0.6690224663,
				"y": 1.3651104109,
				"z": 0.051843035,
				"element": "C" 
			},
			{
				"x": 1.6811962465,
				"y": 0.8215694501,
				"z": 0.860789705,
				"element": "C" 
			},
			{
				"x": 2.797817562,
				"y": 1.8424418976,
				"z": 1.7470414201,
				"element": "Cl" 
			},
			{
				"x": 1.8170313961,
				"y": -0.5498384779,
				"z": 1.0227852695,
				"element": "C" 
			},
			{
				"x": 0.4500145398,
				"y": 3.1282959383,
				"z": -0.2813503446,
				"element": "S" 
			},
			{
				"x": 0.1220625488,
				"y": 3.8734241936,
				"z": 1.1781457053,
				"element": "N" 
			},
			{
				"x": -0.7765994019,
				"y": 3.2320705827,
				"z": -1.0682926662,
				"element": "O" 
			},
			{
				"x": 1.726229141,
				"y": 3.6605920457,
				"z": -0.7449591093,
				"element": "O" 
			},
			{
				"x": -1.1547884387,
				"y": -1.9563994494,
				"z": -1.4005189787,
				"element": "S" 
			},
			{
				"x": -0.2476301412,
				"y": -2.5896257873,
				"z": -2.6587521901,
				"element": "N" 
			},
			{
				"x": -1.4835787818,
				"y": -3.1016070007,
				"z": -0.5396784912,
				"element": "O" 
			},
			{
				"x": -2.1809999605,
				"y": -1.1199321169,
				"z": -2.0104237528,
				"element": "O" 
			},
			{
				"x": 0.2817474002,
				"y": -3.3664735557,
				"z": 0.3965673124,
				"element": "H" 
			},
			{
				"x": 1.7568573506,
				"y": -3.1114103872,
				"z": 1.2193731429,
				"element": "H" 
			},
			{
				"x": -0.9796522788,
				"y": 0.8829795626,
				"z": -1.2322347737,
				"element": "H" 
			},
			{
				"x": 2.5980171049,
				"y": -0.9335469459,
				"z": 1.6708142345,
				"element": "H" 
			},
			{
				"x": -0.767714485,
				"y": 3.592621737,
				"z": 1.5771233578,
				"element": "H" 
			},
			{
				"x": 0.8986309833,
				"y": 3.841295546,
				"z": 1.8307809016,
				"element": "H" 
			},
			{
				"x": 0.0104411592,
				"y": -1.8845344638,
				"z": -3.3428230514,
				"element": "H" 
			},
			{
				"x": 0.5429249578,
				"y": -3.1401619086,
				"z": -2.334253939,
				"element": "H" 
			}
		],
		 "valence_orbital": [ 
			{
				"type": "occ",
				"energy": -0.31597,
				"method": "rhf"
			},
			{
				"type": "occ",
				"energy": -0.31123,
				"method": "rhf"
			},
			{
				"type": "occ",
				"energy": -0.30564,
				"method": "rhf"
			},
			{
				"type": "occ",
				"energy": -0.28402,
				"method": "rhf"
			},
			{
				"type": "occ",
				"energy": -0.25261,
				"method": "rhf"
			},
			{
				"type": "unocc",
				"energy": -0.06391,
				"method": "rhf"
			},
			{
				"type": "unocc",
				"energy": -0.04585,
				"method": "rhf"
			},
			{
				"type": "unocc",
				"energy": -0.0072,
				"method": "rhf"
			},
			{
				"type": "unocc",
				"energy": 0.04168,
				"method": "rhf"
			},
			{
				"type": "unocc",
				"energy": 0.0484,
				"method": "rhf"
			}
		],
		"cosmo_sigma_profile": { 
			"-0.025": 0.0,
			"-0.024": 0.0,
			"-0.023": 0.0,
			"-0.022": 0.0,
			"-0.021": 0.0,
			"-0.02": 0.0,
			"-0.019": 0.0,
			"-0.018": 0.0,
			"-0.017": 0.0,
			"-0.016": 1.11770578342,
			"-0.015": 3.92082158972,
			"-0.014": 5.94470334967,
			"-0.013": 6.30811216072,
			"-0.012": 6.7104768573,
			"-0.011": 7.17504045189,
			"-0.01": 6.85149574891,
			"-0.009": 6.42102440835,
			"-0.008": 6.80986099778,
			"-0.007": 6.972204373,
			"-0.006": 6.52278874715,
			"-0.005": 5.58349828594,
			"-0.004": 7.7537381851,
			"-0.003": 10.2573374302,
			"-0.002": 13.4959258684,
			"-0.001": 18.6750405565,
			"0.0": 19.7403051316,
			"0.001": 11.3973448629,
			"0.002": 9.99653068367,
			"0.003": 10.5445879807,
			"0.004": 6.73754035651,
			"0.005": 7.5075724124,
			"0.006": 6.82869359722,
			"0.007": 9.51449140592,
			"0.008": 10.104389703,
			"0.009": 10.0468459541,
			"0.01": 17.2765855444,
			"0.011": 17.2449952784,
			"0.012": 2.60197804128,
			"0.013": 0.0,
			"0.014": 0.0,
			"0.015": 0.0,
			"0.016": 0.0,
			"0.017": 0.0,
			"0.018": 0.0,
			"0.019": 0.0,
			"0.02": 0.0,
			"0.021": 0.0,
			"0.022": 0.0,
			"0.023": 0.0,
			"0.024": 0.0,
			"0.025": 0.0
		}
	}
}
