{
	 "smiles": "CC(Cl)C(=O)NC(C)C1=CC2=C(CCCC2)C=C1", 
	 "Tm": 380.15, 
	 "num_atms": 38, 
	 "gaussian": { 
		 "optdone": 1, 
		 "sigma_profile": "yes", 
		 "theory": "DFT", 
		 "functional": "B3LYP", 
		 "basiset": "6-31G**", 
		 "properties": { 
			 "R2extent": 7615.6022, 
			 "electric_dipole_moment_norm": 2.6975988601, 
			 "electric_quadrupole_moment_norm": 7.98025794821, 
			 "total_energy": -1173.87224704, 
			 "HOMO_LUMO_gap": 0.22542, 
			 "cosmo_polarized_energy": -9.93, 
			 "cosmo_cavitation_energy": 40.77, 
			 "cosmo_dispersion_energy": -28.54, 
			 "cosmo_repulsion_energy": 2.26, 
			 "cosmo_total_nonelectrostatic_energy": 14.49, 
			 "SMD_solvation_energy": 5.62 
		},
		"coords": [
			{
				"x": 1.492684366,
				"y": 0.1616674573,
				"z": -5.4693791044,
				"element": "C" 
			},
			{
				"x": 1.9322547353,
				"y": -0.58023608,
				"z": -4.2115142097,
				"element": "C" 
			},
			{
				"x": 3.1718791304,
				"y": 0.4238842913,
				"z": -3.2951237435,
				"element": "Cl" 
			},
			{
				"x": 0.7167008702,
				"y": -1.0090293675,
				"z": -3.3692433148,
				"element": "C" 
			},
			{
				"x": -0.1042316724,
				"y": -1.7458907791,
				"z": -3.9115326888,
				"element": "O" 
			},
			{
				"x": 0.6094303642,
				"y": -0.5573385217,
				"z": -2.1021787408,
				"element": "N" 
			},
			{
				"x": -0.5023216267,
				"y": -0.9691929278,
				"z": -1.2276661931,
				"element": "C" 
			},
			{
				"x": -1.7893715328,
				"y": -0.2033879945,
				"z": -1.576859122,
				"element": "C" 
			},
			{
				"x": -0.0872050228,
				"y": -0.8150388454,
				"z": 0.2255522451,
				"element": "C" 
			},
			{
				"x": 0.2040711693,
				"y": 0.4408724222,
				"z": 0.7675124852,
				"element": "C" 
			},
			{
				"x": 0.5956119899,
				"y": 0.6053539793,
				"z": 2.1028511847,
				"element": "C" 
			},
			{
				"x": 0.6957019701,
				"y": -0.527557468,
				"z": 2.9314613149,
				"element": "C" 
			},
			{
				"x": 1.1477033912,
				"y": -0.4172738008,
				"z": 4.3778789946,
				"element": "C" 
			},
			{
				"x": 1.0491704861,
				"y": 1.0068001125,
				"z": 4.9392987593,
				"element": "C" 
			},
			{
				"x": 1.6536334459,
				"y": 2.0108012383,
				"z": 3.9515479065,
				"element": "C" 
			},
			{
				"x": 0.8654018062,
				"y": 2.0031320846,
				"z": 2.6356795727,
				"element": "C" 
			},
			{
				"x": 0.3976512073,
				"y": -1.785250604,
				"z": 2.3901496137,
				"element": "C" 
			},
			{
				"x": 0.0162562537,
				"y": -1.9341076389,
				"z": 1.0600713892,
				"element": "C" 
			},
			{
				"x": 1.0201515133,
				"y": 1.1142949825,
				"z": -5.2145698241,
				"element": "H" 
			},
			{
				"x": 2.3455009031,
				"y": 0.355690193,
				"z": -6.123276796,
				"element": "H" 
			},
			{
				"x": 0.7658655998,
				"y": -0.4625756021,
				"z": -5.9949899009,
				"element": "H" 
			},
			{
				"x": 2.4662168417,
				"y": -1.4953048149,
				"z": -4.4742631894,
				"element": "H" 
			},
			{
				"x": 1.3599745353,
				"y": -0.0047746706,
				"z": -1.7126667442,
				"element": "H" 
			},
			{
				"x": -0.679349797,
				"y": -2.029860291,
				"z": -1.4350686124,
				"element": "H" 
			},
			{
				"x": -2.6155366619,
				"y": -0.5493367723,
				"z": -0.9481058391,
				"element": "H" 
			},
			{
				"x": -1.6660169852,
				"y": 0.8724686296,
				"z": -1.4192944038,
				"element": "H" 
			},
			{
				"x": -2.0478956472,
				"y": -0.3795860486,
				"z": -2.6236706166,
				"element": "H" 
			},
			{
				"x": 0.1225660114,
				"y": 1.32807273,
				"z": 0.1412651239,
				"element": "H" 
			},
			{
				"x": 2.1929826226,
				"y": -0.7539160386,
				"z": 4.4446688303,
				"element": "H" 
			},
			{
				"x": 0.5702916238,
				"y": -1.1149570761,
				"z": 4.996344092,
				"element": "H" 
			},
			{
				"x": 1.5554261768,
				"y": 1.0600589517,
				"z": 5.9096057376,
				"element": "H" 
			},
			{
				"x": -0.0038679613,
				"y": 1.2636874671,
				"z": 5.1175743822,
				"element": "H" 
			},
			{
				"x": 2.701301571,
				"y": 1.743046807,
				"z": 3.7584194512,
				"element": "H" 
			},
			{
				"x": 1.6593285152,
				"y": 3.0211844537,
				"z": 4.3754695757,
				"element": "H" 
			},
			{
				"x": -0.0984997474,
				"y": 2.508546031,
				"z": 2.7963709929,
				"element": "H" 
			},
			{
				"x": 1.3872316571,
				"y": 2.592634879,
				"z": 1.872200612,
				"element": "H" 
			},
			{
				"x": 0.4715835679,
				"y": -2.6644236141,
				"z": 3.0265846601,
				"element": "H" 
			},
			{
				"x": -0.2031756698,
				"y": -2.922957754,
				"z": 0.6656961197,
				"element": "H" 
			}
		],
		 "valence_orbital": [ 
			{
				"type": "occ",
				"energy": -0.303,
				"method": "rhf"
			},
			{
				"type": "occ",
				"energy": -0.25533,
				"method": "rhf"
			},
			{
				"type": "occ",
				"energy": -0.25225,
				"method": "rhf"
			},
			{
				"type": "occ",
				"energy": -0.2445,
				"method": "rhf"
			},
			{
				"type": "occ",
				"energy": -0.23579,
				"method": "rhf"
			},
			{
				"type": "unocc",
				"energy": -0.01037,
				"method": "rhf"
			},
			{
				"type": "unocc",
				"energy": -0.00166,
				"method": "rhf"
			},
			{
				"type": "unocc",
				"energy": 0.0154,
				"method": "rhf"
			},
			{
				"type": "unocc",
				"energy": 0.0246,
				"method": "rhf"
			},
			{
				"type": "unocc",
				"energy": 0.0896,
				"method": "rhf"
			}
		],
		"cosmo_sigma_profile": { 
			"-0.025": 0.0,
			"-0.024": 0.0,
			"-0.023": 0.0,
			"-0.022": 0.0,
			"-0.021": 0.0,
			"-0.02": 0.0,
			"-0.019": 0.0,
			"-0.018": 0.0,
			"-0.017": 0.0,
			"-0.016": 0.0,
			"-0.015": 0.0,
			"-0.014": 0.0,
			"-0.013": 0.0,
			"-0.012": 0.0,
			"-0.011": 0.0,
			"-0.01": 0.0,
			"-0.009": 0.23716582742,
			"-0.008": 3.17605787841,
			"-0.007": 3.45008806086,
			"-0.006": 5.32152172761,
			"-0.005": 15.1582175948,
			"-0.004": 21.6890290672,
			"-0.003": 34.27584295,
			"-0.002": 41.9002027793,
			"-0.001": 43.6863610247,
			"0.0": 40.3438546756,
			"0.001": 29.699688908,
			"0.002": 14.2611003924,
			"0.003": 12.097581274,
			"0.004": 11.9055021099,
			"0.005": 12.9463020639,
			"0.006": 14.1064360194,
			"0.007": 3.03007774051,
			"0.008": 1.30195233755,
			"0.009": 1.41195701835,
			"0.01": 1.24517160194,
			"0.011": 1.72562388157,
			"0.012": 1.52243300261,
			"0.013": 4.19183433076,
			"0.014": 2.3962599182,
			"0.015": 0.0,
			"0.016": 0.0,
			"0.017": 0.0,
			"0.018": 0.0,
			"0.019": 0.0,
			"0.02": 0.0,
			"0.021": 0.0,
			"0.022": 0.0,
			"0.023": 0.0,
			"0.024": 0.0,
			"0.025": 0.0
		}
	}
}
