{
	 "smiles": "CC1=NN(C(Cl)=C1)C1=CC=C(C=C1)C#N", 
	 "Tm": 377.15, 
	 "num_atms": 23, 
	 "gaussian": { 
		 "optdone": 1, 
		 "sigma_profile": "yes", 
		 "theory": "DFT", 
		 "functional": "B3LYP", 
		 "basiset": "6-31G**", 
		 "properties": { 
			 "R2extent": 4821.4718, 
			 "electric_dipole_moment_norm": 5.09056563557, 
			 "electric_quadrupole_moment_norm": 12.5224398389, 
			 "total_energy": -1048.40031356, 
			 "HOMO_LUMO_gap": 0.1822, 
			 "cosmo_polarized_energy": -10.6, 
			 "cosmo_cavitation_energy": 30.72, 
			 "cosmo_dispersion_energy": -21.89, 
			 "cosmo_repulsion_energy": 1.72, 
			 "cosmo_total_nonelectrostatic_energy": 10.55, 
			 "SMD_solvation_energy": 5.91 
		},
		"coords": [
			{
				"x": 3.14231165,
				"y": 2.696319017,
				"z": -2.5882730238,
				"element": "C" 
			},
			{
				"x": 2.1359756101,
				"y": 1.5878346613,
				"z": -2.562127914,
				"element": "C" 
			},
			{
				"x": 1.6419479044,
				"y": 1.1561512204,
				"z": -1.4061506159,
				"element": "N" 
			},
			{
				"x": 0.7512310359,
				"y": 0.1671243193,
				"z": -1.722778837,
				"element": "N" 
			},
			{
				"x": 0.7107404064,
				"y": -0.0177270759,
				"z": -3.0827835983,
				"element": "C" 
			},
			{
				"x": -0.2154370274,
				"y": -1.2459323094,
				"z": -3.8687202784,
				"element": "Cl" 
			},
			{
				"x": 1.5810933169,
				"y": 0.8776076757,
				"z": -3.6575263359,
				"element": "C" 
			},
			{
				"x": 0.0821869924,
				"y": -0.5066591947,
				"z": -0.6687203752,
				"element": "C" 
			},
			{
				"x": 0.7805074163,
				"y": -0.7261887036,
				"z": 0.5264643376,
				"element": "C" 
			},
			{
				"x": 0.1523577247,
				"y": -1.3632911511,
				"z": 1.5876831199,
				"element": "C" 
			},
			{
				"x": -1.1800314042,
				"y": -1.7950099667,
				"z": 1.4647046823,
				"element": "C" 
			},
			{
				"x": -1.8760983336,
				"y": -1.5612278121,
				"z": 0.2679921759,
				"element": "C" 
			},
			{
				"x": -1.2527696714,
				"y": -0.910501635,
				"z": -0.7911738336,
				"element": "C" 
			},
			{
				"x": -1.8265766106,
				"y": -2.4618837779,
				"z": 2.5561582429,
				"element": "C" 
			},
			{
				"x": -2.351144925,
				"y": -3.0039787367,
				"z": 3.4418955011,
				"element": "N" 
			},
			{
				"x": 4.0713392636,
				"y": 2.3770396028,
				"z": -3.0727871622,
				"element": "H" 
			},
			{
				"x": 3.3721906525,
				"y": 3.0108296673,
				"z": -1.56819035,
				"element": "H" 
			},
			{
				"x": 2.7645927671,
				"y": 3.5627018102,
				"z": -3.1418876783,
				"element": "H" 
			},
			{
				"x": 1.7887994352,
				"y": 0.9874956047,
				"z": -4.7107848977,
				"element": "H" 
			},
			{
				"x": 1.8047391241,
				"y": -0.384272337,
				"z": 0.6067879215,
				"element": "H" 
			},
			{
				"x": 0.6900119458,
				"y": -1.5374843732,
				"z": 2.5133771864,
				"element": "H" 
			},
			{
				"x": -2.910006404,
				"y": -1.8759392675,
				"z": 0.1775601925,
				"element": "H" 
			},
			{
				"x": -1.8074608693,
				"y": -0.7051072381,
				"z": -1.6974184595,
				"element": "H" 
			}
		],
		 "valence_orbital": [ 
			{
				"type": "occ",
				"energy": -0.30286,
				"method": "rhf"
			},
			{
				"type": "occ",
				"energy": -0.29393,
				"method": "rhf"
			},
			{
				"type": "occ",
				"energy": -0.28248,
				"method": "rhf"
			},
			{
				"type": "occ",
				"energy": -0.25659,
				"method": "rhf"
			},
			{
				"type": "occ",
				"energy": -0.24558,
				"method": "rhf"
			},
			{
				"type": "unocc",
				"energy": -0.06338,
				"method": "rhf"
			},
			{
				"type": "unocc",
				"energy": -0.03101,
				"method": "rhf"
			},
			{
				"type": "unocc",
				"energy": 0.00079,
				"method": "rhf"
			},
			{
				"type": "unocc",
				"energy": 0.0176,
				"method": "rhf"
			},
			{
				"type": "unocc",
				"energy": 0.03442,
				"method": "rhf"
			}
		],
		"cosmo_sigma_profile": { 
			"-0.025": 0.0,
			"-0.024": 0.0,
			"-0.023": 0.0,
			"-0.022": 0.0,
			"-0.021": 0.0,
			"-0.02": 0.0,
			"-0.019": 0.0,
			"-0.018": 0.0,
			"-0.017": 0.0,
			"-0.016": 0.0,
			"-0.015": 0.0,
			"-0.014": 0.0,
			"-0.013": 0.0,
			"-0.012": 0.0,
			"-0.011": 0.0,
			"-0.01": 0.0,
			"-0.009": 1.02575443781,
			"-0.008": 6.82571095563,
			"-0.007": 10.2224496782,
			"-0.006": 9.85037868988,
			"-0.005": 12.7993098895,
			"-0.004": 14.7808522491,
			"-0.003": 18.9722972862,
			"-0.002": 20.9353153631,
			"-0.001": 25.1648057552,
			"0.0": 25.3548079054,
			"0.001": 27.6848492227,
			"0.002": 21.5900085343,
			"0.003": 15.3630727856,
			"0.004": 4.45723432921,
			"0.005": 4.88419168921,
			"0.006": 3.32114092856,
			"0.007": 5.55287067879,
			"0.008": 4.30896937535,
			"0.009": 4.72411177275,
			"0.01": 3.55607001663,
			"0.011": 4.0860704007,
			"0.012": 2.6644984922,
			"0.013": 2.33791422642,
			"0.014": 0.128635202301,
			"0.015": 0.0,
			"0.016": 0.0,
			"0.017": 0.0,
			"0.018": 0.0,
			"0.019": 0.0,
			"0.02": 0.0,
			"0.021": 0.0,
			"0.022": 0.0,
			"0.023": 0.0,
			"0.024": 0.0,
			"0.025": 0.0
		}
	}
}
