{
	 "smiles": "NC1=NC(=NS1)C1=CC=CS1", 
	 "Tm": 437.15, 
	 "num_atms": 16, 
	 "gaussian": { 
		 "optdone": 1, 
		 "sigma_profile": "yes", 
		 "theory": "DFT", 
		 "functional": "B3LYP", 
		 "basiset": "6-31G**", 
		 "properties": { 
			 "R2extent": 2887.7233, 
			 "electric_dipole_moment_norm": 3.65181134507, 
			 "electric_quadrupole_moment_norm": 24.8143535201, 
			 "total_energy": -1192.2663388, 
			 "HOMO_LUMO_gap": 0.17019, 
			 "cosmo_polarized_energy": -14.13, 
			 "cosmo_cavitation_energy": 24.14, 
			 "cosmo_dispersion_energy": -19.35, 
			 "cosmo_repulsion_energy": 1.46, 
			 "cosmo_total_nonelectrostatic_energy": 6.25, 
			 "SMD_solvation_energy": 1.23 
		},
		"coords": [
			{
				"x": 0.3832832068,
				"y": 4.0361970086,
				"z": -0.2273746982,
				"element": "N" 
			},
			{
				"x": 0.8793197724,
				"y": 2.7981561944,
				"z": 0.0534872857,
				"element": "C" 
			},
			{
				"x": 0.1499291721,
				"y": 1.7154434862,
				"z": 0.1219344168,
				"element": "N" 
			},
			{
				"x": 0.9577198432,
				"y": 0.6560909937,
				"z": 0.4819468295,
				"element": "C" 
			},
			{
				"x": 2.2467046393,
				"y": 0.8431616756,
				"z": 0.6864924946,
				"element": "N" 
			},
			{
				"x": 2.5707428925,
				"y": 2.4812750008,
				"z": 0.4418746835,
				"element": "S" 
			},
			{
				"x": 0.3638558269,
				"y": -0.6665982194,
				"z": 0.6233838128,
				"element": "C" 
			},
			{
				"x": -0.9566051126,
				"y": -1.0109960045,
				"z": 0.4476982465,
				"element": "C" 
			},
			{
				"x": -1.2024180603,
				"y": -2.395835922,
				"z": 0.6651990291,
				"element": "C" 
			},
			{
				"x": -0.0666131131,
				"y": -3.0840029125,
				"z": 1.0026406039,
				"element": "C" 
			},
			{
				"x": 1.325919581,
				"y": -2.0555808065,
				"z": 1.0620044443,
				"element": "S" 
			},
			{
				"x": 1.0094090366,
				"y": 4.7423345193,
				"z": -0.5819635826,
				"element": "H" 
			},
			{
				"x": -0.5524836673,
				"y": 4.0472146135,
				"z": -0.6085179697,
				"element": "H" 
			},
			{
				"x": -1.7092195693,
				"y": -0.2824813078,
				"z": 0.173079019,
				"element": "H" 
			},
			{
				"x": -2.1784974261,
				"y": -2.8586720268,
				"z": 0.5751963015,
				"element": "H" 
			},
			{
				"x": 0.0345529781,
				"y": -4.1384062926,
				"z": 1.2210190831,
				"element": "H" 
			}
		],
		 "valence_orbital": [ 
			{
				"type": "occ",
				"energy": -0.29281,
				"method": "rhf"
			},
			{
				"type": "occ",
				"energy": -0.2767,
				"method": "rhf"
			},
			{
				"type": "occ",
				"energy": -0.25256,
				"method": "rhf"
			},
			{
				"type": "occ",
				"energy": -0.24669,
				"method": "rhf"
			},
			{
				"type": "occ",
				"energy": -0.21312,
				"method": "rhf"
			},
			{
				"type": "unocc",
				"energy": -0.04293,
				"method": "rhf"
			},
			{
				"type": "unocc",
				"energy": -0.00606,
				"method": "rhf"
			},
			{
				"type": "unocc",
				"energy": 0.00587,
				"method": "rhf"
			},
			{
				"type": "unocc",
				"energy": 0.03936,
				"method": "rhf"
			},
			{
				"type": "unocc",
				"energy": 0.05094,
				"method": "rhf"
			}
		],
		"cosmo_sigma_profile": { 
			"-0.025": 0.0,
			"-0.024": 0.0,
			"-0.023": 0.0,
			"-0.022": 0.0,
			"-0.021": 0.0,
			"-0.02": 0.0,
			"-0.019": 0.0,
			"-0.018": 0.0,
			"-0.017": 0.0,
			"-0.016": 0.590951080237,
			"-0.015": 2.6796930644,
			"-0.014": 2.98884913605,
			"-0.013": 2.45114546396,
			"-0.012": 2.82354263047,
			"-0.011": 2.31080664568,
			"-0.01": 1.79204316597,
			"-0.009": 3.25912001184,
			"-0.008": 4.34284213138,
			"-0.007": 4.84912168993,
			"-0.006": 5.79628368922,
			"-0.005": 7.66567411631,
			"-0.004": 8.40137374144,
			"-0.003": 5.7937652814,
			"-0.002": 8.84102387214,
			"-0.001": 11.6165242195,
			"0.0": 13.2497261191,
			"0.001": 14.1143059367,
			"0.002": 16.5940635663,
			"0.003": 24.3919596561,
			"0.004": 22.9547683431,
			"0.005": 8.72446982576,
			"0.006": 4.74484012469,
			"0.007": 4.17981074065,
			"0.008": 3.3324667117,
			"0.009": 2.83140707115,
			"0.01": 3.03607366549,
			"0.011": 1.95239955199,
			"0.012": 1.69414153105,
			"0.013": 0.711198674875,
			"0.014": 0.154984234477,
			"0.015": 0.0,
			"0.016": 0.0,
			"0.017": 0.0,
			"0.018": 0.0,
			"0.019": 0.0,
			"0.02": 0.0,
			"0.021": 0.0,
			"0.022": 0.0,
			"0.023": 0.0,
			"0.024": 0.0,
			"0.025": 0.0
		}
	}
}
