{
	 "smiles": "CC1=CC(=O)CC(C)(C)C1=O", 
	 "Tm": 300.15, 
	 "num_atms": 23, 
	 "gaussian": { 
		 "optdone": 1, 
		 "sigma_profile": "yes", 
		 "theory": "DFT", 
		 "functional": "B3LYP", 
		 "basiset": "6-31G**", 
		 "properties": { 
			 "R2extent": 1975.6431, 
			 "electric_dipole_moment_norm": 0.953722312835, 
			 "electric_quadrupole_moment_norm": 15.3934288922, 
			 "total_energy": -500.635392327, 
			 "HOMO_LUMO_gap": 0.16057, 
			 "cosmo_polarized_energy": -10.06, 
			 "cosmo_cavitation_energy": 25.47, 
			 "cosmo_dispersion_energy": -17.97, 
			 "cosmo_repulsion_energy": 1.44, 
			 "cosmo_total_nonelectrostatic_energy": 8.94, 
			 "SMD_solvation_energy": 5.66 
		},
		"coords": [
			{
				"x": -0.1361338382,
				"y": 1.212699498,
				"z": 3.2795009893,
				"element": "C" 
			},
			{
				"x": 0.2806526963,
				"y": 0.8648369091,
				"z": 1.8804632555,
				"element": "C" 
			},
			{
				"x": 1.0733025935,
				"y": -0.1863756787,
				"z": 1.5791502539,
				"element": "C" 
			},
			{
				"x": 1.5216195802,
				"y": -0.4991625416,
				"z": 0.2033623271,
				"element": "C" 
			},
			{
				"x": 2.1258178455,
				"y": -1.5326174542,
				"z": -0.0416605135,
				"element": "O" 
			},
			{
				"x": 1.24559436,
				"y": 0.555484377,
				"z": -0.8542051198,
				"element": "C" 
			},
			{
				"x": -0.0903579457,
				"y": 1.3100979931,
				"z": -0.6670619308,
				"element": "C" 
			},
			{
				"x": -0.1554977546,
				"y": 2.5271548275,
				"z": -1.6010563152,
				"element": "C" 
			},
			{
				"x": -1.2799531612,
				"y": 0.3616967473,
				"z": -0.9682859942,
				"element": "C" 
			},
			{
				"x": -0.2374673,
				"y": 1.7643600098,
				"z": 0.7941184385,
				"element": "C" 
			},
			{
				"x": -0.8155535647,
				"y": 2.7984398911,
				"z": 1.0926943239,
				"element": "O" 
			},
			{
				"x": -1.2272310127,
				"y": 1.1909258286,
				"z": 3.3747984003,
				"element": "H" 
			},
			{
				"x": 0.3001644291,
				"y": 0.5263705484,
				"z": 4.0083780827,
				"element": "H" 
			},
			{
				"x": 0.1670586018,
				"y": 2.2369085923,
				"z": 3.5191453751,
				"element": "H" 
			},
			{
				"x": 1.4255337471,
				"y": -0.8672626956,
				"z": 2.3510309665,
				"element": "H" 
			},
			{
				"x": 1.2981922051,
				"y": 0.0817877968,
				"z": -1.8390540232,
				"element": "H" 
			},
			{
				"x": 2.0758355013,
				"y": 1.2748003742,
				"z": -0.8019204992,
				"element": "H" 
			},
			{
				"x": -1.0914555055,
				"y": 3.0719270472,
				"z": -1.4613568955,
				"element": "H" 
			},
			{
				"x": 0.6658466697,
				"y": 3.2231678554,
				"z": -1.4032943857,
				"element": "H" 
			},
			{
				"x": -0.0873342714,
				"y": 2.2047050732,
				"z": -2.6451476575,
				"element": "H" 
			},
			{
				"x": -2.2318887574,
				"y": 0.8797018252,
				"z": -0.8180926822,
				"element": "H" 
			},
			{
				"x": -1.2315603277,
				"y": 0.0301981382,
				"z": -2.0107425314,
				"element": "H" 
			},
			{
				"x": -1.2701847904,
				"y": -0.5276449622,
				"z": -0.3307638644,
				"element": "H" 
			}
		],
		 "valence_orbital": [ 
			{
				"type": "occ",
				"energy": -0.3512,
				"method": "rhf"
			},
			{
				"type": "occ",
				"energy": -0.33808,
				"method": "rhf"
			},
			{
				"type": "occ",
				"energy": -0.28427,
				"method": "rhf"
			},
			{
				"type": "occ",
				"energy": -0.25875,
				"method": "rhf"
			},
			{
				"type": "occ",
				"energy": -0.25006,
				"method": "rhf"
			},
			{
				"type": "unocc",
				"energy": -0.08949,
				"method": "rhf"
			},
			{
				"type": "unocc",
				"energy": -0.00658,
				"method": "rhf"
			},
			{
				"type": "unocc",
				"energy": 0.06556,
				"method": "rhf"
			},
			{
				"type": "unocc",
				"energy": 0.08755,
				"method": "rhf"
			},
			{
				"type": "unocc",
				"energy": 0.10799,
				"method": "rhf"
			}
		],
		"cosmo_sigma_profile": { 
			"-0.025": 0.0,
			"-0.024": 0.0,
			"-0.023": 0.0,
			"-0.022": 0.0,
			"-0.021": 0.0,
			"-0.02": 0.0,
			"-0.019": 0.0,
			"-0.018": 0.0,
			"-0.017": 0.0,
			"-0.016": 0.0,
			"-0.015": 0.0,
			"-0.014": 0.0,
			"-0.013": 0.0,
			"-0.012": 0.0,
			"-0.011": 0.0,
			"-0.01": 0.0,
			"-0.009": 0.0,
			"-0.008": 0.298409865389,
			"-0.007": 5.06754293256,
			"-0.006": 6.55497925871,
			"-0.005": 13.7910384137,
			"-0.004": 22.8578112918,
			"-0.003": 24.7750614133,
			"-0.002": 23.8393275873,
			"-0.001": 25.7247344541,
			"0.0": 20.8655646722,
			"0.001": 8.70734290357,
			"0.002": 3.75458631145,
			"0.003": 3.2309712396,
			"0.004": 3.16866616821,
			"0.005": 3.47397942662,
			"0.006": 3.10433784453,
			"0.007": 2.77177470697,
			"0.008": 2.71236954377,
			"0.009": 3.55865171894,
			"0.01": 5.0448127968,
			"0.011": 6.6327603939,
			"0.012": 6.78145115069,
			"0.013": 2.38608042371,
			"0.014": 0.145746088114,
			"0.015": 0.0,
			"0.016": 0.0,
			"0.017": 0.0,
			"0.018": 0.0,
			"0.019": 0.0,
			"0.02": 0.0,
			"0.021": 0.0,
			"0.022": 0.0,
			"0.023": 0.0,
			"0.024": 0.0,
			"0.025": 0.0
		}
	}
}
