{
	 "smiles": "NC(=C(N)C1=CC=CC=C1)C1=CC=CC=C1", 
	 "Tm": 381.15, 
	 "num_atms": 30, 
	 "gaussian": { 
		 "optdone": 1, 
		 "sigma_profile": "yes", 
		 "theory": "DFT", 
		 "functional": "B3LYP", 
		 "basiset": "6-31G**", 
		 "properties": { 
			 "R2extent": 5004.0079, 
			 "electric_dipole_moment_norm": 0.0001, 
			 "electric_quadrupole_moment_norm": 7.12013242293, 
			 "total_energy": -651.420085032, 
			 "HOMO_LUMO_gap": 0.14281, 
			 "cosmo_polarized_energy": -9.51, 
			 "cosmo_cavitation_energy": 32.75, 
			 "cosmo_dispersion_energy": -23.97, 
			 "cosmo_repulsion_energy": 1.88, 
			 "cosmo_total_nonelectrostatic_energy": 10.66, 
			 "SMD_solvation_energy": 5.43 
		},
		"coords": [
			{
				"x": 0.4196901201,
				"y": 0.1995518599,
				"z": 0.7950687862,
				"element": "N" 
			},
			{
				"x": -0.2648968214,
				"y": -0.697992258,
				"z": -0.072475068,
				"element": "C" 
			},
			{
				"x": -1.1096609778,
				"y": -0.289537674,
				"z": -1.0641115866,
				"element": "C" 
			},
			{
				"x": -1.7943230628,
				"y": -1.1870483477,
				"z": -1.9316318014,
				"element": "N" 
			},
			{
				"x": -1.3583711868,
				"y": 1.1353389755,
				"z": -1.4016897836,
				"element": "C" 
			},
			{
				"x": -1.4172891432,
				"y": 1.5295373119,
				"z": -2.7533820883,
				"element": "C" 
			},
			{
				"x": -1.6698393832,
				"y": 2.8540427078,
				"z": -3.1033523124,
				"element": "C" 
			},
			{
				"x": -1.8810683815,
				"y": 3.8186524912,
				"z": -2.1143844944,
				"element": "C" 
			},
			{
				"x": -1.8468006552,
				"y": 3.4409775022,
				"z": -0.7717520246,
				"element": "C" 
			},
			{
				"x": -1.5957568048,
				"y": 2.1140638373,
				"z": -0.4178030429,
				"element": "C" 
			},
			{
				"x": -0.0161402562,
				"y": -2.1228582175,
				"z": 0.2651227701,
				"element": "C" 
			},
			{
				"x": 0.0426468211,
				"y": -2.5170506302,
				"z": 1.6168227956,
				"element": "C" 
			},
			{
				"x": 0.2952453299,
				"y": -3.8415373934,
				"z": 1.9668282476,
				"element": "C" 
			},
			{
				"x": 0.5066683206,
				"y": -4.80613489,
				"z": 0.9778904191,
				"element": "C" 
			},
			{
				"x": 0.4725520218,
				"y": -4.4284627566,
				"z": -0.3647464052,
				"element": "C" 
			},
			{
				"x": 0.2214558511,
				"y": -3.1015681416,
				"z": -0.7187304171,
				"element": "C" 
			},
			{
				"x": 0.4257791023,
				"y": 1.1524881339,
				"z": 0.44919315,
				"element": "H" 
			},
			{
				"x": 1.3764575719,
				"y": -0.1043532212,
				"z": 0.950659987,
				"element": "H" 
			},
			{
				"x": -2.7510701831,
				"y": -0.8830748837,
				"z": -2.0872166195,
				"element": "H" 
			},
			{
				"x": -1.8004818803,
				"y": -2.1399774035,
				"z": -1.585739716,
				"element": "H" 
			},
			{
				"x": -1.2508826708,
				"y": 0.7819222052,
				"z": -3.5221103372,
				"element": "H" 
			},
			{
				"x": -1.6985193319,
				"y": 3.1361533722,
				"z": -4.1524216166,
				"element": "H" 
			},
			{
				"x": -2.0780793173,
				"y": 4.851043806,
				"z": -2.3886622937,
				"element": "H" 
			},
			{
				"x": -2.0309504555,
				"y": 4.1769880945,
				"z": 0.0061626996,
				"element": "H" 
			},
			{
				"x": -1.6142168286,
				"y": 1.8264810597,
				"z": 0.6290040433,
				"element": "H" 
			},
			{
				"x": -0.1239090341,
				"y": -1.7694465575,
				"z": 2.3855292324,
				"element": "H" 
			},
			{
				"x": 0.3238130707,
				"y": -4.1236432062,
				"z": 3.0159018367,
				"element": "H" 
			},
			{
				"x": 0.7037206945,
				"y": -5.8385110466,
				"z": 1.2521956322,
				"element": "H" 
			},
			{
				"x": 0.6568670502,
				"y": -5.1644589719,
				"z": -1.1426357309,
				"element": "H" 
			},
			{
				"x": 0.2400604204,
				"y": -2.8139857574,
				"z": -1.7655342613,
				"element": "H" 
			}
		],
		 "valence_orbital": [ 
			{
				"type": "occ",
				"energy": -0.24848,
				"method": "rhf"
			},
			{
				"type": "occ",
				"energy": -0.24764,
				"method": "rhf"
			},
			{
				"type": "occ",
				"energy": -0.24718,
				"method": "rhf"
			},
			{
				"type": "occ",
				"energy": -0.24626,
				"method": "rhf"
			},
			{
				"type": "occ",
				"energy": -0.1653,
				"method": "rhf"
			},
			{
				"type": "unocc",
				"energy": -0.02249,
				"method": "rhf"
			},
			{
				"type": "unocc",
				"energy": -0.00227,
				"method": "rhf"
			},
			{
				"type": "unocc",
				"energy": 0.00189,
				"method": "rhf"
			},
			{
				"type": "unocc",
				"energy": 0.00611,
				"method": "rhf"
			},
			{
				"type": "unocc",
				"energy": 0.08015,
				"method": "rhf"
			}
		],
		"cosmo_sigma_profile": { 
			"-0.025": 0.0,
			"-0.024": 0.0,
			"-0.023": 0.0,
			"-0.022": 0.0,
			"-0.021": 0.0,
			"-0.02": 0.0,
			"-0.019": 0.0,
			"-0.018": 0.0,
			"-0.017": 0.0,
			"-0.016": 0.0,
			"-0.015": 0.0,
			"-0.014": 0.0,
			"-0.013": 0.0,
			"-0.012": 0.00313744799011,
			"-0.011": 1.08288675588,
			"-0.01": 2.41128236619,
			"-0.009": 2.41834478389,
			"-0.008": 5.19489930573,
			"-0.007": 4.87693618824,
			"-0.006": 8.27253478917,
			"-0.005": 19.2806691131,
			"-0.004": 22.089486286,
			"-0.003": 26.0640147683,
			"-0.002": 17.5619051166,
			"-0.001": 16.5356376438,
			"0.0": 17.0274680054,
			"0.001": 14.3559102621,
			"0.002": 17.1366580598,
			"0.003": 19.4802580519,
			"0.004": 18.5698343465,
			"0.005": 20.9396685416,
			"0.006": 16.6130897852,
			"0.007": 2.21580495899,
			"0.008": 0.909039645143,
			"0.009": 1.43551784164,
			"0.01": 1.56833002239,
			"0.011": 1.66971349617,
			"0.012": 0.945659968018,
			"0.013": 0.770776618293,
			"0.014": 0.778477101261,
			"0.015": 0.607421366934,
			"0.016": 0.0,
			"0.017": 0.0,
			"0.018": 0.0,
			"0.019": 0.0,
			"0.02": 0.0,
			"0.021": 0.0,
			"0.022": 0.0,
			"0.023": 0.0,
			"0.024": 0.0,
			"0.025": 0.0
		}
	}
}
