{
	 "smiles": "OC1=C(C=CC(F)=C1F)[N+]([O-])=O", 
	 "Tm": 334.15, 
	 "num_atms": 15, 
	 "gaussian": { 
		 "optdone": 1, 
		 "sigma_profile": "yes", 
		 "theory": "DFT", 
		 "functional": "B3LYP", 
		 "basiset": "6-31G**", 
		 "properties": { 
			 "R2extent": 2592.2582, 
			 "electric_dipole_moment_norm": 3.81248082749, 
			 "electric_quadrupole_moment_norm": 20.0485375207, 
			 "total_energy": -710.412064272, 
			 "HOMO_LUMO_gap": 0.17549, 
			 "cosmo_polarized_energy": -11.76, 
			 "cosmo_cavitation_energy": 21.52, 
			 "cosmo_dispersion_energy": -15.93, 
			 "cosmo_repulsion_energy": 1.22, 
			 "cosmo_total_nonelectrostatic_energy": 6.81, 
			 "SMD_solvation_energy": 7.38 
		},
		"coords": [
			{
				"x": -1.7981732713,
				"y": -1.7731778849,
				"z": 0.2160858976,
				"element": "O" 
			},
			{
				"x": -0.6049196361,
				"y": -1.3387057168,
				"z": -0.2227897402,
				"element": "C" 
			},
			{
				"x": 0.0667703904,
				"y": -1.8649687399,
				"z": -1.3466154006,
				"element": "C" 
			},
			{
				"x": 1.3101109339,
				"y": -1.3543581335,
				"z": -1.7377128069,
				"element": "C" 
			},
			{
				"x": 1.9190488707,
				"y": -0.3220898654,
				"z": -1.0394493897,
				"element": "C" 
			},
			{
				"x": 1.265335223,
				"y": 0.2058515519,
				"z": 0.0721833471,
				"element": "C" 
			},
			{
				"x": 1.80927906,
				"y": 1.2013311029,
				"z": 0.7794374255,
				"element": "F" 
			},
			{
				"x": 0.0348949028,
				"y": -0.2957161296,
				"z": 0.4635343215,
				"element": "C" 
			},
			{
				"x": -0.605599358,
				"y": 0.2124124037,
				"z": 1.5422916126,
				"element": "F" 
			},
			{
				"x": -0.4983565644,
				"y": -2.9559427409,
				"z": -2.1461269997,
				"element": "N" 
			},
			{
				"x": -1.5882437037,
				"y": -3.4134087857,
				"z": -1.8155151512,
				"element": "O" 
			},
			{
				"x": 0.1645693364,
				"y": -3.3479805034,
				"z": -3.109587864,
				"element": "O" 
			},
			{
				"x": -2.0321885939,
				"y": -1.2469168376,
				"z": 0.9975790934,
				"element": "H" 
			},
			{
				"x": 1.7790970531,
				"y": -1.7962156104,
				"z": -2.6070299412,
				"element": "H" 
			},
			{
				"x": 2.8808753574,
				"y": 0.0797858898,
				"z": -1.3341844042,
				"element": "H" 
			}
		],
		 "valence_orbital": [ 
			{
				"type": "occ",
				"energy": -0.30802,
				"method": "rhf"
			},
			{
				"type": "occ",
				"energy": -0.30699,
				"method": "rhf"
			},
			{
				"type": "occ",
				"energy": -0.28867,
				"method": "rhf"
			},
			{
				"type": "occ",
				"energy": -0.28264,
				"method": "rhf"
			},
			{
				"type": "occ",
				"energy": -0.26494,
				"method": "rhf"
			},
			{
				"type": "unocc",
				"energy": -0.08945,
				"method": "rhf"
			},
			{
				"type": "unocc",
				"energy": -0.03123,
				"method": "rhf"
			},
			{
				"type": "unocc",
				"energy": -0.0033,
				"method": "rhf"
			},
			{
				"type": "unocc",
				"energy": 0.02253,
				"method": "rhf"
			},
			{
				"type": "unocc",
				"energy": 0.07927,
				"method": "rhf"
			}
		],
		"cosmo_sigma_profile": { 
			"-0.025": 0.0,
			"-0.024": 0.0,
			"-0.023": 0.0,
			"-0.022": 0.0,
			"-0.021": 0.0,
			"-0.02": 0.0,
			"-0.019": 0.0,
			"-0.018": 0.402261840419,
			"-0.017": 0.772661344749,
			"-0.016": 0.968467272783,
			"-0.015": 0.377967454493,
			"-0.014": 0.271865493271,
			"-0.013": 1.41860678685,
			"-0.012": 1.41989593364,
			"-0.011": 0.834125129202,
			"-0.01": 1.0863253725,
			"-0.009": 2.6849569317,
			"-0.008": 4.45815158084,
			"-0.007": 5.19254543305,
			"-0.006": 5.73175274172,
			"-0.005": 5.5994937456,
			"-0.004": 8.70941827472,
			"-0.003": 17.8553486214,
			"-0.002": 15.1203721498,
			"-0.001": 12.0835361549,
			"0.0": 10.4714806538,
			"0.001": 10.4070552314,
			"0.002": 16.2390892682,
			"0.003": 11.6428112103,
			"0.004": 3.61079769693,
			"0.005": 3.19886858715,
			"0.006": 3.92310477328,
			"0.007": 5.48948145833,
			"0.008": 9.38040063386,
			"0.009": 6.63895728971,
			"0.01": 4.73877156926,
			"0.011": 1.70814275934,
			"0.012": 1.3291276016,
			"0.013": 0.215009588193,
			"0.014": 0.0,
			"0.015": 0.0,
			"0.016": 0.0,
			"0.017": 0.0,
			"0.018": 0.0,
			"0.019": 0.0,
			"0.02": 0.0,
			"0.021": 0.0,
			"0.022": 0.0,
			"0.023": 0.0,
			"0.024": 0.0,
			"0.025": 0.0
		}
	}
}
