{
	 "smiles": "BrC1=CC=C(C=C1)N1CCCCC1", 
	 "Tm": 348.65, 
	 "num_atms": 27, 
	 "gaussian": { 
		 "optdone": 1, 
		 "sigma_profile": "yes", 
		 "theory": "DFT", 
		 "functional": "B3LYP", 
		 "basiset": "6-31G**", 
		 "properties": { 
			 "R2extent": 6393.7404, 
			 "electric_dipole_moment_norm": 4.27579435427, 
			 "electric_quadrupole_moment_norm": 10.4130556284, 
			 "total_energy": -3053.76270772, 
			 "HOMO_LUMO_gap": 0.18485, 
			 "cosmo_polarized_energy": -5.8, 
			 "cosmo_cavitation_energy": 30.22, 
			 "cosmo_dispersion_energy": -23.03, 
			 "cosmo_repulsion_energy": 1.81, 
			 "cosmo_total_nonelectrostatic_energy": 9.01, 
			 "SMD_solvation_energy": 2.62 
		},
		"coords": [
			{
				"x": 4.8205394204,
				"y": 2.4960616042,
				"z": 1.4213401771,
				"element": "Br" 
			},
			{
				"x": 3.1012621155,
				"y": 1.7602020404,
				"z": 1.0126579215,
				"element": "C" 
			},
			{
				"x": 2.0265671487,
				"y": 1.9822186105,
				"z": 1.8726676235,
				"element": "C" 
			},
			{
				"x": 0.7779389373,
				"y": 1.4466340548,
				"z": 1.5796760708,
				"element": "C" 
			},
			{
				"x": 0.5579296645,
				"y": 0.6789995145,
				"z": 0.4118835688,
				"element": "C" 
			},
			{
				"x": 1.6678474995,
				"y": 0.4720850487,
				"z": -0.4379208874,
				"element": "C" 
			},
			{
				"x": 2.9222005528,
				"y": 1.0017724358,
				"z": -0.1385470244,
				"element": "C" 
			},
			{
				"x": -0.6808858322,
				"y": 0.1108471509,
				"z": 0.1292022881,
				"element": "N" 
			},
			{
				"x": -1.9405950622,
				"y": 0.6857327367,
				"z": 0.5976924743,
				"element": "C" 
			},
			{
				"x": -2.86167665,
				"y": -0.4113290716,
				"z": 1.167098955,
				"element": "C" 
			},
			{
				"x": -2.70857445,
				"y": -1.7256698993,
				"z": 0.3645720247,
				"element": "C" 
			},
			{
				"x": -2.2188312789,
				"y": -1.4258488244,
				"z": -1.0570030417,
				"element": "C" 
			},
			{
				"x": -0.8205391772,
				"y": -0.7791166698,
				"z": -1.0237966104,
				"element": "C" 
			},
			{
				"x": 2.1645271602,
				"y": 2.5632136419,
				"z": 2.777955934,
				"element": "H" 
			},
			{
				"x": -0.0248460313,
				"y": 1.6097421162,
				"z": 2.2894187871,
				"element": "H" 
			},
			{
				"x": 1.5599685659,
				"y": -0.0958558079,
				"z": -1.3532638516,
				"element": "H" 
			},
			{
				"x": 3.7540255819,
				"y": 0.8284021831,
				"z": -0.8125206798,
				"element": "H" 
			},
			{
				"x": -1.7459667658,
				"y": 1.4532180226,
				"z": 1.3447458674,
				"element": "H" 
			},
			{
				"x": -2.4431778643,
				"y": 1.2000349654,
				"z": -0.2378589057,
				"element": "H" 
			},
			{
				"x": -2.6251812596,
				"y": -0.5892680596,
				"z": 2.2216019768,
				"element": "H" 
			},
			{
				"x": -3.8971381824,
				"y": -0.051945492,
				"z": 1.1286593946,
				"element": "H" 
			},
			{
				"x": -1.9785563467,
				"y": -2.3775242898,
				"z": 0.8585908748,
				"element": "H" 
			},
			{
				"x": -3.6548001003,
				"y": -2.2762006105,
				"z": 0.3405604288,
				"element": "H" 
			},
			{
				"x": -2.9330600865,
				"y": -0.7629558137,
				"z": -1.5607664692,
				"element": "H" 
			},
			{
				"x": -2.1683486688,
				"y": -2.3379256353,
				"z": -1.6608153367,
				"element": "H" 
			},
			{
				"x": -0.6300832403,
				"y": -0.2503321338,
				"z": -1.9742808832,
				"element": "H" 
			},
			{
				"x": -0.06104565,
				"y": -1.5665918179,
				"z": -0.9391506773,
				"element": "H" 
			}
		],
		 "valence_orbital": [ 
			{
				"type": "occ",
				"energy": -0.30767,
				"method": "rhf"
			},
			{
				"type": "occ",
				"energy": -0.27414,
				"method": "rhf"
			},
			{
				"type": "occ",
				"energy": -0.25897,
				"method": "rhf"
			},
			{
				"type": "occ",
				"energy": -0.25148,
				"method": "rhf"
			},
			{
				"type": "occ",
				"energy": -0.1877,
				"method": "rhf"
			},
			{
				"type": "unocc",
				"energy": -0.00285,
				"method": "rhf"
			},
			{
				"type": "unocc",
				"energy": 0.01135,
				"method": "rhf"
			},
			{
				"type": "unocc",
				"energy": 0.02069,
				"method": "rhf"
			},
			{
				"type": "unocc",
				"energy": 0.07441,
				"method": "rhf"
			},
			{
				"type": "unocc",
				"energy": 0.101,
				"method": "rhf"
			}
		],
		"cosmo_sigma_profile": { 
			"-0.025": 0.0,
			"-0.024": 0.0,
			"-0.023": 0.0,
			"-0.022": 0.0,
			"-0.021": 0.0,
			"-0.02": 0.0,
			"-0.019": 0.0,
			"-0.018": 0.0,
			"-0.017": 0.0,
			"-0.016": 0.0,
			"-0.015": 0.0,
			"-0.014": 0.0,
			"-0.013": 0.0,
			"-0.012": 0.0,
			"-0.011": 0.0,
			"-0.01": 0.0,
			"-0.009": 0.0,
			"-0.008": 0.1656700063,
			"-0.007": 2.27536717229,
			"-0.006": 6.02081728692,
			"-0.005": 8.02947389055,
			"-0.004": 13.4617219875,
			"-0.003": 29.3873799696,
			"-0.002": 34.6850257815,
			"-0.001": 30.2554181634,
			"0.0": 22.9956772184,
			"0.001": 17.40554946,
			"0.002": 10.5836185953,
			"0.003": 14.2727809225,
			"0.004": 17.0123857921,
			"0.005": 24.1664347735,
			"0.006": 9.76930179557,
			"0.007": 0.553996203588,
			"0.008": 0.00784906690246,
			"0.009": 0.0,
			"0.01": 0.0,
			"0.011": 0.0,
			"0.012": 0.0,
			"0.013": 0.0,
			"0.014": 0.0,
			"0.015": 0.0,
			"0.016": 0.0,
			"0.017": 0.0,
			"0.018": 0.0,
			"0.019": 0.0,
			"0.02": 0.0,
			"0.021": 0.0,
			"0.022": 0.0,
			"0.023": 0.0,
			"0.024": 0.0,
			"0.025": 0.0
		}
	}
}
