{
	 "smiles": "CC(C(O)=O)S(=O)(=O)CC1=CC=C(Br)C=C1", 
	 "Tm": 409.15, 
	 "num_atms": 27, 
	 "gaussian": { 
		 "optdone": 1, 
		 "sigma_profile": "yes", 
		 "theory": "DFT", 
		 "functional": "B3LYP", 
		 "basiset": "6-31G**", 
		 "properties": { 
			 "R2extent": 7661.1926, 
			 "electric_dipole_moment_norm": 1.2794099304, 
			 "electric_quadrupole_moment_norm": 10.525540218, 
			 "total_energy": -3658.13691077, 
			 "HOMO_LUMO_gap": 0.20852, 
			 "cosmo_polarized_energy": -17.17, 
			 "cosmo_cavitation_energy": 34.02, 
			 "cosmo_dispersion_energy": -24.45, 
			 "cosmo_repulsion_energy": 1.85, 
			 "cosmo_total_nonelectrostatic_energy": 11.42, 
			 "SMD_solvation_energy": 4.73 
		},
		"coords": [
			{
				"x": 1.0168842773,
				"y": 0.3083432208,
				"z": -2.0164898201,
				"element": "C" 
			},
			{
				"x": 1.0324718517,
				"y": 1.3072029507,
				"z": -0.8667723887,
				"element": "C" 
			},
			{
				"x": 2.049690985,
				"y": 0.9655425814,
				"z": 0.2409236474,
				"element": "C" 
			},
			{
				"x": 2.0925075123,
				"y": 1.8065558733,
				"z": 1.2864419154,
				"element": "O" 
			},
			{
				"x": 2.7770972,
				"y": 0.0048946952,
				"z": 0.1635667916,
				"element": "O" 
			},
			{
				"x": -0.6339177426,
				"y": 1.6431623499,
				"z": -0.1360625355,
				"element": "S" 
			},
			{
				"x": -1.6299400217,
				"y": 1.7135263403,
				"z": -1.2126000367,
				"element": "O" 
			},
			{
				"x": -0.4109174337,
				"y": 2.819598802,
				"z": 0.7479595187,
				"element": "O" 
			},
			{
				"x": -1.0512999543,
				"y": 0.2502350531,
				"z": 0.9938213012,
				"element": "C" 
			},
			{
				"x": -1.2751277206,
				"y": -1.0843792598,
				"z": 0.3423106209,
				"element": "C" 
			},
			{
				"x": -0.3164374824,
				"y": -2.0996560663,
				"z": 0.4640451814,
				"element": "C" 
			},
			{
				"x": -0.5206075617,
				"y": -3.3484968976,
				"z": -0.122288535,
				"element": "C" 
			},
			{
				"x": -1.6946131368,
				"y": -3.5782257768,
				"z": -0.8380604704,
				"element": "C" 
			},
			{
				"x": -1.985772447,
				"y": -5.2847520662,
				"z": -1.6405587717,
				"element": "Br" 
			},
			{
				"x": -2.6609097453,
				"y": -2.5816395159,
				"z": -0.9764612547,
				"element": "C" 
			},
			{
				"x": -2.446894313,
				"y": -1.3388442288,
				"z": -0.3842203858,
				"element": "C" 
			},
			{
				"x": 0.2440706527,
				"y": 0.5786028957,
				"z": -2.7383174945,
				"element": "H" 
			},
			{
				"x": 1.9903148945,
				"y": 0.3299890371,
				"z": -2.5122129575,
				"element": "H" 
			},
			{
				"x": 0.8453731374,
				"y": -0.7085129987,
				"z": -1.6639524407,
				"element": "H" 
			},
			{
				"x": 1.2658041757,
				"y": 2.315859547,
				"z": -1.2335859839,
				"element": "H" 
			},
			{
				"x": 1.3663323381,
				"y": 2.4665144036,
				"z": 1.2295021292,
				"element": "H" 
			},
			{
				"x": -1.9518571614,
				"y": 0.6410270014,
				"z": 1.478875289,
				"element": "H" 
			},
			{
				"x": -0.2492573821,
				"y": 0.2311453605,
				"z": 1.7357672472,
				"element": "H" 
			},
			{
				"x": 0.6045887161,
				"y": -1.9147903579,
				"z": 1.0101754364,
				"element": "H" 
			},
			{
				"x": 0.2226910567,
				"y": -4.1310075202,
				"z": -0.0235055332,
				"element": "H" 
			},
			{
				"x": -3.5679318155,
				"y": -2.7754034671,
				"z": -1.5372475993,
				"element": "H" 
			},
			{
				"x": -3.1917428793,
				"y": -0.5574919567,
				"z": -0.4978528705,
				"element": "H" 
			}
		],
		 "valence_orbital": [ 
			{
				"type": "occ",
				"energy": -0.31024,
				"method": "rhf"
			},
			{
				"type": "occ",
				"energy": -0.29836,
				"method": "rhf"
			},
			{
				"type": "occ",
				"energy": -0.28857,
				"method": "rhf"
			},
			{
				"type": "occ",
				"energy": -0.2807,
				"method": "rhf"
			},
			{
				"type": "occ",
				"energy": -0.2553,
				"method": "rhf"
			},
			{
				"type": "unocc",
				"energy": -0.04678,
				"method": "rhf"
			},
			{
				"type": "unocc",
				"energy": -0.03332,
				"method": "rhf"
			},
			{
				"type": "unocc",
				"energy": -0.02428,
				"method": "rhf"
			},
			{
				"type": "unocc",
				"energy": -0.00477,
				"method": "rhf"
			},
			{
				"type": "unocc",
				"energy": 0.03251,
				"method": "rhf"
			}
		],
		"cosmo_sigma_profile": { 
			"-0.025": 0.0,
			"-0.024": 0.0,
			"-0.023": 0.0,
			"-0.022": 0.0,
			"-0.021": 0.0,
			"-0.02": 0.0,
			"-0.019": 0.0,
			"-0.018": 0.0,
			"-0.017": 0.0,
			"-0.016": 0.0,
			"-0.015": 0.0,
			"-0.014": 0.0403158395844,
			"-0.013": 0.398867297745,
			"-0.012": 1.1050507771,
			"-0.011": 3.33222299932,
			"-0.01": 6.28766715868,
			"-0.009": 7.01825220858,
			"-0.008": 7.54522633076,
			"-0.007": 12.7510311843,
			"-0.006": 15.2216468954,
			"-0.005": 14.0884919565,
			"-0.004": 13.7899715413,
			"-0.003": 13.6602191484,
			"-0.002": 17.0811087168,
			"-0.001": 18.4878060887,
			"0.0": 15.5311799404,
			"0.001": 18.814230071,
			"0.002": 21.6318739753,
			"0.003": 16.0899529653,
			"0.004": 15.4926058397,
			"0.005": 8.2596185165,
			"0.006": 4.5196731664,
			"0.007": 5.8412875904,
			"0.008": 6.50274585347,
			"0.009": 8.70399486567,
			"0.01": 10.3265619802,
			"0.011": 9.60620792382,
			"0.012": 1.80500234637,
			"0.013": 0.0272618353806,
			"0.014": 0.0,
			"0.015": 0.0,
			"0.016": 0.0,
			"0.017": 0.0,
			"0.018": 0.0,
			"0.019": 0.0,
			"0.02": 0.0,
			"0.021": 0.0,
			"0.022": 0.0,
			"0.023": 0.0,
			"0.024": 0.0,
			"0.025": 0.0
		}
	}
}
