{
	 "smiles": "O=C(N1CCNCC1)C1=CC=CC=C1", 
	 "Tm": 336.65, 
	 "num_atms": 28, 
	 "gaussian": { 
		 "optdone": 1, 
		 "sigma_profile": "yes", 
		 "theory": "DFT", 
		 "functional": "B3LYP", 
		 "basiset": "6-31G**", 
		 "properties": { 
			 "R2extent": 3711.4595, 
			 "electric_dipole_moment_norm": 4.02851442966, 
			 "electric_quadrupole_moment_norm": 14.1709271609, 
			 "total_energy": -612.330335946, 
			 "HOMO_LUMO_gap": 0.19346, 
			 "cosmo_polarized_energy": -13.56, 
			 "cosmo_cavitation_energy": 29.82, 
			 "cosmo_dispersion_energy": -21.94, 
			 "cosmo_repulsion_energy": 1.73, 
			 "cosmo_total_nonelectrostatic_energy": 9.6, 
			 "SMD_solvation_energy": 2.02 
		},
		"coords": [
			{
				"x": -2.2945263162,
				"y": 0.9767944643,
				"z": 1.7640227621,
				"element": "O" 
			},
			{
				"x": -1.1507517046,
				"y": 0.7683821294,
				"z": 1.3591401633,
				"element": "C" 
			},
			{
				"x": -0.4329044566,
				"y": 1.7572674394,
				"z": 0.7278227056,
				"element": "N" 
			},
			{
				"x": -1.0976881752,
				"y": 3.0665149097,
				"z": 0.6127264729,
				"element": "C" 
			},
			{
				"x": -0.0936007323,
				"y": 4.1296196099,
				"z": 0.1815298892,
				"element": "C" 
			},
			{
				"x": 0.4441439001,
				"y": 3.8226418479,
				"z": -1.1532635501,
				"element": "N" 
			},
			{
				"x": 0.5714775545,
				"y": 2.3828706457,
				"z": -1.4192123394,
				"element": "C" 
			},
			{
				"x": 0.7278617711,
				"y": 1.5370041966,
				"z": -0.1478906393,
				"element": "C" 
			},
			{
				"x": -0.5061383187,
				"y": -0.5740455761,
				"z": 1.5825206409,
				"element": "C" 
			},
			{
				"x": 0.826649962,
				"y": -0.7295630466,
				"z": 1.9881524528,
				"element": "C" 
			},
			{
				"x": 1.3356139409,
				"y": -1.9987990529,
				"z": 2.2678649047,
				"element": "C" 
			},
			{
				"x": 0.5210030921,
				"y": -3.1244219811,
				"z": 2.1350952509,
				"element": "C" 
			},
			{
				"x": -0.811918249,
				"y": -2.9756088216,
				"z": 1.7420643806,
				"element": "C" 
			},
			{
				"x": -1.325793755,
				"y": -1.7072337599,
				"z": 1.4820745592,
				"element": "C" 
			},
			{
				"x": -1.9282776805,
				"y": 3.0148257362,
				"z": -0.1040986115,
				"element": "H" 
			},
			{
				"x": -1.534487884,
				"y": 3.3153598997,
				"z": 1.581911342,
				"element": "H" 
			},
			{
				"x": 0.6898046147,
				"y": 4.1979083538,
				"z": 0.9558780894,
				"element": "H" 
			},
			{
				"x": -0.5995227708,
				"y": 5.102301553,
				"z": 0.154919998,
				"element": "H" 
			},
			{
				"x": 1.341579895,
				"y": 4.2795481747,
				"z": -1.2715837533,
				"element": "H" 
			},
			{
				"x": -0.3159982215,
				"y": 2.0279597848,
				"z": -1.9608082771,
				"element": "H" 
			},
			{
				"x": 1.4290794916,
				"y": 2.2128172148,
				"z": -2.0782046097,
				"element": "H" 
			},
			{
				"x": 0.7931834248,
				"y": 0.4779540707,
				"z": -0.4051939768,
				"element": "H" 
			},
			{
				"x": 1.6636499747,
				"y": 1.8098718358,
				"z": 0.3618269211,
				"element": "H" 
			},
			{
				"x": 1.4608480771,
				"y": 0.1428088113,
				"z": 2.1115070849,
				"element": "H" 
			},
			{
				"x": 2.3660367675,
				"y": -2.1070473676,
				"z": 2.5943202551,
				"element": "H" 
			},
			{
				"x": 0.9197709104,
				"y": -4.1125622602,
				"z": 2.3464258492,
				"element": "H" 
			},
			{
				"x": -1.4522582684,
				"y": -3.8480209256,
				"z": 1.6484981629,
				"element": "H" 
			},
			{
				"x": -2.3671368435,
				"y": -1.571247886,
				"z": 1.2095538722,
				"element": "H" 
			}
		],
		 "valence_orbital": [ 
			{
				"type": "occ",
				"energy": -0.25963,
				"method": "rhf"
			},
			{
				"type": "occ",
				"energy": -0.25518,
				"method": "rhf"
			},
			{
				"type": "occ",
				"energy": -0.24165,
				"method": "rhf"
			},
			{
				"type": "occ",
				"energy": -0.23131,
				"method": "rhf"
			},
			{
				"type": "occ",
				"energy": -0.22013,
				"method": "rhf"
			},
			{
				"type": "unocc",
				"energy": -0.02667,
				"method": "rhf"
			},
			{
				"type": "unocc",
				"energy": -0.0049,
				"method": "rhf"
			},
			{
				"type": "unocc",
				"energy": 0.05462,
				"method": "rhf"
			},
			{
				"type": "unocc",
				"energy": 0.06805,
				"method": "rhf"
			},
			{
				"type": "unocc",
				"energy": 0.09122,
				"method": "rhf"
			}
		],
		"cosmo_sigma_profile": { 
			"-0.025": 0.0,
			"-0.024": 0.0,
			"-0.023": 0.0,
			"-0.022": 0.0,
			"-0.021": 0.0,
			"-0.02": 0.0,
			"-0.019": 0.0,
			"-0.018": 0.0,
			"-0.017": 0.0,
			"-0.016": 0.0,
			"-0.015": 0.0,
			"-0.014": 0.0,
			"-0.013": 0.0,
			"-0.012": 0.0,
			"-0.011": 0.145674292927,
			"-0.01": 1.26059277939,
			"-0.009": 1.45205618556,
			"-0.008": 1.47857591301,
			"-0.007": 1.59294919142,
			"-0.006": 9.92843328862,
			"-0.005": 18.3340368586,
			"-0.004": 28.9448350293,
			"-0.003": 32.7851591581,
			"-0.002": 23.9194018117,
			"-0.001": 18.8862510071,
			"0.0": 12.8553525227,
			"0.001": 11.4292995457,
			"0.002": 10.7471285205,
			"0.003": 10.0030525665,
			"0.004": 11.732910279,
			"0.005": 10.8601010498,
			"0.006": 2.62287539673,
			"0.007": 2.39462766196,
			"0.008": 1.70456441573,
			"0.009": 2.69233379705,
			"0.01": 2.14805103294,
			"0.011": 2.38374708885,
			"0.012": 1.8628315091,
			"0.013": 3.34587908767,
			"0.014": 5.54196254238,
			"0.015": 1.82960665995,
			"0.016": 0.692010934305,
			"0.017": 0.506260090209,
			"0.018": 0.469239175331,
			"0.019": 0.0372340138642,
			"0.02": 0.0,
			"0.021": 0.0,
			"0.022": 0.0,
			"0.023": 0.0,
			"0.024": 0.0,
			"0.025": 0.0
		}
	}
}
