{
	 "smiles": "OC(=O)C(CC1=CC2=C(C=CC=C2)C=C1)NC(=O)OCC1C2=C(C=CC=C2)C2=C1C=CC=C2", 
	 "Tm": 464.15, 
	 "num_atms": 56, 
	 "gaussian": { 
		 "optdone": 1, 
		 "sigma_profile": "yes", 
		 "theory": "DFT", 
		 "functional": "B3LYP", 
		 "basiset": "6-31G**", 
		 "properties": { 
			 "R2extent": 17543.3604, 
			 "electric_dipole_moment_norm": 3.03613305868, 
			 "electric_quadrupole_moment_norm": 28.6075095982, 
			 "total_energy": -1436.55186163, 
			 "HOMO_LUMO_gap": 0.17253, 
			 "cosmo_polarized_energy": -24.03, 
			 "cosmo_cavitation_energy": 59.81, 
			 "cosmo_dispersion_energy": -38.74, 
			 "cosmo_repulsion_energy": 2.85, 
			 "cosmo_total_nonelectrostatic_energy": 23.93, 
			 "SMD_solvation_energy": 10.53 
		},
		"coords": [
			{
				"x": -4.4849686074,
				"y": -1.1434518692,
				"z": 2.4496881011,
				"element": "O" 
			},
			{
				"x": -3.3985046976,
				"y": -0.6178199914,
				"z": 3.0500520002,
				"element": "C" 
			},
			{
				"x": -3.4873397827,
				"y": 0.2384306262,
				"z": 3.893529386,
				"element": "O" 
			},
			{
				"x": -2.0571922042,
				"y": -1.2726088538,
				"z": 2.6542259164,
				"element": "C" 
			},
			{
				"x": -0.8538170522,
				"y": -0.3655239373,
				"z": 2.9820574798,
				"element": "C" 
			},
			{
				"x": 0.4667537484,
				"y": -1.0928173244,
				"z": 2.8698031394,
				"element": "C" 
			},
			{
				"x": 1.2438142965,
				"y": -1.0131917774,
				"z": 1.7307942918,
				"element": "C" 
			},
			{
				"x": 2.4688287685,
				"y": -1.7238652036,
				"z": 1.6086198791,
				"element": "C" 
			},
			{
				"x": 2.90518449,
				"y": -2.5460567986,
				"z": 2.6974627352,
				"element": "C" 
			},
			{
				"x": 4.129272996,
				"y": -3.2566762262,
				"z": 2.576783553,
				"element": "C" 
			},
			{
				"x": 4.8883885289,
				"y": -3.1616534522,
				"z": 1.4318495349,
				"element": "C" 
			},
			{
				"x": 4.4570218726,
				"y": -2.3491344867,
				"z": 0.3543119994,
				"element": "C" 
			},
			{
				"x": 3.2758252797,
				"y": -1.6467938445,
				"z": 0.44140769,
				"element": "C" 
			},
			{
				"x": 2.0941325524,
				"y": -2.6143787345,
				"z": 3.8626578912,
				"element": "C" 
			},
			{
				"x": 0.9152959596,
				"y": -1.9113999024,
				"z": 3.9456115403,
				"element": "C" 
			},
			{
				"x": -2.1023794624,
				"y": -1.798475308,
				"z": 1.2842182636,
				"element": "N" 
			},
			{
				"x": -2.1909930353,
				"y": -1.0407394548,
				"z": 0.1273389278,
				"element": "C" 
			},
			{
				"x": -2.0144394093,
				"y": -1.5005779187,
				"z": -0.9841536581,
				"element": "O" 
			},
			{
				"x": -2.5603904097,
				"y": 0.2332602139,
				"z": 0.3948343867,
				"element": "O" 
			},
			{
				"x": -3.000821611,
				"y": 1.0070319756,
				"z": -0.7508810625,
				"element": "C" 
			},
			{
				"x": -1.8487187154,
				"y": 1.6285531764,
				"z": -1.5602518028,
				"element": "C" 
			},
			{
				"x": -1.1769416452,
				"y": 2.8257424636,
				"z": -0.9026306125,
				"element": "C" 
			},
			{
				"x": -1.3434732375,
				"y": 3.9779139671,
				"z": -1.7013727671,
				"element": "C" 
			},
			{
				"x": -0.8160518875,
				"y": 5.2058293363,
				"z": -1.2973499056,
				"element": "C" 
			},
			{
				"x": -0.1182064158,
				"y": 5.2761685347,
				"z": -0.089649079,
				"element": "C" 
			},
			{
				"x": 0.054264723,
				"y": 4.1346381714,
				"z": 0.6994074628,
				"element": "C" 
			},
			{
				"x": -0.4736386397,
				"y": 2.9027528096,
				"z": 0.2947481051,
				"element": "C" 
			},
			{
				"x": -2.0922997524,
				"y": 3.6087771733,
				"z": -2.9096719228,
				"element": "C" 
			},
			{
				"x": -2.3831613703,
				"y": 2.2311022392,
				"z": -2.8526955833,
				"element": "C" 
			},
			{
				"x": -3.0717689655,
				"y": 1.6088491453,
				"z": -3.8886235403,
				"element": "C" 
			},
			{
				"x": -3.4765569694,
				"y": 2.3749026846,
				"z": -4.9882465911,
				"element": "C" 
			},
			{
				"x": -3.1923324394,
				"y": 3.7437206058,
				"z": -5.0440398367,
				"element": "C" 
			},
			{
				"x": -2.496543282,
				"y": 4.3709124752,
				"z": -4.0077949015,
				"element": "C" 
			},
			{
				"x": -4.1774172323,
				"y": -1.7835594012,
				"z": 1.7845770518,
				"element": "H" 
			},
			{
				"x": -1.9886441829,
				"y": -2.1653648869,
				"z": 3.2905967996,
				"element": "H" 
			},
			{
				"x": -1.0084261503,
				"y": 0.008333944,
				"z": 3.9980172105,
				"element": "H" 
			},
			{
				"x": -0.8854388585,
				"y": 0.5022893259,
				"z": 2.320014551,
				"element": "H" 
			},
			{
				"x": 0.9271396434,
				"y": -0.3869993405,
				"z": 0.899390289,
				"element": "H" 
			},
			{
				"x": 4.4577137871,
				"y": -3.8782335871,
				"z": 3.4059872064,
				"element": "H" 
			},
			{
				"x": 5.8225077726,
				"y": -3.7097681634,
				"z": 1.3503538571,
				"element": "H" 
			},
			{
				"x": 5.0644583608,
				"y": -2.2820742916,
				"z": -0.543571088,
				"element": "H" 
			},
			{
				"x": 2.9437324769,
				"y": -1.0230848241,
				"z": -0.3845426661,
				"element": "H" 
			},
			{
				"x": 2.4251788564,
				"y": -3.2285595255,
				"z": 4.6963685265,
				"element": "H" 
			},
			{
				"x": 0.315951142,
				"y": -1.9672817138,
				"z": 4.8516137823,
				"element": "H" 
			},
			{
				"x": -1.6028960423,
				"y": -2.6616843693,
				"z": 1.1164412429,
				"element": "H" 
			},
			{
				"x": -3.5905684424,
				"y": 0.3510320738,
				"z": -1.3937689466,
				"element": "H" 
			},
			{
				"x": -3.6413809694,
				"y": 1.7819372018,
				"z": -0.3271240665,
				"element": "H" 
			},
			{
				"x": -1.1315717951,
				"y": 0.8275559241,
				"z": -1.7779837074,
				"element": "H" 
			},
			{
				"x": -0.9409204461,
				"y": 6.093668237,
				"z": -1.9110959743,
				"element": "H" 
			},
			{
				"x": 0.2978147384,
				"y": 6.2246643034,
				"z": 0.2377763746,
				"element": "H" 
			},
			{
				"x": 0.603111903,
				"y": 4.2028371418,
				"z": 1.6340858739,
				"element": "H" 
			},
			{
				"x": -0.3259931278,
				"y": 2.0224210749,
				"z": 0.9112419124,
				"element": "H" 
			},
			{
				"x": -3.2850140477,
				"y": 0.5435007874,
				"z": -3.8553619739,
				"element": "H" 
			},
			{
				"x": -4.0125792919,
				"y": 1.9020707603,
				"z": -5.8059875843,
				"element": "H" 
			},
			{
				"x": -3.5130768282,
				"y": 4.324095887,
				"z": -5.9044679363,
				"element": "H" 
			},
			{
				"x": -2.2747248896,
				"y": 5.4331829276,
				"z": -4.0608017553,
				"element": "H" 
			}
		],
		 "valence_orbital": [ 
			{
				"type": "occ",
				"energy": -0.25233,
				"method": "rhf"
			},
			{
				"type": "occ",
				"energy": -0.24612,
				"method": "rhf"
			},
			{
				"type": "occ",
				"energy": -0.24505,
				"method": "rhf"
			},
			{
				"type": "occ",
				"energy": -0.22097,
				"method": "rhf"
			},
			{
				"type": "occ",
				"energy": -0.21735,
				"method": "rhf"
			},
			{
				"type": "unocc",
				"energy": -0.04482,
				"method": "rhf"
			},
			{
				"type": "unocc",
				"energy": -0.03322,
				"method": "rhf"
			},
			{
				"type": "unocc",
				"energy": -0.01712,
				"method": "rhf"
			},
			{
				"type": "unocc",
				"energy": -0.01518,
				"method": "rhf"
			},
			{
				"type": "unocc",
				"energy": 0.00421,
				"method": "rhf"
			}
		],
		"cosmo_sigma_profile": { 
			"-0.025": 0.0,
			"-0.024": 0.0,
			"-0.023": 0.0,
			"-0.022": 0.0,
			"-0.021": 0.0,
			"-0.02": 0.0,
			"-0.019": 0.0,
			"-0.018": 0.0,
			"-0.017": 0.0,
			"-0.016": 0.0364005699251,
			"-0.015": 1.08111828974,
			"-0.014": 1.66578113136,
			"-0.013": 2.16322094455,
			"-0.012": 1.96111148715,
			"-0.011": 2.65455042004,
			"-0.01": 3.77402146224,
			"-0.009": 4.13271688914,
			"-0.008": 3.95280373531,
			"-0.007": 5.24580544703,
			"-0.006": 26.0525476663,
			"-0.005": 44.4419494421,
			"-0.004": 42.644905467,
			"-0.003": 39.3619636552,
			"-0.002": 28.90513977,
			"-0.001": 27.4111153325,
			"0.0": 23.0988754344,
			"0.001": 26.1105603801,
			"0.002": 27.843268256,
			"0.003": 31.9686519368,
			"0.004": 43.2418530376,
			"0.005": 36.3519179802,
			"0.006": 16.0171254506,
			"0.007": 3.57325344601,
			"0.008": 4.2298134093,
			"0.009": 5.64206629736,
			"0.01": 6.47554531753,
			"0.011": 7.22438546924,
			"0.012": 7.60111727248,
			"0.013": 2.72836933687,
			"0.014": 0.0,
			"0.015": 0.0,
			"0.016": 0.0,
			"0.017": 0.0,
			"0.018": 0.0,
			"0.019": 0.0,
			"0.02": 0.0,
			"0.021": 0.0,
			"0.022": 0.0,
			"0.023": 0.0,
			"0.024": 0.0,
			"0.025": 0.0
		}
	}
}
