{
	 "smiles": "OC(=O)C1=C(NS(=O)(=O)C2=CC=CC=C2)C=CC(Cl)=C1", 
	 "Tm": 458.15, 
	 "num_atms": 30, 
	 "gaussian": { 
		 "optdone": 1, 
		 "sigma_profile": "yes", 
		 "theory": "DFT", 
		 "functional": "B3LYP", 
		 "basiset": "6-31G**", 
		 "properties": { 
			 "R2extent": 7302.5311, 
			 "electric_dipole_moment_norm": 9.52757401231, 
			 "electric_quadrupole_moment_norm": 13.3287559652, 
			 "total_energy": -1715.37535188, 
			 "HOMO_LUMO_gap": 0.19559, 
			 "cosmo_polarized_energy": -22.65, 
			 "cosmo_cavitation_energy": 37.81, 
			 "cosmo_dispersion_energy": -26.78, 
			 "cosmo_repulsion_energy": 2.01, 
			 "cosmo_total_nonelectrostatic_energy": 13.03, 
			 "SMD_solvation_energy": 6.54 
		},
		"coords": [
			{
				"x": 3.0636553238,
				"y": 0.9448478691,
				"z": 1.4637351502,
				"element": "O" 
			},
			{
				"x": 3.3088586471,
				"y": -0.3558102331,
				"z": 1.3127945861,
				"element": "C" 
			},
			{
				"x": 4.4362934267,
				"y": -0.7973706821,
				"z": 1.3719434653,
				"element": "O" 
			},
			{
				"x": 2.1472180205,
				"y": -1.3141426943,
				"z": 1.1006775018,
				"element": "C" 
			},
			{
				"x": 1.0688553164,
				"y": -1.1317638552,
				"z": 0.212724828,
				"element": "C" 
			},
			{
				"x": 0.9425557434,
				"y": 0.0788641439,
				"z": -0.5507884917,
				"element": "N" 
			},
			{
				"x": -0.0332052491,
				"y": 1.3523698572,
				"z": -0.0141268849,
				"element": "S" 
			},
			{
				"x": 0.0614436496,
				"y": 2.3723408339,
				"z": -1.0540874299,
				"element": "O" 
			},
			{
				"x": 0.4049171335,
				"y": 1.5882333054,
				"z": 1.3748971113,
				"element": "O" 
			},
			{
				"x": -1.7332269485,
				"y": 0.7943078782,
				"z": 0.0757949491,
				"element": "C" 
			},
			{
				"x": -2.2058176785,
				"y": 0.2066132227,
				"z": 1.2523824436,
				"element": "C" 
			},
			{
				"x": -3.5262540843,
				"y": -0.241780368,
				"z": 1.2950610125,
				"element": "C" 
			},
			{
				"x": -4.3519978386,
				"y": -0.1015696664,
				"z": 0.1771319277,
				"element": "C" 
			},
			{
				"x": -3.8671094756,
				"y": 0.4953636722,
				"z": -0.9898754547,
				"element": "C" 
			},
			{
				"x": -2.550083453,
				"y": 0.949798906,
				"z": -1.0481694905,
				"element": "C" 
			},
			{
				"x": 0.1467291634,
				"y": -2.1692330842,
				"z": 0.0154362287,
				"element": "C" 
			},
			{
				"x": 0.2616262333,
				"y": -3.3756599841,
				"z": 0.6976058139,
				"element": "C" 
			},
			{
				"x": 1.324851019,
				"y": -3.5432140243,
				"z": 1.5857038629,
				"element": "C" 
			},
			{
				"x": 1.4877863562,
				"y": -5.0548102456,
				"z": 2.4572188474,
				"element": "Cl" 
			},
			{
				"x": 2.2675668865,
				"y": -2.5386225021,
				"z": 1.7722170978,
				"element": "C" 
			},
			{
				"x": 2.1064267757,
				"y": 1.1626561414,
				"z": 1.4899944821,
				"element": "H" 
			},
			{
				"x": 0.8503275905,
				"y": -0.0391604528,
				"z": -1.5556969564,
				"element": "H" 
			},
			{
				"x": -1.5564636648,
				"y": 0.1254775149,
				"z": 2.1163432096,
				"element": "H" 
			},
			{
				"x": -3.9103130599,
				"y": -0.6939944188,
				"z": 2.2041019081,
				"element": "H" 
			},
			{
				"x": -5.3796473232,
				"y": -0.4500073734,
				"z": 0.2180249168,
				"element": "H" 
			},
			{
				"x": -4.5166456608,
				"y": 0.6172240109,
				"z": -1.8510836485,
				"element": "H" 
			},
			{
				"x": -2.1640515835,
				"y": 1.4405070294,
				"z": -1.9351672687,
				"element": "H" 
			},
			{
				"x": -0.6679072578,
				"y": -2.0254440211,
				"z": -0.6877661795,
				"element": "H" 
			},
			{
				"x": -0.4561069741,
				"y": -4.1731942608,
				"z": 0.5427852984,
				"element": "H" 
			},
			{
				"x": 3.1233189663,
				"y": -2.6956265188,
				"z": 2.4175871634,
				"element": "H" 
			}
		],
		 "valence_orbital": [ 
			{
				"type": "occ",
				"energy": -0.29524,
				"method": "rhf"
			},
			{
				"type": "occ",
				"energy": -0.29074,
				"method": "rhf"
			},
			{
				"type": "occ",
				"energy": -0.28511,
				"method": "rhf"
			},
			{
				"type": "occ",
				"energy": -0.26597,
				"method": "rhf"
			},
			{
				"type": "occ",
				"energy": -0.26096,
				"method": "rhf"
			},
			{
				"type": "unocc",
				"energy": -0.06537,
				"method": "rhf"
			},
			{
				"type": "unocc",
				"energy": -0.05659,
				"method": "rhf"
			},
			{
				"type": "unocc",
				"energy": -0.04393,
				"method": "rhf"
			},
			{
				"type": "unocc",
				"energy": -0.03869,
				"method": "rhf"
			},
			{
				"type": "unocc",
				"energy": 0.01384,
				"method": "rhf"
			}
		],
		"cosmo_sigma_profile": { 
			"-0.025": 0.0,
			"-0.024": 0.0,
			"-0.023": 0.0,
			"-0.022": 0.0,
			"-0.021": 0.0,
			"-0.02": 0.0,
			"-0.019": 0.0,
			"-0.018": 0.0,
			"-0.017": 0.440820790225,
			"-0.016": 1.0872036019,
			"-0.015": 1.08068438626,
			"-0.014": 1.66453566333,
			"-0.013": 1.14998495735,
			"-0.012": 1.40948694033,
			"-0.011": 1.29349308319,
			"-0.01": 1.44699175883,
			"-0.009": 2.19559602079,
			"-0.008": 6.23357645407,
			"-0.007": 15.0850279782,
			"-0.006": 18.8246555932,
			"-0.005": 16.9758129821,
			"-0.004": 16.4815090843,
			"-0.003": 16.6906517573,
			"-0.002": 16.7328318518,
			"-0.001": 20.1881672391,
			"0.0": 27.7655140773,
			"0.001": 28.1005812596,
			"0.002": 24.3659291408,
			"0.003": 18.1368623319,
			"0.004": 15.4431635083,
			"0.005": 5.80070850103,
			"0.006": 5.00645888568,
			"0.007": 5.82535121256,
			"0.008": 5.41343543372,
			"0.009": 8.4163872084,
			"0.01": 9.82733295708,
			"0.011": 6.47718349466,
			"0.012": 5.16284625553,
			"0.013": 1.61676602141,
			"0.014": 0.106103691964,
			"0.015": 0.0,
			"0.016": 0.0,
			"0.017": 0.0,
			"0.018": 0.0,
			"0.019": 0.0,
			"0.02": 0.0,
			"0.021": 0.0,
			"0.022": 0.0,
			"0.023": 0.0,
			"0.024": 0.0,
			"0.025": 0.0
		}
	}
}
