{
	 "smiles": "CN(C1CCCCC1)C(=O)CC#N", 
	 "Tm": 362.15, 
	 "num_atms": 29, 
	 "gaussian": { 
		 "optdone": 1, 
		 "sigma_profile": "yes", 
		 "theory": "DFT", 
		 "functional": "B3LYP", 
		 "basiset": "6-31G**", 
		 "properties": { 
			 "R2extent": 3726.6331, 
			 "electric_dipole_moment_norm": 4.30787344057, 
			 "electric_quadrupole_moment_norm": 19.2638548022, 
			 "total_energy": -575.432971092, 
			 "HOMO_LUMO_gap": 0.25012, 
			 "cosmo_polarized_energy": -13.57, 
			 "cosmo_cavitation_energy": 29.81, 
			 "cosmo_dispersion_energy": -21.11, 
			 "cosmo_repulsion_energy": 1.67, 
			 "cosmo_total_nonelectrostatic_energy": 10.36, 
			 "SMD_solvation_energy": 5.98 
		},
		"coords": [
			{
				"x": 1.9297758425,
				"y": -0.0901169328,
				"z": -1.7225926536,
				"element": "C" 
			},
			{
				"x": 1.0076068453,
				"y": -1.1153476336,
				"z": -1.245629773,
				"element": "N" 
			},
			{
				"x": -0.4703639398,
				"y": -0.9152943169,
				"z": -1.3081672736,
				"element": "C" 
			},
			{
				"x": -0.9423200704,
				"y": -0.029496392,
				"z": -2.4801103521,
				"element": "C" 
			},
			{
				"x": -0.891378078,
				"y": 1.4919562856,
				"z": -2.2368702926,
				"element": "C" 
			},
			{
				"x": -1.5291814091,
				"y": 1.8808007097,
				"z": -0.8944101631,
				"element": "C" 
			},
			{
				"x": -0.9103432761,
				"y": 1.0865154723,
				"z": 0.2652378184,
				"element": "C" 
			},
			{
				"x": -1.0558318597,
				"y": -0.4242241203,
				"z": 0.0353783301,
				"element": "C" 
			},
			{
				"x": 1.4103077801,
				"y": -2.2799911981,
				"z": -0.6538777878,
				"element": "C" 
			},
			{
				"x": 0.6276662834,
				"y": -3.1006007391,
				"z": -0.1882334675,
				"element": "O" 
			},
			{
				"x": 2.9293185217,
				"y": -2.5828569253,
				"z": -0.5454985335,
				"element": "C" 
			},
			{
				"x": 3.5956970895,
				"y": -2.7979517542,
				"z": -1.8299303604,
				"element": "C" 
			},
			{
				"x": 4.1135845928,
				"y": -2.9587102158,
				"z": -2.856647779,
				"element": "N" 
			},
			{
				"x": 1.9228237348,
				"y": 0.7958292976,
				"z": -1.0771919365,
				"element": "H" 
			},
			{
				"x": 2.9465601571,
				"y": -0.4728697991,
				"z": -1.7688055275,
				"element": "H" 
			},
			{
				"x": 1.6684650628,
				"y": 0.2199216665,
				"z": -2.7365657875,
				"element": "H" 
			},
			{
				"x": -0.8585634949,
				"y": -1.9224666522,
				"z": -1.4740188959,
				"element": "H" 
			},
			{
				"x": -0.4126058614,
				"y": -0.300331585,
				"z": -3.4007542788,
				"element": "H" 
			},
			{
				"x": -1.9909158411,
				"y": -0.3054700706,
				"z": -2.6510577481,
				"element": "H" 
			},
			{
				"x": -1.4050244911,
				"y": 1.9999743309,
				"z": -3.0617017658,
				"element": "H" 
			},
			{
				"x": 0.1425286431,
				"y": 1.8550210509,
				"z": -2.2564805929,
				"element": "H" 
			},
			{
				"x": -2.6087668573,
				"y": 1.6761385949,
				"z": -0.9301543118,
				"element": "H" 
			},
			{
				"x": -1.4220161974,
				"y": 2.9587332738,
				"z": -0.7256912393,
				"element": "H" 
			},
			{
				"x": -1.3893002146,
				"y": 1.3616418757,
				"z": 1.2123650621,
				"element": "H" 
			},
			{
				"x": 0.1501811342,
				"y": 1.354179531,
				"z": 0.3716376024,
				"element": "H" 
			},
			{
				"x": -0.6110854567,
				"y": -1.0029975712,
				"z": 0.8494738118,
				"element": "H" 
			},
			{
				"x": -2.1259701987,
				"y": -0.6742121679,
				"z": 0.0314003644,
				"element": "H" 
			},
			{
				"x": 3.4554018234,
				"y": -1.792542528,
				"z": 0.0020594619,
				"element": "H" 
			},
			{
				"x": 2.9901497355,
				"y": -3.4983314868,
				"z": 0.0467380692,
				"element": "H" 
			}
		],
		 "valence_orbital": [ 
			{
				"type": "occ",
				"energy": -0.32476,
				"method": "rhf"
			},
			{
				"type": "occ",
				"energy": -0.31488,
				"method": "rhf"
			},
			{
				"type": "occ",
				"energy": -0.30886,
				"method": "rhf"
			},
			{
				"type": "occ",
				"energy": -0.26075,
				"method": "rhf"
			},
			{
				"type": "occ",
				"energy": -0.24754,
				"method": "rhf"
			},
			{
				"type": "unocc",
				"energy": 0.00258,
				"method": "rhf"
			},
			{
				"type": "unocc",
				"energy": 0.02906,
				"method": "rhf"
			},
			{
				"type": "unocc",
				"energy": 0.04047,
				"method": "rhf"
			},
			{
				"type": "unocc",
				"energy": 0.0632,
				"method": "rhf"
			},
			{
				"type": "unocc",
				"energy": 0.08525,
				"method": "rhf"
			}
		],
		"cosmo_sigma_profile": { 
			"-0.025": 0.0,
			"-0.024": 0.0,
			"-0.023": 0.0,
			"-0.022": 0.0,
			"-0.021": 0.0,
			"-0.02": 0.0,
			"-0.019": 0.0,
			"-0.018": 0.0,
			"-0.017": 0.0,
			"-0.016": 0.0,
			"-0.015": 0.0,
			"-0.014": 0.0,
			"-0.013": 0.0,
			"-0.012": 0.0,
			"-0.011": 0.106867363606,
			"-0.01": 2.79638041448,
			"-0.009": 5.09615747545,
			"-0.008": 4.30849639134,
			"-0.007": 4.27924118098,
			"-0.006": 5.97137795093,
			"-0.005": 10.0949703339,
			"-0.004": 14.3041948258,
			"-0.003": 25.002942285,
			"-0.002": 29.2217866632,
			"-0.001": 30.1147716404,
			"0.0": 30.3939831304,
			"0.001": 18.1482578437,
			"0.002": 4.49996406371,
			"0.003": 4.30493351309,
			"0.004": 2.66693734585,
			"0.005": 3.2865220413,
			"0.006": 4.4709163079,
			"0.007": 4.19042409086,
			"0.008": 4.09978891163,
			"0.009": 4.81894578927,
			"0.01": 4.13625767697,
			"0.011": 4.56157437738,
			"0.012": 4.23421408501,
			"0.013": 6.13490165602,
			"0.014": 1.72176258779,
			"0.015": 0.0,
			"0.016": 0.0,
			"0.017": 0.0,
			"0.018": 0.0,
			"0.019": 0.0,
			"0.02": 0.0,
			"0.021": 0.0,
			"0.022": 0.0,
			"0.023": 0.0,
			"0.024": 0.0,
			"0.025": 0.0
		}
	}
}
