{
	 "smiles": "[O-][N+](=O)C1=C(C=C(C=C1)C#N)[N+]([O-])=O", 
	 "Tm": 363.15, 
	 "num_atms": 17, 
	 "gaussian": { 
		 "optdone": 1, 
		 "sigma_profile": "yes", 
		 "theory": "DFT", 
		 "functional": "B3LYP", 
		 "basiset": "6-31G**", 
		 "properties": { 
			 "R2extent": 2935.2166, 
			 "electric_dipole_moment_norm": 3.45610394086, 
			 "electric_quadrupole_moment_norm": 22.9897968534, 
			 "total_energy": -733.453584952, 
			 "HOMO_LUMO_gap": 0.173, 
			 "cosmo_polarized_energy": -16.36, 
			 "cosmo_cavitation_energy": 25.24, 
			 "cosmo_dispersion_energy": -17.37, 
			 "cosmo_repulsion_energy": 1.36, 
			 "cosmo_total_nonelectrostatic_energy": 9.23, 
			 "SMD_solvation_energy": 10.51 
		},
		"coords": [
			{
				"x": 2.8469229487,
				"y": -2.1013210136,
				"z": 0.908809875,
				"element": "O" 
			},
			{
				"x": 1.9054174591,
				"y": -1.7834963551,
				"z": 1.6238401509,
				"element": "N" 
			},
			{
				"x": 1.8400145313,
				"y": -1.8996081067,
				"z": 2.8429110039,
				"element": "O" 
			},
			{
				"x": 0.6966843318,
				"y": -1.2759299269,
				"z": 0.9447745228,
				"element": "C" 
			},
			{
				"x": 0.7603878427,
				"y": -0.4200602337,
				"z": -0.159063624,
				"element": "C" 
			},
			{
				"x": -0.3939051174,
				"y": -0.0752032911,
				"z": -0.847420043,
				"element": "C" 
			},
			{
				"x": -1.6314427645,
				"y": -0.5773585195,
				"z": -0.4154089002,
				"element": "C" 
			},
			{
				"x": -1.6964958856,
				"y": -1.4180912994,
				"z": 0.7069656807,
				"element": "C" 
			},
			{
				"x": -0.5299788675,
				"y": -1.7654842117,
				"z": 1.3819759416,
				"element": "C" 
			},
			{
				"x": -2.8297905604,
				"y": -0.2199706479,
				"z": -1.1177520865,
				"element": "C" 
			},
			{
				"x": -3.8044289024,
				"y": 0.0659519392,
				"z": -1.6829673299,
				"element": "N" 
			},
			{
				"x": 2.0152051174,
				"y": 0.2366474598,
				"z": -0.5797115267,
				"element": "N" 
			},
			{
				"x": 2.1675640729,
				"y": 0.4085319293,
				"z": -1.7842394765,
				"element": "O" 
			},
			{
				"x": 2.770682421,
				"y": 0.603231351,
				"z": 0.3112585573,
				"element": "O" 
			},
			{
				"x": -0.3224535161,
				"y": 0.5852582771,
				"z": -1.7029128935,
				"element": "H" 
			},
			{
				"x": -2.6546086877,
				"y": -1.8006538163,
				"z": 1.0399371792,
				"element": "H" 
			},
			{
				"x": -0.5519744235,
				"y": -2.4226435347,
				"z": 2.2431029689,
				"element": "H" 
			}
		],
		 "valence_orbital": [ 
			{
				"type": "occ",
				"energy": -0.33603,
				"method": "rhf"
			},
			{
				"type": "occ",
				"energy": -0.33528,
				"method": "rhf"
			},
			{
				"type": "occ",
				"energy": -0.33074,
				"method": "rhf"
			},
			{
				"type": "occ",
				"energy": -0.31683,
				"method": "rhf"
			},
			{
				"type": "occ",
				"energy": -0.30649,
				"method": "rhf"
			},
			{
				"type": "unocc",
				"energy": -0.13349,
				"method": "rhf"
			},
			{
				"type": "unocc",
				"energy": -0.10658,
				"method": "rhf"
			},
			{
				"type": "unocc",
				"energy": -0.07494,
				"method": "rhf"
			},
			{
				"type": "unocc",
				"energy": -0.0587,
				"method": "rhf"
			},
			{
				"type": "unocc",
				"energy": -0.00036,
				"method": "rhf"
			}
		],
		"cosmo_sigma_profile": { 
			"-0.025": 0.0,
			"-0.024": 0.0,
			"-0.023": 0.0,
			"-0.022": 0.0,
			"-0.021": 0.0,
			"-0.02": 0.0,
			"-0.019": 0.0,
			"-0.018": 0.0,
			"-0.017": 0.0,
			"-0.016": 0.0,
			"-0.015": 0.0,
			"-0.014": 0.0,
			"-0.013": 0.0,
			"-0.012": 0.109270950266,
			"-0.011": 3.81337903408,
			"-0.01": 8.89785547611,
			"-0.009": 8.21741474129,
			"-0.008": 5.88245492814,
			"-0.007": 5.76862785968,
			"-0.006": 8.18782180886,
			"-0.005": 16.0052138057,
			"-0.004": 15.3519258086,
			"-0.003": 13.6535938814,
			"-0.002": 10.0035361658,
			"-0.001": 5.67058247114,
			"0.0": 6.00320658924,
			"0.001": 6.69961574005,
			"0.002": 5.85206726542,
			"0.003": 7.84693752883,
			"0.004": 9.21971471872,
			"0.005": 13.4863779536,
			"0.006": 21.7241764614,
			"0.007": 14.0309506516,
			"0.008": 9.28828443079,
			"0.009": 3.96405426473,
			"0.01": 2.47531295519,
			"0.011": 2.35132184554,
			"0.012": 0.895153708798,
			"0.013": 0.0,
			"0.014": 0.0,
			"0.015": 0.0,
			"0.016": 0.0,
			"0.017": 0.0,
			"0.018": 0.0,
			"0.019": 0.0,
			"0.02": 0.0,
			"0.021": 0.0,
			"0.022": 0.0,
			"0.023": 0.0,
			"0.024": 0.0,
			"0.025": 0.0
		}
	}
}
