{
	 "smiles": "OC(=O)C1=C(C=NC(Br)=C1)[N+]([O-])=O", 
	 "Tm": 443.15, 
	 "num_atms": 16, 
	 "gaussian": { 
		 "optdone": 1, 
		 "sigma_profile": "yes", 
		 "theory": "DFT", 
		 "functional": "B3LYP", 
		 "basiset": "6-31G**", 
		 "properties": { 
			 "R2extent": 3954.3567, 
			 "electric_dipole_moment_norm": 2.41909834029, 
			 "electric_quadrupole_moment_norm": 8.94528630565, 
			 "total_energy": -3212.13377124, 
			 "HOMO_LUMO_gap": 0.15319, 
			 "cosmo_polarized_energy": -12.97, 
			 "cosmo_cavitation_energy": 24.42, 
			 "cosmo_dispersion_energy": -18.72, 
			 "cosmo_repulsion_energy": 1.47, 
			 "cosmo_total_nonelectrostatic_energy": 7.16, 
			 "SMD_solvation_energy": 4.93 
		},
		"coords": [
			{
				"x": 1.051677258,
				"y": 0.6484046158,
				"z": -2.8781320551,
				"element": "O" 
			},
			{
				"x": 0.6314716877,
				"y": 1.3143904254,
				"z": -1.8142212443,
				"element": "C" 
			},
			{
				"x": 0.2197494644,
				"y": 2.4499413281,
				"z": -1.8848797787,
				"element": "O" 
			},
			{
				"x": 0.6110435041,
				"y": 0.6133863718,
				"z": -0.4411663257,
				"element": "C" 
			},
			{
				"x": 1.3728353273,
				"y": -0.4567009842,
				"z": 0.0826740124,
				"element": "C" 
			},
			{
				"x": 1.2035808226,
				"y": -0.8485862284,
				"z": 1.4180373861,
				"element": "C" 
			},
			{
				"x": 0.3283168326,
				"y": -0.2817543757,
				"z": 2.2438262017,
				"element": "N" 
			},
			{
				"x": -0.3852374599,
				"y": 0.7242017875,
				"z": 1.7595819076,
				"element": "C" 
			},
			{
				"x": -1.6249309495,
				"y": 1.5483140864,
				"z": 2.9427530759,
				"element": "Br" 
			},
			{
				"x": -0.2748991664,
				"y": 1.212955386,
				"z": 0.457443432,
				"element": "C" 
			},
			{
				"x": 2.3681913336,
				"y": -1.2495418825,
				"z": -0.6506854056,
				"element": "N" 
			},
			{
				"x": 2.2274896895,
				"y": -1.4241358708,
				"z": -1.8734664063,
				"element": "O" 
			},
			{
				"x": 3.2752664827,
				"y": -1.7527761513,
				"z": -0.0056940191,
				"element": "O" 
			},
			{
				"x": 1.3908199538,
				"y": -0.2427083643,
				"z": -2.6280475483,
				"element": "H" 
			},
			{
				"x": 1.8013967921,
				"y": -1.6633763879,
				"z": 1.8122833585,
				"element": "H" 
			},
			{
				"x": -0.8488715725,
				"y": 2.066586244,
				"z": 0.1223934091,
				"element": "H" 
			}
		],
		 "valence_orbital": [ 
			{
				"type": "occ",
				"energy": -0.32802,
				"method": "rhf"
			},
			{
				"type": "occ",
				"energy": -0.31937,
				"method": "rhf"
			},
			{
				"type": "occ",
				"energy": -0.31176,
				"method": "rhf"
			},
			{
				"type": "occ",
				"energy": -0.30121,
				"method": "rhf"
			},
			{
				"type": "occ",
				"energy": -0.29236,
				"method": "rhf"
			},
			{
				"type": "unocc",
				"energy": -0.13917,
				"method": "rhf"
			},
			{
				"type": "unocc",
				"energy": -0.09537,
				"method": "rhf"
			},
			{
				"type": "unocc",
				"energy": -0.05555,
				"method": "rhf"
			},
			{
				"type": "unocc",
				"energy": -0.0194,
				"method": "rhf"
			},
			{
				"type": "unocc",
				"energy": 0.01031,
				"method": "rhf"
			}
		],
		"cosmo_sigma_profile": { 
			"-0.025": 0.0,
			"-0.024": 0.0,
			"-0.023": 0.0,
			"-0.022": 0.0,
			"-0.021": 0.0,
			"-0.02": 0.0,
			"-0.019": 0.0,
			"-0.018": 0.0,
			"-0.017": 0.0,
			"-0.016": 0.202205878803,
			"-0.015": 0.423670012139,
			"-0.014": 0.515147847878,
			"-0.013": 0.519284890495,
			"-0.012": 1.01544621879,
			"-0.011": 2.05904784278,
			"-0.01": 2.78271323851,
			"-0.009": 4.05135548385,
			"-0.008": 7.16765772631,
			"-0.007": 7.8473019285,
			"-0.006": 11.1446512191,
			"-0.005": 13.4681546525,
			"-0.004": 12.4520388861,
			"-0.003": 13.4939058066,
			"-0.002": 10.0155927352,
			"-0.001": 9.71590656594,
			"0.0": 10.3335022204,
			"0.001": 10.072023835,
			"0.002": 13.5163125202,
			"0.003": 13.8722063995,
			"0.004": 7.95705389655,
			"0.005": 10.2211083203,
			"0.006": 8.4556178649,
			"0.007": 6.92357046413,
			"0.008": 5.67455370958,
			"0.009": 5.47488937101,
			"0.01": 5.90119636272,
			"0.011": 4.58609470228,
			"0.012": 1.6870621336,
			"0.013": 0.0108191841648,
			"0.014": 0.0,
			"0.015": 0.0,
			"0.016": 0.0,
			"0.017": 0.0,
			"0.018": 0.0,
			"0.019": 0.0,
			"0.02": 0.0,
			"0.021": 0.0,
			"0.022": 0.0,
			"0.023": 0.0,
			"0.024": 0.0,
			"0.025": 0.0
		}
	}
}
