{
	 "smiles": "OC(=O)C1=CC=C(OC2=CC=CC=C2)C=C1", 
	 "Tm": 435.15, 
	 "num_atms": 26, 
	 "gaussian": { 
		 "optdone": 1, 
		 "sigma_profile": "yes", 
		 "theory": "DFT", 
		 "functional": "B3LYP", 
		 "basiset": "6-31G**", 
		 "properties": { 
			 "R2extent": 5708.6091, 
			 "electric_dipole_moment_norm": 6.09182592496, 
			 "electric_quadrupole_moment_norm": 28.4258259139, 
			 "total_energy": -727.081535691, 
			 "HOMO_LUMO_gap": 0.19383, 
			 "cosmo_polarized_energy": -15.71, 
			 "cosmo_cavitation_energy": 31.23, 
			 "cosmo_dispersion_energy": -22.64, 
			 "cosmo_repulsion_energy": 1.76, 
			 "cosmo_total_nonelectrostatic_energy": 10.34, 
			 "SMD_solvation_energy": 6.67 
		},
		"coords": [
			{
				"x": -0.3361632386,
				"y": -4.7638089519,
				"z": -3.6886609595,
				"element": "O" 
			},
			{
				"x": -0.787101389,
				"y": -3.5476325056,
				"z": -4.106698235,
				"element": "C" 
			},
			{
				"x": -1.2767275275,
				"y": -3.4363808034,
				"z": -5.206985434,
				"element": "O" 
			},
			{
				"x": -0.6392168446,
				"y": -2.4076692252,
				"z": -3.1517723831,
				"element": "C" 
			},
			{
				"x": -0.4494174946,
				"y": -2.5713850851,
				"z": -1.7728986151,
				"element": "C" 
			},
			{
				"x": -0.3313730591,
				"y": -1.4724435031,
				"z": -0.9244533879,
				"element": "C" 
			},
			{
				"x": -0.401334827,
				"y": -0.1830263112,
				"z": -1.4637288291,
				"element": "C" 
			},
			{
				"x": -0.3256980206,
				"y": 0.9621476274,
				"z": -0.7153152094,
				"element": "O" 
			},
			{
				"x": 0.1512424975,
				"y": 0.9232728303,
				"z": 0.5893930125,
				"element": "C" 
			},
			{
				"x": -0.7149261149,
				"y": 1.301380293,
				"z": 1.6139325039,
				"element": "C" 
			},
			{
				"x": -0.2372200693,
				"y": 1.3569345857,
				"z": 2.9247016557,
				"element": "C" 
			},
			{
				"x": 1.0911100626,
				"y": 1.031205537,
				"z": 3.2052460733,
				"element": "C" 
			},
			{
				"x": 1.9481694573,
				"y": 0.6550231617,
				"z": 2.1677467183,
				"element": "C" 
			},
			{
				"x": 1.4848108463,
				"y": 0.6028900333,
				"z": 0.8527977928,
				"element": "C" 
			},
			{
				"x": -0.6089021083,
				"y": -0.0012068044,
				"z": -2.8386301752,
				"element": "C" 
			},
			{
				"x": -0.7356271746,
				"y": -1.1048675324,
				"z": -3.6677998684,
				"element": "C" 
			},
			{
				"x": 0.1795784571,
				"y": -4.6660197496,
				"z": -2.8767745244,
				"element": "H" 
			},
			{
				"x": -0.4345856167,
				"y": -3.5633577324,
				"z": -1.3269764841,
				"element": "H" 
			},
			{
				"x": -0.2011125718,
				"y": -1.6133810911,
				"z": 0.1418565859,
				"element": "H" 
			},
			{
				"x": -1.7421454626,
				"y": 1.5531384389,
				"z": 1.3719516671,
				"element": "H" 
			},
			{
				"x": -0.9069733781,
				"y": 1.654051729,
				"z": 3.7262348732,
				"element": "H" 
			},
			{
				"x": 1.4587595114,
				"y": 1.0745609667,
				"z": 4.2258367731,
				"element": "H" 
			},
			{
				"x": 2.9847107351,
				"y": 0.4094121453,
				"z": 2.3793181941,
				"element": "H" 
			},
			{
				"x": 2.1434075431,
				"y": 0.3263843453,
				"z": 0.0358054806,
				"element": "H" 
			},
			{
				"x": -0.6704272322,
				"y": 1.0097485677,
				"z": -3.2271149339,
				"element": "H" 
			},
			{
				"x": -0.906536981,
				"y": -0.9841709658,
				"z": -4.7320122914,
				"element": "H" 
			}
		],
		 "valence_orbital": [ 
			{
				"type": "occ",
				"energy": -0.27419,
				"method": "rhf"
			},
			{
				"type": "occ",
				"energy": -0.26921,
				"method": "rhf"
			},
			{
				"type": "occ",
				"energy": -0.26758,
				"method": "rhf"
			},
			{
				"type": "occ",
				"energy": -0.26082,
				"method": "rhf"
			},
			{
				"type": "occ",
				"energy": -0.2375,
				"method": "rhf"
			},
			{
				"type": "unocc",
				"energy": -0.04367,
				"method": "rhf"
			},
			{
				"type": "unocc",
				"energy": -0.02653,
				"method": "rhf"
			},
			{
				"type": "unocc",
				"energy": -0.01408,
				"method": "rhf"
			},
			{
				"type": "unocc",
				"energy": -0.01242,
				"method": "rhf"
			},
			{
				"type": "unocc",
				"energy": 0.05461,
				"method": "rhf"
			}
		],
		"cosmo_sigma_profile": { 
			"-0.025": 0.0,
			"-0.024": 0.0,
			"-0.023": 0.0,
			"-0.022": 0.0,
			"-0.021": 0.0,
			"-0.02": 0.0,
			"-0.019": 0.0919783837832,
			"-0.018": 0.748916070451,
			"-0.017": 1.07789141156,
			"-0.016": 1.06144318115,
			"-0.015": 0.866382250475,
			"-0.014": 0.561230055213,
			"-0.013": 0.889482187733,
			"-0.012": 1.56486011393,
			"-0.011": 1.44028413212,
			"-0.01": 1.53265648916,
			"-0.009": 0.857902274031,
			"-0.008": 1.61461021719,
			"-0.007": 7.1148986125,
			"-0.006": 16.212837575,
			"-0.005": 16.794703084,
			"-0.004": 17.726260224,
			"-0.003": 14.4787400526,
			"-0.002": 15.9698003804,
			"-0.001": 15.5295350306,
			"0.0": 15.9649652536,
			"0.001": 17.298926997,
			"0.002": 22.3497269021,
			"0.003": 24.1125260167,
			"0.004": 13.2131210665,
			"0.005": 9.50310471998,
			"0.006": 4.87293812142,
			"0.007": 2.83788840632,
			"0.008": 3.62793824609,
			"0.009": 3.59653422576,
			"0.01": 4.22357464506,
			"0.011": 5.18644836624,
			"0.012": 5.55862929989,
			"0.013": 2.21742645024,
			"0.014": 0.24187112021,
			"0.015": 0.0,
			"0.016": 0.0,
			"0.017": 0.0,
			"0.018": 0.0,
			"0.019": 0.0,
			"0.02": 0.0,
			"0.021": 0.0,
			"0.022": 0.0,
			"0.023": 0.0,
			"0.024": 0.0,
			"0.025": 0.0
		}
	}
}
