{
	 "smiles": "CC(=O)NC1=CC=CC=C1O", 
	 "Tm": 479.15, 
	 "num_atms": 20, 
	 "gaussian": { 
		 "optdone": 1, 
		 "sigma_profile": "yes", 
		 "theory": "DFT", 
		 "functional": "B3LYP", 
		 "basiset": "6-31G**", 
		 "properties": { 
			 "R2extent": 2159.1343, 
			 "electric_dipole_moment_norm": 4.46375372641, 
			 "electric_quadrupole_moment_norm": 6.09722313107, 
			 "total_energy": -515.498348497, 
			 "HOMO_LUMO_gap": 0.19033, 
			 "cosmo_polarized_energy": -13.66, 
			 "cosmo_cavitation_energy": 23.58, 
			 "cosmo_dispersion_energy": -17.85, 
			 "cosmo_repulsion_energy": 1.42, 
			 "cosmo_total_nonelectrostatic_energy": 7.15, 
			 "SMD_solvation_energy": 5.01 
		},
		"coords": [
			{
				"x": 1.3437589936,
				"y": -1.4912074181,
				"z": -1.6855350008,
				"element": "C" 
			},
			{
				"x": 0.4031573701,
				"y": -0.5042029542,
				"z": -1.0211142906,
				"element": "C" 
			},
			{
				"x": -0.4738524928,
				"y": 0.0650602957,
				"z": -1.682287956,
				"element": "O" 
			},
			{
				"x": 0.6062959061,
				"y": -0.2984177716,
				"z": 0.3083219839,
				"element": "N" 
			},
			{
				"x": -0.1423833392,
				"y": 0.4787754786,
				"z": 1.2463272605,
				"element": "C" 
			},
			{
				"x": -0.1322511555,
				"y": 0.0262071509,
				"z": 2.5739269223,
				"element": "C" 
			},
			{
				"x": -0.7544549164,
				"y": 0.740919786,
				"z": 3.590971974,
				"element": "C" 
			},
			{
				"x": -1.414513504,
				"y": 1.9325577752,
				"z": 3.2777659848,
				"element": "C" 
			},
			{
				"x": -1.4466548928,
				"y": 2.3843893496,
				"z": 1.9644210894,
				"element": "C" 
			},
			{
				"x": -0.8121236491,
				"y": 1.6827912106,
				"z": 0.9254729196,
				"element": "C" 
			},
			{
				"x": -0.8475449478,
				"y": 2.2282543169,
				"z": -0.3059639329,
				"element": "O" 
			},
			{
				"x": 0.743925604,
				"y": -2.2436265883,
				"z": -2.2038064419,
				"element": "H" 
			},
			{
				"x": 2.0277354296,
				"y": -1.9909574359,
				"z": -0.9949208564,
				"element": "H" 
			},
			{
				"x": 1.9282464444,
				"y": -0.9628219861,
				"z": -2.4441826838,
				"element": "H" 
			},
			{
				"x": 1.3328572052,
				"y": -0.8582729323,
				"z": 0.7311566343,
				"element": "H" 
			},
			{
				"x": 0.3800588078,
				"y": -0.9062702922,
				"z": 2.8025961112,
				"element": "H" 
			},
			{
				"x": -0.726882339,
				"y": 0.3702913213,
				"z": 4.6104472979,
				"element": "H" 
			},
			{
				"x": -1.9082795652,
				"y": 2.5064450658,
				"z": 4.0563727094,
				"element": "H" 
			},
			{
				"x": -1.9537630771,
				"y": 3.3052121815,
				"z": 1.6954574461,
				"element": "H" 
			},
			{
				"x": -0.7657318818,
				"y": 1.5011734467,
				"z": -0.977127171,
				"element": "H" 
			}
		],
		 "valence_orbital": [ 
			{
				"type": "occ",
				"energy": -0.32611,
				"method": "rhf"
			},
			{
				"type": "occ",
				"energy": -0.30385,
				"method": "rhf"
			},
			{
				"type": "occ",
				"energy": -0.275,
				"method": "rhf"
			},
			{
				"type": "occ",
				"energy": -0.23781,
				"method": "rhf"
			},
			{
				"type": "occ",
				"energy": -0.20892,
				"method": "rhf"
			},
			{
				"type": "unocc",
				"energy": -0.01859,
				"method": "rhf"
			},
			{
				"type": "unocc",
				"energy": 0.00996,
				"method": "rhf"
			},
			{
				"type": "unocc",
				"energy": 0.0299,
				"method": "rhf"
			},
			{
				"type": "unocc",
				"energy": 0.05659,
				"method": "rhf"
			},
			{
				"type": "unocc",
				"energy": 0.09349,
				"method": "rhf"
			}
		],
		"cosmo_sigma_profile": { 
			"-0.025": 0.0,
			"-0.024": 0.0,
			"-0.023": 0.0,
			"-0.022": 0.0,
			"-0.021": 0.0,
			"-0.02": 0.0,
			"-0.019": 0.0,
			"-0.018": 0.0,
			"-0.017": 0.0,
			"-0.016": 0.389959190588,
			"-0.015": 1.36193564952,
			"-0.014": 1.32261440771,
			"-0.013": 1.65018515325,
			"-0.012": 1.48947630225,
			"-0.011": 1.29518080595,
			"-0.01": 1.78860610108,
			"-0.009": 1.46447895015,
			"-0.008": 1.66974784253,
			"-0.007": 3.3104596179,
			"-0.006": 9.41105116901,
			"-0.005": 13.5556118153,
			"-0.004": 15.1938599005,
			"-0.003": 14.6406258066,
			"-0.002": 14.0334500852,
			"-0.001": 12.0187849367,
			"0.0": 8.67764037754,
			"0.001": 10.8478910699,
			"0.002": 10.7634942671,
			"0.003": 9.83493022411,
			"0.004": 12.1691616301,
			"0.005": 11.3199610966,
			"0.006": 9.2433519273,
			"0.007": 2.65184134329,
			"0.008": 2.25884163822,
			"0.009": 2.5574330781,
			"0.01": 3.25404010941,
			"0.011": 3.55765679429,
			"0.012": 3.42650430805,
			"0.013": 2.51497216571,
			"0.014": 0.242345830181,
			"0.015": 0.0,
			"0.016": 0.0,
			"0.017": 0.0,
			"0.018": 0.0,
			"0.019": 0.0,
			"0.02": 0.0,
			"0.021": 0.0,
			"0.022": 0.0,
			"0.023": 0.0,
			"0.024": 0.0,
			"0.025": 0.0
		}
	}
}
