{
	 "smiles": "OC(=O)CCN1N=CC2=C1C=C(C=C2)[N+]([O-])=O", 
	 "Tm": 425.15, 
	 "num_atms": 26, 
	 "gaussian": { 
		 "optdone": 1, 
		 "sigma_profile": "yes", 
		 "theory": "DFT", 
		 "functional": "B3LYP", 
		 "basiset": "6-31G**", 
		 "properties": { 
			 "R2extent": 4698.3573, 
			 "electric_dipole_moment_norm": 4.99819650474, 
			 "electric_quadrupole_moment_norm": 27.469020933, 
			 "total_energy": -851.543362859, 
			 "HOMO_LUMO_gap": 0.15077, 
			 "cosmo_polarized_energy": -16.44, 
			 "cosmo_cavitation_energy": 31.59, 
			 "cosmo_dispersion_energy": -22.49, 
			 "cosmo_repulsion_energy": 1.74, 
			 "cosmo_total_nonelectrostatic_energy": 10.84, 
			 "SMD_solvation_energy": 7.7 
		},
		"coords": [
			{
				"x": -1.1309671158,
				"y": 4.5138210244,
				"z": -0.1617119676,
				"element": "O" 
			},
			{
				"x": -0.4456166101,
				"y": 3.4239573061,
				"z": 0.2421028499,
				"element": "C" 
			},
			{
				"x": -0.6505917072,
				"y": 2.8718487815,
				"z": 1.3020989503,
				"element": "O" 
			},
			{
				"x": 0.6102459187,
				"y": 3.0208163455,
				"z": -0.7665737237,
				"element": "C" 
			},
			{
				"x": 1.1627308762,
				"y": 1.6165188547,
				"z": -0.5131211959,
				"element": "C" 
			},
			{
				"x": 0.2439183005,
				"y": 0.5633818714,
				"z": -0.9204641581,
				"element": "N" 
			},
			{
				"x": 0.1114286777,
				"y": 0.2909854206,
				"z": -2.2446245471,
				"element": "N" 
			},
			{
				"x": -0.7480527481,
				"y": -0.7091773257,
				"z": -2.3466259404,
				"element": "C" 
			},
			{
				"x": -1.206994866,
				"y": -1.1298119152,
				"z": -1.0654160034,
				"element": "C" 
			},
			{
				"x": -0.5381768988,
				"y": -0.2667948528,
				"z": -0.1553303976,
				"element": "C" 
			},
			{
				"x": -0.7271819662,
				"y": -0.3523414901,
				"z": 1.2301422696,
				"element": "C" 
			},
			{
				"x": -1.5956224865,
				"y": -1.3438644411,
				"z": 1.6553909788,
				"element": "C" 
			},
			{
				"x": -2.2758284069,
				"y": -2.2253746824,
				"z": 0.7848448651,
				"element": "C" 
			},
			{
				"x": -2.0855172321,
				"y": -2.1183960203,
				"z": -0.5790856727,
				"element": "C" 
			},
			{
				"x": -1.8269255984,
				"y": -1.4813500536,
				"z": 3.1030980172,
				"element": "N" 
			},
			{
				"x": -1.2055972062,
				"y": -0.733960931,
				"z": 3.8583235028,
				"element": "O" 
			},
			{
				"x": -2.6275113967,
				"y": -2.3402014587,
				"z": 3.4745483584,
				"element": "O" 
			},
			{
				"x": -1.7618488331,
				"y": 4.7227812084,
				"z": 0.5483757323,
				"element": "H" 
			},
			{
				"x": 0.205966501,
				"y": 3.0997151435,
				"z": -1.7795767437,
				"element": "H" 
			},
			{
				"x": 1.4231616073,
				"y": 3.7551189899,
				"z": -0.6976612766,
				"element": "H" 
			},
			{
				"x": 2.0869764425,
				"y": 1.4776580725,
				"z": -1.0790562141,
				"element": "H" 
			},
			{
				"x": 1.380458689,
				"y": 1.482506535,
				"z": 0.5478175414,
				"element": "H" 
			},
			{
				"x": -1.0059491444,
				"y": -1.1013408792,
				"z": -3.3211744666,
				"element": "H" 
			},
			{
				"x": -0.2673732864,
				"y": 0.3215605351,
				"z": 1.9397804999,
				"element": "H" 
			},
			{
				"x": -2.9375929291,
				"y": -2.9663711086,
				"z": 1.2131860669,
				"element": "H" 
			},
			{
				"x": -2.603438581,
				"y": -2.7853849302,
				"z": -1.2609873251,
				"element": "H" 
			}
		],
		 "valence_orbital": [ 
			{
				"type": "occ",
				"energy": -0.29929,
				"method": "rhf"
			},
			{
				"type": "occ",
				"energy": -0.29462,
				"method": "rhf"
			},
			{
				"type": "occ",
				"energy": -0.28301,
				"method": "rhf"
			},
			{
				"type": "occ",
				"energy": -0.26309,
				"method": "rhf"
			},
			{
				"type": "occ",
				"energy": -0.23592,
				"method": "rhf"
			},
			{
				"type": "unocc",
				"energy": -0.08515,
				"method": "rhf"
			},
			{
				"type": "unocc",
				"energy": -0.03175,
				"method": "rhf"
			},
			{
				"type": "unocc",
				"energy": -0.00824,
				"method": "rhf"
			},
			{
				"type": "unocc",
				"energy": 0.00962,
				"method": "rhf"
			},
			{
				"type": "unocc",
				"energy": 0.04512,
				"method": "rhf"
			}
		],
		"cosmo_sigma_profile": { 
			"-0.025": 0.0,
			"-0.024": 0.0,
			"-0.023": 0.0,
			"-0.022": 0.0,
			"-0.021": 0.0,
			"-0.02": 0.0,
			"-0.019": 0.104866909582,
			"-0.018": 0.827276466982,
			"-0.017": 1.04136806589,
			"-0.016": 0.59396350643,
			"-0.015": 1.01311859365,
			"-0.014": 0.771375427407,
			"-0.013": 0.685755195611,
			"-0.012": 0.429957354637,
			"-0.011": 0.528606614202,
			"-0.01": 0.87915211366,
			"-0.009": 0.956925336133,
			"-0.008": 6.22424184626,
			"-0.007": 13.6277576769,
			"-0.006": 18.6561734002,
			"-0.005": 15.3504442756,
			"-0.004": 16.2002174121,
			"-0.003": 13.5957481014,
			"-0.002": 12.1937883476,
			"-0.001": 16.3922384626,
			"0.0": 17.5182024841,
			"0.001": 20.3250244461,
			"0.002": 17.4442269506,
			"0.003": 10.4666868134,
			"0.004": 7.71354346637,
			"0.005": 7.33811438679,
			"0.006": 8.39601261804,
			"0.007": 10.5982304135,
			"0.008": 12.4419496974,
			"0.009": 7.90678926925,
			"0.01": 6.73559826819,
			"0.011": 2.6582326394,
			"0.012": 1.94662936078,
			"0.013": 0.557294607286,
			"0.014": 0.518927226059,
			"0.015": 0.0250035288245,
			"0.016": 0.0,
			"0.017": 0.0,
			"0.018": 0.0,
			"0.019": 0.0,
			"0.02": 0.0,
			"0.021": 0.0,
			"0.022": 0.0,
			"0.023": 0.0,
			"0.024": 0.0,
			"0.025": 0.0
		}
	}
}
