{
	 "smiles": "CC(=O)C1=CC[C@@]2(C)C(CCC3C4CCC(=O)[C@@]4(C)CCC23)C1", 
	 "Tm": 425.15, 
	 "num_atms": 53, 
	 "gaussian": { 
		 "optdone": 1, 
		 "sigma_profile": "yes", 
		 "theory": "DFT", 
		 "functional": "B3LYP", 
		 "basiset": "6-31G**", 
		 "properties": { 
			 "R2extent": 10010.2237, 
			 "electric_dipole_moment_norm": 3.65183952824, 
			 "electric_quadrupole_moment_norm": 28.4822444542, 
			 "total_energy": -968.769091652, 
			 "HOMO_LUMO_gap": 0.18955, 
			 "cosmo_polarized_energy": -14.23, 
			 "cosmo_cavitation_energy": 47.17, 
			 "cosmo_dispersion_energy": -32.58, 
			 "cosmo_repulsion_energy": 2.4, 
			 "cosmo_total_nonelectrostatic_energy": 16.99, 
			 "SMD_solvation_energy": 7.75 
		},
		"coords": [
			{
				"x": 2.2519723618,
				"y": 5.0789887035,
				"z": -2.6410137457,
				"element": "C" 
			},
			{
				"x": 0.808393881,
				"y": 4.6019684653,
				"z": -2.67641254,
				"element": "C" 
			},
			{
				"x": -0.0161472273,
				"y": 5.1902932301,
				"z": -3.3618733118,
				"element": "O" 
			},
			{
				"x": 0.4356603579,
				"y": 3.4034321947,
				"z": -1.850114455,
				"element": "C" 
			},
			{
				"x": -0.8363354137,
				"y": 2.9755797305,
				"z": -1.9055392857,
				"element": "C" 
			},
			{
				"x": -1.3706370785,
				"y": 1.8125193482,
				"z": -1.1295026976,
				"element": "C" 
			},
			{
				"x": -0.300403282,
				"y": 0.8447600395,
				"z": -0.5519384477,
				"element": "C" 
			},
			{
				"x": 0.2214272164,
				"y": -0.0529518389,
				"z": -1.6950078048,
				"element": "C" 
			},
			{
				"x": 0.9111885382,
				"y": 1.6651704945,
				"z": -0.0025539761,
				"element": "C" 
			},
			{
				"x": 0.5607851912,
				"y": 2.2871818106,
				"z": 1.3565560852,
				"element": "C" 
			},
			{
				"x": 0.3974918311,
				"y": 1.1833664225,
				"z": 2.4262824382,
				"element": "C" 
			},
			{
				"x": -0.0244875553,
				"y": -0.187497011,
				"z": 1.8381216365,
				"element": "C" 
			},
			{
				"x": -0.7394280842,
				"y": -1.0330224958,
				"z": 2.8977980197,
				"element": "C" 
			},
			{
				"x": -0.0466218185,
				"y": -1.3788997001,
				"z": 4.2328541013,
				"element": "C" 
			},
			{
				"x": -1.0039257931,
				"y": -2.4255287949,
				"z": 4.8502645117,
				"element": "C" 
			},
			{
				"x": -1.8020030752,
				"y": -3.0127690419,
				"z": 3.6684196766,
				"element": "C" 
			},
			{
				"x": -2.6963481685,
				"y": -3.8260820148,
				"z": 3.7572609828,
				"element": "O" 
			},
			{
				"x": -1.2656497457,
				"y": -2.388705741,
				"z": 2.3743535254,
				"element": "C" 
			},
			{
				"x": -0.1530352587,
				"y": -3.3563474856,
				"z": 1.8907245377,
				"element": "C" 
			},
			{
				"x": -2.2940369634,
				"y": -2.1238392909,
				"z": 1.270369901,
				"element": "C" 
			},
			{
				"x": -1.6511435805,
				"y": -1.2926799053,
				"z": 0.1417989501,
				"element": "C" 
			},
			{
				"x": -0.9740539472,
				"y": 0.0163807845,
				"z": 0.6218604054,
				"element": "C" 
			},
			{
				"x": 1.4754238836,
				"y": 2.681676118,
				"z": -1.0235145214,
				"element": "C" 
			},
			{
				"x": 2.5180427762,
				"y": 5.4344936218,
				"z": -1.6384532757,
				"element": "H" 
			},
			{
				"x": 2.9478547709,
				"y": 4.2690424095,
				"z": -2.886571442,
				"element": "H" 
			},
			{
				"x": 2.3712425507,
				"y": 5.8959304444,
				"z": -3.3533523464,
				"element": "H" 
			},
			{
				"x": -1.5283584447,
				"y": 3.5368306091,
				"z": -2.530052383,
				"element": "H" 
			},
			{
				"x": -2.0777043279,
				"y": 1.2492659197,
				"z": -1.7537725099,
				"element": "H" 
			},
			{
				"x": -1.9880058712,
				"y": 2.2222009534,
				"z": -0.3150303638,
				"element": "H" 
			},
			{
				"x": 0.6923756933,
				"y": 0.5538955403,
				"z": -2.4736126469,
				"element": "H" 
			},
			{
				"x": -0.5807028807,
				"y": -0.6188489228,
				"z": -2.1754435697,
				"element": "H" 
			},
			{
				"x": 0.9701526439,
				"y": -0.767540364,
				"z": -1.3343190809,
				"element": "H" 
			},
			{
				"x": 1.7256656323,
				"y": 0.9517018467,
				"z": 0.1837468231,
				"element": "H" 
			},
			{
				"x": -0.3588935598,
				"y": 2.8787416012,
				"z": 1.2687988497,
				"element": "H" 
			},
			{
				"x": 1.3415898606,
				"y": 2.9919922549,
				"z": 1.664966867,
				"element": "H" 
			},
			{
				"x": 1.3376276531,
				"y": 1.0583677877,
				"z": 2.9764150018,
				"element": "H" 
			},
			{
				"x": -0.3477306281,
				"y": 1.500455681,
				"z": 3.1670811581,
				"element": "H" 
			},
			{
				"x": 0.8763984199,
				"y": -0.7219965043,
				"z": 1.5056841524,
				"element": "H" 
			},
			{
				"x": -1.642681961,
				"y": -0.4597370154,
				"z": 3.172465147,
				"element": "H" 
			},
			{
				"x": 0.0877192328,
				"y": -0.5050086069,
				"z": 4.8762651188,
				"element": "H" 
			},
			{
				"x": 0.9473859788,
				"y": -1.8069574221,
				"z": 4.0601525217,
				"element": "H" 
			},
			{
				"x": -0.5076823012,
				"y": -3.2253238413,
				"z": 5.4090491034,
				"element": "H" 
			},
			{
				"x": -1.7223621536,
				"y": -1.9655526487,
				"z": 5.5391607646,
				"element": "H" 
			},
			{
				"x": 0.4028011936,
				"y": -2.9532243007,
				"z": 1.0410231426,
				"element": "H" 
			},
			{
				"x": 0.573410408,
				"y": -3.5813877325,
				"z": 2.6775959562,
				"element": "H" 
			},
			{
				"x": -0.6074506356,
				"y": -4.3030563531,
				"z": 1.5822578805,
				"element": "H" 
			},
			{
				"x": -2.6918158349,
				"y": -3.0630683783,
				"z": 0.8703760305,
				"element": "H" 
			},
			{
				"x": -3.1469739149,
				"y": -1.5817710578,
				"z": 1.6991120487,
				"element": "H" 
			},
			{
				"x": -0.9203967529,
				"y": -1.9210076627,
				"z": -0.376326453,
				"element": "H" 
			},
			{
				"x": -2.4168377543,
				"y": -1.0490138118,
				"z": -0.6049725639,
				"element": "H" 
			},
			{
				"x": -1.7875270193,
				"y": 0.6450042128,
				"z": 1.0156996554,
				"element": "H" 
			},
			{
				"x": 2.0965514353,
				"y": 3.4040461013,
				"z": -0.4791978712,
				"element": "H" 
			},
			{
				"x": 2.1718195212,
				"y": 2.1674316172,
				"z": -1.7018397013,
				"element": "H" 
			}
		],
		 "valence_orbital": [ 
			{
				"type": "occ",
				"energy": -0.28912,
				"method": "rhf"
			},
			{
				"type": "occ",
				"energy": -0.28119,
				"method": "rhf"
			},
			{
				"type": "occ",
				"energy": -0.24762,
				"method": "rhf"
			},
			{
				"type": "occ",
				"energy": -0.23919,
				"method": "rhf"
			},
			{
				"type": "occ",
				"energy": -0.2318,
				"method": "rhf"
			},
			{
				"type": "unocc",
				"energy": -0.04225,
				"method": "rhf"
			},
			{
				"type": "unocc",
				"energy": -0.01392,
				"method": "rhf"
			},
			{
				"type": "unocc",
				"energy": 0.06013,
				"method": "rhf"
			},
			{
				"type": "unocc",
				"energy": 0.07007,
				"method": "rhf"
			},
			{
				"type": "unocc",
				"energy": 0.07136,
				"method": "rhf"
			}
		],
		"cosmo_sigma_profile": { 
			"-0.025": 0.0,
			"-0.024": 0.0,
			"-0.023": 0.0,
			"-0.022": 0.0,
			"-0.021": 0.0,
			"-0.02": 0.0,
			"-0.019": 0.0,
			"-0.018": 0.0,
			"-0.017": 0.0,
			"-0.016": 0.0,
			"-0.015": 0.0,
			"-0.014": 0.0,
			"-0.013": 0.0,
			"-0.012": 0.0,
			"-0.011": 0.0,
			"-0.01": 0.0,
			"-0.009": 0.0,
			"-0.008": 0.0,
			"-0.007": 0.0,
			"-0.006": 2.47147650993,
			"-0.005": 13.0346405702,
			"-0.004": 24.8576319313,
			"-0.003": 46.2679184628,
			"-0.002": 69.3681382663,
			"-0.001": 64.0830755947,
			"0.0": 47.6626097931,
			"0.001": 28.057508331,
			"0.002": 12.0542589642,
			"0.003": 5.99314975179,
			"0.004": 5.5742835342,
			"0.005": 3.57760462608,
			"0.006": 3.27503650069,
			"0.007": 4.15174594017,
			"0.008": 3.63110640014,
			"0.009": 2.89783318946,
			"0.01": 3.81562912837,
			"0.011": 4.89617116172,
			"0.012": 8.72962158833,
			"0.013": 6.94173556989,
			"0.014": 1.49916633436,
			"0.015": 0.0423229812514,
			"0.016": 0.0,
			"0.017": 0.0,
			"0.018": 0.0,
			"0.019": 0.0,
			"0.02": 0.0,
			"0.021": 0.0,
			"0.022": 0.0,
			"0.023": 0.0,
			"0.024": 0.0,
			"0.025": 0.0
		}
	}
}
