{
	 "smiles": "COC1=CC(OC)=NC(NC(=O)NS(=O)(=O)N(C)S(C)(=O)=O)=N1", 
	 "Tm": 452.15, 
	 "num_atms": 38, 
	 "gaussian": { 
		 "optdone": 1, 
		 "sigma_profile": "yes", 
		 "theory": "DFT", 
		 "functional": "B3LYP", 
		 "basiset": "6-31G**", 
		 "properties": { 
			 "R2extent": 12847.4736, 
			 "electric_dipole_moment_norm": 7.95164757079, 
			 "electric_quadrupole_moment_norm": 29.2565840063, 
			 "total_energy": -1948.58324027, 
			 "HOMO_LUMO_gap": 0.20938, 
			 "cosmo_polarized_energy": -22.45, 
			 "cosmo_cavitation_energy": 45.06, 
			 "cosmo_dispersion_energy": -31.97, 
			 "cosmo_repulsion_energy": 2.33, 
			 "cosmo_total_nonelectrostatic_energy": 15.42, 
			 "SMD_solvation_energy": 8.07 
		},
		"coords": [
			{
				"x": 1.594816638,
				"y": 0.6288818495,
				"z": -1.7560476848,
				"element": "C" 
			},
			{
				"x": 1.6450648544,
				"y": 1.7931196872,
				"z": -0.9156790099,
				"element": "O" 
			},
			{
				"x": 0.8259233522,
				"y": 1.858005086,
				"z": 0.1384046533,
				"element": "C" 
			},
			{
				"x": 0.8735814922,
				"y": 2.9981449785,
				"z": 0.9367005137,
				"element": "C" 
			},
			{
				"x": -0.0075965703,
				"y": 3.0106621115,
				"z": 2.0217244793,
				"element": "C" 
			},
			{
				"x": 0.0059546437,
				"y": 4.0878970375,
				"z": 2.8150481527,
				"element": "O" 
			},
			{
				"x": -0.8978285789,
				"y": 4.1134134615,
				"z": 3.9297248251,
				"element": "C" 
			},
			{
				"x": -0.8511844074,
				"y": 2.0079404876,
				"z": 2.2958556316,
				"element": "N" 
			},
			{
				"x": -0.803157777,
				"y": 0.9692383548,
				"z": 1.4581006646,
				"element": "C" 
			},
			{
				"x": -1.6902962592,
				"y": -0.055972429,
				"z": 1.7643667111,
				"element": "N" 
			},
			{
				"x": -1.9729919126,
				"y": -1.274046801,
				"z": 1.1352230963,
				"element": "C" 
			},
			{
				"x": -2.8510729646,
				"y": -2.0006937743,
				"z": 1.5631287543,
				"element": "O" 
			},
			{
				"x": -1.1581976263,
				"y": -1.5510515462,
				"z": 0.050050261,
				"element": "N" 
			},
			{
				"x": -1.4216207835,
				"y": -2.7928014959,
				"z": -1.063032552,
				"element": "S" 
			},
			{
				"x": -0.3204070998,
				"y": -2.6010227475,
				"z": -2.0005283401,
				"element": "O" 
			},
			{
				"x": -2.8073527056,
				"y": -2.8188948154,
				"z": -1.4985854588,
				"element": "O" 
			},
			{
				"x": -1.1732737618,
				"y": -4.1508267933,
				"z": -0.0980295136,
				"element": "N" 
			},
			{
				"x": 0.2229475815,
				"y": -4.4097981378,
				"z": 0.3089877084,
				"element": "C" 
			},
			{
				"x": -2.2447368768,
				"y": -5.5455834482,
				"z": -0.2231104244,
				"element": "S" 
			},
			{
				"x": -3.7732705149,
				"y": -4.921456802,
				"z": 0.4804443083,
				"element": "C" 
			},
			{
				"x": -1.6449953259,
				"y": -6.4996892765,
				"z": 0.7111523716,
				"element": "O" 
			},
			{
				"x": -2.4484200197,
				"y": -5.9065754026,
				"z": -1.6218280366,
				"element": "O" 
			},
			{
				"x": -0.0063744128,
				"y": 0.8334236335,
				"z": 0.390961757,
				"element": "N" 
			},
			{
				"x": 0.6045801403,
				"y": 0.5038815141,
				"z": -2.201414444,
				"element": "H" 
			},
			{
				"x": 2.3335590995,
				"y": 0.8101524638,
				"z": -2.5361832967,
				"element": "H" 
			},
			{
				"x": 1.8564067058,
				"y": -0.2735331671,
				"z": -1.1974114909,
				"element": "H" 
			},
			{
				"x": 1.545744193,
				"y": 3.8182571987,
				"z": 0.728585186,
				"element": "H" 
			},
			{
				"x": -0.6968834732,
				"y": 3.2860143587,
				"z": 4.6149253505,
				"element": "H" 
			},
			{
				"x": -1.935686575,
				"y": 4.0520153344,
				"z": 3.5928274446,
				"element": "H" 
			},
			{
				"x": -0.7140839592,
				"y": 5.0680773955,
				"z": 4.4225358658,
				"element": "H" 
			},
			{
				"x": -2.2744329381,
				"y": 0.1179761989,
				"z": 2.5716832756,
				"element": "H" 
			},
			{
				"x": -0.4969343958,
				"y": -0.8134350024,
				"z": -0.2343455907,
				"element": "H" 
			},
			{
				"x": 0.8525344431,
				"y": -4.677831692,
				"z": -0.5434135417,
				"element": "H" 
			},
			{
				"x": 0.2078452354,
				"y": -5.222416728,
				"z": 1.0331333896,
				"element": "H" 
			},
			{
				"x": 0.6125852702,
				"y": -3.5092455622,
				"z": 0.789068276,
				"element": "H" 
			},
			{
				"x": -4.207243444,
				"y": -4.2071825181,
				"z": -0.2155196894,
				"element": "H" 
			},
			{
				"x": -4.4081760159,
				"y": -5.8006278497,
				"z": 0.6068605971,
				"element": "H" 
			},
			{
				"x": -3.5444252512,
				"y": -4.4426151622,
				"z": 1.4309358003,
				"element": "H" 
			}
		],
		 "valence_orbital": [ 
			{
				"type": "occ",
				"energy": -0.301,
				"method": "rhf"
			},
			{
				"type": "occ",
				"energy": -0.29541,
				"method": "rhf"
			},
			{
				"type": "occ",
				"energy": -0.29354,
				"method": "rhf"
			},
			{
				"type": "occ",
				"energy": -0.27909,
				"method": "rhf"
			},
			{
				"type": "occ",
				"energy": -0.25187,
				"method": "rhf"
			},
			{
				"type": "unocc",
				"energy": -0.04249,
				"method": "rhf"
			},
			{
				"type": "unocc",
				"energy": -0.0291,
				"method": "rhf"
			},
			{
				"type": "unocc",
				"energy": 0.00693,
				"method": "rhf"
			},
			{
				"type": "unocc",
				"energy": 0.02763,
				"method": "rhf"
			},
			{
				"type": "unocc",
				"energy": 0.04498,
				"method": "rhf"
			}
		],
		"cosmo_sigma_profile": { 
			"-0.025": 0.0,
			"-0.024": 0.0,
			"-0.023": 0.0,
			"-0.022": 0.0,
			"-0.021": 0.0,
			"-0.02": 0.0,
			"-0.019": 0.0,
			"-0.018": 0.0,
			"-0.017": 0.0,
			"-0.016": 0.0807066556348,
			"-0.015": 0.758649087692,
			"-0.014": 0.564471295917,
			"-0.013": 0.685170647257,
			"-0.012": 0.789914790081,
			"-0.011": 1.0835032663,
			"-0.01": 2.07947333472,
			"-0.009": 3.71823669668,
			"-0.008": 3.03601842982,
			"-0.007": 9.36267667603,
			"-0.006": 22.776399306,
			"-0.005": 31.6292614579,
			"-0.004": 36.0764514445,
			"-0.003": 34.2088287472,
			"-0.002": 26.4589273063,
			"-0.001": 21.9800894117,
			"0.0": 19.6562214742,
			"0.001": 18.7419618627,
			"0.002": 15.3442796108,
			"0.003": 11.5518627288,
			"0.004": 10.9510420237,
			"0.005": 11.6050918842,
			"0.006": 12.5859104342,
			"0.007": 13.0778259504,
			"0.008": 13.7505767901,
			"0.009": 18.422980832,
			"0.01": 14.4797953078,
			"0.011": 2.77493584663,
			"0.012": 0.901831172365,
			"0.013": 0.00914345631804,
			"0.014": 0.0,
			"0.015": 0.0,
			"0.016": 0.0,
			"0.017": 0.0,
			"0.018": 0.0,
			"0.019": 0.0,
			"0.02": 0.0,
			"0.021": 0.0,
			"0.022": 0.0,
			"0.023": 0.0,
			"0.024": 0.0,
			"0.025": 0.0
		}
	}
}
