{
	 "smiles": "CC1=NNC(SCC2=CC=C(Cl)C=C2)=N1", 
	 "Tm": 425.15, 
	 "num_atms": 25, 
	 "gaussian": { 
		 "optdone": 1, 
		 "sigma_profile": "yes", 
		 "theory": "DFT", 
		 "functional": "B3LYP", 
		 "basiset": "6-31G**", 
		 "properties": { 
			 "R2extent": 5319.2237, 
			 "electric_dipole_moment_norm": 1.81826926774, 
			 "electric_quadrupole_moment_norm": 12.5152705804, 
			 "total_energy": -1409.72276091, 
			 "HOMO_LUMO_gap": 0.19783, 
			 "cosmo_polarized_energy": -12.27, 
			 "cosmo_cavitation_energy": 32.98, 
			 "cosmo_dispersion_energy": -24.11, 
			 "cosmo_repulsion_energy": 1.87, 
			 "cosmo_total_nonelectrostatic_energy": 10.74, 
			 "SMD_solvation_energy": 3.06 
		},
		"coords": [
			{
				"x": -4.2201457078,
				"y": -1.1979918253,
				"z": 1.9948914828,
				"element": "C" 
			},
			{
				"x": -2.7883610511,
				"y": -1.6190786243,
				"z": 1.9370008608,
				"element": "C" 
			},
			{
				"x": -2.4179587178,
				"y": -2.8895033179,
				"z": 1.9831265874,
				"element": "N" 
			},
			{
				"x": -1.0588546856,
				"y": -2.7971846933,
				"z": 1.8946592621,
				"element": "N" 
			},
			{
				"x": -0.6807733707,
				"y": -1.5003928718,
				"z": 1.8124404386,
				"element": "C" 
			},
			{
				"x": 1.0123837492,
				"y": -1.0156247506,
				"z": 1.7502702261,
				"element": "S" 
			},
			{
				"x": 0.8212893031,
				"y": 0.7508793359,
				"z": 1.2012559753,
				"element": "C" 
			},
			{
				"x": 0.6617643172,
				"y": 0.937324733,
				"z": -0.2834958935,
				"element": "C" 
			},
			{
				"x": 1.783712534,
				"y": 1.0504073072,
				"z": -1.1152971142,
				"element": "C" 
			},
			{
				"x": 1.6462155367,
				"y": 1.230418617,
				"z": -2.4903182245,
				"element": "C" 
			},
			{
				"x": 0.3654260592,
				"y": 1.2981553099,
				"z": -3.0384170071,
				"element": "C" 
			},
			{
				"x": 0.1794912509,
				"y": 1.5291956447,
				"z": -4.7716920067,
				"element": "Cl" 
			},
			{
				"x": -0.7683137064,
				"y": 1.1899094393,
				"z": -2.2344137357,
				"element": "C" 
			},
			{
				"x": -0.6137241253,
				"y": 1.0104795198,
				"z": -0.8600693059,
				"element": "C" 
			},
			{
				"x": -1.7518821924,
				"y": -0.7234726298,
				"z": 1.8351569547,
				"element": "N" 
			},
			{
				"x": -4.3942197013,
				"y": -0.5338490672,
				"z": 2.8473529545,
				"element": "H" 
			},
			{
				"x": -4.8625743611,
				"y": -2.075032174,
				"z": 2.090228978,
				"element": "H" 
			},
			{
				"x": -4.5007312342,
				"y": -0.6496100588,
				"z": 1.0897597833,
				"element": "H" 
			},
			{
				"x": -0.4908180441,
				"y": -3.6306431093,
				"z": 1.8863373543,
				"element": "H" 
			},
			{
				"x": -0.0293651106,
				"y": 1.1457546091,
				"z": 1.7579401083,
				"element": "H" 
			},
			{
				"x": 1.7344222666,
				"y": 1.2254420056,
				"z": 1.5688992437,
				"element": "H" 
			},
			{
				"x": 2.7812490952,
				"y": 0.9987294387,
				"z": -0.686089813,
				"element": "H" 
			},
			{
				"x": 2.5175736724,
				"y": 1.3210788582,
				"z": -3.1292972439,
				"element": "H" 
			},
			{
				"x": -1.756288394,
				"y": 1.248070122,
				"z": -2.6777286414,
				"element": "H" 
			},
			{
				"x": -1.4877173819,
				"y": 0.9144381818,
				"z": -0.2237012239,
				"element": "H" 
			}
		],
		 "valence_orbital": [ 
			{
				"type": "occ",
				"energy": -0.28409,
				"method": "rhf"
			},
			{
				"type": "occ",
				"energy": -0.28007,
				"method": "rhf"
			},
			{
				"type": "occ",
				"energy": -0.2652,
				"method": "rhf"
			},
			{
				"type": "occ",
				"energy": -0.24648,
				"method": "rhf"
			},
			{
				"type": "occ",
				"energy": -0.22844,
				"method": "rhf"
			},
			{
				"type": "unocc",
				"energy": -0.03061,
				"method": "rhf"
			},
			{
				"type": "unocc",
				"energy": -0.01696,
				"method": "rhf"
			},
			{
				"type": "unocc",
				"energy": 0.00778,
				"method": "rhf"
			},
			{
				"type": "unocc",
				"energy": 0.0214,
				"method": "rhf"
			},
			{
				"type": "unocc",
				"energy": 0.02877,
				"method": "rhf"
			}
		],
		"cosmo_sigma_profile": { 
			"-0.025": 0.0,
			"-0.024": 0.0,
			"-0.023": 0.0,
			"-0.022": 0.0,
			"-0.021": 0.0,
			"-0.02": 0.0,
			"-0.019": 0.0,
			"-0.018": 0.260668143368,
			"-0.017": 1.47298731877,
			"-0.016": 1.49927567281,
			"-0.015": 1.28545590463,
			"-0.014": 0.734204145882,
			"-0.013": 0.42512931485,
			"-0.012": 2.09716158507,
			"-0.011": 0.810094873989,
			"-0.01": 0.571346010991,
			"-0.009": 0.90923161069,
			"-0.008": 3.91481402062,
			"-0.007": 8.46531941417,
			"-0.006": 10.4772428964,
			"-0.005": 13.5741658187,
			"-0.004": 14.6561017213,
			"-0.003": 16.5560819282,
			"-0.002": 17.3331275939,
			"-0.001": 20.1159718545,
			"0.0": 19.7626268967,
			"0.001": 22.2444297447,
			"0.002": 23.3537103789,
			"0.003": 26.8985081186,
			"0.004": 24.6506214299,
			"0.005": 13.1396052783,
			"0.006": 6.4567412588,
			"0.007": 3.61624706112,
			"0.008": 2.09168548035,
			"0.009": 1.84641507378,
			"0.01": 1.56971714325,
			"0.011": 1.95113693804,
			"0.012": 1.94100441819,
			"0.013": 1.39885172366,
			"0.014": 0.98309379137,
			"0.015": 0.833292054285,
			"0.016": 0.0774677981965,
			"0.017": 0.0,
			"0.018": 0.0,
			"0.019": 0.0,
			"0.02": 0.0,
			"0.021": 0.0,
			"0.022": 0.0,
			"0.023": 0.0,
			"0.024": 0.0,
			"0.025": 0.0
		}
	}
}
