{
	 "smiles": "COC1=C(NN=C2C(C)=NN(CN3CCCCC3)C2=O)C=CC=C1", 
	 "Tm": 421.15, 
	 "num_atms": 47, 
	 "gaussian": { 
		 "optdone": 1, 
		 "sigma_profile": "yes", 
		 "theory": "DFT", 
		 "functional": "B3LYP", 
		 "basiset": "6-31G**", 
		 "properties": { 
			 "R2extent": 12438.7889, 
			 "electric_dipole_moment_norm": 2.3466938211, 
			 "electric_quadrupole_moment_norm": 15.1685698746, 
			 "total_energy": -1085.82957797, 
			 "HOMO_LUMO_gap": 0.12096, 
			 "cosmo_polarized_energy": -13.52, 
			 "cosmo_cavitation_energy": 48.97, 
			 "cosmo_dispersion_energy": -34.49, 
			 "cosmo_repulsion_energy": 2.64, 
			 "cosmo_total_nonelectrostatic_energy": 17.12, 
			 "SMD_solvation_energy": 4.88 
		},
		"coords": [
			{
				"x": -1.6729979633,
				"y": 4.3684987558,
				"z": 1.9048973448,
				"element": "C" 
			},
			{
				"x": -1.0599964774,
				"y": 3.087777253,
				"z": 1.9220716705,
				"element": "O" 
			},
			{
				"x": -0.3968870177,
				"y": 2.6935951538,
				"z": 3.0481194619,
				"element": "C" 
			},
			{
				"x": 0.1880139955,
				"y": 1.40804961,
				"z": 2.9747141544,
				"element": "C" 
			},
			{
				"x": 0.0255937945,
				"y": 0.6982449336,
				"z": 1.7799283223,
				"element": "N" 
			},
			{
				"x": 0.5376190093,
				"y": -0.5028625738,
				"z": 1.6263693279,
				"element": "N" 
			},
			{
				"x": 0.3395843695,
				"y": -1.0966764741,
				"z": 0.4730478664,
				"element": "C" 
			},
			{
				"x": 0.8026770696,
				"y": -2.4106399423,
				"z": 0.0774608425,
				"element": "C" 
			},
			{
				"x": 1.6084752506,
				"y": -3.3709855563,
				"z": 0.8888939987,
				"element": "C" 
			},
			{
				"x": 0.4126653725,
				"y": -2.6850616353,
				"z": -1.1390558496,
				"element": "N" 
			},
			{
				"x": -0.3228478363,
				"y": -1.5924132473,
				"z": -1.6051666524,
				"element": "N" 
			},
			{
				"x": -0.8031429844,
				"y": -1.5515460592,
				"z": -2.9742401896,
				"element": "C" 
			},
			{
				"x": 0.1784561899,
				"y": -1.0094136705,
				"z": -3.898056613,
				"element": "N" 
			},
			{
				"x": -0.3719826086,
				"y": -0.2486398054,
				"z": -5.0223364144,
				"element": "C" 
			},
			{
				"x": -0.9119785528,
				"y": -1.1227830274,
				"z": -6.1699743274,
				"element": "C" 
			},
			{
				"x": 0.1667188486,
				"y": -2.1120289595,
				"z": -6.6402371844,
				"element": "C" 
			},
			{
				"x": 0.7264961142,
				"y": -2.9123591293,
				"z": -5.4530815748,
				"element": "C" 
			},
			{
				"x": 1.2031985953,
				"y": -1.9685967832,
				"z": -4.3323979454,
				"element": "C" 
			},
			{
				"x": -0.4029767088,
				"y": -0.5727919544,
				"z": -0.689463583,
				"element": "C" 
			},
			{
				"x": -0.9828491558,
				"y": 0.5167243824,
				"z": -0.8077444293,
				"element": "O" 
			},
			{
				"x": 0.8918045613,
				"y": 0.9002732642,
				"z": 4.0686616898,
				"element": "C" 
			},
			{
				"x": 1.0172094964,
				"y": 1.660461517,
				"z": 5.231286246,
				"element": "C" 
			},
			{
				"x": 0.4411429934,
				"y": 2.9278297812,
				"z": 5.3044889829,
				"element": "C" 
			},
			{
				"x": -0.2661540722,
				"y": 3.4466320991,
				"z": 4.2147316997,
				"element": "C" 
			},
			{
				"x": -0.9342347279,
				"y": 5.1674188856,
				"z": 2.0444832302,
				"element": "H" 
			},
			{
				"x": -2.447113245,
				"y": 4.4519457395,
				"z": 2.6778064995,
				"element": "H" 
			},
			{
				"x": -2.131581003,
				"y": 4.4668952485,
				"z": 0.920540508,
				"element": "H" 
			},
			{
				"x": -0.5014214402,
				"y": 1.1181399811,
				"z": 1.0036362524,
				"element": "H" 
			},
			{
				"x": 2.5673090033,
				"y": -2.9291128353,
				"z": 1.1814622702,
				"element": "H" 
			},
			{
				"x": 1.7972826838,
				"y": -4.2772698808,
				"z": 0.3098253968,
				"element": "H" 
			},
			{
				"x": 1.0843695701,
				"y": -3.6415023854,
				"z": 1.812171502,
				"element": "H" 
			},
			{
				"x": -1.133363859,
				"y": -2.574342,
				"z": -3.2083051145,
				"element": "H" 
			},
			{
				"x": -1.6760772435,
				"y": -0.893906699,
				"z": -2.9708123077,
				"element": "H" 
			},
			{
				"x": -1.1464401419,
				"y": 0.4261275483,
				"z": -4.6415132295,
				"element": "H" 
			},
			{
				"x": 0.4352480931,
				"y": 0.3875785767,
				"z": -5.4141752151,
				"element": "H" 
			},
			{
				"x": -1.242027189,
				"y": -0.4853526205,
				"z": -7.0000347954,
				"element": "H" 
			},
			{
				"x": -1.7971618707,
				"y": -1.6765155108,
				"z": -5.826906978,
				"element": "H" 
			},
			{
				"x": 0.985366332,
				"y": -1.549661437,
				"z": -7.1130077466,
				"element": "H" 
			},
			{
				"x": -0.2327998855,
				"y": -2.7852994933,
				"z": -7.4078522603,
				"element": "H" 
			},
			{
				"x": 1.5570118001,
				"y": -3.5534367318,
				"z": -5.7736437327,
				"element": "H" 
			},
			{
				"x": -0.0510777237,
				"y": -3.5838546898,
				"z": -5.0639027355,
				"element": "H" 
			},
			{
				"x": 2.0669514497,
				"y": -1.3911742947,
				"z": -4.6920269832,
				"element": "H" 
			},
			{
				"x": 1.5363320154,
				"y": -2.5361089993,
				"z": -3.4589750164,
				"element": "H" 
			},
			{
				"x": 1.3311607227,
				"y": -0.0867812414,
				"z": 3.9884738377,
				"element": "H" 
			},
			{
				"x": 1.5659232499,
				"y": 1.2587538333,
				"z": 6.0772321139,
				"element": "H" 
			},
			{
				"x": 0.5368270675,
				"y": 3.5224373561,
				"z": 6.2077246115,
				"element": "H" 
			},
			{
				"x": -0.7105259413,
				"y": 4.432633718,
				"z": 4.2801830482,
				"element": "H" 
			}
		],
		 "valence_orbital": [ 
			{
				"type": "occ",
				"energy": -0.24199,
				"method": "rhf"
			},
			{
				"type": "occ",
				"energy": -0.23897,
				"method": "rhf"
			},
			{
				"type": "occ",
				"energy": -0.2239,
				"method": "rhf"
			},
			{
				"type": "occ",
				"energy": -0.20068,
				"method": "rhf"
			},
			{
				"type": "occ",
				"energy": -0.19626,
				"method": "rhf"
			},
			{
				"type": "unocc",
				"energy": -0.0753,
				"method": "rhf"
			},
			{
				"type": "unocc",
				"energy": 0.00424,
				"method": "rhf"
			},
			{
				"type": "unocc",
				"energy": 0.01457,
				"method": "rhf"
			},
			{
				"type": "unocc",
				"energy": 0.04485,
				"method": "rhf"
			},
			{
				"type": "unocc",
				"energy": 0.08298,
				"method": "rhf"
			}
		],
		"cosmo_sigma_profile": { 
			"-0.025": 0.0,
			"-0.024": 0.0,
			"-0.023": 0.0,
			"-0.022": 0.0,
			"-0.021": 0.0,
			"-0.02": 0.0,
			"-0.019": 0.0,
			"-0.018": 0.0,
			"-0.017": 0.0,
			"-0.016": 0.0,
			"-0.015": 0.0,
			"-0.014": 0.0,
			"-0.013": 0.0,
			"-0.012": 0.0,
			"-0.011": 0.0,
			"-0.01": 0.0,
			"-0.009": 0.0,
			"-0.008": 0.0137345728136,
			"-0.007": 2.30714772764,
			"-0.006": 14.1217290375,
			"-0.005": 23.1539582214,
			"-0.004": 28.9398155396,
			"-0.003": 38.4235895289,
			"-0.002": 46.369476851,
			"-0.001": 47.8323972616,
			"0.0": 44.1756025483,
			"0.001": 35.2081295995,
			"0.002": 21.4382726907,
			"0.003": 17.6283470679,
			"0.004": 17.9544855418,
			"0.005": 15.4053433002,
			"0.006": 6.52031781903,
			"0.007": 3.28198523874,
			"0.008": 4.46782995533,
			"0.009": 3.68824522465,
			"0.01": 2.97112139901,
			"0.011": 3.65669751308,
			"0.012": 4.05475481599,
			"0.013": 3.37411597553,
			"0.014": 1.06371038698,
			"0.015": 0.129740489811,
			"0.016": 0.0,
			"0.017": 0.0,
			"0.018": 0.0,
			"0.019": 0.0,
			"0.02": 0.0,
			"0.021": 0.0,
			"0.022": 0.0,
			"0.023": 0.0,
			"0.024": 0.0,
			"0.025": 0.0
		}
	}
}
