{
	 "smiles": "OC(=O)C=CC1=CC=CS1", 
	 "Tm": 419.15, 
	 "num_atms": 16, 
	 "gaussian": { 
		 "optdone": 1, 
		 "sigma_profile": "yes", 
		 "theory": "DFT", 
		 "functional": "B3LYP", 
		 "basiset": "6-31G**", 
		 "properties": { 
			 "R2extent": 2927.2666, 
			 "electric_dipole_moment_norm": 5.70601772605, 
			 "electric_quadrupole_moment_norm": 15.9827081923, 
			 "total_energy": -818.972281911, 
			 "HOMO_LUMO_gap": 0.15543, 
			 "cosmo_polarized_energy": -16.17, 
			 "cosmo_cavitation_energy": 22.98, 
			 "cosmo_dispersion_energy": -17.37, 
			 "cosmo_repulsion_energy": 1.36, 
			 "cosmo_total_nonelectrostatic_energy": 6.98, 
			 "SMD_solvation_energy": 5.33 
		},
		"coords": [
			{
				"x": -0.2695106651,
				"y": -1.1863504021,
				"z": -3.6414848634,
				"element": "O" 
			},
			{
				"x": -0.0818202391,
				"y": -1.8968133878,
				"z": -2.4927358835,
				"element": "C" 
			},
			{
				"x": -0.1341434427,
				"y": -3.1065258255,
				"z": -2.5211160085,
				"element": "O" 
			},
			{
				"x": 0.1767886664,
				"y": -1.0938991326,
				"z": -1.273872421,
				"element": "C" 
			},
			{
				"x": 0.3727052081,
				"y": -1.7210904696,
				"z": -0.0956328967,
				"element": "C" 
			},
			{
				"x": 0.6352514076,
				"y": -1.1007879169,
				"z": 1.1824854493,
				"element": "C" 
			},
			{
				"x": 0.7508128181,
				"y": 0.2338630423,
				"z": 1.5271476562,
				"element": "C" 
			},
			{
				"x": 1.015954695,
				"y": 0.4413046308,
				"z": 2.9045501609,
				"element": "C" 
			},
			{
				"x": 1.1029435221,
				"y": -0.7328319183,
				"z": 3.6117213061,
				"element": "C" 
			},
			{
				"x": 0.8611046009,
				"y": -2.1082996193,
				"z": 2.5995278674,
				"element": "S" 
			},
			{
				"x": -0.2001543394,
				"y": -0.2378933827,
				"z": -3.4658652541,
				"element": "H" 
			},
			{
				"x": 0.2047402764,
				"y": -0.0085823629,
				"z": -1.3478017068,
				"element": "H" 
			},
			{
				"x": 0.3252664955,
				"y": -2.8085967005,
				"z": -0.1253377439,
				"element": "H" 
			},
			{
				"x": 0.6476946788,
				"y": 1.0396313565,
				"z": 0.8092898534,
				"element": "H" 
			},
			{
				"x": 1.137897626,
				"y": 1.4187880171,
				"z": 3.3566538367,
				"element": "H" 
			},
			{
				"x": 1.2951686913,
				"y": -0.8625159285,
				"z": 4.6677706479,
				"element": "H" 
			}
		],
		 "valence_orbital": [ 
			{
				"type": "occ",
				"energy": -0.32264,
				"method": "rhf"
			},
			{
				"type": "occ",
				"energy": -0.30262,
				"method": "rhf"
			},
			{
				"type": "occ",
				"energy": -0.26944,
				"method": "rhf"
			},
			{
				"type": "occ",
				"energy": -0.26837,
				"method": "rhf"
			},
			{
				"type": "occ",
				"energy": -0.23218,
				"method": "rhf"
			},
			{
				"type": "unocc",
				"energy": -0.07675,
				"method": "rhf"
			},
			{
				"type": "unocc",
				"energy": 0.00242,
				"method": "rhf"
			},
			{
				"type": "unocc",
				"energy": 0.011,
				"method": "rhf"
			},
			{
				"type": "unocc",
				"energy": 0.05464,
				"method": "rhf"
			},
			{
				"type": "unocc",
				"energy": 0.05922,
				"method": "rhf"
			}
		],
		"cosmo_sigma_profile": { 
			"-0.025": 0.0,
			"-0.024": 0.0,
			"-0.023": 0.0,
			"-0.022": 0.0,
			"-0.021": 0.0,
			"-0.02": 0.0141197972704,
			"-0.019": 0.606539630931,
			"-0.018": 1.3333358942,
			"-0.017": 0.706553329422,
			"-0.016": 1.2169661337,
			"-0.015": 1.44818828497,
			"-0.014": 0.656979923932,
			"-0.013": 1.04369656779,
			"-0.012": 1.19255538199,
			"-0.011": 1.13950498126,
			"-0.01": 0.985114084395,
			"-0.009": 3.95110529191,
			"-0.008": 5.78041516538,
			"-0.007": 8.71476605383,
			"-0.006": 9.02999051116,
			"-0.005": 8.14248858583,
			"-0.004": 8.76463968555,
			"-0.003": 7.88304810428,
			"-0.002": 8.79515991921,
			"-0.001": 8.77890437011,
			"0.0": 11.2436674385,
			"0.001": 13.118531365,
			"0.002": 18.5795460598,
			"0.003": 21.3395586699,
			"0.004": 10.8138245738,
			"0.005": 2.56965752806,
			"0.006": 2.41269935752,
			"0.007": 2.28042508435,
			"0.008": 2.34663556913,
			"0.009": 2.712581313,
			"0.01": 3.75992257005,
			"0.011": 5.19747615572,
			"0.012": 5.51730708149,
			"0.013": 3.67955190819,
			"0.014": 0.951803055269,
			"0.015": 0.0,
			"0.016": 0.0,
			"0.017": 0.0,
			"0.018": 0.0,
			"0.019": 0.0,
			"0.02": 0.0,
			"0.021": 0.0,
			"0.022": 0.0,
			"0.023": 0.0,
			"0.024": 0.0,
			"0.025": 0.0
		}
	}
}
