{
	 "smiles": "N#CC1=CC=C(OC2CCOCC2)N=C1", 
	 "Tm": 407.15, 
	 "num_atms": 27, 
	 "gaussian": { 
		 "optdone": 1, 
		 "sigma_profile": "yes", 
		 "theory": "DFT", 
		 "functional": "B3LYP", 
		 "basiset": "6-31G**", 
		 "properties": { 
			 "R2extent": 5071.4332, 
			 "electric_dipole_moment_norm": 3.62827862629, 
			 "electric_quadrupole_moment_norm": 26.9051604647, 
			 "total_energy": -686.329876056, 
			 "HOMO_LUMO_gap": 0.20027, 
			 "cosmo_polarized_energy": -12.13, 
			 "cosmo_cavitation_energy": 31.12, 
			 "cosmo_dispersion_energy": -22.42, 
			 "cosmo_repulsion_energy": 1.77, 
			 "cosmo_total_nonelectrostatic_energy": 10.47, 
			 "SMD_solvation_energy": 5.9 
		},
		"coords": [
			{
				"x": -3.0632498715,
				"y": -3.8503347869,
				"z": -4.4006452224,
				"element": "N" 
			},
			{
				"x": -2.560495649,
				"y": -3.1577279646,
				"z": -3.6119790189,
				"element": "C" 
			},
			{
				"x": -1.9421243496,
				"y": -2.3088970659,
				"z": -2.642846272,
				"element": "C" 
			},
			{
				"x": -2.2211815807,
				"y": -0.9254560452,
				"z": -2.5865127952,
				"element": "C" 
			},
			{
				"x": -1.5959628853,
				"y": -0.1515633329,
				"z": -1.6313764247,
				"element": "C" 
			},
			{
				"x": -0.6965598166,
				"y": -0.7836725882,
				"z": -0.7459319355,
				"element": "C" 
			},
			{
				"x": -0.1155299348,
				"y": 0.0004113012,
				"z": 0.1761812279,
				"element": "O" 
			},
			{
				"x": 0.8123268762,
				"y": -0.5838536515,
				"z": 1.1259715396,
				"element": "C" 
			},
			{
				"x": 0.8320642416,
				"y": 0.33487506,
				"z": 2.3445850545,
				"element": "C" 
			},
			{
				"x": 1.9128346626,
				"y": -0.1358488927,
				"z": 3.3264822094,
				"element": "C" 
			},
			{
				"x": 3.1908134425,
				"y": -0.1996042624,
				"z": 2.7111597113,
				"element": "O" 
			},
			{
				"x": 3.2085875069,
				"y": -1.1103236098,
				"z": 1.6207171221,
				"element": "C" 
			},
			{
				"x": 2.2137743894,
				"y": -0.7059274741,
				"z": 0.5250225306,
				"element": "C" 
			},
			{
				"x": -0.4197114173,
				"y": -2.0876584883,
				"z": -0.7874050159,
				"element": "N" 
			},
			{
				"x": -1.0323308878,
				"y": -2.8289031916,
				"z": -1.7143189176,
				"element": "C" 
			},
			{
				"x": -2.9208159036,
				"y": -0.4845142935,
				"z": -3.2888438564,
				"element": "H" 
			},
			{
				"x": -1.7749336074,
				"y": 0.9133519966,
				"z": -1.5415606782,
				"element": "H" 
			},
			{
				"x": 0.4425874247,
				"y": -1.5776346544,
				"z": 1.3989214883,
				"element": "H" 
			},
			{
				"x": 1.0567862273,
				"y": 1.3570751707,
				"z": 2.0198222035,
				"element": "H" 
			},
			{
				"x": -0.1485287369,
				"y": 0.3459702827,
				"z": 2.8336052441,
				"element": "H" 
			},
			{
				"x": 1.641747209,
				"y": -1.1232800156,
				"z": 3.739773918,
				"element": "H" 
			},
			{
				"x": 2.0064112936,
				"y": 0.5617888522,
				"z": 4.1631800367,
				"element": "H" 
			},
			{
				"x": 2.9824342563,
				"y": -2.1306344484,
				"z": 1.9765067539,
				"element": "H" 
			},
			{
				"x": 4.231803345,
				"y": -1.110467534,
				"z": 1.2353666054,
				"element": "H" 
			},
			{
				"x": 2.5073339412,
				"y": 0.2643156708,
				"z": 0.1080444995,
				"element": "H" 
			},
			{
				"x": 2.2187133321,
				"y": -1.4442636337,
				"z": -0.2827444384,
				"element": "H" 
			},
			{
				"x": -0.7898935078,
				"y": -3.8889224003,
				"z": -1.7256755697,
				"element": "H" 
			}
		],
		 "valence_orbital": [ 
			{
				"type": "occ",
				"energy": -0.31309,
				"method": "rhf"
			},
			{
				"type": "occ",
				"energy": -0.30764,
				"method": "rhf"
			},
			{
				"type": "occ",
				"energy": -0.28769,
				"method": "rhf"
			},
			{
				"type": "occ",
				"energy": -0.26097,
				"method": "rhf"
			},
			{
				"type": "occ",
				"energy": -0.24933,
				"method": "rhf"
			},
			{
				"type": "unocc",
				"energy": -0.04906,
				"method": "rhf"
			},
			{
				"type": "unocc",
				"energy": -0.04501,
				"method": "rhf"
			},
			{
				"type": "unocc",
				"energy": 0.03111,
				"method": "rhf"
			},
			{
				"type": "unocc",
				"energy": 0.07139,
				"method": "rhf"
			},
			{
				"type": "unocc",
				"energy": 0.07528,
				"method": "rhf"
			}
		],
		"cosmo_sigma_profile": { 
			"-0.025": 0.0,
			"-0.024": 0.0,
			"-0.023": 0.0,
			"-0.022": 0.0,
			"-0.021": 0.0,
			"-0.02": 0.0,
			"-0.019": 0.0,
			"-0.018": 0.0,
			"-0.017": 0.0,
			"-0.016": 0.0,
			"-0.015": 0.0,
			"-0.014": 0.0,
			"-0.013": 0.0,
			"-0.012": 0.0,
			"-0.011": 0.0,
			"-0.01": 0.0129031212753,
			"-0.009": 2.25303986247,
			"-0.008": 5.9001563796,
			"-0.007": 6.92662659696,
			"-0.006": 6.38092231039,
			"-0.005": 13.3982302611,
			"-0.004": 25.4297705252,
			"-0.003": 29.3043720157,
			"-0.002": 26.4354351759,
			"-0.001": 27.2816635239,
			"0.0": 21.0467218243,
			"0.001": 12.4943167964,
			"0.002": 9.28504761149,
			"0.003": 6.41228578085,
			"0.004": 6.97539189232,
			"0.005": 5.48386675858,
			"0.006": 6.8788210679,
			"0.007": 5.70112917532,
			"0.008": 7.00507799541,
			"0.009": 5.72184262129,
			"0.01": 4.94871754585,
			"0.011": 3.84621790667,
			"0.012": 4.25029172301,
			"0.013": 3.36647312487,
			"0.014": 0.687969333384,
			"0.015": 0.0,
			"0.016": 0.0,
			"0.017": 0.0,
			"0.018": 0.0,
			"0.019": 0.0,
			"0.02": 0.0,
			"0.021": 0.0,
			"0.022": 0.0,
			"0.023": 0.0,
			"0.024": 0.0,
			"0.025": 0.0
		}
	}
}
