{
	 "smiles": "CS(=O)(=O)CC(=O)C1=CC=CC=C1", 
	 "Tm": 380.15, 
	 "num_atms": 23, 
	 "gaussian": { 
		 "optdone": 1, 
		 "sigma_profile": "yes", 
		 "theory": "DFT", 
		 "functional": "B3LYP", 
		 "basiset": "6-31G**", 
		 "properties": { 
			 "R2extent": 3211.8688, 
			 "electric_dipole_moment_norm": 3.00485554728, 
			 "electric_quadrupole_moment_norm": 15.7491368303, 
			 "total_energy": -972.780091045, 
			 "HOMO_LUMO_gap": 0.188, 
			 "cosmo_polarized_energy": -16.4, 
			 "cosmo_cavitation_energy": 28.21, 
			 "cosmo_dispersion_energy": -20.79, 
			 "cosmo_repulsion_energy": 1.58, 
			 "cosmo_total_nonelectrostatic_energy": 9.0, 
			 "SMD_solvation_energy": 4.97 
		},
		"coords": [
			{
				"x": 2.0980222831,
				"y": -2.3430587836,
				"z": -1.2110289194,
				"element": "C" 
			},
			{
				"x": 2.4447094867,
				"y": -0.8877058119,
				"z": -0.202107748,
				"element": "S" 
			},
			{
				"x": 1.6768948844,
				"y": -0.996161016,
				"z": 1.0485020483,
				"element": "O" 
			},
			{
				"x": 3.898567076,
				"y": -0.6743585229,
				"z": -0.1695697201,
				"element": "O" 
			},
			{
				"x": 1.7293478111,
				"y": 0.49560268,
				"z": -1.1688465716,
				"element": "C" 
			},
			{
				"x": 0.2094105414,
				"y": 0.4130444533,
				"z": -1.3111534413,
				"element": "C" 
			},
			{
				"x": -0.2500563991,
				"y": -0.3026880912,
				"z": -2.1921777122,
				"element": "O" 
			},
			{
				"x": -0.6654392471,
				"y": 1.2062132217,
				"z": -0.4074321279,
				"element": "C" 
			},
			{
				"x": -0.209078641,
				"y": 1.7700774926,
				"z": 0.7949056982,
				"element": "C" 
			},
			{
				"x": -1.0863630092,
				"y": 2.4884661724,
				"z": 1.6059075409,
				"element": "C" 
			},
			{
				"x": -2.416759612,
				"y": 2.6605383935,
				"z": 1.2188795429,
				"element": "C" 
			},
			{
				"x": -2.8794060188,
				"y": 2.097437839,
				"z": 0.0248033699,
				"element": "C" 
			},
			{
				"x": -2.0118168673,
				"y": 1.3666541515,
				"z": -0.7790503383,
				"element": "C" 
			},
			{
				"x": 2.3996663916,
				"y": -3.2012583273,
				"z": -0.6077963857,
				"element": "H" 
			},
			{
				"x": 1.0328208637,
				"y": -2.3781276133,
				"z": -1.4393130463,
				"element": "H" 
			},
			{
				"x": 2.6920795649,
				"y": -2.2889024824,
				"z": -2.1240143834,
				"element": "H" 
			},
			{
				"x": 2.1781600638,
				"y": 0.4467861628,
				"z": -2.1630852347,
				"element": "H" 
			},
			{
				"x": 2.088071876,
				"y": 1.3879885119,
				"z": -0.6531495212,
				"element": "H" 
			},
			{
				"x": 0.8115180079,
				"y": 1.6121271537,
				"z": 1.1244794138,
				"element": "H" 
			},
			{
				"x": -0.7318094064,
				"y": 2.9100726329,
				"z": 2.5414119582,
				"element": "H" 
			},
			{
				"x": -3.0949810149,
				"y": 3.2287894801,
				"z": 1.8490400426,
				"element": "H" 
			},
			{
				"x": -3.9155139543,
				"y": 2.2278089364,
				"z": -0.2730091784,
				"element": "H" 
			},
			{
				"x": -2.3497446806,
				"y": 0.9118533668,
				"z": -1.7040952862,
				"element": "H" 
			}
		],
		 "valence_orbital": [ 
			{
				"type": "occ",
				"energy": -0.30213,
				"method": "rhf"
			},
			{
				"type": "occ",
				"energy": -0.29489,
				"method": "rhf"
			},
			{
				"type": "occ",
				"energy": -0.27083,
				"method": "rhf"
			},
			{
				"type": "occ",
				"energy": -0.269,
				"method": "rhf"
			},
			{
				"type": "occ",
				"energy": -0.26565,
				"method": "rhf"
			},
			{
				"type": "unocc",
				"energy": -0.07765,
				"method": "rhf"
			},
			{
				"type": "unocc",
				"energy": -0.01745,
				"method": "rhf"
			},
			{
				"type": "unocc",
				"energy": 0.01333,
				"method": "rhf"
			},
			{
				"type": "unocc",
				"energy": 0.06137,
				"method": "rhf"
			},
			{
				"type": "unocc",
				"energy": 0.07088,
				"method": "rhf"
			}
		],
		"cosmo_sigma_profile": { 
			"-0.025": 0.0,
			"-0.024": 0.0,
			"-0.023": 0.0,
			"-0.022": 0.0,
			"-0.021": 0.0,
			"-0.02": 0.0,
			"-0.019": 0.0,
			"-0.018": 0.0,
			"-0.017": 0.0,
			"-0.016": 0.0,
			"-0.015": 0.0,
			"-0.014": 0.0,
			"-0.013": 0.0,
			"-0.012": 0.228463688465,
			"-0.011": 1.92555927277,
			"-0.01": 3.64904749601,
			"-0.009": 6.8850521011,
			"-0.008": 6.27050830713,
			"-0.007": 10.7249175077,
			"-0.006": 19.6456246823,
			"-0.005": 18.3164327166,
			"-0.004": 16.9753388356,
			"-0.003": 11.5945095278,
			"-0.002": 8.78424877202,
			"-0.001": 10.7087925801,
			"0.0": 9.40354369673,
			"0.001": 10.5050794476,
			"0.002": 12.875015846,
			"0.003": 16.1650822531,
			"0.004": 11.6953150559,
			"0.005": 3.84122521021,
			"0.006": 3.75739444536,
			"0.007": 3.19756797594,
			"0.008": 4.61670766164,
			"0.009": 5.5876016515,
			"0.01": 8.20897713153,
			"0.011": 13.0663689208,
			"0.012": 6.48779706989,
			"0.013": 0.0678181632689,
			"0.014": 0.0,
			"0.015": 0.0,
			"0.016": 0.0,
			"0.017": 0.0,
			"0.018": 0.0,
			"0.019": 0.0,
			"0.02": 0.0,
			"0.021": 0.0,
			"0.022": 0.0,
			"0.023": 0.0,
			"0.024": 0.0,
			"0.025": 0.0
		}
	}
}
