{
	 "smiles": "OC(=O)C1=CC=C(COC2=CC=C(Br)C=C2)O1", 
	 "Tm": 468.15, 
	 "num_atms": 26, 
	 "gaussian": { 
		 "optdone": 1, 
		 "sigma_profile": "yes", 
		 "theory": "DFT", 
		 "functional": "B3LYP", 
		 "basiset": "6-31G**", 
		 "properties": { 
			 "R2extent": 12566.7388, 
			 "electric_dipole_moment_norm": 4.09119761684, 
			 "electric_quadrupole_moment_norm": 34.7509775903, 
			 "total_energy": -3334.9736565, 
			 "HOMO_LUMO_gap": 0.17087, 
			 "cosmo_polarized_energy": -17.07, 
			 "cosmo_cavitation_energy": 34.76, 
			 "cosmo_dispersion_energy": -25.61, 
			 "cosmo_repulsion_energy": 2.01, 
			 "cosmo_total_nonelectrostatic_energy": 11.15, 
			 "SMD_solvation_energy": 6.63 
		},
		"coords": [
			{
				"x": -2.7414573317,
				"y": 1.6553426695,
				"z": 3.540370053,
				"element": "O" 
			},
			{
				"x": -3.4433463511,
				"y": 0.8340922141,
				"z": 2.7234744362,
				"element": "C" 
			},
			{
				"x": -4.6520714869,
				"y": 0.823880085,
				"z": 2.7121508399,
				"element": "O" 
			},
			{
				"x": -2.6359275673,
				"y": -0.0408386205,
				"z": 1.8551098625,
				"element": "C" 
			},
			{
				"x": -2.9905331086,
				"y": -0.9555310089,
				"z": 0.9040608123,
				"element": "C" 
			},
			{
				"x": -1.7719369353,
				"y": -1.4861226165,
				"z": 0.3876304822,
				"element": "C" 
			},
			{
				"x": -0.7544947733,
				"y": -0.8642777034,
				"z": 1.0576755581,
				"element": "C" 
			},
			{
				"x": 0.7252347,
				"y": -0.9803077592,
				"z": 0.9905840275,
				"element": "C" 
			},
			{
				"x": 1.2517517833,
				"y": 0.2111373647,
				"z": 0.4061321497,
				"element": "O" 
			},
			{
				"x": 2.6097760381,
				"y": 0.3220285437,
				"z": 0.282212629,
				"element": "C" 
			},
			{
				"x": 3.5287172654,
				"y": -0.665830226,
				"z": 0.6525250612,
				"element": "C" 
			},
			{
				"x": 4.8981428658,
				"y": -0.441883327,
				"z": 0.4767778295,
				"element": "C" 
			},
			{
				"x": 5.3406046029,
				"y": 0.7588764212,
				"z": -0.065501372,
				"element": "C" 
			},
			{
				"x": 7.2132528527,
				"y": 1.0599261629,
				"z": -0.3037824589,
				"element": "Br" 
			},
			{
				"x": 4.428912812,
				"y": 1.7495025025,
				"z": -0.4392216167,
				"element": "C" 
			},
			{
				"x": 3.0683453167,
				"y": 1.5295335025,
				"z": -0.2647706977,
				"element": "C" 
			},
			{
				"x": -1.268574512,
				"y": 0.0210082065,
				"z": 1.9616314453,
				"element": "O" 
			},
			{
				"x": -1.7902444389,
				"y": 1.5292267381,
				"z": 3.3970716015,
				"element": "H" 
			},
			{
				"x": -4.0021198799,
				"y": -1.203183068,
				"z": 0.6197807114,
				"element": "H" 
			},
			{
				"x": -1.6581766917,
				"y": -2.2319615701,
				"z": -0.3860471724,
				"element": "H" 
			},
			{
				"x": 0.9833146079,
				"y": -1.8597923,
				"z": 0.3868469797,
				"element": "H" 
			},
			{
				"x": 1.1429987658,
				"y": -1.1198952657,
				"z": 1.9976223517,
				"element": "H" 
			},
			{
				"x": 3.2050961081,
				"y": -1.6097516054,
				"z": 1.0745289216,
				"element": "H" 
			},
			{
				"x": 5.6112877174,
				"y": -1.2063444458,
				"z": 0.7635940823,
				"element": "H" 
			},
			{
				"x": 4.7811517639,
				"y": 2.6835406474,
				"z": -0.861875798,
				"element": "H" 
			},
			{
				"x": 2.3404958768,
				"y": 2.2830244586,
				"z": -0.5465807188,
				"element": "H" 
			}
		],
		 "valence_orbital": [ 
			{
				"type": "occ",
				"energy": -0.28939,
				"method": "rhf"
			},
			{
				"type": "occ",
				"energy": -0.28196,
				"method": "rhf"
			},
			{
				"type": "occ",
				"energy": -0.27222,
				"method": "rhf"
			},
			{
				"type": "occ",
				"energy": -0.25863,
				"method": "rhf"
			},
			{
				"type": "occ",
				"energy": -0.22995,
				"method": "rhf"
			},
			{
				"type": "unocc",
				"energy": -0.05908,
				"method": "rhf"
			},
			{
				"type": "unocc",
				"energy": -0.023,
				"method": "rhf"
			},
			{
				"type": "unocc",
				"energy": -0.00922,
				"method": "rhf"
			},
			{
				"type": "unocc",
				"energy": 0.0045,
				"method": "rhf"
			},
			{
				"type": "unocc",
				"energy": 0.01469,
				"method": "rhf"
			}
		],
		"cosmo_sigma_profile": { 
			"-0.025": 0.0,
			"-0.024": 0.0,
			"-0.023": 0.0,
			"-0.022": 0.0,
			"-0.021": 0.0,
			"-0.02": 0.0,
			"-0.019": 0.0,
			"-0.018": 0.0,
			"-0.017": 0.342788528333,
			"-0.016": 0.573847031873,
			"-0.015": 1.01311418257,
			"-0.014": 0.543672843626,
			"-0.013": 0.259272629615,
			"-0.012": 0.802150559773,
			"-0.011": 1.11066213856,
			"-0.01": 1.27117275514,
			"-0.009": 2.1365352757,
			"-0.008": 11.070004712,
			"-0.007": 17.5360910562,
			"-0.006": 16.3608370084,
			"-0.005": 14.1810754242,
			"-0.004": 14.1654630619,
			"-0.003": 14.4388834148,
			"-0.002": 12.6963384919,
			"-0.001": 16.508678102,
			"0.0": 17.7812521018,
			"0.001": 20.6375867826,
			"0.002": 23.5934289503,
			"0.003": 26.9005816564,
			"0.004": 21.4817957511,
			"0.005": 13.7850867369,
			"0.006": 4.20017387755,
			"0.007": 4.18010581245,
			"0.008": 4.04776802905,
			"0.009": 4.78198119972,
			"0.01": 5.24781945863,
			"0.011": 4.55980780513,
			"0.012": 5.21927709131,
			"0.013": 1.14393734548,
			"0.014": 0.0,
			"0.015": 0.0,
			"0.016": 0.0,
			"0.017": 0.0,
			"0.018": 0.0,
			"0.019": 0.0,
			"0.02": 0.0,
			"0.021": 0.0,
			"0.022": 0.0,
			"0.023": 0.0,
			"0.024": 0.0,
			"0.025": 0.0
		}
	}
}
