{
	 "smiles": "COC(=O)C1=CC=C(COC2=C(C=O)C=CC=C2)C=C1", 
	 "Tm": 364.15, 
	 "num_atms": 34, 
	 "gaussian": { 
		 "optdone": 1, 
		 "sigma_profile": "yes", 
		 "theory": "DFT", 
		 "functional": "B3LYP", 
		 "basiset": "6-31G**", 
		 "properties": { 
			 "R2extent": 8173.927, 
			 "electric_dipole_moment_norm": 4.82357220844, 
			 "electric_quadrupole_moment_norm": 15.4950836451, 
			 "total_energy": -919.025840845, 
			 "HOMO_LUMO_gap": 0.17817, 
			 "cosmo_polarized_energy": -17.0, 
			 "cosmo_cavitation_energy": 39.39, 
			 "cosmo_dispersion_energy": -27.49, 
			 "cosmo_repulsion_energy": 2.11, 
			 "cosmo_total_nonelectrostatic_energy": 14.02, 
			 "SMD_solvation_energy": 9.45 
		},
		"coords": [
			{
				"x": 5.7906620969,
				"y": -1.8636855415,
				"z": 0.4264418375,
				"element": "C" 
			},
			{
				"x": 4.3609409523,
				"y": -1.7658814831,
				"z": 0.5124714457,
				"element": "O" 
			},
			{
				"x": 3.8913708663,
				"y": -0.5740473846,
				"z": 0.9498521355,
				"element": "C" 
			},
			{
				"x": 4.6168740303,
				"y": 0.3541173865,
				"z": 1.2499365273,
				"element": "O" 
			},
			{
				"x": 2.4032804186,
				"y": -0.5385033251,
				"z": 1.0182504239,
				"element": "C" 
			},
			{
				"x": 1.7940314528,
				"y": 0.6445549909,
				"z": 1.4588925018,
				"element": "C" 
			},
			{
				"x": 0.4084802213,
				"y": 0.733013012,
				"z": 1.5436133558,
				"element": "C" 
			},
			{
				"x": -0.3916912696,
				"y": -0.3586777234,
				"z": 1.1816310566,
				"element": "C" 
			},
			{
				"x": -1.8991143143,
				"y": -0.2900571113,
				"z": 1.3249663542,
				"element": "C" 
			},
			{
				"x": -2.4359300363,
				"y": 1.0184560566,
				"z": 1.1401846112,
				"element": "O" 
			},
			{
				"x": -2.5942072046,
				"y": 1.5172878187,
				"z": -0.1106213103,
				"element": "C" 
			},
			{
				"x": -3.201696702,
				"y": 2.796309823,
				"z": -0.2144419507,
				"element": "C" 
			},
			{
				"x": -3.6225575814,
				"y": 3.6153701179,
				"z": 0.9443870009,
				"element": "C" 
			},
			{
				"x": -3.4893649889,
				"y": 3.3548933338,
				"z": 2.1236655872,
				"element": "O" 
			},
			{
				"x": -3.4167174889,
				"y": 3.3401178603,
				"z": -1.4892542785,
				"element": "C" 
			},
			{
				"x": -3.0437809323,
				"y": 2.6671967793,
				"z": -2.6478414525,
				"element": "C" 
			},
			{
				"x": -2.4330367514,
				"y": 1.4182568903,
				"z": -2.528397024,
				"element": "C" 
			},
			{
				"x": -2.205402873,
				"y": 0.8440263543,
				"z": -1.2769431081,
				"element": "C" 
			},
			{
				"x": 0.2191310663,
				"y": -1.5380898356,
				"z": 0.7381875883,
				"element": "C" 
			},
			{
				"x": 1.606753046,
				"y": -1.6336276997,
				"z": 0.6591694579,
				"element": "C" 
			},
			{
				"x": 6.1869029806,
				"y": -1.1173771826,
				"z": -0.2667413567,
				"element": "H" 
			},
			{
				"x": 6.2471099653,
				"y": -1.7084306394,
				"z": 1.4072649424,
				"element": "H" 
			},
			{
				"x": 5.9955368911,
				"y": -2.8708788919,
				"z": 0.0635581547,
				"element": "H" 
			},
			{
				"x": 2.4266372842,
				"y": 1.4821132741,
				"z": 1.7327707122,
				"element": "H" 
			},
			{
				"x": -0.0645503075,
				"y": 1.6479513507,
				"z": 1.885904946,
				"element": "H" 
			},
			{
				"x": -2.3899423552,
				"y": -1.0102991154,
				"z": 0.6580417135,
				"element": "H" 
			},
			{
				"x": -2.1868715399,
				"y": -0.5444149767,
				"z": 2.3504722449,
				"element": "H" 
			},
			{
				"x": -4.1035648976,
				"y": 4.5717839326,
				"z": 0.6302606285,
				"element": "H" 
			},
			{
				"x": -3.8873748501,
				"y": 4.3186030018,
				"z": -1.5549296542,
				"element": "H" 
			},
			{
				"x": -3.2177479215,
				"y": 3.1069649376,
				"z": -3.6242931197,
				"element": "H" 
			},
			{
				"x": -2.1211580656,
				"y": 0.8782004401,
				"z": -3.4179731918,
				"element": "H" 
			},
			{
				"x": -1.7068452261,
				"y": -0.1149726836,
				"z": -1.2172774078,
				"element": "H" 
			},
			{
				"x": -0.3942741749,
				"y": -2.3894285074,
				"z": 0.451880083,
				"element": "H" 
			},
			{
				"x": 2.0759182092,
				"y": -2.5477452591,
				"z": 0.3142105453,
				"element": "H" 
			}
		],
		 "valence_orbital": [ 
			{
				"type": "occ",
				"energy": -0.26661,
				"method": "rhf"
			},
			{
				"type": "occ",
				"energy": -0.26384,
				"method": "rhf"
			},
			{
				"type": "occ",
				"energy": -0.25819,
				"method": "rhf"
			},
			{
				"type": "occ",
				"energy": -0.24037,
				"method": "rhf"
			},
			{
				"type": "occ",
				"energy": -0.2345,
				"method": "rhf"
			},
			{
				"type": "unocc",
				"energy": -0.05633,
				"method": "rhf"
			},
			{
				"type": "unocc",
				"energy": -0.04953,
				"method": "rhf"
			},
			{
				"type": "unocc",
				"energy": -0.01502,
				"method": "rhf"
			},
			{
				"type": "unocc",
				"energy": -0.00409,
				"method": "rhf"
			},
			{
				"type": "unocc",
				"energy": 0.04269,
				"method": "rhf"
			}
		],
		"cosmo_sigma_profile": { 
			"-0.025": 0.0,
			"-0.024": 0.0,
			"-0.023": 0.0,
			"-0.022": 0.0,
			"-0.021": 0.0,
			"-0.02": 0.0,
			"-0.019": 0.0,
			"-0.018": 0.0,
			"-0.017": 0.0,
			"-0.016": 0.0,
			"-0.015": 0.0,
			"-0.014": 0.0,
			"-0.013": 0.0,
			"-0.012": 0.0,
			"-0.011": 0.0,
			"-0.01": 0.0,
			"-0.009": 0.0127572388025,
			"-0.008": 2.85867225783,
			"-0.007": 13.291545743,
			"-0.006": 23.7747998969,
			"-0.005": 28.4805139671,
			"-0.004": 26.9334946742,
			"-0.003": 24.6544892359,
			"-0.002": 21.1539299882,
			"-0.001": 18.9708215906,
			"0.0": 19.3807258575,
			"0.001": 23.0660027353,
			"0.002": 24.3608128753,
			"0.003": 26.5206735464,
			"0.004": 16.3164227623,
			"0.005": 6.05967852703,
			"0.006": 5.39961487265,
			"0.007": 2.18580894831,
			"0.008": 2.66767864701,
			"0.009": 4.21345536819,
			"0.01": 4.7459210051,
			"0.011": 5.48552454146,
			"0.012": 9.17270009705,
			"0.013": 3.12700962053,
			"0.014": 1.68545241546,
			"0.015": 0.688614405236,
			"0.016": 0.0257801886224,
			"0.017": 0.0,
			"0.018": 0.0,
			"0.019": 0.0,
			"0.02": 0.0,
			"0.021": 0.0,
			"0.022": 0.0,
			"0.023": 0.0,
			"0.024": 0.0,
			"0.0": 0.0
		}
	}
}
