{
	 "smiles": "O=C1NC(=O)C(=O)N1CCC1=CCCCC1", 
	 "Tm": 401.15, 
	 "num_atms": 30, 
	 "gaussian": { 
		 "optdone": 1, 
		 "sigma_profile": "yes", 
		 "theory": "DFT", 
		 "functional": "B3LYP", 
		 "basiset": "6-31G**", 
		 "properties": { 
			 "R2extent": 5328.9237, 
			 "electric_dipole_moment_norm": 2.67347062449, 
			 "electric_quadrupole_moment_norm": 19.2005065069, 
			 "total_energy": -762.819979293, 
			 "HOMO_LUMO_gap": 0.1459, 
			 "cosmo_polarized_energy": -14.55, 
			 "cosmo_cavitation_energy": 32.73, 
			 "cosmo_dispersion_energy": -23.21, 
			 "cosmo_repulsion_energy": 1.85, 
			 "cosmo_total_nonelectrostatic_energy": 11.37, 
			 "SMD_solvation_energy": 7.07 
		},
		"coords": [
			{
				"x": 1.6333439715,
				"y": -0.2836316613,
				"z": 4.1378072543,
				"element": "O" 
			},
			{
				"x": 1.1621794913,
				"y": 0.7732177298,
				"z": 3.7868132953,
				"element": "C" 
			},
			{
				"x": 1.6468626074,
				"y": 2.0493354331,
				"z": 4.1012201772,
				"element": "N" 
			},
			{
				"x": 0.8620876056,
				"y": 3.0643207261,
				"z": 3.5771390868,
				"element": "C" 
			},
			{
				"x": 1.0138275452,
				"y": 4.2558185601,
				"z": 3.6773102596,
				"element": "O" 
			},
			{
				"x": -0.2682688059,
				"y": 2.3100483702,
				"z": 2.8298640229,
				"element": "C" 
			},
			{
				"x": -1.2032789239,
				"y": 2.7991166262,
				"z": 2.2400554138,
				"element": "O" 
			},
			{
				"x": 0.0212923082,
				"y": 0.9634358323,
				"z": 2.9953947605,
				"element": "N" 
			},
			{
				"x": -0.7984644883,
				"y": -0.1463947032,
				"z": 2.4963585041,
				"element": "C" 
			},
			{
				"x": -0.0989122851,
				"y": -1.0164525891,
				"z": 1.4458053505,
				"element": "C" 
			},
			{
				"x": 0.2117837508,
				"y": -0.4055665283,
				"z": 0.09399745,
				"element": "C" 
			},
			{
				"x": -0.2996775397,
				"y": 0.7486539538,
				"z": -0.3564969806,
				"element": "C" 
			},
			{
				"x": 0.0218178872,
				"y": 1.3499147778,
				"z": -1.7042880148,
				"element": "C" 
			},
			{
				"x": 1.2381220088,
				"y": 0.6928267701,
				"z": -2.3712441697,
				"element": "C" 
			},
			{
				"x": 1.1683873789,
				"y": -0.8316614902,
				"z": -2.2300936357,
				"element": "C" 
			},
			{
				"x": 1.1586338809,
				"y": -1.2395557346,
				"z": -0.7504361834,
				"element": "C" 
			},
			{
				"x": 2.4751119434,
				"y": 2.1844731309,
				"z": 4.6643331277,
				"element": "H" 
			},
			{
				"x": -1.7115565065,
				"y": 0.3106658839,
				"z": 2.1093370368,
				"element": "H" 
			},
			{
				"x": -1.0677658406,
				"y": -0.7701294768,
				"z": 3.3537876545,
				"element": "H" 
			},
			{
				"x": 0.8272766473,
				"y": -1.4047416945,
				"z": 1.888316904,
				"element": "H" 
			},
			{
				"x": -0.7338734295,
				"y": -1.9031737939,
				"z": 1.2968081571,
				"element": "H" 
			},
			{
				"x": -0.98954162,
				"y": 1.3207746535,
				"z": 0.2591977638,
				"element": "H" 
			},
			{
				"x": 0.1860736686,
				"y": 2.4294279338,
				"z": -1.5906423516,
				"element": "H" 
			},
			{
				"x": -0.8594664541,
				"y": 1.2586600126,
				"z": -2.3582762717,
				"element": "H" 
			},
			{
				"x": 1.296788659,
				"y": 0.9842816912,
				"z": -3.426050884,
				"element": "H" 
			},
			{
				"x": 2.1569066051,
				"y": 1.0564726558,
				"z": -1.8916754146,
				"element": "H" 
			},
			{
				"x": 2.0081955938,
				"y": -1.3111407952,
				"z": -2.7459244192,
				"element": "H" 
			},
			{
				"x": 0.2518719973,
				"y": -1.1964419924,
				"z": -2.7128903292,
				"element": "H" 
			},
			{
				"x": 0.8912284825,
				"y": -2.3014973379,
				"z": -0.6550257807,
				"element": "H" 
			},
			{
				"x": 2.1740138608,
				"y": -1.1596569438,
				"z": -0.3311017837,
				"element": "H" 
			}
		],
		 "valence_orbital": [ 
			{
				"type": "occ",
				"energy": -0.30601,
				"method": "rhf"
			},
			{
				"type": "occ",
				"energy": -0.30168,
				"method": "rhf"
			},
			{
				"type": "occ",
				"energy": -0.29152,
				"method": "rhf"
			},
			{
				"type": "occ",
				"energy": -0.27721,
				"method": "rhf"
			},
			{
				"type": "occ",
				"energy": -0.23405,
				"method": "rhf"
			},
			{
				"type": "unocc",
				"energy": -0.08815,
				"method": "rhf"
			},
			{
				"type": "unocc",
				"energy": 0.02576,
				"method": "rhf"
			},
			{
				"type": "unocc",
				"energy": 0.02892,
				"method": "rhf"
			},
			{
				"type": "unocc",
				"energy": 0.06757,
				"method": "rhf"
			},
			{
				"type": "unocc",
				"energy": 0.07028,
				"method": "rhf"
			}
		],
		"cosmo_sigma_profile": { 
			"-0.025": 0.0,
			"-0.024": 0.0,
			"-0.023": 0.0,
			"-0.022": 0.0,
			"-0.021": 0.0,
			"-0.02": 0.0,
			"-0.019": 0.0,
			"-0.018": 0.98013954765,
			"-0.017": 1.47012053087,
			"-0.016": 1.08823887196,
			"-0.015": 0.763507191608,
			"-0.014": 0.420554055997,
			"-0.013": 1.60241376984,
			"-0.012": 1.230409127,
			"-0.011": 0.338709362903,
			"-0.01": 1.72643876191,
			"-0.009": 2.89902190157,
			"-0.008": 2.78774551239,
			"-0.007": 4.12757405484,
			"-0.006": 7.26701674367,
			"-0.005": 10.61572861,
			"-0.004": 15.8891090555,
			"-0.003": 18.5725678758,
			"-0.002": 28.3886498337,
			"-0.001": 31.4245726764,
			"0.0": 31.3948819109,
			"0.001": 21.4018008351,
			"0.002": 9.62468925079,
			"0.003": 7.42736652061,
			"0.004": 6.60737606131,
			"0.005": 4.26267343588,
			"0.006": 4.54765517568,
			"0.007": 5.98110798384,
			"0.008": 4.57804334077,
			"0.009": 8.86111238043,
			"0.01": 14.1920241508,
			"0.011": 6.75615560009,
			"0.012": 0.189693662263,
			"0.013": 0.0,
			"0.014": 0.0,
			"0.015": 0.0,
			"0.016": 0.0,
			"0.017": 0.0,
			"0.018": 0.0,
			"0.019": 0.0,
			"0.02": 0.0,
			"0.021": 0.0,
			"0.022": 0.0,
			"0.023": 0.0,
			"0.024": 0.0,
			"0.025": 0.0
		}
	}
}
