{
	 "smiles": "COC1=CC=C(C=NC2=NC(N=N2)C(F)(F)F)C=C1", 
	 "Tm": 445.15, 
	 "num_atms": 28, 
	 "gaussian": { 
		 "optdone": 1, 
		 "sigma_profile": "yes", 
		 "theory": "DFT", 
		 "functional": "B3LYP", 
		 "basiset": "6-31G**", 
		 "properties": { 
			 "R2extent": 6030.6546, 
			 "electric_dipole_moment_norm": 4.25089795808, 
			 "electric_quadrupole_moment_norm": 11.6529557263, 
			 "total_energy": -1018.26242239, 
			 "HOMO_LUMO_gap": 0.15654, 
			 "cosmo_polarized_energy": -13.44, 
			 "cosmo_cavitation_energy": 34.9, 
			 "cosmo_dispersion_energy": -24.17, 
			 "cosmo_repulsion_energy": 1.77, 
			 "cosmo_total_nonelectrostatic_energy": 12.51, 
			 "SMD_solvation_energy": -0.38 
		},
		"coords": [
			{
				"x": 0.8632060197,
				"y": 4.0571000295,
				"z": 2.8328726821,
				"element": "C" 
			},
			{
				"x": -0.3401495686,
				"y": 3.4244879483,
				"z": 3.2568611418,
				"element": "O" 
			},
			{
				"x": -0.832548761,
				"y": 2.3999540821,
				"z": 2.5213532769,
				"element": "C" 
			},
			{
				"x": -0.2434211306,
				"y": 1.9074132952,
				"z": 1.3452156209,
				"element": "C" 
			},
			{
				"x": -0.8315580962,
				"y": 0.8458632967,
				"z": 0.6670370264,
				"element": "C" 
			},
			{
				"x": -2.0144555803,
				"y": 0.2489059931,
				"z": 1.1388591655,
				"element": "C" 
			},
			{
				"x": -2.6917574115,
				"y": -0.8747849499,
				"z": 0.4926844593,
				"element": "C" 
			},
			{
				"x": -2.3537705054,
				"y": -1.6073163673,
				"z": -0.5027287293,
				"element": "N" 
			},
			{
				"x": -1.1789707815,
				"y": -1.6292996033,
				"z": -1.1814967259,
				"element": "C" 
			},
			{
				"x": -0.9344363584,
				"y": -1.2303732181,
				"z": -2.3800182813,
				"element": "N" 
			},
			{
				"x": 0.4031667511,
				"y": -1.6727618299,
				"z": -2.6319801938,
				"element": "C" 
			},
			{
				"x": 0.8884674035,
				"y": -2.3696345621,
				"z": -1.3995310251,
				"element": "N" 
			},
			{
				"x": -0.0335928485,
				"y": -2.3589654661,
				"z": -0.5637011316,
				"element": "N" 
			},
			{
				"x": 1.3549565036,
				"y": -0.5237987161,
				"z": -2.9748443992,
				"element": "C" 
			},
			{
				"x": 1.4146014812,
				"y": 0.3798625872,
				"z": -1.9710152905,
				"element": "F" 
			},
			{
				"x": 2.598131881,
				"y": -0.986450115,
				"z": -3.1871574118,
				"element": "F" 
			},
			{
				"x": 0.950580048,
				"y": 0.1157643945,
				"z": -4.082667263,
				"element": "F" 
			},
			{
				"x": -2.5990284654,
				"y": 0.7696137958,
				"z": 2.31350329,
				"element": "C" 
			},
			{
				"x": -2.0213869912,
				"y": 1.82173647,
				"z": 3.000369946,
				"element": "C" 
			},
			{
				"x": 1.0659635963,
				"y": 4.8344702034,
				"z": 3.5700831257,
				"element": "H" 
			},
			{
				"x": 0.7476647715,
				"y": 4.5161102174,
				"z": 1.8438191285,
				"element": "H" 
			},
			{
				"x": 1.7009265295,
				"y": 3.3501106232,
				"z": 2.8105070405,
				"element": "H" 
			},
			{
				"x": 0.6650868271,
				"y": 2.3456959663,
				"z": 0.9510208968,
				"element": "H" 
			},
			{
				"x": -0.3637573322,
				"y": 0.5010989574,
				"z": -0.2459877259,
				"element": "H" 
			},
			{
				"x": -3.6613649518,
				"y": -1.1243567556,
				"z": 0.9343716276,
				"element": "H" 
			},
			{
				"x": 0.4564883139,
				"y": -2.3923875906,
				"z": -3.4601723168,
				"element": "H" 
			},
			{
				"x": -3.5186667673,
				"y": 0.3283832595,
				"z": 2.6890645449,
				"element": "H" 
			},
			{
				"x": -2.4633745763,
				"y": 2.2203580545,
				"z": 3.9070775216,
				"element": "H" 
			}
		],
		 "valence_orbital": [ 
			{
				"type": "occ",
				"energy": -0.3007,
				"method": "rhf"
			},
			{
				"type": "occ",
				"energy": -0.2759,
				"method": "rhf"
			},
			{
				"type": "occ",
				"energy": -0.27277,
				"method": "rhf"
			},
			{
				"type": "occ",
				"energy": -0.2592,
				"method": "rhf"
			},
			{
				"type": "occ",
				"energy": -0.23921,
				"method": "rhf"
			},
			{
				"type": "unocc",
				"energy": -0.08267,
				"method": "rhf"
			},
			{
				"type": "unocc",
				"energy": -0.06775,
				"method": "rhf"
			},
			{
				"type": "unocc",
				"energy": -0.02186,
				"method": "rhf"
			},
			{
				"type": "unocc",
				"energy": 0.02697,
				"method": "rhf"
			},
			{
				"type": "unocc",
				"energy": 0.03833,
				"method": "rhf"
			}
		],
		"cosmo_sigma_profile": { 
			"-0.025": 0.0,
			"-0.024": 0.0,
			"-0.023": 0.0,
			"-0.022": 0.0,
			"-0.021": 0.0,
			"-0.02": 0.0,
			"-0.019": 0.0,
			"-0.018": 0.0,
			"-0.017": 0.0,
			"-0.016": 0.0,
			"-0.015": 0.0,
			"-0.014": 0.0,
			"-0.013": 0.0,
			"-0.012": 0.685926529456,
			"-0.011": 2.50353076468,
			"-0.01": 2.43887119674,
			"-0.009": 3.1826633869,
			"-0.008": 6.62652040364,
			"-0.007": 10.3909542485,
			"-0.006": 17.2861778186,
			"-0.005": 16.2596970107,
			"-0.004": 15.948121329,
			"-0.003": 14.536513849,
			"-0.002": 16.0486077754,
			"-0.001": 16.2723309348,
			"0.0": 18.1183900538,
			"0.001": 25.2501996404,
			"0.002": 42.9409408027,
			"0.003": 21.1025034034,
			"0.004": 9.00374918671,
			"0.005": 6.29492816961,
			"0.006": 5.75424090489,
			"0.007": 7.0564078447,
			"0.008": 6.52525809054,
			"0.009": 5.63501213287,
			"0.01": 4.65381642222,
			"0.011": 3.69506736797,
			"0.012": 1.27381437197,
			"0.013": 1.18644890165,
			"0.014": 0.384448341907,
			"0.015": 0.0,
			"0.016": 0.0,
			"0.017": 0.0,
			"0.018": 0.0,
			"0.019": 0.0,
			"0.02": 0.0,
			"0.021": 0.0,
			"0.022": 0.0,
			"0.023": 0.0,
			"0.024": 0.0,
			"0.025": 0.0
		}
	}
}
