{
	 "smiles": "CC1=CC(NS(=O)(=O)C2=CC(=CC=C2)C(O)=O)=NO1", 
	 "Tm": 469.15, 
	 "num_atms": 29, 
	 "gaussian": { 
		 "optdone": 1, 
		 "sigma_profile": "yes", 
		 "theory": "DFT", 
		 "functional": "B3LYP", 
		 "basiset": "6-31G**", 
		 "properties": { 
			 "R2extent": 7440.4395, 
			 "electric_dipole_moment_norm": 5.06385724325, 
			 "electric_quadrupole_moment_norm": 28.5067843188, 
			 "total_energy": -1308.90168567, 
			 "HOMO_LUMO_gap": 0.18932, 
			 "cosmo_polarized_energy": -22.78, 
			 "cosmo_cavitation_energy": 36.37, 
			 "cosmo_dispersion_energy": -26.66, 
			 "cosmo_repulsion_energy": 2.03, 
			 "cosmo_total_nonelectrostatic_energy": 11.74, 
			 "SMD_solvation_energy": 7.32 
		},
		"coords": [
			{
				"x": 0.951602755,
				"y": -4.8888845677,
				"z": 0.3286755763,
				"element": "C" 
			},
			{
				"x": 0.9351296458,
				"y": -3.4088781843,
				"z": 0.1648333495,
				"element": "C" 
			},
			{
				"x": 0.7466261873,
				"y": -2.5873573312,
				"z": -0.9053778688,
				"element": "C" 
			},
			{
				"x": 0.8701078101,
				"y": -1.279431092,
				"z": -0.3467724766,
				"element": "C" 
			},
			{
				"x": 0.7186257746,
				"y": -0.0771815243,
				"z": -1.0366522762,
				"element": "N" 
			},
			{
				"x": 1.5570433343,
				"y": 1.3690351746,
				"z": -0.6615706105,
				"element": "S" 
			},
			{
				"x": 1.405080255,
				"y": 2.144804797,
				"z": -1.8936309697,
				"element": "O" 
			},
			{
				"x": 2.8653304384,
				"y": 1.0588293217,
				"z": -0.0955402208,
				"element": "O" 
			},
			{
				"x": 0.5550393404,
				"y": 2.1181856182,
				"z": 0.6216405533,
				"element": "C" 
			},
			{
				"x": -0.3944332068,
				"y": 3.0674555154,
				"z": 0.257084227,
				"element": "C" 
			},
			{
				"x": -1.1607090573,
				"y": 3.6739238074,
				"z": 1.2592544165,
				"element": "C" 
			},
			{
				"x": -0.9627292164,
				"y": 3.323593936,
				"z": 2.602149132,
				"element": "C" 
			},
			{
				"x": -0.0028708297,
				"y": 2.371407244,
				"z": 2.9444634677,
				"element": "C" 
			},
			{
				"x": 0.7691572098,
				"y": 1.7606068639,
				"z": 1.9561240563,
				"element": "C" 
			},
			{
				"x": -2.16910563,
				"y": 4.6860498307,
				"z": 0.839890612,
				"element": "C" 
			},
			{
				"x": -2.8451944044,
				"y": 5.2215378631,
				"z": 1.8857436987,
				"element": "O" 
			},
			{
				"x": -2.3837517015,
				"y": 5.0133020965,
				"z": -0.3092754146,
				"element": "O" 
			},
			{
				"x": 1.1036607429,
				"y": -1.3075448467,
				"z": 0.9480807107,
				"element": "N" 
			},
			{
				"x": 1.1547729309,
				"y": -2.6705559219,
				"z": 1.2720147703,
				"element": "O" 
			},
			{
				"x": 0.7663682068,
				"y": -5.3773368041,
				"z": -0.6297515331,
				"element": "H" 
			},
			{
				"x": 1.9201247772,
				"y": -5.2258968831,
				"z": 0.7121355269,
				"element": "H" 
			},
			{
				"x": 0.1836371566,
				"y": -5.2102594645,
				"z": 1.0398486775,
				"element": "H" 
			},
			{
				"x": 0.5579540851,
				"y": -2.8610057618,
				"z": -1.9320803794,
				"element": "H" 
			},
			{
				"x": 0.5855395751,
				"y": -0.1401462758,
				"z": -2.0390677342,
				"element": "H" 
			},
			{
				"x": -0.5390308613,
				"y": 3.3504150263,
				"z": -0.7791932206,
				"element": "H" 
			},
			{
				"x": -1.5609013953,
				"y": 3.8007485277,
				"z": 3.3699504383,
				"element": "H" 
			},
			{
				"x": 0.1482407243,
				"y": 2.1037036485,
				"z": 3.9853046278,
				"element": "H" 
			},
			{
				"x": 1.5110364506,
				"y": 1.0102240518,
				"z": 2.2019821488,
				"element": "H" 
			},
			{
				"x": -3.4678510973,
				"y": 5.8599553344,
				"z": 1.5007367148,
				"element": "H" 
			}
		],
		 "valence_orbital": [ 
			{
				"type": "occ",
				"energy": -0.28597,
				"method": "rhf"
			},
			{
				"type": "occ",
				"energy": -0.28452,
				"method": "rhf"
			},
			{
				"type": "occ",
				"energy": -0.27566,
				"method": "rhf"
			},
			{
				"type": "occ",
				"energy": -0.26709,
				"method": "rhf"
			},
			{
				"type": "occ",
				"energy": -0.25223,
				"method": "rhf"
			},
			{
				"type": "unocc",
				"energy": -0.06291,
				"method": "rhf"
			},
			{
				"type": "unocc",
				"energy": -0.04038,
				"method": "rhf"
			},
			{
				"type": "unocc",
				"energy": -0.01586,
				"method": "rhf"
			},
			{
				"type": "unocc",
				"energy": 0.03258,
				"method": "rhf"
			},
			{
				"type": "unocc",
				"energy": 0.04248,
				"method": "rhf"
			}
		],
		"cosmo_sigma_profile": { 
			"-0.025": 0.0,
			"-0.024": 0.0,
			"-0.023": 0.0,
			"-0.022": 0.0,
			"-0.021": 0.0,
			"-0.02": 0.0,
			"-0.019": 0.322561952124,
			"-0.018": 0.828224363616,
			"-0.017": 1.66442221541,
			"-0.016": 1.54133898085,
			"-0.015": 2.03582917843,
			"-0.014": 1.84524661863,
			"-0.013": 1.89967732041,
			"-0.012": 1.664192148,
			"-0.011": 1.62285615064,
			"-0.01": 1.78430090307,
			"-0.009": 3.16608973506,
			"-0.008": 6.33502245365,
			"-0.007": 9.29438143816,
			"-0.006": 15.8604169728,
			"-0.005": 12.5884248488,
			"-0.004": 17.6860948825,
			"-0.003": 19.8439328202,
			"-0.002": 20.026010416,
			"-0.001": 21.9036103021,
			"0.0": 23.1297300546,
			"0.001": 21.4863677957,
			"0.002": 14.9876376109,
			"0.003": 9.82253082763,
			"0.004": 9.02481033143,
			"0.005": 8.01633044098,
			"0.006": 8.8189855859,
			"0.007": 8.54538669061,
			"0.008": 10.9303060693,
			"0.009": 12.3387009341,
			"0.01": 13.697399828,
			"0.011": 7.73457733084,
			"0.012": 1.23447447759,
			"0.013": 0.0,
			"0.014": 0.0,
			"0.015": 0.0,
			"0.016": 0.0,
			"0.017": 0.0,
			"0.018": 0.0,
			"0.019": 0.0,
			"0.02": 0.0,
			"0.021": 0.0,
			"0.022": 0.0,
			"0.023": 0.0,
			"0.024": 0.0,
			"0.025": 0.0
		}
	}
}
