{
	 "smiles": "CC1=CC(=O)CC(=O)O1", 
	 "Tm": 461.15, 
	 "num_atms": 15, 
	 "gaussian": { 
		 "optdone": 1, 
		 "sigma_profile": "yes", 
		 "theory": "DFT", 
		 "functional": "B3LYP", 
		 "basiset": "6-31G**", 
		 "properties": { 
			 "R2extent": 1653.6011, 
			 "electric_dipole_moment_norm": 2.88453182683, 
			 "electric_quadrupole_moment_norm": 15.5916918425, 
			 "total_energy": -457.917307843, 
			 "HOMO_LUMO_gap": 0.18672, 
			 "cosmo_polarized_energy": -12.54, 
			 "cosmo_cavitation_energy": 19.66, 
			 "cosmo_dispersion_energy": -14.64, 
			 "cosmo_repulsion_energy": 1.22, 
			 "cosmo_total_nonelectrostatic_energy": 6.24, 
			 "SMD_solvation_energy": 5.53 
		},
		"coords": [
			{
				"x": 0.8390553872,
				"y": 2.741053675,
				"z": -0.9205729962,
				"element": "C" 
			},
			{
				"x": -0.1917655812,
				"y": 1.6806843241,
				"z": -0.7141155492,
				"element": "C" 
			},
			{
				"x": -0.9777328528,
				"y": 1.5472390003,
				"z": 0.3738684195,
				"element": "C" 
			},
			{
				"x": -1.9594082292,
				"y": 0.4770550003,
				"z": 0.4871345732,
				"element": "C" 
			},
			{
				"x": -2.6890932707,
				"y": 0.320903361,
				"z": 1.4539536403,
				"element": "O" 
			},
			{
				"x": -2.0381466376,
				"y": -0.4789488978,
				"z": -0.7026730756,
				"element": "C" 
			},
			{
				"x": -1.1102418274,
				"y": -0.2383720448,
				"z": -1.874072397,
				"element": "C" 
			},
			{
				"x": -1.0753422697,
				"y": -0.9162352231,
				"z": -2.8630505486,
				"element": "O" 
			},
			{
				"x": -0.2373183343,
				"y": 0.8396248999,
				"z": -1.7998893135,
				"element": "O" 
			},
			{
				"x": 0.8844323547,
				"y": 3.4153646946,
				"z": -0.0644237843,
				"element": "H" 
			},
			{
				"x": 1.8227851046,
				"y": 2.2838222785,
				"z": -1.0733591807,
				"element": "H" 
			},
			{
				"x": 0.6091537758,
				"y": 3.3176200351,
				"z": -1.8232605179,
				"element": "H" 
			},
			{
				"x": -0.8875627959,
				"y": 2.2484159114,
				"z": 1.1946522737,
				"element": "H" 
			},
			{
				"x": -1.8643051603,
				"y": -1.5013774336,
				"z": -0.3480770589,
				"element": "H" 
			},
			{
				"x": -3.0639096632,
				"y": -0.480649581,
				"z": -1.088814485,
				"element": "H" 
			}
		],
		 "valence_orbital": [ 
			{
				"type": "occ",
				"energy": -0.38212,
				"method": "rhf"
			},
			{
				"type": "occ",
				"energy": -0.35029,
				"method": "rhf"
			},
			{
				"type": "occ",
				"energy": -0.30159,
				"method": "rhf"
			},
			{
				"type": "occ",
				"energy": -0.26841,
				"method": "rhf"
			},
			{
				"type": "occ",
				"energy": -0.25553,
				"method": "rhf"
			},
			{
				"type": "unocc",
				"energy": -0.06881,
				"method": "rhf"
			},
			{
				"type": "unocc",
				"energy": -0.01015,
				"method": "rhf"
			},
			{
				"type": "unocc",
				"energy": 0.05877,
				"method": "rhf"
			},
			{
				"type": "unocc",
				"energy": 0.08207,
				"method": "rhf"
			},
			{
				"type": "unocc",
				"energy": 0.10406,
				"method": "rhf"
			}
		],
		"cosmo_sigma_profile": { 
			"-0.025": 0.0,
			"-0.024": 0.0,
			"-0.023": 0.0,
			"-0.022": 0.0,
			"-0.021": 0.0,
			"-0.02": 0.0,
			"-0.019": 0.0,
			"-0.018": 0.0,
			"-0.017": 0.0,
			"-0.016": 0.0,
			"-0.015": 0.0,
			"-0.014": 0.0,
			"-0.013": 0.0,
			"-0.012": 0.0,
			"-0.011": 0.0,
			"-0.01": 1.1017889783,
			"-0.009": 7.29098672846,
			"-0.008": 6.66572047376,
			"-0.007": 10.1203331093,
			"-0.006": 11.1035014098,
			"-0.005": 10.8393145396,
			"-0.004": 11.0779763243,
			"-0.003": 12.7209639523,
			"-0.002": 12.6371886957,
			"-0.001": 7.18704587885,
			"0.0": 5.71078182844,
			"0.001": 6.31596681242,
			"0.002": 5.17787294425,
			"0.003": 3.26802504557,
			"0.004": 2.87717304605,
			"0.005": 3.60145724984,
			"0.006": 3.29330804536,
			"0.007": 4.19776343984,
			"0.008": 4.08859611903,
			"0.009": 4.77775804387,
			"0.01": 7.31147065553,
			"0.011": 6.67671082156,
			"0.012": 4.83788548806,
			"0.013": 3.35695244431,
			"0.014": 0.435277151431,
			"0.015": 0.0,
			"0.016": 0.0,
			"0.017": 0.0,
			"0.018": 0.0,
			"0.019": 0.0,
			"0.02": 0.0,
			"0.021": 0.0,
			"0.022": 0.0,
			"0.023": 0.0,
			"0.024": 0.0,
			"0.025": 0.0
		}
	}
}
