{
	 "smiles": "OCC1=CC=CC2=NON=C12", 
	 "Tm": 345.15, 
	 "num_atms": 17, 
	 "gaussian": { 
		 "optdone": 1, 
		 "sigma_profile": "yes", 
		 "theory": "DFT", 
		 "functional": "B3LYP", 
		 "basiset": "6-31G**", 
		 "properties": { 
			 "R2extent": 1778.3229, 
			 "electric_dipole_moment_norm": 3.51197334984, 
			 "electric_quadrupole_moment_norm": 9.89533180798, 
			 "total_energy": -530.203254722, 
			 "HOMO_LUMO_gap": 0.15836, 
			 "cosmo_polarized_energy": -10.91, 
			 "cosmo_cavitation_energy": 21.69, 
			 "cosmo_dispersion_energy": -16.33, 
			 "cosmo_repulsion_energy": 1.3, 
			 "cosmo_total_nonelectrostatic_energy": 6.66, 
			 "SMD_solvation_energy": 3.1 
		},
		"coords": [
			{
				"x": 1.0141366182,
				"y": -2.522244296,
				"z": -2.1654257213,
				"element": "O" 
			},
			{
				"x": 0.4062009148,
				"y": -1.2467366327,
				"z": -2.2582140871,
				"element": "C" 
			},
			{
				"x": -0.1573898954,
				"y": -0.7491850684,
				"z": -0.9449344479,
				"element": "C" 
			},
			{
				"x": -0.3204611909,
				"y": -1.5461350331,
				"z": 0.1577623702,
				"element": "C" 
			},
			{
				"x": -0.8688601151,
				"y": -1.0607721281,
				"z": 1.3976415566,
				"element": "C" 
			},
			{
				"x": -1.2722475003,
				"y": 0.2353052772,
				"z": 1.5674183169,
				"element": "C" 
			},
			{
				"x": -1.1214549066,
				"y": 1.0992061015,
				"z": 0.4423279693,
				"element": "C" 
			},
			{
				"x": -1.4115152607,
				"y": 2.3817273172,
				"z": 0.300489203,
				"element": "N" 
			},
			{
				"x": -1.0523348342,
				"y": 2.679441165,
				"z": -0.9857977883,
				"element": "O" 
			},
			{
				"x": -0.5390711058,
				"y": 1.6079015169,
				"z": -1.6641270322,
				"element": "N" 
			},
			{
				"x": -0.5727646137,
				"y": 0.6134257655,
				"z": -0.7933874266,
				"element": "C" 
			},
			{
				"x": 1.8263299327,
				"y": -2.4250533336,
				"z": -1.650842148,
				"element": "H" 
			},
			{
				"x": 1.090986245,
				"y": -0.4902400872,
				"z": -2.6699928988,
				"element": "H" 
			},
			{
				"x": -0.4072788789,
				"y": -1.3511753472,
				"z": -2.9861742617,
				"element": "H" 
			},
			{
				"x": -0.0265147379,
				"y": -2.5882400508,
				"z": 0.0854213457,
				"element": "H" 
			},
			{
				"x": -0.9623325319,
				"y": -1.7619193346,
				"z": 2.2216271763,
				"element": "H" 
			},
			{
				"x": -1.6855281392,
				"y": 0.6030941685,
				"z": 2.4992078739,
				"element": "H" 
			}
		],
		 "valence_orbital": [ 
			{
				"type": "occ",
				"energy": -0.32978,
				"method": "rhf"
			},
			{
				"type": "occ",
				"energy": -0.32061,
				"method": "rhf"
			},
			{
				"type": "occ",
				"energy": -0.29431,
				"method": "rhf"
			},
			{
				"type": "occ",
				"energy": -0.29142,
				"method": "rhf"
			},
			{
				"type": "occ",
				"energy": -0.24721,
				"method": "rhf"
			},
			{
				"type": "unocc",
				"energy": -0.08885,
				"method": "rhf"
			},
			{
				"type": "unocc",
				"energy": 0.00237,
				"method": "rhf"
			},
			{
				"type": "unocc",
				"energy": 0.00583,
				"method": "rhf"
			},
			{
				"type": "unocc",
				"energy": 0.06512,
				"method": "rhf"
			},
			{
				"type": "unocc",
				"energy": 0.09097,
				"method": "rhf"
			}
		],
		"cosmo_sigma_profile": { 
			"-0.025": 0.0,
			"-0.024": 0.0,
			"-0.023": 0.0,
			"-0.022": 0.0,
			"-0.021": 0.0,
			"-0.02": 0.0,
			"-0.019": 0.0,
			"-0.018": 0.0,
			"-0.017": 0.0628162640267,
			"-0.016": 0.784543981118,
			"-0.015": 1.2362908722,
			"-0.014": 0.745941893176,
			"-0.013": 1.10528942177,
			"-0.012": 0.636456090922,
			"-0.011": 1.06399425854,
			"-0.01": 0.872382134726,
			"-0.009": 0.52724786659,
			"-0.008": 3.67757519423,
			"-0.007": 6.45891614993,
			"-0.006": 11.3478150408,
			"-0.005": 11.1321251762,
			"-0.004": 9.32507806544,
			"-0.003": 11.4099966453,
			"-0.002": 12.135453725,
			"-0.001": 12.9762116336,
			"0.0": 13.2630766958,
			"0.001": 11.3505495218,
			"0.002": 11.5946673457,
			"0.003": 5.67775701103,
			"0.004": 6.27183281819,
			"0.005": 9.8069797925,
			"0.006": 6.52217156664,
			"0.007": 4.64542290579,
			"0.008": 4.21807479073,
			"0.009": 3.02380640171,
			"0.01": 3.29459549478,
			"0.011": 3.80870558411,
			"0.012": 2.4105730665,
			"0.013": 1.90879149476,
			"0.014": 0.590106429618,
			"0.015": 0.0,
			"0.016": 0.0,
			"0.017": 0.0,
			"0.018": 0.0,
			"0.019": 0.0,
			"0.02": 0.0,
			"0.021": 0.0,
			"0.022": 0.0,
			"0.023": 0.0,
			"0.024": 0.0,
			"0.025": 0.0
		}
	}
}
