{
	 "smiles": "COC(=O)CSCCC(N)=S", 
	 "Tm": 352.65, 
	 "num_atms": 22, 
	 "gaussian": { 
		 "optdone": 1, 
		 "sigma_profile": "yes", 
		 "theory": "DFT", 
		 "functional": "B3LYP", 
		 "basiset": "6-31G**", 
		 "properties": { 
			 "R2extent": 3266.1024, 
			 "electric_dipole_moment_norm": 4.56541212707, 
			 "electric_quadrupole_moment_norm": 21.4117026338, 
			 "total_energy": -1236.85558659, 
			 "HOMO_LUMO_gap": 0.17321, 
			 "cosmo_polarized_energy": -19.13, 
			 "cosmo_cavitation_energy": 29.03, 
			 "cosmo_dispersion_energy": -21.04, 
			 "cosmo_repulsion_energy": 1.64, 
			 "cosmo_total_nonelectrostatic_energy": 9.64, 
			 "SMD_solvation_energy": 5.09 
		},
		"coords": [
			{
				"x": -2.6222344821,
				"y": 0.888308604,
				"z": -2.8044755208,
				"element": "C" 
			},
			{
				"x": -1.9813704254,
				"y": -0.2247774941,
				"z": -2.154797371,
				"element": "O" 
			},
			{
				"x": -0.8935799129,
				"y": 0.0846178843,
				"z": -1.424122611,
				"element": "C" 
			},
			{
				"x": -0.4442560718,
				"y": 1.2068325948,
				"z": -1.3165607759,
				"element": "O" 
			},
			{
				"x": -0.3234877591,
				"y": -1.1382910626,
				"z": -0.7356801882,
				"element": "C" 
			},
			{
				"x": -0.7822675419,
				"y": -1.1645812885,
				"z": 1.0494413418,
				"element": "S" 
			},
			{
				"x": 0.2951721945,
				"y": 0.1755682151,
				"z": 1.7221989359,
				"element": "C" 
			},
			{
				"x": 1.5655117195,
				"y": -0.3123882218,
				"z": 2.4463085514,
				"element": "C" 
			},
			{
				"x": 2.5921993689,
				"y": -0.9677765823,
				"z": 1.5373307264,
				"element": "C" 
			},
			{
				"x": 2.389060364,
				"y": -2.2835479627,
				"z": 1.3229710419,
				"element": "N" 
			},
			{
				"x": 3.8554032882,
				"y": -0.1296169109,
				"z": 0.8510471967,
				"element": "S" 
			},
			{
				"x": -2.9692260482,
				"y": 1.6133421797,
				"z": -2.0643441962,
				"element": "H" 
			},
			{
				"x": -1.9288590716,
				"y": 1.3841228705,
				"z": -3.4879148938,
				"element": "H" 
			},
			{
				"x": -3.4640790782,
				"y": 0.463904335,
				"z": -3.3507022182,
				"element": "H" 
			},
			{
				"x": 0.7634458347,
				"y": -1.1373927857,
				"z": -0.8347772714,
				"element": "H" 
			},
			{
				"x": -0.7354396635,
				"y": -2.052495599,
				"z": -1.1654549231,
				"element": "H" 
			},
			{
				"x": -0.3281829451,
				"y": 0.72294865,
				"z": 2.4339645915,
				"element": "H" 
			},
			{
				"x": 0.533943943,
				"y": 0.8562398405,
				"z": 0.9017239778,
				"element": "H" 
			},
			{
				"x": 1.281492249,
				"y": -1.0072698214,
				"z": 3.2466862055,
				"element": "H" 
			},
			{
				"x": 2.038896043,
				"y": 0.5562347669,
				"z": 2.9095906707,
				"element": "H" 
			},
			{
				"x": 3.0008140861,
				"y": -2.7730577498,
				"z": 0.6852221263,
				"element": "H" 
			},
			{
				"x": 1.5350439088,
				"y": -2.7323244622,
				"z": 1.6270446038,
				"element": "H" 
			}
		],
		 "valence_orbital": [ 
			{
				"type": "occ",
				"energy": -0.31087,
				"method": "rhf"
			},
			{
				"type": "occ",
				"energy": -0.28559,
				"method": "rhf"
			},
			{
				"type": "occ",
				"energy": -0.24682,
				"method": "rhf"
			},
			{
				"type": "occ",
				"energy": -0.22819,
				"method": "rhf"
			},
			{
				"type": "occ",
				"energy": -0.20684,
				"method": "rhf"
			},
			{
				"type": "unocc",
				"energy": -0.03363,
				"method": "rhf"
			},
			{
				"type": "unocc",
				"energy": -0.01742,
				"method": "rhf"
			},
			{
				"type": "unocc",
				"energy": 0.03293,
				"method": "rhf"
			},
			{
				"type": "unocc",
				"energy": 0.05795,
				"method": "rhf"
			},
			{
				"type": "unocc",
				"energy": 0.07467,
				"method": "rhf"
			}
		],
		"cosmo_sigma_profile": { 
			"-0.025": 0.0,
			"-0.024": 0.0,
			"-0.023": 0.0,
			"-0.022": 0.0,
			"-0.021": 0.0,
			"-0.02": 0.0,
			"-0.019": 0.0,
			"-0.018": 0.0,
			"-0.017": 0.0,
			"-0.016": 0.0,
			"-0.015": 0.532208670535,
			"-0.014": 1.50447454556,
			"-0.013": 2.065715398,
			"-0.012": 2.50521850159,
			"-0.011": 1.98168012769,
			"-0.01": 2.42453497777,
			"-0.009": 1.79685474106,
			"-0.008": 3.11408262634,
			"-0.007": 5.50196194795,
			"-0.006": 18.1601994571,
			"-0.005": 21.2740215513,
			"-0.004": 21.7480426987,
			"-0.003": 21.0440424059,
			"-0.002": 12.6586508661,
			"-0.001": 8.38571829318,
			"0.0": 8.22935936635,
			"0.001": 9.26705280014,
			"0.002": 9.60412415146,
			"0.003": 9.80171436034,
			"0.004": 8.53021681053,
			"0.005": 10.8027531853,
			"0.006": 7.76046435197,
			"0.007": 7.7845026625,
			"0.008": 8.79203490559,
			"0.009": 8.03003548367,
			"0.01": 7.06771795564,
			"0.011": 6.58264051557,
			"0.012": 5.62520310657,
			"0.013": 0.648283107559,
			"0.014": 0.0,
			"0.015": 0.0,
			"0.016": 0.0,
			"0.017": 0.0,
			"0.018": 0.0,
			"0.019": 0.0,
			"0.02": 0.0,
			"0.021": 0.0,
			"0.022": 0.0,
			"0.023": 0.0,
			"0.024": 0.0,
			"0.025": 0.0
		}
	}
}
