{
	 "smiles": "CC1CC(CC(C)(C)C1)OC(=O)C(O)C1=CC=CC=C1", 
	 "Tm": 329.15, 
	 "num_atms": 44, 
	 "gaussian": { 
		 "optdone": 1, 
		 "sigma_profile": "yes", 
		 "theory": "DFT", 
		 "functional": "B3LYP", 
		 "basiset": "6-31G**", 
		 "properties": { 
			 "R2extent": 7647.0055, 
			 "electric_dipole_moment_norm": 3.25522080818, 
			 "electric_quadrupole_moment_norm": 9.48646583824, 
			 "total_energy": -887.972325645, 
			 "HOMO_LUMO_gap": 0.22558, 
			 "cosmo_polarized_energy": -9.31, 
			 "cosmo_cavitation_energy": 43.56, 
			 "cosmo_dispersion_energy": -29.07, 
			 "cosmo_repulsion_energy": 2.22, 
			 "cosmo_total_nonelectrostatic_energy": 16.71, 
			 "SMD_solvation_energy": 7.49 
		},
		"coords": [
			{
				"x": 2.365658782,
				"y": -0.3078530915,
				"z": -2.4305411771,
				"element": "C" 
			},
			{
				"x": 1.3336893121,
				"y": -0.1652423419,
				"z": -1.3019126867,
				"element": "C" 
			},
			{
				"x": 1.8894893413,
				"y": 0.7044462592,
				"z": -0.1496562252,
				"element": "C" 
			},
			{
				"x": 0.7872184079,
				"y": 1.3075291388,
				"z": 0.7142867463,
				"element": "C" 
			},
			{
				"x": -0.1721958173,
				"y": 2.208557141,
				"z": -0.0753330428,
				"element": "C" 
			},
			{
				"x": -0.3584443676,
				"y": 1.8386423364,
				"z": -1.5815674872,
				"element": "C" 
			},
			{
				"x": 0.5450719305,
				"y": 2.7235625293,
				"z": -2.468454462,
				"element": "C" 
			},
			{
				"x": -1.8209708023,
				"y": 2.1092257426,
				"z": -1.9850962726,
				"element": "C" 
			},
			{
				"x": -0.0566986452,
				"y": 0.3339597141,
				"z": -1.7907051056,
				"element": "C" 
			},
			{
				"x": -0.029424334,
				"y": 0.2204933309,
				"z": 1.2833809196,
				"element": "O" 
			},
			{
				"x": 0.3888065453,
				"y": -0.3347352149,
				"z": 2.4193602161,
				"element": "C" 
			},
			{
				"x": 1.4192720845,
				"y": -0.0548078509,
				"z": 3.0064152823,
				"element": "O" 
			},
			{
				"x": -0.5757710301,
				"y": -1.4042935134,
				"z": 2.9587332017,
				"element": "C" 
			},
			{
				"x": 0.0584736157,
				"y": -2.072195065,
				"z": 4.0211517253,
				"element": "O" 
			},
			{
				"x": -1.9011336496,
				"y": -0.76682091,
				"z": 3.3755824643,
				"element": "C" 
			},
			{
				"x": -2.1253515141,
				"y": -0.4331770839,
				"z": 4.7142233377,
				"element": "C" 
			},
			{
				"x": -3.3253213373,
				"y": 0.1679592342,
				"z": 5.0980938854,
				"element": "C" 
			},
			{
				"x": -4.3113133019,
				"y": 0.4394811112,
				"z": 4.148180982,
				"element": "C" 
			},
			{
				"x": -4.0937653745,
				"y": 0.1013631324,
				"z": 2.8103914598,
				"element": "C" 
			},
			{
				"x": -2.8951461918,
				"y": -0.5001241399,
				"z": 2.4266898095,
				"element": "C" 
			},
			{
				"x": 2.0130958219,
				"y": -1.0050939776,
				"z": -3.198290135,
				"element": "H" 
			},
			{
				"x": 2.5689258358,
				"y": 0.6502786593,
				"z": -2.9203896638,
				"element": "H" 
			},
			{
				"x": 3.3176745315,
				"y": -0.6911923911,
				"z": -2.0456853406,
				"element": "H" 
			},
			{
				"x": 1.1739306986,
				"y": -1.1706069792,
				"z": -0.8932392389,
				"element": "H" 
			},
			{
				"x": 2.5730806511,
				"y": 0.1228532767,
				"z": 0.4765346611,
				"element": "H" 
			},
			{
				"x": 2.4772870232,
				"y": 1.5403903521,
				"z": -0.5495601867,
				"element": "H" 
			},
			{
				"x": 1.2168899586,
				"y": 1.8454966135,
				"z": 1.5621272207,
				"element": "H" 
			},
			{
				"x": -1.1362389263,
				"y": 2.1869076485,
				"z": 0.4436005625,
				"element": "H" 
			},
			{
				"x": 0.1924414309,
				"y": 3.2398748674,
				"z": 0.0005992848,
				"element": "H" 
			},
			{
				"x": 0.4490078595,
				"y": 2.4442334307,
				"z": -3.5237376299,
				"element": "H" 
			},
			{
				"x": 1.602771599,
				"y": 2.6515763154,
				"z": -2.2020103097,
				"element": "H" 
			},
			{
				"x": 0.2569730468,
				"y": 3.7773481789,
				"z": -2.3767984985,
				"element": "H" 
			},
			{
				"x": -2.5128749181,
				"y": 1.4842921473,
				"z": -1.4097963417,
				"element": "H" 
			},
			{
				"x": -2.0905204696,
				"y": 3.1570287091,
				"z": -1.8083972133,
				"element": "H" 
			},
			{
				"x": -1.9826238654,
				"y": 1.8993441032,
				"z": -3.048665715,
				"element": "H" 
			},
			{
				"x": -0.1836948499,
				"y": 0.0880446823,
				"z": -2.8527896264,
				"element": "H" 
			},
			{
				"x": -0.8298790681,
				"y": -0.2279261105,
				"z": -1.2538514898,
				"element": "H" 
			},
			{
				"x": -0.7686643638,
				"y": -2.1092801789,
				"z": 2.1364302399,
				"element": "H" 
			},
			{
				"x": 0.8821736166,
				"y": -1.5790973932,
				"z": 4.1826707052,
				"element": "H" 
			},
			{
				"x": -1.3628746717,
				"y": -0.6709793615,
				"z": 5.4478515816,
				"element": "H" 
			},
			{
				"x": -3.4912423408,
				"y": 0.4198166804,
				"z": 6.1418949822,
				"element": "H" 
			},
			{
				"x": -5.2464887563,
				"y": 0.9036433767,
				"z": 4.4483148781,
				"element": "H" 
			},
			{
				"x": -4.8608000701,
				"y": 0.2988504161,
				"z": 2.0666605217,
				"element": "H" 
			},
			{
				"x": -2.7305934272,
				"y": -0.7651735244,
				"z": 1.3858031807,
				"element": "H" 
			}
		],
		 "valence_orbital": [ 
			{
				"type": "occ",
				"energy": -0.29747,
				"method": "rhf"
			},
			{
				"type": "occ",
				"energy": -0.29241,
				"method": "rhf"
			},
			{
				"type": "occ",
				"energy": -0.2733,
				"method": "rhf"
			},
			{
				"type": "occ",
				"energy": -0.24713,
				"method": "rhf"
			},
			{
				"type": "occ",
				"energy": -0.23892,
				"method": "rhf"
			},
			{
				"type": "unocc",
				"energy": -0.01334,
				"method": "rhf"
			},
			{
				"type": "unocc",
				"energy": 0.00185,
				"method": "rhf"
			},
			{
				"type": "unocc",
				"energy": 0.01677,
				"method": "rhf"
			},
			{
				"type": "unocc",
				"energy": 0.06191,
				"method": "rhf"
			},
			{
				"type": "unocc",
				"energy": 0.08676,
				"method": "rhf"
			}
		],
		"cosmo_sigma_profile": { 
			"-0.025": 0.0,
			"-0.024": 0.0,
			"-0.023": 0.0,
			"-0.022": 0.0,
			"-0.021": 0.0,
			"-0.02": 0.0,
			"-0.019": 0.0,
			"-0.018": 0.0,
			"-0.017": 0.0,
			"-0.016": 0.0,
			"-0.015": 0.0,
			"-0.014": 0.0,
			"-0.013": 0.0,
			"-0.012": 0.0,
			"-0.011": 0.192960519611,
			"-0.01": 0.638282920246,
			"-0.009": 0.775577175041,
			"-0.008": 0.115879429688,
			"-0.007": 1.27063799811,
			"-0.006": 7.5046775493,
			"-0.005": 14.7284307215,
			"-0.004": 22.8632207732,
			"-0.003": 30.3063431319,
			"-0.002": 47.7754534524,
			"-0.001": 47.7886207007,
			"0.0": 41.7274027439,
			"0.001": 33.3650997219,
			"0.002": 25.0733999658,
			"0.003": 12.5598440659,
			"0.004": 12.3191842091,
			"0.005": 13.0786385083,
			"0.006": 7.69688931472,
			"0.007": 2.77817935912,
			"0.008": 2.59142973932,
			"0.009": 3.6874334311,
			"0.01": 3.31074290872,
			"0.011": 2.7362596221,
			"0.012": 1.68877561968,
			"0.013": 1.7446724691,
			"0.014": 0.784455575341,
			"0.015": 0.0,
			"0.016": 0.0,
			"0.017": 0.0,
			"0.018": 0.0,
			"0.019": 0.0,
			"0.02": 0.0,
			"0.021": 0.0,
			"0.022": 0.0,
			"0.023": 0.0,
			"0.024": 0.0,
			"0.025": 0.0
		}
	}
}
