{
	 "smiles": "CC(C)(C)NC(=O)C1CC2CCCCC2CN1", 
	 "Tm": 389.15, 
	 "num_atms": 43, 
	 "gaussian": { 
		 "optdone": 1, 
		 "sigma_profile": "yes", 
		 "theory": "DFT", 
		 "functional": "B3LYP", 
		 "basiset": "6-31G**", 
		 "properties": { 
			 "R2extent": 5380.3293, 
			 "electric_dipole_moment_norm": 3.37893960437, 
			 "electric_quadrupole_moment_norm": 6.59827195484, 
			 "total_energy": -733.919728515, 
			 "HOMO_LUMO_gap": 0.23622, 
			 "cosmo_polarized_energy": -12.48, 
			 "cosmo_cavitation_energy": 39.27, 
			 "cosmo_dispersion_energy": -27.79, 
			 "cosmo_repulsion_energy": 2.16, 
			 "cosmo_total_nonelectrostatic_energy": 13.63, 
			 "SMD_solvation_energy": 3.25 
		},
		"coords": [
			{
				"x": -2.4500362433,
				"y": -2.0864352053,
				"z": 1.4170737903,
				"element": "C" 
			},
			{
				"x": -1.5910097286,
				"y": -2.7238512853,
				"z": 0.3093427364,
				"element": "C" 
			},
			{
				"x": -0.4421218048,
				"y": -3.5481694974,
				"z": 0.9205009392,
				"element": "C" 
			},
			{
				"x": -2.4660830715,
				"y": -3.6204158451,
				"z": -0.5805532177,
				"element": "C" 
			},
			{
				"x": -1.0421149996,
				"y": -1.6672146197,
				"z": -0.5739478394,
				"element": "N" 
			},
			{
				"x": -0.2142625483,
				"y": -0.6534204984,
				"z": -0.1895807971,
				"element": "C" 
			},
			{
				"x": 0.1638664924,
				"y": -0.5049908371,
				"z": 0.9723768483,
				"element": "O" 
			},
			{
				"x": 0.1741890685,
				"y": 0.3073869679,
				"z": -1.3317395302,
				"element": "C" 
			},
			{
				"x": -0.6451309185,
				"y": 1.6263464319,
				"z": -1.3185194632,
				"element": "C" 
			},
			{
				"x": -0.157761561,
				"y": 2.7286312182,
				"z": -0.3505401513,
				"element": "C" 
			},
			{
				"x": -0.6704811052,
				"y": 2.6254365903,
				"z": 1.0973147125,
				"element": "C" 
			},
			{
				"x": -0.3960192949,
				"y": 3.9435497379,
				"z": 1.8683021947,
				"element": "C" 
			},
			{
				"x": 0.8236513628,
				"y": 4.7133358434,
				"z": 1.3098502046,
				"element": "C" 
			},
			{
				"x": 1.8998332483,
				"y": 3.7469703563,
				"z": 0.7997571693,
				"element": "C" 
			},
			{
				"x": 1.3922432165,
				"y": 2.8622898797,
				"z": -0.3706314261,
				"element": "C" 
			},
			{
				"x": 2.0849089724,
				"y": 1.4853489475,
				"z": -0.3300472869,
				"element": "C" 
			},
			{
				"x": 1.6279265485,
				"y": 0.5213339136,
				"z": -1.3401544813,
				"element": "N" 
			},
			{
				"x": -1.8446580426,
				"y": -1.4165485812,
				"z": 2.0293569249,
				"element": "H" 
			},
			{
				"x": -2.8738191992,
				"y": -2.8657648757,
				"z": 2.0591603388,
				"element": "H" 
			},
			{
				"x": -3.276064052,
				"y": -1.5139686897,
				"z": 0.9821846328,
				"element": "H" 
			},
			{
				"x": 0.2077311391,
				"y": -2.9068508122,
				"z": 1.5177851305,
				"element": "H" 
			},
			{
				"x": 0.1576147111,
				"y": -4.0159989943,
				"z": 0.1328288384,
				"element": "H" 
			},
			{
				"x": -0.8448112008,
				"y": -4.3399200403,
				"z": 1.5612485589,
				"element": "H" 
			},
			{
				"x": -1.8761678046,
				"y": -4.0802959155,
				"z": -1.3821287899,
				"element": "H" 
			},
			{
				"x": -2.9060592393,
				"y": -4.4261209108,
				"z": 0.0134719551,
				"element": "H" 
			},
			{
				"x": -3.2855404768,
				"y": -3.0505387141,
				"z": -1.0334111586,
				"element": "H" 
			},
			{
				"x": -1.2492089005,
				"y": -1.7497463305,
				"z": -1.5578835613,
				"element": "H" 
			},
			{
				"x": -0.0607897872,
				"y": -0.2036769765,
				"z": -2.2742350215,
				"element": "H" 
			},
			{
				"x": -0.5812377602,
				"y": 2.0288425044,
				"z": -2.3391022118,
				"element": "H" 
			},
			{
				"x": -1.7073656667,
				"y": 1.4114340151,
				"z": -1.1411919021,
				"element": "H" 
			},
			{
				"x": -0.5699402167,
				"y": 3.6647646603,
				"z": -0.7543092101,
				"element": "H" 
			},
			{
				"x": -0.1936843152,
				"y": 1.7772414921,
				"z": 1.5954802368,
				"element": "H" 
			},
			{
				"x": -1.7460576054,
				"y": 2.4090284076,
				"z": 1.0986842311,
				"element": "H" 
			},
			{
				"x": -1.2782985002,
				"y": 4.5943205293,
				"z": 1.8317302246,
				"element": "H" 
			},
			{
				"x": -0.2302732455,
				"y": 3.7133031841,
				"z": 2.9275300291,
				"element": "H" 
			},
			{
				"x": 1.2367169435,
				"y": 5.3740456619,
				"z": 2.0807986553,
				"element": "H" 
			},
			{
				"x": 0.5098139587,
				"y": 5.3692429158,
				"z": 0.4873122766,
				"element": "H" 
			},
			{
				"x": 2.207348435,
				"y": 3.0990528403,
				"z": 1.6327384666,
				"element": "H" 
			},
			{
				"x": 2.7995523732,
				"y": 4.293583282,
				"z": 0.4937075328,
				"element": "H" 
			},
			{
				"x": 1.6645411655,
				"y": 3.3452647699,
				"z": -1.3224093952,
				"element": "H" 
			},
			{
				"x": 3.1667383613,
				"y": 1.6136466135,
				"z": -0.4582165603,
				"element": "H" 
			},
			{
				"x": 1.9302310712,
				"y": 1.024584113,
				"z": 0.6486794666,
				"element": "H" 
			},
			{
				"x": 1.8837902206,
				"y": 0.8652437533,
				"z": -2.2637140904,
				"element": "H" 
			}
		],
		 "valence_orbital": [ 
			{
				"type": "occ",
				"energy": -0.28162,
				"method": "rhf"
			},
			{
				"type": "occ",
				"energy": -0.28023,
				"method": "rhf"
			},
			{
				"type": "occ",
				"energy": -0.24782,
				"method": "rhf"
			},
			{
				"type": "occ",
				"energy": -0.23878,
				"method": "rhf"
			},
			{
				"type": "occ",
				"energy": -0.20592,
				"method": "rhf"
			},
			{
				"type": "unocc",
				"energy": 0.0303,
				"method": "rhf"
			},
			{
				"type": "unocc",
				"energy": 0.05841,
				"method": "rhf"
			},
			{
				"type": "unocc",
				"energy": 0.07933,
				"method": "rhf"
			},
			{
				"type": "unocc",
				"energy": 0.09525,
				"method": "rhf"
			},
			{
				"type": "unocc",
				"energy": 0.10659,
				"method": "rhf"
			}
		],
		"cosmo_sigma_profile": { 
			"-0.025": 0.0,
			"-0.024": 0.0,
			"-0.023": 0.0,
			"-0.022": 0.0,
			"-0.021": 0.0,
			"-0.02": 0.0,
			"-0.019": 0.0,
			"-0.018": 0.0,
			"-0.017": 0.0,
			"-0.016": 0.0,
			"-0.015": 0.0,
			"-0.014": 0.0251666807806,
			"-0.013": 0.838504856983,
			"-0.012": 1.0527029983,
			"-0.011": 0.973222763247,
			"-0.01": 1.75096244578,
			"-0.009": 3.08478012253,
			"-0.008": 2.8204553828,
			"-0.007": 3.17143232012,
			"-0.006": 4.16076102822,
			"-0.005": 4.72344538303,
			"-0.004": 9.21429646131,
			"-0.003": 24.0350861147,
			"-0.002": 36.9616688358,
			"-0.001": 48.0503741422,
			"0.0": 53.8545991566,
			"0.001": 43.4978508783,
			"0.002": 22.3497209312,
			"0.003": 7.64795401414,
			"0.004": 3.72501862985,
			"0.005": 3.39742360233,
			"0.006": 3.38494081728,
			"0.007": 2.60808084308,
			"0.008": 2.41449786964,
			"0.009": 3.02463602193,
			"0.01": 2.57780887353,
			"0.011": 1.96546780199,
			"0.012": 2.9519000891,
			"0.013": 2.7498482582,
			"0.014": 1.89701824213,
			"0.015": 0.376124941843,
			"0.016": 0.345690170142,
			"0.017": 0.596182098171,
			"0.018": 0.537993229687,
			"0.019": 0.0,
			"0.02": 0.0,
			"0.021": 0.0,
			"0.022": 0.0,
			"0.023": 0.0,
			"0.024": 0.0,
			"0.025": 0.0
		}
	}
}
