{
	 "smiles": "CC(=O)OC1(CCC2C3C=C(C)C4=CC(=O)CCC4(C)C3CCC12C)C(C)=O", 
	 "Tm": 487.15, 
	 "num_atms": 60, 
	 "gaussian": { 
		 "optdone": 1, 
		 "sigma_profile": "yes", 
		 "theory": "DFT", 
		 "functional": "B3LYP", 
		 "basiset": "6-31G**", 
		 "properties": { 
			 "R2extent": 12691.0677, 
			 "electric_dipole_moment_norm": 2.93668791839, 
			 "electric_quadrupole_moment_norm": 59.312892831, 
			 "total_energy": -1234.72993718, 
			 "HOMO_LUMO_gap": 0.16725, 
			 "cosmo_polarized_energy": -19.42, 
			 "cosmo_cavitation_energy": 53.72, 
			 "cosmo_dispersion_energy": -35.81, 
			 "cosmo_repulsion_energy": 2.64, 
			 "cosmo_total_nonelectrostatic_energy": 20.55, 
			 "SMD_solvation_energy": 10.37 
		},
		"coords": [
			{
				"x": -2.8362616192,
				"y": 2.4243065424,
				"z": -3.80224422,
				"element": "C" 
			},
			{
				"x": -2.5855786574,
				"y": 2.8968163202,
				"z": -2.3898297687,
				"element": "C" 
			},
			{
				"x": -3.0935681449,
				"y": 3.8703334608,
				"z": -1.8759873004,
				"element": "O" 
			},
			{
				"x": -1.701421319,
				"y": 2.0852787095,
				"z": -1.7625809481,
				"element": "O" 
			},
			{
				"x": -1.4186593408,
				"y": 2.3041229295,
				"z": -0.3449533576,
				"element": "C" 
			},
			{
				"x": -2.671117115,
				"y": 1.9868887278,
				"z": 0.5149344687,
				"element": "C" 
			},
			{
				"x": -2.5530024646,
				"y": 0.5065699431,
				"z": 0.9701603083,
				"element": "C" 
			},
			{
				"x": -1.3642674005,
				"y": -0.0370527097,
				"z": 0.163776995,
				"element": "C" 
			},
			{
				"x": -0.7126567738,
				"y": -1.3887201892,
				"z": 0.5413041421,
				"element": "C" 
			},
			{
				"x": -0.6695511126,
				"y": -1.8233767271,
				"z": 1.9854177101,
				"element": "C" 
			},
			{
				"x": 0.0106014252,
				"y": -2.94038845,
				"z": 2.3167658127,
				"element": "C" 
			},
			{
				"x": 0.0492448531,
				"y": -3.4804280651,
				"z": 3.7250617851,
				"element": "C" 
			},
			{
				"x": 0.6289210168,
				"y": -3.7075856438,
				"z": 1.2109371297,
				"element": "C" 
			},
			{
				"x": 0.6071762294,
				"y": -5.0634556971,
				"z": 1.2030244006,
				"element": "C" 
			},
			{
				"x": 1.0110469996,
				"y": -5.8886275072,
				"z": 0.0537340666,
				"element": "C" 
			},
			{
				"x": 1.0124531164,
				"y": -7.112332634,
				"z": 0.1142767403,
				"element": "O" 
			},
			{
				"x": 1.394172221,
				"y": -5.1629587693,
				"z": -1.2330732724,
				"element": "C" 
			},
			{
				"x": 0.9482801029,
				"y": -3.6942609914,
				"z": -1.2755914942,
				"element": "C" 
			},
			{
				"x": 1.2686769137,
				"y": -2.9364706649,
				"z": 0.0352116021,
				"element": "C" 
			},
			{
				"x": 2.8013687168,
				"y": -2.8966784567,
				"z": 0.2732697129,
				"element": "C" 
			},
			{
				"x": 0.7505032624,
				"y": -1.4657371691,
				"z": 0.0221213889,
				"element": "C" 
			},
			{
				"x": 0.9025832367,
				"y": -0.6649934048,
				"z": -1.2793441813,
				"element": "C" 
			},
			{
				"x": 0.7146115883,
				"y": 0.8534808909,
				"z": -1.0121027703,
				"element": "C" 
			},
			{
				"x": -0.3869235003,
				"y": 1.1666739465,
				"z": 0.0478237111,
				"element": "C" 
			},
			{
				"x": 0.252747732,
				"y": 1.5278130529,
				"z": 1.4094769188,
				"element": "C" 
			},
			{
				"x": -0.8603667178,
				"y": 3.7252037399,
				"z": -0.1129993599,
				"element": "C" 
			},
			{
				"x": -0.0236112991,
				"y": 4.3745623227,
				"z": -1.2006996483,
				"element": "C" 
			},
			{
				"x": -1.0337431396,
				"y": 4.2766011504,
				"z": 0.9566425025,
				"element": "O" 
			},
			{
				"x": -3.5035934775,
				"y": 3.1239070605,
				"z": -4.3043956932,
				"element": "H" 
			},
			{
				"x": -1.892267865,
				"y": 2.3469544514,
				"z": -4.3493400404,
				"element": "H" 
			},
			{
				"x": -3.286947862,
				"y": 1.4272591341,
				"z": -3.7876604592,
				"element": "H" 
			},
			{
				"x": -2.6932551202,
				"y": 2.6783600342,
				"z": 1.3584753926,
				"element": "H" 
			},
			{
				"x": -3.5738503143,
				"y": 2.1749028757,
				"z": -0.067112341,
				"element": "H" 
			},
			{
				"x": -3.4702952646,
				"y": -0.0597692579,
				"z": 0.7814150694,
				"element": "H" 
			},
			{
				"x": -2.3670724558,
				"y": 0.4543379154,
				"z": 2.0472028713,
				"element": "H" 
			},
			{
				"x": -1.7377816243,
				"y": -0.1788816295,
				"z": -0.8574174042,
				"element": "H" 
			},
			{
				"x": -1.2913969817,
				"y": -2.1530569555,
				"z": -0.0016026912,
				"element": "H" 
			},
			{
				"x": -1.2059164669,
				"y": -1.2665154807,
				"z": 2.7496021464,
				"element": "H" 
			},
			{
				"x": -0.4117359113,
				"y": -2.7755941105,
				"z": 4.4222850388,
				"element": "H" 
			},
			{
				"x": -0.4900823234,
				"y": -4.4311737979,
				"z": 3.810531017,
				"element": "H" 
			},
			{
				"x": 1.0774564596,
				"y": -3.6690855743,
				"z": 4.053516366,
				"element": "H" 
			},
			{
				"x": 0.2088114956,
				"y": -5.6263962205,
				"z": 2.0422615671,
				"element": "H" 
			},
			{
				"x": 2.4844978086,
				"y": -5.2393592465,
				"z": -1.3336779837,
				"element": "H" 
			},
			{
				"x": 0.9783870226,
				"y": -5.7346840782,
				"z": -2.0687592916,
				"element": "H" 
			},
			{
				"x": -0.1336199017,
				"y": -3.6519564176,
				"z": -1.4544879052,
				"element": "H" 
			},
			{
				"x": 1.4260364706,
				"y": -3.1909151269,
				"z": -2.1231423954,
				"element": "H" 
			},
			{
				"x": 3.0276810563,
				"y": -2.4220643916,
				"z": 1.2333201981,
				"element": "H" 
			},
			{
				"x": 3.2978982742,
				"y": -2.3163040458,
				"z": -0.5127456716,
				"element": "H" 
			},
			{
				"x": 3.2451696412,
				"y": -3.8945324465,
				"z": 0.2890229126,
				"element": "H" 
			},
			{
				"x": 1.362078661,
				"y": -0.9462765539,
				"z": 0.7682761495,
				"element": "H" 
			},
			{
				"x": 0.173010645,
				"y": -1.0095582425,
				"z": -2.0223869966,
				"element": "H" 
			},
			{
				"x": 1.8909501802,
				"y": -0.8206998011,
				"z": -1.726576545,
				"element": "H" 
			},
			{
				"x": 1.6685311455,
				"y": 1.2702687972,
				"z": -0.6682367377,
				"element": "H" 
			},
			{
				"x": 0.4797325432,
				"y": 1.3407340605,
				"z": -1.9612234256,
				"element": "H" 
			},
			{
				"x": -0.4811470958,
				"y": 1.8695061126,
				"z": 2.1422505167,
				"element": "H" 
			},
			{
				"x": 0.9842264822,
				"y": 2.3333695605,
				"z": 1.2958160876,
				"element": "H" 
			},
			{
				"x": 0.7751670392,
				"y": 0.6687295419,
				"z": 1.8350710366,
				"element": "H" 
			},
			{
				"x": -0.6902244623,
				"y": 4.8751452601,
				"z": -1.9100639086,
				"element": "H" 
			},
			{
				"x": 0.6153347686,
				"y": 5.1295991269,
				"z": -0.7398298366,
				"element": "H" 
			},
			{
				"x": 0.5796586236,
				"y": 3.6520647893,
				"z": -1.7557201171,
				"element": "H" 
			}
		],
		 "valence_orbital": [ 
			{
				"type": "occ",
				"energy": -0.28203,
				"method": "rhf"
			},
			{
				"type": "occ",
				"energy": -0.27994,
				"method": "rhf"
			},
			{
				"type": "occ",
				"energy": -0.2464,
				"method": "rhf"
			},
			{
				"type": "occ",
				"energy": -0.23452,
				"method": "rhf"
			},
			{
				"type": "occ",
				"energy": -0.22779,
				"method": "rhf"
			},
			{
				"type": "unocc",
				"energy": -0.06054,
				"method": "rhf"
			},
			{
				"type": "unocc",
				"energy": -0.02065,
				"method": "rhf"
			},
			{
				"type": "unocc",
				"energy": -0.00369,
				"method": "rhf"
			},
			{
				"type": "unocc",
				"energy": 0.02027,
				"method": "rhf"
			},
			{
				"type": "unocc",
				"energy": 0.06686,
				"method": "rhf"
			}
		],
		"cosmo_sigma_profile": { 
			"-0.025": 0.0,
			"-0.024": 0.0,
			"-0.023": 0.0,
			"-0.022": 0.0,
			"-0.021": 0.0,
			"-0.02": 0.0,
			"-0.019": 0.0,
			"-0.018": 0.0,
			"-0.017": 0.0,
			"-0.016": 0.0,
			"-0.015": 0.0,
			"-0.014": 0.0,
			"-0.013": 0.0,
			"-0.012": 0.0,
			"-0.011": 0.0,
			"-0.01": 0.0,
			"-0.009": 0.0,
			"-0.008": 0.0,
			"-0.007": 1.10916108008,
			"-0.006": 7.81649330795,
			"-0.005": 20.3268597998,
			"-0.004": 38.3032853524,
			"-0.003": 61.2627323911,
			"-0.002": 65.9454925037,
			"-0.001": 58.3587539185,
			"0.0": 44.6932860309,
			"0.001": 26.8241639062,
			"0.002": 14.0758479235,
			"0.003": 11.3902563647,
			"0.004": 9.33478345251,
			"0.005": 5.94272017103,
			"0.006": 4.73658970684,
			"0.007": 5.18818609959,
			"0.008": 5.28197823508,
			"0.009": 4.76650633296,
			"0.01": 5.08794957712,
			"0.011": 8.39077070862,
			"0.012": 7.83011624788,
			"0.013": 5.98182779658,
			"0.014": 3.66893257149,
			"0.015": 0.773410986459,
			"0.016": 0.0,
			"0.017": 0.0,
			"0.018": 0.0,
			"0.019": 0.0,
			"0.02": 0.0,
			"0.021": 0.0,
			"0.022": 0.0,
			"0.023": 0.0,
			"0.024": 0.0,
			"0.025": 0.0
		}
	}
}
