{
	 "smiles": "CCOC(=O)N1CCN(CC(=O)NC2=C(C(=O)OCC)C3=C(CCCC3)S2)CC1", 
	 "Tm": 395.15, 
	 "num_atms": 58, 
	 "gaussian": { 
		 "optdone": 1, 
		 "sigma_profile": "yes", 
		 "theory": "DFT", 
		 "functional": "B3LYP", 
		 "basiset": "6-31G**", 
		 "properties": { 
			 "R2extent": 16943.3136, 
			 "electric_dipole_moment_norm": 0.787729147614, 
			 "electric_quadrupole_moment_norm": 34.1020798266, 
			 "total_energy": -1718.21371009, 
			 "HOMO_LUMO_gap": 0.17675, 
			 "cosmo_polarized_energy": -20.78, 
			 "cosmo_cavitation_energy": 59.49, 
			 "cosmo_dispersion_energy": -40.53, 
			 "cosmo_repulsion_energy": 3.12, 
			 "cosmo_total_nonelectrostatic_energy": 22.08, 
			 "SMD_solvation_energy": 9.76 
		},
		"coords": [
			{
				"x": -3.8987862034,
				"y": -4.9415309617,
				"z": 4.6598687136,
				"element": "C" 
			},
			{
				"x": -2.8327116665,
				"y": -3.8756517712,
				"z": 4.8649056501,
				"element": "C" 
			},
			{
				"x": -3.1980335821,
				"y": -2.6306956648,
				"z": 4.2318729904,
				"element": "O" 
			},
			{
				"x": -2.8983600602,
				"y": -2.5381103728,
				"z": 2.9041678516,
				"element": "C" 
			},
			{
				"x": -2.3265093348,
				"y": -3.4131996215,
				"z": 2.2713427648,
				"element": "O" 
			},
			{
				"x": -3.3156215887,
				"y": -1.3543938522,
				"z": 2.3681785731,
				"element": "N" 
			},
			{
				"x": -3.9296618945,
				"y": -0.2670380393,
				"z": 3.1150758685,
				"element": "C" 
			},
			{
				"x": -3.0164130865,
				"y": 0.9769619365,
				"z": 3.1352963493,
				"element": "C" 
			},
			{
				"x": -2.1951714948,
				"y": 1.0452771457,
				"z": 1.9141744366,
				"element": "N" 
			},
			{
				"x": -1.6770626249,
				"y": 2.3830419704,
				"z": 1.6591849345,
				"element": "C" 
			},
			{
				"x": -0.4068721998,
				"y": 2.3918238997,
				"z": 0.7983956465,
				"element": "C" 
			},
			{
				"x": -0.0702063295,
				"y": 3.3644492457,
				"z": 0.1482729782,
				"element": "O" 
			},
			{
				"x": 0.3078932222,
				"y": 1.2168366101,
				"z": 0.8964784237,
				"element": "N" 
			},
			{
				"x": 1.4372362285,
				"y": 0.9133238487,
				"z": 0.1351112659,
				"element": "C" 
			},
			{
				"x": 1.6032309215,
				"y": 0.9632872056,
				"z": -1.2333582733,
				"element": "C" 
			},
			{
				"x": 0.4653580069,
				"y": 1.2776810746,
				"z": -2.1339059775,
				"element": "C" 
			},
			{
				"x": -0.7090358086,
				"y": 1.0662545857,
				"z": -1.8888648173,
				"element": "O" 
			},
			{
				"x": 0.8757204035,
				"y": 1.8312139202,
				"z": -3.2957433984,
				"element": "O" 
			},
			{
				"x": -0.1736735742,
				"y": 2.1957359408,
				"z": -4.2215723068,
				"element": "C" 
			},
			{
				"x": 0.4856725023,
				"y": 2.8312164212,
				"z": -5.4309129285,
				"element": "C" 
			},
			{
				"x": 2.9530447431,
				"y": 0.6378627718,
				"z": -1.6418420728,
				"element": "C" 
			},
			{
				"x": 3.7681494782,
				"y": 0.346865068,
				"z": -0.5792236192,
				"element": "C" 
			},
			{
				"x": 5.208927163,
				"y": -0.0822323432,
				"z": -0.6575090386,
				"element": "C" 
			},
			{
				"x": 5.7779297583,
				"y": 0.2280791769,
				"z": -2.0528771401,
				"element": "C" 
			},
			{
				"x": 4.7976382895,
				"y": -0.2073144044,
				"z": -3.1496432475,
				"element": "C" 
			},
			{
				"x": 3.4693290949,
				"y": 0.5629204517,
				"z": -3.062940792,
				"element": "C" 
			},
			{
				"x": 2.9285122916,
				"y": 0.4990943043,
				"z": 0.94287426,
				"element": "S" 
			},
			{
				"x": -2.8788859524,
				"y": 0.4501393605,
				"z": 0.7585934486,
				"element": "C" 
			},
			{
				"x": -2.9851640701,
				"y": -1.0673159495,
				"z": 0.9687521842,
				"element": "C" 
			},
			{
				"x": -3.981567307,
				"y": -5.1952325568,
				"z": 3.6003412791,
				"element": "H" 
			},
			{
				"x": -3.6304345385,
				"y": -5.8491985636,
				"z": 5.2111799064,
				"element": "H" 
			},
			{
				"x": -4.8721905843,
				"y": -4.5955754892,
				"z": 5.0208524958,
				"element": "H" 
			},
			{
				"x": -2.7218574568,
				"y": -3.6193835286,
				"z": 5.9219176681,
				"element": "H" 
			},
			{
				"x": -1.8694565847,
				"y": -4.2050041365,
				"z": 4.4688052466,
				"element": "H" 
			},
			{
				"x": -4.143366666,
				"y": -0.6016138063,
				"z": 4.1278088033,
				"element": "H" 
			},
			{
				"x": -4.8885954341,
				"y": -0.0149048343,
				"z": 2.6441066445,
				"element": "H" 
			},
			{
				"x": -3.6580240007,
				"y": 1.8688633909,
				"z": 3.2479136354,
				"element": "H" 
			},
			{
				"x": -2.3435627926,
				"y": 0.9468092469,
				"z": 4.0010026233,
				"element": "H" 
			},
			{
				"x": -1.4143729153,
				"y": 2.8453068029,
				"z": 2.6191715644,
				"element": "H" 
			},
			{
				"x": -2.4001191177,
				"y": 3.0547240979,
				"z": 1.1694748484,
				"element": "H" 
			},
			{
				"x": -0.1469994696,
				"y": 0.4983244122,
				"z": 1.4546439377,
				"element": "H" 
			},
			{
				"x": -0.8589950119,
				"y": 2.8833653147,
				"z": -3.7172095277,
				"element": "H" 
			},
			{
				"x": -0.7419860508,
				"y": 1.2979998447,
				"z": -4.4855060668,
				"element": "H" 
			},
			{
				"x": 1.053465464,
				"y": 3.7204719184,
				"z": -5.1429103718,
				"element": "H" 
			},
			{
				"x": 1.1670796079,
				"y": 2.1303247519,
				"z": -5.9220674845,
				"element": "H" 
			},
			{
				"x": -0.2788681341,
				"y": 3.1305277425,
				"z": -6.1547443048,
				"element": "H" 
			},
			{
				"x": 5.2883765334,
				"y": -1.1604696936,
				"z": -0.4562342202,
				"element": "H" 
			},
			{
				"x": 5.8047675385,
				"y": 0.4175943861,
				"z": 0.1157836225,
				"element": "H" 
			},
			{
				"x": 5.9636898502,
				"y": 1.3065660483,
				"z": -2.1377589153,
				"element": "H" 
			},
			{
				"x": 6.744607836,
				"y": -0.2728279275,
				"z": -2.1751819722,
				"element": "H" 
			},
			{
				"x": 4.6032382491,
				"y": -1.2836490191,
				"z": -3.0491600728,
				"element": "H" 
			},
			{
				"x": 5.242076503,
				"y": -0.059479186,
				"z": -4.1402182638,
				"element": "H" 
			},
			{
				"x": 3.5978814597,
				"y": 1.5811647747,
				"z": -3.4523524833,
				"element": "H" 
			},
			{
				"x": 2.721023912,
				"y": 0.0966794868,
				"z": -3.7112285778,
				"element": "H" 
			},
			{
				"x": -3.8742151324,
				"y": 0.9031363752,
				"z": 0.5990827593,
				"element": "H" 
			},
			{
				"x": -2.2917915355,
				"y": 0.6377653507,
				"z": -0.1441319728,
				"element": "H" 
			},
			{
				"x": -3.7397937075,
				"y": -1.4902579038,
				"z": 0.2912225589,
				"element": "H" 
			},
			{
				"x": -2.0340831468,
				"y": -1.5535092568,
				"z": 0.741543913,
				"element": "H" 
			}
		],
		 "valence_orbital": [ 
			{
				"type": "occ",
				"energy": -0.25227,
				"method": "rhf"
			},
			{
				"type": "occ",
				"energy": -0.24386,
				"method": "rhf"
			},
			{
				"type": "occ",
				"energy": -0.23827,
				"method": "rhf"
			},
			{
				"type": "occ",
				"energy": -0.22749,
				"method": "rhf"
			},
			{
				"type": "occ",
				"energy": -0.2114,
				"method": "rhf"
			},
			{
				"type": "unocc",
				"energy": -0.03465,
				"method": "rhf"
			},
			{
				"type": "unocc",
				"energy": 0.01516,
				"method": "rhf"
			},
			{
				"type": "unocc",
				"energy": 0.0249,
				"method": "rhf"
			},
			{
				"type": "unocc",
				"energy": 0.02916,
				"method": "rhf"
			},
			{
				"type": "unocc",
				"energy": 0.05877,
				"method": "rhf"
			}
		],
		"cosmo_sigma_profile": { 
			"-0.025": 0.0,
			"-0.024": 0.0,
			"-0.023": 0.0,
			"-0.022": 0.0,
			"-0.021": 0.0,
			"-0.02": 0.0,
			"-0.019": 0.0,
			"-0.018": 0.0,
			"-0.017": 0.0,
			"-0.016": 0.0,
			"-0.015": 0.0,
			"-0.014": 0.0,
			"-0.013": 0.0,
			"-0.012": 0.0113587047326,
			"-0.011": 0.781190388077,
			"-0.01": 0.710905646047,
			"-0.009": 0.846134563459,
			"-0.008": 0.945263055745,
			"-0.007": 2.79373880811,
			"-0.006": 5.17774169315,
			"-0.005": 22.0461141381,
			"-0.004": 54.8027298153,
			"-0.003": 66.0423372489,
			"-0.002": 61.2546694148,
			"-0.001": 50.1769148011,
			"0.0": 46.2358617857,
			"0.001": 31.4732789383,
			"0.002": 21.515792804,
			"0.003": 22.9805961908,
			"0.004": 16.5766287968,
			"0.005": 9.17485759543,
			"0.006": 8.24772722772,
			"0.007": 6.46521430024,
			"0.008": 5.08459323468,
			"0.009": 6.18257280117,
			"0.01": 4.94392082788,
			"0.011": 4.93208441552,
			"0.012": 4.34905698023,
			"0.013": 8.16197051494,
			"0.014": 5.2904754582,
			"0.015": 0.0728478240008,
			"0.016": 0.0,
			"0.017": 0.0,
			"0.018": 0.0,
			"0.019": 0.0,
			"0.02": 0.0,
			"0.021": 0.0,
			"0.022": 0.0,
			"0.023": 0.0,
			"0.024": 0.0,
			"0.025": 0.0
		}
	}
}
