{
	 "smiles": "C1CC(=CCN1)C1=CNC2=C1C=CC=N2", 
	 "Tm": 455.15, 
	 "num_atms": 28, 
	 "gaussian": { 
		 "optdone": 1, 
		 "sigma_profile": "yes", 
		 "theory": "DFT", 
		 "functional": "B3LYP", 
		 "basiset": "6-31G**", 
		 "properties": { 
			 "R2extent": 3865.4418, 
			 "electric_dipole_moment_norm": 2.30549657558, 
			 "electric_quadrupole_moment_norm": 11.5089090969, 
			 "total_energy": -629.350105366, 
			 "HOMO_LUMO_gap": 0.17064, 
			 "cosmo_polarized_energy": -12.01, 
			 "cosmo_cavitation_energy": 30.26, 
			 "cosmo_dispersion_energy": -22.74, 
			 "cosmo_repulsion_energy": 1.77, 
			 "cosmo_total_nonelectrostatic_energy": 9.29, 
			 "SMD_solvation_energy": 0.56 
		},
		"coords": [
			{
				"x": 1.0526054041,
				"y": -2.8507611565,
				"z": -1.0702033448,
				"element": "C" 
			},
			{
				"x": 0.8653482432,
				"y": -1.6492184608,
				"z": -0.1400851545,
				"element": "C" 
			},
			{
				"x": -0.4470714198,
				"y": -0.9383428376,
				"z": -0.4272190509,
				"element": "C" 
			},
			{
				"x": -1.0596720598,
				"y": -1.1208513778,
				"z": -1.6104517938,
				"element": "C" 
			},
			{
				"x": -0.5369825484,
				"y": -2.0179448095,
				"z": -2.6998531879,
				"element": "C" 
			},
			{
				"x": 0.8471574774,
				"y": -2.4148234448,
				"z": -2.4496779977,
				"element": "N" 
			},
			{
				"x": -1.0316689929,
				"y": -0.0924508186,
				"z": 0.6272283044,
				"element": "C" 
			},
			{
				"x": -2.3787221048,
				"y": 0.040991331,
				"z": 0.8966166489,
				"element": "C" 
			},
			{
				"x": -2.5803652732,
				"y": 0.9139459212,
				"z": 1.9452050116,
				"element": "N" 
			},
			{
				"x": -1.3604171007,
				"y": 1.3608369488,
				"z": 2.3969148596,
				"element": "C" 
			},
			{
				"x": -0.3550144905,
				"y": 0.7476375045,
				"z": 1.593529113,
				"element": "C" 
			},
			{
				"x": 0.9684114755,
				"y": 1.1020572755,
				"z": 1.8933921086,
				"element": "C" 
			},
			{
				"x": 1.1825697429,
				"y": 1.9933716204,
				"z": 2.9411694403,
				"element": "C" 
			},
			{
				"x": 0.0908944701,
				"y": 2.5151571504,
				"z": 3.658799446,
				"element": "C" 
			},
			{
				"x": -1.1866465392,
				"y": 2.2160820938,
				"z": 3.4023482993,
				"element": "N" 
			},
			{
				"x": 2.0692284681,
				"y": -3.2473157871,
				"z": -0.9755776931,
				"element": "H" 
			},
			{
				"x": 0.3569587418,
				"y": -3.6550805098,
				"z": -0.7609295312,
				"element": "H" 
			},
			{
				"x": 0.8931130142,
				"y": -1.9765721636,
				"z": 0.9060635309,
				"element": "H" 
			},
			{
				"x": 1.7054062009,
				"y": -0.9564325092,
				"z": -0.2816141493,
				"element": "H" 
			},
			{
				"x": -1.992665647,
				"y": -0.6033181819,
				"z": -1.8231218177,
				"element": "H" 
			},
			{
				"x": -1.2270117569,
				"y": -2.8832780825,
				"z": -2.7979119079,
				"element": "H" 
			},
			{
				"x": -0.5814173582,
				"y": -1.4887097423,
				"z": -3.6619165052,
				"element": "H" 
			},
			{
				"x": 1.1145444081,
				"y": -3.1507865319,
				"z": -3.0962310143,
				"element": "H" 
			},
			{
				"x": -3.2146727406,
				"y": -0.4528490005,
				"z": 0.4226822889,
				"element": "H" 
			},
			{
				"x": -3.4636597812,
				"y": 1.1651743374,
				"z": 2.3598294813,
				"element": "H" 
			},
			{
				"x": 1.8050682941,
				"y": 0.6996484602,
				"z": 1.3316315158,
				"element": "H" 
			},
			{
				"x": 2.1895536002,
				"y": 2.2948513483,
				"z": 3.2113301409,
				"element": "H" 
			},
			{
				"x": 0.2629282728,
				"y": 3.2105814229,
				"z": 4.477952959,
				"element": "H" 
			}
		],
		 "valence_orbital": [ 
			{
				"type": "occ",
				"energy": -0.25822,
				"method": "rhf"
			},
			{
				"type": "occ",
				"energy": -0.2513,
				"method": "rhf"
			},
			{
				"type": "occ",
				"energy": -0.22832,
				"method": "rhf"
			},
			{
				"type": "occ",
				"energy": -0.21822,
				"method": "rhf"
			},
			{
				"type": "occ",
				"energy": -0.19549,
				"method": "rhf"
			},
			{
				"type": "unocc",
				"energy": -0.02485,
				"method": "rhf"
			},
			{
				"type": "unocc",
				"energy": 0.01131,
				"method": "rhf"
			},
			{
				"type": "unocc",
				"energy": 0.02385,
				"method": "rhf"
			},
			{
				"type": "unocc",
				"energy": 0.08365,
				"method": "rhf"
			},
			{
				"type": "unocc",
				"energy": 0.08851,
				"method": "rhf"
			}
		],
		"cosmo_sigma_profile": { 
			"-0.025": 0.0,
			"-0.024": 0.0,
			"-0.023": 0.0,
			"-0.022": 0.0,
			"-0.021": 0.0,
			"-0.02": 0.0,
			"-0.019": 0.0,
			"-0.018": 0.0,
			"-0.017": 0.0,
			"-0.016": 0.538962604891,
			"-0.015": 1.54462508986,
			"-0.014": 1.20059149344,
			"-0.013": 1.11087737198,
			"-0.012": 1.05634582988,
			"-0.011": 0.867615560666,
			"-0.01": 1.99551981991,
			"-0.009": 2.5702549355,
			"-0.008": 3.19099215642,
			"-0.007": 3.85163983702,
			"-0.006": 8.48960772118,
			"-0.005": 11.5732258153,
			"-0.004": 15.0934188618,
			"-0.003": 20.0376006087,
			"-0.002": 23.4033275313,
			"-0.001": 25.8443222864,
			"0.0": 17.4039770837,
			"0.001": 11.8033359806,
			"0.002": 13.3727439777,
			"0.003": 18.029019089,
			"0.004": 19.9563453903,
			"0.005": 11.5249001245,
			"0.006": 5.18402788933,
			"0.007": 3.23135303948,
			"0.008": 2.34476625684,
			"0.009": 2.95714836319,
			"0.01": 2.03176703621,
			"0.011": 1.41536233466,
			"0.012": 1.72113457574,
			"0.013": 1.40213581049,
			"0.014": 1.14386187369,
			"0.015": 1.18646090197,
			"0.016": 1.30016245831,
			"0.017": 0.570605497741,
			"0.018": 0.405254690799,
			"0.019": 0.210372618648,
			"0.02": 0.0,
			"0.021": 0.0,
			"0.022": 0.0,
			"0.023": 0.0,
			"0.024": 0.0,
			"0.025": 0.0
		}
	}
}
