{
	 "smiles": "FC(=O)C1=CC=CC=C1", 
	 "Tm": 245.15, 
	 "num_atms": 14, 
	 "gaussian": { 
		 "optdone": 1, 
		 "sigma_profile": "yes", 
		 "theory": "DFT", 
		 "functional": "B3LYP", 
		 "basiset": "6-31G**", 
		 "properties": { 
			 "R2extent": 1751.0355, 
			 "electric_dipole_moment_norm": 3.77692765221, 
			 "electric_quadrupole_moment_norm": 12.6676362724, 
			 "total_energy": -444.833568986, 
			 "HOMO_LUMO_gap": 0.20751, 
			 "cosmo_polarized_energy": -5.91, 
			 "cosmo_cavitation_energy": 19.03, 
			 "cosmo_dispersion_energy": -14.01, 
			 "cosmo_repulsion_energy": 1.12, 
			 "cosmo_total_nonelectrostatic_energy": 6.14, 
			 "SMD_solvation_energy": 4.79 
		},
		"coords": [
			{
				"x": 3.4607110026,
				"y": -1.2269507588,
				"z": 1.669959157,
				"element": "F" 
			},
			{
				"x": 3.1204746918,
				"y": -0.1013250757,
				"z": 0.9805514462,
				"element": "C" 
			},
			{
				"x": 3.8885358536,
				"y": 0.8130254315,
				"z": 0.9098467643,
				"element": "O" 
			},
			{
				"x": 1.7687539821,
				"y": -0.1946611508,
				"z": 0.3913864689,
				"element": "C" 
			},
			{
				"x": 0.9697406183,
				"y": -1.3351413601,
				"z": 0.5543618961,
				"element": "C" 
			},
			{
				"x": -0.2987505304,
				"y": -1.3762958104,
				"z": -0.0205041118,
				"element": "C" 
			},
			{
				"x": -0.7698621923,
				"y": -0.2852885403,
				"z": -0.7551982173,
				"element": "C" 
			},
			{
				"x": 0.0265255137,
				"y": 0.8525743231,
				"z": -0.9181383259,
				"element": "C" 
			},
			{
				"x": 1.2944288285,
				"y": 0.9003547577,
				"z": -0.3466503567,
				"element": "C" 
			},
			{
				"x": 1.345908499,
				"y": -2.1752632638,
				"z": 1.1263631008,
				"element": "H" 
			},
			{
				"x": -0.9200805503,
				"y": -2.2579757535,
				"z": 0.1037900845,
				"element": "H" 
			},
			{
				"x": -1.7594053058,
				"y": -0.3212990079,
				"z": -1.2018190987,
				"element": "H" 
			},
			{
				"x": -0.3428011829,
				"y": 1.6985655266,
				"z": -1.489689434,
				"element": "H" 
			},
			{
				"x": 1.931320772,
				"y": 1.7714806825,
				"z": -0.4586593735,
				"element": "H" 
			}
		],
		 "valence_orbital": [ 
			{
				"type": "occ",
				"energy": -0.36404,
				"method": "rhf"
			},
			{
				"type": "occ",
				"energy": -0.36319,
				"method": "rhf"
			},
			{
				"type": "occ",
				"energy": -0.30276,
				"method": "rhf"
			},
			{
				"type": "occ",
				"energy": -0.27507,
				"method": "rhf"
			},
			{
				"type": "occ",
				"energy": -0.27217,
				"method": "rhf"
			},
			{
				"type": "unocc",
				"energy": -0.06466,
				"method": "rhf"
			},
			{
				"type": "unocc",
				"energy": -0.02102,
				"method": "rhf"
			},
			{
				"type": "unocc",
				"energy": 0.04292,
				"method": "rhf"
			},
			{
				"type": "unocc",
				"energy": 0.08129,
				"method": "rhf"
			},
			{
				"type": "unocc",
				"energy": 0.13068,
				"method": "rhf"
			}
		],
		"cosmo_sigma_profile": { 
			"-0.025": 0.0,
			"-0.024": 0.0,
			"-0.023": 0.0,
			"-0.022": 0.0,
			"-0.021": 0.0,
			"-0.02": 0.0,
			"-0.019": 0.0,
			"-0.018": 0.0,
			"-0.017": 0.0,
			"-0.016": 0.0,
			"-0.015": 0.0,
			"-0.014": 0.0,
			"-0.013": 0.0,
			"-0.012": 0.0,
			"-0.011": 0.0,
			"-0.01": 0.0,
			"-0.009": 0.0,
			"-0.008": 0.0884509661535,
			"-0.007": 5.8082270358,
			"-0.006": 10.8526078437,
			"-0.005": 12.7591408156,
			"-0.004": 10.0941799395,
			"-0.003": 10.3497066277,
			"-0.002": 10.6409820821,
			"-0.001": 10.72750155,
			"0.0": 11.4081622055,
			"0.001": 12.1321023993,
			"0.002": 13.6311246672,
			"0.003": 20.5233162463,
			"0.004": 6.82517565904,
			"0.005": 2.04816848262,
			"0.006": 2.34072896713,
			"0.007": 1.69926130597,
			"0.008": 2.4085945475,
			"0.009": 3.49020046074,
			"0.01": 4.73774994809,
			"0.011": 0.998231079051,
			"0.012": 0.0,
			"0.013": 0.0,
			"0.014": 0.0,
			"0.015": 0.0,
			"0.016": 0.0,
			"0.017": 0.0,
			"0.018": 0.0,
			"0.019": 0.0,
			"0.02": 0.0,
			"0.021": 0.0,
			"0.022": 0.0,
			"0.023": 0.0,
			"0.024": 0.0,
			"0.025": 0.0
		}
	}
}
