{
	 "smiles": "CCCCCCCCCCCCCCCCCCCCCCCCCCCCCC(O)=O", 
	 "Tm": 366.75, 
	 "num_atms": 92, 
	 "gaussian": { 
		 "optdone": 1, 
		 "sigma_profile": "yes", 
		 "theory": "DFT", 
		 "functional": "B3LYP", 
		 "basiset": "6-31G**", 
		 "properties": { 
			 "R2extent": 35979.4351, 
			 "electric_dipole_moment_norm": 3.85991530866, 
			 "electric_quadrupole_moment_norm": 54.1477640845, 
			 "total_energy": -1329.89361566, 
			 "HOMO_LUMO_gap": 0.28043, 
			 "cosmo_polarized_energy": -14.37, 
			 "cosmo_cavitation_energy": 87.31, 
			 "cosmo_dispersion_energy": -52.45, 
			 "cosmo_repulsion_energy": 4.13, 
			 "cosmo_total_nonelectrostatic_energy": 38.99, 
			 "SMD_solvation_energy": 11.47 
		},
		"coords": [
			{
				"x": -0.9823029823,
				"y": -2.3033652598,
				"z": -2.4999930556,
				"element": "C" 
			},
			{
				"x": -1.0983917781,
				"y": -3.341035162,
				"z": -3.6229648181,
				"element": "C" 
			},
			{
				"x": -0.3116914881,
				"y": -4.6397447153,
				"z": -3.3704509918,
				"element": "C" 
			},
			{
				"x": 1.2173515962,
				"y": -4.4944244022,
				"z": -3.2697499968,
				"element": "C" 
			},
			{
				"x": 1.8935896126,
				"y": -4.0291542584,
				"z": -4.5702797182,
				"element": "C" 
			},
			{
				"x": 3.4384771917,
				"y": -4.0142458338,
				"z": -4.5414858791,
				"element": "C" 
			},
			{
				"x": 4.1041044522,
				"y": -2.7016657611,
				"z": -4.0891822887,
				"element": "C" 
			},
			{
				"x": 3.8617039076,
				"y": -2.2781372627,
				"z": -2.6335769198,
				"element": "C" 
			},
			{
				"x": 4.6826613299,
				"y": -1.0442195,
				"z": -2.2312190511,
				"element": "C" 
			},
			{
				"x": 4.5343359478,
				"y": -0.6238711091,
				"z": -0.7583935723,
				"element": "C" 
			},
			{
				"x": 3.1237436256,
				"y": -0.1831489549,
				"z": -0.3223855867,
				"element": "C" 
			},
			{
				"x": 2.5327143672,
				"y": 1.0270864687,
				"z": -1.0681681177,
				"element": "C" 
			},
			{
				"x": 3.3341413526,
				"y": 2.3288303704,
				"z": -0.9032480126,
				"element": "C" 
			},
			{
				"x": 2.7177052596,
				"y": 3.5721998315,
				"z": -1.5840311382,
				"element": "C" 
			},
			{
				"x": 1.7849576559,
				"y": 4.4311724441,
				"z": -0.7070703461,
				"element": "C" 
			},
			{
				"x": 0.4577022835,
				"y": 3.8021140217,
				"z": -0.248036824,
				"element": "C" 
			},
			{
				"x": -0.5180612144,
				"y": 3.4780890187,
				"z": -1.3896264595,
				"element": "C" 
			},
			{
				"x": -1.9145861922,
				"y": 3.0292680292,
				"z": -0.9267086457,
				"element": "C" 
			},
			{
				"x": -1.9506527095,
				"y": 1.6771308792,
				"z": -0.2002437402,
				"element": "C" 
			},
			{
				"x": -3.3680315774,
				"y": 1.2384721351,
				"z": 0.1921506012,
				"element": "C" 
			},
			{
				"x": -3.4065552253,
				"y": -0.1155922382,
				"z": 0.9140836591,
				"element": "C" 
			},
			{
				"x": -4.8198192229,
				"y": -0.6285748603,
				"z": 1.2442362638,
				"element": "C" 
			},
			{
				"x": -5.6394808033,
				"y": 0.2310401726,
				"z": 2.2236985577,
				"element": "C" 
			},
			{
				"x": -5.0392160893,
				"y": 0.3274136632,
				"z": 3.6344134076,
				"element": "C" 
			},
			{
				"x": -5.9459152537,
				"y": 1.0273095495,
				"z": 4.6628011809,
				"element": "C" 
			},
			{
				"x": -6.2695124707,
				"y": 2.5063187061,
				"z": 4.376743906,
				"element": "C" 
			},
			{
				"x": -5.0615135495,
				"y": 3.4583687714,
				"z": 4.3011934632,
				"element": "C" 
			},
			{
				"x": -4.1968894786,
				"y": 3.5527174813,
				"z": 5.5711247936,
				"element": "C" 
			},
			{
				"x": -4.9177017684,
				"y": 4.1185052455,
				"z": 6.8011474238,
				"element": "C" 
			},
			{
				"x": -5.2401949622,
				"y": 5.6050891154,
				"z": 6.6870317023,
				"element": "C" 
			},
			{
				"x": -6.0285869207,
				"y": 6.105638013,
				"z": 7.6791150649,
				"element": "O" 
			},
			{
				"x": -4.8337460961,
				"y": 6.3368917638,
				"z": 5.8194292208,
				"element": "O" 
			},
			{
				"x": 0.0451888258,
				"y": -1.9444804752,
				"z": -2.3779324848,
				"element": "H" 
			},
			{
				"x": -1.3002269966,
				"y": -2.7246818411,
				"z": -1.5387714846,
				"element": "H" 
			},
			{
				"x": -1.610698564,
				"y": -1.4299129495,
				"z": -2.7042790425,
				"element": "H" 
			},
			{
				"x": -0.7799875533,
				"y": -2.8897716774,
				"z": -4.5712945546,
				"element": "H" 
			},
			{
				"x": -2.1561750991,
				"y": -3.6011599561,
				"z": -3.7579454665,
				"element": "H" 
			},
			{
				"x": -0.6824809795,
				"y": -5.097227512,
				"z": -2.4426612586,
				"element": "H" 
			},
			{
				"x": -0.5444468552,
				"y": -5.3529810891,
				"z": -4.1734551607,
				"element": "H" 
			},
			{
				"x": 1.4727888678,
				"y": -3.8211516005,
				"z": -2.4438145663,
				"element": "H" 
			},
			{
				"x": 1.6367251013,
				"y": -5.4718070762,
				"z": -2.9944650314,
				"element": "H" 
			},
			{
				"x": 1.5309870789,
				"y": -3.0314746784,
				"z": -4.8527920055,
				"element": "H" 
			},
			{
				"x": 1.564194542,
				"y": -4.7020336091,
				"z": -5.3739527728,
				"element": "H" 
			},
			{
				"x": 3.8051545884,
				"y": -4.2301574066,
				"z": -5.5529979833,
				"element": "H" 
			},
			{
				"x": 3.7983230423,
				"y": -4.8415221463,
				"z": -3.9130135009,
				"element": "H" 
			},
			{
				"x": 5.1876476339,
				"y": -2.7990196622,
				"z": -4.2459238628,
				"element": "H" 
			},
			{
				"x": 3.7784172299,
				"y": -1.8903525035,
				"z": -4.7564043558,
				"element": "H" 
			},
			{
				"x": 2.7951835961,
				"y": -2.0740144457,
				"z": -2.4825317985,
				"element": "H" 
			},
			{
				"x": 4.1119414149,
				"y": -3.1131607944,
				"z": -1.9628296966,
				"element": "H" 
			},
			{
				"x": 5.7442060749,
				"y": -1.2499115902,
				"z": -2.4258813692,
				"element": "H" 
			},
			{
				"x": 4.4189904213,
				"y": -0.2045317225,
				"z": -2.8888621065,
				"element": "H" 
			},
			{
				"x": 5.2477261715,
				"y": 0.1835334708,
				"z": -0.5507993693,
				"element": "H" 
			},
			{
				"x": 4.843706494,
				"y": -1.4633153421,
				"z": -0.1205251286,
				"element": "H" 
			},
			{
				"x": 3.1533452004,
				"y": 0.0466933925,
				"z": 0.7517234075,
				"element": "H" 
			},
			{
				"x": 2.4317276836,
				"y": -1.0288739374,
				"z": -0.4242856089,
				"element": "H" 
			},
			{
				"x": 2.4450065146,
				"y": 0.7993095432,
				"z": -2.1395192399,
				"element": "H" 
			},
			{
				"x": 1.506469511,
				"y": 1.1757092217,
				"z": -0.7135775637,
				"element": "H" 
			},
			{
				"x": 3.4806158763,
				"y": 2.5344727192,
				"z": 0.1673942808,
				"element": "H" 
			},
			{
				"x": 4.3390497971,
				"y": 2.1712573951,
				"z": -1.3135391172,
				"element": "H" 
			},
			{
				"x": 2.1996220196,
				"y": 3.2669144116,
				"z": -2.5030726523,
				"element": "H" 
			},
			{
				"x": 3.5335841122,
				"y": 4.2277079053,
				"z": -1.9137214946,
				"element": "H" 
			},
			{
				"x": 1.5545660991,
				"y": 5.3548141332,
				"z": -1.2565789339,
				"element": "H" 
			},
			{
				"x": 2.347961462,
				"y": 4.7453097122,
				"z": 0.182675429,
				"element": "H" 
			},
			{
				"x": -0.0328045937,
				"y": 4.508027889,
				"z": 0.4370178139,
				"element": "H" 
			},
			{
				"x": 0.658910265,
				"y": 2.9035726358,
				"z": 0.3476514238,
				"element": "H" 
			},
			{
				"x": -0.0914144664,
				"y": 2.7041348185,
				"z": -2.04162442,
				"element": "H" 
			},
			{
				"x": -0.6279724866,
				"y": 4.3736750631,
				"z": -2.0168811165,
				"element": "H" 
			},
			{
				"x": -2.3441998272,
				"y": 3.8026690871,
				"z": -0.2736602041,
				"element": "H" 
			},
			{
				"x": -2.5752363508,
				"y": 2.9737278044,
				"z": -1.8027861472,
				"element": "H" 
			},
			{
				"x": -1.4988556984,
				"y": 0.9085423247,
				"z": -0.8444542266,
				"element": "H" 
			},
			{
				"x": -1.3280286315,
				"y": 1.7198976152,
				"z": 0.7033417274,
				"element": "H" 
			},
			{
				"x": -3.9948295148,
				"y": 1.1853339565,
				"z": -0.7100585952,
				"element": "H" 
			},
			{
				"x": -3.817241462,
				"y": 2.0153720508,
				"z": 0.8256337844,
				"element": "H" 
			},
			{
				"x": -2.9082440283,
				"y": -0.8641965276,
				"z": 0.2830782521,
				"element": "H" 
			},
			{
				"x": -2.8059585767,
				"y": -0.0548921854,
				"z": 1.8317240049,
				"element": "H" 
			},
			{
				"x": -4.7372375016,
				"y": -1.6444927379,
				"z": 1.6546873232,
				"element": "H" 
			},
			{
				"x": -5.3845477165,
				"y": -0.7266313579,
				"z": 0.3069457949,
				"element": "H" 
			},
			{
				"x": -6.6472515112,
				"y": -0.2006001827,
				"z": 2.3004451569,
				"element": "H" 
			},
			{
				"x": -5.7774891826,
				"y": 1.235563469,
				"z": 1.8051482733,
				"element": "H" 
			},
			{
				"x": -4.8284782024,
				"y": -0.6885213703,
				"z": 3.9965166887,
				"element": "H" 
			},
			{
				"x": -4.0673594227,
				"y": 0.8351741114,
				"z": 3.593441151,
				"element": "H" 
			},
			{
				"x": -6.8933716822,
				"y": 0.4749637351,
				"z": 4.729120791,
				"element": "H" 
			},
			{
				"x": -5.4829717983,
				"y": 0.9396626635,
				"z": 5.6547753275,
				"element": "H" 
			},
			{
				"x": -6.9712231078,
				"y": 2.8596709965,
				"z": 5.1446641423,
				"element": "H" 
			},
			{
				"x": -6.8214278927,
				"y": 2.5814975019,
				"z": 3.4317777451,
				"element": "H" 
			},
			{
				"x": -4.4106248806,
				"y": 3.1527674567,
				"z": 3.4726034669,
				"element": "H" 
			},
			{
				"x": -5.4148811871,
				"y": 4.4634561974,
				"z": 4.0470317721,
				"element": "H" 
			},
			{
				"x": -3.7971329961,
				"y": 2.5655897018,
				"z": 5.8306313639,
				"element": "H" 
			},
			{
				"x": -3.3362239768,
				"y": 4.1956924419,
				"z": 5.3604036793,
				"element": "H" 
			},
			{
				"x": -5.8455605635,
				"y": 3.5686467907,
				"z": 7.0080415969,
				"element": "H" 
			},
			{
				"x": -4.2903593961,
				"y": 3.9953119895,
				"z": 7.6955025618,
				"element": "H" 
			},
			{
				"x": -6.2733357211,
				"y": 5.4015278097,
				"z": 8.2962612787,
				"element": "H" 
			}
		],
		 "valence_orbital": [ 
			{
				"type": "occ",
				"energy": -0.29661,
				"method": "rhf"
			},
			{
				"type": "occ",
				"energy": -0.2958,
				"method": "rhf"
			},
			{
				"type": "occ",
				"energy": -0.29325,
				"method": "rhf"
			},
			{
				"type": "occ",
				"energy": -0.2895,
				"method": "rhf"
			},
			{
				"type": "occ",
				"energy": -0.26957,
				"method": "rhf"
			},
			{
				"type": "unocc",
				"energy": 0.01086,
				"method": "rhf"
			},
			{
				"type": "unocc",
				"energy": 0.05164,
				"method": "rhf"
			},
			{
				"type": "unocc",
				"energy": 0.0561,
				"method": "rhf"
			},
			{
				"type": "unocc",
				"energy": 0.06627,
				"method": "rhf"
			},
			{
				"type": "unocc",
				"energy": 0.08064,
				"method": "rhf"
			}
		],
		"cosmo_sigma_profile": { 
			"-0.025": 0.0,
			"-0.024": 0.0,
			"-0.023": 0.0,
			"-0.022": 0.0,
			"-0.021": 0.0,
			"-0.02": 0.0,
			"-0.019": 0.185271800899,
			"-0.018": 0.90618808767,
			"-0.017": 1.45302953494,
			"-0.016": 0.728763139579,
			"-0.015": 1.2663072893,
			"-0.014": 1.09105839764,
			"-0.013": 1.55850789081,
			"-0.012": 0.82781078977,
			"-0.011": 0.755664298412,
			"-0.01": 1.15613839182,
			"-0.009": 1.46143131416,
			"-0.008": 1.70932914489,
			"-0.007": 2.74820713026,
			"-0.006": 3.83578020741,
			"-0.005": 4.15773754009,
			"-0.004": 5.06386049207,
			"-0.003": 9.57683327386,
			"-0.002": 67.8835846427,
			"-0.001": 154.479785762,
			"0.0": 175.527274151,
			"0.001": 139.358188274,
			"0.002": 54.6597625265,
			"0.003": 3.03838903226,
			"0.004": 2.08750813024,
			"0.005": 2.52901574288,
			"0.006": 2.59687955958,
			"0.007": 2.78423498835,
			"0.008": 2.52008248593,
			"0.009": 3.01358667936,
			"0.01": 4.2802355852,
			"0.011": 5.3163369121,
			"0.012": 5.03939493538,
			"0.013": 2.86445931177,
			"0.014": 0.260813721226,
			"0.015": 0.0,
			"0.016": 0.0,
			"0.017": 0.0,
			"0.018": 0.0,
			"0.019": 0.0,
			"0.02": 0.0,
			"0.021": 0.0,
			"0.022": 0.0,
			"0.023": 0.0,
			"0.024": 0.0,
			"0.025": 0.0
		}
	}
}
