{
	 "smiles": "FC(F)(F)CCCl", 
	 "Tm": 167.15, 
	 "num_atms": 11, 
	 "gaussian": { 
		 "optdone": 1, 
		 "sigma_profile": "yes", 
		 "theory": "DFT", 
		 "functional": "B3LYP", 
		 "basiset": "6-31G**", 
		 "properties": { 
			 "R2extent": 2110.0398, 
			 "electric_dipole_moment_norm": 2.74350678148, 
			 "electric_quadrupole_moment_norm": 7.11214566077, 
			 "total_energy": -876.457121889, 
			 "HOMO_LUMO_gap": 0.31767, 
			 "cosmo_polarized_energy": -6.17, 
			 "cosmo_cavitation_energy": 17.51, 
			 "cosmo_dispersion_energy": -12.75, 
			 "cosmo_repulsion_energy": 1.04, 
			 "cosmo_total_nonelectrostatic_energy": 5.8, 
			 "SMD_solvation_energy": 3.9 
		},
		"coords": [
			{
				"x": 1.504064813,
				"y": -1.2829151604,
				"z": 2.3881792619,
				"element": "F" 
			},
			{
				"x": 0.4231202318,
				"y": -0.7972545363,
				"z": 1.7329165416,
				"element": "C" 
			},
			{
				"x": 0.5335230128,
				"y": 0.5494917145,
				"z": 1.71299168,
				"element": "F" 
			},
			{
				"x": -0.6633697672,
				"y": -1.1033092733,
				"z": 2.4633724749,
				"element": "F" 
			},
			{
				"x": 0.3563792732,
				"y": -1.3358913219,
				"z": 0.3163596666,
				"element": "C" 
			},
			{
				"x": 0.4307847767,
				"y": -2.854126546,
				"z": 0.2016156569,
				"element": "C" 
			},
			{
				"x": -1.0986689602,
				"y": -3.6905979957,
				"z": 0.6970403948,
				"element": "Cl" 
			},
			{
				"x": 1.217857685,
				"y": -0.9142149415,
				"z": -0.2134440879,
				"element": "H" 
			},
			{
				"x": -0.5481171938,
				"y": -0.9472777664,
				"z": -0.1582644447,
				"element": "H" 
			},
			{
				"x": 0.6105153656,
				"y": -3.1412787688,
				"z": -0.8344432826,
				"element": "H" 
			},
			{
				"x": 1.228210763,
				"y": -3.2562254041,
				"z": 0.8271761384,
				"element": "H" 
			}
		],
		 "valence_orbital": [ 
			{
				"type": "occ",
				"energy": -0.40144,
				"method": "rhf"
			},
			{
				"type": "occ",
				"energy": -0.39087,
				"method": "rhf"
			},
			{
				"type": "occ",
				"energy": -0.37717,
				"method": "rhf"
			},
			{
				"type": "occ",
				"energy": -0.30558,
				"method": "rhf"
			},
			{
				"type": "occ",
				"energy": -0.30207,
				"method": "rhf"
			},
			{
				"type": "unocc",
				"energy": 0.0156,
				"method": "rhf"
			},
			{
				"type": "unocc",
				"energy": 0.07685,
				"method": "rhf"
			},
			{
				"type": "unocc",
				"energy": 0.11617,
				"method": "rhf"
			},
			{
				"type": "unocc",
				"energy": 0.12027,
				"method": "rhf"
			},
			{
				"type": "unocc",
				"energy": 0.13516,
				"method": "rhf"
			}
		],
		"cosmo_sigma_profile": { 
			"-0.025": 0.0,
			"-0.024": 0.0,
			"-0.023": 0.0,
			"-0.022": 0.0,
			"-0.021": 0.0,
			"-0.02": 0.0,
			"-0.019": 0.0,
			"-0.018": 0.0,
			"-0.017": 0.0,
			"-0.016": 0.0,
			"-0.015": 0.0,
			"-0.014": 0.0,
			"-0.013": 0.0,
			"-0.012": 0.0,
			"-0.011": 0.0,
			"-0.01": 0.0,
			"-0.009": 0.617963612154,
			"-0.008": 7.8584762645,
			"-0.007": 9.07088975632,
			"-0.006": 9.18892147785,
			"-0.005": 7.93106888694,
			"-0.004": 6.10719484171,
			"-0.003": 4.82042712618,
			"-0.002": 3.23580107104,
			"-0.001": 5.03007825771,
			"0.0": 6.12093084276,
			"0.001": 7.76708787307,
			"0.002": 13.1839317205,
			"0.003": 31.9242695523,
			"0.004": 8.80674986733,
			"0.005": 6.34403476114,
			"0.006": 10.9853690355,
			"0.007": 1.87758176697,
			"0.008": 0.0,
			"0.009": 0.0,
			"0.01": 0.0,
			"0.011": 0.0,
			"0.012": 0.0,
			"0.013": 0.0,
			"0.014": 0.0,
			"0.015": 0.0,
			"0.016": 0.0,
			"0.017": 0.0,
			"0.018": 0.0,
			"0.019": 0.0,
			"0.02": 0.0,
			"0.021": 0.0,
			"0.022": 0.0,
			"0.023": 0.0,
			"0.024": 0.0,
			"0.025": 0.0
		}
	}
}
