{
	 "smiles": "CN1C=NN=C1C1=C(N)C=CC=C1", 
	 "Tm": 407.15, 
	 "num_atms": 23, 
	 "gaussian": { 
		 "optdone": 1, 
		 "sigma_profile": "yes", 
		 "theory": "DFT", 
		 "functional": "B3LYP", 
		 "basiset": "6-31G**", 
		 "properties": { 
			 "R2extent": 2372.2995, 
			 "electric_dipole_moment_norm": 5.66678574679, 
			 "electric_quadrupole_moment_norm": 12.994402361, 
			 "total_energy": -567.971943008, 
			 "HOMO_LUMO_gap": 0.19645, 
			 "cosmo_polarized_energy": -20.05, 
			 "cosmo_cavitation_energy": 26.63, 
			 "cosmo_dispersion_energy": -19.27, 
			 "cosmo_repulsion_energy": 1.51, 
			 "cosmo_total_nonelectrostatic_energy": 8.88, 
			 "SMD_solvation_energy": 3.33 
		},
		"coords": [
			{
				"x": -1.3403822358,
				"y": 0.0559503996,
				"z": 2.0973696083,
				"element": "C" 
			},
			{
				"x": -1.2360023229,
				"y": -0.6845975951,
				"z": 0.8457692065,
				"element": "N" 
			},
			{
				"x": -1.8681779912,
				"y": -1.8521342747,
				"z": 0.5180070177,
				"element": "C" 
			},
			{
				"x": -1.6355105882,
				"y": -2.1843686149,
				"z": -0.7284611191,
				"element": "N" 
			},
			{
				"x": -0.8249665928,
				"y": -1.205680886,
				"z": -1.2624300306,
				"element": "N" 
			},
			{
				"x": -0.5917194039,
				"y": -0.3123124159,
				"z": -0.317408854,
				"element": "C" 
			},
			{
				"x": 0.1854446712,
				"y": 0.9314854088,
				"z": -0.4838226344,
				"element": "C" 
			},
			{
				"x": 1.339396974,
				"y": 1.1956904748,
				"z": 0.2904884359,
				"element": "C" 
			},
			{
				"x": 1.7722097721,
				"y": 0.2821384525,
				"z": 1.2636325791,
				"element": "N" 
			},
			{
				"x": 2.0245499035,
				"y": 2.4053531634,
				"z": 0.0966546061,
				"element": "C" 
			},
			{
				"x": 1.599760442,
				"y": 3.3190180286,
				"z": -0.8637350043,
				"element": "C" 
			},
			{
				"x": 0.4872189007,
				"y": 3.0424178552,
				"z": -1.6616571805,
				"element": "C" 
			},
			{
				"x": -0.20721671,
				"y": 1.851266635,
				"z": -1.4662194154,
				"element": "C" 
			},
			{
				"x": -0.3482235644,
				"y": 0.206224979,
				"z": 2.5289605993,
				"element": "H" 
			},
			{
				"x": -1.8070709087,
				"y": 1.0294507278,
				"z": 1.9241465982,
				"element": "H" 
			},
			{
				"x": -1.961152766,
				"y": -0.5158669887,
				"z": 2.7891931363,
				"element": "H" 
			},
			{
				"x": -2.4729411122,
				"y": -2.4090986563,
				"z": 1.220566902,
				"element": "H" 
			},
			{
				"x": 1.6056353755,
				"y": -0.6869104045,
				"z": 1.0179676387,
				"element": "H" 
			},
			{
				"x": 2.7335595934,
				"y": 0.418890904,
				"z": 1.548855046,
				"element": "H" 
			},
			{
				"x": 2.9070942427,
				"y": 2.6157052705,
				"z": 0.6962360595,
				"element": "H" 
			},
			{
				"x": 2.1513500038,
				"y": 4.2453394999,
				"z": -0.9976818618,
				"element": "H" 
			},
			{
				"x": 0.1640544326,
				"y": 3.7455297982,
				"z": -2.4223964226,
				"element": "H" 
			},
			{
				"x": -1.0741101153,
				"y": 1.6112082385,
				"z": -2.0735349109,
				"element": "H" 
			}
		],
		 "valence_orbital": [ 
			{
				"type": "occ",
				"energy": -0.28137,
				"method": "rhf"
			},
			{
				"type": "occ",
				"energy": -0.26913,
				"method": "rhf"
			},
			{
				"type": "occ",
				"energy": -0.24301,
				"method": "rhf"
			},
			{
				"type": "occ",
				"energy": -0.24068,
				"method": "rhf"
			},
			{
				"type": "occ",
				"energy": -0.21418,
				"method": "rhf"
			},
			{
				"type": "unocc",
				"energy": -0.01773,
				"method": "rhf"
			},
			{
				"type": "unocc",
				"energy": 0.00483,
				"method": "rhf"
			},
			{
				"type": "unocc",
				"energy": 0.02992,
				"method": "rhf"
			},
			{
				"type": "unocc",
				"energy": 0.05115,
				"method": "rhf"
			},
			{
				"type": "unocc",
				"energy": 0.07695,
				"method": "rhf"
			}
		],
		"cosmo_sigma_profile": { 
			"-0.025": 0.0,
			"-0.024": 0.0,
			"-0.023": 0.0,
			"-0.022": 0.0,
			"-0.021": 0.0,
			"-0.02": 0.0,
			"-0.019": 0.0,
			"-0.018": 0.0,
			"-0.017": 0.0,
			"-0.016": 0.0,
			"-0.015": 0.0,
			"-0.014": 0.0,
			"-0.013": 0.861021433342,
			"-0.012": 2.37024726628,
			"-0.011": 2.9526006753,
			"-0.01": 5.51150381164,
			"-0.009": 5.82400173183,
			"-0.008": 5.43276932941,
			"-0.007": 6.52361393574,
			"-0.006": 10.8029071404,
			"-0.005": 14.9294580575,
			"-0.004": 17.2058042182,
			"-0.003": 19.0457875768,
			"-0.002": 13.0003005416,
			"-0.001": 12.1826880348,
			"0.0": 7.79465225126,
			"0.001": 8.57019339463,
			"0.002": 9.30990049288,
			"0.003": 8.78885145184,
			"0.004": 11.4805314215,
			"0.005": 11.5171737061,
			"0.006": 8.46434106468,
			"0.007": 3.37032930315,
			"0.008": 2.8500231866,
			"0.009": 2.06480947591,
			"0.01": 1.79572523757,
			"0.011": 2.8257813765,
			"0.012": 2.67294645961,
			"0.013": 2.53840453854,
			"0.014": 3.54209139671,
			"0.015": 3.16900099636,
			"0.016": 2.56893086793,
			"0.017": 2.20243440388,
			"0.018": 0.407294413532,
			"0.019": 0.0,
			"0.02": 0.0,
			"0.021": 0.0,
			"0.022": 0.0,
			"0.023": 0.0,
			"0.024": 0.0,
			"0.025": 0.0
		}
	}
}
