{
	 "smiles": "CC(=O)C1=C(C)N=C(CC2=CC=CC=C2)S1", 
	 "Tm": 327.15, 
	 "num_atms": 29, 
	 "gaussian": { 
		 "optdone": 1, 
		 "sigma_profile": "yes", 
		 "theory": "DFT", 
		 "functional": "B3LYP", 
		 "basiset": "6-31G**", 
		 "properties": { 
			 "R2extent": 5868.0867, 
			 "electric_dipole_moment_norm": 2.49576861708, 
			 "electric_quadrupole_moment_norm": 23.0023816269, 
			 "total_energy": -1031.38893787, 
			 "HOMO_LUMO_gap": 0.17578, 
			 "cosmo_polarized_energy": -11.82, 
			 "cosmo_cavitation_energy": 34.61, 
			 "cosmo_dispersion_energy": -24.78, 
			 "cosmo_repulsion_energy": 1.9, 
			 "cosmo_total_nonelectrostatic_energy": 11.72, 
			 "SMD_solvation_energy": 4.79 
		},
		"coords": [
			{
				"x": -1.9344132862,
				"y": -2.206788587,
				"z": -4.3013670977,
				"element": "C" 
			},
			{
				"x": -2.1931257877,
				"y": -2.323729555,
				"z": -2.8102373813,
				"element": "C" 
			},
			{
				"x": -2.4027641877,
				"y": -3.4169363356,
				"z": -2.297059004,
				"element": "O" 
			},
			{
				"x": -2.1907602872,
				"y": -1.1109366908,
				"z": -1.9723378702,
				"element": "C" 
			},
			{
				"x": -2.0040388584,
				"y": 0.237010982,
				"z": -2.2381976537,
				"element": "C" 
			},
			{
				"x": -1.7207856485,
				"y": 0.8928570741,
				"z": -3.5627174981,
				"element": "C" 
			},
			{
				"x": -2.0990428981,
				"y": 1.0611995555,
				"z": -1.141289328,
				"element": "N" 
			},
			{
				"x": -2.3487999333,
				"y": 0.3869923584,
				"z": -0.0446063518,
				"element": "C" 
			},
			{
				"x": -2.4542424191,
				"y": 1.0392249342,
				"z": 1.309337191,
				"element": "C" 
			},
			{
				"x": -1.1189980742,
				"y": 1.1203362104,
				"z": 2.0397382283,
				"element": "C" 
			},
			{
				"x": -0.9358398679,
				"y": 0.4746486708,
				"z": 3.2669187118,
				"element": "C" 
			},
			{
				"x": 0.2850303766,
				"y": 0.5594321895,
				"z": 3.9405245745,
				"element": "C" 
			},
			{
				"x": 1.3374683581,
				"y": 1.2908694161,
				"z": 3.3903729592,
				"element": "C" 
			},
			{
				"x": 1.1630753687,
				"y": 1.9366648228,
				"z": 2.16336633,
				"element": "C" 
			},
			{
				"x": -0.0558757407,
				"y": 1.8516532443,
				"z": 1.4921565289,
				"element": "C" 
			},
			{
				"x": -2.4947549467,
				"y": -1.3322671919,
				"z": -0.2629629496,
				"element": "S" 
			},
			{
				"x": -2.6808817466,
				"y": -1.5680901054,
				"z": -4.7846092592,
				"element": "H" 
			},
			{
				"x": -0.951173751,
				"y": -1.7676084561,
				"z": -4.4992172979,
				"element": "H" 
			},
			{
				"x": -1.9784295119,
				"y": -3.2071519858,
				"z": -4.7332838493,
				"element": "H" 
			},
			{
				"x": -2.5257262771,
				"y": 0.7249965735,
				"z": -4.2855215403,
				"element": "H" 
			},
			{
				"x": -1.6234631539,
				"y": 1.9673203718,
				"z": -3.4010352666,
				"element": "H" 
			},
			{
				"x": -0.7933318777,
				"y": 0.5259081599,
				"z": -4.0136008561,
				"element": "H" 
			},
			{
				"x": -2.8502752275,
				"y": 2.0466745097,
				"z": 1.1422918237,
				"element": "H" 
			},
			{
				"x": -3.1780397875,
				"y": 0.4996485437,
				"z": 1.9276927088,
				"element": "H" 
			},
			{
				"x": -1.7530434074,
				"y": -0.0962322256,
				"z": 3.7011530547,
				"element": "H" 
			},
			{
				"x": 0.4112535825,
				"y": 0.0530288843,
				"z": 4.8932810591,
				"element": "H" 
			},
			{
				"x": 2.2874967282,
				"y": 1.3581436056,
				"z": 3.9126115664,
				"element": "H" 
			},
			{
				"x": 1.9786227739,
				"y": 2.5080038565,
				"z": 1.7288224481,
				"element": "H" 
			},
			{
				"x": -0.1896405116,
				"y": 2.34572717,
				"z": 0.5337760191,
				"element": "H" 
			}
		],
		 "valence_orbital": [ 
			{
				"type": "occ",
				"energy": -0.2818,
				"method": "rhf"
			},
			{
				"type": "occ",
				"energy": -0.25171,
				"method": "rhf"
			},
			{
				"type": "occ",
				"energy": -0.25129,
				"method": "rhf"
			},
			{
				"type": "occ",
				"energy": -0.24729,
				"method": "rhf"
			},
			{
				"type": "occ",
				"energy": -0.24015,
				"method": "rhf"
			},
			{
				"type": "unocc",
				"energy": -0.06437,
				"method": "rhf"
			},
			{
				"type": "unocc",
				"energy": -0.00831,
				"method": "rhf"
			},
			{
				"type": "unocc",
				"energy": -0.00332,
				"method": "rhf"
			},
			{
				"type": "unocc",
				"energy": 0.01416,
				"method": "rhf"
			},
			{
				"type": "unocc",
				"energy": 0.02077,
				"method": "rhf"
			}
		],
		"cosmo_sigma_profile": { 
			"-0.025": 0.0,
			"-0.024": 0.0,
			"-0.023": 0.0,
			"-0.022": 0.0,
			"-0.021": 0.0,
			"-0.02": 0.0,
			"-0.019": 0.0,
			"-0.018": 0.0,
			"-0.017": 0.0,
			"-0.016": 0.0,
			"-0.015": 0.0,
			"-0.014": 0.0,
			"-0.013": 0.0,
			"-0.012": 0.0,
			"-0.011": 0.0,
			"-0.01": 0.0,
			"-0.009": 0.0,
			"-0.008": 0.174423079099,
			"-0.007": 7.42104498408,
			"-0.006": 16.8142750678,
			"-0.005": 20.614854536,
			"-0.004": 25.1537831799,
			"-0.003": 24.993035661,
			"-0.002": 24.6527482965,
			"-0.001": 24.4936278521,
			"0.0": 20.4489262618,
			"0.001": 19.3983303573,
			"0.002": 19.5966956612,
			"0.003": 17.0537133316,
			"0.004": 13.1198521043,
			"0.005": 11.8587760287,
			"0.006": 10.4969071971,
			"0.007": 2.46448423601,
			"0.008": 2.15528432009,
			"0.009": 3.12575271221,
			"0.01": 2.20848232887,
			"0.011": 3.76942284949,
			"0.012": 4.89519811343,
			"0.013": 2.33466161875,
			"0.014": 0.443113205646,
			"0.015": 0.0,
			"0.016": 0.0,
			"0.017": 0.0,
			"0.018": 0.0,
			"0.019": 0.0,
			"0.02": 0.0,
			"0.021": 0.0,
			"0.022": 0.0,
			"0.023": 0.0,
			"0.024": 0.0,
			"0.025": 0.0
		}
	}
}
