{
	 "smiles": "OCC1=CC=C(C=C1)C1=CC=NC=C1", 
	 "Tm": 447.15, 
	 "num_atms": 25, 
	 "gaussian": { 
		 "optdone": 1, 
		 "sigma_profile": "yes", 
		 "theory": "DFT", 
		 "functional": "B3LYP", 
		 "basiset": "6-31G**", 
		 "properties": { 
			 "R2extent": 3950.5644, 
			 "electric_dipole_moment_norm": 2.26676224602, 
			 "electric_quadrupole_moment_norm": 18.1926738634, 
			 "total_energy": -593.873219075, 
			 "HOMO_LUMO_gap": 0.19225, 
			 "cosmo_polarized_energy": -11.56, 
			 "cosmo_cavitation_energy": 28.98, 
			 "cosmo_dispersion_energy": -21.31, 
			 "cosmo_repulsion_energy": 1.66, 
			 "cosmo_total_nonelectrostatic_energy": 9.33, 
			 "SMD_solvation_energy": 3.39 
		},
		"coords": [
			{
				"x": -1.0057978784,
				"y": 4.2044727538,
				"z": -2.0751975229,
				"element": "O" 
			},
			{
				"x": -1.8460542926,
				"y": 3.0798767999,
				"z": -1.8635649383,
				"element": "C" 
			},
			{
				"x": -1.2368063754,
				"y": 2.0213117538,
				"z": -0.9640857357,
				"element": "C" 
			},
			{
				"x": -2.0466154837,
				"y": 1.1848244599,
				"z": -0.1871576648,
				"element": "C" 
			},
			{
				"x": -1.4878482039,
				"y": 0.1892933691,
				"z": 0.6106482087,
				"element": "C" 
			},
			{
				"x": -0.0960062573,
				"y": 0.0068363447,
				"z": 0.6667596199,
				"element": "C" 
			},
			{
				"x": 0.7124008857,
				"y": 0.8554980268,
				"z": -0.1079336895,
				"element": "C" 
			},
			{
				"x": 0.1509517876,
				"y": 1.8438261688,
				"z": -0.9124847469,
				"element": "C" 
			},
			{
				"x": 0.5015044271,
				"y": -1.0469125253,
				"z": 1.5224681676,
				"element": "C" 
			},
			{
				"x": 1.7191375802,
				"y": -0.8517687674,
				"z": 2.1928671207,
				"element": "C" 
			},
			{
				"x": 2.2379198344,
				"y": -1.8751406117,
				"z": 2.9839491756,
				"element": "C" 
			},
			{
				"x": 1.6436556229,
				"y": -3.0626205858,
				"z": 3.1586391804,
				"element": "N" 
			},
			{
				"x": 0.4814477519,
				"y": -3.2476562371,
				"z": 2.5191965916,
				"element": "C" 
			},
			{
				"x": -0.1212982574,
				"y": -2.2917134752,
				"z": 1.7037099803,
				"element": "C" 
			},
			{
				"x": -0.8202650118,
				"y": 4.5957520025,
				"z": -1.2109391602,
				"element": "H" 
			},
			{
				"x": -2.8305859079,
				"y": 3.3765026643,
				"z": -1.4681635558,
				"element": "H" 
			},
			{
				"x": -2.0221413214,
				"y": 2.6635262582,
				"z": -2.8630065007,
				"element": "H" 
			},
			{
				"x": -3.1259428952,
				"y": 1.3193281274,
				"z": -0.1971718217,
				"element": "H" 
			},
			{
				"x": -2.1347560097,
				"y": -0.4303048647,
				"z": 1.2246021347,
				"element": "H" 
			},
			{
				"x": 1.7900751844,
				"y": 0.7207487469,
				"z": -0.1013046871,
				"element": "H" 
			},
			{
				"x": 0.7851754746,
				"y": 2.4888178573,
				"z": -1.5127041913,
				"element": "H" 
			},
			{
				"x": 2.245433434,
				"y": 0.094748726,
				"z": 2.1204953593,
				"element": "H" 
			},
			{
				"x": 3.1795786476,
				"y": -1.7289933133,
				"z": 3.5109177602,
				"element": "H" 
			},
			{
				"x": 0.0065588206,
				"y": -4.2173605711,
				"z": 2.6603552169,
				"element": "H" 
			},
			{
				"x": -1.0519215561,
				"y": -2.5241931079,
				"z": 1.1957056991,
				"element": "H" 
			}
		],
		 "valence_orbital": [ 
			{
				"type": "occ",
				"energy": -0.28134,
				"method": "rhf"
			},
			{
				"type": "occ",
				"energy": -0.26204,
				"method": "rhf"
			},
			{
				"type": "occ",
				"energy": -0.26061,
				"method": "rhf"
			},
			{
				"type": "occ",
				"energy": -0.25223,
				"method": "rhf"
			},
			{
				"type": "occ",
				"energy": -0.23828,
				"method": "rhf"
			},
			{
				"type": "unocc",
				"energy": -0.04603,
				"method": "rhf"
			},
			{
				"type": "unocc",
				"energy": -0.0145,
				"method": "rhf"
			},
			{
				"type": "unocc",
				"energy": -0.00903,
				"method": "rhf"
			},
			{
				"type": "unocc",
				"energy": 0.01435,
				"method": "rhf"
			},
			{
				"type": "unocc",
				"energy": 0.07991,
				"method": "rhf"
			}
		],
		"cosmo_sigma_profile": { 
			"-0.025": 0.0,
			"-0.024": 0.0,
			"-0.023": 0.0,
			"-0.022": 0.0,
			"-0.021": 0.0,
			"-0.02": 0.0,
			"-0.019": 0.0,
			"-0.018": 0.0,
			"-0.017": 0.0,
			"-0.016": 0.211943860422,
			"-0.015": 0.764124463256,
			"-0.014": 1.02536909844,
			"-0.013": 1.14212781615,
			"-0.012": 0.628772675128,
			"-0.011": 0.694351106648,
			"-0.01": 0.708675113105,
			"-0.009": 1.00048338082,
			"-0.008": 0.698791950238,
			"-0.007": 2.76185210877,
			"-0.006": 16.8288134271,
			"-0.005": 21.6127978039,
			"-0.004": 20.5337183154,
			"-0.003": 16.7242068789,
			"-0.002": 14.428284056,
			"-0.001": 12.9053109635,
			"0.0": 14.0339840521,
			"0.001": 16.3388553036,
			"0.002": 20.3982887669,
			"0.003": 20.0936410643,
			"0.004": 11.2332592885,
			"0.005": 12.2653493164,
			"0.006": 2.34947799264,
			"0.007": 2.64714416651,
			"0.008": 2.23580190715,
			"0.009": 3.23580802466,
			"0.01": 1.81950067172,
			"0.011": 1.88081477844,
			"0.012": 2.6859725366,
			"0.013": 2.33879641681,
			"0.014": 2.78672681822,
			"0.015": 0.684825465215,
			"0.016": 0.995427305987,
			"0.017": 0.590507346884,
			"0.018": 0.0230469855805,
			"0.019": 0.0,
			"0.02": 0.0,
			"0.021": 0.0,
			"0.022": 0.0,
			"0.023": 0.0,
			"0.024": 0.0,
			"0.025": 0.0
		}
	}
}
