{
	 "smiles": "OC(=O)CCNS(=O)(=O)C1=CC=C(Br)C=C1", 
	 "Tm": 435.15, 
	 "num_atms": 26, 
	 "gaussian": { 
		 "optdone": 1, 
		 "sigma_profile": "yes", 
		 "theory": "DFT", 
		 "functional": "B3LYP", 
		 "basiset": "6-31G**", 
		 "properties": { 
			 "R2extent": 8521.2594, 
			 "electric_dipole_moment_norm": 3.84043374373, 
			 "electric_quadrupole_moment_norm": 15.108454187, 
			 "total_energy": -3674.16732321, 
			 "HOMO_LUMO_gap": 0.20895, 
			 "cosmo_polarized_energy": -20.61, 
			 "cosmo_cavitation_energy": 34.61, 
			 "cosmo_dispersion_energy": -25.31, 
			 "cosmo_repulsion_energy": 1.97, 
			 "cosmo_total_nonelectrostatic_energy": 11.27, 
			 "SMD_solvation_energy": 4.46 
		},
		"coords": [
			{
				"x": -0.265148019,
				"y": -1.8397715398,
				"z": -2.152824515,
				"element": "O" 
			},
			{
				"x": -1.2526832934,
				"y": -1.2774554169,
				"z": -2.9062014214,
				"element": "C" 
			},
			{
				"x": -1.8880204919,
				"y": -1.9173725302,
				"z": -3.7096112052,
				"element": "O" 
			},
			{
				"x": -1.4215975424,
				"y": 0.2050827249,
				"z": -2.6384181941,
				"element": "C" 
			},
			{
				"x": -1.0935826276,
				"y": 0.6881781798,
				"z": -1.2201464499,
				"element": "C" 
			},
			{
				"x": 0.3521087882,
				"y": 0.6725387508,
				"z": -0.9803909466,
				"element": "N" 
			},
			{
				"x": 0.9908355917,
				"y": 1.5554705801,
				"z": 0.2920121461,
				"element": "S" 
			},
			{
				"x": 2.4349009496,
				"y": 1.332432342,
				"z": 0.2296714422,
				"element": "O" 
			},
			{
				"x": 0.384416979,
				"y": 2.8857603401,
				"z": 0.2193901943,
				"element": "O" 
			},
			{
				"x": 0.4009874506,
				"y": 0.7914053799,
				"z": 1.811613371,
				"element": "C" 
			},
			{
				"x": -0.7863411908,
				"y": 1.2391738912,
				"z": 2.3952259426,
				"element": "C" 
			},
			{
				"x": -1.257661766,
				"y": 0.6246908551,
				"z": 3.5552667483,
				"element": "C" 
			},
			{
				"x": -0.5292283833,
				"y": -0.4259980677,
				"z": 4.1133998008,
				"element": "C" 
			},
			{
				"x": -1.1721462332,
				"y": -1.2686876309,
				"z": 5.6984817427,
				"element": "Br" 
			},
			{
				"x": 0.6655259274,
				"y": -0.8676890869,
				"z": 3.5420432153,
				"element": "C" 
			},
			{
				"x": 1.1333510004,
				"y": -0.2528249967,
				"z": 2.3822650042,
				"element": "C" 
			},
			{
				"x": -0.219306871,
				"y": -2.7749539253,
				"z": -2.415352856,
				"element": "H" 
			},
			{
				"x": -0.7846550003,
				"y": 0.7404470621,
				"z": -3.3535697268,
				"element": "H" 
			},
			{
				"x": -2.4578131677,
				"y": 0.4462334835,
				"z": -2.8885759249,
				"element": "H" 
			},
			{
				"x": -1.4195748659,
				"y": 1.7263188325,
				"z": -1.1259429597,
				"element": "H" 
			},
			{
				"x": -1.6464464179,
				"y": 0.0913308268,
				"z": -0.4795530019,
				"element": "H" 
			},
			{
				"x": 0.7775257988,
				"y": -0.2482191424,
				"z": -1.0500054056,
				"element": "H" 
			},
			{
				"x": -1.3194006448,
				"y": 2.0772715626,
				"z": 1.9598125644,
				"element": "H" 
			},
			{
				"x": -2.174074601,
				"y": 0.9632000597,
				"z": 4.0246438863,
				"element": "H" 
			},
			{
				"x": 1.2245307022,
				"y": -1.6741805851,
				"z": 4.0022931756,
				"element": "H" 
			},
			{
				"x": 2.0718979282,
				"y": -0.5620819493,
				"z": 1.9346733732,
				"element": "H" 
			}
		],
		 "valence_orbital": [ 
			{
				"type": "occ",
				"energy": -0.30242,
				"method": "rhf"
			},
			{
				"type": "occ",
				"energy": -0.29403,
				"method": "rhf"
			},
			{
				"type": "occ",
				"energy": -0.28946,
				"method": "rhf"
			},
			{
				"type": "occ",
				"energy": -0.28566,
				"method": "rhf"
			},
			{
				"type": "occ",
				"energy": -0.26056,
				"method": "rhf"
			},
			{
				"type": "unocc",
				"energy": -0.05161,
				"method": "rhf"
			},
			{
				"type": "unocc",
				"energy": -0.03738,
				"method": "rhf"
			},
			{
				"type": "unocc",
				"energy": -0.01168,
				"method": "rhf"
			},
			{
				"type": "unocc",
				"energy": -0.00888,
				"method": "rhf"
			},
			{
				"type": "unocc",
				"energy": 0.04874,
				"method": "rhf"
			}
		],
		"cosmo_sigma_profile": { 
			"-0.025": 0.0,
			"-0.024": 0.0,
			"-0.023": 0.0,
			"-0.022": 0.0,
			"-0.021": 0.0,
			"-0.02": 0.0,
			"-0.019": 0.284696391404,
			"-0.018": 0.757937755463,
			"-0.017": 1.25758827045,
			"-0.016": 0.781272455548,
			"-0.015": 0.298310176746,
			"-0.014": 0.932917210074,
			"-0.013": 0.381157705714,
			"-0.012": 0.916776987051,
			"-0.011": 1.94002287116,
			"-0.01": 1.39208522229,
			"-0.009": 1.54604133663,
			"-0.008": 7.06402213722,
			"-0.007": 14.3672558048,
			"-0.006": 19.2023041251,
			"-0.005": 18.1010329401,
			"-0.004": 19.0248920796,
			"-0.003": 16.3407612557,
			"-0.002": 16.1921705643,
			"-0.001": 12.6401549738,
			"0.0": 18.9425785938,
			"0.001": 27.6057769251,
			"0.002": 14.9167824206,
			"0.003": 13.3992452822,
			"0.004": 14.4994386818,
			"0.005": 5.47407814587,
			"0.006": 4.58970317308,
			"0.007": 6.14067981384,
			"0.008": 4.50360073209,
			"0.009": 6.06830266974,
			"0.01": 9.64232518368,
			"0.011": 13.3044618451,
			"0.012": 6.28862578743,
			"0.013": 0.254161276477,
			"0.014": 0.0,
			"0.015": 0.0,
			"0.016": 0.0,
			"0.017": 0.0,
			"0.018": 0.0,
			"0.019": 0.0,
			"0.02": 0.0,
			"0.021": 0.0,
			"0.022": 0.0,
			"0.023": 0.0,
			"0.024": 0.0,
			"0.025": 0.0
		}
	}
}
