{
	 "smiles": "CSC1=NC(=NC(N)=N1)C1=NC=CN=C1", 
	 "Tm": 488.15, 
	 "num_atms": 23, 
	 "gaussian": { 
		 "optdone": 1, 
		 "sigma_profile": "yes", 
		 "theory": "DFT", 
		 "functional": "B3LYP", 
		 "basiset": "6-31G**", 
		 "properties": { 
			 "R2extent": 4858.1462, 
			 "electric_dipole_moment_norm": 1.40616853186, 
			 "electric_quadrupole_moment_norm": 11.6026317528, 
			 "total_energy": -1036.37998508, 
			 "HOMO_LUMO_gap": 0.16415, 
			 "cosmo_polarized_energy": -15.84, 
			 "cosmo_cavitation_energy": 30.21, 
			 "cosmo_dispersion_energy": -22.71, 
			 "cosmo_repulsion_energy": 1.74, 
			 "cosmo_total_nonelectrostatic_energy": 9.24, 
			 "SMD_solvation_energy": -0.77 
		},
		"coords": [
			{
				"x": -2.5888148736,
				"y": 0.4783112078,
				"z": 3.0784085682,
				"element": "C" 
			},
			{
				"x": -3.989985724,
				"y": 0.1852655593,
				"z": 1.9474046003,
				"element": "S" 
			},
			{
				"x": -3.1611452755,
				"y": -0.112987208,
				"z": 0.4136574856,
				"element": "C" 
			},
			{
				"x": -1.8245060908,
				"y": -0.0745148722,
				"z": 0.3654417588,
				"element": "N" 
			},
			{
				"x": -1.3080827522,
				"y": -0.3174107,
				"z": -0.8554994545,
				"element": "C" 
			},
			{
				"x": -2.0063207575,
				"y": -0.578553174,
				"z": -1.9549311439,
				"element": "N" 
			},
			{
				"x": -3.3456609106,
				"y": -0.5883168363,
				"z": -1.7730721569,
				"element": "C" 
			},
			{
				"x": -4.1059058582,
				"y": -0.8480481199,
				"z": -2.8571821637,
				"element": "N" 
			},
			{
				"x": -3.9805904901,
				"y": -0.361933247,
				"z": -0.6086962939,
				"element": "N" 
			},
			{
				"x": 0.182056096,
				"y": -0.2854072996,
				"z": -0.9595031723,
				"element": "C" 
			},
			{
				"x": 0.739690263,
				"y": -0.5220578826,
				"z": -2.1564595206,
				"element": "N" 
			},
			{
				"x": 2.071093417,
				"y": -0.4850246046,
				"z": -2.2096222486,
				"element": "C" 
			},
			{
				"x": 2.852891578,
				"y": -0.214645659,
				"z": -1.0827574179,
				"element": "C" 
			},
			{
				"x": 2.3069620681,
				"y": 0.0225729796,
				"z": 0.1146485656,
				"element": "N" 
			},
			{
				"x": 0.971753912,
				"y": -0.0141596362,
				"z": 0.1699672014,
				"element": "C" 
			},
			{
				"x": -1.9441719777,
				"y": -0.3991427619,
				"z": 3.1332670293,
				"element": "H" 
			},
			{
				"x": -3.0362968122,
				"y": 0.671385785,
				"z": 4.0558774282,
				"element": "H" 
			},
			{
				"x": -2.0073954816,
				"y": 1.3438052829,
				"z": 2.760023268,
				"element": "H" 
			},
			{
				"x": -5.1078817698,
				"y": -0.8669187387,
				"z": -2.767506431,
				"element": "H" 
			},
			{
				"x": -3.6557593204,
				"y": -1.0224156673,
				"z": -3.7400962661,
				"element": "H" 
			},
			{
				"x": 2.5334163025,
				"y": -0.6757314588,
				"z": -3.1763707926,
				"element": "H" 
			},
			{
				"x": 3.938843737,
				"y": -0.189179145,
				"z": -1.148062525,
				"element": "H" 
			},
			{
				"x": 0.5016107205,
				"y": 0.1747061964,
				"z": 1.1290636816,
				"element": "H" 
			}
		],
		 "valence_orbital": [ 
			{
				"type": "occ",
				"energy": -0.27158,
				"method": "rhf"
			},
			{
				"type": "occ",
				"energy": -0.26367,
				"method": "rhf"
			},
			{
				"type": "occ",
				"energy": -0.25541,
				"method": "rhf"
			},
			{
				"type": "occ",
				"energy": -0.24728,
				"method": "rhf"
			},
			{
				"type": "occ",
				"energy": -0.23864,
				"method": "rhf"
			},
			{
				"type": "unocc",
				"energy": -0.07449,
				"method": "rhf"
			},
			{
				"type": "unocc",
				"energy": -0.04286,
				"method": "rhf"
			},
			{
				"type": "unocc",
				"energy": -0.0171,
				"method": "rhf"
			},
			{
				"type": "unocc",
				"energy": 0.01426,
				"method": "rhf"
			},
			{
				"type": "unocc",
				"energy": 0.03567,
				"method": "rhf"
			}
		],
		"cosmo_sigma_profile": { 
			"-0.025": 0.0,
			"-0.024": 0.0,
			"-0.023": 0.0,
			"-0.022": 0.0,
			"-0.021": 0.0,
			"-0.02": 0.0,
			"-0.019": 0.0,
			"-0.018": 0.0,
			"-0.017": 0.0,
			"-0.016": 0.0,
			"-0.015": 1.27120231448,
			"-0.014": 2.0717333438,
			"-0.013": 2.36890476157,
			"-0.012": 1.80421471506,
			"-0.011": 1.74676603497,
			"-0.01": 2.0416158305,
			"-0.009": 2.46577702681,
			"-0.008": 6.31256594888,
			"-0.007": 7.80168918569,
			"-0.006": 8.8432125263,
			"-0.005": 11.2842038425,
			"-0.004": 12.9492537328,
			"-0.003": 17.7221668284,
			"-0.002": 24.2179002991,
			"-0.001": 23.5019534173,
			"0.0": 17.9925045041,
			"0.001": 13.6245197097,
			"0.002": 12.9644998033,
			"0.003": 12.7951261638,
			"0.004": 12.2092631153,
			"0.005": 10.8563774315,
			"0.006": 7.63007565919,
			"0.007": 5.75435321597,
			"0.008": 3.80566661455,
			"0.009": 3.58841001662,
			"0.01": 3.13279785386,
			"0.011": 3.15362162111,
			"0.012": 3.18290189474,
			"0.013": 2.43268464004,
			"0.014": 1.17505232239,
			"0.015": 0.652567138553,
			"0.016": 1.33736673258,
			"0.017": 1.0617997647,
			"0.018": 0.715413141126,
			"0.019": 0.461682171632,
			"0.02": 0.0678595670154,
			"0.021": 0.0,
			"0.022": 0.0,
			"0.023": 0.0,
			"0.024": 0.0,
			"0.025": 0.0
		}
	}
}
