{
	 "smiles": "NC(=O)C1=C(N)SC=C1C1CCCCC1", 
	 "Tm": 438.15, 
	 "num_atms": 31, 
	 "gaussian": { 
		 "optdone": 1, 
		 "sigma_profile": "yes", 
		 "theory": "DFT", 
		 "functional": "B3LYP", 
		 "basiset": "6-31G**", 
		 "properties": { 
			 "R2extent": 4064.7821, 
			 "electric_dipole_moment_norm": 2.16742513135, 
			 "electric_quadrupole_moment_norm": 8.63022093808, 
			 "total_energy": -1011.74642609, 
			 "HOMO_LUMO_gap": 0.18193, 
			 "cosmo_polarized_energy": -12.24, 
			 "cosmo_cavitation_energy": 32.35, 
			 "cosmo_dispersion_energy": -24.65, 
			 "cosmo_repulsion_energy": 1.88, 
			 "cosmo_total_nonelectrostatic_energy": 9.58, 
			 "SMD_solvation_energy": 4.75 
		},
		"coords": [
			{
				"x": -0.6449388749,
				"y": -2.38748606,
				"z": -0.5908530162,
				"element": "N" 
			},
			{
				"x": 0.3225779029,
				"y": -1.7766466114,
				"z": -1.3589409781,
				"element": "C" 
			},
			{
				"x": 0.8871773379,
				"y": -2.4515549453,
				"z": -2.2367575106,
				"element": "O" 
			},
			{
				"x": 0.6368556333,
				"y": -0.3521202459,
				"z": -1.1385245995,
				"element": "C" 
			},
			{
				"x": 1.7300514601,
				"y": 0.1867953029,
				"z": -1.8299148619,
				"element": "C" 
			},
			{
				"x": 2.5955814793,
				"y": -0.4700557996,
				"z": -2.6473433015,
				"element": "N" 
			},
			{
				"x": 1.9490044598,
				"y": 1.8832350651,
				"z": -1.4806387791,
				"element": "S" 
			},
			{
				"x": 0.5455818281,
				"y": 1.8829527711,
				"z": -0.4363845514,
				"element": "C" 
			},
			{
				"x": -0.0494157055,
				"y": 0.6612146256,
				"z": -0.338217915,
				"element": "C" 
			},
			{
				"x": -1.281430662,
				"y": 0.4421959475,
				"z": 0.5310926699,
				"element": "C" 
			},
			{
				"x": -2.2371905932,
				"y": 1.676439343,
				"z": 0.607534997,
				"element": "C" 
			},
			{
				"x": -2.0992330064,
				"y": 2.4671352644,
				"z": 1.9166315103,
				"element": "C" 
			},
			{
				"x": -2.4682551951,
				"y": 1.596957287,
				"z": 3.139088661,
				"element": "C" 
			},
			{
				"x": -2.0527800976,
				"y": 0.1171418846,
				"z": 2.9439978811,
				"element": "C" 
			},
			{
				"x": -0.8751621897,
				"y": -0.0035703565,
				"z": 1.9677002224,
				"element": "C" 
			},
			{
				"x": -0.8520482891,
				"y": -2.0441728782,
				"z": 0.3326092955,
				"element": "H" 
			},
			{
				"x": -0.6770701147,
				"y": -3.3900721309,
				"z": -0.7144423348,
				"element": "H" 
			},
			{
				"x": 2.2523468286,
				"y": -1.392247427,
				"z": -2.9158568767,
				"element": "H" 
			},
			{
				"x": 3.1407486718,
				"y": 0.0631195741,
				"z": -3.3065057213,
				"element": "H" 
			},
			{
				"x": 0.2465775693,
				"y": 2.8113634367,
				"z": 0.0262281914,
				"element": "H" 
			},
			{
				"x": -1.8648169229,
				"y": -0.3642432442,
				"z": 0.0761163902,
				"element": "H" 
			},
			{
				"x": -3.2720519493,
				"y": 1.3197207343,
				"z": 0.531807743,
				"element": "H" 
			},
			{
				"x": -2.0770198947,
				"y": 2.3236234783,
				"z": -0.2594026198,
				"element": "H" 
			},
			{
				"x": -2.7332304374,
				"y": 3.3604134018,
				"z": 1.8855021977,
				"element": "H" 
			},
			{
				"x": -1.0693777242,
				"y": 2.8302939551,
				"z": 2.0208231469,
				"element": "H" 
			},
			{
				"x": -1.9864204589,
				"y": 2.0067102042,
				"z": 4.0344640018,
				"element": "H" 
			},
			{
				"x": -3.548229775,
				"y": 1.6507346858,
				"z": 3.3203688883,
				"element": "H" 
			},
			{
				"x": -1.7979329483,
				"y": -0.3364462193,
				"z": 3.9081544387,
				"element": "H" 
			},
			{
				"x": -2.898866097,
				"y": -0.4613476899,
				"z": 2.5497741479,
				"element": "H" 
			},
			{
				"x": -0.480383639,
				"y": -1.0281909999,
				"z": 1.9643681349,
				"element": "H" 
			},
			{
				"x": -0.0426485963,
				"y": 0.6223076466,
				"z": 2.3106205482,
				"element": "H" 
			}
		],
		 "valence_orbital": [ 
			{
				"type": "occ",
				"energy": -0.2985,
				"method": "rhf"
			},
			{
				"type": "occ",
				"energy": -0.26513,
				"method": "rhf"
			},
			{
				"type": "occ",
				"energy": -0.24897,
				"method": "rhf"
			},
			{
				"type": "occ",
				"energy": -0.24146,
				"method": "rhf"
			},
			{
				"type": "occ",
				"energy": -0.18968,
				"method": "rhf"
			},
			{
				"type": "unocc",
				"energy": -0.00775,
				"method": "rhf"
			},
			{
				"type": "unocc",
				"energy": 0.01658,
				"method": "rhf"
			},
			{
				"type": "unocc",
				"energy": 0.02005,
				"method": "rhf"
			},
			{
				"type": "unocc",
				"energy": 0.06477,
				"method": "rhf"
			},
			{
				"type": "unocc",
				"energy": 0.08748,
				"method": "rhf"
			}
		],
		"cosmo_sigma_profile": { 
			"-0.025": 0.0,
			"-0.024": 0.0,
			"-0.023": 0.0,
			"-0.022": 0.0,
			"-0.021": 0.0,
			"-0.02": 0.0,
			"-0.019": 0.0,
			"-0.018": 0.0,
			"-0.017": 0.0,
			"-0.016": 0.0,
			"-0.015": 0.0,
			"-0.014": 0.972833859409,
			"-0.013": 2.04820884726,
			"-0.012": 2.3993342984,
			"-0.011": 3.5908297714,
			"-0.01": 3.26559549149,
			"-0.009": 4.01951133773,
			"-0.008": 3.82205673952,
			"-0.007": 5.2911245136,
			"-0.006": 6.01219028558,
			"-0.005": 5.86052210838,
			"-0.004": 6.01392425293,
			"-0.003": 11.3809545018,
			"-0.002": 30.1469142415,
			"-0.001": 31.6356543123,
			"0.0": 31.0173550284,
			"0.001": 26.1193316311,
			"0.002": 15.5397831307,
			"0.003": 12.5869363822,
			"0.004": 14.3273200218,
			"0.005": 13.2647039215,
			"0.006": 6.36620759509,
			"0.007": 3.59897130519,
			"0.008": 2.95748408363,
			"0.009": 1.93411469896,
			"0.01": 2.50954235222,
			"0.011": 1.93584372954,
			"0.012": 1.75748690426,
			"0.013": 2.10506913248,
			"0.014": 2.25475423607,
			"0.015": 0.519675815568,
			"0.016": 0.0,
			"0.017": 0.0,
			"0.018": 0.0,
			"0.019": 0.0,
			"0.02": 0.0,
			"0.021": 0.0,
			"0.022": 0.0,
			"0.023": 0.0,
			"0.024": 0.0,
			"0.025": 0.0
		}
	}
}
