{
	 "smiles": "NC1=CC=C2C=CC=CC2=C1N=NC1=CC=CC=C1", 
	 "Tm": 376.15, 
	 "num_atms": 32, 
	 "gaussian": { 
		 "optdone": 1, 
		 "sigma_profile": "yes", 
		 "theory": "DFT", 
		 "functional": "B3LYP", 
		 "basiset": "6-31G**", 
		 "properties": { 
			 "R2extent": 6993.8609, 
			 "electric_dipole_moment_norm": 2.34399257891, 
			 "electric_quadrupole_moment_norm": 15.8757341172, 
			 "total_energy": -781.76774009, 
			 "HOMO_LUMO_gap": 0.11486, 
			 "cosmo_polarized_energy": -11.54, 
			 "cosmo_cavitation_energy": 36.15, 
			 "cosmo_dispersion_energy": -26.42, 
			 "cosmo_repulsion_energy": 1.99, 
			 "cosmo_total_nonelectrostatic_energy": 11.72, 
			 "SMD_solvation_energy": 4.88 
		},
		"coords": [
			{
				"x": 2.2954843758,
				"y": 0.0527100969,
				"z": 2.3526229597,
				"element": "N" 
			},
			{
				"x": 2.0217932796,
				"y": 1.3573189836,
				"z": 2.0421004059,
				"element": "C" 
			},
			{
				"x": 2.6956545629,
				"y": 2.3930533909,
				"z": 2.7487166398,
				"element": "C" 
			},
			{
				"x": 2.4883439921,
				"y": 3.7023044017,
				"z": 2.418186041,
				"element": "C" 
			},
			{
				"x": 1.6049057329,
				"y": 4.0774397298,
				"z": 1.3645156733,
				"element": "C" 
			},
			{
				"x": 1.4132790592,
				"y": 5.4437924489,
				"z": 1.0490807833,
				"element": "C" 
			},
			{
				"x": 0.5558164195,
				"y": 5.8269869521,
				"z": 0.0391519768,
				"element": "C" 
			},
			{
				"x": -0.1379615654,
				"y": 4.836424476,
				"z": -0.6823021671,
				"element": "C" 
			},
			{
				"x": 0.0297263424,
				"y": 3.4916381088,
				"z": -0.4018564373,
				"element": "C" 
			},
			{
				"x": 0.9074418311,
				"y": 3.0619965523,
				"z": 0.6283512724,
				"element": "C" 
			},
			{
				"x": 1.1175155179,
				"y": 1.6762661094,
				"z": 0.995503582,
				"element": "C" 
			},
			{
				"x": 0.5017426387,
				"y": 0.5405940453,
				"z": 0.4832048504,
				"element": "N" 
			},
			{
				"x": -0.2057818848,
				"y": 0.6207689982,
				"z": -0.5679083236,
				"element": "N" 
			},
			{
				"x": -0.8351600832,
				"y": -0.5901070266,
				"z": -0.9434181889,
				"element": "C" 
			},
			{
				"x": -1.0168016615,
				"y": -1.6970379894,
				"z": -0.0954332412,
				"element": "C" 
			},
			{
				"x": -1.6658663524,
				"y": -2.8336554392,
				"z": -0.5668156845,
				"element": "C" 
			},
			{
				"x": -2.1423234786,
				"y": -2.8850256129,
				"z": -1.8818505993,
				"element": "C" 
			},
			{
				"x": -1.9741362514,
				"y": -1.7830558653,
				"z": -2.7236345198,
				"element": "C" 
			},
			{
				"x": -1.3330674366,
				"y": -0.6386169368,
				"z": -2.2546666491,
				"element": "C" 
			},
			{
				"x": 2.6508016446,
				"y": -0.1533365005,
				"z": 3.2730886348,
				"element": "H" 
			},
			{
				"x": 1.6809900998,
				"y": -0.626334041,
				"z": 1.923465893,
				"element": "H" 
			},
			{
				"x": 3.384862964,
				"y": 2.1226065975,
				"z": 3.5440965824,
				"element": "H" 
			},
			{
				"x": 3.007690415,
				"y": 4.4871194886,
				"z": 2.9624431737,
				"element": "H" 
			},
			{
				"x": 1.9574617681,
				"y": 6.189046859,
				"z": 1.6242410912,
				"element": "H" 
			},
			{
				"x": 0.4153099486,
				"y": 6.8776852704,
				"z": -0.1965441637,
				"element": "H" 
			},
			{
				"x": -0.8178706973,
				"y": 5.1293684398,
				"z": -1.4778187352,
				"element": "H" 
			},
			{
				"x": -0.5010363539,
				"y": 2.7447912421,
				"z": -0.9725987887,
				"element": "H" 
			},
			{
				"x": -0.6606531673,
				"y": -1.639670378,
				"z": 0.9268127852,
				"element": "H" 
			},
			{
				"x": -1.8109891249,
				"y": -3.6837916127,
				"z": 0.0943617928,
				"element": "H" 
			},
			{
				"x": -2.6508778882,
				"y": -3.774614838,
				"z": -2.2420729437,
				"element": "H" 
			},
			{
				"x": -2.3470660562,
				"y": -1.8141758502,
				"z": -3.7433550018,
				"element": "H" 
			},
			{
				"x": -1.1939285905,
				"y": 0.2308098992,
				"z": -2.8896686938,
				"element": "H" 
			}
		],
		 "valence_orbital": [ 
			{
				"type": "occ",
				"energy": -0.24942,
				"method": "rhf"
			},
			{
				"type": "occ",
				"energy": -0.24316,
				"method": "rhf"
			},
			{
				"type": "occ",
				"energy": -0.22611,
				"method": "rhf"
			},
			{
				"type": "occ",
				"energy": -0.21366,
				"method": "rhf"
			},
			{
				"type": "occ",
				"energy": -0.19024,
				"method": "rhf"
			},
			{
				"type": "unocc",
				"energy": -0.07538,
				"method": "rhf"
			},
			{
				"type": "unocc",
				"energy": -0.01765,
				"method": "rhf"
			},
			{
				"type": "unocc",
				"energy": 0.00169,
				"method": "rhf"
			},
			{
				"type": "unocc",
				"energy": 0.00218,
				"method": "rhf"
			},
			{
				"type": "unocc",
				"energy": 0.03056,
				"method": "rhf"
			}
		],
		"cosmo_sigma_profile": { 
			"-0.025": 0.0,
			"-0.024": 0.0,
			"-0.023": 0.0,
			"-0.022": 0.0,
			"-0.021": 0.0,
			"-0.02": 0.0,
			"-0.019": 0.0,
			"-0.018": 0.0,
			"-0.017": 0.0,
			"-0.016": 0.0,
			"-0.015": 0.0,
			"-0.014": 0.61824310536,
			"-0.013": 1.50137872873,
			"-0.012": 1.51342815968,
			"-0.011": 1.57808277805,
			"-0.01": 1.75446804706,
			"-0.009": 2.69742529908,
			"-0.008": 3.20025332464,
			"-0.007": 4.40279048041,
			"-0.006": 13.9046077122,
			"-0.005": 22.1210018776,
			"-0.004": 21.0464843915,
			"-0.003": 18.9922917199,
			"-0.002": 14.8809068281,
			"-0.001": 16.4178778834,
			"0.0": 13.3469160767,
			"0.001": 15.9708935507,
			"0.002": 23.3665383598,
			"0.003": 37.6012587534,
			"0.004": 35.5914037973,
			"0.005": 26.9852131803,
			"0.006": 7.76638792402,
			"0.007": 2.2056487645,
			"0.008": 1.5810420242,
			"0.009": 0.829744768486,
			"0.01": 0.529361493015,
			"0.011": 0.161771789874,
			"0.012": 0.0,
			"0.013": 0.0,
			"0.014": 0.0,
			"0.015": 0.0,
			"0.016": 0.0,
			"0.017": 0.0,
			"0.018": 0.0,
			"0.019": 0.0,
			"0.02": 0.0,
			"0.021": 0.0,
			"0.022": 0.0,
			"0.023": 0.0,
			"0.024": 0.0,
			"0.025": 0.0
		}
	}
}
