{
	 "smiles": "NC1=C(C#N)C(CC#N)=C(C#N)C(=N1)N1CCCCC1", 
	 "Tm": 416.15, 
	 "num_atms": 34, 
	 "gaussian": { 
		 "optdone": 1, 
		 "sigma_profile": "yes", 
		 "theory": "DFT", 
		 "functional": "B3LYP", 
		 "basiset": "6-31G**", 
		 "properties": { 
			 "R2extent": 6395.8718, 
			 "electric_dipole_moment_norm": 8.24710014308, 
			 "electric_quadrupole_moment_norm": 21.0670791794, 
			 "total_energy": -870.406160692, 
			 "HOMO_LUMO_gap": 0.16361, 
			 "cosmo_polarized_energy": -21.86, 
			 "cosmo_cavitation_energy": 38.95, 
			 "cosmo_dispersion_energy": -26.1, 
			 "cosmo_repulsion_energy": 2.03, 
			 "cosmo_total_nonelectrostatic_energy": 14.87, 
			 "SMD_solvation_energy": 7.6 
		},
		"coords": [
			{
				"x": -0.5645457473,
				"y": -0.3518981596,
				"z": -3.600710077,
				"element": "N" 
			},
			{
				"x": -0.0026715913,
				"y": -0.681429821,
				"z": -2.4135244409,
				"element": "C" 
			},
			{
				"x": 1.0641457419,
				"y": -1.6351448328,
				"z": -2.3554975882,
				"element": "C" 
			},
			{
				"x": 1.5660235351,
				"y": -2.1883978343,
				"z": -3.564692955,
				"element": "C" 
			},
			{
				"x": 1.9247782948,
				"y": -2.6084709441,
				"z": -4.5920654844,
				"element": "N" 
			},
			{
				"x": 1.5296866579,
				"y": -2.0153707054,
				"z": -1.0929638435,
				"element": "C" 
			},
			{
				"x": 2.6154074884,
				"y": -3.0749793811,
				"z": -0.9721296822,
				"element": "C" 
			},
			{
				"x": 3.9426898888,
				"y": -2.4707543202,
				"z": -0.7985969756,
				"element": "C" 
			},
			{
				"x": 4.9879839452,
				"y": -1.985583708,
				"z": -0.6652128936,
				"element": "N" 
			},
			{
				"x": 0.9821517441,
				"y": -1.4244348409,
				"z": 0.0587086747,
				"element": "C" 
			},
			{
				"x": 1.3087873503,
				"y": -1.985162956,
				"z": 1.3269974916,
				"element": "C" 
			},
			{
				"x": 1.5673717958,
				"y": -2.5046167767,
				"z": 2.3384840868,
				"element": "N" 
			},
			{
				"x": 0.0003702755,
				"y": -0.3795880729,
				"z": -0.1105422322,
				"element": "C" 
			},
			{
				"x": -0.4843152415,
				"y": -0.0792592804,
				"z": -1.3288476134,
				"element": "N" 
			},
			{
				"x": -0.5092190787,
				"y": 0.3408138212,
				"z": 0.9239420171,
				"element": "N" 
			},
			{
				"x": 0.1912617753,
				"y": 0.5182678507,
				"z": 2.2128873826,
				"element": "C" 
			},
			{
				"x": -0.0076782224,
				"y": 1.9462203449,
				"z": 2.7320976801,
				"element": "C" 
			},
			{
				"x": -1.494622787,
				"y": 2.2671196171,
				"z": 2.9883507579,
				"element": "C" 
			},
			{
				"x": -2.3997973084,
				"y": 1.4894317733,
				"z": 2.0075299536,
				"element": "C" 
			},
			{
				"x": -1.6908981282,
				"y": 1.1939656934,
				"z": 0.6846609072,
				"element": "C" 
			},
			{
				"x": -1.2462923154,
				"y": 0.3893400267,
				"z": -3.6118216556,
				"element": "H" 
			},
			{
				"x": -0.1851900302,
				"y": -0.6942802955,
				"z": -4.4691513381,
				"element": "H" 
			},
			{
				"x": 2.4179506776,
				"y": -3.7233249454,
				"z": -0.1120697913,
				"element": "H" 
			},
			{
				"x": 2.6356358913,
				"y": -3.7025386347,
				"z": -1.8684284631,
				"element": "H" 
			},
			{
				"x": -0.1608617676,
				"y": -0.2110614536,
				"z": 2.9522651246,
				"element": "H" 
			},
			{
				"x": 1.2552201261,
				"y": 0.3325666607,
				"z": 2.0608747098,
				"element": "H" 
			},
			{
				"x": 0.5825254473,
				"y": 2.0679029607,
				"z": 3.6459522559,
				"element": "H" 
			},
			{
				"x": 0.4101904258,
				"y": 2.6431796709,
				"z": 1.9963880912,
				"element": "H" 
			},
			{
				"x": -1.6559393922,
				"y": 3.3455165297,
				"z": 2.883934919,
				"element": "H" 
			},
			{
				"x": -1.7668094633,
				"y": 2.010909926,
				"z": 4.0178596918,
				"element": "H" 
			},
			{
				"x": -3.318524027,
				"y": 2.0466250477,
				"z": 1.7975974778,
				"element": "H" 
			},
			{
				"x": -2.7095329,
				"y": 0.5365668587,
				"z": 2.4524101589,
				"element": "H" 
			},
			{
				"x": -2.3516169786,
				"y": 0.667156382,
				"z": -0.004782167,
				"element": "H" 
			},
			{
				"x": -1.3943660822,
				"y": 2.1257137988,
				"z": 0.1828958207,
				"element": "H" 
			}
		],
		 "valence_orbital": [ 
			{
				"type": "occ",
				"energy": -0.32589,
				"method": "rhf"
			},
			{
				"type": "occ",
				"energy": -0.30381,
				"method": "rhf"
			},
			{
				"type": "occ",
				"energy": -0.29241,
				"method": "rhf"
			},
			{
				"type": "occ",
				"energy": -0.26176,
				"method": "rhf"
			},
			{
				"type": "occ",
				"energy": -0.22578,
				"method": "rhf"
			},
			{
				"type": "unocc",
				"energy": -0.06217,
				"method": "rhf"
			},
			{
				"type": "unocc",
				"energy": -0.04511,
				"method": "rhf"
			},
			{
				"type": "unocc",
				"energy": 0.00809,
				"method": "rhf"
			},
			{
				"type": "unocc",
				"energy": 0.02567,
				"method": "rhf"
			},
			{
				"type": "unocc",
				"energy": 0.03306,
				"method": "rhf"
			}
		],
		"cosmo_sigma_profile": { 
			"-0.025": 0.0,
			"-0.024": 0.0,
			"-0.023": 0.0,
			"-0.022": 0.0,
			"-0.021": 0.0,
			"-0.02": 0.0,
			"-0.019": 0.0,
			"-0.018": 0.0,
			"-0.017": 0.0,
			"-0.016": 0.0,
			"-0.015": 0.513654365522,
			"-0.014": 1.80635871704,
			"-0.013": 2.43284957472,
			"-0.012": 1.76145469636,
			"-0.011": 2.02146701688,
			"-0.01": 3.40052638613,
			"-0.009": 5.69696317567,
			"-0.008": 7.25737667168,
			"-0.007": 7.26501503695,
			"-0.006": 6.97250153651,
			"-0.005": 8.68251675673,
			"-0.004": 22.7621642856,
			"-0.003": 37.5132175829,
			"-0.002": 43.3299860472,
			"-0.001": 30.5457118366,
			"0.0": 21.4519389664,
			"0.001": 12.7997093255,
			"0.002": 7.84928817778,
			"0.003": 8.71900907671,
			"0.004": 7.70533780427,
			"0.005": 8.00128742195,
			"0.006": 8.09631691967,
			"0.007": 8.68425327903,
			"0.008": 7.53080900144,
			"0.009": 9.63720675031,
			"0.01": 8.84996410619,
			"0.011": 7.53774724979,
			"0.012": 7.63616635359,
			"0.013": 4.19915748063,
			"0.014": 0.289933750227,
			"0.015": 0.0,
			"0.016": 0.0,
			"0.017": 0.0,
			"0.018": 0.0,
			"0.019": 0.0,
			"0.02": 0.0,
			"0.021": 0.0,
			"0.022": 0.0,
			"0.023": 0.0,
			"0.024": 0.0,
			"0.025": 0.0
		}
	}
}
