{
	 "smiles": "CC1(C)CN1P(=O)(NC(=O)NC1CC(C)(C)NC(C)(C)C1)N1CC1(C)C", 
	 "Tm": 452.15, 
	 "num_atms": 62, 
	 "gaussian": { 
		 "optdone": 1, 
		 "sigma_profile": "yes", 
		 "theory": "DFT", 
		 "functional": "B3LYP", 
		 "basiset": "6-31G**", 
		 "properties": { 
			 "R2extent": 12741.1782, 
			 "electric_dipole_moment_norm": 2.33800401197, 
			 "electric_quadrupole_moment_norm": 21.6518306753, 
			 "total_energy": -1473.21124467, 
			 "HOMO_LUMO_gap": 0.26319, 
			 "cosmo_polarized_energy": -23.62, 
			 "cosmo_cavitation_energy": 60.08, 
			 "cosmo_dispersion_energy": -37.29, 
			 "cosmo_repulsion_energy": 2.83, 
			 "cosmo_total_nonelectrostatic_energy": 25.61, 
			 "SMD_solvation_energy": 7.82 
		},
		"coords": [
			{
				"x": -2.9580706605,
				"y": -3.8096742302,
				"z": -0.5909712637,
				"element": "C" 
			},
			{
				"x": -2.5288825872,
				"y": -3.0964330203,
				"z": 0.6774824846,
				"element": "C" 
			},
			{
				"x": -1.1288802575,
				"y": -3.4375218218,
				"z": 1.1614468923,
				"element": "C" 
			},
			{
				"x": -3.549324131,
				"y": -2.7155239477,
				"z": 1.6963708824,
				"element": "C" 
			},
			{
				"x": -3.0316726297,
				"y": -1.7073229558,
				"z": 0.7555386417,
				"element": "N" 
			},
			{
				"x": -2.1577992663,
				"y": -0.3599336852,
				"z": 1.2987451291,
				"element": "P" 
			},
			{
				"x": -1.7253411087,
				"y": -0.3590384694,
				"z": 2.7263690336,
				"element": "O" 
			},
			{
				"x": -0.7720210912,
				"y": -0.3216256294,
				"z": 0.2973156901,
				"element": "N" 
			},
			{
				"x": -0.734892216,
				"y": -0.2812332765,
				"z": -1.0938650501,
				"element": "C" 
			},
			{
				"x": -1.7365997811,
				"y": -0.4293000395,
				"z": -1.7849700655,
				"element": "O" 
			},
			{
				"x": 0.515614267,
				"y": -0.12047557,
				"z": -1.6549430159,
				"element": "N" 
			},
			{
				"x": 1.7261887799,
				"y": 0.3911458893,
				"z": -1.0104957389,
				"element": "C" 
			},
			{
				"x": 2.9336739022,
				"y": 0.0959397058,
				"z": -1.9082800801,
				"element": "C" 
			},
			{
				"x": 4.2669988927,
				"y": 0.5988253558,
				"z": -1.3126402487,
				"element": "C" 
			},
			{
				"x": 4.7521558222,
				"y": -0.3431984658,
				"z": -0.1803890501,
				"element": "C" 
			},
			{
				"x": 5.3391368192,
				"y": 0.594072311,
				"z": -2.4193883467,
				"element": "C" 
			},
			{
				"x": 4.0892838702,
				"y": 2.0084850476,
				"z": -0.9179143753,
				"element": "N" 
			},
			{
				"x": 2.9527706171,
				"y": 2.4555429362,
				"z": -0.0893884382,
				"element": "C" 
			},
			{
				"x": 2.9350350569,
				"y": 3.993411721,
				"z": -0.1785293285,
				"element": "C" 
			},
			{
				"x": 3.0427930583,
				"y": 2.0693378509,
				"z": 1.4096170588,
				"element": "C" 
			},
			{
				"x": 1.6581549317,
				"y": 1.901250425,
				"z": -0.7226239757,
				"element": "C" 
			},
			{
				"x": -3.0045154398,
				"y": 1.0170662515,
				"z": 0.8510626317,
				"element": "N" 
			},
			{
				"x": -4.0196465764,
				"y": 1.115186326,
				"z": -0.2020778532,
				"element": "C" 
			},
			{
				"x": -4.3766139532,
				"y": 1.4244940652,
				"z": 1.2159278234,
				"element": "C" 
			},
			{
				"x": -5.2804396406,
				"y": 0.4701380906,
				"z": 1.9771552758,
				"element": "C" 
			},
			{
				"x": -4.4730977114,
				"y": 2.8722926541,
				"z": 1.6621315841,
				"element": "C" 
			},
			{
				"x": -3.9930669661,
				"y": -3.5657346881,
				"z": -0.8425618154,
				"element": "H" 
			},
			{
				"x": -2.3273440695,
				"y": -3.4952292058,
				"z": -1.4283705703,
				"element": "H" 
			},
			{
				"x": -2.8690645291,
				"y": -4.89589535,
				"z": -0.4751539675,
				"element": "H" 
			},
			{
				"x": -1.0734983538,
				"y": -4.5072615175,
				"z": 1.3921169826,
				"element": "H" 
			},
			{
				"x": -0.3846476804,
				"y": -3.2238288873,
				"z": 0.3878370322,
				"element": "H" 
			},
			{
				"x": -0.866460925,
				"y": -2.8752819888,
				"z": 2.0609953444,
				"element": "H" 
			},
			{
				"x": -3.2273299502,
				"y": -2.6374844961,
				"z": 2.7334121815,
				"element": "H" 
			},
			{
				"x": -4.5941990219,
				"y": -2.9869629152,
				"z": 1.5528632856,
				"element": "H" 
			},
			{
				"x": 0.0720534525,
				"y": -0.1463671614,
				"z": 0.8255434349,
				"element": "H" 
			},
			{
				"x": 0.446354312,
				"y": 0.010706519,
				"z": -2.6559088619,
				"element": "H" 
			},
			{
				"x": 1.8573692704,
				"y": -0.1647824394,
				"z": -0.0736767293,
				"element": "H" 
			},
			{
				"x": 2.7727439129,
				"y": 0.6005942489,
				"z": -2.8707047081,
				"element": "H" 
			},
			{
				"x": 2.9969856288,
				"y": -0.9792950381,
				"z": -2.107821772,
				"element": "H" 
			},
			{
				"x": 4.0035653574,
				"y": -0.4997688836,
				"z": 0.5990780054,
				"element": "H" 
			},
			{
				"x": 5.0166360029,
				"y": -1.3271038021,
				"z": -0.5839791347,
				"element": "H" 
			},
			{
				"x": 5.6468466121,
				"y": 0.0698488028,
				"z": 0.298573697,
				"element": "H" 
			},
			{
				"x": 5.4803875293,
				"y": -0.4119233418,
				"z": -2.8284441477,
				"element": "H" 
			},
			{
				"x": 6.3053670196,
				"y": 0.9289012168,
				"z": -2.023563827,
				"element": "H" 
			},
			{
				"x": 5.052652926,
				"y": 1.2706995962,
				"z": -3.228853648,
				"element": "H" 
			},
			{
				"x": 4.9595745246,
				"y": 2.3748632525,
				"z": -0.5407049983,
				"element": "H" 
			},
			{
				"x": 2.0704117029,
				"y": 4.4083116204,
				"z": 0.3498179969,
				"element": "H" 
			},
			{
				"x": 3.8372748412,
				"y": 4.4189357011,
				"z": 0.2773055821,
				"element": "H" 
			},
			{
				"x": 2.9003426249,
				"y": 4.3130560147,
				"z": -1.223389901,
				"element": "H" 
			},
			{
				"x": 4.0037017138,
				"y": 2.3896832279,
				"z": 1.827781759,
				"element": "H" 
			},
			{
				"x": 2.2507693874,
				"y": 2.5630722958,
				"z": 1.9834786379,
				"element": "H" 
			},
			{
				"x": 2.9514894575,
				"y": 0.9949372473,
				"z": 1.5843107102,
				"element": "H" 
			},
			{
				"x": 1.4845860482,
				"y": 2.4121679673,
				"z": -1.6778921783,
				"element": "H" 
			},
			{
				"x": 0.8033162846,
				"y": 2.1279653298,
				"z": -0.0757521345,
				"element": "H" 
			},
			{
				"x": -4.371041617,
				"y": 0.1812830766,
				"z": -0.6328609404,
				"element": "H" 
			},
			{
				"x": -3.8595476152,
				"y": 1.921023097,
				"z": -0.9156302778,
				"element": "H" 
			},
			{
				"x": -6.3156074731,
				"y": 0.8265607537,
				"z": 1.9345879573,
				"element": "H" 
			},
			{
				"x": -4.9868201641,
				"y": 0.4169780942,
				"z": 3.0311408923,
				"element": "H" 
			},
			{
				"x": -5.24995091,
				"y": -0.5360198592,
				"z": 1.5557775427,
				"element": "H" 
			},
			{
				"x": -4.2167552352,
				"y": 2.9646724131,
				"z": 2.7230658745,
				"element": "H" 
			},
			{
				"x": -3.7861570372,
				"y": 3.5008226846,
				"z": 1.0903648139,
				"element": "H" 
			},
			{
				"x": -5.493046028,
				"y": 3.2496488963,
				"z": 1.5251315847,
				"element": "H" 
			}
		],
		 "valence_orbital": [ 
			{
				"type": "occ",
				"energy": -0.25597,
				"method": "rhf"
			},
			{
				"type": "occ",
				"energy": -0.24674,
				"method": "rhf"
			},
			{
				"type": "occ",
				"energy": -0.24246,
				"method": "rhf"
			},
			{
				"type": "occ",
				"energy": -0.23039,
				"method": "rhf"
			},
			{
				"type": "occ",
				"energy": -0.21753,
				"method": "rhf"
			},
			{
				"type": "unocc",
				"energy": 0.04566,
				"method": "rhf"
			},
			{
				"type": "unocc",
				"energy": 0.05362,
				"method": "rhf"
			},
			{
				"type": "unocc",
				"energy": 0.06713,
				"method": "rhf"
			},
			{
				"type": "unocc",
				"energy": 0.07665,
				"method": "rhf"
			},
			{
				"type": "unocc",
				"energy": 0.08523,
				"method": "rhf"
			}
		],
		"cosmo_sigma_profile": { 
			"-0.025": 0.0,
			"-0.024": 0.0,
			"-0.023": 0.0,
			"-0.022": 0.0,
			"-0.021": 0.0,
			"-0.02": 0.0,
			"-0.019": 0.0,
			"-0.018": 0.0,
			"-0.017": 0.0,
			"-0.016": 0.0,
			"-0.015": 0.0,
			"-0.014": 0.0,
			"-0.013": 0.806266553513,
			"-0.012": 1.65766400591,
			"-0.011": 1.93415360634,
			"-0.01": 2.43301467843,
			"-0.009": 2.77164067093,
			"-0.008": 3.53004933725,
			"-0.007": 3.98019601649,
			"-0.006": 8.37016094886,
			"-0.005": 13.0557489236,
			"-0.004": 31.9175035759,
			"-0.003": 56.4965010724,
			"-0.002": 63.4790328821,
			"-0.001": 62.066837268,
			"0.0": 64.0521203485,
			"0.001": 43.5091041386,
			"0.002": 19.2887570424,
			"0.003": 9.77254801231,
			"0.004": 8.31306546268,
			"0.005": 8.18714575635,
			"0.006": 6.49030202848,
			"0.007": 6.10279505555,
			"0.008": 5.40732088646,
			"0.009": 5.42101972178,
			"0.01": 4.35076947409,
			"0.011": 5.48168741846,
			"0.012": 4.34284129398,
			"0.013": 5.0410448545,
			"0.014": 4.66213513637,
			"0.015": 6.08315106862,
			"0.016": 2.75184910814,
			"0.017": 0.105095155985,
			"0.018": 0.0,
			"0.019": 0.0,
			"0.02": 0.0,
			"0.021": 0.0,
			"0.022": 0.0,
			"0.023": 0.0,
			"0.024": 0.0,
			"0.025": 0.0
		}
	}
}
