{
	 "smiles": "OC(=O)C1=C(CCC1)C#N", 
	 "Tm": 382.15, 
	 "num_atms": 17, 
	 "gaussian": { 
		 "optdone": 1, 
		 "sigma_profile": "yes", 
		 "theory": "DFT", 
		 "functional": "B3LYP", 
		 "basiset": "6-31G**", 
		 "properties": { 
			 "R2extent": 2326.4012, 
			 "electric_dipole_moment_norm": 5.41704447093, 
			 "electric_quadrupole_moment_norm": 28.8296371557, 
			 "total_energy": -476.146302246, 
			 "HOMO_LUMO_gap": 0.1881, 
			 "cosmo_polarized_energy": -15.24, 
			 "cosmo_cavitation_energy": 22.0, 
			 "cosmo_dispersion_energy": -15.73, 
			 "cosmo_repulsion_energy": 1.31, 
			 "cosmo_total_nonelectrostatic_energy": 7.58, 
			 "SMD_solvation_energy": 5.93 
		},
		"coords": [
			{
				"x": 1.4578685206,
				"y": 1.1233337563,
				"z": 2.8678146833,
				"element": "O" 
			},
			{
				"x": 2.2205531171,
				"y": 0.8373798309,
				"z": 1.7820972074,
				"element": "C" 
			},
			{
				"x": 3.4248644927,
				"y": 0.7043320711,
				"z": 1.8400271477,
				"element": "O" 
			},
			{
				"x": 1.3953549301,
				"y": 0.718364485,
				"z": 0.5586811162,
				"element": "C" 
			},
			{
				"x": 1.8800663256,
				"y": 0.3713627772,
				"z": -0.6549628019,
				"element": "C" 
			},
			{
				"x": 0.7752733191,
				"y": 0.2836470196,
				"z": -1.6943863759,
				"element": "C" 
			},
			{
				"x": -0.4157867889,
				"y": 0.9847827068,
				"z": -0.9972580236,
				"element": "C" 
			},
			{
				"x": -0.1031962889,
				"y": 0.9177457477,
				"z": 0.5178784312,
				"element": "C" 
			},
			{
				"x": 3.2283289699,
				"y": 0.0598518104,
				"z": -0.9952734755,
				"element": "C" 
			},
			{
				"x": 4.2898150915,
				"y": -0.2128146527,
				"z": -1.3871518801,
				"element": "N" 
			},
			{
				"x": 2.0718428825,
				"y": 1.1820728653,
				"z": 3.6190128095,
				"element": "H" 
			},
			{
				"x": 1.0614769594,
				"y": 0.7510762335,
				"z": -2.6416325734,
				"element": "H" 
			},
			{
				"x": 0.5687456601,
				"y": -0.7726182264,
				"z": -1.9146306251,
				"element": "H" 
			},
			{
				"x": -1.3762881118,
				"y": 0.5302996206,
				"z": -1.251643847,
				"element": "H" 
			},
			{
				"x": -0.4548482184,
				"y": 2.0316816608,
				"z": -1.3145397298,
				"element": "H" 
			},
			{
				"x": -0.4170226592,
				"y": 1.8131813414,
				"z": 1.0620859502,
				"element": "H" 
			},
			{
				"x": -0.6022482014,
				"y": 0.0700209524,
				"z": 1.0073819868,
				"element": "H" 
			}
		],
		 "valence_orbital": [ 
			{
				"type": "occ",
				"energy": -0.34951,
				"method": "rhf"
			},
			{
				"type": "occ",
				"energy": -0.33049,
				"method": "rhf"
			},
			{
				"type": "occ",
				"energy": -0.32665,
				"method": "rhf"
			},
			{
				"type": "occ",
				"energy": -0.28538,
				"method": "rhf"
			},
			{
				"type": "occ",
				"energy": -0.27094,
				"method": "rhf"
			},
			{
				"type": "unocc",
				"energy": -0.08284,
				"method": "rhf"
			},
			{
				"type": "unocc",
				"energy": 0.03159,
				"method": "rhf"
			},
			{
				"type": "unocc",
				"energy": 0.03711,
				"method": "rhf"
			},
			{
				"type": "unocc",
				"energy": 0.069,
				"method": "rhf"
			},
			{
				"type": "unocc",
				"energy": 0.08016,
				"method": "rhf"
			}
		],
		"cosmo_sigma_profile": { 
			"-0.025": 0.0,
			"-0.024": 0.0,
			"-0.023": 0.0,
			"-0.022": 0.0,
			"-0.021": 0.0,
			"-0.02": 0.0,
			"-0.019": 0.610015859514,
			"-0.018": 1.17335596226,
			"-0.017": 1.50822795294,
			"-0.016": 0.738356032232,
			"-0.015": 0.240646109568,
			"-0.014": 0.492170036639,
			"-0.013": 0.575320472677,
			"-0.012": 1.18483815698,
			"-0.011": 1.26978043408,
			"-0.01": 0.394109043133,
			"-0.009": 0.23117460246,
			"-0.008": 0.846155683508,
			"-0.007": 0.990232625166,
			"-0.006": 4.94716552288,
			"-0.005": 13.0322696651,
			"-0.004": 23.6458441041,
			"-0.003": 24.1394135347,
			"-0.002": 18.4789308464,
			"-0.001": 13.010631688,
			"0.0": 5.36918738236,
			"0.001": 3.82739386207,
			"0.002": 3.79226677294,
			"0.003": 4.43402714462,
			"0.004": 3.96951988013,
			"0.005": 4.31243415942,
			"0.006": 4.89787968275,
			"0.007": 5.52295319096,
			"0.008": 6.09019698489,
			"0.009": 6.79050150406,
			"0.01": 5.93053867557,
			"0.011": 7.7337819125,
			"0.012": 4.18990084732,
			"0.013": 0.750309214098,
			"0.014": 0.0,
			"0.015": 0.0,
			"0.016": 0.0,
			"0.017": 0.0,
			"0.018": 0.0,
			"0.019": 0.0,
			"0.02": 0.0,
			"0.021": 0.0,
			"0.022": 0.0,
			"0.023": 0.0,
			"0.024": 0.0,
			"0.025": 0.0
		}
	}
}
