{
	 "smiles": "CCCCCCCCCCCCCCCC(=O)OCC(COC(=O)CCCCCCCCCCCCCCC)OC(=O)CCCCCCCCCCCCCCC", 
	 "Tm": 337.35, 
	 "num_atms": 155, 
	 "gaussian": { 
		 "optdone": 1, 
		 "sigma_profile": "yes", 
		 "theory": "DFT", 
		 "functional": "B3LYP", 
		 "basiset": "6-31G**", 
		 "properties": { 
			 "R2extent": 122911.5467, 
			 "electric_dipole_moment_norm": 3.28328482468, 
			 "electric_quadrupole_moment_norm": 7.55000450066, 
			 "total_energy": -2454.00975739, 
			 "HOMO_LUMO_gap": 0.27158, 
			 "cosmo_polarized_energy": -16.76, 
			 "cosmo_cavitation_energy": 146.59, 
			 "cosmo_dispersion_energy": -93.04, 
			 "cosmo_repulsion_energy": 7.37, 
			 "cosmo_total_nonelectrostatic_energy": 60.92, 
			 "SMD_solvation_energy": 20.18 
		},
		"coords": [
			{
				"x": -11.1036566857,
				"y": -2.5848797361,
				"z": 5.6822150674,
				"element": "C" 
			},
			{
				"x": -10.982956927,
				"y": -1.5320797707,
				"z": 4.5741046563,
				"element": "C" 
			},
			{
				"x": -9.5525016502,
				"y": -1.3333674812,
				"z": 4.0412900323,
				"element": "C" 
			},
			{
				"x": -8.5164981751,
				"y": -0.8118852567,
				"z": 5.0547516277,
				"element": "C" 
			},
			{
				"x": -8.7938752344,
				"y": 0.6096390333,
				"z": 5.56398039,
				"element": "C" 
			},
			{
				"x": -7.8079961387,
				"y": 1.1526622111,
				"z": 6.6155098104,
				"element": "C" 
			},
			{
				"x": -6.3432986951,
				"y": 1.3269120663,
				"z": 6.1525145247,
				"element": "C" 
			},
			{
				"x": -5.4236620071,
				"y": 0.1277673257,
				"z": 6.4481635043,
				"element": "C" 
			},
			{
				"x": -3.9397967908,
				"y": 0.3179902466,
				"z": 6.0633084465,
				"element": "C" 
			},
			{
				"x": -3.5420856756,
				"y": -0.1086419056,
				"z": 4.6361449773,
				"element": "C" 
			},
			{
				"x": -4.1326580375,
				"y": 0.6931642561,
				"z": 3.4616244974,
				"element": "C" 
			},
			{
				"x": -3.7747545382,
				"y": 2.1898515217,
				"z": 3.411454903,
				"element": "C" 
			},
			{
				"x": -2.2812156046,
				"y": 2.4698260683,
				"z": 3.1908217129,
				"element": "C" 
			},
			{
				"x": -1.8917525535,
				"y": 3.9565876921,
				"z": 3.2202857465,
				"element": "C" 
			},
			{
				"x": -2.6105021774,
				"y": 4.8611933361,
				"z": 2.1881480949,
				"element": "C" 
			},
			{
				"x": -2.3697134138,
				"y": 4.4156333192,
				"z": 0.7655353664,
				"element": "C" 
			},
			{
				"x": -3.0527472284,
				"y": 3.6198358785,
				"z": 0.1515696723,
				"element": "O" 
			},
			{
				"x": -1.2605368654,
				"y": 5.001398193,
				"z": 0.2405995537,
				"element": "O" 
			},
			{
				"x": -0.9176987859,
				"y": 4.5978541851,
				"z": -1.0962557549,
				"element": "C" 
			},
			{
				"x": -0.1412747368,
				"y": 3.2858465782,
				"z": -1.1163875651,
				"element": "C" 
			},
			{
				"x": -0.0499973466,
				"y": 2.699505386,
				"z": -2.5279239591,
				"element": "C" 
			},
			{
				"x": -1.3706651625,
				"y": 2.428742729,
				"z": -3.0240099101,
				"element": "O" 
			},
			{
				"x": -1.9325041543,
				"y": 1.248348472,
				"z": -2.6276030062,
				"element": "C" 
			},
			{
				"x": -1.331502282,
				"y": 0.4173798405,
				"z": -1.9834505422,
				"element": "O" 
			},
			{
				"x": -3.384043054,
				"y": 1.1651725902,
				"z": -3.0447348264,
				"element": "C" 
			},
			{
				"x": -3.7039846792,
				"y": 1.5269392552,
				"z": -4.5085988276,
				"element": "C" 
			},
			{
				"x": -3.335599783,
				"y": 0.4545779821,
				"z": -5.5481518509,
				"element": "C" 
			},
			{
				"x": -1.8341074707,
				"y": 0.1590984121,
				"z": -5.6871439039,
				"element": "C" 
			},
			{
				"x": -1.4909968071,
				"y": -0.8589947927,
				"z": -6.7891011494,
				"element": "C" 
			},
			{
				"x": -1.7327497293,
				"y": -0.3680151297,
				"z": -8.2236486741,
				"element": "C" 
			},
			{
				"x": -1.3173071605,
				"y": -1.3896944673,
				"z": -9.2908582738,
				"element": "C" 
			},
			{
				"x": -1.551639365,
				"y": -0.8964452239,
				"z": -10.7258052301,
				"element": "C" 
			},
			{
				"x": -1.2208259815,
				"y": -1.9207929934,
				"z": -11.8239919422,
				"element": "C" 
			},
			{
				"x": 0.2661159507,
				"y": -2.2866635869,
				"z": -11.939365626,
				"element": "C" 
			},
			{
				"x": 0.5557364792,
				"y": -3.2505187643,
				"z": -13.0992209786,
				"element": "C" 
			},
			{
				"x": 2.0413802535,
				"y": -3.5932736458,
				"z": -13.2994765367,
				"element": "C" 
			},
			{
				"x": 2.6762467983,
				"y": -4.4043154759,
				"z": -12.1610498827,
				"element": "C" 
			},
			{
				"x": 4.1355321654,
				"y": -4.7922415815,
				"z": -12.4335418332,
				"element": "C" 
			},
			{
				"x": 4.7691280562,
				"y": -5.6026704063,
				"z": -11.2982583008,
				"element": "C" 
			},
			{
				"x": 1.2196818459,
				"y": 3.5168847166,
				"z": -0.6902874246,
				"element": "O" 
			},
			{
				"x": 1.5518014161,
				"y": 3.1796101209,
				"z": 0.5855309974,
				"element": "C" 
			},
			{
				"x": 0.7778233363,
				"y": 2.7010286588,
				"z": 1.384444181,
				"element": "O" 
			},
			{
				"x": 3.0131537257,
				"y": 3.4817269155,
				"z": 0.8449817286,
				"element": "C" 
			},
			{
				"x": 3.4514640551,
				"y": 3.172340058,
				"z": 2.2775436029,
				"element": "C" 
			},
			{
				"x": 4.9400344874,
				"y": 3.4664588312,
				"z": 2.5074406399,
				"element": "C" 
			},
			{
				"x": 5.4184446916,
				"y": 3.245598287,
				"z": 3.9521496567,
				"element": "C" 
			},
			{
				"x": 5.3622713732,
				"y": 1.7861690769,
				"z": 4.4298788123,
				"element": "C" 
			},
			{
				"x": 5.9318450413,
				"y": 1.5776954588,
				"z": 5.8472027622,
				"element": "C" 
			},
			{
				"x": 7.4695663823,
				"y": 1.6797291593,
				"z": 5.982295461,
				"element": "C" 
			},
			{
				"x": 8.2311210012,
				"y": 0.3440335459,
				"z": 5.8966334884,
				"element": "C" 
			},
			{
				"x": 8.149472694,
				"y": -0.3826753484,
				"z": 4.5460961078,
				"element": "C" 
			},
			{
				"x": 9.0696942116,
				"y": -1.6124541151,
				"z": 4.43588314,
				"element": "C" 
			},
			{
				"x": 8.779657363,
				"y": -2.7638149236,
				"z": 5.4153444103,
				"element": "C" 
			},
			{
				"x": 7.4018586711,
				"y": -3.4190921702,
				"z": 5.2463978123,
				"element": "C" 
			},
			{
				"x": 7.1857247697,
				"y": -4.6218751414,
				"z": 6.1739624416,
				"element": "C" 
			},
			{
				"x": 5.8104429536,
				"y": -5.2826762685,
				"z": 6.0152385288,
				"element": "C" 
			},
			{
				"x": 5.6049550127,
				"y": -6.4833359263,
				"z": 6.944406637,
				"element": "C" 
			},
			{
				"x": -12.148599791,
				"y": -2.7304784383,
				"z": 5.975808958,
				"element": "H" 
			},
			{
				"x": -10.5487180079,
				"y": -2.2979906086,
				"z": 6.5815284274,
				"element": "H" 
			},
			{
				"x": -10.7138974603,
				"y": -3.5543187622,
				"z": 5.3498315569,
				"element": "H" 
			},
			{
				"x": -11.38598695,
				"y": -0.5765427568,
				"z": 4.9330424553,
				"element": "H" 
			},
			{
				"x": -11.623436743,
				"y": -1.8262602201,
				"z": 3.7325943557,
				"element": "H" 
			},
			{
				"x": -9.5873311253,
				"y": -0.6419871916,
				"z": 3.1879220794,
				"element": "H" 
			},
			{
				"x": -9.1956710499,
				"y": -2.2914659419,
				"z": 3.6386962553,
				"element": "H" 
			},
			{
				"x": -8.4489508919,
				"y": -1.499479966,
				"z": 5.9087917805,
				"element": "H" 
			},
			{
				"x": -7.5324253146,
				"y": -0.8376163531,
				"z": 4.5715418691,
				"element": "H" 
			},
			{
				"x": -8.8105271745,
				"y": 1.2967018863,
				"z": 4.7051145948,
				"element": "H" 
			},
			{
				"x": -9.8015993684,
				"y": 0.6487983663,
				"z": 5.9975636697,
				"element": "H" 
			},
			{
				"x": -8.1896125621,
				"y": 2.1273211965,
				"z": 6.9450962564,
				"element": "H" 
			},
			{
				"x": -7.8334323848,
				"y": 0.5084746727,
				"z": 7.5062917583,
				"element": "H" 
			},
			{
				"x": -5.914602245,
				"y": 2.201197425,
				"z": 6.6606440316,
				"element": "H" 
			},
			{
				"x": -6.3298457138,
				"y": 1.5715059222,
				"z": 5.0834264621,
				"element": "H" 
			},
			{
				"x": -5.8077812848,
				"y": -0.7798664349,
				"z": 5.9657684486,
				"element": "H" 
			},
			{
				"x": -5.481491125,
				"y": -0.0663768201,
				"z": 7.5279057341,
				"element": "H" 
			},
			{
				"x": -3.3287813655,
				"y": -0.278125757,
				"z": 6.7532120299,
				"element": "H" 
			},
			{
				"x": -3.6474195673,
				"y": 1.3617262866,
				"z": 6.2433810129,
				"element": "H" 
			},
			{
				"x": -2.4469129278,
				"y": -0.0877305791,
				"z": 4.5672358385,
				"element": "H" 
			},
			{
				"x": -3.8227360028,
				"y": -1.1628425079,
				"z": 4.5039241909,
				"element": "H" 
			},
			{
				"x": -3.794763899,
				"y": 0.225686016,
				"z": 2.5267562499,
				"element": "H" 
			},
			{
				"x": -5.2249715726,
				"y": 0.5900673728,
				"z": 3.4632831124,
				"element": "H" 
			},
			{
				"x": -4.3450642967,
				"y": 2.6420274772,
				"z": 2.5915114441,
				"element": "H" 
			},
			{
				"x": -4.1100459106,
				"y": 2.6871794192,
				"z": 4.3324996757,
				"element": "H" 
			},
			{
				"x": -1.9661750467,
				"y": 2.0284693356,
				"z": 2.237948246,
				"element": "H" 
			},
			{
				"x": -1.6876072715,
				"y": 1.9659504998,
				"z": 3.9632209507,
				"element": "H" 
			},
			{
				"x": -0.8112533073,
				"y": 4.0384430983,
				"z": 3.0640283684,
				"element": "H" 
			},
			{
				"x": -2.1046256426,
				"y": 4.3725047328,
				"z": 4.2136896545,
				"element": "H" 
			},
			{
				"x": -2.2562900038,
				"y": 5.8895416754,
				"z": 2.3047954488,
				"element": "H" 
			},
			{
				"x": -3.6907589616,
				"y": 4.8451218026,
				"z": 2.3527752172,
				"element": "H" 
			},
			{
				"x": -0.2990389161,
				"y": 5.4059889369,
				"z": -1.4944041035,
				"element": "H" 
			},
			{
				"x": -1.8258656009,
				"y": 4.4887909272,
				"z": -1.6919476729,
				"element": "H" 
			},
			{
				"x": -0.6067204755,
				"y": 2.5595303431,
				"z": -0.4491860106,
				"element": "H" 
			},
			{
				"x": 0.3913700739,
				"y": 3.413451979,
				"z": -3.228169132,
				"element": "H" 
			},
			{
				"x": 0.5436856597,
				"y": 1.7838334296,
				"z": -2.506731445,
				"element": "H" 
			},
			{
				"x": -3.7267291214,
				"y": 0.1559723181,
				"z": -2.7998800557,
				"element": "H" 
			},
			{
				"x": -3.9126111322,
				"y": 1.8596109588,
				"z": -2.3782071991,
				"element": "H" 
			},
			{
				"x": -4.7830512358,
				"y": 1.7107779749,
				"z": -4.5724663745,
				"element": "H" 
			},
			{
				"x": -3.2148702964,
				"y": 2.4752587965,
				"z": -4.7578794499,
				"element": "H" 
			},
			{
				"x": -3.8618572259,
				"y": -0.4793530696,
				"z": -5.3027676891,
				"element": "H" 
			},
			{
				"x": -3.7350386927,
				"y": 0.7801611399,
				"z": -6.5165724471,
				"element": "H" 
			},
			{
				"x": -1.2946006559,
				"y": 1.0975947531,
				"z": -5.8788304894,
				"element": "H" 
			},
			{
				"x": -1.4504795012,
				"y": -0.2268736387,
				"z": -4.7352430652,
				"element": "H" 
			},
			{
				"x": -0.4336843888,
				"y": -1.1391873134,
				"z": -6.6891559556,
				"element": "H" 
			},
			{
				"x": -2.0632284575,
				"y": -1.7824160907,
				"z": -6.6191178255,
				"element": "H" 
			},
			{
				"x": -1.1772441571,
				"y": 0.5679503989,
				"z": -8.3819996808,
				"element": "H" 
			},
			{
				"x": -2.7927726956,
				"y": -0.1183746458,
				"z": -8.3644916901,
				"element": "H" 
			},
			{
				"x": -1.8759443045,
				"y": -2.3241438321,
				"z": -9.1349577611,
				"element": "H" 
			},
			{
				"x": -0.258350312,
				"y": -1.6427696983,
				"z": -9.1489065765,
				"element": "H" 
			},
			{
				"x": -0.9645188954,
				"y": 0.0178592454,
				"z": -10.8950618934,
				"element": "H" 
			},
			{
				"x": -2.6048736003,
				"y": -0.6007140193,
				"z": -10.8274245975,
				"element": "H" 
			},
			{
				"x": -1.8066569775,
				"y": -2.8356618398,
				"z": -11.6533803405,
				"element": "H" 
			},
			{
				"x": -1.560152469,
				"y": -1.5223181933,
				"z": -12.7900019089,
				"element": "H" 
			},
			{
				"x": 0.6115759243,
				"y": -2.7286302774,
				"z": -10.9972290173,
				"element": "H" 
			},
			{
				"x": 0.8539699774,
				"y": -1.3672814083,
				"z": -12.0793486776,
				"element": "H" 
			},
			{
				"x": -0.0124454662,
				"y": -4.1798785951,
				"z": -12.9483068243,
				"element": "H" 
			},
			{
				"x": 0.1682389227,
				"y": -2.8086794792,
				"z": -14.0275067804,
				"element": "H" 
			},
			{
				"x": 2.6110672658,
				"y": -2.6637725396,
				"z": -13.4437607221,
				"element": "H" 
			},
			{
				"x": 2.1481176165,
				"y": -4.1597021755,
				"z": -14.2348022968,
				"element": "H" 
			},
			{
				"x": 2.0847031294,
				"y": -5.3164342528,
				"z": -11.9937276788,
				"element": "H" 
			},
			{
				"x": 2.6288965397,
				"y": -3.8363454274,
				"z": -11.2223815087,
				"element": "H" 
			},
			{
				"x": 4.7251554485,
				"y": -3.8814149308,
				"z": -12.6063627848,
				"element": "H" 
			},
			{
				"x": 4.1880067213,
				"y": -5.3675811099,
				"z": -13.3680540718,
				"element": "H" 
			},
			{
				"x": 5.808427962,
				"y": -5.8642268764,
				"z": -11.5231367617,
				"element": "H" 
			},
			{
				"x": 4.221724419,
				"y": -6.5362562785,
				"z": -11.1244427043,
				"element": "H" 
			},
			{
				"x": 4.7643697715,
				"y": -5.0390094848,
				"z": -10.3581756604,
				"element": "H" 
			},
			{
				"x": 3.602989329,
				"y": 2.9084853931,
				"z": 0.1175084953,
				"element": "H" 
			},
			{
				"x": 3.1860712623,
				"y": 4.5357219268,
				"z": 0.5922461207,
				"element": "H" 
			},
			{
				"x": 3.225399172,
				"y": 2.1239003286,
				"z": 2.4969246117,
				"element": "H" 
			},
			{
				"x": 2.8444011814,
				"y": 3.7627148353,
				"z": 2.9748929067,
				"element": "H" 
			},
			{
				"x": 5.5432094021,
				"y": 2.8464178635,
				"z": 1.8282761336,
				"element": "H" 
			},
			{
				"x": 5.1438042349,
				"y": 4.5085949122,
				"z": 2.2246555066,
				"element": "H" 
			},
			{
				"x": 6.4481934517,
				"y": 3.6162822783,
				"z": 4.033364482,
				"element": "H" 
			},
			{
				"x": 4.8192928873,
				"y": 3.869142687,
				"z": 4.6314176627,
				"element": "H" 
			},
			{
				"x": 5.897049934,
				"y": 1.1516440767,
				"z": 3.7116129652,
				"element": "H" 
			},
			{
				"x": 4.3203373424,
				"y": 1.4431392325,
				"z": 4.4217655209,
				"element": "H" 
			},
			{
				"x": 5.4619365416,
				"y": 2.3171627755,
				"z": 6.509322232,
				"element": "H" 
			},
			{
				"x": 5.6084841254,
				"y": 0.5984142061,
				"z": 6.2250486121,
				"element": "H" 
			},
			{
				"x": 7.8675616353,
				"y": 2.3715677956,
				"z": 5.2274022705,
				"element": "H" 
			},
			{
				"x": 7.7095319425,
				"y": 2.1337850587,
				"z": 6.9517212965,
				"element": "H" 
			},
			{
				"x": 7.8648740532,
				"y": -0.3163945673,
				"z": 6.6943774361,
				"element": "H" 
			},
			{
				"x": 9.2892878635,
				"y": 0.5341990519,
				"z": 6.1264007408,
				"element": "H" 
			},
			{
				"x": 7.1134795909,
				"y": -0.6803891927,
				"z": 4.3436591498,
				"element": "H" 
			},
			{
				"x": 8.4212491968,
				"y": 0.3217464052,
				"z": 3.74766245,
				"element": "H" 
			},
			{
				"x": 9.0127465392,
				"y": -2.0020525588,
				"z": 3.4101218232,
				"element": "H" 
			},
			{
				"x": 10.1091514165,
				"y": -1.2856537527,
				"z": 4.5777183504,
				"element": "H" 
			},
			{
				"x": 9.5534818881,
				"y": -3.5319653612,
				"z": 5.2808787156,
				"element": "H" 
			},
			{
				"x": 8.8887706207,
				"y": -2.4116561054,
				"z": 6.4498531065,
				"element": "H" 
			},
			{
				"x": 6.6099264968,
				"y": -2.6806896387,
				"z": 5.4307558675,
				"element": "H" 
			},
			{
				"x": 7.2791128758,
				"y": -3.7397172274,
				"z": 4.2015219548,
				"element": "H" 
			},
			{
				"x": 7.3152076351,
				"y": -4.3031485982,
				"z": 7.2184782525,
				"element": "H" 
			},
			{
				"x": 7.9702047181,
				"y": -5.3697206031,
				"z": 5.988084667,
				"element": "H" 
			},
			{
				"x": 5.6806019885,
				"y": -5.6007842318,
				"z": 4.971744935,
				"element": "H" 
			},
			{
				"x": 5.0266543578,
				"y": -4.5361135137,
				"z": 6.2030561512,
				"element": "H" 
			},
			{
				"x": 5.6938208557,
				"y": -6.1898749968,
				"z": 7.996778016,
				"element": "H" 
			},
			{
				"x": 6.3524337865,
				"y": -7.2626603136,
				"z": 6.7562064267,
				"element": "H" 
			},
			{
				"x": 4.6156259509,
				"y": -6.9321863331,
				"z": 6.8073448665,
				"element": "H" 
			}
		],
		 "valence_orbital": [ 
			{
				"type": "occ",
				"energy": -0.28611,
				"method": "rhf"
			},
			{
				"type": "occ",
				"energy": -0.28383,
				"method": "rhf"
			},
			{
				"type": "occ",
				"energy": -0.27585,
				"method": "rhf"
			},
			{
				"type": "occ",
				"energy": -0.26831,
				"method": "rhf"
			},
			{
				"type": "occ",
				"energy": -0.26649,
				"method": "rhf"
			},
			{
				"type": "unocc",
				"energy": 0.00509,
				"method": "rhf"
			},
			{
				"type": "unocc",
				"energy": 0.01065,
				"method": "rhf"
			},
			{
				"type": "unocc",
				"energy": 0.0135,
				"method": "rhf"
			},
			{
				"type": "unocc",
				"energy": 0.07749,
				"method": "rhf"
			},
			{
				"type": "unocc",
				"energy": 0.07916,
				"method": "rhf"
			}
		],
		"cosmo_sigma_profile": { 
			"-0.025": 0.0,
			"-0.024": 0.0,
			"-0.023": 0.0,
			"-0.022": 0.0,
			"-0.021": 0.0,
			"-0.02": 0.0,
			"-0.019": 0.0,
			"-0.018": 0.0,
			"-0.017": 0.0,
			"-0.016": 0.0,
			"-0.015": 0.0,
			"-0.014": 0.0,
			"-0.013": 0.0,
			"-0.012": 0.0,
			"-0.011": 0.0614403285454,
			"-0.01": 0.101812874941,
			"-0.009": 0.285200592588,
			"-0.008": 1.46553386535,
			"-0.007": 5.02621874718,
			"-0.006": 6.99039059845,
			"-0.005": 16.4202189124,
			"-0.004": 23.2910252674,
			"-0.003": 40.8236761018,
			"-0.002": 134.443816549,
			"-0.001": 247.895300159,
			"0.0": 260.06925343,
			"0.001": 206.777994719,
			"0.002": 98.708546269,
			"0.003": 15.8741707813,
			"0.004": 12.8497218944,
			"0.005": 9.58015488072,
			"0.006": 7.2125717288,
			"0.007": 7.64074738847,
			"0.008": 4.80880567687,
			"0.009": 6.38552352512,
			"0.01": 4.38941888269,
			"0.011": 5.61695261005,
			"0.012": 4.25269634323,
			"0.013": 1.09229387126,
			"0.014": 0.0041211160325,
			"0.015": 0.0,
			"0.016": 0.0,
			"0.017": 0.0,
			"0.018": 0.0,
			"0.019": 0.0,
			"0.02": 0.0,
			"0.021": 0.0,
			"0.022": 0.0,
			"0.023": 0.0,
			"0.024": 0.0,
			"0.025": 0.0
		}
	}
}
