{
	 "smiles": "CC(C)=CCCC(C)=CCCC(C)=CCCC=C(C)CCC=C(C)CCC=C(C)C", 
	 "Tm": 198.15, 
	 "num_atms": 80, 
	 "gaussian": { 
		 "optdone": 1, 
		 "sigma_profile": "yes", 
		 "theory": "DFT", 
		 "functional": "B3LYP", 
		 "basiset": "6-31G**", 
		 "properties": { 
			 "R2extent": 19607.6711, 
			 "electric_dipole_moment_norm": 0.734939072305, 
			 "electric_quadrupole_moment_norm": 4.53161108989, 
			 "total_energy": -1173.28250907, 
			 "HOMO_LUMO_gap": 0.23701, 
			 "cosmo_polarized_energy": -6.63, 
			 "cosmo_cavitation_energy": 78.89, 
			 "cosmo_dispersion_energy": -44.65, 
			 "cosmo_repulsion_energy": 3.52, 
			 "cosmo_total_nonelectrostatic_energy": 37.76, 
			 "SMD_solvation_energy": 12.69 
		},
		"coords": [
			{
				"x": 5.9925732624,
				"y": 3.1372267241,
				"z": -2.2366317202,
				"element": "C" 
			},
			{
				"x": 4.5621171161,
				"y": 3.3105178872,
				"z": -1.7820840397,
				"element": "C" 
			},
			{
				"x": 3.5720131401,
				"y": 2.4169539296,
				"z": -2.4885392663,
				"element": "C" 
			},
			{
				"x": 4.24810893,
				"y": 4.2044561216,
				"z": -0.8300050988,
				"element": "C" 
			},
			{
				"x": 2.8954703454,
				"y": 4.5514848432,
				"z": -0.2691627961,
				"element": "C" 
			},
			{
				"x": 2.7662953828,
				"y": 4.4154152531,
				"z": 1.2733473655,
				"element": "C" 
			},
			{
				"x": 2.7713095276,
				"y": 2.9882752313,
				"z": 1.7959456288,
				"element": "C" 
			},
			{
				"x": 4.1337012145,
				"y": 2.3845618044,
				"z": 2.0385232892,
				"element": "C" 
			},
			{
				"x": 1.6035196038,
				"y": 2.3610765787,
				"z": 2.0153301866,
				"element": "C" 
			},
			{
				"x": 1.3668889125,
				"y": 0.9549162269,
				"z": 2.4945074757,
				"element": "C" 
			},
			{
				"x": 0.4965937907,
				"y": 0.112073288,
				"z": 1.521532317,
				"element": "C" 
			},
			{
				"x": -0.9264993359,
				"y": 0.6081063213,
				"z": 1.3414473653,
				"element": "C" 
			},
			{
				"x": -1.8236089655,
				"y": 0.4356221553,
				"z": 2.5452443944,
				"element": "C" 
			},
			{
				"x": -1.3102438743,
				"y": 1.1495763929,
				"z": 0.1724210084,
				"element": "C" 
			},
			{
				"x": -2.6488717121,
				"y": 1.7247057515,
				"z": -0.2073147815,
				"element": "C" 
			},
			{
				"x": -3.2432691103,
				"y": 1.1243829514,
				"z": -1.5026118617,
				"element": "C" 
			},
			{
				"x": -2.3971466419,
				"y": 1.3935774691,
				"z": -2.7258438248,
				"element": "C" 
			},
			{
				"x": -2.344797274,
				"y": 0.6851453604,
				"z": -3.8650816101,
				"element": "C" 
			},
			{
				"x": -1.4473163116,
				"y": 1.1208547173,
				"z": -5.0009923169,
				"element": "C" 
			},
			{
				"x": -3.1936910684,
				"y": -0.5420313179,
				"z": -4.1334448866,
				"element": "C" 
			},
			{
				"x": -2.4156574804,
				"y": -1.8820442508,
				"z": -4.2395892003,
				"element": "C" 
			},
			{
				"x": -1.7737715788,
				"y": -2.3122130241,
				"z": -2.9481279648,
				"element": "C" 
			},
			{
				"x": -2.0428877734,
				"y": -3.4002956904,
				"z": -2.2074097423,
				"element": "C" 
			},
			{
				"x": -3.0754840703,
				"y": -4.4468136517,
				"z": -2.5560855621,
				"element": "C" 
			},
			{
				"x": -1.2888348287,
				"y": -3.6548445078,
				"z": -0.9152846027,
				"element": "C" 
			},
			{
				"x": -2.0804879261,
				"y": -3.2539254652,
				"z": 0.3558241082,
				"element": "C" 
			},
			{
				"x": -1.3364157123,
				"y": -3.5953477559,
				"z": 1.618972162,
				"element": "C" 
			},
			{
				"x": -1.7582483726,
				"y": -4.2956241573,
				"z": 2.6845545483,
				"element": "C" 
			},
			{
				"x": -0.8423909273,
				"y": -4.5384836539,
				"z": 3.8614559336,
				"element": "C" 
			},
			{
				"x": -3.1343474182,
				"y": -4.897638887,
				"z": 2.833624573,
				"element": "C" 
			},
			{
				"x": 6.092694424,
				"y": 3.3391585893,
				"z": -3.311696708,
				"element": "H" 
			},
			{
				"x": 6.3346635648,
				"y": 2.1047872558,
				"z": -2.0836841449,
				"element": "H" 
			},
			{
				"x": 6.6754022127,
				"y": 3.8039364994,
				"z": -1.7025028157,
				"element": "H" 
			},
			{
				"x": 3.862817777,
				"y": 1.3634083394,
				"z": -2.3850181093,
				"element": "H" 
			},
			{
				"x": 3.558929883,
				"y": 2.6289194254,
				"z": -3.5661358614,
				"element": "H" 
			},
			{
				"x": 2.5524917312,
				"y": 2.5196987507,
				"z": -2.113571582,
				"element": "H" 
			},
			{
				"x": 5.0701526993,
				"y": 4.7857330986,
				"z": -0.4065373502,
				"element": "H" 
			},
			{
				"x": 2.6829426393,
				"y": 5.6024340993,
				"z": -0.5181437955,
				"element": "H" 
			},
			{
				"x": 2.1033579731,
				"y": 3.9591083573,
				"z": -0.7365747777,
				"element": "H" 
			},
			{
				"x": 3.5763074314,
				"y": 4.9886105156,
				"z": 1.7463590437,
				"element": "H" 
			},
			{
				"x": 1.8292318562,
				"y": 4.9011231303,
				"z": 1.5684923089,
				"element": "H" 
			},
			{
				"x": 4.7439315119,
				"y": 2.4298803408,
				"z": 1.1297671372,
				"element": "H" 
			},
			{
				"x": 4.0915542645,
				"y": 1.3448968107,
				"z": 2.369271213,
				"element": "H" 
			},
			{
				"x": 4.6725401049,
				"y": 2.9564886892,
				"z": 2.8061216347,
				"element": "H" 
			},
			{
				"x": 0.6915521896,
				"y": 2.9240840346,
				"z": 1.8123207813,
				"element": "H" 
			},
			{
				"x": 0.8720302148,
				"y": 0.9829516394,
				"z": 3.476329234,
				"element": "H" 
			},
			{
				"x": 2.3119361182,
				"y": 0.4262159454,
				"z": 2.6510693133,
				"element": "H" 
			},
			{
				"x": 0.9997763231,
				"y": 0.076309447,
				"z": 0.5488033119,
				"element": "H" 
			},
			{
				"x": 0.4688009229,
				"y": -0.9171513905,
				"z": 1.9066845743,
				"element": "H" 
			},
			{
				"x": -1.4418621417,
				"y": 0.9907125758,
				"z": 3.4112440914,
				"element": "H" 
			},
			{
				"x": -1.8614290279,
				"y": -0.6206374205,
				"z": 2.8418321981,
				"element": "H" 
			},
			{
				"x": -2.8470223931,
				"y": 0.7710183676,
				"z": 2.3681373745,
				"element": "H" 
			},
			{
				"x": -0.5602377209,
				"y": 1.1978333903,
				"z": -0.618133237,
				"element": "H" 
			},
			{
				"x": -3.3750579097,
				"y": 1.6070756356,
				"z": 0.6023064424,
				"element": "H" 
			},
			{
				"x": -2.5378082808,
				"y": 2.8100649018,
				"z": -0.3585515036,
				"element": "H" 
			},
			{
				"x": -4.2436132405,
				"y": 1.5619145945,
				"z": -1.6443791232,
				"element": "H" 
			},
			{
				"x": -3.3931106786,
				"y": 0.0484764767,
				"z": -1.3632822347,
				"element": "H" 
			},
			{
				"x": -1.7813112075,
				"y": 2.2935106176,
				"z": -2.6693794174,
				"element": "H" 
			},
			{
				"x": -0.7161404156,
				"y": 0.3457573855,
				"z": -5.2636230724,
				"element": "H" 
			},
			{
				"x": -0.8918849326,
				"y": 2.0289359234,
				"z": -4.7503194921,
				"element": "H" 
			},
			{
				"x": -2.0290354687,
				"y": 1.3185418771,
				"z": -5.9115172156,
				"element": "H" 
			},
			{
				"x": -3.967744176,
				"y": -0.6499755269,
				"z": -3.3684661969,
				"element": "H" 
			},
			{
				"x": -3.7195211699,
				"y": -0.3870384127,
				"z": -5.0871145477,
				"element": "H" 
			},
			{
				"x": -3.1056901241,
				"y": -2.6465603173,
				"z": -4.6089631071,
				"element": "H" 
			},
			{
				"x": -1.6389586656,
				"y": -1.7810788877,
				"z": -5.0107905276,
				"element": "H" 
			},
			{
				"x": -1.0011752831,
				"y": -1.636938283,
				"z": -2.5783192721,
				"element": "H" 
			},
			{
				"x": -3.7725349105,
				"y": -4.6044741091,
				"z": -1.7237157126,
				"element": "H" 
			},
			{
				"x": -2.5930310836,
				"y": -5.4158016315,
				"z": -2.7414202041,
				"element": "H" 
			},
			{
				"x": -3.6678329764,
				"y": -4.1950877882,
				"z": -3.4375263205,
				"element": "H" 
			},
			{
				"x": -0.3417671014,
				"y": -3.1025879035,
				"z": -0.9230216577,
				"element": "H" 
			},
			{
				"x": -1.0298422285,
				"y": -4.7203577456,
				"z": -0.8437478655,
				"element": "H" 
			},
			{
				"x": -2.2488428077,
				"y": -2.1687165257,
				"z": 0.3115607949,
				"element": "H" 
			},
			{
				"x": -3.0693856362,
				"y": -3.7224776798,
				"z": 0.3416416388,
				"element": "H" 
			},
			{
				"x": -0.3106370175,
				"y": -3.2225026294,
				"z": 1.6478537646,
				"element": "H" 
			},
			{
				"x": 0.1411032413,
				"y": -4.0833390354,
				"z": 3.7148689559,
				"element": "H" 
			},
			{
				"x": -0.6975710018,
				"y": -5.613606199,
				"z": 4.0337288705,
				"element": "H" 
			},
			{
				"x": -1.2704974546,
				"y": -4.1325297949,
				"z": 4.7878743347,
				"element": "H" 
			},
			{
				"x": -3.7755597499,
				"y": -4.7326724431,
				"z": 1.9660665609,
				"element": "H" 
			},
			{
				"x": -3.0659812952,
				"y": -5.980480846,
				"z": 3.0025084653,
				"element": "H" 
			},
			{
				"x": -3.645651827,
				"y": -4.4805387895,
				"z": 3.711372727,
				"element": "H" 
			}
		],
		 "valence_orbital": [ 
			{
				"type": "occ",
				"energy": -0.2333,
				"method": "rhf"
			},
			{
				"type": "occ",
				"energy": -0.22983,
				"method": "rhf"
			},
			{
				"type": "occ",
				"energy": -0.22164,
				"method": "rhf"
			},
			{
				"type": "occ",
				"energy": -0.21661,
				"method": "rhf"
			},
			{
				"type": "occ",
				"energy": -0.21172,
				"method": "rhf"
			},
			{
				"type": "unocc",
				"energy": 0.02529,
				"method": "rhf"
			},
			{
				"type": "unocc",
				"energy": 0.02847,
				"method": "rhf"
			},
			{
				"type": "unocc",
				"energy": 0.02944,
				"method": "rhf"
			},
			{
				"type": "unocc",
				"energy": 0.03293,
				"method": "rhf"
			},
			{
				"type": "unocc",
				"energy": 0.03636,
				"method": "rhf"
			}
		],
		"cosmo_sigma_profile": { 
			"-0.025": 0.0,
			"-0.024": 0.0,
			"-0.023": 0.0,
			"-0.022": 0.0,
			"-0.021": 0.0,
			"-0.02": 0.0,
			"-0.019": 0.0,
			"-0.018": 0.0,
			"-0.017": 0.0,
			"-0.016": 0.0,
			"-0.015": 0.0,
			"-0.014": 0.0,
			"-0.013": 0.0,
			"-0.012": 0.0,
			"-0.011": 0.0,
			"-0.01": 0.0,
			"-0.009": 0.0,
			"-0.008": 0.0,
			"-0.007": 0.0,
			"-0.006": 0.0,
			"-0.005": 1.8414580134,
			"-0.004": 15.9212860697,
			"-0.003": 64.5339254319,
			"-0.002": 93.0214235886,
			"-0.001": 98.6018618823,
			"0.0": 103.169038886,
			"0.001": 102.418447643,
			"0.002": 49.0029187003,
			"0.003": 31.1962464314,
			"0.004": 26.2809287843,
			"0.005": 13.3801292965,
			"0.006": 7.26495491478,
			"0.007": 4.45329206535,
			"0.008": 0.47087778727,
			"0.009": 0.0,
			"0.01": 0.0,
			"0.011": 0.0,
			"0.012": 0.0,
			"0.013": 0.0,
			"0.014": 0.0,
			"0.015": 0.0,
			"0.016": 0.0,
			"0.017": 0.0,
			"0.018": 0.0,
			"0.019": 0.0,
			"0.02": 0.0,
			"0.021": 0.0,
			"0.022": 0.0,
			"0.023": 0.0,
			"0.024": 0.0,
			"0.025": 0.0
		}
	}
}
