{
	 "smiles": "[O-][N+](=O)C1=CC(Cl)=C(C=C1)S(Cl)(=O)=O", 
	 "Tm": 349.15, 
	 "num_atms": 17, 
	 "gaussian": { 
		 "optdone": 1, 
		 "sigma_profile": "yes", 
		 "theory": "DFT", 
		 "functional": "B3LYP", 
		 "basiset": "6-31G**", 
		 "properties": { 
			 "R2extent": 5081.1299, 
			 "electric_dipole_moment_norm": 1.18929591776, 
			 "electric_quadrupole_moment_norm": 18.6407189448, 
			 "total_energy": -1904.47619283, 
			 "HOMO_LUMO_gap": 0.17, 
			 "cosmo_polarized_energy": -11.33, 
			 "cosmo_cavitation_energy": 27.84, 
			 "cosmo_dispersion_energy": -21.01, 
			 "cosmo_repulsion_energy": 1.59, 
			 "cosmo_total_nonelectrostatic_energy": 8.42, 
			 "SMD_solvation_energy": 5.63 
		},
		"coords": [
			{
				"x": -3.8745127251,
				"y": 0.6402734646,
				"z": 1.5862038964,
				"element": "O" 
			},
			{
				"x": -3.1660092287,
				"y": 0.9461175668,
				"z": 0.631743952,
				"element": "N" 
			},
			{
				"x": -3.3008704649,
				"y": 1.947063781,
				"z": -0.0658341336,
				"element": "O" 
			},
			{
				"x": -2.0545606489,
				"y": 0.0275653452,
				"z": 0.2952710772,
				"element": "C" 
			},
			{
				"x": -1.2386823232,
				"y": 0.3495279577,
				"z": -0.7828362525,
				"element": "C" 
			},
			{
				"x": -0.1863763841,
				"y": -0.5049502389,
				"z": -1.1123875105,
				"element": "C" 
			},
			{
				"x": 0.8025993881,
				"y": -0.0842742508,
				"z": -2.4762756548,
				"element": "Cl" 
			},
			{
				"x": 0.0162994565,
				"y": -1.6654574202,
				"z": -0.3451698208,
				"element": "C" 
			},
			{
				"x": -0.8232090323,
				"y": -1.9684632558,
				"z": 0.7316990063,
				"element": "C" 
			},
			{
				"x": -1.871758361,
				"y": -1.1166474977,
				"z": 1.0636842837,
				"element": "C" 
			},
			{
				"x": 1.3751761725,
				"y": -2.8258520718,
				"z": -0.6201811626,
				"element": "S" 
			},
			{
				"x": 0.7826184192,
				"y": -3.7265756941,
				"z": -2.4381938578,
				"element": "Cl" 
			},
			{
				"x": 1.2810082281,
				"y": -3.8618292106,
				"z": 0.3995888003,
				"element": "O" 
			},
			{
				"x": 2.6118929503,
				"y": -2.1036840907,
				"z": -0.8690406365,
				"element": "O" 
			},
			{
				"x": -1.4240913439,
				"y": 1.2505050815,
				"z": -1.3528962371,
				"element": "H" 
			},
			{
				"x": -0.6420370424,
				"y": -2.8720003156,
				"z": 1.3012126842,
				"element": "H" 
			},
			{
				"x": -2.5353870602,
				"y": -1.3244191505,
				"z": 1.892911566,
				"element": "H" 
			}
		],
		 "valence_orbital": [ 
			{
				"type": "occ",
				"energy": -0.33464,
				"method": "rhf"
			},
			{
				"type": "occ",
				"energy": -0.33121,
				"method": "rhf"
			},
			{
				"type": "occ",
				"energy": -0.32426,
				"method": "rhf"
			},
			{
				"type": "occ",
				"energy": -0.32215,
				"method": "rhf"
			},
			{
				"type": "occ",
				"energy": -0.30056,
				"method": "rhf"
			},
			{
				"type": "unocc",
				"energy": -0.13056,
				"method": "rhf"
			},
			{
				"type": "unocc",
				"energy": -0.09697,
				"method": "rhf"
			},
			{
				"type": "unocc",
				"energy": -0.07036,
				"method": "rhf"
			},
			{
				"type": "unocc",
				"energy": -0.05001,
				"method": "rhf"
			},
			{
				"type": "unocc",
				"energy": -0.01291,
				"method": "rhf"
			}
		],
		"cosmo_sigma_profile": { 
			"-0.025": 0.0,
			"-0.024": 0.0,
			"-0.023": 0.0,
			"-0.022": 0.0,
			"-0.021": 0.0,
			"-0.02": 0.0,
			"-0.019": 0.0,
			"-0.018": 0.0,
			"-0.017": 0.0,
			"-0.016": 0.0,
			"-0.015": 0.0,
			"-0.014": 0.0,
			"-0.013": 0.0,
			"-0.012": 0.0,
			"-0.011": 0.00175653576991,
			"-0.01": 2.35449462409,
			"-0.009": 5.42198779231,
			"-0.008": 6.14074977999,
			"-0.007": 7.29623810413,
			"-0.006": 7.65699721451,
			"-0.005": 11.0530178108,
			"-0.004": 19.9384681664,
			"-0.003": 22.8328098971,
			"-0.002": 15.9789400962,
			"-0.001": 12.2357394937,
			"0.0": 10.3760848013,
			"0.001": 15.4194816284,
			"0.002": 23.2740385823,
			"0.003": 13.2895522813,
			"0.004": 6.99130971535,
			"0.005": 6.71897293129,
			"0.006": 13.0529012057,
			"0.007": 16.0266289126,
			"0.008": 11.3675453076,
			"0.009": 2.35844838685,
			"0.01": 0.0279391213722,
			"0.011": 0.0,
			"0.012": 0.0,
			"0.013": 0.0,
			"0.014": 0.0,
			"0.015": 0.0,
			"0.016": 0.0,
			"0.017": 0.0,
			"0.018": 0.0,
			"0.019": 0.0,
			"0.02": 0.0,
			"0.021": 0.0,
			"0.022": 0.0,
			"0.023": 0.0,
			"0.024": 0.0,
			"0.025": 0.0
		}
	}
}
