{
	 "smiles": "COP(=S)(OC)OC1=CC(Cl)=C(I)C=C1Cl", 
	 "Tm": 349.15, 
	 "num_atms": 24, 
	 "gaussian": { 
		 "optdone": 1, 
		 "sigma_profile": "no", 
		 "theory": "DFT", 
		 "functional": "B3LYP", 
		 "basiset": "6-31G**", 
		 "properties": { 
			 "R2extent": 7198.9678, 
			 "electric_dipole_moment_norm": 3.14128147258, 
			 "electric_quadrupole_moment_norm": 18.0385686885, 
			 "total_energy": -2206.69696944, 
			 "HOMO_LUMO_gap": 0.18709, 
			 "cosmo_polarized_energy": -98148.62, 
			 "cosmo_cavitation_energy": 38.84, 
			 "cosmo_dispersion_energy": -28.37, 
			 "cosmo_repulsion_energy": 2.17, 
			 "cosmo_total_nonelectrostatic_energy": 12.65, 
			 "SMD_solvation_energy": 6.59 
		},
		"coords": [
			{
				"x": -1.067296965,
				"y": 0.375018756,
				"z": 3.9595238521,
				"element": "C" 
			},
			{
				"x": -0.1613270612,
				"y": -0.2035289299,
				"z": 2.9978553072,
				"element": "O" 
			},
			{
				"x": 0.967577865,
				"y": 0.7007043649,
				"z": 2.3011384815,
				"element": "P" 
			},
			{
				"x": 2.2211009741,
				"y": 1.6847680472,
				"z": 3.3828933446,
				"element": "S" 
			},
			{
				"x": 0.0526682843,
				"y": 1.5693422854,
				"z": 1.2804618533,
				"element": "O" 
			},
			{
				"x": 0.5952043009,
				"y": 2.7072351913,
				"z": 0.5781113486,
				"element": "C" 
			},
			{
				"x": 1.6982743891,
				"y": -0.4266211397,
				"z": 1.3703296596,
				"element": "O" 
			},
			{
				"x": 1.0886268938,
				"y": -1.4810015138,
				"z": 0.7214886468,
				"element": "C" 
			},
			{
				"x": -0.045993766,
				"y": -1.3151340213,
				"z": -0.0691532978,
				"element": "C" 
			},
			{
				"x": -0.5929989626,
				"y": -2.4001007,
				"z": -0.7558651756,
				"element": "C" 
			},
			{
				"x": -2.0210716394,
				"y": -2.109110135,
				"z": -1.7190188781,
				"element": "Cl" 
			},
			{
				"x": 0.0029123575,
				"y": -3.6649837308,
				"z": -0.6666611951,
				"element": "C" 
			},
			{
				"x": -0.7517902056,
				"y": -5.3571254608,
				"z": -1.6739712101,
				"element": "I" 
			},
			{
				"x": 1.146672108,
				"y": -3.8235433603,
				"z": 0.120684761,
				"element": "C" 
			},
			{
				"x": 1.6889186953,
				"y": -2.7438579635,
				"z": 0.8141396725,
				"element": "C" 
			},
			{
				"x": 3.1106705659,
				"y": -2.975577702,
				"z": 1.7922589019,
				"element": "Cl" 
			},
			{
				"x": -0.5086312227,
				"y": 0.8378958366,
				"z": 4.7773297677,
				"element": "H" 
			},
			{
				"x": -1.6689452145,
				"y": -0.4508864143,
				"z": 4.3389076924,
				"element": "H" 
			},
			{
				"x": -1.7103462178,
				"y": 1.1145938636,
				"z": 3.4749947105,
				"element": "H" 
			},
			{
				"x": 1.0595867657,
				"y": 3.4031686511,
				"z": 1.2806585109,
				"element": "H" 
			},
			{
				"x": -0.2493547786,
				"y": 3.1810674099,
				"z": 0.0768972496,
				"element": "H" 
			},
			{
				"x": 1.3320122628,
				"y": 2.3822549054,
				"z": -0.1622688454,
				"element": "H" 
			},
			{
				"x": -0.507228295,
				"y": -0.3388708116,
				"z": -0.1445832969,
				"element": "H" 
			},
			{
				"x": 1.6229588661,
				"y": -4.7925074284,
				"z": 0.2030481388,
				"element": "H" 
			}
		],
		 "valence_orbital": [ 
			{
				"type": "occ",
				"energy": -0.27568,
				"method": "rhf"
			},
			{
				"type": "occ",
				"energy": -0.26466,
				"method": "rhf"
			},
			{
				"type": "occ",
				"energy": -0.25841,
				"method": "rhf"
			},
			{
				"type": "occ",
				"energy": -0.25555,
				"method": "rhf"
			},
			{
				"type": "occ",
				"energy": -0.24511,
				"method": "rhf"
			},
			{
				"type": "unocc",
				"energy": -0.05802,
				"method": "rhf"
			},
			{
				"type": "unocc",
				"energy": -0.0404,
				"method": "rhf"
			},
			{
				"type": "unocc",
				"energy": -0.03706,
				"method": "rhf"
			},
			{
				"type": "unocc",
				"energy": 0.01086,
				"method": "rhf"
			},
			{
				"type": "unocc",
				"energy": 0.02605,
				"method": "rhf"
			}
		],
		"cosmo_sigma_profile": { 
			"0.0": 0.0,
			"0.0": 0.0,
			"0.0": 0.0,
			"0.0": 0.0,
			"0.0": 0.0,
			"0.0": 0.0,
			"0.0": 0.0,
			"0.0": 0.0,
			"0.0": 0.0,
			"0.0": 0.0,
			"0.0": 0.0,
			"0.0": 0.0,
			"0.0": 0.0,
			"0.0": 0.0,
			"0.0": 0.0,
			"0.0": 0.0,
			"0.0": 0.0,
			"0.0": 0.0,
			"0.0": 0.0,
			"0.0": 0.0,
			"0.0": 0.0,
			"0.0": 0.0,
			"0.0": 0.0,
			"0.0": 0.0,
			"0.0": 0.0,
			"0.0": 0.0,
			"0.0": 0.0,
			"0.0": 0.0,
			"0.0": 0.0,
			"0.0": 0.0,
			"0.0": 0.0,
			"0.0": 0.0,
			"0.0": 0.0,
			"0.0": 0.0,
			"0.0": 0.0,
			"0.0": 0.0,
			"0.0": 0.0,
			"0.0": 0.0,
			"0.0": 0.0,
			"0.0": 0.0,
			"0.0": 0.0,
			"0.0": 0.0,
			"0.0": 0.0,
			"0.0": 0.0,
			"0.0": 0.0,
			"0.0": 0.0,
			"0.0": 0.0,
			"0.0": 0.0,
			"0.0": 0.0,
			"0.0": 0.0,
			"0.0": 0.0
		}
	}
}
