{
	 "smiles": "OCCC1=C(NC2=C1C=CC=C2)C1CC2CCN1CC2C=C", 
	 "Tm": 459.15, 
	 "num_atms": 46, 
	 "gaussian": { 
		 "optdone": 1, 
		 "sigma_profile": "yes", 
		 "theory": "DFT", 
		 "functional": "B3LYP", 
		 "basiset": "6-31G**", 
		 "properties": { 
			 "R2extent": 7677.8456, 
			 "electric_dipole_moment_norm": 4.94482132741, 
			 "electric_quadrupole_moment_norm": 12.1559290167, 
			 "total_energy": -923.179216711, 
			 "HOMO_LUMO_gap": 0.18532, 
			 "cosmo_polarized_energy": -15.14, 
			 "cosmo_cavitation_energy": 45.07, 
			 "cosmo_dispersion_energy": -30.78, 
			 "cosmo_repulsion_energy": 2.35, 
			 "cosmo_total_nonelectrostatic_energy": 16.65, 
			 "SMD_solvation_energy": 5.93 
		},
		"coords": [
			{
				"x": -3.1758588898,
				"y": 2.5677696933,
				"z": 2.2144236828,
				"element": "O" 
			},
			{
				"x": -1.8068514818,
				"y": 2.2076902046,
				"z": 2.0784835825,
				"element": "C" 
			},
			{
				"x": -1.3893836634,
				"y": 2.018962826,
				"z": 0.6096005728,
				"element": "C" 
			},
			{
				"x": 0.0773209225,
				"y": 1.7247489079,
				"z": 0.4566237126,
				"element": "C" 
			},
			{
				"x": 0.710258996,
				"y": 0.501469215,
				"z": 0.3242882708,
				"element": "C" 
			},
			{
				"x": 2.0874216844,
				"y": 0.7115660047,
				"z": 0.29173746,
				"element": "N" 
			},
			{
				"x": 2.3639886449,
				"y": 2.0559121062,
				"z": 0.4040559512,
				"element": "C" 
			},
			{
				"x": 1.1168117095,
				"y": 2.7259525907,
				"z": 0.5031350543,
				"element": "C" 
			},
			{
				"x": 1.1097159873,
				"y": 4.1283254464,
				"z": 0.6132864976,
				"element": "C" 
			},
			{
				"x": 2.3199673985,
				"y": 4.8108123266,
				"z": 0.628070201,
				"element": "C" 
			},
			{
				"x": 3.5467506313,
				"y": 4.1214820885,
				"z": 0.5324492003,
				"element": "C" 
			},
			{
				"x": 3.5862962453,
				"y": 2.736256594,
				"z": 0.417163213,
				"element": "C" 
			},
			{
				"x": 0.1721579374,
				"y": -0.9141294232,
				"z": 0.3052478749,
				"element": "C" 
			},
			{
				"x": 1.1504144422,
				"y": -1.970067683,
				"z": -0.3193983556,
				"element": "C" 
			},
			{
				"x": 0.3233939924,
				"y": -2.9530572458,
				"z": -1.1741299097,
				"element": "C" 
			},
			{
				"x": -0.8465779588,
				"y": -3.4889645036,
				"z": -0.3254671647,
				"element": "C" 
			},
			{
				"x": -1.7784613611,
				"y": -2.2836441836,
				"z": 0.0086214198,
				"element": "C" 
			},
			{
				"x": -1.1496865638,
				"y": -1.0020468907,
				"z": -0.3575054711,
				"element": "N" 
			},
			{
				"x": -0.993353938,
				"y": -0.9317466494,
				"z": -1.8203183109,
				"element": "C" 
			},
			{
				"x": -0.2789300604,
				"y": -2.2034025446,
				"z": -2.3981682817,
				"element": "C" 
			},
			{
				"x": 0.722151855,
				"y": -1.8591527971,
				"z": -3.4656071169,
				"element": "C" 
			},
			{
				"x": 0.7047470526,
				"y": -2.3334795861,
				"z": -4.7124755388,
				"element": "C" 
			},
			{
				"x": -3.6996464473,
				"y": 1.8634447014,
				"z": 1.8107941421,
				"element": "H" 
			},
			{
				"x": -1.5721246397,
				"y": 1.2926884402,
				"z": 2.6468404432,
				"element": "H" 
			},
			{
				"x": -1.236608809,
				"y": 3.022796799,
				"z": 2.5350843516,
				"element": "H" 
			},
			{
				"x": -1.648870932,
				"y": 2.9360935151,
				"z": 0.0659005991,
				"element": "H" 
			},
			{
				"x": -1.9734376599,
				"y": 1.1991539431,
				"z": 0.1816296235,
				"element": "H" 
			},
			{
				"x": 2.7791897766,
				"y": -0.0173672499,
				"z": 0.2448374872,
				"element": "H" 
			},
			{
				"x": 0.171384657,
				"y": 4.6711511547,
				"z": 0.6879414852,
				"element": "H" 
			},
			{
				"x": 2.3254923666,
				"y": 5.8934717793,
				"z": 0.7153449785,
				"element": "H" 
			},
			{
				"x": 4.4769291385,
				"y": 4.6821020411,
				"z": 0.5476831503,
				"element": "H" 
			},
			{
				"x": 4.5311535125,
				"y": 2.2048355663,
				"z": 0.3406773588,
				"element": "H" 
			},
			{
				"x": -0.0116328277,
				"y": -1.2070481678,
				"z": 1.3486907612,
				"element": "H" 
			},
			{
				"x": 1.9025922482,
				"y": -1.4922702445,
				"z": -0.9560315333,
				"element": "H" 
			},
			{
				"x": 1.6895835742,
				"y": -2.5118125242,
				"z": 0.4665410815,
				"element": "H" 
			},
			{
				"x": 0.9577587912,
				"y": -3.7758254887,
				"z": -1.5189444672,
				"element": "H" 
			},
			{
				"x": -0.4603322746,
				"y": -3.9538387379,
				"z": 0.5895999179,
				"element": "H" 
			},
			{
				"x": -1.3896577172,
				"y": -4.2673148925,
				"z": -0.8732750692,
				"element": "H" 
			},
			{
				"x": -2.7242200374,
				"y": -2.3534118833,
				"z": -0.539181405,
				"element": "H" 
			},
			{
				"x": -2.0261105524,
				"y": -2.257298012,
				"z": 1.0754379405,
				"element": "H" 
			},
			{
				"x": -0.4207724674,
				"y": -0.0272438319,
				"z": -2.0485066414,
				"element": "H" 
			},
			{
				"x": -1.9824703924,
				"y": -0.8075197754,
				"z": -2.2734283809,
				"element": "H" 
			},
			{
				"x": -1.0284607625,
				"y": -2.867093839,
				"z": -2.8487340211,
				"element": "H" 
			},
			{
				"x": 1.5046062065,
				"y": -1.1515722123,
				"z": -3.1865326586,
				"element": "H" 
			},
			{
				"x": 1.4507922686,
				"y": -2.0422426281,
				"z": -5.4459958047,
				"element": "H" 
			},
			{
				"x": -0.0606306025,
				"y": -3.0303349498,
				"z": -5.0471898834,
				"element": "H" 
			}
		],
		 "valence_orbital": [ 
			{
				"type": "occ",
				"energy": -0.26097,
				"method": "rhf"
			},
			{
				"type": "occ",
				"energy": -0.25003,
				"method": "rhf"
			},
			{
				"type": "occ",
				"energy": -0.21557,
				"method": "rhf"
			},
			{
				"type": "occ",
				"energy": -0.21173,
				"method": "rhf"
			},
			{
				"type": "occ",
				"energy": -0.19059,
				"method": "rhf"
			},
			{
				"type": "unocc",
				"energy": -0.00527,
				"method": "rhf"
			},
			{
				"type": "unocc",
				"energy": 0.01342,
				"method": "rhf"
			},
			{
				"type": "unocc",
				"energy": 0.03404,
				"method": "rhf"
			},
			{
				"type": "unocc",
				"energy": 0.05283,
				"method": "rhf"
			},
			{
				"type": "unocc",
				"energy": 0.07429,
				"method": "rhf"
			}
		],
		"cosmo_sigma_profile": { 
			"-0.025": 0.0,
			"-0.024": 0.0,
			"-0.023": 0.0,
			"-0.022": 0.0,
			"-0.021": 0.0,
			"-0.02": 0.0,
			"-0.019": 0.0,
			"-0.018": 0.0,
			"-0.017": 0.0,
			"-0.016": 0.0,
			"-0.015": 0.571517001264,
			"-0.014": 1.74103097452,
			"-0.013": 2.12470510155,
			"-0.012": 2.28593314789,
			"-0.011": 1.61613054794,
			"-0.01": 1.65398799563,
			"-0.009": 2.60802256421,
			"-0.008": 2.14657264941,
			"-0.007": 2.6243038426,
			"-0.006": 4.07373851047,
			"-0.005": 11.4980383033,
			"-0.004": 26.3223176483,
			"-0.003": 44.3659325065,
			"-0.002": 45.8530570129,
			"-0.001": 34.6184501307,
			"0.0": 31.7936221264,
			"0.001": 22.701002587,
			"0.002": 18.656966205,
			"0.003": 17.3876859601,
			"0.004": 15.0332789864,
			"0.005": 16.5555468208,
			"0.006": 15.0979244001,
			"0.007": 13.746805111,
			"0.008": 6.38326969505,
			"0.009": 1.08734145812,
			"0.01": 1.37625123359,
			"0.011": 1.68182055025,
			"0.012": 1.21243991605,
			"0.013": 1.49656472414,
			"0.014": 2.26340005082,
			"0.015": 1.68940035986,
			"0.016": 0.0,
			"0.017": 0.0,
			"0.018": 0.0,
			"0.019": 0.0,
			"0.02": 0.0,
			"0.021": 0.0,
			"0.022": 0.0,
			"0.023": 0.0,
			"0.024": 0.0,
			"0.025": 0.0
		}
	}
}
