{
	 "smiles": "NC1=CC=C(CC2=CC=NC=C2)C=C1", 
	 "Tm": 431.15, 
	 "num_atms": 26, 
	 "gaussian": { 
		 "optdone": 1, 
		 "sigma_profile": "yes", 
		 "theory": "DFT", 
		 "functional": "B3LYP", 
		 "basiset": "6-31G**", 
		 "properties": { 
			 "R2extent": 3602.7637, 
			 "electric_dipole_moment_norm": 3.19342829104, 
			 "electric_quadrupole_moment_norm": 18.1573196805, 
			 "total_energy": -574.015585551, 
			 "HOMO_LUMO_gap": 0.18455, 
			 "cosmo_polarized_energy": -12.32, 
			 "cosmo_cavitation_energy": 29.96, 
			 "cosmo_dispersion_energy": -21.48, 
			 "cosmo_repulsion_energy": 1.7, 
			 "cosmo_total_nonelectrostatic_energy": 10.18, 
			 "SMD_solvation_energy": 3.41 
		},
		"coords": [
			{
				"x": 0.1611368082,
				"y": 2.3326570728,
				"z": -4.0571032557,
				"element": "N" 
			},
			{
				"x": -0.0443109522,
				"y": 1.4216179404,
				"z": -3.0184682801,
				"element": "C" 
			},
			{
				"x": -0.5198950324,
				"y": 1.8533321977,
				"z": -1.7666334083,
				"element": "C" 
			},
			{
				"x": -0.7787922429,
				"y": 0.9381463852,
				"z": -0.7529026598,
				"element": "C" 
			},
			{
				"x": -0.5794164526,
				"y": -0.437937473,
				"z": -0.9388049513,
				"element": "C" 
			},
			{
				"x": -0.8719614721,
				"y": -1.4266516754,
				"z": 0.1739649614,
				"element": "C" 
			},
			{
				"x": 0.0219582767,
				"y": -1.2975815195,
				"z": 1.3970606417,
				"element": "C" 
			},
			{
				"x": 1.4102542032,
				"y": -1.1520726619,
				"z": 1.2842515725,
				"element": "C" 
			},
			{
				"x": 2.184129785,
				"y": -1.0743089298,
				"z": 2.4404431762,
				"element": "C" 
			},
			{
				"x": 1.6840942176,
				"y": -1.1247086268,
				"z": 3.6833979767,
				"element": "N" 
			},
			{
				"x": 0.3570005397,
				"y": -1.2590296981,
				"z": 3.7869643086,
				"element": "C" 
			},
			{
				"x": -0.5040130613,
				"y": -1.3483074552,
				"z": 2.6917049255,
				"element": "C" 
			},
			{
				"x": -0.1061717385,
				"y": -0.8596497858,
				"z": -2.1860396585,
				"element": "C" 
			},
			{
				"x": 0.1594101919,
				"y": 0.0464506099,
				"z": -3.2116541906,
				"element": "C" 
			},
			{
				"x": 0.3454679655,
				"y": 3.282245863,
				"z": -3.7637495661,
				"element": "H" 
			},
			{
				"x": 0.8086950347,
				"y": 2.0292321927,
				"z": -4.7714804796,
				"element": "H" 
			},
			{
				"x": -0.690045238,
				"y": 2.9138011035,
				"z": -1.5960564253,
				"element": "H" 
			},
			{
				"x": -1.1391742016,
				"y": 1.3015820364,
				"z": 0.2065856024,
				"element": "H" 
			},
			{
				"x": -0.7715943804,
				"y": -2.4455655564,
				"z": -0.2225000723,
				"element": "H" 
			},
			{
				"x": -1.9163836372,
				"y": -1.3329052534,
				"z": 0.4965723516,
				"element": "H" 
			},
			{
				"x": 1.88001409,
				"y": -1.0903191846,
				"z": 0.3072076919,
				"element": "H" 
			},
			{
				"x": 3.2649014108,
				"y": -0.9631273046,
				"z": 2.3649724174,
				"element": "H" 
			},
			{
				"x": -0.0441878465,
				"y": -1.295045918,
				"z": 4.7989819798,
				"element": "H" 
			},
			{
				"x": -1.573991357,
				"y": -1.4558527562,
				"z": 2.849930335,
				"element": "H" 
			},
			{
				"x": 0.0579038962,
				"y": -1.9199102105,
				"z": -2.3651469547,
				"element": "H" 
			},
			{
				"x": 0.5216711931,
				"y": -0.3129913923,
				"z": -4.1718980384,
				"element": "H" 
			}
		],
		 "valence_orbital": [ 
			{
				"type": "occ",
				"energy": -0.26836,
				"method": "rhf"
			},
			{
				"type": "occ",
				"energy": -0.25425,
				"method": "rhf"
			},
			{
				"type": "occ",
				"energy": -0.24764,
				"method": "rhf"
			},
			{
				"type": "occ",
				"energy": -0.24558,
				"method": "rhf"
			},
			{
				"type": "occ",
				"energy": -0.20118,
				"method": "rhf"
			},
			{
				"type": "unocc",
				"energy": -0.01663,
				"method": "rhf"
			},
			{
				"type": "unocc",
				"energy": -0.00583,
				"method": "rhf"
			},
			{
				"type": "unocc",
				"energy": 0.00244,
				"method": "rhf"
			},
			{
				"type": "unocc",
				"energy": 0.01586,
				"method": "rhf"
			},
			{
				"type": "unocc",
				"energy": 0.07931,
				"method": "rhf"
			}
		],
		"cosmo_sigma_profile": { 
			"-0.025": 0.0,
			"-0.024": 0.0,
			"-0.023": 0.0,
			"-0.022": 0.0,
			"-0.021": 0.0,
			"-0.02": 0.0,
			"-0.019": 0.0,
			"-0.018": 0.0,
			"-0.017": 0.0,
			"-0.016": 0.0,
			"-0.015": 0.0,
			"-0.014": 0.0,
			"-0.013": 0.173984886769,
			"-0.012": 1.92825000906,
			"-0.011": 2.86099095123,
			"-0.01": 2.76262720669,
			"-0.009": 3.01424148223,
			"-0.008": 3.20360208936,
			"-0.007": 3.16412825394,
			"-0.006": 10.5197718689,
			"-0.005": 20.3785287801,
			"-0.004": 20.9449347739,
			"-0.003": 18.549880017,
			"-0.002": 18.2452212993,
			"-0.001": 13.7919753505,
			"0.0": 13.5395685385,
			"0.001": 13.2620121038,
			"0.002": 14.1106936629,
			"0.003": 20.5708455696,
			"0.004": 12.0721025577,
			"0.005": 10.6639039408,
			"0.006": 9.99357145802,
			"0.007": 7.97342739138,
			"0.008": 2.85701918851,
			"0.009": 2.95989809277,
			"0.01": 1.70039862423,
			"0.011": 0.897908837565,
			"0.012": 1.79425151898,
			"0.013": 1.88302243459,
			"0.014": 1.71891462815,
			"0.015": 1.29172132703,
			"0.016": 0.560161879719,
			"0.017": 0.888249857786,
			"0.018": 0.0167432900647,
			"0.019": 0.0,
			"0.02": 0.0,
			"0.021": 0.0,
			"0.022": 0.0,
			"0.023": 0.0,
			"0.024": 0.0,
			"0.025": 0.0
		}
	}
}
