{
	 "smiles": "CC1=CC=CC(C)=C1C", 
	 "Tm": 247.95, 
	 "num_atms": 21, 
	 "gaussian": { 
		 "optdone": 1, 
		 "sigma_profile": "yes", 
		 "theory": "DFT", 
		 "functional": "B3LYP", 
		 "basiset": "6-31G**", 
		 "properties": { 
			 "R2extent": 1595.2898, 
			 "electric_dipole_moment_norm": 0.658616208425, 
			 "electric_quadrupole_moment_norm": 4.34712832454, 
			 "total_energy": -350.208994645, 
			 "HOMO_LUMO_gap": 0.23429, 
			 "cosmo_polarized_energy": -3.24, 
			 "cosmo_cavitation_energy": 22.8, 
			 "cosmo_dispersion_energy": -16.88, 
			 "cosmo_repulsion_energy": 1.37, 
			 "cosmo_total_nonelectrostatic_energy": 7.28, 
			 "SMD_solvation_energy": 3.96 
		},
		"coords": [
			{
				"x": -0.477462995,
				"y": 1.0703947063,
				"z": -1.2426209126,
				"element": "C" 
			},
			{
				"x": -0.0964091762,
				"y": 0.2846431036,
				"z": -0.0071022861,
				"element": "C" 
			},
			{
				"x": 0.6331882582,
				"y": -0.9018708418,
				"z": -0.149358782,
				"element": "C" 
			},
			{
				"x": 0.9944105787,
				"y": -1.6588953198,
				"z": 0.9619238301,
				"element": "C" 
			},
			{
				"x": 0.6182517409,
				"y": -1.2323697213,
				"z": 2.232788806,
				"element": "C" 
			},
			{
				"x": -0.1115658271,
				"y": -0.0506967244,
				"z": 2.4099456678,
				"element": "C" 
			},
			{
				"x": -0.5091293999,
				"y": 0.3697671008,
				"z": 3.8078904505,
				"element": "C" 
			},
			{
				"x": -0.4675144537,
				"y": 0.7211955311,
				"z": 1.2829696882,
				"element": "C" 
			},
			{
				"x": -1.266152321,
				"y": 1.9955277231,
				"z": 1.4547045304,
				"element": "C" 
			},
			{
				"x": -0.1539351777,
				"y": 0.5502518639,
				"z": -2.1481715815,
				"element": "H" 
			},
			{
				"x": -1.5609238731,
				"y": 1.2206221365,
				"z": -1.3152516187,
				"element": "H" 
			},
			{
				"x": -0.0178832192,
				"y": 2.0665483975,
				"z": -1.2544112696,
				"element": "H" 
			},
			{
				"x": 0.9172472672,
				"y": -1.232117514,
				"z": -1.1454843081,
				"element": "H" 
			},
			{
				"x": 1.5613383572,
				"y": -2.5773664232,
				"z": 0.838050549,
				"element": "H" 
			},
			{
				"x": 0.8905831148,
				"y": -1.8218186845,
				"z": 3.10480101,
				"element": "H" 
			},
			{
				"x": -0.0509047353,
				"y": 1.3240083044,
				"z": 4.0962263196,
				"element": "H" 
			},
			{
				"x": -0.1964796927,
				"y": -0.3780604315,
				"z": 4.541540115,
				"element": "H" 
			},
			{
				"x": -1.5935927775,
				"y": 0.497074819,
				"z": 3.905103592,
				"element": "H" 
			},
			{
				"x": -1.0612759947,
				"y": 2.4797861106,
				"z": 2.4124198809,
				"element": "H" 
			},
			{
				"x": -2.3471133098,
				"y": 1.8003449404,
				"z": 1.4204447034,
				"element": "H" 
			},
			{
				"x": -1.0497763639,
				"y": 2.7220309232,
				"z": 0.6678916156,
				"element": "H" 
			}
		],
		 "valence_orbital": [ 
			{
				"type": "occ",
				"energy": -0.33187,
				"method": "rhf"
			},
			{
				"type": "occ",
				"energy": -0.32408,
				"method": "rhf"
			},
			{
				"type": "occ",
				"energy": -0.32156,
				"method": "rhf"
			},
			{
				"type": "occ",
				"energy": -0.22819,
				"method": "rhf"
			},
			{
				"type": "occ",
				"energy": -0.22645,
				"method": "rhf"
			},
			{
				"type": "unocc",
				"energy": 0.00784,
				"method": "rhf"
			},
			{
				"type": "unocc",
				"energy": 0.01391,
				"method": "rhf"
			},
			{
				"type": "unocc",
				"energy": 0.09304,
				"method": "rhf"
			},
			{
				"type": "unocc",
				"energy": 0.10763,
				"method": "rhf"
			},
			{
				"type": "unocc",
				"energy": 0.12025,
				"method": "rhf"
			}
		],
		"cosmo_sigma_profile": { 
			"-0.025": 0.0,
			"-0.024": 0.0,
			"-0.023": 0.0,
			"-0.022": 0.0,
			"-0.021": 0.0,
			"-0.02": 0.0,
			"-0.019": 0.0,
			"-0.018": 0.0,
			"-0.017": 0.0,
			"-0.016": 0.0,
			"-0.015": 0.0,
			"-0.014": 0.0,
			"-0.013": 0.0,
			"-0.012": 0.0,
			"-0.011": 0.0,
			"-0.01": 0.0,
			"-0.009": 0.0,
			"-0.008": 0.0,
			"-0.007": 0.0,
			"-0.006": 0.029932774299,
			"-0.005": 3.53598474431,
			"-0.004": 17.9046588165,
			"-0.003": 22.4913969691,
			"-0.002": 21.8043357883,
			"-0.001": 24.4338568665,
			"0.0": 25.0328472489,
			"0.001": 17.9111468344,
			"0.002": 9.46045233891,
			"0.003": 7.70342225505,
			"0.004": 6.70035505969,
			"0.005": 6.64156241124,
			"0.006": 6.99080096302,
			"0.007": 6.58654362882,
			"0.008": 1.97378560107,
			"0.009": 0.0,
			"0.01": 0.0,
			"0.011": 0.0,
			"0.012": 0.0,
			"0.013": 0.0,
			"0.014": 0.0,
			"0.015": 0.0,
			"0.016": 0.0,
			"0.017": 0.0,
			"0.018": 0.0,
			"0.019": 0.0,
			"0.02": 0.0,
			"0.021": 0.0,
			"0.022": 0.0,
			"0.023": 0.0,
			"0.024": 0.0,
			"0.025": 0.0
		}
	}
}
