{
	 "smiles": "NC(=N)NCC1COC2=CC=CC=C2O1", 
	 "Tm": 437.15, 
	 "num_atms": 28, 
	 "gaussian": { 
		 "optdone": 1, 
		 "sigma_profile": "yes", 
		 "theory": "DFT", 
		 "functional": "B3LYP", 
		 "basiset": "6-31G**", 
		 "properties": { 
			 "R2extent": 4529.1492, 
			 "electric_dipole_moment_norm": 1.02609826527, 
			 "electric_quadrupole_moment_norm": 13.1997592603, 
			 "total_energy": -703.580954429, 
			 "HOMO_LUMO_gap": 0.21453, 
			 "cosmo_polarized_energy": -18.13, 
			 "cosmo_cavitation_energy": 31.49, 
			 "cosmo_dispersion_energy": -23.09, 
			 "cosmo_repulsion_energy": 1.82, 
			 "cosmo_total_nonelectrostatic_energy": 10.22, 
			 "SMD_solvation_energy": 4.12 
		},
		"coords": [
			{
				"x": 1.9334836823,
				"y": 3.0775827925,
				"z": -2.4876057825,
				"element": "N" 
			},
			{
				"x": 2.3031765784,
				"y": 3.5537547933,
				"z": -1.2275734484,
				"element": "C" 
			},
			{
				"x": 2.9635196258,
				"y": 4.6492769085,
				"z": -1.1358748793,
				"element": "N" 
			},
			{
				"x": 1.8712937486,
				"y": 2.7468926134,
				"z": -0.1658871013,
				"element": "N" 
			},
			{
				"x": 1.861095134,
				"y": 1.2854554787,
				"z": -0.2348503752,
				"element": "C" 
			},
			{
				"x": 0.6478503354,
				"y": 0.7026169911,
				"z": 0.4911487702,
				"element": "C" 
			},
			{
				"x": -0.6804117535,
				"y": 1.0191557941,
				"z": -0.1854011362,
				"element": "C" 
			},
			{
				"x": -1.7624546519,
				"y": 0.439766444,
				"z": 0.5388306734,
				"element": "O" 
			},
			{
				"x": -1.55130546,
				"y": -0.8714551405,
				"z": 0.8946199187,
				"element": "C" 
			},
			{
				"x": -2.6478293793,
				"y": -1.6411166555,
				"z": 1.2853339474,
				"element": "C" 
			},
			{
				"x": -2.4721377043,
				"y": -2.9752935793,
				"z": 1.6492571202,
				"element": "C" 
			},
			{
				"x": -1.1975257608,
				"y": -3.5481096539,
				"z": 1.614500362,
				"element": "C" 
			},
			{
				"x": -0.0976510963,
				"y": -2.7802471773,
				"z": 1.2347804952,
				"element": "C" 
			},
			{
				"x": -0.2675555532,
				"y": -1.4414538336,
				"z": 0.8802903797,
				"element": "C" 
			},
			{
				"x": 0.844224081,
				"y": -0.7139863157,
				"z": 0.5210440573,
				"element": "O" 
			},
			{
				"x": 0.965579366,
				"y": 2.7869643611,
				"z": -2.5607070822,
				"element": "H" 
			},
			{
				"x": 2.1800140026,
				"y": 3.7556429888,
				"z": -3.1979079375,
				"element": "H" 
			},
			{
				"x": 3.2951586158,
				"y": 4.8059522433,
				"z": -0.1833858373,
				"element": "H" 
			},
			{
				"x": 2.1813202311,
				"y": 3.1084735614,
				"z": 0.7269731597,
				"element": "H" 
			},
			{
				"x": 2.7652954338,
				"y": 0.8463937141,
				"z": 0.2088070686,
				"element": "H" 
			},
			{
				"x": 1.8471468338,
				"y": 0.9835323412,
				"z": -1.2839974486,
				"element": "H" 
			},
			{
				"x": 0.6074222643,
				"y": 1.0803238555,
				"z": 1.5250824333,
				"element": "H" 
			},
			{
				"x": -0.8565391624,
				"y": 2.0961008914,
				"z": -0.206896015,
				"element": "H" 
			},
			{
				"x": -0.6669917965,
				"y": 0.6304546948,
				"z": -1.2151715027,
				"element": "H" 
			},
			{
				"x": -3.6270363685,
				"y": -1.1729766544,
				"z": 1.2907948565,
				"element": "H" 
			},
			{
				"x": -3.3307904958,
				"y": -3.5670386633,
				"z": 1.9508882474,
				"element": "H" 
			},
			{
				"x": -1.0564082807,
				"y": -4.5885607462,
				"z": 1.8900824169,
				"element": "H" 
			},
			{
				"x": 0.9052575304,
				"y": -3.1946020476,
				"z": 1.2106246398,
				"element": "H" 
			}
		],
		 "valence_orbital": [ 
			{
				"type": "occ",
				"energy": -0.2695,
				"method": "rhf"
			},
			{
				"type": "occ",
				"energy": -0.26031,
				"method": "rhf"
			},
			{
				"type": "occ",
				"energy": -0.23529,
				"method": "rhf"
			},
			{
				"type": "occ",
				"energy": -0.23137,
				"method": "rhf"
			},
			{
				"type": "occ",
				"energy": -0.21247,
				"method": "rhf"
			},
			{
				"type": "unocc",
				"energy": 0.00206,
				"method": "rhf"
			},
			{
				"type": "unocc",
				"energy": 0.01444,
				"method": "rhf"
			},
			{
				"type": "unocc",
				"energy": 0.04224,
				"method": "rhf"
			},
			{
				"type": "unocc",
				"energy": 0.05803,
				"method": "rhf"
			},
			{
				"type": "unocc",
				"energy": 0.08251,
				"method": "rhf"
			}
		],
		"cosmo_sigma_profile": { 
			"-0.025": 0.0,
			"-0.024": 0.0,
			"-0.023": 0.0,
			"-0.022": 0.0,
			"-0.021": 0.0,
			"-0.02": 0.0,
			"-0.019": 0.0,
			"-0.018": 0.0,
			"-0.017": 0.0,
			"-0.016": 0.0,
			"-0.015": 0.0,
			"-0.014": 0.284756163681,
			"-0.013": 1.82515324166,
			"-0.012": 2.54339524468,
			"-0.011": 4.38569789861,
			"-0.01": 4.71340442169,
			"-0.009": 6.3173280731,
			"-0.008": 5.47048172445,
			"-0.007": 5.71549989858,
			"-0.006": 13.4316958157,
			"-0.005": 19.7796068734,
			"-0.004": 17.7664298561,
			"-0.003": 17.9059123262,
			"-0.002": 12.4741447477,
			"-0.001": 13.5854873659,
			"0.0": 10.5813680777,
			"0.001": 11.4788930542,
			"0.002": 11.8453292586,
			"0.003": 13.2113856738,
			"0.004": 16.1610712915,
			"0.005": 13.9073509658,
			"0.006": 13.0268552518,
			"0.007": 5.05924304034,
			"0.008": 5.25263978062,
			"0.009": 4.41053246308,
			"0.01": 3.51508267322,
			"0.011": 2.52120679612,
			"0.012": 2.17519131744,
			"0.013": 1.58882626186,
			"0.014": 1.34337270916,
			"0.015": 1.39875228755,
			"0.016": 0.838935279401,
			"0.017": 1.29749287912,
			"0.018": 0.973776503032,
			"0.019": 1.22755871803,
			"0.02": 0.153031300183,
			"0.021": 0.0,
			"0.022": 0.0,
			"0.023": 0.0,
			"0.024": 0.0,
			"0.025": 0.0
		}
	}
}
