{
	 "smiles": "CCCC(C)C(O)CC", 
	 "Tm": 150.15, 
	 "num_atms": 27, 
	 "gaussian": { 
		 "optdone": 1, 
		 "sigma_profile": "yes", 
		 "theory": "DFT", 
		 "functional": "B3LYP", 
		 "basiset": "6-31G**", 
		 "properties": { 
			 "R2extent": 1771.1539, 
			 "electric_dipole_moment_norm": 1.66100540035, 
			 "electric_quadrupole_moment_norm": 3.05966025565, 
			 "total_energy": -390.935470476, 
			 "HOMO_LUMO_gap": 0.32342, 
			 "cosmo_polarized_energy": -4.68, 
			 "cosmo_cavitation_energy": 26.44, 
			 "cosmo_dispersion_energy": -19.09, 
			 "cosmo_repulsion_energy": 1.58, 
			 "cosmo_total_nonelectrostatic_energy": 8.92, 
			 "SMD_solvation_energy": 4.45 
		},
		"coords": [
			{
				"x": -1.3786942685,
				"y": 2.2391225967,
				"z": 1.9040754645,
				"element": "C" 
			},
			{
				"x": -0.0243578819,
				"y": 2.0996254057,
				"z": 1.1998045136,
				"element": "C" 
			},
			{
				"x": -0.0519538955,
				"y": 2.0511308116,
				"z": -0.3406944768,
				"element": "C" 
			},
			{
				"x": -0.6829791625,
				"y": 0.834633794,
				"z": -1.0693158066,
				"element": "C" 
			},
			{
				"x": -2.2221533842,
				"y": 0.8386579596,
				"z": -1.0791257411,
				"element": "C" 
			},
			{
				"x": -0.0954243819,
				"y": -0.5112766364,
				"z": -0.5953811042,
				"element": "C" 
			},
			{
				"x": -0.7222015825,
				"y": -0.8500885408,
				"z": 0.6476628844,
				"element": "O" 
			},
			{
				"x": -0.2570087748,
				"y": -1.6442023126,
				"z": -1.6230823901,
				"element": "C" 
			},
			{
				"x": 0.3546203119,
				"y": -2.9735338336,
				"z": -1.1669857488,
				"element": "C" 
			},
			{
				"x": -1.9710154092,
				"y": 3.0583473973,
				"z": 1.4792067459,
				"element": "H" 
			},
			{
				"x": -1.9616217114,
				"y": 1.3188774716,
				"z": 1.8277351813,
				"element": "H" 
			},
			{
				"x": -1.2382195601,
				"y": 2.4531280542,
				"z": 2.9696121689,
				"element": "H" 
			},
			{
				"x": 0.4854387771,
				"y": 1.2100983285,
				"z": 1.585506422,
				"element": "H" 
			},
			{
				"x": 0.6039834136,
				"y": 2.9573780411,
				"z": 1.4765124827,
				"element": "H" 
			},
			{
				"x": 0.9902781492,
				"y": 2.122849974,
				"z": -0.6825724809,
				"element": "H" 
			},
			{
				"x": -0.5471448774,
				"y": 2.9592319763,
				"z": -0.7132732901,
				"element": "H" 
			},
			{
				"x": -0.3626949137,
				"y": 0.9389883318,
				"z": -2.1165751927,
				"element": "H" 
			},
			{
				"x": -2.6166307752,
				"y": 0.1022889569,
				"z": -1.7869304539,
				"element": "H" 
			},
			{
				"x": -2.5963401074,
				"y": 1.8206452446,
				"z": -1.3874143026,
				"element": "H" 
			},
			{
				"x": -2.6373174692,
				"y": 0.6069166158,
				"z": -0.0978223949,
				"element": "H" 
			},
			{
				"x": 0.9871079854,
				"y": -0.3628299081,
				"z": -0.4306615443,
				"element": "H" 
			},
			{
				"x": -0.238560332,
				"y": -1.5894608132,
				"z": 1.0352995646,
				"element": "H" 
			},
			{
				"x": 0.2169485266,
				"y": -1.3292484608,
				"z": -2.5616907841,
				"element": "H" 
			},
			{
				"x": -1.3226030782,
				"y": -1.787737307,
				"z": -1.8357872882,
				"element": "H" 
			},
			{
				"x": 1.4221925446,
				"y": -2.8669966407,
				"z": -0.9382733784,
				"element": "H" 
			},
			{
				"x": 0.2588603977,
				"y": -3.7399716834,
				"z": -1.9420531862,
				"element": "H" 
			},
			{
				"x": -0.1479085404,
				"y": -3.360074823,
				"z": -0.2728758642,
				"element": "H" 
			}
		],
		 "valence_orbital": [ 
			{
				"type": "occ",
				"energy": -0.32175,
				"method": "rhf"
			},
			{
				"type": "occ",
				"energy": -0.30561,
				"method": "rhf"
			},
			{
				"type": "occ",
				"energy": -0.29768,
				"method": "rhf"
			},
			{
				"type": "occ",
				"energy": -0.2955,
				"method": "rhf"
			},
			{
				"type": "occ",
				"energy": -0.25934,
				"method": "rhf"
			},
			{
				"type": "unocc",
				"energy": 0.06408,
				"method": "rhf"
			},
			{
				"type": "unocc",
				"energy": 0.09478,
				"method": "rhf"
			},
			{
				"type": "unocc",
				"energy": 0.11846,
				"method": "rhf"
			},
			{
				"type": "unocc",
				"energy": 0.11863,
				"method": "rhf"
			},
			{
				"type": "unocc",
				"energy": 0.13667,
				"method": "rhf"
			}
		],
		"cosmo_sigma_profile": { 
			"-0.025": 0.0,
			"-0.024": 0.0,
			"-0.023": 0.0,
			"-0.022": 0.0,
			"-0.021": 0.0,
			"-0.02": 0.0,
			"-0.019": 0.0,
			"-0.018": 0.0,
			"-0.017": 0.0,
			"-0.016": 0.0,
			"-0.015": 0.0,
			"-0.014": 0.422681962218,
			"-0.013": 0.773370921381,
			"-0.012": 1.26544220065,
			"-0.011": 0.365527179072,
			"-0.01": 0.904971969661,
			"-0.009": 1.11734731283,
			"-0.008": 0.918029227009,
			"-0.007": 1.4117335653,
			"-0.006": 1.3493982022,
			"-0.005": 0.661729468862,
			"-0.004": 2.01574273253,
			"-0.003": 8.76543953387,
			"-0.002": 30.1344655597,
			"-0.001": 34.9593316343,
			"0.0": 38.2636529907,
			"0.001": 35.2862680672,
			"0.002": 23.4788996424,
			"0.003": 5.09456440234,
			"0.004": 2.3378246246,
			"0.005": 1.99624006894,
			"0.006": 1.58955007749,
			"0.007": 1.42874581068,
			"0.008": 1.66425093731,
			"0.009": 1.55863972232,
			"0.01": 1.72226704632,
			"0.011": 1.24019942095,
			"0.012": 0.600746168821,
			"0.013": 0.708467236702,
			"0.014": 0.108530184625,
			"0.015": 0.0,
			"0.016": 0.0,
			"0.017": 0.0,
			"0.018": 0.0,
			"0.019": 0.0,
			"0.02": 0.0,
			"0.021": 0.0,
			"0.022": 0.0,
			"0.023": 0.0,
			"0.024": 0.0,
			"0.025": 0.0
		}
	}
}
