{
	 "smiles": "ON1C(CCCl)OC2=CC=CC=C2C1=O", 
	 "Tm": 388.15, 
	 "num_atms": 25, 
	 "gaussian": { 
		 "optdone": 1, 
		 "sigma_profile": "yes", 
		 "theory": "DFT", 
		 "functional": "B3LYP", 
		 "basiset": "6-31G**", 
		 "properties": { 
			 "R2extent": 3652.6462, 
			 "electric_dipole_moment_norm": 2.85902654063, 
			 "electric_quadrupole_moment_norm": 13.4529490982, 
			 "total_energy": -1127.66071156, 
			 "HOMO_LUMO_gap": 0.17701, 
			 "cosmo_polarized_energy": -10.97, 
			 "cosmo_cavitation_energy": 29.81, 
			 "cosmo_dispersion_energy": -21.82, 
			 "cosmo_repulsion_energy": 1.71, 
			 "cosmo_total_nonelectrostatic_energy": 9.7, 
			 "SMD_solvation_energy": 5.01 
		},
		"coords": [
			{
				"x": 0.7683742617,
				"y": -2.5741585644,
				"z": 0.509713358,
				"element": "O" 
			},
			{
				"x": -0.0515043451,
				"y": -1.5021878438,
				"z": 0.1280192196,
				"element": "N" 
			},
			{
				"x": -0.1666542209,
				"y": -1.3966562248,
				"z": -1.3238469658,
				"element": "C" 
			},
			{
				"x": 1.1681486159,
				"y": -1.1828305284,
				"z": -2.0611856128,
				"element": "C" 
			},
			{
				"x": 1.9527906483,
				"y": 0.0618534437,
				"z": -1.6624442971,
				"element": "C" 
			},
			{
				"x": 3.4900798587,
				"y": 0.1733379986,
				"z": -2.6264195036,
				"element": "Cl" 
			},
			{
				"x": -1.1392938177,
				"y": -0.404789084,
				"z": -1.6443772521,
				"element": "O" 
			},
			{
				"x": -1.2310625374,
				"y": 0.7186540308,
				"z": -0.8667980252,
				"element": "C" 
			},
			{
				"x": -1.9192063998,
				"y": 1.8152233903,
				"z": -1.3894696643,
				"element": "C" 
			},
			{
				"x": -2.0488523774,
				"y": 2.9666078921,
				"z": -0.6147961893,
				"element": "C" 
			},
			{
				"x": -1.498218095,
				"y": 3.0375535885,
				"z": 0.6714416074,
				"element": "C" 
			},
			{
				"x": -0.8201552611,
				"y": 1.9393497811,
				"z": 1.1890784814,
				"element": "C" 
			},
			{
				"x": -0.687696257,
				"y": 0.7725981971,
				"z": 0.426773918,
				"element": "C" 
			},
			{
				"x": 0.0017350873,
				"y": -0.4136527041,
				"z": 0.9614721544,
				"element": "C" 
			},
			{
				"x": 0.5561692633,
				"y": -0.5080338249,
				"z": 2.0610004802,
				"element": "O" 
			},
			{
				"x": 1.0699621158,
				"y": -2.258845635,
				"z": 1.3925850474,
				"element": "H" 
			},
			{
				"x": -0.5910818718,
				"y": -2.3408207021,
				"z": -1.6778513634,
				"element": "H" 
			},
			{
				"x": 0.9401962898,
				"y": -1.1507720227,
				"z": -3.131351835,
				"element": "H" 
			},
			{
				"x": 1.7813686693,
				"y": -2.0706582967,
				"z": -1.8821411596,
				"element": "H" 
			},
			{
				"x": 2.2559525024,
				"y": 0.0394482103,
				"z": -0.6150034713,
				"element": "H" 
			},
			{
				"x": 1.40497189,
				"y": 0.9829738947,
				"z": -1.8596267523,
				"element": "H" 
			},
			{
				"x": -2.3360439493,
				"y": 1.7493474551,
				"z": -2.3885827914,
				"element": "H" 
			},
			{
				"x": -2.5811584143,
				"y": 3.8208901842,
				"z": -1.0226546559,
				"element": "H" 
			},
			{
				"x": -1.603751248,
				"y": 3.9422246491,
				"z": 1.2610063032,
				"element": "H" 
			},
			{
				"x": -0.3875704079,
				"y": 1.9504427155,
				"z": 2.1840589693,
				"element": "H" 
			}
		],
		 "valence_orbital": [ 
			{
				"type": "occ",
				"energy": -0.29931,
				"method": "rhf"
			},
			{
				"type": "occ",
				"energy": -0.28858,
				"method": "rhf"
			},
			{
				"type": "occ",
				"energy": -0.27588,
				"method": "rhf"
			},
			{
				"type": "occ",
				"energy": -0.25543,
				"method": "rhf"
			},
			{
				"type": "occ",
				"energy": -0.23465,
				"method": "rhf"
			},
			{
				"type": "unocc",
				"energy": -0.05764,
				"method": "rhf"
			},
			{
				"type": "unocc",
				"energy": -0.01605,
				"method": "rhf"
			},
			{
				"type": "unocc",
				"energy": 0.01388,
				"method": "rhf"
			},
			{
				"type": "unocc",
				"energy": 0.04251,
				"method": "rhf"
			},
			{
				"type": "unocc",
				"energy": 0.05707,
				"method": "rhf"
			}
		],
		"cosmo_sigma_profile": { 
			"-0.025": 0.0,
			"-0.024": 0.0,
			"-0.023": 0.0,
			"-0.022": 0.0,
			"-0.021": 0.0,
			"-0.02": 0.0,
			"-0.019": 0.0,
			"-0.018": 0.0,
			"-0.017": 0.0,
			"-0.016": 0.0,
			"-0.015": 0.0,
			"-0.014": 0.0692933001404,
			"-0.013": 0.610128822749,
			"-0.012": 0.43271068311,
			"-0.011": 0.545114262288,
			"-0.01": 0.63508940602,
			"-0.009": 2.08722247785,
			"-0.008": 3.26363263801,
			"-0.007": 9.0371495453,
			"-0.006": 18.4960665624,
			"-0.005": 19.2606353719,
			"-0.004": 17.3739254016,
			"-0.003": 14.01194483,
			"-0.002": 12.5332069243,
			"-0.001": 14.3623162066,
			"0.0": 15.2620802675,
			"0.001": 18.2761400064,
			"0.002": 17.4143099209,
			"0.003": 16.6678489858,
			"0.004": 13.2630729449,
			"0.005": 9.34481993312,
			"0.006": 13.5494212862,
			"0.007": 6.57963602735,
			"0.008": 4.02645711532,
			"0.009": 2.97767622254,
			"0.01": 2.59217779147,
			"0.011": 2.72375500865,
			"0.012": 3.24070915959,
			"0.013": 0.539921255959,
			"0.014": 0.0,
			"0.015": 0.0,
			"0.016": 0.0,
			"0.017": 0.0,
			"0.018": 0.0,
			"0.019": 0.0,
			"0.02": 0.0,
			"0.021": 0.0,
			"0.022": 0.0,
			"0.023": 0.0,
			"0.024": 0.0,
			"0.025": 0.0
		}
	}
}
