{
	 "smiles": "CC(C)(C)OC(=O)N1C[C@@H]2C[C@H]1CN2", 
	 "Tm": 348.15, 
	 "num_atms": 32, 
	 "gaussian": { 
		 "optdone": 1, 
		 "sigma_profile": "yes", 
		 "theory": "DFT", 
		 "functional": "B3LYP", 
		 "basiset": "6-31G**", 
		 "properties": { 
			 "R2extent": 3183.4156, 
			 "electric_dipole_moment_norm": 1.58780530293, 
			 "electric_quadrupole_moment_norm": 10.8030457742, 
			 "total_energy": -651.879336845, 
			 "HOMO_LUMO_gap": 0.26952, 
			 "cosmo_polarized_energy": -10.32, 
			 "cosmo_cavitation_energy": 32.09, 
			 "cosmo_dispersion_energy": -22.73, 
			 "cosmo_repulsion_energy": 1.8, 
			 "cosmo_total_nonelectrostatic_energy": 11.16, 
			 "SMD_solvation_energy": 2.72 
		},
		"coords": [
			{
				"x": 3.6526871304,
				"y": -0.0835588737,
				"z": 0.0325146024,
				"element": "C" 
			},
			{
				"x": 2.5955933742,
				"y": 0.963237095,
				"z": -0.3301849808,
				"element": "C" 
			},
			{
				"x": 2.5945798872,
				"y": 1.2325153336,
				"z": -1.8392592674,
				"element": "C" 
			},
			{
				"x": 2.7981832202,
				"y": 2.244320785,
				"z": 0.4865530487,
				"element": "C" 
			},
			{
				"x": 1.343412658,
				"y": 0.3037686265,
				"z": 0.0656353445,
				"element": "O" 
			},
			{
				"x": 0.1486479427,
				"y": 0.9363852979,
				"z": -0.0806818053,
				"element": "C" 
			},
			{
				"x": -0.0253653341,
				"y": 2.0429379127,
				"z": -0.5729950219,
				"element": "O" 
			},
			{
				"x": -0.8636559775,
				"y": 0.1706423411,
				"z": 0.418892606,
				"element": "N" 
			},
			{
				"x": -2.2743678063,
				"y": 0.5187386448,
				"z": 0.1636820957,
				"element": "C" 
			},
			{
				"x": -2.9395335159,
				"y": -0.8570772616,
				"z": 0.3913141188,
				"element": "C" 
			},
			{
				"x": -2.1145006465,
				"y": -1.3943731662,
				"z": 1.5750108746,
				"element": "C" 
			},
			{
				"x": -0.7908350613,
				"y": -1.2544828651,
				"z": 0.8005022969,
				"element": "C" 
			},
			{
				"x": -1.1017821299,
				"y": -2.0954000546,
				"z": -0.4532807273,
				"element": "C" 
			},
			{
				"x": -2.552819162,
				"y": -1.8127583838,
				"z": -0.6715318549,
				"element": "N" 
			},
			{
				"x": 3.625794461,
				"y": -0.3048295145,
				"z": 1.1035801226,
				"element": "H" 
			},
			{
				"x": 3.4792179364,
				"y": -1.0139413006,
				"z": -0.5163389216,
				"element": "H" 
			},
			{
				"x": 4.6510214017,
				"y": 0.2862041019,
				"z": -0.2197989025,
				"element": "H" 
			},
			{
				"x": 3.5716862505,
				"y": 1.6205138186,
				"z": -2.1454165446,
				"element": "H" 
			},
			{
				"x": 1.8259876822,
				"y": 1.9589117089,
				"z": -2.1034689325,
				"element": "H" 
			},
			{
				"x": 2.411275968,
				"y": 0.3040449461,
				"z": -2.389923772,
				"element": "H" 
			},
			{
				"x": 3.7838293651,
				"y": 2.6682987493,
				"z": 0.2681074721,
				"element": "H" 
			},
			{
				"x": 2.7541071774,
				"y": 2.0221037962,
				"z": 1.5576113619,
				"element": "H" 
			},
			{
				"x": 2.0338855033,
				"y": 2.9837162073,
				"z": 0.2466339462,
				"element": "H" 
			},
			{
				"x": -2.4100434587,
				"y": 0.8984213741,
				"z": -0.854737175,
				"element": "H" 
			},
			{
				"x": -2.6299910981,
				"y": 1.2899030276,
				"z": 0.8598870361,
				"element": "H" 
			},
			{
				"x": -4.0231307843,
				"y": -0.813914022,
				"z": 0.522432969,
				"element": "H" 
			},
			{
				"x": -2.3623232882,
				"y": -2.4277422214,
				"z": 1.8272664802,
				"element": "H" 
			},
			{
				"x": -2.1580727281,
				"y": -0.7627364107,
				"z": 2.4652011557,
				"element": "H" 
			},
			{
				"x": 0.1379989349,
				"y": -1.4880197102,
				"z": 1.316347265,
				"element": "H" 
			},
			{
				"x": -0.4750553803,
				"y": -1.7940945896,
				"z": -1.2991773969,
				"element": "H" 
			},
			{
				"x": -0.9367060247,
				"y": -3.1667252838,
				"z": -0.274136001,
				"element": "H" 
			},
			{
				"x": -2.7143264975,
				"y": -1.4153101085,
				"z": -1.5923414925,
				"element": "H" 
			}
		],
		 "valence_orbital": [ 
			{
				"type": "occ",
				"energy": -0.32603,
				"method": "rhf"
			},
			{
				"type": "occ",
				"energy": -0.28209,
				"method": "rhf"
			},
			{
				"type": "occ",
				"energy": -0.25542,
				"method": "rhf"
			},
			{
				"type": "occ",
				"energy": -0.24246,
				"method": "rhf"
			},
			{
				"type": "occ",
				"energy": -0.21539,
				"method": "rhf"
			},
			{
				"type": "unocc",
				"energy": 0.05413,
				"method": "rhf"
			},
			{
				"type": "unocc",
				"energy": 0.07533,
				"method": "rhf"
			},
			{
				"type": "unocc",
				"energy": 0.09089,
				"method": "rhf"
			},
			{
				"type": "unocc",
				"energy": 0.1049,
				"method": "rhf"
			},
			{
				"type": "unocc",
				"energy": 0.1163,
				"method": "rhf"
			}
		],
		"cosmo_sigma_profile": { 
			"-0.025": 0.0,
			"-0.024": 0.0,
			"-0.023": 0.0,
			"-0.022": 0.0,
			"-0.021": 0.0,
			"-0.02": 0.0,
			"-0.019": 0.0,
			"-0.018": 0.0,
			"-0.017": 0.0,
			"-0.016": 0.0,
			"-0.015": 0.0,
			"-0.014": 0.0,
			"-0.013": 0.0,
			"-0.012": 0.0,
			"-0.011": 0.0415647426668,
			"-0.01": 0.953130487031,
			"-0.009": 1.67344088578,
			"-0.008": 1.62665146781,
			"-0.007": 1.89620878302,
			"-0.006": 2.40307491719,
			"-0.005": 7.42018360902,
			"-0.004": 24.7829153764,
			"-0.003": 35.5192279266,
			"-0.002": 30.9346888665,
			"-0.001": 29.6072948625,
			"0.0": 31.5342687512,
			"0.001": 23.7385091053,
			"0.002": 9.56189008983,
			"0.003": 7.60376897584,
			"0.004": 6.31854821671,
			"0.005": 5.88733053969,
			"0.006": 4.81275939654,
			"0.007": 2.53811831558,
			"0.008": 2.41324309108,
			"0.009": 1.66117977809,
			"0.01": 2.15295133551,
			"0.011": 2.27564533154,
			"0.012": 2.34712537724,
			"0.013": 2.82611898004,
			"0.014": 3.63023613327,
			"0.015": 1.08795383241,
			"0.016": 0.0602757946138,
			"0.017": 0.381081200493,
			"0.018": 0.880057207507,
			"0.019": 0.0,
			"0.02": 0.0,
			"0.021": 0.0,
			"0.022": 0.0,
			"0.023": 0.0,
			"0.024": 0.0,
			"0.025": 0.0
		}
	}
}
