{
	 "smiles": "CC1=C(N=C(N)S1)C1=CC=C(OC(F)F)C=C1", 
	 "Tm": 379.15, 
	 "num_atms": 27, 
	 "gaussian": { 
		 "optdone": 1, 
		 "sigma_profile": "yes", 
		 "theory": "DFT", 
		 "functional": "B3LYP", 
		 "basiset": "6-31G**", 
		 "properties": { 
			 "R2extent": 6552.3552, 
			 "electric_dipole_moment_norm": 1.75182153486, 
			 "electric_quadrupole_moment_norm": 14.6595712881, 
			 "total_energy": -1207.79133201, 
			 "HOMO_LUMO_gap": 0.17409, 
			 "cosmo_polarized_energy": -12.67, 
			 "cosmo_cavitation_energy": 33.63, 
			 "cosmo_dispersion_energy": -25.01, 
			 "cosmo_repulsion_energy": 1.87, 
			 "cosmo_total_nonelectrostatic_energy": 10.49, 
			 "SMD_solvation_energy": 5.31 
		},
		"coords": [
			{
				"x": -2.7767023175,
				"y": -0.4332294261,
				"z": 0.440726695,
				"element": "C" 
			},
			{
				"x": -2.09452521,
				"y": 0.850603632,
				"z": 0.0722362098,
				"element": "C" 
			},
			{
				"x": -0.7636967262,
				"y": 1.1890407014,
				"z": 0.0264049759,
				"element": "C" 
			},
			{
				"x": -0.4833982737,
				"y": 2.5163010898,
				"z": -0.2882024449,
				"element": "N" 
			},
			{
				"x": -1.5683670813,
				"y": 3.1944300955,
				"z": -0.498841644,
				"element": "C" 
			},
			{
				"x": -1.5940072565,
				"y": 4.5453864926,
				"z": -0.7759836552,
				"element": "N" 
			},
			{
				"x": -3.0624573891,
				"y": 2.2719480601,
				"z": -0.3181283866,
				"element": "S" 
			},
			{
				"x": 0.3856040514,
				"y": 0.3018415655,
				"z": 0.301206354,
				"element": "C" 
			},
			{
				"x": 0.3821868833,
				"y": -1.0667547153,
				"z": -0.0086342529,
				"element": "C" 
			},
			{
				"x": 1.4783786682,
				"y": -1.8856619985,
				"z": 0.2659468376,
				"element": "C" 
			},
			{
				"x": 2.6089488794,
				"y": -1.3236661983,
				"z": 0.8585587718,
				"element": "C" 
			},
			{
				"x": 3.7755902531,
				"y": -2.0206941802,
				"z": 1.1768145722,
				"element": "O" 
			},
			{
				"x": 3.8177366665,
				"y": -3.3832169841,
				"z": 1.1467287583,
				"element": "C" 
			},
			{
				"x": 3.6300702564,
				"y": -3.8728680216,
				"z": -0.1133770842,
				"element": "F" 
			},
			{
				"x": 2.8505068216,
				"y": -3.9392712736,
				"z": 1.9248106188,
				"element": "F" 
			},
			{
				"x": 2.6499544751,
				"y": 0.0400354651,
				"z": 1.1548228957,
				"element": "C" 
			},
			{
				"x": 1.5523213024,
				"y": 0.8425906183,
				"z": 0.8717452008,
				"element": "C" 
			},
			{
				"x": -2.1162925245,
				"y": -1.0479498024,
				"z": 1.0573696252,
				"element": "H" 
			},
			{
				"x": -3.6890369119,
				"y": -0.2455265754,
				"z": 1.016314234,
				"element": "H" 
			},
			{
				"x": -3.063222252,
				"y": -1.0257262421,
				"z": -0.4378835298,
				"element": "H" 
			},
			{
				"x": -2.3534370372,
				"y": 4.8727415887,
				"z": -1.3562625574,
				"element": "H" 
			},
			{
				"x": -0.6885815296,
				"y": 4.8989509054,
				"z": -1.058394935,
				"element": "H" 
			},
			{
				"x": -0.4744156978,
				"y": -1.5058594011,
				"z": -0.5076472968,
				"element": "H" 
			},
			{
				"x": 1.4498353808,
				"y": -2.9334979112,
				"z": 0.0005170657,
				"element": "H" 
			},
			{
				"x": 4.8020455,
				"y": -3.691580337,
				"z": 1.5068968692,
				"element": "H" 
			},
			{
				"x": 3.5470885993,
				"y": 0.4519382011,
				"z": 1.6050814992,
				"element": "H" 
			},
			{
				"x": 1.5837724699,
				"y": 1.9042946516,
				"z": 1.0891746034,
				"element": "H" 
			}
		],
		 "valence_orbital": [ 
			{
				"type": "occ",
				"energy": -0.2741,
				"method": "rhf"
			},
			{
				"type": "occ",
				"energy": -0.26923,
				"method": "rhf"
			},
			{
				"type": "occ",
				"energy": -0.25191,
				"method": "rhf"
			},
			{
				"type": "occ",
				"energy": -0.23769,
				"method": "rhf"
			},
			{
				"type": "occ",
				"energy": -0.19612,
				"method": "rhf"
			},
			{
				"type": "unocc",
				"energy": -0.02203,
				"method": "rhf"
			},
			{
				"type": "unocc",
				"energy": -0.00358,
				"method": "rhf"
			},
			{
				"type": "unocc",
				"energy": 0.01119,
				"method": "rhf"
			},
			{
				"type": "unocc",
				"energy": 0.01624,
				"method": "rhf"
			},
			{
				"type": "unocc",
				"energy": 0.07139,
				"method": "rhf"
			}
		],
		"cosmo_sigma_profile": { 
			"-0.025": 0.0,
			"-0.024": 0.0,
			"-0.023": 0.0,
			"-0.022": 0.0,
			"-0.021": 0.0,
			"-0.02": 0.0,
			"-0.019": 0.0,
			"-0.018": 0.0,
			"-0.017": 0.0,
			"-0.016": 0.0,
			"-0.015": 0.270047454214,
			"-0.014": 1.64438646916,
			"-0.013": 2.67308166522,
			"-0.012": 2.40394892722,
			"-0.011": 3.58161915596,
			"-0.01": 6.04799316014,
			"-0.009": 3.67864840673,
			"-0.008": 2.60618993261,
			"-0.007": 4.34744088132,
			"-0.006": 7.23021435918,
			"-0.005": 12.5617235613,
			"-0.004": 15.931245629,
			"-0.003": 16.7195628808,
			"-0.002": 16.0238141195,
			"-0.001": 15.8282099549,
			"0.0": 14.0538891726,
			"0.001": 16.8783811663,
			"0.002": 26.48868469,
			"0.003": 36.5661473102,
			"0.004": 35.9181670129,
			"0.005": 10.0193135353,
			"0.006": 4.84007641096,
			"0.007": 3.93475936415,
			"0.008": 2.54372056925,
			"0.009": 2.22147991594,
			"0.01": 1.92187773401,
			"0.011": 1.57389942403,
			"0.012": 1.39535621662,
			"0.013": 0.508663658236,
			"0.014": 0.577795935303,
			"0.015": 0.0,
			"0.016": 0.0,
			"0.017": 0.0,
			"0.018": 0.0,
			"0.019": 0.0,
			"0.02": 0.0,
			"0.021": 0.0,
			"0.022": 0.0,
			"0.023": 0.0,
			"0.024": 0.0,
			"0.025": 0.0
		}
	}
}
