{
	 "smiles": "CC1=CNC(=O)N1C1=C(N)C=CC=C1", 
	 "Tm": 468.15, 
	 "num_atms": 25, 
	 "gaussian": { 
		 "optdone": 1, 
		 "sigma_profile": "yes", 
		 "theory": "DFT", 
		 "functional": "B3LYP", 
		 "basiset": "6-31G**", 
		 "properties": { 
			 "R2extent": 3102.556, 
			 "electric_dipole_moment_norm": 2.73383526204, 
			 "electric_quadrupole_moment_norm": 14.1980540001, 
			 "total_energy": -627.194916027, 
			 "HOMO_LUMO_gap": 0.18975, 
			 "cosmo_polarized_energy": -15.16, 
			 "cosmo_cavitation_energy": 28.0, 
			 "cosmo_dispersion_energy": -20.53, 
			 "cosmo_repulsion_energy": 1.61, 
			 "cosmo_total_nonelectrostatic_energy": 9.08, 
			 "SMD_solvation_energy": 5.57 
		},
		"coords": [
			{
				"x": -0.6169257329,
				"y": 1.741721732,
				"z": -2.6382259845,
				"element": "C" 
			},
			{
				"x": -0.4017865371,
				"y": 2.0732722964,
				"z": -1.1995024105,
				"element": "C" 
			},
			{
				"x": 0.0409668303,
				"y": 3.2269152583,
				"z": -0.6479428318,
				"element": "C" 
			},
			{
				"x": -0.0141784051,
				"y": 3.0870720204,
				"z": 0.7388263175,
				"element": "N" 
			},
			{
				"x": -0.5132647799,
				"y": 1.850701673,
				"z": 1.0881330044,
				"element": "C" 
			},
			{
				"x": -0.7389751402,
				"y": 1.4199363488,
				"z": 2.2211092068,
				"element": "O" 
			},
			{
				"x": -0.7331996014,
				"y": 1.2065007688,
				"z": -0.1320586708,
				"element": "N" 
			},
			{
				"x": -1.1740563905,
				"y": -0.1479805658,
				"z": -0.2565249648,
				"element": "C" 
			},
			{
				"x": -2.3774306732,
				"y": -0.5769883738,
				"z": 0.3546633813,
				"element": "C" 
			},
			{
				"x": -3.1402244385,
				"y": 0.2946764121,
				"z": 1.12571592,
				"element": "N" 
			},
			{
				"x": -2.7960379593,
				"y": -1.8986246379,
				"z": 0.1102777038,
				"element": "C" 
			},
			{
				"x": -2.0557063462,
				"y": -2.7634468694,
				"z": -0.6883052541,
				"element": "C" 
			},
			{
				"x": -0.8473035407,
				"y": -2.3442431764,
				"z": -1.2491639379,
				"element": "C" 
			},
			{
				"x": -0.4131341621,
				"y": -1.0413856816,
				"z": -1.0169774201,
				"element": "C" 
			},
			{
				"x": -1.6439937989,
				"y": 1.4051177031,
				"z": -2.8169501576,
				"element": "H" 
			},
			{
				"x": 0.0483586762,
				"y": 0.952268705,
				"z": -3.0022194434,
				"element": "H" 
			},
			{
				"x": -0.4403809095,
				"y": 2.6354421843,
				"z": -3.242352873,
				"element": "H" 
			},
			{
				"x": 0.3673487583,
				"y": 4.1370512285,
				"z": -1.1249113251,
				"element": "H" 
			},
			{
				"x": 0.2078034761,
				"y": 3.7821109595,
				"z": 1.4319573978,
				"element": "H" 
			},
			{
				"x": -2.5698005454,
				"y": 0.8390799554,
				"z": 1.7734533128,
				"element": "H" 
			},
			{
				"x": -3.8991449304,
				"y": -0.1704618086,
				"z": 1.607571225,
				"element": "H" 
			},
			{
				"x": -3.7222095462,
				"y": -2.2402069086,
				"z": 0.5666486525,
				"element": "H" 
			},
			{
				"x": -2.4142176728,
				"y": -3.7753222224,
				"z": -0.8549141646,
				"element": "H" 
			},
			{
				"x": -0.2466729106,
				"y": -3.021533332,
				"z": -1.8474891098,
				"element": "H" 
			},
			{
				"x": 0.5343662801,
				"y": -0.7005736689,
				"z": -1.4222175739,
				"element": "H" 
			}
		],
		 "valence_orbital": [ 
			{
				"type": "occ",
				"energy": -0.29983,
				"method": "rhf"
			},
			{
				"type": "occ",
				"energy": -0.26076,
				"method": "rhf"
			},
			{
				"type": "occ",
				"energy": -0.24245,
				"method": "rhf"
			},
			{
				"type": "occ",
				"energy": -0.20159,
				"method": "rhf"
			},
			{
				"type": "occ",
				"energy": -0.19228,
				"method": "rhf"
			},
			{
				"type": "unocc",
				"energy": -0.00253,
				"method": "rhf"
			},
			{
				"type": "unocc",
				"energy": 0.01708,
				"method": "rhf"
			},
			{
				"type": "unocc",
				"energy": 0.04384,
				"method": "rhf"
			},
			{
				"type": "unocc",
				"energy": 0.06842,
				"method": "rhf"
			},
			{
				"type": "unocc",
				"energy": 0.08149,
				"method": "rhf"
			}
		],
		"cosmo_sigma_profile": { 
			"-0.025": 0.0,
			"-0.024": 0.0,
			"-0.023": 0.0,
			"-0.022": 0.0,
			"-0.021": 0.0,
			"-0.02": 0.0,
			"-0.019": 0.0,
			"-0.018": 0.0,
			"-0.017": 0.0618350485806,
			"-0.016": 1.10825027307,
			"-0.015": 1.47901167192,
			"-0.014": 0.807386223533,
			"-0.013": 0.696113327902,
			"-0.012": 2.11461236302,
			"-0.011": 2.61785115994,
			"-0.01": 2.4461514536,
			"-0.009": 2.71629990382,
			"-0.008": 4.8044608276,
			"-0.007": 5.20133616716,
			"-0.006": 10.5049190624,
			"-0.005": 14.2843936882,
			"-0.004": 15.3349183776,
			"-0.003": 15.5065850683,
			"-0.002": 13.8341460529,
			"-0.001": 16.119798431,
			"0.0": 15.4652548777,
			"0.001": 12.4952400309,
			"0.002": 12.717212487,
			"0.003": 12.7478578161,
			"0.004": 12.8214717941,
			"0.005": 11.8759897822,
			"0.006": 10.3152282599,
			"0.007": 3.84781968788,
			"0.008": 2.68122178101,
			"0.009": 2.00329876422,
			"0.01": 1.57692913399,
			"0.011": 2.57164821734,
			"0.012": 2.05877075401,
			"0.013": 3.21251339893,
			"0.014": 4.5309739943,
			"0.015": 2.2123792556,
			"0.016": 0.00662011021834,
			"0.017": 0.0,
			"0.018": 0.0,
			"0.019": 0.0,
			"0.02": 0.0,
			"0.021": 0.0,
			"0.022": 0.0,
			"0.023": 0.0,
			"0.024": 0.0,
			"0.025": 0.0
		}
	}
}
