{
	 "smiles": "O=C(NC1CC1)NC1=CC(=CC=C1)C#N", 
	 "Tm": 413.15, 
	 "num_atms": 26, 
	 "gaussian": { 
		 "optdone": 1, 
		 "sigma_profile": "yes", 
		 "theory": "DFT", 
		 "functional": "B3LYP", 
		 "basiset": "6-31G**", 
		 "properties": { 
			 "R2extent": 4652.7547, 
			 "electric_dipole_moment_norm": 4.54403167022, 
			 "electric_quadrupole_moment_norm": 25.8807002177, 
			 "total_energy": -665.250758732, 
			 "HOMO_LUMO_gap": 0.17869, 
			 "cosmo_polarized_energy": -18.78, 
			 "cosmo_cavitation_energy": 31.73, 
			 "cosmo_dispersion_energy": -22.12, 
			 "cosmo_repulsion_energy": 1.76, 
			 "cosmo_total_nonelectrostatic_energy": 11.37, 
			 "SMD_solvation_energy": 6.82 
		},
		"coords": [
			{
				"x": 0.1627514714,
				"y": 2.8419560996,
				"z": 0.1038845366,
				"element": "O" 
			},
			{
				"x": -0.0195421698,
				"y": 1.7168664906,
				"z": 0.54427006,
				"element": "C" 
			},
			{
				"x": 0.5957694417,
				"y": 1.2238536275,
				"z": 1.6663196405,
				"element": "N" 
			},
			{
				"x": 1.478189368,
				"y": 2.0362298466,
				"z": 2.4561530051,
				"element": "C" 
			},
			{
				"x": 2.736959247,
				"y": 1.396115358,
				"z": 2.9846331757,
				"element": "C" 
			},
			{
				"x": 2.8169284914,
				"y": 2.4410209593,
				"z": 1.8996590783,
				"element": "C" 
			},
			{
				"x": -0.8814624474,
				"y": 0.8370710123,
				"z": -0.1315068864,
				"element": "N" 
			},
			{
				"x": -1.3820432939,
				"y": -0.4263967013,
				"z": 0.2132463804,
				"element": "C" 
			},
			{
				"x": -1.5883648663,
				"y": -1.369507458,
				"z": -0.804620566,
				"element": "C" 
			},
			{
				"x": -2.1312279837,
				"y": -2.626220089,
				"z": -0.5064447699,
				"element": "C" 
			},
			{
				"x": -2.4561922102,
				"y": -2.9698793977,
				"z": 0.8163920309,
				"element": "C" 
			},
			{
				"x": -2.2529554038,
				"y": -2.0292811229,
				"z": 1.8220414193,
				"element": "C" 
			},
			{
				"x": -1.7391829151,
				"y": -0.7653328122,
				"z": 1.5318461929,
				"element": "C" 
			},
			{
				"x": -2.3390878733,
				"y": -3.5741342605,
				"z": -1.5641633298,
				"element": "C" 
			},
			{
				"x": -2.5082433681,
				"y": -4.3437281731,
				"z": -2.419607104,
				"element": "N" 
			},
			{
				"x": 0.4802171335,
				"y": 0.2539407772,
				"z": 1.9163904912,
				"element": "H" 
			},
			{
				"x": 0.9767431777,
				"y": 2.7568175688,
				"z": 3.099366399,
				"element": "H" 
			},
			{
				"x": 3.0526022194,
				"y": 1.6532622759,
				"z": 3.990760002,
				"element": "H" 
			},
			{
				"x": 2.9329574743,
				"y": 0.3647173761,
				"z": 2.70447727,
				"element": "H" 
			},
			{
				"x": 3.0492034835,
				"y": 2.1124041776,
				"z": 0.8928831214,
				"element": "H" 
			},
			{
				"x": 3.1860060636,
				"y": 3.4301689255,
				"z": 2.1498912237,
				"element": "H" 
			},
			{
				"x": -1.1055245124,
				"y": 1.1921867793,
				"z": -1.0506379433,
				"element": "H" 
			},
			{
				"x": -1.3207628984,
				"y": -1.1279499117,
				"z": -1.8282188098,
				"element": "H" 
			},
			{
				"x": -2.8660247191,
				"y": -3.9487502046,
				"z": 1.0372338487,
				"element": "H" 
			},
			{
				"x": -2.5207992877,
				"y": -2.2706585881,
				"z": 2.8460851598,
				"element": "H" 
			},
			{
				"x": -1.6462136225,
				"y": -0.0265725551,
				"z": 2.3200663738,
				"element": "H" 
			}
		],
		 "valence_orbital": [ 
			{
				"type": "occ",
				"energy": -0.30823,
				"method": "rhf"
			},
			{
				"type": "occ",
				"energy": -0.27783,
				"method": "rhf"
			},
			{
				"type": "occ",
				"energy": -0.26622,
				"method": "rhf"
			},
			{
				"type": "occ",
				"energy": -0.25702,
				"method": "rhf"
			},
			{
				"type": "occ",
				"energy": -0.23973,
				"method": "rhf"
			},
			{
				"type": "unocc",
				"energy": -0.06104,
				"method": "rhf"
			},
			{
				"type": "unocc",
				"energy": -0.0324,
				"method": "rhf"
			},
			{
				"type": "unocc",
				"energy": 0.03122,
				"method": "rhf"
			},
			{
				"type": "unocc",
				"energy": 0.04479,
				"method": "rhf"
			},
			{
				"type": "unocc",
				"energy": 0.07142,
				"method": "rhf"
			}
		],
		"cosmo_sigma_profile": { 
			"-0.025": 0.0,
			"-0.024": 0.0,
			"-0.023": 0.0,
			"-0.022": 0.0,
			"-0.021": 0.0,
			"-0.02": 0.0,
			"-0.019": 0.0,
			"-0.018": 0.0,
			"-0.017": 0.0,
			"-0.016": 0.0,
			"-0.015": 0.159506328757,
			"-0.014": 0.839312378476,
			"-0.013": 1.18321016739,
			"-0.012": 2.24776579065,
			"-0.011": 2.06912753373,
			"-0.01": 2.0349585337,
			"-0.009": 3.34080812746,
			"-0.008": 6.08644119816,
			"-0.007": 10.017798151,
			"-0.006": 12.3007008183,
			"-0.005": 17.7381307452,
			"-0.004": 17.6468552246,
			"-0.003": 16.8534344134,
			"-0.002": 17.936047523,
			"-0.001": 17.9614181093,
			"0.0": 24.4165370958,
			"0.001": 19.2607723977,
			"0.002": 16.7825537417,
			"0.003": 11.6026503677,
			"0.004": 5.40108767016,
			"0.005": 4.6566331701,
			"0.006": 3.67320218943,
			"0.007": 4.79898939238,
			"0.008": 5.0515129529,
			"0.009": 5.12915110827,
			"0.01": 4.07515597766,
			"0.011": 3.96405704258,
			"0.012": 4.06070217931,
			"0.013": 4.25752538799,
			"0.014": 6.28402232268,
			"0.015": 2.13728450444,
			"0.016": 0.0,
			"0.017": 0.0,
			"0.018": 0.0,
			"0.019": 0.0,
			"0.02": 0.0,
			"0.021": 0.0,
			"0.022": 0.0,
			"0.023": 0.0,
			"0.024": 0.0,
			"0.025": 0.0
		}
	}
}
