{
	 "smiles": "CC1=NC(=CS1)C(O)=O", 
	 "Tm": 421.15, 
	 "num_atms": 14, 
	 "gaussian": { 
		 "optdone": 1, 
		 "sigma_profile": "yes", 
		 "theory": "DFT", 
		 "functional": "B3LYP", 
		 "basiset": "6-31G**", 
		 "properties": { 
			 "R2extent": 1986.8689, 
			 "electric_dipole_moment_norm": 5.64597575181, 
			 "electric_quadrupole_moment_norm": 14.5027330128, 
			 "total_energy": -796.942279258, 
			 "HOMO_LUMO_gap": 0.2066, 
			 "cosmo_polarized_energy": -11.59, 
			 "cosmo_cavitation_energy": 20.44, 
			 "cosmo_dispersion_energy": -15.85, 
			 "cosmo_repulsion_energy": 1.26, 
			 "cosmo_total_nonelectrostatic_energy": 5.85, 
			 "SMD_solvation_energy": 3.92 
		},
		"coords": [
			{
				"x": 0.929818088,
				"y": 1.7882586008,
				"z": -2.8013804134,
				"element": "C" 
			},
			{
				"x": 0.8205297066,
				"y": 1.198123511,
				"z": -1.4299287809,
				"element": "C" 
			},
			{
				"x": 1.6330498227,
				"y": 1.4538453088,
				"z": -0.4452426254,
				"element": "N" 
			},
			{
				"x": 1.2847688352,
				"y": 0.7650285632,
				"z": 0.7001192796,
				"element": "C" 
			},
			{
				"x": 0.1843463767,
				"y": -0.0374643691,
				"z": 0.6010217631,
				"element": "C" 
			},
			{
				"x": -0.4604582676,
				"y": 0.0614889696,
				"z": -0.9974371004,
				"element": "S" 
			},
			{
				"x": 2.1094964458,
				"y": 0.9389849367,
				"z": 1.9315024477,
				"element": "C" 
			},
			{
				"x": 3.1455452091,
				"y": 1.7876407908,
				"z": 1.7729191362,
				"element": "O" 
			},
			{
				"x": 1.878737628,
				"y": 0.3764945152,
				"z": 2.9768656141,
				"element": "O" 
			},
			{
				"x": 0.0342977699,
				"y": 2.3612436718,
				"z": -3.0630236862,
				"element": "H" 
			},
			{
				"x": 1.793170369,
				"y": 2.4555130511,
				"z": -2.8258212555,
				"element": "H" 
			},
			{
				"x": 1.063103989,
				"y": 1.0118044602,
				"z": -3.5616949609,
				"element": "H" 
			},
			{
				"x": -0.2509042318,
				"y": -0.6546861037,
				"z": 1.3732138465,
				"element": "H" 
			},
			{
				"x": 3.1229982595,
				"y": 2.1107240937,
				"z": 0.8522867356,
				"element": "H" 
			}
		],
		 "valence_orbital": [ 
			{
				"type": "occ",
				"energy": -0.31102,
				"method": "rhf"
			},
			{
				"type": "occ",
				"energy": -0.30831,
				"method": "rhf"
			},
			{
				"type": "occ",
				"energy": -0.30773,
				"method": "rhf"
			},
			{
				"type": "occ",
				"energy": -0.27049,
				"method": "rhf"
			},
			{
				"type": "occ",
				"energy": -0.26387,
				"method": "rhf"
			},
			{
				"type": "unocc",
				"energy": -0.05727,
				"method": "rhf"
			},
			{
				"type": "unocc",
				"energy": -0.01786,
				"method": "rhf"
			},
			{
				"type": "unocc",
				"energy": -0.00382,
				"method": "rhf"
			},
			{
				"type": "unocc",
				"energy": 0.07199,
				"method": "rhf"
			},
			{
				"type": "unocc",
				"energy": 0.09907,
				"method": "rhf"
			}
		],
		"cosmo_sigma_profile": { 
			"-0.025": 0.0,
			"-0.024": 0.0,
			"-0.023": 0.0,
			"-0.022": 0.0,
			"-0.021": 0.0,
			"-0.02": 0.0,
			"-0.019": 0.0,
			"-0.018": 0.0,
			"-0.017": 0.0,
			"-0.016": 0.0,
			"-0.015": 0.0,
			"-0.014": 0.117289873526,
			"-0.013": 0.784730879831,
			"-0.012": 0.434486493051,
			"-0.011": 0.94261255261,
			"-0.01": 2.26106526819,
			"-0.009": 2.19357495173,
			"-0.008": 2.19824348878,
			"-0.007": 3.80924735924,
			"-0.006": 11.5566165028,
			"-0.005": 11.0786012902,
			"-0.004": 10.4044915178,
			"-0.003": 12.3876480765,
			"-0.002": 15.3435242127,
			"-0.001": 14.682107469,
			"0.0": 15.6629555335,
			"0.001": 13.2163188241,
			"0.002": 7.96222872006,
			"0.003": 3.7856736648,
			"0.004": 3.62270096695,
			"0.005": 3.71568239146,
			"0.006": 3.88145307683,
			"0.007": 2.5868451552,
			"0.008": 3.29572877387,
			"0.009": 2.99715219439,
			"0.01": 5.45497126897,
			"0.011": 4.81490405283,
			"0.012": 5.051562495,
			"0.013": 1.75811059086,
			"0.014": 0.100382497175,
			"0.015": 0.0,
			"0.016": 0.0,
			"0.017": 0.0,
			"0.018": 0.0,
			"0.019": 0.0,
			"0.02": 0.0,
			"0.021": 0.0,
			"0.022": 0.0,
			"0.023": 0.0,
			"0.024": 0.0,
			"0.025": 0.0
		}
	}
}
