{
	 "smiles": "FC1(F)OC2=CC=CC(=C2O1)C1=CNC=C1C#N", 
	 "Tm": 472.15, 
	 "num_atms": 24, 
	 "gaussian": { 
		 "optdone": 1, 
		 "sigma_profile": "yes", 
		 "theory": "DFT", 
		 "functional": "B3LYP", 
		 "basiset": "6-31G**", 
		 "properties": { 
			 "R2extent": 4779.9909, 
			 "electric_dipole_moment_norm": 4.1079410025, 
			 "electric_quadrupole_moment_norm": 27.3370603474, 
			 "total_energy": -920.497496145, 
			 "HOMO_LUMO_gap": 0.18863, 
			 "cosmo_polarized_energy": -15.4, 
			 "cosmo_cavitation_energy": 30.88, 
			 "cosmo_dispersion_energy": -22.1, 
			 "cosmo_repulsion_energy": 1.63, 
			 "cosmo_total_nonelectrostatic_energy": 10.42, 
			 "SMD_solvation_energy": 7.88 
		},
		"coords": [
			{
				"x": 0.1484005968,
				"y": -3.5090297838,
				"z": 2.1972630579,
				"element": "F" 
			},
			{
				"x": 1.0700292471,
				"y": -3.0217591836,
				"z": 1.3489438998,
				"element": "C" 
			},
			{
				"x": 2.2724703392,
				"y": -3.3288261687,
				"z": 1.8668586218,
				"element": "F" 
			},
			{
				"x": 0.9234671962,
				"y": -3.5940072216,
				"z": 0.0950834888,
				"element": "O" 
			},
			{
				"x": 0.7002703247,
				"y": -2.5558113185,
				"z": -0.795332865,
				"element": "C" 
			},
			{
				"x": 0.4944435539,
				"y": -2.6265569837,
				"z": -2.1572259328,
				"element": "C" 
			},
			{
				"x": 0.2917740626,
				"y": -1.3929608829,
				"z": -2.7965110182,
				"element": "C" 
			},
			{
				"x": 0.2984839383,
				"y": -0.1866670284,
				"z": -2.0974761444,
				"element": "C" 
			},
			{
				"x": 0.5063904624,
				"y": -0.1177015973,
				"z": -0.6976273607,
				"element": "C" 
			},
			{
				"x": 0.7068475575,
				"y": -1.3596439159,
				"z": -0.0979221902,
				"element": "C" 
			},
			{
				"x": 0.9375602727,
				"y": -1.6390553754,
				"z": 1.2437658566,
				"element": "O" 
			},
			{
				"x": 0.5175473349,
				"y": 1.1350351999,
				"z": 0.0663944248,
				"element": "C" 
			},
			{
				"x": 0.8766996515,
				"y": 1.2679854356,
				"z": 1.3975686659,
				"element": "C" 
			},
			{
				"x": 0.7631449942,
				"y": 2.5881154767,
				"z": 1.7542079687,
				"element": "N" 
			},
			{
				"x": 0.3359924019,
				"y": 3.3299772724,
				"z": 0.6949381333,
				"element": "C" 
			},
			{
				"x": 0.1691156719,
				"y": 2.4694998663,
				"z": -0.3786004279,
				"element": "C" 
			},
			{
				"x": -0.2844754887,
				"y": 2.9041993887,
				"z": -1.6520058382,
				"element": "C" 
			},
			{
				"x": -0.656394262,
				"y": 3.2802292402,
				"z": -2.689937693,
				"element": "N" 
			},
			{
				"x": 0.4911485786,
				"y": -3.5700297534,
				"z": -2.6895002567,
				"element": "H" 
			},
			{
				"x": 0.1260054896,
				"y": -1.3750694722,
				"z": -3.8686945737,
				"element": "H" 
			},
			{
				"x": 0.1396483055,
				"y": 0.7302728075,
				"z": -2.6501362827,
				"element": "H" 
			},
			{
				"x": 1.202629022,
				"y": 0.522145445,
				"z": 2.1031320999,
				"element": "H" 
			},
			{
				"x": 0.9655789598,
				"y": 2.9542008935,
				"z": 2.6712307338,
				"element": "H" 
			},
			{
				"x": 0.1748217892,
				"y": 4.3947576598,
				"z": 0.759483632,
				"element": "H" 
			}
		],
		 "valence_orbital": [ 
			{
				"type": "occ",
				"energy": -0.32251,
				"method": "rhf"
			},
			{
				"type": "occ",
				"energy": -0.30028,
				"method": "rhf"
			},
			{
				"type": "occ",
				"energy": -0.25109,
				"method": "rhf"
			},
			{
				"type": "occ",
				"energy": -0.2404,
				"method": "rhf"
			},
			{
				"type": "occ",
				"energy": -0.22822,
				"method": "rhf"
			},
			{
				"type": "unocc",
				"energy": -0.03959,
				"method": "rhf"
			},
			{
				"type": "unocc",
				"energy": -0.01498,
				"method": "rhf"
			},
			{
				"type": "unocc",
				"energy": -0.00096,
				"method": "rhf"
			},
			{
				"type": "unocc",
				"energy": 0.03117,
				"method": "rhf"
			},
			{
				"type": "unocc",
				"energy": 0.04704,
				"method": "rhf"
			}
		],
		"cosmo_sigma_profile": { 
			"-0.025": 0.0,
			"-0.024": 0.0,
			"-0.023": 0.0,
			"-0.022": 0.0,
			"-0.021": 0.0,
			"-0.02": 0.0,
			"-0.019": 0.0,
			"-0.018": 0.293464860642,
			"-0.017": 2.08971336635,
			"-0.016": 1.63007900982,
			"-0.015": 1.67144313401,
			"-0.014": 1.18986019804,
			"-0.013": 1.02275968142,
			"-0.012": 1.32878901883,
			"-0.011": 1.25177480595,
			"-0.01": 3.43587418711,
			"-0.009": 4.04052669315,
			"-0.008": 4.4345078526,
			"-0.007": 6.20355510454,
			"-0.006": 7.01085326374,
			"-0.005": 8.76548271695,
			"-0.004": 9.03703644814,
			"-0.003": 9.40566666791,
			"-0.002": 12.1410390374,
			"-0.001": 16.1190564083,
			"0.0": 23.5107388517,
			"0.001": 24.6432663171,
			"0.002": 43.2925605916,
			"0.003": 30.1969199975,
			"0.004": 10.6004998414,
			"0.005": 3.440027293,
			"0.006": 4.31995370859,
			"0.007": 3.10026684044,
			"0.008": 2.54727038224,
			"0.009": 2.91963755747,
			"0.01": 3.11021402211,
			"0.011": 2.95661693556,
			"0.012": 2.78267900399,
			"0.013": 2.11676270956,
			"0.014": 0.570107583831,
			"0.015": 0.0,
			"0.016": 0.0,
			"0.017": 0.0,
			"0.018": 0.0,
			"0.019": 0.0,
			"0.02": 0.0,
			"0.021": 0.0,
			"0.022": 0.0,
			"0.023": 0.0,
			"0.024": 0.0,
			"0.025": 0.0
		}
	}
}
