{
	 "smiles": "SC1=C2C=CC=CC2=NN=N1", 
	 "Tm": 457.15, 
	 "num_atms": 16, 
	 "gaussian": { 
		 "optdone": 1, 
		 "sigma_profile": "yes", 
		 "theory": "DFT", 
		 "functional": "B3LYP", 
		 "basiset": "6-31G**", 
		 "properties": { 
			 "R2extent": 1820.3327, 
			 "electric_dipole_moment_norm": 4.90861046733, 
			 "electric_quadrupole_moment_norm": 12.6228601351, 
			 "total_energy": -832.132330405, 
			 "HOMO_LUMO_gap": 0.1642, 
			 "cosmo_polarized_energy": -12.5, 
			 "cosmo_cavitation_energy": 22.23, 
			 "cosmo_dispersion_energy": -17.4, 
			 "cosmo_repulsion_energy": 1.32, 
			 "cosmo_total_nonelectrostatic_energy": 6.15, 
			 "SMD_solvation_energy": 1.06 
		},
		"coords": [
			{
				"x": -1.1004875524,
				"y": 0.9144437275,
				"z": -2.4767316186,
				"element": "S" 
			},
			{
				"x": -0.7491240831,
				"y": -0.2603786621,
				"z": -1.1928671568,
				"element": "C" 
			},
			{
				"x": 0.0295773623,
				"y": 0.1193612965,
				"z": -0.0597695958,
				"element": "C" 
			},
			{
				"x": 0.5944122953,
				"y": 1.3914559635,
				"z": 0.1901411364,
				"element": "C" 
			},
			{
				"x": 1.3256757822,
				"y": 1.5941070836,
				"z": 1.3425696837,
				"element": "C" 
			},
			{
				"x": 1.5158717208,
				"y": 0.5446887727,
				"z": 2.2748875019,
				"element": "C" 
			},
			{
				"x": 0.9728153322,
				"y": -0.7013958572,
				"z": 2.0478443261,
				"element": "C" 
			},
			{
				"x": 0.2195482869,
				"y": -0.9292489191,
				"z": 0.8716628814,
				"element": "C" 
			},
			{
				"x": -0.3109959085,
				"y": -2.1808328102,
				"z": 0.6694481134,
				"element": "N" 
			},
			{
				"x": -1.00341055,
				"y": -2.4305513795,
				"z": -0.3885339103,
				"element": "N" 
			},
			{
				"x": -1.2361557656,
				"y": -1.4772763399,
				"z": -1.3394424693,
				"element": "N" 
			},
			{
				"x": -1.8105055825,
				"y": 0.0286269055,
				"z": -3.2021699404,
				"element": "H" 
			},
			{
				"x": 0.4521213654,
				"y": 2.1996358468,
				"z": -0.5205363454,
				"element": "H" 
			},
			{
				"x": 1.7618396912,
				"y": 2.5685305369,
				"z": 1.5400657981,
				"element": "H" 
			},
			{
				"x": 2.0954512178,
				"y": 0.7300904754,
				"z": 3.1741083075,
				"element": "H" 
			},
			{
				"x": 1.0991663881,
				"y": -1.5264566403,
				"z": 2.7406232881,
				"element": "H" 
			}
		],
		 "valence_orbital": [ 
			{
				"type": "occ",
				"energy": -0.29756,
				"method": "rhf"
			},
			{
				"type": "occ",
				"energy": -0.28171,
				"method": "rhf"
			},
			{
				"type": "occ",
				"energy": -0.26932,
				"method": "rhf"
			},
			{
				"type": "occ",
				"energy": -0.25576,
				"method": "rhf"
			},
			{
				"type": "occ",
				"energy": -0.24916,
				"method": "rhf"
			},
			{
				"type": "unocc",
				"energy": -0.08496,
				"method": "rhf"
			},
			{
				"type": "unocc",
				"energy": -0.06019,
				"method": "rhf"
			},
			{
				"type": "unocc",
				"energy": -0.00455,
				"method": "rhf"
			},
			{
				"type": "unocc",
				"energy": 0.00215,
				"method": "rhf"
			},
			{
				"type": "unocc",
				"energy": 0.04879,
				"method": "rhf"
			}
		],
		"cosmo_sigma_profile": { 
			"-0.025": 0.0,
			"-0.024": 0.0,
			"-0.023": 0.0,
			"-0.022": 0.0,
			"-0.021": 0.0,
			"-0.02": 0.0,
			"-0.019": 0.0,
			"-0.018": 0.0,
			"-0.017": 0.0,
			"-0.016": 0.0,
			"-0.015": 0.0,
			"-0.014": 0.0,
			"-0.013": 0.0,
			"-0.012": 0.74369914471,
			"-0.011": 1.71764766496,
			"-0.01": 0.974132497064,
			"-0.009": 1.33448031609,
			"-0.008": 5.82123791065,
			"-0.007": 11.0766029839,
			"-0.006": 10.6753410694,
			"-0.005": 9.99401708971,
			"-0.004": 9.17001002521,
			"-0.003": 11.3603040811,
			"-0.002": 14.0066112545,
			"-0.001": 13.9936703056,
			"0.0": 18.1659788753,
			"0.001": 17.394397877,
			"0.002": 11.3429911944,
			"0.003": 5.17772194155,
			"0.004": 4.56619895528,
			"0.005": 4.87676728634,
			"0.006": 4.24510132999,
			"0.007": 3.05286091789,
			"0.008": 2.66280589097,
			"0.009": 2.56646212041,
			"0.01": 3.30363883719,
			"0.011": 4.20076974215,
			"0.012": 4.56995805767,
			"0.013": 3.31906884495,
			"0.014": 2.04425448033,
			"0.015": 0.123273162653,
			"0.016": 0.0,
			"0.017": 0.0,
			"0.018": 0.0,
			"0.019": 0.0,
			"0.02": 0.0,
			"0.021": 0.0,
			"0.022": 0.0,
			"0.023": 0.0,
			"0.024": 0.0,
			"0.025": 0.0
		}
	}
}
