{
	 "smiles": "COC1=C(C=CC=C1)C1=NC(=CS1)C(O)=O", 
	 "Tm": 458.15, 
	 "num_atms": 25, 
	 "gaussian": { 
		 "optdone": 1, 
		 "sigma_profile": "yes", 
		 "theory": "DFT", 
		 "functional": "B3LYP", 
		 "basiset": "6-31G**", 
		 "properties": { 
			 "R2extent": 5102.5714, 
			 "electric_dipole_moment_norm": 4.53784439685, 
			 "electric_quadrupole_moment_norm": 13.5172934062, 
			 "total_energy": -1103.20387352, 
			 "HOMO_LUMO_gap": 0.16639, 
			 "cosmo_polarized_energy": -15.49, 
			 "cosmo_cavitation_energy": 31.59, 
			 "cosmo_dispersion_energy": -23.6, 
			 "cosmo_repulsion_energy": 1.78, 
			 "cosmo_total_nonelectrostatic_energy": 9.77, 
			 "SMD_solvation_energy": 6.3 
		},
		"coords": [
			{
				"x": -1.7870400132,
				"y": -2.6228090826,
				"z": 1.9750290405,
				"element": "C" 
			},
			{
				"x": -0.953832626,
				"y": -1.9036713283,
				"z": 1.0761445506,
				"element": "O" 
			},
			{
				"x": -1.3402481824,
				"y": -0.6684434002,
				"z": 0.6475754073,
				"element": "C" 
			},
			{
				"x": -0.4598390886,
				"y": -0.0155404275,
				"z": -0.2464946758,
				"element": "C" 
			},
			{
				"x": -0.8155675264,
				"y": 1.2608783931,
				"z": -0.7160827136,
				"element": "C" 
			},
			{
				"x": -1.9981315353,
				"y": 1.8754797351,
				"z": -0.3197117443,
				"element": "C" 
			},
			{
				"x": -2.8547219146,
				"y": 1.216454665,
				"z": 0.5630562392,
				"element": "C" 
			},
			{
				"x": -2.5304819638,
				"y": -0.0507433271,
				"z": 1.0470256342,
				"element": "C" 
			},
			{
				"x": 0.8067776579,
				"y": -0.5958244232,
				"z": -0.7130396604,
				"element": "C" 
			},
			{
				"x": 1.5989065776,
				"y": 0.0339417401,
				"z": -1.5406007607,
				"element": "N" 
			},
			{
				"x": 2.7194454278,
				"y": -0.6964940858,
				"z": -1.836073465,
				"element": "C" 
			},
			{
				"x": 2.8069198393,
				"y": -1.9238882323,
				"z": -1.2272483037,
				"element": "C" 
			},
			{
				"x": 1.4283348161,
				"y": -2.1925840154,
				"z": -0.2336208186,
				"element": "S" 
			},
			{
				"x": 3.729209179,
				"y": -0.1312867944,
				"z": -2.7627030167,
				"element": "C" 
			},
			{
				"x": 4.7734360517,
				"y": -0.9853155516,
				"z": -2.9454814887,
				"element": "O" 
			},
			{
				"x": 3.6663516583,
				"y": 0.9487734014,
				"z": -3.306119867,
				"element": "O" 
			},
			{
				"x": -1.917694278,
				"y": -2.0809732439,
				"z": 2.9194116847,
				"element": "H" 
			},
			{
				"x": -2.769651644,
				"y": -2.8267196863,
				"z": 1.5329903309,
				"element": "H" 
			},
			{
				"x": -1.2739206199,
				"y": -3.5657068139,
				"z": 2.1669154881,
				"element": "H" 
			},
			{
				"x": -0.1326013219,
				"y": 1.7507864483,
				"z": -1.4007568476,
				"element": "H" 
			},
			{
				"x": -2.2492453979,
				"y": 2.8615179774,
				"z": -0.6971229326,
				"element": "H" 
			},
			{
				"x": -3.7816611479,
				"y": 1.6847437305,
				"z": 0.8811041577,
				"element": "H" 
			},
			{
				"x": -3.2039335064,
				"y": -0.5513688519,
				"z": 1.7317495876,
				"element": "H" 
			},
			{
				"x": 3.5986668751,
				"y": -2.6522777201,
				"z": -1.3212919247,
				"element": "H" 
			},
			{
				"x": 5.3744226834,
				"y": -0.5327291066,
				"z": -3.5593539014,
				"element": "H" 
			}
		],
		 "valence_orbital": [ 
			{
				"type": "occ",
				"energy": -0.27573,
				"method": "rhf"
			},
			{
				"type": "occ",
				"energy": -0.27462,
				"method": "rhf"
			},
			{
				"type": "occ",
				"energy": -0.26854,
				"method": "rhf"
			},
			{
				"type": "occ",
				"energy": -0.24126,
				"method": "rhf"
			},
			{
				"type": "occ",
				"energy": -0.21948,
				"method": "rhf"
			},
			{
				"type": "unocc",
				"energy": -0.05309,
				"method": "rhf"
			},
			{
				"type": "unocc",
				"energy": -0.02932,
				"method": "rhf"
			},
			{
				"type": "unocc",
				"energy": 0.00425,
				"method": "rhf"
			},
			{
				"type": "unocc",
				"energy": 0.0292,
				"method": "rhf"
			},
			{
				"type": "unocc",
				"energy": 0.04052,
				"method": "rhf"
			}
		],
		"cosmo_sigma_profile": { 
			"-0.025": 0.0,
			"-0.024": 0.0,
			"-0.023": 0.0,
			"-0.022": 0.0,
			"-0.021": 0.0,
			"-0.02": 0.0,
			"-0.019": 0.0997300745166,
			"-0.018": 0.835743301014,
			"-0.017": 1.04096073881,
			"-0.016": 0.801224714423,
			"-0.015": 0.390003550977,
			"-0.014": 0.543806365733,
			"-0.013": 0.519898447507,
			"-0.012": 1.15180303193,
			"-0.011": 1.19604896077,
			"-0.01": 1.29220011312,
			"-0.009": 1.79826567292,
			"-0.008": 1.92762055626,
			"-0.007": 6.10092140435,
			"-0.006": 15.8464522532,
			"-0.005": 17.9394992239,
			"-0.004": 18.4884768659,
			"-0.003": 16.0721987832,
			"-0.002": 12.7120043046,
			"-0.001": 14.5542642258,
			"0.0": 21.0345863339,
			"0.001": 23.7316187459,
			"0.002": 21.8160229055,
			"0.003": 19.3760509666,
			"0.004": 16.7708628272,
			"0.005": 10.0219230135,
			"0.006": 4.05932859169,
			"0.007": 4.24228616523,
			"0.008": 2.87049041814,
			"0.009": 2.01167091293,
			"0.01": 2.82837527894,
			"0.011": 4.7881004483,
			"0.012": 4.53391863705,
			"0.013": 1.80459503114,
			"0.014": 1.26914580852,
			"0.015": 0.981796046704,
			"0.016": 0.0505474467951,
			"0.017": 0.0,
			"0.018": 0.0,
			"0.019": 0.0,
			"0.02": 0.0,
			"0.021": 0.0,
			"0.022": 0.0,
			"0.023": 0.0,
			"0.024": 0.0,
			"0.025": 0.0
		}
	}
}
