{
	 "smiles": "CC(C)(C)C1=CC=C(Br)C=C1", 
	 "Tm": 290.65, 
	 "num_atms": 24, 
	 "gaussian": { 
		 "optdone": 1, 
		 "sigma_profile": "yes", 
		 "theory": "DFT", 
		 "functional": "B3LYP", 
		 "basiset": "6-31G**", 
		 "properties": { 
			 "R2extent": 6371.9864, 
			 "electric_dipole_moment_norm": 2.34549061819, 
			 "electric_quadrupole_moment_norm": 10.3090228247, 
			 "total_energy": -2960.31868954, 
			 "HOMO_LUMO_gap": 0.22233, 
			 "cosmo_polarized_energy": -3.91, 
			 "cosmo_cavitation_energy": 27.99, 
			 "cosmo_dispersion_energy": -20.51, 
			 "cosmo_repulsion_energy": 1.63, 
			 "cosmo_total_nonelectrostatic_energy": 9.11, 
			 "SMD_solvation_energy": 3.77 
		},
		"coords": [
			{
				"x": -1.554640764,
				"y": 0.0007605984,
				"z": 1.587172812,
				"element": "C" 
			},
			{
				"x": -0.6587424805,
				"y": 0.1806140456,
				"z": 0.3469658591,
				"element": "C" 
			},
			{
				"x": -1.5040756578,
				"y": 0.8428860158,
				"z": -0.7671936607,
				"element": "C" 
			},
			{
				"x": -0.1979438874,
				"y": -1.2199177174,
				"z": -0.1228898641,
				"element": "C" 
			},
			{
				"x": 0.5750668225,
				"y": 1.0533711628,
				"z": 0.6397945413,
				"element": "C" 
			},
			{
				"x": 1.5026712485,
				"y": 1.3224966524,
				"z": -0.381662442,
				"element": "C" 
			},
			{
				"x": 2.6335736371,
				"y": 2.106394763,
				"z": -0.1650405411,
				"element": "C" 
			},
			{
				"x": 2.8555462092,
				"y": 2.6421488724,
				"z": 1.1023152596,
				"element": "C" 
			},
			{
				"x": 4.4043492522,
				"y": 3.7207260949,
				"z": 1.4157364971,
				"element": "Br" 
			},
			{
				"x": 1.9617657855,
				"y": 2.3992703903,
				"z": 2.1389532441,
				"element": "C" 
			},
			{
				"x": 0.8335304006,
				"y": 1.6099608867,
				"z": 1.8996240669,
				"element": "C" 
			},
			{
				"x": -1.022205262,
				"y": -0.4917892719,
				"z": 2.4075080821,
				"element": "H" 
			},
			{
				"x": -1.9409178569,
				"y": 0.9574742712,
				"z": 1.9539654401,
				"element": "H" 
			},
			{
				"x": -2.4156125081,
				"y": -0.625054349,
				"z": 1.331377434,
				"element": "H" 
			},
			{
				"x": -0.9359527426,
				"y": 0.9608019127,
				"z": -1.6947051216,
				"element": "H" 
			},
			{
				"x": -2.3843202722,
				"y": 0.2302295025,
				"z": -0.992043666,
				"element": "H" 
			},
			{
				"x": -1.8501567574,
				"y": 1.8349787442,
				"z": -0.459307296,
				"element": "H" 
			},
			{
				"x": -1.065603551,
				"y": -1.8525965137,
				"z": -0.3410922422,
				"element": "H" 
			},
			{
				"x": 0.4102553118,
				"y": -1.1659838074,
				"z": -1.0307056815,
				"element": "H" 
			},
			{
				"x": 0.3986527589,
				"y": -1.7159518554,
				"z": 0.6496611038,
				"element": "H" 
			},
			{
				"x": 1.3472943383,
				"y": 0.9142158862,
				"z": -1.375907913,
				"element": "H" 
			},
			{
				"x": 3.3337072,
				"y": 2.2987928342,
				"z": -0.9702801443,
				"element": "H" 
			},
			{
				"x": 2.1389211854,
				"y": 2.8183973391,
				"z": 3.123128506,
				"element": "H" 
			},
			{
				"x": 0.1529375901,
				"y": 1.4362735425,
				"z": 2.7250257264,
				"element": "H" 
			}
		],
		 "valence_orbital": [ 
			{
				"type": "occ",
				"energy": -0.32209,
				"method": "rhf"
			},
			{
				"type": "occ",
				"energy": -0.30158,
				"method": "rhf"
			},
			{
				"type": "occ",
				"energy": -0.28273,
				"method": "rhf"
			},
			{
				"type": "occ",
				"energy": -0.25847,
				"method": "rhf"
			},
			{
				"type": "occ",
				"energy": -0.2337,
				"method": "rhf"
			},
			{
				"type": "unocc",
				"energy": -0.01137,
				"method": "rhf"
			},
			{
				"type": "unocc",
				"energy": -0.00788,
				"method": "rhf"
			},
			{
				"type": "unocc",
				"energy": 0.01159,
				"method": "rhf"
			},
			{
				"type": "unocc",
				"energy": 0.08049,
				"method": "rhf"
			},
			{
				"type": "unocc",
				"energy": 0.11475,
				"method": "rhf"
			}
		],
		"cosmo_sigma_profile": { 
			"-0.025": 0.0,
			"-0.024": 0.0,
			"-0.023": 0.0,
			"-0.022": 0.0,
			"-0.021": 0.0,
			"-0.02": 0.0,
			"-0.019": 0.0,
			"-0.018": 0.0,
			"-0.017": 0.0,
			"-0.016": 0.0,
			"-0.015": 0.0,
			"-0.014": 0.0,
			"-0.013": 0.0,
			"-0.012": 0.0,
			"-0.011": 0.0,
			"-0.01": 0.0,
			"-0.009": 0.0,
			"-0.008": 0.0,
			"-0.007": 1.34125799288,
			"-0.006": 5.8133101374,
			"-0.005": 8.85814877516,
			"-0.004": 10.8860540525,
			"-0.003": 22.2373337085,
			"-0.002": 28.0827132635,
			"-0.001": 22.3152646628,
			"0.0": 22.424219995,
			"0.001": 29.9247619533,
			"0.002": 19.9770003014,
			"0.003": 15.5781036948,
			"0.004": 20.1483955104,
			"0.005": 15.2067070648,
			"0.006": 0.475500691557,
			"0.007": 0.0,
			"0.008": 0.0,
			"0.009": 0.0,
			"0.01": 0.0,
			"0.011": 0.0,
			"0.012": 0.0,
			"0.013": 0.0,
			"0.014": 0.0,
			"0.015": 0.0,
			"0.016": 0.0,
			"0.017": 0.0,
			"0.018": 0.0,
			"0.019": 0.0,
			"0.02": 0.0,
			"0.021": 0.0,
			"0.022": 0.0,
			"0.023": 0.0,
			"0.024": 0.0,
			"0.025": 0.0
		}
	}
}
