{
	 "smiles": "CC1=CC=C(NC2=C(C#N)C(O)=NS2)C=C1", 
	 "Tm": 506.15, 
	 "num_atms": 25, 
	 "gaussian": { 
		 "optdone": 1, 
		 "sigma_profile": "yes", 
		 "theory": "DFT", 
		 "functional": "B3LYP", 
		 "basiset": "6-31G**", 
		 "properties": { 
			 "R2extent": 7278.7756, 
			 "electric_dipole_moment_norm": 5.1992193539, 
			 "electric_quadrupole_moment_norm": 17.2052440404, 
			 "total_energy": -1062.23176314, 
			 "HOMO_LUMO_gap": 0.1701, 
			 "cosmo_polarized_energy": -17.17, 
			 "cosmo_cavitation_energy": 32.18, 
			 "cosmo_dispersion_energy": -23.66, 
			 "cosmo_repulsion_energy": 1.79, 
			 "cosmo_total_nonelectrostatic_energy": 10.31, 
			 "SMD_solvation_energy": 5.49 
		},
		"coords": [
			{
				"x": -1.3961043552,
				"y": 2.4790592708,
				"z": 3.4954129406,
				"element": "C" 
			},
			{
				"x": -1.3708651073,
				"y": 1.4185988494,
				"z": 2.4209661841,
				"element": "C" 
			},
			{
				"x": -0.4442975633,
				"y": 0.371186232,
				"z": 2.4520154415,
				"element": "C" 
			},
			{
				"x": -0.4266489735,
				"y": -0.6263143576,
				"z": 1.4766011578,
				"element": "C" 
			},
			{
				"x": -1.3678728236,
				"y": -0.6020056217,
				"z": 0.4412962337,
				"element": "C" 
			},
			{
				"x": -1.4098199556,
				"y": -1.572722726,
				"z": -0.5827532097,
				"element": "N" 
			},
			{
				"x": -0.9826064656,
				"y": -2.8607178376,
				"z": -0.5782746041,
				"element": "C" 
			},
			{
				"x": -1.054807709,
				"y": -3.7332727791,
				"z": -1.6678477017,
				"element": "C" 
			},
			{
				"x": -1.55340288,
				"y": -3.3914453481,
				"z": -2.9438710224,
				"element": "C" 
			},
			{
				"x": -1.9669555864,
				"y": -3.1212132913,
				"z": -4.0020062,
				"element": "N" 
			},
			{
				"x": -0.5688388447,
				"y": -5.0420942162,
				"z": -1.3014356757,
				"element": "C" 
			},
			{
				"x": -0.5279860604,
				"y": -6.0859453126,
				"z": -2.1511221378,
				"element": "O" 
			},
			{
				"x": -0.1447987071,
				"y": -5.2077952816,
				"z": -0.0788530981,
				"element": "N" 
			},
			{
				"x": -0.3149615657,
				"y": -3.7558469421,
				"z": 0.7675069206,
				"element": "S" 
			},
			{
				"x": -2.2970516504,
				"y": 0.4477580222,
				"z": 0.3878331132,
				"element": "C" 
			},
			{
				"x": -2.2893187342,
				"y": 1.4405010647,
				"z": 1.3606841245,
				"element": "C" 
			},
			{
				"x": -1.6068417384,
				"y": 3.4683908813,
				"z": 3.0770880495,
				"element": "H" 
			},
			{
				"x": -2.1734152484,
				"y": 2.2709080955,
				"z": 4.2412127251,
				"element": "H" 
			},
			{
				"x": -0.4410969066,
				"y": 2.5332123895,
				"z": 4.0255716365,
				"element": "H" 
			},
			{
				"x": 0.2954963872,
				"y": 0.3355657943,
				"z": 3.2473126915,
				"element": "H" 
			},
			{
				"x": 0.3440578694,
				"y": -1.3875874023,
				"z": 1.5090375015,
				"element": "H" 
			},
			{
				"x": -1.8963373573,
				"y": -1.2940499197,
				"z": -1.4265619348,
				"element": "H" 
			},
			{
				"x": -0.8659849806,
				"y": -5.8128427544,
				"z": -3.0161556968,
				"element": "H" 
			},
			{
				"x": -3.0290160271,
				"y": 0.4794320998,
				"z": -0.4154860423,
				"element": "H" 
			},
			{
				"x": -3.017025016,
				"y": 2.2454410908,
				"z": 1.2979286031,
				"element": "H" 
			}
		],
		 "valence_orbital": [ 
			{
				"type": "occ",
				"energy": -0.30376,
				"method": "rhf"
			},
			{
				"type": "occ",
				"energy": -0.27315,
				"method": "rhf"
			},
			{
				"type": "occ",
				"energy": -0.27132,
				"method": "rhf"
			},
			{
				"type": "occ",
				"energy": -0.25163,
				"method": "rhf"
			},
			{
				"type": "occ",
				"energy": -0.2202,
				"method": "rhf"
			},
			{
				"type": "unocc",
				"energy": -0.0501,
				"method": "rhf"
			},
			{
				"type": "unocc",
				"energy": -0.02892,
				"method": "rhf"
			},
			{
				"type": "unocc",
				"energy": -0.01211,
				"method": "rhf"
			},
			{
				"type": "unocc",
				"energy": 0.001,
				"method": "rhf"
			},
			{
				"type": "unocc",
				"energy": 0.01395,
				"method": "rhf"
			}
		],
		"cosmo_sigma_profile": { 
			"-0.025": 0.0,
			"-0.024": 0.0,
			"-0.023": 0.0,
			"-0.022": 0.0,
			"-0.021": 0.0,
			"-0.02": 0.0,
			"-0.019": 0.0,
			"-0.018": 0.4061498752,
			"-0.017": 0.828508573215,
			"-0.016": 1.33183736897,
			"-0.015": 1.13588560604,
			"-0.014": 2.09274758371,
			"-0.013": 2.2341769795,
			"-0.012": 2.92674041048,
			"-0.011": 2.88584623044,
			"-0.01": 2.32364236016,
			"-0.009": 2.36371269602,
			"-0.008": 2.68571203433,
			"-0.007": 3.96126012038,
			"-0.006": 8.35184268061,
			"-0.005": 13.2667045075,
			"-0.004": 16.8454056265,
			"-0.003": 15.5837088841,
			"-0.002": 24.4776952812,
			"-0.001": 25.8978897604,
			"0.0": 23.749813551,
			"0.001": 15.8436481777,
			"0.002": 13.4073337972,
			"0.003": 13.4156980886,
			"0.004": 14.0007179381,
			"0.005": 10.408524989,
			"0.006": 3.46310398225,
			"0.007": 5.11876288841,
			"0.008": 5.43256173385,
			"0.009": 7.02667465213,
			"0.01": 7.57121202544,
			"0.011": 4.23476926111,
			"0.012": 4.1295637756,
			"0.013": 2.47510209793,
			"0.014": 1.21422326462,
			"0.015": 0.0784884101647,
			"0.016": 0.0,
			"0.017": 0.0,
			"0.018": 0.0,
			"0.019": 0.0,
			"0.02": 0.0,
			"0.021": 0.0,
			"0.022": 0.0,
			"0.023": 0.0,
			"0.024": 0.0,
			"0.025": 0.0
		}
	}
}
