{
	 "smiles": "CC(=O)OCC(O)CO", 
	 "Tm": 195.15, 
	 "num_atms": 19, 
	 "gaussian": { 
		 "optdone": 1, 
		 "sigma_profile": "yes", 
		 "theory": "DFT", 
		 "functional": "B3LYP", 
		 "basiset": "6-31G**", 
		 "properties": { 
			 "R2extent": 1732.186, 
			 "electric_dipole_moment_norm": 1.449325381, 
			 "electric_quadrupole_moment_norm": 12.2766078963, 
			 "total_energy": -497.450398861, 
			 "HOMO_LUMO_gap": 0.25628, 
			 "cosmo_polarized_energy": -12.37, 
			 "cosmo_cavitation_energy": 22.18, 
			 "cosmo_dispersion_energy": -16.31, 
			 "cosmo_repulsion_energy": 1.38, 
			 "cosmo_total_nonelectrostatic_energy": 7.25, 
			 "SMD_solvation_energy": 4.97 
		},
		"coords": [
			{
				"x": -0.0691546796,
				"y": 2.4146215153,
				"z": -2.5511510851,
				"element": "C" 
			},
			{
				"x": -0.8275046464,
				"y": 1.729389178,
				"z": -1.4431723958,
				"element": "C" 
			},
			{
				"x": -1.7626642586,
				"y": 0.9663417639,
				"z": -1.6084597175,
				"element": "O" 
			},
			{
				"x": -0.3419030997,
				"y": 2.0742467078,
				"z": -0.2348718499,
				"element": "O" 
			},
			{
				"x": -1.0413073315,
				"y": 1.5658622806,
				"z": 0.9282695309,
				"element": "C" 
			},
			{
				"x": -0.5644559518,
				"y": 0.1745176501,
				"z": 1.341626901,
				"element": "C" 
			},
			{
				"x": -0.6917582575,
				"y": -0.7981384345,
				"z": 0.323886003,
				"element": "O" 
			},
			{
				"x": 0.9040081586,
				"y": 0.1770290928,
				"z": 1.7862719021,
				"element": "C" 
			},
			{
				"x": 1.1196106069,
				"y": 1.0017126935,
				"z": 2.9242792359,
				"element": "O" 
			},
			{
				"x": -0.0965946888,
				"y": 3.4990458683,
				"z": -2.4129288344,
				"element": "H" 
			},
			{
				"x": -0.506141513,
				"y": 2.1450287384,
				"z": -3.511795336,
				"element": "H" 
			},
			{
				"x": 0.9809051322,
				"y": 2.1085286962,
				"z": -2.5214331755,
				"element": "H" 
			},
			{
				"x": -0.8110504063,
				"y": 2.2722936665,
				"z": 1.7276334624,
				"element": "H" 
			},
			{
				"x": -2.1149707259,
				"y": 1.5668214306,
				"z": 0.7207784459,
				"element": "H" 
			},
			{
				"x": -1.1832925274,
				"y": -0.094668118,
				"z": 2.2210213352,
				"element": "H" 
			},
			{
				"x": -1.3500386343,
				"y": -0.4884205689,
				"z": -0.3186693217,
				"element": "H" 
			},
			{
				"x": 1.2176820377,
				"y": -0.8620140682,
				"z": 1.9558670829,
				"element": "H" 
			},
			{
				"x": 1.5229008825,
				"y": 0.5849454715,
				"z": 0.9825239469,
				"element": "H" 
			},
			{
				"x": 0.7287299027,
				"y": 0.559756436,
				"z": 3.6890238696,
				"element": "H" 
			}
		],
		 "valence_orbital": [ 
			{
				"type": "occ",
				"energy": -0.33197,
				"method": "rhf"
			},
			{
				"type": "occ",
				"energy": -0.30963,
				"method": "rhf"
			},
			{
				"type": "occ",
				"energy": -0.28762,
				"method": "rhf"
			},
			{
				"type": "occ",
				"energy": -0.27349,
				"method": "rhf"
			},
			{
				"type": "occ",
				"energy": -0.25923,
				"method": "rhf"
			},
			{
				"type": "unocc",
				"energy": -0.00295,
				"method": "rhf"
			},
			{
				"type": "unocc",
				"energy": 0.06809,
				"method": "rhf"
			},
			{
				"type": "unocc",
				"energy": 0.09457,
				"method": "rhf"
			},
			{
				"type": "unocc",
				"energy": 0.11519,
				"method": "rhf"
			},
			{
				"type": "unocc",
				"energy": 0.12266,
				"method": "rhf"
			}
		],
		"cosmo_sigma_profile": { 
			"-0.025": 0.0,
			"-0.024": 0.0,
			"-0.023": 0.0,
			"-0.022": 0.0,
			"-0.021": 0.0,
			"-0.02": 0.0,
			"-0.019": 0.0,
			"-0.018": 0.0,
			"-0.017": 0.0,
			"-0.016": 0.478104613084,
			"-0.015": 1.23159238363,
			"-0.014": 0.755755021497,
			"-0.013": 1.04879349292,
			"-0.012": 1.0667467046,
			"-0.011": 1.1798052639,
			"-0.01": 0.972508933627,
			"-0.009": 1.04395140268,
			"-0.008": 0.833223300852,
			"-0.007": 3.97829277031,
			"-0.006": 12.4826127975,
			"-0.005": 14.7705459409,
			"-0.004": 18.6192448027,
			"-0.003": 15.1883434136,
			"-0.002": 14.6507174552,
			"-0.001": 11.008557864,
			"0.0": 8.56363197885,
			"0.001": 7.09275390705,
			"0.002": 5.47485202014,
			"0.003": 5.72054450766,
			"0.004": 6.40204630256,
			"0.005": 4.97107192623,
			"0.006": 3.10968040138,
			"0.007": 3.78187664635,
			"0.008": 5.1953355613,
			"0.009": 4.24978265329,
			"0.01": 4.05036250541,
			"0.011": 4.02719705205,
			"0.012": 4.19721007257,
			"0.013": 3.19343026063,
			"0.014": 3.23946339568,
			"0.015": 0.377691411857,
			"0.016": 0.0,
			"0.017": 0.0,
			"0.018": 0.0,
			"0.019": 0.0,
			"0.02": 0.0,
			"0.021": 0.0,
			"0.022": 0.0,
			"0.023": 0.0,
			"0.024": 0.0,
			"0.025": 0.0
		}
	}
}
