{
	 "smiles": "ON=CC1=C(CCC1)C=CC1=CC=CC=C1", 
	 "Tm": 435.15, 
	 "num_atms": 31, 
	 "gaussian": { 
		 "optdone": 1, 
		 "sigma_profile": "yes", 
		 "theory": "DFT", 
		 "functional": "B3LYP", 
		 "basiset": "6-31G**", 
		 "properties": { 
			 "R2extent": 5611.5733, 
			 "electric_dipole_moment_norm": 0.58489443492, 
			 "electric_quadrupole_moment_norm": 11.611736123, 
			 "total_energy": -672.431111276, 
			 "HOMO_LUMO_gap": 0.12841, 
			 "cosmo_polarized_energy": -9.41, 
			 "cosmo_cavitation_energy": 34.66, 
			 "cosmo_dispersion_energy": -24.95, 
			 "cosmo_repulsion_energy": 1.97, 
			 "cosmo_total_nonelectrostatic_energy": 11.67, 
			 "SMD_solvation_energy": 5.9 
		},
		"coords": [
			{
				"x": -3.0207919543,
				"y": -3.1055591906,
				"z": 1.1685006987,
				"element": "O" 
			},
			{
				"x": -2.2768470918,
				"y": -2.2049903881,
				"z": 0.3920729461,
				"element": "N" 
			},
			{
				"x": -2.0799916816,
				"y": -2.6884840957,
				"z": -0.7857453355,
				"element": "C" 
			},
			{
				"x": -1.3540754657,
				"y": -2.0074204599,
				"z": -1.845576173,
				"element": "C" 
			},
			{
				"x": -0.7415487566,
				"y": -0.7833818064,
				"z": -1.8531421518,
				"element": "C" 
			},
			{
				"x": -0.070697203,
				"y": -0.5396457121,
				"z": -3.1957907074,
				"element": "C" 
			},
			{
				"x": -0.6955791145,
				"y": -1.603992866,
				"z": -4.1234404215,
				"element": "C" 
			},
			{
				"x": -1.1625112361,
				"y": -2.7243915109,
				"z": -3.1713539877,
				"element": "C" 
			},
			{
				"x": -0.6730955162,
				"y": 0.1504487467,
				"z": -0.7540368575,
				"element": "C" 
			},
			{
				"x": -0.0017782529,
				"y": 1.327239787,
				"z": -0.7958911566,
				"element": "C" 
			},
			{
				"x": 0.113571228,
				"y": 2.3120241446,
				"z": 0.2798121519,
				"element": "C" 
			},
			{
				"x": 0.8568995954,
				"y": 3.4860097991,
				"z": 0.0490803791,
				"element": "C" 
			},
			{
				"x": 1.0001042247,
				"y": 4.4588387774,
				"z": 1.0361103578,
				"element": "C" 
			},
			{
				"x": 0.4013039392,
				"y": 4.2818230324,
				"z": 2.2842501768,
				"element": "C" 
			},
			{
				"x": -0.3406969725,
				"y": 3.1221093242,
				"z": 2.5323287425,
				"element": "C" 
			},
			{
				"x": -0.4836159639,
				"y": 2.1506935573,
				"z": 1.5472293822,
				"element": "C" 
			},
			{
				"x": -3.0979171097,
				"y": -2.6405673821,
				"z": 2.0121991492,
				"element": "H" 
			},
			{
				"x": -2.4864960934,
				"y": -3.6771661143,
				"z": -1.0181896443,
				"element": "H" 
			},
			{
				"x": 1.0168775371,
				"y": -0.673795164,
				"z": -3.0997389403,
				"element": "H" 
			},
			{
				"x": -0.2261854343,
				"y": 0.4796324807,
				"z": -3.5661432304,
				"element": "H" 
			},
			{
				"x": -1.5655257876,
				"y": -1.1753683022,
				"z": -4.632768574,
				"element": "H" 
			},
			{
				"x": -0.0059415597,
				"y": -1.9569215255,
				"z": -4.8953748722,
				"element": "H" 
			},
			{
				"x": -2.0749846157,
				"y": -3.2238473438,
				"z": -3.5189666902,
				"element": "H" 
			},
			{
				"x": -0.3993120272,
				"y": -3.5113797315,
				"z": -3.0708686156,
				"element": "H" 
			},
			{
				"x": -1.197465981,
				"y": -0.1482272312,
				"z": 0.1473064645,
				"element": "H" 
			},
			{
				"x": 0.5208289808,
				"y": 1.5958563675,
				"z": -1.7124418981,
				"element": "H" 
			},
			{
				"x": 1.3257770993,
				"y": 3.6299509964,
				"z": -0.921347629,
				"element": "H" 
			},
			{
				"x": 1.5790813329,
				"y": 5.3548652886,
				"z": 0.8306690538,
				"element": "H" 
			},
			{
				"x": 0.5101646763,
				"y": 5.0373071704,
				"z": 3.0569047411,
				"element": "H" 
			},
			{
				"x": -0.8098923818,
				"y": 2.9762314636,
				"z": 3.5014299706,
				"element": "H" 
			},
			{
				"x": -1.0628584141,
				"y": 1.2580078884,
				"z": 1.7609226709,
				"element": "H" 
			}
		],
		 "valence_orbital": [ 
			{
				"type": "occ",
				"energy": -0.28369,
				"method": "rhf"
			},
			{
				"type": "occ",
				"energy": -0.27357,
				"method": "rhf"
			},
			{
				"type": "occ",
				"energy": -0.24919,
				"method": "rhf"
			},
			{
				"type": "occ",
				"energy": -0.24387,
				"method": "rhf"
			},
			{
				"type": "occ",
				"energy": -0.19231,
				"method": "rhf"
			},
			{
				"type": "unocc",
				"energy": -0.0639,
				"method": "rhf"
			},
			{
				"type": "unocc",
				"energy": -0.00262,
				"method": "rhf"
			},
			{
				"type": "unocc",
				"energy": 0.00307,
				"method": "rhf"
			},
			{
				"type": "unocc",
				"energy": 0.05747,
				"method": "rhf"
			},
			{
				"type": "unocc",
				"energy": 0.07609,
				"method": "rhf"
			}
		],
		"cosmo_sigma_profile": { 
			"-0.025": 0.0,
			"-0.024": 0.0,
			"-0.023": 0.0,
			"-0.022": 0.0,
			"-0.021": 0.0,
			"-0.02": 0.0,
			"-0.019": 0.0,
			"-0.018": 0.0917033661511,
			"-0.017": 0.778316802619,
			"-0.016": 1.14738407587,
			"-0.015": 0.615356797227,
			"-0.014": 0.883925006363,
			"-0.013": 1.33564628719,
			"-0.012": 0.257828997085,
			"-0.011": 0.521595044363,
			"-0.01": 0.401548161574,
			"-0.009": 0.376071067347,
			"-0.008": 1.06163179447,
			"-0.007": 1.13950972237,
			"-0.006": 7.90805966082,
			"-0.005": 15.5552286685,
			"-0.004": 20.5436584615,
			"-0.003": 28.6180268258,
			"-0.002": 26.8616791751,
			"-0.001": 26.8823649854,
			"0.0": 20.455057308,
			"0.001": 19.2990674888,
			"0.002": 13.3998355103,
			"0.003": 16.8871369768,
			"0.004": 24.5890682308,
			"0.005": 22.0633567713,
			"0.006": 10.7344337327,
			"0.007": 4.18358414539,
			"0.008": 2.71723112785,
			"0.009": 1.6826631942,
			"0.01": 2.35826294249,
			"0.011": 1.51649151161,
			"0.012": 0.00637556188629,
			"0.013": 0.0,
			"0.014": 0.0,
			"0.015": 0.0,
			"0.016": 0.0,
			"0.017": 0.0,
			"0.018": 0.0,
			"0.019": 0.0,
			"0.02": 0.0,
			"0.021": 0.0,
			"0.022": 0.0,
			"0.023": 0.0,
			"0.024": 0.0,
			"0.025": 0.0
		}
	}
}
