{
	 "smiles": "CCCCCCS", 
	 "Tm": 192.65, 
	 "num_atms": 21, 
	 "gaussian": { 
		 "optdone": 1, 
		 "sigma_profile": "yes", 
		 "theory": "DFT", 
		 "functional": "B3LYP", 
		 "basiset": "6-31G**", 
		 "properties": { 
			 "R2extent": 1945.7197, 
			 "electric_dipole_moment_norm": 1.68881426155, 
			 "electric_quadrupole_moment_norm": 6.8157326444, 
			 "total_energy": -635.275593728, 
			 "HOMO_LUMO_gap": 0.2608, 
			 "cosmo_polarized_energy": -4.21, 
			 "cosmo_cavitation_energy": 23.74, 
			 "cosmo_dispersion_energy": -17.82, 
			 "cosmo_repulsion_energy": 1.48, 
			 "cosmo_total_nonelectrostatic_energy": 7.4, 
			 "SMD_solvation_energy": 3.23 
		},
		"coords": [
			{
				"x": 1.1600589006,
				"y": -1.6122378582,
				"z": 1.6612771767,
				"element": "C" 
			},
			{
				"x": 1.9272103247,
				"y": -0.7127886847,
				"z": 0.6851519937,
				"element": "C" 
			},
			{
				"x": 1.0736480301,
				"y": 0.025634879,
				"z": -0.3619156583,
				"element": "C" 
			},
			{
				"x": 0.056321856,
				"y": 1.047596434,
				"z": 0.1938577569,
				"element": "C" 
			},
			{
				"x": -1.3517394737,
				"y": 0.4793495932,
				"z": 0.433446436,
				"element": "C" 
			},
			{
				"x": -2.3454891874,
				"y": 1.4734620655,
				"z": 1.0429578336,
				"element": "C" 
			},
			{
				"x": -2.6762013426,
				"y": 2.8812788831,
				"z": -0.1164502318,
				"element": "S" 
			},
			{
				"x": 1.8505579825,
				"y": -2.1605277552,
				"z": 2.3110565579,
				"element": "H" 
			},
			{
				"x": 0.4936338863,
				"y": -1.0359209647,
				"z": 2.3113093649,
				"element": "H" 
			},
			{
				"x": 0.5502842343,
				"y": -2.3510589568,
				"z": 1.128155927,
				"element": "H" 
			},
			{
				"x": 2.5034104725,
				"y": 0.0281630363,
				"z": 1.2563134014,
				"element": "H" 
			},
			{
				"x": 2.6682661256,
				"y": -1.3227551847,
				"z": 0.1522167283,
				"element": "H" 
			},
			{
				"x": 0.5473411905,
				"y": -0.7091547608,
				"z": -0.9878742521,
				"element": "H" 
			},
			{
				"x": 1.7627325078,
				"y": 0.5487059175,
				"z": -1.0361856187,
				"element": "H" 
			},
			{
				"x": 0.4403255324,
				"y": 1.4789848645,
				"z": 1.1294233051,
				"element": "H" 
			},
			{
				"x": -0.0248584827,
				"y": 1.8868390633,
				"z": -0.5064411653,
				"element": "H" 
			},
			{
				"x": -1.7567694884,
				"y": 0.0986803533,
				"z": -0.5130764304,
				"element": "H" 
			},
			{
				"x": -1.2994261701,
				"y": -0.3803388954,
				"z": 1.1116437679,
				"element": "H" 
			},
			{
				"x": -3.2948467328,
				"y": 0.9724705048,
				"z": 1.2483446297,
				"element": "H" 
			},
			{
				"x": -1.9547548684,
				"y": 1.8757157487,
				"z": 1.9827589799,
				"element": "H" 
			},
			{
				"x": -3.657105297,
				"y": 3.4515017172,
				"z": 0.6109294975,
				"element": "H" 
			}
		],
		 "valence_orbital": [ 
			{
				"type": "occ",
				"energy": -0.32727,
				"method": "rhf"
			},
			{
				"type": "occ",
				"energy": -0.32097,
				"method": "rhf"
			},
			{
				"type": "occ",
				"energy": -0.31225,
				"method": "rhf"
			},
			{
				"type": "occ",
				"energy": -0.30482,
				"method": "rhf"
			},
			{
				"type": "occ",
				"energy": -0.23145,
				"method": "rhf"
			},
			{
				"type": "unocc",
				"energy": 0.02935,
				"method": "rhf"
			},
			{
				"type": "unocc",
				"energy": 0.06915,
				"method": "rhf"
			},
			{
				"type": "unocc",
				"energy": 0.09282,
				"method": "rhf"
			},
			{
				"type": "unocc",
				"energy": 0.1067,
				"method": "rhf"
			},
			{
				"type": "unocc",
				"energy": 0.11909,
				"method": "rhf"
			}
		],
		"cosmo_sigma_profile": { 
			"-0.025": 0.0,
			"-0.024": 0.0,
			"-0.023": 0.0,
			"-0.022": 0.0,
			"-0.021": 0.0,
			"-0.02": 0.0,
			"-0.019": 0.0,
			"-0.018": 0.0,
			"-0.017": 0.0,
			"-0.016": 0.0,
			"-0.015": 0.0,
			"-0.014": 0.0,
			"-0.013": 0.0,
			"-0.012": 0.0,
			"-0.011": 0.0,
			"-0.01": 0.0,
			"-0.009": 0.716277618281,
			"-0.008": 2.62443641594,
			"-0.007": 1.57850288148,
			"-0.006": 1.50784738896,
			"-0.005": 4.30822203748,
			"-0.004": 6.01412134588,
			"-0.003": 13.0004359272,
			"-0.002": 28.7631630475,
			"-0.001": 35.4441231638,
			"0.0": 29.4205311997,
			"0.001": 24.150777976,
			"0.002": 11.2708544724,
			"0.003": 3.06118159123,
			"0.004": 3.71478361335,
			"0.005": 3.58725240672,
			"0.006": 3.28329547586,
			"0.007": 3.26754625255,
			"0.008": 2.444228644,
			"0.009": 2.03959940843,
			"0.01": 2.52511884638,
			"0.011": 1.85789765716,
			"0.012": 0.736051896783,
			"0.013": 0.0,
			"0.014": 0.0,
			"0.015": 0.0,
			"0.016": 0.0,
			"0.017": 0.0,
			"0.018": 0.0,
			"0.019": 0.0,
			"0.02": 0.0,
			"0.021": 0.0,
			"0.022": 0.0,
			"0.023": 0.0,
			"0.024": 0.0,
			"0.025": 0.0
		}
	}
}
