{
	 "smiles": "CC(C)CCOC(=O)C=CC1=CC=C(C=CC(=O)OCCC(C)C)C(=C1)[N+]([O-])=O", 
	 "Tm": 366.65, 
	 "num_atms": 58, 
	 "gaussian": { 
		 "optdone": 1, 
		 "sigma_profile": "yes", 
		 "theory": "DFT", 
		 "functional": "B3LYP", 
		 "basiset": "6-31G**", 
		 "properties": { 
			 "R2extent": 26477.0316, 
			 "electric_dipole_moment_norm": 4.40139127322, 
			 "electric_quadrupole_moment_norm": 32.0865209937, 
			 "total_energy": -1361.83249029, 
			 "HOMO_LUMO_gap": 0.14502, 
			 "cosmo_polarized_energy": -18.61, 
			 "cosmo_cavitation_energy": 62.52, 
			 "cosmo_dispersion_energy": -41.41, 
			 "cosmo_repulsion_energy": 3.18, 
			 "cosmo_total_nonelectrostatic_energy": 24.28, 
			 "SMD_solvation_energy": 14.43 
		},
		"coords": [
			{
				"x": -6.4533517135,
				"y": 1.2821672747,
				"z": 3.8378286082,
				"element": "C" 
			},
			{
				"x": -6.9512531302,
				"y": 0.833485896,
				"z": 5.2206202637,
				"element": "C" 
			},
			{
				"x": -8.4873170334,
				"y": 0.7973094305,
				"z": 5.2507718338,
				"element": "C" 
			},
			{
				"x": -6.3841311909,
				"y": -0.5319387796,
				"z": 5.6586946289,
				"element": "C" 
			},
			{
				"x": -4.8864490119,
				"y": -0.5914752122,
				"z": 5.9576233681,
				"element": "C" 
			},
			{
				"x": -4.0519512483,
				"y": -0.501108952,
				"z": 4.7758750027,
				"element": "O" 
			},
			{
				"x": -3.8269497069,
				"y": -1.659587406,
				"z": 4.1102588526,
				"element": "C" 
			},
			{
				"x": -4.2916066151,
				"y": -2.7346440713,
				"z": 4.4401792668,
				"element": "O" 
			},
			{
				"x": -2.9461807548,
				"y": -1.4931274844,
				"z": 2.9332394448,
				"element": "C" 
			},
			{
				"x": -2.3778158646,
				"y": -0.3291758984,
				"z": 2.5710210516,
				"element": "C" 
			},
			{
				"x": -1.494479534,
				"y": -0.1009720892,
				"z": 1.4252841497,
				"element": "C" 
			},
			{
				"x": -0.9856325014,
				"y": 1.1902142276,
				"z": 1.1944372533,
				"element": "C" 
			},
			{
				"x": -0.1373375837,
				"y": 1.4535514626,
				"z": 0.1278329127,
				"element": "C" 
			},
			{
				"x": 0.2385867899,
				"y": 0.4583711258,
				"z": -0.79371578,
				"element": "C" 
			},
			{
				"x": 1.1754714027,
				"y": 0.7830750454,
				"z": -1.8792903423,
				"element": "C" 
			},
			{
				"x": 1.2411053751,
				"y": 1.9881664223,
				"z": -2.4718947753,
				"element": "C" 
			},
			{
				"x": 2.2154514018,
				"y": 2.3477934258,
				"z": -3.5272230074,
				"element": "C" 
			},
			{
				"x": 2.2190201775,
				"y": 3.4339255154,
				"z": -4.076785616,
				"element": "O" 
			},
			{
				"x": 3.0853534868,
				"y": 1.3513871357,
				"z": -3.8071608498,
				"element": "O" 
			},
			{
				"x": 4.053872671,
				"y": 1.6120545274,
				"z": -4.8537041268,
				"element": "C" 
			},
			{
				"x": 5.3090691972,
				"y": 2.3252454317,
				"z": -4.3517225871,
				"element": "C" 
			},
			{
				"x": 6.2495169954,
				"y": 1.5515968778,
				"z": -3.3990684389,
				"element": "C" 
			},
			{
				"x": 5.6450925905,
				"y": 1.3084009023,
				"z": -2.006899681,
				"element": "C" 
			},
			{
				"x": 6.7640742561,
				"y": 0.2408789462,
				"z": -4.014689901,
				"element": "C" 
			},
			{
				"x": -0.2840098527,
				"y": -0.8324783921,
				"z": -0.5450055834,
				"element": "C" 
			},
			{
				"x": -1.1158160288,
				"y": -1.113200189,
				"z": 0.5312947959,
				"element": "C" 
			},
			{
				"x": -0.0028123815,
				"y": -1.9640829456,
				"z": -1.4519052314,
				"element": "N" 
			},
			{
				"x": 0.3583159674,
				"y": -1.7090018363,
				"z": -2.6007660798,
				"element": "O" 
			},
			{
				"x": -0.163972015,
				"y": -3.099972264,
				"z": -1.0087986135,
				"element": "O" 
			},
			{
				"x": -5.3657360898,
				"y": 1.3786744839,
				"z": 3.8069373427,
				"element": "H" 
			},
			{
				"x": -6.8906519522,
				"y": 2.248875919,
				"z": 3.5646519863,
				"element": "H" 
			},
			{
				"x": -6.7443183806,
				"y": 0.5576849698,
				"z": 3.0671484389,
				"element": "H" 
			},
			{
				"x": -6.6198266357,
				"y": 1.5802903795,
				"z": 5.9589136192,
				"element": "H" 
			},
			{
				"x": -8.9106587406,
				"y": 1.7691255626,
				"z": 4.9754485001,
				"element": "H" 
			},
			{
				"x": -8.8651078311,
				"y": 0.5359841284,
				"z": 6.2453703131,
				"element": "H" 
			},
			{
				"x": -8.8744763032,
				"y": 0.0549979239,
				"z": 4.5422086637,
				"element": "H" 
			},
			{
				"x": -6.6279654611,
				"y": -1.3037255694,
				"z": 4.9185038941,
				"element": "H" 
			},
			{
				"x": -6.8883532668,
				"y": -0.8348073492,
				"z": 6.5868494723,
				"element": "H" 
			},
			{
				"x": -4.6445759088,
				"y": -1.5242495848,
				"z": 6.4723052837,
				"element": "H" 
			},
			{
				"x": -4.5721924818,
				"y": 0.2551347553,
				"z": 6.574878608,
				"element": "H" 
			},
			{
				"x": -2.7910058852,
				"y": -2.4171828526,
				"z": 2.3856762826,
				"element": "H" 
			},
			{
				"x": -2.5838342019,
				"y": 0.5450341097,
				"z": 3.183549433,
				"element": "H" 
			},
			{
				"x": -1.2494671698,
				"y": 1.9941544962,
				"z": 1.8759376369,
				"element": "H" 
			},
			{
				"x": 0.2776926211,
				"y": 2.4485497901,
				"z": 0.0109122183,
				"element": "H" 
			},
			{
				"x": 1.84701125,
				"y": 0.0046755566,
				"z": -2.2188874582,
				"element": "H" 
			},
			{
				"x": 0.548483354,
				"y": 2.7899998612,
				"z": -2.2361222475,
				"element": "H" 
			},
			{
				"x": 3.5696726389,
				"y": 2.2172914776,
				"z": -5.623628309,
				"element": "H" 
			},
			{
				"x": 4.2805081038,
				"y": 0.6251788441,
				"z": -5.2628576183,
				"element": "H" 
			},
			{
				"x": 5.8789828065,
				"y": 2.5981721714,
				"z": -5.2510139268,
				"element": "H" 
			},
			{
				"x": 5.0034927478,
				"y": 3.2702181249,
				"z": -3.8884069887,
				"element": "H" 
			},
			{
				"x": 7.1215024374,
				"y": 2.2072099682,
				"z": -3.2605639097,
				"element": "H" 
			},
			{
				"x": 5.2946700637,
				"y": 2.2437011039,
				"z": -1.5563558411,
				"element": "H" 
			},
			{
				"x": 4.7937314047,
				"y": 0.6234063264,
				"z": -2.0541922434,
				"element": "H" 
			},
			{
				"x": 6.3918632653,
				"y": 0.8728696906,
				"z": -1.3337124882,
				"element": "H" 
			},
			{
				"x": 7.5343419302,
				"y": -0.2091487157,
				"z": -3.3795083757,
				"element": "H" 
			},
			{
				"x": 7.2040573127,
				"y": 0.405534433,
				"z": -5.0049707966,
				"element": "H" 
			},
			{
				"x": 5.9628970298,
				"y": -0.4992351984,
				"z": -4.1220583809,
				"element": "H" 
			},
			{
				"x": -1.4630008018,
				"y": -2.1315729335,
				"z": 0.6482560721,
				"element": "H" 
			}
		],
		 "valence_orbital": [ 
			{
				"type": "occ",
				"energy": -0.29071,
				"method": "rhf"
			},
			{
				"type": "occ",
				"energy": -0.28695,
				"method": "rhf"
			},
			{
				"type": "occ",
				"energy": -0.27804,
				"method": "rhf"
			},
			{
				"type": "occ",
				"energy": -0.27486,
				"method": "rhf"
			},
			{
				"type": "occ",
				"energy": -0.24985,
				"method": "rhf"
			},
			{
				"type": "unocc",
				"energy": -0.10483,
				"method": "rhf"
			},
			{
				"type": "unocc",
				"energy": -0.09009,
				"method": "rhf"
			},
			{
				"type": "unocc",
				"energy": -0.04746,
				"method": "rhf"
			},
			{
				"type": "unocc",
				"energy": -0.02144,
				"method": "rhf"
			},
			{
				"type": "unocc",
				"energy": 0.01311,
				"method": "rhf"
			}
		],
		"cosmo_sigma_profile": { 
			"-0.025": 0.0,
			"-0.024": 0.0,
			"-0.023": 0.0,
			"-0.022": 0.0,
			"-0.021": 0.0,
			"-0.02": 0.0,
			"-0.019": 0.0,
			"-0.018": 0.0,
			"-0.017": 0.0,
			"-0.016": 0.0,
			"-0.015": 0.0,
			"-0.014": 0.0,
			"-0.013": 0.0,
			"-0.012": 0.0,
			"-0.011": 0.0495438699649,
			"-0.01": 1.62914428118,
			"-0.009": 3.22584478922,
			"-0.008": 9.80686326572,
			"-0.007": 9.93247890821,
			"-0.006": 10.4525263247,
			"-0.005": 16.3088030934,
			"-0.004": 23.6760082628,
			"-0.003": 39.2001025652,
			"-0.002": 65.1204181835,
			"-0.001": 68.8981818485,
			"0.0": 66.8334930255,
			"0.001": 56.5677219816,
			"0.002": 34.9367326141,
			"0.003": 10.7225868779,
			"0.004": 8.10220503864,
			"0.005": 10.076203343,
			"0.006": 7.98312258204,
			"0.007": 11.2576991728,
			"0.008": 8.35280957188,
			"0.009": 6.93124011516,
			"0.01": 4.76388773277,
			"0.011": 4.44021172086,
			"0.012": 9.18927369685,
			"0.013": 3.22302650341,
			"0.014": 0.0129052291433,
			"0.015": 0.0,
			"0.016": 0.0,
			"0.017": 0.0,
			"0.018": 0.0,
			"0.019": 0.0,
			"0.02": 0.0,
			"0.021": 0.0,
			"0.022": 0.0,
			"0.023": 0.0,
			"0.024": 0.0,
			"0.025": 0.0
		}
	}
}
