{
	 "smiles": "CC1=CC=C(C)O1", 
	 "Tm": 210.75, 
	 "num_atms": 15, 
	 "gaussian": { 
		 "optdone": 1, 
		 "sigma_profile": "yes", 
		 "theory": "DFT", 
		 "functional": "B3LYP", 
		 "basiset": "6-31G**", 
		 "properties": { 
			 "R2extent": 1028.6626, 
			 "electric_dipole_moment_norm": 0.149595922404, 
			 "electric_quadrupole_moment_norm": 4.09670436082, 
			 "total_energy": -308.672735733, 
			 "HOMO_LUMO_gap": 0.22815, 
			 "cosmo_polarized_energy": -3.48, 
			 "cosmo_cavitation_energy": 18.44, 
			 "cosmo_dispersion_energy": -13.82, 
			 "cosmo_repulsion_energy": 1.19, 
			 "cosmo_total_nonelectrostatic_energy": 5.8, 
			 "SMD_solvation_energy": 4.09 
		},
		"coords": [
			{
				"x": -2.5404277634,
				"y": 2.4316877211,
				"z": 0.5665377748,
				"element": "C" 
			},
			{
				"x": -1.6368049601,
				"y": 1.2625584008,
				"z": 0.7462526022,
				"element": "C" 
			},
			{
				"x": -1.1155875117,
				"y": 0.6316813603,
				"z": 1.8359357017,
				"element": "C" 
			},
			{
				"x": -0.3058218746,
				"y": -0.4449818351,
				"z": 1.3395550237,
				"element": "C" 
			},
			{
				"x": -0.3867217314,
				"y": -0.3995091451,
				"z": -0.0200313643,
				"element": "C" 
			},
			{
				"x": 0.2034924021,
				"y": -1.2164845521,
				"z": -1.1154270975,
				"element": "C" 
			},
			{
				"x": -1.1982426656,
				"y": 0.6409474013,
				"z": -0.3953274702,
				"element": "O" 
			},
			{
				"x": -2.8190378717,
				"y": 2.8374662232,
				"z": 1.5420941459,
				"element": "H" 
			},
			{
				"x": -2.058732721,
				"y": 3.2298031222,
				"z": -0.0107606976,
				"element": "H" 
			},
			{
				"x": -3.4593963032,
				"y": 2.1544948063,
				"z": 0.0364868166,
				"element": "H" 
			},
			{
				"x": -1.2871386366,
				"y": 0.9006817703,
				"z": 2.8687658039,
				"element": "H" 
			},
			{
				"x": 0.2621136789,
				"y": -1.1592104292,
				"z": 1.919084006,
				"element": "H" 
			},
			{
				"x": 0.8285731803,
				"y": -0.6091407806,
				"z": -1.7807828682,
				"element": "H" 
			},
			{
				"x": -0.5719783718,
				"y": -1.6845924178,
				"z": -1.7333372396,
				"element": "H" 
			},
			{
				"x": 0.8260111497,
				"y": -2.0085016456,
				"z": -0.6921451375,
				"element": "H" 
			}
		],
		 "valence_orbital": [ 
			{
				"type": "occ",
				"energy": -0.3799,
				"method": "rhf"
			},
			{
				"type": "occ",
				"energy": -0.37218,
				"method": "rhf"
			},
			{
				"type": "occ",
				"energy": -0.34919,
				"method": "rhf"
			},
			{
				"type": "occ",
				"energy": -0.26342,
				"method": "rhf"
			},
			{
				"type": "occ",
				"energy": -0.20181,
				"method": "rhf"
			},
			{
				"type": "unocc",
				"energy": 0.02634,
				"method": "rhf"
			},
			{
				"type": "unocc",
				"energy": 0.08779,
				"method": "rhf"
			},
			{
				"type": "unocc",
				"energy": 0.11093,
				"method": "rhf"
			},
			{
				"type": "unocc",
				"energy": 0.11779,
				"method": "rhf"
			},
			{
				"type": "unocc",
				"energy": 0.12982,
				"method": "rhf"
			}
		],
		"cosmo_sigma_profile": { 
			"-0.025": 0.0,
			"-0.024": 0.0,
			"-0.023": 0.0,
			"-0.022": 0.0,
			"-0.021": 0.0,
			"-0.02": 0.0,
			"-0.019": 0.0,
			"-0.018": 0.0,
			"-0.017": 0.0,
			"-0.016": 0.0,
			"-0.015": 0.0,
			"-0.014": 0.0,
			"-0.013": 0.0,
			"-0.012": 0.0,
			"-0.011": 0.0,
			"-0.01": 0.0,
			"-0.009": 0.0,
			"-0.008": 0.0,
			"-0.007": 0.0258638189648,
			"-0.006": 2.46723577739,
			"-0.005": 9.34698138733,
			"-0.004": 15.6514240133,
			"-0.003": 16.0201131079,
			"-0.002": 15.0012570661,
			"-0.001": 19.8065591192,
			"0.0": 14.4568071938,
			"0.001": 7.956123471,
			"0.002": 7.12542313437,
			"0.003": 7.06918551466,
			"0.004": 8.25374014979,
			"0.005": 6.58866168341,
			"0.006": 6.90475455073,
			"0.007": 6.04092134506,
			"0.008": 1.49761870379,
			"0.009": 1.451804921,
			"0.01": 0.345342231288,
			"0.011": 0.0,
			"0.012": 0.0,
			"0.013": 0.0,
			"0.014": 0.0,
			"0.015": 0.0,
			"0.016": 0.0,
			"0.017": 0.0,
			"0.018": 0.0,
			"0.019": 0.0,
			"0.02": 0.0,
			"0.021": 0.0,
			"0.022": 0.0,
			"0.023": 0.0,
			"0.024": 0.0,
			"0.025": 0.0
		}
	}
}
