{
	 "smiles": "CCOC(=O)C1=C(C)N=C2C3=CC=CC=C3OC(=O)C2=C1", 
	 "Tm": 440.15, 
	 "num_atms": 34, 
	 "gaussian": { 
		 "optdone": 1, 
		 "sigma_profile": "yes", 
		 "theory": "DFT", 
		 "functional": "B3LYP", 
		 "basiset": "6-31G**", 
		 "properties": { 
			 "R2extent": 9334.162, 
			 "electric_dipole_moment_norm": 5.12580851574, 
			 "electric_quadrupole_moment_norm": 22.8279445776, 
			 "total_energy": -973.232331113, 
			 "HOMO_LUMO_gap": 0.16264, 
			 "cosmo_polarized_energy": -13.07, 
			 "cosmo_cavitation_energy": 38.77, 
			 "cosmo_dispersion_energy": -27.95, 
			 "cosmo_repulsion_energy": 2.1, 
			 "cosmo_total_nonelectrostatic_energy": 12.92, 
			 "SMD_solvation_energy": 7.59 
		},
		"coords": [
			{
				"x": 1.4259291431,
				"y": -1.6477284947,
				"z": 4.3732655388,
				"element": "C" 
			},
			{
				"x": 1.9806596708,
				"y": -1.6158799698,
				"z": 2.9623197028,
				"element": "C" 
			},
			{
				"x": 1.2052034886,
				"y": -0.6507826595,
				"z": 2.2085141805,
				"element": "O" 
			},
			{
				"x": 1.5715726839,
				"y": -0.4915041716,
				"z": 0.9210230383,
				"element": "C" 
			},
			{
				"x": 2.488617874,
				"y": -1.1096022415,
				"z": 0.4147377499,
				"element": "O" 
			},
			{
				"x": 0.7528107005,
				"y": 0.5119120612,
				"z": 0.1685192424,
				"element": "C" 
			},
			{
				"x": -0.3391714065,
				"y": 1.278310695,
				"z": 0.6726803274,
				"element": "C" 
			},
			{
				"x": -0.8553929347,
				"y": 1.1948313114,
				"z": 2.0867641288,
				"element": "C" 
			},
			{
				"x": -0.9961959458,
				"y": 2.1481565821,
				"z": -0.1029728681,
				"element": "N" 
			},
			{
				"x": -0.6332721333,
				"y": 2.316500462,
				"z": -1.3861427248,
				"element": "C" 
			},
			{
				"x": -1.3611057451,
				"y": 3.2686851921,
				"z": -2.2149709871,
				"element": "C" 
			},
			{
				"x": -2.4407582276,
				"y": 4.0358688809,
				"z": -1.7434394612,
				"element": "C" 
			},
			{
				"x": -3.0923228529,
				"y": 4.9261579081,
				"z": -2.5852226462,
				"element": "C" 
			},
			{
				"x": -2.6734742715,
				"y": 5.0644100603,
				"z": -3.9170901341,
				"element": "C" 
			},
			{
				"x": -1.6078581649,
				"y": 4.3158239011,
				"z": -4.4053026333,
				"element": "C" 
			},
			{
				"x": -0.957835205,
				"y": 3.422392358,
				"z": -3.5517857355,
				"element": "C" 
			},
			{
				"x": 0.0868951226,
				"y": 2.7120842396,
				"z": -4.0927684612,
				"element": "O" 
			},
			{
				"x": 0.8242523851,
				"y": 1.7918757725,
				"z": -3.3718178741,
				"element": "C" 
			},
			{
				"x": 1.7248230958,
				"y": 1.2146840876,
				"z": -3.931743442,
				"element": "O" 
			},
			{
				"x": 0.4318208975,
				"y": 1.6015681068,
				"z": -1.963207538,
				"element": "C" 
			},
			{
				"x": 1.1220200092,
				"y": 0.6929575282,
				"z": -1.1635770895,
				"element": "C" 
			},
			{
				"x": 1.9890676176,
				"y": -2.3690382678,
				"z": 4.9733988952,
				"element": "H" 
			},
			{
				"x": 0.3739484388,
				"y": -1.9473628352,
				"z": 4.3762708796,
				"element": "H" 
			},
			{
				"x": 1.507948022,
				"y": -0.6671342811,
				"z": 4.85093218,
				"element": "H" 
			},
			{
				"x": 1.9057948501,
				"y": -2.5880870297,
				"z": 2.4660016034,
				"element": "H" 
			},
			{
				"x": 3.0322396115,
				"y": -1.3149070326,
				"z": 2.9374892329,
				"element": "H" 
			},
			{
				"x": -1.1841550017,
				"y": 0.1811705805,
				"z": 2.3307501876,
				"element": "H" 
			},
			{
				"x": -1.6913235407,
				"y": 1.887371105,
				"z": 2.188268361,
				"element": "H" 
			},
			{
				"x": -0.0758864809,
				"y": 1.448711941,
				"z": 2.8099856346,
				"element": "H" 
			},
			{
				"x": -2.7408817753,
				"y": 3.9066308829,
				"z": -0.7096450778,
				"element": "H" 
			},
			{
				"x": -3.9250559458,
				"y": 5.5149346435,
				"z": -2.2138546305,
				"element": "H" 
			},
			{
				"x": -3.1824171971,
				"y": 5.7606904279,
				"z": -4.5768938959,
				"element": "H" 
			},
			{
				"x": -1.2654032165,
				"y": 4.4046132922,
				"z": -5.4303957154,
				"element": "H" 
			},
			{
				"x": 1.948406434,
				"y": 0.1235849636,
				"z": -1.5739899684,
				"element": "H" 
			}
		],
		 "valence_orbital": [ 
			{
				"type": "occ",
				"energy": -0.29245,
				"method": "rhf"
			},
			{
				"type": "occ",
				"energy": -0.28326,
				"method": "rhf"
			},
			{
				"type": "occ",
				"energy": -0.26604,
				"method": "rhf"
			},
			{
				"type": "occ",
				"energy": -0.25542,
				"method": "rhf"
			},
			{
				"type": "occ",
				"energy": -0.24039,
				"method": "rhf"
			},
			{
				"type": "unocc",
				"energy": -0.07775,
				"method": "rhf"
			},
			{
				"type": "unocc",
				"energy": -0.06144,
				"method": "rhf"
			},
			{
				"type": "unocc",
				"energy": -0.01735,
				"method": "rhf"
			},
			{
				"type": "unocc",
				"energy": -0.0058,
				"method": "rhf"
			},
			{
				"type": "unocc",
				"energy": 0.02489,
				"method": "rhf"
			}
		],
		"cosmo_sigma_profile": { 
			"-0.025": 0.0,
			"-0.024": 0.0,
			"-0.023": 0.0,
			"-0.022": 0.0,
			"-0.021": 0.0,
			"-0.02": 0.0,
			"-0.019": 0.0,
			"-0.018": 0.0,
			"-0.017": 0.0,
			"-0.016": 0.0,
			"-0.015": 0.0,
			"-0.014": 0.0,
			"-0.013": 0.0,
			"-0.012": 0.0,
			"-0.011": 0.0,
			"-0.01": 0.0,
			"-0.009": 0.0,
			"-0.008": 0.579079860794,
			"-0.007": 5.29700118952,
			"-0.006": 10.6347853282,
			"-0.005": 19.246289754,
			"-0.004": 30.5434145084,
			"-0.003": 34.6080508387,
			"-0.002": 35.9571565052,
			"-0.001": 34.102111355,
			"0.0": 27.5985513573,
			"0.001": 20.4725204669,
			"0.002": 20.7962703143,
			"0.003": 16.2222414481,
			"0.004": 9.36177054381,
			"0.005": 4.74534888046,
			"0.006": 5.79209329211,
			"0.007": 5.37583370719,
			"0.008": 5.04679799356,
			"0.009": 4.96076358514,
			"0.01": 5.85822493048,
			"0.011": 8.55976588503,
			"0.012": 4.58536797773,
			"0.013": 0.183911822161,
			"0.014": 0.0,
			"0.015": 0.0,
			"0.016": 0.0,
			"0.017": 0.0,
			"0.018": 0.0,
			"0.019": 0.0,
			"0.02": 0.0,
			"0.021": 0.0,
			"0.022": 0.0,
			"0.023": 0.0,
			"0.024": 0.0,
			"0.025": 0.0
		}
	}
}
