{
	 "smiles": "BrC1CC2=CC=CC=C2C1Br", 
	 "Tm": 305.15, 
	 "num_atms": 19, 
	 "gaussian": { 
		 "optdone": 1, 
		 "sigma_profile": "yes", 
		 "theory": "DFT", 
		 "functional": "B3LYP", 
		 "basiset": "6-31G**", 
		 "properties": { 
			 "R2extent": 4839.8302, 
			 "electric_dipole_moment_norm": 3.52679321906, 
			 "electric_quadrupole_moment_norm": 8.480790291, 
			 "total_energy": -5490.59722621, 
			 "HOMO_LUMO_gap": 0.20427, 
			 "cosmo_polarized_energy": -8.1, 
			 "cosmo_cavitation_energy": 26.21, 
			 "cosmo_dispersion_energy": -19.89, 
			 "cosmo_repulsion_energy": 1.59, 
			 "cosmo_total_nonelectrostatic_energy": 7.92, 
			 "SMD_solvation_energy": 1.65 
		},
		"coords": [
			{
				"x": -1.2294580011,
				"y": -3.4196377434,
				"z": -0.81784734,
				"element": "Br" 
			},
			{
				"x": -0.3342565485,
				"y": -1.7975820766,
				"z": -0.1699335991,
				"element": "C" 
			},
			{
				"x": -0.749439275,
				"y": -0.506787435,
				"z": -0.8945768092,
				"element": "C" 
			},
			{
				"x": 0.3758863022,
				"y": 0.4200713323,
				"z": -0.4874121642,
				"element": "C" 
			},
			{
				"x": 0.4141525843,
				"y": 1.8120808822,
				"z": -0.4611482295,
				"element": "C" 
			},
			{
				"x": 1.5825008122,
				"y": 2.4479576108,
				"z": -0.0304733635,
				"element": "C" 
			},
			{
				"x": 2.6961612947,
				"y": 1.7025154839,
				"z": 0.3741021541,
				"element": "C" 
			},
			{
				"x": 2.6607357091,
				"y": 0.3069624998,
				"z": 0.3516313774,
				"element": "C" 
			},
			{
				"x": 1.495395497,
				"y": -0.3245656097,
				"z": -0.0810286276,
				"element": "C" 
			},
			{
				"x": 1.2053475098,
				"y": -1.7936938652,
				"z": -0.1850820439,
				"element": "C" 
			},
			{
				"x": 1.9846172546,
				"y": -2.5140141771,
				"z": -1.8949238594,
				"element": "Br" 
			},
			{
				"x": -0.6320414969,
				"y": -1.7363203551,
				"z": 0.8796614781,
				"element": "H" 
			},
			{
				"x": -1.7441523057,
				"y": -0.1646519355,
				"z": -0.5972211921,
				"element": "H" 
			},
			{
				"x": -0.7569676716,
				"y": -0.6676060434,
				"z": -1.9792879362,
				"element": "H" 
			},
			{
				"x": -0.4489269318,
				"y": 2.3970833752,
				"z": -0.7667982433,
				"element": "H" 
			},
			{
				"x": 1.6250339868,
				"y": 3.5330195459,
				"z": -0.0043409251,
				"element": "H" 
			},
			{
				"x": 3.5929389802,
				"y": 2.2140028389,
				"z": 0.7108761137,
				"element": "H" 
			},
			{
				"x": 3.5255679345,
				"y": -0.2741915044,
				"z": 0.6586033516,
				"element": "H" 
			},
			{
				"x": 1.6529043654,
				"y": -2.4256428235,
				"z": 0.5789998584,
				"element": "H" 
			}
		],
		 "valence_orbital": [ 
			{
				"type": "occ",
				"energy": -0.27842,
				"method": "rhf"
			},
			{
				"type": "occ",
				"energy": -0.27105,
				"method": "rhf"
			},
			{
				"type": "occ",
				"energy": -0.26725,
				"method": "rhf"
			},
			{
				"type": "occ",
				"energy": -0.25819,
				"method": "rhf"
			},
			{
				"type": "occ",
				"energy": -0.24955,
				"method": "rhf"
			},
			{
				"type": "unocc",
				"energy": -0.04528,
				"method": "rhf"
			},
			{
				"type": "unocc",
				"energy": -0.01733,
				"method": "rhf"
			},
			{
				"type": "unocc",
				"energy": 0.00704,
				"method": "rhf"
			},
			{
				"type": "unocc",
				"energy": 0.03025,
				"method": "rhf"
			},
			{
				"type": "unocc",
				"energy": 0.08705,
				"method": "rhf"
			}
		],
		"cosmo_sigma_profile": { 
			"-0.025": 0.0,
			"-0.024": 0.0,
			"-0.023": 0.0,
			"-0.022": 0.0,
			"-0.021": 0.0,
			"-0.02": 0.0,
			"-0.019": 0.0,
			"-0.018": 0.0,
			"-0.017": 0.0,
			"-0.016": 0.0,
			"-0.015": 0.0,
			"-0.014": 0.0,
			"-0.013": 0.0,
			"-0.012": 0.0,
			"-0.011": 0.0,
			"-0.01": 0.0,
			"-0.009": 1.32197871244,
			"-0.008": 6.31750059764,
			"-0.007": 5.40028415303,
			"-0.006": 14.0276027098,
			"-0.005": 14.7724138632,
			"-0.004": 17.0798346596,
			"-0.003": 13.610538256,
			"-0.002": 13.5887640569,
			"-0.001": 12.6223666713,
			"0.0": 13.1800683277,
			"0.001": 12.367486323,
			"0.002": 12.3593689893,
			"0.003": 15.7495555746,
			"0.004": 19.1330935241,
			"0.005": 21.6454893583,
			"0.006": 15.7291237325,
			"0.007": 4.15799644558,
			"0.008": 1.84281183506,
			"0.009": 0.00837940687383,
			"0.01": 0.0,
			"0.011": 0.0,
			"0.012": 0.0,
			"0.013": 0.0,
			"0.014": 0.0,
			"0.015": 0.0,
			"0.016": 0.0,
			"0.017": 0.0,
			"0.018": 0.0,
			"0.019": 0.0,
			"0.02": 0.0,
			"0.021": 0.0,
			"0.022": 0.0,
			"0.023": 0.0,
			"0.024": 0.0,
			"0.025": 0.0
		}
	}
}
