{
	 "smiles": "CCCCCCCCCCCC(=O)CCCCCCCCCCC", 
	 "Tm": 341.75, 
	 "num_atms": 70, 
	 "gaussian": { 
		 "optdone": 1, 
		 "sigma_profile": "yes", 
		 "theory": "DFT", 
		 "functional": "B3LYP", 
		 "basiset": "6-31G**", 
		 "properties": { 
			 "R2extent": 19343.704, 
			 "electric_dipole_moment_norm": 2.48659254604, 
			 "electric_quadrupole_moment_norm": 7.87976541212, 
			 "total_energy": -979.462542821, 
			 "HOMO_LUMO_gap": 0.23146, 
			 "cosmo_polarized_energy": -6.88, 
			 "cosmo_cavitation_energy": 66.66, 
			 "cosmo_dispersion_energy": -43.03, 
			 "cosmo_repulsion_energy": 3.5, 
			 "cosmo_total_nonelectrostatic_energy": 27.13, 
			 "SMD_solvation_energy": 8.82 
		},
		"coords": [
			{
				"x": -3.8913419967,
				"y": 2.393794195,
				"z": -5.7001793788,
				"element": "C" 
			},
			{
				"x": -3.5301404752,
				"y": 0.9732099011,
				"z": -5.2511190175,
				"element": "C" 
			},
			{
				"x": -2.9676089129,
				"y": 0.8414047723,
				"z": -3.8241025034,
				"element": "C" 
			},
			{
				"x": -1.6176537085,
				"y": 1.5450298208,
				"z": -3.5594923928,
				"element": "C" 
			},
			{
				"x": -1.7179392078,
				"y": 2.9806203803,
				"z": -3.0190831127,
				"element": "C" 
			},
			{
				"x": -0.3440465639,
				"y": 3.6147380304,
				"z": -2.7598717882,
				"element": "C" 
			},
			{
				"x": -0.3921204767,
				"y": 5.0756330517,
				"z": -2.2778173716,
				"element": "C" 
			},
			{
				"x": -1.1135793963,
				"y": 5.3162125884,
				"z": -0.9371045704,
				"element": "C" 
			},
			{
				"x": -0.586648062,
				"y": 4.5011236696,
				"z": 0.2562682025,
				"element": "C" 
			},
			{
				"x": 0.8794934894,
				"y": 4.7807763109,
				"z": 0.6171326201,
				"element": "C" 
			},
			{
				"x": 1.3885959883,
				"y": 3.9330267134,
				"z": 1.7873343648,
				"element": "C" 
			},
			{
				"x": 1.6416617416,
				"y": 2.4665949844,
				"z": 1.4433500578,
				"element": "C" 
			},
			{
				"x": 1.5215498963,
				"y": 2.0390517749,
				"z": 0.3080565591,
				"element": "O" 
			},
			{
				"x": 2.1019546256,
				"y": 1.5725378524,
				"z": 2.5926201258,
				"element": "C" 
			},
			{
				"x": 2.1992711817,
				"y": 0.0834753437,
				"z": 2.2379892892,
				"element": "C" 
			},
			{
				"x": 0.8488233317,
				"y": -0.6341144899,
				"z": 2.0614668965,
				"element": "C" 
			},
			{
				"x": 0.0431483717,
				"y": -0.8019608399,
				"z": 3.3582535992,
				"element": "C" 
			},
			{
				"x": -1.3286167111,
				"y": -1.4761950844,
				"z": 3.1702396547,
				"element": "C" 
			},
			{
				"x": -1.3071180448,
				"y": -2.9240693522,
				"z": 2.648522212,
				"element": "C" 
			},
			{
				"x": -0.6175396363,
				"y": -3.9320292113,
				"z": 3.5789559512,
				"element": "C" 
			},
			{
				"x": -0.7026981075,
				"y": -5.3759039721,
				"z": 3.0637071844,
				"element": "C" 
			},
			{
				"x": -0.1016615795,
				"y": -6.4323913495,
				"z": 4.0075042143,
				"element": "C" 
			},
			{
				"x": 1.4108086304,
				"y": -6.3197659997,
				"z": 4.2701223724,
				"element": "C" 
			},
			{
				"x": 2.2839777313,
				"y": -6.5010002807,
				"z": 3.0228869081,
				"element": "C" 
			},
			{
				"x": -4.3587826601,
				"y": 2.382793699,
				"z": -6.6908996858,
				"element": "H" 
			},
			{
				"x": -3.0091578883,
				"y": 3.0384829381,
				"z": -5.7635872335,
				"element": "H" 
			},
			{
				"x": -4.5973780492,
				"y": 2.8638371601,
				"z": -5.0056146521,
				"element": "H" 
			},
			{
				"x": -4.4255350185,
				"y": 0.3418481484,
				"z": -5.3257168167,
				"element": "H" 
			},
			{
				"x": -2.8034601818,
				"y": 0.5473599664,
				"z": -5.9569594034,
				"element": "H" 
			},
			{
				"x": -3.714527991,
				"y": 1.2039515888,
				"z": -3.1031512183,
				"element": "H" 
			},
			{
				"x": -2.8521685813,
				"y": -0.2301774866,
				"z": -3.6174327055,
				"element": "H" 
			},
			{
				"x": -1.0171570128,
				"y": 1.5404957792,
				"z": -4.4808472049,
				"element": "H" 
			},
			{
				"x": -1.0447115745,
				"y": 0.9549856071,
				"z": -2.8323168624,
				"element": "H" 
			},
			{
				"x": -2.3021854991,
				"y": 2.9609863533,
				"z": -2.0889921741,
				"element": "H" 
			},
			{
				"x": -2.2832063437,
				"y": 3.6128877766,
				"z": -3.7157781416,
				"element": "H" 
			},
			{
				"x": 0.2393533444,
				"y": 3.5813275939,
				"z": -3.690550247,
				"element": "H" 
			},
			{
				"x": 0.211366677,
				"y": 3.0029007976,
				"z": -2.0373053648,
				"element": "H" 
			},
			{
				"x": -0.8832117704,
				"y": 5.6905156508,
				"z": -3.0448152099,
				"element": "H" 
			},
			{
				"x": 0.6359266479,
				"y": 5.4537120532,
				"z": -2.2095974087,
				"element": "H" 
			},
			{
				"x": -2.1831488196,
				"y": 5.1022221559,
				"z": -1.0567031616,
				"element": "H" 
			},
			{
				"x": -1.0497358865,
				"y": 6.3868795559,
				"z": -0.6971159755,
				"element": "H" 
			},
			{
				"x": -0.7055379094,
				"y": 3.4312503373,
				"z": 0.0539505123,
				"element": "H" 
			},
			{
				"x": -1.2136224968,
				"y": 4.7203880025,
				"z": 1.1322271699,
				"element": "H" 
			},
			{
				"x": 1.5213506294,
				"y": 4.5906873832,
				"z": -0.2489992697,
				"element": "H" 
			},
			{
				"x": 0.9945938582,
				"y": 5.8425782622,
				"z": 0.8710224341,
				"element": "H" 
			},
			{
				"x": 0.6923032663,
				"y": 3.9718194148,
				"z": 2.6374483886,
				"element": "H" 
			},
			{
				"x": 2.3352075991,
				"y": 4.334783849,
				"z": 2.177961479,
				"element": "H" 
			},
			{
				"x": 1.4460203647,
				"y": 1.7463352963,
				"z": 3.4555068696,
				"element": "H" 
			},
			{
				"x": 3.0853244375,
				"y": 1.9519871569,
				"z": 2.9082492322,
				"element": "H" 
			},
			{
				"x": 2.7712530889,
				"y": -0.0059657882,
				"z": 1.3086749942,
				"element": "H" 
			},
			{
				"x": 2.7794010068,
				"y": -0.4251817558,
				"z": 3.0188639837,
				"element": "H" 
			},
			{
				"x": 0.2496971971,
				"y": -0.0955636676,
				"z": 1.3170378033,
				"element": "H" 
			},
			{
				"x": 1.0479170535,
				"y": -1.6224977929,
				"z": 1.6295000971,
				"element": "H" 
			},
			{
				"x": -0.1288136302,
				"y": 0.1809820926,
				"z": 3.8166381721,
				"element": "H" 
			},
			{
				"x": 0.6416098243,
				"y": -1.3670249251,
				"z": 4.0859920663,
				"element": "H" 
			},
			{
				"x": -1.8620656649,
				"y": -1.4581742183,
				"z": 4.1306476727,
				"element": "H" 
			},
			{
				"x": -1.9268091315,
				"y": -0.864758063,
				"z": 2.4808674144,
				"element": "H" 
			},
			{
				"x": -2.3452561434,
				"y": -3.2458421597,
				"z": 2.4883857763,
				"element": "H" 
			},
			{
				"x": -0.8312059862,
				"y": -2.9591379771,
				"z": 1.6594776863,
				"element": "H" 
			},
			{
				"x": 0.4342141997,
				"y": -3.6502072694,
				"z": 3.7133037777,
				"element": "H" 
			},
			{
				"x": -1.0764557964,
				"y": -3.8763264485,
				"z": 4.5773230104,
				"element": "H" 
			},
			{
				"x": -0.2213797514,
				"y": -5.4376855385,
				"z": 2.0783501434,
				"element": "H" 
			},
			{
				"x": -1.7585034308,
				"y": -5.6270848258,
				"z": 2.8931155977,
				"element": "H" 
			},
			{
				"x": -0.3111920105,
				"y": -7.4294057183,
				"z": 3.5957901663,
				"element": "H" 
			},
			{
				"x": -0.6301671529,
				"y": -6.38557322,
				"z": 4.9697263862,
				"element": "H" 
			},
			{
				"x": 1.6373987519,
				"y": -5.3528508588,
				"z": 4.7373576397,
				"element": "H" 
			},
			{
				"x": 1.6875495985,
				"y": -7.0800091925,
				"z": 5.0119089396,
				"element": "H" 
			},
			{
				"x": 2.1075733666,
				"y": -5.7144952725,
				"z": 2.2816644791,
				"element": "H" 
			},
			{
				"x": 3.3482887581,
				"y": -6.4752817973,
				"z": 3.2793803998,
				"element": "H" 
			},
			{
				"x": 2.0828546025,
				"y": -7.4628534529,
				"z": 2.5365703668,
				"element": "H" 
			}
		],
		 "valence_orbital": [ 
			{
				"type": "occ",
				"energy": -0.29783,
				"method": "rhf"
			},
			{
				"type": "occ",
				"energy": -0.29749,
				"method": "rhf"
			},
			{
				"type": "occ",
				"energy": -0.29561,
				"method": "rhf"
			},
			{
				"type": "occ",
				"energy": -0.28801,
				"method": "rhf"
			},
			{
				"type": "occ",
				"energy": -0.24423,
				"method": "rhf"
			},
			{
				"type": "unocc",
				"energy": -0.01277,
				"method": "rhf"
			},
			{
				"type": "unocc",
				"energy": 0.06971,
				"method": "rhf"
			},
			{
				"type": "unocc",
				"energy": 0.08172,
				"method": "rhf"
			},
			{
				"type": "unocc",
				"energy": 0.08837,
				"method": "rhf"
			},
			{
				"type": "unocc",
				"energy": 0.09754,
				"method": "rhf"
			}
		],
		"cosmo_sigma_profile": { 
			"-0.025": 0.0,
			"-0.024": 0.0,
			"-0.023": 0.0,
			"-0.022": 0.0,
			"-0.021": 0.0,
			"-0.02": 0.0,
			"-0.019": 0.0,
			"-0.018": 0.0,
			"-0.017": 0.0,
			"-0.016": 0.0,
			"-0.015": 0.0,
			"-0.014": 0.0,
			"-0.013": 0.0,
			"-0.012": 0.0,
			"-0.011": 0.0,
			"-0.01": 0.0,
			"-0.009": 0.0,
			"-0.008": 0.0,
			"-0.007": 0.0886527604903,
			"-0.006": 3.23510192272,
			"-0.005": 9.5337162777,
			"-0.004": 9.59031945666,
			"-0.003": 13.3820109125,
			"-0.002": 61.0774987983,
			"-0.001": 112.283254437,
			"0.0": 124.028438488,
			"0.001": 102.072072713,
			"0.002": 46.2610232776,
			"0.003": 5.21639192381,
			"0.004": 2.8762536889,
			"0.005": 2.5684898319,
			"0.006": 3.31327679629,
			"0.007": 2.89820357243,
			"0.008": 3.0257072499,
			"0.009": 1.90106971009,
			"0.01": 2.07819168132,
			"0.011": 1.7462253032,
			"0.012": 1.4859307004,
			"0.013": 0.646138045261,
			"0.014": 0.0,
			"0.015": 0.0,
			"0.016": 0.0,
			"0.017": 0.0,
			"0.018": 0.0,
			"0.019": 0.0,
			"0.02": 0.0,
			"0.021": 0.0,
			"0.022": 0.0,
			"0.023": 0.0,
			"0.024": 0.0,
			"0.025": 0.0
		}
	}
}
