{
	 "smiles": "COC1=CC(F)=C(F)C=C1OC", 
	 "Tm": 313.15, 
	 "num_atms": 20, 
	 "gaussian": { 
		 "optdone": 1, 
		 "sigma_profile": "yes", 
		 "theory": "DFT", 
		 "functional": "B3LYP", 
		 "basiset": "6-31G**", 
		 "properties": { 
			 "R2extent": 3589.1141, 
			 "electric_dipole_moment_norm": 3.39197316322, 
			 "electric_quadrupole_moment_norm": 10.1085121467, 
			 "total_energy": -659.745396537, 
			 "HOMO_LUMO_gap": 0.20793, 
			 "cosmo_polarized_energy": -7.02, 
			 "cosmo_cavitation_energy": 25.03, 
			 "cosmo_dispersion_energy": -17.97, 
			 "cosmo_repulsion_energy": 1.4, 
			 "cosmo_total_nonelectrostatic_energy": 8.46, 
			 "SMD_solvation_energy": 7.0 
		},
		"coords": [
			{
				"x": -1.6592244945,
				"y": -2.21850375,
				"z": -1.3212890481,
				"element": "C" 
			},
			{
				"x": -0.3803743715,
				"y": -2.4057689285,
				"z": -1.9351308225,
				"element": "O" 
			},
			{
				"x": 0.3968282603,
				"y": -1.2824623597,
				"z": -2.0543482665,
				"element": "C" 
			},
			{
				"x": 0.6744990808,
				"y": -0.7965079899,
				"z": -3.3304924726,
				"element": "C" 
			},
			{
				"x": 1.5153138231,
				"y": 0.2977259619,
				"z": -3.5011359966,
				"element": "C" 
			},
			{
				"x": 1.78822797,
				"y": 0.7640953899,
				"z": -4.7345322482,
				"element": "F" 
			},
			{
				"x": 2.0715660005,
				"y": 0.919296856,
				"z": -2.3917011155,
				"element": "C" 
			},
			{
				"x": 2.8799318903,
				"y": 1.9825406317,
				"z": -2.5597699646,
				"element": "F" 
			},
			{
				"x": 1.8071423243,
				"y": 0.4531331135,
				"z": -1.1068198859,
				"element": "C" 
			},
			{
				"x": 0.9740705224,
				"y": -0.6553012055,
				"z": -0.9256511771,
				"element": "C" 
			},
			{
				"x": 0.6733229128,
				"y": -1.2005106135,
				"z": 0.2883374178,
				"element": "O" 
			},
			{
				"x": 1.2679193723,
				"y": -0.6290425381,
				"z": 1.4438293421,
				"element": "C" 
			},
			{
				"x": -1.5615566592,
				"y": -1.8862488106,
				"z": -0.28380839,
				"element": "H" 
			},
			{
				"x": -2.2607150599,
				"y": -1.4933979782,
				"z": -1.8847120913,
				"element": "H" 
			},
			{
				"x": -2.1523852241,
				"y": -3.1921969499,
				"z": -1.3480264434,
				"element": "H" 
			},
			{
				"x": 0.2383781373,
				"y": -1.2861118721,
				"z": -4.1934985267,
				"element": "H" 
			},
			{
				"x": 2.2714739818,
				"y": 0.9666858491,
				"z": -0.274976508,
				"element": "H" 
			},
			{
				"x": 0.9139664161,
				"y": -1.2219440636,
				"z": 2.2882173235,
				"element": "H" 
			},
			{
				"x": 0.9621173933,
				"y": 0.4160527008,
				"z": 1.582413431,
				"element": "H" 
			},
			{
				"x": 2.3630977239,
				"y": -0.6809334433,
				"z": 1.3994954425,
				"element": "H" 
			}
		],
		 "valence_orbital": [ 
			{
				"type": "occ",
				"energy": -0.33889,
				"method": "rhf"
			},
			{
				"type": "occ",
				"energy": -0.31328,
				"method": "rhf"
			},
			{
				"type": "occ",
				"energy": -0.28074,
				"method": "rhf"
			},
			{
				"type": "occ",
				"energy": -0.25064,
				"method": "rhf"
			},
			{
				"type": "occ",
				"energy": -0.21553,
				"method": "rhf"
			},
			{
				"type": "unocc",
				"energy": -0.0076,
				"method": "rhf"
			},
			{
				"type": "unocc",
				"energy": 0.0102,
				"method": "rhf"
			},
			{
				"type": "unocc",
				"energy": 0.06756,
				"method": "rhf"
			},
			{
				"type": "unocc",
				"energy": 0.09093,
				"method": "rhf"
			},
			{
				"type": "unocc",
				"energy": 0.1042,
				"method": "rhf"
			}
		],
		"cosmo_sigma_profile": { 
			"-0.025": 0.0,
			"-0.024": 0.0,
			"-0.023": 0.0,
			"-0.022": 0.0,
			"-0.021": 0.0,
			"-0.02": 0.0,
			"-0.019": 0.0,
			"-0.018": 0.0,
			"-0.017": 0.0,
			"-0.016": 0.0,
			"-0.015": 0.0,
			"-0.014": 0.0,
			"-0.013": 0.0,
			"-0.012": 0.0,
			"-0.011": 0.0,
			"-0.01": 0.0,
			"-0.009": 0.165437902111,
			"-0.008": 2.32568753645,
			"-0.007": 4.54349358348,
			"-0.006": 10.1100714886,
			"-0.005": 13.7888106255,
			"-0.004": 15.5153577813,
			"-0.003": 17.6966705666,
			"-0.002": 13.685396647,
			"-0.001": 12.1510687924,
			"0.0": 16.1687793379,
			"0.001": 18.5501160169,
			"0.002": 17.8105160282,
			"0.003": 15.7019246069,
			"0.004": 23.324935181,
			"0.005": 5.15247142235,
			"0.006": 1.69225348699,
			"0.007": 2.4210477798,
			"0.008": 1.52905663415,
			"0.009": 2.03345822811,
			"0.01": 2.76141566957,
			"0.011": 2.09701276914,
			"0.012": 0.606735617707,
			"0.013": 0.0,
			"0.014": 0.0,
			"0.015": 0.0,
			"0.016": 0.0,
			"0.017": 0.0,
			"0.018": 0.0,
			"0.019": 0.0,
			"0.02": 0.0,
			"0.021": 0.0,
			"0.022": 0.0,
			"0.023": 0.0,
			"0.024": 0.0,
			"0.025": 0.0
		}
	}
}
