{
	 "smiles": "COC1=C(CN(C(=O)CCl)C2=C(C)C=CC=C2C)SC=C1", 
	 "Tm": 346.15, 
	 "num_atms": 39, 
	 "gaussian": { 
		 "optdone": 1, 
		 "sigma_profile": "yes", 
		 "theory": "DFT", 
		 "functional": "B3LYP", 
		 "basiset": "6-31G**", 
		 "properties": { 
			 "R2extent": 7373.9937, 
			 "electric_dipole_moment_norm": 5.49077169349, 
			 "electric_quadrupole_moment_norm": 8.18079771599, 
			 "total_energy": -1684.11787653, 
			 "HOMO_LUMO_gap": 0.18584, 
			 "cosmo_polarized_energy": -14.42, 
			 "cosmo_cavitation_energy": 43.68, 
			 "cosmo_dispersion_energy": -29.02, 
			 "cosmo_repulsion_energy": 2.2, 
			 "cosmo_total_nonelectrostatic_energy": 16.86, 
			 "SMD_solvation_energy": 8.62 
		},
		"coords": [
			{
				"x": 2.5122978043,
				"y": 2.3767506707,
				"z": -2.5986724673,
				"element": "C" 
			},
			{
				"x": 1.3499348874,
				"y": 1.801323972,
				"z": -2.0227352964,
				"element": "O" 
			},
			{
				"x": 1.2693468387,
				"y": 0.4377626961,
				"z": -2.0019445073,
				"element": "C" 
			},
			{
				"x": 0.136357556,
				"y": -0.1762277902,
				"z": -1.5087795463,
				"element": "C" 
			},
			{
				"x": -1.0941255469,
				"y": 0.5186801382,
				"z": -1.0057836755,
				"element": "C" 
			},
			{
				"x": -1.30364632,
				"y": 0.4710870055,
				"z": 0.463405753,
				"element": "N" 
			},
			{
				"x": -1.9225771684,
				"y": -0.6512210958,
				"z": 0.9510636561,
				"element": "C" 
			},
			{
				"x": -2.2174896935,
				"y": -1.5998791336,
				"z": 0.2307461013,
				"element": "O" 
			},
			{
				"x": -2.2679976995,
				"y": -0.6891502322,
				"z": 2.4402137883,
				"element": "C" 
			},
			{
				"x": -3.9667758229,
				"y": -0.1064415002,
				"z": 2.7145467025,
				"element": "Cl" 
			},
			{
				"x": -0.8531048583,
				"y": 1.5776559366,
				"z": 1.2693162792,
				"element": "C" 
			},
			{
				"x": 0.3577127149,
				"y": 1.4720939839,
				"z": 1.9854649624,
				"element": "C" 
			},
			{
				"x": 1.1889925916,
				"y": 0.2102501231,
				"z": 1.9612021072,
				"element": "C" 
			},
			{
				"x": 0.777904713,
				"y": 2.5724820685,
				"z": 2.7422826928,
				"element": "C" 
			},
			{
				"x": 0.0302486188,
				"y": 3.7471586324,
				"z": 2.7789698705,
				"element": "C" 
			},
			{
				"x": -1.1579169771,
				"y": 3.8369980846,
				"z": 2.0584115225,
				"element": "C" 
			},
			{
				"x": -1.6215687141,
				"y": 2.7597784927,
				"z": 1.2939922219,
				"element": "C" 
			},
			{
				"x": -2.9149011571,
				"y": 2.8788873225,
				"z": 0.5233348866,
				"element": "C" 
			},
			{
				"x": 0.2935217428,
				"y": -1.9117357301,
				"z": -1.6128274269,
				"element": "S" 
			},
			{
				"x": 1.8700003932,
				"y": -1.7804274017,
				"z": -2.3093844565,
				"element": "C" 
			},
			{
				"x": 2.268431387,
				"y": -0.4804146451,
				"z": -2.4613742484,
				"element": "C" 
			},
			{
				"x": 3.418600961,
				"y": 2.0978019722,
				"z": -2.0455671376,
				"element": "H" 
			},
			{
				"x": 2.3777655288,
				"y": 3.4579751305,
				"z": -2.5390405023,
				"element": "H" 
			},
			{
				"x": 2.6299247147,
				"y": 2.0856038395,
				"z": -3.6505338336,
				"element": "H" 
			},
			{
				"x": -1.0147966663,
				"y": 1.5698522076,
				"z": -1.2867015587,
				"element": "H" 
			},
			{
				"x": -1.9896717073,
				"y": 0.0944643378,
				"z": -1.4662779302,
				"element": "H" 
			},
			{
				"x": -1.6254118347,
				"y": -0.0696603372,
				"z": 3.0616921864,
				"element": "H" 
			},
			{
				"x": -2.2423209263,
				"y": -1.7289167483,
				"z": 2.7606119042,
				"element": "H" 
			},
			{
				"x": 1.3494216787,
				"y": -0.1466540642,
				"z": 0.9411448538,
				"element": "H" 
			},
			{
				"x": 2.1633843169,
				"y": 0.3867400842,
				"z": 2.423984016,
				"element": "H" 
			},
			{
				"x": 0.711653819,
				"y": -0.6081547159,
				"z": 2.5146535726,
				"element": "H" 
			},
			{
				"x": 1.7070985518,
				"y": 2.5033453253,
				"z": 3.3014437644,
				"element": "H" 
			},
			{
				"x": 0.373576795,
				"y": 4.5918911004,
				"z": 3.3693731736,
				"element": "H" 
			},
			{
				"x": -1.7440285314,
				"y": 4.7514049719,
				"z": 2.0898319646,
				"element": "H" 
			},
			{
				"x": -3.4590454653,
				"y": 3.7772348713,
				"z": 0.8256215668,
				"element": "H" 
			},
			{
				"x": -2.7398460211,
				"y": 2.9500915916,
				"z": -0.5567475503,
				"element": "H" 
			},
			{
				"x": -3.5632937838,
				"y": 2.014751272,
				"z": 0.6907474721,
				"element": "H" 
			},
			{
				"x": 2.4266045859,
				"y": -2.6721518222,
				"z": -2.5630692557,
				"element": "H" 
			},
			{
				"x": 3.2247386945,
				"y": -0.1922306143,
				"z": -2.8784156258,
				"element": "H" 
			}
		],
		 "valence_orbital": [ 
			{
				"type": "occ",
				"energy": -0.25088,
				"method": "rhf"
			},
			{
				"type": "occ",
				"energy": -0.24646,
				"method": "rhf"
			},
			{
				"type": "occ",
				"energy": -0.24448,
				"method": "rhf"
			},
			{
				"type": "occ",
				"energy": -0.23725,
				"method": "rhf"
			},
			{
				"type": "occ",
				"energy": -0.20786,
				"method": "rhf"
			},
			{
				"type": "unocc",
				"energy": -0.02202,
				"method": "rhf"
			},
			{
				"type": "unocc",
				"energy": -0.01607,
				"method": "rhf"
			},
			{
				"type": "unocc",
				"energy": -0.00748,
				"method": "rhf"
			},
			{
				"type": "unocc",
				"energy": -0.00386,
				"method": "rhf"
			},
			{
				"type": "unocc",
				"energy": 0.03969,
				"method": "rhf"
			}
		],
		"cosmo_sigma_profile": { 
			"-0.025": 0.0,
			"-0.024": 0.0,
			"-0.023": 0.0,
			"-0.022": 0.0,
			"-0.021": 0.0,
			"-0.02": 0.0,
			"-0.019": 0.0,
			"-0.018": 0.0,
			"-0.017": 0.0,
			"-0.016": 0.0,
			"-0.015": 0.0,
			"-0.014": 0.0,
			"-0.013": 0.0,
			"-0.012": 0.0,
			"-0.011": 0.0,
			"-0.01": 0.0,
			"-0.009": 0.472269749457,
			"-0.008": 3.86430907979,
			"-0.007": 8.96874127922,
			"-0.006": 16.7510859076,
			"-0.005": 30.9725057519,
			"-0.004": 29.2349354148,
			"-0.003": 28.3025546719,
			"-0.002": 25.5978807691,
			"-0.001": 23.3180812616,
			"0.0": 32.0230620813,
			"0.001": 22.8174972251,
			"0.002": 21.9622634708,
			"0.003": 23.7960657863,
			"0.004": 25.5206704693,
			"0.005": 26.4513042135,
			"0.006": 11.6596092902,
			"0.007": 4.28070957208,
			"0.008": 2.49289885736,
			"0.009": 2.30079212804,
			"0.01": 1.65910736845,
			"0.011": 1.74451730341,
			"0.012": 2.78118876728,
			"0.013": 2.8377247775,
			"0.014": 0.833460112114,
			"0.015": 0.0,
			"0.016": 0.0,
			"0.017": 0.0,
			"0.018": 0.0,
			"0.019": 0.0,
			"0.02": 0.0,
			"0.021": 0.0,
			"0.022": 0.0,
			"0.023": 0.0,
			"0.024": 0.0,
			"0.025": 0.0
		}
	}
}
