{
	 "smiles": "CC(C)(C)C1=NC(N)=CC=N1", 
	 "Tm": 338.15, 
	 "num_atms": 24, 
	 "gaussian": { 
		 "optdone": 1, 
		 "sigma_profile": "yes", 
		 "theory": "DFT", 
		 "functional": "B3LYP", 
		 "basiset": "6-31G**", 
		 "properties": { 
			 "R2extent": 2015.6147, 
			 "electric_dipole_moment_norm": 3.45341227918, 
			 "electric_quadrupole_moment_norm": 9.3415682404, 
			 "total_energy": -476.967437051, 
			 "HOMO_LUMO_gap": 0.21582, 
			 "cosmo_polarized_energy": -10.47, 
			 "cosmo_cavitation_energy": 26.29, 
			 "cosmo_dispersion_energy": -18.93, 
			 "cosmo_repulsion_energy": 1.55, 
			 "cosmo_total_nonelectrostatic_energy": 8.91, 
			 "SMD_solvation_energy": 3.04 
		},
		"coords": [
			{
				"x": 0.5109620494,
				"y": 2.5543617541,
				"z": 0.1701840042,
				"element": "C" 
			},
			{
				"x": -0.4308709432,
				"y": 1.7018043158,
				"z": 1.0510648359,
				"element": "C" 
			},
			{
				"x": -1.8267251005,
				"y": 2.3651430941,
				"z": 1.0930152769,
				"element": "C" 
			},
			{
				"x": 0.1392527954,
				"y": 1.6089499277,
				"z": 2.4753330787,
				"element": "C" 
			},
			{
				"x": -0.5714607903,
				"y": 0.3140104626,
				"z": 0.4145654755,
				"element": "C" 
			},
			{
				"x": -1.0571089001,
				"y": 0.2902272646,
				"z": -0.8374349613,
				"element": "N" 
			},
			{
				"x": -1.2010725369,
				"y": -0.903788834,
				"z": -1.4275297476,
				"element": "C" 
			},
			{
				"x": -1.7384944454,
				"y": -0.9062483106,
				"z": -2.6876687578,
				"element": "N" 
			},
			{
				"x": -0.8474904047,
				"y": -2.0960290876,
				"z": -0.7605985679,
				"element": "C" 
			},
			{
				"x": -0.3530407116,
				"y": -1.9479023809,
				"z": 0.5205999487,
				"element": "C" 
			},
			{
				"x": -0.2069098904,
				"y": -0.7573085127,
				"z": 1.1288554859,
				"element": "N" 
			},
			{
				"x": 0.1310171937,
				"y": 2.6229334703,
				"z": -0.8521625107,
				"element": "H" 
			},
			{
				"x": 0.5967347671,
				"y": 3.5666840367,
				"z": 0.5803606194,
				"element": "H" 
			},
			{
				"x": 1.5161693738,
				"y": 2.1199224342,
				"z": 0.1338092127,
				"element": "H" 
			},
			{
				"x": -2.2578949611,
				"y": 2.4278032144,
				"z": 0.0907920659,
				"element": "H" 
			},
			{
				"x": -1.7507781356,
				"y": 3.3772626422,
				"z": 1.5057105742,
				"element": "H" 
			},
			{
				"x": -2.5146730825,
				"y": 1.7942042762,
				"z": 1.7263224412,
				"element": "H" 
			},
			{
				"x": -0.5046888934,
				"y": 1.0110322477,
				"z": 3.1253722569,
				"element": "H" 
			},
			{
				"x": 0.2265113814,
				"y": 2.6143724115,
				"z": 2.9021612239,
				"element": "H" 
			},
			{
				"x": 1.1281011616,
				"y": 1.1430983353,
				"z": 2.4805809977,
				"element": "H" 
			},
			{
				"x": -1.6058586061,
				"y": -1.7139008331,
				"z": -3.2751579387,
				"element": "H" 
			},
			{
				"x": -1.7785281608,
				"y": -0.0086611713,
				"z": -3.1474426706,
				"element": "H" 
			},
			{
				"x": -0.9611066091,
				"y": -3.0705882178,
				"z": -1.2238381758,
				"element": "H" 
			},
			{
				"x": -0.0555465509,
				"y": -2.8216825396,
				"z": 1.0990058326,
				"element": "H" 
			}
		],
		 "valence_orbital": [ 
			{
				"type": "occ",
				"energy": -0.31465,
				"method": "rhf"
			},
			{
				"type": "occ",
				"energy": -0.28264,
				"method": "rhf"
			},
			{
				"type": "occ",
				"energy": -0.27493,
				"method": "rhf"
			},
			{
				"type": "occ",
				"energy": -0.23781,
				"method": "rhf"
			},
			{
				"type": "occ",
				"energy": -0.23315,
				"method": "rhf"
			},
			{
				"type": "unocc",
				"energy": -0.01733,
				"method": "rhf"
			},
			{
				"type": "unocc",
				"energy": 0.00071,
				"method": "rhf"
			},
			{
				"type": "unocc",
				"energy": 0.07778,
				"method": "rhf"
			},
			{
				"type": "unocc",
				"energy": 0.10347,
				"method": "rhf"
			},
			{
				"type": "unocc",
				"energy": 0.11295,
				"method": "rhf"
			}
		],
		"cosmo_sigma_profile": { 
			"-0.025": 0.0,
			"-0.024": 0.0,
			"-0.023": 0.0,
			"-0.022": 0.0,
			"-0.021": 0.0,
			"-0.02": 0.0,
			"-0.019": 0.0,
			"-0.018": 0.0,
			"-0.017": 0.0,
			"-0.016": 0.0,
			"-0.015": 0.0340857451192,
			"-0.014": 1.07449781489,
			"-0.013": 2.27661617176,
			"-0.012": 2.24772024981,
			"-0.011": 2.46982140542,
			"-0.01": 3.18966590758,
			"-0.009": 2.58961826957,
			"-0.008": 1.75758491209,
			"-0.007": 3.6300072821,
			"-0.006": 6.11970409347,
			"-0.005": 5.31449482477,
			"-0.004": 3.60860187457,
			"-0.003": 8.90742207871,
			"-0.002": 22.5359763124,
			"-0.001": 19.8754891234,
			"0.0": 20.6100005787,
			"0.001": 30.0593896417,
			"0.002": 23.7343594357,
			"0.003": 10.6938572532,
			"0.004": 5.96324548908,
			"0.005": 4.93475436499,
			"0.006": 5.43128745523,
			"0.007": 3.84112639014,
			"0.008": 3.24653130468,
			"0.009": 4.26580287314,
			"0.01": 2.53969922078,
			"0.011": 1.16762047331,
			"0.012": 1.03048508516,
			"0.013": 1.01289592691,
			"0.014": 0.493943785257,
			"0.015": 0.657459512412,
			"0.016": 0.19465993393,
			"0.017": 0.0,
			"0.018": 0.0,
			"0.019": 0.0,
			"0.02": 0.0,
			"0.021": 0.0,
			"0.022": 0.0,
			"0.023": 0.0,
			"0.024": 0.0,
			"0.025": 0.0
		}
	}
}
