{
	 "smiles": "OC(=O)C1CCCN1S(=O)(=O)C1=CC=CS1", 
	 "Tm": 373.15, 
	 "num_atms": 27, 
	 "gaussian": { 
		 "optdone": 1, 
		 "sigma_profile": "yes", 
		 "theory": "DFT", 
		 "functional": "B3LYP", 
		 "basiset": "6-31G**", 
		 "properties": { 
			 "R2extent": 4529.2913, 
			 "electric_dipole_moment_norm": 6.37887773515, 
			 "electric_quadrupole_moment_norm": 11.3190894833, 
			 "total_energy": -1501.52630052, 
			 "HOMO_LUMO_gap": 0.19953, 
			 "cosmo_polarized_energy": -20.86, 
			 "cosmo_cavitation_energy": 33.35, 
			 "cosmo_dispersion_energy": -23.88, 
			 "cosmo_repulsion_energy": 1.79, 
			 "cosmo_total_nonelectrostatic_energy": 11.26, 
			 "SMD_solvation_energy": 5.29 
		},
		"coords": [
			{
				"x": 0.8359192103,
				"y": -4.0510125245,
				"z": 0.733421196,
				"element": "O" 
			},
			{
				"x": 1.2749715605,
				"y": -2.8568075691,
				"z": 0.2752385874,
				"element": "C" 
			},
			{
				"x": 2.4241508311,
				"y": -2.4925455067,
				"z": 0.3548883565,
				"element": "O" 
			},
			{
				"x": 0.1455941661,
				"y": -2.0969065005,
				"z": -0.4216422562,
				"element": "C" 
			},
			{
				"x": 0.2254546807,
				"y": -2.2919737552,
				"z": -1.9580576997,
				"element": "C" 
			},
			{
				"x": 1.0890870949,
				"y": -1.1088538849,
				"z": -2.4256712304,
				"element": "C" 
			},
			{
				"x": 0.6117820319,
				"y": 0.0441071022,
				"z": -1.535086707,
				"element": "C" 
			},
			{
				"x": 0.3184539607,
				"y": -0.647290649,
				"z": -0.2655642636,
				"element": "N" 
			},
			{
				"x": -0.3633482069,
				"y": 0.1562071261,
				"z": 1.0178221496,
				"element": "S" 
			},
			{
				"x": 0.2590255255,
				"y": 1.4773869536,
				"z": 1.062334548,
				"element": "O" 
			},
			{
				"x": -0.3487652264,
				"y": -0.7868956481,
				"z": 2.1364110367,
				"element": "O" 
			},
			{
				"x": -2.0687398063,
				"y": 0.4281147549,
				"z": 0.5924780501,
				"element": "C" 
			},
			{
				"x": -2.5743235135,
				"y": 1.5346629269,
				"z": -0.0441108951,
				"element": "C" 
			},
			{
				"x": -3.9722058186,
				"y": 1.4219864225,
				"z": -0.2945447629,
				"element": "C" 
			},
			{
				"x": -4.4948686233,
				"y": 0.2373642554,
				"z": 0.1539883119,
				"element": "C" 
			},
			{
				"x": -3.300093021,
				"y": -0.7641509662,
				"z": 0.9065368138,
				"element": "S" 
			},
			{
				"x": 1.6064009362,
				"y": -4.4933317579,
				"z": 1.128322448,
				"element": "H" 
			},
			{
				"x": -0.8086362051,
				"y": -2.4482032848,
				"z": -0.0199545993,
				"element": "H" 
			},
			{
				"x": -0.7844699546,
				"y": -2.2203809464,
				"z": -2.3754343551,
				"element": "H" 
			},
			{
				"x": 0.6334192452,
				"y": -3.2678411226,
				"z": -2.2333953495,
				"element": "H" 
			},
			{
				"x": 2.144526825,
				"y": -1.3140077527,
				"z": -2.2263591819,
				"element": "H" 
			},
			{
				"x": 0.9693008531,
				"y": -0.8881822239,
				"z": -3.4894969258,
				"element": "H" 
			},
			{
				"x": -0.2938650655,
				"y": 0.5154670506,
				"z": -1.9463295362,
				"element": "H" 
			},
			{
				"x": 1.366680222,
				"y": 0.8157120889,
				"z": -1.3763040873,
				"element": "H" 
			},
			{
				"x": -1.9647356154,
				"y": 2.3946467913,
				"z": -0.2926832129,
				"element": "H" 
			},
			{
				"x": -4.563816075,
				"y": 2.1919228142,
				"z": -0.7760378265,
				"element": "H" 
			},
			{
				"x": -5.5220000116,
				"y": -0.098894194,
				"z": 0.1073313914,
				"element": "H" 
			}
		],
		 "valence_orbital": [ 
			{
				"type": "occ",
				"energy": -0.30429,
				"method": "rhf"
			},
			{
				"type": "occ",
				"energy": -0.28424,
				"method": "rhf"
			},
			{
				"type": "occ",
				"energy": -0.27376,
				"method": "rhf"
			},
			{
				"type": "occ",
				"energy": -0.26982,
				"method": "rhf"
			},
			{
				"type": "occ",
				"energy": -0.24673,
				"method": "rhf"
			},
			{
				"type": "unocc",
				"energy": -0.0472,
				"method": "rhf"
			},
			{
				"type": "unocc",
				"energy": 0.00264,
				"method": "rhf"
			},
			{
				"type": "unocc",
				"energy": 0.01146,
				"method": "rhf"
			},
			{
				"type": "unocc",
				"energy": 0.03474,
				"method": "rhf"
			},
			{
				"type": "unocc",
				"energy": 0.0537,
				"method": "rhf"
			}
		],
		"cosmo_sigma_profile": { 
			"-0.025": 0.0,
			"-0.024": 0.0,
			"-0.023": 0.0,
			"-0.022": 0.0,
			"-0.021": 0.0,
			"-0.02": 0.0,
			"-0.019": 0.134647208826,
			"-0.018": 0.835694608149,
			"-0.017": 1.3340402574,
			"-0.016": 0.620094597011,
			"-0.015": 0.557628359862,
			"-0.014": 0.526857063857,
			"-0.013": 1.21367628541,
			"-0.012": 0.507877734458,
			"-0.011": 0.865416038868,
			"-0.01": 1.59357631206,
			"-0.009": 3.18864505377,
			"-0.008": 4.99514711726,
			"-0.007": 6.48383094652,
			"-0.006": 11.0767891418,
			"-0.005": 22.9915332854,
			"-0.004": 26.013960918,
			"-0.003": 22.745364393,
			"-0.002": 19.7112049765,
			"-0.001": 15.0447627225,
			"0.0": 11.3028392361,
			"0.001": 16.2326685221,
			"0.002": 16.7705581552,
			"0.003": 13.1621034516,
			"0.004": 8.31784155356,
			"0.005": 7.58127332052,
			"0.006": 7.63536277407,
			"0.007": 6.42338658742,
			"0.008": 6.609614266,
			"0.009": 7.49975176959,
			"0.01": 10.0343946051,
			"0.011": 10.7857838842,
			"0.012": 3.59565767913,
			"0.013": 0.200071942853,
			"0.014": 0.0,
			"0.015": 0.0,
			"0.016": 0.0,
			"0.017": 0.0,
			"0.018": 0.0,
			"0.019": 0.0,
			"0.02": 0.0,
			"0.021": 0.0,
			"0.022": 0.0,
			"0.023": 0.0,
			"0.024": 0.0,
			"0.025": 0.0
		}
	}
}
