{
	 "smiles": "OC(=O)C(CC1=CC=C(F)C=C1)NC(=O)OCC1C2=C(C=CC=C2)C2=C1C=CC=C2", 
	 "Tm": 458.15, 
	 "num_atms": 50, 
	 "gaussian": { 
		 "optdone": 1, 
		 "sigma_profile": "yes", 
		 "theory": "DFT", 
		 "functional": "B3LYP", 
		 "basiset": "6-31G**", 
		 "properties": { 
			 "R2extent": 12372.9253, 
			 "electric_dipole_moment_norm": 2.26583837906, 
			 "electric_quadrupole_moment_norm": 13.1811468515, 
			 "total_energy": -1382.14443992, 
			 "HOMO_LUMO_gap": 0.1836, 
			 "cosmo_polarized_energy": -20.52, 
			 "cosmo_cavitation_energy": 53.16, 
			 "cosmo_dispersion_energy": -34.02, 
			 "cosmo_repulsion_energy": 2.51, 
			 "cosmo_total_nonelectrostatic_energy": 21.65, 
			 "SMD_solvation_energy": 10.11 
		},
		"coords": [
			{
				"x": 1.1094977765,
				"y": 2.599551299,
				"z": 0.5177115143,
				"element": "O" 
			},
			{
				"x": -0.0891336215,
				"y": 1.9916771655,
				"z": 0.4978181295,
				"element": "C" 
			},
			{
				"x": -1.0125641508,
				"y": 2.3475291133,
				"z": -0.2011541514,
				"element": "O" 
			},
			{
				"x": -0.1843256863,
				"y": 0.8394584883,
				"z": 1.5129805415,
				"element": "C" 
			},
			{
				"x": -1.2705877145,
				"y": -0.176894127,
				"z": 1.0823451142,
				"element": "C" 
			},
			{
				"x": -1.6388110661,
				"y": -1.1446363834,
				"z": 2.1835442252,
				"element": "C" 
			},
			{
				"x": -2.669768057,
				"y": -0.8417602079,
				"z": 3.0849693646,
				"element": "C" 
			},
			{
				"x": -3.0055616287,
				"y": -1.7091352293,
				"z": 4.1247668084,
				"element": "C" 
			},
			{
				"x": -2.2943956562,
				"y": -2.8961025732,
				"z": 4.2558913764,
				"element": "C" 
			},
			{
				"x": -2.6135218611,
				"y": -3.7452318726,
				"z": 5.2568391644,
				"element": "F" 
			},
			{
				"x": -1.2685982934,
				"y": -3.2360650772,
				"z": 3.38196676,
				"element": "C" 
			},
			{
				"x": -0.948299054,
				"y": -2.3535613328,
				"z": 2.349993504,
				"element": "C" 
			},
			{
				"x": 1.1002942502,
				"y": 0.2351659514,
				"z": 1.8372992126,
				"element": "N" 
			},
			{
				"x": 2.0262956273,
				"y": -0.2567473232,
				"z": 0.9591510775,
				"element": "C" 
			},
			{
				"x": 3.149225011,
				"y": -0.6032507125,
				"z": 1.2753184432,
				"element": "O" 
			},
			{
				"x": 1.5169097611,
				"y": -0.3315447435,
				"z": -0.302259147,
				"element": "O" 
			},
			{
				"x": 2.4125463229,
				"y": -0.8110370338,
				"z": -1.3202003039,
				"element": "C" 
			},
			{
				"x": 2.1444569904,
				"y": -0.0587172159,
				"z": -2.6282147761,
				"element": "C" 
			},
			{
				"x": 2.3117700492,
				"y": 1.4496434955,
				"z": -2.5182097988,
				"element": "C" 
			},
			{
				"x": 1.1248992371,
				"y": 2.099966744,
				"z": -2.9121082095,
				"element": "C" 
			},
			{
				"x": 1.0338622272,
				"y": 3.4936174922,
				"z": -2.8637262822,
				"element": "C" 
			},
			{
				"x": 2.1409790652,
				"y": 4.2273170246,
				"z": -2.4225294601,
				"element": "C" 
			},
			{
				"x": 3.3219548394,
				"y": 3.5782006957,
				"z": -2.0390711814,
				"element": "C" 
			},
			{
				"x": 3.4115238284,
				"y": 2.1817227894,
				"z": -2.0856852801,
				"element": "C" 
			},
			{
				"x": 0.1407348659,
				"y": 1.0845607431,
				"z": -3.3106655385,
				"element": "C" 
			},
			{
				"x": 0.7223952824,
				"y": -0.1889106762,
				"z": -3.1542614603,
				"element": "C" 
			},
			{
				"x": 0.0039042237,
				"y": -1.3365736994,
				"z": -3.4700281841,
				"element": "C" 
			},
			{
				"x": -1.3071563555,
				"y": -1.2063984118,
				"z": -3.9429012543,
				"element": "C" 
			},
			{
				"x": -1.8858039894,
				"y": 0.0584676547,
				"z": -4.0955530398,
				"element": "C" 
			},
			{
				"x": -1.167201626,
				"y": 1.2135936277,
				"z": -3.7811930956,
				"element": "C" 
			},
			{
				"x": 1.1089849751,
				"y": 3.2628569378,
				"z": -0.1970045275,
				"element": "H" 
			},
			{
				"x": -0.5256173628,
				"y": 1.3112106828,
				"z": 2.4433888285,
				"element": "H" 
			},
			{
				"x": -0.9096026806,
				"y": -0.7081259831,
				"z": 0.1981554173,
				"element": "H" 
			},
			{
				"x": -2.1436035263,
				"y": 0.4017960189,
				"z": 0.771010865,
				"element": "H" 
			},
			{
				"x": -3.2268568088,
				"y": 0.0848821597,
				"z": 2.9686213939,
				"element": "H" 
			},
			{
				"x": -3.8058610429,
				"y": -1.4830672521,
				"z": 4.8212670718,
				"element": "H" 
			},
			{
				"x": -0.7406295159,
				"y": -4.1744204142,
				"z": 3.5139162145,
				"element": "H" 
			},
			{
				"x": -0.1512283771,
				"y": -2.6123066896,
				"z": 1.6592702374,
				"element": "H" 
			},
			{
				"x": 1.477488175,
				"y": 0.3724097866,
				"z": 2.7617309182,
				"element": "H" 
			},
			{
				"x": 3.4412691162,
				"y": -0.6731234676,
				"z": -0.9815691844,
				"element": "H" 
			},
			{
				"x": 2.2388476767,
				"y": -1.8848606409,
				"z": -1.4549151867,
				"element": "H" 
			},
			{
				"x": 2.8574786943,
				"y": -0.4682786679,
				"z": -3.3601420808,
				"element": "H" 
			},
			{
				"x": 0.1195191588,
				"y": 4.001680919,
				"z": -3.1553701208,
				"element": "H" 
			},
			{
				"x": 2.087011714,
				"y": 5.3118302468,
				"z": -2.3848135307,
				"element": "H" 
			},
			{
				"x": 4.1725858603,
				"y": 4.1622960795,
				"z": -1.7006135024,
				"element": "H" 
			},
			{
				"x": 4.3267816727,
				"y": 1.6850343185,
				"z": -1.7745696392,
				"element": "H" 
			},
			{
				"x": 0.4461899388,
				"y": -2.3232079903,
				"z": -3.3552720847,
				"element": "H" 
			},
			{
				"x": -1.8801109596,
				"y": -2.0945901255,
				"z": -4.1930526543,
				"element": "H" 
			},
			{
				"x": -2.9052751285,
				"y": 0.1420528137,
				"z": -4.4608719744,
				"element": "H" 
			},
			{
				"x": -1.6239921766,
				"y": 2.192225603,
				"z": -3.8954005332,
				"element": "H" 
			}
		],
		 "valence_orbital": [ 
			{
				"type": "occ",
				"energy": -0.2574,
				"method": "rhf"
			},
			{
				"type": "occ",
				"energy": -0.25146,
				"method": "rhf"
			},
			{
				"type": "occ",
				"energy": -0.24794,
				"method": "rhf"
			},
			{
				"type": "occ",
				"energy": -0.23498,
				"method": "rhf"
			},
			{
				"type": "occ",
				"energy": -0.2203,
				"method": "rhf"
			},
			{
				"type": "unocc",
				"energy": -0.0367,
				"method": "rhf"
			},
			{
				"type": "unocc",
				"energy": -0.01937,
				"method": "rhf"
			},
			{
				"type": "unocc",
				"energy": -0.00978,
				"method": "rhf"
			},
			{
				"type": "unocc",
				"energy": 0.00092,
				"method": "rhf"
			},
			{
				"type": "unocc",
				"energy": 0.00327,
				"method": "rhf"
			}
		],
		"cosmo_sigma_profile": { 
			"-0.025": 0.0,
			"-0.024": 0.0,
			"-0.023": 0.0,
			"-0.022": 0.0,
			"-0.021": 0.0,
			"-0.02": 0.0,
			"-0.019": 0.0,
			"-0.018": 0.0,
			"-0.017": 0.0,
			"-0.016": 0.0,
			"-0.015": 0.629846830231,
			"-0.014": 1.31746473039,
			"-0.013": 1.5119335574,
			"-0.012": 0.941382129493,
			"-0.011": 2.04420564741,
			"-0.01": 1.52836996519,
			"-0.009": 3.23496244863,
			"-0.008": 2.75270416939,
			"-0.007": 8.15972309625,
			"-0.006": 33.7810996436,
			"-0.005": 32.9877501088,
			"-0.004": 36.2707476304,
			"-0.003": 29.4286033286,
			"-0.002": 23.7819005184,
			"-0.001": 25.317850121,
			"0.0": 23.0284789666,
			"0.001": 26.4518261954,
			"0.002": 28.3908225208,
			"0.003": 27.9830350139,
			"0.004": 39.1231520737,
			"0.005": 29.6143586141,
			"0.006": 10.9699588054,
			"0.007": 6.03501250916,
			"0.008": 5.39732778783,
			"0.009": 4.74506200547,
			"0.01": 3.3455663486,
			"0.011": 4.44119894655,
			"0.012": 4.22669664966,
			"0.013": 5.37977138235,
			"0.014": 0.579069162293,
			"0.015": 0.0,
			"0.016": 0.0,
			"0.017": 0.0,
			"0.018": 0.0,
			"0.019": 0.0,
			"0.02": 0.0,
			"0.021": 0.0,
			"0.022": 0.0,
			"0.023": 0.0,
			"0.024": 0.0,
			"0.025": 0.0
		}
	}
}
