{
	 "smiles": "CC1=NC(NC(=O)[C@@H]2CCCN2)=CC=C1", 
	 "Tm": 336.15, 
	 "num_atms": 30, 
	 "gaussian": { 
		 "optdone": 1, 
		 "sigma_profile": "yes", 
		 "theory": "DFT", 
		 "functional": "B3LYP", 
		 "basiset": "6-31G**", 
		 "properties": { 
			 "R2extent": 3950.361, 
			 "electric_dipole_moment_norm": 4.25034731051, 
			 "electric_quadrupole_moment_norm": 14.8200780663, 
			 "total_energy": -667.707603397, 
			 "HOMO_LUMO_gap": 0.17154, 
			 "cosmo_polarized_energy": -12.3, 
			 "cosmo_cavitation_energy": 32.15, 
			 "cosmo_dispersion_energy": -23.13, 
			 "cosmo_repulsion_energy": 1.82, 
			 "cosmo_total_nonelectrostatic_energy": 10.83, 
			 "SMD_solvation_energy": 3.57 
		},
		"coords": [
			{
				"x": -0.0251792222,
				"y": -0.6271767266,
				"z": 3.2739161871,
				"element": "C" 
			},
			{
				"x": -1.2176694277,
				"y": -0.9490179982,
				"z": 2.408670678,
				"element": "C" 
			},
			{
				"x": -1.0473395459,
				"y": -0.7745234285,
				"z": 1.083993738,
				"element": "N" 
			},
			{
				"x": -2.0637273095,
				"y": -1.0412246244,
				"z": 0.2601827802,
				"element": "C" 
			},
			{
				"x": -1.9181613915,
				"y": -0.8494859841,
				"z": -1.1151153415,
				"element": "N" 
			},
			{
				"x": -0.9156070671,
				"y": -0.3272646078,
				"z": -1.9377032295,
				"element": "C" 
			},
			{
				"x": -1.1536767472,
				"y": -0.2633758732,
				"z": -3.1344758051,
				"element": "O" 
			},
			{
				"x": 0.4123404484,
				"y": 0.1091913076,
				"z": -1.3140941688,
				"element": "C" 
			},
			{
				"x": 1.3290969411,
				"y": 0.831059497,
				"z": -2.3313338097,
				"element": "C" 
			},
			{
				"x": 2.453814161,
				"y": -0.1812698083,
				"z": -2.6187608324,
				"element": "C" 
			},
			{
				"x": 2.5562229496,
				"y": -0.9427698289,
				"z": -1.2944367067,
				"element": "C" 
			},
			{
				"x": 1.1507511601,
				"y": -1.1096274288,
				"z": -0.9202328381,
				"element": "N" 
			},
			{
				"x": -3.3107334085,
				"y": -1.5124987797,
				"z": 0.7232757141,
				"element": "C" 
			},
			{
				"x": -3.4752030502,
				"y": -1.6952431933,
				"z": 2.0857739812,
				"element": "C" 
			},
			{
				"x": -2.41701007,
				"y": -1.4075616622,
				"z": 2.9533072203,
				"element": "C" 
			},
			{
				"x": 0.8100934565,
				"y": -1.2972161579,
				"z": 3.0412172048,
				"element": "H" 
			},
			{
				"x": -0.2590058565,
				"y": -0.7270614103,
				"z": 4.3365477688,
				"element": "H" 
			},
			{
				"x": 0.3197960834,
				"y": 0.3942856516,
				"z": 3.0845448732,
				"element": "H" 
			},
			{
				"x": -2.7182538666,
				"y": -1.1170808213,
				"z": -1.675414075,
				"element": "H" 
			},
			{
				"x": 0.1897877649,
				"y": 0.753317992,
				"z": -0.4539562359,
				"element": "H" 
			},
			{
				"x": 0.7804217148,
				"y": 1.1224269922,
				"z": -3.2277191323,
				"element": "H" 
			},
			{
				"x": 1.7405639501,
				"y": 1.734018746,
				"z": -1.8681872619,
				"element": "H" 
			},
			{
				"x": 2.1462618858,
				"y": -0.8680298782,
				"z": -3.4138609477,
				"element": "H" 
			},
			{
				"x": 3.3940109011,
				"y": 0.2924171545,
				"z": -2.9155846427,
				"element": "H" 
			},
			{
				"x": 3.0457188763,
				"y": -1.9184829622,
				"z": -1.3952205345,
				"element": "H" 
			},
			{
				"x": 3.1399031392,
				"y": -0.3496679494,
				"z": -0.5653928,
				"element": "H" 
			},
			{
				"x": 0.992102609,
				"y": -1.3107767931,
				"z": 0.0608076263,
				"element": "H" 
			},
			{
				"x": -4.1164788281,
				"y": -1.7192933446,
				"z": 0.0256352239,
				"element": "H" 
			},
			{
				"x": -4.4229654962,
				"y": -2.0562602378,
				"z": 2.4748233501,
				"element": "H" 
			},
			{
				"x": -2.5193747544,
				"y": -1.538707842,
				"z": 4.0249920159,
				"element": "H" 
			}
		],
		 "valence_orbital": [ 
			{
				"type": "occ",
				"energy": -0.28574,
				"method": "rhf"
			},
			{
				"type": "occ",
				"energy": -0.2701,
				"method": "rhf"
			},
			{
				"type": "occ",
				"energy": -0.25732,
				"method": "rhf"
			},
			{
				"type": "occ",
				"energy": -0.22818,
				"method": "rhf"
			},
			{
				"type": "occ",
				"energy": -0.20433,
				"method": "rhf"
			},
			{
				"type": "unocc",
				"energy": -0.03279,
				"method": "rhf"
			},
			{
				"type": "unocc",
				"energy": -0.01619,
				"method": "rhf"
			},
			{
				"type": "unocc",
				"energy": 0.04043,
				"method": "rhf"
			},
			{
				"type": "unocc",
				"energy": 0.07621,
				"method": "rhf"
			},
			{
				"type": "unocc",
				"energy": 0.08908,
				"method": "rhf"
			}
		],
		"cosmo_sigma_profile": { 
			"-0.025": 0.0,
			"-0.024": 0.0,
			"-0.023": 0.0,
			"-0.022": 0.0,
			"-0.021": 0.0,
			"-0.02": 0.0,
			"-0.019": 0.0,
			"-0.018": 0.0,
			"-0.017": 0.0,
			"-0.016": 0.0,
			"-0.015": 0.116759659991,
			"-0.014": 1.17961988817,
			"-0.013": 0.986174247535,
			"-0.012": 1.25014876492,
			"-0.011": 1.35601351316,
			"-0.01": 0.861268964343,
			"-0.009": 1.20961296437,
			"-0.008": 1.80893281577,
			"-0.007": 4.15516216482,
			"-0.006": 6.47788611908,
			"-0.005": 11.3690608332,
			"-0.004": 14.789264807,
			"-0.003": 21.4846092399,
			"-0.002": 27.5325620246,
			"-0.001": 33.4304653321,
			"0.0": 31.8959386808,
			"0.001": 22.9400978459,
			"0.002": 15.5762401424,
			"0.003": 14.2390146248,
			"0.004": 8.57886857745,
			"0.005": 4.49477657352,
			"0.006": 4.02602193352,
			"0.007": 2.5695230106,
			"0.008": 2.23539177198,
			"0.009": 2.80902406686,
			"0.01": 2.10955024731,
			"0.011": 2.8615820301,
			"0.012": 3.7309381279,
			"0.013": 4.82151451777,
			"0.014": 1.06655328088,
			"0.015": 0.409005288053,
			"0.016": 0.533623601371,
			"0.017": 0.11239999875,
			"0.018": 0.0,
			"0.019": 0.0,
			"0.02": 0.0,
			"0.021": 0.0,
			"0.022": 0.0,
			"0.023": 0.0,
			"0.024": 0.0,
			"0.025": 0.0
		}
	}
}
