{
	 "smiles": "CN(C)S(N)(=O)=O", 
	 "Tm": 368.15, 
	 "num_atms": 15, 
	 "gaussian": { 
		 "optdone": 1, 
		 "sigma_profile": "yes", 
		 "theory": "DFT", 
		 "functional": "B3LYP", 
		 "basiset": "6-31G**", 
		 "properties": { 
			 "R2extent": 987.9791, 
			 "electric_dipole_moment_norm": 3.21300487706, 
			 "electric_quadrupole_moment_norm": 10.8219494741, 
			 "total_energy": -739.095715704, 
			 "HOMO_LUMO_gap": 0.3058, 
			 "cosmo_polarized_energy": -13.94, 
			 "cosmo_cavitation_energy": 19.15, 
			 "cosmo_dispersion_energy": -14.95, 
			 "cosmo_repulsion_energy": 1.21, 
			 "cosmo_total_nonelectrostatic_energy": 5.41, 
			 "SMD_solvation_energy": 2.36 
		},
		"coords": [
			{
				"x": 0.1457382173,
				"y": 1.8196201168,
				"z": 0.296246863,
				"element": "C" 
			},
			{
				"x": -0.5901901571,
				"y": 0.5489700119,
				"z": 0.3524463274,
				"element": "N" 
			},
			{
				"x": -1.9045866786,
				"y": 0.6490019357,
				"z": 1.0053511146,
				"element": "C" 
			},
			{
				"x": -0.6056198308,
				"y": -0.3014112398,
				"z": -1.1051029647,
				"element": "S" 
			},
			{
				"x": 1.0169991506,
				"y": -0.7611700356,
				"z": -1.1403793117,
				"element": "N" 
			},
			{
				"x": -0.7777272179,
				"y": 0.565998385,
				"z": -2.2730140669,
				"element": "O" 
			},
			{
				"x": -1.4914009522,
				"y": -1.4484009402,
				"z": -0.9009015181,
				"element": "O" 
			},
			{
				"x": 1.1281630681,
				"y": 1.6501366531,
				"z": -0.145595619,
				"element": "H" 
			},
			{
				"x": 0.2814703956,
				"y": 2.1709966892,
				"z": 1.3228363957,
				"element": "H" 
			},
			{
				"x": -0.3855257333,
				"y": 2.5879142359,
				"z": -0.2808007177,
				"element": "H" 
			},
			{
				"x": -1.7362127696,
				"y": 0.9823874078,
				"z": 2.0330602683,
				"element": "H" 
			},
			{
				"x": -2.5724060343,
				"y": 1.3665941667,
				"z": 0.5076867124,
				"element": "H" 
			},
			{
				"x": -2.3768504822,
				"y": -0.3320502427,
				"z": 1.0228104674,
				"element": "H" 
			},
			{
				"x": 1.2836654275,
				"y": -0.9267933385,
				"z": -2.1074349638,
				"element": "H" 
			},
			{
				"x": 1.1668835967,
				"y": -1.5876938051,
				"z": -0.5673089871,
				"element": "H" 
			}
		],
		 "valence_orbital": [ 
			{
				"type": "occ",
				"energy": -0.34047,
				"method": "rhf"
			},
			{
				"type": "occ",
				"energy": -0.32085,
				"method": "rhf"
			},
			{
				"type": "occ",
				"energy": -0.30426,
				"method": "rhf"
			},
			{
				"type": "occ",
				"energy": -0.29207,
				"method": "rhf"
			},
			{
				"type": "occ",
				"energy": -0.25462,
				"method": "rhf"
			},
			{
				"type": "unocc",
				"energy": 0.05118,
				"method": "rhf"
			},
			{
				"type": "unocc",
				"energy": 0.07592,
				"method": "rhf"
			},
			{
				"type": "unocc",
				"energy": 0.0887,
				"method": "rhf"
			},
			{
				"type": "unocc",
				"energy": 0.10408,
				"method": "rhf"
			},
			{
				"type": "unocc",
				"energy": 0.10914,
				"method": "rhf"
			}
		],
		"cosmo_sigma_profile": { 
			"-0.025": 0.0,
			"-0.024": 0.0,
			"-0.023": 0.0,
			"-0.022": 0.0,
			"-0.021": 0.0,
			"-0.02": 0.0,
			"-0.019": 0.0,
			"-0.018": 0.0,
			"-0.017": 0.0,
			"-0.016": 0.116989590528,
			"-0.015": 2.37687152702,
			"-0.014": 2.42345009336,
			"-0.013": 1.89269143626,
			"-0.012": 2.84315640351,
			"-0.011": 2.13745737565,
			"-0.01": 1.95640872043,
			"-0.009": 1.54017407234,
			"-0.008": 1.17724604867,
			"-0.007": 1.96360475149,
			"-0.006": 6.04376828809,
			"-0.005": 9.42354219072,
			"-0.004": 14.2481213888,
			"-0.003": 14.5114539768,
			"-0.002": 16.7892643482,
			"-0.001": 5.23278606272,
			"0.0": 4.50229638526,
			"0.001": 4.54056810823,
			"0.002": 3.91931925342,
			"0.003": 4.69316782055,
			"0.004": 4.61348044824,
			"0.005": 4.11900806027,
			"0.006": 4.55986888984,
			"0.007": 3.87573208639,
			"0.008": 3.44120628287,
			"0.009": 4.90792085377,
			"0.01": 6.40964397135,
			"0.011": 10.956037039,
			"0.012": 4.66582984514,
			"0.013": 0.00434616004388,
			"0.014": 0.0,
			"0.015": 0.0,
			"0.016": 0.0,
			"0.017": 0.0,
			"0.018": 0.0,
			"0.019": 0.0,
			"0.02": 0.0,
			"0.021": 0.0,
			"0.022": 0.0,
			"0.023": 0.0,
			"0.024": 0.0,
			"0.025": 0.0
		}
	}
}
