{
	 "smiles": "OC(=O)C1=NN(C=C1O)C1=C(F)C=CC=C1", 
	 "Tm": 476.15, 
	 "num_atms": 23, 
	 "gaussian": { 
		 "optdone": 1, 
		 "sigma_profile": "yes", 
		 "theory": "DFT", 
		 "functional": "B3LYP", 
		 "basiset": "6-31G**", 
		 "properties": { 
			 "R2extent": 4614.6729, 
			 "electric_dipole_moment_norm": 6.06688532033, 
			 "electric_quadrupole_moment_norm": 10.314903525, 
			 "total_energy": -820.271247233, 
			 "HOMO_LUMO_gap": 0.1674, 
			 "cosmo_polarized_energy": -13.23, 
			 "cosmo_cavitation_energy": 28.62, 
			 "cosmo_dispersion_energy": -21.41, 
			 "cosmo_repulsion_energy": 1.61, 
			 "cosmo_total_nonelectrostatic_energy": 8.83, 
			 "SMD_solvation_energy": 6.74 
		},
		"coords": [
			{
				"x": -1.5883389048,
				"y": 2.2803942552,
				"z": 1.5107529317,
				"element": "O" 
			},
			{
				"x": -1.6792686954,
				"y": 1.1208850843,
				"z": 2.1808864867,
				"element": "C" 
			},
			{
				"x": -2.0258495827,
				"y": 1.0737215517,
				"z": 3.3525975278,
				"element": "O" 
			},
			{
				"x": -1.3412236497,
				"y": -0.0969167051,
				"z": 1.4439202489,
				"element": "C" 
			},
			{
				"x": -0.9569005115,
				"y": -0.1015791415,
				"z": 0.1662704733,
				"element": "N" 
			},
			{
				"x": -0.7437528444,
				"y": -1.3947136775,
				"z": -0.1311099019,
				"element": "N" 
			},
			{
				"x": -0.989762981,
				"y": -2.2246967726,
				"z": 0.952390138,
				"element": "C" 
			},
			{
				"x": -1.3798760086,
				"y": -1.4046004049,
				"z": 1.9895351615,
				"element": "C" 
			},
			{
				"x": -1.7239516548,
				"y": -1.742566736,
				"z": 3.2425545331,
				"element": "O" 
			},
			{
				"x": -0.3168227751,
				"y": -1.7982710461,
				"z": -1.4238913318,
				"element": "C" 
			},
			{
				"x": -0.0889034359,
				"y": -0.8864090643,
				"z": -2.4709904195,
				"element": "C" 
			},
			{
				"x": -0.2642521445,
				"y": 0.433780513,
				"z": -2.3051863828,
				"element": "F" 
			},
			{
				"x": 0.3290213588,
				"y": -1.3162828052,
				"z": -3.7256122026,
				"element": "C" 
			},
			{
				"x": 0.5327397528,
				"y": -2.6705029883,
				"z": -3.9748037562,
				"element": "C" 
			},
			{
				"x": 0.3128007924,
				"y": -3.5920124303,
				"z": -2.9511188533,
				"element": "C" 
			},
			{
				"x": -0.1054284161,
				"y": -3.1594904886,
				"z": -1.6963418379,
				"element": "C" 
			},
			{
				"x": -1.2968912146,
				"y": 2.0846747408,
				"z": 0.6022665075,
				"element": "H" 
			},
			{
				"x": -0.8771024035,
				"y": -3.2934604236,
				"z": 0.9180593756,
				"element": "H" 
			},
			{
				"x": -1.9401588499,
				"y": -0.8996596376,
				"z": 3.6932281112,
				"element": "H" 
			},
			{
				"x": 0.486631004,
				"y": -0.561900517,
				"z": -4.4888289885,
				"element": "H" 
			},
			{
				"x": 0.8588613176,
				"y": -2.9988640108,
				"z": -4.9561298202,
				"element": "H" 
			},
			{
				"x": 0.4652142428,
				"y": -4.6524749138,
				"z": -3.1225956608,
				"element": "H" 
			},
			{
				"x": -0.2689843958,
				"y": -3.8951543815,
				"z": -0.9193523397,
				"element": "H" 
			}
		],
		 "valence_orbital": [ 
			{
				"type": "occ",
				"energy": -0.30776,
				"method": "rhf"
			},
			{
				"type": "occ",
				"energy": -0.2866,
				"method": "rhf"
			},
			{
				"type": "occ",
				"energy": -0.27019,
				"method": "rhf"
			},
			{
				"type": "occ",
				"energy": -0.25791,
				"method": "rhf"
			},
			{
				"type": "occ",
				"energy": -0.22972,
				"method": "rhf"
			},
			{
				"type": "unocc",
				"energy": -0.06232,
				"method": "rhf"
			},
			{
				"type": "unocc",
				"energy": -0.0252,
				"method": "rhf"
			},
			{
				"type": "unocc",
				"energy": -0.009,
				"method": "rhf"
			},
			{
				"type": "unocc",
				"energy": 0.03081,
				"method": "rhf"
			},
			{
				"type": "unocc",
				"energy": 0.05931,
				"method": "rhf"
			}
		],
		"cosmo_sigma_profile": { 
			"-0.025": 0.0,
			"-0.024": 0.0,
			"-0.023": 0.0,
			"-0.022": 0.0,
			"-0.021": 0.0,
			"-0.02": 0.0,
			"-0.019": 0.0,
			"-0.018": 0.0,
			"-0.017": 0.0,
			"-0.016": 0.249016471385,
			"-0.015": 0.643377408708,
			"-0.014": 0.179646547094,
			"-0.013": 0.72096363005,
			"-0.012": 2.73612146661,
			"-0.011": 2.46138175938,
			"-0.01": 2.26328198612,
			"-0.009": 3.04783599084,
			"-0.008": 5.28668151233,
			"-0.007": 8.32408503016,
			"-0.006": 9.98167288952,
			"-0.005": 13.0980936795,
			"-0.004": 11.795920277,
			"-0.003": 12.1305905583,
			"-0.002": 13.1480811647,
			"-0.001": 16.923701498,
			"0.0": 21.7047294653,
			"0.001": 17.8263831963,
			"0.002": 16.615021323,
			"0.003": 17.5230034747,
			"0.004": 14.1095051651,
			"0.005": 7.04324399075,
			"0.006": 5.22073423184,
			"0.007": 5.05626160823,
			"0.008": 4.83683566995,
			"0.009": 6.5019263167,
			"0.01": 5.64350772238,
			"0.011": 3.47325514039,
			"0.012": 2.06120839488,
			"0.013": 0.530132365815,
			"0.014": 0.0,
			"0.015": 0.0,
			"0.016": 0.0,
			"0.017": 0.0,
			"0.018": 0.0,
			"0.019": 0.0,
			"0.02": 0.0,
			"0.021": 0.0,
			"0.022": 0.0,
			"0.023": 0.0,
			"0.024": 0.0,
			"0.025": 0.0
		}
	}
}
