{
	 "smiles": "CN(C)C1=CC=C(C=CC2=NC3=C(C=CC=C3)C=C2)C=C1", 
	 "Tm": 457.15, 
	 "num_atms": 39, 
	 "gaussian": { 
		 "optdone": 1, 
		 "sigma_profile": "yes", 
		 "theory": "DFT", 
		 "functional": "B3LYP", 
		 "basiset": "6-31G**", 
		 "properties": { 
			 "R2extent": 9271.6106, 
			 "electric_dipole_moment_norm": 1.9808396452, 
			 "electric_quadrupole_moment_norm": 28.0749614942, 
			 "total_energy": -844.365410618, 
			 "HOMO_LUMO_gap": 0.11941, 
			 "cosmo_polarized_energy": -11.56, 
			 "cosmo_cavitation_energy": 41.83, 
			 "cosmo_dispersion_energy": -30.14, 
			 "cosmo_repulsion_energy": 2.22, 
			 "cosmo_total_nonelectrostatic_energy": 13.91, 
			 "SMD_solvation_energy": 5.8 
		},
		"coords": [
			{
				"x": 3.4202190764,
				"y": -4.74160002,
				"z": -1.1662832702,
				"element": "C" 
			},
			{
				"x": 2.0728191864,
				"y": -4.241567502,
				"z": -0.9540079244,
				"element": "N" 
			},
			{
				"x": 1.0540856197,
				"y": -5.1567053643,
				"z": -0.467908007,
				"element": "C" 
			},
			{
				"x": 1.8420952108,
				"y": -2.8774650595,
				"z": -0.9264629255,
				"element": "C" 
			},
			{
				"x": 0.5763236113,
				"y": -2.3469744265,
				"z": -0.5768386526,
				"element": "C" 
			},
			{
				"x": 0.3354393718,
				"y": -0.9818350711,
				"z": -0.5701310597,
				"element": "C" 
			},
			{
				"x": 1.3424137553,
				"y": -0.0516010583,
				"z": -0.9052854937,
				"element": "C" 
			},
			{
				"x": 1.213664108,
				"y": 1.3981272053,
				"z": -0.9341959139,
				"element": "C" 
			},
			{
				"x": 0.2412735469,
				"y": 2.3244507049,
				"z": -0.6992130173,
				"element": "C" 
			},
			{
				"x": -1.1641407124,
				"y": 2.2868800531,
				"z": -0.2960232122,
				"element": "C" 
			},
			{
				"x": -1.8138281819,
				"y": 1.1518639931,
				"z": -0.0504515529,
				"element": "N" 
			},
			{
				"x": -3.1233719355,
				"y": 1.1968114242,
				"z": 0.3209828123,
				"element": "C" 
			},
			{
				"x": -3.8493644294,
				"y": 2.4220926808,
				"z": 0.463599638,
				"element": "C" 
			},
			{
				"x": -5.2110197333,
				"y": 2.3881508538,
				"z": 0.8540362448,
				"element": "C" 
			},
			{
				"x": -5.8396262177,
				"y": 1.1856993,
				"z": 1.0968175757,
				"element": "C" 
			},
			{
				"x": -5.125443594,
				"y": -0.02939242,
				"z": 0.957099426,
				"element": "C" 
			},
			{
				"x": -3.800787457,
				"y": -0.0265396459,
				"z": 0.5789372931,
				"element": "C" 
			},
			{
				"x": -3.1380161592,
				"y": 3.6219463389,
				"z": 0.1972989064,
				"element": "C" 
			},
			{
				"x": -1.8231336104,
				"y": 3.5584346158,
				"z": -0.1747448792,
				"element": "C" 
			},
			{
				"x": 2.6051617277,
				"y": -0.5886396589,
				"z": -1.2421591445,
				"element": "C" 
			},
			{
				"x": 2.8606584836,
				"y": -1.9499006063,
				"z": -1.2529428938,
				"element": "C" 
			},
			{
				"x": 3.3997876223,
				"y": -5.8322187005,
				"z": -1.1816957522,
				"element": "H" 
			},
			{
				"x": 3.821468035,
				"y": -4.4047476216,
				"z": -2.1296019795,
				"element": "H" 
			},
			{
				"x": 4.1202738021,
				"y": -4.4233343328,
				"z": -0.3788644088,
				"element": "H" 
			},
			{
				"x": 0.1225421683,
				"y": -5.0511177901,
				"z": -1.0362748257,
				"element": "H" 
			},
			{
				"x": 1.4035884155,
				"y": -6.1822419202,
				"z": -0.5956476037,
				"element": "H" 
			},
			{
				"x": 0.8196155612,
				"y": -5.0044242892,
				"z": 0.5964705427,
				"element": "H" 
			},
			{
				"x": -0.2340934572,
				"y": -3.0122817518,
				"z": -0.3037263144,
				"element": "H" 
			},
			{
				"x": -0.6424794003,
				"y": -0.6018161545,
				"z": -0.3003151891,
				"element": "H" 
			},
			{
				"x": 2.155811266,
				"y": 1.8647035817,
				"z": -1.2256249413,
				"element": "H" 
			},
			{
				"x": 0.5827032808,
				"y": 3.3477510454,
				"z": -0.8452098697,
				"element": "H" 
			},
			{
				"x": -5.7508688693,
				"y": 3.3262735937,
				"z": 0.9586298072,
				"element": "H" 
			},
			{
				"x": -6.8834971691,
				"y": 1.1655517644,
				"z": 1.395777533,
				"element": "H" 
			},
			{
				"x": -5.6309211213,
				"y": -0.9712962706,
				"z": 1.1509923587,
				"element": "H" 
			},
			{
				"x": -3.2418627948,
				"y": -0.950171106,
				"z": 0.4681111267,
				"element": "H" 
			},
			{
				"x": -3.6463955048,
				"y": 4.5785823837,
				"z": 0.2919983391,
				"element": "H" 
			},
			{
				"x": -1.2636736015,
				"y": 4.4652682372,
				"z": -0.3823412693,
				"element": "H" 
			},
			{
				"x": 3.4142430379,
				"y": 0.090975381,
				"z": -1.5007973382,
				"element": "H" 
			},
			{
				"x": 3.854237062,
				"y": -2.2924923874,
				"z": -1.5146041649,
				"element": "H" 
			}
		],
		 "valence_orbital": [ 
			{
				"type": "occ",
				"energy": -0.24021,
				"method": "rhf"
			},
			{
				"type": "occ",
				"energy": -0.23775,
				"method": "rhf"
			},
			{
				"type": "occ",
				"energy": -0.2308,
				"method": "rhf"
			},
			{
				"type": "occ",
				"energy": -0.22122,
				"method": "rhf"
			},
			{
				"type": "occ",
				"energy": -0.17577,
				"method": "rhf"
			},
			{
				"type": "unocc",
				"energy": -0.05636,
				"method": "rhf"
			},
			{
				"type": "unocc",
				"energy": -0.02298,
				"method": "rhf"
			},
			{
				"type": "unocc",
				"energy": 0.01272,
				"method": "rhf"
			},
			{
				"type": "unocc",
				"energy": 0.0144,
				"method": "rhf"
			},
			{
				"type": "unocc",
				"energy": 0.03177,
				"method": "rhf"
			}
		],
		"cosmo_sigma_profile": { 
			"-0.025": 0.0,
			"-0.024": 0.0,
			"-0.023": 0.0,
			"-0.022": 0.0,
			"-0.021": 0.0,
			"-0.02": 0.0,
			"-0.019": 0.0,
			"-0.018": 0.0,
			"-0.017": 0.0,
			"-0.016": 0.0,
			"-0.015": 0.0,
			"-0.014": 0.0,
			"-0.013": 0.0,
			"-0.012": 0.0,
			"-0.011": 0.0,
			"-0.01": 0.0,
			"-0.009": 0.0,
			"-0.008": 0.0133442672097,
			"-0.007": 4.48336800286,
			"-0.006": 17.133354502,
			"-0.005": 26.6904837176,
			"-0.004": 33.1808802015,
			"-0.003": 30.9175925177,
			"-0.002": 30.8743437333,
			"-0.001": 23.9049989808,
			"0.0": 17.3829478034,
			"0.001": 17.2540255241,
			"0.002": 24.4477882443,
			"0.003": 27.0614135862,
			"0.004": 25.1792489614,
			"0.005": 23.24439372,
			"0.006": 22.1899890866,
			"0.007": 7.70517975923,
			"0.008": 2.20436504769,
			"0.009": 0.532592684118,
			"0.01": 0.0,
			"0.011": 0.0,
			"0.012": 0.0,
			"0.013": 0.0,
			"0.014": 0.0,
			"0.015": 0.0,
			"0.016": 0.0,
			"0.017": 0.0,
			"0.018": 0.0,
			"0.019": 0.0,
			"0.02": 0.0,
			"0.021": 0.0,
			"0.022": 0.0,
			"0.023": 0.0,
			"0.024": 0.0,
			"0.025": 0.0
		}
	}
}
