{
	 "smiles": "CC(C)(C)OC(=O)NC(CCS(C)(=O)=O)C(O)=O", 
	 "Tm": 373.15, 
	 "num_atms": 37, 
	 "gaussian": { 
		 "optdone": 1, 
		 "sigma_profile": "yes", 
		 "theory": "DFT", 
		 "functional": "B3LYP", 
		 "basiset": "6-31G**", 
		 "properties": { 
			 "R2extent": 6487.6321, 
			 "electric_dipole_moment_norm": 4.92747246162, 
			 "electric_quadrupole_moment_norm": 22.1001881263, 
			 "total_energy": -1296.7944678, 
			 "HOMO_LUMO_gap": 0.25996, 
			 "cosmo_polarized_energy": -25.92, 
			 "cosmo_cavitation_energy": 40.59, 
			 "cosmo_dispersion_energy": -27.7, 
			 "cosmo_repulsion_energy": 2.15, 
			 "cosmo_total_nonelectrostatic_energy": 15.05, 
			 "SMD_solvation_energy": 8.77 
		},
		"coords": [
			{
				"x": -3.4946906361,
				"y": -2.1668067121,
				"z": -0.5913318941,
				"element": "C" 
			},
			{
				"x": -2.9738297485,
				"y": -1.5810127708,
				"z": 0.7253988285,
				"element": "C" 
			},
			{
				"x": -2.8898018685,
				"y": -2.6624909411,
				"z": 1.8056755057,
				"element": "C" 
			},
			{
				"x": -3.8157155231,
				"y": -0.3944449034,
				"z": 1.2067236428,
				"element": "C" 
			},
			{
				"x": -1.5679112013,
				"y": -1.1730165156,
				"z": 0.5737922976,
				"element": "O" 
			},
			{
				"x": -1.2129613675,
				"y": -0.2179048721,
				"z": -0.3143011813,
				"element": "C" 
			},
			{
				"x": -1.9621845079,
				"y": 0.4064769465,
				"z": -1.0500279766,
				"element": "O" 
			},
			{
				"x": 0.1439799423,
				"y": -0.0180309252,
				"z": -0.2439511302,
				"element": "N" 
			},
			{
				"x": 0.8226912561,
				"y": 0.7698267836,
				"z": -1.2494310958,
				"element": "C" 
			},
			{
				"x": 1.5657021581,
				"y": 2.0103050015,
				"z": -0.6868084532,
				"element": "C" 
			},
			{
				"x": 2.1331440006,
				"y": 1.8690366378,
				"z": 0.7305483072,
				"element": "C" 
			},
			{
				"x": 3.4783313412,
				"y": 0.6515741459,
				"z": 0.8679181918,
				"element": "S" 
			},
			{
				"x": 3.8674731656,
				"y": 0.6630121089,
				"z": 2.6341898019,
				"element": "C" 
			},
			{
				"x": 4.6567523442,
				"y": 1.1415841051,
				"z": 0.1410366937,
				"element": "O" 
			},
			{
				"x": 2.9116991685,
				"y": -0.6801682942,
				"z": 0.5555349434,
				"element": "O" 
			},
			{
				"x": 1.7379320724,
				"y": -0.064565202,
				"z": -2.1538559607,
				"element": "C" 
			},
			{
				"x": 1.3643494829,
				"y": -1.3575986048,
				"z": -2.2190245603,
				"element": "O" 
			},
			{
				"x": 2.6512393898,
				"y": 0.3971382015,
				"z": -2.8006018989,
				"element": "O" 
			},
			{
				"x": -4.4992915136,
				"y": -2.5749700334,
				"z": -0.4397089753,
				"element": "H" 
			},
			{
				"x": -3.5378544099,
				"y": -1.4038157083,
				"z": -1.3688611542,
				"element": "H" 
			},
			{
				"x": -2.8442335236,
				"y": -2.9801735275,
				"z": -0.9279145662,
				"element": "H" 
			},
			{
				"x": -2.4759174005,
				"y": -2.2525452511,
				"z": 2.7316494586,
				"element": "H" 
			},
			{
				"x": -3.8867760642,
				"y": -3.0600110873,
				"z": 2.0176938493,
				"element": "H" 
			},
			{
				"x": -2.2498414897,
				"y": -3.4866016263,
				"z": 1.4775768245,
				"element": "H" 
			},
			{
				"x": -4.834464131,
				"y": -0.7310089438,
				"z": 1.4249528124,
				"element": "H" 
			},
			{
				"x": -3.3927464462,
				"y": 0.0235043716,
				"z": 2.1259789613,
				"element": "H" 
			},
			{
				"x": -3.8576135263,
				"y": 0.3875195597,
				"z": 0.4481726516,
				"element": "H" 
			},
			{
				"x": 0.6985561846,
				"y": -0.7140838195,
				"z": 0.2400499575,
				"element": "H" 
			},
			{
				"x": 0.0332928871,
				"y": 1.1377903765,
				"z": -1.916320693,
				"element": "H" 
			},
			{
				"x": 0.8566078555,
				"y": 2.8430957735,
				"z": -0.637676375,
				"element": "H" 
			},
			{
				"x": 2.35543973,
				"y": 2.2899454433,
				"z": -1.388389028,
				"element": "H" 
			},
			{
				"x": 1.3560197892,
				"y": 1.5458646272,
				"z": 1.4290743282,
				"element": "H" 
			},
			{
				"x": 2.553609652,
				"y": 2.8206292571,
				"z": 1.067945745,
				"element": "H" 
			},
			{
				"x": 2.9866826236,
				"y": 0.3682332024,
				"z": 3.2065235826,
				"element": "H" 
			},
			{
				"x": 4.6654843935,
				"y": -0.069940737,
				"z": 2.766935744,
				"element": "H" 
			},
			{
				"x": 4.2184091147,
				"y": 1.6549572203,
				"z": 2.922935729,
				"element": "H" 
			},
			{
				"x": 1.9930368059,
				"y": -1.7862032868,
				"z": -2.8237029138,
				"element": "H" 
			}
		],
		 "valence_orbital": [ 
			{
				"type": "occ",
				"energy": -0.29314,
				"method": "rhf"
			},
			{
				"type": "occ",
				"energy": -0.2897,
				"method": "rhf"
			},
			{
				"type": "occ",
				"energy": -0.28666,
				"method": "rhf"
			},
			{
				"type": "occ",
				"energy": -0.26667,
				"method": "rhf"
			},
			{
				"type": "occ",
				"energy": -0.24975,
				"method": "rhf"
			},
			{
				"type": "unocc",
				"energy": 0.01021,
				"method": "rhf"
			},
			{
				"type": "unocc",
				"energy": 0.04435,
				"method": "rhf"
			},
			{
				"type": "unocc",
				"energy": 0.0542,
				"method": "rhf"
			},
			{
				"type": "unocc",
				"energy": 0.06739,
				"method": "rhf"
			},
			{
				"type": "unocc",
				"energy": 0.07764,
				"method": "rhf"
			}
		],
		"cosmo_sigma_profile": { 
			"-0.025": 0.0,
			"-0.024": 0.0,
			"-0.023": 0.0,
			"-0.022": 0.0,
			"-0.021": 0.0,
			"-0.02": 0.0,
			"-0.019": 0.242786832554,
			"-0.018": 0.746252042466,
			"-0.017": 1.15904626079,
			"-0.016": 0.815243898426,
			"-0.015": 1.04780461632,
			"-0.014": 0.406764447443,
			"-0.013": 0.145248460493,
			"-0.012": 0.90914685801,
			"-0.011": 1.93675947058,
			"-0.01": 3.09528669202,
			"-0.009": 7.08097623323,
			"-0.008": 10.3146790868,
			"-0.007": 10.5878997322,
			"-0.006": 16.2639077708,
			"-0.005": 15.3270356118,
			"-0.004": 25.0429319651,
			"-0.003": 25.2053302512,
			"-0.002": 21.984883917,
			"-0.001": 20.6690443504,
			"0.0": 28.441598246,
			"0.001": 23.3515665893,
			"0.002": 10.1092313876,
			"0.003": 8.56637577393,
			"0.004": 8.47042201772,
			"0.005": 8.06306438829,
			"0.006": 8.370961506,
			"0.007": 10.5312485526,
			"0.008": 6.93284867537,
			"0.009": 5.07664605541,
			"0.01": 7.98274734343,
			"0.011": 13.8627802099,
			"0.012": 11.2006763387,
			"0.013": 2.84875927299,
			"0.014": 0.00751507309404,
			"0.015": 0.0,
			"0.016": 0.0,
			"0.017": 0.0,
			"0.018": 0.0,
			"0.019": 0.0,
			"0.02": 0.0,
			"0.021": 0.0,
			"0.022": 0.0,
			"0.023": 0.0,
			"0.024": 0.0,
			"0.025": 0.0
		}
	}
}
