{
	 "smiles": "CC(=O)C1=CC=CC=N1", 
	 "Tm": 282.15, 
	 "num_atms": 16, 
	 "gaussian": { 
		 "optdone": 1, 
		 "sigma_profile": "yes", 
		 "theory": "DFT", 
		 "functional": "B3LYP", 
		 "basiset": "6-31G**", 
		 "properties": { 
			 "R2extent": 1253.6975, 
			 "electric_dipole_moment_norm": 4.82704957298, 
			 "electric_quadrupole_moment_norm": 6.36098760492, 
			 "total_energy": -400.926524432, 
			 "HOMO_LUMO_gap": 0.18149, 
			 "cosmo_polarized_energy": -13.92, 
			 "cosmo_cavitation_energy": 20.34, 
			 "cosmo_dispersion_energy": -15.01, 
			 "cosmo_repulsion_energy": 1.23, 
			 "cosmo_total_nonelectrostatic_energy": 6.56, 
			 "SMD_solvation_energy": 3.22 
		},
		"coords": [
			{
				"x": -1.5063892798,
				"y": -1.9291176191,
				"z": 0.3335073551,
				"element": "C" 
			},
			{
				"x": -0.6312749417,
				"y": -0.7726910069,
				"z": 0.7942697641,
				"element": "C" 
			},
			{
				"x": -0.6096844746,
				"y": -0.4298158943,
				"z": 1.9596608438,
				"element": "O" 
			},
			{
				"x": 0.2147053346,
				"y": -0.0563670552,
				"z": -0.242471003,
				"element": "C" 
			},
			{
				"x": 0.2074246021,
				"y": -0.431944956,
				"z": -1.5928589791,
				"element": "C" 
			},
			{
				"x": 1.0093243126,
				"y": 0.2691173523,
				"z": -2.4941800584,
				"element": "C" 
			},
			{
				"x": 1.7885553828,
				"y": 1.3181194589,
				"z": -2.0168305187,
				"element": "C" 
			},
			{
				"x": 1.7281753585,
				"y": 1.6182143789,
				"z": -0.6505509083,
				"element": "C" 
			},
			{
				"x": 0.9673444379,
				"y": 0.9571632882,
				"z": 0.2196940649,
				"element": "N" 
			},
			{
				"x": -2.0401721662,
				"y": -2.3228302806,
				"z": 1.1987092663,
				"element": "H" 
			},
			{
				"x": -0.9046570773,
				"y": -2.7279444903,
				"z": -0.1144516477,
				"element": "H" 
			},
			{
				"x": -2.2311743942,
				"y": -1.6021529687,
				"z": -0.4205832993,
				"element": "H" 
			},
			{
				"x": -0.4093867445,
				"y": -1.2536106594,
				"z": -1.9386918468,
				"element": "H" 
			},
			{
				"x": 1.022370398,
				"y": -0.0013593187,
				"z": -3.5460571998,
				"element": "H" 
			},
			{
				"x": 2.4288763652,
				"y": 1.8939179402,
				"z": -2.6777082012,
				"element": "H" 
			},
			{
				"x": 2.3249628865,
				"y": 2.4330018307,
				"z": -0.243157632,
				"element": "H" 
			}
		],
		 "valence_orbital": [ 
			{
				"type": "occ",
				"energy": -0.35605,
				"method": "rhf"
			},
			{
				"type": "occ",
				"energy": -0.29656,
				"method": "rhf"
			},
			{
				"type": "occ",
				"energy": -0.27272,
				"method": "rhf"
			},
			{
				"type": "occ",
				"energy": -0.2602,
				"method": "rhf"
			},
			{
				"type": "occ",
				"energy": -0.24502,
				"method": "rhf"
			},
			{
				"type": "unocc",
				"energy": -0.06353,
				"method": "rhf"
			},
			{
				"type": "unocc",
				"energy": -0.02985,
				"method": "rhf"
			},
			{
				"type": "unocc",
				"energy": 0.03286,
				"method": "rhf"
			},
			{
				"type": "unocc",
				"energy": 0.08246,
				"method": "rhf"
			},
			{
				"type": "unocc",
				"energy": 0.10921,
				"method": "rhf"
			}
		],
		"cosmo_sigma_profile": { 
			"-0.025": 0.0,
			"-0.024": 0.0,
			"-0.023": 0.0,
			"-0.022": 0.0,
			"-0.021": 0.0,
			"-0.02": 0.0,
			"-0.019": 0.0,
			"-0.018": 0.0,
			"-0.017": 0.0,
			"-0.016": 0.0,
			"-0.015": 0.0,
			"-0.014": 0.0,
			"-0.013": 0.0,
			"-0.012": 0.0,
			"-0.011": 0.0,
			"-0.01": 0.0,
			"-0.009": 0.0,
			"-0.008": 1.86473818169,
			"-0.007": 11.8875397692,
			"-0.006": 17.7172655006,
			"-0.005": 12.7019410707,
			"-0.004": 11.8158877451,
			"-0.003": 11.1997897792,
			"-0.002": 10.9005675247,
			"-0.001": 12.8347480523,
			"0.0": 10.8489991342,
			"0.001": 14.9651191387,
			"0.002": 10.0852469966,
			"0.003": 2.84850030502,
			"0.004": 2.75042274333,
			"0.005": 2.06987999434,
			"0.006": 2.04461164943,
			"0.007": 2.67567688147,
			"0.008": 1.71440737727,
			"0.009": 1.82819393366,
			"0.01": 2.63417510289,
			"0.011": 4.3328000341,
			"0.012": 4.44459107432,
			"0.013": 2.64610843668,
			"0.014": 1.18846214467,
			"0.015": 1.10007099652,
			"0.016": 1.42391778508,
			"0.017": 0.940727106957,
			"0.018": 0.985968497563,
			"0.019": 0.34082666371,
			"0.02": 0.0,
			"0.021": 0.0,
			"0.022": 0.0,
			"0.023": 0.0,
			"0.024": 0.0,
			"0.025": 0.0
		}
	}
}
