{
	 "smiles": "FC1=CC=C(CN2CCNCC2)C=C1", 
	 "Tm": 337.65, 
	 "num_atms": 29, 
	 "gaussian": { 
		 "optdone": 1, 
		 "sigma_profile": "yes", 
		 "theory": "DFT", 
		 "functional": "B3LYP", 
		 "basiset": "6-31G**", 
		 "properties": { 
			 "R2extent": 3778.7314, 
			 "electric_dipole_moment_norm": 1.61213277679, 
			 "electric_quadrupole_moment_norm": 10.5426110717, 
			 "total_energy": -637.526140348, 
			 "HOMO_LUMO_gap": 0.20554, 
			 "cosmo_polarized_energy": -6.9, 
			 "cosmo_cavitation_energy": 30.87, 
			 "cosmo_dispersion_energy": -22.08, 
			 "cosmo_repulsion_energy": 1.71, 
			 "cosmo_total_nonelectrostatic_energy": 10.5, 
			 "SMD_solvation_energy": 1.64 
		},
		"coords": [
			{
				"x": 2.3078181792,
				"y": 3.5336184992,
				"z": 2.7275012569,
				"element": "F" 
			},
			{
				"x": 1.7391762519,
				"y": 2.4219574087,
				"z": 2.2121044045,
				"element": "C" 
			},
			{
				"x": 2.391364629,
				"y": 1.203506874,
				"z": 2.349503846,
				"element": "C" 
			},
			{
				"x": 1.795269615,
				"y": 0.0626920997,
				"z": 1.8077702628,
				"element": "C" 
			},
			{
				"x": 0.5644709748,
				"y": 0.1318343007,
				"z": 1.145534208,
				"element": "C" 
			},
			{
				"x": -0.1044001878,
				"y": -1.1208807417,
				"z": 0.6101043939,
				"element": "C" 
			},
			{
				"x": -0.676088884,
				"y": -0.9466527867,
				"z": -0.7210342382,
				"element": "N" 
			},
			{
				"x": 0.3239149124,
				"y": -0.7737442637,
				"z": -1.7748324264,
				"element": "C" 
			},
			{
				"x": -0.3812262062,
				"y": -0.2408209059,
				"z": -3.0523483438,
				"element": "C" 
			},
			{
				"x": -1.808740369,
				"y": -0.5838898555,
				"z": -3.1137841073,
				"element": "N" 
			},
			{
				"x": -2.0333336281,
				"y": -1.915092347,
				"z": -2.5547131169,
				"element": "C" 
			},
			{
				"x": -1.5967221114,
				"y": -2.0353213025,
				"z": -1.0657291424,
				"element": "C" 
			},
			{
				"x": -0.0625311472,
				"y": 1.3804244993,
				"z": 1.0245984884,
				"element": "C" 
			},
			{
				"x": 0.5185036024,
				"y": 2.5314769871,
				"z": 1.5532602924,
				"element": "C" 
			},
			{
				"x": 3.3458505347,
				"y": 1.1600376595,
				"z": 2.8629745692,
				"element": "H" 
			},
			{
				"x": 2.299121996,
				"y": -0.8958991596,
				"z": 1.9033392686,
				"element": "H" 
			},
			{
				"x": 0.6132213074,
				"y": -1.9639137548,
				"z": 0.6482720922,
				"element": "H" 
			},
			{
				"x": -0.9310334722,
				"y": -1.3992290136,
				"z": 1.2788034774,
				"element": "H" 
			},
			{
				"x": 0.8506220833,
				"y": -1.725891765,
				"z": -1.9852028776,
				"element": "H" 
			},
			{
				"x": 1.082009203,
				"y": -0.063681104,
				"z": -1.4328806625,
				"element": "H" 
			},
			{
				"x": -0.2979417544,
				"y": 0.8491990442,
				"z": -3.1040712797,
				"element": "H" 
			},
			{
				"x": 0.121756742,
				"y": -0.6440697532,
				"z": -3.9410939743,
				"element": "H" 
			},
			{
				"x": -2.3142209573,
				"y": 0.0855247898,
				"z": -2.5384769937,
				"element": "H" 
			},
			{
				"x": -3.0906941716,
				"y": -2.1792555678,
				"z": -2.658930357,
				"element": "H" 
			},
			{
				"x": -1.4709768835,
				"y": -2.6291736392,
				"z": -3.1684336627,
				"element": "H" 
			},
			{
				"x": -2.4653647543,
				"y": -1.9664302548,
				"z": -0.3983056215,
				"element": "H" 
			},
			{
				"x": -1.1381171439,
				"y": -3.029885649,
				"z": -0.893941707,
				"element": "H" 
			},
			{
				"x": -1.0090080815,
				"y": 1.4409710431,
				"z": 0.4965833239,
				"element": "H" 
			},
			{
				"x": 0.0439997211,
				"y": 3.5030886585,
				"z": 1.4646286269,
				"element": "H" 
			}
		],
		 "valence_orbital": [ 
			{
				"type": "occ",
				"energy": -0.32586,
				"method": "rhf"
			},
			{
				"type": "occ",
				"energy": -0.25837,
				"method": "rhf"
			},
			{
				"type": "occ",
				"energy": -0.23784,
				"method": "rhf"
			},
			{
				"type": "occ",
				"energy": -0.22006,
				"method": "rhf"
			},
			{
				"type": "occ",
				"energy": -0.21542,
				"method": "rhf"
			},
			{
				"type": "unocc",
				"energy": -0.00988,
				"method": "rhf"
			},
			{
				"type": "unocc",
				"energy": 0.00109,
				"method": "rhf"
			},
			{
				"type": "unocc",
				"energy": 0.07437,
				"method": "rhf"
			},
			{
				"type": "unocc",
				"energy": 0.09211,
				"method": "rhf"
			},
			{
				"type": "unocc",
				"energy": 0.10309,
				"method": "rhf"
			}
		],
		"cosmo_sigma_profile": { 
			"-0.025": 0.0,
			"-0.024": 0.0,
			"-0.023": 0.0,
			"-0.022": 0.0,
			"-0.021": 0.0,
			"-0.02": 0.0,
			"-0.019": 0.0,
			"-0.018": 0.0,
			"-0.017": 0.0,
			"-0.016": 0.0,
			"-0.015": 0.0,
			"-0.014": 0.0,
			"-0.013": 0.0,
			"-0.012": 0.0,
			"-0.011": 0.0,
			"-0.01": 0.0,
			"-0.009": 0.415768910107,
			"-0.008": 1.15545043834,
			"-0.007": 3.16524391971,
			"-0.006": 5.83003010134,
			"-0.005": 8.59589322707,
			"-0.004": 16.6462132895,
			"-0.003": 25.6020844079,
			"-0.002": 32.0647835312,
			"-0.001": 36.9918283453,
			"0.0": 22.496054483,
			"0.001": 15.1682621123,
			"0.002": 15.0398175596,
			"0.003": 13.7435578703,
			"0.004": 20.225916755,
			"0.005": 12.8162074425,
			"0.006": 2.2208156602,
			"0.007": 1.47133932864,
			"0.008": 0.936596437876,
			"0.009": 1.07245767441,
			"0.01": 0.553697032517,
			"0.011": 1.02381434166,
			"0.012": 0.647681100811,
			"0.013": 0.678712699313,
			"0.014": 0.364253513064,
			"0.015": 0.543973548718,
			"0.016": 0.860965885645,
			"0.017": 0.505516260607,
			"0.018": 0.698105578942,
			"0.019": 0.262406306397,
			"0.02": 0.0,
			"0.021": 0.0,
			"0.022": 0.0,
			"0.023": 0.0,
			"0.024": 0.0,
			"0.025": 0.0
		}
	}
}
