{
	 "smiles": "CC(C)CN1NC(CC(O)=O)=CC1=O", 
	 "Tm": 438.15, 
	 "num_atms": 28, 
	 "gaussian": { 
		 "optdone": 1, 
		 "sigma_profile": "yes", 
		 "theory": "DFT", 
		 "functional": "B3LYP", 
		 "basiset": "6-31G**", 
		 "properties": { 
			 "R2extent": 4067.4338, 
			 "electric_dipole_moment_norm": 3.20213838083, 
			 "electric_quadrupole_moment_norm": 21.7882003803, 
			 "total_energy": -686.560783184, 
			 "HOMO_LUMO_gap": 0.19491, 
			 "cosmo_polarized_energy": -23.85, 
			 "cosmo_cavitation_energy": 31.17, 
			 "cosmo_dispersion_energy": -21.55, 
			 "cosmo_repulsion_energy": 1.73, 
			 "cosmo_total_nonelectrostatic_energy": 11.34, 
			 "SMD_solvation_energy": 6.88 
		},
		"coords": [
			{
				"x": 1.170693614,
				"y": -0.8785866831,
				"z": 2.3699877292,
				"element": "C" 
			},
			{
				"x": 0.9372437151,
				"y": 0.6399746978,
				"z": 2.3632289009,
				"element": "C" 
			},
			{
				"x": -0.2278760493,
				"y": 1.0392868833,
				"z": 3.2788827093,
				"element": "C" 
			},
			{
				"x": 0.7852680921,
				"y": 1.2270094238,
				"z": 0.9409148019,
				"element": "C" 
			},
			{
				"x": -0.4837677341,
				"y": 1.0024457743,
				"z": 0.2647561531,
				"element": "N" 
			},
			{
				"x": -0.9391286038,
				"y": -0.2890137164,
				"z": -0.0355328573,
				"element": "N" 
			},
			{
				"x": -2.2771038176,
				"y": -0.176471864,
				"z": -0.3754342139,
				"element": "C" 
			},
			{
				"x": -2.9895230354,
				"y": -1.3419705573,
				"z": -0.9852341673,
				"element": "C" 
			},
			{
				"x": -2.9119196959,
				"y": -1.4018764861,
				"z": -2.5251361831,
				"element": "C" 
			},
			{
				"x": -2.8581642652,
				"y": -0.2137338677,
				"z": -3.1610937287,
				"element": "O" 
			},
			{
				"x": -2.9306201616,
				"y": -2.4429180926,
				"z": -3.1304386773,
				"element": "O" 
			},
			{
				"x": -2.7128099971,
				"y": 1.0924458127,
				"z": -0.1362822488,
				"element": "C" 
			},
			{
				"x": -1.5732008382,
				"y": 1.8898200953,
				"z": 0.3283527359,
				"element": "C" 
			},
			{
				"x": -1.4958462688,
				"y": 3.0500870848,
				"z": 0.7130752811,
				"element": "O" 
			},
			{
				"x": 0.2858955547,
				"y": -1.4196257397,
				"z": 2.0203687909,
				"element": "H" 
			},
			{
				"x": 1.3942941008,
				"y": -1.2285883309,
				"z": 3.3832636237,
				"element": "H" 
			},
			{
				"x": 2.0165712722,
				"y": -1.1580151262,
				"z": 1.7306753802,
				"element": "H" 
			},
			{
				"x": 1.8512094268,
				"y": 1.1129618044,
				"z": 2.7517562099,
				"element": "H" 
			},
			{
				"x": -0.0237047681,
				"y": 0.7405195967,
				"z": 4.3121699103,
				"element": "H" 
			},
			{
				"x": -1.1563257466,
				"y": 0.5457279484,
				"z": 2.9712366069,
				"element": "H" 
			},
			{
				"x": -0.4051680924,
				"y": 2.1182566379,
				"z": 3.258010335,
				"element": "H" 
			},
			{
				"x": 0.8530831638,
				"y": 2.317609511,
				"z": 0.9835602705,
				"element": "H" 
			},
			{
				"x": 1.5982140165,
				"y": 0.8676947667,
				"z": 0.2959741712,
				"element": "H" 
			},
			{
				"x": -0.3275257405,
				"y": -0.8055638404,
				"z": -0.6641939912,
				"element": "H" 
			},
			{
				"x": -2.6100802753,
				"y": -2.2936066413,
				"z": -0.6066961352,
				"element": "H" 
			},
			{
				"x": -4.0526193391,
				"y": -1.2905362028,
				"z": -0.7231727563,
				"element": "H" 
			},
			{
				"x": -2.8191488402,
				"y": 0.5111621007,
				"z": -2.5116291536,
				"element": "H" 
			},
			{
				"x": -3.7281396867,
				"y": 1.4585050107,
				"z": -0.1854694971,
				"element": "H" 
			}
		],
		 "valence_orbital": [ 
			{
				"type": "occ",
				"energy": -0.3264,
				"method": "rhf"
			},
			{
				"type": "occ",
				"energy": -0.29896,
				"method": "rhf"
			},
			{
				"type": "occ",
				"energy": -0.26977,
				"method": "rhf"
			},
			{
				"type": "occ",
				"energy": -0.25287,
				"method": "rhf"
			},
			{
				"type": "occ",
				"energy": -0.2278,
				"method": "rhf"
			},
			{
				"type": "unocc",
				"energy": -0.03289,
				"method": "rhf"
			},
			{
				"type": "unocc",
				"energy": -0.00456,
				"method": "rhf"
			},
			{
				"type": "unocc",
				"energy": 0.0467,
				"method": "rhf"
			},
			{
				"type": "unocc",
				"energy": 0.06188,
				"method": "rhf"
			},
			{
				"type": "unocc",
				"energy": 0.08335,
				"method": "rhf"
			}
		],
		"cosmo_sigma_profile": { 
			"-0.025": 0.0,
			"-0.024": 0.0,
			"-0.023": 0.0,
			"-0.022": 0.0,
			"-0.021": 0.0,
			"-0.02": 0.0,
			"-0.019": 0.0,
			"-0.018": 0.0,
			"-0.017": 0.0115902431962,
			"-0.016": 1.16952942501,
			"-0.015": 2.20097234262,
			"-0.014": 2.08795209538,
			"-0.013": 1.48839811396,
			"-0.012": 2.83393469894,
			"-0.011": 3.4587941266,
			"-0.01": 4.14689902744,
			"-0.009": 6.37815935461,
			"-0.008": 7.29370438338,
			"-0.007": 7.71693336857,
			"-0.006": 7.21911116841,
			"-0.005": 9.02627344567,
			"-0.004": 11.4747958995,
			"-0.003": 18.0554240761,
			"-0.002": 20.0361669008,
			"-0.001": 21.0309075207,
			"0.0": 19.1394395688,
			"0.001": 21.1909314431,
			"0.002": 12.5730381268,
			"0.003": 6.633615426,
			"0.004": 5.74949290863,
			"0.005": 3.82320836458,
			"0.006": 4.04028831584,
			"0.007": 3.92230259911,
			"0.008": 4.63983018507,
			"0.009": 5.41409339214,
			"0.01": 6.36844623772,
			"0.011": 6.32719505811,
			"0.012": 6.51832613489,
			"0.013": 2.39539754893,
			"0.014": 4.30752951134,
			"0.015": 4.61467251819,
			"0.016": 0.865597043871,
			"0.017": 0.0,
			"0.018": 0.0,
			"0.019": 0.0,
			"0.02": 0.0,
			"0.021": 0.0,
			"0.022": 0.0,
			"0.023": 0.0,
			"0.024": 0.0,
			"0.025": 0.0
		}
	}
}
