{
	 "smiles": "OC(=O)COC1=C(C=O)C2=C(C=CC=C2)C=C1", 
	 "Tm": 448.15, 
	 "num_atms": 27, 
	 "gaussian": { 
		 "optdone": 1, 
		 "sigma_profile": "yes", 
		 "theory": "DFT", 
		 "functional": "B3LYP", 
		 "basiset": "6-31G**", 
		 "properties": { 
			 "R2extent": 4759.171, 
			 "electric_dipole_moment_norm": 8.30066968202, 
			 "electric_quadrupole_moment_norm": 16.8364688626, 
			 "total_energy": -802.301913126, 
			 "HOMO_LUMO_gap": 0.1473, 
			 "cosmo_polarized_energy": -17.21, 
			 "cosmo_cavitation_energy": 31.16, 
			 "cosmo_dispersion_energy": -23.1, 
			 "cosmo_repulsion_energy": 1.73, 
			 "cosmo_total_nonelectrostatic_energy": 9.78, 
			 "SMD_solvation_energy": 7.41 
		},
		"coords": [
			{
				"x": 2.8108251068,
				"y": 2.2835345481,
				"z": 0.5073312375,
				"element": "O" 
			},
			{
				"x": 3.5585750512,
				"y": 1.1864493149,
				"z": 0.4427109728,
				"element": "C" 
			},
			{
				"x": 4.7628423435,
				"y": 1.1992832154,
				"z": 0.3338508826,
				"element": "O" 
			},
			{
				"x": 2.8161500922,
				"y": -0.1576536903,
				"z": 0.4834044402,
				"element": "C" 
			},
			{
				"x": 1.4530177038,
				"y": 0.0804041178,
				"z": 0.8256498291,
				"element": "O" 
			},
			{
				"x": 0.4410161287,
				"y": -0.6161268848,
				"z": 0.260571254,
				"element": "C" 
			},
			{
				"x": -0.7827188863,
				"y": 0.0484156612,
				"z": 0.0867733361,
				"element": "C" 
			},
			{
				"x": -0.9036154848,
				"y": 1.4861848774,
				"z": 0.3838906245,
				"element": "C" 
			},
			{
				"x": 0.0035445598,
				"y": 2.2812700605,
				"z": 0.6059435722,
				"element": "O" 
			},
			{
				"x": -1.9161426485,
				"y": -0.6941724501,
				"z": -0.4167901322,
				"element": "C" 
			},
			{
				"x": -1.7463652133,
				"y": -2.0800587005,
				"z": -0.7498135291,
				"element": "C" 
			},
			{
				"x": -2.8388931172,
				"y": -2.8333763499,
				"z": -1.254139091,
				"element": "C" 
			},
			{
				"x": -4.0724606303,
				"y": -2.2539653494,
				"z": -1.4365181758,
				"element": "C" 
			},
			{
				"x": -4.2475940845,
				"y": -0.8883913755,
				"z": -1.1210070419,
				"element": "C" 
			},
			{
				"x": -3.2051042398,
				"y": -0.1297847083,
				"z": -0.6313937922,
				"element": "C" 
			},
			{
				"x": -0.4756789998,
				"y": -2.6851069792,
				"z": -0.5698281506,
				"element": "C" 
			},
			{
				"x": 0.5947301146,
				"y": -1.9818078215,
				"z": -0.0754671108,
				"element": "C" 
			},
			{
				"x": 1.8472257032,
				"y": 2.0861150121,
				"z": 0.5920600732,
				"element": "H" 
			},
			{
				"x": 3.3011911656,
				"y": -0.7994999158,
				"z": 1.2253822037,
				"element": "H" 
			},
			{
				"x": 2.9058337704,
				"y": -0.6274861918,
				"z": -0.5022639226,
				"element": "H" 
			},
			{
				"x": -1.9359696175,
				"y": 1.875797205,
				"z": 0.3922032328,
				"element": "H" 
			},
			{
				"x": -2.6778879292,
				"y": -3.8808184353,
				"z": -1.4950936583,
				"element": "H" 
			},
			{
				"x": -4.9044097689,
				"y": -2.8348778055,
				"z": -1.8219528157,
				"element": "H" 
			},
			{
				"x": -5.21842078,
				"y": -0.424334583,
				"z": -1.2684363583,
				"element": "H" 
			},
			{
				"x": -3.3913953909,
				"y": 0.9148325711,
				"z": -0.4164726182,
				"element": "H" 
			},
			{
				"x": -0.3602385242,
				"y": -3.736477641,
				"z": -0.8198481906,
				"element": "H" 
			},
			{
				"x": 1.5487435754,
				"y": -2.4706477015,
				"z": 0.0866529285,
				"element": "H" 
			}
		],
		 "valence_orbital": [ 
			{
				"type": "occ",
				"energy": -0.29586,
				"method": "rhf"
			},
			{
				"type": "occ",
				"energy": -0.26862,
				"method": "rhf"
			},
			{
				"type": "occ",
				"energy": -0.26529,
				"method": "rhf"
			},
			{
				"type": "occ",
				"energy": -0.256,
				"method": "rhf"
			},
			{
				"type": "occ",
				"energy": -0.23686,
				"method": "rhf"
			},
			{
				"type": "unocc",
				"energy": -0.08956,
				"method": "rhf"
			},
			{
				"type": "unocc",
				"energy": -0.03509,
				"method": "rhf"
			},
			{
				"type": "unocc",
				"energy": -0.03006,
				"method": "rhf"
			},
			{
				"type": "unocc",
				"energy": 0.01933,
				"method": "rhf"
			},
			{
				"type": "unocc",
				"energy": 0.03314,
				"method": "rhf"
			}
		],
		"cosmo_sigma_profile": { 
			"-0.025": 0.0,
			"-0.024": 0.0,
			"-0.023": 0.0,
			"-0.022": 0.0,
			"-0.021": 0.0,
			"-0.02": 0.0,
			"-0.019": 0.0,
			"-0.018": 0.0,
			"-0.017": 0.0,
			"-0.016": 0.0,
			"-0.015": 0.0,
			"-0.014": 0.0,
			"-0.013": 0.0,
			"-0.012": 0.0,
			"-0.011": 0.0,
			"-0.01": 0.442386426679,
			"-0.009": 5.5815546252,
			"-0.008": 12.9110285281,
			"-0.007": 14.40197013,
			"-0.006": 18.0461861416,
			"-0.005": 14.577852147,
			"-0.004": 14.7921534884,
			"-0.003": 14.2186439072,
			"-0.002": 11.60215765,
			"-0.001": 13.074985972,
			"0.0": 15.6292076468,
			"0.001": 19.5137913695,
			"0.002": 20.2194219424,
			"0.003": 16.4400486956,
			"0.004": 13.4325356576,
			"0.005": 7.00650893454,
			"0.006": 4.55498551565,
			"0.007": 5.01837780344,
			"0.008": 3.52479723281,
			"0.009": 4.2165230051,
			"0.01": 5.24422821922,
			"0.011": 6.42151925215,
			"0.012": 6.82935350263,
			"0.013": 2.89714019445,
			"0.014": 0.291774726792,
			"0.015": 0.0,
			"0.016": 0.0,
			"0.017": 0.0,
			"0.018": 0.0,
			"0.019": 0.0,
			"0.02": 0.0,
			"0.021": 0.0,
			"0.022": 0.0,
			"0.023": 0.0,
			"0.024": 0.0,
			"0.025": 0.0
		}
	}
}
