{
	 "smiles": "[O-][N+](=O)C1=CC=C(C=C1)C1NN2C(S1)=NN=C2C1=CC=CC(=C1)[N+]([O-])=O", 
	 "Tm": 478.15, 
	 "num_atms": 36, 
	 "gaussian": { 
		 "optdone": 1, 
		 "sigma_profile": "yes", 
		 "theory": "DFT", 
		 "functional": "B3LYP", 
		 "basiset": "6-31G**", 
		 "properties": { 
			 "R2extent": 13441.4116, 
			 "electric_dipole_moment_norm": 1.34328907537, 
			 "electric_quadrupole_moment_norm": 38.7778629625, 
			 "total_energy": -1604.94250758, 
			 "HOMO_LUMO_gap": 0.1285, 
			 "cosmo_polarized_energy": -27.22, 
			 "cosmo_cavitation_energy": 44.93, 
			 "cosmo_dispersion_energy": -32.14, 
			 "cosmo_repulsion_energy": 2.34, 
			 "cosmo_total_nonelectrostatic_energy": 15.13, 
			 "SMD_solvation_energy": 8.96 
		},
		"coords": [
			{
				"x": -7.0342466327,
				"y": -1.7070168411,
				"z": 0.2272063385,
				"element": "O" 
			},
			{
				"x": -6.3522891109,
				"y": -1.7817709042,
				"z": -0.7925767106,
				"element": "N" 
			},
			{
				"x": -6.6668858826,
				"y": -2.3926507751,
				"z": -1.8114028241,
				"element": "O" 
			},
			{
				"x": -5.0522667881,
				"y": -1.0823806363,
				"z": -0.7932998096,
				"element": "C" 
			},
			{
				"x": -4.2515480516,
				"y": -1.1526883591,
				"z": -1.9296708429,
				"element": "C" 
			},
			{
				"x": -3.0281092314,
				"y": -0.4878010598,
				"z": -1.9224428774,
				"element": "C" 
			},
			{
				"x": -2.615115627,
				"y": 0.2358676475,
				"z": -0.7956100723,
				"element": "C" 
			},
			{
				"x": -3.4472358606,
				"y": 0.2919195281,
				"z": 0.333007798,
				"element": "C" 
			},
			{
				"x": -4.6714225662,
				"y": -0.3702117853,
				"z": 0.3414931807,
				"element": "C" 
			},
			{
				"x": -1.2643483681,
				"y": 0.9027922842,
				"z": -0.8078639252,
				"element": "C" 
			},
			{
				"x": -0.2884269033,
				"y": 0.1851579511,
				"z": 0.0223897559,
				"element": "N" 
			},
			{
				"x": 0.7188053289,
				"y": 1.1296980641,
				"z": 0.2985418161,
				"element": "N" 
			},
			{
				"x": 0.3869498804,
				"y": 2.4602974684,
				"z": 0.2763621803,
				"element": "C" 
			},
			{
				"x": -1.2919285174,
				"y": 2.7138572598,
				"z": -0.1874694077,
				"element": "S" 
			},
			{
				"x": 1.4171811526,
				"y": 3.204499861,
				"z": 0.5837361581,
				"element": "N" 
			},
			{
				"x": 2.4622915027,
				"y": 2.329378951,
				"z": 0.8326632465,
				"element": "N" 
			},
			{
				"x": 2.050932281,
				"y": 1.0861931194,
				"z": 0.6487711683,
				"element": "C" 
			},
			{
				"x": 2.8882831905,
				"y": -0.1056738352,
				"z": 0.793225753,
				"element": "C" 
			},
			{
				"x": 4.2066323951,
				"y": 0.055347859,
				"z": 1.2611310852,
				"element": "C" 
			},
			{
				"x": 5.0449625085,
				"y": -1.0461622779,
				"z": 1.4069630875,
				"element": "C" 
			},
			{
				"x": 4.5927253643,
				"y": -2.3286464646,
				"z": 1.09315919,
				"element": "C" 
			},
			{
				"x": 3.2872306097,
				"y": -2.4689097008,
				"z": 0.6305373584,
				"element": "C" 
			},
			{
				"x": 2.4250546161,
				"y": -1.3875489976,
				"z": 0.4725004157,
				"element": "C" 
			},
			{
				"x": 2.7917330263,
				"y": -3.8154894273,
				"z": 0.2929052889,
				"element": "N" 
			},
			{
				"x": 1.6294567343,
				"y": -3.9143685195,
				"z": -0.1000645158,
				"element": "O" 
			},
			{
				"x": 3.5696313405,
				"y": -4.758537753,
				"z": 0.4256252489,
				"element": "O" 
			},
			{
				"x": -4.5907056952,
				"y": -1.7173183417,
				"z": -2.7888986956,
				"element": "H" 
			},
			{
				"x": -2.3875291879,
				"y": -0.5361318616,
				"z": -2.7977019452,
				"element": "H" 
			},
			{
				"x": -3.1476383004,
				"y": 0.8738658297,
				"z": 1.1991714476,
				"element": "H" 
			},
			{
				"x": -5.3321250009,
				"y": -0.3386206055,
				"z": 1.1986105423,
				"element": "H" 
			},
			{
				"x": -0.8630612421,
				"y": 0.9543850452,
				"z": -1.8217561877,
				"element": "H" 
			},
			{
				"x": -0.7237905425,
				"y": -0.0738214296,
				"z": 0.9119655123,
				"element": "H" 
			},
			{
				"x": 4.5512915068,
				"y": 1.0550561597,
				"z": 1.5013592946,
				"element": "H" 
			},
			{
				"x": 6.0584828332,
				"y": -0.9072575933,
				"z": 1.7690168758,
				"element": "H" 
			},
			{
				"x": 5.2204168474,
				"y": -3.2043236602,
				"z": 1.1985029434,
				"element": "H" 
			},
			{
				"x": 1.4243123905,
				"y": -1.5575861993,
				"z": 0.0972121283,
				"element": "H" 
			}
		],
		 "valence_orbital": [ 
			{
				"type": "occ",
				"energy": -0.29679,
				"method": "rhf"
			},
			{
				"type": "occ",
				"energy": -0.29136,
				"method": "rhf"
			},
			{
				"type": "occ",
				"energy": -0.28584,
				"method": "rhf"
			},
			{
				"type": "occ",
				"energy": -0.27238,
				"method": "rhf"
			},
			{
				"type": "occ",
				"energy": -0.24059,
				"method": "rhf"
			},
			{
				"type": "unocc",
				"energy": -0.11209,
				"method": "rhf"
			},
			{
				"type": "unocc",
				"energy": -0.09772,
				"method": "rhf"
			},
			{
				"type": "unocc",
				"energy": -0.06413,
				"method": "rhf"
			},
			{
				"type": "unocc",
				"energy": -0.05522,
				"method": "rhf"
			},
			{
				"type": "unocc",
				"energy": -0.04209,
				"method": "rhf"
			}
		],
		"cosmo_sigma_profile": { 
			"-0.025": 0.0,
			"-0.024": 0.0,
			"-0.023": 0.0,
			"-0.022": 0.0,
			"-0.021": 0.0,
			"-0.02": 0.0,
			"-0.019": 0.0,
			"-0.018": 0.0,
			"-0.017": 0.0,
			"-0.016": 0.178541218236,
			"-0.015": 1.54089391805,
			"-0.014": 1.28875043979,
			"-0.013": 2.44022631477,
			"-0.012": 1.11033068084,
			"-0.011": 1.54554174539,
			"-0.01": 3.77053446034,
			"-0.009": 6.54840022488,
			"-0.008": 11.6342846437,
			"-0.007": 18.0445447232,
			"-0.006": 16.8316568721,
			"-0.005": 16.2189358403,
			"-0.004": 19.3067889644,
			"-0.003": 20.6134164579,
			"-0.002": 26.8572071877,
			"-0.001": 32.6664954761,
			"0.0": 37.1327302772,
			"0.001": 27.3551749549,
			"0.002": 13.5554404751,
			"0.003": 11.2204914107,
			"0.004": 10.9270015234,
			"0.005": 9.97698531522,
			"0.006": 10.6784121394,
			"0.007": 19.7162009134,
			"0.008": 14.0556757271,
			"0.009": 10.4159225902,
			"0.01": 5.89040045703,
			"0.011": 2.58115538616,
			"0.012": 2.87426769653,
			"0.013": 3.10927498559,
			"0.014": 3.00110491131,
			"0.015": 1.49901647994,
			"0.016": 0.571625864266,
			"0.017": 0.0,
			"0.018": 0.0,
			"0.019": 0.0,
			"0.02": 0.0,
			"0.021": 0.0,
			"0.022": 0.0,
			"0.023": 0.0,
			"0.024": 0.0,
			"0.025": 0.0
		}
	}
}
