{
	 "smiles": "OC(=O)C=CC1=CSC2=C1C=CC=C2", 
	 "Tm": 499.15, 
	 "num_atms": 22, 
	 "gaussian": { 
		 "optdone": 1, 
		 "sigma_profile": "yes", 
		 "theory": "DFT", 
		 "functional": "B3LYP", 
		 "basiset": "6-31G**", 
		 "properties": { 
			 "R2extent": 3545.6018, 
			 "electric_dipole_moment_norm": 4.68365981472, 
			 "electric_quadrupole_moment_norm": 15.1411946018, 
			 "total_energy": -972.612910389, 
			 "HOMO_LUMO_gap": 0.16606, 
			 "cosmo_polarized_energy": -13.89, 
			 "cosmo_cavitation_energy": 27.86, 
			 "cosmo_dispersion_energy": -20.56, 
			 "cosmo_repulsion_energy": 1.57, 
			 "cosmo_total_nonelectrostatic_energy": 8.86, 
			 "SMD_solvation_energy": 5.56 
		},
		"coords": [
			{
				"x": -1.5205973088,
				"y": -0.2566613282,
				"z": 0.3891522844,
				"element": "O" 
			},
			{
				"x": -1.2389504248,
				"y": -1.1912730081,
				"z": 1.3277471794,
				"element": "C" 
			},
			{
				"x": -1.5781077457,
				"y": -1.024278487,
				"z": 2.4777238706,
				"element": "O" 
			},
			{
				"x": -0.5394816962,
				"y": -2.4400845142,
				"z": 0.9001003725,
				"element": "C" 
			},
			{
				"x": 0.163076219,
				"y": -2.6839109042,
				"z": -0.2203595314,
				"element": "C" 
			},
			{
				"x": 0.5107396642,
				"y": -1.7478788721,
				"z": -1.3127708459,
				"element": "C" 
			},
			{
				"x": 0.2381624746,
				"y": -2.0127534593,
				"z": -2.6282807132,
				"element": "C" 
			},
			{
				"x": 0.8172092917,
				"y": -0.7985414313,
				"z": -3.7317734172,
				"element": "S" 
			},
			{
				"x": 1.4958065174,
				"y": 0.1275976426,
				"z": -2.4023060339,
				"element": "C" 
			},
			{
				"x": 1.2571774198,
				"y": -0.5053746679,
				"z": -1.1581401454,
				"element": "C" 
			},
			{
				"x": 1.7602643381,
				"y": 0.0924467387,
				"z": 0.0128102022,
				"element": "C" 
			},
			{
				"x": 2.4631147041,
				"y": 1.2848691317,
				"z": -0.0763746664,
				"element": "C" 
			},
			{
				"x": 2.6798618117,
				"y": 1.9047500294,
				"z": -1.3207894682,
				"element": "C" 
			},
			{
				"x": 2.2013207517,
				"y": 1.3325374771,
				"z": -2.4930362547,
				"element": "C" 
			},
			{
				"x": -1.2085803375,
				"y": -0.542162432,
				"z": -0.483846118,
				"element": "H" 
			},
			{
				"x": -0.6452226189,
				"y": -3.2331729598,
				"z": 1.6339553763,
				"element": "H" 
			},
			{
				"x": 0.5397178795,
				"y": -3.6986078612,
				"z": -0.3462538011,
				"element": "H" 
			},
			{
				"x": -0.2878887351,
				"y": -2.8744012684,
				"z": -3.0184798586,
				"element": "H" 
			},
			{
				"x": 1.5988789854,
				"y": -0.3812173139,
				"z": 0.9756451664,
				"element": "H" 
			},
			{
				"x": 2.8495763194,
				"y": 1.7475198629,
				"z": 0.8264033174,
				"element": "H" 
			},
			{
				"x": 3.2296572847,
				"y": 2.8398232455,
				"z": -1.3674571959,
				"element": "H" 
			},
			{
				"x": 2.3734652055,
				"y": 1.8057743795,
				"z": -3.4546697194,
				"element": "H" 
			}
		],
		 "valence_orbital": [ 
			{
				"type": "occ",
				"energy": -0.30098,
				"method": "rhf"
			},
			{
				"type": "occ",
				"energy": -0.28416,
				"method": "rhf"
			},
			{
				"type": "occ",
				"energy": -0.26814,
				"method": "rhf"
			},
			{
				"type": "occ",
				"energy": -0.25253,
				"method": "rhf"
			},
			{
				"type": "occ",
				"energy": -0.23162,
				"method": "rhf"
			},
			{
				"type": "unocc",
				"energy": -0.06556,
				"method": "rhf"
			},
			{
				"type": "unocc",
				"energy": -0.0383,
				"method": "rhf"
			},
			{
				"type": "unocc",
				"energy": -0.01484,
				"method": "rhf"
			},
			{
				"type": "unocc",
				"energy": 0.00742,
				"method": "rhf"
			},
			{
				"type": "unocc",
				"energy": 0.02791,
				"method": "rhf"
			}
		],
		"cosmo_sigma_profile": { 
			"-0.025": 0.0,
			"-0.024": 0.0,
			"-0.023": 0.0,
			"-0.022": 0.0,
			"-0.021": 0.0,
			"-0.02": 0.0,
			"-0.019": 0.0,
			"-0.018": 0.0,
			"-0.017": 0.0,
			"-0.016": 0.0,
			"-0.015": 0.0,
			"-0.014": 0.0,
			"-0.013": 0.147350117508,
			"-0.012": 0.8045583513,
			"-0.011": 1.34436312949,
			"-0.01": 1.61529444749,
			"-0.009": 3.25109670986,
			"-0.008": 5.27430828564,
			"-0.007": 10.4877189181,
			"-0.006": 15.3597156284,
			"-0.005": 14.3079562825,
			"-0.004": 15.3133665034,
			"-0.003": 13.6501900232,
			"-0.002": 13.452195218,
			"-0.001": 14.3412095449,
			"0.0": 14.6813137022,
			"0.001": 17.0470025706,
			"0.002": 18.3478768877,
			"0.003": 14.7423417324,
			"0.004": 14.5575482967,
			"0.005": 9.04857480541,
			"0.006": 2.55480354348,
			"0.007": 2.28725318518,
			"0.008": 2.45197897857,
			"0.009": 2.44595610165,
			"0.01": 4.81658042327,
			"0.011": 4.84852606791,
			"0.012": 6.04264973158,
			"0.013": 2.95521357692,
			"0.014": 0.20931726276,
			"0.015": 0.0,
			"0.016": 0.0,
			"0.017": 0.0,
			"0.018": 0.0,
			"0.019": 0.0,
			"0.02": 0.0,
			"0.021": 0.0,
			"0.022": 0.0,
			"0.023": 0.0,
			"0.024": 0.0,
			"0.025": 0.0
		}
	}
}
