{
	 "smiles": "COC1=CC(=CC=C1)C1=NN(C(N)=C1)C1=CC=CC=C1", 
	 "Tm": 386.15, 
	 "num_atms": 35, 
	 "gaussian": { 
		 "optdone": 1, 
		 "sigma_profile": "yes", 
		 "theory": "DFT", 
		 "functional": "B3LYP", 
		 "basiset": "6-31G**", 
		 "properties": { 
			 "R2extent": 8471.4279, 
			 "electric_dipole_moment_norm": 4.37793900483, 
			 "electric_quadrupole_moment_norm": 15.3364099965, 
			 "total_energy": -858.196831458, 
			 "HOMO_LUMO_gap": 0.1707, 
			 "cosmo_polarized_energy": -16.26, 
			 "cosmo_cavitation_energy": 38.96, 
			 "cosmo_dispersion_energy": -28.32, 
			 "cosmo_repulsion_energy": 2.15, 
			 "cosmo_total_nonelectrostatic_energy": 12.78, 
			 "SMD_solvation_energy": 6.6 
		},
		"coords": [
			{
				"x": 3.0422526894,
				"y": 5.3226494959,
				"z": -0.0546665674,
				"element": "C" 
			},
			{
				"x": 2.1295827968,
				"y": 5.1299459401,
				"z": -1.1205343088,
				"element": "O" 
			},
			{
				"x": 1.501130011,
				"y": 3.9190842453,
				"z": -1.2271167285,
				"element": "C" 
			},
			{
				"x": 1.6939744637,
				"y": 2.850189409,
				"z": -0.3479011855,
				"element": "C" 
			},
			{
				"x": 1.0018356138,
				"y": 1.6409725184,
				"z": -0.5399055802,
				"element": "C" 
			},
			{
				"x": 0.1203887446,
				"y": 1.5177319152,
				"z": -1.6224764494,
				"element": "C" 
			},
			{
				"x": -0.0634510977,
				"y": 2.5906863685,
				"z": -2.4945855675,
				"element": "C" 
			},
			{
				"x": 0.6165636566,
				"y": 3.7898760927,
				"z": -2.3069328298,
				"element": "C" 
			},
			{
				"x": 1.2021424469,
				"y": 0.514979211,
				"z": 0.3890507037,
				"element": "C" 
			},
			{
				"x": 0.6332893771,
				"y": -0.6652922157,
				"z": 0.1505976573,
				"element": "N" 
			},
			{
				"x": 1.0307466832,
				"y": -1.4747026614,
				"z": 1.181757437,
				"element": "N" 
			},
			{
				"x": 1.8204173847,
				"y": -0.7952556073,
				"z": 2.0792610263,
				"element": "C" 
			},
			{
				"x": 2.3630322826,
				"y": -1.3924229314,
				"z": 3.2161608399,
				"element": "N" 
			},
			{
				"x": 1.9608136189,
				"y": 0.488879314,
				"z": 1.5919437568,
				"element": "C" 
			},
			{
				"x": 0.551730023,
				"y": -2.8087471678,
				"z": 1.2419615433,
				"element": "C" 
			},
			{
				"x": -0.7331976887,
				"y": -3.0889385613,
				"z": 0.7579255458,
				"element": "C" 
			},
			{
				"x": -1.2154234341,
				"y": -4.3943667862,
				"z": 0.7999766173,
				"element": "C" 
			},
			{
				"x": -0.4337916628,
				"y": -5.4250485863,
				"z": 1.3296055612,
				"element": "C" 
			},
			{
				"x": 0.8475767462,
				"y": -5.1414920572,
				"z": 1.8019981564,
				"element": "C" 
			},
			{
				"x": 1.351497032,
				"y": -3.8404447964,
				"z": 1.7521483296,
				"element": "C" 
			},
			{
				"x": 3.8843506996,
				"y": 4.6196984876,
				"z": -0.1067427651,
				"element": "H" 
			},
			{
				"x": 2.5538554591,
				"y": 5.2211473342,
				"z": 0.9237894903,
				"element": "H" 
			},
			{
				"x": 3.4204216781,
				"y": 6.3409882468,
				"z": -0.1605353832,
				"element": "H" 
			},
			{
				"x": 2.3836904245,
				"y": 2.9420188249,
				"z": 0.4815860021,
				"element": "H" 
			},
			{
				"x": -0.4080620224,
				"y": 0.5828721246,
				"z": -1.7679087936,
				"element": "H" 
			},
			{
				"x": -0.7475675974,
				"y": 2.491402098,
				"z": -3.3328013472,
				"element": "H" 
			},
			{
				"x": 0.4844030053,
				"y": 4.6336554001,
				"z": -2.976049039,
				"element": "H" 
			},
			{
				"x": 1.7436051653,
				"y": -2.0593315592,
				"z": 3.663584042,
				"element": "H" 
			},
			{
				"x": 2.684855759,
				"y": -0.7032911877,
				"z": 3.8839861689,
				"element": "H" 
			},
			{
				"x": 2.5130183128,
				"y": 1.2898844538,
				"z": 2.0594695819,
				"element": "H" 
			},
			{
				"x": -1.3243952213,
				"y": -2.2793231594,
				"z": 0.3476213631,
				"element": "H" 
			},
			{
				"x": -2.2115494428,
				"y": -4.6061569542,
				"z": 0.4222747599,
				"element": "H" 
			},
			{
				"x": -0.8180174104,
				"y": -6.4399430214,
				"z": 1.3656841898,
				"element": "H" 
			},
			{
				"x": 1.4721239212,
				"y": -5.9375816496,
				"z": 2.1969892053,
				"element": "H" 
			},
			{
				"x": 2.363057582,
				"y": -3.6307225778,
				"z": 2.0806845673,
				"element": "H" 
			}
		],
		 "valence_orbital": [ 
			{
				"type": "occ",
				"energy": -0.25641,
				"method": "rhf"
			},
			{
				"type": "occ",
				"energy": -0.24708,
				"method": "rhf"
			},
			{
				"type": "occ",
				"energy": -0.21863,
				"method": "rhf"
			},
			{
				"type": "occ",
				"energy": -0.2143,
				"method": "rhf"
			},
			{
				"type": "occ",
				"energy": -0.1954,
				"method": "rhf"
			},
			{
				"type": "unocc",
				"energy": -0.0247,
				"method": "rhf"
			},
			{
				"type": "unocc",
				"energy": -0.00834,
				"method": "rhf"
			},
			{
				"type": "unocc",
				"energy": 0.00046,
				"method": "rhf"
			},
			{
				"type": "unocc",
				"energy": 0.02104,
				"method": "rhf"
			},
			{
				"type": "unocc",
				"energy": 0.05705,
				"method": "rhf"
			}
		],
		"cosmo_sigma_profile": { 
			"-0.025": 0.0,
			"-0.024": 0.0,
			"-0.023": 0.0,
			"-0.022": 0.0,
			"-0.021": 0.0,
			"-0.02": 0.0,
			"-0.019": 0.0,
			"-0.018": 0.0,
			"-0.017": 0.0,
			"-0.016": 0.0,
			"-0.015": 0.0,
			"-0.014": 0.246948720919,
			"-0.013": 1.57764786533,
			"-0.012": 3.16362665268,
			"-0.011": 1.99211120398,
			"-0.01": 3.27406648926,
			"-0.009": 2.37269580389,
			"-0.008": 3.65618666409,
			"-0.007": 5.56324420493,
			"-0.006": 14.8952770522,
			"-0.005": 26.5868182546,
			"-0.004": 24.9360779146,
			"-0.003": 25.1585047398,
			"-0.002": 18.5195855068,
			"-0.001": 14.2759202881,
			"0.0": 16.2212812225,
			"0.001": 16.4243798033,
			"0.002": 16.6628405846,
			"0.003": 21.2662382788,
			"0.004": 30.0097042416,
			"0.005": 31.8868820065,
			"0.006": 12.2370474513,
			"0.007": 4.6661406079,
			"0.008": 5.20577904853,
			"0.009": 3.34754836475,
			"0.01": 3.08691959398,
			"0.011": 2.42511190504,
			"0.012": 1.08978447716,
			"0.013": 0.66545154551,
			"0.014": 0.233004767406,
			"0.015": 0.0,
			"0.016": 0.0,
			"0.017": 0.0,
			"0.018": 0.0,
			"0.019": 0.0,
			"0.02": 0.0,
			"0.021": 0.0,
			"0.022": 0.0,
			"0.023": 0.0,
			"0.024": 0.0,
			"0.025": 0.0
		}
	}
}
