{
	 "smiles": "OCC1=NN(C=N1)C1=CC=CC=C1", 
	 "Tm": 383.15, 
	 "num_atms": 22, 
	 "gaussian": { 
		 "optdone": 1, 
		 "sigma_profile": "yes", 
		 "theory": "DFT", 
		 "functional": "B3LYP", 
		 "basiset": "6-31G**", 
		 "properties": { 
			 "R2extent": 3273.1887, 
			 "electric_dipole_moment_norm": 4.47522346034, 
			 "electric_quadrupole_moment_norm": 9.63163454871, 
			 "total_energy": -587.834254701, 
			 "HOMO_LUMO_gap": 0.19724, 
			 "cosmo_polarized_energy": -11.38, 
			 "cosmo_cavitation_energy": 26.25, 
			 "cosmo_dispersion_energy": -19.76, 
			 "cosmo_repulsion_energy": 1.55, 
			 "cosmo_total_nonelectrostatic_energy": 8.03, 
			 "SMD_solvation_energy": 2.53 
		},
		"coords": [
			{
				"x": -0.586819551,
				"y": 0.1960452297,
				"z": 4.6456726149,
				"element": "O" 
			},
			{
				"x": 0.720034107,
				"y": 0.2888857949,
				"z": 4.1192176482,
				"element": "C" 
			},
			{
				"x": 0.7333338046,
				"y": 0.4762708636,
				"z": 2.630262912,
				"element": "C" 
			},
			{
				"x": -0.3943062325,
				"y": 0.5394192737,
				"z": 1.9427648015,
				"element": "N" 
			},
			{
				"x": 0.0337528519,
				"y": 0.7095548574,
				"z": 0.6580420376,
				"element": "N" 
			},
			{
				"x": 1.3942866574,
				"y": 0.7375734358,
				"z": 0.6584436911,
				"element": "C" 
			},
			{
				"x": 1.8689050938,
				"y": 0.5939162788,
				"z": 1.8800360984,
				"element": "N" 
			},
			{
				"x": -0.8869494013,
				"y": 0.8259506788,
				"z": -0.4197802747,
				"element": "C" 
			},
			{
				"x": -0.4255912167,
				"y": 0.9989399141,
				"z": -1.7301444066,
				"element": "C" 
			},
			{
				"x": -1.3439818615,
				"y": 1.1109949189,
				"z": -2.7725781262,
				"element": "C" 
			},
			{
				"x": -2.7154802251,
				"y": 1.052180389,
				"z": -2.5205886267,
				"element": "C" 
			},
			{
				"x": -3.1647762451,
				"y": 0.8794205374,
				"z": -1.2104604651,
				"element": "C" 
			},
			{
				"x": -2.2595045355,
				"y": 0.7657689905,
				"z": -0.1571250519,
				"element": "C" 
			},
			{
				"x": -1.2030636352,
				"y": 0.2761812875,
				"z": 3.9039181308,
				"element": "H" 
			},
			{
				"x": 1.2938489235,
				"y": -0.6181696033,
				"z": 4.3623346738,
				"element": "H" 
			},
			{
				"x": 1.2580774016,
				"y": 1.1299718936,
				"z": 4.5820198373,
				"element": "H" 
			},
			{
				"x": 1.9872960503,
				"y": 0.8621194757,
				"z": -0.2350155378,
				"element": "H" 
			},
			{
				"x": 0.63555491,
				"y": 1.0470716079,
				"z": -1.947319672,
				"element": "H" 
			},
			{
				"x": -0.9798585417,
				"y": 1.2449993153,
				"z": -3.7867070298,
				"element": "H" 
			},
			{
				"x": -3.4255207933,
				"y": 1.1400893213,
				"z": -3.3368549455,
				"element": "H" 
			},
			{
				"x": -4.2291857106,
				"y": 0.8320226186,
				"z": -1.0008091675,
				"element": "H" 
			},
			{
				"x": -2.5964518506,
				"y": 0.6315929208,
				"z": 0.8626708584,
				"element": "H" 
			}
		],
		 "valence_orbital": [ 
			{
				"type": "occ",
				"energy": -0.28688,
				"method": "rhf"
			},
			{
				"type": "occ",
				"energy": -0.28678,
				"method": "rhf"
			},
			{
				"type": "occ",
				"energy": -0.26936,
				"method": "rhf"
			},
			{
				"type": "occ",
				"energy": -0.26372,
				"method": "rhf"
			},
			{
				"type": "occ",
				"energy": -0.23947,
				"method": "rhf"
			},
			{
				"type": "unocc",
				"energy": -0.04223,
				"method": "rhf"
			},
			{
				"type": "unocc",
				"energy": -0.02036,
				"method": "rhf"
			},
			{
				"type": "unocc",
				"energy": 0.02652,
				"method": "rhf"
			},
			{
				"type": "unocc",
				"energy": 0.04344,
				"method": "rhf"
			},
			{
				"type": "unocc",
				"energy": 0.06815,
				"method": "rhf"
			}
		],
		"cosmo_sigma_profile": { 
			"-0.025": 0.0,
			"-0.024": 0.0,
			"-0.023": 0.0,
			"-0.022": 0.0,
			"-0.021": 0.0,
			"-0.02": 0.0,
			"-0.019": 0.0,
			"-0.018": 0.0,
			"-0.017": 0.0,
			"-0.016": 0.0,
			"-0.015": 0.0,
			"-0.014": 0.0,
			"-0.013": 0.0170075845369,
			"-0.012": 1.32514099994,
			"-0.011": 2.38760054362,
			"-0.01": 2.92178976731,
			"-0.009": 2.46366669839,
			"-0.008": 2.46402453118,
			"-0.007": 3.67872727885,
			"-0.006": 11.2087973312,
			"-0.005": 16.4827642822,
			"-0.004": 17.1152083912,
			"-0.003": 14.947971483,
			"-0.002": 15.0838543206,
			"-0.001": 14.3609534149,
			"0.0": 14.0585537656,
			"0.001": 15.1378092452,
			"0.002": 15.136353155,
			"0.003": 13.9584888707,
			"0.004": 14.7503471297,
			"0.005": 8.1291138994,
			"0.006": 3.27072326171,
			"0.007": 3.26963112768,
			"0.008": 1.79548047788,
			"0.009": 2.09763211596,
			"0.01": 1.82113240547,
			"0.011": 2.86499312636,
			"0.012": 2.11212470001,
			"0.013": 3.01646877994,
			"0.014": 3.25237400709,
			"0.015": 0.879409421545,
			"0.016": 0.563559392759,
			"0.017": 0.0,
			"0.018": 0.0,
			"0.019": 0.0,
			"0.02": 0.0,
			"0.021": 0.0,
			"0.022": 0.0,
			"0.023": 0.0,
			"0.024": 0.0,
			"0.025": 0.0
		}
	}
}
