{
	 "smiles": "OC1OC(=O)C2=C(Cl)C(Cl)=C(Cl)C(Cl)=C12", 
	 "Tm": 517.15, 
	 "num_atms": 17, 
	 "gaussian": { 
		 "optdone": 1, 
		 "sigma_profile": "yes", 
		 "theory": "DFT", 
		 "functional": "B3LYP", 
		 "basiset": "6-31G**", 
		 "properties": { 
			 "R2extent": 5683.6401, 
			 "electric_dipole_moment_norm": 3.27849012504, 
			 "electric_quadrupole_moment_norm": 13.7202446141, 
			 "total_energy": -2372.47726811, 
			 "HOMO_LUMO_gap": 0.18747, 
			 "cosmo_polarized_energy": -13.04, 
			 "cosmo_cavitation_energy": 29.1, 
			 "cosmo_dispersion_energy": -22.0, 
			 "cosmo_repulsion_energy": 1.71, 
			 "cosmo_total_nonelectrostatic_energy": 8.81, 
			 "SMD_solvation_energy": 4.99 
		},
		"coords": [
			{
				"x": -2.078333461,
				"y": 1.1293268897,
				"z": 1.0125353511,
				"element": "O" 
			},
			{
				"x": -1.3754601043,
				"y": 0.2720426826,
				"z": 0.1781922487,
				"element": "C" 
			},
			{
				"x": -1.638321212,
				"y": -1.1070358873,
				"z": 0.5044018438,
				"element": "O" 
			},
			{
				"x": -0.5254115252,
				"y": -1.7377374121,
				"z": 1.0114450029,
				"element": "C" 
			},
			{
				"x": -0.5396820752,
				"y": -2.8762845168,
				"z": 1.3900031564,
				"element": "O" 
			},
			{
				"x": 0.5997581301,
				"y": -0.7569735797,
				"z": 0.9473413149,
				"element": "C" 
			},
			{
				"x": 1.9415598141,
				"y": -0.894055623,
				"z": 1.3011427952,
				"element": "C" 
			},
			{
				"x": 2.5396196434,
				"y": -2.3815534341,
				"z": 1.9516696333,
				"element": "Cl" 
			},
			{
				"x": 2.7914191009,
				"y": 0.2115393957,
				"z": 1.1082388953,
				"element": "C" 
			},
			{
				"x": 4.4688057414,
				"y": 0.0916573613,
				"z": 1.5296521665,
				"element": "Cl" 
			},
			{
				"x": 2.2883416193,
				"y": 1.4167040285,
				"z": 0.5661772774,
				"element": "C" 
			},
			{
				"x": 3.3475461329,
				"y": 2.7650945036,
				"z": 0.3233947616,
				"element": "Cl" 
			},
			{
				"x": 0.9283969993,
				"y": 1.5281041046,
				"z": 0.2196887362,
				"element": "C" 
			},
			{
				"x": 0.2806637821,
				"y": 2.986724568,
				"z": -0.4680433989,
				"element": "Cl" 
			},
			{
				"x": 0.106932928,
				"y": 0.4299727908,
				"z": 0.4249754542,
				"element": "C" 
			},
			{
				"x": -3.0188253802,
				"y": 1.0659185352,
				"z": 0.7959405974,
				"element": "H" 
			},
			{
				"x": -1.6493101336,
				"y": 0.399055593,
				"z": -0.8770558359,
				"element": "H" 
			}
		],
		 "valence_orbital": [ 
			{
				"type": "occ",
				"energy": -0.32237,
				"method": "rhf"
			},
			{
				"type": "occ",
				"energy": -0.31881,
				"method": "rhf"
			},
			{
				"type": "occ",
				"energy": -0.29027,
				"method": "rhf"
			},
			{
				"type": "occ",
				"energy": -0.28194,
				"method": "rhf"
			},
			{
				"type": "occ",
				"energy": -0.27187,
				"method": "rhf"
			},
			{
				"type": "unocc",
				"energy": -0.0844,
				"method": "rhf"
			},
			{
				"type": "unocc",
				"energy": -0.06272,
				"method": "rhf"
			},
			{
				"type": "unocc",
				"energy": -0.04142,
				"method": "rhf"
			},
			{
				"type": "unocc",
				"energy": 0.00881,
				"method": "rhf"
			},
			{
				"type": "unocc",
				"energy": 0.01808,
				"method": "rhf"
			}
		],
		"cosmo_sigma_profile": { 
			"-0.025": 0.0,
			"-0.024": 0.0,
			"-0.023": 0.0,
			"-0.022": 0.0,
			"-0.021": 0.0,
			"-0.02": 0.0,
			"-0.019": 0.279922510499,
			"-0.018": 1.20550170627,
			"-0.017": 1.30970088574,
			"-0.016": 0.989647266211,
			"-0.015": 0.953395422514,
			"-0.014": 0.556314924347,
			"-0.013": 0.997548599514,
			"-0.012": 1.15585593058,
			"-0.011": 0.77612217092,
			"-0.01": 1.85450473544,
			"-0.009": 4.14936727983,
			"-0.008": 3.22962490862,
			"-0.007": 2.93996077696,
			"-0.006": 3.66594239042,
			"-0.005": 7.44865113007,
			"-0.004": 18.1805698962,
			"-0.003": 25.9623052979,
			"-0.002": 16.0603330748,
			"-0.001": 14.3218370253,
			"0.0": 17.1403492384,
			"0.001": 20.0811813637,
			"0.002": 29.512555529,
			"0.003": 26.3797309151,
			"0.004": 6.68063384923,
			"0.005": 5.41425561353,
			"0.006": 4.34980746225,
			"0.007": 4.26331309192,
			"0.008": 6.99186237299,
			"0.009": 5.75932122678,
			"0.01": 6.67381845724,
			"0.011": 3.75068408354,
			"0.012": 0.209786485104,
			"0.013": 0.0,
			"0.014": 0.0,
			"0.015": 0.0,
			"0.016": 0.0,
			"0.017": 0.0,
			"0.018": 0.0,
			"0.019": 0.0,
			"0.02": 0.0,
			"0.021": 0.0,
			"0.022": 0.0,
			"0.023": 0.0,
			"0.024": 0.0,
			"0.025": 0.0
		}
	}
}
