{
	 "smiles": "CC1=CC2=C(SC(C=O)=C2)C=C1", 
	 "Tm": 371.65, 
	 "num_atms": 20, 
	 "gaussian": { 
		 "optdone": 1, 
		 "sigma_profile": "yes", 
		 "theory": "DFT", 
		 "functional": "B3LYP", 
		 "basiset": "6-31G**", 
		 "properties": { 
			 "R2extent": 3281.6011, 
			 "electric_dipole_moment_norm": 3.86079068327, 
			 "electric_quadrupole_moment_norm": 12.1898597006, 
			 "total_energy": -859.294787222, 
			 "HOMO_LUMO_gap": 0.15377, 
			 "cosmo_polarized_energy": -7.97, 
			 "cosmo_cavitation_energy": 26.05, 
			 "cosmo_dispersion_energy": -19.54, 
			 "cosmo_repulsion_energy": 1.49, 
			 "cosmo_total_nonelectrostatic_energy": 8.0, 
			 "SMD_solvation_energy": 5.0 
		},
		"coords": [
			{
				"x": 0.53359374,
				"y": 0.380021322,
				"z": -2.8699227122,
				"element": "C" 
			},
			{
				"x": 0.1656438907,
				"y": -0.1212972465,
				"z": -1.4932501569,
				"element": "C" 
			},
			{
				"x": 0.8402679553,
				"y": 0.3158022341,
				"z": -0.3618466109,
				"element": "C" 
			},
			{
				"x": 0.4828790138,
				"y": -0.1641012724,
				"z": 0.9164042798,
				"element": "C" 
			},
			{
				"x": -0.5771395271,
				"y": -1.1010258363,
				"z": 1.0300530752,
				"element": "C" 
			},
			{
				"x": -0.8546795832,
				"y": -1.5629102435,
				"z": 2.6959691353,
				"element": "S" 
			},
			{
				"x": 0.4487665038,
				"y": -0.4994361027,
				"z": 3.2305666844,
				"element": "C" 
			},
			{
				"x": 0.7971067011,
				"y": -0.3837899021,
				"z": 4.6509099468,
				"element": "C" 
			},
			{
				"x": 1.6877534253,
				"y": 0.3359322512,
				"z": 5.0670497786,
				"element": "O" 
			},
			{
				"x": 1.0477532076,
				"y": 0.1586666889,
				"z": 2.1895257139,
				"element": "C" 
			},
			{
				"x": -1.2661609417,
				"y": -1.5501662188,
				"z": -0.1034607298,
				"element": "C" 
			},
			{
				"x": -0.8878639136,
				"y": -1.0572750811,
				"z": -1.343283568,
				"element": "C" 
			},
			{
				"x": 1.3603323547,
				"y": 1.0938806184,
				"z": -2.8269616278,
				"element": "H" 
			},
			{
				"x": -0.3150537724,
				"y": 0.8788121139,
				"z": -3.3521054716,
				"element": "H" 
			},
			{
				"x": 0.8365135627,
				"y": -0.4442722208,
				"z": -3.5259250006,
				"element": "H" 
			},
			{
				"x": 1.6515156185,
				"y": 1.033344981,
				"z": -0.4535494174,
				"element": "H" 
			},
			{
				"x": 0.1891279476,
				"y": -1.0038770572,
				"z": 5.3440277334,
				"element": "H" 
			},
			{
				"x": 1.8672091973,
				"y": 0.8505828528,
				"z": 2.3462885283,
				"element": "H" 
			},
			{
				"x": -2.0770289052,
				"y": -2.2667226652,
				"z": -0.0175218108,
				"element": "H" 
			},
			{
				"x": -1.415736475,
				"y": -1.3990692157,
				"z": -2.2300677697,
				"element": "H" 
			}
		],
		 "valence_orbital": [ 
			{
				"type": "occ",
				"energy": -0.32597,
				"method": "rhf"
			},
			{
				"type": "occ",
				"energy": -0.29432,
				"method": "rhf"
			},
			{
				"type": "occ",
				"energy": -0.25879,
				"method": "rhf"
			},
			{
				"type": "occ",
				"energy": -0.24216,
				"method": "rhf"
			},
			{
				"type": "occ",
				"energy": -0.22912,
				"method": "rhf"
			},
			{
				"type": "unocc",
				"energy": -0.07535,
				"method": "rhf"
			},
			{
				"type": "unocc",
				"energy": -0.01078,
				"method": "rhf"
			},
			{
				"type": "unocc",
				"energy": 0.00392,
				"method": "rhf"
			},
			{
				"type": "unocc",
				"energy": 0.0073,
				"method": "rhf"
			},
			{
				"type": "unocc",
				"energy": 0.06939,
				"method": "rhf"
			}
		],
		"cosmo_sigma_profile": { 
			"-0.025": 0.0,
			"-0.024": 0.0,
			"-0.023": 0.0,
			"-0.022": 0.0,
			"-0.021": 0.0,
			"-0.02": 0.0,
			"-0.019": 0.0,
			"-0.018": 0.0,
			"-0.017": 0.0,
			"-0.016": 0.0,
			"-0.015": 0.0,
			"-0.014": 0.0,
			"-0.013": 0.0,
			"-0.012": 0.0,
			"-0.011": 0.0,
			"-0.01": 0.0,
			"-0.009": 0.0,
			"-0.008": 2.33741424214,
			"-0.007": 9.05429572038,
			"-0.006": 11.5810074563,
			"-0.005": 12.1055208229,
			"-0.004": 17.1905098542,
			"-0.003": 15.0216277809,
			"-0.002": 15.4422980725,
			"-0.001": 15.695144456,
			"0.0": 17.1264804765,
			"0.001": 18.9128301101,
			"0.002": 21.9090222225,
			"0.003": 17.7484481335,
			"0.004": 15.3519426244,
			"0.005": 4.16093145745,
			"0.006": 1.14517831191,
			"0.007": 1.5591634633,
			"0.008": 1.85207474002,
			"0.009": 2.12462472616,
			"0.01": 2.33420184119,
			"0.011": 4.84318178902,
			"0.012": 2.8483435625,
			"0.013": 0.696258088051,
			"0.014": 0.0,
			"0.015": 0.0,
			"0.016": 0.0,
			"0.017": 0.0,
			"0.018": 0.0,
			"0.019": 0.0,
			"0.02": 0.0,
			"0.021": 0.0,
			"0.022": 0.0,
			"0.023": 0.0,
			"0.024": 0.0,
			"0.025": 0.0
		}
	}
}
