{
	 "smiles": "CC1=CC(O)=C(C=C1Cl)C(=O)C1=CC=CC=C1", 
	 "Tm": 413.15, 
	 "num_atms": 28, 
	 "gaussian": { 
		 "optdone": 1, 
		 "sigma_profile": "yes", 
		 "theory": "DFT", 
		 "functional": "B3LYP", 
		 "basiset": "6-31G**", 
		 "properties": { 
			 "R2extent": 5844.5579, 
			 "electric_dipole_moment_norm": 2.02719649023, 
			 "electric_quadrupole_moment_norm": 16.6639763301, 
			 "total_energy": -1150.77970173, 
			 "HOMO_LUMO_gap": 0.14853, 
			 "cosmo_polarized_energy": -8.12, 
			 "cosmo_cavitation_energy": 33.57, 
			 "cosmo_dispersion_energy": -24.6, 
			 "cosmo_repulsion_energy": 1.89, 
			 "cosmo_total_nonelectrostatic_energy": 10.86, 
			 "SMD_solvation_energy": 6.0 
		},
		"coords": [
			{
				"x": 1.0655645364,
				"y": 0.8594713437,
				"z": 3.5985218603,
				"element": "C" 
			},
			{
				"x": 0.5905904153,
				"y": 0.4663499644,
				"z": 2.2256916004,
				"element": "C" 
			},
			{
				"x": 1.4039039212,
				"y": 0.6510779423,
				"z": 1.1122159235,
				"element": "C" 
			},
			{
				"x": 0.9980711444,
				"y": 0.2820032359,
				"z": -0.180194037,
				"element": "C" 
			},
			{
				"x": 1.8653483175,
				"y": 0.4557359004,
				"z": -1.1824492032,
				"element": "O" 
			},
			{
				"x": -0.3067095746,
				"y": -0.2534221588,
				"z": -0.3819466152,
				"element": "C" 
			},
			{
				"x": -1.1179138144,
				"y": -0.4662969424,
				"z": 0.7527781645,
				"element": "C" 
			},
			{
				"x": -0.6796190273,
				"y": -0.1163124967,
				"z": 2.0156380865,
				"element": "C" 
			},
			{
				"x": -1.7425024326,
				"y": -0.4191474311,
				"z": 3.3908484886,
				"element": "Cl" 
			},
			{
				"x": -0.7289392414,
				"y": -0.6005496773,
				"z": -1.7495816819,
				"element": "C" 
			},
			{
				"x": 0.1065075888,
				"y": -0.6234590504,
				"z": -2.6747516741,
				"element": "O" 
			},
			{
				"x": -2.1480345935,
				"y": -0.9346800925,
				"z": -2.0845130594,
				"element": "C" 
			},
			{
				"x": -2.3743191268,
				"y": -1.9235560475,
				"z": -3.0557349828,
				"element": "C" 
			},
			{
				"x": -3.671300476,
				"y": -2.2430737729,
				"z": -3.4468625469,
				"element": "C" 
			},
			{
				"x": -4.7575913796,
				"y": -1.5566676091,
				"z": -2.8963340066,
				"element": "C" 
			},
			{
				"x": -4.5406214021,
				"y": -0.5493034762,
				"z": -1.9549942026,
				"element": "C" 
			},
			{
				"x": -3.2431706862,
				"y": -0.2417715834,
				"z": -1.5443337517,
				"element": "C" 
			},
			{
				"x": 0.3892017621,
				"y": 1.5908366985,
				"z": 4.0536548506,
				"element": "H" 
			},
			{
				"x": 1.0890585666,
				"y": -0.0060951397,
				"z": 4.269180454,
				"element": "H" 
			},
			{
				"x": 2.0671727365,
				"y": 1.2923755718,
				"z": 3.5548100416,
				"element": "H" 
			},
			{
				"x": 2.39665271,
				"y": 1.0746734535,
				"z": 1.22469591,
				"element": "H" 
			},
			{
				"x": 1.4336516228,
				"y": 0.0644267289,
				"z": -1.9886446472,
				"element": "H" 
			},
			{
				"x": -2.0890067719,
				"y": -0.9311178983,
				"z": 0.6412596965,
				"element": "H" 
			},
			{
				"x": -1.5205599174,
				"y": -2.4308087817,
				"z": -3.4924300496,
				"element": "H" 
			},
			{
				"x": -3.8368877128,
				"y": -3.0212025187,
				"z": -4.1860793051,
				"element": "H" 
			},
			{
				"x": -5.7692520937,
				"y": -1.8008617811,
				"z": -3.207271305,
				"element": "H" 
			},
			{
				"x": -5.3803515228,
				"y": 0.0016378815,
				"z": -1.5420902203,
				"element": "H" 
			},
			{
				"x": -3.0810435482,
				"y": 0.5587377371,
				"z": -0.830383788,
				"element": "H" 
			}
		],
		 "valence_orbital": [ 
			{
				"type": "occ",
				"energy": -0.27539,
				"method": "rhf"
			},
			{
				"type": "occ",
				"energy": -0.26684,
				"method": "rhf"
			},
			{
				"type": "occ",
				"energy": -0.26491,
				"method": "rhf"
			},
			{
				"type": "occ",
				"energy": -0.26041,
				"method": "rhf"
			},
			{
				"type": "occ",
				"energy": -0.22509,
				"method": "rhf"
			},
			{
				"type": "unocc",
				"energy": -0.07656,
				"method": "rhf"
			},
			{
				"type": "unocc",
				"energy": -0.02326,
				"method": "rhf"
			},
			{
				"type": "unocc",
				"energy": -0.01586,
				"method": "rhf"
			},
			{
				"type": "unocc",
				"energy": -0.00446,
				"method": "rhf"
			},
			{
				"type": "unocc",
				"energy": 0.02941,
				"method": "rhf"
			}
		],
		"cosmo_sigma_profile": { 
			"-0.025": 0.0,
			"-0.024": 0.0,
			"-0.023": 0.0,
			"-0.022": 0.0,
			"-0.021": 0.0,
			"-0.02": 0.0,
			"-0.019": 0.0,
			"-0.018": 0.0,
			"-0.017": 0.0,
			"-0.016": 0.0,
			"-0.015": 0.0,
			"-0.014": 0.0,
			"-0.013": 0.0,
			"-0.012": 0.0,
			"-0.011": 0.0,
			"-0.01": 0.0,
			"-0.009": 0.0,
			"-0.008": 0.0,
			"-0.007": 3.71364724881,
			"-0.006": 14.2794412656,
			"-0.005": 21.2543041084,
			"-0.004": 21.6724906379,
			"-0.003": 20.2330788826,
			"-0.002": 24.5490953677,
			"-0.001": 24.4669975676,
			"0.0": 19.7072333886,
			"0.001": 23.9580676809,
			"0.002": 27.6556788134,
			"0.003": 21.0014574424,
			"0.004": 20.3944607659,
			"0.005": 9.47764059197,
			"0.006": 3.33468443127,
			"0.007": 2.79312920738,
			"0.008": 3.36507311889,
			"0.009": 2.60767219182,
			"0.01": 3.57608454616,
			"0.011": 2.60723883886,
			"0.012": 0.821680291001,
			"0.013": 0.0,
			"0.014": 0.0,
			"0.015": 0.0,
			"0.016": 0.0,
			"0.017": 0.0,
			"0.018": 0.0,
			"0.019": 0.0,
			"0.02": 0.0,
			"0.021": 0.0,
			"0.022": 0.0,
			"0.023": 0.0,
			"0.024": 0.0,
			"0.025": 0.0
		}
	}
}
