{
	 "smiles": "CC1=C(SC2=C1C(C)=CC(C)=N2)C(O)=O", 
	 "Tm": 552.15, 
	 "num_atms": 26, 
	 "gaussian": { 
		 "optdone": 1, 
		 "sigma_profile": "yes", 
		 "theory": "DFT", 
		 "functional": "B3LYP", 
		 "basiset": "6-31G**", 
		 "properties": { 
			 "R2extent": 4294.8527, 
			 "electric_dipole_moment_norm": 2.8675613228, 
			 "electric_quadrupole_moment_norm": 11.7781994706, 
			 "total_energy": -1029.22377854, 
			 "HOMO_LUMO_gap": 0.16391, 
			 "cosmo_polarized_energy": -12.03, 
			 "cosmo_cavitation_energy": 30.73, 
			 "cosmo_dispersion_energy": -23.27, 
			 "cosmo_repulsion_energy": 1.75, 
			 "cosmo_total_nonelectrostatic_energy": 9.21, 
			 "SMD_solvation_energy": 4.57 
		},
		"coords": [
			{
				"x": -1.3627395959,
				"y": 1.1236121042,
				"z": 0.828837516,
				"element": "C" 
			},
			{
				"x": -0.5271677365,
				"y": -0.1290619605,
				"z": 0.8075849643,
				"element": "C" 
			},
			{
				"x": -0.567672529,
				"y": -1.0995739441,
				"z": 1.7886131248,
				"element": "C" 
			},
			{
				"x": 0.5203837748,
				"y": -2.4540625639,
				"z": 1.4984879491,
				"element": "S" 
			},
			{
				"x": 1.0598346513,
				"y": -1.7119839221,
				"z": 0.0112437519,
				"element": "C" 
			},
			{
				"x": 0.4170201399,
				"y": -0.470982588,
				"z": -0.2363477149,
				"element": "C" 
			},
			{
				"x": 0.7986770343,
				"y": 0.2033773562,
				"z": -1.4304330936,
				"element": "C" 
			},
			{
				"x": 0.231248289,
				"y": 1.5311521444,
				"z": -1.8700701755,
				"element": "C" 
			},
			{
				"x": 1.7545332738,
				"y": -0.4213412576,
				"z": -2.2219522412,
				"element": "C" 
			},
			{
				"x": 2.3247632878,
				"y": -1.6633901485,
				"z": -1.8680094714,
				"element": "C" 
			},
			{
				"x": 3.3601637364,
				"y": -2.3155369001,
				"z": -2.7483622411,
				"element": "C" 
			},
			{
				"x": 1.9775571396,
				"y": -2.3079045029,
				"z": -0.7525368391,
				"element": "N" 
			},
			{
				"x": -1.3975154355,
				"y": -1.1125789556,
				"z": 3.004489541,
				"element": "C" 
			},
			{
				"x": -1.1763472512,
				"y": -2.2286583338,
				"z": 3.7469308671,
				"element": "O" 
			},
			{
				"x": -2.1976830882,
				"y": -0.2639032501,
				"z": 3.3564862329,
				"element": "O" 
			},
			{
				"x": -0.7284628505,
				"y": 2.0162009524,
				"z": 0.8209656414,
				"element": "H" 
			},
			{
				"x": -2.00843584,
				"y": 1.1773384707,
				"z": -0.0540146065,
				"element": "H" 
			},
			{
				"x": -1.9888592485,
				"y": 1.151285049,
				"z": 1.7176010333,
				"element": "H" 
			},
			{
				"x": -0.8525218819,
				"y": 1.4826669922,
				"z": -2.0126255481,
				"element": "H" 
			},
			{
				"x": 0.6798273065,
				"y": 1.8395479386,
				"z": -2.8175289399,
				"element": "H" 
			},
			{
				"x": 0.4249741831,
				"y": 2.3188779597,
				"z": -1.1357053757,
				"element": "H" 
			},
			{
				"x": 2.0758435864,
				"y": 0.057589785,
				"z": -3.1428205086,
				"element": "H" 
			},
			{
				"x": 4.2400002076,
				"y": -1.6724821435,
				"z": -2.8663656773,
				"element": "H" 
			},
			{
				"x": 3.673400436,
				"y": -3.2632758499,
				"z": -2.3083201552,
				"element": "H" 
			},
			{
				"x": 2.9624925614,
				"y": -2.5055722078,
				"z": -3.7519706707,
				"element": "H" 
			},
			{
				"x": -1.7584141505,
				"y": -2.155140224,
				"z": 4.5207226372,
				"element": "H" 
			}
		],
		 "valence_orbital": [ 
			{
				"type": "occ",
				"energy": -0.29683,
				"method": "rhf"
			},
			{
				"type": "occ",
				"energy": -0.27938,
				"method": "rhf"
			},
			{
				"type": "occ",
				"energy": -0.2616,
				"method": "rhf"
			},
			{
				"type": "occ",
				"energy": -0.24357,
				"method": "rhf"
			},
			{
				"type": "occ",
				"energy": -0.2274,
				"method": "rhf"
			},
			{
				"type": "unocc",
				"energy": -0.06349,
				"method": "rhf"
			},
			{
				"type": "unocc",
				"energy": -0.01814,
				"method": "rhf"
			},
			{
				"type": "unocc",
				"energy": 0.00656,
				"method": "rhf"
			},
			{
				"type": "unocc",
				"energy": 0.02837,
				"method": "rhf"
			},
			{
				"type": "unocc",
				"energy": 0.07878,
				"method": "rhf"
			}
		],
		"cosmo_sigma_profile": { 
			"-0.025": 0.0,
			"-0.024": 0.0,
			"-0.023": 0.0,
			"-0.022": 0.0,
			"-0.021": 0.0,
			"-0.02": 0.0,
			"-0.019": 0.216355205377,
			"-0.018": 0.74685361804,
			"-0.017": 1.02888773236,
			"-0.016": 0.825191612745,
			"-0.015": 0.926083654052,
			"-0.014": 0.539333161013,
			"-0.013": 0.246626670644,
			"-0.012": 1.012072915,
			"-0.011": 0.60796543828,
			"-0.01": 0.728283856571,
			"-0.009": 0.437952907653,
			"-0.008": 0.879866376782,
			"-0.007": 2.19312360469,
			"-0.006": 9.95220773158,
			"-0.005": 14.4596782329,
			"-0.004": 16.5324634243,
			"-0.003": 18.2669525973,
			"-0.002": 19.5546264707,
			"-0.001": 24.6755490998,
			"0.0": 26.0878355481,
			"0.001": 27.5978832689,
			"0.002": 17.5837672872,
			"0.003": 14.3439755575,
			"0.004": 11.566600775,
			"0.005": 7.94441638659,
			"0.006": 4.41648520779,
			"0.007": 4.91172740195,
			"0.008": 4.12256124921,
			"0.009": 2.69025571792,
			"0.01": 2.92524007268,
			"0.011": 4.76623756911,
			"0.012": 2.51527181084,
			"0.013": 0.607264456805,
			"0.014": 0.734692817822,
			"0.015": 0.0,
			"0.016": 0.0,
			"0.017": 0.0,
			"0.018": 0.0,
			"0.019": 0.0,
			"0.02": 0.0,
			"0.021": 0.0,
			"0.022": 0.0,
			"0.023": 0.0,
			"0.024": 0.0,
			"0.025": 0.0
		}
	}
}
