{
	 "smiles": "FC1=CC(Cl)=CN=C1", 
	 "Tm": 299.15, 
	 "num_atms": 11, 
	 "gaussian": { 
		 "optdone": 1, 
		 "sigma_profile": "yes", 
		 "theory": "DFT", 
		 "functional": "B3LYP", 
		 "basiset": "6-31G**", 
		 "properties": { 
			 "R2extent": 1210.6924, 
			 "electric_dipole_moment_norm": 0.872721736867, 
			 "electric_quadrupole_moment_norm": 1.46150930548, 
			 "total_energy": -807.104636693, 
			 "HOMO_LUMO_gap": 0.21698, 
			 "cosmo_polarized_energy": -4.57, 
			 "cosmo_cavitation_energy": 17.87, 
			 "cosmo_dispersion_energy": -13.42, 
			 "cosmo_repulsion_energy": 1.09, 
			 "cosmo_total_nonelectrostatic_energy": 5.54, 
			 "SMD_solvation_energy": 2.1 
		},
		"coords": [
			{
				"x": 2.5116901365,
				"y": 0.2716119726,
				"z": -2.0550129392,
				"element": "F" 
			},
			{
				"x": 1.4921959833,
				"y": 0.5585335147,
				"z": -1.228377728,
				"element": "C" 
			},
			{
				"x": 0.6254184047,
				"y": -0.4528153228,
				"z": -0.8351415019,
				"element": "C" 
			},
			{
				"x": -0.4094591296,
				"y": -0.0869391596,
				"z": 0.0223754094,
				"element": "C" 
			},
			{
				"x": -1.5559399995,
				"y": -1.2869590834,
				"z": 0.5764162361,
				"element": "Cl" 
			},
			{
				"x": -0.5318847055,
				"y": 1.2417736894,
				"z": 0.4408382217,
				"element": "C" 
			},
			{
				"x": 0.3173471848,
				"y": 2.1939188367,
				"z": 0.0459905157,
				"element": "N" 
			},
			{
				"x": 1.3170277972,
				"y": 1.8643688402,
				"z": -0.7764748675,
				"element": "C" 
			},
			{
				"x": 0.7575304664,
				"y": -1.4701079941,
				"z": -1.1839850892,
				"element": "H" 
			},
			{
				"x": -1.3366725907,
				"y": 1.5342324609,
				"z": 1.1096710401,
				"element": "H" 
			},
			{
				"x": 2.0018464524,
				"y": 2.6475822454,
				"z": -1.0910992971,
				"element": "H" 
			}
		],
		 "valence_orbital": [ 
			{
				"type": "occ",
				"energy": -0.36278,
				"method": "rhf"
			},
			{
				"type": "occ",
				"energy": -0.33299,
				"method": "rhf"
			},
			{
				"type": "occ",
				"energy": -0.29644,
				"method": "rhf"
			},
			{
				"type": "occ",
				"energy": -0.27699,
				"method": "rhf"
			},
			{
				"type": "occ",
				"energy": -0.26502,
				"method": "rhf"
			},
			{
				"type": "unocc",
				"energy": -0.04804,
				"method": "rhf"
			},
			{
				"type": "unocc",
				"energy": -0.02695,
				"method": "rhf"
			},
			{
				"type": "unocc",
				"energy": 0.01382,
				"method": "rhf"
			},
			{
				"type": "unocc",
				"energy": 0.10582,
				"method": "rhf"
			},
			{
				"type": "unocc",
				"energy": 0.12518,
				"method": "rhf"
			}
		],
		"cosmo_sigma_profile": { 
			"-0.025": 0.0,
			"-0.024": 0.0,
			"-0.023": 0.0,
			"-0.022": 0.0,
			"-0.021": 0.0,
			"-0.02": 0.0,
			"-0.019": 0.0,
			"-0.018": 0.0,
			"-0.017": 0.0,
			"-0.016": 0.0,
			"-0.015": 0.0,
			"-0.014": 0.0,
			"-0.013": 0.0,
			"-0.012": 0.0,
			"-0.011": 0.0,
			"-0.01": 0.941669772422,
			"-0.009": 1.87229153168,
			"-0.008": 4.37038143963,
			"-0.007": 4.8776798794,
			"-0.006": 4.6342841484,
			"-0.005": 4.76165138249,
			"-0.004": 5.02412243032,
			"-0.003": 7.33326908542,
			"-0.002": 16.2138616793,
			"-0.001": 19.8389696941,
			"0.0": 14.4282717602,
			"0.001": 9.68466781471,
			"0.002": 11.1794896622,
			"0.003": 18.9017802451,
			"0.004": 11.8997355484,
			"0.005": 1.12212720771,
			"0.006": 1.46166991885,
			"0.007": 1.60818808774,
			"0.008": 0.82865521147,
			"0.009": 1.18683721283,
			"0.01": 0.763514023488,
			"0.011": 0.796639125472,
			"0.012": 0.738645918502,
			"0.013": 1.30961248373,
			"0.014": 0.63367167105,
			"0.015": 0.569625255413,
			"0.016": 0.0013175128162,
			"0.017": 0.0,
			"0.018": 0.0,
			"0.019": 0.0,
			"0.02": 0.0,
			"0.021": 0.0,
			"0.022": 0.0,
			"0.023": 0.0,
			"0.024": 0.0,
			"0.025": 0.0
		}
	}
}
