{
	 "smiles": "OC(=O)C1=CC(Cl)=C(OC2=CC=C(Cl)C=C2)C=C1", 
	 "Tm": 441.15, 
	 "num_atms": 26, 
	 "gaussian": { 
		 "optdone": 1, 
		 "sigma_profile": "yes", 
		 "theory": "DFT", 
		 "functional": "B3LYP", 
		 "basiset": "6-31G**", 
		 "properties": { 
			 "R2extent": 8091.6261, 
			 "electric_dipole_moment_norm": 2.67762736205, 
			 "electric_quadrupole_moment_norm": 15.8834447016, 
			 "total_energy": -1646.26927311, 
			 "HOMO_LUMO_gap": 0.18639, 
			 "cosmo_polarized_energy": -12.19, 
			 "cosmo_cavitation_energy": 35.69, 
			 "cosmo_dispersion_energy": -25.76, 
			 "cosmo_repulsion_energy": 2.01, 
			 "cosmo_total_nonelectrostatic_energy": 11.93, 
			 "SMD_solvation_energy": 6.97 
		},
		"coords": [
			{
				"x": -4.4943908344,
				"y": -1.0383816933,
				"z": 1.2117008767,
				"element": "O" 
			},
			{
				"x": -3.8139318741,
				"y": -1.9354291963,
				"z": 0.4538938312,
				"element": "C" 
			},
			{
				"x": -4.2806259386,
				"y": -3.0176623687,
				"z": 0.1571888614,
				"element": "O" 
			},
			{
				"x": -2.4733958854,
				"y": -1.4481350643,
				"z": 0.0453999859,
				"element": "C" 
			},
			{
				"x": -1.6828240082,
				"y": -2.297535574,
				"z": -0.7405138822,
				"element": "C" 
			},
			{
				"x": -0.4198513947,
				"y": -1.8953532362,
				"z": -1.1484478943,
				"element": "C" 
			},
			{
				"x": 0.5621082585,
				"y": -2.9599608358,
				"z": -2.1273519704,
				"element": "Cl" 
			},
			{
				"x": 0.0791529959,
				"y": -0.6314541273,
				"z": -0.7779262965,
				"element": "C" 
			},
			{
				"x": 1.3146969674,
				"y": -0.2933528182,
				"z": -1.2486551153,
				"element": "O" 
			},
			{
				"x": 2.0196408259,
				"y": 0.7632550333,
				"z": -0.6904772501,
				"element": "C" 
			},
			{
				"x": 2.4583895525,
				"y": 0.7146297217,
				"z": 0.6342881463,
				"element": "C" 
			},
			{
				"x": 3.2383723497,
				"y": 1.754225172,
				"z": 1.1378154894,
				"element": "C" 
			},
			{
				"x": 3.5768934236,
				"y": 2.8234389456,
				"z": 0.3064404322,
				"element": "C" 
			},
			{
				"x": 4.5626402471,
				"y": 4.1307347302,
				"z": 0.940956178,
				"element": "Cl" 
			},
			{
				"x": 3.14828631,
				"y": 2.8677553194,
				"z": -1.0199572654,
				"element": "C" 
			},
			{
				"x": 2.3610864521,
				"y": 1.8300081679,
				"z": -1.5194898983,
				"element": "C" 
			},
			{
				"x": -0.7167034639,
				"y": 0.2172060784,
				"z": 0.0010432159,
				"element": "C" 
			},
			{
				"x": -1.982336007,
				"y": -0.1891053151,
				"z": 0.4110940941,
				"element": "C" 
			},
			{
				"x": -5.3457480263,
				"y": -1.458665287,
				"z": 1.4159585324,
				"element": "H" 
			},
			{
				"x": -2.0685046225,
				"y": -3.270565278,
				"z": -1.0215608201,
				"element": "H" 
			},
			{
				"x": 2.1975910438,
				"y": -0.1319652875,
				"z": 1.2605449122,
				"element": "H" 
			},
			{
				"x": 3.5890795024,
				"y": 1.7311223825,
				"z": 2.1634674671,
				"element": "H" 
			},
			{
				"x": 3.424271836,
				"y": 3.70300929,
				"z": -1.653625438,
				"element": "H" 
			},
			{
				"x": 2.0167109284,
				"y": 1.8351628065,
				"z": -2.5479891435,
				"element": "H" 
			},
			{
				"x": -0.3387316832,
				"y": 1.194698115,
				"z": 0.2767795804,
				"element": "H" 
			},
			{
				"x": -2.5941769548,
				"y": 0.4733203192,
				"z": 1.0120233709,
				"element": "H" 
			}
		],
		 "valence_orbital": [ 
			{
				"type": "occ",
				"energy": -0.28281,
				"method": "rhf"
			},
			{
				"type": "occ",
				"energy": -0.28158,
				"method": "rhf"
			},
			{
				"type": "occ",
				"energy": -0.26778,
				"method": "rhf"
			},
			{
				"type": "occ",
				"energy": -0.25789,
				"method": "rhf"
			},
			{
				"type": "occ",
				"energy": -0.24069,
				"method": "rhf"
			},
			{
				"type": "unocc",
				"energy": -0.0543,
				"method": "rhf"
			},
			{
				"type": "unocc",
				"energy": -0.03508,
				"method": "rhf"
			},
			{
				"type": "unocc",
				"energy": -0.02443,
				"method": "rhf"
			},
			{
				"type": "unocc",
				"energy": -0.02207,
				"method": "rhf"
			},
			{
				"type": "unocc",
				"energy": 0.01915,
				"method": "rhf"
			}
		],
		"cosmo_sigma_profile": { 
			"-0.025": 0.0,
			"-0.024": 0.0,
			"-0.023": 0.0,
			"-0.022": 0.0,
			"-0.021": 0.0,
			"-0.02": 0.0,
			"-0.019": 0.154921648151,
			"-0.018": 0.799615332633,
			"-0.017": 0.761532715334,
			"-0.016": 1.26626158675,
			"-0.015": 0.728182427161,
			"-0.014": 0.384610345593,
			"-0.013": 0.321340613515,
			"-0.012": 0.752241790621,
			"-0.011": 0.81468400464,
			"-0.01": 0.63147917582,
			"-0.009": 0.866069219287,
			"-0.008": 5.35913599804,
			"-0.007": 12.18856868,
			"-0.006": 13.8279004794,
			"-0.005": 11.4130526749,
			"-0.004": 11.0006290762,
			"-0.003": 14.5730258315,
			"-0.002": 18.7882030715,
			"-0.001": 22.8177337231,
			"0.0": 27.5018045702,
			"0.001": 35.8086620919,
			"0.002": 34.9888233537,
			"0.003": 19.0230970568,
			"0.004": 20.8597069804,
			"0.005": 12.0868562327,
			"0.006": 4.48968609381,
			"0.007": 5.17429152694,
			"0.008": 3.13646393838,
			"0.009": 2.21061097736,
			"0.01": 1.67272379356,
			"0.011": 3.87561496439,
			"0.012": 3.60446642655,
			"0.013": 0.045992987086,
			"0.014": 0.0,
			"0.015": 0.0,
			"0.016": 0.0,
			"0.017": 0.0,
			"0.018": 0.0,
			"0.019": 0.0,
			"0.02": 0.0,
			"0.021": 0.0,
			"0.022": 0.0,
			"0.023": 0.0,
			"0.024": 0.0,
			"0.025": 0.0
		}
	}
}
