{
	 "smiles": "COC(=O)C1=CC2=C(C=CC=C2)N1C", 
	 "Tm": 343.15, 
	 "num_atms": 25, 
	 "gaussian": { 
		 "optdone": 1, 
		 "sigma_profile": "yes", 
		 "theory": "DFT", 
		 "functional": "B3LYP", 
		 "basiset": "6-31G**", 
		 "properties": { 
			 "R2extent": 3434.6071, 
			 "electric_dipole_moment_norm": 3.15888049157, 
			 "electric_quadrupole_moment_norm": 9.79062166668, 
			 "total_energy": -631.010830596, 
			 "HOMO_LUMO_gap": 0.16315, 
			 "cosmo_polarized_energy": -9.54, 
			 "cosmo_cavitation_energy": 28.69, 
			 "cosmo_dispersion_energy": -21.01, 
			 "cosmo_repulsion_energy": 1.62, 
			 "cosmo_total_nonelectrostatic_energy": 9.3, 
			 "SMD_solvation_energy": 6.29 
		},
		"coords": [
			{
				"x": 0.3063978434,
				"y": 1.7332222024,
				"z": 3.886176888,
				"element": "C" 
			},
			{
				"x": 0.7427865158,
				"y": 1.295198587,
				"z": 2.589484952,
				"element": "O" 
			},
			{
				"x": -0.077725545,
				"y": 0.397320197,
				"z": 1.9843915729,
				"element": "C" 
			},
			{
				"x": -1.1038863389,
				"y": -0.0077084841,
				"z": 2.4968500458,
				"element": "O" 
			},
			{
				"x": 0.3909758623,
				"y": -0.0340200475,
				"z": 0.659896079,
				"element": "C" 
			},
			{
				"x": -0.2933013778,
				"y": -0.9393600631,
				"z": -0.1255551143,
				"element": "C" 
			},
			{
				"x": 0.4497378244,
				"y": -1.1136533663,
				"z": -1.3243729129,
				"element": "C" 
			},
			{
				"x": 1.5999164939,
				"y": -0.2765679844,
				"z": -1.2177888204,
				"element": "C" 
			},
			{
				"x": 2.5534737497,
				"y": -0.2131423217,
				"z": -2.2476582675,
				"element": "C" 
			},
			{
				"x": 2.3395028121,
				"y": -0.9932260579,
				"z": -3.3746778145,
				"element": "C" 
			},
			{
				"x": 1.2048257127,
				"y": -1.8279178227,
				"z": -3.4955302249,
				"element": "C" 
			},
			{
				"x": 0.2628472812,
				"y": -1.8935261539,
				"z": -2.483404301,
				"element": "C" 
			},
			{
				"x": 1.5524749057,
				"y": 0.3770812988,
				"z": -0.002028379,
				"element": "N" 
			},
			{
				"x": 2.5563110844,
				"y": 1.3206407823,
				"z": 0.469185366,
				"element": "C" 
			},
			{
				"x": -0.6694067445,
				"y": 2.2205697954,
				"z": 3.8199437791,
				"element": "H" 
			},
			{
				"x": 1.0645385585,
				"y": 2.4377274697,
				"z": 4.2286545012,
				"element": "H" 
			},
			{
				"x": 0.2295232958,
				"y": 0.8868838499,
				"z": 4.5730826259,
				"element": "H" 
			},
			{
				"x": -1.2239621234,
				"y": -1.4074086095,
				"z": 0.1589636671,
				"element": "H" 
			},
			{
				"x": 3.4323742106,
				"y": 0.4195460128,
				"z": -2.1788562521,
				"element": "H" 
			},
			{
				"x": 3.0627460478,
				"y": -0.9612296865,
				"z": -4.1844313064,
				"element": "H" 
			},
			{
				"x": 1.0763539999,
				"y": -2.4220754988,
				"z": -4.3952763577,
				"element": "H" 
			},
			{
				"x": -0.6096175273,
				"y": -2.534264245,
				"z": -2.5745328975,
				"element": "H" 
			},
			{
				"x": 2.1173544125,
				"y": 2.3048437464,
				"z": 0.6467281461,
				"element": "H" 
			},
			{
				"x": 3.0132311984,
				"y": 0.9757119006,
				"z": 1.3992601649,
				"element": "H" 
			},
			{
				"x": 3.3304278478,
				"y": 1.4112544991,
				"z": -0.2921051398,
				"element": "H" 
			}
		],
		 "valence_orbital": [ 
			{
				"type": "occ",
				"energy": -0.3015,
				"method": "rhf"
			},
			{
				"type": "occ",
				"energy": -0.27783,
				"method": "rhf"
			},
			{
				"type": "occ",
				"energy": -0.27434,
				"method": "rhf"
			},
			{
				"type": "occ",
				"energy": -0.2234,
				"method": "rhf"
			},
			{
				"type": "occ",
				"energy": -0.20672,
				"method": "rhf"
			},
			{
				"type": "unocc",
				"energy": -0.04357,
				"method": "rhf"
			},
			{
				"type": "unocc",
				"energy": 0.01846,
				"method": "rhf"
			},
			{
				"type": "unocc",
				"energy": 0.03327,
				"method": "rhf"
			},
			{
				"type": "unocc",
				"energy": 0.09024,
				"method": "rhf"
			},
			{
				"type": "unocc",
				"energy": 0.10413,
				"method": "rhf"
			}
		],
		"cosmo_sigma_profile": { 
			"-0.025": 0.0,
			"-0.024": 0.0,
			"-0.023": 0.0,
			"-0.022": 0.0,
			"-0.021": 0.0,
			"-0.02": 0.0,
			"-0.019": 0.0,
			"-0.018": 0.0,
			"-0.017": 0.0,
			"-0.016": 0.0,
			"-0.015": 0.0,
			"-0.014": 0.0,
			"-0.013": 0.0,
			"-0.012": 0.0,
			"-0.011": 0.0,
			"-0.01": 0.0,
			"-0.009": 0.335472842262,
			"-0.008": 1.6100625795,
			"-0.007": 3.1523139795,
			"-0.006": 10.3548615452,
			"-0.005": 19.58384028,
			"-0.004": 23.9374068498,
			"-0.003": 26.750304464,
			"-0.002": 21.216325929,
			"-0.001": 14.4482994591,
			"0.0": 11.7730949783,
			"0.001": 11.8035704847,
			"0.002": 13.4289444705,
			"0.003": 16.7659796026,
			"0.004": 15.6433611023,
			"0.005": 13.8440918695,
			"0.006": 9.11622151892,
			"0.007": 1.99038842086,
			"0.008": 1.40506634219,
			"0.009": 1.91117440609,
			"0.01": 1.68792000507,
			"0.011": 2.49874024471,
			"0.012": 4.95047812728,
			"0.013": 0.851377456478,
			"0.014": 0.0,
			"0.015": 0.0,
			"0.016": 0.0,
			"0.017": 0.0,
			"0.018": 0.0,
			"0.019": 0.0,
			"0.02": 0.0,
			"0.021": 0.0,
			"0.022": 0.0,
			"0.023": 0.0,
			"0.024": 0.0,
			"0.025": 0.0
		}
	}
}
