{
	 "smiles": "OC1=C(C=C(Cl)C=C1Cl)C(=O)NC1=CC=C(Cl)C(Cl)=C1", 
	 "Tm": 435.15, 
	 "num_atms": 27, 
	 "gaussian": { 
		 "optdone": 1, 
		 "sigma_profile": "yes", 
		 "theory": "DFT", 
		 "functional": "B3LYP", 
		 "basiset": "6-31G**", 
		 "properties": { 
			 "R2extent": 8762.3363, 
			 "electric_dipole_moment_norm": 2.70623323829, 
			 "electric_quadrupole_moment_norm": 23.1198567896, 
			 "total_energy": -2545.57388224, 
			 "HOMO_LUMO_gap": 0.1793, 
			 "cosmo_polarized_energy": -15.06, 
			 "cosmo_cavitation_energy": 39.67, 
			 "cosmo_dispersion_energy": -27.49, 
			 "cosmo_repulsion_energy": 2.16, 
			 "cosmo_total_nonelectrostatic_energy": 14.34, 
			 "SMD_solvation_energy": 6.5 
		},
		"coords": [
			{
				"x": 1.23019427,
				"y": 1.7726627902,
				"z": 0.2605998736,
				"element": "O" 
			},
			{
				"x": 0.1251004638,
				"y": 1.240564181,
				"z": -0.3074359525,
				"element": "C" 
			},
			{
				"x": 0.259426899,
				"y": 0.1312402025,
				"z": -1.1635520099,
				"element": "C" 
			},
			{
				"x": -0.8651068252,
				"y": -0.3841917347,
				"z": -1.8177830474,
				"element": "C" 
			},
			{
				"x": -2.1258566718,
				"y": 0.1515108404,
				"z": -1.5789279104,
				"element": "C" 
			},
			{
				"x": -3.5311553906,
				"y": -0.5255980232,
				"z": -2.3793814717,
				"element": "Cl" 
			},
			{
				"x": -2.2879121241,
				"y": 1.2330981757,
				"z": -0.71412352,
				"element": "C" 
			},
			{
				"x": -1.1614914144,
				"y": 1.7660586495,
				"z": -0.0984492649,
				"element": "C" 
			},
			{
				"x": -1.3276952337,
				"y": 3.1533770284,
				"z": 0.9718320509,
				"element": "Cl" 
			},
			{
				"x": 1.5890763924,
				"y": -0.4675389192,
				"z": -1.5403287944,
				"element": "C" 
			},
			{
				"x": 1.8545979059,
				"y": -0.689497708,
				"z": -2.7141566957,
				"element": "O" 
			},
			{
				"x": 2.5124304732,
				"y": -0.7634708911,
				"z": -0.5573477235,
				"element": "N" 
			},
			{
				"x": 2.3833648227,
				"y": -0.8890831501,
				"z": 0.8414184424,
				"element": "C" 
			},
			{
				"x": 3.4802972514,
				"y": -0.5624584339,
				"z": 1.6504466954,
				"element": "C" 
			},
			{
				"x": 3.406847462,
				"y": -0.7193985599,
				"z": 3.0288502787,
				"element": "C" 
			},
			{
				"x": 2.2357233935,
				"y": -1.1860592301,
				"z": 3.6312889565,
				"element": "C" 
			},
			{
				"x": 2.1810005701,
				"y": -1.3455640844,
				"z": 5.3686456721,
				"element": "Cl" 
			},
			{
				"x": 1.1399894063,
				"y": -1.5175978167,
				"z": 2.8240164314,
				"element": "C" 
			},
			{
				"x": -0.3427083528,
				"y": -2.1321582914,
				"z": 3.5123476606,
				"element": "Cl" 
			},
			{
				"x": 1.2201413735,
				"y": -1.3887896685,
				"z": 1.4368070912,
				"element": "C" 
			},
			{
				"x": 0.9682126518,
				"y": 2.5137118178,
				"z": 0.8292011419,
				"element": "H" 
			},
			{
				"x": -0.7340507214,
				"y": -1.2033263131,
				"z": -2.5147680644,
				"element": "H" 
			},
			{
				"x": -3.2661307906,
				"y": 1.659665782,
				"z": -0.529146746,
				"element": "H" 
			},
			{
				"x": 3.4061896181,
				"y": -1.0243886282,
				"z": -0.9566345025,
				"element": "H" 
			},
			{
				"x": 4.3865272859,
				"y": -0.1729988241,
				"z": 1.1971882262,
				"element": "H" 
			},
			{
				"x": 4.2552131024,
				"y": -0.4660445086,
				"z": 3.6547325443,
				"element": "H" 
			},
			{
				"x": 0.3753741824,
				"y": -1.6922246823,
				"z": 0.8321606384,
				"element": "H" 
			}
		],
		 "valence_orbital": [ 
			{
				"type": "occ",
				"energy": -0.28718,
				"method": "rhf"
			},
			{
				"type": "occ",
				"energy": -0.26946,
				"method": "rhf"
			},
			{
				"type": "occ",
				"energy": -0.26574,
				"method": "rhf"
			},
			{
				"type": "occ",
				"energy": -0.24437,
				"method": "rhf"
			},
			{
				"type": "occ",
				"energy": -0.23977,
				"method": "rhf"
			},
			{
				"type": "unocc",
				"energy": -0.06047,
				"method": "rhf"
			},
			{
				"type": "unocc",
				"energy": -0.03778,
				"method": "rhf"
			},
			{
				"type": "unocc",
				"energy": -0.02886,
				"method": "rhf"
			},
			{
				"type": "unocc",
				"energy": -0.02229,
				"method": "rhf"
			},
			{
				"type": "unocc",
				"energy": -0.00954,
				"method": "rhf"
			}
		],
		"cosmo_sigma_profile": { 
			"-0.025": 0.0,
			"-0.024": 0.0,
			"-0.023": 0.0,
			"-0.022": 0.0,
			"-0.021": 0.0,
			"-0.02": 0.0,
			"-0.019": 0.0,
			"-0.018": 0.0,
			"-0.017": 0.0,
			"-0.016": 0.431993582505,
			"-0.015": 1.53539283271,
			"-0.014": 1.97363058404,
			"-0.013": 2.18958781026,
			"-0.012": 1.30731835736,
			"-0.011": 2.18702941959,
			"-0.01": 2.1253427445,
			"-0.009": 3.63804273392,
			"-0.008": 7.78257511954,
			"-0.007": 10.9408970489,
			"-0.006": 10.6463008278,
			"-0.005": 10.3369594142,
			"-0.004": 10.2726930684,
			"-0.003": 15.7613045859,
			"-0.002": 19.1790213432,
			"-0.001": 26.0042244642,
			"0.0": 37.644637717,
			"0.001": 40.0706523142,
			"0.002": 28.2271398139,
			"0.003": 31.1853828639,
			"0.004": 31.9257135595,
			"0.005": 9.88862794542,
			"0.006": 4.46335050762,
			"0.007": 2.55180874161,
			"0.008": 2.38506869427,
			"0.009": 1.42404332106,
			"0.01": 1.9225481751,
			"0.011": 1.85816504339,
			"0.012": 5.11853591026,
			"0.013": 2.98051043005,
			"0.014": 0.134762541889,
			"0.015": 0.0,
			"0.016": 0.0,
			"0.017": 0.0,
			"0.018": 0.0,
			"0.019": 0.0,
			"0.02": 0.0,
			"0.021": 0.0,
			"0.022": 0.0,
			"0.023": 0.0,
			"0.024": 0.0,
			"0.025": 0.0
		}
	}
}
