{
	 "smiles": "NC(=O)CC1=NC2=C(S1)C=CC=C2", 
	 "Tm": 441.15, 
	 "num_atms": 21, 
	 "gaussian": { 
		 "optdone": 1, 
		 "sigma_profile": "yes", 
		 "theory": "DFT", 
		 "functional": "B3LYP", 
		 "basiset": "6-31G**", 
		 "properties": { 
			 "R2extent": 3647.3841, 
			 "electric_dipole_moment_norm": 4.05552571808, 
			 "electric_quadrupole_moment_norm": 19.8597512759, 
			 "total_energy": -930.723702184, 
			 "HOMO_LUMO_gap": 0.19276, 
			 "cosmo_polarized_energy": -12.11, 
			 "cosmo_cavitation_energy": 26.9, 
			 "cosmo_dispersion_energy": -20.56, 
			 "cosmo_repulsion_energy": 1.59, 
			 "cosmo_total_nonelectrostatic_energy": 7.93, 
			 "SMD_solvation_energy": 3.74 
		},
		"coords": [
			{
				"x": -2.7288087259,
				"y": -2.1455778665,
				"z": 2.1719346276,
				"element": "N" 
			},
			{
				"x": -1.8304222413,
				"y": -2.401556527,
				"z": 3.1565875319,
				"element": "C" 
			},
			{
				"x": -2.1280552312,
				"y": -2.7474917186,
				"z": 4.2896671249,
				"element": "O" 
			},
			{
				"x": -0.3443752434,
				"y": -2.3246724772,
				"z": 2.7364953664,
				"element": "C" 
			},
			{
				"x": 0.0462664194,
				"y": -1.2199202896,
				"z": 1.7956544243,
				"element": "C" 
			},
			{
				"x": -0.590806167,
				"y": -0.9151467699,
				"z": 0.7074564742,
				"element": "N" 
			},
			{
				"x": 0.0164211161,
				"y": 0.1321183026,
				"z": 0.0296529943,
				"element": "C" 
			},
			{
				"x": 1.1849293347,
				"y": 0.6447919972,
				"z": 0.6427330578,
				"element": "C" 
			},
			{
				"x": 1.4912432335,
				"y": -0.2426235714,
				"z": 2.122425788,
				"element": "S" 
			},
			{
				"x": 1.9033440223,
				"y": 1.6990633647,
				"z": 0.0731757445,
				"element": "C" 
			},
			{
				"x": 1.4377818575,
				"y": 2.2374707025,
				"z": -1.1235797182,
				"element": "C" 
			},
			{
				"x": 0.2789277262,
				"y": 1.7361495376,
				"z": -1.7420122375,
				"element": "C" 
			},
			{
				"x": -0.4360724281,
				"y": 0.6880256917,
				"z": -1.1756169526,
				"element": "C" 
			},
			{
				"x": -2.4188704657,
				"y": -1.7277061418,
				"z": 1.3015074818,
				"element": "H" 
			},
			{
				"x": -3.7054116998,
				"y": -2.1441565738,
				"z": 2.4248926145,
				"element": "H" 
			},
			{
				"x": -0.1009186237,
				"y": -3.2852629811,
				"z": 2.2620064305,
				"element": "H" 
			},
			{
				"x": 0.2299378939,
				"y": -2.2707915559,
				"z": 3.6623214515,
				"element": "H" 
			},
			{
				"x": 2.7980279814,
				"y": 2.0894930059,
				"z": 0.5471562807,
				"element": "H" 
			},
			{
				"x": 1.9799437538,
				"y": 3.0573581291,
				"z": -1.5848180765,
				"element": "H" 
			},
			{
				"x": -0.060405432,
				"y": 2.1749535062,
				"z": -2.6753031742,
				"element": "H" 
			},
			{
				"x": -1.3308770808,
				"y": 0.2905822353,
				"z": -1.6433372339,
				"element": "H" 
			}
		],
		 "valence_orbital": [ 
			{
				"type": "occ",
				"energy": -0.29386,
				"method": "rhf"
			},
			{
				"type": "occ",
				"energy": -0.26408,
				"method": "rhf"
			},
			{
				"type": "occ",
				"energy": -0.25676,
				"method": "rhf"
			},
			{
				"type": "occ",
				"energy": -0.24519,
				"method": "rhf"
			},
			{
				"type": "occ",
				"energy": -0.23809,
				"method": "rhf"
			},
			{
				"type": "unocc",
				"energy": -0.04533,
				"method": "rhf"
			},
			{
				"type": "unocc",
				"energy": -0.01532,
				"method": "rhf"
			},
			{
				"type": "unocc",
				"energy": -0.00203,
				"method": "rhf"
			},
			{
				"type": "unocc",
				"energy": 0.01865,
				"method": "rhf"
			},
			{
				"type": "unocc",
				"energy": 0.03355,
				"method": "rhf"
			}
		],
		"cosmo_sigma_profile": { 
			"-0.025": 0.0,
			"-0.024": 0.0,
			"-0.023": 0.0,
			"-0.022": 0.0,
			"-0.021": 0.0,
			"-0.02": 0.0,
			"-0.019": 0.0,
			"-0.018": 0.0,
			"-0.017": 0.0,
			"-0.016": 0.0,
			"-0.015": 0.0,
			"-0.014": 0.642981465095,
			"-0.013": 1.1965458619,
			"-0.012": 0.556944723025,
			"-0.011": 1.45341634026,
			"-0.01": 0.920421899372,
			"-0.009": 1.91499162125,
			"-0.008": 5.03106864818,
			"-0.007": 9.4169970707,
			"-0.006": 13.6405944182,
			"-0.005": 14.0437496094,
			"-0.004": 16.3134606895,
			"-0.003": 11.4055981729,
			"-0.002": 11.5451036035,
			"-0.001": 13.6041048389,
			"0.0": 14.2020265236,
			"0.001": 17.6634001738,
			"0.002": 19.8499326852,
			"0.003": 18.7965205706,
			"0.004": 15.3173940934,
			"0.005": 6.54407414265,
			"0.006": 2.80474802621,
			"0.007": 2.21079061895,
			"0.008": 2.00457619457,
			"0.009": 1.40205458565,
			"0.01": 1.18155079484,
			"0.011": 1.49230479958,
			"0.012": 2.04055385778,
			"0.013": 4.45834871888,
			"0.014": 5.29038233761,
			"0.015": 0.811421386454,
			"0.016": 0.0,
			"0.017": 0.0,
			"0.018": 0.0,
			"0.019": 0.0,
			"0.02": 0.0,
			"0.021": 0.0,
			"0.022": 0.0,
			"0.023": 0.0,
			"0.024": 0.0,
			"0.025": 0.0
		}
	}
}
