{
	 "smiles": "ClC1=CC=C(C=C1)C(=O)C1=NOC2C1C(=O)N(C2=O)C1=CC=C(Br)C=C1", 
	 "Tm": 457.15, 
	 "num_atms": 36, 
	 "gaussian": { 
		 "optdone": 1, 
		 "sigma_profile": "yes", 
		 "theory": "DFT", 
		 "functional": "B3LYP", 
		 "basiset": "6-31G**", 
		 "properties": { 
			 "R2extent": 19379.0249, 
			 "electric_dipole_moment_norm": 1.33946421378, 
			 "electric_quadrupole_moment_norm": 11.9477234112, 
			 "total_energy": -4133.88742819, 
			 "HOMO_LUMO_gap": 0.15016, 
			 "cosmo_polarized_energy": -18.45, 
			 "cosmo_cavitation_energy": 46.74, 
			 "cosmo_dispersion_energy": -33.72, 
			 "cosmo_repulsion_energy": 2.53, 
			 "cosmo_total_nonelectrostatic_energy": 15.55, 
			 "SMD_solvation_energy": 7.8 
		},
		"coords": [
			{
				"x": -7.0259263867,
				"y": -1.0672412769,
				"z": -2.0277433855,
				"element": "Cl" 
			},
			{
				"x": -5.4956239925,
				"y": -0.2997881437,
				"z": -1.6563013968,
				"element": "C" 
			},
			{
				"x": -5.4686542787,
				"y": 0.778601597,
				"z": -0.7673721828,
				"element": "C" 
			},
			{
				"x": -4.2510892867,
				"y": 1.379672599,
				"z": -0.4772608917,
				"element": "C" 
			},
			{
				"x": -3.0600511302,
				"y": 0.9216999789,
				"z": -1.0682984722,
				"element": "C" 
			},
			{
				"x": -3.1119483415,
				"y": -0.1660814661,
				"z": -1.9549653995,
				"element": "C" 
			},
			{
				"x": -4.3278801992,
				"y": -0.7774553599,
				"z": -2.2514934351,
				"element": "C" 
			},
			{
				"x": -1.8071243481,
				"y": 1.6221032513,
				"z": -0.6742969817,
				"element": "C" 
			},
			{
				"x": -1.7972694541,
				"y": 2.4904432666,
				"z": 0.1914380467,
				"element": "O" 
			},
			{
				"x": -0.4864469151,
				"y": 1.3285342665,
				"z": -1.3178366071,
				"element": "C" 
			},
			{
				"x": -0.3327793092,
				"y": 0.8418268227,
				"z": -2.4980049201,
				"element": "N" 
			},
			{
				"x": 0.9956742538,
				"y": 0.865030754,
				"z": -2.8703686429,
				"element": "O" 
			},
			{
				"x": 1.7962484666,
				"y": 1.4743449791,
				"z": -1.8065049169,
				"element": "C" 
			},
			{
				"x": 0.8185923092,
				"y": 1.7439989074,
				"z": -0.6716959551,
				"element": "C" 
			},
			{
				"x": 1.2368526415,
				"y": 0.7858167396,
				"z": 0.4578019684,
				"element": "C" 
			},
			{
				"x": 0.696022844,
				"y": 0.6594385294,
				"z": 1.5289899107,
				"element": "O" 
			},
			{
				"x": 2.3715989301,
				"y": 0.0718416603,
				"z": 0.0204708192,
				"element": "N" 
			},
			{
				"x": 2.7871242214,
				"y": 0.4357534304,
				"z": -1.2722384414,
				"element": "C" 
			},
			{
				"x": 3.7457512996,
				"y": -0.0002688091,
				"z": -1.863794944,
				"element": "O" 
			},
			{
				"x": 3.0366234166,
				"y": -0.918685604,
				"z": 0.8132443804,
				"element": "C" 
			},
			{
				"x": 3.2282756188,
				"y": -0.7057291561,
				"z": 2.1822977383,
				"element": "C" 
			},
			{
				"x": 3.8722710114,
				"y": -1.6730491272,
				"z": 2.9509463436,
				"element": "C" 
			},
			{
				"x": 4.3279349628,
				"y": -2.8417135994,
				"z": 2.343538745,
				"element": "C" 
			},
			{
				"x": 5.2152151919,
				"y": -4.163451879,
				"z": 3.3956129695,
				"element": "Br" 
			},
			{
				"x": 4.14512161,
				"y": -3.0592207047,
				"z": 0.9790615992,
				"element": "C" 
			},
			{
				"x": 3.4932401175,
				"y": -2.0961861856,
				"z": 0.2118966083,
				"element": "C" 
			},
			{
				"x": -6.3876445211,
				"y": 1.1329722128,
				"z": -0.3143005382,
				"element": "H" 
			},
			{
				"x": -4.1974390698,
				"y": 2.2145680347,
				"z": 0.2126819908,
				"element": "H" 
			},
			{
				"x": -2.2077137684,
				"y": -0.5323953812,
				"z": -2.4238851802,
				"element": "H" 
			},
			{
				"x": -4.3713002773,
				"y": -1.6170977961,
				"z": -2.9358177613,
				"element": "H" 
			},
			{
				"x": 2.3232866882,
				"y": 2.3300847564,
				"z": -2.2327724847,
				"element": "H" 
			},
			{
				"x": 0.768932765,
				"y": 2.7626092899,
				"z": -0.2815561018,
				"element": "H" 
			},
			{
				"x": 2.8652301932,
				"y": 0.1997806171,
				"z": 2.6508724795,
				"element": "H" 
			},
			{
				"x": 4.0194577177,
				"y": -1.5153759137,
				"z": 4.0129132237,
				"element": "H" 
			},
			{
				"x": 4.5042861987,
				"y": -3.9715239319,
				"z": 0.5175356907,
				"element": "H" 
			},
			{
				"x": 3.3552508205,
				"y": -2.2564573586,
				"z": -0.8496938749,
				"element": "H" 
			}
		],
		 "valence_orbital": [ 
			{
				"type": "occ",
				"energy": -0.27956,
				"method": "rhf"
			},
			{
				"type": "occ",
				"energy": -0.27564,
				"method": "rhf"
			},
			{
				"type": "occ",
				"energy": -0.27213,
				"method": "rhf"
			},
			{
				"type": "occ",
				"energy": -0.26339,
				"method": "rhf"
			},
			{
				"type": "occ",
				"energy": -0.24814,
				"method": "rhf"
			},
			{
				"type": "unocc",
				"energy": -0.09798,
				"method": "rhf"
			},
			{
				"type": "unocc",
				"energy": -0.05738,
				"method": "rhf"
			},
			{
				"type": "unocc",
				"energy": -0.04754,
				"method": "rhf"
			},
			{
				"type": "unocc",
				"energy": -0.03443,
				"method": "rhf"
			},
			{
				"type": "unocc",
				"energy": -0.02717,
				"method": "rhf"
			}
		],
		"cosmo_sigma_profile": { 
			"-0.025": 0.0,
			"-0.024": 0.0,
			"-0.023": 0.0,
			"-0.022": 0.0,
			"-0.021": 0.0,
			"-0.02": 0.0,
			"-0.019": 0.0,
			"-0.018": 0.0,
			"-0.017": 0.0,
			"-0.016": 0.0,
			"-0.015": 0.0,
			"-0.014": 0.0,
			"-0.013": 0.166234334487,
			"-0.012": 1.19404358904,
			"-0.011": 2.64402455894,
			"-0.01": 8.75077416218,
			"-0.009": 5.78513772889,
			"-0.008": 9.58320673185,
			"-0.007": 18.0519898639,
			"-0.006": 19.4509733478,
			"-0.005": 17.9414570472,
			"-0.004": 18.123439189,
			"-0.003": 17.6452553894,
			"-0.002": 19.1427454929,
			"-0.001": 22.7516485486,
			"0.0": 28.7979477541,
			"0.001": 37.7226407528,
			"0.002": 41.7298905597,
			"0.003": 25.5593772991,
			"0.004": 27.8083798321,
			"0.005": 9.38576739187,
			"0.006": 8.003554148,
			"0.007": 10.1299208829,
			"0.008": 8.37467493776,
			"0.009": 8.98054580562,
			"0.01": 12.0534155126,
			"0.011": 3.40860235429,
			"0.012": 0.0251531670386,
			"0.013": 0.0,
			"0.014": 0.0,
			"0.015": 0.0,
			"0.016": 0.0,
			"0.017": 0.0,
			"0.018": 0.0,
			"0.019": 0.0,
			"0.02": 0.0,
			"0.021": 0.0,
			"0.022": 0.0,
			"0.023": 0.0,
			"0.024": 0.0,
			"0.025": 0.0
		}
	}
}
