{
	 "smiles": "CC1=CC(C)=C(CC(=O)C2=CC3=C(O2)C=CC=C3)C(C)=C1", 
	 "Tm": 445.15, 
	 "num_atms": 39, 
	 "gaussian": { 
		 "optdone": 1, 
		 "sigma_profile": "yes", 
		 "theory": "DFT", 
		 "functional": "B3LYP", 
		 "basiset": "6-31G**", 
		 "properties": { 
			 "R2extent": 8965.056, 
			 "electric_dipole_moment_norm": 2.74690843495, 
			 "electric_quadrupole_moment_norm": 10.6898222918, 
			 "total_energy": -885.33259581, 
			 "HOMO_LUMO_gap": 0.15322, 
			 "cosmo_polarized_energy": -11.13, 
			 "cosmo_cavitation_energy": 42.45, 
			 "cosmo_dispersion_energy": -29.74, 
			 "cosmo_repulsion_energy": 2.27, 
			 "cosmo_total_nonelectrostatic_energy": 14.98, 
			 "SMD_solvation_energy": 7.7 
		},
		"coords": [
			{
				"x": -4.0903127524,
				"y": -1.342380825,
				"z": 4.7920233845,
				"element": "C" 
			},
			{
				"x": -3.2395907938,
				"y": -1.058737811,
				"z": 3.5761254995,
				"element": "C" 
			},
			{
				"x": -3.1678702377,
				"y": 0.2246412493,
				"z": 3.0295924364,
				"element": "C" 
			},
			{
				"x": -2.3631527153,
				"y": 0.5132337654,
				"z": 1.9222229374,
				"element": "C" 
			},
			{
				"x": -2.3249699362,
				"y": 1.9298166688,
				"z": 1.3903906637,
				"element": "C" 
			},
			{
				"x": -1.605689542,
				"y": -0.5177790835,
				"z": 1.3308374629,
				"element": "C" 
			},
			{
				"x": -0.7461140942,
				"y": -0.2277948451,
				"z": 0.1207486799,
				"element": "C" 
			},
			{
				"x": 0.7212936057,
				"y": 0.068563346,
				"z": 0.4383086495,
				"element": "C" 
			},
			{
				"x": 1.2433008161,
				"y": -0.183757123,
				"z": 1.5138792248,
				"element": "O" 
			},
			{
				"x": 1.5366997712,
				"y": 0.6620015891,
				"z": -0.6389299018,
				"element": "C" 
			},
			{
				"x": 2.8614493426,
				"y": 0.9943672793,
				"z": -0.6527431598,
				"element": "C" 
			},
			{
				"x": 3.1346375642,
				"y": 1.530936515,
				"z": -1.9544766562,
				"element": "C" 
			},
			{
				"x": 1.9067546228,
				"y": 1.4763171112,
				"z": -2.6478752998,
				"element": "C" 
			},
			{
				"x": 0.9326892115,
				"y": 0.9486096635,
				"z": -1.8508753917,
				"element": "O" 
			},
			{
				"x": 1.7439583907,
				"y": 1.9085487612,
				"z": -3.9603516179,
				"element": "C" 
			},
			{
				"x": 2.8785930022,
				"y": 2.4158940283,
				"z": -4.5885254231,
				"element": "C" 
			},
			{
				"x": 4.1211539582,
				"y": 2.4845384929,
				"z": -3.9240026072,
				"element": "C" 
			},
			{
				"x": 4.2646069483,
				"y": 2.0481450593,
				"z": -2.612997332,
				"element": "C" 
			},
			{
				"x": -1.6572946084,
				"y": -1.8173119911,
				"z": 1.874073491,
				"element": "C" 
			},
			{
				"x": -0.8402275189,
				"y": -2.9475588569,
				"z": 1.2897107791,
				"element": "C" 
			},
			{
				"x": -2.4752875523,
				"y": -2.0654035386,
				"z": 2.9807853044,
				"element": "C" 
			},
			{
				"x": -3.5153047678,
				"y": -1.2136925115,
				"z": 5.7178891334,
				"element": "H" 
			},
			{
				"x": -4.94902204,
				"y": -0.6662014442,
				"z": 4.8472115589,
				"element": "H" 
			},
			{
				"x": -4.4678426678,
				"y": -2.369670471,
				"z": 4.786233239,
				"element": "H" 
			},
			{
				"x": -3.7522720875,
				"y": 1.0261545188,
				"z": 3.4767740702,
				"element": "H" 
			},
			{
				"x": -2.7130042691,
				"y": 1.9980738994,
				"z": 0.3663375059,
				"element": "H" 
			},
			{
				"x": -1.3061155548,
				"y": 2.3337128132,
				"z": 1.3753330809,
				"element": "H" 
			},
			{
				"x": -2.9313971827,
				"y": 2.5927951117,
				"z": 2.0128991204,
				"element": "H" 
			},
			{
				"x": -0.7386190389,
				"y": -1.0813162713,
				"z": -0.5710437089,
				"element": "H" 
			},
			{
				"x": -1.1428824347,
				"y": 0.6029264146,
				"z": -0.4693106863,
				"element": "H" 
			},
			{
				"x": 3.5391569516,
				"y": 0.8623601474,
				"z": 0.1777385253,
				"element": "H" 
			},
			{
				"x": 0.7830078235,
				"y": 1.8502130136,
				"z": -4.4594019674,
				"element": "H" 
			},
			{
				"x": 2.8051090814,
				"y": 2.7668015325,
				"z": -5.6134011827,
				"element": "H" 
			},
			{
				"x": 4.9800357797,
				"y": 2.8874582145,
				"z": -4.4520331622,
				"element": "H" 
			},
			{
				"x": 5.2240482332,
				"y": 2.1039886202,
				"z": -2.1080013321,
				"element": "H" 
			},
			{
				"x": -1.1072283457,
				"y": -3.1537638008,
				"z": 0.2453023674,
				"element": "H" 
			},
			{
				"x": -0.9959835261,
				"y": -3.8712040442,
				"z": 1.8532237428,
				"element": "H" 
			},
			{
				"x": 0.2292903859,
				"y": -2.7147649695,
				"z": 1.3162792872,
				"element": "H" 
			},
			{
				"x": -2.5121038224,
				"y": -3.0728602287,
				"z": 3.3901492846,
				"element": "H" 
			}
		],
		 "valence_orbital": [ 
			{
				"type": "occ",
				"energy": -0.25576,
				"method": "rhf"
			},
			{
				"type": "occ",
				"energy": -0.24937,
				"method": "rhf"
			},
			{
				"type": "occ",
				"energy": -0.2327,
				"method": "rhf"
			},
			{
				"type": "occ",
				"energy": -0.22594,
				"method": "rhf"
			},
			{
				"type": "occ",
				"energy": -0.21969,
				"method": "rhf"
			},
			{
				"type": "unocc",
				"energy": -0.06647,
				"method": "rhf"
			},
			{
				"type": "unocc",
				"energy": -0.00272,
				"method": "rhf"
			},
			{
				"type": "unocc",
				"energy": 0.0069,
				"method": "rhf"
			},
			{
				"type": "unocc",
				"energy": 0.01117,
				"method": "rhf"
			},
			{
				"type": "unocc",
				"energy": 0.01553,
				"method": "rhf"
			}
		],
		"cosmo_sigma_profile": { 
			"-0.025": 0.0,
			"-0.024": 0.0,
			"-0.023": 0.0,
			"-0.022": 0.0,
			"-0.021": 0.0,
			"-0.02": 0.0,
			"-0.019": 0.0,
			"-0.018": 0.0,
			"-0.017": 0.0,
			"-0.016": 0.0,
			"-0.015": 0.0,
			"-0.014": 0.0,
			"-0.013": 0.0,
			"-0.012": 0.0,
			"-0.011": 0.0,
			"-0.01": 0.0,
			"-0.009": 0.16575898372,
			"-0.008": 1.42136107644,
			"-0.007": 5.02639750822,
			"-0.006": 13.7009296339,
			"-0.005": 19.610110365,
			"-0.004": 32.170556982,
			"-0.003": 32.3867433143,
			"-0.002": 27.6875230885,
			"-0.001": 28.8451437648,
			"0.0": 38.9422125493,
			"0.001": 31.8807491606,
			"0.002": 25.1996985745,
			"0.003": 19.2786892548,
			"0.004": 18.212388062,
			"0.005": 12.974645526,
			"0.006": 7.99768567328,
			"0.007": 6.03605800224,
			"0.008": 2.21792008753,
			"0.009": 3.10841582781,
			"0.01": 2.22561616335,
			"0.011": 3.18110905663,
			"0.012": 4.25933551004,
			"0.013": 0.997813051201,
			"0.014": 0.00270034695828,
			"0.015": 0.0,
			"0.016": 0.0,
			"0.017": 0.0,
			"0.018": 0.0,
			"0.019": 0.0,
			"0.02": 0.0,
			"0.021": 0.0,
			"0.022": 0.0,
			"0.023": 0.0,
			"0.024": 0.0,
			"0.025": 0.0
		}
	}
}
