{
	 "smiles": "CC(Cl)OC(Cl)=O", 
	 "Tm": 208.15, 
	 "num_atms": 11, 
	 "gaussian": { 
		 "optdone": 1, 
		 "sigma_profile": "yes", 
		 "theory": "DFT", 
		 "functional": "B3LYP", 
		 "basiset": "6-31G**", 
		 "properties": { 
			 "R2extent": 2343.3318, 
			 "electric_dipole_moment_norm": 2.94549906467, 
			 "electric_quadrupole_moment_norm": 8.59950711785, 
			 "total_energy": -1187.57100004, 
			 "HOMO_LUMO_gap": 0.28447, 
			 "cosmo_polarized_energy": -5.95, 
			 "cosmo_cavitation_energy": 19.25, 
			 "cosmo_dispersion_energy": -14.28, 
			 "cosmo_repulsion_energy": 1.25, 
			 "cosmo_total_nonelectrostatic_energy": 6.22, 
			 "SMD_solvation_energy": 4.35 
		},
		"coords": [
			{
				"x": -0.400602437,
				"y": 1.2131136327,
				"z": -0.4018712822,
				"element": "C" 
			},
			{
				"x": -0.0821314187,
				"y": 0.3816358419,
				"z": -1.6229357795,
				"element": "C" 
			},
			{
				"x": -1.585483271,
				"y": -0.3604653893,
				"z": -2.3204929235,
				"element": "Cl" 
			},
			{
				"x": 0.8068566105,
				"y": -0.6640810188,
				"z": -1.2121109715,
				"element": "O" 
			},
			{
				"x": 1.6282149236,
				"y": -1.1501132661,
				"z": -2.1585695814,
				"element": "C" 
			},
			{
				"x": 2.5951097741,
				"y": -2.4465912295,
				"z": -1.4407560043,
				"element": "Cl" 
			},
			{
				"x": 1.7329298031,
				"y": -0.792125519,
				"z": -3.2912605387,
				"element": "O" 
			},
			{
				"x": -1.0944743933,
				"y": 2.0128293583,
				"z": -0.6677819264,
				"element": "H" 
			},
			{
				"x": 0.5232178192,
				"y": 1.6549687765,
				"z": -0.0164555229,
				"element": "H" 
			},
			{
				"x": -0.8507903799,
				"y": 0.592760293,
				"z": 0.3759911155,
				"element": "H" 
			},
			{
				"x": 0.3722529694,
				"y": 0.9429685201,
				"z": -2.4380565852,
				"element": "H" 
			}
		],
		 "valence_orbital": [ 
			{
				"type": "occ",
				"energy": -0.34812,
				"method": "rhf"
			},
			{
				"type": "occ",
				"energy": -0.34057,
				"method": "rhf"
			},
			{
				"type": "occ",
				"energy": -0.32182,
				"method": "rhf"
			},
			{
				"type": "occ",
				"energy": -0.31779,
				"method": "rhf"
			},
			{
				"type": "occ",
				"energy": -0.31462,
				"method": "rhf"
			},
			{
				"type": "unocc",
				"energy": -0.03015,
				"method": "rhf"
			},
			{
				"type": "unocc",
				"energy": 0.00468,
				"method": "rhf"
			},
			{
				"type": "unocc",
				"energy": 0.01463,
				"method": "rhf"
			},
			{
				"type": "unocc",
				"energy": 0.09281,
				"method": "rhf"
			},
			{
				"type": "unocc",
				"energy": 0.11085,
				"method": "rhf"
			}
		],
		"cosmo_sigma_profile": { 
			"-0.025": 0.0,
			"-0.024": 0.0,
			"-0.023": 0.0,
			"-0.022": 0.0,
			"-0.021": 0.0,
			"-0.02": 0.0,
			"-0.019": 0.0,
			"-0.018": 0.0,
			"-0.017": 0.0,
			"-0.016": 0.0,
			"-0.015": 0.0,
			"-0.014": 0.0,
			"-0.013": 0.0,
			"-0.012": 0.0,
			"-0.011": 0.0,
			"-0.01": 0.755326347798,
			"-0.009": 2.77987813046,
			"-0.008": 2.57791810271,
			"-0.007": 4.30314262119,
			"-0.006": 8.89316704441,
			"-0.005": 8.5619951005,
			"-0.004": 8.96117041252,
			"-0.003": 10.385406255,
			"-0.002": 12.7279230193,
			"-0.001": 10.533108069,
			"0.0": 9.60904811631,
			"0.001": 10.7877166105,
			"0.002": 16.9394384278,
			"0.003": 15.6919712937,
			"0.004": 12.2546881117,
			"0.005": 10.3373006851,
			"0.006": 3.01596078895,
			"0.007": 2.5090899847,
			"0.008": 4.1132653395,
			"0.009": 2.10803477584,
			"0.01": 0.0414075661259,
			"0.011": 0.0,
			"0.012": 0.0,
			"0.013": 0.0,
			"0.014": 0.0,
			"0.015": 0.0,
			"0.016": 0.0,
			"0.017": 0.0,
			"0.018": 0.0,
			"0.019": 0.0,
			"0.02": 0.0,
			"0.021": 0.0,
			"0.022": 0.0,
			"0.023": 0.0,
			"0.024": 0.0,
			"0.025": 0.0
		}
	}
}
