{
	 "smiles": "CC1(CC2CC1C=C2)C(O)=O", 
	 "Tm": 353.15, 
	 "num_atms": 23, 
	 "gaussian": { 
		 "optdone": 1, 
		 "sigma_profile": "yes", 
		 "theory": "DFT", 
		 "functional": "B3LYP", 
		 "basiset": "6-31G**", 
		 "properties": { 
			 "R2extent": 1925.3978, 
			 "electric_dipole_moment_norm": 1.57210988484, 
			 "electric_quadrupole_moment_norm": 9.28374273179, 
			 "total_energy": -500.618811216, 
			 "HOMO_LUMO_gap": 0.24741, 
			 "cosmo_polarized_energy": -7.79, 
			 "cosmo_cavitation_energy": 24.02, 
			 "cosmo_dispersion_energy": -17.82, 
			 "cosmo_repulsion_energy": 1.43, 
			 "cosmo_total_nonelectrostatic_energy": 7.63, 
			 "SMD_solvation_energy": 4.72 
		},
		"coords": [
			{
				"x": -0.4204352152,
				"y": -0.2049623077,
				"z": -1.4641676418,
				"element": "C" 
			},
			{
				"x": 0.7431108509,
				"y": -0.6663270136,
				"z": -0.563481343,
				"element": "C" 
			},
			{
				"x": 0.2539726893,
				"y": -1.3268847575,
				"z": 0.7806127386,
				"element": "C" 
			},
			{
				"x": 0.9536914176,
				"y": -0.4590506096,
				"z": 1.8799809784,
				"element": "C" 
			},
			{
				"x": 2.3096566803,
				"y": -0.172643368,
				"z": 1.1919984069,
				"element": "C" 
			},
			{
				"x": 1.6535076686,
				"y": 0.5094108395,
				"z": -0.0330972525,
				"element": "C" 
			},
			{
				"x": 0.7401585179,
				"y": 1.501305965,
				"z": 0.6753626108,
				"element": "C" 
			},
			{
				"x": 0.3247879947,
				"y": 0.926883239,
				"z": 1.8127488467,
				"element": "C" 
			},
			{
				"x": 1.5944771133,
				"y": -1.6332580731,
				"z": -1.3827018409,
				"element": "C" 
			},
			{
				"x": 0.9335035741,
				"y": -2.788751858,
				"z": -1.6575861224,
				"element": "O" 
			},
			{
				"x": 2.7178167731,
				"y": -1.4335059232,
				"z": -1.7942849676,
				"element": "O" 
			},
			{
				"x": -1.0269716357,
				"y": -1.0578734082,
				"z": -1.780310898,
				"element": "H" 
			},
			{
				"x": -1.0613337398,
				"y": 0.4907613504,
				"z": -0.9172982897,
				"element": "H" 
			},
			{
				"x": -0.0496398596,
				"y": 0.3021661796,
				"z": -2.3621666477,
				"element": "H" 
			},
			{
				"x": -0.8360619595,
				"y": -1.3051282322,
				"z": 0.8649985249,
				"element": "H" 
			},
			{
				"x": 0.565875619,
				"y": -2.3726822194,
				"z": 0.8499854388,
				"element": "H" 
			},
			{
				"x": 0.9794710349,
				"y": -0.9293925424,
				"z": 2.8655966948,
				"element": "H" 
			},
			{
				"x": 2.9414327059,
				"y": 0.5108922342,
				"z": 1.7653087052,
				"element": "H" 
			},
			{
				"x": 2.8799846663,
				"y": -1.0716606289,
				"z": 0.9380668114,
				"element": "H" 
			},
			{
				"x": 2.3193832422,
				"y": 0.9087145827,
				"z": -0.7978500066,
				"element": "H" 
			},
			{
				"x": 0.4227079573,
				"y": 2.4549237693,
				"z": 0.2675762202,
				"element": "H" 
			},
			{
				"x": -0.4012249441,
				"y": 1.3144023114,
				"z": 2.5199718654,
				"element": "H" 
			},
			{
				"x": 1.5402288484,
				"y": -3.3171395293,
				"z": -2.203162832,
				"element": "H" 
			}
		],
		 "valence_orbital": [ 
			{
				"type": "occ",
				"energy": -0.32048,
				"method": "rhf"
			},
			{
				"type": "occ",
				"energy": -0.31405,
				"method": "rhf"
			},
			{
				"type": "occ",
				"energy": -0.31057,
				"method": "rhf"
			},
			{
				"type": "occ",
				"energy": -0.26701,
				"method": "rhf"
			},
			{
				"type": "occ",
				"energy": -0.23809,
				"method": "rhf"
			},
			{
				"type": "unocc",
				"energy": 0.00932,
				"method": "rhf"
			},
			{
				"type": "unocc",
				"energy": 0.01773,
				"method": "rhf"
			},
			{
				"type": "unocc",
				"energy": 0.07645,
				"method": "rhf"
			},
			{
				"type": "unocc",
				"energy": 0.10271,
				"method": "rhf"
			},
			{
				"type": "unocc",
				"energy": 0.12373,
				"method": "rhf"
			}
		],
		"cosmo_sigma_profile": { 
			"-0.025": 0.0,
			"-0.024": 0.0,
			"-0.023": 0.0,
			"-0.022": 0.0,
			"-0.021": 0.0,
			"-0.02": 0.0,
			"-0.019": 0.0,
			"-0.018": 0.413037647673,
			"-0.017": 1.03839737813,
			"-0.016": 0.639484867241,
			"-0.015": 1.2745137753,
			"-0.014": 0.429255671662,
			"-0.013": 0.271803012204,
			"-0.012": 0.497802106386,
			"-0.011": 1.00865782709,
			"-0.01": 1.23220694278,
			"-0.009": 0.408085592479,
			"-0.008": 0.247872406638,
			"-0.007": 0.866987287912,
			"-0.006": 1.84202346545,
			"-0.005": 4.81135889517,
			"-0.004": 8.23007741012,
			"-0.003": 19.533109144,
			"-0.002": 23.8040012252,
			"-0.001": 27.8047260572,
			"0.0": 26.8396694314,
			"0.001": 16.7456698654,
			"0.002": 9.4845990827,
			"0.003": 7.32547248019,
			"0.004": 5.34457881299,
			"0.005": 4.89876360941,
			"0.006": 3.13815888577,
			"0.007": 3.9716268624,
			"0.008": 2.57765043317,
			"0.009": 2.48205756998,
			"0.01": 2.04682592679,
			"0.011": 2.67862962738,
			"0.012": 4.8547939551,
			"0.013": 0.571742025705,
			"0.014": 0.0,
			"0.015": 0.0,
			"0.016": 0.0,
			"0.017": 0.0,
			"0.018": 0.0,
			"0.019": 0.0,
			"0.02": 0.0,
			"0.021": 0.0,
			"0.022": 0.0,
			"0.023": 0.0,
			"0.024": 0.0,
			"0.025": 0.0
		}
	}
}
