{
	 "smiles": "NC1=CC=C(CS(=O)(=O)NCC=C)C=C1", 
	 "Tm": 398.15, 
	 "num_atms": 29, 
	 "gaussian": { 
		 "optdone": 1, 
		 "sigma_profile": "yes", 
		 "theory": "DFT", 
		 "functional": "B3LYP", 
		 "basiset": "6-31G**", 
		 "properties": { 
			 "R2extent": 4141.7388, 
			 "electric_dipole_moment_norm": 5.4206075499, 
			 "electric_quadrupole_moment_norm": 5.70006939958, 
			 "total_energy": -1047.55725867, 
			 "HOMO_LUMO_gap": 0.20262, 
			 "cosmo_polarized_energy": -18.63, 
			 "cosmo_cavitation_energy": 34.18, 
			 "cosmo_dispersion_energy": -23.86, 
			 "cosmo_repulsion_energy": 1.85, 
			 "cosmo_total_nonelectrostatic_energy": 12.16, 
			 "SMD_solvation_energy": 4.99 
		},
		"coords": [
			{
				"x": -0.2946250346,
				"y": 4.7708927666,
				"z": 0.4404823535,
				"element": "N" 
			},
			{
				"x": -0.3335547584,
				"y": 3.4866834407,
				"z": -0.0953006969,
				"element": "C" 
			},
			{
				"x": -1.5542704263,
				"y": 2.8053787093,
				"z": -0.2476140795,
				"element": "C" 
			},
			{
				"x": -1.5917276457,
				"y": 1.5464787229,
				"z": -0.8379493183,
				"element": "C" 
			},
			{
				"x": -0.4245095315,
				"y": 0.9236657182,
				"z": -1.3007460732,
				"element": "C" 
			},
			{
				"x": -0.4747755328,
				"y": -0.4377005966,
				"z": -1.9286886104,
				"element": "C" 
			},
			{
				"x": -0.005364128,
				"y": -1.8056430142,
				"z": -0.8051109802,
				"element": "S" 
			},
			{
				"x": 1.3408746529,
				"y": -1.5195639121,
				"z": -0.2887363371,
				"element": "O" 
			},
			{
				"x": -0.3047584467,
				"y": -3.0667367432,
				"z": -1.4960424003,
				"element": "O" 
			},
			{
				"x": -1.1383965017,
				"y": -1.6776719893,
				"z": 0.4462263125,
				"element": "N" 
			},
			{
				"x": -0.7122597314,
				"y": -1.1201661978,
				"z": 1.7493688689,
				"element": "C" 
			},
			{
				"x": -0.023544298,
				"y": -2.119398477,
				"z": 2.6402988273,
				"element": "C" 
			},
			{
				"x": -0.4990283332,
				"y": -2.5106468963,
				"z": 3.8227302356,
				"element": "C" 
			},
			{
				"x": 0.7917826645,
				"y": 1.6051092819,
				"z": -1.1437431985,
				"element": "C" 
			},
			{
				"x": 0.841444146,
				"y": 2.8618818131,
				"z": -0.5527865087,
				"element": "C" 
			},
			{
				"x": -1.0707495039,
				"y": 5.021629382,
				"z": 1.0365482365,
				"element": "H" 
			},
			{
				"x": 0.5944445629,
				"y": 5.0588115109,
				"z": 0.8242405561,
				"element": "H" 
			},
			{
				"x": -2.4751741686,
				"y": 3.272263365,
				"z": 0.0929253483,
				"element": "H" 
			},
			{
				"x": -2.5460995555,
				"y": 1.0368151222,
				"z": -0.9401257334,
				"element": "H" 
			},
			{
				"x": -1.4725359793,
				"y": -0.7007708434,
				"z": -2.2862155047,
				"element": "H" 
			},
			{
				"x": 0.2325120873,
				"y": -0.5472479291,
				"z": -2.7566857266,
				"element": "H" 
			},
			{
				"x": -1.5995133666,
				"y": -2.5813181716,
				"z": 0.5238324593,
				"element": "H" 
			},
			{
				"x": -1.6088037414,
				"y": -0.7220105266,
				"z": 2.2375848827,
				"element": "H" 
			},
			{
				"x": -0.053611142,
				"y": -0.274319068,
				"z": 1.5357470833,
				"element": "H" 
			},
			{
				"x": 0.9102318178,
				"y": -2.5244404029,
				"z": 2.2545761746,
				"element": "H" 
			},
			{
				"x": -1.4304993302,
				"y": -2.1147410619,
				"z": 4.2226569381,
				"element": "H" 
			},
			{
				"x": 0.0257399898,
				"y": -3.2338956584,
				"z": 4.4398388544,
				"element": "H" 
			},
			{
				"x": 1.7133520448,
				"y": 1.136794812,
				"z": -1.4765687671,
				"element": "H" 
			},
			{
				"x": 1.7952191898,
				"y": 3.3728668436,
				"z": -0.4475431962,
				"element": "H" 
			}
		],
		 "valence_orbital": [ 
			{
				"type": "occ",
				"energy": -0.29209,
				"method": "rhf"
			},
			{
				"type": "occ",
				"energy": -0.27463,
				"method": "rhf"
			},
			{
				"type": "occ",
				"energy": -0.25929,
				"method": "rhf"
			},
			{
				"type": "occ",
				"energy": -0.25359,
				"method": "rhf"
			},
			{
				"type": "occ",
				"energy": -0.20824,
				"method": "rhf"
			},
			{
				"type": "unocc",
				"energy": -0.00562,
				"method": "rhf"
			},
			{
				"type": "unocc",
				"energy": -0.00255,
				"method": "rhf"
			},
			{
				"type": "unocc",
				"energy": 0.00891,
				"method": "rhf"
			},
			{
				"type": "unocc",
				"energy": 0.07137,
				"method": "rhf"
			},
			{
				"type": "unocc",
				"energy": 0.0722,
				"method": "rhf"
			}
		],
		"cosmo_sigma_profile": { 
			"-0.025": 0.0,
			"-0.024": 0.0,
			"-0.023": 0.0,
			"-0.022": 0.0,
			"-0.021": 0.0,
			"-0.02": 0.0,
			"-0.019": 0.0,
			"-0.018": 0.0,
			"-0.017": 0.0,
			"-0.016": 0.0,
			"-0.015": 0.0,
			"-0.014": 0.308017426208,
			"-0.013": 1.21535446376,
			"-0.012": 4.16631844463,
			"-0.011": 2.99014197924,
			"-0.01": 3.75351845764,
			"-0.009": 4.55785907296,
			"-0.008": 6.26131846227,
			"-0.007": 9.45683747164,
			"-0.006": 12.7719433226,
			"-0.005": 20.3597599824,
			"-0.004": 20.1370767961,
			"-0.003": 18.3083470186,
			"-0.002": 16.7418404577,
			"-0.001": 14.6996156857,
			"0.0": 14.6000385809,
			"0.001": 14.5191551661,
			"0.002": 13.2747018022,
			"0.003": 13.103307798,
			"0.004": 15.3868006571,
			"0.005": 14.6698828201,
			"0.006": 11.8661393085,
			"0.007": 4.37081797279,
			"0.008": 4.27079184756,
			"0.009": 3.64563733266,
			"0.01": 6.61741021482,
			"0.011": 9.08678147397,
			"0.012": 7.4333428573,
			"0.013": 0.809611747713,
			"0.014": 0.467334145381,
			"0.015": 0.00936431348627,
			"0.016": 0.0,
			"0.017": 0.0,
			"0.018": 0.0,
			"0.019": 0.0,
			"0.02": 0.0,
			"0.021": 0.0,
			"0.022": 0.0,
			"0.023": 0.0,
			"0.024": 0.0,
			"0.025": 0.0
		}
	}
}
