{
	 "smiles": "OC(=O)[C@@H]1CCCN1C(=O)NCC1=CC(Br)=CC=C1", 
	 "Tm": 420.15, 
	 "num_atms": 34, 
	 "gaussian": { 
		 "optdone": 1, 
		 "sigma_profile": "yes", 
		 "theory": "DFT", 
		 "functional": "B3LYP", 
		 "basiset": "6-31G**", 
		 "properties": { 
			 "R2extent": 8530.6124, 
			 "electric_dipole_moment_norm": 8.00175118458, 
			 "electric_quadrupole_moment_norm": 17.0119988902, 
			 "total_energy": -3411.05192275, 
			 "HOMO_LUMO_gap": 0.2146, 
			 "cosmo_polarized_energy": -20.09, 
			 "cosmo_cavitation_energy": 39.2, 
			 "cosmo_dispersion_energy": -27.8, 
			 "cosmo_repulsion_energy": 2.16, 
			 "cosmo_total_nonelectrostatic_energy": 13.56, 
			 "SMD_solvation_energy": 5.18 
		},
		"coords": [
			{
				"x": -0.4736679337,
				"y": 0.5823797711,
				"z": -3.1148508291,
				"element": "O" 
			},
			{
				"x": 0.7594515238,
				"y": 0.3073730765,
				"z": -3.5429449341,
				"element": "C" 
			},
			{
				"x": 0.973491421,
				"y": -0.2826672389,
				"z": -4.5794022779,
				"element": "O" 
			},
			{
				"x": 1.8966632749,
				"y": 0.8214374895,
				"z": -2.6236742093,
				"element": "C" 
			},
			{
				"x": 3.2878714987,
				"y": 0.4090154382,
				"z": -3.1178105318,
				"element": "C" 
			},
			{
				"x": 3.5465885203,
				"y": -0.923987141,
				"z": -2.3976341928,
				"element": "C" 
			},
			{
				"x": 2.9368613715,
				"y": -0.7002972765,
				"z": -1.0062132566,
				"element": "C" 
			},
			{
				"x": 1.8203599894,
				"y": 0.216762906,
				"z": -1.2722287653,
				"element": "N" 
			},
			{
				"x": 0.9436725967,
				"y": 0.7023904746,
				"z": -0.3458037325,
				"element": "C" 
			},
			{
				"x": 0.0242757809,
				"y": 1.4844227885,
				"z": -0.6710483741,
				"element": "O" 
			},
			{
				"x": 1.1250354463,
				"y": 0.3092011606,
				"z": 0.9532052639,
				"element": "N" 
			},
			{
				"x": 0.1361263714,
				"y": 0.6151826636,
				"z": 1.9855738463,
				"element": "C" 
			},
			{
				"x": -0.8131693616,
				"y": -0.5327498626,
				"z": 2.2809816471,
				"element": "C" 
			},
			{
				"x": -1.7391474162,
				"y": -0.938696763,
				"z": 1.3083036586,
				"element": "C" 
			},
			{
				"x": -2.59852852,
				"y": -1.9983277538,
				"z": 1.5808996205,
				"element": "C" 
			},
			{
				"x": -3.8602789935,
				"y": -2.5463308485,
				"z": 0.2536971255,
				"element": "Br" 
			},
			{
				"x": -2.5649239245,
				"y": -2.6688121499,
				"z": 2.8050258953,
				"element": "C" 
			},
			{
				"x": -1.64588712,
				"y": -2.2590373021,
				"z": 3.7694011287,
				"element": "C" 
			},
			{
				"x": -0.7742791476,
				"y": -1.1988486243,
				"z": 3.5095730734,
				"element": "C" 
			},
			{
				"x": -0.4305130318,
				"y": 1.0423627735,
				"z": -2.2335917219,
				"element": "H" 
			},
			{
				"x": 1.7835105524,
				"y": 1.9080869378,
				"z": -2.5336679074,
				"element": "H" 
			},
			{
				"x": 4.0259970782,
				"y": 1.1599774622,
				"z": -2.8165868431,
				"element": "H" 
			},
			{
				"x": 3.2992583993,
				"y": 0.3103114773,
				"z": -4.2034439518,
				"element": "H" 
			},
			{
				"x": 4.6045021348,
				"y": -1.1923790196,
				"z": -2.3450501412,
				"element": "H" 
			},
			{
				"x": 3.0127727325,
				"y": -1.7273032023,
				"z": -2.914058872,
				"element": "H" 
			},
			{
				"x": 2.5800068914,
				"y": -1.6336058851,
				"z": -0.5543638663,
				"element": "H" 
			},
			{
				"x": 3.6646650591,
				"y": -0.2396451622,
				"z": -0.3211259343,
				"element": "H" 
			},
			{
				"x": 1.7937081466,
				"y": -0.4187027098,
				"z": 1.1528356411,
				"element": "H" 
			},
			{
				"x": -0.4138581775,
				"y": 1.4875796083,
				"z": 1.6273512327,
				"element": "H" 
			},
			{
				"x": 0.6665639173,
				"y": 0.9033034491,
				"z": 2.8991464835,
				"element": "H" 
			},
			{
				"x": -1.7862276453,
				"y": -0.4248677542,
				"z": 0.3540576827,
				"element": "H" 
			},
			{
				"x": -3.2456758062,
				"y": -3.4903572426,
				"z": 2.9960352053,
				"element": "H" 
			},
			{
				"x": -1.6107533174,
				"y": -2.7706199562,
				"z": 4.7267849584,
				"element": "H" 
			},
			{
				"x": -0.0627723113,
				"y": -0.8849515842,
				"z": 4.2692278786,
				"element": "H" 
			}
		],
		 "valence_orbital": [ 
			{
				"type": "occ",
				"energy": -0.27826,
				"method": "rhf"
			},
			{
				"type": "occ",
				"energy": -0.27579,
				"method": "rhf"
			},
			{
				"type": "occ",
				"energy": -0.26207,
				"method": "rhf"
			},
			{
				"type": "occ",
				"energy": -0.24674,
				"method": "rhf"
			},
			{
				"type": "occ",
				"energy": -0.24004,
				"method": "rhf"
			},
			{
				"type": "unocc",
				"energy": -0.02544,
				"method": "rhf"
			},
			{
				"type": "unocc",
				"energy": -0.01932,
				"method": "rhf"
			},
			{
				"type": "unocc",
				"energy": 0.00666,
				"method": "rhf"
			},
			{
				"type": "unocc",
				"energy": 0.01791,
				"method": "rhf"
			},
			{
				"type": "unocc",
				"energy": 0.03171,
				"method": "rhf"
			}
		],
		"cosmo_sigma_profile": { 
			"-0.025": 0.0,
			"-0.024": 0.0,
			"-0.023": 0.0,
			"-0.022": 0.0,
			"-0.021": 0.0,
			"-0.02": 0.0,
			"-0.019": 0.0,
			"-0.018": 0.0,
			"-0.017": 0.0,
			"-0.016": 0.0,
			"-0.015": 0.0967968863333,
			"-0.014": 0.948113850927,
			"-0.013": 0.938704099864,
			"-0.012": 1.13761616954,
			"-0.011": 1.62448956408,
			"-0.01": 1.32921337615,
			"-0.009": 1.51407406263,
			"-0.008": 2.56671938206,
			"-0.007": 8.05253300219,
			"-0.006": 16.2769487875,
			"-0.005": 20.0437473574,
			"-0.004": 30.2632402284,
			"-0.003": 29.4420943555,
			"-0.002": 26.4304626255,
			"-0.001": 25.9504850586,
			"0.0": 17.2984200105,
			"0.001": 15.7292890954,
			"0.002": 19.4430066757,
			"0.003": 23.0160137287,
			"0.004": 23.2006162473,
			"0.005": 11.5445276395,
			"0.006": 3.02782290406,
			"0.007": 3.80926386898,
			"0.008": 4.35046470353,
			"0.009": 2.636839775,
			"0.01": 4.53861630754,
			"0.011": 6.88245485075,
			"0.012": 7.30437339688,
			"0.013": 3.83485524468,
			"0.014": 0.660210150887,
			"0.015": 0.0,
			"0.016": 0.0,
			"0.017": 0.0,
			"0.018": 0.0,
			"0.019": 0.0,
			"0.02": 0.0,
			"0.021": 0.0,
			"0.022": 0.0,
			"0.023": 0.0,
			"0.024": 0.0,
			"0.025": 0.0
		}
	}
}
