{
	 "smiles": "CC(=O)NC1=NC(=CS1)C(O)=O", 
	 "Tm": 573.15, 
	 "num_atms": 18, 
	 "gaussian": { 
		 "optdone": 1, 
		 "sigma_profile": "yes", 
		 "theory": "DFT", 
		 "functional": "B3LYP", 
		 "basiset": "6-31G**", 
		 "properties": { 
			 "R2extent": 4534.1337, 
			 "electric_dipole_moment_norm": 4.28829917217, 
			 "electric_quadrupole_moment_norm": 30.6236448445, 
			 "total_energy": -965.633164595, 
			 "HOMO_LUMO_gap": 0.18669, 
			 "cosmo_polarized_energy": -17.66, 
			 "cosmo_cavitation_energy": 24.94, 
			 "cosmo_dispersion_energy": -19.1, 
			 "cosmo_repulsion_energy": 1.48, 
			 "cosmo_total_nonelectrostatic_energy": 7.32, 
			 "SMD_solvation_energy": 5.7 
		},
		"coords": [
			{
				"x": -1.4416236445,
				"y": 1.3738414531,
				"z": 1.1209231533,
				"element": "C" 
			},
			{
				"x": -2.045382969,
				"y": 0.3734413715,
				"z": 0.1636590957,
				"element": "C" 
			},
			{
				"x": -3.0503800955,
				"y": -0.2658289115,
				"z": 0.4126855314,
				"element": "O" 
			},
			{
				"x": -1.4227272845,
				"y": 0.1662017772,
				"z": -1.0737519352,
				"element": "N" 
			},
			{
				"x": -0.3059516421,
				"y": 0.6830588123,
				"z": -1.6975007256,
				"element": "C" 
			},
			{
				"x": 0.0300127937,
				"y": 0.2777317718,
				"z": -2.8930460945,
				"element": "N" 
			},
			{
				"x": 1.1717343196,
				"y": 0.9163674702,
				"z": -3.3323871627,
				"element": "C" 
			},
			{
				"x": 1.725284432,
				"y": 1.8200149592,
				"z": -2.477776632,
				"element": "C" 
			},
			{
				"x": 0.7843494136,
				"y": 1.9021573894,
				"z": -1.0220071683,
				"element": "S" 
			},
			{
				"x": 1.7153404472,
				"y": 0.5849832587,
				"z": -4.68358047,
				"element": "C" 
			},
			{
				"x": 0.9953216894,
				"y": -0.3410423092,
				"z": -5.3476912807,
				"element": "O" 
			},
			{
				"x": 2.7084559097,
				"y": 1.0966836121,
				"z": -5.1450475317,
				"element": "O" 
			},
			{
				"x": -2.06501877,
				"y": 1.388827094,
				"z": 2.0143320545,
				"element": "H" 
			},
			{
				"x": -1.4137856432,
				"y": 2.3783784076,
				"z": 0.6862623195,
				"element": "H" 
			},
			{
				"x": -0.4204753565,
				"y": 1.0951464329,
				"z": 1.4008988894,
				"element": "H" 
			},
			{
				"x": -1.9076465341,
				"y": -0.5237077599,
				"z": -1.6388808063,
				"element": "H" 
			},
			{
				"x": 2.6095601402,
				"y": 2.4216943863,
				"z": -2.6257513094,
				"element": "H" 
			},
			{
				"x": 0.247932794,
				"y": -0.602649216,
				"z": -4.7788399274,
				"element": "H" 
			}
		],
		 "valence_orbital": [ 
			{
				"type": "occ",
				"energy": -0.31682,
				"method": "rhf"
			},
			{
				"type": "occ",
				"energy": -0.31293,
				"method": "rhf"
			},
			{
				"type": "occ",
				"energy": -0.28683,
				"method": "rhf"
			},
			{
				"type": "occ",
				"energy": -0.27675,
				"method": "rhf"
			},
			{
				"type": "occ",
				"energy": -0.25038,
				"method": "rhf"
			},
			{
				"type": "unocc",
				"energy": -0.06369,
				"method": "rhf"
			},
			{
				"type": "unocc",
				"energy": -0.03462,
				"method": "rhf"
			},
			{
				"type": "unocc",
				"energy": -0.01647,
				"method": "rhf"
			},
			{
				"type": "unocc",
				"energy": 0.01572,
				"method": "rhf"
			},
			{
				"type": "unocc",
				"energy": 0.04463,
				"method": "rhf"
			}
		],
		"cosmo_sigma_profile": { 
			"-0.025": 0.0,
			"-0.024": 0.0,
			"-0.023": 0.0,
			"-0.022": 0.0,
			"-0.021": 0.0,
			"-0.02": 0.0,
			"-0.019": 0.0,
			"-0.018": 0.0,
			"-0.017": 0.0,
			"-0.016": 0.0112276587542,
			"-0.015": 0.70844014206,
			"-0.014": 1.18829524973,
			"-0.013": 1.20255205538,
			"-0.012": 1.65157078976,
			"-0.011": 1.76095090319,
			"-0.01": 3.39460742389,
			"-0.009": 3.67224205962,
			"-0.008": 5.52704057512,
			"-0.007": 8.25297854173,
			"-0.006": 10.3011560991,
			"-0.005": 11.9638618041,
			"-0.004": 12.3813168001,
			"-0.003": 16.787063789,
			"-0.002": 17.049294634,
			"-0.001": 15.4487651255,
			"0.0": 15.2300930834,
			"0.001": 11.6820475937,
			"0.002": 5.07864649809,
			"0.003": 4.9602767541,
			"0.004": 4.70203234237,
			"0.005": 4.84591286217,
			"0.006": 3.0523167771,
			"0.007": 3.47910018169,
			"0.008": 4.43890771933,
			"0.009": 4.97708963609,
			"0.01": 6.83927351494,
			"0.011": 8.54676164033,
			"0.012": 9.53385741058,
			"0.013": 3.00890708751,
			"0.014": 0.0425984276037,
			"0.015": 0.0,
			"0.016": 0.0,
			"0.017": 0.0,
			"0.018": 0.0,
			"0.019": 0.0,
			"0.02": 0.0,
			"0.021": 0.0,
			"0.022": 0.0,
			"0.023": 0.0,
			"0.024": 0.0,
			"0.025": 0.0
		}
	}
}
