{
	 "smiles": "ClC1=CC=C(C=C1)C1=CSC(=N1)C(=N/NC1=CC=CC=C1)C#N", 
	 "Tm": 451.15, 
	 "num_atms": 34, 
	 "gaussian": { 
		 "optdone": 1, 
		 "sigma_profile": "yes", 
		 "theory": "DFT", 
		 "functional": "B3LYP", 
		 "basiset": "6-31G**", 
		 "properties": { 
			 "R2extent": 11858.222, 
			 "electric_dipole_moment_norm": 3.99287897763, 
			 "electric_quadrupole_moment_norm": 42.1651903566, 
			 "total_energy": -1731.77945742, 
			 "HOMO_LUMO_gap": 0.12702, 
			 "cosmo_polarized_energy": -14.05, 
			 "cosmo_cavitation_energy": 44.6, 
			 "cosmo_dispersion_energy": -31.36, 
			 "cosmo_repulsion_energy": 2.31, 
			 "cosmo_total_nonelectrostatic_energy": 15.55, 
			 "SMD_solvation_energy": 7.0 
		},
		"coords": [
			{
				"x": -4.0773296969,
				"y": -2.1636389693,
				"z": -4.8677548478,
				"element": "Cl" 
			},
			{
				"x": -3.6294481549,
				"y": -1.7146835401,
				"z": -3.2309680798,
				"element": "C" 
			},
			{
				"x": -2.3612964033,
				"y": -2.0400585457,
				"z": -2.7502882961,
				"element": "C" 
			},
			{
				"x": -2.0121542738,
				"y": -1.6793563138,
				"z": -1.4513046405,
				"element": "C" 
			},
			{
				"x": -2.9152134771,
				"y": -0.996387136,
				"z": -0.621155544,
				"element": "C" 
			},
			{
				"x": -4.1824542419,
				"y": -0.6758688722,
				"z": -1.1339314325,
				"element": "C" 
			},
			{
				"x": -4.5455830001,
				"y": -1.032729468,
				"z": -2.4297326294,
				"element": "C" 
			},
			{
				"x": -2.5344815713,
				"y": -0.6364737025,
				"z": 0.7573298745,
				"element": "C" 
			},
			{
				"x": -3.3958615068,
				"y": -0.4241874097,
				"z": 1.8074133309,
				"element": "C" 
			},
			{
				"x": -2.538194463,
				"y": -0.040990092,
				"z": 3.2562796757,
				"element": "S" 
			},
			{
				"x": -1.0316450409,
				"y": -0.1932428771,
				"z": 2.3571643692,
				"element": "C" 
			},
			{
				"x": -1.2012456416,
				"y": -0.5044589922,
				"z": 1.0890196683,
				"element": "N" 
			},
			{
				"x": 0.2683173132,
				"y": 0.030116399,
				"z": 2.9738294625,
				"element": "C" 
			},
			{
				"x": 1.4359642013,
				"y": 0.0025958947,
				"z": 2.3629213828,
				"element": "N" 
			},
			{
				"x": 1.5014123714,
				"y": -0.2438409561,
				"z": 1.0771496889,
				"element": "N" 
			},
			{
				"x": 2.734113533,
				"y": -0.2652551593,
				"z": 0.4035709233,
				"element": "C" 
			},
			{
				"x": 2.7197483496,
				"y": -0.4925424353,
				"z": -0.979482383,
				"element": "C" 
			},
			{
				"x": 3.9195895472,
				"y": -0.5263706897,
				"z": -1.6866687216,
				"element": "C" 
			},
			{
				"x": 5.1340912874,
				"y": -0.3344246545,
				"z": -1.0253971201,
				"element": "C" 
			},
			{
				"x": 5.1379785346,
				"y": -0.1070640924,
				"z": 0.3540869743,
				"element": "C" 
			},
			{
				"x": 3.9481622683,
				"y": -0.070808003,
				"z": 1.0761698435,
				"element": "C" 
			},
			{
				"x": 0.3079103672,
				"y": 0.3175958264,
				"z": 4.3773007731,
				"element": "C" 
			},
			{
				"x": 0.2853011265,
				"y": 0.5482014922,
				"z": 5.5180934473,
				"element": "N" 
			},
			{
				"x": -1.661036621,
				"y": -2.5738506732,
				"z": -3.3831942547,
				"element": "H" 
			},
			{
				"x": -1.0337853623,
				"y": -1.9449742965,
				"z": -1.0658952322,
				"element": "H" 
			},
			{
				"x": -4.8885925336,
				"y": -0.1199589442,
				"z": -0.5248024137,
				"element": "H" 
			},
			{
				"x": -5.523913955,
				"y": -0.7757954127,
				"z": -2.8202001174,
				"element": "H" 
			},
			{
				"x": -4.4726525266,
				"y": -0.5072782693,
				"z": 1.8132790908,
				"element": "H" 
			},
			{
				"x": 0.6249881585,
				"y": -0.409128091,
				"z": 0.5673807684,
				"element": "H" 
			},
			{
				"x": 1.7734560754,
				"y": -0.6358951187,
				"z": -1.4948783332,
				"element": "H" 
			},
			{
				"x": 3.9022278916,
				"y": -0.7017721393,
				"z": -2.7581832027,
				"element": "H" 
			},
			{
				"x": 6.0678606432,
				"y": -0.3607531954,
				"z": -1.5781838423,
				"element": "H" 
			},
			{
				"x": 6.0783797284,
				"y": 0.0435042751,
				"z": 0.8761380968,
				"element": "H" 
			},
			{
				"x": 3.9418870734,
				"y": 0.1039741619,
				"z": 2.1451937203,
				"element": "H" 
			}
		],
		 "valence_orbital": [ 
			{
				"type": "occ",
				"energy": -0.28002,
				"method": "rhf"
			},
			{
				"type": "occ",
				"energy": -0.27721,
				"method": "rhf"
			},
			{
				"type": "occ",
				"energy": -0.26415,
				"method": "rhf"
			},
			{
				"type": "occ",
				"energy": -0.24413,
				"method": "rhf"
			},
			{
				"type": "occ",
				"energy": -0.21421,
				"method": "rhf"
			},
			{
				"type": "unocc",
				"energy": -0.08719,
				"method": "rhf"
			},
			{
				"type": "unocc",
				"energy": -0.05177,
				"method": "rhf"
			},
			{
				"type": "unocc",
				"energy": -0.02807,
				"method": "rhf"
			},
			{
				"type": "unocc",
				"energy": -0.01448,
				"method": "rhf"
			},
			{
				"type": "unocc",
				"energy": -0.01143,
				"method": "rhf"
			}
		],
		"cosmo_sigma_profile": { 
			"-0.025": 0.0,
			"-0.024": 0.0,
			"-0.023": 0.0,
			"-0.022": 0.0,
			"-0.021": 0.0,
			"-0.02": 0.0,
			"-0.019": 0.0,
			"-0.018": 0.0,
			"-0.017": 0.0,
			"-0.016": 0.0,
			"-0.015": 0.0,
			"-0.014": 0.0,
			"-0.013": 0.0,
			"-0.012": 0.0,
			"-0.011": 0.125987828904,
			"-0.01": 2.71173739131,
			"-0.009": 3.68859896785,
			"-0.008": 4.99764556521,
			"-0.007": 10.158082196,
			"-0.006": 18.5723295399,
			"-0.005": 20.0888012654,
			"-0.004": 21.5717759381,
			"-0.003": 20.85526996,
			"-0.002": 24.6744300669,
			"-0.001": 27.580848356,
			"0.0": 34.3732380351,
			"0.001": 39.7806807225,
			"0.002": 36.1068047857,
			"0.003": 34.8216300993,
			"0.004": 25.5883676702,
			"0.005": 19.2736813842,
			"0.006": 3.95448471935,
			"0.007": 1.83844358129,
			"0.008": 3.55952383776,
			"0.009": 2.67639395538,
			"0.01": 3.35234918881,
			"0.011": 2.4142144997,
			"0.012": 2.48753854833,
			"0.013": 0.762551356748,
			"0.014": 0.0,
			"0.015": 0.0,
			"0.016": 0.0,
			"0.017": 0.0,
			"0.018": 0.0,
			"0.019": 0.0,
			"0.02": 0.0,
			"0.021": 0.0,
			"0.022": 0.0,
			"0.023": 0.0,
			"0.024": 0.0,
			"0.025": 0.0
		}
	}
}
