{
	 "smiles": "O=CC1=CC=CC=C1OC1=NC=CC=C1", 
	 "Tm": 324.65, 
	 "num_atms": 24, 
	 "gaussian": { 
		 "optdone": 1, 
		 "sigma_profile": "yes", 
		 "theory": "DFT", 
		 "functional": "B3LYP", 
		 "basiset": "6-31G**", 
		 "properties": { 
			 "R2extent": 4201.4825, 
			 "electric_dipole_moment_norm": 5.15814677767, 
			 "electric_quadrupole_moment_norm": 23.7876380963, 
			 "total_energy": -667.877290708, 
			 "HOMO_LUMO_gap": 0.1745, 
			 "cosmo_polarized_energy": -12.4, 
			 "cosmo_cavitation_energy": 29.29, 
			 "cosmo_dispersion_energy": -20.96, 
			 "cosmo_repulsion_energy": 1.63, 
			 "cosmo_total_nonelectrostatic_energy": 9.96, 
			 "SMD_solvation_energy": 4.81 
		},
		"coords": [
			{
				"x": 4.8940360984,
				"y": -0.6356780802,
				"z": 1.3142374609,
				"element": "O" 
			},
			{
				"x": 3.9004785746,
				"y": -0.3069528904,
				"z": 0.6897805687,
				"element": "C" 
			},
			{
				"x": 2.5243012072,
				"y": -0.4253033443,
				"z": 1.2316388438,
				"element": "C" 
			},
			{
				"x": 2.3351717821,
				"y": -0.9358049452,
				"z": 2.5263594912,
				"element": "C" 
			},
			{
				"x": 1.0606748281,
				"y": -1.0711925235,
				"z": 3.0610051717,
				"element": "C" 
			},
			{
				"x": -0.0500572042,
				"y": -0.6845872283,
				"z": 2.3003578181,
				"element": "C" 
			},
			{
				"x": 0.1111663671,
				"y": -0.1678873432,
				"z": 1.0165644128,
				"element": "C" 
			},
			{
				"x": 1.3975450183,
				"y": -0.0433720655,
				"z": 0.4823395109,
				"element": "C" 
			},
			{
				"x": 1.6108788734,
				"y": 0.5383214834,
				"z": -0.7493143412,
				"element": "O" 
			},
			{
				"x": 0.8849195572,
				"y": 0.1530507153,
				"z": -1.855991708,
				"element": "C" 
			},
			{
				"x": 0.7614499865,
				"y": 1.1112942398,
				"z": -2.7631669394,
				"element": "N" 
			},
			{
				"x": 0.1242685216,
				"y": 0.8037971431,
				"z": -3.9007046439,
				"element": "C" 
			},
			{
				"x": -0.4130602426,
				"y": -0.4529510797,
				"z": -4.1706574248,
				"element": "C" 
			},
			{
				"x": -0.2645980525,
				"y": -1.4477032675,
				"z": -3.201347809,
				"element": "C" 
			},
			{
				"x": 0.4004636843,
				"y": -1.1529015348,
				"z": -2.0155416759,
				"element": "C" 
			},
			{
				"x": 3.9775291825,
				"y": 0.1020953752,
				"z": -0.3343360614,
				"element": "H" 
			},
			{
				"x": 3.2215843007,
				"y": -1.220431709,
				"z": 3.0845074227,
				"element": "H" 
			},
			{
				"x": 0.9246401628,
				"y": -1.4679377724,
				"z": 4.0621100897,
				"element": "H" 
			},
			{
				"x": -1.0502935516,
				"y": -0.7750978266,
				"z": 2.7141566052,
				"element": "H" 
			},
			{
				"x": -0.7459370959,
				"y": 0.1508105922,
				"z": 0.4331090507,
				"element": "H" 
			},
			{
				"x": 0.0409465906,
				"y": 1.6093962772,
				"z": -4.6276159985,
				"element": "H" 
			},
			{
				"x": -0.9242467081,
				"y": -0.6460860499,
				"z": -5.1075349041,
				"element": "H" 
			},
			{
				"x": -0.6536873763,
				"y": -2.4478635527,
				"z": -3.3686557025,
				"element": "H" 
			},
			{
				"x": 0.5468254957,
				"y": -1.9016146133,
				"z": -1.2461992377,
				"element": "H" 
			}
		],
		 "valence_orbital": [ 
			{
				"type": "occ",
				"energy": -0.27542,
				"method": "rhf"
			},
			{
				"type": "occ",
				"energy": -0.27112,
				"method": "rhf"
			},
			{
				"type": "occ",
				"energy": -0.26656,
				"method": "rhf"
			},
			{
				"type": "occ",
				"energy": -0.25178,
				"method": "rhf"
			},
			{
				"type": "occ",
				"energy": -0.23935,
				"method": "rhf"
			},
			{
				"type": "unocc",
				"energy": -0.06485,
				"method": "rhf"
			},
			{
				"type": "unocc",
				"energy": -0.03311,
				"method": "rhf"
			},
			{
				"type": "unocc",
				"energy": -0.02263,
				"method": "rhf"
			},
			{
				"type": "unocc",
				"energy": -0.00619,
				"method": "rhf"
			},
			{
				"type": "unocc",
				"energy": 0.03635,
				"method": "rhf"
			}
		],
		"cosmo_sigma_profile": { 
			"-0.025": 0.0,
			"-0.024": 0.0,
			"-0.023": 0.0,
			"-0.022": 0.0,
			"-0.021": 0.0,
			"-0.02": 0.0,
			"-0.019": 0.0,
			"-0.018": 0.0,
			"-0.017": 0.0,
			"-0.016": 0.0,
			"-0.015": 0.0,
			"-0.014": 0.0,
			"-0.013": 0.0,
			"-0.012": 0.0,
			"-0.011": 0.0,
			"-0.01": 0.0,
			"-0.009": 0.0,
			"-0.008": 1.80008978557,
			"-0.007": 11.0230238712,
			"-0.006": 19.0660567241,
			"-0.005": 20.912854765,
			"-0.004": 18.1218754372,
			"-0.003": 16.2766695748,
			"-0.002": 13.7904724578,
			"-0.001": 15.3647514245,
			"0.0": 17.1961704659,
			"0.001": 21.5893101621,
			"0.002": 23.9619645721,
			"0.003": 17.1049557472,
			"0.004": 4.87141142053,
			"0.005": 3.41267515287,
			"0.006": 3.31003987756,
			"0.007": 2.97456347314,
			"0.008": 3.80855510001,
			"0.009": 3.42442871641,
			"0.01": 3.98888654155,
			"0.011": 5.07448438226,
			"0.012": 4.43359153738,
			"0.013": 2.2465502467,
			"0.014": 0.985298655569,
			"0.015": 1.07315730109,
			"0.016": 0.456383327515,
			"0.017": 0.0,
			"0.018": 0.0,
			"0.019": 0.0,
			"0.02": 0.0,
			"0.021": 0.0,
			"0.022": 0.0,
			"0.023": 0.0,
			"0.024": 0.0,
			"0.025": 0.0
		}
	}
}
