{
	 "smiles": "ClCC1=NOC(=N1)C1=CC=CC=C1", 
	 "Tm": 337.15, 
	 "num_atms": 20, 
	 "gaussian": { 
		 "optdone": 1, 
		 "sigma_profile": "yes", 
		 "theory": "DFT", 
		 "functional": "B3LYP", 
		 "basiset": "6-31G**", 
		 "properties": { 
			 "R2extent": 4747.2125, 
			 "electric_dipole_moment_norm": 3.39526325047, 
			 "electric_quadrupole_moment_norm": 11.1695808928, 
			 "total_energy": -992.062816205, 
			 "HOMO_LUMO_gap": 0.19007, 
			 "cosmo_polarized_energy": -8.96, 
			 "cosmo_cavitation_energy": 27.12, 
			 "cosmo_dispersion_energy": -20.18, 
			 "cosmo_repulsion_energy": 1.6, 
			 "cosmo_total_nonelectrostatic_energy": 8.54, 
			 "SMD_solvation_energy": 2.38 
		},
		"coords": [
			{
				"x": 0.3072187571,
				"y": 1.4902639206,
				"z": -5.6252838447,
				"element": "Cl" 
			},
			{
				"x": 0.1347954538,
				"y": -0.1798225566,
				"z": -4.9301947575,
				"element": "C" 
			},
			{
				"x": -0.4540168732,
				"y": -0.15027514,
				"z": -3.562330377,
				"element": "C" 
			},
			{
				"x": -1.6799974444,
				"y": -0.5644686653,
				"z": -3.3458080077,
				"element": "N" 
			},
			{
				"x": -1.8328175127,
				"y": -0.3871354111,
				"z": -1.9649043617,
				"element": "O" 
			},
			{
				"x": -0.6686438239,
				"y": 0.1198183675,
				"z": -1.5039515854,
				"element": "C" 
			},
			{
				"x": 0.2196873343,
				"y": 0.2828182695,
				"z": -2.44935568,
				"element": "N" 
			},
			{
				"x": -0.5366042684,
				"y": 0.4091884513,
				"z": -0.0794540415,
				"element": "C" 
			},
			{
				"x": 0.6689966998,
				"y": 0.9501589949,
				"z": 0.395565406,
				"element": "C" 
			},
			{
				"x": 0.8139116614,
				"y": 1.2328306495,
				"z": 1.7505605002,
				"element": "C" 
			},
			{
				"x": -0.2370291216,
				"y": 0.979856581,
				"z": 2.6368823542,
				"element": "C" 
			},
			{
				"x": -1.4372914358,
				"y": 0.4422566004,
				"z": 2.1652203135,
				"element": "C" 
			},
			{
				"x": -1.5918580441,
				"y": 0.1558090691,
				"z": 0.8110808825,
				"element": "C" 
			},
			{
				"x": -0.5064215915,
				"y": -0.7456842776,
				"z": -5.6041632008,
				"element": "H" 
			},
			{
				"x": 1.1367103085,
				"y": -0.6080788371,
				"z": -4.9066589663,
				"element": "H" 
			},
			{
				"x": 1.4731988325,
				"y": 1.1417787961,
				"z": -0.3065738514,
				"element": "H" 
			},
			{
				"x": 1.7463300259,
				"y": 1.6516379305,
				"z": 2.1166091496,
				"element": "H" 
			},
			{
				"x": -0.120859239,
				"y": 1.2019932232,
				"z": 3.6936246515,
				"element": "H" 
			},
			{
				"x": -2.2540256917,
				"y": 0.2461043332,
				"z": 2.8531100529,
				"element": "H" 
			},
			{
				"x": -2.5215840269,
				"y": -0.2614502991,
				"z": 0.4394253635,
				"element": "H" 
			}
		],
		 "valence_orbital": [ 
			{
				"type": "occ",
				"energy": -0.30669,
				"method": "rhf"
			},
			{
				"type": "occ",
				"energy": -0.30299,
				"method": "rhf"
			},
			{
				"type": "occ",
				"energy": -0.30061,
				"method": "rhf"
			},
			{
				"type": "occ",
				"energy": -0.27047,
				"method": "rhf"
			},
			{
				"type": "occ",
				"energy": -0.25621,
				"method": "rhf"
			},
			{
				"type": "unocc",
				"energy": -0.06614,
				"method": "rhf"
			},
			{
				"type": "unocc",
				"energy": -0.0243,
				"method": "rhf"
			},
			{
				"type": "unocc",
				"energy": -0.01741,
				"method": "rhf"
			},
			{
				"type": "unocc",
				"energy": 0.03535,
				"method": "rhf"
			},
			{
				"type": "unocc",
				"energy": 0.06017,
				"method": "rhf"
			}
		],
		"cosmo_sigma_profile": { 
			"-0.025": 0.0,
			"-0.024": 0.0,
			"-0.023": 0.0,
			"-0.022": 0.0,
			"-0.021": 0.0,
			"-0.02": 0.0,
			"-0.019": 0.0,
			"-0.018": 0.0,
			"-0.017": 0.0,
			"-0.016": 0.0,
			"-0.015": 0.0,
			"-0.014": 0.0,
			"-0.013": 0.0,
			"-0.012": 0.0,
			"-0.011": 0.0,
			"-0.01": 0.292013721623,
			"-0.009": 3.67466090444,
			"-0.008": 4.37062529664,
			"-0.007": 8.04325883697,
			"-0.006": 14.6318685725,
			"-0.005": 14.8342600116,
			"-0.004": 14.2349370676,
			"-0.003": 13.0901663378,
			"-0.002": 13.7806410193,
			"-0.001": 13.6942358289,
			"0.0": 16.7237073761,
			"0.001": 15.4883646523,
			"0.002": 16.0455862131,
			"0.003": 19.6236606851,
			"0.004": 13.3325481142,
			"0.005": 14.4693237786,
			"0.006": 10.7491267421,
			"0.007": 2.72197273328,
			"0.008": 3.02056164311,
			"0.009": 2.06984158884,
			"0.01": 1.79378343091,
			"0.011": 2.57088552242,
			"0.012": 1.37791565917,
			"0.013": 0.200892696497,
			"0.014": 0.0,
			"0.015": 0.0,
			"0.016": 0.0,
			"0.017": 0.0,
			"0.018": 0.0,
			"0.019": 0.0,
			"0.02": 0.0,
			"0.021": 0.0,
			"0.022": 0.0,
			"0.023": 0.0,
			"0.024": 0.0,
			"0.025": 0.0
		}
	}
}
