{
	 "smiles": "CC(C)(C)SC1=NC=C(C=C1)C#N", 
	 "Tm": 343.15, 
	 "num_atms": 25, 
	 "gaussian": { 
		 "optdone": 1, 
		 "sigma_profile": "yes", 
		 "theory": "DFT", 
		 "functional": "B3LYP", 
		 "basiset": "6-31G**", 
		 "properties": { 
			 "R2extent": 4028.505, 
			 "electric_dipole_moment_norm": 4.2092460762, 
			 "electric_quadrupole_moment_norm": 15.2962023382, 
			 "total_energy": -895.978856305, 
			 "HOMO_LUMO_gap": 0.17284, 
			 "cosmo_polarized_energy": -9.25, 
			 "cosmo_cavitation_energy": 30.28, 
			 "cosmo_dispersion_energy": -21.48, 
			 "cosmo_repulsion_energy": 1.65, 
			 "cosmo_total_nonelectrostatic_energy": 10.45, 
			 "SMD_solvation_energy": 6.4 
		},
		"coords": [
			{
				"x": -1.0563871924,
				"y": 0.107863923,
				"z": 2.48507731,
				"element": "C" 
			},
			{
				"x": -1.5394281731,
				"y": -1.2627611457,
				"z": 1.99254993,
				"element": "C" 
			},
			{
				"x": -0.3710039441,
				"y": -2.230101241,
				"z": 1.7611306449,
				"element": "C" 
			},
			{
				"x": -2.5405894284,
				"y": -1.8662674204,
				"z": 2.9940167959,
				"element": "C" 
			},
			{
				"x": -2.5818771267,
				"y": -1.0862905398,
				"z": 0.4357012208,
				"element": "S" 
			},
			{
				"x": -1.5689404329,
				"y": -0.3920110142,
				"z": -0.8419405039,
				"element": "C" 
			},
			{
				"x": -0.2838783062,
				"y": -0.0829437792,
				"z": -0.6268773249,
				"element": "N" 
			},
			{
				"x": 0.4230443266,
				"y": 0.4367899272,
				"z": -1.6323388281,
				"element": "C" 
			},
			{
				"x": -0.1056295013,
				"y": 0.6787391024,
				"z": -2.9074082785,
				"element": "C" 
			},
			{
				"x": -1.4589430825,
				"y": 0.3514125521,
				"z": -3.1281711163,
				"element": "C" 
			},
			{
				"x": -2.1960332694,
				"y": -0.1867917321,
				"z": -2.0914479565,
				"element": "C" 
			},
			{
				"x": 0.7084340795,
				"y": 1.238182751,
				"z": -3.9402165552,
				"element": "C" 
			},
			{
				"x": 1.3738237279,
				"y": 1.693839288,
				"z": -4.7792995013,
				"element": "N" 
			},
			{
				"x": -0.3746270855,
				"y": 0.5660404581,
				"z": 1.7675991694,
				"element": "H" 
			},
			{
				"x": -0.5228153796,
				"y": -0.0213480744,
				"z": 3.4348978004,
				"element": "H" 
			},
			{
				"x": -1.8984844303,
				"y": 0.784149487,
				"z": 2.6582045058,
				"element": "H" 
			},
			{
				"x": 0.3284504342,
				"y": -1.8332828745,
				"z": 1.0243711375,
				"element": "H" 
			},
			{
				"x": -0.7285728251,
				"y": -3.2069134683,
				"z": 1.4228255463,
				"element": "H" 
			},
			{
				"x": 0.1670754895,
				"y": -2.3733427678,
				"z": 2.7063851753,
				"element": "H" 
			},
			{
				"x": -3.394469761,
				"y": -1.2030194899,
				"z": 3.1633013023,
				"element": "H" 
			},
			{
				"x": -2.9157232535,
				"y": -2.8375090292,
				"z": 2.656909261,
				"element": "H" 
			},
			{
				"x": -2.0333146843,
				"y": -2.0150018393,
				"z": 3.9535382917,
				"element": "H" 
			},
			{
				"x": 1.4627902058,
				"y": 0.6752699148,
				"z": -1.4208954184,
				"element": "H" 
			},
			{
				"x": -1.9085576743,
				"y": 0.5224444749,
				"z": -4.1007600351,
				"element": "H" 
			},
			{
				"x": -3.2396427128,
				"y": -0.4493474624,
				"z": -2.2287525733,
				"element": "H" 
			}
		],
		 "valence_orbital": [ 
			{
				"type": "occ",
				"energy": -0.31479,
				"method": "rhf"
			},
			{
				"type": "occ",
				"energy": -0.30922,
				"method": "rhf"
			},
			{
				"type": "occ",
				"energy": -0.30074,
				"method": "rhf"
			},
			{
				"type": "occ",
				"energy": -0.27743,
				"method": "rhf"
			},
			{
				"type": "occ",
				"energy": -0.23279,
				"method": "rhf"
			},
			{
				"type": "unocc",
				"energy": -0.05995,
				"method": "rhf"
			},
			{
				"type": "unocc",
				"energy": -0.0453,
				"method": "rhf"
			},
			{
				"type": "unocc",
				"energy": 0.01946,
				"method": "rhf"
			},
			{
				"type": "unocc",
				"energy": 0.03324,
				"method": "rhf"
			},
			{
				"type": "unocc",
				"energy": 0.05329,
				"method": "rhf"
			}
		],
		"cosmo_sigma_profile": { 
			"-0.025": 0.0,
			"-0.024": 0.0,
			"-0.023": 0.0,
			"-0.022": 0.0,
			"-0.021": 0.0,
			"-0.02": 0.0,
			"-0.019": 0.0,
			"-0.018": 0.0,
			"-0.017": 0.0,
			"-0.016": 0.0,
			"-0.015": 0.0,
			"-0.014": 0.0,
			"-0.013": 0.0,
			"-0.012": 0.0,
			"-0.011": 0.0,
			"-0.01": 0.108110579871,
			"-0.009": 2.97059687447,
			"-0.008": 6.55222751491,
			"-0.007": 6.87049929111,
			"-0.006": 5.6309789944,
			"-0.005": 5.71007500923,
			"-0.004": 16.1632073254,
			"-0.003": 21.8516397627,
			"-0.002": 22.3895558077,
			"-0.001": 28.7779335164,
			"0.0": 34.4077971091,
			"0.001": 26.3832216191,
			"0.002": 13.1510209104,
			"0.003": 8.05620523803,
			"0.004": 6.60781740948,
			"0.005": 7.47361829186,
			"0.006": 5.92835009788,
			"0.007": 5.96055665391,
			"0.008": 4.61715488633,
			"0.009": 3.49319097999,
			"0.01": 3.13659362257,
			"0.011": 2.68333908562,
			"0.012": 2.3265476974,
			"0.013": 1.36489781558,
			"0.014": 0.00823794861603,
			"0.015": 0.0,
			"0.016": 0.0,
			"0.017": 0.0,
			"0.018": 0.0,
			"0.019": 0.0,
			"0.02": 0.0,
			"0.021": 0.0,
			"0.022": 0.0,
			"0.023": 0.0,
			"0.024": 0.0,
			"0.025": 0.0
		}
	}
}
