{
	 "smiles": "CCN(CC)S(=O)(=O)C1=CC(N)=C(C=C1)N1CCOCC1", 
	 "Tm": 368.15, 
	 "num_atms": 44, 
	 "gaussian": { 
		 "optdone": 1, 
		 "sigma_profile": "yes", 
		 "theory": "DFT", 
		 "functional": "B3LYP", 
		 "basiset": "6-31G**", 
		 "properties": { 
			 "R2extent": 9592.3289, 
			 "electric_dipole_moment_norm": 6.07777227856, 
			 "electric_quadrupole_moment_norm": 28.4701499229, 
			 "total_energy": -1335.37277377, 
			 "HOMO_LUMO_gap": 0.18192, 
			 "cosmo_polarized_energy": -20.51, 
			 "cosmo_cavitation_energy": 45.03, 
			 "cosmo_dispersion_energy": -31.83, 
			 "cosmo_repulsion_energy": 2.41, 
			 "cosmo_total_nonelectrostatic_energy": 15.62, 
			 "SMD_solvation_energy": 5.67 
		},
		"coords": [
			{
				"x": 0.4963509399,
				"y": 5.0872468591,
				"z": -1.7809860799,
				"element": "C" 
			},
			{
				"x": 0.7103226088,
				"y": 3.5975014599,
				"z": -1.5091235561,
				"element": "C" 
			},
			{
				"x": -0.0769336912,
				"y": 2.7559934354,
				"z": -2.4253500317,
				"element": "N" 
			},
			{
				"x": -1.5456941179,
				"y": 2.7484204708,
				"z": -2.2556542748,
				"element": "C" 
			},
			{
				"x": -2.2866951853,
				"y": 3.3149438695,
				"z": -3.4661777189,
				"element": "C" 
			},
			{
				"x": 0.6225833515,
				"y": 1.3299146602,
				"z": -2.9851021296,
				"element": "S" 
			},
			{
				"x": 2.0369683387,
				"y": 1.6259749053,
				"z": -3.2283602746,
				"element": "O" 
			},
			{
				"x": -0.261505151,
				"y": 0.8378222043,
				"z": -4.0463654977,
				"element": "O" 
			},
			{
				"x": 0.54255477,
				"y": 0.1407152829,
				"z": -1.6391246521,
				"element": "C" 
			},
			{
				"x": -0.5043224959,
				"y": -0.7807674245,
				"z": -1.6122685467,
				"element": "C" 
			},
			{
				"x": -0.6157077908,
				"y": -1.6854727938,
				"z": -0.5476474486,
				"element": "C" 
			},
			{
				"x": -1.629773805,
				"y": -2.6360567024,
				"z": -0.5000976237,
				"element": "N" 
			},
			{
				"x": 0.3508896846,
				"y": -1.6565588638,
				"z": 0.4926242924,
				"element": "C" 
			},
			{
				"x": 1.395645504,
				"y": -0.7274944864,
				"z": 0.4266447106,
				"element": "C" 
			},
			{
				"x": 1.5015786084,
				"y": 0.1820364894,
				"z": -0.6250428856,
				"element": "C" 
			},
			{
				"x": 0.2020520376,
				"y": -2.6094192636,
				"z": 1.5418572098,
				"element": "N" 
			},
			{
				"x": 0.6869434032,
				"y": -3.9627146318,
				"z": 1.1862231838,
				"element": "C" 
			},
			{
				"x": 0.6490028875,
				"y": -4.8591748685,
				"z": 2.4163899778,
				"element": "C" 
			},
			{
				"x": 1.5123387973,
				"y": -4.4038994565,
				"z": 3.4587123987,
				"element": "O" 
			},
			{
				"x": 1.7680469895,
				"y": -3.0023199975,
				"z": 3.4425914869,
				"element": "C" 
			},
			{
				"x": 0.5737509144,
				"y": -2.2097173687,
				"z": 2.9138882564,
				"element": "C" 
			},
			{
				"x": 1.1101071833,
				"y": 5.6809397758,
				"z": -1.0953329355,
				"element": "H" 
			},
			{
				"x": 0.7822861594,
				"y": 5.3327789068,
				"z": -2.8072913668,
				"element": "H" 
			},
			{
				"x": -0.5464754388,
				"y": 5.3858684657,
				"z": -1.6337844452,
				"element": "H" 
			},
			{
				"x": 0.4616817713,
				"y": 3.3615180095,
				"z": -0.4621726089,
				"element": "H" 
			},
			{
				"x": 1.7616025564,
				"y": 3.3533129961,
				"z": -1.6681286635,
				"element": "H" 
			},
			{
				"x": -1.8942416544,
				"y": 1.7306740549,
				"z": -2.0450701498,
				"element": "H" 
			},
			{
				"x": -1.7680726334,
				"y": 3.3366657322,
				"z": -1.358398714,
				"element": "H" 
			},
			{
				"x": -3.3679383255,
				"y": 3.3070281371,
				"z": -3.2868225498,
				"element": "H" 
			},
			{
				"x": -2.0725066072,
				"y": 2.712068004,
				"z": -4.3508456474,
				"element": "H" 
			},
			{
				"x": -1.9780663354,
				"y": 4.3451050605,
				"z": -3.6668039719,
				"element": "H" 
			},
			{
				"x": -1.2174623212,
				"y": -0.8032926871,
				"z": -2.4299044113,
				"element": "H" 
			},
			{
				"x": -1.840408914,
				"y": -2.925678499,
				"z": 0.4488756889,
				"element": "H" 
			},
			{
				"x": -2.4512122459,
				"y": -2.418536154,
				"z": -1.0472910272,
				"element": "H" 
			},
			{
				"x": 2.1529410855,
				"y": -0.7246349429,
				"z": 1.2049431638,
				"element": "H" 
			},
			{
				"x": 2.3349085007,
				"y": 0.8721980311,
				"z": -0.6827907292,
				"element": "H" 
			},
			{
				"x": 0.0517355453,
				"y": -4.3785394335,
				"z": 0.3968568912,
				"element": "H" 
			},
			{
				"x": 1.7155708863,
				"y": -3.9291286795,
				"z": 0.7927134562,
				"element": "H" 
			},
			{
				"x": 0.9747426117,
				"y": -5.8702861964,
				"z": 2.1506729572,
				"element": "H" 
			},
			{
				"x": -0.3858865846,
				"y": -4.9267844099,
				"z": 2.78783696,
				"element": "H" 
			},
			{
				"x": 2.6627922113,
				"y": -2.7838587423,
				"z": 2.837886262,
				"element": "H" 
			},
			{
				"x": 1.9883860732,
				"y": -2.7112272208,
				"z": 4.4753624198,
				"element": "H" 
			},
			{
				"x": 0.7877139396,
				"y": -1.138136941,
				"z": 2.9449164707,
				"element": "H" 
			},
			{
				"x": -0.2809940616,
				"y": -2.382127047,
				"z": 3.5825421541,
				"element": "H" 
			}
		],
		 "valence_orbital": [ 
			{
				"type": "occ",
				"energy": -0.27438,
				"method": "rhf"
			},
			{
				"type": "occ",
				"energy": -0.25554,
				"method": "rhf"
			},
			{
				"type": "occ",
				"energy": -0.24552,
				"method": "rhf"
			},
			{
				"type": "occ",
				"energy": -0.23171,
				"method": "rhf"
			},
			{
				"type": "occ",
				"energy": -0.20836,
				"method": "rhf"
			},
			{
				"type": "unocc",
				"energy": -0.02644,
				"method": "rhf"
			},
			{
				"type": "unocc",
				"energy": -0.00485,
				"method": "rhf"
			},
			{
				"type": "unocc",
				"energy": 0.06262,
				"method": "rhf"
			},
			{
				"type": "unocc",
				"energy": 0.0696,
				"method": "rhf"
			},
			{
				"type": "unocc",
				"energy": 0.08163,
				"method": "rhf"
			}
		],
		"cosmo_sigma_profile": { 
			"-0.025": 0.0,
			"-0.024": 0.0,
			"-0.023": 0.0,
			"-0.022": 0.0,
			"-0.021": 0.0,
			"-0.02": 0.0,
			"-0.019": 0.0,
			"-0.018": 0.0,
			"-0.017": 0.0,
			"-0.016": 0.0,
			"-0.015": 0.0,
			"-0.014": 0.0,
			"-0.013": 0.54057079796,
			"-0.012": 1.56725296454,
			"-0.011": 1.70318520749,
			"-0.01": 2.08870616187,
			"-0.009": 2.79233651488,
			"-0.008": 2.56013129601,
			"-0.007": 3.60542000283,
			"-0.006": 9.62694066548,
			"-0.005": 19.2615830083,
			"-0.004": 37.6039973956,
			"-0.003": 48.5389889026,
			"-0.002": 39.0774832996,
			"-0.001": 30.5165558175,
			"0.0": 25.9235997828,
			"0.001": 20.4983468666,
			"0.002": 14.3459277545,
			"0.003": 13.8290346506,
			"0.004": 16.023713216,
			"0.005": 9.95888140742,
			"0.006": 6.49464741828,
			"0.007": 7.37796562333,
			"0.008": 5.32997046183,
			"0.009": 5.59400890022,
			"0.01": 7.60818648521,
			"0.011": 8.08019138757,
			"0.012": 8.35221285117,
			"0.013": 2.12598614991,
			"0.014": 1.07831747279,
			"0.015": 0.0,
			"0.016": 0.0,
			"0.017": 0.0,
			"0.018": 0.0,
			"0.019": 0.0,
			"0.02": 0.0,
			"0.021": 0.0,
			"0.022": 0.0,
			"0.023": 0.0,
			"0.024": 0.0,
			"0.025": 0.0
		}
	}
}
