{
	 "smiles": "OCC1=NC=C(O1)C1=CC=CC=C1", 
	 "Tm": 391.15, 
	 "num_atms": 22, 
	 "gaussian": { 
		 "optdone": 1, 
		 "sigma_profile": "yes", 
		 "theory": "DFT", 
		 "functional": "B3LYP", 
		 "basiset": "6-31G**", 
		 "properties": { 
			 "R2extent": 3446.3386, 
			 "electric_dipole_moment_norm": 3.00608025342, 
			 "electric_quadrupole_moment_norm": 11.8150138447, 
			 "total_energy": -591.665042053, 
			 "HOMO_LUMO_gap": 0.17647, 
			 "cosmo_polarized_energy": -11.17, 
			 "cosmo_cavitation_energy": 26.8, 
			 "cosmo_dispersion_energy": -19.72, 
			 "cosmo_repulsion_energy": 1.56, 
			 "cosmo_total_nonelectrostatic_energy": 8.64, 
			 "SMD_solvation_energy": 3.19 
		},
		"coords": [
			{
				"x": 0.0157888083,
				"y": -2.5682709276,
				"z": 3.6300955224,
				"element": "O" 
			},
			{
				"x": 0.2058258537,
				"y": -2.9959914899,
				"z": 2.289120694,
				"element": "C" 
			},
			{
				"x": 0.9621160291,
				"y": -2.005164017,
				"z": 1.4619012061,
				"element": "C" 
			},
			{
				"x": 2.0777099464,
				"y": -2.1516158536,
				"z": 0.8155781059,
				"element": "N" 
			},
			{
				"x": 2.3066805213,
				"y": -0.9168847342,
				"z": 0.2300808887,
				"element": "C" 
			},
			{
				"x": 1.3022885742,
				"y": -0.049348942,
				"z": 0.5575123218,
				"element": "C" 
			},
			{
				"x": 0.4229897049,
				"y": -0.7557189631,
				"z": 1.3524649237,
				"element": "O" 
			},
			{
				"x": 1.0024173863,
				"y": 1.344149047,
				"z": 0.260062345,
				"element": "C" 
			},
			{
				"x": 1.8938309201,
				"y": 2.1097376457,
				"z": -0.5138221437,
				"element": "C" 
			},
			{
				"x": 1.6122577152,
				"y": 3.4409616192,
				"z": -0.8050684935,
				"element": "C" 
			},
			{
				"x": 0.4397047457,
				"y": 4.0351018288,
				"z": -0.3301396972,
				"element": "C" 
			},
			{
				"x": -0.4497206647,
				"y": 3.2832706964,
				"z": 0.4394889223,
				"element": "C" 
			},
			{
				"x": -0.1745284743,
				"y": 1.9493625242,
				"z": 0.7336158407,
				"element": "C" 
			},
			{
				"x": -0.4906013209,
				"y": -1.7456960779,
				"z": 3.6050822935,
				"element": "H" 
			},
			{
				"x": 0.7930836847,
				"y": -3.9152304456,
				"z": 2.3211367728,
				"element": "H" 
			},
			{
				"x": -0.7558566766,
				"y": -3.223584176,
				"z": 1.8017033805,
				"element": "H" 
			},
			{
				"x": 3.1775507648,
				"y": -0.7388396137,
				"z": -0.3832916474,
				"element": "H" 
			},
			{
				"x": 2.8098521496,
				"y": 1.6605251446,
				"z": -0.8854285042,
				"element": "H" 
			},
			{
				"x": 2.3112230484,
				"y": 4.0178510326,
				"z": -1.4036233466,
				"element": "H" 
			},
			{
				"x": 0.2228772243,
				"y": 5.0743916875,
				"z": -0.5581137188,
				"element": "H" 
			},
			{
				"x": -1.3635647749,
				"y": 3.7362010162,
				"z": 0.8130534163,
				"element": "H" 
			},
			{
				"x": -0.8693251657,
				"y": 1.3682929986,
				"z": 1.3300909176,
				"element": "H" 
			}
		],
		 "valence_orbital": [ 
			{
				"type": "occ",
				"energy": -0.29459,
				"method": "rhf"
			},
			{
				"type": "occ",
				"energy": -0.29118,
				"method": "rhf"
			},
			{
				"type": "occ",
				"energy": -0.28002,
				"method": "rhf"
			},
			{
				"type": "occ",
				"energy": -0.26035,
				"method": "rhf"
			},
			{
				"type": "occ",
				"energy": -0.21961,
				"method": "rhf"
			},
			{
				"type": "unocc",
				"energy": -0.04314,
				"method": "rhf"
			},
			{
				"type": "unocc",
				"energy": -0.01005,
				"method": "rhf"
			},
			{
				"type": "unocc",
				"energy": 0.01789,
				"method": "rhf"
			},
			{
				"type": "unocc",
				"energy": 0.06831,
				"method": "rhf"
			},
			{
				"type": "unocc",
				"energy": 0.07934,
				"method": "rhf"
			}
		],
		"cosmo_sigma_profile": { 
			"-0.025": 0.0,
			"-0.024": 0.0,
			"-0.023": 0.0,
			"-0.022": 0.0,
			"-0.021": 0.0,
			"-0.02": 0.0,
			"-0.019": 0.0,
			"-0.018": 0.0,
			"-0.017": 0.0,
			"-0.016": 0.138752452492,
			"-0.015": 0.820339167823,
			"-0.014": 0.943533586382,
			"-0.013": 0.69674181362,
			"-0.012": 0.953818382762,
			"-0.011": 0.721442197164,
			"-0.01": 0.29589973177,
			"-0.009": 1.04609597736,
			"-0.008": 4.40255409917,
			"-0.007": 5.94699298383,
			"-0.006": 14.7805175261,
			"-0.005": 16.9867284894,
			"-0.004": 16.7396300855,
			"-0.003": 12.4357227463,
			"-0.002": 11.4568472937,
			"-0.001": 11.7785552345,
			"0.0": 15.3027301423,
			"0.001": 17.9934394529,
			"0.002": 16.7712362754,
			"0.003": 14.2685494791,
			"0.004": 13.2254418584,
			"0.005": 13.0501028802,
			"0.006": 2.83163799806,
			"0.007": 2.58280227483,
			"0.008": 2.43345990336,
			"0.009": 2.30661164183,
			"0.01": 2.17725055593,
			"0.011": 2.43996739528,
			"0.012": 2.85509395662,
			"0.013": 3.11120177154,
			"0.014": 1.76346238267,
			"0.015": 0.757976372244,
			"0.016": 0.570896734412,
			"0.017": 0.0,
			"0.018": 0.0,
			"0.019": 0.0,
			"0.02": 0.0,
			"0.021": 0.0,
			"0.022": 0.0,
			"0.023": 0.0,
			"0.024": 0.0,
			"0.025": 0.0
		}
	}
}
