{
	 "smiles": "OCC(CO)(CO)COCC(CO)(CO)CO", 
	 "Tm": 492.15, 
	 "num_atms": 39, 
	 "gaussian": { 
		 "optdone": 1, 
		 "sigma_profile": "yes", 
		 "theory": "DFT", 
		 "functional": "B3LYP", 
		 "basiset": "6-31G**", 
		 "properties": { 
			 "R2extent": 5613.6283, 
			 "electric_dipole_moment_norm": 5.08048140731, 
			 "electric_quadrupole_moment_norm": 21.4968414322, 
			 "total_energy": -920.813436683, 
			 "HOMO_LUMO_gap": 0.29476, 
			 "cosmo_polarized_energy": -24.12, 
			 "cosmo_cavitation_energy": 37.8, 
			 "cosmo_dispersion_energy": -26.53, 
			 "cosmo_repulsion_energy": 2.12, 
			 "cosmo_total_nonelectrostatic_energy": 13.38, 
			 "SMD_solvation_energy": 6.71 
		},
		"coords": [
			{
				"x": 1.2221367881,
				"y": 2.074839506,
				"z": -0.1382086409,
				"element": "O" 
			},
			{
				"x": 1.824669967,
				"y": 1.8571951508,
				"z": 1.1382665246,
				"element": "C" 
			},
			{
				"x": 0.806914977,
				"y": 1.1970396908,
				"z": 2.079065626,
				"element": "C" 
			},
			{
				"x": 1.4967741042,
				"y": 0.910106975,
				"z": 3.4249571563,
				"element": "C" 
			},
			{
				"x": 2.1501377911,
				"y": 2.0885547546,
				"z": 3.8877170102,
				"element": "O" 
			},
			{
				"x": -0.3918249909,
				"y": 2.1454537931,
				"z": 2.3176877493,
				"element": "C" 
			},
			{
				"x": -1.4283887969,
				"y": 1.5310206038,
				"z": 3.0694539238,
				"element": "O" 
			},
			{
				"x": 0.3171334009,
				"y": -0.181413598,
				"z": 1.5363971417,
				"element": "C" 
			},
			{
				"x": -0.9644639613,
				"y": -0.1455347446,
				"z": 0.8995452804,
				"element": "O" 
			},
			{
				"x": -0.9914744185,
				"y": -0.0845469204,
				"z": -0.526377739,
				"element": "C" 
			},
			{
				"x": -1.4333332637,
				"y": -1.4274800688,
				"z": -1.1529533022,
				"element": "C" 
			},
			{
				"x": -2.8805083918,
				"y": -1.7385993534,
				"z": -0.6992246271,
				"element": "C" 
			},
			{
				"x": -3.3342711745,
				"y": -3.0344230574,
				"z": -1.0466084201,
				"element": "O" 
			},
			{
				"x": -0.5116222863,
				"y": -2.5725228684,
				"z": -0.7119300942,
				"element": "C" 
			},
			{
				"x": 0.8379280674,
				"y": -2.2382932719,
				"z": -1.0530665071,
				"element": "O" 
			},
			{
				"x": -1.3666494077,
				"y": -1.2462507194,
				"z": -2.6784479694,
				"element": "C" 
			},
			{
				"x": -1.9259857095,
				"y": -2.4031427967,
				"z": -3.3181576505,
				"element": "O" 
			},
			{
				"x": 1.8533436489,
				"y": 2.5556919926,
				"z": -0.6866982739,
				"element": "H" 
			},
			{
				"x": 2.1626903629,
				"y": 2.8030090083,
				"z": 1.5794849007,
				"element": "H" 
			},
			{
				"x": 2.706418605,
				"y": 1.201272547,
				"z": 1.0465775444,
				"element": "H" 
			},
			{
				"x": 0.7185847288,
				"y": 0.5814331448,
				"z": 4.1270612588,
				"element": "H" 
			},
			{
				"x": 2.2222307747,
				"y": 0.0865491307,
				"z": 3.3050744001,
				"element": "H" 
			},
			{
				"x": 2.3486114716,
				"y": 1.9736331844,
				"z": 4.8242636534,
				"element": "H" 
			},
			{
				"x": -0.0428172,
				"y": 3.0037030433,
				"z": 2.8999979826,
				"element": "H" 
			},
			{
				"x": -0.7575954258,
				"y": 2.5147566892,
				"z": 1.3523988258,
				"element": "H" 
			},
			{
				"x": -1.817401909,
				"y": 0.8773932269,
				"z": 2.4681685343,
				"element": "H" 
			},
			{
				"x": 1.057417745,
				"y": -0.6237647368,
				"z": 0.8612845435,
				"element": "H" 
			},
			{
				"x": 0.190785194,
				"y": -0.8670810551,
				"z": 2.3830681244,
				"element": "H" 
			},
			{
				"x": -0.0171390737,
				"y": 0.2259081111,
				"z": -0.9088941993,
				"element": "H" 
			},
			{
				"x": -1.7159908092,
				"y": 0.6942652504,
				"z": -0.7994767189,
				"element": "H" 
			},
			{
				"x": -3.5450165317,
				"y": -0.9540614622,
				"z": -1.103829939,
				"element": "H" 
			},
			{
				"x": -2.9283089096,
				"y": -1.6705163428,
				"z": 0.3917805613,
				"element": "H" 
			},
			{
				"x": -3.1800239407,
				"y": -3.1178221846,
				"z": -2.0009217935,
				"element": "H" 
			},
			{
				"x": -0.8279560143,
				"y": -3.4964063962,
				"z": -1.2066237066,
				"element": "H" 
			},
			{
				"x": -0.6196897517,
				"y": -2.7156246186,
				"z": 0.3724235697,
				"element": "H" 
			},
			{
				"x": 1.3779030514,
				"y": -3.0274591351,
				"z": -0.926732167,
				"element": "H" 
			},
			{
				"x": -0.3211583573,
				"y": -1.1108158748,
				"z": -2.9831851203,
				"element": "H" 
			},
			{
				"x": -1.9330815497,
				"y": -0.3458684017,
				"z": -2.9629640607,
				"element": "H" 
			},
			{
				"x": -1.9058788043,
				"y": -2.2665981962,
				"z": -4.2726733818,
				"element": "H" 
			}
		],
		 "valence_orbital": [ 
			{
				"type": "occ",
				"energy": -0.26753,
				"method": "rhf"
			},
			{
				"type": "occ",
				"energy": -0.26583,
				"method": "rhf"
			},
			{
				"type": "occ",
				"energy": -0.25072,
				"method": "rhf"
			},
			{
				"type": "occ",
				"energy": -0.24376,
				"method": "rhf"
			},
			{
				"type": "occ",
				"energy": -0.23858,
				"method": "rhf"
			},
			{
				"type": "unocc",
				"energy": 0.05618,
				"method": "rhf"
			},
			{
				"type": "unocc",
				"energy": 0.06737,
				"method": "rhf"
			},
			{
				"type": "unocc",
				"energy": 0.07284,
				"method": "rhf"
			},
			{
				"type": "unocc",
				"energy": 0.07753,
				"method": "rhf"
			},
			{
				"type": "unocc",
				"energy": 0.09742,
				"method": "rhf"
			}
		],
		"cosmo_sigma_profile": { 
			"-0.025": 0.0,
			"-0.024": 0.0,
			"-0.023": 0.0,
			"-0.022": 0.0,
			"-0.021": 0.0,
			"-0.02": 0.0,
			"-0.019": 0.0,
			"-0.018": 0.0,
			"-0.017": 0.273627232375,
			"-0.016": 2.40853213592,
			"-0.015": 4.19241614521,
			"-0.014": 3.9703777424,
			"-0.013": 3.76050570171,
			"-0.012": 3.6960955898,
			"-0.011": 3.30817094283,
			"-0.01": 3.25476322911,
			"-0.009": 2.4571619262,
			"-0.008": 3.5992072725,
			"-0.007": 4.58226771234,
			"-0.006": 5.78817585362,
			"-0.005": 8.42840915483,
			"-0.004": 21.0919133009,
			"-0.003": 30.1610460901,
			"-0.002": 26.2784297258,
			"-0.001": 23.9919987981,
			"0.0": 18.2941566782,
			"0.001": 13.5621301963,
			"0.002": 12.7650172271,
			"0.003": 12.4300606601,
			"0.004": 11.687198686,
			"0.005": 10.4243360033,
			"0.006": 9.05086051998,
			"0.007": 7.78524028037,
			"0.008": 8.79961577052,
			"0.009": 6.48104325718,
			"0.01": 5.8743251788,
			"0.011": 5.88427210806,
			"0.012": 4.20258262352,
			"0.013": 3.19639680409,
			"0.014": 3.41688425692,
			"0.015": 3.86334705585,
			"0.016": 0.347050014986,
			"0.017": 0.0,
			"0.018": 0.0,
			"0.019": 0.0,
			"0.02": 0.0,
			"0.021": 0.0,
			"0.022": 0.0,
			"0.023": 0.0,
			"0.024": 0.0,
			"0.025": 0.0
		}
	}
}
