{
	 "smiles": "CCCCC1=CC=C(NS(=O)(=O)C2=CC(C(O)=O)=C(C)C=C2)C=C1", 
	 "Tm": 466.15, 
	 "num_atms": 45, 
	 "gaussian": { 
		 "optdone": 1, 
		 "sigma_profile": "yes", 
		 "theory": "DFT", 
		 "functional": "B3LYP", 
		 "basiset": "6-31G**", 
		 "properties": { 
			 "R2extent": 11197.1644, 
			 "electric_dipole_moment_norm": 6.84289874541, 
			 "electric_quadrupole_moment_norm": 29.8013858337, 
			 "total_energy": -1452.37421928, 
			 "HOMO_LUMO_gap": 0.16136, 
			 "cosmo_polarized_energy": -20.42, 
			 "cosmo_cavitation_energy": 49.45, 
			 "cosmo_dispersion_energy": -32.54, 
			 "cosmo_repulsion_energy": 2.45, 
			 "cosmo_total_nonelectrostatic_energy": 19.35, 
			 "SMD_solvation_energy": 8.3 
		},
		"coords": [
			{
				"x": -0.4329447181,
				"y": -1.6076844505,
				"z": 2.0201459789,
				"element": "C" 
			},
			{
				"x": -1.0411723389,
				"y": -3.0156784775,
				"z": 2.0603505905,
				"element": "C" 
			},
			{
				"x": -0.8316803153,
				"y": -3.8734125302,
				"z": 0.7987713177,
				"element": "C" 
			},
			{
				"x": -1.7182540743,
				"y": -3.5316855555,
				"z": -0.4214956339,
				"element": "C" 
			},
			{
				"x": -1.3970702799,
				"y": -2.2425195654,
				"z": -1.1511633331,
				"element": "C" 
			},
			{
				"x": -2.3158545327,
				"y": -1.1860215446,
				"z": -1.2084191297,
				"element": "C" 
			},
			{
				"x": -2.0391540257,
				"y": -0.005678126,
				"z": -1.8973735377,
				"element": "C" 
			},
			{
				"x": -0.8006788732,
				"y": 0.151034716,
				"z": -2.5315568715,
				"element": "C" 
			},
			{
				"x": -0.5013163021,
				"y": 1.3354866283,
				"z": -3.2638034065,
				"element": "N" 
			},
			{
				"x": -0.5200260798,
				"y": 2.8811803629,
				"z": -2.5592260704,
				"element": "S" 
			},
			{
				"x": 0.0198177995,
				"y": 3.7521229103,
				"z": -3.6023158425,
				"element": "O" 
			},
			{
				"x": -1.8455442782,
				"y": 3.0768622183,
				"z": -1.9736421104,
				"element": "O" 
			},
			{
				"x": 0.6540512616,
				"y": 2.8346916669,
				"z": -1.2008528063,
				"element": "C" 
			},
			{
				"x": 1.9928760971,
				"y": 3.1168967953,
				"z": -1.4416176,
				"element": "C" 
			},
			{
				"x": 2.9294994523,
				"y": 3.0616984979,
				"z": -0.3988634919,
				"element": "C" 
			},
			{
				"x": 4.3262971528,
				"y": 3.3923602148,
				"z": -0.8186612349,
				"element": "C" 
			},
			{
				"x": 5.2268727912,
				"y": 3.4424450905,
				"z": 0.1918988617,
				"element": "O" 
			},
			{
				"x": 4.6553237567,
				"y": 3.6063094751,
				"z": -1.9689343385,
				"element": "O" 
			},
			{
				"x": 2.5161259733,
				"y": 2.7128992752,
				"z": 0.9117261353,
				"element": "C" 
			},
			{
				"x": 3.4393929079,
				"y": 2.6201752277,
				"z": 2.1037796204,
				"element": "C" 
			},
			{
				"x": 1.1541675073,
				"y": 2.4366835753,
				"z": 1.1118527444,
				"element": "C" 
			},
			{
				"x": 0.2206444341,
				"y": 2.4944649005,
				"z": 0.0817033744,
				"element": "C" 
			},
			{
				"x": 0.1308888491,
				"y": -0.8947858171,
				"z": -2.4859593553,
				"element": "C" 
			},
			{
				"x": -0.1748568948,
				"y": -2.0778734584,
				"z": -1.8186872521,
				"element": "C" 
			},
			{
				"x": -0.5652726208,
				"y": -1.1036307481,
				"z": 2.9840427026,
				"element": "H" 
			},
			{
				"x": -0.8897198575,
				"y": -0.9828093551,
				"z": 1.2491084025,
				"element": "H" 
			},
			{
				"x": 0.6427226,
				"y": -1.6517345577,
				"z": 1.8135839082,
				"element": "H" 
			},
			{
				"x": -2.1173723094,
				"y": -2.9467887635,
				"z": 2.2718622656,
				"element": "H" 
			},
			{
				"x": -0.605413163,
				"y": -3.5562947249,
				"z": 2.9106004209,
				"element": "H" 
			},
			{
				"x": -1.0368851443,
				"y": -4.9193913511,
				"z": 1.0600019971,
				"element": "H" 
			},
			{
				"x": 0.2264142963,
				"y": -3.8393521355,
				"z": 0.5052112927,
				"element": "H" 
			},
			{
				"x": -2.7672661556,
				"y": -3.5117740716,
				"z": -0.1011640405,
				"element": "H" 
			},
			{
				"x": -1.636333275,
				"y": -4.3629480944,
				"z": -1.1346911634,
				"element": "H" 
			},
			{
				"x": -3.2799884088,
				"y": -1.2934594324,
				"z": -0.7176429321,
				"element": "H" 
			},
			{
				"x": -2.7702489518,
				"y": 0.7920088725,
				"z": -1.9521023563,
				"element": "H" 
			},
			{
				"x": 0.2970723334,
				"y": 1.265187529,
				"z": -3.8873222277,
				"element": "H" 
			},
			{
				"x": 2.33325988,
				"y": 3.402207181,
				"z": -2.4306006002,
				"element": "H" 
			},
			{
				"x": 6.0729703128,
				"y": 3.6688970856,
				"z": -0.2301425837,
				"element": "H" 
			},
			{
				"x": 4.2539159003,
				"y": 1.9124955659,
				"z": 1.9293521868,
				"element": "H" 
			},
			{
				"x": 2.8809144239,
				"y": 2.2978184962,
				"z": 2.9857640064,
				"element": "H" 
			},
			{
				"x": 3.9093771023,
				"y": 3.5827226978,
				"z": 2.3222837863,
				"element": "H" 
			},
			{
				"x": 0.8185873188,
				"y": 2.1727482254,
				"z": 2.1103583942,
				"element": "H" 
			},
			{
				"x": -0.829093292,
				"y": 2.2968980037,
				"z": 0.2661400142,
				"element": "H" 
			},
			{
				"x": 1.0931838823,
				"y": -0.7820148702,
				"z": -2.9796710987,
				"element": "H" 
			},
			{
				"x": 0.5563698584,
				"y": -2.8823575822,
				"z": -1.8097289833,
				"element": "H" 
			}
		],
		 "valence_orbital": [ 
			{
				"type": "occ",
				"energy": -0.2894,
				"method": "rhf"
			},
			{
				"type": "occ",
				"energy": -0.27809,
				"method": "rhf"
			},
			{
				"type": "occ",
				"energy": -0.2703,
				"method": "rhf"
			},
			{
				"type": "occ",
				"energy": -0.25843,
				"method": "rhf"
			},
			{
				"type": "occ",
				"energy": -0.22728,
				"method": "rhf"
			},
			{
				"type": "unocc",
				"energy": -0.06592,
				"method": "rhf"
			},
			{
				"type": "unocc",
				"energy": -0.04018,
				"method": "rhf"
			},
			{
				"type": "unocc",
				"energy": -0.01277,
				"method": "rhf"
			},
			{
				"type": "unocc",
				"energy": -0.0099,
				"method": "rhf"
			},
			{
				"type": "unocc",
				"energy": 0.03365,
				"method": "rhf"
			}
		],
		"cosmo_sigma_profile": { 
			"-0.025": 0.0,
			"-0.024": 0.0,
			"-0.023": 0.0,
			"-0.022": 0.0,
			"-0.021": 0.0,
			"-0.02": 0.0,
			"-0.019": 0.0820052948896,
			"-0.018": 1.15483899008,
			"-0.017": 0.469913398122,
			"-0.016": 1.05070538625,
			"-0.015": 2.03516520737,
			"-0.014": 1.71247613108,
			"-0.013": 1.93212555822,
			"-0.012": 1.93946183634,
			"-0.011": 2.13393939502,
			"-0.01": 1.75132708332,
			"-0.009": 2.06304078281,
			"-0.008": 2.88735729863,
			"-0.007": 6.68516257868,
			"-0.006": 8.75349584903,
			"-0.005": 13.664425508,
			"-0.004": 20.842615106,
			"-0.003": 28.6523544912,
			"-0.002": 38.8405064415,
			"-0.001": 44.8258965575,
			"0.0": 46.7066683098,
			"0.001": 47.4297912176,
			"0.002": 25.2086646106,
			"0.003": 14.3130051304,
			"0.004": 16.7924864338,
			"0.005": 12.5291409266,
			"0.006": 5.56048042884,
			"0.007": 5.96989238171,
			"0.008": 4.848948006,
			"0.009": 5.84768707683,
			"0.01": 10.097261326,
			"0.011": 11.2900345919,
			"0.012": 2.66879219404,
			"0.013": 0.0,
			"0.014": 0.0,
			"0.015": 0.0,
			"0.016": 0.0,
			"0.017": 0.0,
			"0.018": 0.0,
			"0.019": 0.0,
			"0.02": 0.0,
			"0.021": 0.0,
			"0.022": 0.0,
			"0.023": 0.0,
			"0.024": 0.0,
			"0.0": 0.0
		}
	}
}
