{
	 "smiles": "O=C1N2CCCN=C2SC1=CC1=CC=C2OCOC2=C1", 
	 "Tm": 424.5, 
	 "num_atms": 32, 
	 "gaussian": { 
		 "optdone": 1, 
		 "sigma_profile": "yes", 
		 "theory": "DFT", 
		 "functional": "B3LYP", 
		 "basiset": "6-31G**", 
		 "properties": { 
			 "R2extent": 9126.1882, 
			 "electric_dipole_moment_norm": 1.85895331302, 
			 "electric_quadrupole_moment_norm": 16.4747487262, 
			 "total_energy": -1274.0566249, 
			 "HOMO_LUMO_gap": 0.1287, 
			 "cosmo_polarized_energy": -13.48, 
			 "cosmo_cavitation_energy": 36.85, 
			 "cosmo_dispersion_energy": -28.54, 
			 "cosmo_repulsion_energy": 2.1, 
			 "cosmo_total_nonelectrostatic_energy": 10.42, 
			 "SMD_solvation_energy": 3.1 
		},
		"coords": [
			{
				"x": 1.8364196821,
				"y": 0.8789441425,
				"z": -0.8576300672,
				"element": "O" 
			},
			{
				"x": 1.352012581,
				"y": 0.7995174828,
				"z": 0.2660588522,
				"element": "C" 
			},
			{
				"x": 2.1454074819,
				"y": 0.5719574563,
				"z": 1.3832441434,
				"element": "N" 
			},
			{
				"x": 3.6004047853,
				"y": 0.4321309411,
				"z": 1.2843475939,
				"element": "C" 
			},
			{
				"x": 4.0910953953,
				"y": -0.4252001093,
				"z": 2.4525007986,
				"element": "C" 
			},
			{
				"x": 3.5235017304,
				"y": 0.0989396281,
				"z": 3.7800123009,
				"element": "C" 
			},
			{
				"x": 2.0727400936,
				"y": 0.298690648,
				"z": 3.7625779127,
				"element": "N" 
			},
			{
				"x": 1.5288140174,
				"y": 0.4983661628,
				"z": 2.6328504119,
				"element": "C" 
			},
			{
				"x": -0.2252902556,
				"y": 0.7318756831,
				"z": 2.4409103948,
				"element": "S" 
			},
			{
				"x": -0.0749748726,
				"y": 0.9207757707,
				"z": 0.6640962858,
				"element": "C" 
			},
			{
				"x": -1.1970113473,
				"y": 1.1384048851,
				"z": -0.0739392724,
				"element": "C" 
			},
			{
				"x": -1.4967707718,
				"y": 1.3344716751,
				"z": -1.486682513,
				"element": "C" 
			},
			{
				"x": -2.862534606,
				"y": 1.5305015398,
				"z": -1.7956855983,
				"element": "C" 
			},
			{
				"x": -3.3228929474,
				"y": 1.7344239619,
				"z": -3.1016807884,
				"element": "C" 
			},
			{
				"x": -2.3663358601,
				"y": 1.7375167916,
				"z": -4.0997238953,
				"element": "C" 
			},
			{
				"x": -2.5424755645,
				"y": 1.9047126109,
				"z": -5.4443431896,
				"element": "O" 
			},
			{
				"x": -1.2267344093,
				"y": 1.8811234038,
				"z": -6.0225332401,
				"element": "C" 
			},
			{
				"x": -0.2921156564,
				"y": 1.5830063071,
				"z": -4.9847397873,
				"element": "O" 
			},
			{
				"x": -1.0138404351,
				"y": 1.5451180346,
				"z": -3.8137762876,
				"element": "C" 
			},
			{
				"x": -0.539853747,
				"y": 1.3422393616,
				"z": -2.5398054493,
				"element": "C" 
			},
			{
				"x": 3.8214940967,
				"y": -0.0098762323,
				"z": 0.3105183132,
				"element": "H" 
			},
			{
				"x": 4.0601097217,
				"y": 1.4283858759,
				"z": 1.3079913471,
				"element": "H" 
			},
			{
				"x": 5.185579782,
				"y": -0.4259646903,
				"z": 2.4734285823,
				"element": "H" 
			},
			{
				"x": 3.7650689612,
				"y": -1.4608884004,
				"z": 2.302084173,
				"element": "H" 
			},
			{
				"x": 3.756529008,
				"y": -0.5967643904,
				"z": 4.5930987319,
				"element": "H" 
			},
			{
				"x": 4.0004875643,
				"y": 1.0534425525,
				"z": 4.0468339357,
				"element": "H" 
			},
			{
				"x": -2.1032895721,
				"y": 1.1762856843,
				"z": 0.5304800478,
				"element": "H" 
			},
			{
				"x": -3.5876440173,
				"y": 1.5240054345,
				"z": -0.9873995309,
				"element": "H" 
			},
			{
				"x": -4.3736716295,
				"y": 1.882360552,
				"z": -3.3221260018,
				"element": "H" 
			},
			{
				"x": -1.18509637,
				"y": 1.1029108914,
				"z": -6.7927258699,
				"element": "H" 
			},
			{
				"x": -1.0040426021,
				"y": 2.8665296158,
				"z": -6.4526097003,
				"element": "H" 
			},
			{
				"x": 0.5111097632,
				"y": 1.1936567297,
				"z": -2.3335326335,
				"element": "H" 
			}
		],
		 "valence_orbital": [ 
			{
				"type": "occ",
				"energy": -0.26116,
				"method": "rhf"
			},
			{
				"type": "occ",
				"energy": -0.25597,
				"method": "rhf"
			},
			{
				"type": "occ",
				"energy": -0.25281,
				"method": "rhf"
			},
			{
				"type": "occ",
				"energy": -0.23014,
				"method": "rhf"
			},
			{
				"type": "occ",
				"energy": -0.19787,
				"method": "rhf"
			},
			{
				"type": "unocc",
				"energy": -0.06917,
				"method": "rhf"
			},
			{
				"type": "unocc",
				"energy": -0.00131,
				"method": "rhf"
			},
			{
				"type": "unocc",
				"energy": 0.00682,
				"method": "rhf"
			},
			{
				"type": "unocc",
				"energy": 0.01113,
				"method": "rhf"
			},
			{
				"type": "unocc",
				"energy": 0.03309,
				"method": "rhf"
			}
		],
		"cosmo_sigma_profile": { 
			"-0.025": 0.0,
			"-0.024": 0.0,
			"-0.023": 0.0,
			"-0.022": 0.0,
			"-0.021": 0.0,
			"-0.02": 0.0,
			"-0.019": 0.0,
			"-0.018": 0.0,
			"-0.017": 0.0,
			"-0.016": 0.0,
			"-0.015": 0.0,
			"-0.014": 0.0,
			"-0.013": 0.0,
			"-0.012": 0.0,
			"-0.011": 0.0,
			"-0.01": 0.0,
			"-0.009": 0.54883421095,
			"-0.008": 7.81083204743,
			"-0.007": 12.821126844,
			"-0.006": 14.5053789365,
			"-0.005": 20.8877498977,
			"-0.004": 27.8991573305,
			"-0.003": 25.243116082,
			"-0.002": 19.470271497,
			"-0.001": 17.0999638547,
			"0.0": 15.7183792669,
			"0.001": 19.4607826632,
			"0.002": 27.8521635097,
			"0.003": 25.0331378814,
			"0.004": 16.2842426498,
			"0.005": 10.662475908,
			"0.006": 6.89633071986,
			"0.007": 5.50388267442,
			"0.008": 6.11208665909,
			"0.009": 6.16351282346,
			"0.01": 3.16150594129,
			"0.011": 3.13050669337,
			"0.012": 1.67438783495,
			"0.013": 1.02128948502,
			"0.014": 1.00638400478,
			"0.015": 0.850032930826,
			"0.016": 0.480239289682,
			"0.017": 0.06277098754,
			"0.018": 0.0,
			"0.019": 0.0,
			"0.02": 0.0,
			"0.021": 0.0,
			"0.022": 0.0,
			"0.023": 0.0,
			"0.024": 0.0,
			"0.025": 0.0
		}
	}
}
