{
	 "smiles": "NC1=C(F)C=C(Br)C=C1Br", 
	 "Tm": 336.15, 
	 "num_atms": 14, 
	 "gaussian": { 
		 "optdone": 1, 
		 "sigma_profile": "yes", 
		 "theory": "DFT", 
		 "functional": "B3LYP", 
		 "basiset": "6-31G**", 
		 "properties": { 
			 "R2extent": 4581.8669, 
			 "electric_dipole_moment_norm": 2.12519929889, 
			 "electric_quadrupole_moment_norm": 4.1215331856, 
			 "total_energy": -5528.44389327, 
			 "HOMO_LUMO_gap": 0.19411, 
			 "cosmo_polarized_energy": -6.11, 
			 "cosmo_cavitation_energy": 23.26, 
			 "cosmo_dispersion_energy": -18.2, 
			 "cosmo_repulsion_energy": 1.45, 
			 "cosmo_total_nonelectrostatic_energy": 6.52, 
			 "SMD_solvation_energy": 2.12 
		},
		"coords": [
			{
				"x": 0.0986098091,
				"y": -0.6202723896,
				"z": -1.4662309849,
				"element": "N" 
			},
			{
				"x": -0.3168321514,
				"y": -0.1726693004,
				"z": -0.2301740702,
				"element": "C" 
			},
			{
				"x": -0.8634299923,
				"y": -1.0775237048,
				"z": 0.6983396418,
				"element": "C" 
			},
			{
				"x": -1.0132385239,
				"y": -2.3580316366,
				"z": 0.277556837,
				"element": "F" 
			},
			{
				"x": -1.2534506417,
				"y": -0.7308392754,
				"z": 1.9771536835,
				"element": "C" 
			},
			{
				"x": -1.0993728753,
				"y": 0.5988741691,
				"z": 2.3747483003,
				"element": "C" 
			},
			{
				"x": -1.6222576854,
				"y": 1.1205237608,
				"z": 4.1336822387,
				"element": "Br" 
			},
			{
				"x": -0.5733359983,
				"y": 1.5463815224,
				"z": 1.503094145,
				"element": "C" 
			},
			{
				"x": -0.1933478517,
				"y": 1.1522611086,
				"z": 0.2203040258,
				"element": "C" 
			},
			{
				"x": 0.5146530615,
				"y": 2.4645700817,
				"z": -0.9765820477,
				"element": "Br" 
			},
			{
				"x": 0.1812248582,
				"y": 0.0812306955,
				"z": -2.187980483,
				"element": "H" 
			},
			{
				"x": -0.3006236379,
				"y": -1.4984366848,
				"z": -1.7628159622,
				"element": "H" 
			},
			{
				"x": -1.6674771215,
				"y": -1.4838459173,
				"z": 2.6358103691,
				"element": "H" 
			},
			{
				"x": -0.4594212494,
				"y": 2.5782775707,
				"z": 1.808494307,
				"element": "H" 
			}
		],
		 "valence_orbital": [ 
			{
				"type": "occ",
				"energy": -0.3047,
				"method": "rhf"
			},
			{
				"type": "occ",
				"energy": -0.29119,
				"method": "rhf"
			},
			{
				"type": "occ",
				"energy": -0.28861,
				"method": "rhf"
			},
			{
				"type": "occ",
				"energy": -0.25604,
				"method": "rhf"
			},
			{
				"type": "occ",
				"energy": -0.21636,
				"method": "rhf"
			},
			{
				"type": "unocc",
				"energy": -0.02225,
				"method": "rhf"
			},
			{
				"type": "unocc",
				"energy": -0.02158,
				"method": "rhf"
			},
			{
				"type": "unocc",
				"energy": -0.00929,
				"method": "rhf"
			},
			{
				"type": "unocc",
				"energy": 0.02443,
				"method": "rhf"
			},
			{
				"type": "unocc",
				"energy": 0.07701,
				"method": "rhf"
			}
		],
		"cosmo_sigma_profile": { 
			"-0.025": 0.0,
			"-0.024": 0.0,
			"-0.023": 0.0,
			"-0.022": 0.0,
			"-0.021": 0.0,
			"-0.02": 0.0,
			"-0.019": 0.0,
			"-0.018": 0.0,
			"-0.017": 0.0,
			"-0.016": 0.0,
			"-0.015": 0.0,
			"-0.014": 0.0602133257233,
			"-0.013": 0.769719014476,
			"-0.012": 2.09467888839,
			"-0.011": 1.90930260058,
			"-0.01": 1.80247824518,
			"-0.009": 2.42232798252,
			"-0.008": 4.41342146434,
			"-0.007": 4.74675513161,
			"-0.006": 4.6849547139,
			"-0.005": 6.40025161415,
			"-0.004": 7.9563215253,
			"-0.003": 7.69720797215,
			"-0.002": 11.0759741138,
			"-0.001": 10.8942190923,
			"0.0": 18.4541947785,
			"0.001": 23.9938313792,
			"0.002": 27.5235384417,
			"0.003": 22.3284504048,
			"0.004": 23.4333686911,
			"0.005": 6.62469580659,
			"0.006": 0.802697766186,
			"0.007": 0.708072468136,
			"0.008": 0.769660059687,
			"0.009": 0.520718915103,
			"0.01": 0.56653083686,
			"0.011": 0.579318291024,
			"0.012": 0.290396637806,
			"0.013": 0.0,
			"0.014": 0.0,
			"0.015": 0.0,
			"0.016": 0.0,
			"0.017": 0.0,
			"0.018": 0.0,
			"0.019": 0.0,
			"0.02": 0.0,
			"0.021": 0.0,
			"0.022": 0.0,
			"0.023": 0.0,
			"0.024": 0.0,
			"0.025": 0.0
		}
	}
}
