{
	 "smiles": "CN1CCS(=O)(=O)CC1", 
	 "Tm": 359.15, 
	 "num_atms": 20, 
	 "gaussian": { 
		 "optdone": 1, 
		 "sigma_profile": "yes", 
		 "theory": "DFT", 
		 "functional": "B3LYP", 
		 "basiset": "6-31G**", 
		 "properties": { 
			 "R2extent": 2103.3665, 
			 "electric_dipole_moment_norm": 4.84558546411, 
			 "electric_quadrupole_moment_norm": 16.0056822132, 
			 "total_energy": -800.47706836, 
			 "HOMO_LUMO_gap": 0.28137, 
			 "cosmo_polarized_energy": -15.97, 
			 "cosmo_cavitation_energy": 22.4, 
			 "cosmo_dispersion_energy": -17.45, 
			 "cosmo_repulsion_energy": 1.35, 
			 "cosmo_total_nonelectrostatic_energy": 6.3, 
			 "SMD_solvation_energy": 0.41 
		},
		"coords": [
			{
				"x": -0.527724443,
				"y": 0.6174286212,
				"z": 1.4506880532,
				"element": "C" 
			},
			{
				"x": -0.2444708199,
				"y": -0.8103196483,
				"z": 1.5259955912,
				"element": "N" 
			},
			{
				"x": -0.7148624207,
				"y": -1.5857686809,
				"z": 0.383741152,
				"element": "C" 
			},
			{
				"x": 0.0856537658,
				"y": -1.3827780841,
				"z": -0.9243265287,
				"element": "C" 
			},
			{
				"x": 1.8268098862,
				"y": -1.8324310016,
				"z": -0.6740279831,
				"element": "S" 
			},
			{
				"x": 2.6314415714,
				"y": -1.3200183635,
				"z": -1.7937706632,
				"element": "O" 
			},
			{
				"x": 1.8679278862,
				"y": -3.260640698,
				"z": -0.3074852142,
				"element": "O" 
			},
			{
				"x": 2.1935610291,
				"y": -0.8734568334,
				"z": 0.8234351141,
				"element": "C" 
			},
			{
				"x": 1.1236794851,
				"y": -1.1409971624,
				"z": 1.9082783098,
				"element": "C" 
			},
			{
				"x": 0.0020749177,
				"y": 1.1647633536,
				"z": 0.6502974914,
				"element": "H" 
			},
			{
				"x": -1.6013496733,
				"y": 0.7638592807,
				"z": 1.2946648179,
				"element": "H" 
			},
			{
				"x": -0.2623328838,
				"y": 1.0880057369,
				"z": 2.4028125068,
				"element": "H" 
			},
			{
				"x": -0.6766780797,
				"y": -2.6487956303,
				"z": 0.6458654955,
				"element": "H" 
			},
			{
				"x": -1.7634721059,
				"y": -1.3323351173,
				"z": 0.1931774976,
				"element": "H" 
			},
			{
				"x": 0.0702104506,
				"y": -0.3485238051,
				"z": -1.2786725362,
				"element": "H" 
			},
			{
				"x": -0.2718287,
				"y": -2.0359043742,
				"z": -1.7256954911,
				"element": "H" 
			},
			{
				"x": 2.246515928,
				"y": 0.1771769577,
				"z": 0.5254059389,
				"element": "H" 
			},
			{
				"x": 3.187397379,
				"y": -1.2003278792,
				"z": 1.1428213902,
				"element": "H" 
			},
			{
				"x": 1.1635358001,
				"y": -2.2034809362,
				"z": 2.1723687743,
				"element": "H" 
			},
			{
				"x": 1.3870110272,
				"y": -0.5699557357,
				"z": 2.8053262836,
				"element": "H" 
			}
		],
		 "valence_orbital": [ 
			{
				"type": "occ",
				"energy": -0.31992,
				"method": "rhf"
			},
			{
				"type": "occ",
				"energy": -0.30757,
				"method": "rhf"
			},
			{
				"type": "occ",
				"energy": -0.29222,
				"method": "rhf"
			},
			{
				"type": "occ",
				"energy": -0.27792,
				"method": "rhf"
			},
			{
				"type": "occ",
				"energy": -0.23145,
				"method": "rhf"
			},
			{
				"type": "unocc",
				"energy": 0.04992,
				"method": "rhf"
			},
			{
				"type": "unocc",
				"energy": 0.06731,
				"method": "rhf"
			},
			{
				"type": "unocc",
				"energy": 0.07792,
				"method": "rhf"
			},
			{
				"type": "unocc",
				"energy": 0.09109,
				"method": "rhf"
			},
			{
				"type": "unocc",
				"energy": 0.09121,
				"method": "rhf"
			}
		],
		"cosmo_sigma_profile": { 
			"-0.025": 0.0,
			"-0.024": 0.0,
			"-0.023": 0.0,
			"-0.022": 0.0,
			"-0.021": 0.0,
			"-0.02": 0.0,
			"-0.019": 0.0,
			"-0.018": 0.0,
			"-0.017": 0.0,
			"-0.016": 0.0,
			"-0.015": 0.0,
			"-0.014": 0.0,
			"-0.013": 0.0,
			"-0.012": 0.0,
			"-0.011": 0.00164118625817,
			"-0.01": 0.519530434138,
			"-0.009": 1.54995674725,
			"-0.008": 6.63321516151,
			"-0.007": 8.90408831655,
			"-0.006": 12.9384843293,
			"-0.005": 20.7268810089,
			"-0.004": 21.8457512175,
			"-0.003": 14.8022699538,
			"-0.002": 11.5400685033,
			"-0.001": 11.3453881873,
			"0.0": 6.00674848497,
			"0.001": 3.54306398437,
			"0.002": 4.41626009849,
			"0.003": 2.93842477874,
			"0.004": 2.13148010869,
			"0.005": 3.20537658921,
			"0.006": 2.53555696704,
			"0.007": 3.14764103931,
			"0.008": 2.76982793132,
			"0.009": 3.33163393709,
			"0.01": 4.05384375143,
			"0.011": 7.76633378993,
			"0.012": 11.9402894893,
			"0.013": 5.10135066435,
			"0.014": 0.487222545304,
			"0.015": 0.208738871609,
			"0.016": 0.0,
			"0.017": 0.0,
			"0.018": 0.0,
			"0.019": 0.0,
			"0.02": 0.0,
			"0.021": 0.0,
			"0.022": 0.0,
			"0.023": 0.0,
			"0.024": 0.0,
			"0.025": 0.0
		}
	}
}
