{
	 "smiles": "S1C=CC=C1", 
	 "Tm": 234.45, 
	 "num_atms": 9, 
	 "gaussian": { 
		 "optdone": 1, 
		 "sigma_profile": "yes", 
		 "theory": "DFT", 
		 "functional": "B3LYP", 
		 "basiset": "6-31G**", 
		 "properties": { 
			 "R2extent": 524.6982, 
			 "electric_dipole_moment_norm": 0.619101001453, 
			 "electric_quadrupole_moment_norm": 4.38224371641, 
			 "total_energy": -553.003192809, 
			 "HOMO_LUMO_gap": 0.22483, 
			 "cosmo_polarized_energy": -3.28, 
			 "cosmo_cavitation_energy": 14.07, 
			 "cosmo_dispersion_energy": -11.43, 
			 "cosmo_repulsion_energy": 0.94, 
			 "cosmo_total_nonelectrostatic_energy": 3.57, 
			 "SMD_solvation_energy": 2.88 
		},
		"coords": [
			{
				"x": -0.1297706222,
				"y": -0.3629470444,
				"z": 0.9943407024,
				"element": "S" 
			},
			{
				"x": 0.1271625213,
				"y": -1.6240611097,
				"z": -0.1694402411,
				"element": "C" 
			},
			{
				"x": -0.7038087544,
				"y": -1.4878792159,
				"z": -1.247198849,
				"element": "C" 
			},
			{
				"x": -1.5645646549,
				"y": -0.3513948694,
				"z": -1.1412447516,
				"element": "C" 
			},
			{
				"x": -1.3702949308,
				"y": 0.3530273432,
				"z": 0.0149042454,
				"element": "C" 
			},
			{
				"x": 0.8725350705,
				"y": -2.385709956,
				"z": 0.0120205363,
				"element": "H" 
			},
			{
				"x": -0.7045688374,
				"y": -2.171927507,
				"z": -2.0883373758,
				"element": "H" 
			},
			{
				"x": -2.294688673,
				"y": -0.0724393617,
				"z": -1.8926040286,
				"element": "H" 
			},
			{
				"x": -1.8783011192,
				"y": 1.2462317209,
				"z": 0.3506597621,
				"element": "H" 
			}
		],
		 "valence_orbital": [ 
			{
				"type": "occ",
				"energy": -0.38369,
				"method": "rhf"
			},
			{
				"type": "occ",
				"energy": -0.37358,
				"method": "rhf"
			},
			{
				"type": "occ",
				"energy": -0.34057,
				"method": "rhf"
			},
			{
				"type": "occ",
				"energy": -0.24852,
				"method": "rhf"
			},
			{
				"type": "occ",
				"energy": -0.23323,
				"method": "rhf"
			},
			{
				"type": "unocc",
				"energy": -0.0084,
				"method": "rhf"
			},
			{
				"type": "unocc",
				"energy": 0.03569,
				"method": "rhf"
			},
			{
				"type": "unocc",
				"energy": 0.07014,
				"method": "rhf"
			},
			{
				"type": "unocc",
				"energy": 0.10234,
				"method": "rhf"
			},
			{
				"type": "unocc",
				"energy": 0.10654,
				"method": "rhf"
			}
		],
		"cosmo_sigma_profile": { 
			"-0.025": 0.0,
			"-0.024": 0.0,
			"-0.023": 0.0,
			"-0.022": 0.0,
			"-0.021": 0.0,
			"-0.02": 0.0,
			"-0.019": 0.0,
			"-0.018": 0.0,
			"-0.017": 0.0,
			"-0.016": 0.0,
			"-0.015": 0.0,
			"-0.014": 0.0,
			"-0.013": 0.0,
			"-0.012": 0.0,
			"-0.011": 0.0,
			"-0.01": 0.0,
			"-0.009": 0.128965059851,
			"-0.008": 3.15207295444,
			"-0.007": 4.39840261767,
			"-0.006": 6.91380858131,
			"-0.005": 7.8086620587,
			"-0.004": 7.2308802833,
			"-0.003": 8.77118289627,
			"-0.002": 6.02209262057,
			"-0.001": 6.92096115702,
			"0.0": 6.60949128703,
			"0.001": 6.83328702505,
			"0.002": 8.99197302829,
			"0.003": 9.42467225822,
			"0.004": 11.0450583073,
			"0.005": 13.2384860877,
			"0.006": 7.40589640529,
			"0.007": 0.551470019994,
			"0.008": 0.0,
			"0.009": 0.0,
			"0.01": 0.0,
			"0.011": 0.0,
			"0.012": 0.0,
			"0.013": 0.0,
			"0.014": 0.0,
			"0.015": 0.0,
			"0.016": 0.0,
			"0.017": 0.0,
			"0.018": 0.0,
			"0.019": 0.0,
			"0.02": 0.0,
			"0.021": 0.0,
			"0.022": 0.0,
			"0.023": 0.0,
			"0.024": 0.0,
			"0.025": 0.0
		}
	}
}
