{
	 "smiles": "[O-][N+](=O)C1=C(Cl)C(Cl)=C(Cl)C=C1", 
	 "Tm": 328.65, 
	 "num_atms": 14, 
	 "gaussian": { 
		 "optdone": 1, 
		 "sigma_profile": "yes", 
		 "theory": "DFT", 
		 "functional": "B3LYP", 
		 "basiset": "6-31G**", 
		 "properties": { 
			 "R2extent": 3343.1457, 
			 "electric_dipole_moment_norm": 3.1011396905, 
			 "electric_quadrupole_moment_norm": 11.5511601184, 
			 "total_energy": -1815.4927623, 
			 "HOMO_LUMO_gap": 0.17648, 
			 "cosmo_polarized_energy": -7.74, 
			 "cosmo_cavitation_energy": 24.69, 
			 "cosmo_dispersion_energy": -18.65, 
			 "cosmo_repulsion_energy": 1.48, 
			 "cosmo_total_nonelectrostatic_energy": 7.51, 
			 "SMD_solvation_energy": 5.83 
		},
		"coords": [
			{
				"x": -2.2909957022,
				"y": -2.4005152152,
				"z": 0.153419799,
				"element": "O" 
			},
			{
				"x": -1.0865246286,
				"y": -2.4622210332,
				"z": 0.397217131,
				"element": "N" 
			},
			{
				"x": -0.4902739803,
				"y": -3.4570026308,
				"z": 0.7909778878,
				"element": "O" 
			},
			{
				"x": -0.3060562391,
				"y": -1.2358393525,
				"z": 0.1381479626,
				"element": "C" 
			},
			{
				"x": 0.7863771757,
				"y": -0.8471684571,
				"z": 0.9291367154,
				"element": "C" 
			},
			{
				"x": 1.2488528994,
				"y": -1.7206701357,
				"z": 2.3509239753,
				"element": "Cl" 
			},
			{
				"x": 1.4856505581,
				"y": 0.3273243407,
				"z": 0.579386058,
				"element": "C" 
			},
			{
				"x": 2.8272550396,
				"y": 0.8621739662,
				"z": 1.5380985489,
				"element": "Cl" 
			},
			{
				"x": 1.0858790396,
				"y": 1.0658029931,
				"z": -0.5480635414,
				"element": "C" 
			},
			{
				"x": 1.9347610815,
				"y": 2.5079843266,
				"z": -1.021341007,
				"element": "Cl" 
			},
			{
				"x": -0.0109440102,
				"y": 0.663471806,
				"z": -1.3110687434,
				"element": "C" 
			},
			{
				"x": -0.7120163225,
				"y": -0.4787477155,
				"z": -0.9583319776,
				"element": "C" 
			},
			{
				"x": -0.3060376592,
				"y": 1.250928549,
				"z": -2.1721045991,
				"element": "H" 
			},
			{
				"x": -1.5764272519,
				"y": -0.8050214417,
				"z": -1.5228982094,
				"element": "H" 
			}
		],
		 "valence_orbital": [ 
			{
				"type": "occ",
				"energy": -0.32131,
				"method": "rhf"
			},
			{
				"type": "occ",
				"energy": -0.31937,
				"method": "rhf"
			},
			{
				"type": "occ",
				"energy": -0.30534,
				"method": "rhf"
			},
			{
				"type": "occ",
				"energy": -0.28302,
				"method": "rhf"
			},
			{
				"type": "occ",
				"energy": -0.27941,
				"method": "rhf"
			},
			{
				"type": "unocc",
				"energy": -0.10293,
				"method": "rhf"
			},
			{
				"type": "unocc",
				"energy": -0.05845,
				"method": "rhf"
			},
			{
				"type": "unocc",
				"energy": -0.03888,
				"method": "rhf"
			},
			{
				"type": "unocc",
				"energy": -0.03584,
				"method": "rhf"
			},
			{
				"type": "unocc",
				"energy": 0.02449,
				"method": "rhf"
			}
		],
		"cosmo_sigma_profile": { 
			"-0.025": 0.0,
			"-0.024": 0.0,
			"-0.023": 0.0,
			"-0.022": 0.0,
			"-0.021": 0.0,
			"-0.02": 0.0,
			"-0.019": 0.0,
			"-0.018": 0.0,
			"-0.017": 0.0,
			"-0.016": 0.0,
			"-0.015": 0.0,
			"-0.014": 0.0,
			"-0.013": 0.0,
			"-0.012": 0.0,
			"-0.011": 0.0,
			"-0.01": 1.30388469487,
			"-0.009": 4.83313594914,
			"-0.008": 5.68219135679,
			"-0.007": 4.25528019908,
			"-0.006": 4.16652868589,
			"-0.005": 5.91801415173,
			"-0.004": 10.3272868809,
			"-0.003": 21.5897698821,
			"-0.002": 20.3070551584,
			"-0.001": 18.2018583328,
			"0.0": 14.5573896967,
			"0.001": 14.2324263261,
			"0.002": 23.1396959832,
			"0.003": 21.7453829572,
			"0.004": 6.3006809923,
			"0.005": 4.32761056471,
			"0.006": 6.58702377322,
			"0.007": 10.9289942099,
			"0.008": 5.02430877608,
			"0.009": 2.52082584522,
			"0.01": 0.138321687628,
			"0.011": 0.0,
			"0.012": 0.0,
			"0.013": 0.0,
			"0.014": 0.0,
			"0.015": 0.0,
			"0.016": 0.0,
			"0.017": 0.0,
			"0.018": 0.0,
			"0.019": 0.0,
			"0.02": 0.0,
			"0.021": 0.0,
			"0.022": 0.0,
			"0.023": 0.0,
			"0.024": 0.0,
			"0.025": 0.0
		}
	}
}
