{
	 "smiles": "OC(=O)C1=C2C=CC=CC2=NC(=C1)C1=CC=C(F)C=C1", 
	 "Tm": 468.15, 
	 "num_atms": 30, 
	 "gaussian": { 
		 "optdone": 1, 
		 "sigma_profile": "yes", 
		 "theory": "DFT", 
		 "functional": "B3LYP", 
		 "basiset": "6-31G**", 
		 "properties": { 
			 "R2extent": 7284.3775, 
			 "electric_dipole_moment_norm": 2.36990057386, 
			 "electric_quadrupole_moment_norm": 15.5178775543, 
			 "total_energy": -920.784013157, 
			 "HOMO_LUMO_gap": 0.14857, 
			 "cosmo_polarized_energy": -15.77, 
			 "cosmo_cavitation_energy": 35.48, 
			 "cosmo_dispersion_energy": -25.82, 
			 "cosmo_repulsion_energy": 1.91, 
			 "cosmo_total_nonelectrostatic_energy": 11.56, 
			 "SMD_solvation_energy": 6.19 
		},
		"coords": [
			{
				"x": -2.8990918142,
				"y": 1.0090976136,
				"z": 0.9276865908,
				"element": "O" 
			},
			{
				"x": -2.1900322011,
				"y": -0.1285472807,
				"z": 1.1513976022,
				"element": "C" 
			},
			{
				"x": -2.7358435755,
				"y": -1.0984638979,
				"z": 1.6199755391,
				"element": "O" 
			},
			{
				"x": -0.7390331221,
				"y": -0.0772083668,
				"z": 0.7522560655,
				"element": "C" 
			},
			{
				"x": 0.2704813093,
				"y": -0.7449831876,
				"z": 1.513904794,
				"element": "C" 
			},
			{
				"x": 0.0318087776,
				"y": -1.4893110447,
				"z": 2.6996351317,
				"element": "C" 
			},
			{
				"x": 1.0834996549,
				"y": -2.0602558218,
				"z": 3.3830514712,
				"element": "C" 
			},
			{
				"x": 2.4139038407,
				"y": -1.91656232,
				"z": 2.9202695371,
				"element": "C" 
			},
			{
				"x": 2.6761515791,
				"y": -1.2045313566,
				"z": 1.7728587784,
				"element": "C" 
			},
			{
				"x": 1.6173258567,
				"y": -0.6042506049,
				"z": 1.0400986316,
				"element": "C" 
			},
			{
				"x": 1.9417928401,
				"y": 0.0745355328,
				"z": -0.0937824356,
				"element": "N" 
			},
			{
				"x": 0.9858191569,
				"y": 0.6481374234,
				"z": -0.8077451548,
				"element": "C" 
			},
			{
				"x": -0.3765021478,
				"y": 0.6061716522,
				"z": -0.3903119083,
				"element": "C" 
			},
			{
				"x": 1.3938763874,
				"y": 1.3602558674,
				"z": -2.0466046044,
				"element": "C" 
			},
			{
				"x": 2.7387247116,
				"y": 1.7352071568,
				"z": -2.2163176452,
				"element": "C" 
			},
			{
				"x": 3.1592004409,
				"y": 2.4064535638,
				"z": -3.3591451066,
				"element": "C" 
			},
			{
				"x": 2.2233848947,
				"y": 2.699359367,
				"z": -4.3469511561,
				"element": "C" 
			},
			{
				"x": 2.6235221767,
				"y": 3.3502950098,
				"z": -5.4566421551,
				"element": "F" 
			},
			{
				"x": 0.8878733021,
				"y": 2.3352458605,
				"z": -4.2225280767,
				"element": "C" 
			},
			{
				"x": 0.4810468363,
				"y": 1.6662234821,
				"z": -3.0697627949,
				"element": "C" 
			},
			{
				"x": -2.2987164142,
				"y": 1.7293151478,
				"z": 0.6872531368,
				"element": "H" 
			},
			{
				"x": -0.9858528358,
				"y": -1.615994176,
				"z": 3.0461717781,
				"element": "H" 
			},
			{
				"x": 0.889268148,
				"y": -2.6306447141,
				"z": 4.2864654482,
				"element": "H" 
			},
			{
				"x": 3.2277841632,
				"y": -2.3743792625,
				"z": 3.4748528745,
				"element": "H" 
			},
			{
				"x": 3.6833084323,
				"y": -1.079635825,
				"z": 1.389606285,
				"element": "H" 
			},
			{
				"x": -1.1333716286,
				"y": 1.104838952,
				"z": -0.9860900146,
				"element": "H" 
			},
			{
				"x": 3.4456484682,
				"y": 1.4871952993,
				"z": -1.4331491053,
				"element": "H" 
			},
			{
				"x": 4.1928302597,
				"y": 2.7057583209,
				"z": -3.4952534719,
				"element": "H" 
			},
			{
				"x": 0.1914759459,
				"y": 2.5669826978,
				"z": -5.0208590392,
				"element": "H" 
			},
			{
				"x": -0.5569834431,
				"y": 1.3593949113,
				"z": -2.9924409953,
				"element": "H" 
			}
		],
		 "valence_orbital": [ 
			{
				"type": "occ",
				"energy": -0.27961,
				"method": "rhf"
			},
			{
				"type": "occ",
				"energy": -0.27049,
				"method": "rhf"
			},
			{
				"type": "occ",
				"energy": -0.2659,
				"method": "rhf"
			},
			{
				"type": "occ",
				"energy": -0.25072,
				"method": "rhf"
			},
			{
				"type": "occ",
				"energy": -0.23193,
				"method": "rhf"
			},
			{
				"type": "unocc",
				"energy": -0.08336,
				"method": "rhf"
			},
			{
				"type": "unocc",
				"energy": -0.04762,
				"method": "rhf"
			},
			{
				"type": "unocc",
				"energy": -0.01902,
				"method": "rhf"
			},
			{
				"type": "unocc",
				"energy": -0.0133,
				"method": "rhf"
			},
			{
				"type": "unocc",
				"energy": 0.00474,
				"method": "rhf"
			}
		],
		"cosmo_sigma_profile": { 
			"-0.025": 0.0,
			"-0.024": 0.0,
			"-0.023": 0.0,
			"-0.022": 0.0,
			"-0.021": 0.0,
			"-0.02": 0.0,
			"-0.019": 0.429683212886,
			"-0.018": 0.884472729506,
			"-0.017": 0.86440493757,
			"-0.016": 1.31934808863,
			"-0.015": 0.947152594112,
			"-0.014": 0.847063108515,
			"-0.013": 0.882983398584,
			"-0.012": 1.61251814212,
			"-0.011": 1.50396627548,
			"-0.01": 1.91820271922,
			"-0.009": 2.63971529597,
			"-0.008": 3.61549303914,
			"-0.007": 8.19662624922,
			"-0.006": 13.3983821313,
			"-0.005": 17.3131570758,
			"-0.004": 16.3386448852,
			"-0.003": 13.3965656078,
			"-0.002": 14.70515432,
			"-0.001": 18.3756895178,
			"0.0": 23.4888447608,
			"0.001": 23.8576025271,
			"0.002": 25.9640944275,
			"0.003": 31.6420652305,
			"0.004": 24.4250221023,
			"0.005": 6.66981375084,
			"0.006": 4.57953476129,
			"0.007": 4.44445281748,
			"0.008": 3.90369083548,
			"0.009": 5.36844481478,
			"0.01": 5.96877269837,
			"0.011": 5.11216251802,
			"0.012": 1.96994951955,
			"0.013": 0.147870923053,
			"0.014": 0.0,
			"0.015": 0.0,
			"0.016": 0.0,
			"0.017": 0.0,
			"0.018": 0.0,
			"0.019": 0.0,
			"0.02": 0.0,
			"0.021": 0.0,
			"0.022": 0.0,
			"0.023": 0.0,
			"0.024": 0.0,
			"0.0": 0.0
		}
	}
}
