{
	 "smiles": "O=C1C=CC(=O)N1C1=C2C=CC=CC2=CC=C1", 
	 "Tm": 377.15, 
	 "num_atms": 26, 
	 "gaussian": { 
		 "optdone": 1, 
		 "sigma_profile": "yes", 
		 "theory": "DFT", 
		 "functional": "B3LYP", 
		 "basiset": "6-31G**", 
		 "properties": { 
			 "R2extent": 3753.7503, 
			 "electric_dipole_moment_norm": 0.83450844813, 
			 "electric_quadrupole_moment_norm": 19.972015751, 
			 "total_energy": -744.118095153, 
			 "HOMO_LUMO_gap": 0.12338, 
			 "cosmo_polarized_energy": -13.61, 
			 "cosmo_cavitation_energy": 31.15, 
			 "cosmo_dispersion_energy": -21.9, 
			 "cosmo_repulsion_energy": 1.67, 
			 "cosmo_total_nonelectrostatic_energy": 10.93, 
			 "SMD_solvation_energy": 6.96 
		},
		"coords": [
			{
				"x": 0.6641057351,
				"y": -1.3517200076,
				"z": -2.6283448806,
				"element": "O" 
			},
			{
				"x": 1.4906928675,
				"y": -1.244695182,
				"z": -1.7496808116,
				"element": "C" 
			},
			{
				"x": 2.6848875462,
				"y": -2.1189188781,
				"z": -1.4968060978,
				"element": "C" 
			},
			{
				"x": 3.358549316,
				"y": -1.6411525827,
				"z": -0.446905845,
				"element": "C" 
			},
			{
				"x": 2.6555063839,
				"y": -0.4192512662,
				"z": 0.0699346311,
				"element": "C" 
			},
			{
				"x": 2.9784957546,
				"y": 0.2879095631,
				"z": 0.9986803193,
				"element": "O" 
			},
			{
				"x": 1.5220931389,
				"y": -0.249455473,
				"z": -0.7508889205,
				"element": "N" 
			},
			{
				"x": 0.5908933322,
				"y": 0.8316654291,
				"z": -0.6526721844,
				"element": "C" 
			},
			{
				"x": -0.3282128141,
				"y": 0.8822186844,
				"z": 0.4388742082,
				"element": "C" 
			},
			{
				"x": -0.3874286584,
				"y": -0.1060623625,
				"z": 1.4571959717,
				"element": "C" 
			},
			{
				"x": -1.2943451683,
				"y": -0.0025976822,
				"z": 2.4875601373,
				"element": "C" 
			},
			{
				"x": -2.1858794046,
				"y": 1.0950213699,
				"z": 2.5547021983,
				"element": "C" 
			},
			{
				"x": -2.1580335002,
				"y": 2.0651872862,
				"z": 1.5799324222,
				"element": "C" 
			},
			{
				"x": -1.2400946136,
				"y": 1.9881283671,
				"z": 0.4976075509,
				"element": "C" 
			},
			{
				"x": -1.2146148986,
				"y": 2.9705075495,
				"z": -0.5277995711,
				"element": "C" 
			},
			{
				"x": -0.3273620395,
				"y": 2.8752679837,
				"z": -1.5744441297,
				"element": "C" 
			},
			{
				"x": 0.5866843396,
				"y": 1.7995221408,
				"z": -1.6334517148,
				"element": "C" 
			},
			{
				"x": 2.8978926277,
				"y": -2.9797342874,
				"z": -2.1170356039,
				"element": "H" 
			},
			{
				"x": 4.2662123332,
				"y": -2.0090513256,
				"z": 0.0133833256,
				"element": "H" 
			},
			{
				"x": 0.2878132053,
				"y": -0.9529346881,
				"z": 1.414109576,
				"element": "H" 
			},
			{
				"x": -1.3269001044,
				"y": -0.7687315894,
				"z": 3.2566117548,
				"element": "H" 
			},
			{
				"x": -2.8930728825,
				"y": 1.1654179847,
				"z": 3.3758598994,
				"element": "H" 
			},
			{
				"x": -2.8432029711,
				"y": 2.9078945109,
				"z": 1.6204684542,
				"element": "H" 
			},
			{
				"x": -1.9144682339,
				"y": 3.800074685,
				"z": -0.4726988086,
				"element": "H" 
			},
			{
				"x": -0.3170832886,
				"y": 3.6269946431,
				"z": -2.3574685026,
				"element": "H" 
			},
			{
				"x": 1.2930719974,
				"y": 1.7280951274,
				"z": -2.4537233781,
				"element": "H" 
			}
		],
		 "valence_orbital": [ 
			{
				"type": "occ",
				"energy": -0.29626,
				"method": "rhf"
			},
			{
				"type": "occ",
				"energy": -0.27626,
				"method": "rhf"
			},
			{
				"type": "occ",
				"energy": -0.27039,
				"method": "rhf"
			},
			{
				"type": "occ",
				"energy": -0.24861,
				"method": "rhf"
			},
			{
				"type": "occ",
				"energy": -0.22013,
				"method": "rhf"
			},
			{
				"type": "unocc",
				"energy": -0.09675,
				"method": "rhf"
			},
			{
				"type": "unocc",
				"energy": -0.04694,
				"method": "rhf"
			},
			{
				"type": "unocc",
				"energy": -0.01399,
				"method": "rhf"
			},
			{
				"type": "unocc",
				"energy": 0.02342,
				"method": "rhf"
			},
			{
				"type": "unocc",
				"energy": 0.05496,
				"method": "rhf"
			}
		],
		"cosmo_sigma_profile": { 
			"-0.025": 0.0,
			"-0.024": 0.0,
			"-0.023": 0.0,
			"-0.022": 0.0,
			"-0.021": 0.0,
			"-0.02": 0.0,
			"-0.019": 0.0,
			"-0.018": 0.0,
			"-0.017": 0.0,
			"-0.016": 0.0,
			"-0.015": 0.0,
			"-0.014": 0.0,
			"-0.013": 0.0,
			"-0.012": 0.0,
			"-0.011": 0.0,
			"-0.01": 1.93244147725,
			"-0.009": 3.78229924334,
			"-0.008": 3.5838662352,
			"-0.007": 9.35818150214,
			"-0.006": 21.2122847847,
			"-0.005": 20.519875681,
			"-0.004": 21.0501056305,
			"-0.003": 17.1627120023,
			"-0.002": 16.6951988206,
			"-0.001": 12.1450532802,
			"0.0": 12.4556645764,
			"0.001": 12.0586639137,
			"0.002": 13.1737266497,
			"0.003": 20.8896589335,
			"0.004": 21.6581507332,
			"0.005": 8.65658267075,
			"0.006": 2.58949303685,
			"0.007": 5.0127243812,
			"0.008": 4.44078265518,
			"0.009": 4.77880322704,
			"0.01": 7.59818763111,
			"0.011": 9.4813094087,
			"0.012": 1.44609451643,
			"0.013": 0.0,
			"0.014": 0.0,
			"0.015": 0.0,
			"0.016": 0.0,
			"0.017": 0.0,
			"0.018": 0.0,
			"0.019": 0.0,
			"0.02": 0.0,
			"0.021": 0.0,
			"0.022": 0.0,
			"0.023": 0.0,
			"0.024": 0.0,
			"0.025": 0.0
		}
	}
}
