{
	 "smiles": "OC(=O)C1=C(C=C(O)C=C1)C(O)=O", 
	 "Tm": 465.15, 
	 "num_atms": 19, 
	 "gaussian": { 
		 "optdone": 1, 
		 "sigma_profile": "yes", 
		 "theory": "DFT", 
		 "functional": "B3LYP", 
		 "basiset": "6-31G**", 
		 "properties": { 
			 "R2extent": 2472.9159, 
			 "electric_dipole_moment_norm": 8.51873520483, 
			 "electric_quadrupole_moment_norm": 10.6651701885, 
			 "total_energy": -684.600831311, 
			 "HOMO_LUMO_gap": 0.18787, 
			 "cosmo_polarized_energy": -25.03, 
			 "cosmo_cavitation_energy": 24.02, 
			 "cosmo_dispersion_energy": -18.18, 
			 "cosmo_repulsion_energy": 1.42, 
			 "cosmo_total_nonelectrostatic_energy": 7.25, 
			 "SMD_solvation_energy": 6.8 
		},
		"coords": [
			{
				"x": 1.2830308579,
				"y": 2.7008964919,
				"z": 0.107060107,
				"element": "O" 
			},
			{
				"x": 0.2481712079,
				"y": 2.0161018647,
				"z": 0.6368322812,
				"element": "C" 
			},
			{
				"x": -0.4882084563,
				"y": 2.6039411256,
				"z": 1.4129017742,
				"element": "O" 
			},
			{
				"x": 0.1326787222,
				"y": 0.5766407219,
				"z": 0.2593608954,
				"element": "C" 
			},
			{
				"x": -1.0925432171,
				"y": -0.1399414854,
				"z": 0.145070082,
				"element": "C" 
			},
			{
				"x": -1.0479421793,
				"y": -1.485833129,
				"z": -0.2164024105,
				"element": "C" 
			},
			{
				"x": 0.1608876445,
				"y": -2.1593916051,
				"z": -0.4170922264,
				"element": "C" 
			},
			{
				"x": 0.0922655244,
				"y": -3.472938014,
				"z": -0.7424746338,
				"element": "O" 
			},
			{
				"x": 1.3683420988,
				"y": -1.4681665585,
				"z": -0.2772728263,
				"element": "C" 
			},
			{
				"x": 1.3375253832,
				"y": -0.1181289205,
				"z": 0.043921501,
				"element": "C" 
			},
			{
				"x": -2.5269741444,
				"y": 0.3788948627,
				"z": 0.3085527382,
				"element": "C" 
			},
			{
				"x": -2.7550287381,
				"y": 1.4360980369,
				"z": 1.0783994686,
				"element": "O" 
			},
			{
				"x": -3.4371400819,
				"y": -0.2163632436,
				"z": -0.2300281519,
				"element": "O" 
			},
			{
				"x": 1.6885016739,
				"y": 2.1903224609,
				"z": -0.6079238691,
				"element": "H" 
			},
			{
				"x": -1.9832195698,
				"y": -2.0152302617,
				"z": -0.3511799799,
				"element": "H" 
			},
			{
				"x": 0.9822771954,
				"y": -3.8323758461,
				"z": -0.8564466577,
				"element": "H" 
			},
			{
				"x": 2.3196244232,
				"y": -1.976806493,
				"z": -0.4119577554,
				"element": "H" 
			},
			{
				"x": 2.2844690633,
				"y": 0.3970031446,
				"z": 0.1787644768,
				"element": "H" 
			},
			{
				"x": -1.9192174077,
				"y": 1.8550768478,
				"z": 1.4071151868,
				"element": "H" 
			}
		],
		 "valence_orbital": [ 
			{
				"type": "occ",
				"energy": -0.30636,
				"method": "rhf"
			},
			{
				"type": "occ",
				"energy": -0.30296,
				"method": "rhf"
			},
			{
				"type": "occ",
				"energy": -0.2876,
				"method": "rhf"
			},
			{
				"type": "occ",
				"energy": -0.26474,
				"method": "rhf"
			},
			{
				"type": "occ",
				"energy": -0.2615,
				"method": "rhf"
			},
			{
				"type": "unocc",
				"energy": -0.07363,
				"method": "rhf"
			},
			{
				"type": "unocc",
				"energy": -0.05317,
				"method": "rhf"
			},
			{
				"type": "unocc",
				"energy": 0.01507,
				"method": "rhf"
			},
			{
				"type": "unocc",
				"energy": 0.0399,
				"method": "rhf"
			},
			{
				"type": "unocc",
				"energy": 0.04261,
				"method": "rhf"
			}
		],
		"cosmo_sigma_profile": { 
			"-0.025": 0.0,
			"-0.024": 0.0,
			"-0.023": 0.0,
			"-0.022": 0.0,
			"-0.021": 0.0,
			"-0.02": 0.221606051982,
			"-0.019": 1.39497438545,
			"-0.018": 1.99533414011,
			"-0.017": 2.94673765862,
			"-0.016": 1.6393339219,
			"-0.015": 2.17184616645,
			"-0.014": 2.04596505229,
			"-0.013": 2.15828553241,
			"-0.012": 1.86981225564,
			"-0.011": 2.423893997,
			"-0.01": 2.70577459985,
			"-0.009": 3.41579414527,
			"-0.008": 5.96606161467,
			"-0.007": 7.0921420242,
			"-0.006": 6.51457189513,
			"-0.005": 5.52122857392,
			"-0.004": 7.51275763085,
			"-0.003": 8.54893708368,
			"-0.002": 8.46478474682,
			"-0.001": 9.94297887232,
			"0.0": 14.1569217814,
			"0.001": 16.7427106601,
			"0.002": 8.78465357923,
			"0.003": 5.72527130278,
			"0.004": 5.67601809348,
			"0.005": 6.04925289246,
			"0.006": 5.28155950969,
			"0.007": 7.02411973801,
			"0.008": 7.0138183638,
			"0.009": 8.73462174789,
			"0.01": 7.5208135463,
			"0.011": 6.98397417804,
			"0.012": 5.82365851903,
			"0.013": 2.37148343649,
			"0.014": 0.413860678802,
			"0.015": 0.0,
			"0.016": 0.0,
			"0.017": 0.0,
			"0.018": 0.0,
			"0.019": 0.0,
			"0.02": 0.0,
			"0.021": 0.0,
			"0.022": 0.0,
			"0.023": 0.0,
			"0.024": 0.0,
			"0.025": 0.0
		}
	}
}
