{
	 "smiles": "ON=C1CCCCCN1", 
	 "Tm": 442.15, 
	 "num_atms": 21, 
	 "gaussian": { 
		 "optdone": 1, 
		 "sigma_profile": "yes", 
		 "theory": "DFT", 
		 "functional": "B3LYP", 
		 "basiset": "6-31G**", 
		 "properties": { 
			 "R2extent": 1483.6812, 
			 "electric_dipole_moment_norm": 1.78269547035, 
			 "electric_quadrupole_moment_norm": 2.93439321155, 
			 "total_energy": -420.546294318, 
			 "HOMO_LUMO_gap": 0.22889, 
			 "cosmo_polarized_energy": -9.22, 
			 "cosmo_cavitation_energy": 22.25, 
			 "cosmo_dispersion_energy": -16.9, 
			 "cosmo_repulsion_energy": 1.4, 
			 "cosmo_total_nonelectrostatic_energy": 6.75, 
			 "SMD_solvation_energy": 2.06 
		},
		"coords": [
			{
				"x": -2.2311786577,
				"y": -2.8698987261,
				"z": -0.2625322855,
				"element": "O" 
			},
			{
				"x": -2.4693506035,
				"y": -1.4663345763,
				"z": -0.181136176,
				"element": "N" 
			},
			{
				"x": -1.3804637368,
				"y": -0.8147082708,
				"z": 0.0560314622,
				"element": "C" 
			},
			{
				"x": -0.0019375083,
				"y": -1.4177532815,
				"z": 0.1529456222,
				"element": "C" 
			},
			{
				"x": 0.7841133264,
				"y": -1.2904168241,
				"z": -1.1711386877,
				"element": "C" 
			},
			{
				"x": 1.303061674,
				"y": 0.1241764578,
				"z": -1.4699646525,
				"element": "C" 
			},
			{
				"x": 0.2406874709,
				"y": 1.2363393864,
				"z": -1.4972261745,
				"element": "C" 
			},
			{
				"x": -0.4462358361,
				"y": 1.4892179035,
				"z": -0.1409879013,
				"element": "C" 
			},
			{
				"x": -1.5092675461,
				"y": 0.5566451134,
				"z": 0.237172614,
				"element": "N" 
			},
			{
				"x": -3.1295462953,
				"y": -3.2035415141,
				"z": -0.3744963436,
				"element": "H" 
			},
			{
				"x": 0.5517348308,
				"y": -0.9349727537,
				"z": 0.967463041,
				"element": "H" 
			},
			{
				"x": -0.1197461462,
				"y": -2.4715626313,
				"z": 0.4082277792,
				"element": "H" 
			},
			{
				"x": 1.6402121773,
				"y": -1.9749494147,
				"z": -1.1354873956,
				"element": "H" 
			},
			{
				"x": 0.1432660896,
				"y": -1.638794656,
				"z": -1.9903300474,
				"element": "H" 
			},
			{
				"x": 1.8285608566,
				"y": 0.1099986513,
				"z": -2.4329998596,
				"element": "H" 
			},
			{
				"x": 2.0586922917,
				"y": 0.3907183156,
				"z": -0.7163803537,
				"element": "H" 
			},
			{
				"x": -0.5246757135,
				"y": 1.0197736782,
				"z": -2.2544410615,
				"element": "H" 
			},
			{
				"x": 0.7301223733,
				"y": 2.1692170053,
				"z": -1.8058104065,
				"element": "H" 
			},
			{
				"x": 0.3198413936,
				"y": 1.5108192303,
				"z": 0.6472839927,
				"element": "H" 
			},
			{
				"x": -0.9047490564,
				"y": 2.4827475729,
				"z": -0.1402315848,
				"element": "H" 
			},
			{
				"x": -2.4458413844,
				"y": 0.869679334,
				"z": 0.0121384192,
				"element": "H" 
			}
		],
		 "valence_orbital": [ 
			{
				"type": "occ",
				"energy": -0.32804,
				"method": "rhf"
			},
			{
				"type": "occ",
				"energy": -0.32247,
				"method": "rhf"
			},
			{
				"type": "occ",
				"energy": -0.28286,
				"method": "rhf"
			},
			{
				"type": "occ",
				"energy": -0.25416,
				"method": "rhf"
			},
			{
				"type": "occ",
				"energy": -0.19067,
				"method": "rhf"
			},
			{
				"type": "unocc",
				"energy": 0.03822,
				"method": "rhf"
			},
			{
				"type": "unocc",
				"energy": 0.08009,
				"method": "rhf"
			},
			{
				"type": "unocc",
				"energy": 0.08748,
				"method": "rhf"
			},
			{
				"type": "unocc",
				"energy": 0.10824,
				"method": "rhf"
			},
			{
				"type": "unocc",
				"energy": 0.11583,
				"method": "rhf"
			}
		],
		"cosmo_sigma_profile": { 
			"-0.025": 0.0,
			"-0.024": 0.0,
			"-0.023": 0.0,
			"-0.022": 0.0,
			"-0.021": 0.0,
			"-0.02": 0.0,
			"-0.019": 0.0,
			"-0.018": 0.0,
			"-0.017": 0.0252330963738,
			"-0.016": 0.62090490158,
			"-0.015": 0.754885648481,
			"-0.014": 1.2322774037,
			"-0.013": 0.590962254807,
			"-0.012": 1.07033329818,
			"-0.011": 1.56083109131,
			"-0.01": 1.55580304217,
			"-0.009": 1.7940402513,
			"-0.008": 1.15225970639,
			"-0.007": 2.15738662167,
			"-0.006": 2.33004548873,
			"-0.005": 3.55760381955,
			"-0.004": 8.20223045103,
			"-0.003": 19.8246284597,
			"-0.002": 26.0336008325,
			"-0.001": 27.0997058079,
			"0.0": 19.442688322,
			"0.001": 9.49737269912,
			"0.002": 2.82233363572,
			"0.003": 3.03009259763,
			"0.004": 3.51855984173,
			"0.005": 3.65004752124,
			"0.006": 3.90245136985,
			"0.007": 4.71036871925,
			"0.008": 3.71585559878,
			"0.009": 4.76574015841,
			"0.01": 5.06928994187,
			"0.011": 3.56253341757,
			"0.012": 1.58559980761,
			"0.013": 1.0010560714,
			"0.014": 1.36897005246,
			"0.015": 0.538864015024,
			"0.016": 0.0,
			"0.017": 0.0,
			"0.018": 0.0,
			"0.019": 0.0,
			"0.02": 0.0,
			"0.021": 0.0,
			"0.022": 0.0,
			"0.023": 0.0,
			"0.024": 0.0,
			"0.025": 0.0
		}
	}
}
