{
	 "smiles": "C[Si](C)(Cl)C(Cl)Cl", 
	 "Tm": 225.15, 
	 "num_atms": 14, 
	 "gaussian": { 
		 "optdone": 1, 
		 "sigma_profile": "yes", 
		 "theory": "DFT", 
		 "functional": "B3LYP", 
		 "basiset": "6-31G**", 
		 "properties": { 
			 "R2extent": 2305.2264, 
			 "electric_dipole_moment_norm": 3.89776356774, 
			 "electric_quadrupole_moment_norm": 6.21203368391, 
			 "total_energy": -1788.69306202, 
			 "HOMO_LUMO_gap": 0.26398, 
			 "cosmo_polarized_energy": -7.58, 
			 "cosmo_cavitation_energy": 23.93, 
			 "cosmo_dispersion_energy": -15.2, 
			 "cosmo_repulsion_energy": 1.39, 
			 "cosmo_total_nonelectrostatic_energy": 10.12, 
			 "SMD_solvation_energy": 4.13 
		},
		"coords": [
			{
				"x": -1.099992723,
				"y": -2.7051670884,
				"z": -0.5367909033,
				"element": "C" 
			},
			{
				"x": -0.6359509241,
				"y": -0.8960749447,
				"z": -0.3843679255,
				"element": "Si" 
			},
			{
				"x": 0.898246891,
				"y": -0.6108645522,
				"z": 0.6530591627,
				"element": "C" 
			},
			{
				"x": -0.3324969791,
				"y": -0.1050747792,
				"z": -2.2862653805,
				"element": "Cl" 
			},
			{
				"x": -2.1063906546,
				"y": 0.0440035998,
				"z": 0.4306890971,
				"element": "C" 
			},
			{
				"x": -3.6508282144,
				"y": -0.1976249164,
				"z": -0.4767435451,
				"element": "Cl" 
			},
			{
				"x": -1.7438927089,
				"y": 1.8000213947,
				"z": 0.6591693199,
				"element": "Cl" 
			},
			{
				"x": -1.988437044,
				"y": -2.8341911038,
				"z": -1.1601075098,
				"element": "H" 
			},
			{
				"x": -0.2784861192,
				"y": -3.2705999053,
				"z": -0.9879357646,
				"element": "H" 
			},
			{
				"x": -1.3062781982,
				"y": -3.1377942681,
				"z": 0.4489167942,
				"element": "H" 
			},
			{
				"x": 1.7521672381,
				"y": -1.1423602843,
				"z": 0.2212679011,
				"element": "H" 
			},
			{
				"x": 1.1470102923,
				"y": 0.4520189482,
				"z": 0.7068789527,
				"element": "H" 
			},
			{
				"x": 0.751266008,
				"y": -0.9812662511,
				"z": 1.6741082312,
				"element": "H" 
			},
			{
				"x": -2.294836864,
				"y": -0.3459258492,
				"z": 1.4328215701,
				"element": "H" 
			}
		],
		 "valence_orbital": [ 
			{
				"type": "occ",
				"energy": -0.32386,
				"method": "rhf"
			},
			{
				"type": "occ",
				"energy": -0.31793,
				"method": "rhf"
			},
			{
				"type": "occ",
				"energy": -0.31057,
				"method": "rhf"
			},
			{
				"type": "occ",
				"energy": -0.30724,
				"method": "rhf"
			},
			{
				"type": "occ",
				"energy": -0.28748,
				"method": "rhf"
			},
			{
				"type": "unocc",
				"energy": -0.0235,
				"method": "rhf"
			},
			{
				"type": "unocc",
				"energy": 0.00984,
				"method": "rhf"
			},
			{
				"type": "unocc",
				"energy": 0.03268,
				"method": "rhf"
			},
			{
				"type": "unocc",
				"energy": 0.05917,
				"method": "rhf"
			},
			{
				"type": "unocc",
				"energy": 0.07703,
				"method": "rhf"
			}
		],
		"cosmo_sigma_profile": { 
			"-0.025": 0.0,
			"-0.024": 0.0,
			"-0.023": 0.0,
			"-0.022": 0.0,
			"-0.021": 0.0,
			"-0.02": 0.0,
			"-0.019": 0.0,
			"-0.018": 0.0,
			"-0.017": 0.0,
			"-0.016": 0.0,
			"-0.015": 0.0,
			"-0.014": 0.0,
			"-0.013": 0.0,
			"-0.012": 0.0,
			"-0.011": 2.01148283477,
			"-0.01": 2.43771282481,
			"-0.009": 2.07910030969,
			"-0.008": 1.98316753461,
			"-0.007": 2.75625055502,
			"-0.006": 7.66086574676,
			"-0.005": 10.9705028623,
			"-0.004": 10.714245964,
			"-0.003": 10.9862195897,
			"-0.002": 13.7357887199,
			"-0.001": 18.4032048691,
			"0.0": 15.5402141371,
			"0.001": 12.3232606576,
			"0.002": 13.9084183474,
			"0.003": 15.0068967987,
			"0.004": 21.8910552896,
			"0.005": 25.9874201766,
			"0.006": 3.44191106951,
			"0.007": 0.0,
			"0.008": 0.0,
			"0.009": 0.0,
			"0.01": 0.0,
			"0.011": 0.0,
			"0.012": 0.0,
			"0.013": 0.0,
			"0.014": 0.0,
			"0.015": 0.0,
			"0.016": 0.0,
			"0.017": 0.0,
			"0.018": 0.0,
			"0.019": 0.0,
			"0.02": 0.0,
			"0.021": 0.0,
			"0.022": 0.0,
			"0.023": 0.0,
			"0.024": 0.0,
			"0.025": 0.0
		}
	}
}
