{
	 "smiles": "NC(CCCCP(O)(O)=O)C(O)=O", 
	 "Tm": 491.15, 
	 "num_atms": 27, 
	 "gaussian": { 
		 "optdone": 1, 
		 "sigma_profile": "yes", 
		 "theory": "DFT", 
		 "functional": "B3LYP", 
		 "basiset": "6-31G**", 
		 "properties": { 
			 "R2extent": 3840.6832, 
			 "electric_dipole_moment_norm": 4.88978685016, 
			 "electric_quadrupole_moment_norm": 29.266439633, 
			 "total_energy": -1009.3949527, 
			 "HOMO_LUMO_gap": 0.26457, 
			 "cosmo_polarized_energy": -26.37, 
			 "cosmo_cavitation_energy": 30.42, 
			 "cosmo_dispersion_energy": -21.87, 
			 "cosmo_repulsion_energy": 1.76, 
			 "cosmo_total_nonelectrostatic_energy": 10.31, 
			 "SMD_solvation_energy": 7.39 
		},
		"coords": [
			{
				"x": -1.4165722782,
				"y": 3.1491887345,
				"z": -0.7595292083,
				"element": "N" 
			},
			{
				"x": -2.2690915634,
				"y": 2.0599457302,
				"z": -1.2692954329,
				"element": "C" 
			},
			{
				"x": -2.5443413125,
				"y": 0.8673645629,
				"z": -0.3281071366,
				"element": "C" 
			},
			{
				"x": -1.3269419995,
				"y": 0.3261120544,
				"z": 0.4377922602,
				"element": "C" 
			},
			{
				"x": -0.1769947689,
				"y": -0.2085697637,
				"z": -0.4321276868,
				"element": "C" 
			},
			{
				"x": 1.0738464489,
				"y": -0.577668734,
				"z": 0.3969755496,
				"element": "C" 
			},
			{
				"x": 2.2371053598,
				"y": 0.7761864456,
				"z": 0.7168740709,
				"element": "P" 
			},
			{
				"x": 2.7690870105,
				"y": 1.063703075,
				"z": -0.7869088758,
				"element": "O" 
			},
			{
				"x": 1.3093072288,
				"y": 2.0982267319,
				"z": 1.0396835885,
				"element": "O" 
			},
			{
				"x": 3.2767489502,
				"y": 0.576464616,
				"z": 1.7589888849,
				"element": "O" 
			},
			{
				"x": -1.7205685934,
				"y": 1.6006530595,
				"z": -2.642992049,
				"element": "C" 
			},
			{
				"x": -0.8526387428,
				"y": 2.4656995528,
				"z": -3.184617886,
				"element": "O" 
			},
			{
				"x": -2.0752549717,
				"y": 0.5816508095,
				"z": -3.1911789495,
				"element": "O" 
			},
			{
				"x": -0.6491940285,
				"y": 2.8001673167,
				"z": -0.1876011812,
				"element": "H" 
			},
			{
				"x": -1.9462063337,
				"y": 3.8058219338,
				"z": -0.1958063201,
				"element": "H" 
			},
			{
				"x": -3.2392040634,
				"y": 2.5107980866,
				"z": -1.5167937885,
				"element": "H" 
			},
			{
				"x": -3.3006320839,
				"y": 1.1710696812,
				"z": 0.4059763437,
				"element": "H" 
			},
			{
				"x": -2.9912256664,
				"y": 0.0780896967,
				"z": -0.9411274829,
				"element": "H" 
			},
			{
				"x": -0.9423160277,
				"y": 1.1028337,
				"z": 1.1083044474,
				"element": "H" 
			},
			{
				"x": -1.6726792997,
				"y": -0.4839394827,
				"z": 1.0930908227,
				"element": "H" 
			},
			{
				"x": -0.5179034761,
				"y": -1.0962123607,
				"z": -0.9751378057,
				"element": "H" 
			},
			{
				"x": 0.1086869255,
				"y": 0.5111654991,
				"z": -1.205818799,
				"element": "H" 
			},
			{
				"x": 1.6719251954,
				"y": -1.3410471396,
				"z": -0.1117543311,
				"element": "H" 
			},
			{
				"x": 0.7970999218,
				"y": -0.9924999723,
				"z": 1.3727351304,
				"element": "H" 
			},
			{
				"x": 3.5489413425,
				"y": 1.6372400647,
				"z": -0.7894597236,
				"element": "H" 
			},
			{
				"x": 1.5994177628,
				"y": 2.4707674836,
				"z": 1.885419802,
				"element": "H" 
			},
			{
				"x": -0.7577009361,
				"y": 3.1733886183,
				"z": -2.4996842435,
				"element": "H" 
			}
		],
		 "valence_orbital": [ 
			{
				"type": "occ",
				"energy": -0.29788,
				"method": "rhf"
			},
			{
				"type": "occ",
				"energy": -0.29723,
				"method": "rhf"
			},
			{
				"type": "occ",
				"energy": -0.29336,
				"method": "rhf"
			},
			{
				"type": "occ",
				"energy": -0.28774,
				"method": "rhf"
			},
			{
				"type": "occ",
				"energy": -0.24797,
				"method": "rhf"
			},
			{
				"type": "unocc",
				"energy": 0.0166,
				"method": "rhf"
			},
			{
				"type": "unocc",
				"energy": 0.03077,
				"method": "rhf"
			},
			{
				"type": "unocc",
				"energy": 0.06031,
				"method": "rhf"
			},
			{
				"type": "unocc",
				"energy": 0.07109,
				"method": "rhf"
			},
			{
				"type": "unocc",
				"energy": 0.08731,
				"method": "rhf"
			}
		],
		"cosmo_sigma_profile": { 
			"-0.025": 0.0,
			"-0.024": 0.0,
			"-0.023": 0.0,
			"-0.022": 0.0,
			"-0.021": 0.0,
			"-0.02": 0.0,
			"-0.019": 0.931367349806,
			"-0.018": 1.6609511353,
			"-0.017": 1.75723831372,
			"-0.016": 2.31640875205,
			"-0.015": 1.10020684587,
			"-0.014": 1.29535219074,
			"-0.013": 1.76381083868,
			"-0.012": 1.69736480321,
			"-0.011": 2.85497345608,
			"-0.01": 3.32592748615,
			"-0.009": 3.86094646024,
			"-0.008": 3.93097755609,
			"-0.007": 9.63231939016,
			"-0.006": 11.5251486456,
			"-0.005": 11.1609816685,
			"-0.004": 15.9289146213,
			"-0.003": 18.970809269,
			"-0.002": 18.4772538194,
			"-0.001": 18.8785765445,
			"0.0": 13.9711963553,
			"0.001": 9.32773074157,
			"0.002": 5.74865439256,
			"0.003": 5.22156862887,
			"0.004": 6.50472250082,
			"0.005": 5.50213894958,
			"0.006": 5.83178261787,
			"0.007": 5.44779946683,
			"0.008": 4.87426308812,
			"0.009": 5.39217482186,
			"0.01": 5.67059308171,
			"0.011": 6.17649897938,
			"0.012": 5.82518245558,
			"0.013": 4.81061704024,
			"0.014": 5.18123659814,
			"0.015": 6.77954171915,
			"0.016": 0.599331408962,
			"0.017": 0.0,
			"0.018": 0.0,
			"0.019": 0.0,
			"0.02": 0.0,
			"0.021": 0.0,
			"0.022": 0.0,
			"0.023": 0.0,
			"0.024": 0.0,
			"0.025": 0.0
		}
	}
}
