{
	 "smiles": "CCCCCCCCCCCCCC#C", 
	 "Tm": 283.15, 
	 "num_atms": 43, 
	 "gaussian": { 
		 "optdone": 1, 
		 "sigma_profile": "yes", 
		 "theory": "DFT", 
		 "functional": "B3LYP", 
		 "basiset": "6-31G**", 
		 "properties": { 
			 "R2extent": 6393.0018, 
			 "electric_dipole_moment_norm": 0.562890282382, 
			 "electric_quadrupole_moment_norm": 5.01339440798, 
			 "total_energy": -588.434892264, 
			 "HOMO_LUMO_gap": 0.31297, 
			 "cosmo_polarized_energy": -3.88, 
			 "cosmo_cavitation_energy": 43.19, 
			 "cosmo_dispersion_energy": -27.77, 
			 "cosmo_repulsion_energy": 2.27, 
			 "cosmo_total_nonelectrostatic_energy": 17.69, 
			 "SMD_solvation_energy": 7.04 
		},
		"coords": [
			{
				"x": 1.6214909541,
				"y": -1.125187775,
				"z": -3.7585589277,
				"element": "C" 
			},
			{
				"x": 2.9840567036,
				"y": -0.9993981492,
				"z": -3.0635841434,
				"element": "C" 
			},
			{
				"x": 3.3517643665,
				"y": -2.1570863245,
				"z": -2.1098323262,
				"element": "C" 
			},
			{
				"x": 2.8813409206,
				"y": -2.0202422164,
				"z": -0.64968468,
				"element": "C" 
			},
			{
				"x": 1.3620801305,
				"y": -2.0556977346,
				"z": -0.4214776854,
				"element": "C" 
			},
			{
				"x": 0.9462161104,
				"y": -2.1548767376,
				"z": 1.0572069733,
				"element": "C" 
			},
			{
				"x": 1.29609308,
				"y": -0.9201381759,
				"z": 1.9014709887,
				"element": "C" 
			},
			{
				"x": 0.9019489839,
				"y": -1.030000042,
				"z": 3.385780947,
				"element": "C" 
			},
			{
				"x": -0.6021336299,
				"y": -1.1967213227,
				"z": 3.6770479301,
				"element": "C" 
			},
			{
				"x": -1.5152300902,
				"y": -0.0838571607,
				"z": 3.1328711448,
				"element": "C" 
			},
			{
				"x": -1.2184802519,
				"y": 1.3105346041,
				"z": 3.7032352619,
				"element": "C" 
			},
			{
				"x": -2.2096716187,
				"y": 2.3993633655,
				"z": 3.2664477405,
				"element": "C" 
			},
			{
				"x": -2.2402149023,
				"y": 2.6785538808,
				"z": 1.7445401206,
				"element": "C" 
			},
			{
				"x": -0.9420105626,
				"y": 3.0685613621,
				"z": 1.1914245566,
				"element": "C" 
			},
			{
				"x": 0.1361542139,
				"y": 3.3861541273,
				"z": 0.7469385235,
				"element": "C" 
			},
			{
				"x": 1.4542023609,
				"y": -0.2893199431,
				"z": -4.4466832422,
				"element": "H" 
			},
			{
				"x": 0.7905765641,
				"y": -1.1383674921,
				"z": -3.0480251735,
				"element": "H" 
			},
			{
				"x": 1.5677851603,
				"y": -2.0504053607,
				"z": -4.3441006756,
				"element": "H" 
			},
			{
				"x": 3.7544802298,
				"y": -0.9331608951,
				"z": -3.8424146774,
				"element": "H" 
			},
			{
				"x": 3.0344419262,
				"y": -0.0484660264,
				"z": -2.5151704362,
				"element": "H" 
			},
			{
				"x": 4.4450277256,
				"y": -2.2522253574,
				"z": -2.0894403202,
				"element": "H" 
			},
			{
				"x": 2.9785993243,
				"y": -3.1033406176,
				"z": -2.5277695034,
				"element": "H" 
			},
			{
				"x": 3.3352532442,
				"y": -2.836674279,
				"z": -0.0696119135,
				"element": "H" 
			},
			{
				"x": 3.2971009338,
				"y": -1.0918006811,
				"z": -0.236078098,
				"element": "H" 
			},
			{
				"x": 0.9440021951,
				"y": -2.9158564165,
				"z": -0.9623441931,
				"element": "H" 
			},
			{
				"x": 0.8960219895,
				"y": -1.163650486,
				"z": -0.8593919698,
				"element": "H" 
			},
			{
				"x": -0.1363209392,
				"y": -2.3297542922,
				"z": 1.099479697,
				"element": "H" 
			},
			{
				"x": 1.4138961122,
				"y": -3.0441629284,
				"z": 1.505399904,
				"element": "H" 
			},
			{
				"x": 2.3776348332,
				"y": -0.7422782333,
				"z": 1.854715936,
				"element": "H" 
			},
			{
				"x": 0.829634477,
				"y": -0.0314507377,
				"z": 1.4545681908,
				"element": "H" 
			},
			{
				"x": 1.4322810027,
				"y": -1.8835622989,
				"z": 3.8302112128,
				"element": "H" 
			},
			{
				"x": 1.2759486452,
				"y": -0.1426079685,
				"z": 3.9117870063,
				"element": "H" 
			},
			{
				"x": -0.9470046572,
				"y": -2.1583848884,
				"z": 3.2767858595,
				"element": "H" 
			},
			{
				"x": -0.7353363606,
				"y": -1.2631154577,
				"z": 4.7657111647,
				"element": "H" 
			},
			{
				"x": -2.5576105918,
				"y": -0.3478869761,
				"z": 3.3609466294,
				"element": "H" 
			},
			{
				"x": -1.4439847769,
				"y": -0.0596162365,
				"z": 2.0381416522,
				"element": "H" 
			},
			{
				"x": -0.2074998577,
				"y": 1.6245216069,
				"z": 3.4185967366,
				"element": "H" 
			},
			{
				"x": -1.2273541009,
				"y": 1.2560167498,
				"z": 4.8004474154,
				"element": "H" 
			},
			{
				"x": -3.2264298208,
				"y": 2.1226434009,
				"z": 3.5745934989,
				"element": "H" 
			},
			{
				"x": -1.9673171196,
				"y": 3.3343320465,
				"z": 3.7849538379,
				"element": "H" 
			},
			{
				"x": -2.9699560822,
				"y": 3.4731965684,
				"z": 1.5424021052,
				"element": "H" 
			},
			{
				"x": -2.60484332,
				"y": 1.792572302,
				"z": 1.2096070111,
				"element": "H" 
			},
			{
				"x": 1.0813664947,
				"y": 3.6744431972,
				"z": 0.3494559211,
				"element": "H" 
			}
		],
		 "valence_orbital": [ 
			{
				"type": "occ",
				"energy": -0.30308,
				"method": "rhf"
			},
			{
				"type": "occ",
				"energy": -0.29438,
				"method": "rhf"
			},
			{
				"type": "occ",
				"energy": -0.29262,
				"method": "rhf"
			},
			{
				"type": "occ",
				"energy": -0.25954,
				"method": "rhf"
			},
			{
				"type": "occ",
				"energy": -0.25894,
				"method": "rhf"
			},
			{
				"type": "unocc",
				"energy": 0.05403,
				"method": "rhf"
			},
			{
				"type": "unocc",
				"energy": 0.05989,
				"method": "rhf"
			},
			{
				"type": "unocc",
				"energy": 0.08259,
				"method": "rhf"
			},
			{
				"type": "unocc",
				"energy": 0.09244,
				"method": "rhf"
			},
			{
				"type": "unocc",
				"energy": 0.10663,
				"method": "rhf"
			}
		],
		"cosmo_sigma_profile": { 
			"-0.025": 0.0,
			"-0.024": 0.0,
			"-0.023": 0.0,
			"-0.022": 0.0,
			"-0.021": 0.0,
			"-0.02": 0.0,
			"-0.019": 0.0,
			"-0.018": 0.0,
			"-0.017": 0.0,
			"-0.016": 0.0,
			"-0.015": 0.0,
			"-0.014": 0.0,
			"-0.013": 0.0,
			"-0.012": 0.0,
			"-0.011": 0.678953300497,
			"-0.01": 1.31997750765,
			"-0.009": 0.709498428815,
			"-0.008": 1.11744777117,
			"-0.007": 1.581778674,
			"-0.006": 0.976388899145,
			"-0.005": 3.99223633142,
			"-0.004": 5.55290184436,
			"-0.003": 11.9905043479,
			"-0.002": 40.0563354785,
			"-0.001": 68.5174918629,
			"0.0": 73.7350645748,
			"0.001": 62.7832895602,
			"0.002": 29.4407739538,
			"0.003": 6.21096596603,
			"0.004": 5.28659987235,
			"0.005": 5.91182438068,
			"0.006": 4.39150858783,
			"0.007": 5.53732923256,
			"0.008": 3.1148068824,
			"0.009": 0.0,
			"0.01": 0.0,
			"0.011": 0.0,
			"0.012": 0.0,
			"0.013": 0.0,
			"0.014": 0.0,
			"0.015": 0.0,
			"0.016": 0.0,
			"0.017": 0.0,
			"0.018": 0.0,
			"0.019": 0.0,
			"0.02": 0.0,
			"0.021": 0.0,
			"0.022": 0.0,
			"0.023": 0.0,
			"0.024": 0.0,
			"0.025": 0.0
		}
	}
}
