{
	 "smiles": "NC1=C(C(=NO1)C1=CC=C(Br)S1)C1=CC=C(F)C=C1", 
	 "Tm": 415.15, 
	 "num_atms": 27, 
	 "gaussian": { 
		 "optdone": 1, 
		 "sigma_profile": "yes", 
		 "theory": "DFT", 
		 "functional": "B3LYP", 
		 "basiset": "6-31G**", 
		 "properties": { 
			 "R2extent": 9573.8032, 
			 "electric_dipole_moment_norm": 3.28666134094, 
			 "electric_quadrupole_moment_norm": 15.6627602842, 
			 "total_energy": -3754.29284042, 
			 "HOMO_LUMO_gap": 0.17019, 
			 "cosmo_polarized_energy": -13.64, 
			 "cosmo_cavitation_energy": 36.82, 
			 "cosmo_dispersion_energy": -26.65, 
			 "cosmo_repulsion_energy": 2.01, 
			 "cosmo_total_nonelectrostatic_energy": 12.18, 
			 "SMD_solvation_energy": 5.17 
		},
		"coords": [
			{
				"x": -0.388202015,
				"y": 0.2474231291,
				"z": 3.159821226,
				"element": "N" 
			},
			{
				"x": 0.3117953856,
				"y": -0.3172050869,
				"z": 2.1252401109,
				"element": "C" 
			},
			{
				"x": 0.1277890109,
				"y": -0.2931227899,
				"z": 0.7589109086,
				"element": "C" 
			},
			{
				"x": 1.250698555,
				"y": -1.053187429,
				"z": 0.2848752026,
				"element": "C" 
			},
			{
				"x": 2.0275867824,
				"y": -1.4787559614,
				"z": 1.2666966957,
				"element": "N" 
			},
			{
				"x": 1.4089519182,
				"y": -1.0138344525,
				"z": 2.4505059289,
				"element": "O" 
			},
			{
				"x": 1.643870381,
				"y": -1.3994259381,
				"z": -1.0812983788,
				"element": "C" 
			},
			{
				"x": 2.3559628944,
				"y": -2.5108111003,
				"z": -1.4672990212,
				"element": "C" 
			},
			{
				"x": 2.6756742333,
				"y": -2.5342862862,
				"z": -2.8538811168,
				"element": "C" 
			},
			{
				"x": 2.2040548469,
				"y": -1.4267657745,
				"z": -3.5036978484,
				"element": "C" 
			},
			{
				"x": 2.3651956961,
				"y": -1.0380393956,
				"z": -5.3411811745,
				"element": "Br" 
			},
			{
				"x": 1.3579934353,
				"y": -0.3373879342,
				"z": -2.4466164937,
				"element": "S" 
			},
			{
				"x": -1.0081087968,
				"y": 0.3176353841,
				"z": 0.0448815916,
				"element": "C" 
			},
			{
				"x": -1.4123448201,
				"y": 1.6326361218,
				"z": 0.3413898821,
				"element": "C" 
			},
			{
				"x": -2.5155944221,
				"y": 2.2102137597,
				"z": -0.287066617,
				"element": "C" 
			},
			{
				"x": -3.2103351984,
				"y": 1.4659580257,
				"z": -1.2326335681,
				"element": "C" 
			},
			{
				"x": -4.2748324919,
				"y": 2.0183771712,
				"z": -1.8498680698,
				"element": "F" 
			},
			{
				"x": -2.8394285113,
				"y": 0.1655536405,
				"z": -1.5590831568,
				"element": "C" 
			},
			{
				"x": -1.7455538003,
				"y": -0.4041323895,
				"z": -0.912279192,
				"element": "C" 
			},
			{
				"x": -0.2625766681,
				"y": -0.2047379559,
				"z": 4.0558022842,
				"element": "H" 
			},
			{
				"x": -1.3492512544,
				"y": 0.4751675961,
				"z": 2.9428044285,
				"element": "H" 
			},
			{
				"x": 2.6416383482,
				"y": -3.2829095726,
				"z": -0.7633466846,
				"element": "H" 
			},
			{
				"x": 3.2198373729,
				"y": -3.3296280364,
				"z": -3.3471170912,
				"element": "H" 
			},
			{
				"x": -0.8435261678,
				"y": 2.2155525098,
				"z": 1.0600898148,
				"element": "H" 
			},
			{
				"x": -2.8296006943,
				"y": 3.2245493665,
				"z": -0.065541081,
				"element": "H" 
			},
			{
				"x": -3.4105466619,
				"y": -0.3844815538,
				"z": -2.2991527489,
				"element": "H" 
			},
			{
				"x": -1.4609473581,
				"y": -1.4249550476,
				"z": -1.1455558312,
				"element": "H" 
			}
		],
		 "valence_orbital": [ 
			{
				"type": "occ",
				"energy": -0.27184,
				"method": "rhf"
			},
			{
				"type": "occ",
				"energy": -0.26301,
				"method": "rhf"
			},
			{
				"type": "occ",
				"energy": -0.25921,
				"method": "rhf"
			},
			{
				"type": "occ",
				"energy": -0.22343,
				"method": "rhf"
			},
			{
				"type": "occ",
				"energy": -0.21491,
				"method": "rhf"
			},
			{
				"type": "unocc",
				"energy": -0.04472,
				"method": "rhf"
			},
			{
				"type": "unocc",
				"energy": -0.02197,
				"method": "rhf"
			},
			{
				"type": "unocc",
				"energy": -0.0177,
				"method": "rhf"
			},
			{
				"type": "unocc",
				"energy": -0.00439,
				"method": "rhf"
			},
			{
				"type": "unocc",
				"energy": 0.01314,
				"method": "rhf"
			}
		],
		"cosmo_sigma_profile": { 
			"-0.025": 0.0,
			"-0.024": 0.0,
			"-0.023": 0.0,
			"-0.022": 0.0,
			"-0.021": 0.0,
			"-0.02": 0.0,
			"-0.019": 0.0,
			"-0.018": 0.0,
			"-0.017": 0.0,
			"-0.016": 0.0,
			"-0.015": 0.599265799796,
			"-0.014": 1.91858350267,
			"-0.013": 2.58452476795,
			"-0.012": 2.15176662388,
			"-0.011": 2.29627464457,
			"-0.01": 2.2739328992,
			"-0.009": 2.34453641265,
			"-0.008": 4.3674289617,
			"-0.007": 8.70222650664,
			"-0.006": 12.4615334813,
			"-0.005": 15.1614874471,
			"-0.004": 13.3491854266,
			"-0.003": 12.8200419988,
			"-0.002": 15.9198613082,
			"-0.001": 17.6307784969,
			"0.0": 25.7812268575,
			"0.001": 35.3614505615,
			"0.002": 37.6248597692,
			"0.003": 36.6624822885,
			"0.004": 21.2597660473,
			"0.005": 7.39242403066,
			"0.006": 3.85001580813,
			"0.007": 3.14886571544,
			"0.008": 5.69114578519,
			"0.009": 2.92858961367,
			"0.01": 2.06641971411,
			"0.011": 1.55384253404,
			"0.012": 1.5148499619,
			"0.013": 1.34773987832,
			"0.014": 0.81883968405,
			"0.015": 0.205720466605,
			"0.016": 0.0,
			"0.017": 0.0,
			"0.018": 0.0,
			"0.019": 0.0,
			"0.02": 0.0,
			"0.021": 0.0,
			"0.022": 0.0,
			"0.023": 0.0,
			"0.024": 0.0,
			"0.025": 0.0
		}
	}
}
