{
	 "smiles": "[O-][N+](=O)C1=C(NCC2=CC=CC=C2)C=C(Cl)C2=NON=C12", 
	 "Tm": 410.15, 
	 "num_atms": 30, 
	 "gaussian": { 
		 "optdone": 1, 
		 "sigma_profile": "yes", 
		 "theory": "DFT", 
		 "functional": "B3LYP", 
		 "basiset": "6-31G**", 
		 "properties": { 
			 "R2extent": 8308.454, 
			 "electric_dipole_moment_norm": 8.05350759173, 
			 "electric_quadrupole_moment_norm": 24.7610223325, 
			 "total_energy": -1405.47794236, 
			 "HOMO_LUMO_gap": 0.13312, 
			 "cosmo_polarized_energy": -19.44, 
			 "cosmo_cavitation_energy": 37.42, 
			 "cosmo_dispersion_energy": -26.6, 
			 "cosmo_repulsion_energy": 2.03, 
			 "cosmo_total_nonelectrostatic_energy": 12.85, 
			 "SMD_solvation_energy": 7.04 
		},
		"coords": [
			{
				"x": 2.7553578962,
				"y": 1.6162788221,
				"z": 1.625077615,
				"element": "O" 
			},
			{
				"x": 3.3622737815,
				"y": 1.5326221111,
				"z": 0.5268907322,
				"element": "N" 
			},
			{
				"x": 4.3994658572,
				"y": 2.1481121398,
				"z": 0.2964271174,
				"element": "O" 
			},
			{
				"x": 2.8298862168,
				"y": 0.694468599,
				"z": -0.4992344931,
				"element": "C" 
			},
			{
				"x": 1.6415584011,
				"y": -0.0626529185,
				"z": -0.3274355147,
				"element": "C" 
			},
			{
				"x": 0.9442674609,
				"y": -0.0516059844,
				"z": 0.8253766335,
				"element": "N" 
			},
			{
				"x": -0.2537018624,
				"y": -0.8258619177,
				"z": 1.1254642461,
				"element": "C" 
			},
			{
				"x": -1.5268464879,
				"y": -0.3498840838,
				"z": 0.4377951743,
				"element": "C" 
			},
			{
				"x": -1.7688501578,
				"y": 1.0116435882,
				"z": 0.2197360921,
				"element": "C" 
			},
			{
				"x": -2.9622776334,
				"y": 1.4303445516,
				"z": -0.3688332586,
				"element": "C" 
			},
			{
				"x": -3.928501825,
				"y": 0.4939302186,
				"z": -0.7433567729,
				"element": "C" 
			},
			{
				"x": -3.6943388635,
				"y": -0.8648045656,
				"z": -0.5283224755,
				"element": "C" 
			},
			{
				"x": -2.4980019751,
				"y": -1.2833555242,
				"z": 0.0570175037,
				"element": "C" 
			},
			{
				"x": 1.1529262496,
				"y": -0.8844928153,
				"z": -1.4232755114,
				"element": "C" 
			},
			{
				"x": 1.7989009204,
				"y": -0.9792720779,
				"z": -2.6150806808,
				"element": "C" 
			},
			{
				"x": 1.1881843756,
				"y": -1.9669299258,
				"z": -3.9018089623,
				"element": "Cl" 
			},
			{
				"x": 3.0051430229,
				"y": -0.2353873503,
				"z": -2.8020124887,
				"element": "C" 
			},
			{
				"x": 3.794557462,
				"y": -0.167193261,
				"z": -3.8517336412,
				"element": "N" 
			},
			{
				"x": 4.7797813828,
				"y": 0.6863767528,
				"z": -3.4808006274,
				"element": "O" 
			},
			{
				"x": 4.6301632258,
				"y": 1.1710000749,
				"z": -2.1950710814,
				"element": "N" 
			},
			{
				"x": 3.5191479283,
				"y": 0.601692938,
				"z": -1.7537121223,
				"element": "C" 
			},
			{
				"x": 1.3594383333,
				"y": 0.5522435413,
				"z": 1.535519553,
				"element": "H" 
			},
			{
				"x": -0.0850586835,
				"y": -1.8862650602,
				"z": 0.9008800098,
				"element": "H" 
			},
			{
				"x": -0.3775176253,
				"y": -0.7636985109,
				"z": 2.2120204958,
				"element": "H" 
			},
			{
				"x": -1.0188817438,
				"y": 1.7438635618,
				"z": 0.5053119907,
				"element": "H" 
			},
			{
				"x": -3.1372293911,
				"y": 2.4892228463,
				"z": -0.5354196898,
				"element": "H" 
			},
			{
				"x": -4.8559147039,
				"y": 0.8215332902,
				"z": -1.2035362881,
				"element": "H" 
			},
			{
				"x": -4.4375405713,
				"y": -1.6003149384,
				"z": -0.821931653,
				"element": "H" 
			},
			{
				"x": -2.3194022391,
				"y": -2.3441957407,
				"z": 0.2193368278,
				"element": "H" 
			},
			{
				"x": 0.2239112486,
				"y": -1.4204183611,
				"z": -1.2862887301,
				"element": "H" 
			}
		],
		 "valence_orbital": [ 
			{
				"type": "occ",
				"energy": -0.28618,
				"method": "rhf"
			},
			{
				"type": "occ",
				"energy": -0.28281,
				"method": "rhf"
			},
			{
				"type": "occ",
				"energy": -0.27134,
				"method": "rhf"
			},
			{
				"type": "occ",
				"energy": -0.26742,
				"method": "rhf"
			},
			{
				"type": "occ",
				"energy": -0.24645,
				"method": "rhf"
			},
			{
				"type": "unocc",
				"energy": -0.11333,
				"method": "rhf"
			},
			{
				"type": "unocc",
				"energy": -0.06662,
				"method": "rhf"
			},
			{
				"type": "unocc",
				"energy": -0.02656,
				"method": "rhf"
			},
			{
				"type": "unocc",
				"energy": -0.02434,
				"method": "rhf"
			},
			{
				"type": "unocc",
				"energy": -0.0083,
				"method": "rhf"
			}
		],
		"cosmo_sigma_profile": { 
			"-0.025": 0.0,
			"-0.024": 0.0,
			"-0.023": 0.0,
			"-0.022": 0.0,
			"-0.021": 0.0,
			"-0.02": 0.0,
			"-0.019": 0.0,
			"-0.018": 0.0,
			"-0.017": 0.0,
			"-0.016": 0.0,
			"-0.015": 0.0,
			"-0.014": 0.0,
			"-0.013": 0.199419046759,
			"-0.012": 0.829639024361,
			"-0.011": 0.965481371666,
			"-0.01": 1.33572318906,
			"-0.009": 2.96932106629,
			"-0.008": 5.74939390089,
			"-0.007": 7.88952664557,
			"-0.006": 16.3068791868,
			"-0.005": 25.8386023794,
			"-0.004": 30.0917686565,
			"-0.003": 27.9855749107,
			"-0.002": 21.4406366374,
			"-0.001": 14.3121666536,
			"0.0": 16.0653442905,
			"0.001": 16.7915361881,
			"0.002": 20.1998683097,
			"0.003": 15.0882491256,
			"0.004": 16.5351121692,
			"0.005": 17.8813913648,
			"0.006": 9.69211525141,
			"0.007": 5.19252152087,
			"0.008": 7.17955470817,
			"0.009": 8.93856667334,
			"0.01": 7.26245456317,
			"0.011": 3.63178585791,
			"0.012": 1.85511960866,
			"0.013": 1.43615836455,
			"0.014": 0.516520745091,
			"0.015": 0.0,
			"0.016": 0.0,
			"0.017": 0.0,
			"0.018": 0.0,
			"0.019": 0.0,
			"0.02": 0.0,
			"0.021": 0.0,
			"0.022": 0.0,
			"0.023": 0.0,
			"0.024": 0.0,
			"0.025": 0.0
		}
	}
}
