{
	 "smiles": "CCC(=O)NC", 
	 "Tm": 242.25, 
	 "num_atms": 15, 
	 "gaussian": { 
		 "optdone": 1, 
		 "sigma_profile": "yes", 
		 "theory": "DFT", 
		 "functional": "B3LYP", 
		 "basiset": "6-31G**", 
		 "properties": { 
			 "R2extent": 1113.8532, 
			 "electric_dipole_moment_norm": 3.75414634371, 
			 "electric_quadrupole_moment_norm": 9.29584166657, 
			 "total_energy": -287.843104513, 
			 "HOMO_LUMO_gap": 0.27696, 
			 "cosmo_polarized_energy": -10.56, 
			 "cosmo_cavitation_energy": 17.94, 
			 "cosmo_dispersion_energy": -13.3, 
			 "cosmo_repulsion_energy": 1.17, 
			 "cosmo_total_nonelectrostatic_energy": 5.81, 
			 "SMD_solvation_energy": 3.62 
		},
		"coords": [
			{
				"x": -1.1075953578,
				"y": -1.8425550249,
				"z": 2.3493508484,
				"element": "C" 
			},
			{
				"x": -1.3975050019,
				"y": -0.6545218877,
				"z": 1.4345248348,
				"element": "C" 
			},
			{
				"x": -1.2510360934,
				"y": -1.0138080844,
				"z": -0.0427264258,
				"element": "C" 
			},
			{
				"x": -0.926086141,
				"y": -2.1322707411,
				"z": -0.4236111098,
				"element": "O" 
			},
			{
				"x": -1.4995209541,
				"y": -0.0060362827,
				"z": -0.939305129,
				"element": "N" 
			},
			{
				"x": -1.9319041084,
				"y": 1.348298833,
				"z": -0.6452797891,
				"element": "C" 
			},
			{
				"x": -0.0920897305,
				"y": -2.2141190119,
				"z": 2.1926387652,
				"element": "H" 
			},
			{
				"x": -1.7893344045,
				"y": -2.670194775,
				"z": 2.1389612453,
				"element": "H" 
			},
			{
				"x": -1.217989192,
				"y": -1.5563244478,
				"z": 3.3996781211,
				"element": "H" 
			},
			{
				"x": -2.4122154442,
				"y": -0.2700686115,
				"z": 1.6064414778,
				"element": "H" 
			},
			{
				"x": -0.7245512769,
				"y": 0.1835170524,
				"z": 1.6620880366,
				"element": "H" 
			},
			{
				"x": -1.4103792053,
				"y": -0.2915940941,
				"z": -1.9042611346,
				"element": "H" 
			},
			{
				"x": -1.9841426312,
				"y": 1.9076249902,
				"z": -1.5815146208,
				"element": "H" 
			},
			{
				"x": -2.9252801117,
				"y": 1.3821140564,
				"z": -0.1793436669,
				"element": "H" 
			},
			{
				"x": -1.2282703473,
				"y": 1.8702380292,
				"z": 0.0136585469,
				"element": "H" 
			}
		],
		 "valence_orbital": [ 
			{
				"type": "occ",
				"energy": -0.36809,
				"method": "rhf"
			},
			{
				"type": "occ",
				"energy": -0.3532,
				"method": "rhf"
			},
			{
				"type": "occ",
				"energy": -0.3383,
				"method": "rhf"
			},
			{
				"type": "occ",
				"energy": -0.24437,
				"method": "rhf"
			},
			{
				"type": "occ",
				"energy": -0.23981,
				"method": "rhf"
			},
			{
				"type": "unocc",
				"energy": 0.03715,
				"method": "rhf"
			},
			{
				"type": "unocc",
				"energy": 0.07872,
				"method": "rhf"
			},
			{
				"type": "unocc",
				"energy": 0.09174,
				"method": "rhf"
			},
			{
				"type": "unocc",
				"energy": 0.12365,
				"method": "rhf"
			},
			{
				"type": "unocc",
				"energy": 0.1245,
				"method": "rhf"
			}
		],
		"cosmo_sigma_profile": { 
			"-0.025": 0.0,
			"-0.024": 0.0,
			"-0.023": 0.0,
			"-0.022": 0.0,
			"-0.021": 0.0,
			"-0.02": 0.0,
			"-0.019": 0.0,
			"-0.018": 0.0,
			"-0.017": 0.0,
			"-0.016": 0.0,
			"-0.015": 0.0,
			"-0.014": 0.0733022098385,
			"-0.013": 0.980559334102,
			"-0.012": 1.07496473314,
			"-0.011": 0.441820081918,
			"-0.01": 1.69224019623,
			"-0.009": 1.02239378559,
			"-0.008": 1.14684246309,
			"-0.007": 1.4148316043,
			"-0.006": 3.358444529,
			"-0.005": 11.3136781107,
			"-0.004": 12.5195261897,
			"-0.003": 14.7148706061,
			"-0.002": 19.180139834,
			"-0.001": 16.2520261775,
			"0.0": 9.44811044843,
			"0.001": 10.7105468339,
			"0.002": 5.08900325102,
			"0.003": 2.76527191912,
			"0.004": 2.42171466927,
			"0.005": 2.5128880202,
			"0.006": 1.23847113408,
			"0.007": 1.75809210629,
			"0.008": 1.18172568498,
			"0.009": 1.49114499474,
			"0.01": 1.50822281533,
			"0.011": 1.43485307885,
			"0.012": 1.2511458395,
			"0.013": 2.44681352923,
			"0.014": 4.84223875484,
			"0.015": 4.00937693036,
			"0.016": 0.169507090612,
			"0.017": 0.0,
			"0.018": 0.0,
			"0.019": 0.0,
			"0.02": 0.0,
			"0.021": 0.0,
			"0.022": 0.0,
			"0.023": 0.0,
			"0.024": 0.0,
			"0.025": 0.0
		}
	}
}
