{
	 "smiles": "CC(OC1=CC=C(C)C=C1)C(O)=O", 
	 "Tm": 375.15, 
	 "num_atms": 25, 
	 "gaussian": { 
		 "optdone": 1, 
		 "sigma_profile": "yes", 
		 "theory": "DFT", 
		 "functional": "B3LYP", 
		 "basiset": "6-31G**", 
		 "properties": { 
			 "R2extent": 3363.2225, 
			 "electric_dipole_moment_norm": 3.90443559173, 
			 "electric_quadrupole_moment_norm": 15.6037882054, 
			 "total_energy": -613.979446596, 
			 "HOMO_LUMO_gap": 0.21568, 
			 "cosmo_polarized_energy": -11.56, 
			 "cosmo_cavitation_energy": 28.75, 
			 "cosmo_dispersion_energy": -20.55, 
			 "cosmo_repulsion_energy": 1.65, 
			 "cosmo_total_nonelectrostatic_energy": 9.85, 
			 "SMD_solvation_energy": 6.3 
		},
		"coords": [
			{
				"x": -0.8343825628,
				"y": 2.9304602993,
				"z": -2.1237648833,
				"element": "C" 
			},
			{
				"x": -0.7651173223,
				"y": 2.1774569126,
				"z": -0.7962168038,
				"element": "C" 
			},
			{
				"x": -1.3202840016,
				"y": 0.8733759973,
				"z": -1.0110948726,
				"element": "O" 
			},
			{
				"x": -0.8994907286,
				"y": -0.171775023,
				"z": -0.2034032001,
				"element": "C" 
			},
			{
				"x": -0.2528448463,
				"y": -0.0112389972,
				"z": 1.0228651224,
				"element": "C" 
			},
			{
				"x": 0.1066539767,
				"y": -1.1459858814,
				"z": 1.7583922767,
				"element": "C" 
			},
			{
				"x": -0.1680652846,
				"y": -2.4379837711,
				"z": 1.3043725583,
				"element": "C" 
			},
			{
				"x": 0.2322403668,
				"y": -3.6570747767,
				"z": 2.1017921735,
				"element": "C" 
			},
			{
				"x": -0.827426851,
				"y": -2.5686907047,
				"z": 0.0710704566,
				"element": "C" 
			},
			{
				"x": -1.1884644465,
				"y": -1.4557219885,
				"z": -0.6789438811,
				"element": "C" 
			},
			{
				"x": -1.5529618575,
				"y": 2.9387620979,
				"z": 0.283871975,
				"element": "C" 
			},
			{
				"x": -2.7908609351,
				"y": 2.4629936992,
				"z": 0.5167530518,
				"element": "O" 
			},
			{
				"x": -1.1130253248,
				"y": 3.9150955524,
				"z": 0.8398049522,
				"element": "O" 
			},
			{
				"x": -0.449781314,
				"y": 3.9441839202,
				"z": -1.9899448456,
				"element": "H" 
			},
			{
				"x": -1.8676233944,
				"y": 2.9901813723,
				"z": -2.4780923196,
				"element": "H" 
			},
			{
				"x": -0.2360689244,
				"y": 2.4133917199,
				"z": -2.8776809041,
				"element": "H" 
			},
			{
				"x": 0.2737179511,
				"y": 2.100634672,
				"z": -0.4612573118,
				"element": "H" 
			},
			{
				"x": -0.0361977801,
				"y": 0.9718373819,
				"z": 1.4257185054,
				"element": "H" 
			},
			{
				"x": 0.6080732979,
				"y": -1.0101073484,
				"z": 2.7130861619,
				"element": "H" 
			},
			{
				"x": 0.6281671929,
				"y": -3.3792961116,
				"z": 3.0824504004,
				"element": "H" 
			},
			{
				"x": 1.005816904,
				"y": -4.2376124809,
				"z": 1.5848623323,
				"element": "H" 
			},
			{
				"x": -0.6188360114,
				"y": -4.3281492623,
				"z": 2.2628261567,
				"element": "H" 
			},
			{
				"x": -1.0574230182,
				"y": -3.5603620557,
				"z": -0.3110311942,
				"element": "H" 
			},
			{
				"x": -1.6909314832,
				"y": -1.5583743124,
				"z": -1.6354144112,
				"element": "H" 
			},
			{
				"x": -2.9006836026,
				"y": 1.6592990886,
				"z": -0.0229214957,
				"element": "H" 
			}
		],
		 "valence_orbital": [ 
			{
				"type": "occ",
				"energy": -0.33461,
				"method": "rhf"
			},
			{
				"type": "occ",
				"energy": -0.31445,
				"method": "rhf"
			},
			{
				"type": "occ",
				"energy": -0.26933,
				"method": "rhf"
			},
			{
				"type": "occ",
				"energy": -0.25959,
				"method": "rhf"
			},
			{
				"type": "occ",
				"energy": -0.22898,
				"method": "rhf"
			},
			{
				"type": "unocc",
				"energy": -0.0133,
				"method": "rhf"
			},
			{
				"type": "unocc",
				"energy": 0.00029,
				"method": "rhf"
			},
			{
				"type": "unocc",
				"energy": 0.0073,
				"method": "rhf"
			},
			{
				"type": "unocc",
				"energy": 0.07758,
				"method": "rhf"
			},
			{
				"type": "unocc",
				"energy": 0.087,
				"method": "rhf"
			}
		],
		"cosmo_sigma_profile": { 
			"-0.025": 0.0,
			"-0.024": 0.0,
			"-0.023": 0.0,
			"-0.022": 0.0,
			"-0.021": 0.0,
			"-0.02": 0.0,
			"-0.019": 0.0,
			"-0.018": 0.0,
			"-0.017": 0.0,
			"-0.016": 0.024365898684,
			"-0.015": 0.376450924724,
			"-0.014": 0.966296750501,
			"-0.013": 0.588979493851,
			"-0.012": 0.276194622707,
			"-0.011": 0.913484177747,
			"-0.01": 1.11476252917,
			"-0.009": 1.27138761499,
			"-0.008": 2.26113054862,
			"-0.007": 5.11056397703,
			"-0.006": 8.83370216539,
			"-0.005": 17.5435024552,
			"-0.004": 20.6398600778,
			"-0.003": 21.8074153637,
			"-0.002": 21.0389654874,
			"-0.001": 19.4116825041,
			"0.0": 16.4518248495,
			"0.001": 12.7579102733,
			"0.002": 10.9913677539,
			"0.003": 10.6653090894,
			"0.004": 9.61753192158,
			"0.005": 12.2382967672,
			"0.006": 6.31541779657,
			"0.007": 3.28709080164,
			"0.008": 3.4340352707,
			"0.009": 4.30675254285,
			"0.01": 4.46585705009,
			"0.011": 4.58041070005,
			"0.012": 4.85573652146,
			"0.013": 1.24927695815,
			"0.014": 0.0,
			"0.015": 0.0,
			"0.016": 0.0,
			"0.017": 0.0,
			"0.018": 0.0,
			"0.019": 0.0,
			"0.02": 0.0,
			"0.021": 0.0,
			"0.022": 0.0,
			"0.023": 0.0,
			"0.024": 0.0,
			"0.025": 0.0
		}
	}
}
