{
	 "smiles": "NC(=O)C1=C(Cl)C=CS1", 
	 "Tm": 379.15, 
	 "num_atms": 13, 
	 "gaussian": { 
		 "optdone": 1, 
		 "sigma_profile": "yes", 
		 "theory": "DFT", 
		 "functional": "B3LYP", 
		 "basiset": "6-31G**", 
		 "properties": { 
			 "R2extent": 2774.0186, 
			 "electric_dipole_moment_norm": 2.90131120875, 
			 "electric_quadrupole_moment_norm": 10.6982384601, 
			 "total_energy": -1181.29674973, 
			 "HOMO_LUMO_gap": 0.19764, 
			 "cosmo_polarized_energy": -11.41, 
			 "cosmo_cavitation_energy": 20.63, 
			 "cosmo_dispersion_energy": -16.36, 
			 "cosmo_repulsion_energy": 1.29, 
			 "cosmo_total_nonelectrostatic_energy": 5.55, 
			 "SMD_solvation_energy": 4.11 
		},
		"coords": [
			{
				"x": -1.294818319,
				"y": 2.5406016435,
				"z": -2.1802556984,
				"element": "N" 
			},
			{
				"x": -0.662542416,
				"y": 1.4073612802,
				"z": -1.7728896744,
				"element": "C" 
			},
			{
				"x": -0.9629974277,
				"y": 0.2936324055,
				"z": -2.1957167419,
				"element": "O" 
			},
			{
				"x": 0.4347409148,
				"y": 1.5449293725,
				"z": -0.7743528977,
				"element": "C" 
			},
			{
				"x": 1.0274798392,
				"y": 2.5920652435,
				"z": -0.0998762477,
				"element": "C" 
			},
			{
				"x": 0.5859076649,
				"y": 4.2808096119,
				"z": -0.2592962784,
				"element": "Cl" 
			},
			{
				"x": 2.0759906068,
				"y": 2.2086160682,
				"z": 0.7827393715,
				"element": "C" 
			},
			{
				"x": 2.2693584812,
				"y": 0.8542830083,
				"z": 0.7672579011,
				"element": "C" 
			},
			{
				"x": 1.190906081,
				"y": 0.0440080518,
				"z": -0.3082408881,
				"element": "S" 
			},
			{
				"x": -2.0346445236,
				"y": 2.4296522428,
				"z": -2.8561801618,
				"element": "H" 
			},
			{
				"x": -1.0558375217,
				"y": 3.4578498372,
				"z": -1.8398157774,
				"element": "H" 
			},
			{
				"x": 2.6391599605,
				"y": 2.9118845728,
				"z": 1.3831847484,
				"element": "H" 
			},
			{
				"x": 2.9947966597,
				"y": 0.2889066617,
				"z": 1.3363423449,
				"element": "H" 
			}
		],
		 "valence_orbital": [ 
			{
				"type": "occ",
				"energy": -0.33428,
				"method": "rhf"
			},
			{
				"type": "occ",
				"energy": -0.27234,
				"method": "rhf"
			},
			{
				"type": "occ",
				"energy": -0.2618,
				"method": "rhf"
			},
			{
				"type": "occ",
				"energy": -0.261,
				"method": "rhf"
			},
			{
				"type": "occ",
				"energy": -0.25188,
				"method": "rhf"
			},
			{
				"type": "unocc",
				"energy": -0.05424,
				"method": "rhf"
			},
			{
				"type": "unocc",
				"energy": -0.00272,
				"method": "rhf"
			},
			{
				"type": "unocc",
				"energy": 0.02402,
				"method": "rhf"
			},
			{
				"type": "unocc",
				"energy": 0.04216,
				"method": "rhf"
			},
			{
				"type": "unocc",
				"energy": 0.08613,
				"method": "rhf"
			}
		],
		"cosmo_sigma_profile": { 
			"-0.025": 0.0,
			"-0.024": 0.0,
			"-0.023": 0.0,
			"-0.022": 0.0,
			"-0.021": 0.0,
			"-0.02": 0.0,
			"-0.019": 0.0,
			"-0.018": 0.0,
			"-0.017": 0.0,
			"-0.016": 0.0,
			"-0.015": 0.115518285459,
			"-0.014": 1.31261223655,
			"-0.013": 0.955995490011,
			"-0.012": 1.53100728693,
			"-0.011": 2.18372434974,
			"-0.01": 2.9658504874,
			"-0.009": 4.46689493233,
			"-0.008": 5.18812673171,
			"-0.007": 5.79833546538,
			"-0.006": 4.86257324031,
			"-0.005": 5.24103669608,
			"-0.004": 6.6619788513,
			"-0.003": 8.79427208336,
			"-0.002": 8.92792518819,
			"-0.001": 10.7426139586,
			"0.0": 13.9559576545,
			"0.001": 21.3897735923,
			"0.002": 19.507543742,
			"0.003": 18.2338181899,
			"0.004": 5.66014211992,
			"0.005": 1.94959631833,
			"0.006": 1.58554716644,
			"0.007": 1.60750224776,
			"0.008": 1.11696825394,
			"0.009": 1.49948977712,
			"0.01": 1.87617389458,
			"0.011": 1.78395779294,
			"0.012": 2.26803890016,
			"0.013": 5.3345540381,
			"0.014": 2.42667449325,
			"0.015": 0.140503508554,
			"0.016": 0.0,
			"0.017": 0.0,
			"0.018": 0.0,
			"0.019": 0.0,
			"0.02": 0.0,
			"0.021": 0.0,
			"0.022": 0.0,
			"0.023": 0.0,
			"0.024": 0.0,
			"0.025": 0.0
		}
	}
}
