{
	 "smiles": "CC1=NOC(=C1C=O)C1=CC=CC=C1", 
	 "Tm": 359.15, 
	 "num_atms": 23, 
	 "gaussian": { 
		 "optdone": 1, 
		 "sigma_profile": "yes", 
		 "theory": "DFT", 
		 "functional": "B3LYP", 
		 "basiset": "6-31G**", 
		 "properties": { 
			 "R2extent": 3525.6239, 
			 "electric_dipole_moment_norm": 3.55344045398, 
			 "electric_quadrupole_moment_norm": 14.3583763497, 
			 "total_energy": -629.744912298, 
			 "HOMO_LUMO_gap": 0.17681, 
			 "cosmo_polarized_energy": -10.45, 
			 "cosmo_cavitation_energy": 27.91, 
			 "cosmo_dispersion_energy": -20.23, 
			 "cosmo_repulsion_energy": 1.57, 
			 "cosmo_total_nonelectrostatic_energy": 9.25, 
			 "SMD_solvation_energy": 5.49 
		},
		"coords": [
			{
				"x": 1.6876227767,
				"y": 0.2816569726,
				"z": -3.2032979444,
				"element": "C" 
			},
			{
				"x": 0.9527473054,
				"y": -0.5425328647,
				"z": -2.1959242069,
				"element": "C" 
			},
			{
				"x": 1.1529087007,
				"y": -1.8348189169,
				"z": -2.1237111869,
				"element": "N" 
			},
			{
				"x": 0.3184772339,
				"y": -2.2951722488,
				"z": -1.0817887238,
				"element": "O" 
			},
			{
				"x": -0.358853208,
				"y": -1.2636241628,
				"z": -0.550477622,
				"element": "C" 
			},
			{
				"x": 0.0001504689,
				"y": -0.1017276665,
				"z": -1.2101850796,
				"element": "C" 
			},
			{
				"x": -0.3751619244,
				"y": 1.2775616197,
				"z": -0.9169886744,
				"element": "C" 
			},
			{
				"x": -0.0209411891,
				"y": 2.2362049706,
				"z": -1.5855063291,
				"element": "O" 
			},
			{
				"x": -1.2693904601,
				"y": -1.5765165043,
				"z": 0.5516697735,
				"element": "C" 
			},
			{
				"x": -2.4489358805,
				"y": -0.8386441427,
				"z": 0.7515743836,
				"element": "C" 
			},
			{
				"x": -3.2980410471,
				"y": -1.1475031272,
				"z": 1.8122898107,
				"element": "C" 
			},
			{
				"x": -2.9875655769,
				"y": -2.1986338174,
				"z": 2.6773442405,
				"element": "C" 
			},
			{
				"x": -1.8256640867,
				"y": -2.9477632099,
				"z": 2.4740402987,
				"element": "C" 
			},
			{
				"x": -0.9708896277,
				"y": -2.6432855022,
				"z": 1.4183986575,
				"element": "C" 
			},
			{
				"x": 2.258624551,
				"y": 1.0716100688,
				"z": -2.7080304746,
				"element": "H" 
			},
			{
				"x": 2.3616307955,
				"y": -0.3529568625,
				"z": -3.7818976379,
				"element": "H" 
			},
			{
				"x": 0.9845646016,
				"y": 0.7795305609,
				"z": -3.8766101884,
				"element": "H" 
			},
			{
				"x": -0.999682142,
				"y": 1.4206611215,
				"z": -0.0117913874,
				"element": "H" 
			},
			{
				"x": -2.71749067,
				"y": -0.0488628323,
				"z": 0.0583307723,
				"element": "H" 
			},
			{
				"x": -4.2092162383,
				"y": -0.5745459841,
				"z": 1.954804216,
				"element": "H" 
			},
			{
				"x": -3.6522477831,
				"y": -2.4385136204,
				"z": 3.5019037352,
				"element": "H" 
			},
			{
				"x": -1.5837293528,
				"y": -3.7695299855,
				"z": 3.1412127093,
				"element": "H" 
			},
			{
				"x": -0.0655172469,
				"y": -3.2190938659,
				"z": 1.2596408582,
				"element": "H" 
			}
		],
		 "valence_orbital": [ 
			{
				"type": "occ",
				"energy": -0.30194,
				"method": "rhf"
			},
			{
				"type": "occ",
				"energy": -0.29252,
				"method": "rhf"
			},
			{
				"type": "occ",
				"energy": -0.27396,
				"method": "rhf"
			},
			{
				"type": "occ",
				"energy": -0.25814,
				"method": "rhf"
			},
			{
				"type": "occ",
				"energy": -0.24943,
				"method": "rhf"
			},
			{
				"type": "unocc",
				"energy": -0.07262,
				"method": "rhf"
			},
			{
				"type": "unocc",
				"energy": -0.02506,
				"method": "rhf"
			},
			{
				"type": "unocc",
				"energy": -0.02377,
				"method": "rhf"
			},
			{
				"type": "unocc",
				"energy": 0.00984,
				"method": "rhf"
			},
			{
				"type": "unocc",
				"energy": 0.07687,
				"method": "rhf"
			}
		],
		"cosmo_sigma_profile": { 
			"-0.025": 0.0,
			"-0.024": 0.0,
			"-0.023": 0.0,
			"-0.022": 0.0,
			"-0.021": 0.0,
			"-0.02": 0.0,
			"-0.019": 0.0,
			"-0.018": 0.0,
			"-0.017": 0.0,
			"-0.016": 0.0,
			"-0.015": 0.0,
			"-0.014": 0.0,
			"-0.013": 0.0,
			"-0.012": 0.0,
			"-0.011": 0.0,
			"-0.01": 0.0,
			"-0.009": 0.236130310031,
			"-0.008": 2.66254044679,
			"-0.007": 6.47874002725,
			"-0.006": 14.7557621986,
			"-0.005": 20.0071264723,
			"-0.004": 17.3910783062,
			"-0.003": 17.9704544003,
			"-0.002": 22.1759617157,
			"-0.001": 20.7853775721,
			"0.0": 13.1690147109,
			"0.001": 13.172139884,
			"0.002": 13.3522308871,
			"0.003": 15.7413122731,
			"0.004": 9.85109876559,
			"0.005": 4.60601680036,
			"0.006": 3.98452944963,
			"0.007": 5.98980569432,
			"0.008": 4.16262423018,
			"0.009": 2.91944336316,
			"0.01": 3.93466873274,
			"0.011": 4.31809877331,
			"0.012": 3.81755241174,
			"0.013": 2.36158367084,
			"0.014": 0.477279702788,
			"0.015": 0.0,
			"0.016": 0.0,
			"0.017": 0.0,
			"0.018": 0.0,
			"0.019": 0.0,
			"0.02": 0.0,
			"0.021": 0.0,
			"0.022": 0.0,
			"0.023": 0.0,
			"0.024": 0.0,
			"0.025": 0.0
		}
	}
}
