{
	 "smiles": "[H]N1C(=O)N(C([H])([H])[H])C(C1=O)(C1=C([H])C([H])=C([H])C([H])=C1[H])C([H])([H])C([H])([H])[H]", 
	 "Tm": 483.15, 
	 "num_atms": 30, 
	 "gaussian": { 
		 "optdone": 1, 
		 "sigma_profile": "yes", 
		 "theory": "DFT", 
		 "functional": "B3LYP", 
		 "basiset": "6-31G**", 
		 "properties": { 
			 "R2extent": 3348.3458, 
			 "electric_dipole_moment_norm": 2.71225469859, 
			 "electric_quadrupole_moment_norm": 9.08996644383, 
			 "total_energy": -725.708785668, 
			 "HOMO_LUMO_gap": 0.22572, 
			 "cosmo_polarized_energy": -14.3, 
			 "cosmo_cavitation_energy": 31.96, 
			 "cosmo_dispersion_energy": -22.43, 
			 "cosmo_repulsion_energy": 1.74, 
			 "cosmo_total_nonelectrostatic_energy": 11.27, 
			 "SMD_solvation_energy": 7.35 
		},
		"coords": [
			{
				"x": -0.2847196295,
				"y": 0.6280010214,
				"z": -2.3945514567,
				"element": "N" 
			},
			{
				"x": 1.0232452364,
				"y": 0.3023111322,
				"z": -1.9823428831,
				"element": "C" 
			},
			{
				"x": 1.9092412313,
				"y": -0.1104810391,
				"z": -2.7063396394,
				"element": "O" 
			},
			{
				"x": 1.0751399195,
				"y": 0.5496496765,
				"z": -0.6332691569,
				"element": "N" 
			},
			{
				"x": 2.3297404732,
				"y": 0.4299066794,
				"z": 0.0890124611,
				"element": "C" 
			},
			{
				"x": -0.1907497979,
				"y": 1.0673622284,
				"z": -0.0938820738,
				"element": "C" 
			},
			{
				"x": -1.0598137147,
				"y": 1.1384497711,
				"z": -1.3839004409,
				"element": "C" 
			},
			{
				"x": -2.1895439487,
				"y": 1.5717484427,
				"z": -1.466399385,
				"element": "O" 
			},
			{
				"x": -0.8728154238,
				"y": 0.0829700537,
				"z": 0.8693612223,
				"element": "C" 
			},
			{
				"x": -0.4207444541,
				"y": -1.2356734914,
				"z": 1.0033918946,
				"element": "C" 
			},
			{
				"x": -1.0758824191,
				"y": -2.1330640707,
				"z": 1.8495015383,
				"element": "C" 
			},
			{
				"x": -2.202227812,
				"y": -1.7300578189,
				"z": 2.5653788424,
				"element": "C" 
			},
			{
				"x": -2.6743008556,
				"y": -0.4239305083,
				"z": 2.4213749254,
				"element": "C" 
			},
			{
				"x": -2.0182289876,
				"y": 0.4738806071,
				"z": 1.5803670687,
				"element": "C" 
			},
			{
				"x": -0.0729533315,
				"y": 2.5147539175,
				"z": 0.462852238,
				"element": "C" 
			},
			{
				"x": 0.5327927749,
				"y": 2.676435737,
				"z": 1.8619735165,
				"element": "C" 
			},
			{
				"x": -0.578270542,
				"y": 0.551558111,
				"z": -3.357778193,
				"element": "H" 
			},
			{
				"x": 2.1615161361,
				"y": -0.015417118,
				"z": 1.0727251924,
				"element": "H" 
			},
			{
				"x": 2.8257610106,
				"y": 1.3990183414,
				"z": 0.2174813115,
				"element": "H" 
			},
			{
				"x": 2.9857820507,
				"y": -0.2172809913,
				"z": -0.4955461716,
				"element": "H" 
			},
			{
				"x": 0.4409701444,
				"y": -1.5694949358,
				"z": 0.4359526618,
				"element": "H" 
			},
			{
				"x": -0.7045928683,
				"y": -3.1497459579,
				"z": 1.9416518269,
				"element": "H" 
			},
			{
				"x": -2.7125308938,
				"y": -2.427414003,
				"z": 3.2232617208,
				"element": "H" 
			},
			{
				"x": -3.5597393296,
				"y": -0.1013826756,
				"z": 2.9615599105,
				"element": "H" 
			},
			{
				"x": -2.4142259083,
				"y": 1.4761723748,
				"z": 1.4624668219,
				"element": "H" 
			},
			{
				"x": -1.0808437157,
				"y": 2.9412220902,
				"z": 0.4486763387,
				"element": "H" 
			},
			{
				"x": 0.5073854269,
				"y": 3.0923361839,
				"z": -0.266780467,
				"element": "H" 
			},
			{
				"x": 1.5726461025,
				"y": 2.3444021166,
				"z": 1.9102978508,
				"element": "H" 
			},
			{
				"x": -0.0322236273,
				"y": 2.1167647404,
				"z": 2.6117426545,
				"element": "H" 
			},
			{
				"x": 0.5134867532,
				"y": 3.7326993848,
				"z": 2.1486598704,
				"element": "H" 
			}
		],
		 "valence_orbital": [ 
			{
				"type": "occ",
				"energy": -0.28737,
				"method": "rhf"
			},
			{
				"type": "occ",
				"energy": -0.26607,
				"method": "rhf"
			},
			{
				"type": "occ",
				"energy": -0.25609,
				"method": "rhf"
			},
			{
				"type": "occ",
				"energy": -0.25132,
				"method": "rhf"
			},
			{
				"type": "occ",
				"energy": -0.24805,
				"method": "rhf"
			},
			{
				"type": "unocc",
				"energy": -0.02233,
				"method": "rhf"
			},
			{
				"type": "unocc",
				"energy": -0.00845,
				"method": "rhf"
			},
			{
				"type": "unocc",
				"energy": 0.00518,
				"method": "rhf"
			},
			{
				"type": "unocc",
				"energy": 0.06236,
				"method": "rhf"
			},
			{
				"type": "unocc",
				"energy": 0.07553,
				"method": "rhf"
			}
		],
		"cosmo_sigma_profile": { 
			"-0.025": 0.0,
			"-0.024": 0.0,
			"-0.023": 0.0,
			"-0.022": 0.0,
			"-0.021": 0.0,
			"-0.02": 0.0,
			"-0.019": 0.0,
			"-0.018": 0.0,
			"-0.017": 0.57414600615,
			"-0.016": 1.24758130344,
			"-0.015": 1.01363881408,
			"-0.014": 1.32187737675,
			"-0.013": 0.416140828015,
			"-0.012": 0.579366004812,
			"-0.011": 0.883598382213,
			"-0.01": 0.870714727036,
			"-0.009": 0.839983039085,
			"-0.008": 1.07502364679,
			"-0.007": 1.22649707322,
			"-0.006": 7.35558053024,
			"-0.005": 20.3651882849,
			"-0.004": 28.2914171315,
			"-0.003": 28.681188775,
			"-0.002": 27.2710111616,
			"-0.001": 21.6688365117,
			"0.0": 17.3005027882,
			"0.001": 13.4981649453,
			"0.002": 8.97721645633,
			"0.003": 9.69590638363,
			"0.004": 10.2798447318,
			"0.005": 11.4348596821,
			"0.006": 5.89381822577,
			"0.007": 2.91795253272,
			"0.008": 2.81063051678,
			"0.009": 3.11978693896,
			"0.01": 2.9971644474,
			"0.011": 4.99207630372,
			"0.012": 8.50145295785,
			"0.013": 6.25449311847,
			"0.014": 0.419001862267,
			"0.015": 0.0,
			"0.016": 0.0,
			"0.017": 0.0,
			"0.018": 0.0,
			"0.019": 0.0,
			"0.02": 0.0,
			"0.021": 0.0,
			"0.022": 0.0,
			"0.023": 0.0,
			"0.024": 0.0,
			"0.025": 0.0
		}
	}
}
