{
	 "smiles": "C1CN(CCO1)C1=CC=CC=C1", 
	 "Tm": 325.65, 
	 "num_atms": 25, 
	 "gaussian": { 
		 "optdone": 1, 
		 "sigma_profile": "yes", 
		 "theory": "DFT", 
		 "functional": "B3LYP", 
		 "basiset": "6-31G**", 
		 "properties": { 
			 "R2extent": 2567.7386, 
			 "electric_dipole_moment_norm": 0.138018477024, 
			 "electric_quadrupole_moment_norm": 7.61575197666, 
			 "total_energy": -518.84980857, 
			 "HOMO_LUMO_gap": 0.19086, 
			 "cosmo_polarized_energy": -7.44, 
			 "cosmo_cavitation_energy": 26.19, 
			 "cosmo_dispersion_energy": -19.74, 
			 "cosmo_repulsion_energy": 1.55, 
			 "cosmo_total_nonelectrostatic_energy": 8.0, 
			 "SMD_solvation_energy": 3.05 
		},
		"coords": [
			{
				"x": 0.6903780499,
				"y": 1.7109019263,
				"z": -1.9799021064,
				"element": "C" 
			},
			{
				"x": 0.3932610733,
				"y": 0.3171246338,
				"z": -1.4119409106,
				"element": "C" 
			},
			{
				"x": 0.5072966634,
				"y": 0.3171397885,
				"z": 0.0503275491,
				"element": "N" 
			},
			{
				"x": 1.8047241005,
				"y": 0.8504883325,
				"z": 0.4607423869,
				"element": "C" 
			},
			{
				"x": 2.0660911463,
				"y": 2.2341059715,
				"z": -0.1430750633,
				"element": "C" 
			},
			{
				"x": 1.9677799387,
				"y": 2.1786969269,
				"z": -1.562868481,
				"element": "O" 
			},
			{
				"x": -0.6357322497,
				"y": 0.488203407,
				"z": 0.8519366292,
				"element": "C" 
			},
			{
				"x": -0.637563509,
				"y": 1.2851702696,
				"z": 2.0149223256,
				"element": "C" 
			},
			{
				"x": -1.7741785684,
				"y": 1.3792181524,
				"z": 2.8192109777,
				"element": "C" 
			},
			{
				"x": -2.9472286733,
				"y": 0.7035877518,
				"z": 2.4890418101,
				"element": "C" 
			},
			{
				"x": -2.9591287326,
				"y": -0.0861138158,
				"z": 1.3362788699,
				"element": "C" 
			},
			{
				"x": -1.8275048185,
				"y": -0.2010473712,
				"z": 0.5358383915,
				"element": "C" 
			},
			{
				"x": 0.7110246251,
				"y": 1.6897857506,
				"z": -3.0743062412,
				"element": "H" 
			},
			{
				"x": -0.0968842426,
				"y": 2.4130808773,
				"z": -1.6578150524,
				"element": "H" 
			},
			{
				"x": 1.1178515058,
				"y": -0.3994049954,
				"z": -1.821537675,
				"element": "H" 
			},
			{
				"x": -0.603262968,
				"y": -0.0032059468,
				"z": -1.7179752192,
				"element": "H" 
			},
			{
				"x": 1.8819587473,
				"y": 0.8619164813,
				"z": 1.5498467354,
				"element": "H" 
			},
			{
				"x": 2.5780637886,
				"y": 0.1653793338,
				"z": 0.0867331049,
				"element": "H" 
			},
			{
				"x": 3.0803436842,
				"y": 2.5781653877,
				"z": 0.0834662031,
				"element": "H" 
			},
			{
				"x": 1.3488259633,
				"y": 2.968344369,
				"z": 0.2589464396,
				"element": "H" 
			},
			{
				"x": 0.2416259835,
				"y": 1.8546193631,
				"z": 2.2928826883,
				"element": "H" 
			},
			{
				"x": -1.7377423426,
				"y": 2.0049957575,
				"z": 3.7071263845,
				"element": "H" 
			},
			{
				"x": -3.830745865,
				"y": 0.7864776264,
				"z": 3.1140168508,
				"element": "H" 
			},
			{
				"x": -3.8558673697,
				"y": -0.6357427408,
				"z": 1.0624163655,
				"element": "H" 
			},
			{
				"x": -1.8566859303,
				"y": -0.859887237,
				"z": -0.3257129631,
				"element": "H" 
			}
		],
		 "valence_orbital": [ 
			{
				"type": "occ",
				"energy": -0.3186,
				"method": "rhf"
			},
			{
				"type": "occ",
				"energy": -0.28484,
				"method": "rhf"
			},
			{
				"type": "occ",
				"energy": -0.25599,
				"method": "rhf"
			},
			{
				"type": "occ",
				"energy": -0.24303,
				"method": "rhf"
			},
			{
				"type": "occ",
				"energy": -0.1864,
				"method": "rhf"
			},
			{
				"type": "unocc",
				"energy": 0.00446,
				"method": "rhf"
			},
			{
				"type": "unocc",
				"energy": 0.01664,
				"method": "rhf"
			},
			{
				"type": "unocc",
				"energy": 0.0876,
				"method": "rhf"
			},
			{
				"type": "unocc",
				"energy": 0.10689,
				"method": "rhf"
			},
			{
				"type": "unocc",
				"energy": 0.1102,
				"method": "rhf"
			}
		],
		"cosmo_sigma_profile": { 
			"-0.025": 0.0,
			"-0.024": 0.0,
			"-0.023": 0.0,
			"-0.022": 0.0,
			"-0.021": 0.0,
			"-0.02": 0.0,
			"-0.019": 0.0,
			"-0.018": 0.0,
			"-0.017": 0.0,
			"-0.016": 0.0,
			"-0.015": 0.0,
			"-0.014": 0.0,
			"-0.013": 0.0,
			"-0.012": 0.0,
			"-0.011": 0.0,
			"-0.01": 0.0,
			"-0.009": 0.0,
			"-0.008": 0.0,
			"-0.007": 1.59322853565,
			"-0.006": 6.02130219429,
			"-0.005": 16.6234130019,
			"-0.004": 26.9107993708,
			"-0.003": 30.9607340904,
			"-0.002": 22.7771060553,
			"-0.001": 15.0686898688,
			"0.0": 10.3523530108,
			"0.001": 8.97033119235,
			"0.002": 8.43824074978,
			"0.003": 7.95749156091,
			"0.004": 8.96320270118,
			"0.005": 9.15143585374,
			"0.006": 10.1701072976,
			"0.007": 10.371143729,
			"0.008": 3.57624266212,
			"0.009": 1.59866474223,
			"0.01": 1.58579076882,
			"0.011": 0.94687934735,
			"0.012": 1.75886938612,
			"0.013": 1.75439021013,
			"0.014": 0.756908987876,
			"0.015": 0.0,
			"0.016": 0.0,
			"0.017": 0.0,
			"0.018": 0.0,
			"0.019": 0.0,
			"0.02": 0.0,
			"0.021": 0.0,
			"0.022": 0.0,
			"0.023": 0.0,
			"0.024": 0.0,
			"0.025": 0.0
		}
	}
}
