{
	 "smiles": "NS(=O)(=O)CCCN1C(=O)C2=C(C=CC=C2)C1=O", 
	 "Tm": 447.15, 
	 "num_atms": 30, 
	 "gaussian": { 
		 "optdone": 1, 
		 "sigma_profile": "yes", 
		 "theory": "DFT", 
		 "functional": "B3LYP", 
		 "basiset": "6-31G**", 
		 "properties": { 
			 "R2extent": 4703.4275, 
			 "electric_dipole_moment_norm": 1.80401827596, 
			 "electric_quadrupole_moment_norm": 25.5729023314, 
			 "total_energy": -1234.96347497, 
			 "HOMO_LUMO_gap": 0.18452, 
			 "cosmo_polarized_energy": -21.96, 
			 "cosmo_cavitation_energy": 34.95, 
			 "cosmo_dispersion_energy": -24.82, 
			 "cosmo_repulsion_energy": 1.87, 
			 "cosmo_total_nonelectrostatic_energy": 12.0, 
			 "SMD_solvation_energy": 6.35 
		},
		"coords": [
			{
				"x": -3.2399835614,
				"y": -1.6346043993,
				"z": 0.9839987254,
				"element": "N" 
			},
			{
				"x": -1.6941111977,
				"y": -1.416867941,
				"z": 1.6553232671,
				"element": "S" 
			},
			{
				"x": -1.585954216,
				"y": -2.2605642142,
				"z": 2.8492561797,
				"element": "O" 
			},
			{
				"x": -0.7407611062,
				"y": -1.5300169843,
				"z": 0.5438165928,
				"element": "O" 
			},
			{
				"x": -1.7614107419,
				"y": 0.3030605068,
				"z": 2.2192177443,
				"element": "C" 
			},
			{
				"x": -1.9835695036,
				"y": 1.3422768954,
				"z": 1.1049557466,
				"element": "C" 
			},
			{
				"x": -0.7247559263,
				"y": 2.1209925303,
				"z": 0.6917445047,
				"element": "C" 
			},
			{
				"x": 0.3189460853,
				"y": 1.3055510888,
				"z": 0.09422146,
				"element": "N" 
			},
			{
				"x": 1.3941030159,
				"y": 0.7550385846,
				"z": 0.8072315716,
				"element": "C" 
			},
			{
				"x": 1.5872568303,
				"y": 0.898351371,
				"z": 2.0008651098,
				"element": "O" 
			},
			{
				"x": 2.2008089998,
				"y": 0.0040235429,
				"z": -0.1968712446,
				"element": "C" 
			},
			{
				"x": 1.5665244222,
				"y": 0.1121070601,
				"z": -1.4364559171,
				"element": "C" 
			},
			{
				"x": 2.0862415315,
				"y": -0.491389031,
				"z": -2.5716237305,
				"element": "C" 
			},
			{
				"x": 3.2764487212,
				"y": -1.2173278738,
				"z": -2.4283748824,
				"element": "C" 
			},
			{
				"x": 3.9116006117,
				"y": -1.3264420263,
				"z": -1.1848366249,
				"element": "C" 
			},
			{
				"x": 3.3778362389,
				"y": -0.7127975323,
				"z": -0.0435906778,
				"element": "C" 
			},
			{
				"x": 0.3379201994,
				"y": 0.9402273204,
				"z": -1.2616927564,
				"element": "C" 
			},
			{
				"x": -0.4936996182,
				"y": 1.2741125652,
				"z": -2.0833001393,
				"element": "O" 
			},
			{
				"x": -3.7625488358,
				"y": -2.2964932773,
				"z": 1.5524582265,
				"element": "H" 
			},
			{
				"x": -3.1372877418,
				"y": -1.9766118059,
				"z": 0.0319547076,
				"element": "H" 
			},
			{
				"x": -0.8114126971,
				"y": 0.4504471226,
				"z": 2.7424279025,
				"element": "H" 
			},
			{
				"x": -2.5650117513,
				"y": 0.3121569748,
				"z": 2.9591728583,
				"element": "H" 
			},
			{
				"x": -2.4318727301,
				"y": 0.8774725892,
				"z": 0.2220983557,
				"element": "H" 
			},
			{
				"x": -2.7145840229,
				"y": 2.0756405091,
				"z": 1.4633597865,
				"element": "H" 
			},
			{
				"x": -1.0032741141,
				"y": 2.8821053066,
				"z": -0.042401246,
				"element": "H" 
			},
			{
				"x": -0.2807526274,
				"y": 2.6170822189,
				"z": 1.559360102,
				"element": "H" 
			},
			{
				"x": 1.5845503223,
				"y": -0.4021217549,
				"z": -3.529741544,
				"element": "H" 
			},
			{
				"x": 3.7142478165,
				"y": -1.7054894465,
				"z": -3.29403858,
				"element": "H" 
			},
			{
				"x": 4.8316029849,
				"y": -1.8978834408,
				"z": -1.1055048357,
				"element": "H" 
			},
			{
				"x": 3.8591026118,
				"y": -0.793636459,
				"z": 0.9255693377,
				"element": "H" 
			}
		],
		 "valence_orbital": [ 
			{
				"type": "occ",
				"energy": -0.28633,
				"method": "rhf"
			},
			{
				"type": "occ",
				"energy": -0.27827,
				"method": "rhf"
			},
			{
				"type": "occ",
				"energy": -0.27102,
				"method": "rhf"
			},
			{
				"type": "occ",
				"energy": -0.26435,
				"method": "rhf"
			},
			{
				"type": "occ",
				"energy": -0.26043,
				"method": "rhf"
			},
			{
				"type": "unocc",
				"energy": -0.07591,
				"method": "rhf"
			},
			{
				"type": "unocc",
				"energy": -0.03422,
				"method": "rhf"
			},
			{
				"type": "unocc",
				"energy": 0.03423,
				"method": "rhf"
			},
			{
				"type": "unocc",
				"energy": 0.05018,
				"method": "rhf"
			},
			{
				"type": "unocc",
				"energy": 0.07021,
				"method": "rhf"
			}
		],
		"cosmo_sigma_profile": { 
			"-0.025": 0.0,
			"-0.024": 0.0,
			"-0.023": 0.0,
			"-0.022": 0.0,
			"-0.021": 0.0,
			"-0.02": 0.0,
			"-0.019": 0.0,
			"-0.018": 0.0,
			"-0.017": 0.0,
			"-0.016": 0.0,
			"-0.015": 0.630254058166,
			"-0.014": 2.2381704002,
			"-0.013": 2.77300933189,
			"-0.012": 2.28864346151,
			"-0.011": 2.0831900913,
			"-0.01": 2.35252571265,
			"-0.009": 1.8132252451,
			"-0.008": 6.10469402243,
			"-0.007": 12.3531443892,
			"-0.006": 20.4577560925,
			"-0.005": 24.5163467629,
			"-0.004": 19.1221437284,
			"-0.003": 18.6839220718,
			"-0.002": 14.7171447746,
			"-0.001": 13.5441257406,
			"0.0": 14.5285326494,
			"0.001": 15.0021490811,
			"0.002": 18.0563546261,
			"0.003": 12.5638281136,
			"0.004": 7.27412714231,
			"0.005": 6.44846546615,
			"0.006": 5.44246690277,
			"0.007": 6.57674202511,
			"0.008": 7.4592675716,
			"0.009": 6.50772637901,
			"0.01": 9.54984731078,
			"0.011": 16.0916649801,
			"0.012": 8.49402532001,
			"0.013": 0.108938881816,
			"0.014": 0.0,
			"0.015": 0.0,
			"0.016": 0.0,
			"0.017": 0.0,
			"0.018": 0.0,
			"0.019": 0.0,
			"0.02": 0.0,
			"0.021": 0.0,
			"0.022": 0.0,
			"0.023": 0.0,
			"0.024": 0.0,
			"0.025": 0.0
		}
	}
}
