{
	 "smiles": "O=C1NN=C(C2=CC=CS2)C2=C1C=CC=C2", 
	 "Tm": 290.15, 
	 "num_atms": 24, 
	 "gaussian": { 
		 "optdone": 1, 
		 "sigma_profile": "yes", 
		 "theory": "DFT", 
		 "functional": "B3LYP", 
		 "basiset": "6-31G**", 
		 "properties": { 
			 "R2extent": 4547.7593, 
			 "electric_dipole_moment_norm": 3.799490883, 
			 "electric_quadrupole_moment_norm": 9.50421268964, 
			 "total_energy": -1044.99732953, 
			 "HOMO_LUMO_gap": 0.1558, 
			 "cosmo_polarized_energy": -12.77, 
			 "cosmo_cavitation_energy": 29.94, 
			 "cosmo_dispersion_energy": -22.87, 
			 "cosmo_repulsion_energy": 1.7, 
			 "cosmo_total_nonelectrostatic_energy": 8.77, 
			 "SMD_solvation_energy": 4.79 
		},
		"coords": [
			{
				"x": 1.5818647198,
				"y": 2.3362540961,
				"z": 1.5978657279,
				"element": "O" 
			},
			{
				"x": 1.1981072888,
				"y": 1.5279279334,
				"z": 0.7594690625,
				"element": "C" 
			},
			{
				"x": 2.1028217836,
				"y": 0.8377952342,
				"z": -0.0359446069,
				"element": "N" 
			},
			{
				"x": 1.8513968657,
				"y": -0.0149299407,
				"z": -1.0499562518,
				"element": "N" 
			},
			{
				"x": 0.6065095121,
				"y": -0.3200758094,
				"z": -1.3113628387,
				"element": "C" 
			},
			{
				"x": 0.4142635671,
				"y": -1.2419290714,
				"z": -2.4427040251,
				"element": "C" 
			},
			{
				"x": -0.5591994678,
				"y": -1.2541558748,
				"z": -3.4179903275,
				"element": "C" 
			},
			{
				"x": -0.3697910238,
				"y": -2.2757424755,
				"z": -4.3929949367,
				"element": "C" 
			},
			{
				"x": 0.7460099378,
				"y": -3.0314345965,
				"z": -4.1534903599,
				"element": "C" 
			},
			{
				"x": 1.5914055227,
				"y": -2.5014866942,
				"z": -2.7399740018,
				"element": "S" 
			},
			{
				"x": -0.5033299111,
				"y": 0.2096125037,
				"z": -0.5169545121,
				"element": "C" 
			},
			{
				"x": -0.1997662306,
				"y": 1.1537129769,
				"z": 0.4931870963,
				"element": "C" 
			},
			{
				"x": -1.2124288816,
				"y": 1.714341836,
				"z": 1.2837385531,
				"element": "C" 
			},
			{
				"x": -2.5312099459,
				"y": 1.3301396417,
				"z": 1.0939517788,
				"element": "C" 
			},
			{
				"x": -2.8414964913,
				"y": 0.3650517219,
				"z": 0.1228886239,
				"element": "C" 
			},
			{
				"x": -1.8468484219,
				"y": -0.1912477686,
				"z": -0.6695392025,
				"element": "C" 
			},
			{
				"x": 3.0827419803,
				"y": 1.0476124115,
				"z": 0.1092303191,
				"element": "H" 
			},
			{
				"x": -1.3629606476,
				"y": -0.5292935359,
				"z": -3.4618369513,
				"element": "H" 
			},
			{
				"x": -1.0317699537,
				"y": -2.4330914394,
				"z": -5.2368223618,
				"element": "H" 
			},
			{
				"x": 1.1240947832,
				"y": -3.8657609239,
				"z": -4.7282640824,
				"element": "H" 
			},
			{
				"x": -0.9260275645,
				"y": 2.4357714899,
				"z": 2.0414598326,
				"element": "H" 
			},
			{
				"x": -3.3195409125,
				"y": 1.7600608181,
				"z": 1.7043813802,
				"element": "H" 
			},
			{
				"x": -3.8702131985,
				"y": 0.0417052203,
				"z": -0.0071589974,
				"element": "H" 
			},
			{
				"x": -2.0990333103,
				"y": -0.9550377536,
				"z": -1.3940789186,
				"element": "H" 
			}
		],
		 "valence_orbital": [ 
			{
				"type": "occ",
				"energy": -0.26921,
				"method": "rhf"
			},
			{
				"type": "occ",
				"energy": -0.25836,
				"method": "rhf"
			},
			{
				"type": "occ",
				"energy": -0.25573,
				"method": "rhf"
			},
			{
				"type": "occ",
				"energy": -0.25198,
				"method": "rhf"
			},
			{
				"type": "occ",
				"energy": -0.21802,
				"method": "rhf"
			},
			{
				"type": "unocc",
				"energy": -0.06222,
				"method": "rhf"
			},
			{
				"type": "unocc",
				"energy": -0.04777,
				"method": "rhf"
			},
			{
				"type": "unocc",
				"energy": -0.02254,
				"method": "rhf"
			},
			{
				"type": "unocc",
				"energy": 0.02529,
				"method": "rhf"
			},
			{
				"type": "unocc",
				"energy": 0.037,
				"method": "rhf"
			}
		],
		"cosmo_sigma_profile": { 
			"-0.025": 0.0,
			"-0.024": 0.0,
			"-0.023": 0.0,
			"-0.022": 0.0,
			"-0.021": 0.0,
			"-0.02": 0.0,
			"-0.019": 0.0,
			"-0.018": 0.0,
			"-0.017": 0.00435477895387,
			"-0.016": 0.652309114646,
			"-0.015": 1.16044676419,
			"-0.014": 0.69822571354,
			"-0.013": 1.09769273032,
			"-0.012": 0.520253821442,
			"-0.011": 0.746153096544,
			"-0.01": 1.34803654917,
			"-0.009": 1.69351290929,
			"-0.008": 2.66451497088,
			"-0.007": 9.17049164933,
			"-0.006": 14.8593985721,
			"-0.005": 15.8669040501,
			"-0.004": 14.5048489688,
			"-0.003": 13.6972738521,
			"-0.002": 14.177734628,
			"-0.001": 18.8522834217,
			"0.0": 19.2224053759,
			"0.001": 19.599312624,
			"0.002": 23.4118691768,
			"0.003": 20.5205386797,
			"0.004": 15.0172550765,
			"0.005": 7.73681424727,
			"0.006": 3.6716298732,
			"0.007": 3.13220929198,
			"0.008": 2.34094307518,
			"0.009": 2.1362729171,
			"0.01": 2.32977763306,
			"0.011": 2.84380268909,
			"0.012": 2.60303938749,
			"0.013": 6.0515091905,
			"0.014": 1.55109510108,
			"0.015": 0.0,
			"0.016": 0.0,
			"0.017": 0.0,
			"0.018": 0.0,
			"0.019": 0.0,
			"0.02": 0.0,
			"0.021": 0.0,
			"0.022": 0.0,
			"0.023": 0.0,
			"0.024": 0.0,
			"0.025": 0.0
		}
	}
}
