{
	 "smiles": "CC(C)(C)S(=O)(=O)C1=CN=C(N=C1N)N1CCCC1", 
	 "Tm": 473.15, 
	 "num_atms": 39, 
	 "gaussian": { 
		 "optdone": 1, 
		 "sigma_profile": "yes", 
		 "theory": "DFT", 
		 "functional": "B3LYP", 
		 "basiset": "6-31G**", 
		 "properties": { 
			 "R2extent": 8062.5859, 
			 "electric_dipole_moment_norm": 5.26732276019, 
			 "electric_quadrupole_moment_norm": 21.6250743747, 
			 "total_energy": -1236.95906799, 
			 "HOMO_LUMO_gap": 0.19386, 
			 "cosmo_polarized_energy": -16.04, 
			 "cosmo_cavitation_energy": 40.13, 
			 "cosmo_dispersion_energy": -29.22, 
			 "cosmo_repulsion_energy": 2.21, 
			 "cosmo_total_nonelectrostatic_energy": 13.13, 
			 "SMD_solvation_energy": 2.77 
		},
		"coords": [
			{
				"x": -4.1346270207,
				"y": 0.8583475069,
				"z": 0.3730964474,
				"element": "C" 
			},
			{
				"x": -4.1892082153,
				"y": 0.6862017887,
				"z": -1.1489952077,
				"element": "C" 
			},
			{
				"x": -3.4243651977,
				"y": 1.7986813985,
				"z": -1.8740278075,
				"element": "C" 
			},
			{
				"x": -5.6419946721,
				"y": 0.595467598,
				"z": -1.6441772186,
				"element": "C" 
			},
			{
				"x": -3.4280799481,
				"y": -0.9648299264,
				"z": -1.5893068826,
				"element": "S" 
			},
			{
				"x": -4.1309640133,
				"y": -1.9841051944,
				"z": -0.7869947595,
				"element": "O" 
			},
			{
				"x": -3.4433684819,
				"y": -1.0575140552,
				"z": -3.0730506013,
				"element": "O" 
			},
			{
				"x": -1.7299043658,
				"y": -0.9442042391,
				"z": -1.0707610782,
				"element": "C" 
			},
			{
				"x": -1.4054268972,
				"y": -1.4078845517,
				"z": 0.2082897053,
				"element": "C" 
			},
			{
				"x": -0.1722879287,
				"y": -1.4489769385,
				"z": 0.6944294684,
				"element": "N" 
			},
			{
				"x": 0.7946173623,
				"y": -1.008456529,
				"z": -0.1569707706,
				"element": "C" 
			},
			{
				"x": 0.6185190606,
				"y": -0.5944158272,
				"z": -1.4272429591,
				"element": "N" 
			},
			{
				"x": -0.6323046411,
				"y": -0.5668788803,
				"z": -1.9038618743,
				"element": "C" 
			},
			{
				"x": -0.7907132335,
				"y": -0.1539394069,
				"z": -3.1855305801,
				"element": "N" 
			},
			{
				"x": 2.0587676586,
				"y": -1.0048995913,
				"z": 0.3196740473,
				"element": "N" 
			},
			{
				"x": 3.2236416889,
				"y": -0.6114177378,
				"z": -0.4797742879,
				"element": "C" 
			},
			{
				"x": 4.4108043439,
				"y": -1.0822243961,
				"z": 0.3747038806,
				"element": "C" 
			},
			{
				"x": 3.8752135455,
				"y": -0.9871292951,
				"z": 1.8140016016,
				"element": "C" 
			},
			{
				"x": 2.4112760606,
				"y": -1.4324043985,
				"z": 1.6794645483,
				"element": "C" 
			},
			{
				"x": -4.6366893183,
				"y": 1.7939916849,
				"z": 0.6419592568,
				"element": "H" 
			},
			{
				"x": -4.6439546718,
				"y": 0.036523791,
				"z": 0.881793555,
				"element": "H" 
			},
			{
				"x": -3.1053599147,
				"y": 0.916628987,
				"z": 0.7388668055,
				"element": "H" 
			},
			{
				"x": -3.4510418458,
				"y": 1.6591902455,
				"z": -2.95700333,
				"element": "H" 
			},
			{
				"x": -3.8946746864,
				"y": 2.7601259215,
				"z": -1.6407616041,
				"element": "H" 
			},
			{
				"x": -2.3797409447,
				"y": 1.8515367241,
				"z": -1.5548788714,
				"element": "H" 
			},
			{
				"x": -5.6813360946,
				"y": 0.4300970607,
				"z": -2.7235636381,
				"element": "H" 
			},
			{
				"x": -6.1776132157,
				"y": -0.2165339972,
				"z": -1.1465189298,
				"element": "H" 
			},
			{
				"x": -6.1511028216,
				"y": 1.5384088013,
				"z": -1.4179410109,
				"element": "H" 
			},
			{
				"x": -2.2008329177,
				"y": -1.7755941692,
				"z": 0.8530804615,
				"element": "H" 
			},
			{
				"x": -1.6607439151,
				"y": -0.3897881904,
				"z": -3.6495796614,
				"element": "H" 
			},
			{
				"x": 0.0581580431,
				"y": -0.069752149,
				"z": -3.7240382842,
				"element": "H" 
			},
			{
				"x": 3.2350408242,
				"y": 0.4767665026,
				"z": -0.6304432087,
				"element": "H" 
			},
			{
				"x": 3.1844912964,
				"y": -1.0743551762,
				"z": -1.4691235505,
				"element": "H" 
			},
			{
				"x": 4.6548076774,
				"y": -2.122945364,
				"z": 0.1327742735,
				"element": "H" 
			},
			{
				"x": 5.3083960005,
				"y": -0.4814601751,
				"z": 0.2059385639,
				"element": "H" 
			},
			{
				"x": 3.9197405923,
				"y": 0.0505797498,
				"z": 2.1641645944,
				"element": "H" 
			},
			{
				"x": 4.4326954183,
				"y": -1.6031107678,
				"z": 2.5244532184,
				"element": "H" 
			},
			{
				"x": 2.3046983252,
				"y": -2.520882678,
				"z": 1.7781509862,
				"element": "H" 
			},
			{
				"x": 1.7435670638,
				"y": -0.9745441261,
				"z": 2.4128047026,
				"element": "H" 
			}
		],
		 "valence_orbital": [ 
			{
				"type": "occ",
				"energy": -0.28933,
				"method": "rhf"
			},
			{
				"type": "occ",
				"energy": -0.26779,
				"method": "rhf"
			},
			{
				"type": "occ",
				"energy": -0.24803,
				"method": "rhf"
			},
			{
				"type": "occ",
				"energy": -0.24496,
				"method": "rhf"
			},
			{
				"type": "occ",
				"energy": -0.21664,
				"method": "rhf"
			},
			{
				"type": "unocc",
				"energy": -0.02278,
				"method": "rhf"
			},
			{
				"type": "unocc",
				"energy": -0.00556,
				"method": "rhf"
			},
			{
				"type": "unocc",
				"energy": 0.06608,
				"method": "rhf"
			},
			{
				"type": "unocc",
				"energy": 0.07441,
				"method": "rhf"
			},
			{
				"type": "unocc",
				"energy": 0.08072,
				"method": "rhf"
			}
		],
		"cosmo_sigma_profile": { 
			"-0.025": 0.0,
			"-0.024": 0.0,
			"-0.023": 0.0,
			"-0.022": 0.0,
			"-0.021": 0.0,
			"-0.02": 0.0,
			"-0.019": 0.0,
			"-0.018": 0.0,
			"-0.017": 0.0,
			"-0.016": 0.0,
			"-0.015": 0.0,
			"-0.014": 0.308165636936,
			"-0.013": 1.14385752217,
			"-0.012": 0.857295994657,
			"-0.011": 1.21789017463,
			"-0.01": 1.40327497887,
			"-0.009": 1.73796115777,
			"-0.008": 1.80189858679,
			"-0.007": 1.65028668234,
			"-0.006": 3.49428760048,
			"-0.005": 10.042320809,
			"-0.004": 30.0592079333,
			"-0.003": 45.2607687692,
			"-0.002": 43.7267733371,
			"-0.001": 40.7506785571,
			"0.0": 33.617336179,
			"0.001": 17.5080107056,
			"0.002": 10.1190989277,
			"0.003": 8.87235583881,
			"0.004": 7.77024188821,
			"0.005": 6.98690800639,
			"0.006": 5.58175139548,
			"0.007": 6.10079269005,
			"0.008": 5.78143648447,
			"0.009": 5.21395245666,
			"0.01": 5.65819863008,
			"0.011": 7.06944698145,
			"0.012": 6.82713942155,
			"0.013": 2.89778314224,
			"0.014": 0.379785782037,
			"0.015": 0.0,
			"0.016": 0.0,
			"0.017": 0.0,
			"0.018": 0.0,
			"0.019": 0.0,
			"0.02": 0.0,
			"0.021": 0.0,
			"0.022": 0.0,
			"0.023": 0.0,
			"0.024": 0.0,
			"0.025": 0.0
		}
	}
}
