{
	 "smiles": "CCS(=O)(=O)NC1=C(OC)C=CC(Br)=C1", 
	 "Tm": 379.15, 
	 "num_atms": 27, 
	 "gaussian": { 
		 "optdone": 1, 
		 "sigma_profile": "yes", 
		 "theory": "DFT", 
		 "functional": "B3LYP", 
		 "basiset": "6-31G**", 
		 "properties": { 
			 "R2extent": 7455.029, 
			 "electric_dipole_moment_norm": 4.5645552894, 
			 "electric_quadrupole_moment_norm": 26.1795926086, 
			 "total_energy": -3600.13206207, 
			 "HOMO_LUMO_gap": 0.20165, 
			 "cosmo_polarized_energy": -15.36, 
			 "cosmo_cavitation_energy": 33.97, 
			 "cosmo_dispersion_energy": -24.98, 
			 "cosmo_repulsion_energy": 1.94, 
			 "cosmo_total_nonelectrostatic_energy": 10.93, 
			 "SMD_solvation_energy": 4.63 
		},
		"coords": [
			{
				"x": -3.1733082662,
				"y": -3.5417480569,
				"z": -1.9139998244,
				"element": "C" 
			},
			{
				"x": -2.6154666802,
				"y": -3.0473573916,
				"z": -3.242507522,
				"element": "C" 
			},
			{
				"x": -2.2457651561,
				"y": -1.2727830331,
				"z": -3.2658316207,
				"element": "S" 
			},
			{
				"x": -3.4091265097,
				"y": -0.5467103154,
				"z": -2.7541521951,
				"element": "O" 
			},
			{
				"x": -1.658098446,
				"y": -0.9718493987,
				"z": -4.5745530175,
				"element": "O" 
			},
			{
				"x": -0.9616925831,
				"y": -1.1556676506,
				"z": -2.1382583163,
				"element": "N" 
			},
			{
				"x": -1.0063498416,
				"y": -0.3677749279,
				"z": -0.961211974,
				"element": "C" 
			},
			{
				"x": 0.1406081602,
				"y": 0.4065378393,
				"z": -0.6658498012,
				"element": "C" 
			},
			{
				"x": 1.1388885903,
				"y": 0.3331845227,
				"z": -1.5999000056,
				"element": "O" 
			},
			{
				"x": 2.3051562712,
				"y": 1.1223212063,
				"z": -1.4101474606,
				"element": "C" 
			},
			{
				"x": 0.1964969274,
				"y": 1.1538882718,
				"z": 0.5082161444,
				"element": "C" 
			},
			{
				"x": -0.8836086491,
				"y": 1.1545528742,
				"z": 1.3967723209,
				"element": "C" 
			},
			{
				"x": -2.0049630571,
				"y": 0.3935774808,
				"z": 1.0953953004,
				"element": "C" 
			},
			{
				"x": -3.4871430276,
				"y": 0.3798439689,
				"z": 2.3036142949,
				"element": "Br" 
			},
			{
				"x": -2.0764290559,
				"y": -0.3737971363,
				"z": -0.0675346161,
				"element": "C" 
			},
			{
				"x": -3.3946699444,
				"y": -4.610550449,
				"z": -1.988042551,
				"element": "H" 
			},
			{
				"x": -4.0974732172,
				"y": -3.0173953308,
				"z": -1.6593533192,
				"element": "H" 
			},
			{
				"x": -2.450850935,
				"y": -3.4018140867,
				"z": -1.1054516838,
				"element": "H" 
			},
			{
				"x": -3.3296091656,
				"y": -3.1722507691,
				"z": -4.0624455507,
				"element": "H" 
			},
			{
				"x": -1.6824303059,
				"y": -3.5434452784,
				"z": -3.52147015,
				"element": "H" 
			},
			{
				"x": -0.1013993117,
				"y": -0.9971836531,
				"z": -2.6581516502,
				"element": "H" 
			},
			{
				"x": 2.9401391612,
				"y": 0.9344827212,
				"z": -2.2766544537,
				"element": "H" 
			},
			{
				"x": 2.8402503913,
				"y": 0.8314891807,
				"z": -0.497787085,
				"element": "H" 
			},
			{
				"x": 2.06032916,
				"y": 2.1903053292,
				"z": -1.3633684888,
				"element": "H" 
			},
			{
				"x": 1.0727953117,
				"y": 1.746655409,
				"z": 0.7414441953,
				"element": "H" 
			},
			{
				"x": -0.8422367503,
				"y": 1.7410702771,
				"z": 2.3066449363,
				"element": "H" 
			},
			{
				"x": -2.9643430708,
				"y": -0.949381604,
				"z": -0.2867159066,
				"element": "H" 
			}
		],
		 "valence_orbital": [ 
			{
				"type": "occ",
				"energy": -0.30288,
				"method": "rhf"
			},
			{
				"type": "occ",
				"energy": -0.29025,
				"method": "rhf"
			},
			{
				"type": "occ",
				"energy": -0.28348,
				"method": "rhf"
			},
			{
				"type": "occ",
				"energy": -0.24556,
				"method": "rhf"
			},
			{
				"type": "occ",
				"energy": -0.21698,
				"method": "rhf"
			},
			{
				"type": "unocc",
				"energy": -0.01533,
				"method": "rhf"
			},
			{
				"type": "unocc",
				"energy": -0.00395,
				"method": "rhf"
			},
			{
				"type": "unocc",
				"energy": 0.00905,
				"method": "rhf"
			},
			{
				"type": "unocc",
				"energy": 0.05645,
				"method": "rhf"
			},
			{
				"type": "unocc",
				"energy": 0.06942,
				"method": "rhf"
			}
		],
		"cosmo_sigma_profile": { 
			"-0.025": 0.0,
			"-0.024": 0.0,
			"-0.023": 0.0,
			"-0.022": 0.0,
			"-0.021": 0.0,
			"-0.02": 0.0,
			"-0.019": 0.0,
			"-0.018": 0.0,
			"-0.017": 0.0,
			"-0.016": 0.0,
			"-0.015": 0.0,
			"-0.014": 0.0,
			"-0.013": 0.0,
			"-0.012": 0.244613040815,
			"-0.011": 0.378698315312,
			"-0.01": 0.518064590892,
			"-0.009": 1.59481233031,
			"-0.008": 5.99091346721,
			"-0.007": 9.72442040306,
			"-0.006": 16.0922287346,
			"-0.005": 21.069585072,
			"-0.004": 26.6774589708,
			"-0.003": 21.6442680902,
			"-0.002": 17.5508223007,
			"-0.001": 18.2722591574,
			"0.0": 12.3251142652,
			"0.001": 15.744864006,
			"0.002": 19.200527929,
			"0.003": 21.7980701925,
			"0.004": 19.084675038,
			"0.005": 12.5265444273,
			"0.006": 3.37366518529,
			"0.007": 3.40001927825,
			"0.008": 2.96911325421,
			"0.009": 3.80782068452,
			"0.01": 7.82810463775,
			"0.011": 9.48841772182,
			"0.012": 1.8351913508,
			"0.013": 0.0,
			"0.014": 0.0,
			"0.015": 0.0,
			"0.016": 0.0,
			"0.017": 0.0,
			"0.018": 0.0,
			"0.019": 0.0,
			"0.02": 0.0,
			"0.021": 0.0,
			"0.022": 0.0,
			"0.023": 0.0,
			"0.024": 0.0,
			"0.025": 0.0
		}
	}
}
