{
	 "smiles": "OCC(CO)(CO)NCC(O)=O", 
	 "Tm": 460.15, 
	 "num_atms": 25, 
	 "gaussian": { 
		 "optdone": 1, 
		 "sigma_profile": "yes", 
		 "theory": "DFT", 
		 "functional": "B3LYP", 
		 "basiset": "6-31G**", 
		 "properties": { 
			 "R2extent": 4495.1758, 
			 "electric_dipole_moment_norm": 6.51762877817, 
			 "electric_quadrupole_moment_norm": 28.3361120486, 
			 "total_energy": -667.319601118, 
			 "HOMO_LUMO_gap": 0.27511, 
			 "cosmo_polarized_energy": -22.58, 
			 "cosmo_cavitation_energy": 26.95, 
			 "cosmo_dispersion_energy": -19.44, 
			 "cosmo_repulsion_energy": 1.57, 
			 "cosmo_total_nonelectrostatic_energy": 9.08, 
			 "SMD_solvation_energy": 5.94 
		},
		"coords": [
			{
				"x": 0.5532576178,
				"y": -1.948318131,
				"z": -1.677732227,
				"element": "O" 
			},
			{
				"x": 0.068305842,
				"y": -1.0228940532,
				"z": -0.7057438785,
				"element": "C" 
			},
			{
				"x": 1.1291216944,
				"y": -0.730844975,
				"z": 0.3809975812,
				"element": "C" 
			},
			{
				"x": 0.5520546592,
				"y": 0.2577283532,
				"z": 1.4114071063,
				"element": "C" 
			},
			{
				"x": -0.5586006889,
				"y": -0.3757401249,
				"z": 2.0394726737,
				"element": "O" 
			},
			{
				"x": 2.3794278616,
				"y": -0.0925631417,
				"z": -0.2645734608,
				"element": "C" 
			},
			{
				"x": 3.0922751442,
				"y": -0.9597931496,
				"z": -1.1189118742,
				"element": "O" 
			},
			{
				"x": 1.4260857409,
				"y": -2.0388812396,
				"z": 1.0250108151,
				"element": "N" 
			},
			{
				"x": 2.7025805345,
				"y": -2.1772464132,
				"z": 1.7419888293,
				"element": "C" 
			},
			{
				"x": 2.9251645877,
				"y": -3.6263231014,
				"z": 2.1860526102,
				"element": "C" 
			},
			{
				"x": 2.2468797806,
				"y": -4.5347652225,
				"z": 1.4560036681,
				"element": "O" 
			},
			{
				"x": 3.6656063596,
				"y": -3.9349415374,
				"z": 3.0863947639,
				"element": "O" 
			},
			{
				"x": 0.8148012005,
				"y": -2.7304553034,
				"z": -1.167126083,
				"element": "H" 
			},
			{
				"x": -0.1757996267,
				"y": -0.104036904,
				"z": -1.2480750107,
				"element": "H" 
			},
			{
				"x": -0.8519544012,
				"y": -1.3923883022,
				"z": -0.2355353477,
				"element": "H" 
			},
			{
				"x": 0.2487614104,
				"y": 1.1882938807,
				"z": 0.9075649301,
				"element": "H" 
			},
			{
				"x": 1.3296856778,
				"y": 0.5141713276,
				"z": 2.1464739808,
				"element": "H" 
			},
			{
				"x": -0.8520003536,
				"y": 0.1683909327,
				"z": 2.7798584972,
				"element": "H" 
			},
			{
				"x": 3.0813652911,
				"y": 0.2322827627,
				"z": 0.5119213926,
				"element": "H" 
			},
			{
				"x": 2.0483116702,
				"y": 0.8183679147,
				"z": -0.7909409844,
				"element": "H" 
			},
			{
				"x": 2.4304942111,
				"y": -1.3479700657,
				"z": -1.7172173262,
				"element": "H" 
			},
			{
				"x": 0.6611181145,
				"y": -2.1911044688,
				"z": 1.6838397637,
				"element": "H" 
			},
			{
				"x": 2.8104154885,
				"y": -1.5434850041,
				"z": 2.6313798039,
				"element": "H" 
			},
			{
				"x": 3.513219091,
				"y": -1.9369902898,
				"z": 1.0473666381,
				"element": "H" 
			},
			{
				"x": 1.7199230928,
				"y": -4.0164937439,
				"z": 0.8147231382,
				"element": "H" 
			}
		],
		 "valence_orbital": [ 
			{
				"type": "occ",
				"energy": -0.30436,
				"method": "rhf"
			},
			{
				"type": "occ",
				"energy": -0.29042,
				"method": "rhf"
			},
			{
				"type": "occ",
				"energy": -0.27613,
				"method": "rhf"
			},
			{
				"type": "occ",
				"energy": -0.26999,
				"method": "rhf"
			},
			{
				"type": "occ",
				"energy": -0.25919,
				"method": "rhf"
			},
			{
				"type": "unocc",
				"energy": 0.01592,
				"method": "rhf"
			},
			{
				"type": "unocc",
				"energy": 0.03696,
				"method": "rhf"
			},
			{
				"type": "unocc",
				"energy": 0.0482,
				"method": "rhf"
			},
			{
				"type": "unocc",
				"energy": 0.07334,
				"method": "rhf"
			},
			{
				"type": "unocc",
				"energy": 0.09538,
				"method": "rhf"
			}
		],
		"cosmo_sigma_profile": { 
			"-0.025": 0.0,
			"-0.024": 0.0,
			"-0.023": 0.0,
			"-0.022": 0.0,
			"-0.021": 0.0,
			"-0.02": 0.0,
			"-0.019": 0.0,
			"-0.018": 0.0,
			"-0.017": 0.135069229872,
			"-0.016": 1.1117945916,
			"-0.015": 1.39943357962,
			"-0.014": 2.26637774061,
			"-0.013": 1.74054615462,
			"-0.012": 2.98158432278,
			"-0.011": 1.76218266655,
			"-0.01": 3.92148413236,
			"-0.009": 4.17071193707,
			"-0.008": 3.22701699387,
			"-0.007": 4.14080230767,
			"-0.006": 13.0535430212,
			"-0.005": 24.1872503183,
			"-0.004": 20.5759653241,
			"-0.003": 15.7161811555,
			"-0.002": 10.1398700114,
			"-0.001": 8.42780329084,
			"0.0": 6.39258366468,
			"0.001": 5.97016490326,
			"0.002": 6.29435640548,
			"0.003": 5.77343666502,
			"0.004": 4.33272429404,
			"0.005": 5.40096153659,
			"0.006": 5.80856382132,
			"0.007": 6.09253342053,
			"0.008": 4.19259779748,
			"0.009": 6.70983942087,
			"0.01": 8.32988559315,
			"0.011": 7.74443100146,
			"0.012": 7.91620772364,
			"0.013": 6.08119961548,
			"0.014": 2.35038879457,
			"0.015": 0.518470532452,
			"0.016": 0.0,
			"0.017": 0.0,
			"0.018": 0.0,
			"0.019": 0.0,
			"0.02": 0.0,
			"0.021": 0.0,
			"0.022": 0.0,
			"0.023": 0.0,
			"0.024": 0.0,
			"0.025": 0.0
		}
	}
}
