{
	 "smiles": "CC(=O)C1=C(N)C2=C(S1)N=C(C=C2C(F)(F)F)C1=CC=CS1", 
	 "Tm": 445.15, 
	 "num_atms": 31, 
	 "gaussian": { 
		 "optdone": 1, 
		 "sigma_profile": "yes", 
		 "theory": "DFT", 
		 "functional": "B3LYP", 
		 "basiset": "6-31G**", 
		 "properties": { 
			 "R2extent": 9240.1354, 
			 "electric_dipole_moment_norm": 3.42507392037, 
			 "electric_quadrupole_moment_norm": 7.79312915587, 
			 "total_energy": -1819.54803418, 
			 "HOMO_LUMO_gap": 0.11705, 
			 "cosmo_polarized_energy": -10.29, 
			 "cosmo_cavitation_energy": 39.31, 
			 "cosmo_dispersion_energy": -29.5, 
			 "cosmo_repulsion_energy": 2.06, 
			 "cosmo_total_nonelectrostatic_energy": 11.87, 
			 "SMD_solvation_energy": 6.19 
		},
		"coords": [
			{
				"x": 3.3110096516,
				"y": 2.7153980763,
				"z": 2.4072976031,
				"element": "C" 
			},
			{
				"x": 2.824423952,
				"y": 2.4159487057,
				"z": 1.0009522488,
				"element": "C" 
			},
			{
				"x": 3.3589568893,
				"y": 2.9694836429,
				"z": 0.0274000089,
				"element": "O" 
			},
			{
				"x": 1.7365889436,
				"y": 1.4718379675,
				"z": 0.8250274598,
				"element": "C" 
			},
			{
				"x": 1.226357165,
				"y": 1.0765763769,
				"z": -0.4185411462,
				"element": "C" 
			},
			{
				"x": 1.666730167,
				"y": 1.6160609557,
				"z": -1.5815818422,
				"element": "N" 
			},
			{
				"x": 0.1768141126,
				"y": 0.0793361113,
				"z": -0.2808397922,
				"element": "C" 
			},
			{
				"x": -0.0576117068,
				"y": -0.2494137797,
				"z": 1.0838134228,
				"element": "C" 
			},
			{
				"x": 0.9563713675,
				"y": 0.6506408334,
				"z": 2.1868504156,
				"element": "S" 
			},
			{
				"x": -0.9425825136,
				"y": -1.1241358572,
				"z": 1.544515251,
				"element": "N" 
			},
			{
				"x": -1.6997073221,
				"y": -1.7708132438,
				"z": 0.6462729174,
				"element": "C" 
			},
			{
				"x": -1.5729262872,
				"y": -1.52144208,
				"z": -0.7412632839,
				"element": "C" 
			},
			{
				"x": -0.6469083259,
				"y": -0.6043768099,
				"z": -1.2082961166,
				"element": "C" 
			},
			{
				"x": -0.5818022839,
				"y": -0.3536724807,
				"z": -2.6963039258,
				"element": "C" 
			},
			{
				"x": 0.6666799481,
				"y": -0.5988249669,
				"z": -3.1854379521,
				"element": "F" 
			},
			{
				"x": -0.8708832902,
				"y": 0.9280792898,
				"z": -2.9977603414,
				"element": "F" 
			},
			{
				"x": -1.428934695,
				"y": -1.1343698539,
				"z": -3.3887173004,
				"element": "F" 
			},
			{
				"x": -2.6596480585,
				"y": -2.7348670453,
				"z": 1.1810084158,
				"element": "C" 
			},
			{
				"x": -2.8689742005,
				"y": -3.0395099724,
				"z": 2.5089325176,
				"element": "C" 
			},
			{
				"x": -3.8752282238,
				"y": -4.0220270902,
				"z": 2.7091315343,
				"element": "C" 
			},
			{
				"x": -4.4280122969,
				"y": -4.4621698834,
				"z": 1.5347966348,
				"element": "C" 
			},
			{
				"x": -3.7249854953,
				"y": -3.6804021088,
				"z": 0.1606634447,
				"element": "S" 
			},
			{
				"x": 2.5023623228,
				"y": 3.1272987495,
				"z": 3.0220975175,
				"element": "H" 
			},
			{
				"x": 4.126140366,
				"y": 3.4376387418,
				"z": 2.3517738369,
				"element": "H" 
			},
			{
				"x": 3.6652518713,
				"y": 1.8040318863,
				"z": 2.9025484643,
				"element": "H" 
			},
			{
				"x": 2.4619073826,
				"y": 2.2420811385,
				"z": -1.4732771114,
				"element": "H" 
			},
			{
				"x": 1.5218283332,
				"y": 1.1342808238,
				"z": -2.4521041087,
				"element": "H" 
			},
			{
				"x": -2.2047816325,
				"y": -2.0429583619,
				"z": -1.4486167988,
				"element": "H" 
			},
			{
				"x": -2.3050690295,
				"y": -2.5586467753,
				"z": 3.2980431554,
				"element": "H" 
			},
			{
				"x": -4.1778196619,
				"y": -4.3881508603,
				"z": 3.6833369908,
				"element": "H" 
			},
			{
				"x": -5.2063474489,
				"y": -5.1991121296,
				"z": 1.3925778804,
				"element": "H" 
			}
		],
		 "valence_orbital": [ 
			{
				"type": "occ",
				"energy": -0.27428,
				"method": "rhf"
			},
			{
				"type": "occ",
				"energy": -0.26525,
				"method": "rhf"
			},
			{
				"type": "occ",
				"energy": -0.25071,
				"method": "rhf"
			},
			{
				"type": "occ",
				"energy": -0.23262,
				"method": "rhf"
			},
			{
				"type": "occ",
				"energy": -0.20494,
				"method": "rhf"
			},
			{
				"type": "unocc",
				"energy": -0.08789,
				"method": "rhf"
			},
			{
				"type": "unocc",
				"energy": -0.04604,
				"method": "rhf"
			},
			{
				"type": "unocc",
				"energy": -0.02884,
				"method": "rhf"
			},
			{
				"type": "unocc",
				"energy": 0.01331,
				"method": "rhf"
			},
			{
				"type": "unocc",
				"energy": 0.01567,
				"method": "rhf"
			}
		],
		"cosmo_sigma_profile": { 
			"-0.025": 0.0,
			"-0.024": 0.0,
			"-0.023": 0.0,
			"-0.022": 0.0,
			"-0.021": 0.0,
			"-0.02": 0.0,
			"-0.019": 0.0,
			"-0.018": 0.0,
			"-0.017": 0.0,
			"-0.016": 0.0,
			"-0.015": 0.0,
			"-0.014": 0.0,
			"-0.013": 0.0,
			"-0.012": 0.139866361603,
			"-0.011": 0.661833331747,
			"-0.01": 1.19067903687,
			"-0.009": 3.73093091099,
			"-0.008": 3.21462357602,
			"-0.007": 7.55517427064,
			"-0.006": 10.3424198518,
			"-0.005": 16.8195305865,
			"-0.004": 18.9017667479,
			"-0.003": 20.6766906683,
			"-0.002": 26.3337965181,
			"-0.001": 34.7483775592,
			"0.0": 25.8899538492,
			"0.001": 34.1943874259,
			"0.002": 43.6475207192,
			"0.003": 27.1425990934,
			"0.004": 17.7177832051,
			"0.005": 7.37172789715,
			"0.006": 3.9686969122,
			"0.007": 3.89806006167,
			"0.008": 3.16086846296,
			"0.009": 1.98482650986,
			"0.01": 1.59639665662,
			"0.011": 2.2319808379,
			"0.012": 1.69286696054,
			"0.013": 1.73838205084,
			"0.014": 0.822853330764,
			"0.015": 0.0,
			"0.016": 0.0,
			"0.017": 0.0,
			"0.018": 0.0,
			"0.019": 0.0,
			"0.02": 0.0,
			"0.021": 0.0,
			"0.022": 0.0,
			"0.023": 0.0,
			"0.024": 0.0,
			"0.025": 0.0
		}
	}
}
