{
	 "smiles": "NC1=CC(F)=C(C(F)=C1)C(F)(F)F", 
	 "Tm": 339.15, 
	 "num_atms": 17, 
	 "gaussian": { 
		 "optdone": 1, 
		 "sigma_profile": "yes", 
		 "theory": "DFT", 
		 "functional": "B3LYP", 
		 "basiset": "6-31G**", 
		 "properties": { 
			 "R2extent": 4106.6845, 
			 "electric_dipole_moment_norm": 5.80844400593, 
			 "electric_quadrupole_moment_norm": 7.3598096171, 
			 "total_energy": -823.099678213, 
			 "HOMO_LUMO_gap": 0.21463, 
			 "cosmo_polarized_energy": -9.96, 
			 "cosmo_cavitation_energy": 23.77, 
			 "cosmo_dispersion_energy": -16.98, 
			 "cosmo_repulsion_energy": 1.25, 
			 "cosmo_total_nonelectrostatic_energy": 8.05, 
			 "SMD_solvation_energy": 6.11 
		},
		"coords": [
			{
				"x": 1.9951747678,
				"y": -0.0271316398,
				"z": -0.0427027558,
				"element": "N" 
			},
			{
				"x": 0.7431510547,
				"y": -0.6001627086,
				"z": 0.0583466546,
				"element": "C" 
			},
			{
				"x": 0.2684628846,
				"y": -1.07028802,
				"z": 1.2956892775,
				"element": "C" 
			},
			{
				"x": -0.9692961104,
				"y": -1.6862208156,
				"z": 1.3622308231,
				"element": "C" 
			},
			{
				"x": -1.3667408847,
				"y": -2.1392793546,
				"z": 2.5628882186,
				"element": "F" 
			},
			{
				"x": -1.8115886003,
				"y": -1.8546618779,
				"z": 0.2539968215,
				"element": "C" 
			},
			{
				"x": -1.2891421227,
				"y": -1.3976832137,
				"z": -0.9643060436,
				"element": "C" 
			},
			{
				"x": -2.0061446931,
				"y": -1.5624728436,
				"z": -2.0883886096,
				"element": "F" 
			},
			{
				"x": -0.0586147767,
				"y": -0.7752255822,
				"z": -1.0835311489,
				"element": "C" 
			},
			{
				"x": -3.1370932843,
				"y": -2.5593723741,
				"z": 0.3488557212,
				"element": "C" 
			},
			{
				"x": -3.7178373776,
				"y": -2.3816253388,
				"z": 1.552947262,
				"element": "F" 
			},
			{
				"x": -3.0086638344,
				"y": -3.8952274833,
				"z": 0.1653661359,
				"element": "F" 
			},
			{
				"x": -4.0110473083,
				"y": -2.1170645535,
				"z": -0.5781142179,
				"element": "F" 
			},
			{
				"x": 2.4056999981,
				"y": 0.3329884853,
				"z": 0.8056014282,
				"element": "H" 
			},
			{
				"x": 2.177032153,
				"y": 0.5393342407,
				"z": -0.8574917501,
				"element": "H" 
			},
			{
				"x": 0.8551480108,
				"y": -0.9764649139,
				"z": 2.2027053018,
				"element": "H" 
			},
			{
				"x": 0.2686001236,
				"y": -0.4473420064,
				"z": -2.0638931186,
				"element": "H" 
			}
		],
		 "valence_orbital": [ 
			{
				"type": "occ",
				"energy": -0.37627,
				"method": "rhf"
			},
			{
				"type": "occ",
				"energy": -0.36354,
				"method": "rhf"
			},
			{
				"type": "occ",
				"energy": -0.32065,
				"method": "rhf"
			},
			{
				"type": "occ",
				"energy": -0.25756,
				"method": "rhf"
			},
			{
				"type": "occ",
				"energy": -0.23176,
				"method": "rhf"
			},
			{
				"type": "unocc",
				"energy": -0.01713,
				"method": "rhf"
			},
			{
				"type": "unocc",
				"energy": -0.01053,
				"method": "rhf"
			},
			{
				"type": "unocc",
				"energy": 0.05942,
				"method": "rhf"
			},
			{
				"type": "unocc",
				"energy": 0.08122,
				"method": "rhf"
			},
			{
				"type": "unocc",
				"energy": 0.09602,
				"method": "rhf"
			}
		],
		"cosmo_sigma_profile": { 
			"-0.025": 0.0,
			"-0.024": 0.0,
			"-0.023": 0.0,
			"-0.022": 0.0,
			"-0.021": 0.0,
			"-0.02": 0.0,
			"-0.019": 0.0,
			"-0.018": 0.0,
			"-0.017": 0.0,
			"-0.016": 0.0,
			"-0.015": 0.0,
			"-0.014": 1.49083274919,
			"-0.013": 2.84744513062,
			"-0.012": 2.85956903495,
			"-0.011": 3.78662744479,
			"-0.01": 3.31202948658,
			"-0.009": 3.4064638579,
			"-0.008": 4.71132423835,
			"-0.007": 3.86942931506,
			"-0.006": 3.46913951189,
			"-0.005": 3.83381163577,
			"-0.004": 2.90883765818,
			"-0.003": 2.77111623696,
			"-0.002": 5.14918793372,
			"-0.001": 10.6018802811,
			"0.0": 17.0014914175,
			"0.001": 19.903525691,
			"0.002": 24.5387134146,
			"0.003": 47.62898204,
			"0.004": 20.0178308182,
			"0.005": 2.50182604992,
			"0.006": 0.604567237421,
			"0.007": 0.868304091168,
			"0.008": 0.643043599535,
			"0.009": 0.777936471962,
			"0.01": 0.705596866133,
			"0.011": 0.421193093073,
			"0.012": 0.215291667456,
			"0.013": 0.0,
			"0.014": 0.0,
			"0.015": 0.0,
			"0.016": 0.0,
			"0.017": 0.0,
			"0.018": 0.0,
			"0.019": 0.0,
			"0.02": 0.0,
			"0.021": 0.0,
			"0.022": 0.0,
			"0.023": 0.0,
			"0.024": 0.0,
			"0.025": 0.0
		}
	}
}
