{
	 "smiles": "BrC1=CC(=CC=C1)C1=CN=C(N1)C=O", 
	 "Tm": 483.15, 
	 "num_atms": 21, 
	 "gaussian": { 
		 "optdone": 1, 
		 "sigma_profile": "yes", 
		 "theory": "DFT", 
		 "functional": "B3LYP", 
		 "basiset": "6-31G**", 
		 "properties": { 
			 "R2extent": 6520.2293, 
			 "electric_dipole_moment_norm": 2.89339089305, 
			 "electric_quadrupole_moment_norm": 14.1401194613, 
			 "total_energy": -3141.4106214, 
			 "HOMO_LUMO_gap": 0.15728, 
			 "cosmo_polarized_energy": -13.37, 
			 "cosmo_cavitation_energy": 29.06, 
			 "cosmo_dispersion_energy": -21.48, 
			 "cosmo_repulsion_energy": 1.67, 
			 "cosmo_total_nonelectrostatic_energy": 9.25, 
			 "SMD_solvation_energy": 2.85 
		},
		"coords": [
			{
				"x": -3.5121798487,
				"y": 2.6209517726,
				"z": 1.3965583069,
				"element": "Br" 
			},
			{
				"x": -2.9144087858,
				"y": 1.7226279879,
				"z": -0.1797355878,
				"element": "C" 
			},
			{
				"x": -1.6472053712,
				"y": 1.1511266302,
				"z": -0.1933260657,
				"element": "C" 
			},
			{
				"x": -1.1932290803,
				"y": 0.4870755971,
				"z": -1.3469065558,
				"element": "C" 
			},
			{
				"x": -2.0382020774,
				"y": 0.421352214,
				"z": -2.4685527848,
				"element": "C" 
			},
			{
				"x": -3.3003345769,
				"y": 1.0096275707,
				"z": -2.437674672,
				"element": "C" 
			},
			{
				"x": -3.7536957131,
				"y": 1.6654998308,
				"z": -1.2924113721,
				"element": "C" 
			},
			{
				"x": 0.1351440541,
				"y": -0.1226342711,
				"z": -1.3511563405,
				"element": "C" 
			},
			{
				"x": 0.9583377487,
				"y": -0.5627699318,
				"z": -0.3111118112,
				"element": "C" 
			},
			{
				"x": 2.117706307,
				"y": -1.0854747968,
				"z": -0.7871569359,
				"element": "N" 
			},
			{
				"x": 2.0325745221,
				"y": -0.9766194383,
				"z": -2.1096112111,
				"element": "C" 
			},
			{
				"x": 0.8468354905,
				"y": -0.4067811752,
				"z": -2.4877670121,
				"element": "N" 
			},
			{
				"x": 3.0265153201,
				"y": -1.379080014,
				"z": -3.096150386,
				"element": "C" 
			},
			{
				"x": 2.8555438849,
				"y": -1.2276053892,
				"z": -4.297310477,
				"element": "O" 
			},
			{
				"x": -1.0070818067,
				"y": 1.2350756211,
				"z": 0.6767610111,
				"element": "H" 
			},
			{
				"x": -1.7218429613,
				"y": -0.1129649591,
				"z": -3.3593943774,
				"element": "H" 
			},
			{
				"x": -3.9446939739,
				"y": 0.9500465161,
				"z": -3.3095012673,
				"element": "H" 
			},
			{
				"x": -4.7359921117,
				"y": 2.1220146512,
				"z": -1.2620800967,
				"element": "H" 
			},
			{
				"x": 0.7397095778,
				"y": -0.5413174849,
				"z": 0.7477672195,
				"element": "H" 
			},
			{
				"x": 0.6129631237,
				"y": -0.1956127075,
				"z": -3.4478850609,
				"element": "H" 
			},
			{
				"x": 3.9427362779,
				"y": -1.8283382238,
				"z": -2.6698545234,
				"element": "H" 
			}
		],
		 "valence_orbital": [ 
			{
				"type": "occ",
				"energy": -0.29534,
				"method": "rhf"
			},
			{
				"type": "occ",
				"energy": -0.29173,
				"method": "rhf"
			},
			{
				"type": "occ",
				"energy": -0.26809,
				"method": "rhf"
			},
			{
				"type": "occ",
				"energy": -0.25972,
				"method": "rhf"
			},
			{
				"type": "occ",
				"energy": -0.23306,
				"method": "rhf"
			},
			{
				"type": "unocc",
				"energy": -0.07578,
				"method": "rhf"
			},
			{
				"type": "unocc",
				"energy": -0.03422,
				"method": "rhf"
			},
			{
				"type": "unocc",
				"energy": -0.02997,
				"method": "rhf"
			},
			{
				"type": "unocc",
				"energy": -0.00413,
				"method": "rhf"
			},
			{
				"type": "unocc",
				"energy": 0.05186,
				"method": "rhf"
			}
		],
		"cosmo_sigma_profile": { 
			"-0.025": 0.0,
			"-0.024": 0.0,
			"-0.023": 0.0,
			"-0.022": 0.0,
			"-0.021": 0.0,
			"-0.02": 0.0,
			"-0.019": 0.0,
			"-0.018": 0.0,
			"-0.017": 0.0219006095985,
			"-0.016": 0.716054936999,
			"-0.015": 1.46051810421,
			"-0.014": 0.76891340176,
			"-0.013": 1.21590008151,
			"-0.012": 1.29080271139,
			"-0.011": 1.38459086952,
			"-0.01": 1.0738237656,
			"-0.009": 1.29887271295,
			"-0.008": 5.63148839524,
			"-0.007": 11.204161891,
			"-0.006": 12.6150902204,
			"-0.005": 12.3671990333,
			"-0.004": 11.710112681,
			"-0.003": 13.5649760383,
			"-0.002": 14.3768849037,
			"-0.001": 14.6165562194,
			"0.0": 17.8570208497,
			"0.001": 20.9691621375,
			"0.002": 23.3932897971,
			"0.003": 19.7779468278,
			"0.004": 16.3282859464,
			"0.005": 7.73212469023,
			"0.006": 1.91154386682,
			"0.007": 2.29124167928,
			"0.008": 2.62409160849,
			"0.009": 3.11494477558,
			"0.01": 4.36918337475,
			"0.011": 4.71010990095,
			"0.012": 3.26823891504,
			"0.013": 1.38400737727,
			"0.014": 1.00858999797,
			"0.015": 0.814730819555,
			"0.016": 0.729094186946,
			"0.017": 0.0979466437591,
			"0.018": 0.0,
			"0.019": 0.0,
			"0.02": 0.0,
			"0.021": 0.0,
			"0.022": 0.0,
			"0.023": 0.0,
			"0.024": 0.0,
			"0.025": 0.0
		}
	}
}
