{
	 "smiles": "CC(CCC(O)=O)C1CCC2C3C(O)CC4CC(O)CCC4(C)C3CCC12C", 
	 "Tm": 476.15, 
	 "num_atms": 68, 
	 "gaussian": { 
		 "optdone": 1, 
		 "sigma_profile": "yes", 
		 "theory": "DFT", 
		 "functional": "B3LYP", 
		 "basiset": "6-31G**", 
		 "properties": { 
			 "R2extent": 15647.4427, 
			 "electric_dipole_moment_norm": 1.78742988953, 
			 "electric_quadrupole_moment_norm": 20.0926697855, 
			 "total_energy": -1239.57323737, 
			 "HOMO_LUMO_gap": 0.26184, 
			 "cosmo_polarized_energy": -18.14, 
			 "cosmo_cavitation_energy": 57.05, 
			 "cosmo_dispersion_energy": -38.94, 
			 "cosmo_repulsion_energy": 2.84, 
			 "cosmo_total_nonelectrostatic_energy": 20.95, 
			 "SMD_solvation_energy": 8.69 
		},
		"coords": [
			{
				"x": 1.1843052118,
				"y": 0.1322005171,
				"z": 5.2410498857,
				"element": "C" 
			},
			{
				"x": 1.7362766459,
				"y": -0.050168014,
				"z": 3.8140144542,
				"element": "C" 
			},
			{
				"x": 2.5181681203,
				"y": -1.3850602299,
				"z": 3.6947150811,
				"element": "C" 
			},
			{
				"x": 1.7471776279,
				"y": -2.6799322848,
				"z": 4.036626865,
				"element": "C" 
			},
			{
				"x": 1.5278717535,
				"y": -2.9694245904,
				"z": 5.5062053912,
				"element": "C" 
			},
			{
				"x": 2.6737156363,
				"y": -2.8607035979,
				"z": 6.2284869584,
				"element": "O" 
			},
			{
				"x": 0.4798117893,
				"y": -3.3060460803,
				"z": 6.0134758242,
				"element": "O" 
			},
			{
				"x": 0.6334977191,
				"y": 0.1058023513,
				"z": 2.7348897812,
				"element": "C" 
			},
			{
				"x": -0.4018856355,
				"y": 1.2214002222,
				"z": 3.0237755425,
				"element": "C" 
			},
			{
				"x": -1.0571325223,
				"y": 1.4926173807,
				"z": 1.6655986157,
				"element": "C" 
			},
			{
				"x": 0.1684567111,
				"y": 1.5314490402,
				"z": 0.743102576,
				"element": "C" 
			},
			{
				"x": -0.0564913504,
				"y": 1.6028156828,
				"z": -0.7799180364,
				"element": "C" 
			},
			{
				"x": -0.9752073225,
				"y": 2.7515546003,
				"z": -1.2151166218,
				"element": "C" 
			},
			{
				"x": -0.7553238279,
				"y": 3.9694986136,
				"z": -0.5001134244,
				"element": "O" 
			},
			{
				"x": -0.8237774531,
				"y": 2.9682090957,
				"z": -2.7288693259,
				"element": "C" 
			},
			{
				"x": -0.5434690768,
				"y": 1.6767447706,
				"z": -3.5523360632,
				"element": "C" 
			},
			{
				"x": -1.0592519581,
				"y": 1.8384193857,
				"z": -5.0044190387,
				"element": "C" 
			},
			{
				"x": -2.5535267041,
				"y": 1.4886031604,
				"z": -5.2116292018,
				"element": "C" 
			},
			{
				"x": -2.5961994383,
				"y": 0.2826423694,
				"z": -5.9895546671,
				"element": "O" 
			},
			{
				"x": -3.30630842,
				"y": 1.334117474,
				"z": -3.8847104495,
				"element": "C" 
			},
			{
				"x": -2.6383445331,
				"y": 0.3859547822,
				"z": -2.863013418,
				"element": "C" 
			},
			{
				"x": -1.0674750962,
				"y": 0.3737811036,
				"z": -2.8747137521,
				"element": "C" 
			},
			{
				"x": -0.6195375498,
				"y": -0.8430576189,
				"z": -3.7176563781,
				"element": "C" 
			},
			{
				"x": -0.5208051711,
				"y": 0.2544877364,
				"z": -1.3880178909,
				"element": "C" 
			},
			{
				"x": 0.6199194391,
				"y": -0.7498298429,
				"z": -1.1210853956,
				"element": "C" 
			},
			{
				"x": 0.7983702101,
				"y": -0.941300223,
				"z": 0.3942527107,
				"element": "C" 
			},
			{
				"x": 1.0831824306,
				"y": 0.3458460299,
				"z": 1.2189306821,
				"element": "C" 
			},
			{
				"x": 2.5544544334,
				"y": 0.7667623657,
				"z": 1.0351448807,
				"element": "C" 
			},
			{
				"x": 0.3599654534,
				"y": -0.5571197122,
				"z": 5.4525465269,
				"element": "H" 
			},
			{
				"x": 1.969921365,
				"y": -0.0503993695,
				"z": 5.98204338,
				"element": "H" 
			},
			{
				"x": 0.8109859183,
				"y": 1.1469695751,
				"z": 5.4007372107,
				"element": "H" 
			},
			{
				"x": 2.4762250854,
				"y": 0.7467544295,
				"z": 3.660833403,
				"element": "H" 
			},
			{
				"x": 3.4048508344,
				"y": -1.3359009644,
				"z": 4.3361868279,
				"element": "H" 
			},
			{
				"x": 2.8886188791,
				"y": -1.4950076401,
				"z": 2.6717063577,
				"element": "H" 
			},
			{
				"x": 0.7662230089,
				"y": -2.7171092054,
				"z": 3.558497444,
				"element": "H" 
			},
			{
				"x": 2.3239300741,
				"y": -3.5302476161,
				"z": 3.6493301465,
				"element": "H" 
			},
			{
				"x": 2.4319110429,
				"y": -3.0879205406,
				"z": 7.1420234621,
				"element": "H" 
			},
			{
				"x": 0.0609998484,
				"y": -0.8311452956,
				"z": 2.7400617971,
				"element": "H" 
			},
			{
				"x": -1.1149383835,
				"y": 0.9346745452,
				"z": 3.8024235924,
				"element": "H" 
			},
			{
				"x": 0.1016958615,
				"y": 2.1356890711,
				"z": 3.3675265514,
				"element": "H" 
			},
			{
				"x": -1.6235257967,
				"y": 2.4275705599,
				"z": 1.6376689165,
				"element": "H" 
			},
			{
				"x": -1.7421109376,
				"y": 0.675371322,
				"z": 1.4031136963,
				"element": "H" 
			},
			{
				"x": 0.6915367879,
				"y": 2.4589507993,
				"z": 1.0121029747,
				"element": "H" 
			},
			{
				"x": 0.9303855562,
				"y": 1.8219559862,
				"z": -1.2240763708,
				"element": "H" 
			},
			{
				"x": -2.0118854749,
				"y": 2.4935226366,
				"z": -0.9698556576,
				"element": "H" 
			},
			{
				"x": 0.1456373564,
				"y": 4.2622278832,
				"z": -0.6958986818,
				"element": "H" 
			},
			{
				"x": 0.025813435,
				"y": 3.6505813596,
				"z": -2.8785301006,
				"element": "H" 
			},
			{
				"x": -1.696930614,
				"y": 3.5078648322,
				"z": -3.1080485103,
				"element": "H" 
			},
			{
				"x": 0.5472038859,
				"y": 1.5716417631,
				"z": -3.6168308583,
				"element": "H" 
			},
			{
				"x": -0.4894564849,
				"y": 1.2058500008,
				"z": -5.6904603614,
				"element": "H" 
			},
			{
				"x": -0.8779496196,
				"y": 2.8717448322,
				"z": -5.3217306885,
				"element": "H" 
			},
			{
				"x": -3.036361017,
				"y": 2.2926829448,
				"z": -5.7886668332,
				"element": "H" 
			},
			{
				"x": -3.5223157259,
				"y": 0.0202416082,
				"z": -6.0768524041,
				"element": "H" 
			},
			{
				"x": -4.331298427,
				"y": 0.994476439,
				"z": -4.0897561855,
				"element": "H" 
			},
			{
				"x": -3.4182493285,
				"y": 2.3323054222,
				"z": -3.4468379392,
				"element": "H" 
			},
			{
				"x": -2.9871061307,
				"y": -0.6384007587,
				"z": -3.0364728921,
				"element": "H" 
			},
			{
				"x": -3.0099317083,
				"y": 0.6559878603,
				"z": -1.8688564962,
				"element": "H" 
			},
			{
				"x": 0.4676006319,
				"y": -0.871769165,
				"z": -3.8488715484,
				"element": "H" 
			},
			{
				"x": -0.9219998408,
				"y": -1.7785039172,
				"z": -3.2351884734,
				"element": "H" 
			},
			{
				"x": -1.0872689353,
				"y": -0.8246063169,
				"z": -4.7027543744,
				"element": "H" 
			},
			{
				"x": -1.3712908254,
				"y": -0.1005162997,
				"z": -0.7880722635,
				"element": "H" 
			},
			{
				"x": 0.4037996419,
				"y": -1.7287778264,
				"z": -1.5571048052,
				"element": "H" 
			},
			{
				"x": 1.5511159187,
				"y": -0.4025856869,
				"z": -1.5894741312,
				"element": "H" 
			},
			{
				"x": 1.5924212001,
				"y": -1.6755951581,
				"z": 0.5860879242,
				"element": "H" 
			},
			{
				"x": -0.1272943747,
				"y": -1.4004967006,
				"z": 0.7649320213,
				"element": "H" 
			},
			{
				"x": 2.7985485435,
				"y": 1.6493961735,
				"z": 1.6354279343,
				"element": "H" 
			},
			{
				"x": 2.7482081541,
				"y": 1.0282506603,
				"z": -0.0108098207,
				"element": "H" 
			},
			{
				"x": 3.2619434728,
				"y": -0.0245927304,
				"z": 1.2985836442,
				"element": "H" 
			}
		],
		 "valence_orbital": [ 
			{
				"type": "occ",
				"energy": -0.27681,
				"method": "rhf"
			},
			{
				"type": "occ",
				"energy": -0.2726,
				"method": "rhf"
			},
			{
				"type": "occ",
				"energy": -0.26654,
				"method": "rhf"
			},
			{
				"type": "occ",
				"energy": -0.2613,
				"method": "rhf"
			},
			{
				"type": "occ",
				"energy": -0.24958,
				"method": "rhf"
			},
			{
				"type": "unocc",
				"energy": 0.01226,
				"method": "rhf"
			},
			{
				"type": "unocc",
				"energy": 0.06214,
				"method": "rhf"
			},
			{
				"type": "unocc",
				"energy": 0.06358,
				"method": "rhf"
			},
			{
				"type": "unocc",
				"energy": 0.07008,
				"method": "rhf"
			},
			{
				"type": "unocc",
				"energy": 0.08071,
				"method": "rhf"
			}
		],
		"cosmo_sigma_profile": { 
			"-0.025": 0.0,
			"-0.024": 0.0,
			"-0.023": 0.0,
			"-0.022": 0.0,
			"-0.021": 0.0,
			"-0.02": 0.0,
			"-0.019": 0.0,
			"-0.018": 0.452046638787,
			"-0.017": 0.652505377836,
			"-0.016": 1.39148321328,
			"-0.015": 0.477527909334,
			"-0.014": 2.47770662239,
			"-0.013": 2.00754622516,
			"-0.012": 2.67034986249,
			"-0.011": 2.72914841793,
			"-0.01": 3.20541443315,
			"-0.009": 2.95809760543,
			"-0.008": 2.34741466805,
			"-0.007": 1.84935100185,
			"-0.006": 5.79199483775,
			"-0.005": 6.8325849082,
			"-0.004": 11.0445679453,
			"-0.003": 26.5984828169,
			"-0.002": 66.0111181004,
			"-0.001": 78.8183624736,
			"0.0": 66.2498431752,
			"0.001": 49.9637348346,
			"0.002": 29.3723477516,
			"0.003": 11.03620833,
			"0.004": 5.72787484982,
			"0.005": 7.18706191863,
			"0.006": 5.6845872793,
			"0.007": 6.20361918836,
			"0.008": 4.62744313671,
			"0.009": 5.17322292771,
			"0.01": 4.24278057688,
			"0.011": 5.06507308691,
			"0.012": 6.86800217099,
			"0.013": 4.96364077553,
			"0.014": 2.41956088612,
			"0.015": 1.68413329452,
			"0.016": 0.049325181371,
			"0.017": 0.0,
			"0.018": 0.0,
			"0.019": 0.0,
			"0.02": 0.0,
			"0.021": 0.0,
			"0.022": 0.0,
			"0.023": 0.0,
			"0.024": 0.0,
			"0.025": 0.0
		}
	}
}
