{
	 "smiles": "COC(=O)C1=NOC(C1)C(O)=O", 
	 "Tm": 357.15, 
	 "num_atms": 19, 
	 "gaussian": { 
		 "optdone": 1, 
		 "sigma_profile": "yes", 
		 "theory": "DFT", 
		 "functional": "B3LYP", 
		 "basiset": "6-31G**", 
		 "properties": { 
			 "R2extent": 3614.2551, 
			 "electric_dipole_moment_norm": 4.22441190463, 
			 "electric_quadrupole_moment_norm": 19.2896270249, 
			 "total_energy": -663.671449722, 
			 "HOMO_LUMO_gap": 0.20192, 
			 "cosmo_polarized_energy": -17.77, 
			 "cosmo_cavitation_energy": 24.8, 
			 "cosmo_dispersion_energy": -18.06, 
			 "cosmo_repulsion_energy": 1.48, 
			 "cosmo_total_nonelectrostatic_energy": 8.23, 
			 "SMD_solvation_energy": 6.93 
		},
		"coords": [
			{
				"x": -1.1798270244,
				"y": -1.9793338079,
				"z": 1.5745603408,
				"element": "C" 
			},
			{
				"x": -0.562181105,
				"y": -0.6921416173,
				"z": 1.4032621755,
				"element": "O" 
			},
			{
				"x": -1.4111118724,
				"y": 0.310109139,
				"z": 1.0732670775,
				"element": "C" 
			},
			{
				"x": -2.6046538954,
				"y": 0.175896096,
				"z": 0.9298067309,
				"element": "O" 
			},
			{
				"x": -0.6444151428,
				"y": 1.575757726,
				"z": 0.9238274072,
				"element": "C" 
			},
			{
				"x": -1.2632123127,
				"y": 2.6605339847,
				"z": 0.6222948784,
				"element": "N" 
			},
			{
				"x": -0.3742046986,
				"y": 3.7086988897,
				"z": 0.5441808791,
				"element": "O" 
			},
			{
				"x": 0.9957243055,
				"y": 3.2255830282,
				"z": 0.7841310797,
				"element": "C" 
			},
			{
				"x": 0.8476471569,
				"y": 1.7341509892,
				"z": 1.087209991,
				"element": "C" 
			},
			{
				"x": 1.7955563866,
				"y": 3.5132178087,
				"z": -0.4866663118,
				"element": "C" 
			},
			{
				"x": 1.9811686872,
				"y": 4.8354864208,
				"z": -0.6471619003,
				"element": "O" 
			},
			{
				"x": 2.202599603,
				"y": 2.6751074615,
				"z": -1.25887182,
				"element": "O" 
			},
			{
				"x": -1.6685165447,
				"y": -2.2947195942,
				"z": 0.6495238406,
				"element": "H" 
			},
			{
				"x": -1.9254109085,
				"y": -1.9429051077,
				"z": 2.3725936356,
				"element": "H" 
			},
			{
				"x": -0.3705920828,
				"y": -2.661275993,
				"z": 1.8340103155,
				"element": "H" 
			},
			{
				"x": 1.398272713,
				"y": 3.8195586082,
				"z": 1.6088859435,
				"element": "H" 
			},
			{
				"x": 1.1763459036,
				"y": 1.460207597,
				"z": 2.0932155572,
				"element": "H" 
			},
			{
				"x": 1.4008024474,
				"y": 1.1246703493,
				"z": 0.3667971265,
				"element": "H" 
			},
			{
				"x": 2.445308384,
				"y": 4.9556980216,
				"z": -1.4931669468,
				"element": "H" 
			}
		],
		 "valence_orbital": [ 
			{
				"type": "occ",
				"energy": -0.31656,
				"method": "rhf"
			},
			{
				"type": "occ",
				"energy": -0.31216,
				"method": "rhf"
			},
			{
				"type": "occ",
				"energy": -0.29978,
				"method": "rhf"
			},
			{
				"type": "occ",
				"energy": -0.284,
				"method": "rhf"
			},
			{
				"type": "occ",
				"energy": -0.26242,
				"method": "rhf"
			},
			{
				"type": "unocc",
				"energy": -0.0605,
				"method": "rhf"
			},
			{
				"type": "unocc",
				"energy": -0.02347,
				"method": "rhf"
			},
			{
				"type": "unocc",
				"energy": 0.05795,
				"method": "rhf"
			},
			{
				"type": "unocc",
				"energy": 0.06527,
				"method": "rhf"
			},
			{
				"type": "unocc",
				"energy": 0.09716,
				"method": "rhf"
			}
		],
		"cosmo_sigma_profile": { 
			"-0.025": 0.0,
			"-0.024": 0.0,
			"-0.023": 0.0,
			"-0.022": 0.0,
			"-0.021": 0.0,
			"-0.02": 0.0293636968599,
			"-0.019": 0.731249056808,
			"-0.018": 1.30761211443,
			"-0.017": 0.715409910299,
			"-0.016": 0.990625645663,
			"-0.015": 0.639244149241,
			"-0.014": 0.178728369703,
			"-0.013": 0.771149638739,
			"-0.012": 1.11368992037,
			"-0.011": 0.743560641649,
			"-0.01": 0.671353221107,
			"-0.009": 4.48036326341,
			"-0.008": 6.59065956444,
			"-0.007": 8.78274583306,
			"-0.006": 12.2106322927,
			"-0.005": 16.3800820569,
			"-0.004": 18.7121943034,
			"-0.003": 13.0929400745,
			"-0.002": 10.1954408104,
			"-0.001": 6.30981583332,
			"0.0": 6.73601436286,
			"0.001": 7.44464873271,
			"0.002": 6.03092263065,
			"0.003": 5.83196576835,
			"0.004": 6.85795915858,
			"0.005": 7.01928681701,
			"0.006": 6.51187918414,
			"0.007": 8.24872947983,
			"0.008": 9.01413823348,
			"0.009": 7.42375397807,
			"0.01": 8.13435400933,
			"0.011": 9.17195796182,
			"0.012": 3.73061439292,
			"0.013": 0.336992386211,
			"0.014": 0.0,
			"0.015": 0.0,
			"0.016": 0.0,
			"0.017": 0.0,
			"0.018": 0.0,
			"0.019": 0.0,
			"0.02": 0.0,
			"0.021": 0.0,
			"0.022": 0.0,
			"0.023": 0.0,
			"0.024": 0.0,
			"0.025": 0.0
		}
	}
}
