{
	 "smiles": "OCC1NC2=C(NC1=O)C=CC=C2", 
	 "Tm": 414.15, 
	 "num_atms": 23, 
	 "gaussian": { 
		 "optdone": 1, 
		 "sigma_profile": "yes", 
		 "theory": "DFT", 
		 "functional": "B3LYP", 
		 "basiset": "6-31G**", 
		 "properties": { 
			 "R2extent": 2492.668, 
			 "electric_dipole_moment_norm": 3.04309234168, 
			 "electric_quadrupole_moment_norm": 13.8222413595, 
			 "total_energy": -608.943422125, 
			 "HOMO_LUMO_gap": 0.18493, 
			 "cosmo_polarized_energy": -15.49, 
			 "cosmo_cavitation_energy": 26.39, 
			 "cosmo_dispersion_energy": -19.52, 
			 "cosmo_repulsion_energy": 1.55, 
			 "cosmo_total_nonelectrostatic_energy": 8.42, 
			 "SMD_solvation_energy": 3.82 
		},
		"coords": [
			{
				"x": -3.3743013019,
				"y": 1.5370349672,
				"z": -0.4512007936,
				"element": "O" 
			},
			{
				"x": -2.6075810167,
				"y": 1.2711691281,
				"z": 0.7177886629,
				"element": "C" 
			},
			{
				"x": -1.1395811717,
				"y": 1.5093495312,
				"z": 0.3219070253,
				"element": "C" 
			},
			{
				"x": -0.7158682442,
				"y": 0.6891611263,
				"z": -0.8090844809,
				"element": "N" 
			},
			{
				"x": -0.2711465628,
				"y": -0.6119721913,
				"z": -0.5793257954,
				"element": "C" 
			},
			{
				"x": 0.3689147616,
				"y": -0.8944896591,
				"z": 0.6448259789,
				"element": "C" 
			},
			{
				"x": 0.4588544953,
				"y": 0.1458483767,
				"z": 1.5904580499,
				"element": "N" 
			},
			{
				"x": -0.2369692142,
				"y": 1.3247312288,
				"z": 1.5416062016,
				"element": "C" 
			},
			{
				"x": -0.1823386591,
				"y": 2.1600737252,
				"z": 2.4323683035,
				"element": "O" 
			},
			{
				"x": 0.9019045255,
				"y": -2.1576594844,
				"z": 0.8930560222,
				"element": "C" 
			},
			{
				"x": 0.8132157429,
				"y": -3.1608737956,
				"z": -0.0747856742,
				"element": "C" 
			},
			{
				"x": 0.1800422867,
				"y": -2.8916705377,
				"z": -1.2883990437,
				"element": "C" 
			},
			{
				"x": -0.362135032,
				"y": -1.6295597171,
				"z": -1.5363570884,
				"element": "C" 
			},
			{
				"x": -4.291059816,
				"y": 1.2913151779,
				"z": -0.2795863332,
				"element": "H" 
			},
			{
				"x": -2.8679059307,
				"y": 1.9436363764,
				"z": 1.5463393916,
				"element": "H" 
			},
			{
				"x": -2.7365982074,
				"y": 0.2313219915,
				"z": 1.0558890125,
				"element": "H" 
			},
			{
				"x": -1.0511400174,
				"y": 2.5622593019,
				"z": 0.0348045832,
				"element": "H" 
			},
			{
				"x": -1.3567009227,
				"y": 0.7789990502,
				"z": -1.5886547879,
				"element": "H" 
			},
			{
				"x": 1.0124931374,
				"y": 0.0092095317,
				"z": 2.4267459588,
				"element": "H" 
			},
			{
				"x": 1.3876107562,
				"y": -2.3518425269,
				"z": 1.8462655407,
				"element": "H" 
			},
			{
				"x": 1.2339773868,
				"y": -4.1411914171,
				"z": 0.1236393344,
				"element": "H" 
			},
			{
				"x": 0.1012277918,
				"y": -3.6645177785,
				"z": -2.0469948702,
				"element": "H" 
			},
			{
				"x": -0.8530147875,
				"y": -1.4192324057,
				"z": -2.4832051981,
				"element": "H" 
			}
		],
		 "valence_orbital": [ 
			{
				"type": "occ",
				"energy": -0.29796,
				"method": "rhf"
			},
			{
				"type": "occ",
				"energy": -0.28486,
				"method": "rhf"
			},
			{
				"type": "occ",
				"energy": -0.25832,
				"method": "rhf"
			},
			{
				"type": "occ",
				"energy": -0.23084,
				"method": "rhf"
			},
			{
				"type": "occ",
				"energy": -0.19408,
				"method": "rhf"
			},
			{
				"type": "unocc",
				"energy": -0.00915,
				"method": "rhf"
			},
			{
				"type": "unocc",
				"energy": 0.0056,
				"method": "rhf"
			},
			{
				"type": "unocc",
				"energy": 0.03775,
				"method": "rhf"
			},
			{
				"type": "unocc",
				"energy": 0.0642,
				"method": "rhf"
			},
			{
				"type": "unocc",
				"energy": 0.08802,
				"method": "rhf"
			}
		],
		"cosmo_sigma_profile": { 
			"-0.025": 0.0,
			"-0.024": 0.0,
			"-0.023": 0.0,
			"-0.022": 0.0,
			"-0.021": 0.0,
			"-0.02": 0.0,
			"-0.019": 0.0,
			"-0.018": 0.0,
			"-0.017": 0.233837419181,
			"-0.016": 0.990090917977,
			"-0.015": 1.70880566398,
			"-0.014": 2.33517596091,
			"-0.013": 1.79828234336,
			"-0.012": 1.75689894827,
			"-0.011": 2.49532072606,
			"-0.01": 3.35102107281,
			"-0.009": 3.4206160325,
			"-0.008": 2.84236577653,
			"-0.007": 4.72182181564,
			"-0.006": 8.15817259229,
			"-0.005": 13.6722429423,
			"-0.004": 16.3926500744,
			"-0.003": 16.8304189575,
			"-0.002": 13.0244218611,
			"-0.001": 11.2402710995,
			"0.0": 10.6983978608,
			"0.001": 9.95074177541,
			"0.002": 9.66406060859,
			"0.003": 9.87762983743,
			"0.004": 10.9819572267,
			"0.005": 10.783120295,
			"0.006": 11.1877125111,
			"0.007": 7.30849758224,
			"0.008": 2.64857485504,
			"0.009": 2.19126015597,
			"0.01": 2.42449326517,
			"0.011": 3.75780114655,
			"0.012": 3.73439481043,
			"0.013": 6.20471955759,
			"0.014": 2.12011663943,
			"0.015": 0.0235224431518,
			"0.016": 0.0,
			"0.017": 0.0,
			"0.018": 0.0,
			"0.019": 0.0,
			"0.02": 0.0,
			"0.021": 0.0,
			"0.022": 0.0,
			"0.023": 0.0,
			"0.024": 0.0,
			"0.025": 0.0
		}
	}
}
