{
	 "smiles": "COS(=O)(=O)C1=CC=C(C)C=C1", 
	 "Tm": 301.65, 
	 "num_atms": 22, 
	 "gaussian": { 
		 "optdone": 1, 
		 "sigma_profile": "yes", 
		 "theory": "DFT", 
		 "functional": "B3LYP", 
		 "basiset": "6-31G**", 
		 "properties": { 
			 "R2extent": 2682.8239, 
			 "electric_dipole_moment_norm": 5.85843363366, 
			 "electric_quadrupole_moment_norm": 15.7877845501, 
			 "total_energy": -934.667688288, 
			 "HOMO_LUMO_gap": 0.22397, 
			 "cosmo_polarized_energy": -12.36, 
			 "cosmo_cavitation_energy": 27.11, 
			 "cosmo_dispersion_energy": -20.19, 
			 "cosmo_repulsion_energy": 1.56, 
			 "cosmo_total_nonelectrostatic_energy": 8.49, 
			 "SMD_solvation_energy": 4.4 
		},
		"coords": [
			{
				"x": 0.3540718799,
				"y": 2.747077248,
				"z": -0.0387129315,
				"element": "C" 
			},
			{
				"x": -0.8729060732,
				"y": 2.1243220849,
				"z": -0.4681456557,
				"element": "O" 
			},
			{
				"x": -0.7520769184,
				"y": 0.9510991027,
				"z": -1.6121250493,
				"element": "S" 
			},
			{
				"x": 0.3214130556,
				"y": 1.3110592102,
				"z": -2.5378942526,
				"element": "O" 
			},
			{
				"x": -2.1235049149,
				"y": 0.7500130524,
				"z": -2.0545328134,
				"element": "O" 
			},
			{
				"x": -0.2296062107,
				"y": -0.4680047385,
				"z": -0.6625717248,
				"element": "C" 
			},
			{
				"x": 1.1070430525,
				"y": -0.8658511232,
				"z": -0.6919296251,
				"element": "C" 
			},
			{
				"x": 1.5011224428,
				"y": -1.9701128586,
				"z": 0.0643004165,
				"element": "C" 
			},
			{
				"x": 0.5798548678,
				"y": -2.6804135978,
				"z": 0.8445207739,
				"element": "C" 
			},
			{
				"x": 1.0046225714,
				"y": -3.8913004079,
				"z": 1.6393558705,
				"element": "C" 
			},
			{
				"x": -0.7596843373,
				"y": -2.2573412856,
				"z": 0.8514174681,
				"element": "C" 
			},
			{
				"x": -1.1726733579,
				"y": -1.1595395501,
				"z": 0.1037566683,
				"element": "C" 
			},
			{
				"x": 0.0457143088,
				"y": 3.5481002722,
				"z": 0.6338892974,
				"element": "H" 
			},
			{
				"x": 0.8989651159,
				"y": 3.1558363946,
				"z": -0.8918826377,
				"element": "H" 
			},
			{
				"x": 0.9840020192,
				"y": 2.0339834877,
				"z": 0.5044472752,
				"element": "H" 
			},
			{
				"x": 1.8164133678,
				"y": -0.3272893418,
				"z": -1.3105992593,
				"element": "H" 
			},
			{
				"x": 2.540441175,
				"y": -2.2864786296,
				"z": 0.0428264153,
				"element": "H" 
			},
			{
				"x": 0.7134853059,
				"y": -4.8165043489,
				"z": 1.1272497555,
				"element": "H" 
			},
			{
				"x": 0.5319397126,
				"y": -3.9066770176,
				"z": 2.6264087686,
				"element": "H" 
			},
			{
				"x": 2.0884519079,
				"y": -3.9195693746,
				"z": 1.7794400875,
				"element": "H" 
			},
			{
				"x": -1.4883203186,
				"y": -2.7996948368,
				"z": 1.4481737716,
				"element": "H" 
			},
			{
				"x": -2.2105686522,
				"y": -0.8446137417,
				"z": 0.0993073808,
				"element": "H" 
			}
		],
		 "valence_orbital": [ 
			{
				"type": "occ",
				"energy": -0.31902,
				"method": "rhf"
			},
			{
				"type": "occ",
				"energy": -0.31273,
				"method": "rhf"
			},
			{
				"type": "occ",
				"energy": -0.30403,
				"method": "rhf"
			},
			{
				"type": "occ",
				"energy": -0.27391,
				"method": "rhf"
			},
			{
				"type": "occ",
				"energy": -0.26616,
				"method": "rhf"
			},
			{
				"type": "unocc",
				"energy": -0.04219,
				"method": "rhf"
			},
			{
				"type": "unocc",
				"energy": -0.02479,
				"method": "rhf"
			},
			{
				"type": "unocc",
				"energy": 0.05007,
				"method": "rhf"
			},
			{
				"type": "unocc",
				"energy": 0.07627,
				"method": "rhf"
			},
			{
				"type": "unocc",
				"energy": 0.09045,
				"method": "rhf"
			}
		],
		"cosmo_sigma_profile": { 
			"-0.025": 0.0,
			"-0.024": 0.0,
			"-0.023": 0.0,
			"-0.022": 0.0,
			"-0.021": 0.0,
			"-0.02": 0.0,
			"-0.019": 0.0,
			"-0.018": 0.0,
			"-0.017": 0.0,
			"-0.016": 0.0,
			"-0.015": 0.0,
			"-0.014": 0.0,
			"-0.013": 0.0,
			"-0.012": 0.0,
			"-0.011": 0.0,
			"-0.01": 0.0,
			"-0.009": 0.0,
			"-0.008": 0.93911841988,
			"-0.007": 6.4384129508,
			"-0.006": 14.4567831682,
			"-0.005": 21.3374600675,
			"-0.004": 22.9168652195,
			"-0.003": 17.3215240742,
			"-0.002": 15.2129278727,
			"-0.001": 17.5145572699,
			"0.0": 14.8032644517,
			"0.001": 13.5127157748,
			"0.002": 13.5414301577,
			"0.003": 14.0127010089,
			"0.004": 3.70511545985,
			"0.005": 3.81653176226,
			"0.006": 4.17720397574,
			"0.007": 4.37689126574,
			"0.008": 4.30054383374,
			"0.009": 7.97805492726,
			"0.01": 10.4716953997,
			"0.011": 4.91642301698,
			"0.012": 0.0,
			"0.013": 0.0,
			"0.014": 0.0,
			"0.015": 0.0,
			"0.016": 0.0,
			"0.017": 0.0,
			"0.018": 0.0,
			"0.019": 0.0,
			"0.02": 0.0,
			"0.021": 0.0,
			"0.022": 0.0,
			"0.023": 0.0,
			"0.024": 0.0,
			"0.025": 0.0
		}
	}
}
