{
	 "smiles": "OC(=O)C=CC1=CNC2=C1C=CC=C2", 
	 "Tm": 459.15, 
	 "num_atms": 23, 
	 "gaussian": { 
		 "optdone": 1, 
		 "sigma_profile": "yes", 
		 "theory": "DFT", 
		 "functional": "B3LYP", 
		 "basiset": "6-31G**", 
		 "properties": { 
			 "R2extent": 4021.4286, 
			 "electric_dipole_moment_norm": 7.17647659789, 
			 "electric_quadrupole_moment_norm": 22.3015947351, 
			 "total_energy": -629.79082166, 
			 "HOMO_LUMO_gap": 0.15354, 
			 "cosmo_polarized_energy": -21.71, 
			 "cosmo_cavitation_energy": 28.19, 
			 "cosmo_dispersion_energy": -20.64, 
			 "cosmo_repulsion_energy": 1.61, 
			 "cosmo_total_nonelectrostatic_energy": 9.16, 
			 "SMD_solvation_energy": 5.92 
		},
		"coords": [
			{
				"x": 1.9345331049,
				"y": -1.3150982614,
				"z": 4.204277543,
				"element": "O" 
			},
			{
				"x": 1.7455899142,
				"y": -2.2177480292,
				"z": 3.1948079818,
				"element": "C" 
			},
			{
				"x": 1.815909803,
				"y": -3.4035790618,
				"z": 3.4297325191,
				"element": "O" 
			},
			{
				"x": 1.4490276109,
				"y": -1.6839288111,
				"z": 1.8475202027,
				"element": "C" 
			},
			{
				"x": 0.9619178806,
				"y": -0.4511106964,
				"z": 1.5880451586,
				"element": "C" 
			},
			{
				"x": 0.6124107177,
				"y": 0.1029128845,
				"z": 0.2981849488,
				"element": "C" 
			},
			{
				"x": 0.7660498983,
				"y": -0.4790919704,
				"z": -0.9490536066,
				"element": "C" 
			},
			{
				"x": 0.3174254879,
				"y": 0.376420385,
				"z": -1.9209310685,
				"element": "N" 
			},
			{
				"x": -0.1431590229,
				"y": 1.5460045405,
				"z": -1.3395361773,
				"element": "C" 
			},
			{
				"x": 0.0275350587,
				"y": 1.4092753812,
				"z": 0.0621172425,
				"element": "C" 
			},
			{
				"x": -0.3686873107,
				"y": 2.4681803833,
				"z": 0.8958230429,
				"element": "C" 
			},
			{
				"x": -0.9097003199,
				"y": 3.6119365124,
				"z": 0.321624645,
				"element": "C" 
			},
			{
				"x": -1.0672999027,
				"y": 3.7238294791,
				"z": -1.0748292383,
				"element": "C" 
			},
			{
				"x": -0.6870197958,
				"y": 2.6926169163,
				"z": -1.9257014361,
				"element": "C" 
			},
			{
				"x": 2.0481908493,
				"y": -0.429936217,
				"z": 3.8321568997,
				"element": "H" 
			},
			{
				"x": 1.5767207505,
				"y": -2.4181515256,
				"z": 1.0579173701,
				"element": "H" 
			},
			{
				"x": 0.7755359536,
				"y": 0.2196208674,
				"z": 2.4276304665,
				"element": "H" 
			},
			{
				"x": 1.1686198072,
				"y": -1.4463158173,
				"z": -1.2133146567,
				"element": "H" 
			},
			{
				"x": 0.3258342244,
				"y": 0.1812910801,
				"z": -2.909426788,
				"element": "H" 
			},
			{
				"x": -0.2588606991,
				"y": 2.398763268,
				"z": 1.9744792785,
				"element": "H" 
			},
			{
				"x": -1.2191945267,
				"y": 4.4357919872,
				"z": 0.9576091493,
				"element": "H" 
			},
			{
				"x": -1.4939892382,
				"y": 4.6304822953,
				"z": -1.4928542287,
				"element": "H" 
			},
			{
				"x": -0.808590245,
				"y": 2.7755344102,
				"z": -3.0018792483,
				"element": "H" 
			}
		],
		 "valence_orbital": [ 
			{
				"type": "occ",
				"energy": -0.30204,
				"method": "rhf"
			},
			{
				"type": "occ",
				"energy": -0.27013,
				"method": "rhf"
			},
			{
				"type": "occ",
				"energy": -0.25788,
				"method": "rhf"
			},
			{
				"type": "occ",
				"energy": -0.23955,
				"method": "rhf"
			},
			{
				"type": "occ",
				"energy": -0.21161,
				"method": "rhf"
			},
			{
				"type": "unocc",
				"energy": -0.05807,
				"method": "rhf"
			},
			{
				"type": "unocc",
				"energy": -0.01877,
				"method": "rhf"
			},
			{
				"type": "unocc",
				"energy": 0.01206,
				"method": "rhf"
			},
			{
				"type": "unocc",
				"energy": 0.05486,
				"method": "rhf"
			},
			{
				"type": "unocc",
				"energy": 0.06131,
				"method": "rhf"
			}
		],
		"cosmo_sigma_profile": { 
			"-0.025": 0.0,
			"-0.024": 0.0,
			"-0.023": 0.0,
			"-0.022": 0.0,
			"-0.021": 0.0,
			"-0.02": 0.0,
			"-0.019": 0.0220236727527,
			"-0.018": 0.513808562091,
			"-0.017": 1.12428743074,
			"-0.016": 2.94979342533,
			"-0.015": 2.04642843412,
			"-0.014": 1.9638805633,
			"-0.013": 2.26415912396,
			"-0.012": 2.82124018922,
			"-0.011": 2.32029849447,
			"-0.01": 2.74552611784,
			"-0.009": 4.96480391189,
			"-0.008": 6.31759814444,
			"-0.007": 6.91746276827,
			"-0.006": 9.51545746893,
			"-0.005": 10.0469450328,
			"-0.004": 11.8199205101,
			"-0.003": 12.8684611744,
			"-0.002": 9.96610464564,
			"-0.001": 9.73325221878,
			"0.0": 12.0538040583,
			"0.001": 11.9356524759,
			"0.002": 13.496078061,
			"0.003": 17.0596786879,
			"0.004": 17.4519548658,
			"0.005": 11.8458119313,
			"0.006": 10.1239775958,
			"0.007": 4.78104312542,
			"0.008": 2.19477319925,
			"0.009": 2.36451324344,
			"0.01": 3.81646427794,
			"0.011": 4.60666468526,
			"0.012": 5.70443939948,
			"0.013": 5.58487824491,
			"0.014": 2.12138675432,
			"0.015": 0.020312836879,
			"0.016": 0.0,
			"0.017": 0.0,
			"0.018": 0.0,
			"0.019": 0.0,
			"0.02": 0.0,
			"0.021": 0.0,
			"0.022": 0.0,
			"0.023": 0.0,
			"0.024": 0.0,
			"0.025": 0.0
		}
	}
}
