{
	 "smiles": "ClC1=CC=C(C=C1)C1=CC=C(O1)C=C1/CCC(=C/C2=CC=C(O2)C2=CC=C(Cl)C=C2)C1=O", 
	 "Tm": 538.15, 
	 "num_atms": 50, 
	 "gaussian": { 
		 "optdone": 1, 
		 "sigma_profile": "yes", 
		 "theory": "DFT", 
		 "functional": "B3LYP", 
		 "basiset": "6-31G**", 
		 "properties": { 
			 "R2extent": 38858.7518, 
			 "electric_dipole_moment_norm": 3.36080255891, 
			 "electric_quadrupole_moment_norm": 36.2776916227, 
			 "total_energy": -2185.75125067, 
			 "HOMO_LUMO_gap": 0.10759, 
			 "cosmo_polarized_energy": -17.33, 
			 "cosmo_cavitation_energy": 60.56, 
			 "cosmo_dispersion_energy": -43.02, 
			 "cosmo_repulsion_energy": 3.14, 
			 "cosmo_total_nonelectrostatic_energy": 20.69, 
			 "SMD_solvation_energy": 9.92 
		},
		"coords": [
			{
				"x": 6.2783597908,
				"y": 5.4855731805,
				"z": -3.9137653632,
				"element": "Cl" 
			},
			{
				"x": 4.6554070918,
				"y": 5.458996934,
				"z": -3.2450618891,
				"element": "C" 
			},
			{
				"x": 3.8802010035,
				"y": 6.6198874658,
				"z": -3.2735932212,
				"element": "C" 
			},
			{
				"x": 2.5956012694,
				"y": 6.5945712729,
				"z": -2.7429191927,
				"element": "C" 
			},
			{
				"x": 2.0661719338,
				"y": 5.4186748103,
				"z": -2.1786031531,
				"element": "C" 
			},
			{
				"x": 2.869321606,
				"y": 4.2635216594,
				"z": -2.1632795174,
				"element": "C" 
			},
			{
				"x": 4.1564543997,
				"y": 4.2797261589,
				"z": -2.6922717311,
				"element": "C" 
			},
			{
				"x": 0.7214631773,
				"y": 5.4032644312,
				"z": -1.6260523839,
				"element": "C" 
			},
			{
				"x": -0.2642339948,
				"y": 6.3602525799,
				"z": -1.5086453771,
				"element": "C" 
			},
			{
				"x": -1.3657061144,
				"y": 5.737654197,
				"z": -0.874640996,
				"element": "C" 
			},
			{
				"x": -1.0059367238,
				"y": 4.4269792275,
				"z": -0.6316482593,
				"element": "C" 
			},
			{
				"x": 0.27392973,
				"y": 4.2268161343,
				"z": -1.0939484339,
				"element": "O" 
			},
			{
				"x": -1.7210464532,
				"y": 3.3532817485,
				"z": -0.0207636987,
				"element": "C" 
			},
			{
				"x": -1.3161259647,
				"y": 2.0787200422,
				"z": 0.1934042635,
				"element": "C" 
			},
			{
				"x": -0.0063313425,
				"y": 1.4078174388,
				"z": -0.1409343999,
				"element": "C" 
			},
			{
				"x": -0.1408060775,
				"y": -0.0656127521,
				"z": 0.3546032719,
				"element": "C" 
			},
			{
				"x": -1.5194695919,
				"y": -0.1837189449,
				"z": 0.9511630827,
				"element": "C" 
			},
			{
				"x": -2.1221744824,
				"y": -1.2565782287,
				"z": 1.5173324351,
				"element": "C" 
			},
			{
				"x": -1.5790904215,
				"y": -2.5672973017,
				"z": 1.6883167768,
				"element": "C" 
			},
			{
				"x": -0.3804089163,
				"y": -3.1884066837,
				"z": 1.3861151055,
				"element": "C" 
			},
			{
				"x": -0.4840306887,
				"y": -4.5285066328,
				"z": 1.8298220838,
				"element": "C" 
			},
			{
				"x": -1.7390335143,
				"y": -4.6709598223,
				"z": 2.3837349175,
				"element": "C" 
			},
			{
				"x": -2.4038502095,
				"y": -3.4848473657,
				"z": 2.2991653904,
				"element": "O" 
			},
			{
				"x": -2.4366784976,
				"y": -5.787220776,
				"z": 3.0026229696,
				"element": "C" 
			},
			{
				"x": -1.8140081844,
				"y": -7.0430566954,
				"z": 3.1261333101,
				"element": "C" 
			},
			{
				"x": -2.4740253146,
				"y": -8.114875613,
				"z": 3.7166300243,
				"element": "C" 
			},
			{
				"x": -3.7743567911,
				"y": -7.9385032355,
				"z": 4.1931059472,
				"element": "C" 
			},
			{
				"x": -4.6120240781,
				"y": -9.2888311046,
				"z": 4.9397245664,
				"element": "Cl" 
			},
			{
				"x": -4.4155775179,
				"y": -6.7045611962,
				"z": 4.0836497728,
				"element": "C" 
			},
			{
				"x": -3.7474530144,
				"y": -5.6373106484,
				"z": 3.4912102591,
				"element": "C" 
			},
			{
				"x": -2.2324369271,
				"y": 1.1139216778,
				"z": 0.8542456347,
				"element": "C" 
			},
			{
				"x": -3.372455189,
				"y": 1.3489466843,
				"z": 1.2483979804,
				"element": "O" 
			},
			{
				"x": 4.280415191,
				"y": 7.5299157491,
				"z": -3.7063987027,
				"element": "H" 
			},
			{
				"x": 1.99878473,
				"y": 7.5007062549,
				"z": -2.7684539672,
				"element": "H" 
			},
			{
				"x": 2.4789754028,
				"y": 3.3483397662,
				"z": -1.733020765,
				"element": "H" 
			},
			{
				"x": 4.7697240298,
				"y": 3.3855626739,
				"z": -2.6769661373,
				"element": "H" 
			},
			{
				"x": -0.2028455102,
				"y": 7.3867891437,
				"z": -1.8387926459,
				"element": "H" 
			},
			{
				"x": -2.3158246349,
				"y": 6.1853449545,
				"z": -0.6204005387,
				"element": "H" 
			},
			{
				"x": -2.7271472252,
				"y": 3.5964176018,
				"z": 0.3170603261,
				"element": "H" 
			},
			{
				"x": 0.8339090121,
				"y": 1.917137153,
				"z": 0.3439441711,
				"element": "H" 
			},
			{
				"x": 0.1959686378,
				"y": 1.4501631359,
				"z": -1.216976831,
				"element": "H" 
			},
			{
				"x": 0.6327650694,
				"y": -0.3068948606,
				"z": 1.0951600942,
				"element": "H" 
			},
			{
				"x": -0.0048067754,
				"y": -0.7756605822,
				"z": -0.4714433258,
				"element": "H" 
			},
			{
				"x": -3.1355889562,
				"y": -1.1057706996,
				"z": 1.8850182026,
				"element": "H" 
			},
			{
				"x": 0.4691527725,
				"y": -2.7313585309,
				"z": 0.9031460416,
				"element": "H" 
			},
			{
				"x": 0.2733028644,
				"y": -5.2945931998,
				"z": 1.7508408501,
				"element": "H" 
			},
			{
				"x": -0.8031657919,
				"y": -7.1866761583,
				"z": 2.757804662,
				"element": "H" 
			},
			{
				"x": -1.98788368,
				"y": -9.07970266,
				"z": 3.8084046667,
				"element": "H" 
			},
			{
				"x": -5.4257797825,
				"y": -6.5821630091,
				"z": 4.4581779674,
				"element": "H" 
			},
			{
				"x": -4.2419053461,
				"y": -4.6764753749,
				"z": 3.4040457566,
				"element": "H" 
			}
		],
		 "valence_orbital": [ 
			{
				"type": "occ",
				"energy": -0.26085,
				"method": "rhf"
			},
			{
				"type": "occ",
				"energy": -0.25917,
				"method": "rhf"
			},
			{
				"type": "occ",
				"energy": -0.23757,
				"method": "rhf"
			},
			{
				"type": "occ",
				"energy": -0.20935,
				"method": "rhf"
			},
			{
				"type": "occ",
				"energy": -0.19882,
				"method": "rhf"
			},
			{
				"type": "unocc",
				"energy": -0.09123,
				"method": "rhf"
			},
			{
				"type": "unocc",
				"energy": -0.05553,
				"method": "rhf"
			},
			{
				"type": "unocc",
				"energy": -0.03373,
				"method": "rhf"
			},
			{
				"type": "unocc",
				"energy": -0.02255,
				"method": "rhf"
			},
			{
				"type": "unocc",
				"energy": -0.01944,
				"method": "rhf"
			}
		],
		"cosmo_sigma_profile": { 
			"-0.025": 0.0,
			"-0.024": 0.0,
			"-0.023": 0.0,
			"-0.022": 0.0,
			"-0.021": 0.0,
			"-0.02": 0.0,
			"-0.019": 0.0,
			"-0.018": 0.0,
			"-0.017": 0.0,
			"-0.016": 0.0,
			"-0.015": 0.0,
			"-0.014": 0.0,
			"-0.013": 0.0,
			"-0.012": 0.0,
			"-0.011": 0.0,
			"-0.01": 0.0,
			"-0.009": 1.97038486537,
			"-0.008": 9.42977463989,
			"-0.007": 18.4423973542,
			"-0.006": 23.5064152658,
			"-0.005": 25.157314028,
			"-0.004": 26.9865380762,
			"-0.003": 32.2072573697,
			"-0.002": 30.5378538406,
			"-0.001": 30.0720145882,
			"0.0": 39.0661488822,
			"0.001": 64.7464284257,
			"0.002": 62.0265008619,
			"0.003": 63.9767887077,
			"0.004": 31.7222994355,
			"0.005": 12.5013892114,
			"0.006": 1.93718264048,
			"0.007": 2.26699909225,
			"0.008": 0.805522362029,
			"0.009": 1.75973734316,
			"0.01": 1.77868761038,
			"0.011": 1.60737792639,
			"0.012": 2.94629582345,
			"0.013": 4.56019304429,
			"0.014": 2.18162856616,
			"0.015": 0.0,
			"0.016": 0.0,
			"0.017": 0.0,
			"0.018": 0.0,
			"0.019": 0.0,
			"0.02": 0.0,
			"0.021": 0.0,
			"0.022": 0.0,
			"0.023": 0.0,
			"0.024": 0.0,
			"0.025": 0.0
		}
	}
}
