{
	 "smiles": "CSC(SC)=CC(=C(C#N)C#N)C1=CC=C(Cl)C=C1", 
	 "Tm": 381.15, 
	 "num_atms": 30, 
	 "gaussian": { 
		 "optdone": 1, 
		 "sigma_profile": "yes", 
		 "theory": "DFT", 
		 "functional": "B3LYP", 
		 "basiset": "6-31G**", 
		 "properties": { 
			 "R2extent": 8546.5416, 
			 "electric_dipole_moment_norm": 7.75164740039, 
			 "electric_quadrupole_moment_norm": 34.4747383063, 
			 "total_energy": -1906.10689772, 
			 "HOMO_LUMO_gap": 0.13823, 
			 "cosmo_polarized_energy": -19.89, 
			 "cosmo_cavitation_energy": 41.33, 
			 "cosmo_dispersion_energy": -27.85, 
			 "cosmo_repulsion_energy": 2.13, 
			 "cosmo_total_nonelectrostatic_energy": 15.61, 
			 "SMD_solvation_energy": 9.4 
		},
		"coords": [
			{
				"x": -1.0109059062,
				"y": 4.5879742419,
				"z": -0.0893633224,
				"element": "C" 
			},
			{
				"x": -2.0322411302,
				"y": 3.6450079313,
				"z": -1.2668059199,
				"element": "S" 
			},
			{
				"x": -1.1188575249,
				"y": 2.1517216818,
				"z": -1.5607129055,
				"element": "C" 
			},
			{
				"x": -1.9761672603,
				"y": 0.9888262013,
				"z": -2.5963776273,
				"element": "S" 
			},
			{
				"x": -3.6902307237,
				"y": 1.0387637454,
				"z": -1.9409457747,
				"element": "C" 
			},
			{
				"x": 0.1215339805,
				"y": 1.9291809974,
				"z": -1.0360010941,
				"element": "C" 
			},
			{
				"x": 0.9610409531,
				"y": 0.7447681941,
				"z": -1.1059270595,
				"element": "C" 
			},
			{
				"x": 1.2217941963,
				"y": 0.0336068236,
				"z": -2.2573699461,
				"element": "C" 
			},
			{
				"x": 2.0197729757,
				"y": -1.1576830478,
				"z": -2.2595516001,
				"element": "C" 
			},
			{
				"x": 2.6583974076,
				"y": -2.1298711048,
				"z": -2.3004962033,
				"element": "N" 
			},
			{
				"x": 0.8526844672,
				"y": 0.4981245713,
				"z": -3.5595123221,
				"element": "C" 
			},
			{
				"x": 0.6197874915,
				"y": 0.8753577929,
				"z": -4.6362528933,
				"element": "N" 
			},
			{
				"x": 1.588751057,
				"y": 0.3394807679,
				"z": 0.1870984004,
				"element": "C" 
			},
			{
				"x": 2.3839321108,
				"y": 1.2462023778,
				"z": 0.9067301385,
				"element": "C" 
			},
			{
				"x": 2.9563941613,
				"y": 0.8878068614,
				"z": 2.1245492216,
				"element": "C" 
			},
			{
				"x": 2.7201204103,
				"y": -0.3872699391,
				"z": 2.6389208355,
				"element": "C" 
			},
			{
				"x": 3.4273580806,
				"y": -0.8408607915,
				"z": 4.178314439,
				"element": "Cl" 
			},
			{
				"x": 1.9303947358,
				"y": -1.3043232345,
				"z": 1.9471090031,
				"element": "C" 
			},
			{
				"x": 1.3714912723,
				"y": -0.9382570561,
				"z": 0.7242425534,
				"element": "C" 
			},
			{
				"x": -0.8583579279,
				"y": 4.0340363218,
				"z": 0.8398987849,
				"element": "H" 
			},
			{
				"x": -1.5858272991,
				"y": 5.4911573383,
				"z": 0.1261622166,
				"element": "H" 
			},
			{
				"x": -0.0531426543,
				"y": 4.8734692213,
				"z": -0.52979289,
				"element": "H" 
			},
			{
				"x": -3.7046469196,
				"y": 0.8793716849,
				"z": -0.8620165143,
				"element": "H" 
			},
			{
				"x": -4.1924275222,
				"y": 0.2045457951,
				"z": -2.4364912989,
				"element": "H" 
			},
			{
				"x": -4.2035715901,
				"y": 1.9652647083,
				"z": -2.1973859667,
				"element": "H" 
			},
			{
				"x": 0.4951975891,
				"y": 2.6786492045,
				"z": -0.346092898,
				"element": "H" 
			},
			{
				"x": 2.586898694,
				"y": 2.2330617303,
				"z": 0.5012406999,
				"element": "H" 
			},
			{
				"x": 3.583552915,
				"y": 1.5862054206,
				"z": 2.6671617314,
				"element": "H" 
			},
			{
				"x": 1.7544456373,
				"y": -2.2917546447,
				"z": 2.3585398402,
				"element": "H" 
			},
			{
				"x": 0.753128323,
				"y": -1.6516637944,
				"z": 0.1903283718,
				"element": "H" 
			}
		],
		 "valence_orbital": [ 
			{
				"type": "occ",
				"energy": -0.29547,
				"method": "rhf"
			},
			{
				"type": "occ",
				"energy": -0.28103,
				"method": "rhf"
			},
			{
				"type": "occ",
				"energy": -0.2588,
				"method": "rhf"
			},
			{
				"type": "occ",
				"energy": -0.25305,
				"method": "rhf"
			},
			{
				"type": "occ",
				"energy": -0.23539,
				"method": "rhf"
			},
			{
				"type": "unocc",
				"energy": -0.09716,
				"method": "rhf"
			},
			{
				"type": "unocc",
				"energy": -0.03468,
				"method": "rhf"
			},
			{
				"type": "unocc",
				"energy": -0.02806,
				"method": "rhf"
			},
			{
				"type": "unocc",
				"energy": -0.0106,
				"method": "rhf"
			},
			{
				"type": "unocc",
				"energy": 0.00048,
				"method": "rhf"
			}
		],
		"cosmo_sigma_profile": { 
			"-0.025": 0.0,
			"-0.024": 0.0,
			"-0.023": 0.0,
			"-0.022": 0.0,
			"-0.021": 0.0,
			"-0.02": 0.0,
			"-0.019": 0.0,
			"-0.018": 0.0,
			"-0.017": 0.0,
			"-0.016": 0.0,
			"-0.015": 0.0,
			"-0.014": 0.0,
			"-0.013": 0.0,
			"-0.012": 0.0,
			"-0.011": 0.0,
			"-0.01": 0.386964656463,
			"-0.009": 2.58141274293,
			"-0.008": 10.0681275182,
			"-0.007": 19.8105041768,
			"-0.006": 19.9054194368,
			"-0.005": 18.4506784304,
			"-0.004": 20.2954393893,
			"-0.003": 28.1551293469,
			"-0.002": 24.1455709598,
			"-0.001": 18.6513947108,
			"0.0": 21.5677888318,
			"0.001": 27.3411892578,
			"0.002": 28.3001337429,
			"0.003": 20.4878218761,
			"0.004": 20.8649938911,
			"0.005": 12.0983910842,
			"0.006": 8.40916533193,
			"0.007": 6.76548357035,
			"0.008": 7.20747704796,
			"0.009": 6.74022870292,
			"0.01": 5.8674949558,
			"0.011": 5.48100474875,
			"0.012": 4.11902309478,
			"0.013": 0.836357350163,
			"0.014": 0.0,
			"0.015": 0.0,
			"0.016": 0.0,
			"0.017": 0.0,
			"0.018": 0.0,
			"0.019": 0.0,
			"0.02": 0.0,
			"0.021": 0.0,
			"0.022": 0.0,
			"0.023": 0.0,
			"0.024": 0.0,
			"0.025": 0.0
		}
	}
}
