{
	 "smiles": "OC(=O)CC1=C(Cl)C=C(Cl)C=C1", 
	 "Tm": 402.15, 
	 "num_atms": 18, 
	 "gaussian": { 
		 "optdone": 1, 
		 "sigma_profile": "yes", 
		 "theory": "DFT", 
		 "functional": "B3LYP", 
		 "basiset": "6-31G**", 
		 "properties": { 
			 "R2extent": 4321.7671, 
			 "electric_dipole_moment_norm": 2.683370772, 
			 "electric_quadrupole_moment_norm": 4.58647769754, 
			 "total_energy": -1379.31668948, 
			 "HOMO_LUMO_gap": 0.22419, 
			 "cosmo_polarized_energy": -11.42, 
			 "cosmo_cavitation_energy": 26.61, 
			 "cosmo_dispersion_energy": -19.28, 
			 "cosmo_repulsion_energy": 1.56, 
			 "cosmo_total_nonelectrostatic_energy": 8.89, 
			 "SMD_solvation_energy": 5.13 
		},
		"coords": [
			{
				"x": -2.4897788427,
				"y": -2.4004718042,
				"z": -0.4007643344,
				"element": "O" 
			},
			{
				"x": -1.4889609206,
				"y": -1.570423253,
				"z": -0.7809017039,
				"element": "C" 
			},
			{
				"x": -0.6029843875,
				"y": -1.9047854736,
				"z": -1.5310449599,
				"element": "O" 
			},
			{
				"x": -1.6431029414,
				"y": -0.210789985,
				"z": -0.1114019195,
				"element": "C" 
			},
			{
				"x": -0.6669746058,
				"y": 0.8213606076,
				"z": -0.6120846229,
				"element": "C" 
			},
			{
				"x": -0.8464242818,
				"y": 1.5000690207,
				"z": -1.8260446652,
				"element": "C" 
			},
			{
				"x": -2.2512485545,
				"y": 1.1604500187,
				"z": -2.827914175,
				"element": "Cl" 
			},
			{
				"x": 0.0572659204,
				"y": 2.4574389164,
				"z": -2.2842222528,
				"element": "C" 
			},
			{
				"x": 1.1765611778,
				"y": 2.7446305014,
				"z": -1.5062176425,
				"element": "C" 
			},
			{
				"x": 2.3213809751,
				"y": 3.9493619546,
				"z": -2.0692935626,
				"element": "Cl" 
			},
			{
				"x": 1.3967570459,
				"y": 2.0950470558,
				"z": -0.2936342365,
				"element": "C" 
			},
			{
				"x": 0.4722327867,
				"y": 1.1451887001,
				"z": 0.1346623212,
				"element": "C" 
			},
			{
				"x": -2.3238001209,
				"y": -3.247233622,
				"z": -0.848261241,
				"element": "H" 
			},
			{
				"x": -1.5111768078,
				"y": -0.3670110865,
				"z": 0.9652438477,
				"element": "H" 
			},
			{
				"x": -2.6799461531,
				"y": 0.1115808081,
				"z": -0.2479498075,
				"element": "H" 
			},
			{
				"x": -0.1101267442,
				"y": 2.9649739727,
				"z": -3.225965246,
				"element": "H" 
			},
			{
				"x": 2.2716875926,
				"y": 2.3286609043,
				"z": 0.3017967313,
				"element": "H" 
			},
			{
				"x": 0.6397388619,
				"y": 0.6355527641,
				"z": 1.0793974693,
				"element": "H" 
			}
		],
		 "valence_orbital": [ 
			{
				"type": "occ",
				"energy": -0.32328,
				"method": "rhf"
			},
			{
				"type": "occ",
				"energy": -0.31842,
				"method": "rhf"
			},
			{
				"type": "occ",
				"energy": -0.28347,
				"method": "rhf"
			},
			{
				"type": "occ",
				"energy": -0.26535,
				"method": "rhf"
			},
			{
				"type": "occ",
				"energy": -0.2516,
				"method": "rhf"
			},
			{
				"type": "unocc",
				"energy": -0.02741,
				"method": "rhf"
			},
			{
				"type": "unocc",
				"energy": -0.02735,
				"method": "rhf"
			},
			{
				"type": "unocc",
				"energy": 0.00212,
				"method": "rhf"
			},
			{
				"type": "unocc",
				"energy": 0.00674,
				"method": "rhf"
			},
			{
				"type": "unocc",
				"energy": 0.04768,
				"method": "rhf"
			}
		],
		"cosmo_sigma_profile": { 
			"-0.025": 0.0,
			"-0.024": 0.0,
			"-0.023": 0.0,
			"-0.022": 0.0,
			"-0.021": 0.0,
			"-0.02": 0.0,
			"-0.019": 0.147368878379,
			"-0.018": 0.690037937184,
			"-0.017": 0.932405135421,
			"-0.016": 0.913919068424,
			"-0.015": 0.886070762137,
			"-0.014": 0.551651330888,
			"-0.013": 0.581306299967,
			"-0.012": 0.644948853788,
			"-0.011": 1.23485530206,
			"-0.01": 0.542524083835,
			"-0.009": 1.56947874989,
			"-0.008": 7.39421497268,
			"-0.007": 9.56337044713,
			"-0.006": 8.86516938465,
			"-0.005": 9.05484342018,
			"-0.004": 9.48381877657,
			"-0.003": 9.82071493195,
			"-0.002": 12.0861760638,
			"-0.001": 14.4935995479,
			"0.0": 15.3733595781,
			"0.001": 23.011248331,
			"0.002": 22.4967544206,
			"0.003": 16.6749902966,
			"0.004": 20.0100791913,
			"0.005": 6.6910988879,
			"0.006": 3.23151340274,
			"0.007": 3.39424492315,
			"0.008": 3.43997985429,
			"0.009": 3.21513965934,
			"0.01": 2.46483074449,
			"0.011": 4.8296092388,
			"0.012": 2.80435320379,
			"0.013": 0.0371849040409,
			"0.014": 0.0,
			"0.015": 0.0,
			"0.016": 0.0,
			"0.017": 0.0,
			"0.018": 0.0,
			"0.019": 0.0,
			"0.02": 0.0,
			"0.021": 0.0,
			"0.022": 0.0,
			"0.023": 0.0,
			"0.024": 0.0,
			"0.025": 0.0
		}
	}
}
