{
	 "smiles": "CC(C)(C)OC(=O)NC1CCC(=O)CC1", 
	 "Tm": 387.15, 
	 "num_atms": 34, 
	 "gaussian": { 
		 "optdone": 1, 
		 "sigma_profile": "yes", 
		 "theory": "DFT", 
		 "functional": "B3LYP", 
		 "basiset": "6-31G**", 
		 "properties": { 
			 "R2extent": 5307.5899, 
			 "electric_dipole_moment_norm": 3.36498138033, 
			 "electric_quadrupole_moment_norm": 14.9760147483, 
			 "total_energy": -711.093150427, 
			 "HOMO_LUMO_gap": 0.22194, 
			 "cosmo_polarized_energy": -13.96, 
			 "cosmo_cavitation_energy": 34.88, 
			 "cosmo_dispersion_energy": -24.56, 
			 "cosmo_repulsion_energy": 1.96, 
			 "cosmo_total_nonelectrostatic_energy": 12.28, 
			 "SMD_solvation_energy": 6.77 
		},
		"coords": [
			{
				"x": 1.4304312232,
				"y": 1.082430332,
				"z": -2.8842414821,
				"element": "C" 
			},
			{
				"x": 1.3511068194,
				"y": 1.6314795811,
				"z": -1.4573558319,
				"element": "C" 
			},
			{
				"x": 2.4761042655,
				"y": 1.0567399645,
				"z": -0.5899220361,
				"element": "C" 
			},
			{
				"x": 1.3479185995,
				"y": 3.1640016224,
				"z": -1.4634508795,
				"element": "C" 
			},
			{
				"x": 0.0489247877,
				"y": 1.1270415736,
				"z": -0.9930153791,
				"element": "O" 
			},
			{
				"x": -0.3951988546,
				"y": 1.3937448407,
				"z": 0.2602471998,
				"element": "C" 
			},
			{
				"x": 0.174777607,
				"y": 2.0649716925,
				"z": 1.1072430125,
				"element": "O" 
			},
			{
				"x": -1.6025635686,
				"y": 0.7793718531,
				"z": 0.4549332238,
				"element": "N" 
			},
			{
				"x": -2.4125664758,
				"y": 1.0561786649,
				"z": 1.6453336942,
				"element": "C" 
			},
			{
				"x": -3.8658381266,
				"y": 0.6246483778,
				"z": 1.3939905012,
				"element": "C" 
			},
			{
				"x": -4.0337798783,
				"y": -0.9080896765,
				"z": 1.3042246189,
				"element": "C" 
			},
			{
				"x": -3.3836711059,
				"y": -1.629835197,
				"z": 2.481779807,
				"element": "C" 
			},
			{
				"x": -3.9622693005,
				"y": -2.4992280232,
				"z": 3.1051799312,
				"element": "O" 
			},
			{
				"x": -1.9657156228,
				"y": -1.1847191439,
				"z": 2.8028909643,
				"element": "C" 
			},
			{
				"x": -1.8501372472,
				"y": 0.3499425257,
				"z": 2.894189833,
				"element": "C" 
			},
			{
				"x": 1.3880591255,
				"y": -0.0106699874,
				"z": -2.8807827432,
				"element": "H" 
			},
			{
				"x": 2.3688859077,
				"y": 1.3913122828,
				"z": -3.354067002,
				"element": "H" 
			},
			{
				"x": 0.6002230946,
				"y": 1.4580202957,
				"z": -3.4896064061,
				"element": "H" 
			},
			{
				"x": 2.4095440356,
				"y": 1.4286255378,
				"z": 0.432795764,
				"element": "H" 
			},
			{
				"x": 2.423606603,
				"y": -0.0366034033,
				"z": -0.5752444969,
				"element": "H" 
			},
			{
				"x": 3.4462269654,
				"y": 1.3440409472,
				"z": -1.0082424779,
				"element": "H" 
			},
			{
				"x": 1.2693214124,
				"y": 3.5582811141,
				"z": -0.4500822559,
				"element": "H" 
			},
			{
				"x": 2.2746222659,
				"y": 3.5318884073,
				"z": -1.9158260207,
				"element": "H" 
			},
			{
				"x": 0.5084683983,
				"y": 3.5396120864,
				"z": -2.0573295903,
				"element": "H" 
			},
			{
				"x": -2.0394772184,
				"y": 0.3844135544,
				"z": -0.3645581424,
				"element": "H" 
			},
			{
				"x": -2.3863095918,
				"y": 2.1373802956,
				"z": 1.828181252,
				"element": "H" 
			},
			{
				"x": -4.4735093379,
				"y": 1.0008597098,
				"z": 2.2247419196,
				"element": "H" 
			},
			{
				"x": -4.2526405523,
				"y": 1.1022253082,
				"z": 0.4855069564,
				"element": "H" 
			},
			{
				"x": -3.5549501404,
				"y": -1.2852644145,
				"z": 0.3885719261,
				"element": "H" 
			},
			{
				"x": -5.0875111711,
				"y": -1.1946348539,
				"z": 1.2588106623,
				"element": "H" 
			},
			{
				"x": -1.6453695809,
				"y": -1.6736725097,
				"z": 3.7262301241,
				"element": "H" 
			},
			{
				"x": -1.31466226,
				"y": -1.5381685318,
				"z": 1.9910090781,
				"element": "H" 
			},
			{
				"x": -0.8081634965,
				"y": 0.647927414,
				"z": 3.0333215288,
				"element": "H" 
			},
			{
				"x": -2.4075875812,
				"y": 0.7105477594,
				"z": 3.7681427468,
				"element": "H" 
			}
		],
		 "valence_orbital": [ 
			{
				"type": "occ",
				"energy": -0.33078,
				"method": "rhf"
			},
			{
				"type": "occ",
				"energy": -0.29008,
				"method": "rhf"
			},
			{
				"type": "occ",
				"energy": -0.26688,
				"method": "rhf"
			},
			{
				"type": "occ",
				"energy": -0.25736,
				"method": "rhf"
			},
			{
				"type": "occ",
				"energy": -0.23746,
				"method": "rhf"
			},
			{
				"type": "unocc",
				"energy": -0.01552,
				"method": "rhf"
			},
			{
				"type": "unocc",
				"energy": 0.04816,
				"method": "rhf"
			},
			{
				"type": "unocc",
				"energy": 0.06986,
				"method": "rhf"
			},
			{
				"type": "unocc",
				"energy": 0.08768,
				"method": "rhf"
			},
			{
				"type": "unocc",
				"energy": 0.09288,
				"method": "rhf"
			}
		],
		"cosmo_sigma_profile": { 
			"-0.025": 0.0,
			"-0.024": 0.0,
			"-0.023": 0.0,
			"-0.022": 0.0,
			"-0.021": 0.0,
			"-0.02": 0.0,
			"-0.019": 0.0,
			"-0.018": 0.0,
			"-0.017": 0.0,
			"-0.016": 0.0,
			"-0.015": 0.0,
			"-0.014": 0.00384910815164,
			"-0.013": 0.808725481771,
			"-0.012": 1.00077367689,
			"-0.011": 1.23883635321,
			"-0.01": 1.29186508151,
			"-0.009": 1.25794835149,
			"-0.008": 1.68775833506,
			"-0.007": 2.43556483349,
			"-0.006": 5.02098211155,
			"-0.005": 10.278721468,
			"-0.004": 28.7236017471,
			"-0.003": 31.8976607429,
			"-0.002": 32.9696417704,
			"-0.001": 33.0684788762,
			"0.0": 32.5829377404,
			"0.001": 22.6941781169,
			"0.002": 8.68343839952,
			"0.003": 5.54679305526,
			"0.004": 5.36775012703,
			"0.005": 4.94180541067,
			"0.006": 5.62145435724,
			"0.007": 5.29508646074,
			"0.008": 3.75947179491,
			"0.009": 2.76545782109,
			"0.01": 3.30480198323,
			"0.011": 4.71079204311,
			"0.012": 6.38173327961,
			"0.013": 5.54392590867,
			"0.014": 1.47737508687,
			"0.015": 0.0,
			"0.016": 0.0,
			"0.017": 0.0,
			"0.018": 0.0,
			"0.019": 0.0,
			"0.02": 0.0,
			"0.021": 0.0,
			"0.022": 0.0,
			"0.023": 0.0,
			"0.024": 0.0,
			"0.025": 0.0
		}
	}
}
