{
	 "smiles": "CCCOC(=O)C(C)C1=CC=C(C(F)=C1)C1=CC=CC=C1", 
	 "Tm": 293.15, 
	 "num_atms": 40, 
	 "gaussian": { 
		 "optdone": 1, 
		 "sigma_profile": "yes", 
		 "theory": "DFT", 
		 "functional": "B3LYP", 
		 "basiset": "6-31G**", 
		 "properties": { 
			 "R2extent": 8747.7565, 
			 "electric_dipole_moment_norm": 2.44290139793, 
			 "electric_quadrupole_moment_norm": 10.0189068216, 
			 "total_energy": -947.684872508, 
			 "HOMO_LUMO_gap": 0.19023, 
			 "cosmo_polarized_energy": -9.52, 
			 "cosmo_cavitation_energy": 43.84, 
			 "cosmo_dispersion_energy": -29.4, 
			 "cosmo_repulsion_energy": 2.28, 
			 "cosmo_total_nonelectrostatic_energy": 16.72, 
			 "SMD_solvation_energy": 8.39 
		},
		"coords": [
			{
				"x": -1.9057370923,
				"y": -2.8397362451,
				"z": 0.2952908774,
				"element": "C" 
			},
			{
				"x": -0.8590499883,
				"y": -3.1911538881,
				"z": 1.356826187,
				"element": "C" 
			},
			{
				"x": 0.446452682,
				"y": -3.7266951079,
				"z": 0.7765486472,
				"element": "C" 
			},
			{
				"x": 1.0617958491,
				"y": -2.7708396966,
				"z": -0.1249249855,
				"element": "O" 
			},
			{
				"x": 1.8612031217,
				"y": -1.8382523999,
				"z": 0.4326995009,
				"element": "C" 
			},
			{
				"x": 2.1249234428,
				"y": -1.7830679257,
				"z": 1.6167771875,
				"element": "O" 
			},
			{
				"x": 2.3641865404,
				"y": -0.8476532456,
				"z": -0.6144449447,
				"element": "C" 
			},
			{
				"x": 3.8073383326,
				"y": -0.4189284201,
				"z": -0.295353767,
				"element": "C" 
			},
			{
				"x": 1.413392244,
				"y": 0.3441469481,
				"z": -0.6828711773,
				"element": "C" 
			},
			{
				"x": 0.8666992166,
				"y": 0.7552786715,
				"z": -1.9038771814,
				"element": "C" 
			},
			{
				"x": 0.0262189902,
				"y": 1.8645060638,
				"z": -1.9704244199,
				"element": "C" 
			},
			{
				"x": -0.313067681,
				"y": 2.6131423831,
				"z": -0.8304419633,
				"element": "C" 
			},
			{
				"x": 0.2452362439,
				"y": 2.1677228953,
				"z": 0.377121332,
				"element": "C" 
			},
			{
				"x": -0.0294385705,
				"y": 2.837546512,
				"z": 1.5209756088,
				"element": "F" 
			},
			{
				"x": 1.0864198559,
				"y": 1.0687416844,
				"z": 0.4699815197,
				"element": "C" 
			},
			{
				"x": -1.1983145572,
				"y": 3.8019165205,
				"z": -0.9233802842,
				"element": "C" 
			},
			{
				"x": -1.0950900552,
				"y": 4.6694808853,
				"z": -2.024561463,
				"element": "C" 
			},
			{
				"x": -1.9388252438,
				"y": 5.7719167676,
				"z": -2.1513458697,
				"element": "C" 
			},
			{
				"x": -2.9036902995,
				"y": 6.0325016512,
				"z": -1.1771138093,
				"element": "C" 
			},
			{
				"x": -3.0132694014,
				"y": 5.1826456616,
				"z": -0.0747973516,
				"element": "C" 
			},
			{
				"x": -2.1696160529,
				"y": 4.080715002,
				"z": 0.0542130416,
				"element": "C" 
			},
			{
				"x": -2.8210943439,
				"y": -2.4592500107,
				"z": 0.7587211752,
				"element": "H" 
			},
			{
				"x": -1.5293838494,
				"y": -2.0721998954,
				"z": -0.3869854338,
				"element": "H" 
			},
			{
				"x": -2.1743215088,
				"y": -3.7174828596,
				"z": -0.3039533858,
				"element": "H" 
			},
			{
				"x": -1.2516939483,
				"y": -3.9590242417,
				"z": 2.036392283,
				"element": "H" 
			},
			{
				"x": -0.6319417931,
				"y": -2.3163986759,
				"z": 1.9760464552,
				"element": "H" 
			},
			{
				"x": 1.1580568377,
				"y": -3.9700568453,
				"z": 1.5688497912,
				"element": "H" 
			},
			{
				"x": 0.2724653321,
				"y": -4.6093182903,
				"z": 0.1546547613,
				"element": "H" 
			},
			{
				"x": 2.3348051574,
				"y": -1.3543143714,
				"z": -1.5834982885,
				"element": "H" 
			},
			{
				"x": 4.1523264859,
				"y": 0.3166474257,
				"z": -1.0269885277,
				"element": "H" 
			},
			{
				"x": 3.864959432,
				"y": 0.0230124474,
				"z": 0.7017151133,
				"element": "H" 
			},
			{
				"x": 4.4835526062,
				"y": -1.2791727659,
				"z": -0.3220359624,
				"element": "H" 
			},
			{
				"x": 1.0942592277,
				"y": 0.2002963558,
				"z": -2.8096492044,
				"element": "H" 
			},
			{
				"x": -0.4032131756,
				"y": 2.1508019647,
				"z": -2.9255120118,
				"element": "H" 
			},
			{
				"x": 1.4742707847,
				"y": 0.784709876,
				"z": 1.4424943655,
				"element": "H" 
			},
			{
				"x": -0.3318923289,
				"y": 4.4891554944,
				"z": -2.7758850666,
				"element": "H" 
			},
			{
				"x": -1.8359080168,
				"y": 6.4319485141,
				"z": -3.0080766157,
				"element": "H" 
			},
			{
				"x": -3.5608367162,
				"y": 6.8919499313,
				"z": -1.2734044672,
				"element": "H" 
			},
			{
				"x": -3.7613056064,
				"y": 5.3758914083,
				"z": 0.6889546044,
				"element": "H" 
			},
			{
				"x": -2.2662721535,
				"y": 3.427669821,
				"z": 0.9135637296,
				"element": "H" 
			}
		],
		 "valence_orbital": [ 
			{
				"type": "occ",
				"energy": -0.27861,
				"method": "rhf"
			},
			{
				"type": "occ",
				"energy": -0.26806,
				"method": "rhf"
			},
			{
				"type": "occ",
				"energy": -0.24973,
				"method": "rhf"
			},
			{
				"type": "occ",
				"energy": -0.24938,
				"method": "rhf"
			},
			{
				"type": "occ",
				"energy": -0.22389,
				"method": "rhf"
			},
			{
				"type": "unocc",
				"energy": -0.03366,
				"method": "rhf"
			},
			{
				"type": "unocc",
				"energy": -0.00579,
				"method": "rhf"
			},
			{
				"type": "unocc",
				"energy": 0.00037,
				"method": "rhf"
			},
			{
				"type": "unocc",
				"energy": 0.00866,
				"method": "rhf"
			},
			{
				"type": "unocc",
				"energy": 0.03045,
				"method": "rhf"
			}
		],
		"cosmo_sigma_profile": { 
			"-0.025": 0.0,
			"-0.024": 0.0,
			"-0.023": 0.0,
			"-0.022": 0.0,
			"-0.021": 0.0,
			"-0.02": 0.0,
			"-0.019": 0.0,
			"-0.018": 0.0,
			"-0.017": 0.0,
			"-0.016": 0.0,
			"-0.015": 0.0,
			"-0.014": 0.0,
			"-0.013": 0.0,
			"-0.012": 0.0,
			"-0.011": 0.0,
			"-0.01": 0.0,
			"-0.009": 0.0,
			"-0.008": 0.0,
			"-0.007": 0.988440712339,
			"-0.006": 11.6688021564,
			"-0.005": 21.5610093102,
			"-0.004": 33.2405495153,
			"-0.003": 35.9218848257,
			"-0.002": 31.8181569603,
			"-0.001": 31.0306667069,
			"0.0": 35.2683547012,
			"0.001": 33.0231567972,
			"0.002": 25.8207944717,
			"0.003": 23.7434888725,
			"0.004": 24.7512595921,
			"0.005": 16.7017324147,
			"0.006": 7.43594543884,
			"0.007": 2.17226533547,
			"0.008": 3.38920450068,
			"0.009": 0.959404494729,
			"0.01": 1.83504274716,
			"0.011": 2.63311353404,
			"0.012": 3.09123588651,
			"0.013": 0.0716170741395,
			"0.014": 0.0,
			"0.015": 0.0,
			"0.016": 0.0,
			"0.017": 0.0,
			"0.018": 0.0,
			"0.019": 0.0,
			"0.02": 0.0,
			"0.021": 0.0,
			"0.022": 0.0,
			"0.023": 0.0,
			"0.024": 0.0,
			"0.025": 0.0
		}
	}
}
