{
	 "smiles": "CC(C)(C)C(=O)COC1=C(Cl)C=C(C=C1)[N+]([O-])=O", 
	 "Tm": 388.15, 
	 "num_atms": 32, 
	 "gaussian": { 
		 "optdone": 1, 
		 "sigma_profile": "yes", 
		 "theory": "DFT", 
		 "functional": "B3LYP", 
		 "basiset": "6-31G**", 
		 "properties": { 
			 "R2extent": 7694.5991, 
			 "electric_dipole_moment_norm": 6.27712412654, 
			 "electric_quadrupole_moment_norm": 19.3296545613, 
			 "total_energy": -1281.44135214, 
			 "HOMO_LUMO_gap": 0.16413, 
			 "cosmo_polarized_energy": -12.78, 
			 "cosmo_cavitation_energy": 37.76, 
			 "cosmo_dispersion_energy": -26.26, 
			 "cosmo_repulsion_energy": 2.03, 
			 "cosmo_total_nonelectrostatic_energy": 13.53, 
			 "SMD_solvation_energy": 9.19 
		},
		"coords": [
			{
				"x": -0.4766013547,
				"y": 1.0782597436,
				"z": 3.2221146735,
				"element": "C" 
			},
			{
				"x": -1.4569589607,
				"y": 0.2365162284,
				"z": 2.3779911623,
				"element": "C" 
			},
			{
				"x": -1.6779286474,
				"y": -1.1346273089,
				"z": 3.0385040864,
				"element": "C" 
			},
			{
				"x": -2.8132759509,
				"y": 0.9782805797,
				"z": 2.2593181549,
				"element": "C" 
			},
			{
				"x": -0.9382665586,
				"y": 0.0247777172,
				"z": 0.9414301801,
				"element": "C" 
			},
			{
				"x": -1.1282253476,
				"y": -1.0103270078,
				"z": 0.3342838124,
				"element": "O" 
			},
			{
				"x": -0.1965453751,
				"y": 1.1915013857,
				"z": 0.271500767,
				"element": "C" 
			},
			{
				"x": -0.0476704098,
				"y": 0.9976730456,
				"z": -1.130156833,
				"element": "O" 
			},
			{
				"x": 1.0730395296,
				"y": 0.3549724067,
				"z": -1.5741627923,
				"element": "C" 
			},
			{
				"x": 2.3019082636,
				"y": 1.032152212,
				"z": -1.6998327515,
				"element": "C" 
			},
			{
				"x": 2.4309794082,
				"y": 2.7098013714,
				"z": -1.2149296701,
				"element": "Cl" 
			},
			{
				"x": 3.4168897569,
				"y": 0.3921482191,
				"z": -2.2292154343,
				"element": "C" 
			},
			{
				"x": 3.2872935645,
				"y": -0.9326944289,
				"z": -2.6387905252,
				"element": "C" 
			},
			{
				"x": 2.0838628999,
				"y": -1.6283298931,
				"z": -2.5364273847,
				"element": "C" 
			},
			{
				"x": 0.9805963671,
				"y": -0.9760761376,
				"z": -1.9988890926,
				"element": "C" 
			},
			{
				"x": 4.4648000338,
				"y": -1.6110948816,
				"z": -3.1996855049,
				"element": "N" 
			},
			{
				"x": 5.5137480706,
				"y": -0.9710625478,
				"z": -3.269381082,
				"element": "O" 
			},
			{
				"x": 4.3280855415,
				"y": -2.7781799971,
				"z": -3.5640516546,
				"element": "O" 
			},
			{
				"x": -0.3382692985,
				"y": 2.0890137594,
				"z": 2.8252906716,
				"element": "H" 
			},
			{
				"x": -0.8669459782,
				"y": 1.1824476345,
				"z": 4.2395888469,
				"element": "H" 
			},
			{
				"x": 0.5065590545,
				"y": 0.6006628574,
				"z": 3.2950619061,
				"element": "H" 
			},
			{
				"x": -0.7334905705,
				"y": -1.6768265833,
				"z": 3.1488630595,
				"element": "H" 
			},
			{
				"x": -2.114574124,
				"y": -1.0041614665,
				"z": 4.0339121062,
				"element": "H" 
			},
			{
				"x": -2.3468322212,
				"y": -1.7545760403,
				"z": 2.4385429125,
				"element": "H" 
			},
			{
				"x": -3.5262368144,
				"y": 0.3986026074,
				"z": 1.6654202483,
				"element": "H" 
			},
			{
				"x": -3.23998516,
				"y": 1.1234441428,
				"z": 3.2573406427,
				"element": "H" 
			},
			{
				"x": -2.7066166336,
				"y": 1.9658770851,
				"z": 1.7982795483,
				"element": "H" 
			},
			{
				"x": -0.7587971958,
				"y": 2.1216257124,
				"z": 0.4001401807,
				"element": "H" 
			},
			{
				"x": 0.7743779214,
				"y": 1.3342533737,
				"z": 0.7617529597,
				"element": "H" 
			},
			{
				"x": 4.365158615,
				"y": 0.9023888046,
				"z": -2.3346907283,
				"element": "H" 
			},
			{
				"x": 2.0317049948,
				"y": -2.6576688873,
				"z": -2.8671751172,
				"element": "H" 
			},
			{
				"x": 0.0281165796,
				"y": -1.4750737068,
				"z": -1.8706473485,
				"element": "H" 
			}
		],
		 "valence_orbital": [ 
			{
				"type": "occ",
				"energy": -0.30891,
				"method": "rhf"
			},
			{
				"type": "occ",
				"energy": -0.29261,
				"method": "rhf"
			},
			{
				"type": "occ",
				"energy": -0.28148,
				"method": "rhf"
			},
			{
				"type": "occ",
				"energy": -0.26827,
				"method": "rhf"
			},
			{
				"type": "occ",
				"energy": -0.25552,
				"method": "rhf"
			},
			{
				"type": "unocc",
				"energy": -0.09139,
				"method": "rhf"
			},
			{
				"type": "unocc",
				"energy": -0.03537,
				"method": "rhf"
			},
			{
				"type": "unocc",
				"energy": -0.03355,
				"method": "rhf"
			},
			{
				"type": "unocc",
				"energy": -0.00308,
				"method": "rhf"
			},
			{
				"type": "unocc",
				"energy": 0.01089,
				"method": "rhf"
			}
		],
		"cosmo_sigma_profile": { 
			"-0.025": 0.0,
			"-0.024": 0.0,
			"-0.023": 0.0,
			"-0.022": 0.0,
			"-0.021": 0.0,
			"-0.02": 0.0,
			"-0.019": 0.0,
			"-0.018": 0.0,
			"-0.017": 0.0,
			"-0.016": 0.0,
			"-0.015": 0.0,
			"-0.014": 0.0,
			"-0.013": 0.0,
			"-0.012": 0.0,
			"-0.011": 0.0,
			"-0.01": 0.0,
			"-0.009": 0.42392044355,
			"-0.008": 6.52357146047,
			"-0.007": 10.663059373,
			"-0.006": 11.8041061654,
			"-0.005": 12.6453923108,
			"-0.004": 19.3734494746,
			"-0.003": 27.3914084074,
			"-0.002": 30.3667931937,
			"-0.001": 35.5498364118,
			"0.0": 35.1987802799,
			"0.001": 24.2410403288,
			"0.002": 11.879877169,
			"0.003": 11.4125983633,
			"0.004": 11.7585825585,
			"0.005": 6.32222588566,
			"0.006": 7.79413695317,
			"0.007": 11.7796386282,
			"0.008": 10.0300152022,
			"0.009": 8.62797291289,
			"0.01": 4.29097358075,
			"0.011": 2.02156063439,
			"0.012": 0.646840128656,
			"0.013": 0.0,
			"0.014": 0.0,
			"0.015": 0.0,
			"0.016": 0.0,
			"0.017": 0.0,
			"0.018": 0.0,
			"0.019": 0.0,
			"0.02": 0.0,
			"0.021": 0.0,
			"0.022": 0.0,
			"0.023": 0.0,
			"0.024": 0.0,
			"0.025": 0.0
		}
	}
}
