{
	 "smiles": "OC(=O)CC1=CC=C(NC(=O)C2=CC(Br)=CC=C2)C=C1", 
	 "Tm": 520.15, 
	 "num_atms": 32, 
	 "gaussian": { 
		 "optdone": 1, 
		 "sigma_profile": "yes", 
		 "theory": "DFT", 
		 "functional": "B3LYP", 
		 "basiset": "6-31G**", 
		 "properties": { 
			 "R2extent": 8742.702, 
			 "electric_dipole_moment_norm": 5.11670711005, 
			 "electric_quadrupole_moment_norm": 26.1475433552, 
			 "total_energy": -3430.67665987, 
			 "HOMO_LUMO_gap": 0.17962, 
			 "cosmo_polarized_energy": -24.39, 
			 "cosmo_cavitation_energy": 39.96, 
			 "cosmo_dispersion_energy": -27.6, 
			 "cosmo_repulsion_energy": 2.16, 
			 "cosmo_total_nonelectrostatic_energy": 14.52, 
			 "SMD_solvation_energy": 7.19 
		},
		"coords": [
			{
				"x": 5.9126844847,
				"y": -1.7214629912,
				"z": -0.5691737081,
				"element": "O" 
			},
			{
				"x": 4.8600501411,
				"y": -1.2007379104,
				"z": 0.1182604595,
				"element": "C" 
			},
			{
				"x": 4.9145741848,
				"y": -0.075852419,
				"z": 0.5414028692,
				"element": "O" 
			},
			{
				"x": 3.6942567565,
				"y": -2.1745504261,
				"z": 0.3298990614,
				"element": "C" 
			},
			{
				"x": 2.4043155529,
				"y": -1.5385944463,
				"z": 0.7908985203,
				"element": "C" 
			},
			{
				"x": 1.2240238828,
				"y": -1.724173882,
				"z": 0.0639680394,
				"element": "C" 
			},
			{
				"x": 0.0133301147,
				"y": -1.1791368486,
				"z": 0.4885489016,
				"element": "C" 
			},
			{
				"x": -0.0293619302,
				"y": -0.3959584745,
				"z": 1.6481996682,
				"element": "C" 
			},
			{
				"x": -1.2314568583,
				"y": 0.1676035938,
				"z": 2.1451831716,
				"element": "N" 
			},
			{
				"x": -2.387114549,
				"y": 0.5713740609,
				"z": 1.4988900018,
				"element": "C" 
			},
			{
				"x": -3.4436736318,
				"y": 0.6217345701,
				"z": 2.1181307842,
				"element": "O" 
			},
			{
				"x": -2.3185305137,
				"y": 1.0192771493,
				"z": 0.0664692227,
				"element": "C" 
			},
			{
				"x": -1.2051973948,
				"y": 1.6843841998,
				"z": -0.4658351807,
				"element": "C" 
			},
			{
				"x": -1.258756507,
				"y": 2.1557198358,
				"z": -1.7749590459,
				"element": "C" 
			},
			{
				"x": 0.2513710375,
				"y": 3.0786111318,
				"z": -2.4977721159,
				"element": "Br" 
			},
			{
				"x": -2.3899822434,
				"y": 1.9716934951,
				"z": -2.5694156328,
				"element": "C" 
			},
			{
				"x": -3.497056999,
				"y": 1.3151527598,
				"z": -2.0279878188,
				"element": "C" 
			},
			{
				"x": -3.4699109986,
				"y": 0.8531983452,
				"z": -0.7142476795,
				"element": "C" 
			},
			{
				"x": 1.1497990751,
				"y": -0.2026729723,
				"z": 2.3826716107,
				"element": "C" 
			},
			{
				"x": 2.3467412789,
				"y": -0.7747447737,
				"z": 1.9645130513,
				"element": "C" 
			},
			{
				"x": 5.718858914,
				"y": -2.6251946804,
				"z": -0.8554142108,
				"element": "H" 
			},
			{
				"x": 3.5225459961,
				"y": -2.7344039725,
				"z": -0.5975628628,
				"element": "H" 
			},
			{
				"x": 4.0464448742,
				"y": -2.9125315113,
				"z": 1.0666742861,
				"element": "H" 
			},
			{
				"x": 1.2400439367,
				"y": -2.322379952,
				"z": -0.8437245687,
				"element": "H" 
			},
			{
				"x": -0.892560888,
				"y": -1.3657085028,
				"z": -0.0765707264,
				"element": "H" 
			},
			{
				"x": -1.3932043734,
				"y": 0.0621810211,
				"z": 3.1400961423,
				"element": "H" 
			},
			{
				"x": -0.315748894,
				"y": 1.8454066217,
				"z": 0.1302833189,
				"element": "H" 
			},
			{
				"x": -2.4056779267,
				"y": 2.3423768394,
				"z": -3.5880336936,
				"element": "H" 
			},
			{
				"x": -4.3858232014,
				"y": 1.1755864109,
				"z": -2.6360029461,
				"element": "H" 
			},
			{
				"x": -4.3337518775,
				"y": 0.3709624747,
				"z": -0.2703712849,
				"element": "H" 
			},
			{
				"x": 1.1235520834,
				"y": 0.4081748134,
				"z": 3.2807293299,
				"element": "H" 
			},
			{
				"x": 3.2500164732,
				"y": -0.6007335597,
				"z": 2.5386530358,
				"element": "H" 
			}
		],
		 "valence_orbital": [ 
			{
				"type": "occ",
				"energy": -0.27425,
				"method": "rhf"
			},
			{
				"type": "occ",
				"energy": -0.26329,
				"method": "rhf"
			},
			{
				"type": "occ",
				"energy": -0.25836,
				"method": "rhf"
			},
			{
				"type": "occ",
				"energy": -0.24561,
				"method": "rhf"
			},
			{
				"type": "occ",
				"energy": -0.2303,
				"method": "rhf"
			},
			{
				"type": "unocc",
				"energy": -0.05068,
				"method": "rhf"
			},
			{
				"type": "unocc",
				"energy": -0.02368,
				"method": "rhf"
			},
			{
				"type": "unocc",
				"energy": -0.01442,
				"method": "rhf"
			},
			{
				"type": "unocc",
				"energy": -0.00922,
				"method": "rhf"
			},
			{
				"type": "unocc",
				"energy": 0.00398,
				"method": "rhf"
			}
		],
		"cosmo_sigma_profile": { 
			"-0.025": 0.0,
			"-0.024": 0.0,
			"-0.023": 0.0,
			"-0.022": 0.0,
			"-0.021": 0.0,
			"-0.02": 0.0,
			"-0.019": 0.635196553236,
			"-0.018": 1.08851012444,
			"-0.017": 1.40187260644,
			"-0.016": 1.40969455976,
			"-0.015": 1.23892249267,
			"-0.014": 1.52141262567,
			"-0.013": 2.06372825238,
			"-0.012": 1.96153388372,
			"-0.011": 1.91888493194,
			"-0.01": 3.46150830235,
			"-0.009": 2.93959623131,
			"-0.008": 5.06537356318,
			"-0.007": 12.9318436262,
			"-0.006": 18.1001083779,
			"-0.005": 20.6813288485,
			"-0.004": 19.6267172768,
			"-0.003": 17.487727683,
			"-0.002": 17.3126324672,
			"-0.001": 17.0967578916,
			"0.0": 18.5213498933,
			"0.001": 24.2649450329,
			"0.002": 27.887760832,
			"0.003": 21.8656702544,
			"0.004": 22.7656251874,
			"0.005": 12.0300041675,
			"0.006": 4.21555807123,
			"0.007": 4.3830267408,
			"0.008": 3.80768234529,
			"0.009": 5.7342775689,
			"0.01": 6.69002485104,
			"0.011": 7.49982105817,
			"0.012": 8.28066608744,
			"0.013": 6.10658285624,
			"0.014": 0.616386125067,
			"0.015": 0.0,
			"0.016": 0.0,
			"0.017": 0.0,
			"0.018": 0.0,
			"0.019": 0.0,
			"0.02": 0.0,
			"0.021": 0.0,
			"0.022": 0.0,
			"0.023": 0.0,
			"0.024": 0.0,
			"0.025": 0.0
		}
	}
}
