{
	 "smiles": "OC(=O)C1=CC(=C(CBr)C=C1)[N+]([O-])=O", 
	 "Tm": 404.15, 
	 "num_atms": 20, 
	 "gaussian": { 
		 "optdone": 1, 
		 "sigma_profile": "yes", 
		 "theory": "DFT", 
		 "functional": "B3LYP", 
		 "basiset": "6-31G**", 
		 "properties": { 
			 "R2extent": 4445.6365, 
			 "electric_dipole_moment_norm": 5.71927667979, 
			 "electric_quadrupole_moment_norm": 6.06083263834, 
			 "total_energy": -3235.4327048, 
			 "HOMO_LUMO_gap": 0.17437, 
			 "cosmo_polarized_energy": -15.21, 
			 "cosmo_cavitation_energy": 28.1, 
			 "cosmo_dispersion_energy": -20.54, 
			 "cosmo_repulsion_energy": 1.62, 
			 "cosmo_total_nonelectrostatic_energy": 9.18, 
			 "SMD_solvation_energy": 7.02 
		},
		"coords": [
			{
				"x": 0.13015174,
				"y": 3.6644460557,
				"z": 2.5517019032,
				"element": "O" 
			},
			{
				"x": 0.007566713,
				"y": 2.3225022642,
				"z": 2.6817185524,
				"element": "C" 
			},
			{
				"x": -0.1287049886,
				"y": 1.7756270128,
				"z": 3.7557571264,
				"element": "O" 
			},
			{
				"x": 0.0580371917,
				"y": 1.6122322431,
				"z": 1.372426728,
				"element": "C" 
			},
			{
				"x": -0.044654659,
				"y": 0.2200227929,
				"z": 1.3812656742,
				"element": "C" 
			},
			{
				"x": -0.0195963073,
				"y": -0.4866808221,
				"z": 0.1843061918,
				"element": "C" 
			},
			{
				"x": 0.1220458441,
				"y": 0.1600925504,
				"z": -1.0621410836,
				"element": "C" 
			},
			{
				"x": 0.1865647832,
				"y": -0.5218347987,
				"z": -2.3960814921,
				"element": "C" 
			},
			{
				"x": 1.9876677219,
				"y": -1.3189850869,
				"z": -2.7032338137,
				"element": "Br" 
			},
			{
				"x": 0.2426947512,
				"y": 1.5577161306,
				"z": -1.0336597108,
				"element": "C" 
			},
			{
				"x": 0.2047021955,
				"y": 2.2826568989,
				"z": 0.1532482945,
				"element": "C" 
			},
			{
				"x": -0.1588197112,
				"y": -1.9546577835,
				"z": 0.3056107232,
				"element": "N" 
			},
			{
				"x": -0.5941639765,
				"y": -2.5823051578,
				"z": -0.659048677,
				"element": "O" 
			},
			{
				"x": 0.1497112223,
				"y": -2.4585665597,
				"z": 1.3814445565,
				"element": "O" 
			},
			{
				"x": 0.0867584578,
				"y": 4.0283544508,
				"z": 3.4514787542,
				"element": "H" 
			},
			{
				"x": -0.1451925853,
				"y": -0.3084637478,
				"z": 2.3206891703,
				"element": "H" 
			},
			{
				"x": -0.5046463429,
				"y": -1.3505384817,
				"z": -2.4884596219,
				"element": "H" 
			},
			{
				"x": 0.0583747717,
				"y": 0.1968896535,
				"z": -3.2024616241,
				"element": "H" 
			},
			{
				"x": 0.3736983364,
				"y": 2.0834426658,
				"z": -1.9746030827,
				"element": "H" 
			},
			{
				"x": 0.2915048419,
				"y": 3.3628497196,
				"z": 0.1382414311,
				"element": "H" 
			}
		],
		 "valence_orbital": [ 
			{
				"type": "occ",
				"energy": -0.29832,
				"method": "rhf"
			},
			{
				"type": "occ",
				"energy": -0.29638,
				"method": "rhf"
			},
			{
				"type": "occ",
				"energy": -0.29034,
				"method": "rhf"
			},
			{
				"type": "occ",
				"energy": -0.28108,
				"method": "rhf"
			},
			{
				"type": "occ",
				"energy": -0.27845,
				"method": "rhf"
			},
			{
				"type": "unocc",
				"energy": -0.10408,
				"method": "rhf"
			},
			{
				"type": "unocc",
				"energy": -0.07727,
				"method": "rhf"
			},
			{
				"type": "unocc",
				"energy": -0.02521,
				"method": "rhf"
			},
			{
				"type": "unocc",
				"energy": -0.01174,
				"method": "rhf"
			},
			{
				"type": "unocc",
				"energy": 0.04503,
				"method": "rhf"
			}
		],
		"cosmo_sigma_profile": { 
			"-0.025": 0.0,
			"-0.024": 0.0,
			"-0.023": 0.0,
			"-0.022": 0.0,
			"-0.021": 0.0,
			"-0.02": 0.0,
			"-0.019": 0.397074575058,
			"-0.018": 0.750893523498,
			"-0.017": 1.43683051696,
			"-0.016": 0.593346296128,
			"-0.015": 0.521296464084,
			"-0.014": 0.652113704169,
			"-0.013": 0.912249538036,
			"-0.012": 0.834236885406,
			"-0.011": 0.742112374709,
			"-0.01": 1.84737326666,
			"-0.009": 3.68156593545,
			"-0.008": 6.83856749762,
			"-0.007": 8.74957926565,
			"-0.006": 7.48954434356,
			"-0.005": 11.2731248585,
			"-0.004": 12.2000890126,
			"-0.003": 13.9581312682,
			"-0.002": 18.3024908433,
			"-0.001": 21.0080063652,
			"0.0": 16.3198425529,
			"0.001": 12.033482962,
			"0.002": 9.16202414144,
			"0.003": 9.26203530485,
			"0.004": 11.5592700198,
			"0.005": 16.1018075787,
			"0.006": 12.6172996655,
			"0.007": 9.38120767342,
			"0.008": 5.70257568225,
			"0.009": 5.48296868494,
			"0.01": 3.3947504441,
			"0.011": 4.67938352058,
			"0.012": 0.789410878839,
			"0.013": 0.0,
			"0.014": 0.0,
			"0.015": 0.0,
			"0.016": 0.0,
			"0.017": 0.0,
			"0.018": 0.0,
			"0.019": 0.0,
			"0.02": 0.0,
			"0.021": 0.0,
			"0.022": 0.0,
			"0.023": 0.0,
			"0.024": 0.0,
			"0.025": 0.0
		}
	}
}
