{
	 "smiles": "COC(=O)C1=C(Cl)N(C)N=C1C", 
	 "Tm": 310.15, 
	 "num_atms": 21, 
	 "gaussian": { 
		 "optdone": 1, 
		 "sigma_profile": "yes", 
		 "theory": "DFT", 
		 "functional": "B3LYP", 
		 "basiset": "6-31G**", 
		 "properties": { 
			 "R2extent": 3768.5692, 
			 "electric_dipole_moment_norm": 1.44260077638, 
			 "electric_quadrupole_moment_norm": 17.7584110548, 
			 "total_energy": -992.303741563, 
			 "HOMO_LUMO_gap": 0.22458, 
			 "cosmo_polarized_energy": -9.87, 
			 "cosmo_cavitation_energy": 27.08, 
			 "cosmo_dispersion_energy": -19.64, 
			 "cosmo_repulsion_energy": 1.58, 
			 "cosmo_total_nonelectrostatic_energy": 9.01, 
			 "SMD_solvation_energy": 5.31 
		},
		"coords": [
			{
				"x": -1.1212731506,
				"y": -0.0993942586,
				"z": 1.8248271418,
				"element": "C" 
			},
			{
				"x": -0.4931629034,
				"y": -0.241126668,
				"z": 0.5421493548,
				"element": "O" 
			},
			{
				"x": -0.4781828814,
				"y": 0.8872555343,
				"z": -0.2148318228,
				"element": "C" 
			},
			{
				"x": -0.9578753671,
				"y": 1.940144944,
				"z": 0.1586383632,
				"element": "O" 
			},
			{
				"x": 0.1786352276,
				"y": 0.6608598811,
				"z": -1.5060706075,
				"element": "C" 
			},
			{
				"x": 0.3566513113,
				"y": 1.614969192,
				"z": -2.507319655,
				"element": "C" 
			},
			{
				"x": -0.095243646,
				"y": 3.2715218133,
				"z": -2.5812252851,
				"element": "Cl" 
			},
			{
				"x": 1.0003407121,
				"y": 1.021053976,
				"z": -3.5341917954,
				"element": "N" 
			},
			{
				"x": 1.4108346627,
				"y": 1.5988079768,
				"z": -4.8022775627,
				"element": "C" 
			},
			{
				"x": 1.2622960715,
				"y": -0.289185616,
				"z": -3.2666586564,
				"element": "N" 
			},
			{
				"x": 0.7736934826,
				"y": -0.5182313207,
				"z": -2.0513030975,
				"element": "C" 
			},
			{
				"x": 0.9002039148,
				"y": -1.8841896665,
				"z": -1.4519115866,
				"element": "C" 
			},
			{
				"x": -0.6071751046,
				"y": 0.6546316436,
				"z": 2.426327881,
				"element": "H" 
			},
			{
				"x": -2.1674261138,
				"y": 0.1967259165,
				"z": 1.7128761843,
				"element": "H" 
			},
			{
				"x": -1.0494163851,
				"y": -1.0794634492,
				"z": 2.2967141744,
				"element": "H" 
			},
			{
				"x": 2.1098626866,
				"y": 2.4244343989,
				"z": -4.6437806313,
				"element": "H" 
			},
			{
				"x": 0.5446550779,
				"y": 1.9661150691,
				"z": -5.3592646153,
				"element": "H" 
			},
			{
				"x": 1.8997385463,
				"y": 0.8032500636,
				"z": -5.3621713735,
				"element": "H" 
			},
			{
				"x": 1.4152479745,
				"y": -2.5382466438,
				"z": -2.1587119792,
				"element": "H" 
			},
			{
				"x": 1.4622469063,
				"y": -1.854379335,
				"z": -0.5140605937,
				"element": "H" 
			},
			{
				"x": -0.0814510221,
				"y": -2.3071534514,
				"z": -1.2199538373,
				"element": "H" 
			}
		],
		 "valence_orbital": [ 
			{
				"type": "occ",
				"energy": -0.29739,
				"method": "rhf"
			},
			{
				"type": "occ",
				"energy": -0.29695,
				"method": "rhf"
			},
			{
				"type": "occ",
				"energy": -0.26608,
				"method": "rhf"
			},
			{
				"type": "occ",
				"energy": -0.25514,
				"method": "rhf"
			},
			{
				"type": "occ",
				"energy": -0.24812,
				"method": "rhf"
			},
			{
				"type": "unocc",
				"energy": -0.02354,
				"method": "rhf"
			},
			{
				"type": "unocc",
				"energy": 0.01758,
				"method": "rhf"
			},
			{
				"type": "unocc",
				"energy": 0.03006,
				"method": "rhf"
			},
			{
				"type": "unocc",
				"energy": 0.10378,
				"method": "rhf"
			},
			{
				"type": "unocc",
				"energy": 0.10921,
				"method": "rhf"
			}
		],
		"cosmo_sigma_profile": { 
			"-0.025": 0.0,
			"-0.024": 0.0,
			"-0.023": 0.0,
			"-0.022": 0.0,
			"-0.021": 0.0,
			"-0.02": 0.0,
			"-0.019": 0.0,
			"-0.018": 0.0,
			"-0.017": 0.0,
			"-0.016": 0.0,
			"-0.015": 0.0,
			"-0.014": 0.0,
			"-0.013": 0.0,
			"-0.012": 0.0,
			"-0.011": 0.0,
			"-0.01": 0.0,
			"-0.009": 0.0,
			"-0.008": 0.096886231586,
			"-0.007": 5.11165029491,
			"-0.006": 11.1224374862,
			"-0.005": 15.0674955182,
			"-0.004": 22.8223147478,
			"-0.003": 21.9383685546,
			"-0.002": 18.1514223673,
			"-0.001": 21.2184604061,
			"0.0": 21.9522017982,
			"0.001": 16.1561306156,
			"0.002": 13.506660954,
			"0.003": 10.5502729606,
			"0.004": 6.94897736595,
			"0.005": 4.88399133195,
			"0.006": 4.11999088283,
			"0.007": 2.19405480844,
			"0.008": 3.14072666486,
			"0.009": 2.54842485291,
			"0.01": 3.68209922853,
			"0.011": 3.68139135761,
			"0.012": 5.49251204431,
			"0.013": 2.08320297861,
			"0.014": 0.701974643465,
			"0.015": 0.0718730874472,
			"0.016": 0.0,
			"0.017": 0.0,
			"0.018": 0.0,
			"0.019": 0.0,
			"0.02": 0.0,
			"0.021": 0.0,
			"0.022": 0.0,
			"0.023": 0.0,
			"0.024": 0.0,
			"0.025": 0.0
		}
	}
}
