{
	 "smiles": "OC(=O)C1=CC=C(O1)C1=CC=C(C=C1)[N+]([O-])=O", 
	 "Tm": 529.15, 
	 "num_atms": 24, 
	 "gaussian": { 
		 "optdone": 1, 
		 "sigma_profile": "yes", 
		 "theory": "DFT", 
		 "functional": "B3LYP", 
		 "basiset": "6-31G**", 
		 "properties": { 
			 "R2extent": 5950.0412, 
			 "electric_dipole_moment_norm": 2.37577274587, 
			 "electric_quadrupole_moment_norm": 40.6100869114, 
			 "total_energy": -854.153369195, 
			 "HOMO_LUMO_gap": 0.13955, 
			 "cosmo_polarized_energy": -18.89, 
			 "cosmo_cavitation_energy": 31.0, 
			 "cosmo_dispersion_energy": -22.5, 
			 "cosmo_repulsion_energy": 1.71, 
			 "cosmo_total_nonelectrostatic_energy": 10.21, 
			 "SMD_solvation_energy": 9.21 
		},
		"coords": [
			{
				"x": 0.0683969402,
				"y": -3.4940571636,
				"z": 2.7440670175,
				"element": "O" 
			},
			{
				"x": -0.787315255,
				"y": -2.6911163085,
				"z": 3.4207051652,
				"element": "C" 
			},
			{
				"x": -1.297340494,
				"y": -3.0341144675,
				"z": 4.461515873,
				"element": "O" 
			},
			{
				"x": -1.0552752575,
				"y": -1.3780238057,
				"z": 2.809530632,
				"element": "C" 
			},
			{
				"x": -1.8499011927,
				"y": -0.3394090105,
				"z": 3.2111128871,
				"element": "C" 
			},
			{
				"x": -1.7166940267,
				"y": 0.6721896615,
				"z": 2.2243430778,
				"element": "C" 
			},
			{
				"x": -0.844989354,
				"y": 0.1954664685,
				"z": 1.2700155841,
				"element": "C" 
			},
			{
				"x": -0.4367348875,
				"y": -1.0628629373,
				"z": 1.6256736295,
				"element": "O" 
			},
			{
				"x": -0.3159755816,
				"y": 0.7524589432,
				"z": 0.0345452793,
				"element": "C" 
			},
			{
				"x": -0.7013429294,
				"y": 2.0429839982,
				"z": -0.3805972819,
				"element": "C" 
			},
			{
				"x": -0.2058162319,
				"y": 2.5881651009,
				"z": -1.5563525184,
				"element": "C" 
			},
			{
				"x": 0.6833969308,
				"y": 1.837174724,
				"z": -2.3251259523,
				"element": "C" 
			},
			{
				"x": 1.0847165273,
				"y": 0.5584262503,
				"z": -1.9432264749,
				"element": "C" 
			},
			{
				"x": 0.5835268258,
				"y": 0.0206919826,
				"z": -0.7646972914,
				"element": "C" 
			},
			{
				"x": 1.2106756585,
				"y": 2.4102524278,
				"z": -3.570617304,
				"element": "N" 
			},
			{
				"x": 1.993537355,
				"y": 1.72380166,
				"z": -4.2268820843,
				"element": "O" 
			},
			{
				"x": 0.8367402729,
				"y": 3.54145989,
				"z": -3.8799018147,
				"element": "O" 
			},
			{
				"x": 0.3727324191,
				"y": -3.0501409527,
				"z": 1.9376800064,
				"element": "H" 
			},
			{
				"x": -2.4496949584,
				"y": -0.3219493652,
				"z": 4.1086040849,
				"element": "H" 
			},
			{
				"x": -2.2050553757,
				"y": 1.6353940891,
				"z": 2.2192006554,
				"element": "H" 
			},
			{
				"x": -1.3930535915,
				"y": 2.6230569881,
				"z": 0.2206952779,
				"element": "H" 
			},
			{
				"x": -0.4918662237,
				"y": 3.5778601556,
				"z": -1.8891862717,
				"element": "H" 
			},
			{
				"x": 1.7768587082,
				"y": 0.0092422012,
				"z": -2.5689932338,
				"element": "H" 
			},
			{
				"x": 0.8883737217,
				"y": -0.97265053,
				"z": -0.4576089426,
				"element": "H" 
			}
		],
		 "valence_orbital": [ 
			{
				"type": "occ",
				"energy": -0.31223,
				"method": "rhf"
			},
			{
				"type": "occ",
				"energy": -0.29886,
				"method": "rhf"
			},
			{
				"type": "occ",
				"energy": -0.29394,
				"method": "rhf"
			},
			{
				"type": "occ",
				"energy": -0.28953,
				"method": "rhf"
			},
			{
				"type": "occ",
				"energy": -0.24851,
				"method": "rhf"
			},
			{
				"type": "unocc",
				"energy": -0.10896,
				"method": "rhf"
			},
			{
				"type": "unocc",
				"energy": -0.06367,
				"method": "rhf"
			},
			{
				"type": "unocc",
				"energy": -0.0422,
				"method": "rhf"
			},
			{
				"type": "unocc",
				"energy": -0.0199,
				"method": "rhf"
			},
			{
				"type": "unocc",
				"energy": 0.04583,
				"method": "rhf"
			}
		],
		"cosmo_sigma_profile": { 
			"-0.025": 0.0,
			"-0.024": 0.0,
			"-0.023": 0.0,
			"-0.022": 0.0,
			"-0.021": 0.0,
			"-0.02": 0.0,
			"-0.019": 0.0,
			"-0.018": 0.0,
			"-0.017": 0.353294862914,
			"-0.016": 0.856932538933,
			"-0.015": 0.586004541736,
			"-0.014": 0.451190232906,
			"-0.013": 0.865555013142,
			"-0.012": 0.888330856012,
			"-0.011": 1.44201687016,
			"-0.01": 2.28760648789,
			"-0.009": 5.23510329231,
			"-0.008": 8.66420353397,
			"-0.007": 12.0495615998,
			"-0.006": 12.0318746222,
			"-0.005": 11.0172948838,
			"-0.004": 12.3766782142,
			"-0.003": 12.5100110426,
			"-0.002": 17.7322363056,
			"-0.001": 25.0393034949,
			"0.0": 24.3773287257,
			"0.001": 22.8774668654,
			"0.002": 11.6198475139,
			"0.003": 4.44279932546,
			"0.004": 3.53025586331,
			"0.005": 5.54623064987,
			"0.006": 6.18329463414,
			"0.007": 9.78798558032,
			"0.008": 11.2360891782,
			"0.009": 8.14756851419,
			"0.01": 7.64733769721,
			"0.011": 5.29243897735,
			"0.012": 4.38702526552,
			"0.013": 0.978523957412,
			"0.014": 0.0,
			"0.015": 0.0,
			"0.016": 0.0,
			"0.017": 0.0,
			"0.018": 0.0,
			"0.019": 0.0,
			"0.02": 0.0,
			"0.021": 0.0,
			"0.022": 0.0,
			"0.023": 0.0,
			"0.024": 0.0,
			"0.025": 0.0
		}
	}
}
