{
	 "smiles": "OC(=O)C(OC1=CC=C(Cl)C=C1)C1=CC=CC=C1", 
	 "Tm": 435.15, 
	 "num_atms": 29, 
	 "gaussian": { 
		 "optdone": 1, 
		 "sigma_profile": "yes", 
		 "theory": "DFT", 
		 "functional": "B3LYP", 
		 "basiset": "6-31G**", 
		 "properties": { 
			 "R2extent": 7744.5924, 
			 "electric_dipole_moment_norm": 2.56314752794, 
			 "electric_quadrupole_moment_norm": 8.57437277415, 
			 "total_energy": -1225.9841102, 
			 "HOMO_LUMO_gap": 0.19691, 
			 "cosmo_polarized_energy": -12.52, 
			 "cosmo_cavitation_energy": 36.04, 
			 "cosmo_dispersion_energy": -25.39, 
			 "cosmo_repulsion_energy": 1.98, 
			 "cosmo_total_nonelectrostatic_energy": 12.63, 
			 "SMD_solvation_energy": 6.94 
		},
		"coords": [
			{
				"x": -0.5842786789,
				"y": 2.1923496061,
				"z": 0.0577982616,
				"element": "O" 
			},
			{
				"x": 0.3109166731,
				"y": 1.5523115174,
				"z": -0.7143387276,
				"element": "C" 
			},
			{
				"x": 0.8016245471,
				"y": 2.0220901641,
				"z": -1.7171882614,
				"element": "O" 
			},
			{
				"x": 0.6101635173,
				"y": 0.128176138,
				"z": -0.2183606575,
				"element": "C" 
			},
			{
				"x": 0.5916469301,
				"y": 0.0217779557,
				"z": 1.1936149371,
				"element": "O" 
			},
			{
				"x": 1.5911104866,
				"y": 0.6161967693,
				"z": 1.9197411833,
				"element": "C" 
			},
			{
				"x": 1.5194894472,
				"y": 0.4210030962,
				"z": 3.3056922779,
				"element": "C" 
			},
			{
				"x": 2.4836662378,
				"y": 0.9681956856,
				"z": 4.1431487828,
				"element": "C" 
			},
			{
				"x": 3.5280160434,
				"y": 1.7157276757,
				"z": 3.5929060974,
				"element": "C" 
			},
			{
				"x": 4.750355553,
				"y": 2.410277644,
				"z": 4.6504094055,
				"element": "Cl" 
			},
			{
				"x": 3.6081876902,
				"y": 1.9168305459,
				"z": 2.2193767401,
				"element": "C" 
			},
			{
				"x": 2.638505826,
				"y": 1.3669993935,
				"z": 1.3749878347,
				"element": "C" 
			},
			{
				"x": -0.4301348232,
				"y": -0.8189180185,
				"z": -0.7981340009,
				"element": "C" 
			},
			{
				"x": -0.3139744428,
				"y": -1.2182345952,
				"z": -2.1348297985,
				"element": "C" 
			},
			{
				"x": -1.2702164904,
				"y": -2.0606931043,
				"z": -2.7010237569,
				"element": "C" 
			},
			{
				"x": -2.3478080915,
				"y": -2.510291302,
				"z": -1.9350272778,
				"element": "C" 
			},
			{
				"x": -2.4662338769,
				"y": -2.109237221,
				"z": -0.6032280283,
				"element": "C" 
			},
			{
				"x": -1.515051232,
				"y": -1.2606167832,
				"z": -0.03474507,
				"element": "C" 
			},
			{
				"x": -0.7292541506,
				"y": 3.0618456684,
				"z": -0.3528424017,
				"element": "H" 
			},
			{
				"x": 1.5990175912,
				"y": -0.1290218256,
				"z": -0.616046574,
				"element": "H" 
			},
			{
				"x": 0.6999262458,
				"y": -0.1649652033,
				"z": 3.7077621768,
				"element": "H" 
			},
			{
				"x": 2.4288853911,
				"y": 0.8167442512,
				"z": 5.2154716675,
				"element": "H" 
			},
			{
				"x": 4.4205805673,
				"y": 2.5008553363,
				"z": 1.8013277626,
				"element": "H" 
			},
			{
				"x": 2.716971099,
				"y": 1.54375172,
				"z": 0.3088654925,
				"element": "H" 
			},
			{
				"x": 0.5224042547,
				"y": -0.8646411366,
				"z": -2.7316978556,
				"element": "H" 
			},
			{
				"x": -1.1702526822,
				"y": -2.3690139492,
				"z": -3.7375819783,
				"element": "H" 
			},
			{
				"x": -3.0901302127,
				"y": -3.1707832512,
				"z": -2.3736843866,
				"element": "H" 
			},
			{
				"x": -3.3025906098,
				"y": -2.4558331653,
				"z": -0.0029797217,
				"element": "H" 
			},
			{
				"x": -1.6020428099,
				"y": -0.9479836123,
				"z": 0.999205877,
				"element": "H" 
			}
		],
		 "valence_orbital": [ 
			{
				"type": "occ",
				"energy": -0.28781,
				"method": "rhf"
			},
			{
				"type": "occ",
				"energy": -0.2672,
				"method": "rhf"
			},
			{
				"type": "occ",
				"energy": -0.25754,
				"method": "rhf"
			},
			{
				"type": "occ",
				"energy": -0.25294,
				"method": "rhf"
			},
			{
				"type": "occ",
				"energy": -0.22687,
				"method": "rhf"
			},
			{
				"type": "unocc",
				"energy": -0.02996,
				"method": "rhf"
			},
			{
				"type": "unocc",
				"energy": -0.0153,
				"method": "rhf"
			},
			{
				"type": "unocc",
				"energy": -0.01008,
				"method": "rhf"
			},
			{
				"type": "unocc",
				"energy": -0.00226,
				"method": "rhf"
			},
			{
				"type": "unocc",
				"energy": 0.01239,
				"method": "rhf"
			}
		],
		"cosmo_sigma_profile": { 
			"-0.025": 0.0,
			"-0.024": 0.0,
			"-0.023": 0.0,
			"-0.022": 0.0,
			"-0.021": 0.0,
			"-0.02": 0.00126814795318,
			"-0.019": 0.549368412352,
			"-0.018": 1.24902606503,
			"-0.017": 0.789112606747,
			"-0.016": 1.01181366004,
			"-0.015": 0.242844038661,
			"-0.014": 0.223325533791,
			"-0.013": 1.28728366157,
			"-0.012": 1.10974133928,
			"-0.011": 0.765872113651,
			"-0.01": 0.691815385921,
			"-0.009": 0.487981795097,
			"-0.008": 3.86835351026,
			"-0.007": 10.1937704926,
			"-0.006": 17.139322885,
			"-0.005": 17.4702349524,
			"-0.004": 18.2238246195,
			"-0.003": 15.6948820958,
			"-0.002": 16.1211263296,
			"-0.001": 15.9695094191,
			"0.0": 16.9150565747,
			"0.001": 20.1418270048,
			"0.002": 26.3305154296,
			"0.003": 33.7180757791,
			"0.004": 26.8100326298,
			"0.005": 21.164990858,
			"0.006": 5.98120734113,
			"0.007": 2.94761141199,
			"0.008": 2.82662783648,
			"0.009": 2.39122033062,
			"0.01": 2.56911770963,
			"0.011": 4.77283525354,
			"0.012": 1.18496133819,
			"0.013": 0.0,
			"0.014": 0.0,
			"0.015": 0.0,
			"0.016": 0.0,
			"0.017": 0.0,
			"0.018": 0.0,
			"0.019": 0.0,
			"0.02": 0.0,
			"0.021": 0.0,
			"0.022": 0.0,
			"0.023": 0.0,
			"0.024": 0.0,
			"0.025": 0.0
		}
	}
}
