{
	 "smiles": "OC(=O)C1=CC=C(OC2=CC=C(F)C=C2)C=C1", 
	 "Tm": 445.15, 
	 "num_atms": 26, 
	 "gaussian": { 
		 "optdone": 1, 
		 "sigma_profile": "yes", 
		 "theory": "DFT", 
		 "functional": "B3LYP", 
		 "basiset": "6-31G**", 
		 "properties": { 
			 "R2extent": 6944.0752, 
			 "electric_dipole_moment_norm": 4.42788497028, 
			 "electric_quadrupole_moment_norm": 24.6440890822, 
			 "total_energy": -826.311217947, 
			 "HOMO_LUMO_gap": 0.19412, 
			 "cosmo_polarized_energy": -15.83, 
			 "cosmo_cavitation_energy": 32.18, 
			 "cosmo_dispersion_energy": -23.08, 
			 "cosmo_repulsion_energy": 1.75, 
			 "cosmo_total_nonelectrostatic_energy": 10.85, 
			 "SMD_solvation_energy": 7.35 
		},
		"coords": [
			{
				"x": -0.7778001983,
				"y": 4.9195973795,
				"z": -0.8102856472,
				"element": "O" 
			},
			{
				"x": -1.5728156565,
				"y": 3.8640520484,
				"z": -1.1418206433,
				"element": "C" 
			},
			{
				"x": -2.7164896198,
				"y": 4.0592513364,
				"z": -1.4832588213,
				"element": "O" 
			},
			{
				"x": -0.9595077242,
				"y": 2.5036394209,
				"z": -1.0560977445,
				"element": "C" 
			},
			{
				"x": -1.8226273318,
				"y": 1.4004757254,
				"z": -1.012280279,
				"element": "C" 
			},
			{
				"x": -1.3301216914,
				"y": 0.1021952885,
				"z": -0.9368853768,
				"element": "C" 
			},
			{
				"x": 0.0550617335,
				"y": -0.1054004374,
				"z": -0.925159951,
				"element": "C" 
			},
			{
				"x": 0.6452437752,
				"y": -1.3393810796,
				"z": -0.8281120408,
				"element": "O" 
			},
			{
				"x": -0.104632521,
				"y": -2.4937372714,
				"z": -1.0187438233,
				"element": "C" 
			},
			{
				"x": -0.2794991034,
				"y": -3.3539335785,
				"z": 0.0647183077,
				"element": "C" 
			},
			{
				"x": -0.9490237357,
				"y": -4.5648190588,
				"z": -0.1153022833,
				"element": "C" 
			},
			{
				"x": -1.4339585274,
				"y": -4.8819452199,
				"z": -1.3792813831,
				"element": "C" 
			},
			{
				"x": -2.0843239745,
				"y": -6.0495503884,
				"z": -1.5567593144,
				"element": "F" 
			},
			{
				"x": -1.2657802295,
				"y": -4.0322482894,
				"z": -2.4685629439,
				"element": "C" 
			},
			{
				"x": -0.5890068201,
				"y": -2.8271044582,
				"z": -2.2858798768,
				"element": "C" 
			},
			{
				"x": 0.93402742,
				"y": 0.9831655648,
				"z": -0.9883348966,
				"element": "C" 
			},
			{
				"x": 0.4261200879,
				"y": 2.2745498426,
				"z": -1.0517351181,
				"element": "C" 
			},
			{
				"x": 0.0374004413,
				"y": 4.606112386,
				"z": -0.3956303643,
				"element": "H" 
			},
			{
				"x": -2.8915518978,
				"y": 1.5838439753,
				"z": -1.0330552417,
				"element": "H" 
			},
			{
				"x": -2.0098152692,
				"y": -0.7402479632,
				"z": -0.8872250555,
				"element": "H" 
			},
			{
				"x": 0.1163749549,
				"y": -3.0728512546,
				"z": 1.0346548868,
				"element": "H" 
			},
			{
				"x": -1.0982450715,
				"y": -5.2569973515,
				"z": 0.7059390365,
				"element": "H" 
			},
			{
				"x": -1.6534276016,
				"y": -4.3218848779,
				"z": -3.4390101787,
				"element": "H" 
			},
			{
				"x": -0.4310224754,
				"y": -2.1498607697,
				"z": -3.1185836581,
				"element": "H" 
			},
			{
				"x": 2.0018388328,
				"y": 0.7933253741,
				"z": -0.9963134779,
				"element": "H" 
			},
			{
				"x": 1.1286822036,
				"y": 3.0998536567,
				"z": -1.1410941118,
				"element": "H" 
			}
		],
		 "valence_orbital": [ 
			{
				"type": "occ",
				"energy": -0.27991,
				"method": "rhf"
			},
			{
				"type": "occ",
				"energy": -0.27453,
				"method": "rhf"
			},
			{
				"type": "occ",
				"energy": -0.27089,
				"method": "rhf"
			},
			{
				"type": "occ",
				"energy": -0.25771,
				"method": "rhf"
			},
			{
				"type": "occ",
				"energy": -0.23942,
				"method": "rhf"
			},
			{
				"type": "unocc",
				"energy": -0.0453,
				"method": "rhf"
			},
			{
				"type": "unocc",
				"energy": -0.03299,
				"method": "rhf"
			},
			{
				"type": "unocc",
				"energy": -0.02029,
				"method": "rhf"
			},
			{
				"type": "unocc",
				"energy": -0.01129,
				"method": "rhf"
			},
			{
				"type": "unocc",
				"energy": 0.05209,
				"method": "rhf"
			}
		],
		"cosmo_sigma_profile": { 
			"-0.025": 0.0,
			"-0.024": 0.0,
			"-0.023": 0.0,
			"-0.022": 0.0,
			"-0.021": 0.0,
			"-0.02": 0.0,
			"-0.019": 0.196037927398,
			"-0.018": 0.775747058246,
			"-0.017": 1.13170734331,
			"-0.016": 0.72735222208,
			"-0.015": 1.41110710133,
			"-0.014": 0.800149492201,
			"-0.013": 0.609152767661,
			"-0.012": 1.13985506893,
			"-0.011": 1.67134228184,
			"-0.01": 0.741397365986,
			"-0.009": 1.17034364834,
			"-0.008": 4.74279543817,
			"-0.007": 12.336320235,
			"-0.006": 13.2702169123,
			"-0.005": 15.2316876218,
			"-0.004": 12.0488221933,
			"-0.003": 12.288465259,
			"-0.002": 15.5749613224,
			"-0.001": 16.4928496992,
			"0.0": 18.0566378472,
			"0.001": 22.9360048814,
			"0.002": 27.9275900732,
			"0.003": 25.8488381003,
			"0.004": 14.3272589481,
			"0.005": 6.17356439806,
			"0.006": 3.68548359015,
			"0.007": 3.10075902704,
			"0.008": 3.85775735227,
			"0.009": 3.48912491444,
			"0.01": 4.14840570308,
			"0.011": 5.29424872854,
			"0.012": 5.4278263145,
			"0.013": 2.25995642206,
			"0.014": 0.192754414036,
			"0.015": 0.0,
			"0.016": 0.0,
			"0.017": 0.0,
			"0.018": 0.0,
			"0.019": 0.0,
			"0.02": 0.0,
			"0.021": 0.0,
			"0.022": 0.0,
			"0.023": 0.0,
			"0.024": 0.0,
			"0.025": 0.0
		}
	}
}
