{
	 "smiles": "COC1=CC=C2C=C(C=O)C=CC2=C1", 
	 "Tm": 354.15, 
	 "num_atms": 24, 
	 "gaussian": { 
		 "optdone": 1, 
		 "sigma_profile": "yes", 
		 "theory": "DFT", 
		 "functional": "B3LYP", 
		 "basiset": "6-31G**", 
		 "properties": { 
			 "R2extent": 3664.0339, 
			 "electric_dipole_moment_norm": 4.56366676807, 
			 "electric_quadrupole_moment_norm": 18.8713152067, 
			 "total_energy": -613.745818987, 
			 "HOMO_LUMO_gap": 0.15895, 
			 "cosmo_polarized_energy": -10.61, 
			 "cosmo_cavitation_energy": 28.38, 
			 "cosmo_dispersion_energy": -20.81, 
			 "cosmo_repulsion_energy": 1.6, 
			 "cosmo_total_nonelectrostatic_energy": 9.16, 
			 "SMD_solvation_energy": 6.41 
		},
		"coords": [
			{
				"x": -0.3128517674,
				"y": -2.5991995197,
				"z": -2.9578451128,
				"element": "C" 
			},
			{
				"x": 0.9252503852,
				"y": -2.1311515405,
				"z": -2.4417952998,
				"element": "O" 
			},
			{
				"x": 0.8993404104,
				"y": -1.1926053138,
				"z": -1.4583930219,
				"element": "C" 
			},
			{
				"x": 2.1834860546,
				"y": -0.781755908,
				"z": -1.0018526507,
				"element": "C" 
			},
			{
				"x": 2.2954634826,
				"y": 0.159912735,
				"z": -0.0127086158,
				"element": "C" 
			},
			{
				"x": 1.1404700456,
				"y": 0.7463593483,
				"z": 0.5785393705,
				"element": "C" 
			},
			{
				"x": 1.2222246447,
				"y": 1.7199927917,
				"z": 1.6003379214,
				"element": "C" 
			},
			{
				"x": 0.0806034557,
				"y": 2.2724650326,
				"z": 2.1561551253,
				"element": "C" 
			},
			{
				"x": 0.1982973113,
				"y": 3.2866117654,
				"z": 3.2209541831,
				"element": "C" 
			},
			{
				"x": -0.7432593712,
				"y": 3.829277659,
				"z": 3.770800467,
				"element": "O" 
			},
			{
				"x": -1.2004673113,
				"y": 1.8591874298,
				"z": 1.6973481661,
				"element": "C" 
			},
			{
				"x": -1.3098752968,
				"y": 0.9159476005,
				"z": 0.7068523601,
				"element": "C" 
			},
			{
				"x": -0.1515723716,
				"y": 0.330597999,
				"z": 0.1168312035,
				"element": "C" 
			},
			{
				"x": -0.246453798,
				"y": -0.6458917517,
				"z": -0.9084234387,
				"element": "C" 
			},
			{
				"x": -0.0615033167,
				"y": -3.3340707152,
				"z": -3.7236023509,
				"element": "H" 
			},
			{
				"x": -0.9170741501,
				"y": -3.0792761321,
				"z": -2.1778749929,
				"element": "H" 
			},
			{
				"x": -0.8920237545,
				"y": -1.7851696104,
				"z": -3.411516538,
				"element": "H" 
			},
			{
				"x": 3.0558548482,
				"y": -1.2356694915,
				"z": -1.4600042369,
				"element": "H" 
			},
			{
				"x": 3.2777103668,
				"y": 0.4709872032,
				"z": 0.3330973958,
				"element": "H" 
			},
			{
				"x": 2.2024876489,
				"y": 2.0371480809,
				"z": 1.9523748642,
				"element": "H" 
			},
			{
				"x": 1.2457153874,
				"y": 3.537068313,
				"z": 3.504717196,
				"element": "H" 
			},
			{
				"x": -2.0759181334,
				"y": 2.3107132222,
				"z": 2.152788348,
				"element": "H" 
			},
			{
				"x": -2.2890011848,
				"y": 0.5999114025,
				"z": 0.3559828401,
				"element": "H" 
			},
			{
				"x": -1.2315035857,
				"y": -0.9479906005,
				"z": -1.2448631825,
				"element": "H" 
			}
		],
		 "valence_orbital": [ 
			{
				"type": "occ",
				"energy": -0.30766,
				"method": "rhf"
			},
			{
				"type": "occ",
				"energy": -0.29023,
				"method": "rhf"
			},
			{
				"type": "occ",
				"energy": -0.24822,
				"method": "rhf"
			},
			{
				"type": "occ",
				"energy": -0.24027,
				"method": "rhf"
			},
			{
				"type": "occ",
				"energy": -0.22015,
				"method": "rhf"
			},
			{
				"type": "unocc",
				"energy": -0.0612,
				"method": "rhf"
			},
			{
				"type": "unocc",
				"energy": -0.0368,
				"method": "rhf"
			},
			{
				"type": "unocc",
				"energy": 0.02118,
				"method": "rhf"
			},
			{
				"type": "unocc",
				"energy": 0.0314,
				"method": "rhf"
			},
			{
				"type": "unocc",
				"energy": 0.08771,
				"method": "rhf"
			}
		],
		"cosmo_sigma_profile": { 
			"-0.025": 0.0,
			"-0.024": 0.0,
			"-0.023": 0.0,
			"-0.022": 0.0,
			"-0.021": 0.0,
			"-0.02": 0.0,
			"-0.019": 0.0,
			"-0.018": 0.0,
			"-0.017": 0.0,
			"-0.016": 0.0,
			"-0.015": 0.0,
			"-0.014": 0.0,
			"-0.013": 0.0,
			"-0.012": 0.0,
			"-0.011": 0.0,
			"-0.01": 0.0,
			"-0.009": 0.0,
			"-0.008": 0.354382120518,
			"-0.007": 9.71910233834,
			"-0.006": 18.9631483838,
			"-0.005": 21.3854205486,
			"-0.004": 18.3165898577,
			"-0.003": 17.1060089897,
			"-0.002": 12.537584782,
			"-0.001": 11.2439785311,
			"0.0": 11.7316873081,
			"0.001": 13.3061337288,
			"0.002": 20.6685598834,
			"0.003": 29.465019864,
			"0.004": 14.0824338267,
			"0.005": 3.95017390342,
			"0.006": 2.8680864495,
			"0.007": 2.8901219104,
			"0.008": 3.07976781923,
			"0.009": 3.00062454407,
			"0.01": 3.38224849413,
			"0.011": 3.45828313169,
			"0.012": 4.20722744055,
			"0.013": 1.49952852664,
			"0.014": 0.0460432045785,
			"0.015": 0.0,
			"0.016": 0.0,
			"0.017": 0.0,
			"0.018": 0.0,
			"0.019": 0.0,
			"0.02": 0.0,
			"0.021": 0.0,
			"0.022": 0.0,
			"0.023": 0.0,
			"0.024": 0.0,
			"0.025": 0.0
		}
	}
}
