{
	 "smiles": "COC1=CC=C(C=C1)C(O)CCC(O)=O", 
	 "Tm": 366.15, 
	 "num_atms": 29, 
	 "gaussian": { 
		 "optdone": 1, 
		 "sigma_profile": "yes", 
		 "theory": "DFT", 
		 "functional": "B3LYP", 
		 "basiset": "6-31G**", 
		 "properties": { 
			 "R2extent": 4342.094, 
			 "electric_dipole_moment_norm": 2.68306589744, 
			 "electric_quadrupole_moment_norm": 12.0178547886, 
			 "total_energy": -728.504263035, 
			 "HOMO_LUMO_gap": 0.2126, 
			 "cosmo_polarized_energy": -14.85, 
			 "cosmo_cavitation_energy": 31.98, 
			 "cosmo_dispersion_energy": -22.91, 
			 "cosmo_repulsion_energy": 1.81, 
			 "cosmo_total_nonelectrostatic_energy": 10.87, 
			 "SMD_solvation_energy": 6.88 
		},
		"coords": [
			{
				"x": -1.3105726281,
				"y": -2.1407643413,
				"z": 4.1009855742,
				"element": "C" 
			},
			{
				"x": -1.5443804963,
				"y": -2.4386540769,
				"z": 2.734311185,
				"element": "O" 
			},
			{
				"x": -1.3863810829,
				"y": -1.4360320081,
				"z": 1.8207738761,
				"element": "C" 
			},
			{
				"x": -1.6375382353,
				"y": -1.7824010301,
				"z": 0.4846707634,
				"element": "C" 
			},
			{
				"x": -1.4994358277,
				"y": -0.8348868901,
				"z": -0.5211145415,
				"element": "C" 
			},
			{
				"x": -1.1052062209,
				"y": 0.4847586313,
				"z": -0.2358433657,
				"element": "C" 
			},
			{
				"x": -0.8738195766,
				"y": 0.8148040811,
				"z": 1.1012679168,
				"element": "C" 
			},
			{
				"x": -1.0052169766,
				"y": -0.1264057496,
				"z": 2.1271849812,
				"element": "C" 
			},
			{
				"x": -0.99036959,
				"y": 1.5495410969,
				"z": -1.3294223754,
				"element": "C" 
			},
			{
				"x": -0.3841346386,
				"y": 2.746694678,
				"z": -0.8579906438,
				"element": "O" 
			},
			{
				"x": -0.3140345085,
				"y": 1.0512985506,
				"z": -2.6259762292,
				"element": "C" 
			},
			{
				"x": 1.1449587537,
				"y": 0.5527199763,
				"z": -2.4783351515,
				"element": "C" 
			},
			{
				"x": 2.1510837238,
				"y": 1.6767576363,
				"z": -2.3712422823,
				"element": "C" 
			},
			{
				"x": 2.434130876,
				"y": 2.0052512887,
				"z": -1.0722122917,
				"element": "O" 
			},
			{
				"x": 2.6664226264,
				"y": 2.2574993087,
				"z": -3.29704307,
				"element": "O" 
			},
			{
				"x": -1.4902492072,
				"y": -3.0679881015,
				"z": 4.6474687443,
				"element": "H" 
			},
			{
				"x": -1.9952574913,
				"y": -1.3663526231,
				"z": 4.4706552105,
				"element": "H" 
			},
			{
				"x": -0.2765811569,
				"y": -1.8150391057,
				"z": 4.2744128858,
				"element": "H" 
			},
			{
				"x": -1.9401937233,
				"y": -2.8004374971,
				"z": 0.2614856997,
				"element": "H" 
			},
			{
				"x": -1.7110653928,
				"y": -1.1346208653,
				"z": -1.5437164216,
				"element": "H" 
			},
			{
				"x": -0.5987682195,
				"y": 1.834270061,
				"z": 1.3489301411,
				"element": "H" 
			},
			{
				"x": -0.8132642067,
				"y": 0.1754319522,
				"z": 3.1502068017,
				"element": "H" 
			},
			{
				"x": -2.0069504323,
				"y": 1.856887873,
				"z": -1.6106100609,
				"element": "H" 
			},
			{
				"x": 0.5192336021,
				"y": 2.5324185702,
				"z": -0.5780462506,
				"element": "H" 
			},
			{
				"x": -0.9054988935,
				"y": 0.2320867616,
				"z": -3.0478468294,
				"element": "H" 
			},
			{
				"x": -0.3455885008,
				"y": 1.8660667517,
				"z": -3.3569098608,
				"element": "H" 
			},
			{
				"x": 1.4174433287,
				"y": -0.0069563868,
				"z": -3.3765195016,
				"element": "H" 
			},
			{
				"x": 1.2319607069,
				"y": -0.1103640992,
				"z": -1.6130051522,
				"element": "H" 
			},
			{
				"x": 3.0614733881,
				"y": 2.7477155573,
				"z": -1.1158197516,
				"element": "H" 
			}
		],
		 "valence_orbital": [ 
			{
				"type": "occ",
				"energy": -0.30855,
				"method": "rhf"
			},
			{
				"type": "occ",
				"energy": -0.2806,
				"method": "rhf"
			},
			{
				"type": "occ",
				"energy": -0.26853,
				"method": "rhf"
			},
			{
				"type": "occ",
				"energy": -0.25073,
				"method": "rhf"
			},
			{
				"type": "occ",
				"energy": -0.21564,
				"method": "rhf"
			},
			{
				"type": "unocc",
				"energy": -0.00304,
				"method": "rhf"
			},
			{
				"type": "unocc",
				"energy": -0.00123,
				"method": "rhf"
			},
			{
				"type": "unocc",
				"energy": 0.01022,
				"method": "rhf"
			},
			{
				"type": "unocc",
				"energy": 0.06347,
				"method": "rhf"
			},
			{
				"type": "unocc",
				"energy": 0.08801,
				"method": "rhf"
			}
		],
		"cosmo_sigma_profile": { 
			"-0.025": 0.0,
			"-0.024": 0.0,
			"-0.023": 0.0,
			"-0.022": 0.0,
			"-0.021": 0.0,
			"-0.02": 0.0,
			"-0.019": 0.0967289613675,
			"-0.018": 0.795250645809,
			"-0.017": 1.03591945468,
			"-0.016": 1.05322034712,
			"-0.015": 0.496546327396,
			"-0.014": 0.32361836279,
			"-0.013": 1.0423663857,
			"-0.012": 1.08154212282,
			"-0.011": 0.856995885025,
			"-0.01": 0.59107516335,
			"-0.009": 0.870735414936,
			"-0.008": 1.16147392033,
			"-0.007": 2.97681131539,
			"-0.006": 10.8779861241,
			"-0.005": 24.0489905865,
			"-0.004": 28.6752286101,
			"-0.003": 26.8224234866,
			"-0.002": 19.4989720438,
			"-0.001": 16.7965848997,
			"0.0": 10.9509920133,
			"0.001": 9.64454923479,
			"0.002": 10.5667119861,
			"0.003": 12.0220992821,
			"0.004": 14.2046321321,
			"0.005": 13.1364053571,
			"0.006": 10.1764002621,
			"0.007": 4.40907007108,
			"0.008": 3.85904609572,
			"0.009": 3.89410868383,
			"0.01": 5.55943780307,
			"0.011": 5.61701486132,
			"0.012": 4.77794290793,
			"0.013": 1.96232791637,
			"0.014": 1.75201723206,
			"0.015": 0.318675980556,
			"0.016": 0.0,
			"0.017": 0.0,
			"0.018": 0.0,
			"0.019": 0.0,
			"0.02": 0.0,
			"0.021": 0.0,
			"0.022": 0.0,
			"0.023": 0.0,
			"0.024": 0.0,
			"0.025": 0.0
		}
	}
}
