{
	 "smiles": "N1N=NC(=N1)C1=CC=CS1", 
	 "Tm": 475.15, 
	 "num_atms": 14, 
	 "gaussian": { 
		 "optdone": 1, 
		 "sigma_profile": "yes", 
		 "theory": "DFT", 
		 "functional": "B3LYP", 
		 "basiset": "6-31G**", 
		 "properties": { 
			 "R2extent": 2790.7973, 
			 "electric_dipole_moment_norm": 1.50538556191, 
			 "electric_quadrupole_moment_norm": 15.2427376993, 
			 "total_energy": -810.068330755, 
			 "HOMO_LUMO_gap": 0.18286, 
			 "cosmo_polarized_energy": -11.94, 
			 "cosmo_cavitation_energy": 20.78, 
			 "cosmo_dispersion_energy": -16.36, 
			 "cosmo_repulsion_energy": 1.27, 
			 "cosmo_total_nonelectrostatic_energy": 5.7, 
			 "SMD_solvation_energy": 1.25 
		},
		"coords": [
			{
				"x": -0.0355993133,
				"y": 4.2592748993,
				"z": 0.8903105796,
				"element": "N" 
			},
			{
				"x": 0.6011290687,
				"y": 4.3620781896,
				"z": -0.2714933226,
				"element": "N" 
			},
			{
				"x": 0.2766830403,
				"y": 3.2919812361,
				"z": -0.9463866389,
				"element": "N" 
			},
			{
				"x": -0.5642970251,
				"y": 2.5659518046,
				"z": -0.1470405461,
				"element": "C" 
			},
			{
				"x": -0.7769280136,
				"y": 3.16414569,
				"z": 1.0281179585,
				"element": "N" 
			},
			{
				"x": -1.1456375267,
				"y": 1.2999672878,
				"z": -0.5457108147,
				"element": "C" 
			},
			{
				"x": -0.9593253345,
				"y": 0.643566199,
				"z": -1.7400265885,
				"element": "C" 
			},
			{
				"x": -1.6769754613,
				"y": -0.5832874169,
				"z": -1.813841279,
				"element": "C" 
			},
			{
				"x": -2.3972064184,
				"y": -0.8425960045,
				"z": -0.6781205492,
				"element": "C" 
			},
			{
				"x": -2.214200623,
				"y": 0.4074701429,
				"z": 0.5072001557,
				"element": "S" 
			},
			{
				"x": 0.0402336487,
				"y": 4.9626224145,
				"z": 1.6123702483,
				"element": "H" 
			},
			{
				"x": -0.3277460339,
				"y": 1.0397543692,
				"z": -2.5258362505,
				"element": "H" 
			},
			{
				"x": -1.6581131636,
				"y": -1.2431605859,
				"z": -2.6733444046,
				"element": "H" 
			},
			{
				"x": -3.0268168442,
				"y": -1.6953682259,
				"z": -0.4645985481,
				"element": "H" 
			}
		],
		 "valence_orbital": [ 
			{
				"type": "occ",
				"energy": -0.3242,
				"method": "rhf"
			},
			{
				"type": "occ",
				"energy": -0.32082,
				"method": "rhf"
			},
			{
				"type": "occ",
				"energy": -0.29671,
				"method": "rhf"
			},
			{
				"type": "occ",
				"energy": -0.25861,
				"method": "rhf"
			},
			{
				"type": "occ",
				"energy": -0.23032,
				"method": "rhf"
			},
			{
				"type": "unocc",
				"energy": -0.04746,
				"method": "rhf"
			},
			{
				"type": "unocc",
				"energy": -0.02626,
				"method": "rhf"
			},
			{
				"type": "unocc",
				"energy": 0.02657,
				"method": "rhf"
			},
			{
				"type": "unocc",
				"energy": 0.03854,
				"method": "rhf"
			},
			{
				"type": "unocc",
				"energy": 0.06277,
				"method": "rhf"
			}
		],
		"cosmo_sigma_profile": { 
			"-0.025": 0.0,
			"-0.024": 0.0,
			"-0.023": 0.0,
			"-0.022": 0.0,
			"-0.021": 0.0,
			"-0.02": 0.484535738711,
			"-0.019": 2.21168042687,
			"-0.018": 1.47590671536,
			"-0.017": 1.15548896674,
			"-0.016": 0.546080900685,
			"-0.015": 1.50195326586,
			"-0.014": 0.634629784322,
			"-0.013": 0.413123278426,
			"-0.012": 0.730609723522,
			"-0.011": 0.63542899549,
			"-0.01": 1.28928196608,
			"-0.009": 2.0538618019,
			"-0.008": 3.15737237426,
			"-0.007": 5.27775517617,
			"-0.006": 6.41121097652,
			"-0.005": 6.7343583099,
			"-0.004": 8.02325020252,
			"-0.003": 7.87657960397,
			"-0.002": 8.38372700829,
			"-0.001": 7.72925756492,
			"0.0": 11.06316015,
			"0.001": 12.4957028288,
			"0.002": 17.1371815373,
			"0.003": 20.010112996,
			"0.004": 13.2875638637,
			"0.005": 4.68508383665,
			"0.006": 3.73779855126,
			"0.007": 3.91210089973,
			"0.008": 3.98432994011,
			"0.009": 4.75385283274,
			"0.01": 3.14962944986,
			"0.011": 3.05019433017,
			"0.012": 1.35499915278,
			"0.013": 0.934654652008,
			"0.014": 0.107390653299,
			"0.015": 0.0,
			"0.016": 0.0,
			"0.017": 0.0,
			"0.018": 0.0,
			"0.019": 0.0,
			"0.02": 0.0,
			"0.021": 0.0,
			"0.022": 0.0,
			"0.023": 0.0,
			"0.024": 0.0,
			"0.025": 0.0
		}
	}
}
