{
	 "smiles": "FC(F)(F)C1=CC(Cl)=C(Cl)C(Cl)=C1", 
	 "Tm": 264.15, 
	 "num_atms": 15, 
	 "gaussian": { 
		 "optdone": 1, 
		 "sigma_profile": "yes", 
		 "theory": "DFT", 
		 "functional": "B3LYP", 
		 "basiset": "6-31G**", 
		 "properties": { 
			 "R2extent": 4164.3525, 
			 "electric_dipole_moment_norm": 0.223752921769, 
			 "electric_quadrupole_moment_norm": 4.42470182611, 
			 "total_energy": -1948.04429939, 
			 "HOMO_LUMO_gap": 0.21574, 
			 "cosmo_polarized_energy": -3.67, 
			 "cosmo_cavitation_energy": 26.56, 
			 "cosmo_dispersion_energy": -19.4, 
			 "cosmo_repulsion_energy": 1.48, 
			 "cosmo_total_nonelectrostatic_energy": 8.64, 
			 "SMD_solvation_energy": 4.96 
		},
		"coords": [
			{
				"x": 1.2638582584,
				"y": 1.0797099753,
				"z": 2.0880247374,
				"element": "F" 
			},
			{
				"x": 1.7558885964,
				"y": 1.1498223797,
				"z": 0.8321628859,
				"element": "C" 
			},
			{
				"x": 2.9595253667,
				"y": 0.5403224646,
				"z": 0.8414688397,
				"element": "F" 
			},
			{
				"x": 1.9550751844,
				"y": 2.4550812547,
				"z": 0.5548285076,
				"element": "F" 
			},
			{
				"x": 0.8180999869,
				"y": 0.5093281706,
				"z": -0.1602880969,
				"element": "C" 
			},
			{
				"x": 0.9292125738,
				"y": -0.8516430761,
				"z": -0.4355138799,
				"element": "C" 
			},
			{
				"x": 0.0279200855,
				"y": -1.4544042583,
				"z": -1.3104122411,
				"element": "C" 
			},
			{
				"x": 0.2027599882,
				"y": -3.1575052827,
				"z": -1.6329634593,
				"element": "Cl" 
			},
			{
				"x": -0.9945845982,
				"y": -0.7048411568,
				"z": -1.919608489,
				"element": "C" 
			},
			{
				"x": -2.1146125436,
				"y": -1.4553690366,
				"z": -3.0090660225,
				"element": "Cl" 
			},
			{
				"x": -1.0859393031,
				"y": 0.6680522989,
				"z": -1.6275325847,
				"element": "C" 
			},
			{
				"x": -2.3237573712,
				"y": 1.6568338184,
				"z": -2.3522958665,
				"element": "Cl" 
			},
			{
				"x": -0.1854304632,
				"y": 1.2723001803,
				"z": -0.7528656677,
				"element": "C" 
			},
			{
				"x": 1.7143313264,
				"y": -1.4451300091,
				"z": 0.0160508629,
				"element": "H" 
			},
			{
				"x": -0.2681470874,
				"y": 2.3324422772,
				"z": -0.548389526,
				"element": "H" 
			}
		],
		 "valence_orbital": [ 
			{
				"type": "occ",
				"energy": -0.3446,
				"method": "rhf"
			},
			{
				"type": "occ",
				"energy": -0.34035,
				"method": "rhf"
			},
			{
				"type": "occ",
				"energy": -0.3195,
				"method": "rhf"
			},
			{
				"type": "occ",
				"energy": -0.27525,
				"method": "rhf"
			},
			{
				"type": "occ",
				"energy": -0.27471,
				"method": "rhf"
			},
			{
				"type": "unocc",
				"energy": -0.05897,
				"method": "rhf"
			},
			{
				"type": "unocc",
				"energy": -0.04991,
				"method": "rhf"
			},
			{
				"type": "unocc",
				"energy": -0.03006,
				"method": "rhf"
			},
			{
				"type": "unocc",
				"energy": 0.03204,
				"method": "rhf"
			},
			{
				"type": "unocc",
				"energy": 0.04963,
				"method": "rhf"
			}
		],
		"cosmo_sigma_profile": { 
			"-0.025": 0.0,
			"-0.024": 0.0,
			"-0.023": 0.0,
			"-0.022": 0.0,
			"-0.021": 0.0,
			"-0.02": 0.0,
			"-0.019": 0.0,
			"-0.018": 0.0,
			"-0.017": 0.0,
			"-0.016": 0.0,
			"-0.015": 0.0,
			"-0.014": 0.0,
			"-0.013": 0.0,
			"-0.012": 0.0,
			"-0.011": 0.0,
			"-0.01": 0.0943189196171,
			"-0.009": 1.99172875173,
			"-0.008": 3.00530524372,
			"-0.007": 3.26985393357,
			"-0.006": 3.59539767563,
			"-0.005": 4.4083692048,
			"-0.004": 7.91026713134,
			"-0.003": 11.9460955674,
			"-0.002": 26.280381358,
			"-0.001": 28.5422830108,
			"0.0": 19.6350554358,
			"0.001": 22.2144473443,
			"0.002": 41.1245072022,
			"0.003": 36.8800995097,
			"0.004": 9.92637520178,
			"0.005": 0.419581456677,
			"0.006": 0.0,
			"0.007": 0.0,
			"0.008": 0.0,
			"0.009": 0.0,
			"0.01": 0.0,
			"0.011": 0.0,
			"0.012": 0.0,
			"0.013": 0.0,
			"0.014": 0.0,
			"0.015": 0.0,
			"0.016": 0.0,
			"0.017": 0.0,
			"0.018": 0.0,
			"0.019": 0.0,
			"0.02": 0.0,
			"0.021": 0.0,
			"0.022": 0.0,
			"0.023": 0.0,
			"0.024": 0.0,
			"0.025": 0.0
		}
	}
}
