{
	 "smiles": "O=C(CN1C=NN=N1)N1CCNCC1", 
	 "Tm": 417.15, 
	 "num_atms": 26, 
	 "gaussian": { 
		 "optdone": 1, 
		 "sigma_profile": "yes", 
		 "theory": "DFT", 
		 "functional": "B3LYP", 
		 "basiset": "6-31G**", 
		 "properties": { 
			 "R2extent": 3228.8498, 
			 "electric_dipole_moment_norm": 4.4940926893, 
			 "electric_quadrupole_moment_norm": 17.8806439123, 
			 "total_energy": -677.639945958, 
			 "HOMO_LUMO_gap": 0.20942, 
			 "cosmo_polarized_energy": -21.1, 
			 "cosmo_cavitation_energy": 28.98, 
			 "cosmo_dispersion_energy": -20.71, 
			 "cosmo_repulsion_energy": 1.62, 
			 "cosmo_total_nonelectrostatic_energy": 9.89, 
			 "SMD_solvation_energy": 0.69 
		},
		"coords": [
			{
				"x": 1.5721787353,
				"y": -2.0847721051,
				"z": 0.6151413573,
				"element": "O" 
			},
			{
				"x": 0.8122824719,
				"y": -1.1494966966,
				"z": 0.3740594684,
				"element": "C" 
			},
			{
				"x": 0.2132445509,
				"y": -0.3673182655,
				"z": 1.5595417758,
				"element": "C" 
			},
			{
				"x": 0.9804331032,
				"y": 0.8386764092,
				"z": 1.8496306381,
				"element": "N" 
			},
			{
				"x": 2.252762303,
				"y": 0.9880794571,
				"z": 2.2716643068,
				"element": "C" 
			},
			{
				"x": 2.5236040994,
				"y": 2.2748357545,
				"z": 2.3621810763,
				"element": "N" 
			},
			{
				"x": 1.3861654323,
				"y": 2.9181954649,
				"z": 1.979867531,
				"element": "N" 
			},
			{
				"x": 0.4555267775,
				"y": 2.0755285777,
				"z": 1.6693317699,
				"element": "N" 
			},
			{
				"x": 0.4818391252,
				"y": -0.772872835,
				"z": -0.8905434373,
				"element": "N" 
			},
			{
				"x": 1.0455987836,
				"y": -1.5566385798,
				"z": -2.0034551349,
				"element": "C" 
			},
			{
				"x": 0.1792214678,
				"y": -1.361182632,
				"z": -3.2673464946,
				"element": "C" 
			},
			{
				"x": -1.2447503012,
				"y": -1.2374100685,
				"z": -2.9641751852,
				"element": "N" 
			},
			{
				"x": -1.5226472309,
				"y": -0.0522827129,
				"z": -2.1388154627,
				"element": "C" 
			},
			{
				"x": -0.3059955323,
				"y": 0.3943780003,
				"z": -1.2892541236,
				"element": "C" 
			},
			{
				"x": 0.2655263797,
				"y": -1.0391485091,
				"z": 2.4175290847,
				"element": "H" 
			},
			{
				"x": -0.8206252259,
				"y": -0.0527502241,
				"z": 1.4157956049,
				"element": "H" 
			},
			{
				"x": 2.9180212568,
				"y": 0.1657330027,
				"z": 2.4871427548,
				"element": "H" 
			},
			{
				"x": 1.0547588295,
				"y": -2.6039084567,
				"z": -1.6903877357,
				"element": "H" 
			},
			{
				"x": 2.0912435658,
				"y": -1.2691412363,
				"z": -2.1840379151,
				"element": "H" 
			},
			{
				"x": 0.3376198532,
				"y": -2.2057778617,
				"z": -3.945052731,
				"element": "H" 
			},
			{
				"x": 0.4889774934,
				"y": -0.4632261623,
				"z": -3.8149566755,
				"element": "H" 
			},
			{
				"x": -1.5484411307,
				"y": -2.0712243833,
				"z": -2.4691290964,
				"element": "H" 
			},
			{
				"x": -2.3760193794,
				"y": -0.2762779633,
				"z": -1.4904265246,
				"element": "H" 
			},
			{
				"x": -1.8213070731,
				"y": 0.7877651375,
				"z": -2.7803170543,
				"element": "H" 
			},
			{
				"x": -0.6164953097,
				"y": 0.9742878194,
				"z": -0.4211116605,
				"element": "H" 
			},
			{
				"x": 0.3406769545,
				"y": 1.0588490688,
				"z": -1.8769761368,
				"element": "H" 
			}
		],
		 "valence_orbital": [ 
			{
				"type": "occ",
				"energy": -0.30378,
				"method": "rhf"
			},
			{
				"type": "occ",
				"energy": -0.28729,
				"method": "rhf"
			},
			{
				"type": "occ",
				"energy": -0.26905,
				"method": "rhf"
			},
			{
				"type": "occ",
				"energy": -0.26278,
				"method": "rhf"
			},
			{
				"type": "occ",
				"energy": -0.23569,
				"method": "rhf"
			},
			{
				"type": "unocc",
				"energy": -0.02627,
				"method": "rhf"
			},
			{
				"type": "unocc",
				"energy": -0.00214,
				"method": "rhf"
			},
			{
				"type": "unocc",
				"energy": 0.01487,
				"method": "rhf"
			},
			{
				"type": "unocc",
				"energy": 0.05628,
				"method": "rhf"
			},
			{
				"type": "unocc",
				"energy": 0.08782,
				"method": "rhf"
			}
		],
		"cosmo_sigma_profile": { 
			"-0.025": 0.0,
			"-0.024": 0.0,
			"-0.023": 0.0,
			"-0.022": 0.0,
			"-0.021": 0.0,
			"-0.02": 0.0,
			"-0.019": 0.0,
			"-0.018": 0.0,
			"-0.017": 0.0,
			"-0.016": 0.0,
			"-0.015": 0.0,
			"-0.014": 0.0,
			"-0.013": 0.124374911708,
			"-0.012": 1.38224977608,
			"-0.011": 1.48201634926,
			"-0.01": 4.63304434939,
			"-0.009": 7.24183090072,
			"-0.008": 7.72521627406,
			"-0.007": 7.836988628,
			"-0.006": 10.9302154891,
			"-0.005": 21.4495620466,
			"-0.004": 27.9164719188,
			"-0.003": 21.9842655877,
			"-0.002": 16.450692291,
			"-0.001": 10.6509863277,
			"0.0": 6.5949324045,
			"0.001": 6.42532053879,
			"0.002": 4.80003260109,
			"0.003": 5.08732970343,
			"0.004": 4.64502598748,
			"0.005": 4.91773237067,
			"0.006": 4.45246608884,
			"0.007": 6.26740385455,
			"0.008": 7.00983272697,
			"0.009": 5.93143721113,
			"0.01": 6.60892487574,
			"0.011": 5.87526394859,
			"0.012": 5.41835024581,
			"0.013": 7.53709322369,
			"0.014": 4.95925605548,
			"0.015": 1.022600431,
			"0.016": 0.0724282868601,
			"0.017": 1.02679526736,
			"0.018": 0.225118648878,
			"0.019": 0.0,
			"0.02": 0.0,
			"0.021": 0.0,
			"0.022": 0.0,
			"0.023": 0.0,
			"0.024": 0.0,
			"0.025": 0.0
		}
	}
}
