{
	 "smiles": "CC1(C)C2CCC1(C)C(O)C2CCO", 
	 "Tm": 356.15, 
	 "num_atms": 36, 
	 "gaussian": { 
		 "optdone": 1, 
		 "sigma_profile": "yes", 
		 "theory": "DFT", 
		 "functional": "B3LYP", 
		 "basiset": "6-31G**", 
		 "properties": { 
			 "R2extent": 3332.9753, 
			 "electric_dipole_moment_norm": 2.45306639331, 
			 "electric_quadrupole_moment_norm": 12.0016539685, 
			 "total_energy": -620.971771644, 
			 "HOMO_LUMO_gap": 0.30523, 
			 "cosmo_polarized_energy": -10.7, 
			 "cosmo_cavitation_energy": 32.63, 
			 "cosmo_dispersion_energy": -23.42, 
			 "cosmo_repulsion_energy": 1.81, 
			 "cosmo_total_nonelectrostatic_energy": 11.01, 
			 "SMD_solvation_energy": 4.99 
		},
		"coords": [
			{
				"x": 1.220574875,
				"y": 1.4541885347,
				"z": 1.0553048404,
				"element": "C" 
			},
			{
				"x": -0.0512490935,
				"y": 0.7384544852,
				"z": 1.5540998209,
				"element": "C" 
			},
			{
				"x": -0.1433837594,
				"y": 1.0355462524,
				"z": 3.0637133719,
				"element": "C" 
			},
			{
				"x": -1.3506846056,
				"y": 1.0915680316,
				"z": 0.7578294646,
				"element": "C" 
			},
			{
				"x": -2.396924098,
				"y": 0.1506880546,
				"z": 1.3985480611,
				"element": "C" 
			},
			{
				"x": -1.5714993323,
				"y": -1.1426467511,
				"z": 1.6732070515,
				"element": "C" 
			},
			{
				"x": -0.1375250135,
				"y": -0.7899623193,
				"z": 1.1875587579,
				"element": "C" 
			},
			{
				"x": 0.9436914913,
				"y": -1.7233799976,
				"z": 1.7155862904,
				"element": "C" 
			},
			{
				"x": -0.1816063117,
				"y": -0.7250845341,
				"z": -0.3727340355,
				"element": "C" 
			},
			{
				"x": -0.6265419359,
				"y": -1.9180305041,
				"z": -1.0061922138,
				"element": "O" 
			},
			{
				"x": -1.0188019044,
				"y": 0.5804430895,
				"z": -0.6714819725,
				"element": "C" 
			},
			{
				"x": -2.2068399013,
				"y": 0.4105499927,
				"z": -1.6297259264,
				"element": "C" 
			},
			{
				"x": -1.7780176924,
				"y": 0.2813724526,
				"z": -3.0950932094,
				"element": "C" 
			},
			{
				"x": -2.8871338115,
				"y": 0.216202197,
				"z": -3.9857692079,
				"element": "O" 
			},
			{
				"x": 1.4342241672,
				"y": 1.3143471246,
				"z": -0.0055482258,
				"element": "H" 
			},
			{
				"x": 2.0976318689,
				"y": 1.1056598068,
				"z": 1.611573094,
				"element": "H" 
			},
			{
				"x": 1.1361650636,
				"y": 2.5327764272,
				"z": 1.2305799736,
				"element": "H" 
			},
			{
				"x": -0.9967472114,
				"y": 0.5696206714,
				"z": 3.5591280784,
				"element": "H" 
			},
			{
				"x": 0.7609510533,
				"y": 0.6923288589,
				"z": 3.5781477687,
				"element": "H" 
			},
			{
				"x": -0.2187056476,
				"y": 2.1164816916,
				"z": 3.2293043845,
				"element": "H" 
			},
			{
				"x": -1.6382947012,
				"y": 2.1483083517,
				"z": 0.7802752204,
				"element": "H" 
			},
			{
				"x": -2.7950669654,
				"y": 0.575496887,
				"z": 2.3241686348,
				"element": "H" 
			},
			{
				"x": -3.2563011577,
				"y": -0.0225464432,
				"z": 0.7458999657,
				"element": "H" 
			},
			{
				"x": -1.5610952852,
				"y": -1.4025313673,
				"z": 2.7358601468,
				"element": "H" 
			},
			{
				"x": -1.9753622427,
				"y": -2.0279421397,
				"z": 1.1674173214,
				"element": "H" 
			},
			{
				"x": 0.9296530053,
				"y": -1.7837351716,
				"z": 2.8093446536,
				"element": "H" 
			},
			{
				"x": 0.7967072084,
				"y": -2.7341333191,
				"z": 1.3201955169,
				"element": "H" 
			},
			{
				"x": 1.9428937993,
				"y": -1.3952027083,
				"z": 1.4077865325,
				"element": "H" 
			},
			{
				"x": 0.8367814824,
				"y": -0.611487967,
				"z": -0.7543042737,
				"element": "H" 
			},
			{
				"x": -1.5095973803,
				"y": -2.1297853145,
				"z": -0.6787426044,
				"element": "H" 
			},
			{
				"x": -0.3518258427,
				"y": 1.3132585791,
				"z": -1.1408105962,
				"element": "H" 
			},
			{
				"x": -2.8110614933,
				"y": -0.468889274,
				"z": -1.367622203,
				"element": "H" 
			},
			{
				"x": -2.8759334876,
				"y": 1.2758885877,
				"z": -1.543075842,
				"element": "H" 
			},
			{
				"x": -1.1151334898,
				"y": -0.5870592733,
				"z": -3.2116942808,
				"element": "H" 
			},
			{
				"x": -1.2136976974,
				"y": 1.1723004999,
				"z": -3.3938622189,
				"element": "H" 
			},
			{
				"x": -3.330543953,
				"y": -0.628563492,
				"z": -3.8367721397,
				"element": "H" 
			}
		],
		 "valence_orbital": [ 
			{
				"type": "occ",
				"energy": -0.30878,
				"method": "rhf"
			},
			{
				"type": "occ",
				"energy": -0.28793,
				"method": "rhf"
			},
			{
				"type": "occ",
				"energy": -0.28636,
				"method": "rhf"
			},
			{
				"type": "occ",
				"energy": -0.25672,
				"method": "rhf"
			},
			{
				"type": "occ",
				"energy": -0.25347,
				"method": "rhf"
			},
			{
				"type": "unocc",
				"energy": 0.05176,
				"method": "rhf"
			},
			{
				"type": "unocc",
				"energy": 0.06907,
				"method": "rhf"
			},
			{
				"type": "unocc",
				"energy": 0.0886,
				"method": "rhf"
			},
			{
				"type": "unocc",
				"energy": 0.09705,
				"method": "rhf"
			},
			{
				"type": "unocc",
				"energy": 0.11226,
				"method": "rhf"
			}
		],
		"cosmo_sigma_profile": { 
			"-0.025": 0.0,
			"-0.024": 0.0,
			"-0.023": 0.0,
			"-0.022": 0.0,
			"-0.021": 0.0,
			"-0.02": 0.0,
			"-0.019": 0.0,
			"-0.018": 0.0,
			"-0.017": 0.0,
			"-0.016": 0.0156473660544,
			"-0.015": 0.622934864894,
			"-0.014": 0.925920797295,
			"-0.013": 2.10118765636,
			"-0.012": 1.55205980395,
			"-0.011": 2.36139067414,
			"-0.01": 2.34642970084,
			"-0.009": 1.53240821363,
			"-0.008": 1.64811823618,
			"-0.007": 2.58998275667,
			"-0.006": 2.21579369992,
			"-0.005": 2.98234567993,
			"-0.004": 5.93725232114,
			"-0.003": 18.7030808282,
			"-0.002": 35.7036880384,
			"-0.001": 40.9724472254,
			"0.0": 39.0330048539,
			"0.001": 33.0775338089,
			"0.002": 18.8412714974,
			"0.003": 4.0826299345,
			"0.004": 3.16299441947,
			"0.005": 2.78420023514,
			"0.006": 3.53487582992,
			"0.007": 2.10887884385,
			"0.008": 2.01144071985,
			"0.009": 3.00612139333,
			"0.01": 2.73247812422,
			"0.011": 1.83205642871,
			"0.012": 2.02326777695,
			"0.013": 3.09656096687,
			"0.014": 3.42480309473,
			"0.015": 2.4004784438,
			"0.016": 0.0449240194857,
			"0.017": 0.0,
			"0.018": 0.0,
			"0.019": 0.0,
			"0.02": 0.0,
			"0.021": 0.0,
			"0.022": 0.0,
			"0.023": 0.0,
			"0.024": 0.0,
			"0.025": 0.0
		}
	}
}
