{
	 "smiles": "CCN(C1=CC=CC=C1)S(=O)(=O)C1=CC(C(O)=O)=C(Cl)C=C1", 
	 "Tm": 402.15, 
	 "num_atms": 36, 
	 "gaussian": { 
		 "optdone": 1, 
		 "sigma_profile": "yes", 
		 "theory": "DFT", 
		 "functional": "B3LYP", 
		 "basiset": "6-31G**", 
		 "properties": { 
			 "R2extent": 8569.2436, 
			 "electric_dipole_moment_norm": 5.97313199754, 
			 "electric_quadrupole_moment_norm": 17.5817516078, 
			 "total_energy": -1793.99306917, 
			 "HOMO_LUMO_gap": 0.16686, 
			 "cosmo_polarized_energy": -19.56, 
			 "cosmo_cavitation_energy": 42.77, 
			 "cosmo_dispersion_energy": -29.32, 
			 "cosmo_repulsion_energy": 2.22, 
			 "cosmo_total_nonelectrostatic_energy": 15.67, 
			 "SMD_solvation_energy": 7.04 
		},
		"coords": [
			{
				"x": 2.1714816289,
				"y": 1.4125523003,
				"z": -2.8340587288,
				"element": "C" 
			},
			{
				"x": 1.4875632164,
				"y": 0.2482562075,
				"z": -2.1201626343,
				"element": "C" 
			},
			{
				"x": 1.8163370681,
				"y": 0.2396170672,
				"z": -0.6755593634,
				"element": "N" 
			},
			{
				"x": 1.4185585086,
				"y": 1.3612471157,
				"z": 0.1343741002,
				"element": "C" 
			},
			{
				"x": 0.13824182,
				"y": 1.920833602,
				"z": 0.020206514,
				"element": "C" 
			},
			{
				"x": -0.2112744961,
				"y": 3.0292907261,
				"z": 0.7925036918,
				"element": "C" 
			},
			{
				"x": 0.7038847901,
				"y": 3.5738155617,
				"z": 1.694894198,
				"element": "C" 
			},
			{
				"x": 1.9761693067,
				"y": 3.0101253798,
				"z": 1.8155001497,
				"element": "C" 
			},
			{
				"x": 2.3394417194,
				"y": 1.9150287946,
				"z": 1.0329589662,
				"element": "C" 
			},
			{
				"x": 1.9113636872,
				"y": -1.2706878736,
				"z": 0.0911224048,
				"element": "S" 
			},
			{
				"x": 2.5480684054,
				"y": -1.0563261415,
				"z": 1.3898540068,
				"element": "O" 
			},
			{
				"x": 2.4508434538,
				"y": -2.207580137,
				"z": -0.8943694024,
				"element": "O" 
			},
			{
				"x": 0.2121315705,
				"y": -1.7669793932,
				"z": 0.4323455572,
				"element": "C" 
			},
			{
				"x": -0.5126111812,
				"y": -2.4506680722,
				"z": -0.5359976405,
				"element": "C" 
			},
			{
				"x": -1.8472082868,
				"y": -2.8314369112,
				"z": -0.31515666,
				"element": "C" 
			},
			{
				"x": -2.4858014938,
				"y": -3.5572690989,
				"z": -1.4875523895,
				"element": "C" 
			},
			{
				"x": -3.6251688952,
				"y": -4.2432138203,
				"z": -1.2994558233,
				"element": "O" 
			},
			{
				"x": -1.9615350097,
				"y": -3.5384609053,
				"z": -2.5772888751,
				"element": "O" 
			},
			{
				"x": -2.4120767775,
				"y": -2.4847115744,
				"z": 0.9252605666,
				"element": "C" 
			},
			{
				"x": -4.0846568531,
				"y": -2.8724955689,
				"z": 1.3504815841,
				"element": "Cl" 
			},
			{
				"x": -1.6872417254,
				"y": -1.7965151769,
				"z": 1.9006805977,
				"element": "C" 
			},
			{
				"x": -0.3665749374,
				"y": -1.4344433864,
				"z": 1.6594424038,
				"element": "C" 
			},
			{
				"x": 1.9369083424,
				"y": 1.3720064902,
				"z": -3.9023196294,
				"element": "H" 
			},
			{
				"x": 1.8341782798,
				"y": 2.3789540655,
				"z": -2.4497100699,
				"element": "H" 
			},
			{
				"x": 3.2564562891,
				"y": 1.3519687345,
				"z": -2.7134404023,
				"element": "H" 
			},
			{
				"x": 0.4006061891,
				"y": 0.2835644279,
				"z": -2.2795067435,
				"element": "H" 
			},
			{
				"x": 1.8491212803,
				"y": -0.6964687186,
				"z": -2.5265185437,
				"element": "H" 
			},
			{
				"x": -0.5817355979,
				"y": 1.4964881379,
				"z": -0.6722125728,
				"element": "H" 
			},
			{
				"x": -1.2024745923,
				"y": 3.4618295137,
				"z": 0.6917662093,
				"element": "H" 
			},
			{
				"x": 0.4289285045,
				"y": 4.4347380284,
				"z": 2.2970237457,
				"element": "H" 
			},
			{
				"x": 2.6948318079,
				"y": 3.4312317661,
				"z": 2.5123012178,
				"element": "H" 
			},
			{
				"x": 3.3253939687,
				"y": 1.4732076861,
				"z": 1.111540807,
				"element": "H" 
			},
			{
				"x": -0.0627824168,
				"y": -2.7222720256,
				"z": -1.4838079817,
				"element": "H" 
			},
			{
				"x": -3.9472906002,
				"y": -4.1675540173,
				"z": -0.3869032003,
				"element": "H" 
			},
			{
				"x": -2.1619123142,
				"y": -1.5516502808,
				"z": 2.8439661231,
				"element": "H" 
			},
			{
				"x": 0.2157353404,
				"y": -0.9186225033,
				"z": 2.4142978169,
				"element": "H" 
			}
		],
		 "valence_orbital": [ 
			{
				"type": "occ",
				"energy": -0.29758,
				"method": "rhf"
			},
			{
				"type": "occ",
				"energy": -0.28632,
				"method": "rhf"
			},
			{
				"type": "occ",
				"energy": -0.2796,
				"method": "rhf"
			},
			{
				"type": "occ",
				"energy": -0.26459,
				"method": "rhf"
			},
			{
				"type": "occ",
				"energy": -0.24477,
				"method": "rhf"
			},
			{
				"type": "unocc",
				"energy": -0.07791,
				"method": "rhf"
			},
			{
				"type": "unocc",
				"energy": -0.05778,
				"method": "rhf"
			},
			{
				"type": "unocc",
				"energy": -0.02415,
				"method": "rhf"
			},
			{
				"type": "unocc",
				"energy": -0.0157,
				"method": "rhf"
			},
			{
				"type": "unocc",
				"energy": -0.01238,
				"method": "rhf"
			}
		],
		"cosmo_sigma_profile": { 
			"-0.025": 0.0,
			"-0.024": 0.0,
			"-0.023": 0.0,
			"-0.022": 0.0,
			"-0.021": 0.0,
			"-0.02": 0.0,
			"-0.019": 0.0,
			"-0.018": 0.0,
			"-0.017": 0.0,
			"-0.016": 0.0,
			"-0.015": 0.0,
			"-0.014": 0.211350692205,
			"-0.013": 0.806281565226,
			"-0.012": 1.69817107558,
			"-0.011": 1.16702574896,
			"-0.01": 0.780481286533,
			"-0.009": 3.82361420747,
			"-0.008": 5.03917647759,
			"-0.007": 8.39214669283,
			"-0.006": 15.3440590957,
			"-0.005": 22.2808903207,
			"-0.004": 30.087409993,
			"-0.003": 27.7313757335,
			"-0.002": 33.419793832,
			"-0.001": 32.1461860845,
			"0.0": 27.5232176745,
			"0.001": 22.6466183248,
			"0.002": 18.1870849754,
			"0.003": 16.074534423,
			"0.004": 14.2576826754,
			"0.005": 10.1987910756,
			"0.006": 5.75791414756,
			"0.007": 6.24586368464,
			"0.008": 6.4612801531,
			"0.009": 8.4722099052,
			"0.01": 11.843361888,
			"0.011": 10.6968736415,
			"0.012": 2.56284952956,
			"0.013": 0.423501578854,
			"0.014": 0.0,
			"0.015": 0.0,
			"0.016": 0.0,
			"0.017": 0.0,
			"0.018": 0.0,
			"0.019": 0.0,
			"0.02": 0.0,
			"0.021": 0.0,
			"0.022": 0.0,
			"0.023": 0.0,
			"0.024": 0.0,
			"0.0": 0.0
		}
	}
}
