{
	 "smiles": "OC(=O)CCC=CC1=CC=CC=C1", 
	 "Tm": 360.15, 
	 "num_atms": 25, 
	 "gaussian": { 
		 "optdone": 1, 
		 "sigma_profile": "yes", 
		 "theory": "DFT", 
		 "functional": "B3LYP", 
		 "basiset": "6-31G**", 
		 "properties": { 
			 "R2extent": 3877.8554, 
			 "electric_dipole_moment_norm": 4.08970516908, 
			 "electric_quadrupole_moment_norm": 21.2995832304, 
			 "total_energy": -576.844490602, 
			 "HOMO_LUMO_gap": 0.19935, 
			 "cosmo_polarized_energy": -15.54, 
			 "cosmo_cavitation_energy": 29.11, 
			 "cosmo_dispersion_energy": -20.95, 
			 "cosmo_repulsion_energy": 1.69, 
			 "cosmo_total_nonelectrostatic_energy": 9.85, 
			 "SMD_solvation_energy": 5.87 
		},
		"coords": [
			{
				"x": -1.0150222049,
				"y": -3.5383401932,
				"z": 3.5220619867,
				"element": "O" 
			},
			{
				"x": -1.0469405249,
				"y": -3.1495856737,
				"z": 2.2180449406,
				"element": "C" 
			},
			{
				"x": -1.1479431534,
				"y": -3.9768474761,
				"z": 1.346729206,
				"element": "O" 
			},
			{
				"x": -0.9727274811,
				"y": -1.6444253475,
				"z": 1.98626954,
				"element": "C" 
			},
			{
				"x": -0.8560238354,
				"y": -1.2539745186,
				"z": 0.5029888779,
				"element": "C" 
			},
			{
				"x": 0.4802006696,
				"y": -1.6249069313,
				"z": -0.0839379865,
				"element": "C" 
			},
			{
				"x": 1.3181200785,
				"y": -0.8502134314,
				"z": -0.7932732386,
				"element": "C" 
			},
			{
				"x": 1.1373680236,
				"y": 0.5426767098,
				"z": -1.2490990786,
				"element": "C" 
			},
			{
				"x": 2.2509429216,
				"y": 1.4032033401,
				"z": -1.2670678744,
				"element": "C" 
			},
			{
				"x": 2.1342798415,
				"y": 2.7258978147,
				"z": -1.6883382527,
				"element": "C" 
			},
			{
				"x": 0.9002348773,
				"y": 3.2181050834,
				"z": -2.1203493572,
				"element": "C" 
			},
			{
				"x": -0.2089864712,
				"y": 2.3710260062,
				"z": -2.1364037194,
				"element": "C" 
			},
			{
				"x": -0.0919370342,
				"y": 1.0475580252,
				"z": -1.7106844685,
				"element": "C" 
			},
			{
				"x": -0.9265396509,
				"y": -2.7662033599,
				"z": 4.0988846114,
				"element": "H" 
			},
			{
				"x": -0.1282991236,
				"y": -1.2353757943,
				"z": 2.5572693154,
				"element": "H" 
			},
			{
				"x": -1.881036473,
				"y": -1.2025316127,
				"z": 2.4194353331,
				"element": "H" 
			},
			{
				"x": -1.6587016884,
				"y": -1.7674053363,
				"z": -0.0420556446,
				"element": "H" 
			},
			{
				"x": -1.0333439913,
				"y": -0.1794328356,
				"z": 0.412704629,
				"element": "H" 
			},
			{
				"x": 0.8016918793,
				"y": -2.6425592166,
				"z": 0.1286209693,
				"element": "H" 
			},
			{
				"x": 2.2811681214,
				"y": -1.2870673199,
				"z": -1.0575104074,
				"element": "H" 
			},
			{
				"x": 3.2151102904,
				"y": 1.0256039873,
				"z": -0.9356580888,
				"element": "H" 
			},
			{
				"x": 3.0074887171,
				"y": 3.3723835295,
				"z": -1.6844179433,
				"element": "H" 
			},
			{
				"x": 0.8080122711,
				"y": 4.2474119348,
				"z": -2.4546643514,
				"element": "H" 
			},
			{
				"x": -1.1674838025,
				"y": 2.7366806172,
				"z": -2.4943961903,
				"element": "H" 
			},
			{
				"x": -0.9519322564,
				"y": 0.3888219987,
				"z": -1.7711528075,
				"element": "H" 
			}
		],
		 "valence_orbital": [ 
			{
				"type": "occ",
				"energy": -0.31714,
				"method": "rhf"
			},
			{
				"type": "occ",
				"energy": -0.28165,
				"method": "rhf"
			},
			{
				"type": "occ",
				"energy": -0.27386,
				"method": "rhf"
			},
			{
				"type": "occ",
				"energy": -0.25076,
				"method": "rhf"
			},
			{
				"type": "occ",
				"energy": -0.22397,
				"method": "rhf"
			},
			{
				"type": "unocc",
				"energy": -0.02462,
				"method": "rhf"
			},
			{
				"type": "unocc",
				"energy": -0.00216,
				"method": "rhf"
			},
			{
				"type": "unocc",
				"energy": 0.00785,
				"method": "rhf"
			},
			{
				"type": "unocc",
				"energy": 0.04383,
				"method": "rhf"
			},
			{
				"type": "unocc",
				"energy": 0.05824,
				"method": "rhf"
			}
		],
		"cosmo_sigma_profile": { 
			"-0.025": 0.0,
			"-0.024": 0.0,
			"-0.023": 0.0,
			"-0.022": 0.0,
			"-0.021": 0.0,
			"-0.02": 0.0,
			"-0.019": 0.59724451145,
			"-0.018": 1.19183156526,
			"-0.017": 0.734991594098,
			"-0.016": 1.54006244099,
			"-0.015": 0.623707422917,
			"-0.014": 0.946091268264,
			"-0.013": 1.38808308308,
			"-0.012": 1.00100595071,
			"-0.011": 1.13493514984,
			"-0.01": 1.23681291266,
			"-0.009": 1.88974776039,
			"-0.008": 1.62182194837,
			"-0.007": 3.81233968857,
			"-0.006": 7.07050570427,
			"-0.005": 15.4931805567,
			"-0.004": 22.54014328,
			"-0.003": 24.5575416128,
			"-0.002": 17.5698850404,
			"-0.001": 12.9864998551,
			"0.0": 10.7361960777,
			"0.001": 11.5213513564,
			"0.002": 10.6802767668,
			"0.003": 13.6453734722,
			"0.004": 14.405918493,
			"0.005": 14.1243024669,
			"0.006": 12.6333789449,
			"0.007": 2.57847215666,
			"0.008": 2.84730567401,
			"0.009": 3.25671672064,
			"0.01": 4.34793284796,
			"0.011": 5.32690585111,
			"0.012": 4.86034770906,
			"0.013": 1.83875245599,
			"0.014": 0.0854824597593,
			"0.015": 0.0,
			"0.016": 0.0,
			"0.017": 0.0,
			"0.018": 0.0,
			"0.019": 0.0,
			"0.02": 0.0,
			"0.021": 0.0,
			"0.022": 0.0,
			"0.023": 0.0,
			"0.024": 0.0,
			"0.025": 0.0
		}
	}
}
