{
	 "smiles": "CC(C)(C(=O)NO)C1=CC=CC=C1", 
	 "Tm": 418.15, 
	 "num_atms": 26, 
	 "gaussian": { 
		 "optdone": 1, 
		 "sigma_profile": "yes", 
		 "theory": "DFT", 
		 "functional": "B3LYP", 
		 "basiset": "6-31G**", 
		 "properties": { 
			 "R2extent": 2527.6679, 
			 "electric_dipole_moment_norm": 2.82515127737, 
			 "electric_quadrupole_moment_norm": 8.48821348754, 
			 "total_energy": -594.053340395, 
			 "HOMO_LUMO_gap": 0.22836, 
			 "cosmo_polarized_energy": -11.1, 
			 "cosmo_cavitation_energy": 28.1, 
			 "cosmo_dispersion_energy": -19.85, 
			 "cosmo_repulsion_energy": 1.57, 
			 "cosmo_total_nonelectrostatic_energy": 9.82, 
			 "SMD_solvation_energy": 6.35 
		},
		"coords": [
			{
				"x": -0.938755786,
				"y": 0.893919017,
				"z": 2.1303220896,
				"element": "C" 
			},
			{
				"x": -0.1972524021,
				"y": 1.0443227906,
				"z": 0.7804928205,
				"element": "C" 
			},
			{
				"x": 1.3187981455,
				"y": 1.150938306,
				"z": 1.0608170422,
				"element": "C" 
			},
			{
				"x": -0.656914171,
				"y": 2.3868561321,
				"z": 0.1634137985,
				"element": "C" 
			},
			{
				"x": 0.0181670879,
				"y": 3.4052443064,
				"z": 0.1877390474,
				"element": "O" 
			},
			{
				"x": -1.8750629545,
				"y": 2.4184185439,
				"z": -0.4938424485,
				"element": "N" 
			},
			{
				"x": -2.8768119732,
				"y": 1.4777641851,
				"z": -0.1992728061,
				"element": "O" 
			},
			{
				"x": -0.4415470838,
				"y": -0.1234067756,
				"z": -0.187959844,
				"element": "C" 
			},
			{
				"x": -1.0292993197,
				"y": -1.3316873063,
				"z": 0.2120425274,
				"element": "C" 
			},
			{
				"x": -1.1806646397,
				"y": -2.3917202537,
				"z": -0.6863034485,
				"element": "C" 
			},
			{
				"x": -0.7515433809,
				"y": -2.2651295017,
				"z": -2.0069272233,
				"element": "C" 
			},
			{
				"x": -0.1671393477,
				"y": -1.0664805036,
				"z": -2.4224611585,
				"element": "C" 
			},
			{
				"x": -0.0122916567,
				"y": -0.0126354591,
				"z": -1.5224584331,
				"element": "C" 
			},
			{
				"x": -0.7602007915,
				"y": 1.7815003544,
				"z": 2.7446151438,
				"element": "H" 
			},
			{
				"x": -2.0151864817,
				"y": 0.7788232033,
				"z": 1.9913539359,
				"element": "H" 
			},
			{
				"x": -0.5551556936,
				"y": 0.0312363516,
				"z": 2.6838315981,
				"element": "H" 
			},
			{
				"x": 1.8870330742,
				"y": 1.2998455303,
				"z": 0.1398329085,
				"element": "H" 
			},
			{
				"x": 1.6675314295,
				"y": 0.2291152258,
				"z": 1.536023306,
				"element": "H" 
			},
			{
				"x": 1.5266407014,
				"y": 1.9967362044,
				"z": 1.7196746766,
				"element": "H" 
			},
			{
				"x": -2.2611899328,
				"y": 3.3462746458,
				"z": -0.6320887163,
				"element": "H" 
			},
			{
				"x": -2.7917128145,
				"y": 0.8138485421,
				"z": -0.9020073539,
				"element": "H" 
			},
			{
				"x": -1.3789606925,
				"y": -1.4550006728,
				"z": 1.2309800234,
				"element": "H" 
			},
			{
				"x": -1.6386195378,
				"y": -3.3172612027,
				"z": -0.3484092031,
				"element": "H" 
			},
			{
				"x": -0.8716434625,
				"y": -3.0883363134,
				"z": -2.7051179095,
				"element": "H" 
			},
			{
				"x": 0.1714892915,
				"y": -0.9508841456,
				"z": -3.4482856873,
				"element": "H" 
			},
			{
				"x": 0.446892392,
				"y": 0.9122987955,
				"z": -1.8618046858,
				"element": "H" 
			}
		],
		 "valence_orbital": [ 
			{
				"type": "occ",
				"energy": -0.3223,
				"method": "rhf"
			},
			{
				"type": "occ",
				"energy": -0.26575,
				"method": "rhf"
			},
			{
				"type": "occ",
				"energy": -0.25915,
				"method": "rhf"
			},
			{
				"type": "occ",
				"energy": -0.2553,
				"method": "rhf"
			},
			{
				"type": "occ",
				"energy": -0.23789,
				"method": "rhf"
			},
			{
				"type": "unocc",
				"energy": -0.00953,
				"method": "rhf"
			},
			{
				"type": "unocc",
				"energy": -0.00748,
				"method": "rhf"
			},
			{
				"type": "unocc",
				"energy": 0.01226,
				"method": "rhf"
			},
			{
				"type": "unocc",
				"energy": 0.07061,
				"method": "rhf"
			},
			{
				"type": "unocc",
				"energy": 0.0879,
				"method": "rhf"
			}
		],
		"cosmo_sigma_profile": { 
			"-0.025": 0.0,
			"-0.024": 0.0,
			"-0.023": 0.0,
			"-0.022": 0.0,
			"-0.021": 0.0,
			"-0.02": 0.0,
			"-0.019": 0.0,
			"-0.018": 0.0,
			"-0.017": 0.0,
			"-0.016": 0.0,
			"-0.015": 0.480258339929,
			"-0.014": 1.90779008574,
			"-0.013": 1.69232609559,
			"-0.012": 1.15332492087,
			"-0.011": 1.07599715717,
			"-0.01": 1.50222383569,
			"-0.009": 1.58988988307,
			"-0.008": 2.13120018772,
			"-0.007": 1.40071604531,
			"-0.006": 4.91238356119,
			"-0.005": 12.4419823344,
			"-0.004": 19.4538464929,
			"-0.003": 22.831732395,
			"-0.002": 19.5117320187,
			"-0.001": 18.7819829102,
			"0.0": 20.2314226655,
			"0.001": 18.6264664735,
			"0.002": 12.6734056429,
			"0.003": 11.0396620355,
			"0.004": 10.4545193944,
			"0.005": 9.41678007573,
			"0.006": 5.72282367963,
			"0.007": 2.35287061046,
			"0.008": 2.44552925887,
			"0.009": 2.57604739773,
			"0.01": 2.32382000671,
			"0.011": 2.82286674065,
			"0.012": 2.64318097281,
			"0.013": 5.41861794038,
			"0.014": 1.03203726474,
			"0.015": 0.0,
			"0.016": 0.0,
			"0.017": 0.0,
			"0.018": 0.0,
			"0.019": 0.0,
			"0.02": 0.0,
			"0.021": 0.0,
			"0.022": 0.0,
			"0.023": 0.0,
			"0.024": 0.0,
			"0.025": 0.0
		}
	}
}
