{
	 "smiles": "CNC1=C2SC=CC2=NC=N1", 
	 "Tm": 453.15, 
	 "num_atms": 18, 
	 "gaussian": { 
		 "optdone": 1, 
		 "sigma_profile": "yes", 
		 "theory": "DFT", 
		 "functional": "B3LYP", 
		 "basiset": "6-31G**", 
		 "properties": { 
			 "R2extent": 2624.1713, 
			 "electric_dipole_moment_norm": 3.2835804863, 
			 "electric_quadrupole_moment_norm": 8.60793328215, 
			 "total_energy": -833.407203819, 
			 "HOMO_LUMO_gap": 0.18223, 
			 "cosmo_polarized_energy": -11.21, 
			 "cosmo_cavitation_energy": 23.43, 
			 "cosmo_dispersion_energy": -18.37, 
			 "cosmo_repulsion_energy": 1.41, 
			 "cosmo_total_nonelectrostatic_energy": 6.48, 
			 "SMD_solvation_energy": 0.83 
		},
		"coords": [
			{
				"x": 1.7613764013,
				"y": 0.5176187429,
				"z": -2.1381605359,
				"element": "C" 
			},
			{
				"x": 1.3621273971,
				"y": -0.4743530909,
				"z": -1.1525707862,
				"element": "N" 
			},
			{
				"x": 0.0557569697,
				"y": -0.7252095526,
				"z": -0.8581303519,
				"element": "C" 
			},
			{
				"x": -0.3405379675,
				"y": -1.768077554,
				"z": 0.0134581663,
				"element": "C" 
			},
			{
				"x": 0.6207826171,
				"y": -2.9473025279,
				"z": 0.8790977224,
				"element": "S" 
			},
			{
				"x": -0.832411678,
				"y": -3.6559101029,
				"z": 1.5528182549,
				"element": "C" 
			},
			{
				"x": -1.9716770531,
				"y": -3.0340523357,
				"z": 1.152716163,
				"element": "C" 
			},
			{
				"x": -1.7141402672,
				"y": -1.9332521433,
				"z": 0.2598655088,
				"element": "C" 
			},
			{
				"x": -2.6555141713,
				"y": -1.1299483362,
				"z": -0.2928261047,
				"element": "N" 
			},
			{
				"x": -2.1667511901,
				"y": -0.1833322885,
				"z": -1.0823179949,
				"element": "C" 
			},
			{
				"x": -0.8828384708,
				"y": 0.0622314751,
				"z": -1.4013581367,
				"element": "N" 
			},
			{
				"x": 1.5070809547,
				"y": 0.2163693578,
				"z": -3.1623999659,
				"element": "H" 
			},
			{
				"x": 2.8414720749,
				"y": 0.6628854638,
				"z": -2.066330115,
				"element": "H" 
			},
			{
				"x": 1.2579866621,
				"y": 1.4639161329,
				"z": -1.9334657681,
				"element": "H" 
			},
			{
				"x": 2.0380468459,
				"y": -1.1756691781,
				"z": -0.8929893621,
				"element": "H" 
			},
			{
				"x": -0.7359282887,
				"y": -4.5027640846,
				"z": 2.2187236123,
				"element": "H" 
			},
			{
				"x": -2.9693956296,
				"y": -3.3195639702,
				"z": 1.4619174979,
				"element": "H" 
			},
			{
				"x": -2.8931352066,
				"y": 0.4849139925,
				"z": -1.5422478043,
				"element": "H" 
			}
		],
		 "valence_orbital": [ 
			{
				"type": "occ",
				"energy": -0.28613,
				"method": "rhf"
			},
			{
				"type": "occ",
				"energy": -0.26953,
				"method": "rhf"
			},
			{
				"type": "occ",
				"energy": -0.25028,
				"method": "rhf"
			},
			{
				"type": "occ",
				"energy": -0.24659,
				"method": "rhf"
			},
			{
				"type": "occ",
				"energy": -0.21961,
				"method": "rhf"
			},
			{
				"type": "unocc",
				"energy": -0.03738,
				"method": "rhf"
			},
			{
				"type": "unocc",
				"energy": -0.00483,
				"method": "rhf"
			},
			{
				"type": "unocc",
				"energy": 0.00857,
				"method": "rhf"
			},
			{
				"type": "unocc",
				"energy": 0.04723,
				"method": "rhf"
			},
			{
				"type": "unocc",
				"energy": 0.0693,
				"method": "rhf"
			}
		],
		"cosmo_sigma_profile": { 
			"-0.025": 0.0,
			"-0.024": 0.0,
			"-0.023": 0.0,
			"-0.022": 0.0,
			"-0.021": 0.0,
			"-0.02": 0.0,
			"-0.019": 0.0,
			"-0.018": 0.0,
			"-0.017": 0.0,
			"-0.016": 0.0,
			"-0.015": 0.181054606785,
			"-0.014": 0.842921402598,
			"-0.013": 1.26376377188,
			"-0.012": 1.23791494381,
			"-0.011": 1.34786304135,
			"-0.01": 1.49124572485,
			"-0.009": 4.26047726152,
			"-0.008": 3.9812342999,
			"-0.007": 4.80944355359,
			"-0.006": 8.5448388661,
			"-0.005": 8.8228842908,
			"-0.004": 10.8176537677,
			"-0.003": 12.1378083836,
			"-0.002": 14.4089270178,
			"-0.001": 11.5075525321,
			"0.0": 14.9312387822,
			"0.001": 17.9581770085,
			"0.002": 18.3857434071,
			"0.003": 15.7099651133,
			"0.004": 10.0283402768,
			"0.005": 4.81432535617,
			"0.006": 3.01783842823,
			"0.007": 3.70219063049,
			"0.008": 2.68037758087,
			"0.009": 1.95861201871,
			"0.01": 1.36000918652,
			"0.011": 2.81247253211,
			"0.012": 2.2879841164,
			"0.013": 1.96863896251,
			"0.014": 0.752358131262,
			"0.015": 0.940013438244,
			"0.016": 1.1602255598,
			"0.017": 0.139414342423,
			"0.018": 0.0,
			"0.019": 0.0,
			"0.02": 0.0,
			"0.021": 0.0,
			"0.022": 0.0,
			"0.023": 0.0,
			"0.024": 0.0,
			"0.025": 0.0
		}
	}
}
