{
	 "smiles": "CC1CNC(S1)=NC1=C2N=CC=CC2=CC=C1", 
	 "Tm": 366.15, 
	 "num_atms": 30, 
	 "gaussian": { 
		 "optdone": 1, 
		 "sigma_profile": "yes", 
		 "theory": "DFT", 
		 "functional": "B3LYP", 
		 "basiset": "6-31G**", 
		 "properties": { 
			 "R2extent": 5443.3447, 
			 "electric_dipole_moment_norm": 3.81321611897, 
			 "electric_quadrupole_moment_norm": 18.2130367399, 
			 "total_energy": -1065.67040239, 
			 "HOMO_LUMO_gap": 0.13678, 
			 "cosmo_polarized_energy": -12.17, 
			 "cosmo_cavitation_energy": 34.21, 
			 "cosmo_dispersion_energy": -25.59, 
			 "cosmo_repulsion_energy": 1.92, 
			 "cosmo_total_nonelectrostatic_energy": 10.54, 
			 "SMD_solvation_energy": 2.42 
		},
		"coords": [
			{
				"x": 1.3979097312,
				"y": 2.5334511606,
				"z": 3.4079034896,
				"element": "C" 
			},
			{
				"x": 2.3482610166,
				"y": 2.2647094517,
				"z": 2.2392520505,
				"element": "C" 
			},
			{
				"x": 1.6816695661,
				"y": 2.42518893,
				"z": 0.8598752605,
				"element": "C" 
			},
			{
				"x": 1.0327942682,
				"y": 1.1564528808,
				"z": 0.5587269616,
				"element": "N" 
			},
			{
				"x": 1.701151004,
				"y": 0.0446495029,
				"z": 1.0012514999,
				"element": "C" 
			},
			{
				"x": 2.9456185865,
				"y": 0.5153867375,
				"z": 2.2137771738,
				"element": "S" 
			},
			{
				"x": 1.5596882784,
				"y": -1.2023841272,
				"z": 0.7433419924,
				"element": "N" 
			},
			{
				"x": 0.7147153275,
				"y": -1.8854432001,
				"z": -0.1220345404,
				"element": "C" 
			},
			{
				"x": 0.1098024302,
				"y": -1.4260626081,
				"z": -1.3556112719,
				"element": "C" 
			},
			{
				"x": 0.2837288961,
				"y": -0.1372725694,
				"z": -1.7731612218,
				"element": "N" 
			},
			{
				"x": -0.2335830628,
				"y": 0.2577440245,
				"z": -2.921456431,
				"element": "C" 
			},
			{
				"x": -0.979788184,
				"y": -0.5832093412,
				"z": -3.7752270784,
				"element": "C" 
			},
			{
				"x": -1.1963299992,
				"y": -1.8794271302,
				"z": -3.3744115402,
				"element": "C" 
			},
			{
				"x": -0.6598949747,
				"y": -2.3494157405,
				"z": -2.1479021467,
				"element": "C" 
			},
			{
				"x": -0.8600241477,
				"y": -3.6817800262,
				"z": -1.7149633099,
				"element": "C" 
			},
			{
				"x": -0.2914788933,
				"y": -4.0997020508,
				"z": -0.5318682818,
				"element": "C" 
			},
			{
				"x": 0.4913843721,
				"y": -3.2190092701,
				"z": 0.2331222727,
				"element": "C" 
			},
			{
				"x": 1.0905796904,
				"y": 3.5865629391,
				"z": 3.4105998559,
				"element": "H" 
			},
			{
				"x": 1.8795090948,
				"y": 2.3173292283,
				"z": 4.3651781312,
				"element": "H" 
			},
			{
				"x": 0.501663464,
				"y": 1.9118298928,
				"z": 3.3281728978,
				"element": "H" 
			},
			{
				"x": 3.2262133022,
				"y": 2.9126448601,
				"z": 2.3058375769,
				"element": "H" 
			},
			{
				"x": 2.4391830816,
				"y": 2.6764163392,
				"z": 0.101958194,
				"element": "H" 
			},
			{
				"x": 0.9402267267,
				"y": 3.2319490689,
				"z": 0.8809521833,
				"element": "H" 
			},
			{
				"x": 0.6312940781,
				"y": 1.0022202973,
				"z": -0.3765011311,
				"element": "H" 
			},
			{
				"x": -0.0655247416,
				"y": 1.2986916794,
				"z": -3.1945364412,
				"element": "H" 
			},
			{
				"x": -1.3741276029,
				"y": -0.2003889828,
				"z": -4.7107723755,
				"element": "H" 
			},
			{
				"x": -1.7760957186,
				"y": -2.564480749,
				"z": -3.9881440627,
				"element": "H" 
			},
			{
				"x": -1.4485881582,
				"y": -4.3567489814,
				"z": -2.3298389803,
				"element": "H" 
			},
			{
				"x": -0.4300817848,
				"y": -5.1208449292,
				"z": -0.188199024,
				"element": "H" 
			},
			{
				"x": 0.9656243531,
				"y": -3.5618572871,
				"z": 1.1463782969,
				"element": "H" 
			}
		],
		 "valence_orbital": [ 
			{
				"type": "occ",
				"energy": -0.26714,
				"method": "rhf"
			},
			{
				"type": "occ",
				"energy": -0.2503,
				"method": "rhf"
			},
			{
				"type": "occ",
				"energy": -0.23325,
				"method": "rhf"
			},
			{
				"type": "occ",
				"energy": -0.22923,
				"method": "rhf"
			},
			{
				"type": "occ",
				"energy": -0.19266,
				"method": "rhf"
			},
			{
				"type": "unocc",
				"energy": -0.05588,
				"method": "rhf"
			},
			{
				"type": "unocc",
				"energy": -0.01539,
				"method": "rhf"
			},
			{
				"type": "unocc",
				"energy": 0.00478,
				"method": "rhf"
			},
			{
				"type": "unocc",
				"energy": 0.02653,
				"method": "rhf"
			},
			{
				"type": "unocc",
				"energy": 0.06324,
				"method": "rhf"
			}
		],
		"cosmo_sigma_profile": { 
			"-0.025": 0.0,
			"-0.024": 0.0,
			"-0.023": 0.0,
			"-0.022": 0.0,
			"-0.021": 0.0,
			"-0.02": 0.0,
			"-0.019": 0.0,
			"-0.018": 0.0,
			"-0.017": 0.0,
			"-0.016": 0.0,
			"-0.015": 0.0,
			"-0.014": 0.0,
			"-0.013": 0.0,
			"-0.012": 0.0,
			"-0.011": 0.0,
			"-0.01": 0.0,
			"-0.009": 0.0,
			"-0.008": 0.129283924688,
			"-0.007": 6.87944191846,
			"-0.006": 16.2768166523,
			"-0.005": 23.8148358699,
			"-0.004": 27.845779434,
			"-0.003": 22.6879199204,
			"-0.002": 17.6418844084,
			"-0.001": 15.6341337191,
			"0.0": 19.5685826289,
			"0.001": 20.8488340734,
			"0.002": 24.1247852199,
			"0.003": 18.9122030065,
			"0.004": 18.8923157064,
			"0.005": 14.0665544214,
			"0.006": 7.41902222265,
			"0.007": 6.07823016569,
			"0.008": 6.20514079417,
			"0.009": 2.91690916858,
			"0.01": 1.49447626685,
			"0.011": 1.07103566236,
			"0.012": 1.38674419181,
			"0.013": 0.981099887987,
			"0.014": 0.349070010209,
			"0.015": 0.0,
			"0.016": 0.0,
			"0.017": 0.0,
			"0.018": 0.0,
			"0.019": 0.0,
			"0.02": 0.0,
			"0.021": 0.0,
			"0.022": 0.0,
			"0.023": 0.0,
			"0.024": 0.0,
			"0.025": 0.0
		}
	}
}
