{
	 "smiles": "COC(=O)C(NC(C1=CC=CC=C1)(C1=CC=CC=C1)C1=CC=CC=C1)C(C)O", 
	 "Tm": 389.15, 
	 "num_atms": 53, 
	 "gaussian": { 
		 "optdone": 1, 
		 "sigma_profile": "yes", 
		 "theory": "DFT", 
		 "functional": "B3LYP", 
		 "basiset": "6-31G**", 
		 "properties": { 
			 "R2extent": 9201.4059, 
			 "electric_dipole_moment_norm": 0.833376799533, 
			 "electric_quadrupole_moment_norm": 13.442759421, 
			 "total_energy": -1210.02827644, 
			 "HOMO_LUMO_gap": 0.21011, 
			 "cosmo_polarized_energy": -16.63, 
			 "cosmo_cavitation_energy": 52.57, 
			 "cosmo_dispersion_energy": -33.34, 
			 "cosmo_repulsion_energy": 2.53, 
			 "cosmo_total_nonelectrostatic_energy": 21.77, 
			 "SMD_solvation_energy": 9.82 
		},
		"coords": [
			{
				"x": -3.0078897509,
				"y": 1.3756712314,
				"z": -2.6425894317,
				"element": "C" 
			},
			{
				"x": -2.093385242,
				"y": 1.2349451418,
				"z": -1.5425075781,
				"element": "O" 
			},
			{
				"x": -0.879599063,
				"y": 1.7738957577,
				"z": -1.7404087521,
				"element": "C" 
			},
			{
				"x": -0.5697868299,
				"y": 2.4009852625,
				"z": -2.7340714848,
				"element": "O" 
			},
			{
				"x": 0.0719087614,
				"y": 1.6202778397,
				"z": -0.5491666535,
				"element": "C" 
			},
			{
				"x": -0.201225721,
				"y": 0.5026643926,
				"z": 0.3332148923,
				"element": "N" 
			},
			{
				"x": 0.3870773158,
				"y": -0.835558224,
				"z": 0.0671659236,
				"element": "C" 
			},
			{
				"x": -0.1510610917,
				"y": -1.3414080486,
				"z": -1.2997429658,
				"element": "C" 
			},
			{
				"x": -1.2385370029,
				"y": -2.2215357588,
				"z": -1.3843806607,
				"element": "C" 
			},
			{
				"x": -1.7471296892,
				"y": -2.6254098732,
				"z": -2.6202251979,
				"element": "C" 
			},
			{
				"x": -1.1815017151,
				"y": -2.1562139924,
				"z": -3.80578841,
				"element": "C" 
			},
			{
				"x": -0.0984935564,
				"y": -1.279071725,
				"z": -3.7405586636,
				"element": "C" 
			},
			{
				"x": 0.4106597994,
				"y": -0.8823998183,
				"z": -2.5028023602,
				"element": "C" 
			},
			{
				"x": -0.1142546875,
				"y": -1.7447425546,
				"z": 1.2247829225,
				"element": "C" 
			},
			{
				"x": -1.3385587935,
				"y": -1.4710074072,
				"z": 1.8562702303,
				"element": "C" 
			},
			{
				"x": -1.8184625219,
				"y": -2.2900893663,
				"z": 2.8800424637,
				"element": "C" 
			},
			{
				"x": -1.0893109075,
				"y": -3.4056688932,
				"z": 3.2915110316,
				"element": "C" 
			},
			{
				"x": 0.1233439366,
				"y": -3.6939932532,
				"z": 2.6648575869,
				"element": "C" 
			},
			{
				"x": 0.6054945306,
				"y": -2.8723958494,
				"z": 1.6449215723,
				"element": "C" 
			},
			{
				"x": 1.9450501819,
				"y": -0.8269331799,
				"z": 0.0896246291,
				"element": "C" 
			},
			{
				"x": 2.708711656,
				"y": -1.7346372793,
				"z": -0.6612541818,
				"element": "C" 
			},
			{
				"x": 4.1019599523,
				"y": -1.7638295507,
				"z": -0.5659552918,
				"element": "C" 
			},
			{
				"x": 4.7689938292,
				"y": -0.8850205234,
				"z": 0.2867546738,
				"element": "C" 
			},
			{
				"x": 4.0245358464,
				"y": 0.0152284252,
				"z": 1.0495496419,
				"element": "C" 
			},
			{
				"x": 2.6319552142,
				"y": 0.0385642624,
				"z": 0.9549490509,
				"element": "C" 
			},
			{
				"x": 0.0240533781,
				"y": 2.9630596054,
				"z": 0.2490779249,
				"element": "C" 
			},
			{
				"x": -1.3070249165,
				"y": 3.2431725921,
				"z": 0.9382261358,
				"element": "C" 
			},
			{
				"x": 1.0177832419,
				"y": 2.9657792368,
				"z": 1.2749860146,
				"element": "O" 
			},
			{
				"x": -3.9330872646,
				"y": 0.9010883938,
				"z": -2.3162709056,
				"element": "H" 
			},
			{
				"x": -2.6126010824,
				"y": 0.8737184002,
				"z": -3.5285319237,
				"element": "H" 
			},
			{
				"x": -3.1753917695,
				"y": 2.4304726693,
				"z": -2.8750443632,
				"element": "H" 
			},
			{
				"x": 1.0748992846,
				"y": 1.5812675093,
				"z": -1.0045533968,
				"element": "H" 
			},
			{
				"x": 0.0263253288,
				"y": 0.7751676107,
				"z": 1.284161672,
				"element": "H" 
			},
			{
				"x": -1.6965345113,
				"y": -2.6001563875,
				"z": -0.4789526726,
				"element": "H" 
			},
			{
				"x": -2.5875723197,
				"y": -3.3134244275,
				"z": -2.6517576328,
				"element": "H" 
			},
			{
				"x": -1.5746028837,
				"y": -2.4739093561,
				"z": -4.7674676669,
				"element": "H" 
			},
			{
				"x": 0.3576931722,
				"y": -0.9015430044,
				"z": -4.6511836627,
				"element": "H" 
			},
			{
				"x": 1.2650687878,
				"y": -0.2147584818,
				"z": -2.4825761947,
				"element": "H" 
			},
			{
				"x": -1.9154301531,
				"y": -0.6146203171,
				"z": 1.527485543,
				"element": "H" 
			},
			{
				"x": -2.7674705496,
				"y": -2.0532563414,
				"z": 3.3535893597,
				"element": "H" 
			},
			{
				"x": -1.4605979356,
				"y": -4.0422854842,
				"z": 4.0896538644,
				"element": "H" 
			},
			{
				"x": 0.7044405516,
				"y": -4.5588673565,
				"z": 2.9728960165,
				"element": "H" 
			},
			{
				"x": 1.5559597723,
				"y": -3.111968721,
				"z": 1.1825037764,
				"element": "H" 
			},
			{
				"x": 2.2130938288,
				"y": -2.4292713845,
				"z": -1.3303247745,
				"element": "H" 
			},
			{
				"x": 4.6633965449,
				"y": -2.4774732201,
				"z": -1.1627132995,
				"element": "H" 
			},
			{
				"x": 5.8525826328,
				"y": -0.9037843365,
				"z": 0.3590495468,
				"element": "H" 
			},
			{
				"x": 4.5266523688,
				"y": 0.6997676545,
				"z": 1.7281333643,
				"element": "H" 
			},
			{
				"x": 2.0800114751,
				"y": 0.745879923,
				"z": 1.5642866717,
				"element": "H" 
			},
			{
				"x": 0.229010328,
				"y": 3.7579144692,
				"z": -0.4809678164,
				"element": "H" 
			},
			{
				"x": -1.2465359301,
				"y": 4.2002403811,
				"z": 1.4627535886,
				"element": "H" 
			},
			{
				"x": -1.5445648849,
				"y": 2.4656077798,
				"z": 1.6686527438,
				"element": "H" 
			},
			{
				"x": -2.1228696432,
				"y": 3.287431317,
				"z": 0.2134806621,
				"element": "H" 
			},
			{
				"x": 1.885618697,
				"y": 2.9289342605,
				"z": 0.8502144378,
				"element": "H" 
			}
		],
		 "valence_orbital": [ 
			{
				"type": "occ",
				"energy": -0.24671,
				"method": "rhf"
			},
			{
				"type": "occ",
				"energy": -0.24345,
				"method": "rhf"
			},
			{
				"type": "occ",
				"energy": -0.24052,
				"method": "rhf"
			},
			{
				"type": "occ",
				"energy": -0.23629,
				"method": "rhf"
			},
			{
				"type": "occ",
				"energy": -0.22484,
				"method": "rhf"
			},
			{
				"type": "unocc",
				"energy": -0.01473,
				"method": "rhf"
			},
			{
				"type": "unocc",
				"energy": -0.00774,
				"method": "rhf"
			},
			{
				"type": "unocc",
				"energy": -0.00441,
				"method": "rhf"
			},
			{
				"type": "unocc",
				"energy": 0.00023,
				"method": "rhf"
			},
			{
				"type": "unocc",
				"energy": 0.00338,
				"method": "rhf"
			}
		],
		"cosmo_sigma_profile": { 
			"-0.025": 0.0,
			"-0.024": 0.0,
			"-0.023": 0.0,
			"-0.022": 0.0,
			"-0.021": 0.0,
			"-0.02": 0.0,
			"-0.019": 0.0,
			"-0.018": 0.0,
			"-0.017": 0.0,
			"-0.016": 0.0183637605948,
			"-0.015": 0.561622697068,
			"-0.014": 0.753359931927,
			"-0.013": 1.2410486326,
			"-0.012": 1.14038629287,
			"-0.011": 0.639712912696,
			"-0.01": 0.765530876362,
			"-0.009": 1.34654449877,
			"-0.008": 1.59466936879,
			"-0.007": 3.27385696249,
			"-0.006": 14.0350865963,
			"-0.005": 31.4244907739,
			"-0.004": 43.8525409974,
			"-0.003": 45.9522311989,
			"-0.002": 32.5473547554,
			"-0.001": 32.1474233835,
			"0.0": 30.3316507889,
			"0.001": 30.2636396587,
			"0.002": 25.2631703771,
			"0.003": 27.1464553954,
			"0.004": 26.0923302047,
			"0.005": 23.0223796714,
			"0.006": 13.2900291603,
			"0.007": 3.87533364437,
			"0.008": 3.95222640554,
			"0.009": 3.85858695677,
			"0.01": 3.30681457533,
			"0.011": 3.80362560992,
			"0.012": 6.50578544574,
			"0.013": 3.93566179411,
			"0.014": 0.338116194262,
			"0.015": 0.0,
			"0.016": 0.0,
			"0.017": 0.0,
			"0.018": 0.0,
			"0.019": 0.0,
			"0.02": 0.0,
			"0.021": 0.0,
			"0.022": 0.0,
			"0.023": 0.0,
			"0.024": 0.0,
			"0.025": 0.0
		}
	}
}
