{
	 "smiles": "CCN(CC)CCOC(=O)C(C1=CC=CC=C1)C1=CC=CC=C1", 
	 "Tm": 387.15, 
	 "num_atms": 48, 
	 "gaussian": { 
		 "optdone": 1, 
		 "sigma_profile": "yes", 
		 "theory": "DFT", 
		 "functional": "B3LYP", 
		 "basiset": "6-31G**", 
		 "properties": { 
			 "R2extent": 8908.0554, 
			 "electric_dipole_moment_norm": 1.24960319302, 
			 "electric_quadrupole_moment_norm": 5.58211001146, 
			 "total_energy": -982.401029882, 
			 "HOMO_LUMO_gap": 0.18681, 
			 "cosmo_polarized_energy": -10.81, 
			 "cosmo_cavitation_energy": 49.6, 
			 "cosmo_dispersion_energy": -32.1, 
			 "cosmo_repulsion_energy": 2.52, 
			 "cosmo_total_nonelectrostatic_energy": 20.03, 
			 "SMD_solvation_energy": 7.26 
		},
		"coords": [
			{
				"x": 3.3429487051,
				"y": 2.8963085689,
				"z": 1.2864952378,
				"element": "C" 
			},
			{
				"x": 2.5269550037,
				"y": 4.1026667622,
				"z": 0.7808102982,
				"element": "C" 
			},
			{
				"x": 1.2639130655,
				"y": 3.8494868419,
				"z": 0.0947994904,
				"element": "N" 
			},
			{
				"x": 1.3821073474,
				"y": 3.1465840973,
				"z": -1.1827051753,
				"element": "C" 
			},
			{
				"x": 0.2083069582,
				"y": 3.4108570522,
				"z": -2.1288387847,
				"element": "C" 
			},
			{
				"x": 0.1011405871,
				"y": 3.5777510832,
				"z": 0.9224864038,
				"element": "C" 
			},
			{
				"x": -0.1136535693,
				"y": 2.1709926579,
				"z": 1.4962589523,
				"element": "C" 
			},
			{
				"x": -0.5245036117,
				"y": 1.29014425,
				"z": 0.4206269652,
				"element": "O" 
			},
			{
				"x": -0.6921551517,
				"y": -0.0073489922,
				"z": 0.7483273833,
				"element": "C" 
			},
			{
				"x": -0.5288103944,
				"y": -0.4389430574,
				"z": 1.8713755559,
				"element": "O" 
			},
			{
				"x": -1.0905894168,
				"y": -0.8331224448,
				"z": -0.4741367497,
				"element": "C" 
			},
			{
				"x": -2.374170774,
				"y": -1.6256076476,
				"z": -0.2181103541,
				"element": "C" 
			},
			{
				"x": -3.496795597,
				"y": -1.3891462884,
				"z": -1.0202610309,
				"element": "C" 
			},
			{
				"x": -4.6788278707,
				"y": -2.1072653863,
				"z": -0.827401047,
				"element": "C" 
			},
			{
				"x": -4.75237812,
				"y": -3.0715320561,
				"z": 0.17734849,
				"element": "C" 
			},
			{
				"x": -3.6380717337,
				"y": -3.3107591421,
				"z": 0.9853770853,
				"element": "C" 
			},
			{
				"x": -2.4568724216,
				"y": -2.5962193141,
				"z": 0.7895371354,
				"element": "C" 
			},
			{
				"x": 0.0687152238,
				"y": -1.7184274037,
				"z": -0.9495931345,
				"element": "C" 
			},
			{
				"x": 0.232354299,
				"y": -1.9214522295,
				"z": -2.3267729335,
				"element": "C" 
			},
			{
				"x": 1.2459469382,
				"y": -2.7462877805,
				"z": -2.8133320073,
				"element": "C" 
			},
			{
				"x": 2.1182048887,
				"y": -3.3801526179,
				"z": -1.9263889611,
				"element": "C" 
			},
			{
				"x": 1.9664845268,
				"y": -3.1799725544,
				"z": -0.5540945526,
				"element": "C" 
			},
			{
				"x": 0.9499679936,
				"y": -2.3558048021,
				"z": -0.0662981136,
				"element": "C" 
			},
			{
				"x": 4.3121825744,
				"y": 3.2361994637,
				"z": 1.6690600202,
				"element": "H" 
			},
			{
				"x": 3.5382352862,
				"y": 2.1792687973,
				"z": 0.4826084533,
				"element": "H" 
			},
			{
				"x": 2.8398496032,
				"y": 2.3631515245,
				"z": 2.0986973152,
				"element": "H" 
			},
			{
				"x": 3.1605440632,
				"y": 4.6733473282,
				"z": 0.08762464,
				"element": "H" 
			},
			{
				"x": 2.3181808097,
				"y": 4.7733697739,
				"z": 1.6243320623,
				"element": "H" 
			},
			{
				"x": 2.3001987063,
				"y": 3.5176364266,
				"z": -1.6556994363,
				"element": "H" 
			},
			{
				"x": 1.5117233512,
				"y": 2.0574630526,
				"z": -1.0685511116,
				"element": "H" 
			},
			{
				"x": -0.720010427,
				"y": 2.9685808826,
				"z": -1.7572037557,
				"element": "H" 
			},
			{
				"x": 0.4134250917,
				"y": 2.9672628148,
				"z": -3.1087673667,
				"element": "H" 
			},
			{
				"x": 0.0530447185,
				"y": 4.486284219,
				"z": -2.2613908123,
				"element": "H" 
			},
			{
				"x": -0.8064545182,
				"y": 3.8430161861,
				"z": 0.3659427776,
				"element": "H" 
			},
			{
				"x": 0.1419429702,
				"y": 4.26129345,
				"z": 1.7802986078,
				"element": "H" 
			},
			{
				"x": -0.9096251122,
				"y": 2.1875622279,
				"z": 2.2498192743,
				"element": "H" 
			},
			{
				"x": 0.7808521804,
				"y": 1.7580618729,
				"z": 1.9667068286,
				"element": "H" 
			},
			{
				"x": -1.2995213934,
				"y": -0.1192037984,
				"z": -1.2744163943,
				"element": "H" 
			},
			{
				"x": -3.4471518597,
				"y": -0.6363763601,
				"z": -1.8034446926,
				"element": "H" 
			},
			{
				"x": -5.538964549,
				"y": -1.9103394794,
				"z": -1.4612023239,
				"element": "H" 
			},
			{
				"x": -5.6699063986,
				"y": -3.6322761057,
				"z": 0.3313468,
				"element": "H" 
			},
			{
				"x": -3.6880210651,
				"y": -4.0580318363,
				"z": 1.7724177325,
				"element": "H" 
			},
			{
				"x": -1.6004130871,
				"y": -2.7802268457,
				"z": 1.4277636221,
				"element": "H" 
			},
			{
				"x": -0.4440342498,
				"y": -1.4322587648,
				"z": -3.0233257625,
				"element": "H" 
			},
			{
				"x": 1.3557651627,
				"y": -2.8902678641,
				"z": -3.8845646693,
				"element": "H" 
			},
			{
				"x": 2.9104104765,
				"y": -4.0212094334,
				"z": -2.3023116403,
				"element": "H" 
			},
			{
				"x": 2.6431725726,
				"y": -3.6642537929,
				"z": 0.1445005232,
				"element": "H" 
			},
			{
				"x": 0.848258217,
				"y": -2.1966033359,
				"z": 1.0017491551,
				"element": "H" 
			}
		],
		 "valence_orbital": [ 
			{
				"type": "occ",
				"energy": -0.24946,
				"method": "rhf"
			},
			{
				"type": "occ",
				"energy": -0.24815,
				"method": "rhf"
			},
			{
				"type": "occ",
				"energy": -0.24411,
				"method": "rhf"
			},
			{
				"type": "occ",
				"energy": -0.23501,
				"method": "rhf"
			},
			{
				"type": "occ",
				"energy": -0.19776,
				"method": "rhf"
			},
			{
				"type": "unocc",
				"energy": -0.01095,
				"method": "rhf"
			},
			{
				"type": "unocc",
				"energy": -0.00856,
				"method": "rhf"
			},
			{
				"type": "unocc",
				"energy": 0.00165,
				"method": "rhf"
			},
			{
				"type": "unocc",
				"energy": 0.00634,
				"method": "rhf"
			},
			{
				"type": "unocc",
				"energy": 0.02685,
				"method": "rhf"
			}
		],
		"cosmo_sigma_profile": { 
			"-0.025": 0.0,
			"-0.024": 0.0,
			"-0.023": 0.0,
			"-0.022": 0.0,
			"-0.021": 0.0,
			"-0.02": 0.0,
			"-0.019": 0.0,
			"-0.018": 0.0,
			"-0.017": 0.0,
			"-0.016": 0.0,
			"-0.015": 0.0,
			"-0.014": 0.0,
			"-0.013": 0.0,
			"-0.012": 0.0,
			"-0.011": 0.0,
			"-0.01": 0.0,
			"-0.009": 0.0,
			"-0.008": 0.0,
			"-0.007": 1.62419338024,
			"-0.006": 12.1536448415,
			"-0.005": 26.7452836025,
			"-0.004": 31.7728235558,
			"-0.003": 41.0932731385,
			"-0.002": 39.4890345338,
			"-0.001": 43.4380937596,
			"0.0": 40.0711766274,
			"0.001": 34.2213788223,
			"0.002": 25.7839225526,
			"0.003": 19.6338740825,
			"0.004": 20.6253535734,
			"0.005": 22.102544141,
			"0.006": 15.639911184,
			"0.007": 2.35986352852,
			"0.008": 3.00128764991,
			"0.009": 2.26614592427,
			"0.01": 2.38787564421,
			"0.011": 3.23530544816,
			"0.012": 2.38685919895,
			"0.013": 0.304290294554,
			"0.014": 0.295058065982,
			"0.015": 0.0300050785768,
			"0.016": 0.0,
			"0.017": 0.0,
			"0.018": 0.0,
			"0.019": 0.0,
			"0.02": 0.0,
			"0.021": 0.0,
			"0.022": 0.0,
			"0.023": 0.0,
			"0.024": 0.0,
			"0.025": 0.0
		}
	}
}
