{
	 "smiles": "CC1=CC(=CC(C)=C1)N1NC(=CC1=N)C1=CC=CO1", 
	 "Tm": 399.15, 
	 "num_atms": 34, 
	 "gaussian": { 
		 "optdone": 1, 
		 "sigma_profile": "yes", 
		 "theory": "DFT", 
		 "functional": "B3LYP", 
		 "basiset": "6-31G**", 
		 "properties": { 
			 "R2extent": 6970.9295, 
			 "electric_dipole_moment_norm": 4.51558932588, 
			 "electric_quadrupole_moment_norm": 13.1426211602, 
			 "total_energy": -820.056160508, 
			 "HOMO_LUMO_gap": 0.13763, 
			 "cosmo_polarized_energy": -15.24, 
			 "cosmo_cavitation_energy": 38.26, 
			 "cosmo_dispersion_energy": -27.39, 
			 "cosmo_repulsion_energy": 2.09, 
			 "cosmo_total_nonelectrostatic_energy": 12.96, 
			 "SMD_solvation_energy": 6.9 
		},
		"coords": [
			{
				"x": 1.7673738488,
				"y": -2.3171620957,
				"z": -4.5755026204,
				"element": "C" 
			},
			{
				"x": 1.676959049,
				"y": -1.8810160679,
				"z": -3.1307519877,
				"element": "C" 
			},
			{
				"x": 0.7841540422,
				"y": -0.8691036884,
				"z": -2.7652568778,
				"element": "C" 
			},
			{
				"x": 0.7221538437,
				"y": -0.4390241719,
				"z": -1.4308717067,
				"element": "C" 
			},
			{
				"x": 1.5540487125,
				"y": -1.0308869582,
				"z": -0.465682523,
				"element": "C" 
			},
			{
				"x": 2.4421345331,
				"y": -2.0479987897,
				"z": -0.8237869129,
				"element": "C" 
			},
			{
				"x": 3.361556483,
				"y": -2.6566425193,
				"z": 0.2107472454,
				"element": "C" 
			},
			{
				"x": 2.4906613788,
				"y": -2.4702837156,
				"z": -2.1567698058,
				"element": "C" 
			},
			{
				"x": -0.209095086,
				"y": 0.5462562131,
				"z": -1.0423111553,
				"element": "N" 
			},
			{
				"x": -0.3518734843,
				"y": 0.8162720162,
				"z": 0.3406025335,
				"element": "N" 
			},
			{
				"x": -1.1378552519,
				"y": 1.9751590533,
				"z": 0.4265314705,
				"element": "C" 
			},
			{
				"x": -1.3711214417,
				"y": 2.4844584041,
				"z": -0.807405788,
				"element": "C" 
			},
			{
				"x": -0.7838800498,
				"y": 1.5906693878,
				"z": -1.8003254915,
				"element": "C" 
			},
			{
				"x": -0.7290576543,
				"y": 1.6404054195,
				"z": -3.0861146573,
				"element": "N" 
			},
			{
				"x": -1.5455985053,
				"y": 2.4389900931,
				"z": 1.7292203324,
				"element": "C" 
			},
			{
				"x": -1.1735539007,
				"y": 2.0933967212,
				"z": 3.0036590184,
				"element": "C" 
			},
			{
				"x": -1.9382204508,
				"y": 2.9182922199,
				"z": 3.884647945,
				"element": "C" 
			},
			{
				"x": -2.7143851271,
				"y": 3.7058530584,
				"z": 3.0874126856,
				"element": "C" 
			},
			{
				"x": -2.4911139088,
				"y": 3.4274022114,
				"z": 1.7741121634,
				"element": "O" 
			},
			{
				"x": 2.1121449217,
				"y": -3.3522621059,
				"z": -4.660828955,
				"element": "H" 
			},
			{
				"x": 2.4747918576,
				"y": -1.6896531427,
				"z": -5.1320821474,
				"element": "H" 
			},
			{
				"x": 0.7995471201,
				"y": -2.2360766097,
				"z": -5.0789759873,
				"element": "H" 
			},
			{
				"x": 0.1472179736,
				"y": -0.3936558387,
				"z": -3.4991723497,
				"element": "H" 
			},
			{
				"x": 1.5286781151,
				"y": -0.6785284202,
				"z": 0.5593110567,
				"element": "H" 
			},
			{
				"x": 3.5363391003,
				"y": -3.7189895772,
				"z": 0.0133822318,
				"element": "H" 
			},
			{
				"x": 2.9501755753,
				"y": -2.5632062114,
				"z": 1.2204448488,
				"element": "H" 
			},
			{
				"x": 4.3412590213,
				"y": -2.1623680566,
				"z": 0.2108316962,
				"element": "H" 
			},
			{
				"x": 3.1738731422,
				"y": -3.2680676294,
				"z": -2.4402559197,
				"element": "H" 
			},
			{
				"x": -0.75476233,
				"y": 0.0108432966,
				"z": 0.820036139,
				"element": "H" 
			},
			{
				"x": -1.8765153993,
				"y": 3.4100409239,
				"z": -1.0382243071,
				"element": "H" 
			},
			{
				"x": -1.1759496009,
				"y": 2.499112952,
				"z": -3.4056462144,
				"element": "H" 
			},
			{
				"x": -0.426038954,
				"y": 1.3613819794,
				"z": 3.2729815781,
				"element": "H" 
			},
			{
				"x": -1.9080387605,
				"y": 2.9271497469,
				"z": 4.9643999804,
				"element": "H" 
			},
			{
				"x": -3.4436088127,
				"y": 4.475741902,
				"z": 3.2858444818,
				"element": "H" 
			}
		],
		 "valence_orbital": [ 
			{
				"type": "occ",
				"energy": -0.25051,
				"method": "rhf"
			},
			{
				"type": "occ",
				"energy": -0.24636,
				"method": "rhf"
			},
			{
				"type": "occ",
				"energy": -0.22443,
				"method": "rhf"
			},
			{
				"type": "occ",
				"energy": -0.21487,
				"method": "rhf"
			},
			{
				"type": "occ",
				"energy": -0.18695,
				"method": "rhf"
			},
			{
				"type": "unocc",
				"energy": -0.04932,
				"method": "rhf"
			},
			{
				"type": "unocc",
				"energy": 0.01282,
				"method": "rhf"
			},
			{
				"type": "unocc",
				"energy": 0.01454,
				"method": "rhf"
			},
			{
				"type": "unocc",
				"energy": 0.03106,
				"method": "rhf"
			},
			{
				"type": "unocc",
				"energy": 0.07114,
				"method": "rhf"
			}
		],
		"cosmo_sigma_profile": { 
			"-0.025": 0.0,
			"-0.024": 0.0,
			"-0.023": 0.0,
			"-0.022": 0.0,
			"-0.021": 0.0,
			"-0.02": 0.0,
			"-0.019": 0.0,
			"-0.018": 0.0,
			"-0.017": 0.0,
			"-0.016": 0.0,
			"-0.015": 0.706816920662,
			"-0.014": 1.02553332703,
			"-0.013": 1.24786284178,
			"-0.012": 1.11694282433,
			"-0.011": 0.773167729481,
			"-0.01": 2.36753722817,
			"-0.009": 5.13127440438,
			"-0.008": 7.83498947989,
			"-0.007": 8.74988780247,
			"-0.006": 8.03032747552,
			"-0.005": 10.4637010621,
			"-0.004": 19.5433552781,
			"-0.003": 25.9721605788,
			"-0.002": 21.0111709641,
			"-0.001": 21.6619768808,
			"0.0": 29.7104973143,
			"0.001": 26.8169255809,
			"0.002": 23.1494006252,
			"0.003": 24.1559295501,
			"0.004": 19.1358969113,
			"0.005": 12.8907234306,
			"0.006": 11.7536098141,
			"0.007": 6.75365763229,
			"0.008": 2.60959878658,
			"0.009": 1.93254476211,
			"0.01": 1.82165380315,
			"0.011": 1.5196641091,
			"0.012": 1.86241672151,
			"0.013": 1.84669247305,
			"0.014": 1.59852663884,
			"0.015": 1.51370328891,
			"0.016": 0.380487018348,
			"0.017": 0.0,
			"0.018": 0.0,
			"0.019": 0.0,
			"0.02": 0.0,
			"0.021": 0.0,
			"0.022": 0.0,
			"0.023": 0.0,
			"0.024": 0.0,
			"0.025": 0.0
		}
	}
}
