{
	 "smiles": "ClC1=C(Cl)N(CC#N)C=N1", 
	 "Tm": 370.15, 
	 "num_atms": 13, 
	 "gaussian": { 
		 "optdone": 1, 
		 "sigma_profile": "yes", 
		 "theory": "DFT", 
		 "functional": "B3LYP", 
		 "basiset": "6-31G**", 
		 "properties": { 
			 "R2extent": 3600.7977, 
			 "electric_dipole_moment_norm": 4.24283394561, 
			 "electric_quadrupole_moment_norm": 11.3114460229, 
			 "total_energy": -1276.92612225, 
			 "HOMO_LUMO_gap": 0.22081, 
			 "cosmo_polarized_energy": -16.03, 
			 "cosmo_cavitation_energy": 22.8, 
			 "cosmo_dispersion_energy": -16.12, 
			 "cosmo_repulsion_energy": 1.32, 
			 "cosmo_total_nonelectrostatic_energy": 8.0, 
			 "SMD_solvation_energy": 3.68 
		},
		"coords": [
			{
				"x": 1.7235295879,
				"y": 4.1865930496,
				"z": -2.558540398,
				"element": "Cl" 
			},
			{
				"x": 1.120826572,
				"y": 2.6545453445,
				"z": -2.0478494177,
				"element": "C" 
			},
			{
				"x": 1.0846879686,
				"y": 2.1742540643,
				"z": -0.7607971088,
				"element": "C" 
			},
			{
				"x": 1.5906209347,
				"y": 2.8529561914,
				"z": 0.7305089299,
				"element": "Cl" 
			},
			{
				"x": 0.5334485963,
				"y": 0.9036201693,
				"z": -0.8573271696,
				"element": "N" 
			},
			{
				"x": 0.2445279224,
				"y": -0.0133296967,
				"z": 0.2334288863,
				"element": "C" 
			},
			{
				"x": -1.04328191,
				"y": 0.2583609792,
				"z": 0.8947830044,
				"element": "C" 
			},
			{
				"x": -2.059021007,
				"y": 0.4569589682,
				"z": 1.4174565789,
				"element": "N" 
			},
			{
				"x": 0.2644668505,
				"y": 0.7090326963,
				"z": -2.1882029485,
				"element": "C" 
			},
			{
				"x": 0.6124650773,
				"y": 1.7403156846,
				"z": -2.9231354421,
				"element": "N" 
			},
			{
				"x": 0.2325647381,
				"y": -1.0307929867,
				"z": -0.1682402778,
				"element": "H" 
			},
			{
				"x": 1.0464389122,
				"y": 0.0409296056,
				"z": 0.97542188,
				"element": "H" 
			},
			{
				"x": -0.182174243,
				"y": -0.2060440696,
				"z": -2.5529065171,
				"element": "H" 
			}
		],
		 "valence_orbital": [ 
			{
				"type": "occ",
				"energy": -0.3561,
				"method": "rhf"
			},
			{
				"type": "occ",
				"energy": -0.32637,
				"method": "rhf"
			},
			{
				"type": "occ",
				"energy": -0.30467,
				"method": "rhf"
			},
			{
				"type": "occ",
				"energy": -0.30091,
				"method": "rhf"
			},
			{
				"type": "occ",
				"energy": -0.24398,
				"method": "rhf"
			},
			{
				"type": "unocc",
				"energy": -0.02317,
				"method": "rhf"
			},
			{
				"type": "unocc",
				"energy": -0.00396,
				"method": "rhf"
			},
			{
				"type": "unocc",
				"energy": 0.00389,
				"method": "rhf"
			},
			{
				"type": "unocc",
				"energy": 0.0125,
				"method": "rhf"
			},
			{
				"type": "unocc",
				"energy": 0.03726,
				"method": "rhf"
			}
		],
		"cosmo_sigma_profile": { 
			"-0.025": 0.0,
			"-0.024": 0.0,
			"-0.023": 0.0,
			"-0.022": 0.0,
			"-0.021": 0.0,
			"-0.02": 0.0,
			"-0.019": 0.0,
			"-0.018": 0.0,
			"-0.017": 0.0,
			"-0.016": 0.0,
			"-0.015": 0.0,
			"-0.014": 0.426005809634,
			"-0.013": 2.29362794495,
			"-0.012": 4.93936451415,
			"-0.011": 6.13856373591,
			"-0.01": 6.01463251311,
			"-0.009": 6.48467580266,
			"-0.008": 3.91688634913,
			"-0.007": 3.36120167394,
			"-0.006": 3.57397240625,
			"-0.005": 3.34508217696,
			"-0.004": 7.96564122215,
			"-0.003": 8.19221251601,
			"-0.002": 9.20075683282,
			"-0.001": 14.0328620087,
			"0.0": 14.1104375487,
			"0.001": 13.2757460045,
			"0.002": 16.6346329635,
			"0.003": 16.102516931,
			"0.004": 12.7230712899,
			"0.005": 5.40126336502,
			"0.006": 4.98282278661,
			"0.007": 5.23759931813,
			"0.008": 4.5551247174,
			"0.009": 3.83530619298,
			"0.01": 4.07349232528,
			"0.011": 3.32578158766,
			"0.012": 2.50221099773,
			"0.013": 1.21134761731,
			"0.014": 0.954931742926,
			"0.015": 0.783325485035,
			"0.016": 0.0387613008576,
			"0.017": 0.0,
			"0.018": 0.0,
			"0.019": 0.0,
			"0.02": 0.0,
			"0.021": 0.0,
			"0.022": 0.0,
			"0.023": 0.0,
			"0.024": 0.0,
			"0.025": 0.0
		}
	}
}
