{
	 "smiles": "COC1=NC=C(NC(=O)NC2=CN=C(OC)C=C2)C=C1", 
	 "Tm": 489.15, 
	 "num_atms": 34, 
	 "gaussian": { 
		 "optdone": 1, 
		 "sigma_profile": "yes", 
		 "theory": "DFT", 
		 "functional": "B3LYP", 
		 "basiset": "6-31G**", 
		 "properties": { 
			 "R2extent": 6510.1418, 
			 "electric_dipole_moment_norm": 2.36849700443, 
			 "electric_quadrupole_moment_norm": 12.3414372141, 
			 "total_energy": -948.498299756, 
			 "HOMO_LUMO_gap": 0.18625, 
			 "cosmo_polarized_energy": -17.66, 
			 "cosmo_cavitation_energy": 39.14, 
			 "cosmo_dispersion_energy": -26.81, 
			 "cosmo_repulsion_energy": 2.12, 
			 "cosmo_total_nonelectrostatic_energy": 14.45, 
			 "SMD_solvation_energy": 7.45 
		},
		"coords": [
			{
				"x": 1.2758835643,
				"y": 3.852356057,
				"z": -0.9864688128,
				"element": "C" 
			},
			{
				"x": 1.9258980712,
				"y": 3.3082165373,
				"z": 0.1652068584,
				"element": "O" 
			},
			{
				"x": 1.2905449304,
				"y": 2.3061846541,
				"z": 0.8127063435,
				"element": "C" 
			},
			{
				"x": 0.1143572303,
				"y": 1.8768041009,
				"z": 0.3713081822,
				"element": "N" 
			},
			{
				"x": -0.4938015815,
				"y": 0.8890619564,
				"z": 1.0444853097,
				"element": "C" 
			},
			{
				"x": 0.0580159934,
				"y": 0.2708013405,
				"z": 2.1661788319,
				"element": "C" 
			},
			{
				"x": -0.5975440432,
				"y": -0.7634013492,
				"z": 2.889641772,
				"element": "N" 
			},
			{
				"x": -1.5583595479,
				"y": -1.6619735582,
				"z": 2.4341105941,
				"element": "C" 
			},
			{
				"x": -2.461429575,
				"y": -2.0459735561,
				"z": 3.1658236791,
				"element": "O" 
			},
			{
				"x": -1.4507883399,
				"y": -2.1162003627,
				"z": 1.1266085237,
				"element": "N" 
			},
			{
				"x": -0.2857073567,
				"y": -2.3109846823,
				"z": 0.3388993191,
				"element": "C" 
			},
			{
				"x": -0.3944214818,
				"y": -2.2788701431,
				"z": -1.0502088115,
				"element": "C" 
			},
			{
				"x": 0.6272020256,
				"y": -2.5156436143,
				"z": -1.8856229569,
				"element": "N" 
			},
			{
				"x": 1.8169200319,
				"y": -2.7679642661,
				"z": -1.3533267005,
				"element": "C" 
			},
			{
				"x": 2.8792218515,
				"y": -2.9951109523,
				"z": -2.1582821784,
				"element": "O" 
			},
			{
				"x": 2.6475424251,
				"y": -2.9465413194,
				"z": -3.5681457003,
				"element": "C" 
			},
			{
				"x": 2.0482430821,
				"y": -2.8169570593,
				"z": 0.0343299002,
				"element": "C" 
			},
			{
				"x": 0.9792466981,
				"y": -2.5987104913,
				"z": 0.8838614514,
				"element": "C" 
			},
			{
				"x": 1.3061511359,
				"y": 0.7375941813,
				"z": 2.6149903634,
				"element": "C" 
			},
			{
				"x": 1.9324925316,
				"y": 1.7731761194,
				"z": 1.9461774714,
				"element": "C" 
			},
			{
				"x": 1.1194690089,
				"y": 3.0855626752,
				"z": -1.7507744377,
				"element": "H" 
			},
			{
				"x": 0.3050601542,
				"y": 4.2837794565,
				"z": -0.7254624782,
				"element": "H" 
			},
			{
				"x": 1.9475183102,
				"y": 4.6275227168,
				"z": -1.357966896,
				"element": "H" 
			},
			{
				"x": -1.4609392532,
				"y": 0.5714526876,
				"z": 0.6640679388,
				"element": "H" 
			},
			{
				"x": -0.7550910047,
				"y": -0.5769083957,
				"z": 3.8726002478,
				"element": "H" 
			},
			{
				"x": -2.2463914155,
				"y": -2.6978424033,
				"z": 0.8975024197,
				"element": "H" 
			},
			{
				"x": -1.356445527,
				"y": -2.0613546127,
				"z": -1.5121332799,
				"element": "H" 
			},
			{
				"x": 3.6146740822,
				"y": -3.1553117378,
				"z": -4.0275924535,
				"element": "H" 
			},
			{
				"x": 2.28547252,
				"y": -1.9610410907,
				"z": -3.8755740449,
				"element": "H" 
			},
			{
				"x": 1.9116583372,
				"y": -3.6960830626,
				"z": -3.8740304234,
				"element": "H" 
			},
			{
				"x": 3.0421080716,
				"y": -3.0375615801,
				"z": 0.4065954297,
				"element": "H" 
			},
			{
				"x": 1.1102555067,
				"y": -2.6456932227,
				"z": 1.9593374063,
				"element": "H" 
			},
			{
				"x": 1.7699337652,
				"y": 0.2812288532,
				"z": 3.4851947523,
				"element": "H" 
			},
			{
				"x": 2.8917497988,
				"y": 2.1680861237,
				"z": 2.2603623793,
				"element": "H" 
			}
		],
		 "valence_orbital": [ 
			{
				"type": "occ",
				"energy": -0.27357,
				"method": "rhf"
			},
			{
				"type": "occ",
				"energy": -0.26575,
				"method": "rhf"
			},
			{
				"type": "occ",
				"energy": -0.2581,
				"method": "rhf"
			},
			{
				"type": "occ",
				"energy": -0.21906,
				"method": "rhf"
			},
			{
				"type": "occ",
				"energy": -0.21776,
				"method": "rhf"
			},
			{
				"type": "unocc",
				"energy": -0.03151,
				"method": "rhf"
			},
			{
				"type": "unocc",
				"energy": -0.0257,
				"method": "rhf"
			},
			{
				"type": "unocc",
				"energy": -0.00928,
				"method": "rhf"
			},
			{
				"type": "unocc",
				"energy": 0.00161,
				"method": "rhf"
			},
			{
				"type": "unocc",
				"energy": 0.05231,
				"method": "rhf"
			}
		],
		"cosmo_sigma_profile": { 
			"-0.025": 0.0,
			"-0.024": 0.0,
			"-0.023": 0.0,
			"-0.022": 0.0,
			"-0.021": 0.0,
			"-0.02": 0.0,
			"-0.019": 0.0,
			"-0.018": 0.0,
			"-0.017": 0.0,
			"-0.016": 0.0,
			"-0.015": 0.393699761227,
			"-0.014": 1.75054471758,
			"-0.013": 1.76890339006,
			"-0.012": 2.44361686716,
			"-0.011": 2.05028746312,
			"-0.01": 1.91873698924,
			"-0.009": 1.68846363885,
			"-0.008": 2.85602869027,
			"-0.007": 9.81143127281,
			"-0.006": 14.2039055788,
			"-0.005": 21.3450158636,
			"-0.004": 23.8394280887,
			"-0.003": 28.3896056162,
			"-0.002": 23.9062454191,
			"-0.001": 18.7364012457,
			"0.0": 20.4410002129,
			"0.001": 26.3413259676,
			"0.002": 27.001931785,
			"0.003": 18.9960658542,
			"0.004": 8.02608239115,
			"0.005": 8.01996937776,
			"0.006": 5.9859733065,
			"0.007": 5.9499772545,
			"0.008": 7.46776089733,
			"0.009": 5.88327638867,
			"0.01": 4.63489394089,
			"0.011": 3.85196321713,
			"0.012": 3.44809247654,
			"0.013": 6.33920048703,
			"0.014": 4.06358675372,
			"0.015": 0.0880569716265,
			"0.016": 0.0,
			"0.017": 0.0,
			"0.018": 0.0,
			"0.019": 0.0,
			"0.02": 0.0,
			"0.021": 0.0,
			"0.022": 0.0,
			"0.023": 0.0,
			"0.024": 0.0,
			"0.025": 0.0
		}
	}
}
