{
	 "smiles": "COC(=O)COC1=CC=C(O)C=C1", 
	 "Tm": 387.15, 
	 "num_atms": 23, 
	 "gaussian": { 
		 "optdone": 1, 
		 "sigma_profile": "yes", 
		 "theory": "DFT", 
		 "functional": "B3LYP", 
		 "basiset": "6-31G**", 
		 "properties": { 
			 "R2extent": 3636.5868, 
			 "electric_dipole_moment_norm": 3.22384394318, 
			 "electric_quadrupole_moment_norm": 17.0690442489, 
			 "total_energy": -649.860435129, 
			 "HOMO_LUMO_gap": 0.21, 
			 "cosmo_polarized_energy": -14.62, 
			 "cosmo_cavitation_energy": 27.85, 
			 "cosmo_dispersion_energy": -20.28, 
			 "cosmo_repulsion_energy": 1.63, 
			 "cosmo_total_nonelectrostatic_energy": 9.2, 
			 "SMD_solvation_energy": 6.85 
		},
		"coords": [
			{
				"x": 0.1082155361,
				"y": 0.1135810008,
				"z": -3.6532371885,
				"element": "C" 
			},
			{
				"x": 0.2497373096,
				"y": 1.1013002786,
				"z": -2.617099299,
				"element": "O" 
			},
			{
				"x": 1.0053895647,
				"y": 0.7296972146,
				"z": -1.5611720445,
				"element": "C" 
			},
			{
				"x": 1.5397208816,
				"y": -0.3489330729,
				"z": -1.4523614504,
				"element": "O" 
			},
			{
				"x": 1.0800665157,
				"y": 1.8852614772,
				"z": -0.5632436047,
				"element": "C" 
			},
			{
				"x": 1.8489566644,
				"y": 1.5828687787,
				"z": 0.5778777521,
				"element": "O" 
			},
			{
				"x": 1.1861951653,
				"y": 0.9234178956,
				"z": 1.6068407806,
				"element": "C" 
			},
			{
				"x": 1.3024192876,
				"y": -0.4629257928,
				"z": 1.7417457389,
				"element": "C" 
			},
			{
				"x": 0.6927255853,
				"y": -1.110205021,
				"z": 2.8128227933,
				"element": "C" 
			},
			{
				"x": -0.0396281468,
				"y": -0.3755620165,
				"z": 3.7530267099,
				"element": "C" 
			},
			{
				"x": -0.6177813226,
				"y": -1.0677895919,
				"z": 4.7822013112,
				"element": "O" 
			},
			{
				"x": -0.1538148327,
				"y": 1.0117771374,
				"z": 3.6168920707,
				"element": "C" 
			},
			{
				"x": 0.463036574,
				"y": 1.6596806966,
				"z": 2.5454154008,
				"element": "C" 
			},
			{
				"x": -0.3621116743,
				"y": -0.7906495047,
				"z": -3.2592605687,
				"element": "H" 
			},
			{
				"x": -0.5221625631,
				"y": 0.5729129533,
				"z": -4.414298777,
				"element": "H" 
			},
			{
				"x": 1.0839674041,
				"y": -0.1485179223,
				"z": -4.0696936029,
				"element": "H" 
			},
			{
				"x": 1.5589127563,
				"y": 2.7318929797,
				"z": -1.0675642837,
				"element": "H" 
			},
			{
				"x": 0.0568635333,
				"y": 2.1916778513,
				"z": -0.306807959,
				"element": "H" 
			},
			{
				"x": 1.8631086256,
				"y": -1.0130754527,
				"z": 0.9953617298,
				"element": "H" 
			},
			{
				"x": 0.7723967646,
				"y": -2.1852381394,
				"z": 2.9362232735,
				"element": "H" 
			},
			{
				"x": -1.0808828163,
				"y": -0.4470468968,
				"z": 5.3590918778,
				"element": "H" 
			},
			{
				"x": -0.7143839445,
				"y": 1.5880024863,
				"z": 4.3502631367,
				"element": "H" 
			},
			{
				"x": 0.3980531322,
				"y": 2.7387726609,
				"z": 2.4434762031,
				"element": "H" 
			}
		],
		 "valence_orbital": [ 
			{
				"type": "occ",
				"energy": -0.30737,
				"method": "rhf"
			},
			{
				"type": "occ",
				"energy": -0.29013,
				"method": "rhf"
			},
			{
				"type": "occ",
				"energy": -0.26737,
				"method": "rhf"
			},
			{
				"type": "occ",
				"energy": -0.25057,
				"method": "rhf"
			},
			{
				"type": "occ",
				"energy": -0.21276,
				"method": "rhf"
			},
			{
				"type": "unocc",
				"energy": -0.00276,
				"method": "rhf"
			},
			{
				"type": "unocc",
				"energy": 0.00867,
				"method": "rhf"
			},
			{
				"type": "unocc",
				"energy": 0.01902,
				"method": "rhf"
			},
			{
				"type": "unocc",
				"energy": 0.07107,
				"method": "rhf"
			},
			{
				"type": "unocc",
				"energy": 0.0971,
				"method": "rhf"
			}
		],
		"cosmo_sigma_profile": { 
			"-0.025": 0.0,
			"-0.024": 0.0,
			"-0.023": 0.0,
			"-0.022": 0.0,
			"-0.021": 0.0,
			"-0.02": 0.0,
			"-0.019": 0.0,
			"-0.018": 0.276588092806,
			"-0.017": 1.15113227643,
			"-0.016": 1.2189298755,
			"-0.015": 0.991139917211,
			"-0.014": 1.20021659013,
			"-0.013": 0.564138147622,
			"-0.012": 0.728477401001,
			"-0.011": 1.0838844232,
			"-0.01": 1.67971210773,
			"-0.009": 0.961029623453,
			"-0.008": 2.69810269759,
			"-0.007": 6.85371510085,
			"-0.006": 15.3565183328,
			"-0.005": 17.660514879,
			"-0.004": 19.401014837,
			"-0.003": 17.1948707219,
			"-0.002": 12.0198829127,
			"-0.001": 10.0331306309,
			"0.0": 9.25337556257,
			"0.001": 9.25262276266,
			"0.002": 9.79407421041,
			"0.003": 10.8924705784,
			"0.004": 18.2677002651,
			"0.005": 15.5671940578,
			"0.006": 6.55338825007,
			"0.007": 4.61356216449,
			"0.008": 5.40516988495,
			"0.009": 4.58952421248,
			"0.01": 5.74413372729,
			"0.011": 7.70807673979,
			"0.012": 2.41223087115,
			"0.013": 0.0,
			"0.014": 0.0,
			"0.015": 0.0,
			"0.016": 0.0,
			"0.017": 0.0,
			"0.018": 0.0,
			"0.019": 0.0,
			"0.02": 0.0,
			"0.021": 0.0,
			"0.022": 0.0,
			"0.023": 0.0,
			"0.024": 0.0,
			"0.025": 0.0
		}
	}
}
