{
	 "smiles": "NC1=C(C(N)=C(C(N)=C1[N+]([O-])=O)[N+]([O-])=O)[N+]([O-])=O", 
	 "Tm": 623.15, 
	 "num_atms": 24, 
	 "gaussian": { 
		 "optdone": 1, 
		 "sigma_profile": "yes", 
		 "theory": "DFT", 
		 "functional": "B3LYP", 
		 "basiset": "6-31G**", 
		 "properties": { 
			 "R2extent": 4288.395, 
			 "electric_dipole_moment_norm": 0.00300333148354, 
			 "electric_quadrupole_moment_norm": 9.61912478399, 
			 "total_energy": -1011.83794566, 
			 "HOMO_LUMO_gap": 0.16262, 
			 "cosmo_polarized_energy": -15.42, 
			 "cosmo_cavitation_energy": 27.99, 
			 "cosmo_dispersion_energy": -22.8, 
			 "cosmo_repulsion_energy": 1.69, 
			 "cosmo_total_nonelectrostatic_energy": 6.89, 
			 "SMD_solvation_energy": 9.45 
		},
		"coords": [
			{
				"x": 0.5358596632,
				"y": -1.1488767284,
				"z": -2.2484472513,
				"element": "N" 
			},
			{
				"x": 0.214851394,
				"y": -0.6012664217,
				"z": -1.0833228317,
				"element": "C" 
			},
			{
				"x": -1.0224608135,
				"y": 0.1323867379,
				"z": -0.9333158427,
				"element": "C" 
			},
			{
				"x": -1.3828043083,
				"y": 0.7338987543,
				"z": 0.3316055343,
				"element": "C" 
			},
			{
				"x": -2.5205845755,
				"y": 1.4045418807,
				"z": 0.4582999852,
				"element": "N" 
			},
			{
				"x": -0.4844546043,
				"y": 0.5935849753,
				"z": 1.4563346529,
				"element": "C" 
			},
			{
				"x": 0.7583348422,
				"y": -0.1352534335,
				"z": 1.3301645755,
				"element": "C" 
			},
			{
				"x": 1.5756142941,
				"y": -0.2575640767,
				"z": 2.3682146375,
				"element": "N" 
			},
			{
				"x": 1.0971633692,
				"y": -0.7288573818,
				"z": 0.0555355407,
				"element": "C" 
			},
			{
				"x": 2.3250978332,
				"y": -1.4538798663,
				"z": -0.0810391117,
				"element": "N" 
			},
			{
				"x": 3.1053849564,
				"y": -1.5796404658,
				"z": 0.8866733515,
				"element": "O" 
			},
			{
				"x": 2.6423176214,
				"y": -1.9762656741,
				"z": -1.1708000002,
				"element": "O" 
			},
			{
				"x": -0.8307039395,
				"y": 1.1857334311,
				"z": 2.7140737321,
				"element": "N" 
			},
			{
				"x": -1.8985439269,
				"y": 1.8197652334,
				"z": 2.8508535054,
				"element": "O" 
			},
			{
				"x": -0.0723584324,
				"y": 1.080677567,
				"z": 3.7014379713,
				"element": "O" 
			},
			{
				"x": -1.9042146429,
				"y": 0.265517831,
				"z": -2.0545221392,
				"element": "N" 
			},
			{
				"x": -2.9788582802,
				"y": 0.8946245943,
				"z": -1.952693134,
				"element": "O" 
			},
			{
				"x": -1.6175706543,
				"y": -0.2446701973,
				"z": -3.1584496433,
				"element": "O" 
			},
			{
				"x": -0.1269407772,
				"y": -1.0227243475,
				"z": -3.0086604355,
				"element": "H" 
			},
			{
				"x": 1.4188455531,
				"y": -1.6508028678,
				"z": -2.2875736965,
				"element": "H" 
			},
			{
				"x": -2.7148892709,
				"y": 1.8025827266,
				"z": 1.3731175758,
				"element": "H" 
			},
			{
				"x": -3.1067510944,
				"y": 1.4671640404,
				"z": -0.3696887296,
				"element": "H" 
			},
			{
				"x": 1.2796335708,
				"y": 0.182970897,
				"z": 3.2350559966,
				"element": "H" 
			},
			{
				"x": 2.4324322226,
				"y": -0.7820472078,
				"z": 2.2135457568,
				"element": "H" 
			}
		],
		 "valence_orbital": [ 
			{
				"type": "occ",
				"energy": -0.31183,
				"method": "rhf"
			},
			{
				"type": "occ",
				"energy": -0.29359,
				"method": "rhf"
			},
			{
				"type": "occ",
				"energy": -0.29124,
				"method": "rhf"
			},
			{
				"type": "occ",
				"energy": -0.26573,
				"method": "rhf"
			},
			{
				"type": "occ",
				"energy": -0.26573,
				"method": "rhf"
			},
			{
				"type": "unocc",
				"energy": -0.10311,
				"method": "rhf"
			},
			{
				"type": "unocc",
				"energy": -0.09616,
				"method": "rhf"
			},
			{
				"type": "unocc",
				"energy": -0.09616,
				"method": "rhf"
			},
			{
				"type": "unocc",
				"energy": -0.00326,
				"method": "rhf"
			},
			{
				"type": "unocc",
				"energy": -0.00325,
				"method": "rhf"
			}
		],
		"cosmo_sigma_profile": { 
			"-0.025": 0.0,
			"-0.024": 0.0,
			"-0.023": 0.0,
			"-0.022": 0.0,
			"-0.021": 0.0,
			"-0.02": 0.0,
			"-0.019": 0.0,
			"-0.018": 0.0,
			"-0.017": 0.0,
			"-0.016": 0.0,
			"-0.015": 0.0,
			"-0.014": 0.0,
			"-0.013": 0.0,
			"-0.012": 0.0,
			"-0.011": 2.30644909398,
			"-0.01": 5.03580805096,
			"-0.009": 5.76842675375,
			"-0.008": 4.10489825853,
			"-0.007": 4.10458101582,
			"-0.006": 12.0828557153,
			"-0.005": 20.1666206397,
			"-0.004": 23.2838682562,
			"-0.003": 23.3250718886,
			"-0.002": 15.251289015,
			"-0.001": 12.1985481065,
			"0.0": 10.7270789184,
			"0.001": 8.21413333324,
			"0.002": 5.45149731596,
			"0.003": 5.23353808419,
			"0.004": 7.46201968938,
			"0.005": 6.81136605699,
			"0.006": 8.58887198616,
			"0.007": 9.03860562488,
			"0.008": 10.2816187706,
			"0.009": 9.53356187231,
			"0.01": 10.027234405,
			"0.011": 7.19299591758,
			"0.012": 0.108719846965,
			"0.013": 0.0,
			"0.014": 0.0,
			"0.015": 0.0,
			"0.016": 0.0,
			"0.017": 0.0,
			"0.018": 0.0,
			"0.019": 0.0,
			"0.02": 0.0,
			"0.021": 0.0,
			"0.022": 0.0,
			"0.023": 0.0,
			"0.024": 0.0,
			"0.025": 0.0
		}
	}
}
