{
	 "smiles": "OC1=CC=C(C=C1)C#N", 
	 "Tm": 385.15, 
	 "num_atms": 14, 
	 "gaussian": { 
		 "optdone": 1, 
		 "sigma_profile": "yes", 
		 "theory": "DFT", 
		 "functional": "B3LYP", 
		 "basiset": "6-31G**", 
		 "properties": { 
			 "R2extent": 1580.0585, 
			 "electric_dipole_moment_norm": 5.20374058731, 
			 "electric_quadrupole_moment_norm": 19.4913939283, 
			 "total_energy": -399.71331823, 
			 "HOMO_LUMO_gap": 0.20231, 
			 "cosmo_polarized_energy": -13.6, 
			 "cosmo_cavitation_energy": 19.61, 
			 "cosmo_dispersion_energy": -14.09, 
			 "cosmo_repulsion_energy": 1.16, 
			 "cosmo_total_nonelectrostatic_energy": 6.69, 
			 "SMD_solvation_energy": 5.27 
		},
		"coords": [
			{
				"x": -2.757256289,
				"y": -1.9515534921,
				"z": -0.3828596512,
				"element": "O" 
			},
			{
				"x": -2.0065743443,
				"y": -0.8212337679,
				"z": -0.3085378168,
				"element": "C" 
			},
			{
				"x": -1.8905026541,
				"y": 0.0826285466,
				"z": -1.3732769636,
				"element": "C" 
			},
			{
				"x": -1.1065009759,
				"y": 1.2219931578,
				"z": -1.2349515158,
				"element": "C" 
			},
			{
				"x": -0.4279289883,
				"y": 1.4736066832,
				"z": -0.0309579726,
				"element": "C" 
			},
			{
				"x": -0.5507022575,
				"y": 0.5597242282,
				"z": 1.0330009662,
				"element": "C" 
			},
			{
				"x": -1.332604241,
				"y": -0.5776824469,
				"z": 0.8966442228,
				"element": "C" 
			},
			{
				"x": 0.3794974504,
				"y": 2.6471028454,
				"z": 0.111368657,
				"element": "C" 
			},
			{
				"x": 1.035796624,
				"y": 3.6014188833,
				"z": 0.2264065838,
				"element": "N" 
			},
			{
				"x": -3.1705256684,
				"y": -2.0110007075,
				"z": -1.2544386442,
				"element": "H" 
			},
			{
				"x": -2.4133146479,
				"y": -0.1065279292,
				"z": -2.3078945038,
				"element": "H" 
			},
			{
				"x": -1.0157194102,
				"y": 1.9224942631,
				"z": -2.0582933981,
				"element": "H" 
			},
			{
				"x": -0.0279671531,
				"y": 0.7510898831,
				"z": 1.9641489173,
				"element": "H" 
			},
			{
				"x": -1.4361974447,
				"y": -1.290060147,
				"z": 1.7077411191,
				"element": "H" 
			}
		],
		 "valence_orbital": [ 
			{
				"type": "occ",
				"energy": -0.35254,
				"method": "rhf"
			},
			{
				"type": "occ",
				"energy": -0.32682,
				"method": "rhf"
			},
			{
				"type": "occ",
				"energy": -0.32525,
				"method": "rhf"
			},
			{
				"type": "occ",
				"energy": -0.27912,
				"method": "rhf"
			},
			{
				"type": "occ",
				"energy": -0.24237,
				"method": "rhf"
			},
			{
				"type": "unocc",
				"energy": -0.04006,
				"method": "rhf"
			},
			{
				"type": "unocc",
				"energy": -0.02684,
				"method": "rhf"
			},
			{
				"type": "unocc",
				"energy": 0.04015,
				"method": "rhf"
			},
			{
				"type": "unocc",
				"energy": 0.05224,
				"method": "rhf"
			},
			{
				"type": "unocc",
				"energy": 0.07704,
				"method": "rhf"
			}
		],
		"cosmo_sigma_profile": { 
			"-0.025": 0.0,
			"-0.024": 0.0,
			"-0.023": 0.0,
			"-0.022": 0.0,
			"-0.021": 0.0,
			"-0.02": 0.0,
			"-0.019": 0.320744036346,
			"-0.018": 1.19315812151,
			"-0.017": 1.33748249716,
			"-0.016": 1.00898516989,
			"-0.015": 1.0091851228,
			"-0.014": 1.02564797067,
			"-0.013": 0.975586968113,
			"-0.012": 1.12528936081,
			"-0.011": 1.01204965918,
			"-0.01": 1.13151382707,
			"-0.009": 1.18566434964,
			"-0.008": 4.3484134265,
			"-0.007": 8.45678826537,
			"-0.006": 9.35446001086,
			"-0.005": 6.68413602997,
			"-0.004": 6.79561491503,
			"-0.003": 6.18887277158,
			"-0.002": 7.1999674883,
			"-0.001": 7.47507054358,
			"0.0": 12.227788278,
			"0.001": 11.5627945798,
			"0.002": 16.5123406723,
			"0.003": 11.8198220239,
			"0.004": 3.46073387197,
			"0.005": 3.15183982738,
			"0.006": 4.71186467439,
			"0.007": 3.64366417306,
			"0.008": 4.35905954781,
			"0.009": 5.14800596351,
			"0.01": 5.18933993115,
			"0.011": 3.64778981036,
			"0.012": 2.45880469098,
			"0.013": 2.28037573731,
			"0.014": 0.492318771704,
			"0.015": 0.0,
			"0.016": 0.0,
			"0.017": 0.0,
			"0.018": 0.0,
			"0.019": 0.0,
			"0.02": 0.0,
			"0.021": 0.0,
			"0.022": 0.0,
			"0.023": 0.0,
			"0.024": 0.0,
			"0.025": 0.0
		}
	}
}
