{
	 "smiles": "FC1=CC=C(C=C1)C1C(=O)C2=C(C=CC=C2)C1=O", 
	 "Tm": 393.15, 
	 "num_atms": 27, 
	 "gaussian": { 
		 "optdone": 1, 
		 "sigma_profile": "yes", 
		 "theory": "DFT", 
		 "functional": "B3LYP", 
		 "basiset": "6-31G**", 
		 "properties": { 
			 "R2extent": 5307.7632, 
			 "electric_dipole_moment_norm": 4.40378131155, 
			 "electric_quadrupole_moment_norm": 9.55633797592, 
			 "total_energy": -827.301492925, 
			 "HOMO_LUMO_gap": 0.14898, 
			 "cosmo_polarized_energy": -11.59, 
			 "cosmo_cavitation_energy": 32.49, 
			 "cosmo_dispersion_energy": -23.25, 
			 "cosmo_repulsion_energy": 1.73, 
			 "cosmo_total_nonelectrostatic_energy": 10.97, 
			 "SMD_solvation_energy": 6.75 
		},
		"coords": [
			{
				"x": -3.0297156749,
				"y": -4.3953382153,
				"z": -1.8836933508,
				"element": "F" 
			},
			{
				"x": -2.5529047856,
				"y": -3.182970911,
				"z": -1.5291961485,
				"element": "C" 
			},
			{
				"x": -1.1966121176,
				"y": -2.9218956435,
				"z": -1.6685737823,
				"element": "C" 
			},
			{
				"x": -0.7086073858,
				"y": -1.6661582024,
				"z": -1.3022922714,
				"element": "C" 
			},
			{
				"x": -1.5685178164,
				"y": -0.6811098338,
				"z": -0.8003637477,
				"element": "C" 
			},
			{
				"x": -2.9356594176,
				"y": -0.9767922762,
				"z": -0.6782629977,
				"element": "C" 
			},
			{
				"x": -3.4347256712,
				"y": -2.2267594814,
				"z": -1.0385665743,
				"element": "C" 
			},
			{
				"x": -1.0797458107,
				"y": 0.699117017,
				"z": -0.3770945361,
				"element": "C" 
			},
			{
				"x": 0.4289540698,
				"y": 0.9881000002,
				"z": -0.5103376389,
				"element": "C" 
			},
			{
				"x": 1.1139513965,
				"y": 0.8202462786,
				"z": -1.5014008523,
				"element": "O" 
			},
			{
				"x": 0.906978245,
				"y": 1.5356622749,
				"z": 0.7879350899,
				"element": "C" 
			},
			{
				"x": -0.1381880908,
				"y": 1.5687026425,
				"z": 1.7168141982,
				"element": "C" 
			},
			{
				"x": 0.0621626509,
				"y": 2.0423364143,
				"z": 3.0141017467,
				"element": "C" 
			},
			{
				"x": 1.3413294289,
				"y": 2.480480738,
				"z": 3.3561240115,
				"element": "C" 
			},
			{
				"x": 2.3925902838,
				"y": 2.4480399147,
				"z": 2.4216981007,
				"element": "C" 
			},
			{
				"x": 2.1874040857,
				"y": 1.976127352,
				"z": 1.1254404116,
				"element": "C" 
			},
			{
				"x": -1.3900608151,
				"y": 1.0564356575,
				"z": 1.0997289026,
				"element": "C" 
			},
			{
				"x": -2.4683647657,
				"y": 0.9595979744,
				"z": 1.6507614145,
				"element": "O" 
			},
			{
				"x": -0.5393300059,
				"y": -3.6900792284,
				"z": -2.061409245,
				"element": "H" 
			},
			{
				"x": 0.3456264168,
				"y": -1.4543835329,
				"z": -1.4329143666,
				"element": "H" 
			},
			{
				"x": -3.6097005734,
				"y": -0.2284793895,
				"z": -0.276621762,
				"element": "H" 
			},
			{
				"x": -4.4887586269,
				"y": -2.4648532158,
				"z": -0.9449170743,
				"element": "H" 
			},
			{
				"x": -1.5964477117,
				"y": 1.4539915321,
				"z": -0.9902367401,
				"element": "H" 
			},
			{
				"x": -0.7589419214,
				"y": 2.0622130169,
				"z": 3.7235533502,
				"element": "H" 
			},
			{
				"x": 1.5337447403,
				"y": 2.8534296781,
				"z": 4.3578685698,
				"element": "H" 
			},
			{
				"x": 3.3772277303,
				"y": 2.7966886912,
				"z": 2.719259245,
				"element": "H" 
			},
			{
				"x": 2.9882121427,
				"y": 1.9451507478,
				"z": 0.3934960473,
				"element": "H" 
			}
		],
		 "valence_orbital": [ 
			{
				"type": "occ",
				"energy": -0.28299,
				"method": "rhf"
			},
			{
				"type": "occ",
				"energy": -0.28051,
				"method": "rhf"
			},
			{
				"type": "occ",
				"energy": -0.25594,
				"method": "rhf"
			},
			{
				"type": "occ",
				"energy": -0.25394,
				"method": "rhf"
			},
			{
				"type": "occ",
				"energy": -0.23542,
				"method": "rhf"
			},
			{
				"type": "unocc",
				"energy": -0.08644,
				"method": "rhf"
			},
			{
				"type": "unocc",
				"energy": -0.06777,
				"method": "rhf"
			},
			{
				"type": "unocc",
				"energy": -0.00813,
				"method": "rhf"
			},
			{
				"type": "unocc",
				"energy": 0.00048,
				"method": "rhf"
			},
			{
				"type": "unocc",
				"energy": 0.02239,
				"method": "rhf"
			}
		],
		"cosmo_sigma_profile": { 
			"-0.025": 0.0,
			"-0.024": 0.0,
			"-0.023": 0.0,
			"-0.022": 0.0,
			"-0.021": 0.0,
			"-0.02": 0.0,
			"-0.019": 0.0,
			"-0.018": 0.0,
			"-0.017": 0.0,
			"-0.016": 0.0,
			"-0.015": 0.0,
			"-0.014": 0.0,
			"-0.013": 0.0,
			"-0.012": 0.0,
			"-0.011": 0.0,
			"-0.01": 0.515224777626,
			"-0.009": 2.93551564273,
			"-0.008": 5.56170948661,
			"-0.007": 13.8265106064,
			"-0.006": 16.8032070243,
			"-0.005": 16.4506810367,
			"-0.004": 16.7321956926,
			"-0.003": 14.247542594,
			"-0.002": 14.7968001265,
			"-0.001": 16.0364708646,
			"0.0": 20.3025282063,
			"0.001": 27.0347308965,
			"0.002": 21.4905123061,
			"0.003": 14.7750651489,
			"0.004": 23.0763167469,
			"0.005": 8.92817562507,
			"0.006": 3.61991850971,
			"0.007": 3.47671733477,
			"0.008": 3.50375036832,
			"0.009": 4.28269075459,
			"0.01": 5.81839069145,
			"0.011": 6.81894103881,
			"0.012": 1.1948284405,
			"0.013": 0.0,
			"0.014": 0.0,
			"0.015": 0.0,
			"0.016": 0.0,
			"0.017": 0.0,
			"0.018": 0.0,
			"0.019": 0.0,
			"0.02": 0.0,
			"0.021": 0.0,
			"0.022": 0.0,
			"0.023": 0.0,
			"0.024": 0.0,
			"0.025": 0.0
		}
	}
}
