{
	 "smiles": "O=C=NC1=CC=CS1", 
	 "Tm": 382.15, 
	 "num_atms": 11, 
	 "gaussian": { 
		 "optdone": 1, 
		 "sigma_profile": "yes", 
		 "theory": "DFT", 
		 "functional": "B3LYP", 
		 "basiset": "6-31G**", 
		 "properties": { 
			 "R2extent": 1786.4811, 
			 "electric_dipole_moment_norm": 2.41203292059, 
			 "electric_quadrupole_moment_norm": 4.70118973027, 
			 "total_energy": -720.476451946, 
			 "HOMO_LUMO_gap": 0.19271, 
			 "cosmo_polarized_energy": -4.58, 
			 "cosmo_cavitation_energy": 18.46, 
			 "cosmo_dispersion_energy": -14.0, 
			 "cosmo_repulsion_energy": 1.12, 
			 "cosmo_total_nonelectrostatic_energy": 5.58, 
			 "SMD_solvation_energy": 5.8 
		},
		"coords": [
			{
				"x": 2.7448135975,
				"y": 3.0432863821,
				"z": -1.4589415491,
				"element": "O" 
			},
			{
				"x": 1.8077322962,
				"y": 2.3323567428,
				"z": -1.5276068698,
				"element": "C" 
			},
			{
				"x": 0.776069424,
				"y": 1.7130359755,
				"z": -1.6401254646,
				"element": "N" 
			},
			{
				"x": 0.2387432858,
				"y": 0.4550462379,
				"z": -1.4878392224,
				"element": "C" 
			},
			{
				"x": 0.8356581608,
				"y": -0.712630301,
				"z": -1.0779018959,
				"element": "C" 
			},
			{
				"x": -0.0779471255,
				"y": -1.8071457814,
				"z": -1.0548866013,
				"element": "C" 
			},
			{
				"x": -1.3431631021,
				"y": -1.4624415701,
				"z": -1.4426774363,
				"element": "C" 
			},
			{
				"x": -1.4570954638,
				"y": 0.2208087776,
				"z": -1.8507698635,
				"element": "S" 
			},
			{
				"x": 1.8827769769,
				"y": -0.7776954436,
				"z": -0.8064673358,
				"element": "H" 
			},
			{
				"x": 0.2002708621,
				"y": -2.8123507642,
				"z": -0.7598898969,
				"element": "H" 
			},
			{
				"x": -2.2182589119,
				"y": -2.0925702555,
				"z": -1.5149938643,
				"element": "H" 
			}
		],
		 "valence_orbital": [ 
			{
				"type": "occ",
				"energy": -0.35743,
				"method": "rhf"
			},
			{
				"type": "occ",
				"energy": -0.33183,
				"method": "rhf"
			},
			{
				"type": "occ",
				"energy": -0.31412,
				"method": "rhf"
			},
			{
				"type": "occ",
				"energy": -0.26286,
				"method": "rhf"
			},
			{
				"type": "occ",
				"energy": -0.22553,
				"method": "rhf"
			},
			{
				"type": "unocc",
				"energy": -0.03282,
				"method": "rhf"
			},
			{
				"type": "unocc",
				"energy": 0.00881,
				"method": "rhf"
			},
			{
				"type": "unocc",
				"energy": 0.01804,
				"method": "rhf"
			},
			{
				"type": "unocc",
				"energy": 0.03972,
				"method": "rhf"
			},
			{
				"type": "unocc",
				"energy": 0.09026,
				"method": "rhf"
			}
		],
		"cosmo_sigma_profile": { 
			"-0.025": 0.0,
			"-0.024": 0.0,
			"-0.023": 0.0,
			"-0.022": 0.0,
			"-0.021": 0.0,
			"-0.02": 0.0,
			"-0.019": 0.0,
			"-0.018": 0.0,
			"-0.017": 0.0,
			"-0.016": 0.0,
			"-0.015": 0.0,
			"-0.014": 0.0,
			"-0.013": 0.0,
			"-0.012": 0.0,
			"-0.011": 0.0,
			"-0.01": 0.0,
			"-0.009": 0.742774766012,
			"-0.008": 4.34581788078,
			"-0.007": 6.67142092444,
			"-0.006": 6.4820692293,
			"-0.005": 8.08951411061,
			"-0.004": 8.11511586077,
			"-0.003": 11.4711462976,
			"-0.002": 8.89001752587,
			"-0.001": 10.0209729923,
			"0.0": 11.1827193186,
			"0.001": 13.8994562444,
			"0.002": 15.5319570298,
			"0.003": 15.0881207709,
			"0.004": 13.5380992645,
			"0.005": 6.15635839005,
			"0.006": 3.43313431154,
			"0.007": 7.41033513878,
			"0.008": 1.61452959674,
			"0.009": 0.0,
			"0.01": 0.0,
			"0.011": 0.0,
			"0.012": 0.0,
			"0.013": 0.0,
			"0.014": 0.0,
			"0.015": 0.0,
			"0.016": 0.0,
			"0.017": 0.0,
			"0.018": 0.0,
			"0.019": 0.0,
			"0.02": 0.0,
			"0.021": 0.0,
			"0.022": 0.0,
			"0.023": 0.0,
			"0.024": 0.0,
			"0.025": 0.0
		}
	}
}
