{
	 "smiles": "COC1=CC(CC2=NN=C(N)S2)=CC=C1", 
	 "Tm": 378.15, 
	 "num_atms": 26, 
	 "gaussian": { 
		 "optdone": 1, 
		 "sigma_profile": "yes", 
		 "theory": "DFT", 
		 "functional": "B3LYP", 
		 "basiset": "6-31G**", 
		 "properties": { 
			 "R2extent": 4517.2375, 
			 "electric_dipole_moment_norm": 2.59185885611, 
			 "electric_quadrupole_moment_norm": 16.0782304185, 
			 "total_energy": -1025.32381577, 
			 "HOMO_LUMO_gap": 0.19779, 
			 "cosmo_polarized_energy": -16.65, 
			 "cosmo_cavitation_energy": 32.31, 
			 "cosmo_dispersion_energy": -23.25, 
			 "cosmo_repulsion_energy": 1.81, 
			 "cosmo_total_nonelectrostatic_energy": 10.87, 
			 "SMD_solvation_energy": 3.81 
		},
		"coords": [
			{
				"x": 0.3016724606,
				"y": 2.666264343,
				"z": -1.4010839964,
				"element": "C" 
			},
			{
				"x": 1.4981307016,
				"y": 2.0001729329,
				"z": -1.7751488731,
				"element": "O" 
			},
			{
				"x": 1.8835300008,
				"y": 0.9098162502,
				"z": -1.0509587325,
				"element": "C" 
			},
			{
				"x": 1.1783091937,
				"y": 0.3959583877,
				"z": 0.040353112,
				"element": "C" 
			},
			{
				"x": 1.6623344334,
				"y": -0.7323370713,
				"z": 0.7211114874,
				"element": "C" 
			},
			{
				"x": 0.8880711074,
				"y": -1.2672417932,
				"z": 1.9180736162,
				"element": "C" 
			},
			{
				"x": -0.5308367549,
				"y": -1.6446347353,
				"z": 1.5997253456,
				"element": "C" 
			},
			{
				"x": -1.5622382858,
				"y": -0.9357490667,
				"z": 1.9386520684,
				"element": "N" 
			},
			{
				"x": -2.7610481571,
				"y": -1.4342373762,
				"z": 1.497748623,
				"element": "N" 
			},
			{
				"x": -2.6243168542,
				"y": -2.5466752079,
				"z": 0.8278297614,
				"element": "C" 
			},
			{
				"x": -3.6874436862,
				"y": -3.2813830769,
				"z": 0.3580928236,
				"element": "N" 
			},
			{
				"x": -0.9568561659,
				"y": -3.0908681861,
				"z": 0.6643718586,
				"element": "S" 
			},
			{
				"x": 2.8457845028,
				"y": -1.3408637035,
				"z": 0.3036968187,
				"element": "C" 
			},
			{
				"x": 3.5476140758,
				"y": -0.8206262383,
				"z": -0.7908211376,
				"element": "C" 
			},
			{
				"x": 3.0762264362,
				"y": 0.2954243286,
				"z": -1.4679819598,
				"element": "C" 
			},
			{
				"x": -0.5712079634,
				"y": 2.0054456037,
				"z": -1.4767490123,
				"element": "H" 
			},
			{
				"x": 0.1871221919,
				"y": 3.4950206089,
				"z": -2.101505481,
				"element": "H" 
			},
			{
				"x": 0.3607550616,
				"y": 3.0624306546,
				"z": -0.3793288264,
				"element": "H" 
			},
			{
				"x": 0.2523072638,
				"y": 0.8499090788,
				"z": 0.374868583,
				"element": "H" 
			},
			{
				"x": 1.4182818041,
				"y": -2.1245760995,
				"z": 2.3459447428,
				"element": "H" 
			},
			{
				"x": 0.8233670606,
				"y": -0.5019805747,
				"z": 2.6993684286,
				"element": "H" 
			},
			{
				"x": -3.5488035952,
				"y": -3.7801311728,
				"z": -0.509192485,
				"element": "H" 
			},
			{
				"x": -4.5595968187,
				"y": -2.7686854526,
				"z": 0.399534786,
				"element": "H" 
			},
			{
				"x": 3.2232638436,
				"y": -2.2133781513,
				"z": 0.8296607477,
				"element": "H" 
			},
			{
				"x": 4.4699423716,
				"y": -1.293889777,
				"z": -1.1156504812,
				"element": "H" 
			},
			{
				"x": 3.6055357719,
				"y": 0.7129154949,
				"z": -2.3181118179,
				"element": "H" 
			}
		],
		 "valence_orbital": [ 
			{
				"type": "occ",
				"energy": -0.2853,
				"method": "rhf"
			},
			{
				"type": "occ",
				"energy": -0.25739,
				"method": "rhf"
			},
			{
				"type": "occ",
				"energy": -0.24637,
				"method": "rhf"
			},
			{
				"type": "occ",
				"energy": -0.22966,
				"method": "rhf"
			},
			{
				"type": "occ",
				"energy": -0.21807,
				"method": "rhf"
			},
			{
				"type": "unocc",
				"energy": -0.02028,
				"method": "rhf"
			},
			{
				"type": "unocc",
				"energy": -0.00542,
				"method": "rhf"
			},
			{
				"type": "unocc",
				"energy": 0.00342,
				"method": "rhf"
			},
			{
				"type": "unocc",
				"energy": 0.01512,
				"method": "rhf"
			},
			{
				"type": "unocc",
				"energy": 0.04868,
				"method": "rhf"
			}
		],
		"cosmo_sigma_profile": { 
			"-0.025": 0.0,
			"-0.024": 0.0,
			"-0.023": 0.0,
			"-0.022": 0.0,
			"-0.021": 0.0,
			"-0.02": 0.0,
			"-0.019": 0.0,
			"-0.018": 0.0,
			"-0.017": 0.0,
			"-0.016": 0.0,
			"-0.015": 0.919897376022,
			"-0.014": 2.47851036152,
			"-0.013": 2.75391894638,
			"-0.012": 2.81201959807,
			"-0.011": 2.91575331252,
			"-0.01": 2.21752514567,
			"-0.009": 1.45847083035,
			"-0.008": 2.37345492611,
			"-0.007": 2.49387234167,
			"-0.006": 12.1849428152,
			"-0.005": 22.150944929,
			"-0.004": 20.4333022844,
			"-0.003": 21.6577869325,
			"-0.002": 16.634912044,
			"-0.001": 14.2090280167,
			"0.0": 15.5202117362,
			"0.001": 16.7982406964,
			"0.002": 16.2504269514,
			"0.003": 16.0819952999,
			"0.004": 14.4280718421,
			"0.005": 13.9451153714,
			"0.006": 9.04902267424,
			"0.007": 3.18028412251,
			"0.008": 4.24468184157,
			"0.009": 4.20386411985,
			"0.01": 3.44010873194,
			"0.011": 3.64762747445,
			"0.012": 2.96497293405,
			"0.013": 3.39954603796,
			"0.014": 2.38949956093,
			"0.015": 1.76364883349,
			"0.016": 0.39372117243,
			"0.017": 0.0,
			"0.018": 0.0,
			"0.019": 0.0,
			"0.02": 0.0,
			"0.021": 0.0,
			"0.022": 0.0,
			"0.023": 0.0,
			"0.024": 0.0,
			"0.025": 0.0
		}
	}
}
