{
	 "smiles": "OC(=O)C1=CC(=C(Br)C(F)=C1)S(Cl)(=O)=O", 
	 "Tm": 487.15, 
	 "num_atms": 18, 
	 "gaussian": { 
		 "optdone": 1, 
		 "sigma_profile": "yes", 
		 "theory": "DFT", 
		 "functional": "B3LYP", 
		 "basiset": "6-31G**", 
		 "properties": { 
			 "R2extent": 6651.7141, 
			 "electric_dipole_moment_norm": 5.03372623113, 
			 "electric_quadrupole_moment_norm": 8.26581894067, 
			 "total_energy": -4098.97630059, 
			 "HOMO_LUMO_gap": 0.18589, 
			 "cosmo_polarized_energy": -19.08, 
			 "cosmo_cavitation_energy": 29.63, 
			 "cosmo_dispersion_energy": -22.21, 
			 "cosmo_repulsion_energy": 1.65, 
			 "cosmo_total_nonelectrostatic_energy": 9.08, 
			 "SMD_solvation_energy": 4.57 
		},
		"coords": [
			{
				"x": 2.6519931231,
				"y": 1.0977365868,
				"z": 1.8898369155,
				"element": "O" 
			},
			{
				"x": 2.2071649522,
				"y": 1.5961386132,
				"z": 0.7108261905,
				"element": "C" 
			},
			{
				"x": 2.723829427,
				"y": 2.5693612848,
				"z": 0.2200677774,
				"element": "O" 
			},
			{
				"x": 1.0592892435,
				"y": 0.876559688,
				"z": 0.0557369807,
				"element": "C" 
			},
			{
				"x": 0.3308265882,
				"y": 1.5844542162,
				"z": -0.9076388988,
				"element": "C" 
			},
			{
				"x": -0.7361249197,
				"y": 0.9791189516,
				"z": -1.5605225049,
				"element": "C" 
			},
			{
				"x": -1.0905920391,
				"y": -0.3549686889,
				"z": -1.2845332846,
				"element": "C" 
			},
			{
				"x": -2.5142729451,
				"y": -1.2728023801,
				"z": -2.1130692556,
				"element": "Br" 
			},
			{
				"x": -0.331100503,
				"y": -1.0453090541,
				"z": -0.3363766807,
				"element": "C" 
			},
			{
				"x": -0.6262271939,
				"y": -2.3197802052,
				"z": -0.0632074915,
				"element": "F" 
			},
			{
				"x": 0.7298584893,
				"y": -0.4513546173,
				"z": 0.3339323365,
				"element": "C" 
			},
			{
				"x": -1.7296623759,
				"y": 1.8726004971,
				"z": -2.7995848741,
				"element": "S" 
			},
			{
				"x": -0.8081388781,
				"y": 3.7855580741,
				"z": -2.8567601119,
				"element": "Cl" 
			},
			{
				"x": -3.0641688621,
				"y": 2.0833562173,
				"z": -2.2600731395,
				"element": "O" 
			},
			{
				"x": -1.4996341329,
				"y": 1.27405185,
				"z": -4.1050377965,
				"element": "O" 
			},
			{
				"x": 2.0342744206,
				"y": 0.4468079954,
				"z": 2.2504091073,
				"element": "H" 
			},
			{
				"x": 0.6244888638,
				"y": 2.6024510685,
				"z": -1.1258372383,
				"element": "H" 
			},
			{
				"x": 1.2922967417,
				"y": -1.0653800975,
				"z": 1.0302319686,
				"element": "H" 
			}
		],
		 "valence_orbital": [ 
			{
				"type": "occ",
				"energy": -0.32823,
				"method": "rhf"
			},
			{
				"type": "occ",
				"energy": -0.31888,
				"method": "rhf"
			},
			{
				"type": "occ",
				"energy": -0.31179,
				"method": "rhf"
			},
			{
				"type": "occ",
				"energy": -0.3055,
				"method": "rhf"
			},
			{
				"type": "occ",
				"energy": -0.28618,
				"method": "rhf"
			},
			{
				"type": "unocc",
				"energy": -0.10029,
				"method": "rhf"
			},
			{
				"type": "unocc",
				"energy": -0.09906,
				"method": "rhf"
			},
			{
				"type": "unocc",
				"energy": -0.06997,
				"method": "rhf"
			},
			{
				"type": "unocc",
				"energy": -0.03872,
				"method": "rhf"
			},
			{
				"type": "unocc",
				"energy": 0.00422,
				"method": "rhf"
			}
		],
		"cosmo_sigma_profile": { 
			"-0.025": 0.0,
			"-0.024": 0.0,
			"-0.023": 0.0,
			"-0.022": 0.0,
			"-0.021": 0.139344744539,
			"-0.02": 1.08012864712,
			"-0.019": 0.943047617007,
			"-0.018": 1.29788875453,
			"-0.017": 0.916010451211,
			"-0.016": 1.07960745714,
			"-0.015": 1.48443336833,
			"-0.014": 1.14101471768,
			"-0.013": 1.09105714926,
			"-0.012": 1.59452630229,
			"-0.011": 1.68064882539,
			"-0.01": 1.92908403165,
			"-0.009": 1.57366379811,
			"-0.008": 2.81512097938,
			"-0.007": 5.71192546473,
			"-0.006": 6.67325951832,
			"-0.005": 12.1903332607,
			"-0.004": 19.2673803059,
			"-0.003": 19.8270358721,
			"-0.002": 15.9723367847,
			"-0.001": 13.0453382887,
			"0.0": 13.5888244456,
			"0.001": 16.5400010559,
			"0.002": 27.2586398024,
			"0.003": 16.0616694528,
			"0.004": 6.85752385873,
			"0.005": 5.81197494533,
			"0.006": 6.03351380531,
			"0.007": 13.9482796086,
			"0.008": 11.7052267438,
			"0.009": 5.26737280445,
			"0.01": 4.90564598158,
			"0.011": 4.19366080645,
			"0.012": 1.4332079805,
			"0.013": 0.0251441717711,
			"0.014": 0.0,
			"0.015": 0.0,
			"0.016": 0.0,
			"0.017": 0.0,
			"0.018": 0.0,
			"0.019": 0.0,
			"0.02": 0.0,
			"0.021": 0.0,
			"0.022": 0.0,
			"0.023": 0.0,
			"0.024": 0.0,
			"0.025": 0.0
		}
	}
}
