{
	 "smiles": "FC1=CC(F)=CC(F)=C1", 
	 "Tm": 267.4, 
	 "num_atms": 12, 
	 "gaussian": { 
		 "optdone": 1, 
		 "sigma_profile": "yes", 
		 "theory": "DFT", 
		 "functional": "B3LYP", 
		 "basiset": "6-31G**", 
		 "properties": { 
			 "R2extent": 1656.6826, 
			 "electric_dipole_moment_norm": 0.0, 
			 "electric_quadrupole_moment_norm": 0.0421389368637, 
			 "total_energy": -529.944348412, 
			 "HOMO_LUMO_gap": 0.24686, 
			 "cosmo_polarized_energy": -2.78, 
			 "cosmo_cavitation_energy": 18.05, 
			 "cosmo_dispersion_energy": -13.02, 
			 "cosmo_repulsion_energy": 1.0, 
			 "cosmo_total_nonelectrostatic_energy": 6.03, 
			 "SMD_solvation_energy": 4.78 
		},
		"coords": [
			{
				"x": 1.3241210013,
				"y": 1.1932383931,
				"z": -2.4575542067,
				"element": "F" 
			},
			{
				"x": 1.3462322156,
				"y": 0.8779457179,
				"z": -1.1507386909,
				"element": "C" 
			},
			{
				"x": 0.684169053,
				"y": 1.7111397567,
				"z": -0.2549358902,
				"element": "C" 
			},
			{
				"x": 0.7266100315,
				"y": 1.3561815933,
				"z": 1.0893894545,
				"element": "C" 
			},
			{
				"x": 0.0964942665,
				"y": 2.1408436583,
				"z": 1.980973892,
				"element": "F" 
			},
			{
				"x": 1.3918498769,
				"y": 0.2256907806,
				"z": 1.5524895223,
				"element": "C" 
			},
			{
				"x": 2.0332629687,
				"y": -0.5642010672,
				"z": 0.6039778542,
				"element": "C" 
			},
			{
				"x": 2.6854425346,
				"y": -1.6641601433,
				"z": 1.0192074811,
				"element": "F" 
			},
			{
				"x": 2.0300968665,
				"y": -0.2669055119,
				"z": -0.754926921,
				"element": "C" 
			},
			{
				"x": 0.1590929929,
				"y": 2.5966727567,
				"z": -0.5892312193,
				"element": "H" 
			},
			{
				"x": 1.4095969799,
				"y": -0.0281590293,
				"z": 2.6045705079,
				"element": "H" 
			},
			{
				"x": 2.5374312127,
				"y": -0.8985869049,
				"z": -1.4727217838,
				"element": "H" 
			}
		],
		 "valence_orbital": [ 
			{
				"type": "occ",
				"energy": -0.39087,
				"method": "rhf"
			},
			{
				"type": "occ",
				"energy": -0.3735,
				"method": "rhf"
			},
			{
				"type": "occ",
				"energy": -0.35317,
				"method": "rhf"
			},
			{
				"type": "occ",
				"energy": -0.26066,
				"method": "rhf"
			},
			{
				"type": "occ",
				"energy": -0.26065,
				"method": "rhf"
			},
			{
				"type": "unocc",
				"energy": -0.01379,
				"method": "rhf"
			},
			{
				"type": "unocc",
				"energy": -0.01379,
				"method": "rhf"
			},
			{
				"type": "unocc",
				"energy": 0.06678,
				"method": "rhf"
			},
			{
				"type": "unocc",
				"energy": 0.13131,
				"method": "rhf"
			},
			{
				"type": "unocc",
				"energy": 0.13131,
				"method": "rhf"
			}
		],
		"cosmo_sigma_profile": { 
			"-0.025": 0.0,
			"-0.024": 0.0,
			"-0.023": 0.0,
			"-0.022": 0.0,
			"-0.021": 0.0,
			"-0.02": 0.0,
			"-0.019": 0.0,
			"-0.018": 0.0,
			"-0.017": 0.0,
			"-0.016": 0.0,
			"-0.015": 0.0,
			"-0.014": 0.0,
			"-0.013": 0.0,
			"-0.012": 0.0,
			"-0.011": 0.0,
			"-0.01": 0.0,
			"-0.009": 2.30961844442,
			"-0.008": 4.71971675959,
			"-0.007": 3.77860708036,
			"-0.006": 5.03287828532,
			"-0.005": 3.49956769133,
			"-0.004": 4.86423284806,
			"-0.003": 5.40731197105,
			"-0.002": 4.33133683346,
			"-0.001": 11.3501308319,
			"0.0": 27.624026988,
			"0.001": 22.2492057432,
			"0.002": 9.61889253792,
			"0.003": 20.1384876689,
			"0.004": 21.2546644285,
			"0.005": 0.0,
			"0.006": 0.0,
			"0.007": 0.0,
			"0.008": 0.0,
			"0.009": 0.0,
			"0.01": 0.0,
			"0.011": 0.0,
			"0.012": 0.0,
			"0.013": 0.0,
			"0.014": 0.0,
			"0.015": 0.0,
			"0.016": 0.0,
			"0.017": 0.0,
			"0.018": 0.0,
			"0.019": 0.0,
			"0.02": 0.0,
			"0.021": 0.0,
			"0.022": 0.0,
			"0.023": 0.0,
			"0.024": 0.0,
			"0.025": 0.0
		}
	}
}
