{
	 "smiles": "CC1=C(C)C(O)=NC(O)=N1", 
	 "Tm": 571.15, 
	 "num_atms": 18, 
	 "gaussian": { 
		 "optdone": 1, 
		 "sigma_profile": "yes", 
		 "theory": "DFT", 
		 "functional": "B3LYP", 
		 "basiset": "6-31G**", 
		 "properties": { 
			 "R2extent": 1444.7969, 
			 "electric_dipole_moment_norm": 2.26077967746, 
			 "electric_quadrupole_moment_norm": 11.7702194317, 
			 "total_energy": -493.439170202, 
			 "HOMO_LUMO_gap": 0.21289, 
			 "cosmo_polarized_energy": -11.98, 
			 "cosmo_cavitation_energy": 21.88, 
			 "cosmo_dispersion_energy": -16.55, 
			 "cosmo_repulsion_energy": 1.35, 
			 "cosmo_total_nonelectrostatic_energy": 6.68, 
			 "SMD_solvation_energy": 2.13 
		},
		"coords": [
			{
				"x": 0.0627974768,
				"y": -1.7403700975,
				"z": 1.869065112,
				"element": "C" 
			},
			{
				"x": 0.2949938797,
				"y": -0.7140449549,
				"z": 0.7916412716,
				"element": "C" 
			},
			{
				"x": -0.783835052,
				"y": -0.0939339621,
				"z": 0.1432131179,
				"element": "C" 
			},
			{
				"x": -2.2250418076,
				"y": -0.3952838002,
				"z": 0.4627209063,
				"element": "C" 
			},
			{
				"x": -0.4135103422,
				"y": 0.8390290928,
				"z": -0.8367972381,
				"element": "C" 
			},
			{
				"x": -1.3702945113,
				"y": 1.4962868599,
				"z": -1.5246650965,
				"element": "O" 
			},
			{
				"x": 0.8513564623,
				"y": 1.1290244877,
				"z": -1.1437069304,
				"element": "N" 
			},
			{
				"x": 1.7810426067,
				"y": 0.4645010359,
				"z": -0.4481622375,
				"element": "C" 
			},
			{
				"x": 3.0667533877,
				"y": 0.7388782305,
				"z": -0.7385547558,
				"element": "O" 
			},
			{
				"x": 1.5806108261,
				"y": -0.4403326886,
				"z": 0.5017253739,
				"element": "N" 
			},
			{
				"x": -0.5109333778,
				"y": -1.3164545466,
				"z": 2.7014889803,
				"element": "H" 
			},
			{
				"x": 1.0214496642,
				"y": -2.0997117983,
				"z": 2.2437121148,
				"element": "H" 
			},
			{
				"x": -0.5139996465,
				"y": -2.5907248325,
				"z": 1.4869715333,
				"element": "H" 
			},
			{
				"x": -2.4585417394,
				"y": -0.177632979,
				"z": 1.5117481189,
				"element": "H" 
			},
			{
				"x": -2.8933309469,
				"y": 0.2005132795,
				"z": -0.1601275734,
				"element": "H" 
			},
			{
				"x": -2.4616655043,
				"y": -1.4527948115,
				"z": 0.295267683,
				"element": "H" 
			},
			{
				"x": -0.9051539369,
				"y": 2.0832594805,
				"z": -2.1414410218,
				"element": "H" 
			},
			{
				"x": 3.0512025615,
				"y": 1.4071920044,
				"z": -1.4398993583,
				"element": "H" 
			}
		],
		 "valence_orbital": [ 
			{
				"type": "occ",
				"energy": -0.32568,
				"method": "rhf"
			},
			{
				"type": "occ",
				"energy": -0.3196,
				"method": "rhf"
			},
			{
				"type": "occ",
				"energy": -0.28528,
				"method": "rhf"
			},
			{
				"type": "occ",
				"energy": -0.25511,
				"method": "rhf"
			},
			{
				"type": "occ",
				"energy": -0.23301,
				"method": "rhf"
			},
			{
				"type": "unocc",
				"energy": -0.02012,
				"method": "rhf"
			},
			{
				"type": "unocc",
				"energy": 0.00669,
				"method": "rhf"
			},
			{
				"type": "unocc",
				"energy": 0.07443,
				"method": "rhf"
			},
			{
				"type": "unocc",
				"energy": 0.09089,
				"method": "rhf"
			},
			{
				"type": "unocc",
				"energy": 0.09803,
				"method": "rhf"
			}
		],
		"cosmo_sigma_profile": { 
			"-0.025": 0.0,
			"-0.024": 0.0,
			"-0.023": 0.0,
			"-0.022": 0.0,
			"-0.021": 0.0,
			"-0.02": 0.0,
			"-0.019": 0.0,
			"-0.018": 0.468589813784,
			"-0.017": 1.66477657284,
			"-0.016": 1.41740959365,
			"-0.015": 1.29536393582,
			"-0.014": 1.84988172474,
			"-0.013": 1.02428121774,
			"-0.012": 0.704299725246,
			"-0.011": 1.38335386928,
			"-0.01": 1.65337871877,
			"-0.009": 0.709137708688,
			"-0.008": 1.092485482,
			"-0.007": 1.65328635501,
			"-0.006": 2.92182045865,
			"-0.005": 8.83177731185,
			"-0.004": 12.0080655589,
			"-0.003": 11.4742542462,
			"-0.002": 12.9874259804,
			"-0.001": 20.5757950388,
			"0.0": 23.0581668084,
			"0.001": 13.5392055522,
			"0.002": 6.21780616801,
			"0.003": 5.12015409971,
			"0.004": 5.78314272583,
			"0.005": 5.5508393495,
			"0.006": 3.50703443601,
			"0.007": 4.37538252772,
			"0.008": 5.86132402626,
			"0.009": 3.7532384746,
			"0.01": 2.79319894229,
			"0.011": 3.05926441515,
			"0.012": 2.68098338122,
			"0.013": 1.49393739654,
			"0.014": 0.791923385238,
			"0.015": 0.999459601273,
			"0.016": 0.618035458686,
			"0.017": 0.0,
			"0.018": 0.0,
			"0.019": 0.0,
			"0.02": 0.0,
			"0.021": 0.0,
			"0.022": 0.0,
			"0.023": 0.0,
			"0.024": 0.0,
			"0.025": 0.0
		}
	}
}
