{
	 "smiles": "CCNC1=CC2=C(C=C1C)C(=CC(=O)O2)C(F)(F)F", 
	 "Tm": 457.15, 
	 "num_atms": 31, 
	 "gaussian": { 
		 "optdone": 1, 
		 "sigma_profile": "yes", 
		 "theory": "DFT", 
		 "functional": "B3LYP", 
		 "basiset": "6-31G**", 
		 "properties": { 
			 "R2extent": 6849.2319, 
			 "electric_dipole_moment_norm": 5.76070290937, 
			 "electric_quadrupole_moment_norm": 16.639922056, 
			 "total_energy": -1007.35233951, 
			 "HOMO_LUMO_gap": 0.14413, 
			 "cosmo_polarized_energy": -11.81, 
			 "cosmo_cavitation_energy": 35.77, 
			 "cosmo_dispersion_energy": -25.39, 
			 "cosmo_repulsion_energy": 1.89, 
			 "cosmo_total_nonelectrostatic_energy": 12.27, 
			 "SMD_solvation_energy": 7.56 
		},
		"coords": [
			{
				"x": 3.8480884045,
				"y": -3.0713380909,
				"z": -0.462757903,
				"element": "C" 
			},
			{
				"x": 2.6913342196,
				"y": -2.2585992364,
				"z": -1.0375474507,
				"element": "C" 
			},
			{
				"x": 1.9605610241,
				"y": -1.5811439783,
				"z": 0.0468740833,
				"element": "N" 
			},
			{
				"x": 0.8460916621,
				"y": -0.7755806699,
				"z": -0.2347318458,
				"element": "C" 
			},
			{
				"x": 0.8781812474,
				"y": 0.5779542495,
				"z": 0.1257793607,
				"element": "C" 
			},
			{
				"x": -0.226892573,
				"y": 1.395219076,
				"z": -0.0788103516,
				"element": "C" 
			},
			{
				"x": -1.403434274,
				"y": 0.8958451355,
				"z": -0.6696624441,
				"element": "C" 
			},
			{
				"x": -1.4242723125,
				"y": -0.4720100484,
				"z": -1.0117946384,
				"element": "C" 
			},
			{
				"x": -0.3444184714,
				"y": -1.3186843302,
				"z": -0.8017630589,
				"element": "C" 
			},
			{
				"x": -0.4854826675,
				"y": -2.7921864387,
				"z": -1.0993887867,
				"element": "C" 
			},
			{
				"x": -2.4879462714,
				"y": 1.8339556694,
				"z": -0.8522772443,
				"element": "C" 
			},
			{
				"x": -2.3545495179,
				"y": 3.1281421388,
				"z": -0.4735778228,
				"element": "C" 
			},
			{
				"x": -1.1270678229,
				"y": 3.6317430006,
				"z": 0.1313694083,
				"element": "C" 
			},
			{
				"x": -0.9297252833,
				"y": 4.7681782087,
				"z": 0.4912818595,
				"element": "O" 
			},
			{
				"x": -0.1048450669,
				"y": 2.701898018,
				"z": 0.3003713018,
				"element": "O" 
			},
			{
				"x": -3.7860905275,
				"y": 1.3724512935,
				"z": -1.4767132095,
				"element": "C" 
			},
			{
				"x": -4.6863700193,
				"y": 2.3661861777,
				"z": -1.5809999442,
				"element": "F" 
			},
			{
				"x": -4.3540556434,
				"y": 0.3858972228,
				"z": -0.7468777095,
				"element": "F" 
			},
			{
				"x": -3.5806667346,
				"y": 0.87888881,
				"z": -2.718330054,
				"element": "F" 
			},
			{
				"x": 3.4822889594,
				"y": -3.8216678443,
				"z": 0.2441561628,
				"element": "H" 
			},
			{
				"x": 4.5632427467,
				"y": -2.4284850979,
				"z": 0.0640475537,
				"element": "H" 
			},
			{
				"x": 4.3917358735,
				"y": -3.5814845673,
				"z": -1.2632404849,
				"element": "H" 
			},
			{
				"x": 3.0694362623,
				"y": -1.533276789,
				"z": -1.7762084527,
				"element": "H" 
			},
			{
				"x": 2.0075524871,
				"y": -2.9222787135,
				"z": -1.569280517,
				"element": "H" 
			},
			{
				"x": 2.6188993094,
				"y": -1.0768582556,
				"z": 0.6323559532,
				"element": "H" 
			},
			{
				"x": 1.7713608987,
				"y": 1.017608262,
				"z": 0.5586967165,
				"element": "H" 
			},
			{
				"x": -2.3307674434,
				"y": -0.8925281362,
				"z": -1.4311843246,
				"element": "H" 
			},
			{
				"x": -0.0677614137,
				"y": -3.0676722026,
				"z": -2.0755307852,
				"element": "H" 
			},
			{
				"x": -1.5401802565,
				"y": -3.0796896896,
				"z": -1.1099150579,
				"element": "H" 
			},
			{
				"x": 0.0258338007,
				"y": -3.3919385575,
				"z": -0.3400061692,
				"element": "H" 
			},
			{
				"x": -3.1494805965,
				"y": 3.8503553837,
				"z": -0.6007341445,
				"element": "H" 
			}
		],
		 "valence_orbital": [ 
			{
				"type": "occ",
				"energy": -0.32585,
				"method": "rhf"
			},
			{
				"type": "occ",
				"energy": -0.28101,
				"method": "rhf"
			},
			{
				"type": "occ",
				"energy": -0.27623,
				"method": "rhf"
			},
			{
				"type": "occ",
				"energy": -0.24751,
				"method": "rhf"
			},
			{
				"type": "occ",
				"energy": -0.21973,
				"method": "rhf"
			},
			{
				"type": "unocc",
				"energy": -0.0756,
				"method": "rhf"
			},
			{
				"type": "unocc",
				"energy": -0.01346,
				"method": "rhf"
			},
			{
				"type": "unocc",
				"energy": -0.00409,
				"method": "rhf"
			},
			{
				"type": "unocc",
				"energy": 0.06886,
				"method": "rhf"
			},
			{
				"type": "unocc",
				"energy": 0.07651,
				"method": "rhf"
			}
		],
		"cosmo_sigma_profile": { 
			"-0.025": 0.0,
			"-0.024": 0.0,
			"-0.023": 0.0,
			"-0.022": 0.0,
			"-0.021": 0.0,
			"-0.02": 0.0,
			"-0.019": 0.0,
			"-0.018": 0.0,
			"-0.017": 0.0,
			"-0.016": 0.0,
			"-0.015": 0.0,
			"-0.014": 0.0,
			"-0.013": 0.0935883662182,
			"-0.012": 0.9909092414,
			"-0.011": 1.77678932455,
			"-0.01": 1.81964566162,
			"-0.009": 2.02562753788,
			"-0.008": 2.71941344861,
			"-0.007": 4.15060450013,
			"-0.006": 5.94986662694,
			"-0.005": 11.3527992584,
			"-0.004": 17.4113350398,
			"-0.003": 26.5275908448,
			"-0.002": 31.4218294904,
			"-0.001": 32.2538552447,
			"0.0": 27.3723166183,
			"0.001": 28.7754116582,
			"0.002": 40.7338917468,
			"0.003": 15.7890238673,
			"0.004": 3.39588199209,
			"0.005": 2.67331812006,
			"0.006": 2.85905747207,
			"0.007": 3.04546966786,
			"0.008": 3.46834780676,
			"0.009": 2.57839571505,
			"0.01": 3.73158422146,
			"0.011": 4.78054363562,
			"0.012": 5.90884776487,
			"0.013": 1.31730119316,
			"0.014": 0.0,
			"0.015": 0.0,
			"0.016": 0.0,
			"0.017": 0.0,
			"0.018": 0.0,
			"0.019": 0.0,
			"0.02": 0.0,
			"0.021": 0.0,
			"0.022": 0.0,
			"0.023": 0.0,
			"0.024": 0.0,
			"0.025": 0.0
		}
	}
}
