{
	 "smiles": "OC(C#N)C(Cl)(Cl)Cl", 
	 "Tm": 334.15, 
	 "num_atms": 10, 
	 "gaussian": { 
		 "optdone": 1, 
		 "sigma_profile": "yes", 
		 "theory": "DFT", 
		 "functional": "B3LYP", 
		 "basiset": "6-31G**", 
		 "properties": { 
			 "R2extent": 2483.5875, 
			 "electric_dipole_moment_norm": 1.92909528536, 
			 "electric_quadrupole_moment_norm": 6.78556076312, 
			 "total_energy": -1626.01908447, 
			 "HOMO_LUMO_gap": 0.26253, 
			 "cosmo_polarized_energy": -9.69, 
			 "cosmo_cavitation_energy": 20.36, 
			 "cosmo_dispersion_energy": -14.63, 
			 "cosmo_repulsion_energy": 1.22, 
			 "cosmo_total_nonelectrostatic_energy": 6.95, 
			 "SMD_solvation_energy": 3.96 
		},
		"coords": [
			{
				"x": -0.1223260374,
				"y": -0.8234862935,
				"z": -1.1672368095,
				"element": "O" 
			},
			{
				"x": -0.0414626633,
				"y": 0.5670069046,
				"z": -1.2380002916,
				"element": "C" 
			},
			{
				"x": 0.8132590368,
				"y": 1.1232823681,
				"z": -0.164205933,
				"element": "C" 
			},
			{
				"x": 1.5130590073,
				"y": 1.4901532119,
				"z": 0.6847241802,
				"element": "N" 
			},
			{
				"x": -1.4524913564,
				"y": 1.2494687659,
				"z": -1.2433365247,
				"element": "C" 
			},
			{
				"x": -2.3064945723,
				"y": 0.8571091622,
				"z": 0.2948628338,
				"element": "Cl" 
			},
			{
				"x": -1.2569213275,
				"y": 3.0222456439,
				"z": -1.4043790515,
				"element": "Cl" 
			},
			{
				"x": -2.3891427946,
				"y": 0.6119744489,
				"z": -2.6280411825,
				"element": "Cl" 
			},
			{
				"x": -0.4711719507,
				"y": -1.0730462455,
				"z": -0.2976672986,
				"element": "H" 
			},
			{
				"x": 0.4131926581,
				"y": 0.8088920335,
				"z": -2.2042199226,
				"element": "H" 
			}
		],
		 "valence_orbital": [ 
			{
				"type": "occ",
				"energy": -0.35676,
				"method": "rhf"
			},
			{
				"type": "occ",
				"energy": -0.34734,
				"method": "rhf"
			},
			{
				"type": "occ",
				"energy": -0.3378,
				"method": "rhf"
			},
			{
				"type": "occ",
				"energy": -0.33019,
				"method": "rhf"
			},
			{
				"type": "occ",
				"energy": -0.32543,
				"method": "rhf"
			},
			{
				"type": "unocc",
				"energy": -0.0629,
				"method": "rhf"
			},
			{
				"type": "unocc",
				"energy": -0.02694,
				"method": "rhf"
			},
			{
				"type": "unocc",
				"energy": -0.02006,
				"method": "rhf"
			},
			{
				"type": "unocc",
				"energy": -0.00554,
				"method": "rhf"
			},
			{
				"type": "unocc",
				"energy": 0.01557,
				"method": "rhf"
			}
		],
		"cosmo_sigma_profile": { 
			"-0.025": 0.0,
			"-0.024": 0.0,
			"-0.023": 0.0,
			"-0.022": 0.0,
			"-0.021": 0.0,
			"-0.02": 0.0,
			"-0.019": 0.0,
			"-0.018": 0.398281110886,
			"-0.017": 0.486306791284,
			"-0.016": 1.23457266411,
			"-0.015": 0.649978684888,
			"-0.014": 1.05808578873,
			"-0.013": 1.25013415157,
			"-0.012": 3.34919227533,
			"-0.011": 2.48071760102,
			"-0.01": 2.28105969138,
			"-0.009": 2.74744487307,
			"-0.008": 2.250083569,
			"-0.007": 2.67435861208,
			"-0.006": 1.70730190343,
			"-0.005": 3.93719647266,
			"-0.004": 6.48386126228,
			"-0.003": 9.83749750587,
			"-0.002": 9.49704690769,
			"-0.001": 11.9071961575,
			"0.0": 15.0252550064,
			"0.001": 20.893832711,
			"0.002": 28.7598527027,
			"0.003": 8.51047543657,
			"0.004": 3.91867473338,
			"0.005": 3.85577274576,
			"0.006": 4.94325362487,
			"0.007": 4.42070959401,
			"0.008": 4.73731420345,
			"0.009": 4.00240226479,
			"0.01": 4.05279381499,
			"0.011": 1.94769413909,
			"0.012": 0.538872244329,
			"0.013": 0.0,
			"0.014": 0.0,
			"0.015": 0.0,
			"0.016": 0.0,
			"0.017": 0.0,
			"0.018": 0.0,
			"0.019": 0.0,
			"0.02": 0.0,
			"0.021": 0.0,
			"0.022": 0.0,
			"0.023": 0.0,
			"0.024": 0.0,
			"0.025": 0.0
		}
	}
}
