{
	 "smiles": "CC1=C(SC(=N1)C(=NNC1=CC(=CC=C1)C(F)(F)F)C#N)N=NC1=CC=C(F)C=C1", 
	 "Tm": 484.15, 
	 "num_atms": 42, 
	 "gaussian": { 
		 "optdone": 1, 
		 "sigma_profile": "yes", 
		 "theory": "DFT", 
		 "functional": "B3LYP", 
		 "basiset": "6-31G**", 
		 "properties": { 
			 "R2extent": 23634.3438, 
			 "electric_dipole_moment_norm": 1.31146283211, 
			 "electric_quadrupole_moment_norm": 30.1596638978, 
			 "total_energy": -1857.21688058, 
			 "HOMO_LUMO_gap": 0.10413, 
			 "cosmo_polarized_energy": -15.43, 
			 "cosmo_cavitation_energy": 54.63, 
			 "cosmo_dispersion_energy": -37.38, 
			 "cosmo_repulsion_energy": 2.68, 
			 "cosmo_total_nonelectrostatic_energy": 19.93, 
			 "SMD_solvation_energy": 8.85 
		},
		"coords": [
			{
				"x": 4.4951979553,
				"y": 0.6738740842,
				"z": 2.2632043577,
				"element": "C" 
			},
			{
				"x": 3.3389370833,
				"y": 0.2039417554,
				"z": 1.4362328861,
				"element": "C" 
			},
			{
				"x": 2.3845339962,
				"y": 1.0069443105,
				"z": 0.8056926784,
				"element": "C" 
			},
			{
				"x": 1.2207337181,
				"y": 0.0080906973,
				"z": -0.0506502981,
				"element": "S" 
			},
			{
				"x": 2.1001318591,
				"y": -1.3905097209,
				"z": 0.5016243244,
				"element": "C" 
			},
			{
				"x": 3.1545271114,
				"y": -1.133085539,
				"z": 1.2486537444,
				"element": "N" 
			},
			{
				"x": 1.7062268663,
				"y": -2.7473089699,
				"z": 0.1675078364,
				"element": "C" 
			},
			{
				"x": 0.6511240705,
				"y": -2.9583215578,
				"z": -0.5783161101,
				"element": "N" 
			},
			{
				"x": 0.291524152,
				"y": -4.1905654344,
				"z": -0.8827303567,
				"element": "N" 
			},
			{
				"x": -0.8299701835,
				"y": -4.4609838427,
				"z": -1.6775056436,
				"element": "C" 
			},
			{
				"x": -1.6237618815,
				"y": -3.4319125916,
				"z": -2.198576312,
				"element": "C" 
			},
			{
				"x": -2.7244905476,
				"y": -3.7599130651,
				"z": -2.9864961935,
				"element": "C" 
			},
			{
				"x": -3.0459723567,
				"y": -5.0923597266,
				"z": -3.2645414233,
				"element": "C" 
			},
			{
				"x": -2.2468296801,
				"y": -6.1068962663,
				"z": -2.7394309071,
				"element": "C" 
			},
			{
				"x": -1.1429690534,
				"y": -5.8004787595,
				"z": -1.9480556988,
				"element": "C" 
			},
			{
				"x": -3.6185581988,
				"y": -2.6605356085,
				"z": -3.5011273917,
				"element": "C" 
			},
			{
				"x": -4.1377224743,
				"y": -2.9665593827,
				"z": -4.7103508364,
				"element": "F" 
			},
			{
				"x": -2.9609985222,
				"y": -1.4880689724,
				"z": -3.6237872646,
				"element": "F" 
			},
			{
				"x": -4.6625261829,
				"y": -2.4447179406,
				"z": -2.6685994156,
				"element": "F" 
			},
			{
				"x": 2.4884627824,
				"y": -3.8458826693,
				"z": 0.6660215641,
				"element": "C" 
			},
			{
				"x": 3.001172588,
				"y": -4.8429551399,
				"z": 0.9807118584,
				"element": "N" 
			},
			{
				"x": 2.1798335221,
				"y": 2.3664501269,
				"z": 0.7221871949,
				"element": "N" 
			},
			{
				"x": 3.0233917703,
				"y": 3.0866681101,
				"z": 1.3464788761,
				"element": "N" 
			},
			{
				"x": 2.792217112,
				"y": 4.4737194642,
				"z": 1.2448086534,
				"element": "C" 
			},
			{
				"x": 1.7352797971,
				"y": 5.0644736976,
				"z": 0.524544062,
				"element": "C" 
			},
			{
				"x": 1.6021552206,
				"y": 6.4453170545,
				"z": 0.491861441,
				"element": "C" 
			},
			{
				"x": 2.5282786602,
				"y": 7.230549534,
				"z": 1.1809333194,
				"element": "C" 
			},
			{
				"x": 2.3945789109,
				"y": 8.5694551676,
				"z": 1.1460077696,
				"element": "F" 
			},
			{
				"x": 3.5819740526,
				"y": 6.6763742439,
				"z": 1.9004367973,
				"element": "C" 
			},
			{
				"x": 3.7077849736,
				"y": 5.2907739256,
				"z": 1.9275616712,
				"element": "C" 
			},
			{
				"x": 5.059098334,
				"y": -0.1923979894,
				"z": 2.6140454469,
				"element": "H" 
			},
			{
				"x": 4.1522869392,
				"y": 1.2635383282,
				"z": 3.1189254803,
				"element": "H" 
			},
			{
				"x": 5.1500597196,
				"y": 1.3325590482,
				"z": 1.6846052281,
				"element": "H" 
			},
			{
				"x": 0.8391453521,
				"y": -4.9768969702,
				"z": -0.5327466782,
				"element": "H" 
			},
			{
				"x": -1.373877394,
				"y": -2.3993872963,
				"z": -1.9936094518,
				"element": "H" 
			},
			{
				"x": -3.9010842972,
				"y": -5.3265636914,
				"z": -3.888000263,
				"element": "H" 
			},
			{
				"x": -2.4812576134,
				"y": -7.1456553951,
				"z": -2.9490542128,
				"element": "H" 
			},
			{
				"x": -0.5224802483,
				"y": -6.5955421257,
				"z": -1.5426894318,
				"element": "H" 
			},
			{
				"x": 1.0352950576,
				"y": 4.4234705539,
				"z": 0.0016569827,
				"element": "H" 
			},
			{
				"x": 0.7987346141,
				"y": 6.9280425377,
				"z": -0.0542512302,
				"element": "H" 
			},
			{
				"x": 4.2775212684,
				"y": 7.3254948141,
				"z": 2.4205587546,
				"element": "H" 
			},
			{
				"x": 4.513691147,
				"y": 4.8137612015,
				"z": 2.4754581918,
				"element": "H" 
			}
		],
		 "valence_orbital": [ 
			{
				"type": "occ",
				"energy": -0.27443,
				"method": "rhf"
			},
			{
				"type": "occ",
				"energy": -0.27247,
				"method": "rhf"
			},
			{
				"type": "occ",
				"energy": -0.24659,
				"method": "rhf"
			},
			{
				"type": "occ",
				"energy": -0.23833,
				"method": "rhf"
			},
			{
				"type": "occ",
				"energy": -0.21341,
				"method": "rhf"
			},
			{
				"type": "unocc",
				"energy": -0.10928,
				"method": "rhf"
			},
			{
				"type": "unocc",
				"energy": -0.07308,
				"method": "rhf"
			},
			{
				"type": "unocc",
				"energy": -0.0401,
				"method": "rhf"
			},
			{
				"type": "unocc",
				"energy": -0.0211,
				"method": "rhf"
			},
			{
				"type": "unocc",
				"energy": -0.01325,
				"method": "rhf"
			}
		],
		"cosmo_sigma_profile": { 
			"-0.025": 0.0,
			"-0.024": 0.0,
			"-0.023": 0.0,
			"-0.022": 0.0,
			"-0.021": 0.0,
			"-0.02": 0.0,
			"-0.019": 0.0,
			"-0.018": 0.0,
			"-0.017": 0.0,
			"-0.016": 0.394409003923,
			"-0.015": 1.14404746759,
			"-0.014": 1.29207026548,
			"-0.013": 1.23411824124,
			"-0.012": 0.9750947542,
			"-0.011": 1.31003532069,
			"-0.01": 1.89274485026,
			"-0.009": 2.88829480963,
			"-0.008": 4.39147863013,
			"-0.007": 11.935444369,
			"-0.006": 15.6308822069,
			"-0.005": 18.0466628616,
			"-0.004": 19.7890253588,
			"-0.003": 21.8347528784,
			"-0.002": 27.6063111516,
			"-0.001": 40.9677246414,
			"0.0": 51.75086461,
			"0.001": 52.047120244,
			"0.002": 63.6641212791,
			"0.003": 51.3770634086,
			"0.004": 19.8195533082,
			"0.005": 6.73352860582,
			"0.006": 7.40075073036,
			"0.007": 4.81636558728,
			"0.008": 3.35764796246,
			"0.009": 3.50484115333,
			"0.01": 3.86775057741,
			"0.011": 3.23752458508,
			"0.012": 1.2147668225,
			"0.013": 0.0,
			"0.014": 0.0,
			"0.015": 0.0,
			"0.016": 0.0,
			"0.017": 0.0,
			"0.018": 0.0,
			"0.019": 0.0,
			"0.02": 0.0,
			"0.021": 0.0,
			"0.022": 0.0,
			"0.023": 0.0,
			"0.024": 0.0,
			"0.025": 0.0
		}
	}
}
