{
	 "smiles": "FC(F)(F)C1=CC=C(C=CC#N)C=C1", 
	 "Tm": 363.15, 
	 "num_atms": 20, 
	 "gaussian": { 
		 "optdone": 1, 
		 "sigma_profile": "yes", 
		 "theory": "DFT", 
		 "functional": "B3LYP", 
		 "basiset": "6-31G**", 
		 "properties": { 
			 "R2extent": 4384.0912, 
			 "electric_dipole_moment_norm": 2.41452308749, 
			 "electric_quadrupole_moment_norm": 33.5123820993, 
			 "total_energy": -738.927822354, 
			 "HOMO_LUMO_gap": 0.16672, 
			 "cosmo_polarized_energy": -11.19, 
			 "cosmo_cavitation_energy": 27.75, 
			 "cosmo_dispersion_energy": -19.03, 
			 "cosmo_repulsion_energy": 1.42, 
			 "cosmo_total_nonelectrostatic_energy": 10.14, 
			 "SMD_solvation_energy": 7.52 
		},
		"coords": [
			{
				"x": -4.4172829187,
				"y": 0.4713982459,
				"z": 0.193952598,
				"element": "F" 
			},
			{
				"x": -3.5226136432,
				"y": 0.086688643,
				"z": 1.1291574375,
				"element": "C" 
			},
			{
				"x": -3.7787458398,
				"y": -1.2035530291,
				"z": 1.435938016,
				"element": "F" 
			},
			{
				"x": -3.7749477655,
				"y": 0.813799096,
				"z": 2.2413706812,
				"element": "F" 
			},
			{
				"x": -2.1048325121,
				"y": 0.2761177571,
				"z": 0.6583839639,
				"element": "C" 
			},
			{
				"x": -1.7996005855,
				"y": 1.2815845149,
				"z": -0.2604962183,
				"element": "C" 
			},
			{
				"x": -0.4788417762,
				"y": 1.4838111491,
				"z": -0.6490196703,
				"element": "C" 
			},
			{
				"x": 0.5616835517,
				"y": 0.6919190443,
				"z": -0.1306647551,
				"element": "C" 
			},
			{
				"x": 1.9291531084,
				"y": 0.9567585817,
				"z": -0.5811328792,
				"element": "C" 
			},
			{
				"x": 3.0485360773,
				"y": 0.3104882985,
				"z": -0.192202212,
				"element": "C" 
			},
			{
				"x": 4.3359203458,
				"y": 0.6526595823,
				"z": -0.6972304765,
				"element": "C" 
			},
			{
				"x": 5.3965261735,
				"y": 0.9178664035,
				"z": -1.0987479641,
				"element": "N" 
			},
			{
				"x": 0.2329193246,
				"y": -0.3189975768,
				"z": 0.793427186,
				"element": "C" 
			},
			{
				"x": -1.0836079433,
				"y": -0.5242827251,
				"z": 1.1838158852,
				"element": "C" 
			},
			{
				"x": -2.5921750882,
				"y": 1.8952234062,
				"z": -0.6740541989,
				"element": "H" 
			},
			{
				"x": -0.2454305519,
				"y": 2.2649335125,
				"z": -1.3669754437,
				"element": "H" 
			},
			{
				"x": 2.0357063008,
				"y": 1.7625964865,
				"z": -1.3040450085,
				"element": "H" 
			},
			{
				"x": 3.0255357881,
				"y": -0.5038908133,
				"z": 0.5263452982,
				"element": "H" 
			},
			{
				"x": 1.0084532249,
				"y": -0.953710725,
				"z": 1.2092549909,
				"element": "H" 
			},
			{
				"x": -1.3261552707,
				"y": -1.3109098523,
				"z": 1.8899227697,
				"element": "H" 
			}
		],
		 "valence_orbital": [ 
			{
				"type": "occ",
				"energy": -0.36281,
				"method": "rhf"
			},
			{
				"type": "occ",
				"energy": -0.33465,
				"method": "rhf"
			},
			{
				"type": "occ",
				"energy": -0.32233,
				"method": "rhf"
			},
			{
				"type": "occ",
				"energy": -0.28643,
				"method": "rhf"
			},
			{
				"type": "occ",
				"energy": -0.25754,
				"method": "rhf"
			},
			{
				"type": "unocc",
				"energy": -0.09082,
				"method": "rhf"
			},
			{
				"type": "unocc",
				"energy": -0.03495,
				"method": "rhf"
			},
			{
				"type": "unocc",
				"energy": -0.00309,
				"method": "rhf"
			},
			{
				"type": "unocc",
				"energy": 0.02573,
				"method": "rhf"
			},
			{
				"type": "unocc",
				"energy": 0.07652,
				"method": "rhf"
			}
		],
		"cosmo_sigma_profile": { 
			"-0.025": 0.0,
			"-0.024": 0.0,
			"-0.023": 0.0,
			"-0.022": 0.0,
			"-0.021": 0.0,
			"-0.02": 0.0,
			"-0.019": 0.0,
			"-0.018": 0.0,
			"-0.017": 0.0,
			"-0.016": 0.0,
			"-0.015": 0.0,
			"-0.014": 0.0,
			"-0.013": 0.0,
			"-0.012": 0.0,
			"-0.011": 0.830880272691,
			"-0.01": 2.41419331051,
			"-0.009": 4.41387385916,
			"-0.008": 7.72782994844,
			"-0.007": 9.76979282787,
			"-0.006": 10.6656307226,
			"-0.005": 9.18184980006,
			"-0.004": 9.76533726107,
			"-0.003": 9.08114709408,
			"-0.002": 11.2153653449,
			"-0.001": 15.1491456557,
			"0.0": 21.6336868761,
			"0.001": 22.1152237503,
			"0.002": 34.4884187396,
			"0.003": 28.3568188993,
			"0.004": 3.10097549437,
			"0.005": 2.1609061705,
			"0.006": 2.23497538219,
			"0.007": 3.20307170223,
			"0.008": 3.34419096532,
			"0.009": 3.50407562526,
			"0.01": 3.18115033137,
			"0.011": 2.74127117066,
			"0.012": 2.59766390524,
			"0.013": 1.84300883389,
			"0.014": 0.165952841469,
			"0.015": 0.0,
			"0.016": 0.0,
			"0.017": 0.0,
			"0.018": 0.0,
			"0.019": 0.0,
			"0.02": 0.0,
			"0.021": 0.0,
			"0.022": 0.0,
			"0.023": 0.0,
			"0.024": 0.0,
			"0.025": 0.0
		}
	}
}
