{
	 "smiles": "ClC1=CC(=O)C=C(Cl)C1=O", 
	 "Tm": 396.15, 
	 "num_atms": 12, 
	 "gaussian": { 
		 "optdone": 1, 
		 "sigma_profile": "yes", 
		 "theory": "DFT", 
		 "functional": "B3LYP", 
		 "basiset": "6-31G**", 
		 "properties": { 
			 "R2extent": 2371.6868, 
			 "electric_dipole_moment_norm": 0.883036635707, 
			 "electric_quadrupole_moment_norm": 11.7237969114, 
			 "total_energy": -1300.62510626, 
			 "HOMO_LUMO_gap": 0.14171, 
			 "cosmo_polarized_energy": -8.95, 
			 "cosmo_cavitation_energy": 21.36, 
			 "cosmo_dispersion_energy": -15.95, 
			 "cosmo_repulsion_energy": 1.3, 
			 "cosmo_total_nonelectrostatic_energy": 6.71, 
			 "SMD_solvation_energy": 4.6 
		},
		"coords": [
			{
				"x": -1.2954916219,
				"y": -3.0126528071,
				"z": 0.7004394225,
				"element": "Cl" 
			},
			{
				"x": -0.5708996593,
				"y": -1.5336340302,
				"z": 0.1641706831,
				"element": "C" 
			},
			{
				"x": -0.6480320225,
				"y": -0.3995565149,
				"z": 0.8802677847,
				"element": "C" 
			},
			{
				"x": -0.0187219463,
				"y": 0.8525671955,
				"z": 0.3981738227,
				"element": "C" 
			},
			{
				"x": -0.0895694941,
				"y": 1.8858718289,
				"z": 1.050981408,
				"element": "O" 
			},
			{
				"x": 0.698354896,
				"y": 0.8163771907,
				"z": -0.8982599709,
				"element": "C" 
			},
			{
				"x": 0.7761192923,
				"y": -0.3171184591,
				"z": -1.6152091114,
				"element": "C" 
			},
			{
				"x": 1.6066560198,
				"y": -0.3915653202,
				"z": -3.1333572467,
				"element": "Cl" 
			},
			{
				"x": 0.1490974401,
				"y": -1.6046439698,
				"z": -1.154727662,
				"element": "C" 
			},
			{
				"x": 0.2189819894,
				"y": -2.6281128378,
				"z": -1.8015451662,
				"element": "O" 
			},
			{
				"x": -1.1665229312,
				"y": -0.3463467422,
				"z": 1.8311209326,
				"element": "H" 
			},
			{
				"x": 1.1496280378,
				"y": 1.7454144662,
				"z": -1.2284548965,
				"element": "H" 
			}
		],
		 "valence_orbital": [ 
			{
				"type": "occ",
				"energy": -0.33813,
				"method": "rhf"
			},
			{
				"type": "occ",
				"energy": -0.30568,
				"method": "rhf"
			},
			{
				"type": "occ",
				"energy": -0.30464,
				"method": "rhf"
			},
			{
				"type": "occ",
				"energy": -0.29204,
				"method": "rhf"
			},
			{
				"type": "occ",
				"energy": -0.28921,
				"method": "rhf"
			},
			{
				"type": "unocc",
				"energy": -0.1475,
				"method": "rhf"
			},
			{
				"type": "unocc",
				"energy": -0.04578,
				"method": "rhf"
			},
			{
				"type": "unocc",
				"energy": -0.00835,
				"method": "rhf"
			},
			{
				"type": "unocc",
				"energy": -0.00805,
				"method": "rhf"
			},
			{
				"type": "unocc",
				"energy": 0.02766,
				"method": "rhf"
			}
		],
		"cosmo_sigma_profile": { 
			"-0.025": 0.0,
			"-0.024": 0.0,
			"-0.023": 0.0,
			"-0.022": 0.0,
			"-0.021": 0.0,
			"-0.02": 0.0,
			"-0.019": 0.0,
			"-0.018": 0.0,
			"-0.017": 0.0,
			"-0.016": 0.0,
			"-0.015": 0.0,
			"-0.014": 0.0,
			"-0.013": 0.0,
			"-0.012": 0.0,
			"-0.011": 0.110258333175,
			"-0.01": 2.58584261784,
			"-0.009": 4.0073026922,
			"-0.008": 6.14130303395,
			"-0.007": 6.3492220973,
			"-0.006": 7.06509996288,
			"-0.005": 8.65476318295,
			"-0.004": 13.1612435473,
			"-0.003": 14.4199366615,
			"-0.002": 14.5401113164,
			"-0.001": 10.7282679245,
			"0.0": 9.09115111852,
			"0.001": 11.3716607351,
			"0.002": 17.6100346619,
			"0.003": 13.6513512442,
			"0.004": 3.81366002838,
			"0.005": 4.3819239613,
			"0.006": 3.82640859114,
			"0.007": 5.08096213395,
			"0.008": 4.99197744714,
			"0.009": 8.00943708762,
			"0.01": 6.39637602891,
			"0.011": 1.70962591999,
			"0.012": 0.019383333763,
			"0.013": 0.0,
			"0.014": 0.0,
			"0.015": 0.0,
			"0.016": 0.0,
			"0.017": 0.0,
			"0.018": 0.0,
			"0.019": 0.0,
			"0.02": 0.0,
			"0.021": 0.0,
			"0.022": 0.0,
			"0.023": 0.0,
			"0.024": 0.0,
			"0.025": 0.0
		}
	}
}
