{
	 "smiles": "ClC1=CC=C(OCCCI)C=C1", 
	 "Tm": 305.15, 
	 "num_atms": 22, 
	 "gaussian": { 
		 "optdone": 1, 
		 "sigma_profile": "no", 
		 "theory": "DFT", 
		 "functional": "B3LYP", 
		 "basiset": "6-31G**", 
		 "properties": { 
			 "R2extent": 4229.5398, 
			 "electric_dipole_moment_norm": 4.11475962967, 
			 "electric_quadrupole_moment_norm": 12.2994060568, 
			 "total_energy": -895.784197374, 
			 "HOMO_LUMO_gap": 0.17744, 
			 "cosmo_polarized_energy": -94446.78, 
			 "cosmo_cavitation_energy": 30.67, 
			 "cosmo_dispersion_energy": -23.41, 
			 "cosmo_repulsion_energy": 1.85, 
			 "cosmo_total_nonelectrostatic_energy": 9.11, 
			 "SMD_solvation_energy": 4.0 
		},
		"coords": [
			{
				"x": 3.2551382086,
				"y": 3.096586754,
				"z": -3.1624003363,
				"element": "Cl" 
			},
			{
				"x": 2.1554297768,
				"y": 2.0932742099,
				"z": -2.222803337,
				"element": "C" 
			},
			{
				"x": 2.3646129037,
				"y": 0.7129036273,
				"z": -2.1585420436,
				"element": "C" 
			},
			{
				"x": 1.495781086,
				"y": -0.0772409685,
				"z": -1.4167447548,
				"element": "C" 
			},
			{
				"x": 0.4147305852,
				"y": 0.5023878002,
				"z": -0.735205279,
				"element": "C" 
			},
			{
				"x": -0.3785611757,
				"y": -0.3647308718,
				"z": -0.0414897244,
				"element": "O" 
			},
			{
				"x": -1.4764956837,
				"y": 0.1539544212,
				"z": 0.6949660892,
				"element": "C" 
			},
			{
				"x": -2.1874110712,
				"y": -0.9915371058,
				"z": 1.4084942755,
				"element": "C" 
			},
			{
				"x": -1.506765225,
				"y": -1.5475169338,
				"z": 2.6565510856,
				"element": "C" 
			},
			{
				"x": 0.1967733456,
				"y": -2.8786956641,
				"z": 2.3130926196,
				"element": "I" 
			},
			{
				"x": 0.2130513392,
				"y": 1.885795581,
				"z": -0.8051259507,
				"element": "C" 
			},
			{
				"x": 1.0884672639,
				"y": 2.6802802771,
				"z": -1.5521321957,
				"element": "C" 
			},
			{
				"x": 3.2004704065,
				"y": 0.2646232912,
				"z": -2.6842189777,
				"element": "H" 
			},
			{
				"x": 1.6361675911,
				"y": -1.1506800505,
				"z": -1.3491699549,
				"element": "H" 
			},
			{
				"x": -2.1813523029,
				"y": 0.6529298321,
				"z": 0.0140442532,
				"element": "H" 
			},
			{
				"x": -1.1295185786,
				"y": 0.9025601528,
				"z": 1.4234330268,
				"element": "H" 
			},
			{
				"x": -2.4025132432,
				"y": -1.7896129483,
				"z": 0.6911392811,
				"element": "H" 
			},
			{
				"x": -3.1590952521,
				"y": -0.5992915,
				"z": 1.7428522819,
				"element": "H" 
			},
			{
				"x": -1.116134165,
				"y": -0.7571828305,
				"z": 3.2984499372,
				"element": "H" 
			},
			{
				"x": -2.1930642801,
				"y": -2.1664178465,
				"z": 3.23241162,
				"element": "H" 
			},
			{
				"x": -0.6138804424,
				"y": 2.3599856768,
				"z": -0.2905187509,
				"element": "H" 
			},
			{
				"x": 0.9345689133,
				"y": 3.7523250962,
				"z": -1.6083831652,
				"element": "H" 
			}
		],
		 "valence_orbital": [ 
			{
				"type": "occ",
				"energy": -0.30389,
				"method": "rhf"
			},
			{
				"type": "occ",
				"energy": -0.26268,
				"method": "rhf"
			},
			{
				"type": "occ",
				"energy": -0.25759,
				"method": "rhf"
			},
			{
				"type": "occ",
				"energy": -0.25355,
				"method": "rhf"
			},
			{
				"type": "occ",
				"energy": -0.22098,
				"method": "rhf"
			},
			{
				"type": "unocc",
				"energy": -0.04354,
				"method": "rhf"
			},
			{
				"type": "unocc",
				"energy": -0.01315,
				"method": "rhf"
			},
			{
				"type": "unocc",
				"energy": 0.00169,
				"method": "rhf"
			},
			{
				"type": "unocc",
				"energy": 0.03263,
				"method": "rhf"
			},
			{
				"type": "unocc",
				"energy": 0.03918,
				"method": "rhf"
			}
		],
		"cosmo_sigma_profile": { 
			"0.0": 0.0,
			"0.0": 0.0,
			"0.0": 0.0,
			"0.0": 0.0,
			"0.0": 0.0,
			"0.0": 0.0,
			"0.0": 0.0,
			"0.0": 0.0,
			"0.0": 0.0,
			"0.0": 0.0,
			"0.0": 0.0,
			"0.0": 0.0,
			"0.0": 0.0,
			"0.0": 0.0,
			"0.0": 0.0,
			"0.0": 0.0,
			"0.0": 0.0,
			"0.0": 0.0,
			"0.0": 0.0,
			"0.0": 0.0,
			"0.0": 0.0,
			"0.0": 0.0,
			"0.0": 0.0,
			"0.0": 0.0,
			"0.0": 0.0,
			"0.0": 0.0,
			"0.0": 0.0,
			"0.0": 0.0,
			"0.0": 0.0,
			"0.0": 0.0,
			"0.0": 0.0,
			"0.0": 0.0,
			"0.0": 0.0,
			"0.0": 0.0,
			"0.0": 0.0,
			"0.0": 0.0,
			"0.0": 0.0,
			"0.0": 0.0,
			"0.0": 0.0,
			"0.0": 0.0,
			"0.0": 0.0,
			"0.0": 0.0,
			"0.0": 0.0,
			"0.0": 0.0,
			"0.0": 0.0,
			"0.0": 0.0,
			"0.0": 0.0,
			"0.0": 0.0,
			"0.0": 0.0,
			"0.0": 0.0,
			"0.0": 0.0
		}
	}
}
