{
	 "smiles": "BrC1=CC=C(NN=C(/C#N)C2=NC3=C(S2)C=CC=C3)C=C1", 
	 "Tm": 553.15, 
	 "num_atms": 30, 
	 "gaussian": { 
		 "optdone": 1, 
		 "sigma_profile": "yes", 
		 "theory": "DFT", 
		 "functional": "B3LYP", 
		 "basiset": "6-31G**", 
		 "properties": { 
			 "R2extent": 15161.9632, 
			 "electric_dipole_moment_norm": 2.22221016558, 
			 "electric_quadrupole_moment_norm": 23.5594569816, 
			 "total_energy": -3765.57564147, 
			 "HOMO_LUMO_gap": 0.1239, 
			 "cosmo_polarized_energy": -14.45, 
			 "cosmo_cavitation_energy": 41.28, 
			 "cosmo_dispersion_energy": -30.19, 
			 "cosmo_repulsion_energy": 2.25, 
			 "cosmo_total_nonelectrostatic_energy": 13.35, 
			 "SMD_solvation_energy": 4.39 
		},
		"coords": [
			{
				"x": -5.310068663,
				"y": -3.8922791278,
				"z": -2.8773754921,
				"element": "Br" 
			},
			{
				"x": -3.6681957172,
				"y": -3.2236316835,
				"z": -2.1709347358,
				"element": "C" 
			},
			{
				"x": -3.624439238,
				"y": -1.9428316173,
				"z": -1.6183375937,
				"element": "C" 
			},
			{
				"x": -2.4307048251,
				"y": -1.4485365914,
				"z": -1.1015637983,
				"element": "C" 
			},
			{
				"x": -1.2771275977,
				"y": -2.243287722,
				"z": -1.1398704017,
				"element": "C" 
			},
			{
				"x": -0.0512713084,
				"y": -1.790202769,
				"z": -0.6323383005,
				"element": "N" 
			},
			{
				"x": 0.0822146301,
				"y": -0.5959494989,
				"z": -0.0925924357,
				"element": "N" 
			},
			{
				"x": 1.2433675027,
				"y": -0.2078682059,
				"z": 0.3701977088,
				"element": "C" 
			},
			{
				"x": 2.3916594,
				"y": -1.068004072,
				"z": 0.3012931301,
				"element": "C" 
			},
			{
				"x": 3.2128303814,
				"y": -1.8830019946,
				"z": 0.1674334139,
				"element": "N" 
			},
			{
				"x": 1.3774452994,
				"y": 1.1138860193,
				"z": 0.9639863168,
				"element": "C" 
			},
			{
				"x": 2.4998927258,
				"y": 1.5608408602,
				"z": 1.441724745,
				"element": "N" 
			},
			{
				"x": 2.3482848959,
				"y": 2.8394883647,
				"z": 1.9436792127,
				"element": "C" 
			},
			{
				"x": 1.0418590621,
				"y": 3.381200804,
				"z": 1.8369279991,
				"element": "C" 
			},
			{
				"x": -0.0173741341,
				"y": 2.2115189644,
				"z": 1.0697246688,
				"element": "S" 
			},
			{
				"x": 0.7467248421,
				"y": 4.6637444621,
				"z": 2.3034546535,
				"element": "C" 
			},
			{
				"x": 1.7763798231,
				"y": 5.4034986487,
				"z": 2.8810135504,
				"element": "C" 
			},
			{
				"x": 3.075889601,
				"y": 4.877443358,
				"z": 2.9926323678,
				"element": "C" 
			},
			{
				"x": 3.3711596337,
				"y": 3.6019023543,
				"z": 2.5291000369,
				"element": "C" 
			},
			{
				"x": -1.3286120393,
				"y": -3.5285062789,
				"z": -1.6962262221,
				"element": "C" 
			},
			{
				"x": -2.5245404499,
				"y": -4.0196867053,
				"z": -2.2123036771,
				"element": "C" 
			},
			{
				"x": -4.5197187884,
				"y": -1.3323055188,
				"z": -1.591285459,
				"element": "H" 
			},
			{
				"x": -2.3847984958,
				"y": -0.456143989,
				"z": -0.6704086069,
				"element": "H" 
			},
			{
				"x": 0.7562183885,
				"y": -2.4113177747,
				"z": -0.6878757239,
				"element": "H" 
			},
			{
				"x": -0.2537295326,
				"y": 5.0759433179,
				"z": 2.2205635845,
				"element": "H" 
			},
			{
				"x": 1.5693878963,
				"y": 6.4033002534,
				"z": 3.2506317135,
				"element": "H" 
			},
			{
				"x": 3.8573701521,
				"y": 5.4782354351,
				"z": 3.4476306987,
				"element": "H" 
			},
			{
				"x": 4.3677050058,
				"y": 3.18038681,
				"z": 2.6070192221,
				"element": "H" 
			},
			{
				"x": -0.4352447904,
				"y": -4.1468255323,
				"z": -1.7270433218,
				"element": "H" 
			},
			{
				"x": -2.56476366,
				"y": -5.0135105706,
				"z": -2.6426572543,
				"element": "H" 
			}
		],
		 "valence_orbital": [ 
			{
				"type": "occ",
				"energy": -0.28869,
				"method": "rhf"
			},
			{
				"type": "occ",
				"energy": -0.27959,
				"method": "rhf"
			},
			{
				"type": "occ",
				"energy": -0.25311,
				"method": "rhf"
			},
			{
				"type": "occ",
				"energy": -0.24216,
				"method": "rhf"
			},
			{
				"type": "occ",
				"energy": -0.21739,
				"method": "rhf"
			},
			{
				"type": "unocc",
				"energy": -0.09349,
				"method": "rhf"
			},
			{
				"type": "unocc",
				"energy": -0.02942,
				"method": "rhf"
			},
			{
				"type": "unocc",
				"energy": -0.02484,
				"method": "rhf"
			},
			{
				"type": "unocc",
				"energy": -0.01227,
				"method": "rhf"
			},
			{
				"type": "unocc",
				"energy": -0.0074,
				"method": "rhf"
			}
		],
		"cosmo_sigma_profile": { 
			"-0.025": 0.0,
			"-0.024": 0.0,
			"-0.023": 0.0,
			"-0.022": 0.0,
			"-0.021": 0.0,
			"-0.02": 0.0,
			"-0.019": 0.0,
			"-0.018": 0.0,
			"-0.017": 0.0,
			"-0.016": 0.339742934463,
			"-0.015": 0.899453588666,
			"-0.014": 1.64807121146,
			"-0.013": 1.28706296572,
			"-0.012": 0.969704122793,
			"-0.011": 1.20981325497,
			"-0.01": 1.99980991742,
			"-0.009": 2.24778078323,
			"-0.008": 4.42528262603,
			"-0.007": 11.2981157133,
			"-0.006": 16.9362078471,
			"-0.005": 17.9227601249,
			"-0.004": 17.6322839535,
			"-0.003": 17.512146634,
			"-0.002": 22.0170969388,
			"-0.001": 22.5054119458,
			"0.0": 25.9760360281,
			"0.001": 31.9775527231,
			"0.002": 40.4182241954,
			"0.003": 36.4892828395,
			"0.004": 26.3706970264,
			"0.005": 11.7842305131,
			"0.006": 5.05579991447,
			"0.007": 4.59069974895,
			"0.008": 3.98725950397,
			"0.009": 4.14994751154,
			"0.01": 3.70705288209,
			"0.011": 3.00583408747,
			"0.012": 1.72047225754,
			"0.013": 0.318395812325,
			"0.014": 0.0,
			"0.015": 0.0,
			"0.016": 0.0,
			"0.017": 0.0,
			"0.018": 0.0,
			"0.019": 0.0,
			"0.02": 0.0,
			"0.021": 0.0,
			"0.022": 0.0,
			"0.023": 0.0,
			"0.024": 0.0,
			"0.025": 0.0
		}
	}
}
