{
	 "smiles": "CC1CNCC(C)O1", 
	 "Tm": 186.65, 
	 "num_atms": 21, 
	 "gaussian": { 
		 "optdone": 1, 
		 "sigma_profile": "yes", 
		 "theory": "DFT", 
		 "functional": "B3LYP", 
		 "basiset": "6-31G**", 
		 "properties": { 
			 "R2extent": 1278.7445, 
			 "electric_dipole_moment_norm": 1.1984484094, 
			 "electric_quadrupole_moment_norm": 6.02324368924, 
			 "total_energy": -366.433977473, 
			 "HOMO_LUMO_gap": 0.29025, 
			 "cosmo_polarized_energy": -6.5, 
			 "cosmo_cavitation_energy": 21.85, 
			 "cosmo_dispersion_energy": -16.46, 
			 "cosmo_repulsion_energy": 1.38, 
			 "cosmo_total_nonelectrostatic_energy": 6.77, 
			 "SMD_solvation_energy": 1.01 
		},
		"coords": [
			{
				"x": 0.8056114173,
				"y": -2.3165055929,
				"z": 1.0980271268,
				"element": "C" 
			},
			{
				"x": 0.2283361663,
				"y": -1.0028376769,
				"z": 0.5890193469,
				"element": "C" 
			},
			{
				"x": -0.226880436,
				"y": -1.0790200168,
				"z": -0.8675256248,
				"element": "C" 
			},
			{
				"x": -0.7062582805,
				"y": 0.2387236483,
				"z": -1.3156059143,
				"element": "N" 
			},
			{
				"x": -1.2840070914,
				"y": 1.046585308,
				"z": -0.2311143315,
				"element": "C" 
			},
			{
				"x": -1.8686285611,
				"y": 0.2016364533,
				"z": 0.9053037487,
				"element": "C" 
			},
			{
				"x": -2.4185210766,
				"y": 1.0375117562,
				"z": 2.0538222693,
				"element": "C" 
			},
			{
				"x": -0.8660060016,
				"y": -0.6674903606,
				"z": 1.4533286944,
				"element": "O" 
			},
			{
				"x": 1.7185869926,
				"y": -2.5778421721,
				"z": 0.5533493463,
				"element": "H" 
			},
			{
				"x": 1.0482221394,
				"y": -2.2301665723,
				"z": 2.1606441243,
				"element": "H" 
			},
			{
				"x": 0.0795462089,
				"y": -3.1273653495,
				"z": 0.9801425257,
				"element": "H" 
			},
			{
				"x": 1.0015700977,
				"y": -0.2200721651,
				"z": 0.662857799,
				"element": "H" 
			},
			{
				"x": 0.6144977704,
				"y": -1.3974871542,
				"z": -1.4969120976,
				"element": "H" 
			},
			{
				"x": -0.997021124,
				"y": -1.8669096464,
				"z": -0.9345570339,
				"element": "H" 
			},
			{
				"x": -1.3887063435,
				"y": 0.1167645898,
				"z": -2.0557464982,
				"element": "H" 
			},
			{
				"x": -0.511829754,
				"y": 1.7048198663,
				"z": 0.1928440333,
				"element": "H" 
			},
			{
				"x": -2.0574577078,
				"y": 1.7015493141,
				"z": -0.6456323465,
				"element": "H" 
			},
			{
				"x": -2.6834918602,
				"y": -0.4176995226,
				"z": 0.4912476909,
				"element": "H" 
			},
			{
				"x": -2.737718184,
				"y": 0.3867970974,
				"z": 2.872691799,
				"element": "H" 
			},
			{
				"x": -3.2790881783,
				"y": 1.6317675645,
				"z": 1.7282762786,
				"element": "H" 
			},
			{
				"x": -1.6490561936,
				"y": 1.7148406315,
				"z": 2.4386390637,
				"element": "H" 
			}
		],
		 "valence_orbital": [ 
			{
				"type": "occ",
				"energy": -0.3489,
				"method": "rhf"
			},
			{
				"type": "occ",
				"energy": -0.34389,
				"method": "rhf"
			},
			{
				"type": "occ",
				"energy": -0.29424,
				"method": "rhf"
			},
			{
				"type": "occ",
				"energy": -0.24079,
				"method": "rhf"
			},
			{
				"type": "occ",
				"energy": -0.21249,
				"method": "rhf"
			},
			{
				"type": "unocc",
				"energy": 0.07776,
				"method": "rhf"
			},
			{
				"type": "unocc",
				"energy": 0.10122,
				"method": "rhf"
			},
			{
				"type": "unocc",
				"energy": 0.11427,
				"method": "rhf"
			},
			{
				"type": "unocc",
				"energy": 0.12138,
				"method": "rhf"
			},
			{
				"type": "unocc",
				"energy": 0.13,
				"method": "rhf"
			}
		],
		"cosmo_sigma_profile": { 
			"-0.025": 0.0,
			"-0.024": 0.0,
			"-0.023": 0.0,
			"-0.022": 0.0,
			"-0.021": 0.0,
			"-0.02": 0.0,
			"-0.019": 0.0,
			"-0.018": 0.0,
			"-0.017": 0.0,
			"-0.016": 0.0,
			"-0.015": 0.0,
			"-0.014": 0.0,
			"-0.013": 0.0,
			"-0.012": 0.0,
			"-0.011": 0.0,
			"-0.01": 0.994082095627,
			"-0.009": 1.46117878654,
			"-0.008": 1.35729408843,
			"-0.007": 1.34785770071,
			"-0.006": 2.15937674492,
			"-0.005": 2.7500254503,
			"-0.004": 8.74978240557,
			"-0.003": 26.0079731273,
			"-0.002": 29.5951474111,
			"-0.001": 23.8160081374,
			"0.0": 21.6098804963,
			"0.001": 14.7241081426,
			"0.002": 5.39603791653,
			"0.003": 3.44291996846,
			"0.004": 1.83933813695,
			"0.005": 2.68055312704,
			"0.006": 2.65037930195,
			"0.007": 1.72554063816,
			"0.008": 2.40318027937,
			"0.009": 2.13573756678,
			"0.01": 1.64762061877,
			"0.011": 2.41102577025,
			"0.012": 1.87144899178,
			"0.013": 1.62717666824,
			"0.014": 0.856679469485,
			"0.015": 0.841533491768,
			"0.016": 0.779425736552,
			"0.017": 0.378279591525,
			"0.018": 0.519484394918,
			"0.019": 0.146612161803,
			"0.02": 0.0,
			"0.021": 0.0,
			"0.022": 0.0,
			"0.023": 0.0,
			"0.024": 0.0,
			"0.025": 0.0
		}
	}
}
