{
	 "smiles": "OC(=O)C1=C(F)C(F)=CC(=C1)[N+]([O-])=O", 
	 "Tm": 406.15, 
	 "num_atms": 17, 
	 "gaussian": { 
		 "optdone": 1, 
		 "sigma_profile": "yes", 
		 "theory": "DFT", 
		 "functional": "B3LYP", 
		 "basiset": "6-31G**", 
		 "properties": { 
			 "R2extent": 3435.9771, 
			 "electric_dipole_moment_norm": 2.22110380217, 
			 "electric_quadrupole_moment_norm": 17.2724213201, 
			 "total_energy": -823.754976624, 
			 "HOMO_LUMO_gap": 0.17878, 
			 "cosmo_polarized_energy": -17.29, 
			 "cosmo_cavitation_energy": 24.65, 
			 "cosmo_dispersion_energy": -17.65, 
			 "cosmo_repulsion_energy": 1.34, 
			 "cosmo_total_nonelectrostatic_energy": 8.34, 
			 "SMD_solvation_energy": 8.74 
		},
		"coords": [
			{
				"x": -2.7548836771,
				"y": -0.1441362278,
				"z": 0.1555491876,
				"element": "O" 
			},
			{
				"x": -2.0262952291,
				"y": 0.6049913897,
				"z": 1.0210865681,
				"element": "C" 
			},
			{
				"x": -2.5411752482,
				"y": 1.4743635189,
				"z": 1.6744914973,
				"element": "O" 
			},
			{
				"x": -0.5676302455,
				"y": 0.2425072816,
				"z": 1.1228343547,
				"element": "C" 
			},
			{
				"x": 0.3859944402,
				"y": 1.2365325743,
				"z": 1.3775610107,
				"element": "C" 
			},
			{
				"x": 0.0468597475,
				"y": 2.5178524316,
				"z": 1.4532000239,
				"element": "F" 
			},
			{
				"x": 1.7375209828,
				"y": 0.9046484352,
				"z": 1.5292824951,
				"element": "C" 
			},
			{
				"x": 2.6125169177,
				"y": 1.8895359392,
				"z": 1.7517751348,
				"element": "F" 
			},
			{
				"x": 2.1657187674,
				"y": -0.4091209135,
				"z": 1.4501994557,
				"element": "C" 
			},
			{
				"x": 1.2057083178,
				"y": -1.3898421202,
				"z": 1.2063366684,
				"element": "C" 
			},
			{
				"x": -0.1405258813,
				"y": -1.088640091,
				"z": 1.038743532,
				"element": "C" 
			},
			{
				"x": 1.6375053638,
				"y": -2.7946567748,
				"z": 1.1222824431,
				"element": "N" 
			},
			{
				"x": 0.7726921543,
				"y": -3.6380324547,
				"z": 0.8923431578,
				"element": "O" 
			},
			{
				"x": 2.8326100557,
				"y": -3.0290895179,
				"z": 1.2833264967,
				"element": "O" 
			},
			{
				"x": -2.1794199969,
				"y": -0.6896528091,
				"z": -0.3993255637,
				"element": "H" 
			},
			{
				"x": 3.2099674109,
				"y": -0.6663678023,
				"z": 1.5724954084,
				"element": "H" 
			},
			{
				"x": -0.8401638802,
				"y": -1.9009928592,
				"z": 0.8818181292,
				"element": "H" 
			}
		],
		 "valence_orbital": [ 
			{
				"type": "occ",
				"energy": -0.33395,
				"method": "rhf"
			},
			{
				"type": "occ",
				"energy": -0.31689,
				"method": "rhf"
			},
			{
				"type": "occ",
				"energy": -0.31392,
				"method": "rhf"
			},
			{
				"type": "occ",
				"energy": -0.29718,
				"method": "rhf"
			},
			{
				"type": "occ",
				"energy": -0.29445,
				"method": "rhf"
			},
			{
				"type": "unocc",
				"energy": -0.11567,
				"method": "rhf"
			},
			{
				"type": "unocc",
				"energy": -0.08109,
				"method": "rhf"
			},
			{
				"type": "unocc",
				"energy": -0.02945,
				"method": "rhf"
			},
			{
				"type": "unocc",
				"energy": 0.0131,
				"method": "rhf"
			},
			{
				"type": "unocc",
				"energy": 0.0361,
				"method": "rhf"
			}
		],
		"cosmo_sigma_profile": { 
			"-0.025": 0.0,
			"-0.024": 0.0,
			"-0.023": 0.0,
			"-0.022": 0.0,
			"-0.021": 0.0,
			"-0.02": 0.255710407077,
			"-0.019": 1.4095777179,
			"-0.018": 1.14420930116,
			"-0.017": 0.89868188293,
			"-0.016": 0.60073559995,
			"-0.015": 1.25148866805,
			"-0.014": 1.52600756561,
			"-0.013": 1.09437772199,
			"-0.012": 0.907919448322,
			"-0.011": 1.31279648733,
			"-0.01": 2.80381028828,
			"-0.009": 3.4411043501,
			"-0.008": 3.73633452196,
			"-0.007": 5.67683116122,
			"-0.006": 6.6204881766,
			"-0.005": 12.6252267077,
			"-0.004": 15.6764928255,
			"-0.003": 18.3454569706,
			"-0.002": 8.89780734577,
			"-0.001": 6.62825505142,
			"0.0": 6.49866000322,
			"0.001": 8.74943057827,
			"0.002": 18.4356314266,
			"0.003": 9.93426136717,
			"0.004": 6.96363880645,
			"0.005": 4.99675369265,
			"0.006": 9.51389607603,
			"0.007": 11.2489632781,
			"0.008": 8.26128387723,
			"0.009": 8.64003158037,
			"0.01": 5.79538132256,
			"0.011": 4.52378591752,
			"0.012": 0.994092235247,
			"0.013": 0.0,
			"0.014": 0.0,
			"0.015": 0.0,
			"0.016": 0.0,
			"0.017": 0.0,
			"0.018": 0.0,
			"0.019": 0.0,
			"0.02": 0.0,
			"0.021": 0.0,
			"0.022": 0.0,
			"0.023": 0.0,
			"0.024": 0.0,
			"0.025": 0.0
		}
	}
}
