{
	 "smiles": "ClC1=CC(Br)=CN=C1", 
	 "Tm": 353.15, 
	 "num_atms": 11, 
	 "gaussian": { 
		 "optdone": 1, 
		 "sigma_profile": "yes", 
		 "theory": "DFT", 
		 "functional": "B3LYP", 
		 "basiset": "6-31G**", 
		 "properties": { 
			 "R2extent": 3860.2466, 
			 "electric_dipole_moment_norm": 0.697617230292, 
			 "electric_quadrupole_moment_norm": 2.98384183059, 
			 "total_energy": -3278.67626124, 
			 "HOMO_LUMO_gap": 0.21127, 
			 "cosmo_polarized_energy": -4.53, 
			 "cosmo_cavitation_energy": 19.75, 
			 "cosmo_dispersion_energy": -15.37, 
			 "cosmo_repulsion_energy": 1.27, 
			 "cosmo_total_nonelectrostatic_energy": 5.65, 
			 "SMD_solvation_energy": 0.69 
		},
		"coords": [
			{
				"x": -2.9920097358,
				"y": -0.4162269118,
				"z": 0.8147735231,
				"element": "Cl" 
			},
			{
				"x": -1.7299276538,
				"y": -1.2669222958,
				"z": -0.0470878929,
				"element": "C" 
			},
			{
				"x": -1.4986497578,
				"y": -0.9971684942,
				"z": -1.3943841402,
				"element": "C" 
			},
			{
				"x": -0.4787128581,
				"y": -1.7106887981,
				"z": -2.0181144753,
				"element": "C" 
			},
			{
				"x": -0.0883951699,
				"y": -1.4105919588,
				"z": -3.8578098216,
				"element": "Br" 
			},
			{
				"x": 0.2596602484,
				"y": -2.6484225771,
				"z": -1.2930159586,
				"element": "C" 
			},
			{
				"x": 0.0233377312,
				"y": -2.8936030124,
				"z": -0.0014946078,
				"element": "N" 
			},
			{
				"x": -0.9506061095,
				"y": -2.2195252986,
				"z": 0.6146592074,
				"element": "C" 
			},
			{
				"x": -2.0881068883,
				"y": -0.2637864915,
				"z": -1.9309644568,
				"element": "H" 
			},
			{
				"x": 1.0576335574,
				"y": -3.2109514493,
				"z": -1.769317426,
				"element": "H" 
			},
			{
				"x": -1.1228233637,
				"y": -2.4373127124,
				"z": 1.6653560485,
				"element": "H" 
			}
		],
		 "valence_orbital": [ 
			{
				"type": "occ",
				"energy": -0.33739,
				"method": "rhf"
			},
			{
				"type": "occ",
				"energy": -0.30725,
				"method": "rhf"
			},
			{
				"type": "occ",
				"energy": -0.28884,
				"method": "rhf"
			},
			{
				"type": "occ",
				"energy": -0.27832,
				"method": "rhf"
			},
			{
				"type": "occ",
				"energy": -0.26306,
				"method": "rhf"
			},
			{
				"type": "unocc",
				"energy": -0.05179,
				"method": "rhf"
			},
			{
				"type": "unocc",
				"energy": -0.03893,
				"method": "rhf"
			},
			{
				"type": "unocc",
				"energy": -0.01757,
				"method": "rhf"
			},
			{
				"type": "unocc",
				"energy": 0.02878,
				"method": "rhf"
			},
			{
				"type": "unocc",
				"energy": 0.11222,
				"method": "rhf"
			}
		],
		"cosmo_sigma_profile": { 
			"-0.025": 0.0,
			"-0.024": 0.0,
			"-0.023": 0.0,
			"-0.022": 0.0,
			"-0.021": 0.0,
			"-0.02": 0.0,
			"-0.019": 0.0,
			"-0.018": 0.0,
			"-0.017": 0.0,
			"-0.016": 0.0,
			"-0.015": 0.0,
			"-0.014": 0.0,
			"-0.013": 0.0,
			"-0.012": 0.0,
			"-0.011": 0.0,
			"-0.01": 0.234139048302,
			"-0.009": 2.02896146773,
			"-0.008": 4.21679322844,
			"-0.007": 5.00654380509,
			"-0.006": 4.9896166426,
			"-0.005": 6.09648384062,
			"-0.004": 6.84150373889,
			"-0.003": 8.8469696158,
			"-0.002": 13.8052089907,
			"-0.001": 24.4808097883,
			"0.0": 18.1279953759,
			"0.001": 12.212975033,
			"0.002": 13.2706618761,
			"0.003": 20.3440813441,
			"0.004": 14.3659038584,
			"0.005": 0.983452805584,
			"0.006": 1.92193651722,
			"0.007": 1.33289524058,
			"0.008": 0.728959592561,
			"0.009": 0.811773917026,
			"0.01": 0.718614726575,
			"0.011": 1.04209782557,
			"0.012": 0.830740670791,
			"0.013": 1.05772491937,
			"0.014": 0.653426067678,
			"0.015": 0.363196483064,
			"0.016": 0.0,
			"0.017": 0.0,
			"0.018": 0.0,
			"0.019": 0.0,
			"0.02": 0.0,
			"0.021": 0.0,
			"0.022": 0.0,
			"0.023": 0.0,
			"0.024": 0.0,
			"0.025": 0.0
		}
	}
}
