{
	 "smiles": "OC(=O)COC1=CC2=C(C=CC(=O)O2)C=C1", 
	 "Tm": 487.15, 
	 "num_atms": 24, 
	 "gaussian": { 
		 "optdone": 1, 
		 "sigma_profile": "yes", 
		 "theory": "DFT", 
		 "functional": "B3LYP", 
		 "basiset": "6-31G**", 
		 "properties": { 
			 "R2extent": 4221.5791, 
			 "electric_dipole_moment_norm": 5.18785878856, 
			 "electric_quadrupole_moment_norm": 18.2475770534, 
			 "total_energy": -800.111015761, 
			 "HOMO_LUMO_gap": 0.16303, 
			 "cosmo_polarized_energy": -18.93, 
			 "cosmo_cavitation_energy": 29.77, 
			 "cosmo_dispersion_energy": -21.7, 
			 "cosmo_repulsion_energy": 1.7, 
			 "cosmo_total_nonelectrostatic_energy": 9.77, 
			 "SMD_solvation_energy": 7.76 
		},
		"coords": [
			{
				"x": 1.4836335786,
				"y": 2.0737233375,
				"z": 2.4285838689,
				"element": "O" 
			},
			{
				"x": 2.5521765291,
				"y": 1.2652876017,
				"z": 2.3166431382,
				"element": "C" 
			},
			{
				"x": 3.6744029747,
				"y": 1.6468378714,
				"z": 2.0756959982,
				"element": "O" 
			},
			{
				"x": 2.2229995732,
				"y": -0.2021076604,
				"z": 2.5793570356,
				"element": "C" 
			},
			{
				"x": 0.8540490292,
				"y": -0.5452422581,
				"z": 2.50451363,
				"element": "O" 
			},
			{
				"x": 0.258672018,
				"y": -0.6351738138,
				"z": 1.2806018299,
				"element": "C" 
			},
			{
				"x": 0.9035826438,
				"y": -0.3813753803,
				"z": 0.0698547634,
				"element": "C" 
			},
			{
				"x": 0.1780183866,
				"y": -0.5223401397,
				"z": -1.1164111812,
				"element": "C" 
			},
			{
				"x": -1.1748619294,
				"y": -0.9097047434,
				"z": -1.1205194326,
				"element": "C" 
			},
			{
				"x": -1.8281666991,
				"y": -1.0240096789,
				"z": -2.3959501304,
				"element": "C" 
			},
			{
				"x": -1.1592431991,
				"y": -0.7660655371,
				"z": -3.5446610236,
				"element": "C" 
			},
			{
				"x": 0.2411982688,
				"y": -0.36379254,
				"z": -3.538896594,
				"element": "C" 
			},
			{
				"x": 0.9229572241,
				"y": -0.1116444396,
				"z": -4.5032848731,
				"element": "O" 
			},
			{
				"x": 0.8441427322,
				"y": -0.2639573385,
				"z": -2.2752532482,
				"element": "O" 
			},
			{
				"x": -1.7944670307,
				"y": -1.155760481,
				"z": 0.1219568623,
				"element": "C" 
			},
			{
				"x": -1.0967868454,
				"y": -1.0231462788,
				"z": 1.3062672722,
				"element": "C" 
			},
			{
				"x": 1.803279986,
				"y": 2.975943913,
				"z": 2.2556966835,
				"element": "H" 
			},
			{
				"x": 2.8437270939,
				"y": -0.8102066645,
				"z": 1.9125973064,
				"element": "H" 
			},
			{
				"x": 2.5254284673,
				"y": -0.4217391837,
				"z": 3.6079459875,
				"element": "H" 
			},
			{
				"x": 1.9391975497,
				"y": -0.0731811173,
				"z": 0.0009263333,
				"element": "H" 
			},
			{
				"x": -2.8735518479,
				"y": -1.3224660255,
				"z": -2.4221077841,
				"element": "H" 
			},
			{
				"x": -1.6209427334,
				"y": -0.8425352416,
				"z": -4.5214835172,
				"element": "H" 
			},
			{
				"x": -2.8386753243,
				"y": -1.4552599644,
				"z": 0.138663015,
				"element": "H" 
			},
			{
				"x": -1.5625704461,
				"y": -1.2101842369,
				"z": 2.2670640599,
				"element": "H" 
			}
		],
		 "valence_orbital": [ 
			{
				"type": "occ",
				"energy": -0.30571,
				"method": "rhf"
			},
			{
				"type": "occ",
				"energy": -0.28731,
				"method": "rhf"
			},
			{
				"type": "occ",
				"energy": -0.2726,
				"method": "rhf"
			},
			{
				"type": "occ",
				"energy": -0.25832,
				"method": "rhf"
			},
			{
				"type": "occ",
				"energy": -0.22717,
				"method": "rhf"
			},
			{
				"type": "unocc",
				"energy": -0.06414,
				"method": "rhf"
			},
			{
				"type": "unocc",
				"energy": -0.02156,
				"method": "rhf"
			},
			{
				"type": "unocc",
				"energy": -0.00752,
				"method": "rhf"
			},
			{
				"type": "unocc",
				"energy": 0.00602,
				"method": "rhf"
			},
			{
				"type": "unocc",
				"energy": 0.05997,
				"method": "rhf"
			}
		],
		"cosmo_sigma_profile": { 
			"-0.025": 0.0,
			"-0.024": 0.0,
			"-0.023": 0.0,
			"-0.022": 0.0,
			"-0.021": 0.0,
			"-0.02": 0.0,
			"-0.019": 0.688093629813,
			"-0.018": 0.914480011479,
			"-0.017": 0.863771253939,
			"-0.016": 0.527648633127,
			"-0.015": 1.22462394259,
			"-0.014": 0.751418657052,
			"-0.013": 0.441342726283,
			"-0.012": 0.774690408418,
			"-0.011": 0.60686802411,
			"-0.01": 2.19282346358,
			"-0.009": 5.68466090734,
			"-0.008": 11.2605561268,
			"-0.007": 13.8998415258,
			"-0.006": 12.9573788358,
			"-0.005": 11.7031023892,
			"-0.004": 10.8594419882,
			"-0.003": 12.3052552462,
			"-0.002": 11.4759566685,
			"-0.001": 13.134605987,
			"0.0": 17.5017635723,
			"0.001": 19.0295883431,
			"0.002": 16.8608779938,
			"0.003": 10.60304516,
			"0.004": 7.31770454211,
			"0.005": 5.26081204119,
			"0.006": 6.20563913329,
			"0.007": 5.78038971284,
			"0.008": 7.113016213,
			"0.009": 5.00576045667,
			"0.01": 5.92037883475,
			"0.011": 8.65769553941,
			"0.012": 8.56957464955,
			"0.013": 2.63452846854,
			"0.014": 0.115482406113,
			"0.015": 0.0,
			"0.016": 0.0,
			"0.017": 0.0,
			"0.018": 0.0,
			"0.019": 0.0,
			"0.02": 0.0,
			"0.021": 0.0,
			"0.022": 0.0,
			"0.023": 0.0,
			"0.024": 0.0,
			"0.025": 0.0
		}
	}
}
