{
	 "smiles": "OC1=CC(NC2=CC(=O)C(=O)C3=CC=CC=C23)=CC=C1", 
	 "Tm": 573.15, 
	 "num_atms": 31, 
	 "gaussian": { 
		 "optdone": 1, 
		 "sigma_profile": "yes", 
		 "theory": "DFT", 
		 "functional": "B3LYP", 
		 "basiset": "6-31G**", 
		 "properties": { 
			 "R2extent": 6008.1979, 
			 "electric_dipole_moment_norm": 6.19507518437, 
			 "electric_quadrupole_moment_norm": 28.7206056895, 
			 "total_energy": -896.730783713, 
			 "HOMO_LUMO_gap": 0.11325, 
			 "cosmo_polarized_energy": -23.59, 
			 "cosmo_cavitation_energy": 35.98, 
			 "cosmo_dispersion_energy": -25.39, 
			 "cosmo_repulsion_energy": 1.93, 
			 "cosmo_total_nonelectrostatic_energy": 12.52, 
			 "SMD_solvation_energy": 7.33 
		},
		"coords": [
			{
				"x": -1.7999953933,
				"y": 3.4165377204,
				"z": 2.255371501,
				"element": "O" 
			},
			{
				"x": -0.5759929517,
				"y": 3.389508695,
				"z": 1.6550795105,
				"element": "C" 
			},
			{
				"x": -0.2941023214,
				"y": 2.543819286,
				"z": 0.5779939555,
				"element": "C" 
			},
			{
				"x": 0.9846185008,
				"y": 2.5506168291,
				"z": 0.0049397546,
				"element": "C" 
			},
			{
				"x": 1.3147973056,
				"y": 1.7167975122,
				"z": -1.0951260411,
				"element": "N" 
			},
			{
				"x": 0.6028546518,
				"y": 0.6040483844,
				"z": -1.5348044316,
				"element": "C" 
			},
			{
				"x": 0.2857908217,
				"y": 0.4907576511,
				"z": -2.8585294112,
				"element": "C" 
			},
			{
				"x": -0.4361115227,
				"y": -0.6388541739,
				"z": -3.4162548701,
				"element": "C" 
			},
			{
				"x": -0.7228400496,
				"y": -0.739119233,
				"z": -4.6017032859,
				"element": "O" 
			},
			{
				"x": -0.9170450383,
				"y": -1.7196524481,
				"z": -2.420122002,
				"element": "C" 
			},
			{
				"x": -1.6259558381,
				"y": -2.6330662616,
				"z": -2.8019387976,
				"element": "O" 
			},
			{
				"x": -0.451003846,
				"y": -1.6041211448,
				"z": -1.0086929468,
				"element": "C" 
			},
			{
				"x": -0.7275360577,
				"y": -2.6552312963,
				"z": -0.1293875944,
				"element": "C" 
			},
			{
				"x": -0.2320855548,
				"y": -2.6386475669,
				"z": 1.1721795801,
				"element": "C" 
			},
			{
				"x": 0.5646291626,
				"y": -1.5702168551,
				"z": 1.5881785563,
				"element": "C" 
			},
			{
				"x": 0.8397941596,
				"y": -0.5110913943,
				"z": 0.7222366308,
				"element": "C" 
			},
			{
				"x": 0.3164912697,
				"y": -0.4957571132,
				"z": -0.5789259198,
				"element": "C" 
			},
			{
				"x": 1.9656708301,
				"y": 3.4244046297,
				"z": 0.4922170509,
				"element": "C" 
			},
			{
				"x": 1.6576581104,
				"y": 4.2789576753,
				"z": 1.5509631889,
				"element": "C" 
			},
			{
				"x": 0.3989262171,
				"y": 4.266207834,
				"z": 2.145897091,
				"element": "C" 
			},
			{
				"x": -2.3813028662,
				"y": 2.7710227795,
				"z": 1.8325305885,
				"element": "H" 
			},
			{
				"x": -1.0673591381,
				"y": 1.895168562,
				"z": 0.1769581635,
				"element": "H" 
			},
			{
				"x": 1.7779118548,
				"y": 2.2151931064,
				"z": -1.8445364874,
				"element": "H" 
			},
			{
				"x": 0.5216314109,
				"y": 1.2943615023,
				"z": -3.5512291163,
				"element": "H" 
			},
			{
				"x": -1.3199111775,
				"y": -3.4843222903,
				"z": -0.5024945677,
				"element": "H" 
			},
			{
				"x": -0.4476785835,
				"y": -3.4586380808,
				"z": 1.8504196516,
				"element": "H" 
			},
			{
				"x": 0.9800806865,
				"y": -1.5581711621,
				"z": 2.5914970211,
				"element": "H" 
			},
			{
				"x": 1.4702269732,
				"y": 0.3010481377,
				"z": 1.0610322032,
				"element": "H" 
			},
			{
				"x": 2.9573879078,
				"y": 3.420268662,
				"z": 0.0504917104,
				"element": "H" 
			},
			{
				"x": 2.4177152295,
				"y": 4.95810805,
				"z": 1.9256675383,
				"element": "H" 
			},
			{
				"x": 0.1518352469,
				"y": 4.9191620035,
				"z": 2.9753917757,
				"element": "H" 
			}
		],
		 "valence_orbital": [ 
			{
				"type": "occ",
				"energy": -0.27332,
				"method": "rhf"
			},
			{
				"type": "occ",
				"energy": -0.25283,
				"method": "rhf"
			},
			{
				"type": "occ",
				"energy": -0.24399,
				"method": "rhf"
			},
			{
				"type": "occ",
				"energy": -0.2348,
				"method": "rhf"
			},
			{
				"type": "occ",
				"energy": -0.22149,
				"method": "rhf"
			},
			{
				"type": "unocc",
				"energy": -0.10824,
				"method": "rhf"
			},
			{
				"type": "unocc",
				"energy": -0.04625,
				"method": "rhf"
			},
			{
				"type": "unocc",
				"energy": -0.01558,
				"method": "rhf"
			},
			{
				"type": "unocc",
				"energy": -0.00623,
				"method": "rhf"
			},
			{
				"type": "unocc",
				"energy": -0.00387,
				"method": "rhf"
			}
		],
		"cosmo_sigma_profile": { 
			"-0.025": 0.0,
			"-0.024": 0.0,
			"-0.023": 0.0,
			"-0.022": 0.0,
			"-0.021": 0.0,
			"-0.02": 0.0,
			"-0.019": 0.0,
			"-0.018": 0.588445873446,
			"-0.017": 1.38559904462,
			"-0.016": 0.821588577423,
			"-0.015": 1.97398894894,
			"-0.014": 2.57779492556,
			"-0.013": 2.11387518172,
			"-0.012": 1.75860042126,
			"-0.011": 2.32717537876,
			"-0.01": 3.30469557894,
			"-0.009": 2.88664665937,
			"-0.008": 3.06747163219,
			"-0.007": 8.57950006648,
			"-0.006": 17.6886009666,
			"-0.005": 18.9881793574,
			"-0.004": 17.9961746489,
			"-0.003": 15.1636786922,
			"-0.002": 15.6618671204,
			"-0.001": 16.5445982423,
			"0.0": 18.7904696624,
			"0.001": 23.0959912649,
			"0.002": 25.9095753968,
			"0.003": 17.3760297892,
			"0.004": 13.7474773336,
			"0.005": 11.0366995745,
			"0.006": 4.77764313096,
			"0.007": 3.96540714194,
			"0.008": 4.21991038874,
			"0.009": 5.53004320445,
			"0.01": 6.40216206326,
			"0.011": 7.23208813261,
			"0.012": 6.31690123601,
			"0.013": 3.83544360748,
			"0.014": 1.70135256645,
			"0.015": 1.36102346819,
			"0.016": 0.325876950152,
			"0.017": 0.0,
			"0.018": 0.0,
			"0.019": 0.0,
			"0.02": 0.0,
			"0.021": 0.0,
			"0.022": 0.0,
			"0.023": 0.0,
			"0.024": 0.0,
			"0.025": 0.0
		}
	}
}
