{
	 "smiles": "CCOC(=O)CC1=C2C=CC=CC2=CC=C1", 
	 "Tm": 361.65, 
	 "num_atms": 30, 
	 "gaussian": { 
		 "optdone": 1, 
		 "sigma_profile": "yes", 
		 "theory": "DFT", 
		 "functional": "B3LYP", 
		 "basiset": "6-31G**", 
		 "properties": { 
			 "R2extent": 4573.662, 
			 "electric_dipole_moment_norm": 1.72511055878, 
			 "electric_quadrupole_moment_norm": 13.5493741176, 
			 "total_energy": -692.404768965, 
			 "HOMO_LUMO_gap": 0.17404, 
			 "cosmo_polarized_energy": -10.0, 
			 "cosmo_cavitation_energy": 33.58, 
			 "cosmo_dispersion_energy": -23.6, 
			 "cosmo_repulsion_energy": 1.85, 
			 "cosmo_total_nonelectrostatic_energy": 11.83, 
			 "SMD_solvation_energy": 6.38 
		},
		"coords": [
			{
				"x": -0.277430149,
				"y": 1.4604168515,
				"z": -3.5999623606,
				"element": "C" 
			},
			{
				"x": -0.9745396242,
				"y": 0.6340161164,
				"z": -2.5362333414,
				"element": "C" 
			},
			{
				"x": 0.0489677,
				"y": -0.0537851685,
				"z": -1.7774498625,
				"element": "O" 
			},
			{
				"x": -0.3971121069,
				"y": -0.8494301881,
				"z": -0.7777301619,
				"element": "C" 
			},
			{
				"x": -1.5679900521,
				"y": -1.002915035,
				"z": -0.5126355623,
				"element": "O" 
			},
			{
				"x": 0.7586385947,
				"y": -1.5333867751,
				"z": -0.0534939781,
				"element": "C" 
			},
			{
				"x": 0.7555445049,
				"y": -1.2764949302,
				"z": 1.4410784909,
				"element": "C" 
			},
			{
				"x": 1.2067212779,
				"y": -0.0244400833,
				"z": 1.9745993865,
				"element": "C" 
			},
			{
				"x": 1.6607727789,
				"y": 1.047496473,
				"z": 1.1557042696,
				"element": "C" 
			},
			{
				"x": 2.095063688,
				"y": 2.2321804944,
				"z": 1.7099618351,
				"element": "C" 
			},
			{
				"x": 2.0985435606,
				"y": 2.4113712006,
				"z": 3.1129553476,
				"element": "C" 
			},
			{
				"x": 1.6601464661,
				"y": 1.3980731878,
				"z": 3.9345193753,
				"element": "C" 
			},
			{
				"x": 1.2037065754,
				"y": 0.1643592051,
				"z": 3.3978405615,
				"element": "C" 
			},
			{
				"x": 0.7425024799,
				"y": -0.8822794326,
				"z": 4.2409066694,
				"element": "C" 
			},
			{
				"x": 0.303207858,
				"y": -2.0682794611,
				"z": 3.7040432094,
				"element": "C" 
			},
			{
				"x": 0.3138653809,
				"y": -2.2601269153,
				"z": 2.3024680778,
				"element": "C" 
			},
			{
				"x": 0.3098852646,
				"y": 0.8241327855,
				"z": -4.2683081967,
				"element": "H" 
			},
			{
				"x": -1.0202090474,
				"y": 1.9958724854,
				"z": -4.1994785803,
				"element": "H" 
			},
			{
				"x": 0.3934597851,
				"y": 2.1965199636,
				"z": -3.1475749671,
				"element": "H" 
			},
			{
				"x": -1.5629030929,
				"y": 1.2527468059,
				"z": -1.8516119097,
				"element": "H" 
			},
			{
				"x": -1.6502857801,
				"y": -0.1102715316,
				"z": -2.9690003047,
				"element": "H" 
			},
			{
				"x": 1.7033068607,
				"y": -1.2338249779,
				"z": -0.5137827061,
				"element": "H" 
			},
			{
				"x": 0.6347726209,
				"y": -2.6072708081,
				"z": -0.2277399588,
				"element": "H" 
			},
			{
				"x": 1.650765611,
				"y": 0.9384582494,
				"z": 0.0765384662,
				"element": "H" 
			},
			{
				"x": 2.4359520053,
				"y": 3.0368967252,
				"z": 1.0646936211,
				"element": "H" 
			},
			{
				"x": 2.4444707135,
				"y": 3.3494269277,
				"z": 3.5373914368,
				"element": "H" 
			},
			{
				"x": 1.6547305846,
				"y": 1.5276418242,
				"z": 5.0138942553,
				"element": "H" 
			},
			{
				"x": 0.7429697983,
				"y": -0.7265177005,
				"z": 5.3166272354,
				"element": "H" 
			},
			{
				"x": -0.0513358312,
				"y": -2.8662592733,
				"z": 4.349803076,
				"element": "H" 
			},
			{
				"x": -0.0333884255,
				"y": -3.2056270149,
				"z": 1.8950765765,
				"element": "H" 
			}
		],
		 "valence_orbital": [ 
			{
				"type": "occ",
				"energy": -0.29917,
				"method": "rhf"
			},
			{
				"type": "occ",
				"energy": -0.28217,
				"method": "rhf"
			},
			{
				"type": "occ",
				"energy": -0.26508,
				"method": "rhf"
			},
			{
				"type": "occ",
				"energy": -0.24123,
				"method": "rhf"
			},
			{
				"type": "occ",
				"energy": -0.21241,
				"method": "rhf"
			},
			{
				"type": "unocc",
				"energy": -0.03837,
				"method": "rhf"
			},
			{
				"type": "unocc",
				"energy": -0.00858,
				"method": "rhf"
			},
			{
				"type": "unocc",
				"energy": 0.01157,
				"method": "rhf"
			},
			{
				"type": "unocc",
				"energy": 0.03751,
				"method": "rhf"
			},
			{
				"type": "unocc",
				"energy": 0.09208,
				"method": "rhf"
			}
		],
		"cosmo_sigma_profile": { 
			"-0.025": 0.0,
			"-0.024": 0.0,
			"-0.023": 0.0,
			"-0.022": 0.0,
			"-0.021": 0.0,
			"-0.02": 0.0,
			"-0.019": 0.0,
			"-0.018": 0.0,
			"-0.017": 0.0,
			"-0.016": 0.0,
			"-0.015": 0.0,
			"-0.014": 0.0,
			"-0.013": 0.0,
			"-0.012": 0.0,
			"-0.011": 0.0,
			"-0.01": 0.0,
			"-0.009": 0.0,
			"-0.008": 0.0727551049903,
			"-0.007": 2.8273774179,
			"-0.006": 13.1849242813,
			"-0.005": 22.0294815587,
			"-0.004": 29.5431394955,
			"-0.003": 29.611612595,
			"-0.002": 21.9925587012,
			"-0.001": 21.1632196726,
			"0.0": 18.695463529,
			"0.001": 14.3001823036,
			"0.002": 13.622231921,
			"0.003": 14.9477173951,
			"0.004": 23.5028327489,
			"0.005": 17.8548901748,
			"0.006": 5.61654000661,
			"0.007": 2.36772960163,
			"0.008": 3.1127523445,
			"0.009": 1.54041140114,
			"0.01": 2.06803035567,
			"0.011": 3.21925494134,
			"0.012": 4.85477788188,
			"0.013": 0.721409438526,
			"0.014": 0.0,
			"0.015": 0.0,
			"0.016": 0.0,
			"0.017": 0.0,
			"0.018": 0.0,
			"0.019": 0.0,
			"0.02": 0.0,
			"0.021": 0.0,
			"0.022": 0.0,
			"0.023": 0.0,
			"0.024": 0.0,
			"0.025": 0.0
		}
	}
}
