{
	 "smiles": "CC(C)NC(C)(C)CO", 
	 "Tm": 316.15, 
	 "num_atms": 26, 
	 "gaussian": { 
		 "optdone": 1, 
		 "sigma_profile": "yes", 
		 "theory": "DFT", 
		 "functional": "B3LYP", 
		 "basiset": "6-31G**", 
		 "properties": { 
			 "R2extent": 1689.3044, 
			 "electric_dipole_moment_norm": 1.49057337961, 
			 "electric_quadrupole_moment_norm": 7.78083489993, 
			 "total_energy": -406.962675158, 
			 "HOMO_LUMO_gap": 0.27338, 
			 "cosmo_polarized_energy": -8.22, 
			 "cosmo_cavitation_energy": 26.2, 
			 "cosmo_dispersion_energy": -18.37, 
			 "cosmo_repulsion_energy": 1.5, 
			 "cosmo_total_nonelectrostatic_energy": 9.33, 
			 "SMD_solvation_energy": 3.76 
		},
		"coords": [
			{
				"x": 0.0079786309,
				"y": 2.3441108173,
				"z": 0.4158059236,
				"element": "C" 
			},
			{
				"x": 0.1850981766,
				"y": 1.0764975621,
				"z": 1.268815024,
				"element": "C" 
			},
			{
				"x": 0.4038495401,
				"y": 1.441210778,
				"z": 2.7456628756,
				"element": "C" 
			},
			{
				"x": -0.954294997,
				"y": 0.146703455,
				"z": 1.1584081865,
				"element": "N" 
			},
			{
				"x": -0.8653410795,
				"y": -1.0643129333,
				"z": 0.3221123263,
				"element": "C" 
			},
			{
				"x": 0.1886645571,
				"y": -2.0265508022,
				"z": 0.8935382679,
				"element": "C" 
			},
			{
				"x": -2.2485735982,
				"y": -1.7350688866,
				"z": 0.3896179042,
				"element": "C" 
			},
			{
				"x": -0.5265782219,
				"y": -0.7278485394,
				"z": -1.1556106183,
				"element": "C" 
			},
			{
				"x": -0.4206807944,
				"y": -1.8614195,
				"z": -2.0105489013,
				"element": "O" 
			},
			{
				"x": -0.8938965267,
				"y": 2.8890467993,
				"z": 0.7236620428,
				"element": "H" 
			},
			{
				"x": -0.0887170737,
				"y": 2.1077782804,
				"z": -0.6480599473,
				"element": "H" 
			},
			{
				"x": 0.8567302862,
				"y": 3.026270098,
				"z": 0.5358908068,
				"element": "H" 
			},
			{
				"x": 1.0833171213,
				"y": 0.5552479225,
				"z": 0.9180870771,
				"element": "H" 
			},
			{
				"x": 0.5603501809,
				"y": 0.5382061348,
				"z": 3.3417549824,
				"element": "H" 
			},
			{
				"x": -0.4771622744,
				"y": 1.9556382396,
				"z": 3.1469752666,
				"element": "H" 
			},
			{
				"x": 1.269604057,
				"y": 2.1014765416,
				"z": 2.8729005784,
				"element": "H" 
			},
			{
				"x": -1.7996670053,
				"y": 0.6623698428,
				"z": 0.929718065,
				"element": "H" 
			},
			{
				"x": 1.1822674269,
				"y": -1.5683862205,
				"z": 0.9242290346,
				"element": "H" 
			},
			{
				"x": -0.0797166537,
				"y": -2.3232949631,
				"z": 1.911530362,
				"element": "H" 
			},
			{
				"x": 0.2614210913,
				"y": -2.9160421834,
				"z": 0.2628074962,
				"element": "H" 
			},
			{
				"x": -3.0242892172,
				"y": -1.0891260971,
				"z": -0.0422312784,
				"element": "H" 
			},
			{
				"x": -2.2576868044,
				"y": -2.6866783817,
				"z": -0.1518152115,
				"element": "H" 
			},
			{
				"x": -2.5176790256,
				"y": -1.9363835735,
				"z": 1.4299417325,
				"element": "H" 
			},
			{
				"x": 0.4505060797,
				"y": -0.2369357831,
				"z": -1.2059728311,
				"element": "H" 
			},
			{
				"x": -1.274424607,
				"y": -0.0112864654,
				"z": -1.5350655668,
				"element": "H" 
			},
			{
				"x": -1.304379269,
				"y": -2.234222142,
				"z": -2.1178535978,
				"element": "H" 
			}
		],
		 "valence_orbital": [ 
			{
				"type": "occ",
				"energy": -0.33418,
				"method": "rhf"
			},
			{
				"type": "occ",
				"energy": -0.32723,
				"method": "rhf"
			},
			{
				"type": "occ",
				"energy": -0.31249,
				"method": "rhf"
			},
			{
				"type": "occ",
				"energy": -0.27259,
				"method": "rhf"
			},
			{
				"type": "occ",
				"energy": -0.2058,
				"method": "rhf"
			},
			{
				"type": "unocc",
				"energy": 0.06758,
				"method": "rhf"
			},
			{
				"type": "unocc",
				"energy": 0.08187,
				"method": "rhf"
			},
			{
				"type": "unocc",
				"energy": 0.10396,
				"method": "rhf"
			},
			{
				"type": "unocc",
				"energy": 0.12228,
				"method": "rhf"
			},
			{
				"type": "unocc",
				"energy": 0.12518,
				"method": "rhf"
			}
		],
		"cosmo_sigma_profile": { 
			"-0.025": 0.0,
			"-0.024": 0.0,
			"-0.023": 0.0,
			"-0.022": 0.0,
			"-0.021": 0.0,
			"-0.02": 0.0,
			"-0.019": 0.0,
			"-0.018": 0.0,
			"-0.017": 0.0,
			"-0.016": 0.0,
			"-0.015": 0.0890873585957,
			"-0.014": 0.825392867837,
			"-0.013": 0.911260407012,
			"-0.012": 0.732700303957,
			"-0.011": 1.17679933235,
			"-0.01": 0.773312958748,
			"-0.009": 1.12580327518,
			"-0.008": 2.23391111512,
			"-0.007": 2.61514197502,
			"-0.006": 2.61231393185,
			"-0.005": 4.34517859563,
			"-0.004": 10.0749488524,
			"-0.003": 18.4196552833,
			"-0.002": 28.0056730394,
			"-0.001": 25.7012354423,
			"0.0": 24.4241744039,
			"0.001": 27.5619770197,
			"0.002": 19.688148625,
			"0.003": 3.55344642161,
			"0.004": 2.62312758058,
			"0.005": 3.13141694038,
			"0.006": 2.11538166478,
			"0.007": 1.8258666527,
			"0.008": 2.1606100602,
			"0.009": 2.10087627501,
			"0.01": 1.83174787331,
			"0.011": 1.95807049028,
			"0.012": 1.69621883722,
			"0.013": 2.00719870021,
			"0.014": 2.43490135118,
			"0.015": 1.37353821095,
			"0.016": 0.39254315799,
			"0.017": 0.114824761407,
			"0.018": 0.0,
			"0.019": 0.0,
			"0.02": 0.0,
			"0.021": 0.0,
			"0.022": 0.0,
			"0.023": 0.0,
			"0.024": 0.0,
			"0.025": 0.0
		}
	}
}
