{
	 "smiles": "CC(=O)N1CCN(CCC(O)=O)CC1", 
	 "Tm": 388.15, 
	 "num_atms": 30, 
	 "gaussian": { 
		 "optdone": 1, 
		 "sigma_profile": "yes", 
		 "theory": "DFT", 
		 "functional": "B3LYP", 
		 "basiset": "6-31G**", 
		 "properties": { 
			 "R2extent": 5053.3244, 
			 "electric_dipole_moment_norm": 4.06649685356, 
			 "electric_quadrupole_moment_norm": 10.6092572134, 
			 "total_energy": -687.789383707, 
			 "HOMO_LUMO_gap": 0.22009, 
			 "cosmo_polarized_energy": -18.13, 
			 "cosmo_cavitation_energy": 32.07, 
			 "cosmo_dispersion_energy": -23.14, 
			 "cosmo_repulsion_energy": 1.85, 
			 "cosmo_total_nonelectrostatic_energy": 10.79, 
			 "SMD_solvation_energy": 4.11 
		},
		"coords": [
			{
				"x": 1.3912185723,
				"y": 3.0342627309,
				"z": -2.1580206192,
				"element": "C" 
			},
			{
				"x": 0.2001031187,
				"y": 2.8927294103,
				"z": -1.2195968112,
				"element": "C" 
			},
			{
				"x": -0.6427081643,
				"y": 3.7796089559,
				"z": -1.1180718596,
				"element": "O" 
			},
			{
				"x": 0.1078779001,
				"y": 1.7277218308,
				"z": -0.4972379477,
				"element": "N" 
			},
			{
				"x": 1.0899177571,
				"y": 0.6434786233,
				"z": -0.531704735,
				"element": "C" 
			},
			{
				"x": 0.4163456315,
				"y": -0.6700444906,
				"z": -0.1110591344,
				"element": "C" 
			},
			{
				"x": -0.1963706693,
				"y": -0.6218909314,
				"z": 1.227962102,
				"element": "N" 
			},
			{
				"x": 0.5272718994,
				"y": -1.3591687964,
				"z": 2.2596628695,
				"element": "C" 
			},
			{
				"x": 0.3459991377,
				"y": -2.872837365,
				"z": 2.1189775018,
				"element": "C" 
			},
			{
				"x": 0.9737223276,
				"y": -3.6351801549,
				"z": 3.2638090298,
				"element": "C" 
			},
			{
				"x": 0.9818154404,
				"y": -4.9702679552,
				"z": 3.0306554077,
				"element": "O" 
			},
			{
				"x": 1.4130661791,
				"y": -3.1495481588,
				"z": 4.2837486644,
				"element": "O" 
			},
			{
				"x": -0.5278899226,
				"y": 0.7438414354,
				"z": 1.6547873022,
				"element": "C" 
			},
			{
				"x": -0.9845989595,
				"y": 1.5929506278,
				"z": 0.4745290295,
				"element": "C" 
			},
			{
				"x": 2.3454085363,
				"y": 2.8776105956,
				"z": -1.6445087436,
				"element": "H" 
			},
			{
				"x": 1.336392468,
				"y": 2.3152410399,
				"z": -2.9832265926,
				"element": "H" 
			},
			{
				"x": 1.3646356068,
				"y": 4.0423047701,
				"z": -2.5707151312,
				"element": "H" 
			},
			{
				"x": 1.486576167,
				"y": 0.5287394226,
				"z": -1.544092822,
				"element": "H" 
			},
			{
				"x": 1.9439285524,
				"y": 0.8556808603,
				"z": 0.1304486059,
				"element": "H" 
			},
			{
				"x": 1.1651396143,
				"y": -1.4679763017,
				"z": -0.143626862,
				"element": "H" 
			},
			{
				"x": -0.3451380502,
				"y": -0.9216775374,
				"z": -0.86169738,
				"element": "H" 
			},
			{
				"x": 1.6051998474,
				"y": -1.1135538344,
				"z": 2.2859422799,
				"element": "H" 
			},
			{
				"x": 0.1300339485,
				"y": -1.0601600196,
				"z": 3.2340085493,
				"element": "H" 
			},
			{
				"x": -0.7235437226,
				"y": -3.1150360392,
				"z": 2.0909877515,
				"element": "H" 
			},
			{
				"x": 0.7619595371,
				"y": -3.2591331642,
				"z": 1.1819144115,
				"element": "H" 
			},
			{
				"x": 1.3770885481,
				"y": -5.379188519,
				"z": 3.8191663552,
				"element": "H" 
			},
			{
				"x": -1.330940472,
				"y": 0.6973590467,
				"z": 2.4001500008,
				"element": "H" 
			},
			{
				"x": 0.3287501404,
				"y": 1.249341369,
				"z": 2.1392098782,
				"element": "H" 
			},
			{
				"x": -1.8679131754,
				"y": 1.1389886821,
				"z": 0.0045974506,
				"element": "H" 
			},
			{
				"x": -1.2686477943,
				"y": 2.595503867,
				"z": 0.7989014488,
				"element": "H" 
			}
		],
		 "valence_orbital": [ 
			{
				"type": "occ",
				"energy": -0.32385,
				"method": "rhf"
			},
			{
				"type": "occ",
				"energy": -0.28152,
				"method": "rhf"
			},
			{
				"type": "occ",
				"energy": -0.24043,
				"method": "rhf"
			},
			{
				"type": "occ",
				"energy": -0.23348,
				"method": "rhf"
			},
			{
				"type": "occ",
				"energy": -0.21564,
				"method": "rhf"
			},
			{
				"type": "unocc",
				"energy": 0.00445,
				"method": "rhf"
			},
			{
				"type": "unocc",
				"energy": 0.03309,
				"method": "rhf"
			},
			{
				"type": "unocc",
				"energy": 0.06349,
				"method": "rhf"
			},
			{
				"type": "unocc",
				"energy": 0.07529,
				"method": "rhf"
			},
			{
				"type": "unocc",
				"energy": 0.09781,
				"method": "rhf"
			}
		],
		"cosmo_sigma_profile": { 
			"-0.025": 0.0,
			"-0.024": 0.0,
			"-0.023": 0.0,
			"-0.022": 0.0,
			"-0.021": 0.0,
			"-0.02": 0.0,
			"-0.019": 0.0,
			"-0.018": 0.412900278522,
			"-0.017": 1.00821183514,
			"-0.016": 1.16551077339,
			"-0.015": 0.321774883102,
			"-0.014": 0.431054983497,
			"-0.013": 0.842739397793,
			"-0.012": 1.07404907852,
			"-0.011": 0.901074561738,
			"-0.01": 0.621475299855,
			"-0.009": 0.628333225438,
			"-0.008": 0.4948708962,
			"-0.007": 2.28577134851,
			"-0.006": 11.2374489367,
			"-0.005": 16.5348335706,
			"-0.004": 32.1944331095,
			"-0.003": 36.1066570306,
			"-0.002": 29.2949853863,
			"-0.001": 22.1748635776,
			"0.0": 11.7621961729,
			"0.001": 8.04576332671,
			"0.002": 7.3258150132,
			"0.003": 6.66740901186,
			"0.004": 4.54363504274,
			"0.005": 4.76760559569,
			"0.006": 4.50924549277,
			"0.007": 5.41118727782,
			"0.008": 4.74020681856,
			"0.009": 5.27125029339,
			"0.01": 4.56775208125,
			"0.011": 5.56248521761,
			"0.012": 6.47242471698,
			"0.013": 3.04639182246,
			"0.014": 5.15775731123,
			"0.015": 3.39322952035,
			"0.016": 0.304472157453,
			"0.017": 0.0,
			"0.018": 0.0,
			"0.019": 0.0,
			"0.02": 0.0,
			"0.021": 0.0,
			"0.022": 0.0,
			"0.023": 0.0,
			"0.024": 0.0,
			"0.025": 0.0
		}
	}
}
