{
	 "smiles": "CC(CC(O)=O)C1=C(Br)C=CC=C1", 
	 "Tm": 335.15, 
	 "num_atms": 24, 
	 "gaussian": { 
		 "optdone": 1, 
		 "sigma_profile": "yes", 
		 "theory": "DFT", 
		 "functional": "B3LYP", 
		 "basiset": "6-31G**", 
		 "properties": { 
			 "R2extent": 3851.8423, 
			 "electric_dipole_moment_norm": 5.45119317398, 
			 "electric_quadrupole_moment_norm": 16.152094193, 
			 "total_energy": -3109.56259546, 
			 "HOMO_LUMO_gap": 0.2261, 
			 "cosmo_polarized_energy": -12.47, 
			 "cosmo_cavitation_energy": 28.87, 
			 "cosmo_dispersion_energy": -21.01, 
			 "cosmo_repulsion_energy": 1.64, 
			 "cosmo_total_nonelectrostatic_energy": 9.5, 
			 "SMD_solvation_energy": 4.93 
		},
		"coords": [
			{
				"x": 2.1459329751,
				"y": -0.5016064721,
				"z": 1.1916319213,
				"element": "C" 
			},
			{
				"x": 0.8981469198,
				"y": -0.950063354,
				"z": 0.4187277926,
				"element": "C" 
			},
			{
				"x": 0.0249405888,
				"y": -1.9031581051,
				"z": 1.2931793529,
				"element": "C" 
			},
			{
				"x": 0.6544920609,
				"y": -3.2831145614,
				"z": 1.4220451113,
				"element": "C" 
			},
			{
				"x": 0.615614889,
				"y": -4.0358910307,
				"z": 0.2897297566,
				"element": "O" 
			},
			{
				"x": 1.185809403,
				"y": -3.7066951688,
				"z": 2.4187357936,
				"element": "O" 
			},
			{
				"x": 0.04546887,
				"y": 0.1847439818,
				"z": -0.1293759491,
				"element": "C" 
			},
			{
				"x": -0.79186447,
				"y": 0.0115194855,
				"z": -1.2435120537,
				"element": "C" 
			},
			{
				"x": -0.8782873093,
				"y": -1.6850089688,
				"z": -2.167396561,
				"element": "Br" 
			},
			{
				"x": -1.5971810336,
				"y": 1.0286371642,
				"z": -1.7499606651,
				"element": "C" 
			},
			{
				"x": -1.5858748855,
				"y": 2.2789393847,
				"z": -1.1324512192,
				"element": "C" 
			},
			{
				"x": -0.7710222943,
				"y": 2.4900452065,
				"z": -0.0217282835,
				"element": "C" 
			},
			{
				"x": 0.0285794309,
				"y": 1.4561182233,
				"z": 0.4643809322,
				"element": "C" 
			},
			{
				"x": 2.7752488379,
				"y": 0.1547451035,
				"z": 0.5833499135,
				"element": "H" 
			},
			{
				"x": 2.7376923884,
				"y": -1.374872732,
				"z": 1.4792886767,
				"element": "H" 
			},
			{
				"x": 1.8883675065,
				"y": 0.026880994,
				"z": 2.1151380271,
				"element": "H" 
			},
			{
				"x": 1.2452894086,
				"y": -1.5234621524,
				"z": -0.4479719285,
				"element": "H" 
			},
			{
				"x": -0.9718021376,
				"y": -2.0077458834,
				"z": 0.8511358901,
				"element": "H" 
			},
			{
				"x": -0.0929674768,
				"y": -1.4865680837,
				"z": 2.2960000988,
				"element": "H" 
			},
			{
				"x": 0.1425419673,
				"y": -3.561193455,
				"z": -0.4132050089,
				"element": "H" 
			},
			{
				"x": -2.2216239956,
				"y": 0.8432939559,
				"z": -2.6163748423,
				"element": "H" 
			},
			{
				"x": -2.210310344,
				"y": 3.0766912166,
				"z": -1.5226012438,
				"element": "H" 
			},
			{
				"x": -0.7530026489,
				"y": 3.4591403668,
				"z": 0.467509055,
				"element": "H" 
			},
			{
				"x": 0.6613113493,
				"y": 1.6400248845,
				"z": 1.3258254335,
				"element": "H" 
			}
		],
		 "valence_orbital": [ 
			{
				"type": "occ",
				"energy": -0.30894,
				"method": "rhf"
			},
			{
				"type": "occ",
				"energy": -0.30758,
				"method": "rhf"
			},
			{
				"type": "occ",
				"energy": -0.2731,
				"method": "rhf"
			},
			{
				"type": "occ",
				"energy": -0.26292,
				"method": "rhf"
			},
			{
				"type": "occ",
				"energy": -0.25469,
				"method": "rhf"
			},
			{
				"type": "unocc",
				"energy": -0.02859,
				"method": "rhf"
			},
			{
				"type": "unocc",
				"energy": -0.02501,
				"method": "rhf"
			},
			{
				"type": "unocc",
				"energy": -0.01408,
				"method": "rhf"
			},
			{
				"type": "unocc",
				"energy": 0.0146,
				"method": "rhf"
			},
			{
				"type": "unocc",
				"energy": 0.07204,
				"method": "rhf"
			}
		],
		"cosmo_sigma_profile": { 
			"-0.025": 0.0,
			"-0.024": 0.0,
			"-0.023": 0.0,
			"-0.022": 0.0,
			"-0.021": 0.0,
			"-0.02": 0.0,
			"-0.019": 0.0,
			"-0.018": 0.0,
			"-0.017": 0.0,
			"-0.016": 0.0,
			"-0.015": 0.0,
			"-0.014": 0.0,
			"-0.013": 0.0,
			"-0.012": 0.208957261641,
			"-0.011": 1.20327250423,
			"-0.01": 2.13243250132,
			"-0.009": 1.99123744511,
			"-0.008": 2.25748463486,
			"-0.007": 4.80156795418,
			"-0.006": 12.5087625392,
			"-0.005": 19.5475163734,
			"-0.004": 19.8097081429,
			"-0.003": 20.0756938813,
			"-0.002": 18.2427825808,
			"-0.001": 16.9275984506,
			"0.0": 15.4420846373,
			"0.001": 15.1966097276,
			"0.002": 15.5125726114,
			"0.003": 17.197047912,
			"0.004": 16.7032725374,
			"0.005": 3.78728754746,
			"0.006": 2.24455577112,
			"0.007": 2.14685513303,
			"0.008": 3.05274800842,
			"0.009": 3.046575042,
			"0.01": 3.84220960222,
			"0.011": 5.5153389502,
			"0.012": 5.90128869145,
			"0.013": 2.54797732783,
			"0.014": 0.0858178610109,
			"0.015": 0.0,
			"0.016": 0.0,
			"0.017": 0.0,
			"0.018": 0.0,
			"0.019": 0.0,
			"0.02": 0.0,
			"0.021": 0.0,
			"0.022": 0.0,
			"0.023": 0.0,
			"0.024": 0.0,
			"0.025": 0.0
		}
	}
}
