{
	 "smiles": "CC(C)C(NC(=O)CC1=CC=CC=C1)C(O)=O", 
	 "Tm": 384.15, 
	 "num_atms": 34, 
	 "gaussian": { 
		 "optdone": 1, 
		 "sigma_profile": "yes", 
		 "theory": "DFT", 
		 "functional": "B3LYP", 
		 "basiset": "6-31G**", 
		 "properties": { 
			 "R2extent": 5146.7692, 
			 "electric_dipole_moment_norm": 1.89487309338, 
			 "electric_quadrupole_moment_norm": 14.2511971848, 
			 "total_energy": -786.093043394, 
			 "HOMO_LUMO_gap": 0.22821, 
			 "cosmo_polarized_energy": -18.64, 
			 "cosmo_cavitation_energy": 37.18, 
			 "cosmo_dispersion_energy": -24.31, 
			 "cosmo_repulsion_energy": 1.92, 
			 "cosmo_total_nonelectrostatic_energy": 14.79, 
			 "SMD_solvation_energy": 7.67 
		},
		"coords": [
			{
				"x": 1.8277870985,
				"y": -1.1543102814,
				"z": -0.0835019897,
				"element": "C" 
			},
			{
				"x": 1.1919393048,
				"y": -0.825598134,
				"z": -1.4414278324,
				"element": "C" 
			},
			{
				"x": 2.1067613523,
				"y": 0.0688230684,
				"z": -2.2877026268,
				"element": "C" 
			},
			{
				"x": -0.2231194187,
				"y": -0.1823933335,
				"z": -1.2848442345,
				"element": "C" 
			},
			{
				"x": -0.2106553962,
				"y": 1.0738093326,
				"z": -0.5645989108,
				"element": "N" 
			},
			{
				"x": -0.3633102178,
				"y": 2.265426561,
				"z": -1.2167193074,
				"element": "C" 
			},
			{
				"x": -0.3482938123,
				"y": 2.3629085798,
				"z": -2.4385804134,
				"element": "O" 
			},
			{
				"x": -0.5762007032,
				"y": 3.5045983983,
				"z": -0.3303864863,
				"element": "C" 
			},
			{
				"x": -0.2427513196,
				"y": 3.371871362,
				"z": 1.1380609671,
				"element": "C" 
			},
			{
				"x": 1.0591177083,
				"y": 3.6176446647,
				"z": 1.5994601327,
				"element": "C" 
			},
			{
				"x": 1.3779230956,
				"y": 3.4754016457,
				"z": 2.9496611598,
				"element": "C" 
			},
			{
				"x": 0.3983478868,
				"y": 3.0803000252,
				"z": 3.8639534095,
				"element": "C" 
			},
			{
				"x": -0.9005381522,
				"y": 2.8320540707,
				"z": 3.4188849124,
				"element": "C" 
			},
			{
				"x": -1.2176682225,
				"y": 2.979379615,
				"z": 2.066768769,
				"element": "C" 
			},
			{
				"x": -1.1757540084,
				"y": -1.1406991038,
				"z": -0.5631325405,
				"element": "C" 
			},
			{
				"x": -1.5097524789,
				"y": -2.2632162568,
				"z": -1.2441891826,
				"element": "O" 
			},
			{
				"x": -1.5909233919,
				"y": -0.9596102541,
				"z": 0.5562094728,
				"element": "O" 
			},
			{
				"x": 1.9748071291,
				"y": -0.2415508824,
				"z": 0.5034067114,
				"element": "H" 
			},
			{
				"x": 1.2132553403,
				"y": -1.8403704954,
				"z": 0.5079733888,
				"element": "H" 
			},
			{
				"x": 2.8078004391,
				"y": -1.6203189081,
				"z": -0.2253148156,
				"element": "H" 
			},
			{
				"x": 1.0469884096,
				"y": -1.7705425106,
				"z": -1.9873091601,
				"element": "H" 
			},
			{
				"x": 1.6579878688,
				"y": 0.3104937299,
				"z": -3.2551915556,
				"element": "H" 
			},
			{
				"x": 3.0657853845,
				"y": -0.4296348556,
				"z": -2.4628912456,
				"element": "H" 
			},
			{
				"x": 2.3074616399,
				"y": 1.0135787358,
				"z": -1.7740337999,
				"element": "H" 
			},
			{
				"x": -0.6114752679,
				"y": 0.0333732113,
				"z": -2.2887094546,
				"element": "H" 
			},
			{
				"x": -0.413002408,
				"y": 1.0230079519,
				"z": 0.4266220996,
				"element": "H" 
			},
			{
				"x": -1.6284967053,
				"y": 3.7850402681,
				"z": -0.4606264401,
				"element": "H" 
			},
			{
				"x": 0.0093033763,
				"y": 4.3016978507,
				"z": -0.7976864469,
				"element": "H" 
			},
			{
				"x": 1.8254203492,
				"y": 3.9274502848,
				"z": 0.8929374145,
				"element": "H" 
			},
			{
				"x": 2.3904335825,
				"y": 3.6752217662,
				"z": 3.2889590964,
				"element": "H" 
			},
			{
				"x": 0.6457820595,
				"y": 2.9698907161,
				"z": 4.9156858664,
				"element": "H" 
			},
			{
				"x": -1.6698746989,
				"y": 2.5273311774,
				"z": 4.1223700892,
				"element": "H" 
			},
			{
				"x": -2.2338941191,
				"y": 2.790605521,
				"z": 1.7289790888,
				"element": "H" 
			},
			{
				"x": -1.1311917046,
				"y": -2.2425635208,
				"z": -2.1349861353,
				"element": "H" 
			}
		],
		 "valence_orbital": [ 
			{
				"type": "occ",
				"energy": -0.28492,
				"method": "rhf"
			},
			{
				"type": "occ",
				"energy": -0.26542,
				"method": "rhf"
			},
			{
				"type": "occ",
				"energy": -0.26029,
				"method": "rhf"
			},
			{
				"type": "occ",
				"energy": -0.25406,
				"method": "rhf"
			},
			{
				"type": "occ",
				"energy": -0.23848,
				"method": "rhf"
			},
			{
				"type": "unocc",
				"energy": -0.01027,
				"method": "rhf"
			},
			{
				"type": "unocc",
				"energy": -0.00983,
				"method": "rhf"
			},
			{
				"type": "unocc",
				"energy": -0.00048,
				"method": "rhf"
			},
			{
				"type": "unocc",
				"energy": 0.02558,
				"method": "rhf"
			},
			{
				"type": "unocc",
				"energy": 0.04289,
				"method": "rhf"
			}
		],
		"cosmo_sigma_profile": { 
			"-0.025": 0.0,
			"-0.024": 0.0,
			"-0.023": 0.0,
			"-0.022": 0.0,
			"-0.021": 0.0,
			"-0.02": 0.133160644411,
			"-0.019": 1.1907006646,
			"-0.018": 0.559737579375,
			"-0.017": 1.67249097763,
			"-0.016": 0.763452761526,
			"-0.015": 0.762963213566,
			"-0.014": 1.27861614873,
			"-0.013": 1.16778892897,
			"-0.012": 1.25488638077,
			"-0.011": 0.912995094029,
			"-0.01": 1.00851459317,
			"-0.009": 1.60738124601,
			"-0.008": 1.69505622111,
			"-0.007": 2.51835286253,
			"-0.006": 13.7667702606,
			"-0.005": 20.0467833421,
			"-0.004": 20.2827242688,
			"-0.003": 29.4214151139,
			"-0.002": 26.8352385379,
			"-0.001": 24.6976388937,
			"0.0": 23.2296033233,
			"0.001": 22.7836731495,
			"0.002": 14.5853004526,
			"0.003": 12.7332695499,
			"0.004": 10.5285253191,
			"0.005": 11.6423286419,
			"0.006": 7.71335039002,
			"0.007": 4.08014412657,
			"0.008": 4.27072722363,
			"0.009": 5.66169390965,
			"0.01": 6.05407100904,
			"0.011": 4.78682874017,
			"0.012": 4.89057740229,
			"0.013": 3.42517326818,
			"0.014": 3.43106238169,
			"0.015": 0.970363992122,
			"0.016": 0.00440168576487,
			"0.017": 0.0,
			"0.018": 0.0,
			"0.019": 0.0,
			"0.02": 0.0,
			"0.021": 0.0,
			"0.022": 0.0,
			"0.023": 0.0,
			"0.024": 0.0,
			"0.025": 0.0
		}
	}
}
