{
	 "smiles": "NC1=C(C=C(Cl)C=C1)C(O)C1=CC=CC=C1", 
	 "Tm": 379.15, 
	 "num_atms": 28, 
	 "gaussian": { 
		 "optdone": 1, 
		 "sigma_profile": "yes", 
		 "theory": "DFT", 
		 "functional": "B3LYP", 
		 "basiset": "6-31G**", 
		 "properties": { 
			 "R2extent": 6221.9791, 
			 "electric_dipole_moment_norm": 3.67738012721, 
			 "electric_quadrupole_moment_norm": 11.8354144803, 
			 "total_energy": -1092.78194808, 
			 "HOMO_LUMO_gap": 0.18813, 
			 "cosmo_polarized_energy": -13.41, 
			 "cosmo_cavitation_energy": 33.06, 
			 "cosmo_dispersion_energy": -23.68, 
			 "cosmo_repulsion_energy": 1.86, 
			 "cosmo_total_nonelectrostatic_energy": 11.24, 
			 "SMD_solvation_energy": 5.0 
		},
		"coords": [
			{
				"x": 0.7604354742,
				"y": -0.9864537325,
				"z": 0.5603811583,
				"element": "N" 
			},
			{
				"x": -0.2033483766,
				"y": -0.281439875,
				"z": 1.2904746011,
				"element": "C" 
			},
			{
				"x": -1.3687154576,
				"y": 0.2034541506,
				"z": 0.6509653287,
				"element": "C" 
			},
			{
				"x": -2.3055058167,
				"y": 0.9292761478,
				"z": 1.3885862787,
				"element": "C" 
			},
			{
				"x": -2.0877464275,
				"y": 1.2004017659,
				"z": 2.73795619,
				"element": "C" 
			},
			{
				"x": -3.2852116812,
				"y": 2.123595428,
				"z": 3.6439753622,
				"element": "Cl" 
			},
			{
				"x": -0.932449332,
				"y": 0.7546611723,
				"z": 3.3734227311,
				"element": "C" 
			},
			{
				"x": -0.0032866556,
				"y": 0.0128190079,
				"z": 2.6477501253,
				"element": "C" 
			},
			{
				"x": -1.5765777211,
				"y": -0.0358868036,
				"z": -0.8414871646,
				"element": "C" 
			},
			{
				"x": -2.6059916094,
				"y": 0.7891405481,
				"z": -1.3848183217,
				"element": "O" 
			},
			{
				"x": -1.9464310363,
				"y": -1.4764507042,
				"z": -1.174983795,
				"element": "C" 
			},
			{
				"x": -3.0020337872,
				"y": -2.1177548556,
				"z": -0.5129695805,
				"element": "C" 
			},
			{
				"x": -3.3559166182,
				"y": -3.4235204917,
				"z": -0.8473769855,
				"element": "C" 
			},
			{
				"x": -2.6536492225,
				"y": -4.1107703642,
				"z": -1.8420664113,
				"element": "C" 
			},
			{
				"x": -1.6003009802,
				"y": -3.4821111289,
				"z": -2.5053223248,
				"element": "C" 
			},
			{
				"x": -1.2536373327,
				"y": -2.1690004511,
				"z": -2.1751022368,
				"element": "C" 
			},
			{
				"x": 1.4652343456,
				"y": -1.4297102992,
				"z": 1.1350133045,
				"element": "H" 
			},
			{
				"x": 0.3852379138,
				"y": -1.6380529919,
				"z": -0.1185635478,
				"element": "H" 
			},
			{
				"x": -3.2024509437,
				"y": 1.2858286414,
				"z": 0.8954772803,
				"element": "H" 
			},
			{
				"x": -0.7636606898,
				"y": 0.973600086,
				"z": 4.4220103178,
				"element": "H" 
			},
			{
				"x": 0.8952225135,
				"y": -0.3476982611,
				"z": 3.1429639025,
				"element": "H" 
			},
			{
				"x": -0.6184171524,
				"y": 0.1792719055,
				"z": -1.3422313267,
				"element": "H" 
			},
			{
				"x": -2.3377764299,
				"y": 1.7095677205,
				"z": -1.2533117048,
				"element": "H" 
			},
			{
				"x": -3.5419554829,
				"y": -1.5893711323,
				"z": 0.2666900127,
				"element": "H" 
			},
			{
				"x": -4.1781798121,
				"y": -3.9088291323,
				"z": -0.3292688797,
				"element": "H" 
			},
			{
				"x": -2.9277579336,
				"y": -5.1305048321,
				"z": -2.096900333,
				"element": "H" 
			},
			{
				"x": -1.0520547448,
				"y": -4.0072528106,
				"z": -3.282307613,
				"element": "H" 
			},
			{
				"x": -0.4444750032,
				"y": -1.6727087076,
				"z": -2.706456368,
				"element": "H" 
			}
		],
		 "valence_orbital": [ 
			{
				"type": "occ",
				"energy": -0.28129,
				"method": "rhf"
			},
			{
				"type": "occ",
				"energy": -0.25926,
				"method": "rhf"
			},
			{
				"type": "occ",
				"energy": -0.25606,
				"method": "rhf"
			},
			{
				"type": "occ",
				"energy": -0.24751,
				"method": "rhf"
			},
			{
				"type": "occ",
				"energy": -0.20633,
				"method": "rhf"
			},
			{
				"type": "unocc",
				"energy": -0.0182,
				"method": "rhf"
			},
			{
				"type": "unocc",
				"energy": -0.01,
				"method": "rhf"
			},
			{
				"type": "unocc",
				"energy": -0.00012,
				"method": "rhf"
			},
			{
				"type": "unocc",
				"energy": 0.00472,
				"method": "rhf"
			},
			{
				"type": "unocc",
				"energy": 0.03885,
				"method": "rhf"
			}
		],
		"cosmo_sigma_profile": { 
			"-0.025": 0.0,
			"-0.024": 0.0,
			"-0.023": 0.0,
			"-0.022": 0.0,
			"-0.021": 0.0,
			"-0.02": 0.0,
			"-0.019": 0.0,
			"-0.018": 0.0,
			"-0.017": 0.0,
			"-0.016": 0.40250031638,
			"-0.015": 0.721465226043,
			"-0.014": 1.19596754427,
			"-0.013": 1.13199099429,
			"-0.012": 2.17507549707,
			"-0.011": 2.60099791101,
			"-0.01": 2.5382982573,
			"-0.009": 3.74527478678,
			"-0.008": 3.16756804781,
			"-0.007": 5.1467329076,
			"-0.006": 13.8837130449,
			"-0.005": 19.6559829112,
			"-0.004": 18.9934036081,
			"-0.003": 15.8923117117,
			"-0.002": 14.6695987291,
			"-0.001": 14.4070115154,
			"0.0": 12.9226810808,
			"0.001": 15.8321634262,
			"0.002": 17.114635309,
			"0.003": 22.2442356637,
			"0.004": 24.7227165674,
			"0.005": 27.1952208633,
			"0.006": 9.08965213316,
			"0.007": 2.26027501715,
			"0.008": 2.37178167166,
			"0.009": 2.22267470723,
			"0.01": 1.83254931541,
			"0.011": 2.165466473,
			"0.012": 1.48641631888,
			"0.013": 2.59937795707,
			"0.014": 1.01757161158,
			"0.015": 0.0135905435528,
			"0.016": 0.0,
			"0.017": 0.0,
			"0.018": 0.0,
			"0.019": 0.0,
			"0.02": 0.0,
			"0.021": 0.0,
			"0.022": 0.0,
			"0.023": 0.0,
			"0.024": 0.0,
			"0.025": 0.0
		}
	}
}
