{
	 "smiles": "CCOC(=O)NC1=C(C=C(C)C=C1)[N+]([O-])=O", 
	 "Tm": 337.65, 
	 "num_atms": 28, 
	 "gaussian": { 
		 "optdone": 1, 
		 "sigma_profile": "yes", 
		 "theory": "DFT", 
		 "functional": "B3LYP", 
		 "basiset": "6-31G**", 
		 "properties": { 
			 "R2extent": 4889.0824, 
			 "electric_dipole_moment_norm": 6.29495877349, 
			 "electric_quadrupole_moment_norm": 12.1422541313, 
			 "total_energy": -798.62983332, 
			 "HOMO_LUMO_gap": 0.14099, 
			 "cosmo_polarized_energy": -11.71, 
			 "cosmo_cavitation_energy": 32.69, 
			 "cosmo_dispersion_energy": -23.59, 
			 "cosmo_repulsion_energy": 1.85, 
			 "cosmo_total_nonelectrostatic_energy": 10.95, 
			 "SMD_solvation_energy": 8.94 
		},
		"coords": [
			{
				"x": 0.0635967249,
				"y": -1.3546506593,
				"z": 3.8084307996,
				"element": "C" 
			},
			{
				"x": 1.0180345267,
				"y": -1.8515235511,
				"z": 2.740133514,
				"element": "C" 
			},
			{
				"x": 0.5757710316,
				"y": -1.3024094785,
				"z": 1.4728425658,
				"element": "O" 
			},
			{
				"x": 1.3305108598,
				"y": -1.653208049,
				"z": 0.410843617,
				"element": "C" 
			},
			{
				"x": 2.3093973772,
				"y": -2.3700043465,
				"z": 0.4744546898,
				"element": "O" 
			},
			{
				"x": 0.9028545677,
				"y": -1.125656779,
				"z": -0.7968616356,
				"element": "N" 
			},
			{
				"x": -0.1503449543,
				"y": -0.3000787936,
				"z": -1.1666831854,
				"element": "C" 
			},
			{
				"x": -0.3334058822,
				"y": 0.0792153142,
				"z": -2.5271884398,
				"element": "C" 
			},
			{
				"x": -1.3920670258,
				"y": 0.9128527554,
				"z": -2.9193371722,
				"element": "C" 
			},
			{
				"x": -2.3092073855,
				"y": 1.4069705196,
				"z": -2.0051365509,
				"element": "C" 
			},
			{
				"x": -3.4476557756,
				"y": 2.3035023376,
				"z": -2.4263646901,
				"element": "C" 
			},
			{
				"x": -2.1312137142,
				"y": 1.0342820675,
				"z": -0.6609646397,
				"element": "C" 
			},
			{
				"x": -1.0944912659,
				"y": 0.2130739232,
				"z": -0.2503711295,
				"element": "C" 
			},
			{
				"x": 0.550660261,
				"y": -0.3611214629,
				"z": -3.6054966594,
				"element": "N" 
			},
			{
				"x": 0.3109003003,
				"y": 0.0197951182,
				"z": -4.7490276156,
				"element": "O" 
			},
			{
				"x": 1.5142013179,
				"y": -1.1034061025,
				"z": -3.3402986072,
				"element": "O" 
			},
			{
				"x": 0.0706931864,
				"y": -0.2622134006,
				"z": 3.8656492696,
				"element": "H" 
			},
			{
				"x": 0.3661648298,
				"y": -1.7498431458,
				"z": 4.7829632028,
				"element": "H" 
			},
			{
				"x": -0.9593570349,
				"y": -1.6864677687,
				"z": 3.6079105672,
				"element": "H" 
			},
			{
				"x": 1.0225549743,
				"y": -2.9426317954,
				"z": 2.6656045786,
				"element": "H" 
			},
			{
				"x": 2.0464511887,
				"y": -1.5268921112,
				"z": 2.921802638,
				"element": "H" 
			},
			{
				"x": 1.4927642473,
				"y": -1.4087221767,
				"z": -1.5769521744,
				"element": "H" 
			},
			{
				"x": -1.4668767125,
				"y": 1.1580421905,
				"z": -3.9710702546,
				"element": "H" 
			},
			{
				"x": -3.4316621337,
				"y": 2.4864613657,
				"z": -3.5036990523,
				"element": "H" 
			},
			{
				"x": -3.3980020417,
				"y": 3.2748279347,
				"z": -1.9209771719,
				"element": "H" 
			},
			{
				"x": -4.4180833731,
				"y": 1.8594792651,
				"z": -2.1764617094,
				"element": "H" 
			},
			{
				"x": -2.8279980065,
				"y": 1.399421565,
				"z": 0.0899190766,
				"element": "H" 
			},
			{
				"x": -0.9956900876,
				"y": -0.0476947357,
				"z": 0.7915361689,
				"element": "H" 
			}
		],
		 "valence_orbital": [ 
			{
				"type": "occ",
				"energy": -0.30795,
				"method": "rhf"
			},
			{
				"type": "occ",
				"energy": -0.29404,
				"method": "rhf"
			},
			{
				"type": "occ",
				"energy": -0.28657,
				"method": "rhf"
			},
			{
				"type": "occ",
				"energy": -0.28012,
				"method": "rhf"
			},
			{
				"type": "occ",
				"energy": -0.23366,
				"method": "rhf"
			},
			{
				"type": "unocc",
				"energy": -0.09267,
				"method": "rhf"
			},
			{
				"type": "unocc",
				"energy": -0.02155,
				"method": "rhf"
			},
			{
				"type": "unocc",
				"energy": -0.00244,
				"method": "rhf"
			},
			{
				"type": "unocc",
				"energy": 0.0512,
				"method": "rhf"
			},
			{
				"type": "unocc",
				"energy": 0.08014,
				"method": "rhf"
			}
		],
		"cosmo_sigma_profile": { 
			"-0.025": 0.0,
			"-0.024": 0.0,
			"-0.023": 0.0,
			"-0.022": 0.0,
			"-0.021": 0.0,
			"-0.02": 0.0,
			"-0.019": 0.0,
			"-0.018": 0.0,
			"-0.017": 0.0,
			"-0.016": 0.0,
			"-0.015": 0.0,
			"-0.014": 0.0,
			"-0.013": 0.0,
			"-0.012": 0.0,
			"-0.011": 0.0,
			"-0.01": 0.0,
			"-0.009": 0.0,
			"-0.008": 0.00127778200827,
			"-0.007": 2.49406462475,
			"-0.006": 8.19289805576,
			"-0.005": 19.3676614201,
			"-0.004": 28.9324924179,
			"-0.003": 27.4904545729,
			"-0.002": 26.2168824002,
			"-0.001": 32.7098294239,
			"0.0": 27.4919068001,
			"0.001": 17.8851674928,
			"0.002": 15.3570608552,
			"0.003": 8.52587217707,
			"0.004": 3.97719066056,
			"0.005": 3.68050386197,
			"0.006": 4.9362279126,
			"0.007": 6.43982948958,
			"0.008": 6.720210413,
			"0.009": 5.7714628022,
			"0.01": 4.76289564101,
			"0.011": 2.16588809111,
			"0.012": 5.61502990796,
			"0.013": 1.35650483133,
			"0.014": 0.0,
			"0.015": 0.0,
			"0.016": 0.0,
			"0.017": 0.0,
			"0.018": 0.0,
			"0.019": 0.0,
			"0.02": 0.0,
			"0.021": 0.0,
			"0.022": 0.0,
			"0.023": 0.0,
			"0.024": 0.0,
			"0.025": 0.0
		}
	}
}
