{
	 "smiles": "OC(=O)C1=CC=C(C(O)=O)C(=C1)[N+]([O-])=O", 
	 "Tm": 544.15, 
	 "num_atms": 20, 
	 "gaussian": { 
		 "optdone": 1, 
		 "sigma_profile": "yes", 
		 "theory": "DFT", 
		 "functional": "B3LYP", 
		 "basiset": "6-31G**", 
		 "properties": { 
			 "R2extent": 4123.8745, 
			 "electric_dipole_moment_norm": 1.29403790516, 
			 "electric_quadrupole_moment_norm": 15.8623171242, 
			 "total_energy": -813.865829537, 
			 "HOMO_LUMO_gap": 0.17793, 
			 "cosmo_polarized_energy": -21.98, 
			 "cosmo_cavitation_energy": 26.95, 
			 "cosmo_dispersion_energy": -19.36, 
			 "cosmo_repulsion_energy": 1.52, 
			 "cosmo_total_nonelectrostatic_energy": 9.11, 
			 "SMD_solvation_energy": 9.21 
		},
		"coords": [
			{
				"x": -3.0444574905,
				"y": -1.622633126,
				"z": -1.27200945,
				"element": "O" 
			},
			{
				"x": -1.976069163,
				"y": -0.9941163325,
				"z": -1.8180105998,
				"element": "C" 
			},
			{
				"x": -2.0879206921,
				"y": -0.3844310106,
				"z": -2.8538947252,
				"element": "O" 
			},
			{
				"x": -0.6682918857,
				"y": -1.0884116808,
				"z": -1.079129257,
				"element": "C" 
			},
			{
				"x": 0.5022418098,
				"y": -0.793993346,
				"z": -1.7912556262,
				"element": "C" 
			},
			{
				"x": 1.7419764209,
				"y": -0.8446857104,
				"z": -1.1629781053,
				"element": "C" 
			},
			{
				"x": 1.8492006173,
				"y": -1.1680891056,
				"z": 0.1952331569,
				"element": "C" 
			},
			{
				"x": 3.2253828052,
				"y": -1.1254484079,
				"z": 0.8014570532,
				"element": "C" 
			},
			{
				"x": 3.2820731706,
				"y": -0.3159985649,
				"z": 1.8744918783,
				"element": "O" 
			},
			{
				"x": 4.1826044706,
				"y": -1.6759417812,
				"z": 0.3093232699,
				"element": "O" 
			},
			{
				"x": 0.6712590104,
				"y": -1.4710028337,
				"z": 0.8882151277,
				"element": "C" 
			},
			{
				"x": -0.5766988237,
				"y": -1.4223617958,
				"z": 0.2741546658,
				"element": "C" 
			},
			{
				"x": 0.7092170754,
				"y": -1.9355288331,
				"z": 2.2874454203,
				"element": "N" 
			},
			{
				"x": -0.3071451318,
				"y": -1.779156734,
				"z": 2.9612827378,
				"element": "O" 
			},
			{
				"x": 1.7382922189,
				"y": -2.4850681354,
				"z": 2.6699216515,
				"element": "O" 
			},
			{
				"x": -2.7793427952,
				"y": -2.1916353548,
				"z": -0.5363853682,
				"element": "H" 
			},
			{
				"x": 0.4157304199,
				"y": -0.5235551228,
				"z": -2.8377651741,
				"element": "H" 
			},
			{
				"x": 2.6484757267,
				"y": -0.6212861634,
				"z": -1.7149217823,
				"element": "H" 
			},
			{
				"x": 4.1944427646,
				"y": -0.3552226494,
				"z": 2.2089847374,
				"element": "H" 
			},
			{
				"x": -1.4439705282,
				"y": -1.6289333116,
				"z": 0.8918403891,
				"element": "H" 
			}
		],
		 "valence_orbital": [ 
			{
				"type": "occ",
				"energy": -0.3237,
				"method": "rhf"
			},
			{
				"type": "occ",
				"energy": -0.31658,
				"method": "rhf"
			},
			{
				"type": "occ",
				"energy": -0.30347,
				"method": "rhf"
			},
			{
				"type": "occ",
				"energy": -0.29823,
				"method": "rhf"
			},
			{
				"type": "occ",
				"energy": -0.29155,
				"method": "rhf"
			},
			{
				"type": "unocc",
				"energy": -0.11362,
				"method": "rhf"
			},
			{
				"type": "unocc",
				"energy": -0.08585,
				"method": "rhf"
			},
			{
				"type": "unocc",
				"energy": -0.03807,
				"method": "rhf"
			},
			{
				"type": "unocc",
				"energy": -0.01316,
				"method": "rhf"
			},
			{
				"type": "unocc",
				"energy": 0.0299,
				"method": "rhf"
			}
		],
		"cosmo_sigma_profile": { 
			"-0.025": 0.0,
			"-0.024": 0.0,
			"-0.023": 0.0,
			"-0.022": 0.0,
			"-0.021": 0.112231311464,
			"-0.02": 1.13191946222,
			"-0.019": 1.77363460149,
			"-0.018": 2.11357670674,
			"-0.017": 1.86126675422,
			"-0.016": 1.3230147226,
			"-0.015": 2.53644060132,
			"-0.014": 1.25708888169,
			"-0.013": 1.85848032617,
			"-0.012": 2.06262662703,
			"-0.011": 1.79218763962,
			"-0.01": 1.43698983348,
			"-0.009": 3.78588323224,
			"-0.008": 7.37007699622,
			"-0.007": 7.89991040176,
			"-0.006": 7.31625295102,
			"-0.005": 8.6744836188,
			"-0.004": 9.63883872502,
			"-0.003": 14.7215152088,
			"-0.002": 14.3917647677,
			"-0.001": 13.559605595,
			"0.0": 9.75624108635,
			"0.001": 6.25975984766,
			"0.002": 6.61347434516,
			"0.003": 7.63619980515,
			"0.004": 8.1957669332,
			"0.005": 9.47317759896,
			"0.006": 12.3426938414,
			"0.007": 11.3914976574,
			"0.008": 9.36623897737,
			"0.009": 9.12003917731,
			"0.01": 9.16344854883,
			"0.011": 8.55622338793,
			"0.012": 2.00115090101,
			"0.013": 0.147802987615,
			"0.014": 0.0,
			"0.015": 0.0,
			"0.016": 0.0,
			"0.017": 0.0,
			"0.018": 0.0,
			"0.019": 0.0,
			"0.02": 0.0,
			"0.021": 0.0,
			"0.022": 0.0,
			"0.023": 0.0,
			"0.024": 0.0,
			"0.025": 0.0
		}
	}
}
