{
	 "smiles": "N#CC1=CC=CN=C1N1CCNCC1", 
	 "Tm": 350.15, 
	 "num_atms": 26, 
	 "gaussian": { 
		 "optdone": 1, 
		 "sigma_profile": "yes", 
		 "theory": "DFT", 
		 "functional": "B3LYP", 
		 "basiset": "6-31G**", 
		 "properties": { 
			 "R2extent": 3469.4963, 
			 "electric_dipole_moment_norm": 3.79409694262, 
			 "electric_quadrupole_moment_norm": 17.7349822481, 
			 "total_energy": -607.272896585, 
			 "HOMO_LUMO_gap": 0.1599, 
			 "cosmo_polarized_energy": -11.27, 
			 "cosmo_cavitation_energy": 28.81, 
			 "cosmo_dispersion_energy": -20.8, 
			 "cosmo_repulsion_energy": 1.63, 
			 "cosmo_total_nonelectrostatic_energy": 9.65, 
			 "SMD_solvation_energy": 2.03 
		},
		"coords": [
			{
				"x": -1.7204319841,
				"y": 4.36771965,
				"z": -0.5847380652,
				"element": "N" 
			},
			{
				"x": -0.8619436427,
				"y": 3.7008056566,
				"z": -0.1646352786,
				"element": "C" 
			},
			{
				"x": 0.2241630794,
				"y": 2.939267266,
				"z": 0.3633532933,
				"element": "C" 
			},
			{
				"x": 1.4728045455,
				"y": 3.5748004481,
				"z": 0.4437569577,
				"element": "C" 
			},
			{
				"x": 2.539004511,
				"y": 2.9539427439,
				"z": 1.0798160529,
				"element": "C" 
			},
			{
				"x": 2.2910103161,
				"y": 1.705469502,
				"z": 1.652245156,
				"element": "C" 
			},
			{
				"x": 1.1329531348,
				"y": 1.057589932,
				"z": 1.5625861421,
				"element": "N" 
			},
			{
				"x": 0.0947879483,
				"y": 1.6144536538,
				"z": 0.9033957064,
				"element": "C" 
			},
			{
				"x": -1.0583440875,
				"y": 0.8703865044,
				"z": 0.8399548631,
				"element": "N" 
			},
			{
				"x": -2.0238303342,
				"y": 0.9185961836,
				"z": -0.2648677483,
				"element": "C" 
			},
			{
				"x": -1.911653101,
				"y": -0.3496140757,
				"z": -1.1227463758,
				"element": "C" 
			},
			{
				"x": -2.1040537999,
				"y": -1.5298561489,
				"z": -0.2827791402,
				"element": "N" 
			},
			{
				"x": -1.0897300965,
				"y": -1.6025025956,
				"z": 0.7708231881,
				"element": "C" 
			},
			{
				"x": -1.1989408032,
				"y": -0.3510591741,
				"z": 1.6449623557,
				"element": "C" 
			},
			{
				"x": 1.5742793801,
				"y": 4.571356733,
				"z": 0.0254709269,
				"element": "H" 
			},
			{
				"x": 3.51088821,
				"y": 3.4268033912,
				"z": 1.1581510265,
				"element": "H" 
			},
			{
				"x": 3.0739027902,
				"y": 1.1914196097,
				"z": 2.2086772707,
				"element": "H" 
			},
			{
				"x": -1.8633794865,
				"y": 1.7968957409,
				"z": -0.884115259,
				"element": "H" 
			},
			{
				"x": -3.0348254791,
				"y": 0.9841664791,
				"z": 0.1552170477,
				"element": "H" 
			},
			{
				"x": -0.9298169517,
				"y": -0.3357760088,
				"z": -1.634244389,
				"element": "H" 
			},
			{
				"x": -2.6900232848,
				"y": -0.3264402484,
				"z": -1.8935937069,
				"element": "H" 
			},
			{
				"x": -2.0804694562,
				"y": -2.3707344512,
				"z": -0.852240155,
				"element": "H" 
			},
			{
				"x": -0.0577569391,
				"y": -1.6673557164,
				"z": 0.3798768519,
				"element": "H" 
			},
			{
				"x": -1.2749456167,
				"y": -2.4918526329,
				"z": 1.383473328,
				"element": "H" 
			},
			{
				"x": -0.4370769524,
				"y": -0.3510059561,
				"z": 2.4210081228,
				"element": "H" 
			},
			{
				"x": -2.1947718997,
				"y": -0.3267764861,
				"z": 2.105691828,
				"element": "H" 
			}
		],
		 "valence_orbital": [ 
			{
				"type": "occ",
				"energy": -0.30768,
				"method": "rhf"
			},
			{
				"type": "occ",
				"energy": -0.28141,
				"method": "rhf"
			},
			{
				"type": "occ",
				"energy": -0.26746,
				"method": "rhf"
			},
			{
				"type": "occ",
				"energy": -0.23383,
				"method": "rhf"
			},
			{
				"type": "occ",
				"energy": -0.21078,
				"method": "rhf"
			},
			{
				"type": "unocc",
				"energy": -0.05088,
				"method": "rhf"
			},
			{
				"type": "unocc",
				"energy": -0.01508,
				"method": "rhf"
			},
			{
				"type": "unocc",
				"energy": 0.03547,
				"method": "rhf"
			},
			{
				"type": "unocc",
				"energy": 0.07292,
				"method": "rhf"
			},
			{
				"type": "unocc",
				"energy": 0.08286,
				"method": "rhf"
			}
		],
		"cosmo_sigma_profile": { 
			"-0.025": 0.0,
			"-0.024": 0.0,
			"-0.023": 0.0,
			"-0.022": 0.0,
			"-0.021": 0.0,
			"-0.02": 0.0,
			"-0.019": 0.0,
			"-0.018": 0.0,
			"-0.017": 0.0,
			"-0.016": 0.0,
			"-0.015": 0.0,
			"-0.014": 0.0,
			"-0.013": 0.0,
			"-0.012": 0.0,
			"-0.011": 0.26404702893,
			"-0.01": 1.42309526915,
			"-0.009": 1.56135797203,
			"-0.008": 3.3478201059,
			"-0.007": 6.57502047216,
			"-0.006": 9.46360035553,
			"-0.005": 11.0786932772,
			"-0.004": 21.7653959797,
			"-0.003": 22.6542605486,
			"-0.002": 25.4063087303,
			"-0.001": 23.5257749726,
			"0.0": 18.4149938549,
			"0.001": 15.5588146704,
			"0.002": 14.717486264,
			"0.003": 8.56578257051,
			"0.004": 5.31537990769,
			"0.005": 4.90519942902,
			"0.006": 4.52073699134,
			"0.007": 4.64581789734,
			"0.008": 4.50825861995,
			"0.009": 4.25777200914,
			"0.01": 4.61755202798,
			"0.011": 3.71832910052,
			"0.012": 2.98873463738,
			"0.013": 2.81355633616,
			"0.014": 0.864389065531,
			"0.015": 0.229924271592,
			"0.016": 0.660395616028,
			"0.017": 0.401518001933,
			"0.018": 0.108902002447,
			"0.019": 0.0,
			"0.02": 0.0,
			"0.021": 0.0,
			"0.022": 0.0,
			"0.023": 0.0,
			"0.024": 0.0,
			"0.025": 0.0
		}
	}
}
