{
	 "smiles": "OC(=O)CCN1C=NC2=C1C=CC=C2", 
	 "Tm": 380.15, 
	 "num_atms": 24, 
	 "gaussian": { 
		 "optdone": 1, 
		 "sigma_profile": "yes", 
		 "theory": "DFT", 
		 "functional": "B3LYP", 
		 "basiset": "6-31G**", 
		 "properties": { 
			 "R2extent": 3258.1796, 
			 "electric_dipole_moment_norm": 4.69920485508, 
			 "electric_quadrupole_moment_norm": 17.3483830901, 
			 "total_energy": -647.055229524, 
			 "HOMO_LUMO_gap": 0.20703, 
			 "cosmo_polarized_energy": -20.68, 
			 "cosmo_cavitation_energy": 27.93, 
			 "cosmo_dispersion_energy": -19.84, 
			 "cosmo_repulsion_energy": 1.54, 
			 "cosmo_total_nonelectrostatic_energy": 9.63, 
			 "SMD_solvation_energy": 3.83 
		},
		"coords": [
			{
				"x": -0.5383206727,
				"y": 0.5716869702,
				"z": 1.7383592052,
				"element": "O" 
			},
			{
				"x": -1.7119772423,
				"y": 1.2461689095,
				"z": 1.6553124537,
				"element": "C" 
			},
			{
				"x": -1.8657442121,
				"y": 2.281369371,
				"z": 2.2539437359,
				"element": "O" 
			},
			{
				"x": -2.7746167613,
				"y": 0.6372604481,
				"z": 0.7454487477,
				"element": "C" 
			},
			{
				"x": -2.5251146412,
				"y": 0.9555542448,
				"z": -0.7455364823,
				"element": "C" 
			},
			{
				"x": -1.2958135506,
				"y": 0.3777380314,
				"z": -1.264318592,
				"element": "N" 
			},
			{
				"x": -0.125958511,
				"y": 1.0480011398,
				"z": -1.5724871613,
				"element": "C" 
			},
			{
				"x": 0.8478076393,
				"y": 0.273300231,
				"z": -1.9697484248,
				"element": "N" 
			},
			{
				"x": 0.3152080423,
				"y": -1.0085568959,
				"z": -1.927470223,
				"element": "C" 
			},
			{
				"x": -1.031839551,
				"y": -0.9695250873,
				"z": -1.4878723726,
				"element": "C" 
			},
			{
				"x": -1.8151131189,
				"y": -2.1224870442,
				"z": -1.3666595498,
				"element": "C" 
			},
			{
				"x": -1.2045441446,
				"y": -3.3314481755,
				"z": -1.6928906148,
				"element": "C" 
			},
			{
				"x": 0.1356126877,
				"y": -3.3876454597,
				"z": -2.12631525,
				"element": "C" 
			},
			{
				"x": 0.9065927377,
				"y": -2.2364594987,
				"z": -2.250937968,
				"element": "C" 
			},
			{
				"x": -0.5466645746,
				"y": -0.2149164659,
				"z": 1.1728792194,
				"element": "H" 
			},
			{
				"x": -3.7346808425,
				"y": 1.0681954643,
				"z": 1.0373695689,
				"element": "H" 
			},
			{
				"x": -2.8298464128,
				"y": -0.4478364625,
				"z": 0.8877402291,
				"element": "H" 
			},
			{
				"x": -3.3696775868,
				"y": 0.5891886376,
				"z": -1.3389577444,
				"element": "H" 
			},
			{
				"x": -2.4700592491,
				"y": 2.0385947729,
				"z": -0.8863804129,
				"element": "H" 
			},
			{
				"x": -0.06752244,
				"y": 2.1251722521,
				"z": -1.4730985602,
				"element": "H" 
			},
			{
				"x": -2.8523748043,
				"y": -2.0881841457,
				"z": -1.0472004035,
				"element": "H" 
			},
			{
				"x": -1.7761241512,
				"y": -4.2512792026,
				"z": -1.6136872746,
				"element": "H" 
			},
			{
				"x": 0.5704757047,
				"y": -4.3523874486,
				"z": -2.3694469827,
				"element": "H" 
			},
			{
				"x": 1.9367956555,
				"y": -2.272004586,
				"z": -2.5896451427,
				"element": "H" 
			}
		],
		 "valence_orbital": [ 
			{
				"type": "occ",
				"energy": -0.30936,
				"method": "rhf"
			},
			{
				"type": "occ",
				"energy": -0.27986,
				"method": "rhf"
			},
			{
				"type": "occ",
				"energy": -0.27715,
				"method": "rhf"
			},
			{
				"type": "occ",
				"energy": -0.24095,
				"method": "rhf"
			},
			{
				"type": "occ",
				"energy": -0.23566,
				"method": "rhf"
			},
			{
				"type": "unocc",
				"energy": -0.02863,
				"method": "rhf"
			},
			{
				"type": "unocc",
				"energy": -0.0044,
				"method": "rhf"
			},
			{
				"type": "unocc",
				"energy": 0.00569,
				"method": "rhf"
			},
			{
				"type": "unocc",
				"energy": 0.04068,
				"method": "rhf"
			},
			{
				"type": "unocc",
				"energy": 0.05968,
				"method": "rhf"
			}
		],
		"cosmo_sigma_profile": { 
			"-0.025": 0.0,
			"-0.024": 0.0,
			"-0.023": 0.0,
			"-0.022": 0.0,
			"-0.021": 0.0,
			"-0.02": 0.0,
			"-0.019": 0.0,
			"-0.018": 0.0,
			"-0.017": 0.0,
			"-0.016": 0.00279866891672,
			"-0.015": 0.755593369162,
			"-0.014": 1.53977866734,
			"-0.013": 0.890507033344,
			"-0.012": 1.4511492299,
			"-0.011": 1.7720498916,
			"-0.01": 3.89323618003,
			"-0.009": 4.27873081118,
			"-0.008": 7.11688633537,
			"-0.007": 13.9938655313,
			"-0.006": 17.358761183,
			"-0.005": 17.2302591299,
			"-0.004": 15.4732042455,
			"-0.003": 12.0474992069,
			"-0.002": 9.14850409278,
			"-0.001": 8.16228680239,
			"0.0": 8.45537778938,
			"0.001": 9.27752271701,
			"0.002": 9.44453141101,
			"0.003": 10.7586751871,
			"0.004": 11.6982368783,
			"0.005": 11.3375983804,
			"0.006": 7.7556653213,
			"0.007": 4.68484242842,
			"0.008": 4.00169184989,
			"0.009": 4.28810634554,
			"0.01": 5.26359646988,
			"0.011": 6.5886227535,
			"0.012": 6.86568412323,
			"0.013": 2.97928090505,
			"0.014": 1.07656073324,
			"0.015": 0.924762792591,
			"0.016": 1.03588750896,
			"0.017": 1.04404438399,
			"0.018": 0.0898377374478,
			"0.019": 0.0,
			"0.02": 0.0,
			"0.021": 0.0,
			"0.022": 0.0,
			"0.023": 0.0,
			"0.024": 0.0,
			"0.025": 0.0
		}
	}
}
