{
	 "smiles": "CC(=O)C1=CC(F)=C(C=C1)N1CCNCC1", 
	 "Tm": 378.15, 
	 "num_atms": 31, 
	 "gaussian": { 
		 "optdone": 1, 
		 "sigma_profile": "yes", 
		 "theory": "DFT", 
		 "functional": "B3LYP", 
		 "basiset": "6-31G**", 
		 "properties": { 
			 "R2extent": 6304.9297, 
			 "electric_dipole_moment_norm": 3.3672791197, 
			 "electric_quadrupole_moment_norm": 23.6442547064, 
			 "total_energy": -750.859961767, 
			 "HOMO_LUMO_gap": 0.15405, 
			 "cosmo_polarized_energy": -13.22, 
			 "cosmo_cavitation_energy": 33.03, 
			 "cosmo_dispersion_energy": -24.01, 
			 "cosmo_repulsion_energy": 1.83, 
			 "cosmo_total_nonelectrostatic_energy": 10.84, 
			 "SMD_solvation_energy": 2.89 
		},
		"coords": [
			{
				"x": -0.7709779825,
				"y": -5.9613308295,
				"z": 0.9127422541,
				"element": "C" 
			},
			{
				"x": -0.9976037586,
				"y": -5.4003819059,
				"z": -0.4833627904,
				"element": "C" 
			},
			{
				"x": -1.1859280452,
				"y": -6.1541596893,
				"z": -1.4299311826,
				"element": "O" 
			},
			{
				"x": -0.9842889963,
				"y": -3.9240229459,
				"z": -0.672737548,
				"element": "C" 
			},
			{
				"x": -0.7807423226,
				"y": -3.0139456023,
				"z": 0.3784566848,
				"element": "C" 
			},
			{
				"x": -0.7837359177,
				"y": -1.6559359486,
				"z": 0.1336856213,
				"element": "C" 
			},
			{
				"x": -0.6426057449,
				"y": -0.8187895221,
				"z": 1.1964745485,
				"element": "F" 
			},
			{
				"x": -0.9587069714,
				"y": -1.0987023615,
				"z": -1.1555680165,
				"element": "C" 
			},
			{
				"x": -1.1690840395,
				"y": -2.0355664408,
				"z": -2.1966174079,
				"element": "C" 
			},
			{
				"x": -1.1858936041,
				"y": -3.401640963,
				"z": -1.9591619918,
				"element": "C" 
			},
			{
				"x": -0.9652455588,
				"y": 0.2697663536,
				"z": -1.3580646748,
				"element": "N" 
			},
			{
				"x": -0.0808569963,
				"y": 1.1755092943,
				"z": -0.6035434002,
				"element": "C" 
			},
			{
				"x": 0.6020173261,
				"y": 2.1789652519,
				"z": -1.5717421797,
				"element": "C" 
			},
			{
				"x": 0.8983319408,
				"y": 1.6018863027,
				"z": -2.8802522908,
				"element": "N" 
			},
			{
				"x": -0.3333967614,
				"y": 1.1993350677,
				"z": -3.5774821468,
				"element": "C" 
			},
			{
				"x": -1.4788467406,
				"y": 0.8569537279,
				"z": -2.5891309891,
				"element": "C" 
			},
			{
				"x": -0.8138811559,
				"y": -7.0496106865,
				"z": 0.8615326982,
				"element": "H" 
			},
			{
				"x": 0.2038955778,
				"y": -5.6550397932,
				"z": 1.3081825123,
				"element": "H" 
			},
			{
				"x": -1.5345892542,
				"y": -5.6014290863,
				"z": 1.6113989017,
				"element": "H" 
			},
			{
				"x": -0.6447769778,
				"y": -3.3384211151,
				"z": 1.404203619,
				"element": "H" 
			},
			{
				"x": -1.2979204632,
				"y": -1.6794843116,
				"z": -3.212285774,
				"element": "H" 
			},
			{
				"x": -1.3383873512,
				"y": -4.1006149005,
				"z": -2.7745495775,
				"element": "H" 
			},
			{
				"x": -0.631553201,
				"y": 1.7112583884,
				"z": 0.1831285001,
				"element": "H" 
			},
			{
				"x": 0.6855015158,
				"y": 0.5769376588,
				"z": -0.1082608091,
				"element": "H" 
			},
			{
				"x": -0.0331371761,
				"y": 3.0592999613,
				"z": -1.7264664031,
				"element": "H" 
			},
			{
				"x": 1.5270519035,
				"y": 2.5436873948,
				"z": -1.1132034771,
				"element": "H" 
			},
			{
				"x": 1.4918139074,
				"y": 0.786586771,
				"z": -2.7526837128,
				"element": "H" 
			},
			{
				"x": -0.1014295939,
				"y": 0.3416615347,
				"z": -4.2171222803,
				"element": "H" 
			},
			{
				"x": -0.6674342821,
				"y": 2.0106364295,
				"z": -4.2395721717,
				"element": "H" 
			},
			{
				"x": -2.2222594201,
				"y": 0.1967256572,
				"z": -3.0391446285,
				"element": "H" 
			},
			{
				"x": -2.0136298561,
				"y": 1.7760663082,
				"z": -2.3161218875,
				"element": "H" 
			}
		],
		 "valence_orbital": [ 
			{
				"type": "occ",
				"energy": -0.29166,
				"method": "rhf"
			},
			{
				"type": "occ",
				"energy": -0.25334,
				"method": "rhf"
			},
			{
				"type": "occ",
				"energy": -0.23893,
				"method": "rhf"
			},
			{
				"type": "occ",
				"energy": -0.2341,
				"method": "rhf"
			},
			{
				"type": "occ",
				"energy": -0.19868,
				"method": "rhf"
			},
			{
				"type": "unocc",
				"energy": -0.04463,
				"method": "rhf"
			},
			{
				"type": "unocc",
				"energy": -0.0041,
				"method": "rhf"
			},
			{
				"type": "unocc",
				"energy": 0.05012,
				"method": "rhf"
			},
			{
				"type": "unocc",
				"energy": 0.0657,
				"method": "rhf"
			},
			{
				"type": "unocc",
				"energy": 0.07993,
				"method": "rhf"
			}
		],
		"cosmo_sigma_profile": { 
			"-0.025": 0.0,
			"-0.024": 0.0,
			"-0.023": 0.0,
			"-0.022": 0.0,
			"-0.021": 0.0,
			"-0.02": 0.0,
			"-0.019": 0.0,
			"-0.018": 0.0,
			"-0.017": 0.0,
			"-0.016": 0.0,
			"-0.015": 0.0,
			"-0.014": 0.0,
			"-0.013": 0.0,
			"-0.012": 0.0,
			"-0.011": 0.0,
			"-0.01": 0.747649443441,
			"-0.009": 1.44197116806,
			"-0.008": 1.86139571872,
			"-0.007": 5.25970632305,
			"-0.006": 10.7902966151,
			"-0.005": 22.4506551364,
			"-0.004": 28.0727798396,
			"-0.003": 30.0685292677,
			"-0.002": 22.909959201,
			"-0.001": 20.5931539294,
			"0.0": 14.8512984814,
			"0.001": 13.2320440685,
			"0.002": 14.4697683931,
			"0.003": 16.5928193936,
			"0.004": 18.8718006708,
			"0.005": 9.77075596497,
			"0.006": 2.81932576822,
			"0.007": 3.07388840739,
			"0.008": 2.14617410536,
			"0.009": 2.0901535951,
			"0.01": 2.20033543512,
			"0.011": 3.22041257413,
			"0.012": 4.30887288253,
			"0.013": 3.96792443753,
			"0.014": 1.65301430398,
			"0.015": 0.911022183075,
			"0.016": 0.602504262883,
			"0.017": 0.42432926387,
			"0.018": 0.479267233756,
			"0.019": 0.13500188739,
			"0.02": 0.0,
			"0.021": 0.0,
			"0.022": 0.0,
			"0.023": 0.0,
			"0.024": 0.0,
			"0.025": 0.0
		}
	}
}
