{
	 "smiles": "OC1=CC(=CC=C1)N1CCCC1=O", 
	 "Tm": 475.15, 
	 "num_atms": 24, 
	 "gaussian": { 
		 "optdone": 1, 
		 "sigma_profile": "yes", 
		 "theory": "DFT", 
		 "functional": "B3LYP", 
		 "basiset": "6-31G**", 
		 "properties": { 
			 "R2extent": 2971.0692, 
			 "electric_dipole_moment_norm": 4.66314354272, 
			 "electric_quadrupole_moment_norm": 6.05630409326, 
			 "total_energy": -592.908232099, 
			 "HOMO_LUMO_gap": 0.19816, 
			 "cosmo_polarized_energy": -15.31, 
			 "cosmo_cavitation_energy": 26.76, 
			 "cosmo_dispersion_energy": -20.23, 
			 "cosmo_repulsion_energy": 1.59, 
			 "cosmo_total_nonelectrostatic_energy": 8.12, 
			 "SMD_solvation_energy": 4.8 
		},
		"coords": [
			{
				"x": -2.5070506588,
				"y": 2.3290129651,
				"z": 1.9457690076,
				"element": "O" 
			},
			{
				"x": -2.0788680379,
				"y": 1.9537845544,
				"z": 0.7017312874,
				"element": "C" 
			},
			{
				"x": -0.9976287705,
				"y": 1.0864206083,
				"z": 0.5228733084,
				"element": "C" 
			},
			{
				"x": -0.5857292449,
				"y": 0.7210156037,
				"z": -0.7715285359,
				"element": "C" 
			},
			{
				"x": -1.2758663068,
				"y": 1.2351766386,
				"z": -1.8829179969,
				"element": "C" 
			},
			{
				"x": -2.3521265089,
				"y": 2.096903808,
				"z": -1.6755192174,
				"element": "C" 
			},
			{
				"x": -2.7661888332,
				"y": 2.4689131779,
				"z": -0.3990506901,
				"element": "C" 
			},
			{
				"x": 0.5247527621,
				"y": -0.1452124467,
				"z": -0.9186111821,
				"element": "N" 
			},
			{
				"x": 1.3657605797,
				"y": -0.5137611298,
				"z": 0.2265441617,
				"element": "C" 
			},
			{
				"x": 2.591101392,
				"y": -1.1916632136,
				"z": -0.4109555347,
				"element": "C" 
			},
			{
				"x": 2.0378858165,
				"y": -1.7681175781,
				"z": -1.7169314227,
				"element": "C" 
			},
			{
				"x": 0.8676391224,
				"y": -0.8520991469,
				"z": -2.0689426238,
				"element": "C" 
			},
			{
				"x": 0.3279819309,
				"y": -0.7796958595,
				"z": -3.1591536435,
				"element": "O" 
			},
			{
				"x": -1.9535265896,
				"y": 1.9052215435,
				"z": 2.6140089835,
				"element": "H" 
			},
			{
				"x": -0.4937468546,
				"y": 0.6913017686,
				"z": 1.3990869826,
				"element": "H" 
			},
			{
				"x": -0.9743670359,
				"y": 0.949493252,
				"z": -2.8789204489,
				"element": "H" 
			},
			{
				"x": -2.8796209189,
				"y": 2.490506072,
				"z": -2.5397579863,
				"element": "H" 
			},
			{
				"x": -3.6017501023,
				"y": 3.1409607749,
				"z": -0.2377753828,
				"element": "H" 
			},
			{
				"x": 0.8271126319,
				"y": -1.1994475737,
				"z": 0.8966491535,
				"element": "H" 
			},
			{
				"x": 1.634916057,
				"y": 0.3762025664,
				"z": 0.8031355417,
				"element": "H" 
			},
			{
				"x": 3.0338784062,
				"y": -1.9397570259,
				"z": 0.2507783547,
				"element": "H" 
			},
			{
				"x": 3.3565531913,
				"y": -0.4394319166,
				"z": -0.6261041972,
				"element": "H" 
			},
			{
				"x": 1.6415676796,
				"y": -2.7828685557,
				"z": -1.5844521054,
				"element": "H" 
			},
			{
				"x": 2.7507202927,
				"y": -1.8009588872,
				"z": -2.5431558132,
				"element": "H" 
			}
		],
		 "valence_orbital": [ 
			{
				"type": "occ",
				"energy": -0.33451,
				"method": "rhf"
			},
			{
				"type": "occ",
				"energy": -0.28487,
				"method": "rhf"
			},
			{
				"type": "occ",
				"energy": -0.24883,
				"method": "rhf"
			},
			{
				"type": "occ",
				"energy": -0.23142,
				"method": "rhf"
			},
			{
				"type": "occ",
				"energy": -0.20806,
				"method": "rhf"
			},
			{
				"type": "unocc",
				"energy": -0.0099,
				"method": "rhf"
			},
			{
				"type": "unocc",
				"energy": 0.01363,
				"method": "rhf"
			},
			{
				"type": "unocc",
				"energy": 0.04606,
				"method": "rhf"
			},
			{
				"type": "unocc",
				"energy": 0.06626,
				"method": "rhf"
			},
			{
				"type": "unocc",
				"energy": 0.07904,
				"method": "rhf"
			}
		],
		"cosmo_sigma_profile": { 
			"-0.025": 0.0,
			"-0.024": 0.0,
			"-0.023": 0.0,
			"-0.022": 0.0,
			"-0.021": 0.0,
			"-0.02": 0.0,
			"-0.019": 0.0,
			"-0.018": 0.312501122223,
			"-0.017": 1.05509439744,
			"-0.016": 1.43126173935,
			"-0.015": 1.04778839633,
			"-0.014": 0.838332893086,
			"-0.013": 0.645599356252,
			"-0.012": 0.735069874394,
			"-0.011": 1.25930343005,
			"-0.01": 1.17490436905,
			"-0.009": 1.61931029537,
			"-0.008": 0.932075698219,
			"-0.007": 1.71091429571,
			"-0.006": 8.6283701394,
			"-0.005": 18.9771266182,
			"-0.004": 25.7549975413,
			"-0.003": 20.256494149,
			"-0.002": 14.3241820127,
			"-0.001": 14.1906249983,
			"0.0": 8.09845148454,
			"0.001": 7.30250945335,
			"0.002": 9.12879474739,
			"0.003": 10.5334529885,
			"0.004": 13.3469007123,
			"0.005": 13.0723835092,
			"0.006": 9.21750857658,
			"0.007": 4.83756007243,
			"0.008": 2.49578041424,
			"0.009": 2.46951924533,
			"0.01": 3.85162136641,
			"0.011": 3.86506818183,
			"0.012": 3.8691502086,
			"0.013": 3.26300709245,
			"0.014": 1.64781407481,
			"0.015": 0.118047004657,
			"0.016": 0.0,
			"0.017": 0.0,
			"0.018": 0.0,
			"0.019": 0.0,
			"0.02": 0.0,
			"0.021": 0.0,
			"0.022": 0.0,
			"0.023": 0.0,
			"0.024": 0.0,
			"0.025": 0.0
		}
	}
}
