{
	 "smiles": "NC1=NOC=C1C#N", 
	 "Tm": 413.15, 
	 "num_atms": 11, 
	 "gaussian": { 
		 "optdone": 1, 
		 "sigma_profile": "yes", 
		 "theory": "DFT", 
		 "functional": "B3LYP", 
		 "basiset": "6-31G**", 
		 "properties": { 
			 "R2extent": 1233.7972, 
			 "electric_dipole_moment_norm": 1.48024782047, 
			 "electric_quadrupole_moment_norm": 15.8588820914, 
			 "total_energy": -393.633568355, 
			 "HOMO_LUMO_gap": 0.20883, 
			 "cosmo_polarized_energy": -14.19, 
			 "cosmo_cavitation_energy": 17.18, 
			 "cosmo_dispersion_energy": -12.29, 
			 "cosmo_repulsion_energy": 1.04, 
			 "cosmo_total_nonelectrostatic_energy": 5.93, 
			 "SMD_solvation_energy": 5.02 
		},
		"coords": [
			{
				"x": -1.2630348215,
				"y": 1.1820091969,
				"z": -1.0581219315,
				"element": "N" 
			},
			{
				"x": -0.1006907001,
				"y": 0.622040785,
				"z": -1.5163455938,
				"element": "C" 
			},
			{
				"x": 0.7523174965,
				"y": 1.2819260408,
				"z": -2.273950327,
				"element": "N" 
			},
			{
				"x": 1.8403881867,
				"y": 0.3978503125,
				"z": -2.4633015706,
				"element": "O" 
			},
			{
				"x": 1.5993278196,
				"y": -0.7469564492,
				"z": -1.8339487535,
				"element": "C" 
			},
			{
				"x": 0.3870425744,
				"y": -0.7013197631,
				"z": -1.2020406452,
				"element": "C" 
			},
			{
				"x": -0.2657448072,
				"y": -1.6903885915,
				"z": -0.428906993,
				"element": "C" 
			},
			{
				"x": -0.8451850986,
				"y": -2.4754297907,
				"z": 0.2063142105,
				"element": "N" 
			},
			{
				"x": -2.0096157541,
				"y": 0.5431448953,
				"z": -0.8265086365,
				"element": "H" 
			},
			{
				"x": -1.5568514612,
				"y": 2.0238780256,
				"z": -1.5328236539,
				"element": "H" 
			},
			{
				"x": 2.3549465655,
				"y": -1.5165546617,
				"z": -1.9037661056,
				"element": "H" 
			}
		],
		 "valence_orbital": [ 
			{
				"type": "occ",
				"energy": -0.36986,
				"method": "rhf"
			},
			{
				"type": "occ",
				"energy": -0.35426,
				"method": "rhf"
			},
			{
				"type": "occ",
				"energy": -0.32102,
				"method": "rhf"
			},
			{
				"type": "occ",
				"energy": -0.28052,
				"method": "rhf"
			},
			{
				"type": "occ",
				"energy": -0.25666,
				"method": "rhf"
			},
			{
				"type": "unocc",
				"energy": -0.04783,
				"method": "rhf"
			},
			{
				"type": "unocc",
				"energy": 0.00565,
				"method": "rhf"
			},
			{
				"type": "unocc",
				"energy": 0.01136,
				"method": "rhf"
			},
			{
				"type": "unocc",
				"energy": 0.0537,
				"method": "rhf"
			},
			{
				"type": "unocc",
				"energy": 0.09165,
				"method": "rhf"
			}
		],
		"cosmo_sigma_profile": { 
			"-0.025": 0.0,
			"-0.024": 0.0,
			"-0.023": 0.0,
			"-0.022": 0.0,
			"-0.021": 0.0,
			"-0.02": 0.0,
			"-0.019": 0.0,
			"-0.018": 0.0,
			"-0.017": 0.0,
			"-0.016": 0.0,
			"-0.015": 0.819072008964,
			"-0.014": 2.41365827,
			"-0.013": 3.1460111894,
			"-0.012": 5.55921239638,
			"-0.011": 4.62255193465,
			"-0.01": 3.5998239167,
			"-0.009": 4.05689816388,
			"-0.008": 3.66850287142,
			"-0.007": 3.43834185779,
			"-0.006": 3.9994508254,
			"-0.005": 3.78552777074,
			"-0.004": 4.3772041522,
			"-0.003": 7.24606183866,
			"-0.002": 11.3136179809,
			"-0.001": 7.19178441745,
			"0.0": 5.25974702301,
			"0.001": 4.54971724609,
			"0.002": 4.12738982283,
			"0.003": 5.11310335917,
			"0.004": 4.56115758163,
			"0.005": 4.94159877402,
			"0.006": 6.84367274541,
			"0.007": 8.23288848419,
			"0.008": 6.11095332946,
			"0.009": 4.87887417703,
			"0.01": 5.54959989832,
			"0.011": 3.51284942354,
			"0.012": 3.9899687383,
			"0.013": 1.82908271467,
			"0.014": 0.641273382784,
			"0.015": 0.0,
			"0.016": 0.0,
			"0.017": 0.0,
			"0.018": 0.0,
			"0.019": 0.0,
			"0.02": 0.0,
			"0.021": 0.0,
			"0.022": 0.0,
			"0.023": 0.0,
			"0.024": 0.0,
			"0.025": 0.0
		}
	}
}
