{
	 "smiles": "OC(=O)C1=CC=C(N=C1)C(O)=O", 
	 "Tm": 527.15, 
	 "num_atms": 17, 
	 "gaussian": { 
		 "optdone": 1, 
		 "sigma_profile": "yes", 
		 "theory": "DFT", 
		 "functional": "B3LYP", 
		 "basiset": "6-31G**", 
		 "properties": { 
			 "R2extent": 3173.3265, 
			 "electric_dipole_moment_norm": 3.04509991626, 
			 "electric_quadrupole_moment_norm": 29.3777911825, 
			 "total_energy": -625.420090357, 
			 "HOMO_LUMO_gap": 0.18289, 
			 "cosmo_polarized_energy": -20.12, 
			 "cosmo_cavitation_energy": 22.87, 
			 "cosmo_dispersion_energy": -17.1, 
			 "cosmo_repulsion_energy": 1.35, 
			 "cosmo_total_nonelectrostatic_energy": 7.12, 
			 "SMD_solvation_energy": 5.73 
		},
		"coords": [
			{
				"x": -3.3043668836,
				"y": -1.1219290923,
				"z": -2.5281174933,
				"element": "O" 
			},
			{
				"x": -2.6180284561,
				"y": -0.0113631905,
				"z": -2.1602472226,
				"element": "C" 
			},
			{
				"x": -2.5320730202,
				"y": 0.9313880426,
				"z": -2.9086214196,
				"element": "O" 
			},
			{
				"x": -1.9900921349,
				"y": -0.0161997435,
				"z": -0.7958092744,
				"element": "C" 
			},
			{
				"x": -0.958741245,
				"y": 0.8968250621,
				"z": -0.5357219098,
				"element": "C" 
			},
			{
				"x": -0.3739778759,
				"y": 0.9172618763,
				"z": 0.7240984554,
				"element": "C" 
			},
			{
				"x": -0.859785061,
				"y": 0.0307844961,
				"z": 1.6877146423,
				"element": "C" 
			},
			{
				"x": -1.8648113895,
				"y": -0.8284276091,
				"z": 1.464279821,
				"element": "N" 
			},
			{
				"x": -2.4153275834,
				"y": -0.8476016116,
				"z": 0.2484711948,
				"element": "C" 
			},
			{
				"x": -0.2636199328,
				"y": 0.0009292702,
				"z": 3.0766678599,
				"element": "C" 
			},
			{
				"x": -0.8412382487,
				"y": -0.889412222,
				"z": 3.8947027235,
				"element": "O" 
			},
			{
				"x": 0.6513051181,
				"y": 0.7186413452,
				"z": 3.408615165,
				"element": "O" 
			},
			{
				"x": -3.1491433049,
				"y": -1.8493491344,
				"z": -1.9098674531,
				"element": "H" 
			},
			{
				"x": -0.6420287229,
				"y": 1.5672171096,
				"z": -1.3277194799,
				"element": "H" 
			},
			{
				"x": 0.4339483796,
				"y": 1.5908685899,
				"z": 0.9845708879,
				"element": "H" 
			},
			{
				"x": -3.2498988555,
				"y": -1.535901965,
				"z": 0.1218699396,
				"element": "H" 
			},
			{
				"x": -1.5470207832,
				"y": -1.3293312236,
				"z": 3.3776135633,
				"element": "H" 
			}
		],
		 "valence_orbital": [ 
			{
				"type": "occ",
				"energy": -0.32782,
				"method": "rhf"
			},
			{
				"type": "occ",
				"energy": -0.3232,
				"method": "rhf"
			},
			{
				"type": "occ",
				"energy": -0.30544,
				"method": "rhf"
			},
			{
				"type": "occ",
				"energy": -0.29695,
				"method": "rhf"
			},
			{
				"type": "occ",
				"energy": -0.28279,
				"method": "rhf"
			},
			{
				"type": "unocc",
				"energy": -0.0999,
				"method": "rhf"
			},
			{
				"type": "unocc",
				"energy": -0.06826,
				"method": "rhf"
			},
			{
				"type": "unocc",
				"energy": -0.01053,
				"method": "rhf"
			},
			{
				"type": "unocc",
				"energy": 0.03848,
				"method": "rhf"
			},
			{
				"type": "unocc",
				"energy": 0.05643,
				"method": "rhf"
			}
		],
		"cosmo_sigma_profile": { 
			"-0.025": 0.0,
			"-0.024": 0.0,
			"-0.023": 0.0,
			"-0.022": 0.0,
			"-0.021": 0.0,
			"-0.02": 0.519083172009,
			"-0.019": 0.59613727575,
			"-0.018": 1.77098109668,
			"-0.017": 0.926717359785,
			"-0.016": 1.3937559048,
			"-0.015": 0.651158390996,
			"-0.014": 1.07139358418,
			"-0.013": 1.71884471275,
			"-0.012": 1.83104594426,
			"-0.011": 2.58737063109,
			"-0.01": 2.4732871608,
			"-0.009": 2.38428737377,
			"-0.008": 5.74987899031,
			"-0.007": 6.51382659291,
			"-0.006": 9.4093345024,
			"-0.005": 9.28985545221,
			"-0.004": 8.30475231044,
			"-0.003": 13.8617231983,
			"-0.002": 15.8201975663,
			"-0.001": 14.0002473841,
			"0.0": 6.07421638251,
			"0.001": 4.61947947099,
			"0.002": 6.53050637224,
			"0.003": 6.16042507212,
			"0.004": 5.36910331985,
			"0.005": 3.89767952629,
			"0.006": 5.21331114266,
			"0.007": 5.56243397131,
			"0.008": 5.97076223765,
			"0.009": 8.87219967563,
			"0.01": 10.3227187229,
			"0.011": 9.86572685114,
			"0.012": 4.34210900665,
			"0.013": 0.655296932137,
			"0.014": 0.0,
			"0.015": 0.0,
			"0.016": 0.0,
			"0.017": 0.0,
			"0.018": 0.0,
			"0.019": 0.0,
			"0.02": 0.0,
			"0.021": 0.0,
			"0.022": 0.0,
			"0.023": 0.0,
			"0.024": 0.0,
			"0.025": 0.0
		}
	}
}
