{
	 "smiles": "CC(C)COC(=O)C(C)OC1=CC=C(OC2=CC=C(Cl)C=C2)C=C1", 
	 "Tm": 312.65, 
	 "num_atms": 45, 
	 "gaussian": { 
		 "optdone": 1, 
		 "sigma_profile": "yes", 
		 "theory": "DFT", 
		 "functional": "B3LYP", 
		 "basiset": "6-31G**", 
		 "properties": { 
			 "R2extent": 17834.4953, 
			 "electric_dipole_moment_norm": 4.3740790162, 
			 "electric_quadrupole_moment_norm": 15.5021317305, 
			 "total_energy": -1497.76695087, 
			 "HOMO_LUMO_gap": 0.19725, 
			 "cosmo_polarized_energy": -11.89, 
			 "cosmo_cavitation_energy": 50.71, 
			 "cosmo_dispersion_energy": -34.51, 
			 "cosmo_repulsion_energy": 2.66, 
			 "cosmo_total_nonelectrostatic_energy": 18.85, 
			 "SMD_solvation_energy": 9.28 
		},
		"coords": [
			{
				"x": 1.0317786414,
				"y": 5.2093717551,
				"z": 2.5768269853,
				"element": "C" 
			},
			{
				"x": 1.3028894394,
				"y": 3.9602846664,
				"z": 3.4279034909,
				"element": "C" 
			},
			{
				"x": 2.2661124438,
				"y": 2.9915709437,
				"z": 2.7269151863,
				"element": "C" 
			},
			{
				"x": 0.0065589614,
				"y": 3.2676443572,
				"z": 3.8565483281,
				"element": "C" 
			},
			{
				"x": -0.7483380129,
				"y": 2.8117694849,
				"z": 2.7028994668,
				"element": "O" 
			},
			{
				"x": -0.9235315655,
				"y": 1.4813818768,
				"z": 2.5422863899,
				"element": "C" 
			},
			{
				"x": -0.4937190637,
				"y": 0.631968807,
				"z": 3.2898541741,
				"element": "O" 
			},
			{
				"x": -1.7529564532,
				"y": 1.234950012,
				"z": 1.272719424,
				"element": "C" 
			},
			{
				"x": -0.935929273,
				"y": 1.5186124419,
				"z": 0.0069063203,
				"element": "C" 
			},
			{
				"x": -2.3882172503,
				"y": -0.0402185694,
				"z": 1.2966290705,
				"element": "O" 
			},
			{
				"x": -1.7907980611,
				"y": -1.1504662194,
				"z": 0.7288633382,
				"element": "C" 
			},
			{
				"x": -0.5914402815,
				"y": -1.6968289575,
				"z": 1.1976945002,
				"element": "C" 
			},
			{
				"x": -0.0845373653,
				"y": -2.8558170282,
				"z": 0.6083406378,
				"element": "C" 
			},
			{
				"x": -0.7834229193,
				"y": -3.4793603846,
				"z": -0.4244401186,
				"element": "C" 
			},
			{
				"x": -0.2862545969,
				"y": -4.6816101823,
				"z": -0.907185488,
				"element": "O" 
			},
			{
				"x": -0.0607361287,
				"y": -4.853262148,
				"z": -2.2530690005,
				"element": "C" 
			},
			{
				"x": -0.0110277574,
				"y": -6.1765511019,
				"z": -2.7039790784,
				"element": "C" 
			},
			{
				"x": 0.26541089,
				"y": -6.4496647249,
				"z": -4.0407655682,
				"element": "C" 
			},
			{
				"x": 0.4867031402,
				"y": -5.3934014044,
				"z": -4.9254406681,
				"element": "C" 
			},
			{
				"x": 0.8277962686,
				"y": -5.7336687105,
				"z": -6.6182613152,
				"element": "Cl" 
			},
			{
				"x": 0.4406214016,
				"y": -4.0726972817,
				"z": -4.4838282528,
				"element": "C" 
			},
			{
				"x": 0.1693345404,
				"y": -3.7991119732,
				"z": -3.1427084829,
				"element": "C" 
			},
			{
				"x": -1.9955899438,
				"y": -2.9532328106,
				"z": -0.878363551,
				"element": "C" 
			},
			{
				"x": -2.4888393135,
				"y": -1.7826314673,
				"z": -0.3061922246,
				"element": "C" 
			},
			{
				"x": 0.5322371304,
				"y": 4.9424511527,
				"z": 1.6400056564,
				"element": "H" 
			},
			{
				"x": 1.9665775533,
				"y": 5.7206464124,
				"z": 2.325599303,
				"element": "H" 
			},
			{
				"x": 0.3905996701,
				"y": 5.9228452943,
				"z": 3.1060770349,
				"element": "H" 
			},
			{
				"x": 1.7710937776,
				"y": 4.283395082,
				"z": 4.3697497827,
				"element": "H" 
			},
			{
				"x": 2.4619463799,
				"y": 2.1057850001,
				"z": 3.3394943703,
				"element": "H" 
			},
			{
				"x": 1.8546509953,
				"y": 2.6532837602,
				"z": 1.7698712305,
				"element": "H" 
			},
			{
				"x": 3.2233077917,
				"y": 3.4801210702,
				"z": 2.5188677366,
				"element": "H" 
			},
			{
				"x": -0.6533348571,
				"y": 3.9679921306,
				"z": 4.3780958077,
				"element": "H" 
			},
			{
				"x": 0.2057920859,
				"y": 2.4087818677,
				"z": 4.5002506336,
				"element": "H" 
			},
			{
				"x": -2.5817734106,
				"y": 1.9499217685,
				"z": 1.3151138469,
				"element": "H" 
			},
			{
				"x": -1.5574636766,
				"y": 1.3560897135,
				"z": -0.8776392652,
				"element": "H" 
			},
			{
				"x": -0.6020221597,
				"y": 2.5586450772,
				"z": 0.0149561357,
				"element": "H" 
			},
			{
				"x": -0.0604799339,
				"y": 0.8683716187,
				"z": -0.0627854465,
				"element": "H" 
			},
			{
				"x": -0.082174673,
				"y": -1.2234697155,
				"z": 2.0281429405,
				"element": "H" 
			},
			{
				"x": 0.8430854201,
				"y": -3.2977669033,
				"z": 0.957204713,
				"element": "H" 
			},
			{
				"x": -0.1886196832,
				"y": -6.9784418675,
				"z": -1.9953308707,
				"element": "H" 
			},
			{
				"x": 0.3042058675,
				"y": -7.4737810575,
				"z": -4.3950612495,
				"element": "H" 
			},
			{
				"x": 0.6212001688,
				"y": -3.260859173,
				"z": -5.1798615562,
				"element": "H" 
			},
			{
				"x": 0.1402146524,
				"y": -2.7735442774,
				"z": -2.793427204,
				"element": "H" 
			},
			{
				"x": -2.5422977996,
				"y": -3.4552812456,
				"z": -1.6698520263,
				"element": "H" 
			},
			{
				"x": -3.4284130403,
				"y": -1.3542170893,
				"z": -0.6397251373,
				"element": "H" 
			}
		],
		 "valence_orbital": [ 
			{
				"type": "occ",
				"energy": -0.27428,
				"method": "rhf"
			},
			{
				"type": "occ",
				"energy": -0.26462,
				"method": "rhf"
			},
			{
				"type": "occ",
				"energy": -0.25722,
				"method": "rhf"
			},
			{
				"type": "occ",
				"energy": -0.23749,
				"method": "rhf"
			},
			{
				"type": "occ",
				"energy": -0.21531,
				"method": "rhf"
			},
			{
				"type": "unocc",
				"energy": -0.01806,
				"method": "rhf"
			},
			{
				"type": "unocc",
				"energy": -0.0073,
				"method": "rhf"
			},
			{
				"type": "unocc",
				"energy": -0.00499,
				"method": "rhf"
			},
			{
				"type": "unocc",
				"energy": -0.00052,
				"method": "rhf"
			},
			{
				"type": "unocc",
				"energy": 0.0083,
				"method": "rhf"
			}
		],
		"cosmo_sigma_profile": { 
			"-0.025": 0.0,
			"-0.024": 0.0,
			"-0.023": 0.0,
			"-0.022": 0.0,
			"-0.021": 0.0,
			"-0.02": 0.0,
			"-0.019": 0.0,
			"-0.018": 0.0,
			"-0.017": 0.0,
			"-0.016": 0.0,
			"-0.015": 0.0,
			"-0.014": 0.0,
			"-0.013": 0.0,
			"-0.012": 0.0,
			"-0.011": 0.0,
			"-0.01": 0.0,
			"-0.009": 0.0,
			"-0.008": 0.579956081091,
			"-0.007": 9.05434198047,
			"-0.006": 15.0346444154,
			"-0.005": 19.1817089085,
			"-0.004": 30.3147616946,
			"-0.003": 39.9946922979,
			"-0.002": 40.2008152084,
			"-0.001": 40.6031000435,
			"0.0": 33.8220808057,
			"0.001": 38.1641579823,
			"0.002": 33.2261857567,
			"0.003": 34.6640776194,
			"0.004": 28.1068521632,
			"0.005": 14.1029051883,
			"0.006": 4.58646196077,
			"0.007": 5.37412108967,
			"0.008": 4.0075807795,
			"0.009": 4.15770739264,
			"0.01": 4.72810566475,
			"0.011": 3.63908486796,
			"0.012": 0.181362914265,
			"0.013": 0.0,
			"0.014": 0.0,
			"0.015": 0.0,
			"0.016": 0.0,
			"0.017": 0.0,
			"0.018": 0.0,
			"0.019": 0.0,
			"0.02": 0.0,
			"0.021": 0.0,
			"0.022": 0.0,
			"0.023": 0.0,
			"0.024": 0.0,
			"0.025": 0.0
		}
	}
}
