{
	 "smiles": "OC(=O)CC1CCOC2=C1C=CC=C2", 
	 "Tm": 363.15, 
	 "num_atms": 26, 
	 "gaussian": { 
		 "optdone": 1, 
		 "sigma_profile": "yes", 
		 "theory": "DFT", 
		 "functional": "B3LYP", 
		 "basiset": "6-31G**", 
		 "properties": { 
			 "R2extent": 3453.6713, 
			 "electric_dipole_moment_norm": 1.48800733197, 
			 "electric_quadrupole_moment_norm": 7.07171503314, 
			 "total_energy": -652.091384527, 
			 "HOMO_LUMO_gap": 0.20827, 
			 "cosmo_polarized_energy": -11.39, 
			 "cosmo_cavitation_energy": 28.59, 
			 "cosmo_dispersion_energy": -21.19, 
			 "cosmo_repulsion_energy": 1.67, 
			 "cosmo_total_nonelectrostatic_energy": 9.06, 
			 "SMD_solvation_energy": 5.8 
		},
		"coords": [
			{
				"x": 2.9531372344,
				"y": 2.8649357936,
				"z": -2.3263868966,
				"element": "O" 
			},
			{
				"x": 2.9487245053,
				"y": 2.1150008923,
				"z": -1.1981709131,
				"element": "C" 
			},
			{
				"x": 3.9631919919,
				"y": 1.8652658348,
				"z": -0.5822401322,
				"element": "O" 
			},
			{
				"x": 1.544116876,
				"y": 1.6873197773,
				"z": -0.8275188832,
				"element": "C" 
			},
			{
				"x": 1.5031048178,
				"y": 0.6402989109,
				"z": 0.298600148,
				"element": "C" 
			},
			{
				"x": 2.1244772839,
				"y": -0.6885611774,
				"z": -0.170006075,
				"element": "C" 
			},
			{
				"x": 1.8086440171,
				"y": -1.7969451537,
				"z": 0.8196312825,
				"element": "C" 
			},
			{
				"x": 0.3988930995,
				"y": -2.0199225203,
				"z": 0.9136305152,
				"element": "O" 
			},
			{
				"x": -0.3715794871,
				"y": -0.9017754592,
				"z": 1.0875209046,
				"element": "C" 
			},
			{
				"x": 0.0884963234,
				"y": 0.4042301495,
				"z": 0.827829663,
				"element": "C" 
			},
			{
				"x": -0.7958926739,
				"y": 1.4612177116,
				"z": 1.0915789222,
				"element": "C" 
			},
			{
				"x": -2.0917263962,
				"y": 1.2459323294,
				"z": 1.5547132797,
				"element": "C" 
			},
			{
				"x": -2.5369733044,
				"y": -0.0616418963,
				"z": 1.7669149613,
				"element": "C" 
			},
			{
				"x": -1.6779484026,
				"y": -1.1300020032,
				"z": 1.5394993006,
				"element": "C" 
			},
			{
				"x": 3.8790858198,
				"y": 3.1195467735,
				"z": -2.4780655441,
				"element": "H" 
			},
			{
				"x": 1.03839848,
				"y": 1.3202322572,
				"z": -1.7280064948,
				"element": "H" 
			},
			{
				"x": 1.0128301047,
				"y": 2.6037776611,
				"z": -0.5473107171,
				"element": "H" 
			},
			{
				"x": 2.1255866121,
				"y": 1.026150418,
				"z": 1.1176199046,
				"element": "H" 
			},
			{
				"x": 1.712938853,
				"y": -0.9704094168,
				"z": -1.1482032082,
				"element": "H" 
			},
			{
				"x": 3.2061011554,
				"y": -0.5759319367,
				"z": -0.281680736,
				"element": "H" 
			},
			{
				"x": 2.2034255879,
				"y": -1.5511103781,
				"z": 1.8168929705,
				"element": "H" 
			},
			{
				"x": 2.2342835313,
				"y": -2.7544003285,
				"z": 0.5096552182,
				"element": "H" 
			},
			{
				"x": -0.4632235784,
				"y": 2.4833955159,
				"z": 0.9324837597,
				"element": "H" 
			},
			{
				"x": -2.7477501762,
				"y": 2.089687411,
				"z": 1.7453490513,
				"element": "H" 
			},
			{
				"x": -3.5468443611,
				"y": -0.2479477006,
				"z": 2.1209077259,
				"element": "H" 
			},
			{
				"x": -1.9859979137,
				"y": -2.1560434655,
				"z": 1.7129619931,
				"element": "H" 
			}
		],
		 "valence_orbital": [ 
			{
				"type": "occ",
				"energy": -0.316,
				"method": "rhf"
			},
			{
				"type": "occ",
				"energy": -0.29963,
				"method": "rhf"
			},
			{
				"type": "occ",
				"energy": -0.28204,
				"method": "rhf"
			},
			{
				"type": "occ",
				"energy": -0.24182,
				"method": "rhf"
			},
			{
				"type": "occ",
				"energy": -0.21319,
				"method": "rhf"
			},
			{
				"type": "unocc",
				"energy": -0.00492,
				"method": "rhf"
			},
			{
				"type": "unocc",
				"energy": 0.00723,
				"method": "rhf"
			},
			{
				"type": "unocc",
				"energy": 0.01405,
				"method": "rhf"
			},
			{
				"type": "unocc",
				"energy": 0.0749,
				"method": "rhf"
			},
			{
				"type": "unocc",
				"energy": 0.09214,
				"method": "rhf"
			}
		],
		"cosmo_sigma_profile": { 
			"-0.025": 0.0,
			"-0.024": 0.0,
			"-0.023": 0.0,
			"-0.022": 0.0,
			"-0.021": 0.0,
			"-0.02": 0.0,
			"-0.019": 0.0,
			"-0.018": 0.387279309636,
			"-0.017": 1.12405430796,
			"-0.016": 0.834560400109,
			"-0.015": 0.958498848264,
			"-0.014": 0.525475443421,
			"-0.013": 0.81384677822,
			"-0.012": 0.509222002599,
			"-0.011": 0.67573312725,
			"-0.01": 1.19777214202,
			"-0.009": 0.453333928262,
			"-0.008": 2.0199206324,
			"-0.007": 3.63612066528,
			"-0.006": 7.76848513452,
			"-0.005": 16.9264657856,
			"-0.004": 23.7044486763,
			"-0.003": 25.3978329941,
			"-0.002": 18.6305933259,
			"-0.001": 14.1086986256,
			"0.0": 11.8367507237,
			"0.001": 9.90910506667,
			"0.002": 9.05744795631,
			"0.003": 11.492359256,
			"0.004": 13.1669012354,
			"0.005": 11.3935413464,
			"0.006": 12.4425725084,
			"0.007": 6.10109154017,
			"0.008": 3.41683064257,
			"0.009": 4.94810064517,
			"0.01": 3.71481747867,
			"0.011": 4.74823969485,
			"0.012": 3.52405935377,
			"0.013": 0.123239414574,
			"0.014": 0.0,
			"0.015": 0.0,
			"0.016": 0.0,
			"0.017": 0.0,
			"0.018": 0.0,
			"0.019": 0.0,
			"0.02": 0.0,
			"0.021": 0.0,
			"0.022": 0.0,
			"0.023": 0.0,
			"0.024": 0.0,
			"0.025": 0.0
		}
	}
}
