{
	 "smiles": "BrC1=C2C=CC3=CC=CC4=C3C2=C(C=C1)C=C4", 
	 "Tm": 368.15, 
	 "num_atms": 26, 
	 "gaussian": { 
		 "optdone": 1, 
		 "sigma_profile": "yes", 
		 "theory": "DFT", 
		 "functional": "B3LYP", 
		 "basiset": "6-31G**", 
		 "properties": { 
			 "R2extent": 5837.2048, 
			 "electric_dipole_moment_norm": 1.9817363422, 
			 "electric_quadrupole_moment_norm": 11.7139987498, 
			 "total_energy": -3186.57665082, 
			 "HOMO_LUMO_gap": 0.1375, 
			 "cosmo_polarized_energy": -5.89, 
			 "cosmo_cavitation_energy": 31.02, 
			 "cosmo_dispersion_energy": -23.87, 
			 "cosmo_repulsion_energy": 1.75, 
			 "cosmo_total_nonelectrostatic_energy": 8.91, 
			 "SMD_solvation_energy": 3.19 
		},
		"coords": [
			{
				"x": 3.3900288801,
				"y": 2.8781981943,
				"z": 1.6009399341,
				"element": "Br" 
			},
			{
				"x": 2.5235337625,
				"y": 1.3752417034,
				"z": 0.7864318009,
				"element": "C" 
			},
			{
				"x": 1.1528732844,
				"y": 1.4189580593,
				"z": 0.4685516726,
				"element": "C" 
			},
			{
				"x": 0.3048372438,
				"y": 2.5524603562,
				"z": 0.7152958546,
				"element": "C" 
			},
			{
				"x": -1.0154635272,
				"y": 2.534476715,
				"z": 0.3849931348,
				"element": "C" 
			},
			{
				"x": -1.6240686137,
				"y": 1.3860773735,
				"z": -0.2241386193,
				"element": "C" 
			},
			{
				"x": -2.9845060166,
				"y": 1.3520837936,
				"z": -0.5706917096,
				"element": "C" 
			},
			{
				"x": -3.5406716516,
				"y": 0.2188947864,
				"z": -1.1608835436,
				"element": "C" 
			},
			{
				"x": -2.7539367322,
				"y": -0.9025780833,
				"z": -1.4177265427,
				"element": "C" 
			},
			{
				"x": -1.3887355702,
				"y": -0.9150514776,
				"z": -1.0886397305,
				"element": "C" 
			},
			{
				"x": -0.8091306573,
				"y": 0.2428057246,
				"z": -0.4828523951,
				"element": "C" 
			},
			{
				"x": 0.5772836177,
				"y": 0.2544282974,
				"z": -0.138965377,
				"element": "C" 
			},
			{
				"x": 1.3793352938,
				"y": -0.8976904219,
				"z": -0.4044157187,
				"element": "C" 
			},
			{
				"x": 2.7392385156,
				"y": -0.8718503258,
				"z": -0.0613412375,
				"element": "C" 
			},
			{
				"x": 3.3066598102,
				"y": 0.2526819115,
				"z": 0.5281542625,
				"element": "C" 
			},
			{
				"x": 0.7688849983,
				"y": -2.0465539414,
				"z": -1.0141226205,
				"element": "C" 
			},
			{
				"x": -0.5521763618,
				"y": -2.0556596699,
				"z": -1.3409861849,
				"element": "C" 
			},
			{
				"x": 0.7422014904,
				"y": 3.4311473039,
				"z": 1.1744905485,
				"element": "H" 
			},
			{
				"x": -1.6365872502,
				"y": 3.404425373,
				"z": 0.5816193323,
				"element": "H" 
			},
			{
				"x": -3.6021423255,
				"y": 2.2239849076,
				"z": -0.3724722869,
				"element": "H" 
			},
			{
				"x": -4.5947157691,
				"y": 0.2092818541,
				"z": -1.4227023727,
				"element": "H" 
			},
			{
				"x": -3.1936382138,
				"y": -1.7832938558,
				"z": -1.878264992,
				"element": "H" 
			},
			{
				"x": 3.3569267879,
				"y": -1.7434069326,
				"z": -0.2594729924,
				"element": "H" 
			},
			{
				"x": 4.3584770456,
				"y": 0.2629028562,
				"z": 0.7896077867,
				"element": "H" 
			},
			{
				"x": 1.391163487,
				"y": -2.9157141197,
				"z": -1.2101373206,
				"element": "H" 
			},
			{
				"x": -0.9996715278,
				"y": -2.932350382,
				"z": -1.8017706831,
				"element": "H" 
			}
		],
		 "valence_orbital": [ 
			{
				"type": "occ",
				"energy": -0.28584,
				"method": "rhf"
			},
			{
				"type": "occ",
				"energy": -0.26774,
				"method": "rhf"
			},
			{
				"type": "occ",
				"energy": -0.25855,
				"method": "rhf"
			},
			{
				"type": "occ",
				"energy": -0.23625,
				"method": "rhf"
			},
			{
				"type": "occ",
				"energy": -0.20136,
				"method": "rhf"
			},
			{
				"type": "unocc",
				"energy": -0.06386,
				"method": "rhf"
			},
			{
				"type": "unocc",
				"energy": -0.03237,
				"method": "rhf"
			},
			{
				"type": "unocc",
				"energy": -0.00895,
				"method": "rhf"
			},
			{
				"type": "unocc",
				"energy": 0.00968,
				"method": "rhf"
			},
			{
				"type": "unocc",
				"energy": 0.01313,
				"method": "rhf"
			}
		],
		"cosmo_sigma_profile": { 
			"-0.025": 0.0,
			"-0.024": 0.0,
			"-0.023": 0.0,
			"-0.022": 0.0,
			"-0.021": 0.0,
			"-0.02": 0.0,
			"-0.019": 0.0,
			"-0.018": 0.0,
			"-0.017": 0.0,
			"-0.016": 0.0,
			"-0.015": 0.0,
			"-0.014": 0.0,
			"-0.013": 0.0,
			"-0.012": 0.0,
			"-0.011": 0.0,
			"-0.01": 0.0,
			"-0.009": 0.0,
			"-0.008": 0.00547379321229,
			"-0.007": 5.26521731758,
			"-0.006": 18.758787343,
			"-0.005": 16.9398205301,
			"-0.004": 17.7074539836,
			"-0.003": 14.3356536177,
			"-0.002": 13.598158546,
			"-0.001": 13.273727884,
			"0.0": 13.2989252373,
			"0.001": 19.8061647708,
			"0.002": 40.1213438967,
			"0.003": 44.4856852174,
			"0.004": 28.3229136004,
			"0.005": 7.98324785915,
			"0.006": 0.0,
			"0.007": 0.0,
			"0.008": 0.0,
			"0.009": 0.0,
			"0.01": 0.0,
			"0.011": 0.0,
			"0.012": 0.0,
			"0.013": 0.0,
			"0.014": 0.0,
			"0.015": 0.0,
			"0.016": 0.0,
			"0.017": 0.0,
			"0.018": 0.0,
			"0.019": 0.0,
			"0.02": 0.0,
			"0.021": 0.0,
			"0.022": 0.0,
			"0.023": 0.0,
			"0.024": 0.0,
			"0.025": 0.0
		}
	}
}
