{
	 "smiles": "CC1=C(C=C(Br)C=C1C(O)=O)S(Cl)(=O)=O", 
	 "Tm": 413.15, 
	 "num_atms": 21, 
	 "gaussian": { 
		 "optdone": 1, 
		 "sigma_profile": "yes", 
		 "theory": "DFT", 
		 "functional": "B3LYP", 
		 "basiset": "6-31G**", 
		 "properties": { 
			 "R2extent": 7675.1469, 
			 "electric_dipole_moment_norm": 3.74592313055, 
			 "electric_quadrupole_moment_norm": 22.506456471, 
			 "total_energy": -4039.07870342, 
			 "HOMO_LUMO_gap": 0.17378, 
			 "cosmo_polarized_energy": -16.61, 
			 "cosmo_cavitation_energy": 31.11, 
			 "cosmo_dispersion_energy": -23.48, 
			 "cosmo_repulsion_energy": 1.8, 
			 "cosmo_total_nonelectrostatic_energy": 9.42, 
			 "SMD_solvation_energy": 4.1 
		},
		"coords": [
			{
				"x": -0.3773388822,
				"y": 0.1277265407,
				"z": -1.2865019384,
				"element": "C" 
			},
			{
				"x": -0.678308865,
				"y": 0.6821392275,
				"z": 0.0852699458,
				"element": "C" 
			},
			{
				"x": -1.6935937369,
				"y": 0.1561828722,
				"z": 0.9102274224,
				"element": "C" 
			},
			{
				"x": -1.9959160754,
				"y": 0.6383312644,
				"z": 2.1850923922,
				"element": "C" 
			},
			{
				"x": -1.2695780142,
				"y": 1.7167177712,
				"z": 2.6745687623,
				"element": "C" 
			},
			{
				"x": -1.6386897867,
				"y": 2.3999721621,
				"z": 4.4095734536,
				"element": "Br" 
			},
			{
				"x": -0.2763889915,
				"y": 2.2967497958,
				"z": 1.894404297,
				"element": "C" 
			},
			{
				"x": 0.0204718862,
				"y": 1.7900459841,
				"z": 0.6202200659,
				"element": "C" 
			},
			{
				"x": 1.1600518475,
				"y": 2.4506345013,
				"z": -0.1220178709,
				"element": "C" 
			},
			{
				"x": 1.1622608191,
				"y": 3.808074444,
				"z": -0.0855748557,
				"element": "O" 
			},
			{
				"x": 2.0483434974,
				"y": 1.8572864599,
				"z": -0.6809410983,
				"element": "O" 
			},
			{
				"x": -2.7595047558,
				"y": -1.2018035839,
				"z": 0.3720843009,
				"element": "S" 
			},
			{
				"x": -1.4386840176,
				"y": -2.8643403415,
				"z": 0.5217410437,
				"element": "Cl" 
			},
			{
				"x": -3.7875861406,
				"y": -1.412991224,
				"z": 1.3827740209,
				"element": "O" 
			},
			{
				"x": -3.0965014203,
				"y": -1.0561950167,
				"z": -1.0374646908,
				"element": "O" 
			},
			{
				"x": -0.2448326614,
				"y": -0.9565712574,
				"z": -1.2468387225,
				"element": "H" 
			},
			{
				"x": -1.2135326148,
				"y": 0.3174745053,
				"z": -1.9647947936,
				"element": "H" 
			},
			{
				"x": 0.5325543163,
				"y": 0.5618815119,
				"z": -1.6907290437,
				"element": "H" 
			},
			{
				"x": -2.7817058903,
				"y": 0.1771917004,
				"z": 2.7695251825,
				"element": "H" 
			},
			{
				"x": 0.2949730459,
				"y": 3.1286049514,
				"z": 2.2926396946,
				"element": "H" 
			},
			{
				"x": 0.3255064405,
				"y": 4.1395877313,
				"z": 0.270742432,
				"element": "H" 
			}
		],
		 "valence_orbital": [ 
			{
				"type": "occ",
				"energy": -0.32665,
				"method": "rhf"
			},
			{
				"type": "occ",
				"energy": -0.32046,
				"method": "rhf"
			},
			{
				"type": "occ",
				"energy": -0.31366,
				"method": "rhf"
			},
			{
				"type": "occ",
				"energy": -0.29731,
				"method": "rhf"
			},
			{
				"type": "occ",
				"energy": -0.2786,
				"method": "rhf"
			},
			{
				"type": "unocc",
				"energy": -0.10482,
				"method": "rhf"
			},
			{
				"type": "unocc",
				"energy": -0.07878,
				"method": "rhf"
			},
			{
				"type": "unocc",
				"energy": -0.06801,
				"method": "rhf"
			},
			{
				"type": "unocc",
				"energy": -0.02751,
				"method": "rhf"
			},
			{
				"type": "unocc",
				"energy": 0.0012,
				"method": "rhf"
			}
		],
		"cosmo_sigma_profile": { 
			"-0.025": 0.0,
			"-0.024": 0.0,
			"-0.023": 0.0,
			"-0.022": 0.0,
			"-0.021": 0.0,
			"-0.02": 0.0930098574408,
			"-0.019": 0.834604676692,
			"-0.018": 1.17619938529,
			"-0.017": 1.06882587576,
			"-0.016": 0.696817627316,
			"-0.015": 1.38270516703,
			"-0.014": 1.35889634414,
			"-0.013": 1.07299916441,
			"-0.012": 1.28367991618,
			"-0.011": 1.23351512173,
			"-0.01": 1.57494007658,
			"-0.009": 2.79923928739,
			"-0.008": 3.39965669181,
			"-0.007": 5.36490690485,
			"-0.006": 7.1337477417,
			"-0.005": 10.1240722292,
			"-0.004": 15.2388246668,
			"-0.003": 20.5007165413,
			"-0.002": 28.4504428787,
			"-0.001": 21.3147884811,
			"0.0": 13.3294903617,
			"0.001": 15.8947537244,
			"0.002": 18.8930661136,
			"0.003": 24.3288399648,
			"0.004": 8.92082635563,
			"0.005": 5.18044189268,
			"0.006": 6.30794467954,
			"0.007": 8.94771811386,
			"0.008": 11.6365648104,
			"0.009": 5.83121385334,
			"0.01": 5.47262887242,
			"0.011": 3.98134669869,
			"0.012": 1.08244805857,
			"0.013": 0.0,
			"0.014": 0.0,
			"0.015": 0.0,
			"0.016": 0.0,
			"0.017": 0.0,
			"0.018": 0.0,
			"0.019": 0.0,
			"0.02": 0.0,
			"0.021": 0.0,
			"0.022": 0.0,
			"0.023": 0.0,
			"0.024": 0.0,
			"0.025": 0.0
		}
	}
}
