{
	 "smiles": "CN(C)C1CCN(CC1)C1=C(F)C=C(N)C=C1", 
	 "Tm": 398.15, 
	 "num_atms": 37, 
	 "gaussian": { 
		 "optdone": 1, 
		 "sigma_profile": "yes", 
		 "theory": "DFT", 
		 "functional": "B3LYP", 
		 "basiset": "6-31G**", 
		 "properties": { 
			 "R2extent": 5485.9231, 
			 "electric_dipole_moment_norm": 2.44087040623, 
			 "electric_quadrupole_moment_norm": 14.9782419259, 
			 "total_energy": -771.510843743, 
			 "HOMO_LUMO_gap": 0.17932, 
			 "cosmo_polarized_energy": -10.77, 
			 "cosmo_cavitation_energy": 36.84, 
			 "cosmo_dispersion_energy": -26.37, 
			 "cosmo_repulsion_energy": 2.02, 
			 "cosmo_total_nonelectrostatic_energy": 12.49, 
			 "SMD_solvation_energy": 2.97 
		},
		"coords": [
			{
				"x": 2.1236897739,
				"y": -1.4763379901,
				"z": -2.1274126952,
				"element": "C" 
			},
			{
				"x": 1.8895501677,
				"y": -0.129110959,
				"z": -2.6300107485,
				"element": "N" 
			},
			{
				"x": 3.132314351,
				"y": 0.4984661685,
				"z": -3.0544279415,
				"element": "C" 
			},
			{
				"x": 1.0561906654,
				"y": 0.7365541003,
				"z": -1.7806961609,
				"element": "C" 
			},
			{
				"x": -0.4093876715,
				"y": 0.2733333715,
				"z": -1.7455196072,
				"element": "C" 
			},
			{
				"x": -1.2773922917,
				"y": 1.2737582376,
				"z": -0.9610101175,
				"element": "C" 
			},
			{
				"x": -0.7911436088,
				"y": 1.4896400524,
				"z": 0.4089364522,
				"element": "N" 
			},
			{
				"x": 0.6052826506,
				"y": 1.9149634703,
				"z": 0.4202499693,
				"element": "C" 
			},
			{
				"x": 1.5583154022,
				"y": 0.9647235913,
				"z": -0.3353954576,
				"element": "C" 
			},
			{
				"x": -1.2616197924,
				"y": 0.646931968,
				"z": 1.4390150836,
				"element": "C" 
			},
			{
				"x": -2.6422665972,
				"y": 0.5241691429,
				"z": 1.6896051786,
				"element": "C" 
			},
			{
				"x": -3.5165963602,
				"y": 1.1950245192,
				"z": 0.8962890223,
				"element": "F" 
			},
			{
				"x": -3.1762979902,
				"y": -0.2476008926,
				"z": 2.7068719871,
				"element": "C" 
			},
			{
				"x": -2.3272678063,
				"y": -0.9319877325,
				"z": 3.5909013136,
				"element": "C" 
			},
			{
				"x": -2.8506903495,
				"y": -1.6544841878,
				"z": 4.6725939913,
				"element": "N" 
			},
			{
				"x": -0.9462103699,
				"y": -0.8102558665,
				"z": 3.391469227,
				"element": "C" 
			},
			{
				"x": -0.4358587817,
				"y": -0.0516533884,
				"z": 2.337732764,
				"element": "C" 
			},
			{
				"x": 2.7980210525,
				"y": -1.5234111247,
				"z": -1.2518632353,
				"element": "H" 
			},
			{
				"x": 1.1801787503,
				"y": -1.9543018064,
				"z": -1.8525418903,
				"element": "H" 
			},
			{
				"x": 2.5782791191,
				"y": -2.079261652,
				"z": -2.9214266546,
				"element": "H" 
			},
			{
				"x": 3.8733573872,
				"y": 0.639497773,
				"z": -2.2444808804,
				"element": "H" 
			},
			{
				"x": 3.6069960081,
				"y": -0.1195387307,
				"z": -3.8248631758,
				"element": "H" 
			},
			{
				"x": 2.9232428454,
				"y": 1.4793967987,
				"z": -3.4940627278,
				"element": "H" 
			},
			{
				"x": 1.0609268472,
				"y": 1.7169916916,
				"z": -2.2815841474,
				"element": "H" 
			},
			{
				"x": -0.7815079565,
				"y": 0.1692870027,
				"z": -2.7712282329,
				"element": "H" 
			},
			{
				"x": -0.4926084139,
				"y": -0.7101149235,
				"z": -1.2663103713,
				"element": "H" 
			},
			{
				"x": -1.2653690384,
				"y": 2.2457311009,
				"z": -1.4755208767,
				"element": "H" 
			},
			{
				"x": -2.3149570636,
				"y": 0.9458511271,
				"z": -0.9279514528,
				"element": "H" 
			},
			{
				"x": 0.9261401802,
				"y": 2.0616401676,
				"z": 1.4552172021,
				"element": "H" 
			},
			{
				"x": 0.6469191418,
				"y": 2.9026702357,
				"z": -0.0634697835,
				"element": "H" 
			},
			{
				"x": 2.5682060594,
				"y": 1.3932789149,
				"z": -0.3388988689,
				"element": "H" 
			},
			{
				"x": 1.6169498218,
				"y": 0.0032588937,
				"z": 0.1880033102,
				"element": "H" 
			},
			{
				"x": -4.2557553643,
				"y": -0.2772657511,
				"z": 2.8192010022,
				"element": "H" 
			},
			{
				"x": -3.7865099557,
				"y": -2.0085188076,
				"z": 4.5250116627,
				"element": "H" 
			},
			{
				"x": -2.2393341705,
				"y": -2.3820918636,
				"z": 5.0188545389,
				"element": "H" 
			},
			{
				"x": -0.2587269498,
				"y": -1.320905341,
				"z": 4.0609580253,
				"element": "H" 
			},
			{
				"x": 0.6400403082,
				"y": -0.0066273105,
				"z": 2.2147642955,
				"element": "H" 
			}
		],
		 "valence_orbital": [ 
			{
				"type": "occ",
				"energy": -0.30219,
				"method": "rhf"
			},
			{
				"type": "occ",
				"energy": -0.23744,
				"method": "rhf"
			},
			{
				"type": "occ",
				"energy": -0.23686,
				"method": "rhf"
			},
			{
				"type": "occ",
				"energy": -0.20084,
				"method": "rhf"
			},
			{
				"type": "occ",
				"energy": -0.17182,
				"method": "rhf"
			},
			{
				"type": "unocc",
				"energy": 0.0075,
				"method": "rhf"
			},
			{
				"type": "unocc",
				"energy": 0.02746,
				"method": "rhf"
			},
			{
				"type": "unocc",
				"energy": 0.0827,
				"method": "rhf"
			},
			{
				"type": "unocc",
				"energy": 0.08524,
				"method": "rhf"
			},
			{
				"type": "unocc",
				"energy": 0.09611,
				"method": "rhf"
			}
		],
		"cosmo_sigma_profile": { 
			"-0.025": 0.0,
			"-0.024": 0.0,
			"-0.023": 0.0,
			"-0.022": 0.0,
			"-0.021": 0.0,
			"-0.02": 0.0,
			"-0.019": 0.0,
			"-0.018": 0.0,
			"-0.017": 0.0,
			"-0.016": 0.0,
			"-0.015": 0.0,
			"-0.014": 0.0,
			"-0.013": 0.0412356399774,
			"-0.012": 1.84328082815,
			"-0.011": 2.9080656571,
			"-0.01": 2.74452264388,
			"-0.009": 3.34822108243,
			"-0.008": 3.49333366734,
			"-0.007": 3.04394725433,
			"-0.006": 5.12341466211,
			"-0.005": 6.94515713041,
			"-0.004": 13.0977201346,
			"-0.003": 33.2143140259,
			"-0.002": 35.9221733347,
			"-0.001": 39.5379990062,
			"0.0": 32.4436187277,
			"0.001": 19.4185504722,
			"0.002": 11.1276091963,
			"0.003": 11.1346119307,
			"0.004": 13.3373434225,
			"0.005": 15.6768103315,
			"0.006": 11.6085542996,
			"0.007": 6.00551511433,
			"0.008": 3.01251545924,
			"0.009": 2.24620095071,
			"0.01": 2.81658006394,
			"0.011": 1.67680735227,
			"0.012": 1.66293238913,
			"0.013": 1.11646287145,
			"0.014": 1.1571567441,
			"0.015": 0.921891931512,
			"0.016": 0.469068330701,
			"0.017": 0.0556646839458,
			"0.018": 0.0,
			"0.019": 0.0,
			"0.02": 0.0,
			"0.021": 0.0,
			"0.022": 0.0,
			"0.023": 0.0,
			"0.024": 0.0,
			"0.025": 0.0
		}
	}
}
