{
	 "smiles": "COC(=O)CC1=CC=C(OC2=CC(=NC=C2)C#N)C=C1", 
	 "Tm": 394.15, 
	 "num_atms": 32, 
	 "gaussian": { 
		 "optdone": 1, 
		 "sigma_profile": "yes", 
		 "theory": "DFT", 
		 "functional": "B3LYP", 
		 "basiset": "6-31G**", 
		 "properties": { 
			 "R2extent": 8233.4341, 
			 "electric_dipole_moment_norm": 5.68672678524, 
			 "electric_quadrupole_moment_norm": 33.5898617543, 
			 "total_energy": -913.978002245, 
			 "HOMO_LUMO_gap": 0.1975, 
			 "cosmo_polarized_energy": -16.51, 
			 "cosmo_cavitation_energy": 39.46, 
			 "cosmo_dispersion_energy": -26.91, 
			 "cosmo_repulsion_energy": 2.1, 
			 "cosmo_total_nonelectrostatic_energy": 14.65, 
			 "SMD_solvation_energy": 8.37 
		},
		"coords": [
			{
				"x": -1.6853821629,
				"y": -2.0303065634,
				"z": 4.2218944568,
				"element": "C" 
			},
			{
				"x": -1.8223814489,
				"y": -2.6470016911,
				"z": 2.927715006,
				"element": "O" 
			},
			{
				"x": -2.4393145614,
				"y": -1.8965270834,
				"z": 1.9946599515,
				"element": "C" 
			},
			{
				"x": -2.8680961128,
				"y": -0.7808487825,
				"z": 2.2006148367,
				"element": "O" 
			},
			{
				"x": -2.5237386334,
				"y": -2.6230649549,
				"z": 0.6594798454,
				"element": "C" 
			},
			{
				"x": -1.6993308271,
				"y": -1.943561483,
				"z": -0.4215325468,
				"element": "C" 
			},
			{
				"x": -0.6971867381,
				"y": -2.6506909227,
				"z": -1.0957069817,
				"element": "C" 
			},
			{
				"x": 0.058689952,
				"y": -2.0447109828,
				"z": -2.1007733986,
				"element": "C" 
			},
			{
				"x": -0.1926301717,
				"y": -0.7148457414,
				"z": -2.4256343604,
				"element": "C" 
			},
			{
				"x": 0.5091009789,
				"y": -0.1199190135,
				"z": -3.4770979734,
				"element": "O" 
			},
			{
				"x": 1.6849567512,
				"y": 0.5180942372,
				"z": -3.2270936866,
				"element": "C" 
			},
			{
				"x": 2.266036583,
				"y": 0.6399991532,
				"z": -1.9619206629,
				"element": "C" 
			},
			{
				"x": 3.4832807232,
				"y": 1.3281225147,
				"z": -1.8746291702,
				"element": "C" 
			},
			{
				"x": 4.1312393511,
				"y": 1.8787213861,
				"z": -2.9126632817,
				"element": "N" 
			},
			{
				"x": 3.5468847736,
				"y": 1.7450927618,
				"z": -4.1094782948,
				"element": "C" 
			},
			{
				"x": 2.3412029539,
				"y": 1.0845786067,
				"z": -4.3258021147,
				"element": "C" 
			},
			{
				"x": 4.1067563967,
				"y": 1.4657442272,
				"z": -0.5775786773,
				"element": "C" 
			},
			{
				"x": 4.5824160234,
				"y": 1.557632771,
				"z": 0.4786302972,
				"element": "N" 
			},
			{
				"x": -1.1845574865,
				"y": 0.0122451019,
				"z": -1.7694773166,
				"element": "C" 
			},
			{
				"x": -1.9350681243,
				"y": -0.6056505961,
				"z": -0.7709142151,
				"element": "C" 
			},
			{
				"x": -2.6668597756,
				"y": -1.7879289051,
				"z": 4.6362604756,
				"element": "H" 
			},
			{
				"x": -1.0963284503,
				"y": -1.1132102148,
				"z": 4.1475577337,
				"element": "H" 
			},
			{
				"x": -1.1756485469,
				"y": -2.7651696018,
				"z": 4.8441975911,
				"element": "H" 
			},
			{
				"x": -3.5822432634,
				"y": -2.6233417987,
				"z": 0.3732454074,
				"element": "H" 
			},
			{
				"x": -2.2074856523,
				"y": -3.6598576504,
				"z": 0.7862299497,
				"element": "H" 
			},
			{
				"x": -0.5040301405,
				"y": -3.688319784,
				"z": -0.8379288686,
				"element": "H" 
			},
			{
				"x": 0.8297884008,
				"y": -2.5928446867,
				"z": -2.6321417535,
				"element": "H" 
			},
			{
				"x": 1.8018411136,
				"y": 0.2227736878,
				"z": -1.0776320986,
				"element": "H" 
			},
			{
				"x": 4.0749779882,
				"y": 2.1932889084,
				"z": -4.9482079094,
				"element": "H" 
			},
			{
				"x": 1.9072709558,
				"y": 1.0019819057,
				"z": -5.3159291812,
				"element": "H" 
			},
			{
				"x": -1.3656334336,
				"y": 1.0450228546,
				"z": -2.0490003759,
				"element": "H" 
			},
			{
				"x": -2.6991274156,
				"y": -0.0455976601,
				"z": -0.2423426828,
				"element": "H" 
			}
		],
		 "valence_orbital": [ 
			{
				"type": "occ",
				"energy": -0.28013,
				"method": "rhf"
			},
			{
				"type": "occ",
				"energy": -0.2798,
				"method": "rhf"
			},
			{
				"type": "occ",
				"energy": -0.27239,
				"method": "rhf"
			},
			{
				"type": "occ",
				"energy": -0.26772,
				"method": "rhf"
			},
			{
				"type": "occ",
				"energy": -0.25759,
				"method": "rhf"
			},
			{
				"type": "unocc",
				"energy": -0.06009,
				"method": "rhf"
			},
			{
				"type": "unocc",
				"energy": -0.02963,
				"method": "rhf"
			},
			{
				"type": "unocc",
				"energy": -0.0262,
				"method": "rhf"
			},
			{
				"type": "unocc",
				"energy": -0.02253,
				"method": "rhf"
			},
			{
				"type": "unocc",
				"energy": 0.00545,
				"method": "rhf"
			}
		],
		"cosmo_sigma_profile": { 
			"-0.025": 0.0,
			"-0.024": 0.0,
			"-0.023": 0.0,
			"-0.022": 0.0,
			"-0.021": 0.0,
			"-0.02": 0.0,
			"-0.019": 0.0,
			"-0.018": 0.0,
			"-0.017": 0.0,
			"-0.016": 0.0,
			"-0.015": 0.0,
			"-0.014": 0.0,
			"-0.013": 0.0,
			"-0.012": 0.0,
			"-0.011": 0.0,
			"-0.01": 0.004575419887,
			"-0.009": 0.885475361298,
			"-0.008": 4.9573670776,
			"-0.007": 13.2066720066,
			"-0.006": 22.5369256825,
			"-0.005": 23.6491219857,
			"-0.004": 24.3285155201,
			"-0.003": 29.078857352,
			"-0.002": 25.5680618959,
			"-0.001": 23.848857119,
			"0.0": 23.2247294755,
			"0.001": 18.0810812545,
			"0.002": 18.5852460435,
			"0.003": 18.2737478978,
			"0.004": 12.5413875729,
			"0.005": 8.43641596419,
			"0.006": 8.53974523822,
			"0.007": 8.22259409507,
			"0.008": 7.49460798417,
			"0.009": 6.54782189465,
			"0.01": 5.25348407665,
			"0.011": 6.20464195593,
			"0.012": 5.85339332767,
			"0.013": 1.41739568888,
			"0.014": 0.689600977864,
			"0.015": 0.0702739107716,
			"0.016": 0.0,
			"0.017": 0.0,
			"0.018": 0.0,
			"0.019": 0.0,
			"0.02": 0.0,
			"0.021": 0.0,
			"0.022": 0.0,
			"0.023": 0.0,
			"0.024": 0.0,
			"0.025": 0.0
		}
	}
}
