{
	 "smiles": "CCCCCCCCCCCCC=O", 
	 "Tm": 287.65, 
	 "num_atms": 40, 
	 "gaussian": { 
		 "optdone": 1, 
		 "sigma_profile": "yes", 
		 "theory": "DFT", 
		 "functional": "B3LYP", 
		 "basiset": "6-31G**", 
		 "properties": { 
			 "R2extent": 7404.6572, 
			 "electric_dipole_moment_norm": 2.66217305598, 
			 "electric_quadrupole_moment_norm": 23.1053909244, 
			 "total_energy": -586.297343425, 
			 "HOMO_LUMO_gap": 0.2324, 
			 "cosmo_polarized_energy": -6.43, 
			 "cosmo_cavitation_energy": 40.09, 
			 "cosmo_dispersion_energy": -27.33, 
			 "cosmo_repulsion_energy": 2.24, 
			 "cosmo_total_nonelectrostatic_energy": 14.99, 
			 "SMD_solvation_energy": 6.48 
		},
		"coords": [
			{
				"x": -2.4342771132,
				"y": 5.0367387665,
				"z": -0.4742134811,
				"element": "C" 
			},
			{
				"x": -2.8263309213,
				"y": 3.6127266267,
				"z": -0.8810439796,
				"element": "C" 
			},
			{
				"x": -1.8326281706,
				"y": 2.5482716539,
				"z": -0.3975634452,
				"element": "C" 
			},
			{
				"x": -2.2250781869,
				"y": 1.1217098081,
				"z": -0.8071690493,
				"element": "C" 
			},
			{
				"x": -1.2951136692,
				"y": 0.018010548,
				"z": -0.2755842576,
				"element": "C" 
			},
			{
				"x": 0.1302301087,
				"y": 0.0579065369,
				"z": -0.847882159,
				"element": "C" 
			},
			{
				"x": 1.006455624,
				"y": -1.1453791277,
				"z": -0.4553622129,
				"element": "C" 
			},
			{
				"x": 1.2853957346,
				"y": -1.3087699401,
				"z": 1.0506061328,
				"element": "C" 
			},
			{
				"x": 2.002012288,
				"y": -0.1293246827,
				"z": 1.7335350831,
				"element": "C" 
			},
			{
				"x": 3.3956184729,
				"y": 0.2667451819,
				"z": 1.2062396669,
				"element": "C" 
			},
			{
				"x": 4.533259016,
				"y": -0.7492597324,
				"z": 1.4381499101,
				"element": "C" 
			},
			{
				"x": 4.6830074763,
				"y": -1.8299166674,
				"z": 0.3635038257,
				"element": "C" 
			},
			{
				"x": 5.8720045305,
				"y": -2.7406729466,
				"z": 0.5668284346,
				"element": "C" 
			},
			{
				"x": 6.6580165581,
				"y": -2.6605081143,
				"z": 1.4856748971,
				"element": "O" 
			},
			{
				"x": -1.4558434523,
				"y": 5.3112839554,
				"z": -0.8850363411,
				"element": "H" 
			},
			{
				"x": -2.372547203,
				"y": 5.1348093306,
				"z": 0.6157452843,
				"element": "H" 
			},
			{
				"x": -3.1626963436,
				"y": 5.7714639512,
				"z": -0.8328202901,
				"element": "H" 
			},
			{
				"x": -2.91307347,
				"y": 3.5552871208,
				"z": -1.9747705694,
				"element": "H" 
			},
			{
				"x": -3.8249758247,
				"y": 3.3804977538,
				"z": -0.4863607389,
				"element": "H" 
			},
			{
				"x": -1.7513425829,
				"y": 2.6005455296,
				"z": 0.6982172982,
				"element": "H" 
			},
			{
				"x": -0.8349396901,
				"y": 2.7903358213,
				"z": -0.7874517103,
				"element": "H" 
			},
			{
				"x": -2.2698700486,
				"y": 1.0594858865,
				"z": -1.904188756,
				"element": "H" 
			},
			{
				"x": -3.2455087637,
				"y": 0.9228456616,
				"z": -0.4520710635,
				"element": "H" 
			},
			{
				"x": -1.7392726619,
				"y": -0.9595560741,
				"z": -0.5097923688,
				"element": "H" 
			},
			{
				"x": -1.261285245,
				"y": 0.0794379429,
				"z": 0.8206009758,
				"element": "H" 
			},
			{
				"x": 0.0664010121,
				"y": 0.0932600192,
				"z": -1.9443948931,
				"element": "H" 
			},
			{
				"x": 0.6273780319,
				"y": 0.9888685039,
				"z": -0.5487070146,
				"element": "H" 
			},
			{
				"x": 1.9578599086,
				"y": -1.075324823,
				"z": -0.9982569372,
				"element": "H" 
			},
			{
				"x": 0.5243236728,
				"y": -2.0640790573,
				"z": -0.8172215257,
				"element": "H" 
			},
			{
				"x": 0.3366565562,
				"y": -1.4771638553,
				"z": 1.575783328,
				"element": "H" 
			},
			{
				"x": 1.8625695638,
				"y": -2.2296144435,
				"z": 1.2028545192,
				"element": "H" 
			},
			{
				"x": 2.0934602031,
				"y": -0.3578125864,
				"z": 2.8041630393,
				"element": "H" 
			},
			{
				"x": 1.3559801564,
				"y": 0.7564190136,
				"z": 1.6770708247,
				"element": "H" 
			},
			{
				"x": 3.3403312044,
				"y": 0.5229452537,
				"z": 0.1393326318,
				"element": "H" 
			},
			{
				"x": 3.6728585192,
				"y": 1.1985591807,
				"z": 1.7145688848,
				"element": "H" 
			},
			{
				"x": 5.4871017094,
				"y": -0.2134023193,
				"z": 1.4965774225,
				"element": "H" 
			},
			{
				"x": 4.4119033029,
				"y": -1.2289391114,
				"z": 2.4172060714,
				"element": "H" 
			},
			{
				"x": 3.7969001226,
				"y": -2.4748795915,
				"z": 0.2837351967,
				"element": "H" 
			},
			{
				"x": 4.7906133002,
				"y": -1.3827948964,
				"z": -0.6377008105,
				"element": "H" 
			},
			{
				"x": 5.9920462743,
				"y": -3.5279560775,
				"z": -0.2136018229,
				"element": "H" 
			}
		],
		 "valence_orbital": [ 
			{
				"type": "occ",
				"energy": -0.3143,
				"method": "rhf"
			},
			{
				"type": "occ",
				"energy": -0.30834,
				"method": "rhf"
			},
			{
				"type": "occ",
				"energy": -0.30324,
				"method": "rhf"
			},
			{
				"type": "occ",
				"energy": -0.30189,
				"method": "rhf"
			},
			{
				"type": "occ",
				"energy": -0.25054,
				"method": "rhf"
			},
			{
				"type": "unocc",
				"energy": -0.01814,
				"method": "rhf"
			},
			{
				"type": "unocc",
				"energy": 0.06933,
				"method": "rhf"
			},
			{
				"type": "unocc",
				"energy": 0.08845,
				"method": "rhf"
			},
			{
				"type": "unocc",
				"energy": 0.09725,
				"method": "rhf"
			},
			{
				"type": "unocc",
				"energy": 0.10034,
				"method": "rhf"
			}
		],
		"cosmo_sigma_profile": { 
			"-0.025": 0.0,
			"-0.024": 0.0,
			"-0.023": 0.0,
			"-0.022": 0.0,
			"-0.021": 0.0,
			"-0.02": 0.0,
			"-0.019": 0.0,
			"-0.018": 0.0,
			"-0.017": 0.0,
			"-0.016": 0.0,
			"-0.015": 0.0,
			"-0.014": 0.0,
			"-0.013": 0.0,
			"-0.012": 0.0,
			"-0.011": 0.0,
			"-0.01": 0.0,
			"-0.009": 0.0,
			"-0.008": 0.0,
			"-0.007": 0.0,
			"-0.006": 6.9744210156,
			"-0.005": 10.791062766,
			"-0.004": 7.66706926729,
			"-0.003": 10.7499582706,
			"-0.002": 40.6910355484,
			"-0.001": 63.6396905289,
			"0.0": 66.2350407103,
			"0.001": 53.2385579892,
			"0.002": 23.4277819138,
			"0.003": 1.55224745583,
			"0.004": 2.06759221918,
			"0.005": 2.22053574708,
			"0.006": 1.36395049181,
			"0.007": 1.32342466628,
			"0.008": 1.97798617841,
			"0.009": 1.92670145768,
			"0.01": 2.93564042196,
			"0.011": 3.78601751704,
			"0.012": 3.8764841258,
			"0.013": 1.04249565882,
			"0.014": 0.0,
			"0.015": 0.0,
			"0.016": 0.0,
			"0.017": 0.0,
			"0.018": 0.0,
			"0.019": 0.0,
			"0.02": 0.0,
			"0.021": 0.0,
			"0.022": 0.0,
			"0.023": 0.0,
			"0.024": 0.0,
			"0.025": 0.0
		}
	}
}
