{
	 "smiles": "CC(C)C1=CC(=CC=C1)C(C)C", 
	 "Tm": 210.15, 
	 "num_atms": 30, 
	 "gaussian": { 
		 "optdone": 1, 
		 "sigma_profile": "yes", 
		 "theory": "DFT", 
		 "functional": "B3LYP", 
		 "basiset": "6-31G**", 
		 "properties": { 
			 "R2extent": 2977.2597, 
			 "electric_dipole_moment_norm": 0.252702117126, 
			 "electric_quadrupole_moment_norm": 3.96736930976, 
			 "total_energy": -468.154246806, 
			 "HOMO_LUMO_gap": 0.23508, 
			 "cosmo_polarized_energy": -3.3, 
			 "cosmo_cavitation_energy": 31.21, 
			 "cosmo_dispersion_energy": -21.77, 
			 "cosmo_repulsion_energy": 1.77, 
			 "cosmo_total_nonelectrostatic_energy": 11.2, 
			 "SMD_solvation_energy": 5.49 
		},
		"coords": [
			{
				"x": -3.2172830339,
				"y": 0.0038663785,
				"z": 0.6721874538,
				"element": "C" 
			},
			{
				"x": -1.7643346866,
				"y": 0.0802800088,
				"z": 1.1779225386,
				"element": "C" 
			},
			{
				"x": -1.6442120389,
				"y": -0.4946567581,
				"z": 2.6019329683,
				"element": "C" 
			},
			{
				"x": -0.7915100065,
				"y": -0.5861013346,
				"z": 0.2130172809,
				"element": "C" 
			},
			{
				"x": 0.2141227631,
				"y": 0.1625866702,
				"z": -0.411637111,
				"element": "C" 
			},
			{
				"x": 1.1301588315,
				"y": -0.4075963838,
				"z": -1.3048229254,
				"element": "C" 
			},
			{
				"x": 1.0238686778,
				"y": -1.7790411469,
				"z": -1.5734784152,
				"element": "C" 
			},
			{
				"x": 0.030147166,
				"y": -2.5439894594,
				"z": -0.9628548279,
				"element": "C" 
			},
			{
				"x": -0.8715192963,
				"y": -1.9550930808,
				"z": -0.0764628049,
				"element": "C" 
			},
			{
				"x": 2.2069217026,
				"y": 0.4491786098,
				"z": -1.9590838166,
				"element": "C" 
			},
			{
				"x": 2.0528684355,
				"y": 0.4934415021,
				"z": -3.4910898239,
				"element": "C" 
			},
			{
				"x": 3.6233689243,
				"y": -0.0053078051,
				"z": -1.5592793761,
				"element": "C" 
			},
			{
				"x": -3.5628030105,
				"y": -1.0340663134,
				"z": 0.6121175332,
				"element": "H" 
			},
			{
				"x": -3.8920691403,
				"y": 0.5395819793,
				"z": 1.3491228348,
				"element": "H" 
			},
			{
				"x": -3.3133345128,
				"y": 0.4446233567,
				"z": -0.3249736028,
				"element": "H" 
			},
			{
				"x": -1.4896093062,
				"y": 1.1422455253,
				"z": 1.2283420877,
				"element": "H" 
			},
			{
				"x": -2.3081487766,
				"y": 0.0375945136,
				"z": 3.2921976431,
				"element": "H" 
			},
			{
				"x": -0.6202494173,
				"y": -0.4088250395,
				"z": 2.9787001352,
				"element": "H" 
			},
			{
				"x": -1.9203715481,
				"y": -1.5545777253,
				"z": 2.6268637459,
				"element": "H" 
			},
			{
				"x": 0.286500963,
				"y": 1.2272008124,
				"z": -0.1948153985,
				"element": "H" 
			},
			{
				"x": 1.717892299,
				"y": -2.2546635239,
				"z": -2.2614620655,
				"element": "H" 
			},
			{
				"x": -0.0420957065,
				"y": -3.6066403621,
				"z": -1.1792959241,
				"element": "H" 
			},
			{
				"x": -1.6393911365,
				"y": -2.5664973702,
				"z": 0.3901902025,
				"element": "H" 
			},
			{
				"x": 2.0731222989,
				"y": 1.4732072151,
				"z": -1.5859196096,
				"element": "H" 
			},
			{
				"x": 2.7989749377,
				"y": 1.160822695,
				"z": -3.9366175824,
				"element": "H" 
			},
			{
				"x": 1.0594624279,
				"y": 0.8512182478,
				"z": -3.779116629,
				"element": "H" 
			},
			{
				"x": 2.1900718588,
				"y": -0.4996723535,
				"z": -3.9328985897,
				"element": "H" 
			},
			{
				"x": 3.8300966629,
				"y": -1.0204886792,
				"z": -1.9156077058,
				"element": "H" 
			},
			{
				"x": 4.3800819191,
				"y": 0.6587325573,
				"z": -1.9917180725,
				"element": "H" 
			},
			{
				"x": 3.7480717488,
				"y": -0.0026627361,
				"z": -0.4719601433,
				"element": "H" 
			}
		],
		 "valence_orbital": [ 
			{
				"type": "occ",
				"energy": -0.32598,
				"method": "rhf"
			},
			{
				"type": "occ",
				"energy": -0.31507,
				"method": "rhf"
			},
			{
				"type": "occ",
				"energy": -0.3065,
				"method": "rhf"
			},
			{
				"type": "occ",
				"energy": -0.23823,
				"method": "rhf"
			},
			{
				"type": "occ",
				"energy": -0.22949,
				"method": "rhf"
			},
			{
				"type": "unocc",
				"energy": 0.00559,
				"method": "rhf"
			},
			{
				"type": "unocc",
				"energy": 0.00855,
				"method": "rhf"
			},
			{
				"type": "unocc",
				"energy": 0.08713,
				"method": "rhf"
			},
			{
				"type": "unocc",
				"energy": 0.09891,
				"method": "rhf"
			},
			{
				"type": "unocc",
				"energy": 0.11388,
				"method": "rhf"
			}
		],
		"cosmo_sigma_profile": { 
			"-0.025": 0.0,
			"-0.024": 0.0,
			"-0.023": 0.0,
			"-0.022": 0.0,
			"-0.021": 0.0,
			"-0.02": 0.0,
			"-0.019": 0.0,
			"-0.018": 0.0,
			"-0.017": 0.0,
			"-0.016": 0.0,
			"-0.015": 0.0,
			"-0.014": 0.0,
			"-0.013": 0.0,
			"-0.012": 0.0,
			"-0.011": 0.0,
			"-0.01": 0.0,
			"-0.009": 0.0,
			"-0.008": 0.0,
			"-0.007": 0.0,
			"-0.006": 0.129745120901,
			"-0.005": 3.26650189347,
			"-0.004": 13.5819694676,
			"-0.003": 27.4854818941,
			"-0.002": 35.0391640044,
			"-0.001": 33.8616357131,
			"0.0": 34.8128512386,
			"0.001": 37.475953243,
			"0.002": 20.8505555464,
			"0.003": 8.08861675295,
			"0.004": 7.75920419737,
			"0.005": 7.14552830794,
			"0.006": 6.61005817987,
			"0.007": 6.15631654919,
			"0.008": 0.481694436139,
			"0.009": 0.0,
			"0.01": 0.0,
			"0.011": 0.0,
			"0.012": 0.0,
			"0.013": 0.0,
			"0.014": 0.0,
			"0.015": 0.0,
			"0.016": 0.0,
			"0.017": 0.0,
			"0.018": 0.0,
			"0.019": 0.0,
			"0.02": 0.0,
			"0.021": 0.0,
			"0.022": 0.0,
			"0.023": 0.0,
			"0.024": 0.0,
			"0.025": 0.0
		}
	}
}
