{
	 "smiles": "CC(C)(C)OC(=O)N1CCC2=C1C=CC=C2", 
	 "Tm": 321.15, 
	 "num_atms": 33, 
	 "gaussian": { 
		 "optdone": 1, 
		 "sigma_profile": "yes", 
		 "theory": "DFT", 
		 "functional": "B3LYP", 
		 "basiset": "6-31G**", 
		 "properties": { 
			 "R2extent": 4817.9177, 
			 "electric_dipole_moment_norm": 2.79677226281, 
			 "electric_quadrupole_moment_norm": 5.86653666059, 
			 "total_energy": -710.872934493, 
			 "HOMO_LUMO_gap": 0.20401, 
			 "cosmo_polarized_energy": -8.27, 
			 "cosmo_cavitation_energy": 34.43, 
			 "cosmo_dispersion_energy": -24.64, 
			 "cosmo_repulsion_energy": 1.91, 
			 "cosmo_total_nonelectrostatic_energy": 11.71, 
			 "SMD_solvation_energy": 6.13 
		},
		"coords": [
			{
				"x": -2.4678217076,
				"y": -0.8266439546,
				"z": -2.8232054724,
				"element": "C" 
			},
			{
				"x": -1.2098627748,
				"y": -1.1026531833,
				"z": -1.9952414138,
				"element": "C" 
			},
			{
				"x": 0.0523123417,
				"y": -0.8922386539,
				"z": -2.8385056099,
				"element": "C" 
			},
			{
				"x": -1.2666528252,
				"y": -2.5010872644,
				"z": -1.3710197648,
				"element": "C" 
			},
			{
				"x": -1.2904553411,
				"y": -0.0764712787,
				"z": -0.9428491849,
				"element": "O" 
			},
			{
				"x": -0.3348488677,
				"y": 0.0135165422,
				"z": 0.0153547056,
				"element": "C" 
			},
			{
				"x": 0.6494098395,
				"y": -0.7039871875,
				"z": 0.1150496157,
				"element": "O" 
			},
			{
				"x": -0.6405027152,
				"y": 1.0444072337,
				"z": 0.8684399445,
				"element": "N" 
			},
			{
				"x": -1.8412784515,
				"y": 1.89838556,
				"z": 0.7222705984,
				"element": "C" 
			},
			{
				"x": -1.7598484317,
				"y": 2.9070494966,
				"z": 1.8984348595,
				"element": "C" 
			},
			{
				"x": -0.4887719862,
				"y": 2.5245167367,
				"z": 2.6238835026,
				"element": "C" 
			},
			{
				"x": 0.1261451372,
				"y": 1.4368982185,
				"z": 1.9877817796,
				"element": "C" 
			},
			{
				"x": 1.3197025468,
				"y": 0.8941758892,
				"z": 2.4684774367,
				"element": "C" 
			},
			{
				"x": 1.8844517453,
				"y": 1.4731637199,
				"z": 3.6099321644,
				"element": "C" 
			},
			{
				"x": 1.2824434151,
				"y": 2.5567433221,
				"z": 4.253062294,
				"element": "C" 
			},
			{
				"x": 0.0857492514,
				"y": 3.0872398753,
				"z": 3.7562505518,
				"element": "C" 
			},
			{
				"x": -3.3664627197,
				"y": -0.9332299156,
				"z": -2.2085417992,
				"element": "H" 
			},
			{
				"x": -2.4471492818,
				"y": 0.1880112752,
				"z": -3.2315861439,
				"element": "H" 
			},
			{
				"x": -2.5318343128,
				"y": -1.5336541032,
				"z": -3.6555969207,
				"element": "H" 
			},
			{
				"x": 0.0798167378,
				"y": 0.1286740192,
				"z": -3.232622629,
				"element": "H" 
			},
			{
				"x": 0.0453213702,
				"y": -1.5834830108,
				"z": -3.6875752241,
				"element": "H" 
			},
			{
				"x": 0.9514013211,
				"y": -1.0678858555,
				"z": -2.2477351856,
				"element": "H" 
			},
			{
				"x": -0.3823029838,
				"y": -2.694890129,
				"z": -0.7639015727,
				"element": "H" 
			},
			{
				"x": -1.3244873416,
				"y": -3.2541063765,
				"z": -2.1637346503,
				"element": "H" 
			},
			{
				"x": -2.1577376403,
				"y": -2.6007383576,
				"z": -0.7430162476,
				"element": "H" 
			},
			{
				"x": -1.8274543354,
				"y": 2.391509255,
				"z": -0.2533571214,
				"element": "H" 
			},
			{
				"x": -2.7418180519,
				"y": 1.2798639639,
				"z": 0.7633066147,
				"element": "H" 
			},
			{
				"x": -1.7249329276,
				"y": 3.9400289276,
				"z": 1.5346991374,
				"element": "H" 
			},
			{
				"x": -2.6379193028,
				"y": 2.8305447102,
				"z": 2.5493637027,
				"element": "H" 
			},
			{
				"x": 1.7798791977,
				"y": 0.0554954245,
				"z": 1.9653372019,
				"element": "H" 
			},
			{
				"x": 2.8129795189,
				"y": 1.0652738138,
				"z": 3.9994786685,
				"element": "H" 
			},
			{
				"x": 1.7409630207,
				"y": 2.9883663796,
				"z": 5.137658967,
				"element": "H" 
			},
			{
				"x": -0.3894334448,
				"y": 3.9306049071,
				"z": 4.2509071953,
				"element": "H" 
			}
		],
		 "valence_orbital": [ 
			{
				"type": "occ",
				"energy": -0.29681,
				"method": "rhf"
			},
			{
				"type": "occ",
				"energy": -0.28447,
				"method": "rhf"
			},
			{
				"type": "occ",
				"energy": -0.26202,
				"method": "rhf"
			},
			{
				"type": "occ",
				"energy": -0.23997,
				"method": "rhf"
			},
			{
				"type": "occ",
				"energy": -0.20281,
				"method": "rhf"
			},
			{
				"type": "unocc",
				"energy": 0.0012,
				"method": "rhf"
			},
			{
				"type": "unocc",
				"energy": 0.00711,
				"method": "rhf"
			},
			{
				"type": "unocc",
				"energy": 0.06642,
				"method": "rhf"
			},
			{
				"type": "unocc",
				"energy": 0.08205,
				"method": "rhf"
			},
			{
				"type": "unocc",
				"energy": 0.09715,
				"method": "rhf"
			}
		],
		"cosmo_sigma_profile": { 
			"-0.025": 0.0,
			"-0.024": 0.0,
			"-0.023": 0.0,
			"-0.022": 0.0,
			"-0.021": 0.0,
			"-0.02": 0.0,
			"-0.019": 0.0,
			"-0.018": 0.0,
			"-0.017": 0.0,
			"-0.016": 0.0,
			"-0.015": 0.0,
			"-0.014": 0.0,
			"-0.013": 0.0,
			"-0.012": 0.0,
			"-0.011": 0.0,
			"-0.01": 0.0,
			"-0.009": 0.0,
			"-0.008": 0.0,
			"-0.007": 0.0,
			"-0.006": 1.62853831936,
			"-0.005": 15.0457971716,
			"-0.004": 28.4508185179,
			"-0.003": 35.3306640088,
			"-0.002": 29.4777252973,
			"-0.001": 27.8146059455,
			"0.0": 31.2858798343,
			"0.001": 26.142098573,
			"0.002": 13.5792433328,
			"0.003": 11.3381986017,
			"0.004": 13.7124455246,
			"0.005": 12.9363941078,
			"0.006": 10.5614607165,
			"0.007": 4.50511686774,
			"0.008": 1.23433238061,
			"0.009": 1.66962445889,
			"0.01": 1.52987037413,
			"0.011": 2.00542954213,
			"0.012": 2.06671313432,
			"0.013": 0.478854698798,
			"0.014": 0.0,
			"0.015": 0.0,
			"0.016": 0.0,
			"0.017": 0.0,
			"0.018": 0.0,
			"0.019": 0.0,
			"0.02": 0.0,
			"0.021": 0.0,
			"0.022": 0.0,
			"0.023": 0.0,
			"0.024": 0.0,
			"0.025": 0.0
		}
	}
}
