{
	 "smiles": "NC(=O)CC1=CC=C(OCC(O)=O)C=C1", 
	 "Tm": 445.15, 
	 "num_atms": 26, 
	 "gaussian": { 
		 "optdone": 1, 
		 "sigma_profile": "yes", 
		 "theory": "DFT", 
		 "functional": "B3LYP", 
		 "basiset": "6-31G**", 
		 "properties": { 
			 "R2extent": 4787.6764, 
			 "electric_dipole_moment_norm": 3.79132107451, 
			 "electric_quadrupole_moment_norm": 22.7442755673, 
			 "total_energy": -743.357916096, 
			 "HOMO_LUMO_gap": 0.20297, 
			 "cosmo_polarized_energy": -20.88, 
			 "cosmo_cavitation_energy": 31.18, 
			 "cosmo_dispersion_energy": -21.98, 
			 "cosmo_repulsion_energy": 1.78, 
			 "cosmo_total_nonelectrostatic_energy": 10.98, 
			 "SMD_solvation_energy": 7.53 
		},
		"coords": [
			{
				"x": -0.9995754671,
				"y": 2.7667997433,
				"z": -1.1391818485,
				"element": "N" 
			},
			{
				"x": 0.2183362812,
				"y": 3.3641492824,
				"z": -1.2721176989,
				"element": "C" 
			},
			{
				"x": 0.3544434156,
				"y": 4.5653002348,
				"z": -1.4500040187,
				"element": "O" 
			},
			{
				"x": 1.4439586594,
				"y": 2.4303961675,
				"z": -1.2202123611,
				"element": "C" 
			},
			{
				"x": 1.2140352655,
				"y": 0.9946879814,
				"z": -0.809875006,
				"element": "C" 
			},
			{
				"x": 1.1681588187,
				"y": 0.6274970758,
				"z": 0.5469210791,
				"element": "C" 
			},
			{
				"x": 0.9376269111,
				"y": -0.686430866,
				"z": 0.9338578019,
				"element": "C" 
			},
			{
				"x": 0.7439522827,
				"y": -1.6793490985,
				"z": -0.0359919243,
				"element": "C" 
			},
			{
				"x": 0.5345833451,
				"y": -2.9447730193,
				"z": 0.4511737366,
				"element": "O" 
			},
			{
				"x": 0.4041705378,
				"y": -4.007093494,
				"z": -0.4664733993,
				"element": "C" 
			},
			{
				"x": -0.9191805502,
				"y": -4.0645224496,
				"z": -1.2257416964,
				"element": "C" 
			},
			{
				"x": -1.9202848265,
				"y": -3.4328066421,
				"z": -0.5857592148,
				"element": "O" 
			},
			{
				"x": -1.0528947349,
				"y": -4.6592186647,
				"z": -2.2715575078,
				"element": "O" 
			},
			{
				"x": 0.7816249086,
				"y": -1.3405388254,
				"z": -1.3919717962,
				"element": "C" 
			},
			{
				"x": 1.0157886048,
				"y": -0.0119294084,
				"z": -1.7607553773,
				"element": "C" 
			},
			{
				"x": -1.8176152497,
				"y": 3.3561171311,
				"z": -1.1491755694,
				"element": "H" 
			},
			{
				"x": -1.091398452,
				"y": 1.7852343139,
				"z": -0.9336419854,
				"element": "H" 
			},
			{
				"x": 2.1548004848,
				"y": 2.9217756218,
				"z": -0.5483152699,
				"element": "H" 
			},
			{
				"x": 1.8931631152,
				"y": 2.4777743537,
				"z": -2.2186333485,
				"element": "H" 
			},
			{
				"x": 1.3218716674,
				"y": 1.3856681301,
				"z": 1.3108308296,
				"element": "H" 
			},
			{
				"x": 0.9089412791,
				"y": -0.9704954835,
				"z": 1.9806146251,
				"element": "H" 
			},
			{
				"x": 1.2125476576,
				"y": -4.0277772165,
				"z": -1.2057156141,
				"element": "H" 
			},
			{
				"x": 0.4727081841,
				"y": -4.9233806234,
				"z": 0.1292459355,
				"element": "H" 
			},
			{
				"x": -2.7121640645,
				"y": -3.5510283465,
				"z": -1.1378790485,
				"element": "H" 
			},
			{
				"x": 0.6345234452,
				"y": -2.0842828782,
				"z": -2.1669732342,
				"element": "H" 
			},
			{
				"x": 1.0479784809,
				"y": 0.2384269799,
				"z": -2.8182680885,
				"element": "H" 
			}
		],
		 "valence_orbital": [ 
			{
				"type": "occ",
				"energy": -0.29097,
				"method": "rhf"
			},
			{
				"type": "occ",
				"energy": -0.26634,
				"method": "rhf"
			},
			{
				"type": "occ",
				"energy": -0.25968,
				"method": "rhf"
			},
			{
				"type": "occ",
				"energy": -0.2507,
				"method": "rhf"
			},
			{
				"type": "occ",
				"energy": -0.22356,
				"method": "rhf"
			},
			{
				"type": "unocc",
				"energy": -0.02059,
				"method": "rhf"
			},
			{
				"type": "unocc",
				"energy": -0.0064,
				"method": "rhf"
			},
			{
				"type": "unocc",
				"energy": -0.00421,
				"method": "rhf"
			},
			{
				"type": "unocc",
				"energy": 0.03769,
				"method": "rhf"
			},
			{
				"type": "unocc",
				"energy": 0.06068,
				"method": "rhf"
			}
		],
		"cosmo_sigma_profile": { 
			"-0.025": 0.0,
			"-0.024": 0.0,
			"-0.023": 0.0,
			"-0.022": 0.0,
			"-0.021": 0.0,
			"-0.02": 0.0,
			"-0.019": 0.336045936978,
			"-0.018": 0.817574221105,
			"-0.017": 1.13902238525,
			"-0.016": 0.885503858452,
			"-0.015": 0.744934282962,
			"-0.014": 1.19925777974,
			"-0.013": 1.93680371334,
			"-0.012": 2.37770792507,
			"-0.011": 3.43529373625,
			"-0.01": 2.32727125889,
			"-0.009": 4.65152305942,
			"-0.008": 5.88052694126,
			"-0.007": 8.68567461114,
			"-0.006": 17.7444037478,
			"-0.005": 18.986971799,
			"-0.004": 15.2309972932,
			"-0.003": 14.3407458666,
			"-0.002": 13.331458897,
			"-0.001": 13.3530450109,
			"0.0": 10.5431596113,
			"0.001": 10.2875756787,
			"0.002": 10.6658425044,
			"0.003": 14.8114553437,
			"0.004": 13.3839491895,
			"0.005": 10.3946564267,
			"0.006": 5.43156402421,
			"0.007": 4.96299244216,
			"0.008": 5.02584852575,
			"0.009": 6.17365231822,
			"0.01": 4.59317804609,
			"0.011": 6.9377607401,
			"0.012": 4.19110470649,
			"0.013": 2.64299784014,
			"0.014": 6.29021057701,
			"0.015": 2.98038946438,
			"0.016": 0.204681108859,
			"0.017": 0.0,
			"0.018": 0.0,
			"0.019": 0.0,
			"0.02": 0.0,
			"0.021": 0.0,
			"0.022": 0.0,
			"0.023": 0.0,
			"0.024": 0.0,
			"0.025": 0.0
		}
	}
}
