{
	 "smiles": "COC1=C(OC(=O)C(C)C)C2=C(C=CC=C2)C(OC(=O)C(C)C)=C1OC", 
	 "Tm": 368.65, 
	 "num_atms": 50, 
	 "gaussian": { 
		 "optdone": 1, 
		 "sigma_profile": "yes", 
		 "theory": "DFT", 
		 "functional": "B3LYP", 
		 "basiset": "6-31G**", 
		 "properties": { 
			 "R2extent": 10784.1277, 
			 "electric_dipole_moment_norm": 0.42013147942, 
			 "electric_quadrupole_moment_norm": 22.1047789846, 
			 "total_energy": -1227.94295915, 
			 "HOMO_LUMO_gap": 0.16844, 
			 "cosmo_polarized_energy": -16.04, 
			 "cosmo_cavitation_energy": 53.59, 
			 "cosmo_dispersion_energy": -33.49, 
			 "cosmo_repulsion_energy": 2.57, 
			 "cosmo_total_nonelectrostatic_energy": 22.67, 
			 "SMD_solvation_energy": 12.03 
		},
		"coords": [
			{
				"x": 0.9649810284,
				"y": -2.2388794196,
				"z": -1.6050848918,
				"element": "C" 
			},
			{
				"x": 0.4999476184,
				"y": -0.8826337968,
				"z": -1.7056966156,
				"element": "O" 
			},
			{
				"x": 0.4532703951,
				"y": -0.2109338424,
				"z": -0.5114403251,
				"element": "C" 
			},
			{
				"x": 1.3483694209,
				"y": 0.8087752292,
				"z": -0.2611768679,
				"element": "C" 
			},
			{
				"x": 2.3408557206,
				"y": 1.0882416271,
				"z": -1.1944374009,
				"element": "O" 
			},
			{
				"x": 1.9621801439,
				"y": 1.6998840892,
				"z": -2.3742243149,
				"element": "C" 
			},
			{
				"x": 0.8495278036,
				"y": 2.1114881929,
				"z": -2.5785106792,
				"element": "O" 
			},
			{
				"x": 3.134539354,
				"y": 1.7671144364,
				"z": -3.3389993055,
				"element": "C" 
			},
			{
				"x": 3.5451687161,
				"y": 0.3514696538,
				"z": -3.7844399028,
				"element": "C" 
			},
			{
				"x": 4.3222859778,
				"y": 2.5400418041,
				"z": -2.7400328617,
				"element": "C" 
			},
			{
				"x": 1.3281981897,
				"y": 1.5378775102,
				"z": 0.9572008787,
				"element": "C" 
			},
			{
				"x": 0.3633422739,
				"y": 1.1793673313,
				"z": 1.95424557,
				"element": "C" 
			},
			{
				"x": 0.3465992952,
				"y": 1.8902411714,
				"z": 3.1829837928,
				"element": "C" 
			},
			{
				"x": 1.2482230956,
				"y": 2.9036501295,
				"z": 3.4184570324,
				"element": "C" 
			},
			{
				"x": 2.2057163388,
				"y": 3.2531284699,
				"z": 2.4364892833,
				"element": "C" 
			},
			{
				"x": 2.2458279122,
				"y": 2.5853790478,
				"z": 1.2331601813,
				"element": "C" 
			},
			{
				"x": -0.5622921073,
				"y": 0.1427005238,
				"z": 1.6625715299,
				"element": "C" 
			},
			{
				"x": -1.5553478788,
				"y": -0.146412092,
				"z": 2.5922712422,
				"element": "O" 
			},
			{
				"x": -1.4886390117,
				"y": -1.3586363361,
				"z": 3.251358354,
				"element": "C" 
			},
			{
				"x": -0.5576535563,
				"y": -2.1159122924,
				"z": 3.1553111536,
				"element": "O" 
			},
			{
				"x": -2.7454875298,
				"y": -1.5665133761,
				"z": 4.0802222024,
				"element": "C" 
			},
			{
				"x": -3.9378638801,
				"y": -1.8548391701,
				"z": 3.1441482217,
				"element": "C" 
			},
			{
				"x": -2.5341291848,
				"y": -2.6816361651,
				"z": 5.1076567931,
				"element": "C" 
			},
			{
				"x": -0.5399290879,
				"y": -0.5326909326,
				"z": 0.4596899139,
				"element": "C" 
			},
			{
				"x": -1.4460708131,
				"y": -1.533443784,
				"z": 0.2216075066,
				"element": "O" 
			},
			{
				"x": -2.4384169995,
				"y": -1.2126406053,
				"z": -0.7674639438,
				"element": "C" 
			},
			{
				"x": 0.3229855379,
				"y": -2.8272796466,
				"z": -0.9435284979,
				"element": "H" 
			},
			{
				"x": 0.928107716,
				"y": -2.646366357,
				"z": -2.6171465342,
				"element": "H" 
			},
			{
				"x": 1.9973516678,
				"y": -2.2654549459,
				"z": -1.2375110362,
				"element": "H" 
			},
			{
				"x": 2.7471665935,
				"y": 2.3154731141,
				"z": -4.2034463441,
				"element": "H" 
			},
			{
				"x": 3.9353455706,
				"y": -0.2228826225,
				"z": -2.93938709,
				"element": "H" 
			},
			{
				"x": 2.6961654051,
				"y": -0.194080759,
				"z": -4.2069368899,
				"element": "H" 
			},
			{
				"x": 4.3266244025,
				"y": 0.4121394961,
				"z": -4.5486549571,
				"element": "H" 
			},
			{
				"x": 4.0313334105,
				"y": 3.550608312,
				"z": -2.4356688538,
				"element": "H" 
			},
			{
				"x": 4.7262094214,
				"y": 2.0199167139,
				"z": -1.8669059636,
				"element": "H" 
			},
			{
				"x": 5.1210887051,
				"y": 2.6307168607,
				"z": -3.4830262236,
				"element": "H" 
			},
			{
				"x": -0.3939747459,
				"y": 1.6225966838,
				"z": 3.928155158,
				"element": "H" 
			},
			{
				"x": 1.225703825,
				"y": 3.4395216423,
				"z": 4.36282,
				"element": "H" 
			},
			{
				"x": 2.912410009,
				"y": 4.0535598514,
				"z": 2.6349918129,
				"element": "H" 
			},
			{
				"x": 2.9804916605,
				"y": 2.8455623211,
				"z": 0.4796477622,
				"element": "H" 
			},
			{
				"x": -2.9454212512,
				"y": -0.6179587073,
				"z": 4.5947693577,
				"element": "H" 
			},
			{
				"x": -4.0932209783,
				"y": -1.0358553358,
				"z": 2.4377622178,
				"element": "H" 
			},
			{
				"x": -4.8518802843,
				"y": -1.9827769641,
				"z": 3.7321968574,
				"element": "H" 
			},
			{
				"x": -3.768027442,
				"y": -2.7744055575,
				"z": 2.5746620039,
				"element": "H" 
			},
			{
				"x": -2.3035476036,
				"y": -3.6270371615,
				"z": 4.6089713591,
				"element": "H" 
			},
			{
				"x": -1.7028664309,
				"y": -2.4528839557,
				"z": 5.7803603534,
				"element": "H" 
			},
			{
				"x": -3.4377817257,
				"y": -2.8167025691,
				"z": 5.7099536187,
				"element": "H" 
			},
			{
				"x": -1.9746482383,
				"y": -0.9831615613,
				"z": -1.7308797902,
				"element": "H" 
			},
			{
				"x": -3.0478914671,
				"y": -0.362479409,
				"z": -0.4396018367,
				"element": "H" 
			},
			{
				"x": -3.0691269925,
				"y": -2.0987568473,
				"z": -0.8602630305,
				"element": "H" 
			}
		],
		 "valence_orbital": [ 
			{
				"type": "occ",
				"energy": -0.27077,
				"method": "rhf"
			},
			{
				"type": "occ",
				"energy": -0.26906,
				"method": "rhf"
			},
			{
				"type": "occ",
				"energy": -0.26553,
				"method": "rhf"
			},
			{
				"type": "occ",
				"energy": -0.23409,
				"method": "rhf"
			},
			{
				"type": "occ",
				"energy": -0.20832,
				"method": "rhf"
			},
			{
				"type": "unocc",
				"energy": -0.03988,
				"method": "rhf"
			},
			{
				"type": "unocc",
				"energy": -0.01099,
				"method": "rhf"
			},
			{
				"type": "unocc",
				"energy": 0.00958,
				"method": "rhf"
			},
			{
				"type": "unocc",
				"energy": 0.01044,
				"method": "rhf"
			},
			{
				"type": "unocc",
				"energy": 0.03693,
				"method": "rhf"
			}
		],
		"cosmo_sigma_profile": { 
			"-0.025": 0.0,
			"-0.024": 0.0,
			"-0.023": 0.0,
			"-0.022": 0.0,
			"-0.021": 0.0,
			"-0.02": 0.0,
			"-0.019": 0.0,
			"-0.018": 0.0,
			"-0.017": 0.0,
			"-0.016": 0.0,
			"-0.015": 0.0,
			"-0.014": 0.0,
			"-0.013": 0.0,
			"-0.012": 0.0,
			"-0.011": 0.0,
			"-0.01": 0.0,
			"-0.009": 0.0,
			"-0.008": 0.0,
			"-0.007": 0.438190986632,
			"-0.006": 8.8004022006,
			"-0.005": 22.6901012802,
			"-0.004": 47.3962818115,
			"-0.003": 60.8539872528,
			"-0.002": 46.4789461199,
			"-0.001": 39.7251711055,
			"0.0": 45.6743949517,
			"0.001": 32.8035810922,
			"0.002": 23.0481876896,
			"0.003": 22.2649762591,
			"0.004": 17.3687906923,
			"0.005": 9.35636913139,
			"0.006": 5.93620115249,
			"0.007": 4.75648075382,
			"0.008": 5.49161545256,
			"0.009": 6.39931020304,
			"0.01": 8.9636674126,
			"0.011": 9.69487800525,
			"0.012": 4.1469208593,
			"0.013": 0.0513461695178,
			"0.014": 0.0,
			"0.015": 0.0,
			"0.016": 0.0,
			"0.017": 0.0,
			"0.018": 0.0,
			"0.019": 0.0,
			"0.02": 0.0,
			"0.021": 0.0,
			"0.022": 0.0,
			"0.023": 0.0,
			"0.024": 0.0,
			"0.025": 0.0
		}
	}
}
