{
	 "smiles": "CC(C)[C@H](NC1=C(Cl)C=C(C=C1)C(F)(F)F)C(=O)O[C@@H](C#N)C1=CC(OC2=CC=CC=C2)=CC=C1", 
	 "Tm": 298.15, 
	 "num_atms": 57, 
	 "gaussian": { 
		 "optdone": 1, 
		 "sigma_profile": "yes", 
		 "theory": "DFT", 
		 "functional": "B3LYP", 
		 "basiset": "6-31G**", 
		 "properties": { 
			 "R2extent": 17450.8995, 
			 "electric_dipole_moment_norm": 3.63114717686, 
			 "electric_quadrupole_moment_norm": 39.2223158607, 
			 "total_energy": -2098.90366831, 
			 "HOMO_LUMO_gap": 0.18381, 
			 "cosmo_polarized_energy": -18.37, 
			 "cosmo_cavitation_energy": 64.2, 
			 "cosmo_dispersion_energy": -38.57, 
			 "cosmo_repulsion_energy": 2.82, 
			 "cosmo_total_nonelectrostatic_energy": 28.46, 
			 "SMD_solvation_energy": 13.01 
		},
		"coords": [
			{
				"x": 0.2017886714,
				"y": -4.7184267345,
				"z": 1.6853080183,
				"element": "C" 
			},
			{
				"x": -0.8268577539,
				"y": -3.5966372057,
				"z": 1.4894362951,
				"element": "C" 
			},
			{
				"x": -2.2396555987,
				"y": -4.077230795,
				"z": 1.8590198992,
				"element": "C" 
			},
			{
				"x": -0.8029579747,
				"y": -3.0834782219,
				"z": 0.0283023276,
				"element": "C" 
			},
			{
				"x": 0.5159482282,
				"y": -2.7688014163,
				"z": -0.5121580813,
				"element": "N" 
			},
			{
				"x": 1.3835518406,
				"y": -1.770297274,
				"z": -0.1331820451,
				"element": "C" 
			},
			{
				"x": 2.6444899476,
				"y": -1.6558802653,
				"z": -0.7719208997,
				"element": "C" 
			},
			{
				"x": 3.0744377338,
				"y": -2.8059985336,
				"z": -2.0409150976,
				"element": "Cl" 
			},
			{
				"x": 3.5575787176,
				"y": -0.6681741511,
				"z": -0.4403043418,
				"element": "C" 
			},
			{
				"x": 3.2481302061,
				"y": 0.25412058,
				"z": 0.5620550913,
				"element": "C" 
			},
			{
				"x": 2.0159206483,
				"y": 0.1639798465,
				"z": 1.2142639853,
				"element": "C" 
			},
			{
				"x": 1.1002413185,
				"y": -0.8237833652,
				"z": 0.8763678947,
				"element": "C" 
			},
			{
				"x": 4.1931957666,
				"y": 1.3736960896,
				"z": 0.8693139088,
				"element": "C" 
			},
			{
				"x": 3.9263210348,
				"y": 2.4797334764,
				"z": 0.1146856513,
				"element": "F" 
			},
			{
				"x": 5.4780804419,
				"y": 1.0443260851,
				"z": 0.6144666267,
				"element": "F" 
			},
			{
				"x": 4.1153647684,
				"y": 1.7676968109,
				"z": 2.1583537122,
				"element": "F" 
			},
			{
				"x": -1.7542853222,
				"y": -1.891641215,
				"z": -0.1966100199,
				"element": "C" 
			},
			{
				"x": -2.0963973255,
				"y": -1.0900692283,
				"z": 0.6420555133,
				"element": "O" 
			},
			{
				"x": -2.1424933722,
				"y": -1.845204687,
				"z": -1.4942240113,
				"element": "O" 
			},
			{
				"x": -2.9280093623,
				"y": -0.6991702314,
				"z": -1.9420770822,
				"element": "C" 
			},
			{
				"x": -4.1791376563,
				"y": -0.5669994342,
				"z": -1.1749871199,
				"element": "C" 
			},
			{
				"x": -5.2083678224,
				"y": -0.4683938535,
				"z": -0.6491482772,
				"element": "N" 
			},
			{
				"x": -2.1089867896,
				"y": 0.575754343,
				"z": -2.0406294536,
				"element": "C" 
			},
			{
				"x": -2.0948368706,
				"y": 1.5272212517,
				"z": -1.0193481754,
				"element": "C" 
			},
			{
				"x": -1.3067941858,
				"y": 2.6743950586,
				"z": -1.1530246986,
				"element": "C" 
			},
			{
				"x": -1.4007251641,
				"y": 3.5837556986,
				"z": -0.128746007,
				"element": "O" 
			},
			{
				"x": -0.3763502578,
				"y": 4.4802018695,
				"z": 0.1391287834,
				"element": "C" 
			},
			{
				"x": -0.7493215061,
				"y": 5.8010219421,
				"z": 0.3902609922,
				"element": "C" 
			},
			{
				"x": 0.2253046852,
				"y": 6.7292392786,
				"z": 0.7580523215,
				"element": "C" 
			},
			{
				"x": 1.5626995601,
				"y": 6.3425711024,
				"z": 0.8675125661,
				"element": "C" 
			},
			{
				"x": 1.9228372078,
				"y": 5.0173693576,
				"z": 0.612883209,
				"element": "C" 
			},
			{
				"x": 0.9569092804,
				"y": 4.0769777617,
				"z": 0.2515366831,
				"element": "C" 
			},
			{
				"x": -0.5362946283,
				"y": 2.8780178667,
				"z": -2.3029556008,
				"element": "C" 
			},
			{
				"x": -0.5539093977,
				"y": 1.9168665271,
				"z": -3.3138075136,
				"element": "C" 
			},
			{
				"x": -1.3354661581,
				"y": 0.7696334591,
				"z": -3.1930548497,
				"element": "C" 
			},
			{
				"x": 0.1779737066,
				"y": -5.0741976478,
				"z": 2.7198786254,
				"element": "H" 
			},
			{
				"x": -0.0195443139,
				"y": -5.5754767323,
				"z": 1.0368925032,
				"element": "H" 
			},
			{
				"x": 1.2186911937,
				"y": -4.3838067512,
				"z": 1.4664118355,
				"element": "H" 
			},
			{
				"x": -0.5683460165,
				"y": -2.7660464647,
				"z": 2.1545668827,
				"element": "H" 
			},
			{
				"x": -2.9790296461,
				"y": -3.2764277542,
				"z": 1.7813169839,
				"element": "H" 
			},
			{
				"x": -2.2557717297,
				"y": -4.4432953412,
				"z": 2.8900074571,
				"element": "H" 
			},
			{
				"x": -2.5556311071,
				"y": -4.9052126578,
				"z": 1.2119054211,
				"element": "H" 
			},
			{
				"x": -1.1777126513,
				"y": -3.8905982884,
				"z": -0.6103239537,
				"element": "H" 
			},
			{
				"x": 0.8159385951,
				"y": -3.3221946055,
				"z": -1.2990483254,
				"element": "H" 
			},
			{
				"x": 4.5089326551,
				"y": -0.6233737717,
				"z": -0.9569329139,
				"element": "H" 
			},
			{
				"x": 1.7657250493,
				"y": 0.8734958578,
				"z": 1.9957475918,
				"element": "H" 
			},
			{
				"x": 0.142785328,
				"y": -0.8474101338,
				"z": 1.3787218537,
				"element": "H" 
			},
			{
				"x": -3.2147122749,
				"y": -1.0075133794,
				"z": -2.9515094515,
				"element": "H" 
			},
			{
				"x": -2.6794347561,
				"y": 1.3925297449,
				"z": -0.1172327566,
				"element": "H" 
			},
			{
				"x": -1.7946387848,
				"y": 6.077954763,
				"z": 0.3020293739,
				"element": "H" 
			},
			{
				"x": -0.0640948191,
				"y": 7.7571691019,
				"z": 0.9564779171,
				"element": "H" 
			},
			{
				"x": 2.3189483933,
				"y": 7.0676623681,
				"z": 1.1523684688,
				"element": "H" 
			},
			{
				"x": 2.9557883336,
				"y": 4.6981085494,
				"z": 0.7025911968,
				"element": "H" 
			},
			{
				"x": 1.2387422778,
				"y": 3.0472430032,
				"z": 0.0617202755,
				"element": "H" 
			},
			{
				"x": 0.0631386312,
				"y": 3.7752527282,
				"z": -2.4046631173,
				"element": "H" 
			},
			{
				"x": 0.0400056568,
				"y": 2.0749338474,
				"z": -4.208918604,
				"element": "H" 
			},
			{
				"x": -1.346106632,
				"y": 0.0295117706,
				"z": -3.9881174684,
				"element": "H" 
			}
		],
		 "valence_orbital": [ 
			{
				"type": "occ",
				"energy": -0.26409,
				"method": "rhf"
			},
			{
				"type": "occ",
				"energy": -0.25709,
				"method": "rhf"
			},
			{
				"type": "occ",
				"energy": -0.25307,
				"method": "rhf"
			},
			{
				"type": "occ",
				"energy": -0.22479,
				"method": "rhf"
			},
			{
				"type": "occ",
				"energy": -0.22157,
				"method": "rhf"
			},
			{
				"type": "unocc",
				"energy": -0.03776,
				"method": "rhf"
			},
			{
				"type": "unocc",
				"energy": -0.02829,
				"method": "rhf"
			},
			{
				"type": "unocc",
				"energy": -0.02428,
				"method": "rhf"
			},
			{
				"type": "unocc",
				"energy": -0.01859,
				"method": "rhf"
			},
			{
				"type": "unocc",
				"energy": -0.01441,
				"method": "rhf"
			}
		],
		"cosmo_sigma_profile": { 
			"-0.025": 0.0,
			"-0.024": 0.0,
			"-0.023": 0.0,
			"-0.022": 0.0,
			"-0.021": 0.0,
			"-0.02": 0.0,
			"-0.019": 0.0,
			"-0.018": 0.0,
			"-0.017": 0.0,
			"-0.016": 0.0,
			"-0.015": 0.0,
			"-0.014": 0.114791510873,
			"-0.013": 0.946339096058,
			"-0.012": 1.11314348179,
			"-0.011": 4.17976300997,
			"-0.01": 3.48502742277,
			"-0.009": 3.65226855011,
			"-0.008": 3.75137374768,
			"-0.007": 10.6092726895,
			"-0.006": 18.290796826,
			"-0.005": 23.0576099281,
			"-0.004": 28.6592280223,
			"-0.003": 38.0962431737,
			"-0.002": 38.1678216832,
			"-0.001": 43.2408346178,
			"0.0": 49.5597196948,
			"0.001": 55.5429928979,
			"0.002": 55.9467209767,
			"0.003": 59.1227291675,
			"0.004": 28.3426705038,
			"0.005": 16.4213688075,
			"0.006": 7.38367897434,
			"0.007": 5.66029861247,
			"0.008": 6.44834466606,
			"0.009": 5.41254927864,
			"0.01": 3.71181827981,
			"0.011": 2.60586962864,
			"0.012": 1.80877371476,
			"0.013": 0.159829796013,
			"0.014": 0.0,
			"0.015": 0.0,
			"0.016": 0.0,
			"0.017": 0.0,
			"0.018": 0.0,
			"0.019": 0.0,
			"0.02": 0.0,
			"0.021": 0.0,
			"0.022": 0.0,
			"0.023": 0.0,
			"0.024": 0.0,
			"0.025": 0.0
		}
	}
}
