{
	 "smiles": "[O-][N+](=O)C1=CNC=C(Br)C1=O", 
	 "Tm": 606.15, 
	 "num_atms": 14, 
	 "gaussian": { 
		 "optdone": 1, 
		 "sigma_profile": "yes", 
		 "theory": "DFT", 
		 "functional": "B3LYP", 
		 "basiset": "6-31G**", 
		 "properties": { 
			 "R2extent": 3468.5572, 
			 "electric_dipole_moment_norm": 8.79680127205, 
			 "electric_quadrupole_moment_norm": 15.0907715048, 
			 "total_energy": -3098.78751842, 
			 "HOMO_LUMO_gap": 0.16163, 
			 "cosmo_polarized_energy": -29.13, 
			 "cosmo_cavitation_energy": 22.13, 
			 "cosmo_dispersion_energy": -16.95, 
			 "cosmo_repulsion_energy": 1.36, 
			 "cosmo_total_nonelectrostatic_energy": 6.54, 
			 "SMD_solvation_energy": 6.1 
		},
		"coords": [
			{
				"x": -0.7830275683,
				"y": -1.6049853588,
				"z": -1.8239373763,
				"element": "O" 
			},
			{
				"x": -0.2096794215,
				"y": -0.6781084435,
				"z": -1.2350934945,
				"element": "N" 
			},
			{
				"x": 0.4332158196,
				"y": 0.2068744528,
				"z": -1.7809158147,
				"element": "O" 
			},
			{
				"x": -0.2967513746,
				"y": -0.6669361654,
				"z": 0.2273121456,
				"element": "C" 
			},
			{
				"x": -0.6921206974,
				"y": -1.8416959052,
				"z": 0.8002868803,
				"element": "C" 
			},
			{
				"x": -0.7784025642,
				"y": -1.9666842308,
				"z": 2.1452439188,
				"element": "N" 
			},
			{
				"x": -0.478599312,
				"y": -0.9138652423,
				"z": 2.9839935226,
				"element": "C" 
			},
			{
				"x": -0.0968473897,
				"y": 0.2807112025,
				"z": 2.4719612982,
				"element": "C" 
			},
			{
				"x": 0.3016110371,
				"y": 1.7105067937,
				"z": 3.6402422806,
				"element": "Br" 
			},
			{
				"x": 0.0242678717,
				"y": 0.5454062736,
				"z": 1.0127416561,
				"element": "C" 
			},
			{
				"x": 0.3279917588,
				"y": 1.6374867529,
				"z": 0.5629338342,
				"element": "O" 
			},
			{
				"x": -0.9445259886,
				"y": -2.6994959751,
				"z": 0.1905183155,
				"element": "H" 
			},
			{
				"x": -1.0637698109,
				"y": -2.8491380414,
				"z": 2.5435415323,
				"element": "H" 
			},
			{
				"x": -0.5702623601,
				"y": -1.102076113,
				"z": 4.0458713014,
				"element": "H" 
			}
		],
		 "valence_orbital": [ 
			{
				"type": "occ",
				"energy": -0.2992,
				"method": "rhf"
			},
			{
				"type": "occ",
				"energy": -0.29781,
				"method": "rhf"
			},
			{
				"type": "occ",
				"energy": -0.28704,
				"method": "rhf"
			},
			{
				"type": "occ",
				"energy": -0.25457,
				"method": "rhf"
			},
			{
				"type": "occ",
				"energy": -0.25293,
				"method": "rhf"
			},
			{
				"type": "unocc",
				"energy": -0.0913,
				"method": "rhf"
			},
			{
				"type": "unocc",
				"energy": -0.05154,
				"method": "rhf"
			},
			{
				"type": "unocc",
				"energy": -0.02153,
				"method": "rhf"
			},
			{
				"type": "unocc",
				"energy": -0.01624,
				"method": "rhf"
			},
			{
				"type": "unocc",
				"energy": 0.03176,
				"method": "rhf"
			}
		],
		"cosmo_sigma_profile": { 
			"-0.025": 0.0,
			"-0.024": 0.0,
			"-0.023": 0.0,
			"-0.022": 0.0,
			"-0.021": 0.0,
			"-0.02": 0.258248138094,
			"-0.019": 3.04997197966,
			"-0.018": 2.19834379558,
			"-0.017": 1.49192413678,
			"-0.016": 1.72223653075,
			"-0.015": 1.60801846508,
			"-0.014": 1.20615750063,
			"-0.013": 2.21158822341,
			"-0.012": 3.00408274857,
			"-0.011": 2.8686514272,
			"-0.01": 2.99855228982,
			"-0.009": 2.38138435173,
			"-0.008": 2.21828426937,
			"-0.007": 4.58527994787,
			"-0.006": 5.20926163543,
			"-0.005": 9.0109979934,
			"-0.004": 12.6523393525,
			"-0.003": 11.5591416468,
			"-0.002": 8.53056181121,
			"-0.001": 7.98503592921,
			"0.0": 7.37048292587,
			"0.001": 6.69418393258,
			"0.002": 7.46811176294,
			"0.003": 9.81646584543,
			"0.004": 9.51469242024,
			"0.005": 4.82056256979,
			"0.006": 3.87998729969,
			"0.007": 7.89951828818,
			"0.008": 9.78246599498,
			"0.009": 6.9231345555,
			"0.01": 4.91362622004,
			"0.011": 3.26354939681,
			"0.012": 4.39061232262,
			"0.013": 4.57618432878,
			"0.014": 2.31557368925,
			"0.015": 1.23235450078,
			"0.016": 0.0585663513399,
			"0.017": 0.0,
			"0.018": 0.0,
			"0.019": 0.0,
			"0.02": 0.0,
			"0.021": 0.0,
			"0.022": 0.0,
			"0.023": 0.0,
			"0.024": 0.0,
			"0.025": 0.0
		}
	}
}
