{
	 "smiles": "C1=CC=C(C=C1)C(C1=CC=CC=C1)=P(C1=CC=CC=C1)(C1=CC=CC=C1)C1=CC=CC=C1", 
	 "Tm": 443.15, 
	 "num_atms": 57, 
	 "gaussian": { 
		 "optdone": 1, 
		 "sigma_profile": "yes", 
		 "theory": "DFT", 
		 "functional": "B3LYP", 
		 "basiset": "6-31G**", 
		 "properties": { 
			 "R2extent": 12118.4039, 
			 "electric_dipole_moment_norm": 5.4706078867, 
			 "electric_quadrupole_moment_norm": 12.8859753026, 
			 "total_energy": -1537.67007753, 
			 "HOMO_LUMO_gap": 0.1089, 
			 "cosmo_polarized_energy": -14.04, 
			 "cosmo_cavitation_energy": 59.28, 
			 "cosmo_dispersion_energy": -36.96, 
			 "cosmo_repulsion_energy": 2.82, 
			 "cosmo_total_nonelectrostatic_energy": 25.14, 
			 "SMD_solvation_energy": 9.97 
		},
		"coords": [
			{
				"x": -4.6507600304,
				"y": 1.7633310123,
				"z": 0.3237272898,
				"element": "C" 
			},
			{
				"x": -3.7197047692,
				"y": 2.7773016402,
				"z": 0.5651181912,
				"element": "C" 
			},
			{
				"x": -2.3881131195,
				"y": 2.4582583453,
				"z": 0.8278514577,
				"element": "C" 
			},
			{
				"x": -1.9439424441,
				"y": 1.1208290145,
				"z": 0.8677302072,
				"element": "C" 
			},
			{
				"x": -2.9041859226,
				"y": 0.1178451147,
				"z": 0.6425955408,
				"element": "C" 
			},
			{
				"x": -4.2358262783,
				"y": 0.4318347025,
				"z": 0.3628604578,
				"element": "C" 
			},
			{
				"x": -0.5136327471,
				"y": 0.8019644952,
				"z": 1.1802191368,
				"element": "C" 
			},
			{
				"x": 0.0194496458,
				"y": 1.127895045,
				"z": 2.5099929597,
				"element": "C" 
			},
			{
				"x": -0.8699302754,
				"y": 1.3244369581,
				"z": 3.5988051363,
				"element": "C" 
			},
			{
				"x": -0.4117268095,
				"y": 1.6047706037,
				"z": 4.8819078762,
				"element": "C" 
			},
			{
				"x": 0.9558987147,
				"y": 1.6961726782,
				"z": 5.1559688391,
				"element": "C" 
			},
			{
				"x": 1.8534782665,
				"y": 1.5073627986,
				"z": 4.1043866396,
				"element": "C" 
			},
			{
				"x": 1.4002968745,
				"y": 1.2407023859,
				"z": 2.8139509569,
				"element": "C" 
			},
			{
				"x": 0.498862536,
				"y": 0.2596690615,
				"z": -0.0978438154,
				"element": "P" 
			},
			{
				"x": -0.4745385633,
				"y": -0.4535236684,
				"z": -1.4777799983,
				"element": "C" 
			},
			{
				"x": -1.1576663614,
				"y": 0.397522129,
				"z": -2.3610645375,
				"element": "C" 
			},
			{
				"x": -1.9305221458,
				"y": -0.1342968101,
				"z": -3.3920084603,
				"element": "C" 
			},
			{
				"x": -2.0197518744,
				"y": -1.5179026122,
				"z": -3.5600446143,
				"element": "C" 
			},
			{
				"x": -1.3358698591,
				"y": -2.369237806,
				"z": -2.6912603881,
				"element": "C" 
			},
			{
				"x": -0.5668760249,
				"y": -1.8411992901,
				"z": -1.6527731225,
				"element": "C" 
			},
			{
				"x": 1.5448202619,
				"y": 1.5308895934,
				"z": -0.9678609304,
				"element": "C" 
			},
			{
				"x": 2.103892452,
				"y": 1.3115669142,
				"z": -2.2384613832,
				"element": "C" 
			},
			{
				"x": 2.8526224464,
				"y": 2.3097785823,
				"z": -2.8630485139,
				"element": "C" 
			},
			{
				"x": 3.0477172319,
				"y": 3.5390270722,
				"z": -2.2285077683,
				"element": "C" 
			},
			{
				"x": 2.4844972213,
				"y": 3.7703801234,
				"z": -0.9727246855,
				"element": "C" 
			},
			{
				"x": 1.7309109317,
				"y": 2.7745441236,
				"z": -0.3480748286,
				"element": "C" 
			},
			{
				"x": 1.6798476936,
				"y": -1.0442954887,
				"z": 0.4527313538,
				"element": "C" 
			},
			{
				"x": 2.9550840395,
				"y": -1.2112248758,
				"z": -0.1062119824,
				"element": "C" 
			},
			{
				"x": 3.7754252756,
				"y": -2.2593919565,
				"z": 0.314651035,
				"element": "C" 
			},
			{
				"x": 3.3338652107,
				"y": -3.1449196483,
				"z": 1.2989000809,
				"element": "C" 
			},
			{
				"x": 2.0696547669,
				"y": -2.9776270641,
				"z": 1.8682595443,
				"element": "C" 
			},
			{
				"x": 1.2466393976,
				"y": -1.9323779328,
				"z": 1.4501668892,
				"element": "C" 
			},
			{
				"x": -5.6879501253,
				"y": 2.009558042,
				"z": 0.1133274497,
				"element": "H" 
			},
			{
				"x": -4.030153359,
				"y": 3.8188169324,
				"z": 0.5401319429,
				"element": "H" 
			},
			{
				"x": -1.6686471341,
				"y": 3.2516390653,
				"z": 1.0109755473,
				"element": "H" 
			},
			{
				"x": -2.594620834,
				"y": -0.9218759757,
				"z": 0.6898876095,
				"element": "H" 
			},
			{
				"x": -4.9516996583,
				"y": -0.3671733632,
				"z": 0.1877262355,
				"element": "H" 
			},
			{
				"x": -1.9377292565,
				"y": 1.2462492807,
				"z": 3.4251399597,
				"element": "H" 
			},
			{
				"x": -1.1360454022,
				"y": 1.7465492579,
				"z": 5.6808053484,
				"element": "H" 
			},
			{
				"x": 1.3106733111,
				"y": 1.9140311005,
				"z": 6.1588921902,
				"element": "H" 
			},
			{
				"x": 2.9238615939,
				"y": 1.581781493,
				"z": 4.2819228772,
				"element": "H" 
			},
			{
				"x": 2.1421330159,
				"y": 1.1285416576,
				"z": 2.0292350323,
				"element": "H" 
			},
			{
				"x": -1.0937948184,
				"y": 1.4737299952,
				"z": -2.2386211228,
				"element": "H" 
			},
			{
				"x": -2.4625740892,
				"y": 0.5327203433,
				"z": -4.0638296557,
				"element": "H" 
			},
			{
				"x": -2.6190971511,
				"y": -1.9303031839,
				"z": -4.36668817,
				"element": "H" 
			},
			{
				"x": -1.3980547466,
				"y": -3.4459180023,
				"z": -2.8199957253,
				"element": "H" 
			},
			{
				"x": -0.0396783471,
				"y": -2.5101042113,
				"z": -0.9808414805,
				"element": "H" 
			},
			{
				"x": 1.9413251285,
				"y": 0.3673719786,
				"z": -2.7503575437,
				"element": "H" 
			},
			{
				"x": 3.2763624752,
				"y": 2.1308471813,
				"z": -3.8473196562,
				"element": "H" 
			},
			{
				"x": 3.6286702542,
				"y": 4.3162846144,
				"z": -2.7167997176,
				"element": "H" 
			},
			{
				"x": 2.6246396136,
				"y": 4.7282612631,
				"z": -0.4801698918,
				"element": "H" 
			},
			{
				"x": 1.2786783221,
				"y": 2.9601793631,
				"z": 0.6210590165,
				"element": "H" 
			},
			{
				"x": 3.3170911812,
				"y": -0.5204104169,
				"z": -0.8593715914,
				"element": "H" 
			},
			{
				"x": 4.7618982906,
				"y": -2.3790972184,
				"z": -0.124028364,
				"element": "H" 
			},
			{
				"x": 3.9756210349,
				"y": -3.9577184164,
				"z": 1.6269094914,
				"element": "H" 
			},
			{
				"x": 1.7269668635,
				"y": -3.6541606119,
				"z": 2.6456730563,
				"element": "H" 
			},
			{
				"x": 0.2717080955,
				"y": -1.7821854095,
				"z": 1.9029785986,
				"element": "H" 
			}
		],
		 "valence_orbital": [ 
			{
				"type": "occ",
				"energy": -0.2446,
				"method": "rhf"
			},
			{
				"type": "occ",
				"energy": -0.23161,
				"method": "rhf"
			},
			{
				"type": "occ",
				"energy": -0.22661,
				"method": "rhf"
			},
			{
				"type": "occ",
				"energy": -0.21802,
				"method": "rhf"
			},
			{
				"type": "occ",
				"energy": -0.14496,
				"method": "rhf"
			},
			{
				"type": "unocc",
				"energy": -0.03606,
				"method": "rhf"
			},
			{
				"type": "unocc",
				"energy": -0.02842,
				"method": "rhf"
			},
			{
				"type": "unocc",
				"energy": -0.02422,
				"method": "rhf"
			},
			{
				"type": "unocc",
				"energy": -0.01922,
				"method": "rhf"
			},
			{
				"type": "unocc",
				"energy": -0.01002,
				"method": "rhf"
			}
		],
		"cosmo_sigma_profile": { 
			"-0.025": 0.0,
			"-0.024": 0.0,
			"-0.023": 0.0,
			"-0.022": 0.0,
			"-0.021": 0.0,
			"-0.02": 0.0,
			"-0.019": 0.0,
			"-0.018": 0.0,
			"-0.017": 0.0,
			"-0.016": 0.0,
			"-0.015": 0.0,
			"-0.014": 0.0,
			"-0.013": 0.0,
			"-0.012": 0.0,
			"-0.011": 0.0,
			"-0.01": 0.0,
			"-0.009": 0.0,
			"-0.008": 0.0,
			"-0.007": 2.70113295561,
			"-0.006": 22.0569118018,
			"-0.005": 36.1060103463,
			"-0.004": 46.4306672189,
			"-0.003": 40.2361665804,
			"-0.002": 40.4956877879,
			"-0.001": 36.9452153688,
			"0.0": 37.6910942318,
			"0.001": 36.4705293591,
			"0.002": 36.6094201619,
			"0.003": 36.2589449393,
			"0.004": 40.9877382649,
			"0.005": 24.586948098,
			"0.006": 17.1571180455,
			"0.007": 9.53081125687,
			"0.008": 5.69372372267,
			"0.009": 4.1133550897,
			"0.01": 0.209174103569,
			"0.011": 0.0,
			"0.012": 0.0,
			"0.013": 0.0,
			"0.014": 0.0,
			"0.015": 0.0,
			"0.016": 0.0,
			"0.017": 0.0,
			"0.018": 0.0,
			"0.019": 0.0,
			"0.02": 0.0,
			"0.021": 0.0,
			"0.022": 0.0,
			"0.023": 0.0,
			"0.024": 0.0,
			"0.025": 0.0
		}
	}
}
