{
	 "smiles": "NC(=O)N1CCCC1CO", 
	 "Tm": 368.15, 
	 "num_atms": 22, 
	 "gaussian": { 
		 "optdone": 1, 
		 "sigma_profile": "yes", 
		 "theory": "DFT", 
		 "functional": "B3LYP", 
		 "basiset": "6-31G**", 
		 "properties": { 
			 "R2extent": 1825.186, 
			 "electric_dipole_moment_norm": 4.49829938643, 
			 "electric_quadrupole_moment_norm": 9.62388639428, 
			 "total_energy": -495.831897383, 
			 "HOMO_LUMO_gap": 0.28607, 
			 "cosmo_polarized_energy": -19.96, 
			 "cosmo_cavitation_energy": 23.92, 
			 "cosmo_dispersion_energy": -17.68, 
			 "cosmo_repulsion_energy": 1.48, 
			 "cosmo_total_nonelectrostatic_energy": 7.71, 
			 "SMD_solvation_energy": 4.12 
		},
		"coords": [
			{
				"x": 1.1412161012,
				"y": -1.2214043489,
				"z": 1.6808907701,
				"element": "N" 
			},
			{
				"x": 1.0637978964,
				"y": -0.8772598736,
				"z": 0.3301777525,
				"element": "C" 
			},
			{
				"x": 1.1452715481,
				"y": -1.7177009692,
				"z": -0.5563660473,
				"element": "O" 
			},
			{
				"x": 0.8388271724,
				"y": 0.4684343389,
				"z": 0.102784121,
				"element": "N" 
			},
			{
				"x": 0.2146379367,
				"y": 1.347374593,
				"z": 1.1060458758,
				"element": "C" 
			},
			{
				"x": -0.394851637,
				"y": 2.4988957626,
				"z": 0.2821914139,
				"element": "C" 
			},
			{
				"x": -0.5946550926,
				"y": 1.8869987392,
				"z": -1.1168977127,
				"element": "C" 
			},
			{
				"x": 0.6075188391,
				"y": 0.9370707446,
				"z": -1.2712583542,
				"element": "C" 
			},
			{
				"x": 1.830409201,
				"y": 1.653272449,
				"z": -1.8558299227,
				"element": "C" 
			},
			{
				"x": 2.9201238347,
				"y": 0.7508654203,
				"z": -1.8817138671,
				"element": "O" 
			},
			{
				"x": 1.4889388848,
				"y": -2.1627331766,
				"z": 1.8004226786,
				"element": "H" 
			},
			{
				"x": 1.557407514,
				"y": -0.5486839905,
				"z": 2.3104844278,
				"element": "H" 
			},
			{
				"x": -0.5533555302,
				"y": 0.7967096209,
				"z": 1.6633944805,
				"element": "H" 
			},
			{
				"x": 0.9446358716,
				"y": 1.7224355248,
				"z": 1.8363535298,
				"element": "H" 
			},
			{
				"x": 0.3017764807,
				"y": 3.3422897926,
				"z": 0.2339080935,
				"element": "H" 
			},
			{
				"x": -1.3233967687,
				"y": 2.8692224265,
				"z": 0.7251753542,
				"element": "H" 
			},
			{
				"x": -1.5234660293,
				"y": 1.3077211677,
				"z": -1.1486301882,
				"element": "H" 
			},
			{
				"x": -0.6475606919,
				"y": 2.6425026289,
				"z": -1.9069771392,
				"element": "H" 
			},
			{
				"x": 0.3931564613,
				"y": 0.0652872834,
				"z": -1.8937356695,
				"element": "H" 
			},
			{
				"x": 1.5670378223,
				"y": 2.0024079386,
				"z": -2.8690063778,
				"element": "H" 
			},
			{
				"x": 2.0617920679,
				"y": 2.5465830238,
				"z": -1.2510224136,
				"element": "H" 
			},
			{
				"x": 3.6920381177,
				"y": 1.2211109043,
				"z": -2.2189908053,
				"element": "H" 
			}
		],
		 "valence_orbital": [ 
			{
				"type": "occ",
				"energy": -0.31946,
				"method": "rhf"
			},
			{
				"type": "occ",
				"energy": -0.26214,
				"method": "rhf"
			},
			{
				"type": "occ",
				"energy": -0.26029,
				"method": "rhf"
			},
			{
				"type": "occ",
				"energy": -0.23562,
				"method": "rhf"
			},
			{
				"type": "occ",
				"energy": -0.22369,
				"method": "rhf"
			},
			{
				"type": "unocc",
				"energy": 0.06238,
				"method": "rhf"
			},
			{
				"type": "unocc",
				"energy": 0.07416,
				"method": "rhf"
			},
			{
				"type": "unocc",
				"energy": 0.08101,
				"method": "rhf"
			},
			{
				"type": "unocc",
				"energy": 0.09404,
				"method": "rhf"
			},
			{
				"type": "unocc",
				"energy": 0.11042,
				"method": "rhf"
			}
		],
		"cosmo_sigma_profile": { 
			"-0.025": 0.0,
			"-0.024": 0.0,
			"-0.023": 0.0,
			"-0.022": 0.0,
			"-0.021": 0.0,
			"-0.02": 0.0,
			"-0.019": 0.0,
			"-0.018": 0.0,
			"-0.017": 0.0,
			"-0.016": 0.351898496004,
			"-0.015": 1.12982088176,
			"-0.014": 1.37057176556,
			"-0.013": 1.4246239019,
			"-0.012": 3.24168504199,
			"-0.011": 3.11208276684,
			"-0.01": 3.41551738267,
			"-0.009": 3.884864233,
			"-0.008": 2.10839995359,
			"-0.007": 3.4013010869,
			"-0.006": 2.43193436302,
			"-0.005": 5.50627309605,
			"-0.004": 17.4694711383,
			"-0.003": 29.1965448597,
			"-0.002": 23.4551144876,
			"-0.001": 14.8688616052,
			"0.0": 12.1918140889,
			"0.001": 4.70891947538,
			"0.002": 2.7185241173,
			"0.003": 2.69411331742,
			"0.004": 3.09406267923,
			"0.005": 4.05597283938,
			"0.006": 3.05100844615,
			"0.007": 2.32259932692,
			"0.008": 3.19436439788,
			"0.009": 2.47099551904,
			"0.01": 3.30870595513,
			"0.011": 2.92727700172,
			"0.012": 4.1686954625,
			"0.013": 3.79663278142,
			"0.014": 4.39797381847,
			"0.015": 7.74754447237,
			"0.016": 1.82945210375,
			"0.017": 0.0105602810714,
			"0.018": 0.0,
			"0.019": 0.0,
			"0.02": 0.0,
			"0.021": 0.0,
			"0.022": 0.0,
			"0.023": 0.0,
			"0.024": 0.0,
			"0.025": 0.0
		}
	}
}
