{
	 "smiles": "CCC(=O)NC1=C(OC2=C1C=CC=C2)C(=O)CC1=C(C)C=C(C)C=C1C", 
	 "Tm": 421.15, 
	 "num_atms": 49, 
	 "gaussian": { 
		 "optdone": 1, 
		 "sigma_profile": "yes", 
		 "theory": "DFT", 
		 "functional": "B3LYP", 
		 "basiset": "6-31G**", 
		 "properties": { 
			 "R2extent": 11866.3735, 
			 "electric_dipole_moment_norm": 5.26085102811, 
			 "electric_quadrupole_moment_norm": 24.13628614, 
			 "total_energy": -1132.66301989, 
			 "HOMO_LUMO_gap": 0.14352, 
			 "cosmo_polarized_energy": -15.48, 
			 "cosmo_cavitation_energy": 51.19, 
			 "cosmo_dispersion_energy": -35.22, 
			 "cosmo_repulsion_energy": 2.68, 
			 "cosmo_total_nonelectrostatic_energy": 18.66, 
			 "SMD_solvation_energy": 9.53 
		},
		"coords": [
			{
				"x": -1.0826490519,
				"y": 5.5946944979,
				"z": -0.2197356568,
				"element": "C" 
			},
			{
				"x": -0.3651680475,
				"y": 4.6512311407,
				"z": -1.1912219521,
				"element": "C" 
			},
			{
				"x": 0.8838131678,
				"y": 4.0561277095,
				"z": -0.5543351322,
				"element": "C" 
			},
			{
				"x": 1.5405240552,
				"y": 4.6693611427,
				"z": 0.2704860386,
				"element": "O" 
			},
			{
				"x": 1.2818203544,
				"y": 2.758788785,
				"z": -0.8873112177,
				"element": "N" 
			},
			{
				"x": 0.7158421746,
				"y": 1.7905941257,
				"z": -1.7014293224,
				"element": "C" 
			},
			{
				"x": 0.7351337052,
				"y": 0.442451463,
				"z": -1.375848441,
				"element": "C" 
			},
			{
				"x": 0.1634009409,
				"y": -0.3208086985,
				"z": -2.3821549444,
				"element": "O" 
			},
			{
				"x": -0.2016454293,
				"y": 0.5463468552,
				"z": -3.3615560882,
				"element": "C" 
			},
			{
				"x": 0.1265154279,
				"y": 1.8758354614,
				"z": -3.0211330264,
				"element": "C" 
			},
			{
				"x": -0.0993792218,
				"y": 2.8863316229,
				"z": -3.9755828129,
				"element": "C" 
			},
			{
				"x": -0.6739586589,
				"y": 2.5394419818,
				"z": -5.190648165,
				"element": "C" 
			},
			{
				"x": -1.0259987273,
				"y": 1.2054661739,
				"z": -5.4818268461,
				"element": "C" 
			},
			{
				"x": -0.7871452394,
				"y": 0.1822770118,
				"z": -4.5714071984,
				"element": "C" 
			},
			{
				"x": 1.306439589,
				"y": -0.2047923759,
				"z": -0.206119358,
				"element": "C" 
			},
			{
				"x": 1.9203362462,
				"y": 0.4797396481,
				"z": 0.6189382487,
				"element": "O" 
			},
			{
				"x": 1.1577507188,
				"y": -1.7182533869,
				"z": -0.0424835564,
				"element": "C" 
			},
			{
				"x": 0.6202702827,
				"y": -2.1246221128,
				"z": 1.3213829582,
				"element": "C" 
			},
			{
				"x": -0.7692813412,
				"y": -2.267040898,
				"z": 1.5119072374,
				"element": "C" 
			},
			{
				"x": -1.7543532103,
				"y": -2.0265672489,
				"z": 0.388009157,
				"element": "C" 
			},
			{
				"x": -1.2534748054,
				"y": -2.6487913421,
				"z": 2.7679974938,
				"element": "C" 
			},
			{
				"x": -0.3993320275,
				"y": -2.891054887,
				"z": 3.8458041472,
				"element": "C" 
			},
			{
				"x": -0.9428199518,
				"y": -3.2698964083,
				"z": 5.2035176607,
				"element": "C" 
			},
			{
				"x": 0.9744048514,
				"y": -2.7459207664,
				"z": 3.6352847332,
				"element": "C" 
			},
			{
				"x": 1.5005743807,
				"y": -2.3637171175,
				"z": 2.3969683494,
				"element": "C" 
			},
			{
				"x": 2.9989905177,
				"y": -2.2227483738,
				"z": 2.2437203818,
				"element": "C" 
			},
			{
				"x": -0.3930337009,
				"y": 6.3563471808,
				"z": 0.1482828026,
				"element": "H" 
			},
			{
				"x": -1.4680561699,
				"y": 5.0479815198,
				"z": 0.6460426322,
				"element": "H" 
			},
			{
				"x": -1.9248272161,
				"y": 6.0850306796,
				"z": -0.716440234,
				"element": "H" 
			},
			{
				"x": -0.0485222879,
				"y": 5.2189181827,
				"z": -2.0756573465,
				"element": "H" 
			},
			{
				"x": -1.0375702302,
				"y": 3.865421987,
				"z": -1.5450672796,
				"element": "H" 
			},
			{
				"x": 1.9096342438,
				"y": 2.3621834886,
				"z": -0.1869487438,
				"element": "H" 
			},
			{
				"x": 0.1839017184,
				"y": 3.9127347131,
				"z": -3.7803254079,
				"element": "H" 
			},
			{
				"x": -0.850147544,
				"y": 3.3089076575,
				"z": -5.9357267519,
				"element": "H" 
			},
			{
				"x": -1.4787694408,
				"y": 0.9709146246,
				"z": -6.4402652942,
				"element": "H" 
			},
			{
				"x": -1.0276713664,
				"y": -0.8532556389,
				"z": -4.784632868,
				"element": "H" 
			},
			{
				"x": 0.5352381342,
				"y": -2.1154812093,
				"z": -0.8455681365,
				"element": "H" 
			},
			{
				"x": 2.1614599025,
				"y": -2.1333552826,
				"z": -0.1893059776,
				"element": "H" 
			},
			{
				"x": -1.6270114692,
				"y": -2.7466011719,
				"z": -0.4300141299,
				"element": "H" 
			},
			{
				"x": -2.7817804866,
				"y": -2.1206801556,
				"z": 0.7490842563,
				"element": "H" 
			},
			{
				"x": -1.6482602452,
				"y": -1.0282643447,
				"z": -0.0504414655,
				"element": "H" 
			},
			{
				"x": -2.3272596818,
				"y": -2.7584914802,
				"z": 2.9050390222,
				"element": "H" 
			},
			{
				"x": -1.0715650301,
				"y": -2.3856087676,
				"z": 5.8405304876,
				"element": "H" 
			},
			{
				"x": -1.9192178069,
				"y": -3.7571974916,
				"z": 5.122757154,
				"element": "H" 
			},
			{
				"x": -0.2666712239,
				"y": -3.9508447794,
				"z": 5.730045105,
				"element": "H" 
			},
			{
				"x": 1.6599884234,
				"y": -2.9327606292,
				"z": 4.4591682599,
				"element": "H" 
			},
			{
				"x": 3.4041089435,
				"y": -2.9414240503,
				"z": 1.5190984508,
				"element": "H" 
			},
			{
				"x": 3.2648101397,
				"y": -1.2195138052,
				"z": 1.899511661,
				"element": "H" 
			},
			{
				"x": 3.5037116941,
				"y": -2.4044352304,
				"z": 3.1962111163,
				"element": "H" 
			}
		],
		 "valence_orbital": [ 
			{
				"type": "occ",
				"energy": -0.25734,
				"method": "rhf"
			},
			{
				"type": "occ",
				"energy": -0.2567,
				"method": "rhf"
			},
			{
				"type": "occ",
				"energy": -0.228,
				"method": "rhf"
			},
			{
				"type": "occ",
				"energy": -0.22427,
				"method": "rhf"
			},
			{
				"type": "occ",
				"energy": -0.2207,
				"method": "rhf"
			},
			{
				"type": "unocc",
				"energy": -0.07718,
				"method": "rhf"
			},
			{
				"type": "unocc",
				"energy": -0.01268,
				"method": "rhf"
			},
			{
				"type": "unocc",
				"energy": -0.00331,
				"method": "rhf"
			},
			{
				"type": "unocc",
				"energy": 0.00446,
				"method": "rhf"
			},
			{
				"type": "unocc",
				"energy": 0.01243,
				"method": "rhf"
			}
		],
		"cosmo_sigma_profile": { 
			"-0.025": 0.0,
			"-0.024": 0.0,
			"-0.023": 0.0,
			"-0.022": 0.0,
			"-0.021": 0.0,
			"-0.02": 0.0,
			"-0.019": 0.0,
			"-0.018": 0.0,
			"-0.017": 0.0,
			"-0.016": 0.0,
			"-0.015": 0.0,
			"-0.014": 0.0,
			"-0.013": 0.0,
			"-0.012": 0.0,
			"-0.011": 0.0,
			"-0.01": 0.00216371628261,
			"-0.009": 1.35634903395,
			"-0.008": 2.98500367872,
			"-0.007": 6.31079321818,
			"-0.006": 11.9654970765,
			"-0.005": 18.7459965006,
			"-0.004": 36.8325062848,
			"-0.003": 40.5750062724,
			"-0.002": 42.5972087345,
			"-0.001": 43.7495681463,
			"0.0": 47.6737431117,
			"0.001": 38.840024915,
			"0.002": 25.1069009074,
			"0.003": 19.8875407399,
			"0.004": 17.3912979084,
			"0.005": 9.07142162653,
			"0.006": 9.91980527895,
			"0.007": 9.63802617909,
			"0.008": 3.15176408623,
			"0.009": 4.05193330466,
			"0.01": 3.67383814256,
			"0.011": 3.80826261046,
			"0.012": 4.2275023976,
			"0.013": 4.34386080965,
			"0.014": 0.209197510687,
			"0.015": 0.0,
			"0.016": 0.0,
			"0.017": 0.0,
			"0.018": 0.0,
			"0.019": 0.0,
			"0.02": 0.0,
			"0.021": 0.0,
			"0.022": 0.0,
			"0.023": 0.0,
			"0.024": 0.0,
			"0.025": 0.0
		}
	}
}
