{
	 "smiles": "CN1N=C(C)C(C=O)=C1N1CCOCC1", 
	 "Tm": 348.15, 
	 "num_atms": 30, 
	 "gaussian": { 
		 "optdone": 1, 
		 "sigma_profile": "yes", 
		 "theory": "DFT", 
		 "functional": "B3LYP", 
		 "basiset": "6-31G**", 
		 "properties": { 
			 "R2extent": 3737.2986, 
			 "electric_dipole_moment_norm": 4.14852073515, 
			 "electric_quadrupole_moment_norm": 14.9377480575, 
			 "total_energy": -704.753816658, 
			 "HOMO_LUMO_gap": 0.19107, 
			 "cosmo_polarized_energy": -15.04, 
			 "cosmo_cavitation_energy": 32.02, 
			 "cosmo_dispersion_energy": -22.7, 
			 "cosmo_repulsion_energy": 1.78, 
			 "cosmo_total_nonelectrostatic_energy": 11.1, 
			 "SMD_solvation_energy": 5.13 
		},
		"coords": [
			{
				"x": 0.6280995169,
				"y": 2.296207213,
				"z": 0.020855629,
				"element": "C" 
			},
			{
				"x": 0.862877395,
				"y": 0.8793364118,
				"z": -0.1725117937,
				"element": "N" 
			},
			{
				"x": 1.7895443751,
				"y": 0.468752968,
				"z": -1.0874151165,
				"element": "N" 
			},
			{
				"x": 1.7402387848,
				"y": -0.8561244648,
				"z": -1.0745119931,
				"element": "C" 
			},
			{
				"x": 2.6181558729,
				"y": -1.6648835987,
				"z": -1.9744240584,
				"element": "C" 
			},
			{
				"x": 0.7862787943,
				"y": -1.3276965929,
				"z": -0.1181682741,
				"element": "C" 
			},
			{
				"x": 0.5124547442,
				"y": -2.7081561338,
				"z": 0.2356699263,
				"element": "C" 
			},
			{
				"x": 1.0513473226,
				"y": -3.6788301762,
				"z": -0.2794236306,
				"element": "O" 
			},
			{
				"x": 0.2383285112,
				"y": -0.1591089558,
				"z": 0.4435839208,
				"element": "C" 
			},
			{
				"x": -0.7348180168,
				"y": 0.0809589342,
				"z": 1.4128212465,
				"element": "N" 
			},
			{
				"x": -0.268759356,
				"y": 0.4816079526,
				"z": 2.7539966053,
				"element": "C" 
			},
			{
				"x": -1.4776176745,
				"y": 0.5331731229,
				"z": 3.7060439365,
				"element": "C" 
			},
			{
				"x": -2.6166938118,
				"y": 1.0370174747,
				"z": 3.0344596659,
				"element": "O" 
			},
			{
				"x": -3.0870560401,
				"y": 0.1483404244,
				"z": 2.0208149057,
				"element": "C" 
			},
			{
				"x": -1.9564178614,
				"y": -0.7198069676,
				"z": 1.4335259573,
				"element": "C" 
			},
			{
				"x": 0.70807575,
				"y": 2.7922208768,
				"z": -0.9473163454,
				"element": "H" 
			},
			{
				"x": -0.3740947016,
				"y": 2.4286402062,
				"z": 0.4320841751,
				"element": "H" 
			},
			{
				"x": 1.3650014441,
				"y": 2.7329413449,
				"z": 0.7038818471,
				"element": "H" 
			},
			{
				"x": 3.2436648634,
				"y": -2.3518716175,
				"z": -1.397079425,
				"element": "H" 
			},
			{
				"x": 2.0211227591,
				"y": -2.2867739926,
				"z": -2.6485846528,
				"element": "H" 
			},
			{
				"x": 3.2528192641,
				"y": -0.9991779566,
				"z": -2.5637384238,
				"element": "H" 
			},
			{
				"x": -0.2358303647,
				"y": -2.8559345233,
				"z": 1.0445410096,
				"element": "H" 
			},
			{
				"x": 0.1971411124,
				"y": 1.4708495606,
				"z": 2.6886118257,
				"element": "H" 
			},
			{
				"x": 0.4860647523,
				"y": -0.2171156733,
				"z": 3.1504865273,
				"element": "H" 
			},
			{
				"x": -1.2714187759,
				"y": 1.2104732511,
				"z": 4.5389873387,
				"element": "H" 
			},
			{
				"x": -1.6778272012,
				"y": -0.46168089,
				"z": 4.133526528,
				"element": "H" 
			},
			{
				"x": -3.5217796781,
				"y": 0.7840476224,
				"z": 1.2432604661,
				"element": "H" 
			},
			{
				"x": -3.8808542361,
				"y": -0.5029198054,
				"z": 2.4196756851,
				"element": "H" 
			},
			{
				"x": -1.8415561264,
				"y": -1.645460739,
				"z": 2.019319449,
				"element": "H" 
			},
			{
				"x": -2.2079914178,
				"y": -1.0167252762,
				"z": 0.4125270684,
				"element": "H" 
			}
		],
		 "valence_orbital": [ 
			{
				"type": "occ",
				"energy": -0.2671,
				"method": "rhf"
			},
			{
				"type": "occ",
				"energy": -0.26522,
				"method": "rhf"
			},
			{
				"type": "occ",
				"energy": -0.24402,
				"method": "rhf"
			},
			{
				"type": "occ",
				"energy": -0.23906,
				"method": "rhf"
			},
			{
				"type": "occ",
				"energy": -0.22386,
				"method": "rhf"
			},
			{
				"type": "unocc",
				"energy": -0.03279,
				"method": "rhf"
			},
			{
				"type": "unocc",
				"energy": 0.01987,
				"method": "rhf"
			},
			{
				"type": "unocc",
				"energy": 0.06221,
				"method": "rhf"
			},
			{
				"type": "unocc",
				"energy": 0.08367,
				"method": "rhf"
			},
			{
				"type": "unocc",
				"energy": 0.09398,
				"method": "rhf"
			}
		],
		"cosmo_sigma_profile": { 
			"-0.025": 0.0,
			"-0.024": 0.0,
			"-0.023": 0.0,
			"-0.022": 0.0,
			"-0.021": 0.0,
			"-0.02": 0.0,
			"-0.019": 0.0,
			"-0.018": 0.0,
			"-0.017": 0.0,
			"-0.016": 0.0,
			"-0.015": 0.0,
			"-0.014": 0.0,
			"-0.013": 0.0,
			"-0.012": 0.0,
			"-0.011": 0.0,
			"-0.01": 0.0,
			"-0.009": 0.0,
			"-0.008": 0.0,
			"-0.007": 0.671882026092,
			"-0.006": 12.5550066839,
			"-0.005": 29.9304707152,
			"-0.004": 40.1686867268,
			"-0.003": 31.3179952178,
			"-0.002": 19.7750181608,
			"-0.001": 15.6062709795,
			"0.0": 16.4578004644,
			"0.001": 10.3032702653,
			"0.002": 11.1289985858,
			"0.003": 9.81846699049,
			"0.004": 6.53539615487,
			"0.005": 5.09000828251,
			"0.006": 4.3634209165,
			"0.007": 5.51784026551,
			"0.008": 3.83013686541,
			"0.009": 4.1782696149,
			"0.01": 4.41040243862,
			"0.011": 4.3478261166,
			"0.012": 6.25946345923,
			"0.013": 5.67013843092,
			"0.014": 2.35468860762,
			"0.015": 1.06405457394,
			"0.016": 0.178111750295,
			"0.017": 0.0,
			"0.018": 0.0,
			"0.019": 0.0,
			"0.02": 0.0,
			"0.021": 0.0,
			"0.022": 0.0,
			"0.023": 0.0,
			"0.024": 0.0,
			"0.025": 0.0
		}
	}
}
