{
	 "smiles": "CC(C)CCCCCCCOC(=O)C1=C(C=CC=C1)C(=O)OCCCCCCCC(C)C", 
	 "Tm": 227.55, 
	 "num_atms": 78, 
	 "gaussian": { 
		 "optdone": 1, 
		 "sigma_profile": "yes", 
		 "theory": "DFT", 
		 "functional": "B3LYP", 
		 "basiset": "6-31G**", 
		 "properties": { 
			 "R2extent": 23575.9481, 
			 "electric_dipole_moment_norm": 3.64507877144, 
			 "electric_quadrupole_moment_norm": 31.9757060854, 
			 "total_energy": -1395.68694914, 
			 "HOMO_LUMO_gap": 0.20109, 
			 "cosmo_polarized_energy": -13.07, 
			 "cosmo_cavitation_energy": 78.18, 
			 "cosmo_dispersion_energy": -46.18, 
			 "cosmo_repulsion_energy": 3.56, 
			 "cosmo_total_nonelectrostatic_energy": 35.56, 
			 "SMD_solvation_energy": 12.65 
		},
		"coords": [
			{
				"x": -1.2569514432,
				"y": 5.8537561528,
				"z": -0.1092451248,
				"element": "C" 
			},
			{
				"x": -0.4326430742,
				"y": 5.0469960666,
				"z": -1.1237766386,
				"element": "C" 
			},
			{
				"x": 0.5398004002,
				"y": 5.9664125354,
				"z": -1.8787459634,
				"element": "C" 
			},
			{
				"x": 0.2833467982,
				"y": 3.8730876373,
				"z": -0.426475926,
				"element": "C" 
			},
			{
				"x": 0.9979711066,
				"y": 2.8887447317,
				"z": -1.3624438086,
				"element": "C" 
			},
			{
				"x": 1.5965442114,
				"y": 1.6820143552,
				"z": -0.6266711085,
				"element": "C" 
			},
			{
				"x": 2.3223832862,
				"y": 0.7025653062,
				"z": -1.5604482435,
				"element": "C" 
			},
			{
				"x": 2.8584588385,
				"y": -0.5657896716,
				"z": -0.8769688538,
				"element": "C" 
			},
			{
				"x": 3.9763228405,
				"y": -0.3090520211,
				"z": 0.143846057,
				"element": "C" 
			},
			{
				"x": 4.5785300496,
				"y": -1.5761264545,
				"z": 0.7308878832,
				"element": "C" 
			},
			{
				"x": 3.5414712573,
				"y": -2.2675759699,
				"z": 1.4660208744,
				"element": "O" 
			},
			{
				"x": 3.9342712208,
				"y": -3.3678226952,
				"z": 2.1323348561,
				"element": "C" 
			},
			{
				"x": 5.0897440207,
				"y": -3.7045220673,
				"z": 2.2822370249,
				"element": "O" 
			},
			{
				"x": 2.7743478055,
				"y": -4.0749030624,
				"z": 2.7762378457,
				"element": "C" 
			},
			{
				"x": 1.6415896275,
				"y": -4.5266714296,
				"z": 2.0696641401,
				"element": "C" 
			},
			{
				"x": 0.5904468019,
				"y": -5.131216005,
				"z": 2.7725070862,
				"element": "C" 
			},
			{
				"x": 0.6623116664,
				"y": -5.29987088,
				"z": 4.1540385285,
				"element": "C" 
			},
			{
				"x": 1.7971455616,
				"y": -4.8776223069,
				"z": 4.8473036149,
				"element": "C" 
			},
			{
				"x": 2.8483995094,
				"y": -4.2742369295,
				"z": 4.1577013782,
				"element": "C" 
			},
			{
				"x": 1.6126889694,
				"y": -4.4748370438,
				"z": 0.5756190661,
				"element": "C" 
			},
			{
				"x": 2.5975917943,
				"y": -4.3936437018,
				"z": -0.1318821776,
				"element": "O" 
			},
			{
				"x": 0.3568286866,
				"y": -4.5715657709,
				"z": 0.0873848646,
				"element": "O" 
			},
			{
				"x": 0.2420201995,
				"y": -4.6083278987,
				"z": -1.3549544306,
				"element": "C" 
			},
			{
				"x": -1.23126988,
				"y": -4.7681954814,
				"z": -1.7024957349,
				"element": "C" 
			},
			{
				"x": -2.1405353355,
				"y": -3.6145564253,
				"z": -1.2471432048,
				"element": "C" 
			},
			{
				"x": -1.8794883552,
				"y": -2.2756359927,
				"z": -1.9509123631,
				"element": "C" 
			},
			{
				"x": -2.858096193,
				"y": -1.1721255483,
				"z": -1.5264481811,
				"element": "C" 
			},
			{
				"x": -2.6017043837,
				"y": 0.167767779,
				"z": -2.2302870254,
				"element": "C" 
			},
			{
				"x": -3.4964462034,
				"y": 1.3260415315,
				"z": -1.7561918968,
				"element": "C" 
			},
			{
				"x": -5.0129072235,
				"y": 1.1745788663,
				"z": -1.9989568954,
				"element": "C" 
			},
			{
				"x": -5.3576609641,
				"y": 1.0462588867,
				"z": -3.4904023257,
				"element": "C" 
			},
			{
				"x": -5.7695799939,
				"y": 2.3546194775,
				"z": -1.3703357005,
				"element": "C" 
			},
			{
				"x": -1.8047121876,
				"y": 6.6671975377,
				"z": -0.5975828959,
				"element": "H" 
			},
			{
				"x": -0.6081426042,
				"y": 6.3028645536,
				"z": 0.6529636108,
				"element": "H" 
			},
			{
				"x": -1.986670701,
				"y": 5.2206430175,
				"z": 0.4074236785,
				"element": "H" 
			},
			{
				"x": -1.131697948,
				"y": 4.6189509483,
				"z": -1.8588767019,
				"element": "H" 
			},
			{
				"x": 0.0052353433,
				"y": 6.7962096136,
				"z": -2.3540313689,
				"element": "H" 
			},
			{
				"x": 1.0860501885,
				"y": 5.4346999893,
				"z": -2.6637276819,
				"element": "H" 
			},
			{
				"x": 1.278476306,
				"y": 6.3990246704,
				"z": -1.1921457526,
				"element": "H" 
			},
			{
				"x": 1.0063924153,
				"y": 4.2769791854,
				"z": 0.2981906629,
				"element": "H" 
			},
			{
				"x": -0.4575262492,
				"y": 3.3173899107,
				"z": 0.1656474658,
				"element": "H" 
			},
			{
				"x": 0.2884453646,
				"y": 2.5323300169,
				"z": -2.1236996385,
				"element": "H" 
			},
			{
				"x": 1.7978851207,
				"y": 3.4031923893,
				"z": -1.9107129803,
				"element": "H" 
			},
			{
				"x": 2.2858536677,
				"y": 2.0434823332,
				"z": 0.1479053836,
				"element": "H" 
			},
			{
				"x": 0.7966830689,
				"y": 1.1472201293,
				"z": -0.0940918028,
				"element": "H" 
			},
			{
				"x": 3.151126743,
				"y": 1.2249563671,
				"z": -2.0603298721,
				"element": "H" 
			},
			{
				"x": 1.6311961722,
				"y": 0.4027139398,
				"z": -2.3601361426,
				"element": "H" 
			},
			{
				"x": 3.2376896163,
				"y": -1.2524275208,
				"z": -1.645442004,
				"element": "H" 
			},
			{
				"x": 2.0355608595,
				"y": -1.0933612372,
				"z": -0.3795640662,
				"element": "H" 
			},
			{
				"x": 3.6119763702,
				"y": 0.3183641856,
				"z": 0.9657495939,
				"element": "H" 
			},
			{
				"x": 4.7930134481,
				"y": 0.2482411036,
				"z": -0.3357920104,
				"element": "H" 
			},
			{
				"x": 5.4074733233,
				"y": -1.3567411565,
				"z": 1.4102688661,
				"element": "H" 
			},
			{
				"x": 4.9488200632,
				"y": -2.2515981975,
				"z": -0.0481574098,
				"element": "H" 
			},
			{
				"x": -0.2735653325,
				"y": -5.4829774563,
				"z": 2.2210492768,
				"element": "H" 
			},
			{
				"x": -0.159138546,
				"y": -5.7723856524,
				"z": 4.6841746182,
				"element": "H" 
			},
			{
				"x": 1.8661380957,
				"y": -5.0183662707,
				"z": 5.9219197241,
				"element": "H" 
			},
			{
				"x": 3.7376165524,
				"y": -3.9445894539,
				"z": 4.6851058118,
				"element": "H" 
			},
			{
				"x": 0.83763475,
				"y": -5.4449100319,
				"z": -1.7335644994,
				"element": "H" 
			},
			{
				"x": 0.6736928741,
				"y": -3.6894441239,
				"z": -1.7627482357,
				"element": "H" 
			},
			{
				"x": -1.298015204,
				"y": -4.8861516321,
				"z": -2.7924756788,
				"element": "H" 
			},
			{
				"x": -1.5878812709,
				"y": -5.7093055736,
				"z": -1.2663779099,
				"element": "H" 
			},
			{
				"x": -2.0378426643,
				"y": -3.4851257225,
				"z": -0.1627031135,
				"element": "H" 
			},
			{
				"x": -3.1831053251,
				"y": -3.9100597678,
				"z": -1.4234600128,
				"element": "H" 
			},
			{
				"x": -1.9436766756,
				"y": -2.4183371667,
				"z": -3.0395933728,
				"element": "H" 
			},
			{
				"x": -0.854209139,
				"y": -1.9372395313,
				"z": -1.7486788329,
				"element": "H" 
			},
			{
				"x": -2.7920664407,
				"y": -1.0282600303,
				"z": -0.4383263088,
				"element": "H" 
			},
			{
				"x": -3.8837619011,
				"y": -1.5105254948,
				"z": -1.7253613156,
				"element": "H" 
			},
			{
				"x": -1.5543758832,
				"y": 0.4559523553,
				"z": -2.0645917549,
				"element": "H" 
			},
			{
				"x": -2.7030281951,
				"y": 0.0331410135,
				"z": -3.3153744775,
				"element": "H" 
			},
			{
				"x": -3.3303771527,
				"y": 1.4772939757,
				"z": -0.6800742746,
				"element": "H" 
			},
			{
				"x": -3.1611912378,
				"y": 2.2522234986,
				"z": -2.2454745119,
				"element": "H" 
			},
			{
				"x": -5.3525579949,
				"y": 0.259025217,
				"z": -1.4939146902,
				"element": "H" 
			},
			{
				"x": -6.4400856497,
				"y": 0.9615967371,
				"z": -3.6363713614,
				"element": "H" 
			},
			{
				"x": -5.0165852222,
				"y": 1.9283711543,
				"z": -4.0468073501,
				"element": "H" 
			},
			{
				"x": -4.8949687627,
				"y": 0.1660510731,
				"z": -3.9477299053,
				"element": "H" 
			},
			{
				"x": -5.4736989315,
				"y": 3.302459968,
				"z": -1.8369378576,
				"element": "H" 
			},
			{
				"x": -5.5643522822,
				"y": 2.4355035013,
				"z": -0.2971298436,
				"element": "H" 
			},
			{
				"x": -6.8523584443,
				"y": 2.2470816647,
				"z": -1.4974106739,
				"element": "H" 
			}
		],
		 "valence_orbital": [ 
			{
				"type": "occ",
				"energy": -0.28757,
				"method": "rhf"
			},
			{
				"type": "occ",
				"energy": -0.278,
				"method": "rhf"
			},
			{
				"type": "occ",
				"energy": -0.27386,
				"method": "rhf"
			},
			{
				"type": "occ",
				"energy": -0.26344,
				"method": "rhf"
			},
			{
				"type": "occ",
				"energy": -0.25291,
				"method": "rhf"
			},
			{
				"type": "unocc",
				"energy": -0.05182,
				"method": "rhf"
			},
			{
				"type": "unocc",
				"energy": -0.02256,
				"method": "rhf"
			},
			{
				"type": "unocc",
				"energy": 0.03395,
				"method": "rhf"
			},
			{
				"type": "unocc",
				"energy": 0.04932,
				"method": "rhf"
			},
			{
				"type": "unocc",
				"energy": 0.05274,
				"method": "rhf"
			}
		],
		"cosmo_sigma_profile": { 
			"-0.025": 0.0,
			"-0.024": 0.0,
			"-0.023": 0.0,
			"-0.022": 0.0,
			"-0.021": 0.0,
			"-0.02": 0.0,
			"-0.019": 0.0,
			"-0.018": 0.0,
			"-0.017": 0.0,
			"-0.016": 0.0,
			"-0.015": 0.0,
			"-0.014": 0.0,
			"-0.013": 0.0,
			"-0.012": 0.0,
			"-0.011": 0.0,
			"-0.01": 0.0,
			"-0.009": 0.0,
			"-0.008": 0.216800574286,
			"-0.007": 5.22468636564,
			"-0.006": 9.10395476346,
			"-0.005": 14.4569482666,
			"-0.004": 22.3359433373,
			"-0.003": 36.3211156244,
			"-0.002": 75.0209888024,
			"-0.001": 117.127354421,
			"0.0": 111.650918475,
			"0.001": 83.9801905958,
			"0.002": 60.8340065644,
			"0.003": 19.5347503513,
			"0.004": 8.88908106588,
			"0.005": 7.36315577385,
			"0.006": 5.46377684578,
			"0.007": 4.03160766066,
			"0.008": 3.80798097355,
			"0.009": 3.54780118541,
			"0.01": 3.84959904291,
			"0.011": 5.58319963943,
			"0.012": 5.42537407506,
			"0.013": 0.573137658321,
			"0.014": 0.0,
			"0.015": 0.0,
			"0.016": 0.0,
			"0.017": 0.0,
			"0.018": 0.0,
			"0.019": 0.0,
			"0.02": 0.0,
			"0.021": 0.0,
			"0.022": 0.0,
			"0.023": 0.0,
			"0.024": 0.0,
			"0.025": 0.0
		}
	}
}
