{
	 "smiles": "OC(=O)C1=CC(=CC=C1)[N+]([O-])=O", 
	 "Tm": 415.15, 
	 "num_atms": 17, 
	 "gaussian": { 
		 "optdone": 1, 
		 "sigma_profile": "yes", 
		 "theory": "DFT", 
		 "functional": "B3LYP", 
		 "basiset": "6-31G**", 
		 "properties": { 
			 "R2extent": 2906.1372, 
			 "electric_dipole_moment_norm": 2.45814147884, 
			 "electric_quadrupole_moment_norm": 21.2991635467, 
			 "total_energy": -625.309260892, 
			 "HOMO_LUMO_gap": 0.18125, 
			 "cosmo_polarized_energy": -16.44, 
			 "cosmo_cavitation_energy": 22.93, 
			 "cosmo_dispersion_energy": -16.9, 
			 "cosmo_repulsion_energy": 1.34, 
			 "cosmo_total_nonelectrostatic_energy": 7.37, 
			 "SMD_solvation_energy": 7.5 
		},
		"coords": [
			{
				"x": 3.3083033896,
				"y": 1.7027398472,
				"z": -0.2832589092,
				"element": "O" 
			},
			{
				"x": 2.2719285775,
				"y": 1.1209191398,
				"z": -0.9347120557,
				"element": "C" 
			},
			{
				"x": 2.0377687333,
				"y": 1.4053661227,
				"z": -2.0848251628,
				"element": "O" 
			},
			{
				"x": 1.4469843646,
				"y": 0.1264032439,
				"z": -0.1645806583,
				"element": "C" 
			},
			{
				"x": 1.4377588675,
				"y": 0.062648851,
				"z": 1.2313357527,
				"element": "C" 
			},
			{
				"x": 0.6249104756,
				"y": -0.8798071708,
				"z": 1.855190592,
				"element": "C" 
			},
			{
				"x": -0.1805663313,
				"y": -1.7600702961,
				"z": 1.1377155302,
				"element": "C" 
			},
			{
				"x": -0.1739020842,
				"y": -1.6815153939,
				"z": -0.2552710914,
				"element": "C" 
			},
			{
				"x": 0.6256431599,
				"y": -0.7410952098,
				"z": -0.9014198579,
				"element": "C" 
			},
			{
				"x": 0.6176078507,
				"y": -0.9401131772,
				"z": 3.3282575057,
				"element": "N" 
			},
			{
				"x": -0.1089303829,
				"y": -1.7768456742,
				"z": 3.8588980599,
				"element": "O" 
			},
			{
				"x": 1.342791124,
				"y": -0.1499823385,
				"z": 3.9313934373,
				"element": "O" 
			},
			{
				"x": 3.4694536368,
				"y": 1.2746504759,
				"z": 0.5688228747,
				"element": "H" 
			},
			{
				"x": 2.0097300792,
				"y": 0.7352144279,
				"z": 1.8608419881,
				"element": "H" 
			},
			{
				"x": -0.7928939173,
				"y": -2.4759385425,
				"z": 1.6717232673,
				"element": "H" 
			},
			{
				"x": -0.7981793401,
				"y": -2.3537717316,
				"z": -0.8346572932,
				"element": "H" 
			},
			{
				"x": 0.6322917973,
				"y": -0.6555025739,
				"z": -1.9825539793,
				"element": "H" 
			}
		],
		 "valence_orbital": [ 
			{
				"type": "occ",
				"energy": -0.32553,
				"method": "rhf"
			},
			{
				"type": "occ",
				"energy": -0.30933,
				"method": "rhf"
			},
			{
				"type": "occ",
				"energy": -0.30314,
				"method": "rhf"
			},
			{
				"type": "occ",
				"energy": -0.30166,
				"method": "rhf"
			},
			{
				"type": "occ",
				"energy": -0.28899,
				"method": "rhf"
			},
			{
				"type": "unocc",
				"energy": -0.10774,
				"method": "rhf"
			},
			{
				"type": "unocc",
				"energy": -0.07464,
				"method": "rhf"
			},
			{
				"type": "unocc",
				"energy": -0.02539,
				"method": "rhf"
			},
			{
				"type": "unocc",
				"energy": 0.03165,
				"method": "rhf"
			},
			{
				"type": "unocc",
				"energy": 0.04375,
				"method": "rhf"
			}
		],
		"cosmo_sigma_profile": { 
			"-0.025": 0.0,
			"-0.024": 0.0,
			"-0.023": 0.0,
			"-0.022": 0.0,
			"-0.021": 0.0,
			"-0.02": 0.448139847048,
			"-0.019": 1.18658056066,
			"-0.018": 0.901894521761,
			"-0.017": 1.31077155167,
			"-0.016": 0.489924623032,
			"-0.015": 0.961994189653,
			"-0.014": 1.05559520264,
			"-0.013": 1.07781372241,
			"-0.012": 1.00800885677,
			"-0.011": 1.12547387305,
			"-0.01": 1.43604235963,
			"-0.009": 1.33113975273,
			"-0.008": 5.571899609,
			"-0.007": 9.91321059328,
			"-0.006": 8.91357136301,
			"-0.005": 8.5983236021,
			"-0.004": 9.63621052101,
			"-0.003": 11.35165967,
			"-0.002": 12.9122401287,
			"-0.001": 15.0378558053,
			"0.0": 13.6132963329,
			"0.001": 8.93592814283,
			"0.002": 3.85982825944,
			"0.003": 4.8674119596,
			"0.004": 4.18239858129,
			"0.005": 6.32212116698,
			"0.006": 6.57566096085,
			"0.007": 11.1662139668,
			"0.008": 8.60230553409,
			"0.009": 7.70099510849,
			"0.01": 6.38107925297,
			"0.011": 4.98974814772,
			"0.012": 2.74239032387,
			"0.013": 0.514495925711,
			"0.014": 0.0,
			"0.015": 0.0,
			"0.016": 0.0,
			"0.017": 0.0,
			"0.018": 0.0,
			"0.019": 0.0,
			"0.02": 0.0,
			"0.021": 0.0,
			"0.022": 0.0,
			"0.023": 0.0,
			"0.024": 0.0,
			"0.025": 0.0
		}
	}
}
