{
	 "smiles": "CC1=CC(=CC(C)=C1)S(Cl)(=O)=O", 
	 "Tm": 366.15, 
	 "num_atms": 21, 
	 "gaussian": { 
		 "optdone": 1, 
		 "sigma_profile": "yes", 
		 "theory": "DFT", 
		 "functional": "B3LYP", 
		 "basiset": "6-31G**", 
		 "properties": { 
			 "R2extent": 5564.4, 
			 "electric_dipole_moment_norm": 6.11682710725, 
			 "electric_quadrupole_moment_norm": 19.3411947583, 
			 "total_energy": -1319.0507488, 
			 "HOMO_LUMO_gap": 0.1827, 
			 "cosmo_polarized_energy": -8.88, 
			 "cosmo_cavitation_energy": 28.3, 
			 "cosmo_dispersion_energy": -20.88, 
			 "cosmo_repulsion_energy": 1.64, 
			 "cosmo_total_nonelectrostatic_energy": 9.07, 
			 "SMD_solvation_energy": 3.69 
		},
		"coords": [
			{
				"x": -0.572259991,
				"y": -1.328934699,
				"z": 0.6159920638,
				"element": "C" 
			},
			{
				"x": 0.449699132,
				"y": -0.2915580861,
				"z": 0.2158541147,
				"element": "C" 
			},
			{
				"x": 1.1175192879,
				"y": 0.462958686,
				"z": 1.1865942084,
				"element": "C" 
			},
			{
				"x": 2.0237014587,
				"y": 1.4362507034,
				"z": 0.7709452642,
				"element": "C" 
			},
			{
				"x": 2.3004600572,
				"y": 1.6932919913,
				"z": -0.5702136332,
				"element": "C" 
			},
			{
				"x": 1.6431638822,
				"y": 0.9392411608,
				"z": -1.5484239681,
				"element": "C" 
			},
			{
				"x": 1.9324022748,
				"y": 1.1603795921,
				"z": -3.0141259219,
				"element": "C" 
			},
			{
				"x": 0.7298509139,
				"y": -0.039731116,
				"z": -1.1340616849,
				"element": "C" 
			},
			{
				"x": 2.8582577059,
				"y": 2.4107721345,
				"z": 2.0153031934,
				"element": "S" 
			},
			{
				"x": 4.6111518426,
				"y": 1.23318929,
				"z": 2.3668747483,
				"element": "Cl" 
			},
			{
				"x": 3.3259929094,
				"y": 3.6598109881,
				"z": 1.4262229212,
				"element": "O" 
			},
			{
				"x": 2.0959732784,
				"y": 2.3753329453,
				"z": 3.257696295,
				"element": "O" 
			},
			{
				"x": -0.6141364723,
				"y": -2.1470475905,
				"z": -0.108677481,
				"element": "H" 
			},
			{
				"x": -1.5752560195,
				"y": -0.8887769077,
				"z": 0.6721512926,
				"element": "H" 
			},
			{
				"x": -0.3465369196,
				"y": -1.7540970326,
				"z": 1.5977658063,
				"element": "H" 
			},
			{
				"x": 0.9301753773,
				"y": 0.3083519805,
				"z": 2.243678179,
				"element": "H" 
			},
			{
				"x": 3.007600187,
				"y": 2.4695777233,
				"z": -0.841769513,
				"element": "H" 
			},
			{
				"x": 2.234407728,
				"y": 2.1928546682,
				"z": -3.2100667717,
				"element": "H" 
			},
			{
				"x": 1.0575052523,
				"y": 0.9377591557,
				"z": -3.6314897954,
				"element": "H" 
			},
			{
				"x": 2.7478020581,
				"y": 0.5103147319,
				"z": -3.353910606,
				"element": "H" 
			},
			{
				"x": 0.2152260569,
				"y": -0.6268403193,
				"z": -1.8917387115,
				"element": "H" 
			}
		],
		 "valence_orbital": [ 
			{
				"type": "occ",
				"energy": -0.32991,
				"method": "rhf"
			},
			{
				"type": "occ",
				"energy": -0.32453,
				"method": "rhf"
			},
			{
				"type": "occ",
				"energy": -0.30813,
				"method": "rhf"
			},
			{
				"type": "occ",
				"energy": -0.27836,
				"method": "rhf"
			},
			{
				"type": "occ",
				"energy": -0.26816,
				"method": "rhf"
			},
			{
				"type": "unocc",
				"energy": -0.08546,
				"method": "rhf"
			},
			{
				"type": "unocc",
				"energy": -0.0379,
				"method": "rhf"
			},
			{
				"type": "unocc",
				"energy": -0.02936,
				"method": "rhf"
			},
			{
				"type": "unocc",
				"energy": 0.0561,
				"method": "rhf"
			},
			{
				"type": "unocc",
				"energy": 0.07892,
				"method": "rhf"
			}
		],
		"cosmo_sigma_profile": { 
			"-0.025": 0.0,
			"-0.024": 0.0,
			"-0.023": 0.0,
			"-0.022": 0.0,
			"-0.021": 0.0,
			"-0.02": 0.0,
			"-0.019": 0.0,
			"-0.018": 0.0,
			"-0.017": 0.0,
			"-0.016": 0.0,
			"-0.015": 0.0,
			"-0.014": 0.0,
			"-0.013": 0.0,
			"-0.012": 0.0,
			"-0.011": 0.0,
			"-0.01": 0.0,
			"-0.009": 0.0,
			"-0.008": 0.538435752798,
			"-0.007": 3.51707299626,
			"-0.006": 8.65557610878,
			"-0.005": 18.1087237165,
			"-0.004": 17.425542985,
			"-0.003": 17.9896790177,
			"-0.002": 22.0627496192,
			"-0.001": 25.7549203844,
			"0.0": 21.0907016084,
			"0.001": 16.4126042007,
			"0.002": 20.4590591342,
			"0.003": 14.1547766775,
			"0.004": 13.796721228,
			"0.005": 3.28166376616,
			"0.006": 3.26772111795,
			"0.007": 5.32120383541,
			"0.008": 10.1369259858,
			"0.009": 5.71670085284,
			"0.01": 0.191458869447,
			"0.011": 0.0,
			"0.012": 0.0,
			"0.013": 0.0,
			"0.014": 0.0,
			"0.015": 0.0,
			"0.016": 0.0,
			"0.017": 0.0,
			"0.018": 0.0,
			"0.019": 0.0,
			"0.02": 0.0,
			"0.021": 0.0,
			"0.022": 0.0,
			"0.023": 0.0,
			"0.024": 0.0,
			"0.025": 0.0
		}
	}
}
