{
	 "smiles": "CNCC(O)C1=CC=CC=C1", 
	 "Tm": 348.15, 
	 "num_atms": 24, 
	 "gaussian": { 
		 "optdone": 1, 
		 "sigma_profile": "yes", 
		 "theory": "DFT", 
		 "functional": "B3LYP", 
		 "basiset": "6-31G**", 
		 "properties": { 
			 "R2extent": 2998.8676, 
			 "electric_dipole_moment_norm": 0.69143478362, 
			 "electric_quadrupole_moment_norm": 11.2348832152, 
			 "total_energy": -480.749655052, 
			 "HOMO_LUMO_gap": 0.20512, 
			 "cosmo_polarized_energy": -9.68, 
			 "cosmo_cavitation_energy": 26.23, 
			 "cosmo_dispersion_energy": -18.81, 
			 "cosmo_repulsion_energy": 1.52, 
			 "cosmo_total_nonelectrostatic_energy": 8.94, 
			 "SMD_solvation_energy": 2.25 
		},
		"coords": [
			{
				"x": -1.5139849622,
				"y": -0.4772205831,
				"z": 0.0807998194,
				"element": "C" 
			},
			{
				"x": -1.1996150585,
				"y": 0.5350048811,
				"z": 1.0864188063,
				"element": "N" 
			},
			{
				"x": -0.5900034505,
				"y": 0.065115922,
				"z": 2.317984016,
				"element": "C" 
			},
			{
				"x": 0.8929477031,
				"y": -0.4024936968,
				"z": 2.2812874274,
				"element": "C" 
			},
			{
				"x": 1.0749142357,
				"y": -1.559164428,
				"z": 1.4670722584,
				"element": "O" 
			},
			{
				"x": 1.8128865995,
				"y": 0.6910077456,
				"z": 1.7737065461,
				"element": "C" 
			},
			{
				"x": 2.2644315102,
				"y": 0.7085835991,
				"z": 0.4485068472,
				"element": "C" 
			},
			{
				"x": 3.0705603565,
				"y": 1.7532246589,
				"z": -0.0104549999,
				"element": "C" 
			},
			{
				"x": 3.4323429668,
				"y": 2.7938389986,
				"z": 0.8456981522,
				"element": "C" 
			},
			{
				"x": 2.9877129926,
				"y": 2.7822851135,
				"z": 2.1699734846,
				"element": "C" 
			},
			{
				"x": 2.1866125044,
				"y": 1.7371488355,
				"z": 2.6286082389,
				"element": "C" 
			},
			{
				"x": -2.1965738244,
				"y": -1.2154399132,
				"z": 0.5204709349,
				"element": "H" 
			},
			{
				"x": -2.0481886149,
				"y": -0.0005610253,
				"z": -0.7479445125,
				"element": "H" 
			},
			{
				"x": -0.6498066409,
				"y": -1.0203191523,
				"z": -0.327821557,
				"element": "H" 
			},
			{
				"x": -0.628673294,
				"y": 1.2702708593,
				"z": 0.6786840559,
				"element": "H" 
			},
			{
				"x": -1.2018505358,
				"y": -0.7641173988,
				"z": 2.7047930212,
				"element": "H" 
			},
			{
				"x": -0.6560976797,
				"y": 0.8666806379,
				"z": 3.0661069165,
				"element": "H" 
			},
			{
				"x": 1.1759619451,
				"y": -0.6290107174,
				"z": 3.3248834923,
				"element": "H" 
			},
			{
				"x": 0.4080751434,
				"y": -2.2077894133,
				"z": 1.7252381496,
				"element": "H" 
			},
			{
				"x": 1.9986061929,
				"y": -0.1115013906,
				"z": -0.2088252189,
				"element": "H" 
			},
			{
				"x": 3.4189131979,
				"y": 1.7502940487,
				"z": -1.0397329688,
				"element": "H" 
			},
			{
				"x": 4.0606938242,
				"y": 3.6043532639,
				"z": 0.4875902476,
				"element": "H" 
			},
			{
				"x": 3.2708276424,
				"y": 3.5829335568,
				"z": 2.8475912403,
				"element": "H" 
			},
			{
				"x": 1.8537072463,
				"y": 1.7295755979,
				"z": 3.6642656025,
				"element": "H" 
			}
		],
		 "valence_orbital": [ 
			{
				"type": "occ",
				"energy": -0.32323,
				"method": "rhf"
			},
			{
				"type": "occ",
				"energy": -0.28405,
				"method": "rhf"
			},
			{
				"type": "occ",
				"energy": -0.24738,
				"method": "rhf"
			},
			{
				"type": "occ",
				"energy": -0.24225,
				"method": "rhf"
			},
			{
				"type": "occ",
				"energy": -0.20634,
				"method": "rhf"
			},
			{
				"type": "unocc",
				"energy": -0.00122,
				"method": "rhf"
			},
			{
				"type": "unocc",
				"energy": 0.00204,
				"method": "rhf"
			},
			{
				"type": "unocc",
				"energy": 0.06711,
				"method": "rhf"
			},
			{
				"type": "unocc",
				"energy": 0.09976,
				"method": "rhf"
			},
			{
				"type": "unocc",
				"energy": 0.11486,
				"method": "rhf"
			}
		],
		"cosmo_sigma_profile": { 
			"-0.025": 0.0,
			"-0.024": 0.0,
			"-0.023": 0.0,
			"-0.022": 0.0,
			"-0.021": 0.0,
			"-0.02": 0.0,
			"-0.019": 0.0,
			"-0.018": 0.0,
			"-0.017": 0.0,
			"-0.016": 0.00834521678696,
			"-0.015": 0.74536375849,
			"-0.014": 0.859678743446,
			"-0.013": 0.909316612902,
			"-0.012": 0.907076199203,
			"-0.011": 1.19278434541,
			"-0.01": 0.791708969391,
			"-0.009": 1.41451537088,
			"-0.008": 1.08651937365,
			"-0.007": 2.28412725821,
			"-0.006": 4.72213116731,
			"-0.005": 13.1945477401,
			"-0.004": 19.2773703098,
			"-0.003": 23.6591204217,
			"-0.002": 17.4960008433,
			"-0.001": 18.0868352888,
			"0.0": 19.2667594928,
			"0.001": 13.5409270115,
			"0.002": 9.19603517527,
			"0.003": 9.63581209087,
			"0.004": 9.51209371082,
			"0.005": 10.3074242859,
			"0.006": 9.78436529289,
			"0.007": 3.44379707283,
			"0.008": 1.99790327766,
			"0.009": 2.37514783719,
			"0.01": 1.58575374661,
			"0.011": 1.70535835379,
			"0.012": 1.60510264779,
			"0.013": 1.54335103667,
			"0.014": 1.26229612016,
			"0.015": 0.758204582274,
			"0.016": 0.461953248162,
			"0.017": 0.539816367514,
			"0.018": 0.410173610517,
			"0.019": 0.0271008454523,
			"0.02": 0.0,
			"0.021": 0.0,
			"0.022": 0.0,
			"0.023": 0.0,
			"0.024": 0.0,
			"0.025": 0.0
		}
	}
}
