{
	 "smiles": "CN(C)C1=CC(=CC=C1)C1=NN=C(S)N1N", 
	 "Tm": 483.15, 
	 "num_atms": 29, 
	 "gaussian": { 
		 "optdone": 1, 
		 "sigma_profile": "yes", 
		 "theory": "DFT", 
		 "functional": "B3LYP", 
		 "basiset": "6-31G**", 
		 "properties": { 
			 "R2extent": 6061.7165, 
			 "electric_dipole_moment_norm": 5.89314993361, 
			 "electric_quadrupole_moment_norm": 23.7080330785, 
			 "total_energy": -1060.77555955, 
			 "HOMO_LUMO_gap": 0.16288, 
			 "cosmo_polarized_energy": -20.8, 
			 "cosmo_cavitation_energy": 33.95, 
			 "cosmo_dispersion_energy": -25.12, 
			 "cosmo_repulsion_energy": 1.89, 
			 "cosmo_total_nonelectrostatic_energy": 10.72, 
			 "SMD_solvation_energy": 3.55 
		},
		"coords": [
			{
				"x": 0.8983526044,
				"y": -1.5199063684,
				"z": 3.76336791,
				"element": "C" 
			},
			{
				"x": 1.0051883388,
				"y": -0.9016749968,
				"z": 2.452856114,
				"element": "N" 
			},
			{
				"x": 1.5033715087,
				"y": -1.7200157346,
				"z": 1.361019296,
				"element": "C" 
			},
			{
				"x": 0.2121788309,
				"y": 0.2083368884,
				"z": 2.1628904318,
				"element": "C" 
			},
			{
				"x": 0.0998296868,
				"y": 0.6897538525,
				"z": 0.8400727136,
				"element": "C" 
			},
			{
				"x": -0.6629265582,
				"y": 1.8270671367,
				"z": 0.5450394077,
				"element": "C" 
			},
			{
				"x": -1.345311736,
				"y": 2.5027096037,
				"z": 1.572238256,
				"element": "C" 
			},
			{
				"x": -1.2503527883,
				"y": 2.0207881831,
				"z": 2.8717116071,
				"element": "C" 
			},
			{
				"x": -0.4922540965,
				"y": 0.8916275514,
				"z": 3.1771616975,
				"element": "C" 
			},
			{
				"x": -0.8105539381,
				"y": 2.3618334031,
				"z": -0.8180414092,
				"element": "C" 
			},
			{
				"x": -1.6176343801,
				"y": 3.3584562365,
				"z": -1.1250556833,
				"element": "N" 
			},
			{
				"x": -1.517445383,
				"y": 3.6285201902,
				"z": -2.4767892426,
				"element": "N" 
			},
			{
				"x": -0.6469410266,
				"y": 2.7839731636,
				"z": -2.9629090162,
				"element": "C" 
			},
			{
				"x": -0.093970621,
				"y": 2.6341491412,
				"z": -4.6340838511,
				"element": "S" 
			},
			{
				"x": -0.1618699206,
				"y": 1.9549647331,
				"z": -1.9789829101,
				"element": "N" 
			},
			{
				"x": 0.7936434745,
				"y": 0.94376775,
				"z": -2.1362168908,
				"element": "N" 
			},
			{
				"x": -0.1131292326,
				"y": -1.8982056932,
				"z": 3.9831134021,
				"element": "H" 
			},
			{
				"x": 1.172209507,
				"y": -0.8130049767,
				"z": 4.5544185108,
				"element": "H" 
			},
			{
				"x": 1.5955034231,
				"y": -2.3576945962,
				"z": 3.8208258284,
				"element": "H" 
			},
			{
				"x": 2.1217760644,
				"y": -2.5213213431,
				"z": 1.7695471519,
				"element": "H" 
			},
			{
				"x": 0.7003705366,
				"y": -2.1771727573,
				"z": 0.7599941456,
				"element": "H" 
			},
			{
				"x": 2.1339885351,
				"y": -1.131751866,
				"z": 0.685424877,
				"element": "H" 
			},
			{
				"x": 0.6075364532,
				"y": 0.1873285148,
				"z": 0.0318820937,
				"element": "H" 
			},
			{
				"x": -1.9362700746,
				"y": 3.3779201722,
				"z": 1.3325588118,
				"element": "H" 
			},
			{
				"x": -1.780376338,
				"y": 2.5302503318,
				"z": 3.6718277032,
				"element": "H" 
			},
			{
				"x": -0.4534471069,
				"y": 0.5487888955,
				"z": 4.2035070234,
				"element": "H" 
			},
			{
				"x": -0.8902853269,
				"y": 3.6313665521,
				"z": -5.0616481432,
				"element": "H" 
			},
			{
				"x": 0.4550566856,
				"y": 0.2683345572,
				"z": -2.8182669431,
				"element": "H" 
			},
			{
				"x": 1.6625628782,
				"y": 1.3533114752,
				"z": -2.4731628921,
				"element": "H" 
			}
		],
		 "valence_orbital": [ 
			{
				"type": "occ",
				"energy": -0.28209,
				"method": "rhf"
			},
			{
				"type": "occ",
				"energy": -0.2571,
				"method": "rhf"
			},
			{
				"type": "occ",
				"energy": -0.24662,
				"method": "rhf"
			},
			{
				"type": "occ",
				"energy": -0.21585,
				"method": "rhf"
			},
			{
				"type": "occ",
				"energy": -0.18739,
				"method": "rhf"
			},
			{
				"type": "unocc",
				"energy": -0.02451,
				"method": "rhf"
			},
			{
				"type": "unocc",
				"energy": -0.00251,
				"method": "rhf"
			},
			{
				"type": "unocc",
				"energy": 0.01853,
				"method": "rhf"
			},
			{
				"type": "unocc",
				"energy": 0.03198,
				"method": "rhf"
			},
			{
				"type": "unocc",
				"energy": 0.0453,
				"method": "rhf"
			}
		],
		"cosmo_sigma_profile": { 
			"-0.025": 0.0,
			"-0.024": 0.0,
			"-0.023": 0.0,
			"-0.022": 0.0,
			"-0.021": 0.0,
			"-0.02": 0.0,
			"-0.019": 0.0,
			"-0.018": 0.0,
			"-0.017": 0.0,
			"-0.016": 0.0,
			"-0.015": 0.00296194462817,
			"-0.014": 1.86545360671,
			"-0.013": 3.95345097067,
			"-0.012": 4.15546751583,
			"-0.011": 5.07350641313,
			"-0.01": 4.63015046037,
			"-0.009": 3.15310139707,
			"-0.008": 2.67037077291,
			"-0.007": 3.42681681767,
			"-0.006": 6.96250201166,
			"-0.005": 12.3979438506,
			"-0.004": 17.0682197759,
			"-0.003": 21.7401334098,
			"-0.002": 26.0961153988,
			"-0.001": 27.5343782883,
			"0.0": 15.1675471504,
			"0.001": 14.8374935481,
			"0.002": 14.0926725715,
			"0.003": 13.7659016946,
			"0.004": 15.8450639166,
			"0.005": 15.4091183401,
			"0.006": 15.3331896318,
			"0.007": 5.05349246493,
			"0.008": 2.56479050588,
			"0.009": 2.55681105684,
			"0.01": 2.09351544845,
			"0.011": 1.97789117177,
			"0.012": 2.63273248481,
			"0.013": 3.09565597048,
			"0.014": 3.75247560965,
			"0.015": 2.13564525596,
			"0.016": 1.32031321999,
			"0.017": 0.0746186851493,
			"0.018": 0.0,
			"0.019": 0.0,
			"0.02": 0.0,
			"0.021": 0.0,
			"0.022": 0.0,
			"0.023": 0.0,
			"0.024": 0.0,
			"0.025": 0.0
		}
	}
}
