{
	 "smiles": "C1=CC=C2C(C=CC3=CC=CC=C23)=C1", 
	 "Tm": 373.15, 
	 "num_atms": 24, 
	 "gaussian": { 
		 "optdone": 1, 
		 "sigma_profile": "yes", 
		 "theory": "DFT", 
		 "functional": "B3LYP", 
		 "basiset": "6-31G**", 
		 "properties": { 
			 "R2extent": 2798.3637, 
			 "electric_dipole_moment_norm": 0.0342702494884, 
			 "electric_quadrupole_moment_norm": 10.2104453693, 
			 "total_energy": -539.542776314, 
			 "HOMO_LUMO_gap": 0.17384, 
			 "cosmo_polarized_energy": -5.78, 
			 "cosmo_cavitation_energy": 26.9, 
			 "cosmo_dispersion_energy": -20.37, 
			 "cosmo_repulsion_energy": 1.53, 
			 "cosmo_total_nonelectrostatic_energy": 8.06, 
			 "SMD_solvation_energy": 4.0 
		},
		"coords": [
			{
				"x": 2.9371609014,
				"y": -0.6818096406,
				"z": -1.1495350205,
				"element": "C" 
			},
			{
				"x": 2.7528004733,
				"y": -1.3792441165,
				"z": 0.0590999281,
				"element": "C" 
			},
			{
				"x": 1.506261227,
				"y": -1.425719851,
				"z": 0.6570961241,
				"element": "C" 
			},
			{
				"x": 0.3860038307,
				"y": -0.7812010767,
				"z": 0.0812377476,
				"element": "C" 
			},
			{
				"x": 0.5794531089,
				"y": -0.0754800052,
				"z": -1.1443957327,
				"element": "C" 
			},
			{
				"x": -0.529903417,
				"y": 0.5929935983,
				"z": -1.7631801891,
				"element": "C" 
			},
			{
				"x": -1.7685733219,
				"y": 0.5678926025,
				"z": -1.2029911942,
				"element": "C" 
			},
			{
				"x": -2.0136189499,
				"y": -0.1281486699,
				"z": 0.0282271293,
				"element": "C" 
			},
			{
				"x": -3.3068121673,
				"y": -0.1472386042,
				"z": 0.6011394807,
				"element": "C" 
			},
			{
				"x": -3.5529589048,
				"y": -0.8140324921,
				"z": 1.785040961,
				"element": "C" 
			},
			{
				"x": -2.5006549467,
				"y": -1.4866433842,
				"z": 2.4342317824,
				"element": "C" 
			},
			{
				"x": -1.227603828,
				"y": -1.4818007495,
				"z": 1.8929841472,
				"element": "C" 
			},
			{
				"x": -0.9422377167,
				"y": -0.8083014503,
				"z": 0.6817929687,
				"element": "C" 
			},
			{
				"x": 1.8635153301,
				"y": -0.0421555014,
				"z": -1.7368621934,
				"element": "C" 
			},
			{
				"x": 3.9176421523,
				"y": -0.6480257949,
				"z": -1.6154195128,
				"element": "H" 
			},
			{
				"x": 3.593087546,
				"y": -1.8845381086,
				"z": 0.5264611782,
				"element": "H" 
			},
			{
				"x": 1.3968402214,
				"y": -1.9711704087,
				"z": 1.5878404284,
				"element": "H" 
			},
			{
				"x": -0.3561501347,
				"y": 1.1233377881,
				"z": -2.695968295,
				"element": "H" 
			},
			{
				"x": -2.6012618998,
				"y": 1.077844124,
				"z": -1.6806214723,
				"element": "H" 
			},
			{
				"x": -4.1097438999,
				"y": 0.3766188009,
				"z": 0.0884607478,
				"element": "H" 
			},
			{
				"x": -4.5508295316,
				"y": -0.8205355878,
				"z": 2.2136961198,
				"element": "H" 
			},
			{
				"x": -2.687416832,
				"y": -2.013139179,
				"z": 3.3657643345,
				"element": "H" 
			},
			{
				"x": -0.438453029,
				"y": -2.0092730242,
				"z": 2.4171989207,
				"element": "H" 
			},
			{
				"x": 1.9908537882,
				"y": 0.5004707307,
				"z": -2.6702983884,
				"element": "H" 
			}
		],
		 "valence_orbital": [ 
			{
				"type": "occ",
				"energy": -0.31159,
				"method": "rhf"
			},
			{
				"type": "occ",
				"energy": -0.28137,
				"method": "rhf"
			},
			{
				"type": "occ",
				"energy": -0.25973,
				"method": "rhf"
			},
			{
				"type": "occ",
				"energy": -0.22204,
				"method": "rhf"
			},
			{
				"type": "occ",
				"energy": -0.211,
				"method": "rhf"
			},
			{
				"type": "unocc",
				"energy": -0.03716,
				"method": "rhf"
			},
			{
				"type": "unocc",
				"energy": -0.03079,
				"method": "rhf"
			},
			{
				"type": "unocc",
				"energy": 0.00865,
				"method": "rhf"
			},
			{
				"type": "unocc",
				"energy": 0.03706,
				"method": "rhf"
			},
			{
				"type": "unocc",
				"energy": 0.08157,
				"method": "rhf"
			}
		],
		"cosmo_sigma_profile": { 
			"-0.025": 0.0,
			"-0.024": 0.0,
			"-0.023": 0.0,
			"-0.022": 0.0,
			"-0.021": 0.0,
			"-0.02": 0.0,
			"-0.019": 0.0,
			"-0.018": 0.0,
			"-0.017": 0.0,
			"-0.016": 0.0,
			"-0.015": 0.0,
			"-0.014": 0.0,
			"-0.013": 0.0,
			"-0.012": 0.0,
			"-0.011": 0.0,
			"-0.01": 0.0,
			"-0.009": 0.00550013775832,
			"-0.008": 1.08304627632,
			"-0.007": 1.69097280027,
			"-0.006": 13.6116862013,
			"-0.005": 20.5588153135,
			"-0.004": 20.1846087776,
			"-0.003": 17.2186005892,
			"-0.002": 13.0961506302,
			"-0.001": 10.9446207834,
			"0.0": 11.0438907066,
			"0.001": 12.927143214,
			"0.002": 13.2131201415,
			"0.003": 23.5650481788,
			"0.004": 29.5318364183,
			"0.005": 23.5141032919,
			"0.006": 4.5104208765,
			"0.007": 0.0,
			"0.008": 0.0,
			"0.009": 0.0,
			"0.01": 0.0,
			"0.011": 0.0,
			"0.012": 0.0,
			"0.013": 0.0,
			"0.014": 0.0,
			"0.015": 0.0,
			"0.016": 0.0,
			"0.017": 0.0,
			"0.018": 0.0,
			"0.019": 0.0,
			"0.02": 0.0,
			"0.021": 0.0,
			"0.022": 0.0,
			"0.023": 0.0,
			"0.024": 0.0,
			"0.025": 0.0
		}
	}
}
