{
	 "smiles": "OC1=C(C=O)C=C(Br)C=C1Br", 
	 "Tm": 357.65, 
	 "num_atms": 15, 
	 "gaussian": { 
		 "optdone": 1, 
		 "sigma_profile": "yes", 
		 "theory": "DFT", 
		 "functional": "B3LYP", 
		 "basiset": "6-31G**", 
		 "properties": { 
			 "R2extent": 4631.3488, 
			 "electric_dipole_moment_norm": 3.52911395537, 
			 "electric_quadrupole_moment_norm": 10.8500138244, 
			 "total_energy": -5562.39671704, 
			 "HOMO_LUMO_gap": 0.16536, 
			 "cosmo_polarized_energy": -8.64, 
			 "cosmo_cavitation_energy": 24.68, 
			 "cosmo_dispersion_energy": -19.07, 
			 "cosmo_repulsion_energy": 1.52, 
			 "cosmo_total_nonelectrostatic_energy": 7.14, 
			 "SMD_solvation_energy": 3.43 
		},
		"coords": [
			{
				"x": -1.6328817356,
				"y": -1.1706001683,
				"z": 1.1677469658,
				"element": "O" 
			},
			{
				"x": -0.3616917612,
				"y": -0.8873082108,
				"z": 0.8127413574,
				"element": "C" 
			},
			{
				"x": 0.6012596407,
				"y": -0.70075626,
				"z": 1.8252920979,
				"element": "C" 
			},
			{
				"x": 0.2327900913,
				"y": -0.812075061,
				"z": 3.2607323785,
				"element": "C" 
			},
			{
				"x": 1.0334323621,
				"y": -0.6582940283,
				"z": 4.1645445507,
				"element": "O" 
			},
			{
				"x": 1.9288378285,
				"y": -0.405648473,
				"z": 1.4886115427,
				"element": "C" 
			},
			{
				"x": 2.3043352144,
				"y": -0.2951331735,
				"z": 0.1584262133,
				"element": "C" 
			},
			{
				"x": 4.1113146534,
				"y": 0.1063893191,
				"z": -0.3022870898,
				"element": "Br" 
			},
			{
				"x": 1.3670153128,
				"y": -0.4759631982,
				"z": -0.8621468932,
				"element": "C" 
			},
			{
				"x": 0.0514079941,
				"y": -0.7685208634,
				"z": -0.5251678574,
				"element": "C" 
			},
			{
				"x": -1.2530347527,
				"y": -1.0214029605,
				"z": -1.9038631367,
				"element": "Br" 
			},
			{
				"x": -2.1699093518,
				"y": -1.2693588796,
				"z": 0.3637023131,
				"element": "H" 
			},
			{
				"x": -0.8275551734,
				"y": -1.046466639,
				"z": 3.465037015,
				"element": "H" 
			},
			{
				"x": 2.6383834491,
				"y": -0.2696009323,
				"z": 2.2967595202,
				"element": "H" 
			},
			{
				"x": 1.6571962283,
				"y": -0.3903604712,
				"z": -1.9018289774,
				"element": "H" 
			}
		],
		 "valence_orbital": [ 
			{
				"type": "occ",
				"energy": -0.30666,
				"method": "rhf"
			},
			{
				"type": "occ",
				"energy": -0.29968,
				"method": "rhf"
			},
			{
				"type": "occ",
				"energy": -0.27624,
				"method": "rhf"
			},
			{
				"type": "occ",
				"energy": -0.26339,
				"method": "rhf"
			},
			{
				"type": "occ",
				"energy": -0.24476,
				"method": "rhf"
			},
			{
				"type": "unocc",
				"energy": -0.0794,
				"method": "rhf"
			},
			{
				"type": "unocc",
				"energy": -0.03421,
				"method": "rhf"
			},
			{
				"type": "unocc",
				"energy": -0.02743,
				"method": "rhf"
			},
			{
				"type": "unocc",
				"energy": 0.00942,
				"method": "rhf"
			},
			{
				"type": "unocc",
				"energy": 0.01768,
				"method": "rhf"
			}
		],
		"cosmo_sigma_profile": { 
			"-0.025": 0.0,
			"-0.024": 0.0,
			"-0.023": 0.0,
			"-0.022": 0.0,
			"-0.021": 0.0,
			"-0.02": 0.0,
			"-0.019": 0.0,
			"-0.018": 0.0,
			"-0.017": 0.0,
			"-0.016": 0.0989835516552,
			"-0.015": 0.6137601175,
			"-0.014": 0.974041182573,
			"-0.013": 0.259986716641,
			"-0.012": 0.710794520996,
			"-0.011": 1.28267173998,
			"-0.01": 0.855453826607,
			"-0.009": 1.99811465667,
			"-0.008": 2.3992267359,
			"-0.007": 4.85984215927,
			"-0.006": 5.70243704707,
			"-0.005": 10.1433277559,
			"-0.004": 11.5495943911,
			"-0.003": 12.1876338464,
			"-0.002": 16.3786360223,
			"-0.001": 21.6593978284,
			"0.0": 24.9514947795,
			"0.001": 20.629733603,
			"0.002": 14.4353582113,
			"0.003": 16.545639473,
			"0.004": 13.874183682,
			"0.005": 4.37360669357,
			"0.006": 2.66217423028,
			"0.007": 3.59483456096,
			"0.008": 1.94428192269,
			"0.009": 2.28509079671,
			"0.01": 2.51648343985,
			"0.011": 4.15305807725,
			"0.012": 1.72442037167,
			"0.013": 0.277868718356,
			"0.014": 0.0,
			"0.015": 0.0,
			"0.016": 0.0,
			"0.017": 0.0,
			"0.018": 0.0,
			"0.019": 0.0,
			"0.02": 0.0,
			"0.021": 0.0,
			"0.022": 0.0,
			"0.023": 0.0,
			"0.024": 0.0,
			"0.025": 0.0
		}
	}
}
