{
	 "smiles": "ClCCSCCCl", 
	 "Tm": 286.65, 
	 "num_atms": 15, 
	 "gaussian": { 
		 "optdone": 1, 
		 "sigma_profile": "yes", 
		 "theory": "DFT", 
		 "functional": "B3LYP", 
		 "basiset": "6-31G**", 
		 "properties": { 
			 "R2extent": 3046.2884, 
			 "electric_dipole_moment_norm": 3.22795680733, 
			 "electric_quadrupole_moment_norm": 14.7973108398, 
			 "total_energy": -1475.82518807, 
			 "HOMO_LUMO_gap": 0.24695, 
			 "cosmo_polarized_energy": -9.98, 
			 "cosmo_cavitation_energy": 22.85, 
			 "cosmo_dispersion_energy": -17.41, 
			 "cosmo_repulsion_energy": 1.45, 
			 "cosmo_total_nonelectrostatic_energy": 6.89, 
			 "SMD_solvation_energy": 2.78 
		},
		"coords": [
			{
				"x": 2.642982999,
				"y": -2.8891412846,
				"z": -0.3902804166,
				"element": "Cl" 
			},
			{
				"x": 1.7228924399,
				"y": -1.540810571,
				"z": 0.407171686,
				"element": "C" 
			},
			{
				"x": 0.42195263,
				"y": -1.2167104196,
				"z": -0.3084682394,
				"element": "C" 
			},
			{
				"x": -0.7709293556,
				"y": -2.618636681,
				"z": -0.2059615099,
				"element": "S" 
			},
			{
				"x": -2.3859233419,
				"y": -1.7553137969,
				"z": -0.2779192408,
				"element": "C" 
			},
			{
				"x": -2.9227696672,
				"y": -1.4231108054,
				"z": -1.6640365633,
				"element": "C" 
			},
			{
				"x": -2.0479317749,
				"y": -0.0404585171,
				"z": -2.4568642211,
				"element": "Cl" 
			},
			{
				"x": 2.3855516428,
				"y": -0.6732413625,
				"z": 0.3930225715,
				"element": "H" 
			},
			{
				"x": 1.5501663057,
				"y": -1.8524704574,
				"z": 1.4380809765,
				"element": "H" 
			},
			{
				"x": -0.0279178786,
				"y": -0.3505099166,
				"z": 0.1891671847,
				"element": "H" 
			},
			{
				"x": 0.6086453171,
				"y": -0.9520971624,
				"z": -1.3505399423,
				"element": "H" 
			},
			{
				"x": -2.3656894299,
				"y": -0.8643441581,
				"z": 0.3571375238,
				"element": "H" 
			},
			{
				"x": -3.0870390663,
				"y": -2.4632377862,
				"z": 0.1799950297,
				"element": "H" 
			},
			{
				"x": -3.9692299475,
				"y": -1.1148149097,
				"z": -1.6030614756,
				"element": "H" 
			},
			{
				"x": -2.8314608726,
				"y": -2.2732021715,
				"z": -2.3406433632,
				"element": "H" 
			}
		],
		 "valence_orbital": [ 
			{
				"type": "occ",
				"energy": -0.30579,
				"method": "rhf"
			},
			{
				"type": "occ",
				"energy": -0.30252,
				"method": "rhf"
			},
			{
				"type": "occ",
				"energy": -0.29796,
				"method": "rhf"
			},
			{
				"type": "occ",
				"energy": -0.29284,
				"method": "rhf"
			},
			{
				"type": "occ",
				"energy": -0.23403,
				"method": "rhf"
			},
			{
				"type": "unocc",
				"energy": 0.01292,
				"method": "rhf"
			},
			{
				"type": "unocc",
				"energy": 0.01922,
				"method": "rhf"
			},
			{
				"type": "unocc",
				"energy": 0.03635,
				"method": "rhf"
			},
			{
				"type": "unocc",
				"energy": 0.06299,
				"method": "rhf"
			},
			{
				"type": "unocc",
				"energy": 0.08132,
				"method": "rhf"
			}
		],
		"cosmo_sigma_profile": { 
			"-0.025": 0.0,
			"-0.024": 0.0,
			"-0.023": 0.0,
			"-0.022": 0.0,
			"-0.021": 0.0,
			"-0.02": 0.0,
			"-0.019": 0.0,
			"-0.018": 0.0,
			"-0.017": 0.0,
			"-0.016": 0.0,
			"-0.015": 0.0,
			"-0.014": 0.0,
			"-0.013": 0.0,
			"-0.012": 0.0,
			"-0.011": 0.0,
			"-0.01": 0.0,
			"-0.009": 0.0,
			"-0.008": 2.96101691302,
			"-0.007": 17.3703501131,
			"-0.006": 17.4060084432,
			"-0.005": 15.308487564,
			"-0.004": 12.8747318699,
			"-0.003": 8.6263561993,
			"-0.002": 6.64562767292,
			"-0.001": 6.20045699028,
			"0.0": 8.22299480879,
			"0.001": 8.79280207675,
			"0.002": 10.03327743,
			"0.003": 9.93559633374,
			"0.004": 10.4611427994,
			"0.005": 13.4378706701,
			"0.006": 20.1243450627,
			"0.007": 10.9327456264,
			"0.008": 2.18700985562,
			"0.009": 2.35254432571,
			"0.01": 1.51104973789,
			"0.011": 0.215915472172,
			"0.012": 0.0,
			"0.013": 0.0,
			"0.014": 0.0,
			"0.015": 0.0,
			"0.016": 0.0,
			"0.017": 0.0,
			"0.018": 0.0,
			"0.019": 0.0,
			"0.02": 0.0,
			"0.021": 0.0,
			"0.022": 0.0,
			"0.023": 0.0,
			"0.024": 0.0,
			"0.025": 0.0
		}
	}
}
