{
	 "smiles": "COC1=CC=CC=C1P(Cl)C1=CC=CC=C1OC", 
	 "Tm": 386.15, 
	 "num_atms": 32, 
	 "gaussian": { 
		 "optdone": 1, 
		 "sigma_profile": "yes", 
		 "theory": "DFT", 
		 "functional": "B3LYP", 
		 "basiset": "6-31G**", 
		 "properties": { 
			 "R2extent": 5509.9544, 
			 "electric_dipole_moment_norm": 4.31810655844, 
			 "electric_quadrupole_moment_norm": 14.6859865406, 
			 "total_energy": -1493.91599445, 
			 "HOMO_LUMO_gap": 0.17754, 
			 "cosmo_polarized_energy": -12.87, 
			 "cosmo_cavitation_energy": 38.36, 
			 "cosmo_dispersion_energy": -27.11, 
			 "cosmo_repulsion_energy": 2.22, 
			 "cosmo_total_nonelectrostatic_energy": 13.47, 
			 "SMD_solvation_energy": 7.73 
		},
		"coords": [
			{
				"x": 2.9211678008,
				"y": -2.1633567221,
				"z": 0.4310935552,
				"element": "C" 
			},
			{
				"x": 1.6952883306,
				"y": -1.4574067809,
				"z": 0.3141906085,
				"element": "O" 
			},
			{
				"x": 0.7602230057,
				"y": -1.581971528,
				"z": 1.3033983767,
				"element": "C" 
			},
			{
				"x": 0.9538860238,
				"y": -2.3047611036,
				"z": 2.4828811778,
				"element": "C" 
			},
			{
				"x": -0.0695912444,
				"y": -2.3509359435,
				"z": 3.4342067352,
				"element": "C" 
			},
			{
				"x": -1.2713301684,
				"y": -1.6843684722,
				"z": 3.2121933253,
				"element": "C" 
			},
			{
				"x": -1.4572548412,
				"y": -0.9655781002,
				"z": 2.0270467527,
				"element": "C" 
			},
			{
				"x": -0.4534333374,
				"y": -0.9007599138,
				"z": 1.0578537753,
				"element": "C" 
			},
			{
				"x": -0.6056481986,
				"y": -0.1343113187,
				"z": -0.6237431255,
				"element": "P" 
			},
			{
				"x": -2.6196870983,
				"y": 0.5923315671,
				"z": -0.5376100646,
				"element": "Cl" 
			},
			{
				"x": 0.307591061,
				"y": 1.4539822151,
				"z": -0.3810121256,
				"element": "C" 
			},
			{
				"x": 0.8269436501,
				"y": 1.8891074586,
				"z": 0.8424213872,
				"element": "C" 
			},
			{
				"x": 1.5621755176,
				"y": 3.0719486492,
				"z": 0.9405257289,
				"element": "C" 
			},
			{
				"x": 1.7796149144,
				"y": 3.8387603092,
				"z": -0.2021066325,
				"element": "C" 
			},
			{
				"x": 1.2687744506,
				"y": 3.4364263359,
				"z": -1.4379711205,
				"element": "C" 
			},
			{
				"x": 0.5332796083,
				"y": 2.249328018,
				"z": -1.5293254584,
				"element": "C" 
			},
			{
				"x": -0.0140940722,
				"y": 1.7838510021,
				"z": -2.685534778,
				"element": "O" 
			},
			{
				"x": 0.1510082349,
				"y": 2.5330393571,
				"z": -3.8792132845,
				"element": "C" 
			},
			{
				"x": 3.4808948795,
				"y": -1.9455490846,
				"z": -0.4792368349,
				"element": "H" 
			},
			{
				"x": 2.7559177415,
				"y": -3.2452483196,
				"z": 0.5066443988,
				"element": "H" 
			},
			{
				"x": 3.4980234415,
				"y": -1.8237345359,
				"z": 1.3004112325,
				"element": "H" 
			},
			{
				"x": 1.8862079439,
				"y": -2.8252837057,
				"z": 2.6675230958,
				"element": "H" 
			},
			{
				"x": 0.0833711709,
				"y": -2.91427812,
				"z": 4.3503346448,
				"element": "H" 
			},
			{
				"x": -2.0648562084,
				"y": -1.7208030911,
				"z": 3.9520847623,
				"element": "H" 
			},
			{
				"x": -2.3959868419,
				"y": -0.4529976298,
				"z": 1.8484452647,
				"element": "H" 
			},
			{
				"x": 0.6495054658,
				"y": 1.2926735113,
				"z": 1.7311635637,
				"element": "H" 
			},
			{
				"x": 1.9553915096,
				"y": 3.3907769222,
				"z": 1.9008384793,
				"element": "H" 
			},
			{
				"x": 2.3486689461,
				"y": 4.7622714229,
				"z": -0.1404771223,
				"element": "H" 
			},
			{
				"x": 1.4426565915,
				"y": 4.0478788522,
				"z": -2.3152595204,
				"element": "H" 
			},
			{
				"x": -0.2943878617,
				"y": 3.5317704214,
				"z": -3.7914260965,
				"element": "H" 
			},
			{
				"x": -0.3700213896,
				"y": 1.9733377762,
				"z": -4.6567931887,
				"element": "H" 
			},
			{
				"x": 1.2097009741,
				"y": 2.6316605513,
				"z": -4.1508475123,
				"element": "H" 
			}
		],
		 "valence_orbital": [ 
			{
				"type": "occ",
				"energy": -0.26116,
				"method": "rhf"
			},
			{
				"type": "occ",
				"energy": -0.25323,
				"method": "rhf"
			},
			{
				"type": "occ",
				"energy": -0.23357,
				"method": "rhf"
			},
			{
				"type": "occ",
				"energy": -0.22321,
				"method": "rhf"
			},
			{
				"type": "occ",
				"energy": -0.21494,
				"method": "rhf"
			},
			{
				"type": "unocc",
				"energy": -0.0374,
				"method": "rhf"
			},
			{
				"type": "unocc",
				"energy": -0.01352,
				"method": "rhf"
			},
			{
				"type": "unocc",
				"energy": 0.00524,
				"method": "rhf"
			},
			{
				"type": "unocc",
				"energy": 0.01162,
				"method": "rhf"
			},
			{
				"type": "unocc",
				"energy": 0.02605,
				"method": "rhf"
			}
		],
		"cosmo_sigma_profile": { 
			"-0.025": 0.0,
			"-0.024": 0.0,
			"-0.023": 0.0,
			"-0.022": 0.0,
			"-0.021": 0.0,
			"-0.02": 0.0,
			"-0.019": 0.0,
			"-0.018": 0.0,
			"-0.017": 0.0,
			"-0.016": 0.0,
			"-0.015": 0.0,
			"-0.014": 0.0,
			"-0.013": 0.0,
			"-0.012": 0.0,
			"-0.011": 0.0,
			"-0.01": 0.0,
			"-0.009": 0.0,
			"-0.008": 0.0,
			"-0.007": 3.95256120231,
			"-0.006": 23.8472415146,
			"-0.005": 28.9745363364,
			"-0.004": 33.4709320899,
			"-0.003": 26.0312242752,
			"-0.002": 17.6029492039,
			"-0.001": 13.2595655005,
			"0.0": 18.4255739476,
			"0.001": 17.4244897081,
			"0.002": 20.951898452,
			"0.003": 20.8272568299,
			"0.004": 26.3203101758,
			"0.005": 25.4641808291,
			"0.006": 14.6970242109,
			"0.007": 10.6663512703,
			"0.008": 2.9975078253,
			"0.009": 2.35518184964,
			"0.01": 1.49128131656,
			"0.011": 0.0845570479174,
			"0.012": 0.0,
			"0.013": 0.0,
			"0.014": 0.0,
			"0.015": 0.0,
			"0.016": 0.0,
			"0.017": 0.0,
			"0.018": 0.0,
			"0.019": 0.0,
			"0.02": 0.0,
			"0.021": 0.0,
			"0.022": 0.0,
			"0.023": 0.0,
			"0.024": 0.0,
			"0.025": 0.0
		}
	}
}
