{
	 "smiles": "OC(=O)CCCS(=O)C1=CC=C(Br)C=C1", 
	 "Tm": 395.15, 
	 "num_atms": 26, 
	 "gaussian": { 
		 "optdone": 1, 
		 "sigma_profile": "yes", 
		 "theory": "DFT", 
		 "functional": "B3LYP", 
		 "basiset": "6-31G**", 
		 "properties": { 
			 "R2extent": 9642.8009, 
			 "electric_dipole_moment_norm": 3.85703286219, 
			 "electric_quadrupole_moment_norm": 19.2421201896, 
			 "total_energy": -3582.91800502, 
			 "HOMO_LUMO_gap": 0.19427, 
			 "cosmo_polarized_energy": -21.34, 
			 "cosmo_cavitation_energy": 33.97, 
			 "cosmo_dispersion_energy": -24.67, 
			 "cosmo_repulsion_energy": 1.92, 
			 "cosmo_total_nonelectrostatic_energy": 11.22, 
			 "SMD_solvation_energy": 5.01 
		},
		"coords": [
			{
				"x": 0.0448293974,
				"y": 2.1460006618,
				"z": -4.2953570327,
				"element": "O" 
			},
			{
				"x": 0.759167799,
				"y": 1.9817277308,
				"z": -3.1488967131,
				"element": "C" 
			},
			{
				"x": 1.6593563497,
				"y": 2.7398583408,
				"z": -2.8842692581,
				"element": "O" 
			},
			{
				"x": 0.3400484724,
				"y": 0.7991134698,
				"z": -2.2898817146,
				"element": "C" 
			},
			{
				"x": 1.0799504849,
				"y": 0.771854844,
				"z": -0.948066187,
				"element": "C" 
			},
			{
				"x": 0.7754368118,
				"y": -0.4620078532,
				"z": -0.0977355105,
				"element": "C" 
			},
			{
				"x": -0.9297307678,
				"y": -0.555592492,
				"z": 0.6384635575,
				"element": "S" 
			},
			{
				"x": -1.9374172148,
				"y": -0.1797599622,
				"z": -0.4346483302,
				"element": "O" 
			},
			{
				"x": -0.7960964463,
				"y": 0.8808933816,
				"z": 1.7521482777,
				"element": "C" 
			},
			{
				"x": -0.0228788126,
				"y": 0.8170112689,
				"z": 2.9137755876,
				"element": "C" 
			},
			{
				"x": 0.0130019109,
				"y": 1.91031367,
				"z": 3.7780063046,
				"element": "C" 
			},
			{
				"x": -0.7405604955,
				"y": 3.0454269928,
				"z": 3.4715469554,
				"element": "C" 
			},
			{
				"x": -0.6982940407,
				"y": 4.5386217605,
				"z": 4.6588975933,
				"element": "Br" 
			},
			{
				"x": -1.5298121001,
				"y": 3.1052002834,
				"z": 2.323633482,
				"element": "C" 
			},
			{
				"x": -1.5592841717,
				"y": 2.0090258519,
				"z": 1.4600776308,
				"element": "C" 
			},
			{
				"x": -0.6567156898,
				"y": 1.4808709014,
				"z": -4.3468477636,
				"element": "H" 
			},
			{
				"x": -0.7422194805,
				"y": 0.8151296494,
				"z": -2.1209002956,
				"element": "H" 
			},
			{
				"x": 0.5452736673,
				"y": -0.1190074625,
				"z": -2.8598957937,
				"element": "H" 
			},
			{
				"x": 0.8530155852,
				"y": 1.6830277133,
				"z": -0.3855563599,
				"element": "H" 
			},
			{
				"x": 2.1585485974,
				"y": 0.8024994555,
				"z": -1.1371882649,
				"element": "H" 
			},
			{
				"x": 1.4548931414,
				"y": -0.5419168257,
				"z": 0.7577276648,
				"element": "H" 
			},
			{
				"x": 0.8646752686,
				"y": -1.3857872657,
				"z": -0.6804584681,
				"element": "H" 
			},
			{
				"x": 0.5474481807,
				"y": -0.0760400827,
				"z": 3.1567375843,
				"element": "H" 
			},
			{
				"x": 0.611403,
				"y": 1.8809225512,
				"z": 4.6813018967,
				"element": "H" 
			},
			{
				"x": -2.1136585575,
				"y": 3.9930852085,
				"z": 2.1092769643,
				"element": "H" 
			},
			{
				"x": -2.1740808894,
				"y": 2.0088282083,
				"z": 0.5650081929,
				"element": "H" 
			}
		],
		 "valence_orbital": [ 
			{
				"type": "occ",
				"energy": -0.28283,
				"method": "rhf"
			},
			{
				"type": "occ",
				"energy": -0.27906,
				"method": "rhf"
			},
			{
				"type": "occ",
				"energy": -0.27039,
				"method": "rhf"
			},
			{
				"type": "occ",
				"energy": -0.26289,
				"method": "rhf"
			},
			{
				"type": "occ",
				"energy": -0.23655,
				"method": "rhf"
			},
			{
				"type": "unocc",
				"energy": -0.04228,
				"method": "rhf"
			},
			{
				"type": "unocc",
				"energy": -0.03268,
				"method": "rhf"
			},
			{
				"type": "unocc",
				"energy": -0.0041,
				"method": "rhf"
			},
			{
				"type": "unocc",
				"energy": 0.01166,
				"method": "rhf"
			},
			{
				"type": "unocc",
				"energy": 0.02501,
				"method": "rhf"
			}
		],
		"cosmo_sigma_profile": { 
			"-0.025": 0.0,
			"-0.024": 0.0,
			"-0.023": 0.0,
			"-0.022": 0.0,
			"-0.021": 0.0,
			"-0.02": 0.0,
			"-0.019": 0.489092003551,
			"-0.018": 1.05519435434,
			"-0.017": 1.12614121519,
			"-0.016": 1.21317582207,
			"-0.015": 0.881600512695,
			"-0.014": 0.814780822183,
			"-0.013": 0.626104630888,
			"-0.012": 1.19739178674,
			"-0.011": 1.58459453748,
			"-0.01": 2.22533328087,
			"-0.009": 2.20078695982,
			"-0.008": 6.03274813278,
			"-0.007": 15.1236802203,
			"-0.006": 15.8298982116,
			"-0.005": 14.9555817667,
			"-0.004": 17.495621151,
			"-0.003": 17.1426098745,
			"-0.002": 18.1262083408,
			"-0.001": 13.8665962527,
			"0.0": 16.0414191161,
			"0.001": 21.2880407546,
			"0.002": 24.8668780176,
			"0.003": 14.2511384794,
			"0.004": 15.0674311922,
			"0.005": 6.78767179895,
			"0.006": 3.70103490667,
			"0.007": 3.33052039813,
			"0.008": 3.86259474955,
			"0.009": 4.62390455804,
			"0.01": 5.63783117682,
			"0.011": 6.59215134998,
			"0.012": 6.97374864466,
			"0.013": 4.62702503123,
			"0.014": 2.32549552644,
			"0.015": 2.03251177646,
			"0.016": 0.335246940962,
			"0.017": 0.0,
			"0.018": 0.0,
			"0.019": 0.0,
			"0.02": 0.0,
			"0.021": 0.0,
			"0.022": 0.0,
			"0.023": 0.0,
			"0.024": 0.0,
			"0.025": 0.0
		}
	}
}
