{
	 "smiles": "CC(C)OC1=CC=CC(NC(=O)C2=CC=CC=C2C(F)(F)F)=C1", 
	 "Tm": 378.15, 
	 "num_atms": 39, 
	 "gaussian": { 
		 "optdone": 1, 
		 "sigma_profile": "yes", 
		 "theory": "DFT", 
		 "functional": "B3LYP", 
		 "basiset": "6-31G**", 
		 "properties": { 
			 "R2extent": 10230.892, 
			 "electric_dipole_moment_norm": 5.80924810109, 
			 "electric_quadrupole_moment_norm": 24.3672386119, 
			 "total_energy": -1162.18584897, 
			 "HOMO_LUMO_gap": 0.18594, 
			 "cosmo_polarized_energy": -15.16, 
			 "cosmo_cavitation_energy": 43.49, 
			 "cosmo_dispersion_energy": -28.8, 
			 "cosmo_repulsion_energy": 2.16, 
			 "cosmo_total_nonelectrostatic_energy": 16.84, 
			 "SMD_solvation_energy": 8.86 
		},
		"coords": [
			{
				"x": 4.4485950393,
				"y": -1.5849277922,
				"z": -0.273158139,
				"element": "C" 
			},
			{
				"x": 3.8997851952,
				"y": -1.9406408006,
				"z": 1.1081153921,
				"element": "C" 
			},
			{
				"x": 4.1051433961,
				"y": -0.8206263248,
				"z": 2.1277750293,
				"element": "C" 
			},
			{
				"x": 2.5201588887,
				"y": -2.3892992071,
				"z": 1.0488218338,
				"element": "O" 
			},
			{
				"x": 1.545678207,
				"y": -1.5267816193,
				"z": 0.598925916,
				"element": "C" 
			},
			{
				"x": 0.8828128369,
				"y": -0.6703332587,
				"z": 1.4868200294,
				"element": "C" 
			},
			{
				"x": -0.1635391306,
				"y": 0.1260877722,
				"z": 1.0215168522,
				"element": "C" 
			},
			{
				"x": -0.570978988,
				"y": 0.0740408005,
				"z": -0.3109989969,
				"element": "C" 
			},
			{
				"x": 0.099935771,
				"y": -0.7752495569,
				"z": -1.2002309534,
				"element": "C" 
			},
			{
				"x": -0.2946254283,
				"y": -0.892530719,
				"z": -2.5595984802,
				"element": "N" 
			},
			{
				"x": -0.7421437392,
				"y": 0.0708286479,
				"z": -3.4376802828,
				"element": "C" 
			},
			{
				"x": -1.2990082306,
				"y": -0.2374784506,
				"z": -4.4810194154,
				"element": "O" 
			},
			{
				"x": -0.3986976504,
				"y": 1.5108957859,
				"z": -3.1348800996,
				"element": "C" 
			},
			{
				"x": 0.9504277294,
				"y": 1.8627229744,
				"z": -3.0164541973,
				"element": "C" 
			},
			{
				"x": 1.3342066479,
				"y": 3.1976799532,
				"z": -2.8909147736,
				"element": "C" 
			},
			{
				"x": 0.3654061237,
				"y": 4.199210688,
				"z": -2.867895742,
				"element": "C" 
			},
			{
				"x": -0.9839752251,
				"y": 3.8605221165,
				"z": -2.9678485629,
				"element": "C" 
			},
			{
				"x": -1.3718139045,
				"y": 2.5266468669,
				"z": -3.1096578785,
				"element": "C" 
			},
			{
				"x": -2.8458111435,
				"y": 2.2047677991,
				"z": -3.200653988,
				"element": "C" 
			},
			{
				"x": -3.1602271212,
				"y": 1.1206454114,
				"z": -2.4442411825,
				"element": "F" 
			},
			{
				"x": -3.6018672798,
				"y": 3.229979479,
				"z": -2.741121928,
				"element": "F" 
			},
			{
				"x": -3.2499311296,
				"y": 1.9507938039,
				"z": -4.4551196581,
				"element": "F" 
			},
			{
				"x": 1.1535387808,
				"y": -1.5757335166,
				"z": -0.742222843,
				"element": "C" 
			},
			{
				"x": 3.9574950229,
				"y": -0.6960878541,
				"z": -0.6814717998,
				"element": "H" 
			},
			{
				"x": 5.5212695109,
				"y": -1.3762048935,
				"z": -0.2058940488,
				"element": "H" 
			},
			{
				"x": 4.3055513841,
				"y": -2.4133384844,
				"z": -0.9729413373,
				"element": "H" 
			},
			{
				"x": 4.4122400284,
				"y": -2.8388795098,
				"z": 1.4683388315,
				"element": "H" 
			},
			{
				"x": 3.6140580683,
				"y": 0.1050806327,
				"z": 1.812610622,
				"element": "H" 
			},
			{
				"x": 3.7091081042,
				"y": -1.1100939368,
				"z": 3.1053628347,
				"element": "H" 
			},
			{
				"x": 5.1743009671,
				"y": -0.6127218477,
				"z": 2.2405799668,
				"element": "H" 
			},
			{
				"x": 1.1724296651,
				"y": -0.6590499596,
				"z": 2.5314583981,
				"element": "H" 
			},
			{
				"x": -0.6912706393,
				"y": 0.7759214967,
				"z": 1.7134510474,
				"element": "H" 
			},
			{
				"x": -1.4196293285,
				"y": 0.6528741636,
				"z": -0.6541037904,
				"element": "H" 
			},
			{
				"x": -0.4199846486,
				"y": -1.8294473355,
				"z": -2.9251787531,
				"element": "H" 
			},
			{
				"x": 1.7023064082,
				"y": 1.0802135124,
				"z": -3.0324503432,
				"element": "H" 
			},
			{
				"x": 2.3869052579,
				"y": 3.451646328,
				"z": -2.8101576367,
				"element": "H" 
			},
			{
				"x": 0.6539875516,
				"y": 5.2406274983,
				"z": -2.7645331683,
				"element": "H" 
			},
			{
				"x": -1.7445308195,
				"y": 4.6315090193,
				"z": -2.9281460189,
				"element": "H" 
			},
			{
				"x": 1.6674938219,
				"y": -2.2478696827,
				"z": -1.4215027356,
				"element": "H" 
			}
		],
		 "valence_orbital": [ 
			{
				"type": "occ",
				"energy": -0.27391,
				"method": "rhf"
			},
			{
				"type": "occ",
				"energy": -0.27286,
				"method": "rhf"
			},
			{
				"type": "occ",
				"energy": -0.25256,
				"method": "rhf"
			},
			{
				"type": "occ",
				"energy": -0.24831,
				"method": "rhf"
			},
			{
				"type": "occ",
				"energy": -0.23,
				"method": "rhf"
			},
			{
				"type": "unocc",
				"energy": -0.04406,
				"method": "rhf"
			},
			{
				"type": "unocc",
				"energy": -0.0255,
				"method": "rhf"
			},
			{
				"type": "unocc",
				"energy": -0.01201,
				"method": "rhf"
			},
			{
				"type": "unocc",
				"energy": -0.00753,
				"method": "rhf"
			},
			{
				"type": "unocc",
				"energy": 0.03518,
				"method": "rhf"
			}
		],
		"cosmo_sigma_profile": { 
			"-0.025": 0.0,
			"-0.024": 0.0,
			"-0.023": 0.0,
			"-0.022": 0.0,
			"-0.021": 0.0,
			"-0.02": 0.0,
			"-0.019": 0.0,
			"-0.018": 0.0,
			"-0.017": 0.0,
			"-0.016": 0.0,
			"-0.015": 0.35707744046,
			"-0.014": 1.0395365977,
			"-0.013": 0.747998775267,
			"-0.012": 1.40333002174,
			"-0.011": 0.711197110305,
			"-0.01": 1.16515901273,
			"-0.009": 1.25644026284,
			"-0.008": 1.6304181056,
			"-0.007": 7.14800609185,
			"-0.006": 13.996182634,
			"-0.005": 17.7237688762,
			"-0.004": 25.7763979126,
			"-0.003": 30.416887391,
			"-0.002": 28.080230016,
			"-0.001": 30.9891053145,
			"0.0": 34.25383529,
			"0.001": 27.1122038868,
			"0.002": 33.0017914088,
			"0.003": 36.1381850333,
			"0.004": 14.8250465566,
			"0.005": 7.61076726895,
			"0.006": 3.87058359292,
			"0.007": 2.91743282331,
			"0.008": 3.5062436714,
			"0.009": 2.9878359637,
			"0.01": 3.21398187443,
			"0.011": 4.03907934211,
			"0.012": 5.44892612778,
			"0.013": 3.95310752366,
			"0.014": 0.174660811376,
			"0.015": 0.0,
			"0.016": 0.0,
			"0.017": 0.0,
			"0.018": 0.0,
			"0.019": 0.0,
			"0.02": 0.0,
			"0.021": 0.0,
			"0.022": 0.0,
			"0.023": 0.0,
			"0.024": 0.0,
			"0.025": 0.0
		}
	}
}
