{
	 "smiles": "CC1C=CC(C2C1C(=O)N(C2=O)C1=CC=CC=C1)C(O)=O", 
	 "Tm": 493.15, 
	 "num_atms": 36, 
	 "gaussian": { 
		 "optdone": 1, 
		 "sigma_profile": "yes", 
		 "theory": "DFT", 
		 "functional": "B3LYP", 
		 "basiset": "6-31G**", 
		 "properties": { 
			 "R2extent": 6697.0251, 
			 "electric_dipole_moment_norm": 1.98040008332, 
			 "electric_quadrupole_moment_norm": 18.3512102217, 
			 "total_energy": -974.4152456, 
			 "HOMO_LUMO_gap": 0.20949, 
			 "cosmo_polarized_energy": -18.59, 
			 "cosmo_cavitation_energy": 39.14, 
			 "cosmo_dispersion_energy": -27.22, 
			 "cosmo_repulsion_energy": 2.08, 
			 "cosmo_total_nonelectrostatic_energy": 13.99, 
			 "SMD_solvation_energy": 8.72 
		},
		"coords": [
			{
				"x": -0.5384902222,
				"y": 0.8098207559,
				"z": -3.4023681899,
				"element": "C" 
			},
			{
				"x": -0.5970119071,
				"y": -0.4931070998,
				"z": -2.5822405409,
				"element": "C" 
			},
			{
				"x": -2.0190552757,
				"y": -1.006751066,
				"z": -2.4203266445,
				"element": "C" 
			},
			{
				"x": -2.7103883289,
				"y": -1.0474393425,
				"z": -1.2730801482,
				"element": "C" 
			},
			{
				"x": -2.1930834327,
				"y": -0.5322046379,
				"z": 0.0694189503,
				"element": "C" 
			},
			{
				"x": -0.9572374026,
				"y": 0.3160208354,
				"z": -0.2025482717,
				"element": "C" 
			},
			{
				"x": -0.0076853887,
				"y": -0.3855577827,
				"z": -1.1723898142,
				"element": "C" 
			},
			{
				"x": 1.3190485917,
				"y": 0.3119531446,
				"z": -0.9190920752,
				"element": "C" 
			},
			{
				"x": 2.2819754334,
				"y": 0.3785849439,
				"z": -1.651770599,
				"element": "O" 
			},
			{
				"x": 1.2519038071,
				"y": 0.8273871287,
				"z": 0.4003251992,
				"element": "N" 
			},
			{
				"x": -0.0509868945,
				"y": 0.7148633678,
				"z": 0.946502341,
				"element": "C" 
			},
			{
				"x": -0.358982367,
				"y": 0.9388034461,
				"z": 2.0962689071,
				"element": "O" 
			},
			{
				"x": 2.3690794181,
				"y": 1.3793665605,
				"z": 1.1045752318,
				"element": "C" 
			},
			{
				"x": 2.1873186399,
				"y": 2.4931788161,
				"z": 1.9322808436,
				"element": "C" 
			},
			{
				"x": 3.2767004064,
				"y": 3.0240403511,
				"z": 2.6211699688,
				"element": "C" 
			},
			{
				"x": 4.5455933769,
				"y": 2.4595343873,
				"z": 2.4822041326,
				"element": "C" 
			},
			{
				"x": 4.7203570336,
				"y": 1.3521710381,
				"z": 1.6509355883,
				"element": "C" 
			},
			{
				"x": 3.6373989441,
				"y": 0.8046529556,
				"z": 0.9646321644,
				"element": "C" 
			},
			{
				"x": -3.3233807781,
				"y": 0.1873778632,
				"z": 0.7983767102,
				"element": "C" 
			},
			{
				"x": -3.3471375343,
				"y": 1.5181708084,
				"z": 0.5560381254,
				"element": "O" 
			},
			{
				"x": -4.1513831575,
				"y": -0.3715486801,
				"z": 1.4800938705,
				"element": "O" 
			},
			{
				"x": -1.0084381343,
				"y": 0.6658106781,
				"z": -4.3803742107,
				"element": "H" 
			},
			{
				"x": 0.4993746953,
				"y": 1.1137677611,
				"z": -3.5613917114,
				"element": "H" 
			},
			{
				"x": -1.0709137084,
				"y": 1.6263288223,
				"z": -2.9033848182,
				"element": "H" 
			},
			{
				"x": -0.0275467472,
				"y": -1.2501369814,
				"z": -3.1375446083,
				"element": "H" 
			},
			{
				"x": -2.4969059841,
				"y": -1.382323619,
				"z": -3.3238303088,
				"element": "H" 
			},
			{
				"x": -3.7134176701,
				"y": -1.4674095157,
				"z": -1.2619837142,
				"element": "H" 
			},
			{
				"x": -1.948377829,
				"y": -1.3869196165,
				"z": 0.7136793814,
				"element": "H" 
			},
			{
				"x": -1.2877470499,
				"y": 1.2596755807,
				"z": -0.6560333507,
				"element": "H" 
			},
			{
				"x": 0.1449880251,
				"y": -1.4118087263,
				"z": -0.8017693685,
				"element": "H" 
			},
			{
				"x": 1.2021497555,
				"y": 2.927335039,
				"z": 2.047756392,
				"element": "H" 
			},
			{
				"x": 3.1296508329,
				"y": 3.8848256899,
				"z": 3.2666652381,
				"element": "H" 
			},
			{
				"x": 5.3917841046,
				"y": 2.8793307864,
				"z": 3.0178512226,
				"element": "H" 
			},
			{
				"x": 5.7036800917,
				"y": 0.9061500041,
				"z": 1.5351491505,
				"element": "H" 
			},
			{
				"x": 3.7768068636,
				"y": -0.0491927423,
				"z": 0.3138459909,
				"element": "H" 
			},
			{
				"x": -4.1050402074,
				"y": 1.870049046,
				"z": 1.0527589655,
				"element": "H" 
			}
		],
		 "valence_orbital": [ 
			{
				"type": "occ",
				"energy": -0.27811,
				"method": "rhf"
			},
			{
				"type": "occ",
				"energy": -0.26488,
				"method": "rhf"
			},
			{
				"type": "occ",
				"energy": -0.26433,
				"method": "rhf"
			},
			{
				"type": "occ",
				"energy": -0.25388,
				"method": "rhf"
			},
			{
				"type": "occ",
				"energy": -0.24037,
				"method": "rhf"
			},
			{
				"type": "unocc",
				"energy": -0.03088,
				"method": "rhf"
			},
			{
				"type": "unocc",
				"energy": -0.02284,
				"method": "rhf"
			},
			{
				"type": "unocc",
				"energy": -0.01134,
				"method": "rhf"
			},
			{
				"type": "unocc",
				"energy": -0.00438,
				"method": "rhf"
			},
			{
				"type": "unocc",
				"energy": 0.01896,
				"method": "rhf"
			}
		],
		"cosmo_sigma_profile": { 
			"-0.025": 0.0,
			"-0.024": 0.0,
			"-0.023": 0.0,
			"-0.022": 0.0,
			"-0.021": 0.0,
			"-0.02": 0.0,
			"-0.019": 0.118633454381,
			"-0.018": 0.956182348164,
			"-0.017": 1.0144072852,
			"-0.016": 0.897701572255,
			"-0.015": 0.38202895828,
			"-0.014": 0.930199634229,
			"-0.013": 0.826625304584,
			"-0.012": 0.814640568425,
			"-0.011": 0.619440333179,
			"-0.01": 1.45373863341,
			"-0.009": 3.09415019945,
			"-0.008": 6.00379555078,
			"-0.007": 7.86545208728,
			"-0.006": 16.4912496128,
			"-0.005": 25.1630081033,
			"-0.004": 27.8286709341,
			"-0.003": 22.49426991,
			"-0.002": 19.3603448256,
			"-0.001": 21.2348233517,
			"0.0": 21.6747205602,
			"0.001": 15.4546524204,
			"0.002": 15.6046454395,
			"0.003": 15.8052725417,
			"0.004": 18.497478948,
			"0.005": 16.3907105717,
			"0.006": 6.54959624762,
			"0.007": 6.94234634672,
			"0.008": 4.91639958009,
			"0.009": 5.24700715508,
			"0.01": 7.41431621661,
			"0.011": 12.6305543848,
			"0.012": 5.24793776076,
			"0.013": 0.378442284663,
			"0.014": 0.0,
			"0.015": 0.0,
			"0.016": 0.0,
			"0.017": 0.0,
			"0.018": 0.0,
			"0.019": 0.0,
			"0.02": 0.0,
			"0.021": 0.0,
			"0.022": 0.0,
			"0.023": 0.0,
			"0.024": 0.0,
			"0.025": 0.0
		}
	}
}
