{
	 "smiles": "COC(=O)C1=CC2=C(C=C3CCC3=C2)C=C1C(=O)OC", 
	 "Tm": 397.15, 
	 "num_atms": 34, 
	 "gaussian": { 
		 "optdone": 1, 
		 "sigma_profile": "yes", 
		 "theory": "DFT", 
		 "functional": "B3LYP", 
		 "basiset": "6-31G**", 
		 "properties": { 
			 "R2extent": 7027.6231, 
			 "electric_dipole_moment_norm": 4.08102458091, 
			 "electric_quadrupole_moment_norm": 19.685256898, 
			 "total_energy": -919.025957635, 
			 "HOMO_LUMO_gap": 0.16853, 
			 "cosmo_polarized_energy": -13.66, 
			 "cosmo_cavitation_energy": 38.6, 
			 "cosmo_dispersion_energy": -27.48, 
			 "cosmo_repulsion_energy": 2.12, 
			 "cosmo_total_nonelectrostatic_energy": 13.24, 
			 "SMD_solvation_energy": 8.53 
		},
		"coords": [
			{
				"x": -1.6004424057,
				"y": -2.8721517596,
				"z": -4.2855381136,
				"element": "C" 
			},
			{
				"x": -1.3402890215,
				"y": -2.0597706824,
				"z": -3.1310445743,
				"element": "O" 
			},
			{
				"x": -0.0745351503,
				"y": -2.1086622425,
				"z": -2.6690502825,
				"element": "C" 
			},
			{
				"x": 0.8366473755,
				"y": -2.6627437325,
				"z": -3.2481673927,
				"element": "O" 
			},
			{
				"x": 0.0902644316,
				"y": -1.3021316175,
				"z": -1.416705008,
				"element": "C" 
			},
			{
				"x": 1.162859474,
				"y": -0.4371381893,
				"z": -1.3745849637,
				"element": "C" 
			},
			{
				"x": 1.3772607088,
				"y": 0.4510216307,
				"z": -0.2892390871,
				"element": "C" 
			},
			{
				"x": 0.4358141076,
				"y": 0.4348043642,
				"z": 0.8017205511,
				"element": "C" 
			},
			{
				"x": 0.5989306451,
				"y": 1.3142719401,
				"z": 1.9171496316,
				"element": "C" 
			},
			{
				"x": 1.6779919059,
				"y": 2.154749668,
				"z": 1.8836881468,
				"element": "C" 
			},
			{
				"x": 2.4124356339,
				"y": 3.2513721312,
				"z": 2.6422192778,
				"element": "C" 
			},
			{
				"x": 3.4458528757,
				"y": 3.2675265061,
				"z": 1.4455615304,
				"element": "C" 
			},
			{
				"x": 2.6030041193,
				"y": 2.1698836709,
				"z": 0.8117371956,
				"element": "C" 
			},
			{
				"x": 2.490284127,
				"y": 1.3472185792,
				"z": -0.276047904,
				"element": "C" 
			},
			{
				"x": -0.6406074588,
				"y": -0.4869509489,
				"z": 0.7486246524,
				"element": "C" 
			},
			{
				"x": -0.8213554055,
				"y": -1.348337648,
				"z": -0.3169130616,
				"element": "C" 
			},
			{
				"x": -1.8552157975,
				"y": -2.4219854055,
				"z": -0.2334040275,
				"element": "C" 
			},
			{
				"x": -1.7657860622,
				"y": -3.5126414691,
				"z": -0.7600313995,
				"element": "O" 
			},
			{
				"x": -2.9000877157,
				"y": -2.0640857848,
				"z": 0.5500971419,
				"element": "O" 
			},
			{
				"x": -3.8911485084,
				"y": -3.0848797286,
				"z": 0.7432662055,
				"element": "C" 
			},
			{
				"x": -1.462190663,
				"y": -3.9283893817,
				"z": -4.0408388439,
				"element": "H" 
			},
			{
				"x": -0.9315195756,
				"y": -2.6039767807,
				"z": -5.1067376551,
				"element": "H" 
			},
			{
				"x": -2.6384988387,
				"y": -2.6769154268,
				"z": -4.5548930731,
				"element": "H" 
			},
			{
				"x": 1.8555957849,
				"y": -0.4267192586,
				"z": -2.2108208489,
				"element": "H" 
			},
			{
				"x": -0.1194492621,
				"y": 1.2871082667,
				"z": 2.73247364,
				"element": "H" 
			},
			{
				"x": 2.8344014825,
				"y": 2.9547568855,
				"z": 3.6078759765,
				"element": "H" 
			},
			{
				"x": 1.8553722896,
				"y": 4.1838952534,
				"z": 2.7787287222,
				"element": "H" 
			},
			{
				"x": 4.4663162577,
				"y": 2.9792514998,
				"z": 1.717624263,
				"element": "H" 
			},
			{
				"x": 3.488107446,
				"y": 4.2094653598,
				"z": 0.8892333124,
				"element": "H" 
			},
			{
				"x": 3.1911392206,
				"y": 1.3459891345,
				"z": -1.1067417222,
				"element": "H" 
			},
			{
				"x": -1.329315395,
				"y": -0.5338516929,
				"z": 1.5855334005,
				"element": "H" 
			},
			{
				"x": -3.4512199459,
				"y": -3.9671464609,
				"z": 1.2154600475,
				"element": "H" 
			},
			{
				"x": -4.6483301796,
				"y": -2.6409490417,
				"z": 1.3896284626,
				"element": "H" 
			},
			{
				"x": -4.3286865003,
				"y": -3.380787638,
				"z": -0.2133642,
				"element": "H" 
			}
		],
		 "valence_orbital": [ 
			{
				"type": "occ",
				"energy": -0.28762,
				"method": "rhf"
			},
			{
				"type": "occ",
				"energy": -0.27149,
				"method": "rhf"
			},
			{
				"type": "occ",
				"energy": -0.26561,
				"method": "rhf"
			},
			{
				"type": "occ",
				"energy": -0.24287,
				"method": "rhf"
			},
			{
				"type": "occ",
				"energy": -0.22348,
				"method": "rhf"
			},
			{
				"type": "unocc",
				"energy": -0.05495,
				"method": "rhf"
			},
			{
				"type": "unocc",
				"energy": -0.04294,
				"method": "rhf"
			},
			{
				"type": "unocc",
				"energy": 0.0116,
				"method": "rhf"
			},
			{
				"type": "unocc",
				"energy": 0.03521,
				"method": "rhf"
			},
			{
				"type": "unocc",
				"energy": 0.04158,
				"method": "rhf"
			}
		],
		"cosmo_sigma_profile": { 
			"-0.025": 0.0,
			"-0.024": 0.0,
			"-0.023": 0.0,
			"-0.022": 0.0,
			"-0.021": 0.0,
			"-0.02": 0.0,
			"-0.019": 0.0,
			"-0.018": 0.0,
			"-0.017": 0.0,
			"-0.016": 0.0,
			"-0.015": 0.0,
			"-0.014": 0.0,
			"-0.013": 0.0,
			"-0.012": 0.0,
			"-0.011": 0.0,
			"-0.01": 0.0,
			"-0.009": 0.0,
			"-0.008": 0.226163042028,
			"-0.007": 7.35459283549,
			"-0.006": 15.5736476123,
			"-0.005": 23.2117334993,
			"-0.004": 29.0547425468,
			"-0.003": 33.8679193591,
			"-0.002": 25.1235693073,
			"-0.001": 26.3228527578,
			"0.0": 20.7357729142,
			"0.001": 19.3419188305,
			"0.002": 28.3101571141,
			"0.003": 23.4991761548,
			"0.004": 11.253390398,
			"0.005": 8.01556630326,
			"0.006": 5.32819810086,
			"0.007": 6.52082548766,
			"0.008": 4.06437254595,
			"0.009": 3.39217461211,
			"0.01": 3.87405055372,
			"0.011": 5.76185316405,
			"0.012": 6.28895234663,
			"0.013": 0.677609540084,
			"0.014": 0.0,
			"0.015": 0.0,
			"0.016": 0.0,
			"0.017": 0.0,
			"0.018": 0.0,
			"0.019": 0.0,
			"0.02": 0.0,
			"0.021": 0.0,
			"0.022": 0.0,
			"0.023": 0.0,
			"0.024": 0.0,
			"0.025": 0.0
		}
	}
}
