{
	 "smiles": "CC1=CC=C(C)N1C1=CC=CC=C1C(O)=O", 
	 "Tm": 398.15, 
	 "num_atms": 29, 
	 "gaussian": { 
		 "optdone": 1, 
		 "sigma_profile": "yes", 
		 "theory": "DFT", 
		 "functional": "B3LYP", 
		 "basiset": "6-31G**", 
		 "properties": { 
			 "R2extent": 3252.4797, 
			 "electric_dipole_moment_norm": 5.60230901058, 
			 "electric_quadrupole_moment_norm": 7.81318605372, 
			 "total_energy": -708.418970299, 
			 "HOMO_LUMO_gap": 0.13456, 
			 "cosmo_polarized_energy": -17.11, 
			 "cosmo_cavitation_energy": 32.73, 
			 "cosmo_dispersion_energy": -21.99, 
			 "cosmo_repulsion_energy": 1.72, 
			 "cosmo_total_nonelectrostatic_energy": 12.46, 
			 "SMD_solvation_energy": 7.0 
		},
		"coords": [
			{
				"x": -1.2101786696,
				"y": -2.6300671217,
				"z": 1.2566246582,
				"element": "C" 
			},
			{
				"x": -0.2672670364,
				"y": -2.6199536959,
				"z": 0.0978580794,
				"element": "C" 
			},
			{
				"x": -0.0251332398,
				"y": -3.5639569561,
				"z": -0.8733714122,
				"element": "C" 
			},
			{
				"x": 0.9387391489,
				"y": -3.0331788499,
				"z": -1.778829747,
				"element": "C" 
			},
			{
				"x": 1.2775737977,
				"y": -1.7705461275,
				"z": -1.3504226964,
				"element": "C" 
			},
			{
				"x": 2.2293689024,
				"y": -0.7715157239,
				"z": -1.9263118319,
				"element": "C" 
			},
			{
				"x": 0.5323155524,
				"y": -1.516959831,
				"z": -0.1966744097,
				"element": "N" 
			},
			{
				"x": 0.6616226474,
				"y": -0.3488164159,
				"z": 0.6090047441,
				"element": "C" 
			},
			{
				"x": 1.62539616,
				"y": -0.3241840538,
				"z": 1.6218959544,
				"element": "C" 
			},
			{
				"x": 1.8095690131,
				"y": 0.8149488381,
				"z": 2.4063070285,
				"element": "C" 
			},
			{
				"x": 1.037096489,
				"y": 1.9527473125,
				"z": 2.1729428625,
				"element": "C" 
			},
			{
				"x": 0.0846214953,
				"y": 1.9438469628,
				"z": 1.1550252358,
				"element": "C" 
			},
			{
				"x": -0.1211183212,
				"y": 0.7973753385,
				"z": 0.3726319835,
				"element": "C" 
			},
			{
				"x": -1.2139154962,
				"y": 0.804634677,
				"z": -0.6615676718,
				"element": "C" 
			},
			{
				"x": -1.2092121196,
				"y": 1.8843422774,
				"z": -1.4917927852,
				"element": "O" 
			},
			{
				"x": -2.0746025036,
				"y": -0.0332630636,
				"z": -0.7555768705,
				"element": "O" 
			},
			{
				"x": -1.9695977157,
				"y": -1.8473714707,
				"z": 1.1507780794,
				"element": "H" 
			},
			{
				"x": -0.7018674788,
				"y": -2.4787765511,
				"z": 2.2173655437,
				"element": "H" 
			},
			{
				"x": -1.7203045996,
				"y": -3.5954167845,
				"z": 1.2998602321,
				"element": "H" 
			},
			{
				"x": -0.5073666496,
				"y": -4.5302509592,
				"z": -0.9316144371,
				"element": "H" 
			},
			{
				"x": 1.3404211544,
				"y": -3.5181360641,
				"z": -2.6583992343,
				"element": "H" 
			},
			{
				"x": 1.7295501888,
				"y": 0.1560856948,
				"z": -2.2359149189,
				"element": "H" 
			},
			{
				"x": 2.7038756452,
				"y": -1.1974499673,
				"z": -2.8135847684,
				"element": "H" 
			},
			{
				"x": 3.0259909941,
				"y": -0.4898428273,
				"z": -1.2259736632,
				"element": "H" 
			},
			{
				"x": 2.229275605,
				"y": -1.2120290986,
				"z": 1.7800694672,
				"element": "H" 
			},
			{
				"x": 2.5571530141,
				"y": 0.8131673856,
				"z": 3.1937406826,
				"element": "H" 
			},
			{
				"x": 1.1715695546,
				"y": 2.8420638539,
				"z": 2.7809258379,
				"element": "H" 
			},
			{
				"x": -0.531217,
				"y": 2.823092778,
				"z": 0.9849715435,
				"element": "H" 
			},
			{
				"x": -0.4027585324,
				"y": 2.4004104436,
				"z": -1.348967486,
				"element": "H" 
			}
		],
		 "valence_orbital": [ 
			{
				"type": "occ",
				"energy": -0.2872,
				"method": "rhf"
			},
			{
				"type": "occ",
				"energy": -0.27793,
				"method": "rhf"
			},
			{
				"type": "occ",
				"energy": -0.26907,
				"method": "rhf"
			},
			{
				"type": "occ",
				"energy": -0.22488,
				"method": "rhf"
			},
			{
				"type": "occ",
				"energy": -0.18461,
				"method": "rhf"
			},
			{
				"type": "unocc",
				"energy": -0.05005,
				"method": "rhf"
			},
			{
				"type": "unocc",
				"energy": -0.03401,
				"method": "rhf"
			},
			{
				"type": "unocc",
				"energy": 0.02342,
				"method": "rhf"
			},
			{
				"type": "unocc",
				"energy": 0.04508,
				"method": "rhf"
			},
			{
				"type": "unocc",
				"energy": 0.06164,
				"method": "rhf"
			}
		],
		"cosmo_sigma_profile": { 
			"-0.025": 0.0,
			"-0.024": 0.0,
			"-0.023": 0.0,
			"-0.022": 0.0,
			"-0.021": 0.0,
			"-0.02": 0.0,
			"-0.019": 0.0884220107557,
			"-0.018": 0.698792582478,
			"-0.017": 0.840142920976,
			"-0.016": 0.796461257928,
			"-0.015": 0.99325079484,
			"-0.014": 0.606655403527,
			"-0.013": 0.693914912496,
			"-0.012": 1.29459317262,
			"-0.011": 1.54417169295,
			"-0.01": 0.868152632447,
			"-0.009": 1.00648525327,
			"-0.008": 2.74072537247,
			"-0.007": 8.87701016694,
			"-0.006": 12.1153710069,
			"-0.005": 12.7792262098,
			"-0.004": 16.7795729225,
			"-0.003": 18.3956116242,
			"-0.002": 23.9685232957,
			"-0.001": 22.7987879544,
			"0.0": 25.4921961233,
			"0.001": 21.0629414468,
			"0.002": 15.41917271,
			"0.003": 13.7541817075,
			"0.004": 6.06138929313,
			"0.005": 6.10110633533,
			"0.006": 6.44584639843,
			"0.007": 7.07392724221,
			"0.008": 6.35502722544,
			"0.009": 8.72101760843,
			"0.01": 7.94680706656,
			"0.011": 4.69440578057,
			"0.012": 2.66825724184,
			"0.013": 0.4077333985,
			"0.014": 0.0,
			"0.015": 0.0,
			"0.016": 0.0,
			"0.017": 0.0,
			"0.018": 0.0,
			"0.019": 0.0,
			"0.02": 0.0,
			"0.021": 0.0,
			"0.022": 0.0,
			"0.023": 0.0,
			"0.024": 0.0,
			"0.025": 0.0
		}
	}
}
