{
	 "smiles": "FC(F)(F)C1=CC=CC=C1CBr", 
	 "Tm": 307.65, 
	 "num_atms": 18, 
	 "gaussian": { 
		 "optdone": 1, 
		 "sigma_profile": "yes", 
		 "theory": "DFT", 
		 "functional": "B3LYP", 
		 "basiset": "6-31G**", 
		 "properties": { 
			 "R2extent": 5751.2204, 
			 "electric_dipole_moment_norm": 3.35462447526, 
			 "electric_quadrupole_moment_norm": 12.367452937, 
			 "total_energy": -3179.40329021, 
			 "HOMO_LUMO_gap": 0.20949, 
			 "cosmo_polarized_energy": -6.19, 
			 "cosmo_cavitation_energy": 25.08, 
			 "cosmo_dispersion_energy": -18.28, 
			 "cosmo_repulsion_energy": 1.4, 
			 "cosmo_total_nonelectrostatic_energy": 8.19, 
			 "SMD_solvation_energy": 4.13 
		},
		"coords": [
			{
				"x": 3.8545262576,
				"y": -1.1278332894,
				"z": -3.0807514468,
				"element": "F" 
			},
			{
				"x": 3.4643317598,
				"y": -0.4403942676,
				"z": -1.9881551989,
				"element": "C" 
			},
			{
				"x": 4.1702666452,
				"y": 0.7103550599,
				"z": -1.9651390347,
				"element": "F" 
			},
			{
				"x": 3.8629120273,
				"y": -1.1610112793,
				"z": -0.9067797803,
				"element": "F" 
			},
			{
				"x": 1.9750241481,
				"y": -0.1937024128,
				"z": -1.9689865744,
				"element": "C" 
			},
			{
				"x": 1.1881831582,
				"y": -0.7428098365,
				"z": -2.9844088959,
				"element": "C" 
			},
			{
				"x": -0.1925981655,
				"y": -0.5527210827,
				"z": -2.991465328,
				"element": "C" 
			},
			{
				"x": -0.7931175635,
				"y": 0.1877204511,
				"z": -1.9737840615,
				"element": "C" 
			},
			{
				"x": -0.0099043077,
				"y": 0.7334802359,
				"z": -0.9593027648,
				"element": "C" 
			},
			{
				"x": 1.3795037076,
				"y": 0.556836056,
				"z": -0.9343666502,
				"element": "C" 
			},
			{
				"x": 2.1611222492,
				"y": 1.1635503547,
				"z": 0.1927212677,
				"element": "C" 
			},
			{
				"x": 2.5421940081,
				"y": 3.101453505,
				"z": -0.1223065252,
				"element": "Br" 
			},
			{
				"x": 1.6637543318,
				"y": -1.3198420243,
				"z": -3.7684485683,
				"element": "H" 
			},
			{
				"x": -0.7932024892,
				"y": -0.9836343977,
				"z": -3.7864045519,
				"element": "H" 
			},
			{
				"x": -1.8682137512,
				"y": 0.339928642,
				"z": -1.9680137968,
				"element": "H" 
			},
			{
				"x": -0.4764149649,
				"y": 1.3180760798,
				"z": -0.1712519588,
				"element": "H" 
			},
			{
				"x": 3.1335931318,
				"y": 0.7094149922,
				"z": 0.3495246737,
				"element": "H" 
			},
			{
				"x": 1.5926398172,
				"y": 1.1535332137,
				"z": 1.1206191952,
				"element": "H" 
			}
		],
		 "valence_orbital": [ 
			{
				"type": "occ",
				"energy": -0.3605,
				"method": "rhf"
			},
			{
				"type": "occ",
				"energy": -0.28027,
				"method": "rhf"
			},
			{
				"type": "occ",
				"energy": -0.27767,
				"method": "rhf"
			},
			{
				"type": "occ",
				"energy": -0.27044,
				"method": "rhf"
			},
			{
				"type": "occ",
				"energy": -0.26159,
				"method": "rhf"
			},
			{
				"type": "unocc",
				"energy": -0.0521,
				"method": "rhf"
			},
			{
				"type": "unocc",
				"energy": -0.0296,
				"method": "rhf"
			},
			{
				"type": "unocc",
				"energy": 0.01995,
				"method": "rhf"
			},
			{
				"type": "unocc",
				"energy": 0.08322,
				"method": "rhf"
			},
			{
				"type": "unocc",
				"energy": 0.10386,
				"method": "rhf"
			}
		],
		"cosmo_sigma_profile": { 
			"-0.025": 0.0,
			"-0.024": 0.0,
			"-0.023": 0.0,
			"-0.022": 0.0,
			"-0.021": 0.0,
			"-0.02": 0.0,
			"-0.019": 0.0,
			"-0.018": 0.0,
			"-0.017": 0.0,
			"-0.016": 0.0,
			"-0.015": 0.0,
			"-0.014": 0.0,
			"-0.013": 0.0,
			"-0.012": 0.0,
			"-0.011": 0.0,
			"-0.01": 0.0,
			"-0.009": 0.323548897702,
			"-0.008": 3.15572022657,
			"-0.007": 8.60578276093,
			"-0.006": 11.8246895733,
			"-0.005": 12.5361449626,
			"-0.004": 10.3689775457,
			"-0.003": 10.474345736,
			"-0.002": 12.0536849938,
			"-0.001": 11.269121419,
			"0.0": 13.9726430952,
			"0.001": 17.8531017201,
			"0.002": 28.2946940336,
			"0.003": 32.7190234687,
			"0.004": 9.89944749502,
			"0.005": 9.35947869194,
			"0.006": 10.8429036241,
			"0.007": 0.785590979576,
			"0.008": 0.0,
			"0.009": 0.0,
			"0.01": 0.0,
			"0.011": 0.0,
			"0.012": 0.0,
			"0.013": 0.0,
			"0.014": 0.0,
			"0.015": 0.0,
			"0.016": 0.0,
			"0.017": 0.0,
			"0.018": 0.0,
			"0.019": 0.0,
			"0.02": 0.0,
			"0.021": 0.0,
			"0.022": 0.0,
			"0.023": 0.0,
			"0.024": 0.0,
			"0.025": 0.0
		}
	}
}
