{
	 "smiles": "NC(=O)C1=NC=C(C=C1)C(O)=O", 
	 "Tm": 621.15, 
	 "num_atms": 18, 
	 "gaussian": { 
		 "optdone": 1, 
		 "sigma_profile": "yes", 
		 "theory": "DFT", 
		 "functional": "B3LYP", 
		 "basiset": "6-31G**", 
		 "properties": { 
			 "R2extent": 2807.5373, 
			 "electric_dipole_moment_norm": 4.11232846329, 
			 "electric_quadrupole_moment_norm": 14.5118849913, 
			 "total_energy": -605.559283677, 
			 "HOMO_LUMO_gap": 0.17606, 
			 "cosmo_polarized_energy": -20.16, 
			 "cosmo_cavitation_energy": 23.58, 
			 "cosmo_dispersion_energy": -17.64, 
			 "cosmo_repulsion_energy": 1.41, 
			 "cosmo_total_nonelectrostatic_energy": 7.35, 
			 "SMD_solvation_energy": 5.22 
		},
		"coords": [
			{
				"x": -2.7735420788,
				"y": 1.656761158,
				"z": 0.5196735631,
				"element": "N" 
			},
			{
				"x": -2.6908887213,
				"y": 0.3590069117,
				"z": 0.9014430333,
				"element": "C" 
			},
			{
				"x": -3.6394490502,
				"y": -0.3235012098,
				"z": 1.2709834948,
				"element": "O" 
			},
			{
				"x": -1.2907745802,
				"y": -0.215100927,
				"z": 0.8404860205,
				"element": "C" 
			},
			{
				"x": -0.2990098579,
				"y": 0.5909560333,
				"z": 0.4316812778,
				"element": "N" 
			},
			{
				"x": 0.9356786397,
				"y": 0.0861831969,
				"z": 0.3908364744,
				"element": "C" 
			},
			{
				"x": 1.2458447872,
				"y": -1.2315859958,
				"z": 0.7525268109,
				"element": "C" 
			},
			{
				"x": 0.19336332,
				"y": -2.0679543727,
				"z": 1.1477921469,
				"element": "C" 
			},
			{
				"x": -1.0941864228,
				"y": -1.5516487795,
				"z": 1.2020257173,
				"element": "C" 
			},
			{
				"x": 2.6300710484,
				"y": -1.8059414474,
				"z": 0.6879728174,
				"element": "C" 
			},
			{
				"x": 3.66365682,
				"y": -0.9255243973,
				"z": 0.6918204426,
				"element": "O" 
			},
			{
				"x": 2.8413124755,
				"y": -2.9933484154,
				"z": 0.6307907992,
				"element": "O" 
			},
			{
				"x": -3.6735283173,
				"y": 2.1091748761,
				"z": 0.5230289522,
				"element": "H" 
			},
			{
				"x": -1.9413922904,
				"y": 2.1408892179,
				"z": 0.2177623097,
				"element": "H" 
			},
			{
				"x": 1.70468741,
				"y": 0.7640043175,
				"z": 0.0200596961,
				"element": "H" 
			},
			{
				"x": 0.4111379074,
				"y": -3.0997493319,
				"z": 1.4028963979,
				"element": "H" 
			},
			{
				"x": -1.9505336479,
				"y": -2.1400882619,
				"z": 1.5094675622,
				"element": "H" 
			},
			{
				"x": 3.3555525586,
				"y": -0.0332325727,
				"z": 0.9023524837,
				"element": "H" 
			}
		],
		 "valence_orbital": [ 
			{
				"type": "occ",
				"energy": -0.30729,
				"method": "rhf"
			},
			{
				"type": "occ",
				"energy": -0.29174,
				"method": "rhf"
			},
			{
				"type": "occ",
				"energy": -0.28448,
				"method": "rhf"
			},
			{
				"type": "occ",
				"energy": -0.27519,
				"method": "rhf"
			},
			{
				"type": "occ",
				"energy": -0.26051,
				"method": "rhf"
			},
			{
				"type": "unocc",
				"energy": -0.08445,
				"method": "rhf"
			},
			{
				"type": "unocc",
				"energy": -0.05282,
				"method": "rhf"
			},
			{
				"type": "unocc",
				"energy": 0.00429,
				"method": "rhf"
			},
			{
				"type": "unocc",
				"energy": 0.04845,
				"method": "rhf"
			},
			{
				"type": "unocc",
				"energy": 0.07128,
				"method": "rhf"
			}
		],
		"cosmo_sigma_profile": { 
			"-0.025": 0.0,
			"-0.024": 0.0,
			"-0.023": 0.0,
			"-0.022": 0.0,
			"-0.021": 0.0,
			"-0.02": 0.292840541899,
			"-0.019": 0.753580572277,
			"-0.018": 1.48951116344,
			"-0.017": 0.899172770002,
			"-0.016": 0.779999842623,
			"-0.015": 1.15545262293,
			"-0.014": 2.37055590392,
			"-0.013": 2.84825849139,
			"-0.012": 3.22542020038,
			"-0.011": 2.52679189905,
			"-0.01": 3.1175900982,
			"-0.009": 3.62535105471,
			"-0.008": 5.1916511761,
			"-0.007": 6.06262249316,
			"-0.006": 7.12940846338,
			"-0.005": 6.10854606497,
			"-0.004": 7.53901609688,
			"-0.003": 9.79369733172,
			"-0.002": 13.1471501579,
			"-0.001": 16.2221685381,
			"0.0": 13.9094051204,
			"0.001": 8.76278027562,
			"0.002": 8.71573408731,
			"0.003": 6.38972470968,
			"0.004": 5.95732937552,
			"0.005": 5.57885592257,
			"0.006": 3.90711811069,
			"0.007": 5.14378146589,
			"0.008": 5.05172626315,
			"0.009": 5.467715858,
			"0.01": 6.08886669041,
			"0.011": 7.3945433655,
			"0.012": 4.75927172722,
			"0.013": 5.45958065851,
			"0.014": 2.22227662634,
			"0.015": 0.120684608145,
			"0.016": 0.0,
			"0.017": 0.0,
			"0.018": 0.0,
			"0.019": 0.0,
			"0.02": 0.0,
			"0.021": 0.0,
			"0.022": 0.0,
			"0.023": 0.0,
			"0.024": 0.0,
			"0.025": 0.0
		}
	}
}
