{
	 "smiles": "C[Si](C)(C)C#CC1=CC=C(C=C1)C(O)=O", 
	 "Tm": 429.15, 
	 "num_atms": 29, 
	 "gaussian": { 
		 "optdone": 1, 
		 "sigma_profile": "yes", 
		 "theory": "DFT", 
		 "functional": "B3LYP", 
		 "basiset": "6-31G**", 
		 "properties": { 
			 "R2extent": 6929.682, 
			 "electric_dipole_moment_norm": 2.04013721597, 
			 "electric_quadrupole_moment_norm": 11.9908916291, 
			 "total_energy": -905.679030632, 
			 "HOMO_LUMO_gap": 0.17122, 
			 "cosmo_polarized_energy": -9.84, 
			 "cosmo_cavitation_energy": 36.35, 
			 "cosmo_dispersion_energy": -23.34, 
			 "cosmo_repulsion_energy": 2.0, 
			 "cosmo_total_nonelectrostatic_energy": 15.01, 
			 "SMD_solvation_energy": 9.76 
		},
		"coords": [
			{
				"x": 0.6344744576,
				"y": 4.3207543607,
				"z": -1.431793247,
				"element": "C" 
			},
			{
				"x": -0.8885643632,
				"y": 3.2086296951,
				"z": -1.3241490612,
				"element": "Si" 
			},
			{
				"x": -2.1151077507,
				"y": 3.8969911593,
				"z": -0.063351013,
				"element": "C" 
			},
			{
				"x": -1.7071457102,
				"y": 3.0491216558,
				"z": -3.018508653,
				"element": "C" 
			},
			{
				"x": -0.3544490361,
				"y": 1.5336281899,
				"z": -0.7695966082,
				"element": "C" 
			},
			{
				"x": -0.0005404062,
				"y": 0.4238667345,
				"z": -0.4019814021,
				"element": "C" 
			},
			{
				"x": 0.4123941073,
				"y": -0.8725171981,
				"z": 0.0260882817,
				"element": "C" 
			},
			{
				"x": 0.9616805726,
				"y": -1.0602842542,
				"z": 1.3109169215,
				"element": "C" 
			},
			{
				"x": 1.3636594751,
				"y": -2.3234471461,
				"z": 1.7277094386,
				"element": "C" 
			},
			{
				"x": 1.2256117561,
				"y": -3.4250013661,
				"z": 0.8705910144,
				"element": "C" 
			},
			{
				"x": 0.6801482271,
				"y": -3.2457210532,
				"z": -0.4087716348,
				"element": "C" 
			},
			{
				"x": 0.2772460896,
				"y": -1.985981069,
				"z": -0.8294601786,
				"element": "C" 
			},
			{
				"x": 1.63907449,
				"y": -4.7959464229,
				"z": 1.2662141096,
				"element": "C" 
			},
			{
				"x": 2.152465199,
				"y": -4.8559924134,
				"z": 2.5212617212,
				"element": "O" 
			},
			{
				"x": 1.5407331564,
				"y": -5.7821109683,
				"z": 0.5622403319,
				"element": "O" 
			},
			{
				"x": 1.1317789865,
				"y": 4.4096380106,
				"z": -0.4605415253,
				"element": "H" 
			},
			{
				"x": 0.3543549248,
				"y": 5.3288052393,
				"z": -1.7585094968,
				"element": "H" 
			},
			{
				"x": 1.3645565118,
				"y": 3.9276302679,
				"z": -2.1465513616,
				"element": "H" 
			},
			{
				"x": -2.4553738327,
				"y": 4.8955533478,
				"z": -0.3607615054,
				"element": "H" 
			},
			{
				"x": -2.9973870186,
				"y": 3.254945961,
				"z": 0.025059781,
				"element": "H" 
			},
			{
				"x": -1.6609740666,
				"y": 3.9799670613,
				"z": 0.9293432466,
				"element": "H" 
			},
			{
				"x": -2.5829040356,
				"y": 2.393440953,
				"z": -2.9771357599,
				"element": "H" 
			},
			{
				"x": -1.0138315542,
				"y": 2.6354105916,
				"z": -3.7579378387,
				"element": "H" 
			},
			{
				"x": -2.038903713,
				"y": 4.0285313777,
				"z": -3.3817600534,
				"element": "H" 
			},
			{
				"x": 1.0667757812,
				"y": -0.205776241,
				"z": 1.9709536994,
				"element": "H" 
			},
			{
				"x": 1.7854281551,
				"y": -2.4633686235,
				"z": 2.7163813227,
				"element": "H" 
			},
			{
				"x": 0.5817563297,
				"y": -4.110163921,
				"z": -1.0565158961,
				"element": "H" 
			},
			{
				"x": -0.1450080169,
				"y": -1.8450344455,
				"z": -1.8187318461,
				"element": "H" 
			},
			{
				"x": 2.3837512841,
				"y": -5.7880694832,
				"z": 2.6659972125,
				"element": "H" 
			}
		],
		 "valence_orbital": [ 
			{
				"type": "occ",
				"energy": -0.29878,
				"method": "rhf"
			},
			{
				"type": "occ",
				"energy": -0.27882,
				"method": "rhf"
			},
			{
				"type": "occ",
				"energy": -0.26673,
				"method": "rhf"
			},
			{
				"type": "occ",
				"energy": -0.26636,
				"method": "rhf"
			},
			{
				"type": "occ",
				"energy": -0.23692,
				"method": "rhf"
			},
			{
				"type": "unocc",
				"energy": -0.0657,
				"method": "rhf"
			},
			{
				"type": "unocc",
				"energy": -0.01351,
				"method": "rhf"
			},
			{
				"type": "unocc",
				"energy": 0.01907,
				"method": "rhf"
			},
			{
				"type": "unocc",
				"energy": 0.01991,
				"method": "rhf"
			},
			{
				"type": "unocc",
				"energy": 0.07545,
				"method": "rhf"
			}
		],
		"cosmo_sigma_profile": { 
			"-0.025": 0.0,
			"-0.024": 0.0,
			"-0.023": 0.0,
			"-0.022": 0.0,
			"-0.021": 0.0,
			"-0.02": 0.0,
			"-0.019": 0.0969570212675,
			"-0.018": 0.760775228377,
			"-0.017": 0.901357844475,
			"-0.016": 0.823971109585,
			"-0.015": 0.974073436436,
			"-0.014": 0.897238429103,
			"-0.013": 0.399698012758,
			"-0.012": 0.0533026295358,
			"-0.011": 0.673807088547,
			"-0.01": 1.05890647729,
			"-0.009": 0.598456937495,
			"-0.008": 0.816503411311,
			"-0.007": 4.4655487169,
			"-0.006": 8.15591802916,
			"-0.005": 8.23040952876,
			"-0.004": 16.7740242333,
			"-0.003": 25.8656657265,
			"-0.002": 27.804043012,
			"-0.001": 26.3189968918,
			"0.0": 28.6801694533,
			"0.001": 38.6254081442,
			"0.002": 31.9340355939,
			"0.003": 17.0126904236,
			"0.004": 8.36785461092,
			"0.005": 7.93266302993,
			"0.006": 10.5667430912,
			"0.007": 4.16451391553,
			"0.008": 1.57965285574,
			"0.009": 1.82757430262,
			"0.01": 1.71832303598,
			"0.011": 4.30461096719,
			"0.012": 3.39716110129,
			"0.013": 0.0360215979286,
			"0.014": 0.0,
			"0.015": 0.0,
			"0.016": 0.0,
			"0.017": 0.0,
			"0.018": 0.0,
			"0.019": 0.0,
			"0.02": 0.0,
			"0.021": 0.0,
			"0.022": 0.0,
			"0.023": 0.0,
			"0.024": 0.0,
			"0.025": 0.0
		}
	}
}
