{
	 "smiles": "CC(=O)N1CCNCC1", 
	 "Tm": 305.15, 
	 "num_atms": 21, 
	 "gaussian": { 
		 "optdone": 1, 
		 "sigma_profile": "yes", 
		 "theory": "DFT", 
		 "functional": "B3LYP", 
		 "basiset": "6-31G**", 
		 "properties": { 
			 "R2extent": 1915.0803, 
			 "electric_dipole_moment_norm": 3.16478468936, 
			 "electric_quadrupole_moment_norm": 14.7632819139, 
			 "total_energy": -420.597019019, 
			 "HOMO_LUMO_gap": 0.2529, 
			 "cosmo_polarized_energy": -12.34, 
			 "cosmo_cavitation_energy": 22.33, 
			 "cosmo_dispersion_energy": -16.78, 
			 "cosmo_repulsion_energy": 1.38, 
			 "cosmo_total_nonelectrostatic_energy": 6.93, 
			 "SMD_solvation_energy": 1.3 
		},
		"coords": [
			{
				"x": -2.5878160673,
				"y": -1.4357010849,
				"z": 1.8862517397,
				"element": "C" 
			},
			{
				"x": -1.3996798366,
				"y": -2.2588747756,
				"z": 1.4074376099,
				"element": "C" 
			},
			{
				"x": -1.0600337703,
				"y": -3.2828277573,
				"z": 1.9931054255,
				"element": "O" 
			},
			{
				"x": -0.7311279903,
				"y": -1.7923931133,
				"z": 0.2982919293,
				"element": "N" 
			},
			{
				"x": -1.1218117979,
				"y": -0.6010450524,
				"z": -0.460125728,
				"element": "C" 
			},
			{
				"x": 0.0702779028,
				"y": -0.1186781211,
				"z": -1.3208355214,
				"element": "C" 
			},
			{
				"x": 1.353682041,
				"y": -0.257988559,
				"z": -0.6431576754,
				"element": "N" 
			},
			{
				"x": 1.6545836966,
				"y": -1.668569951,
				"z": -0.3313200221,
				"element": "C" 
			},
			{
				"x": 0.3920158491,
				"y": -2.5562892764,
				"z": -0.2395726079,
				"element": "C" 
			},
			{
				"x": -3.3214725879,
				"y": -1.268698809,
				"z": 1.0909345846,
				"element": "H" 
			},
			{
				"x": -3.0578174536,
				"y": -1.9820828701,
				"z": 2.7032756211,
				"element": "H" 
			},
			{
				"x": -2.2716265415,
				"y": -0.4532541739,
				"z": 2.254446995,
				"element": "H" 
			},
			{
				"x": -1.998620515,
				"y": -0.794000866,
				"z": -1.0998294208,
				"element": "H" 
			},
			{
				"x": -1.4015153217,
				"y": 0.1955757221,
				"z": 0.23770513,
				"element": "H" 
			},
			{
				"x": 0.1155015052,
				"y": -0.6856965789,
				"z": -2.2580169869,
				"element": "H" 
			},
			{
				"x": -0.08885146,
				"y": 0.9282530264,
				"z": -1.5994058965,
				"element": "H" 
			},
			{
				"x": 1.3266155266,
				"y": 0.2754673296,
				"z": 0.2213550502,
				"element": "H" 
			},
			{
				"x": 2.2044909418,
				"y": -1.6988883259,
				"z": 0.6144122524,
				"element": "H" 
			},
			{
				"x": 2.3197583803,
				"y": -2.0819238521,
				"z": -1.1020655579,
				"element": "H" 
			},
			{
				"x": 0.5468208732,
				"y": -3.4111612211,
				"z": 0.4184622172,
				"element": "H" 
			},
			{
				"x": 0.1259266253,
				"y": -2.9438216901,
				"z": -1.232949138,
				"element": "H" 
			}
		],
		 "valence_orbital": [ 
			{
				"type": "occ",
				"energy": -0.34935,
				"method": "rhf"
			},
			{
				"type": "occ",
				"energy": -0.33978,
				"method": "rhf"
			},
			{
				"type": "occ",
				"energy": -0.24071,
				"method": "rhf"
			},
			{
				"type": "occ",
				"energy": -0.239,
				"method": "rhf"
			},
			{
				"type": "occ",
				"energy": -0.22115,
				"method": "rhf"
			},
			{
				"type": "unocc",
				"energy": 0.03175,
				"method": "rhf"
			},
			{
				"type": "unocc",
				"energy": 0.0671,
				"method": "rhf"
			},
			{
				"type": "unocc",
				"energy": 0.09938,
				"method": "rhf"
			},
			{
				"type": "unocc",
				"energy": 0.10272,
				"method": "rhf"
			},
			{
				"type": "unocc",
				"energy": 0.12162,
				"method": "rhf"
			}
		],
		"cosmo_sigma_profile": { 
			"-0.025": 0.0,
			"-0.024": 0.0,
			"-0.023": 0.0,
			"-0.022": 0.0,
			"-0.021": 0.0,
			"-0.02": 0.0,
			"-0.019": 0.0,
			"-0.018": 0.0,
			"-0.017": 0.0,
			"-0.016": 0.0,
			"-0.015": 0.0,
			"-0.014": 0.0,
			"-0.013": 0.0,
			"-0.012": 0.0,
			"-0.011": 0.01015527387,
			"-0.01": 0.886110200816,
			"-0.009": 1.40393925974,
			"-0.008": 1.64614815458,
			"-0.007": 1.81719192583,
			"-0.006": 4.9346825645,
			"-0.005": 14.2410932138,
			"-0.004": 25.8158596495,
			"-0.003": 27.0394262736,
			"-0.002": 19.9844497951,
			"-0.001": 16.1241041893,
			"0.0": 11.2161897776,
			"0.001": 5.73568477371,
			"0.002": 4.92078259017,
			"0.003": 3.28852912665,
			"0.004": 2.42932054401,
			"0.005": 2.36367090006,
			"0.006": 2.28308337566,
			"0.007": 2.13368649434,
			"0.008": 2.30250685915,
			"0.009": 2.62130272053,
			"0.01": 1.81276985567,
			"0.011": 1.88395680493,
			"0.012": 2.67600194453,
			"0.013": 2.36378629954,
			"0.014": 5.34359265932,
			"0.015": 3.6160671703,
			"0.016": 1.3715353434,
			"0.017": 0.489845577449,
			"0.018": 0.463217791479,
			"0.019": 0.090082269852,
			"0.02": 0.0,
			"0.021": 0.0,
			"0.022": 0.0,
			"0.023": 0.0,
			"0.024": 0.0,
			"0.025": 0.0
		}
	}
}
