{
	 "smiles": "NC(=S)NC1=CC=CC(Cl)=C1Cl", 
	 "Tm": 434.15, 
	 "num_atms": 18, 
	 "gaussian": { 
		 "optdone": 1, 
		 "sigma_profile": "yes", 
		 "theory": "DFT", 
		 "functional": "B3LYP", 
		 "basiset": "6-31G**", 
		 "properties": { 
			 "R2extent": 4393.0043, 
			 "electric_dipole_moment_norm": 2.9597552365, 
			 "electric_quadrupole_moment_norm": 18.0966582946, 
			 "total_energy": -1698.44457411, 
			 "HOMO_LUMO_gap": 0.17378, 
			 "cosmo_polarized_energy": -15.89, 
			 "cosmo_cavitation_energy": 27.24, 
			 "cosmo_dispersion_energy": -20.98, 
			 "cosmo_repulsion_energy": 1.63, 
			 "cosmo_total_nonelectrostatic_energy": 7.88, 
			 "SMD_solvation_energy": 3.31 
		},
		"coords": [
			{
				"x": 0.3402354055,
				"y": -2.6483052032,
				"z": -1.2964033035,
				"element": "N" 
			},
			{
				"x": 0.317984991,
				"y": -1.5649399337,
				"z": -0.4577667874,
				"element": "C" 
			},
			{
				"x": 1.0602308847,
				"y": -1.6370465018,
				"z": 1.0410808967,
				"element": "S" 
			},
			{
				"x": -0.3134869381,
				"y": -0.4894065823,
				"z": -1.0379327893,
				"element": "N" 
			},
			{
				"x": -0.6194743118,
				"y": 0.792049772,
				"z": -0.5554200649,
				"element": "C" 
			},
			{
				"x": -0.6591462968,
				"y": 1.1266595986,
				"z": 0.8053220127,
				"element": "C" 
			},
			{
				"x": -1.0063187743,
				"y": 2.4146931959,
				"z": 1.2004294816,
				"element": "C" 
			},
			{
				"x": -1.3316044961,
				"y": 3.3958123564,
				"z": 0.2684454734,
				"element": "C" 
			},
			{
				"x": -1.3095684275,
				"y": 3.0744606765,
				"z": -1.088257905,
				"element": "C" 
			},
			{
				"x": -1.728589481,
				"y": 4.312370857,
				"z": -2.2489815427,
				"element": "Cl" 
			},
			{
				"x": -0.9556359217,
				"y": 1.7867470376,
				"z": -1.5048413144,
				"element": "C" 
			},
			{
				"x": -0.934122779,
				"y": 1.3889584683,
				"z": -3.2160781909,
				"element": "Cl" 
			},
			{
				"x": 0.7138308019,
				"y": -3.4948173026,
				"z": -0.8951174396,
				"element": "H" 
			},
			{
				"x": -0.3678919545,
				"y": -2.7601776819,
				"z": -2.0097970508,
				"element": "H" 
			},
			{
				"x": -0.4711105817,
				"y": -0.5777095186,
				"z": -2.0349324625,
				"element": "H" 
			},
			{
				"x": -0.4008105585,
				"y": 0.3721181643,
				"z": 1.5340726196,
				"element": "H" 
			},
			{
				"x": -1.0262968123,
				"y": 2.6547489582,
				"z": 2.258693479,
				"element": "H" 
			},
			{
				"x": -1.6026247499,
				"y": 4.3995836392,
				"z": 0.5735848879,
				"element": "H" 
			}
		],
		 "valence_orbital": [ 
			{
				"type": "occ",
				"energy": -0.31506,
				"method": "rhf"
			},
			{
				"type": "occ",
				"energy": -0.25755,
				"method": "rhf"
			},
			{
				"type": "occ",
				"energy": -0.24874,
				"method": "rhf"
			},
			{
				"type": "occ",
				"energy": -0.22713,
				"method": "rhf"
			},
			{
				"type": "occ",
				"energy": -0.21699,
				"method": "rhf"
			},
			{
				"type": "unocc",
				"energy": -0.04321,
				"method": "rhf"
			},
			{
				"type": "unocc",
				"energy": -0.02605,
				"method": "rhf"
			},
			{
				"type": "unocc",
				"energy": -0.01032,
				"method": "rhf"
			},
			{
				"type": "unocc",
				"energy": 0.00802,
				"method": "rhf"
			},
			{
				"type": "unocc",
				"energy": 0.05062,
				"method": "rhf"
			}
		],
		"cosmo_sigma_profile": { 
			"-0.025": 0.0,
			"-0.024": 0.0,
			"-0.023": 0.0,
			"-0.022": 0.0,
			"-0.021": 0.0,
			"-0.02": 0.0,
			"-0.019": 0.000237157037401,
			"-0.018": 0.558026366391,
			"-0.017": 1.07606711756,
			"-0.016": 1.52725160319,
			"-0.015": 2.11061218244,
			"-0.014": 2.33799743786,
			"-0.013": 2.6083296548,
			"-0.012": 2.46761144215,
			"-0.011": 3.07766544997,
			"-0.01": 2.27001482723,
			"-0.009": 1.85586807442,
			"-0.008": 2.64621668019,
			"-0.007": 5.93432691722,
			"-0.006": 6.81959670098,
			"-0.005": 6.87665940603,
			"-0.004": 7.94807188097,
			"-0.003": 9.78297468079,
			"-0.002": 11.0599054354,
			"-0.001": 15.1185394813,
			"0.0": 20.1145458936,
			"0.001": 22.1295430641,
			"0.002": 19.9553160336,
			"0.003": 22.0262534365,
			"0.004": 18.5165794096,
			"0.005": 7.60117956048,
			"0.006": 4.93160924258,
			"0.007": 5.15195964337,
			"0.008": 4.64901821753,
			"0.009": 5.26722141019,
			"0.01": 5.77135387474,
			"0.011": 3.18447448966,
			"0.012": 0.246706222134,
			"0.013": 0.0,
			"0.014": 0.0,
			"0.015": 0.0,
			"0.016": 0.0,
			"0.017": 0.0,
			"0.018": 0.0,
			"0.019": 0.0,
			"0.02": 0.0,
			"0.021": 0.0,
			"0.022": 0.0,
			"0.023": 0.0,
			"0.024": 0.0,
			"0.025": 0.0
		}
	}
}
