{
	 "smiles": "CC1=CC=C(C=C1)S(=O)(=O)NCCCCC(N)C(O)=O", 
	 "Tm": 505.15, 
	 "num_atms": 40, 
	 "gaussian": { 
		 "optdone": 1, 
		 "sigma_profile": "yes", 
		 "theory": "DFT", 
		 "functional": "B3LYP", 
		 "basiset": "6-31G**", 
		 "properties": { 
			 "R2extent": 10978.5818, 
			 "electric_dipole_moment_norm": 4.13641661103, 
			 "electric_quadrupole_moment_norm": 42.8467592076, 
			 "total_energy": -1315.98189552, 
			 "HOMO_LUMO_gap": 0.21559, 
			 "cosmo_polarized_energy": -27.06, 
			 "cosmo_cavitation_energy": 44.51, 
			 "cosmo_dispersion_energy": -31.06, 
			 "cosmo_repulsion_energy": 2.39, 
			 "cosmo_total_nonelectrostatic_energy": 15.84, 
			 "SMD_solvation_energy": 6.6 
		},
		"coords": [
			{
				"x": -5.3861114144,
				"y": 0.8854917999,
				"z": -4.6759570997,
				"element": "C" 
			},
			{
				"x": -4.4661870506,
				"y": 1.1142276404,
				"z": -3.5011349402,
				"element": "C" 
			},
			{
				"x": -3.4814237037,
				"y": 2.1079317136,
				"z": -3.535367128,
				"element": "C" 
			},
			{
				"x": -2.6407759667,
				"y": 2.3302944009,
				"z": -2.4427871264,
				"element": "C" 
			},
			{
				"x": -2.7869148884,
				"y": 1.5406960384,
				"z": -1.3043203531,
				"element": "C" 
			},
			{
				"x": -3.765726502,
				"y": 0.5439695824,
				"z": -1.2394813909,
				"element": "C" 
			},
			{
				"x": -4.5941940754,
				"y": 0.3377010973,
				"z": -2.3362581246,
				"element": "C" 
			},
			{
				"x": -1.7316776884,
				"y": 1.8330058512,
				"z": 0.1126708428,
				"element": "S" 
			},
			{
				"x": -0.9125628882,
				"y": 3.0125990018,
				"z": -0.1989308856,
				"element": "O" 
			},
			{
				"x": -2.5343663469,
				"y": 1.7704449927,
				"z": 1.3396764954,
				"element": "O" 
			},
			{
				"x": -0.790909341,
				"y": 0.4330043856,
				"z": 0.1656045054,
				"element": "N" 
			},
			{
				"x": 0.4638809377,
				"y": 0.3541279936,
				"z": -0.6006270285,
				"element": "C" 
			},
			{
				"x": 1.672142317,
				"y": 1.0952669921,
				"z": -0.0040407952,
				"element": "C" 
			},
			{
				"x": 2.0930933545,
				"y": 0.6478388291,
				"z": 1.4057251815,
				"element": "C" 
			},
			{
				"x": 2.5611988066,
				"y": -0.8100222308,
				"z": 1.5038890215,
				"element": "C" 
			},
			{
				"x": 3.1025617922,
				"y": -1.1873277591,
				"z": 2.8900215833,
				"element": "C" 
			},
			{
				"x": 2.1304558116,
				"y": -1.1633339675,
				"z": 3.9997525298,
				"element": "N" 
			},
			{
				"x": 3.7868800387,
				"y": -2.5752374203,
				"z": 2.8619412271,
				"element": "C" 
			},
			{
				"x": 3.639598849,
				"y": -3.2666037997,
				"z": 4.0004593534,
				"element": "O" 
			},
			{
				"x": 4.4202956636,
				"y": -2.9807112012,
				"z": 1.9149743366,
				"element": "O" 
			},
			{
				"x": -5.4265199744,
				"y": -0.1743052847,
				"z": -4.9491738714,
				"element": "H" 
			},
			{
				"x": -6.4106899133,
				"y": 1.1958105631,
				"z": -4.4388419815,
				"element": "H" 
			},
			{
				"x": -5.0629789923,
				"y": 1.4499112847,
				"z": -5.5544257029,
				"element": "H" 
			},
			{
				"x": -3.3700997622,
				"y": 2.7206132802,
				"z": -4.4258394663,
				"element": "H" 
			},
			{
				"x": -1.8859368199,
				"y": 3.1084357504,
				"z": -2.4616891665,
				"element": "H" 
			},
			{
				"x": -3.874921188,
				"y": -0.0538018967,
				"z": -0.3409706552,
				"element": "H" 
			},
			{
				"x": -5.3561498507,
				"y": -0.4361720879,
				"z": -2.291084285,
				"element": "H" 
			},
			{
				"x": -0.7312322816,
				"y": 0.1426773863,
				"z": 1.1371711831,
				"element": "H" 
			},
			{
				"x": 0.2551106208,
				"y": 0.7400245952,
				"z": -1.6030640419,
				"element": "H" 
			},
			{
				"x": 0.6809338673,
				"y": -0.7126734492,
				"z": -0.7245323379,
				"element": "H" 
			},
			{
				"x": 2.5166157491,
				"y": 0.952642192,
				"z": -0.6917055,
				"element": "H" 
			},
			{
				"x": 1.4466653041,
				"y": 2.1653564336,
				"z": 0.0108913234,
				"element": "H" 
			},
			{
				"x": 1.2688344024,
				"y": 0.8278180691,
				"z": 2.110856215,
				"element": "H" 
			},
			{
				"x": 2.9080237187,
				"y": 1.3043593335,
				"z": 1.7387630451,
				"element": "H" 
			},
			{
				"x": 1.7447052913,
				"y": -1.5021958938,
				"z": 1.2517509338,
				"element": "H" 
			},
			{
				"x": 3.3555304677,
				"y": -1.0063660635,
				"z": 0.7766019368,
				"element": "H" 
			},
			{
				"x": 3.9019810362,
				"y": -0.4817803361,
				"z": 3.1561865525,
				"element": "H" 
			},
			{
				"x": 2.0177797453,
				"y": -0.2308788831,
				"z": 4.3839757162,
				"element": "H" 
			},
			{
				"x": 1.2136746344,
				"y": -1.4736020834,
				"z": 3.6845461321,
				"element": "H" 
			},
			{
				"x": 3.0543162398,
				"y": -2.70193685,
				"z": 4.5599737661,
				"element": "H" 
			}
		],
		 "valence_orbital": [ 
			{
				"type": "occ",
				"energy": -0.29725,
				"method": "rhf"
			},
			{
				"type": "occ",
				"energy": -0.27999,
				"method": "rhf"
			},
			{
				"type": "occ",
				"energy": -0.27033,
				"method": "rhf"
			},
			{
				"type": "occ",
				"energy": -0.25478,
				"method": "rhf"
			},
			{
				"type": "occ",
				"energy": -0.25341,
				"method": "rhf"
			},
			{
				"type": "unocc",
				"energy": -0.03782,
				"method": "rhf"
			},
			{
				"type": "unocc",
				"energy": -0.021,
				"method": "rhf"
			},
			{
				"type": "unocc",
				"energy": 0.01183,
				"method": "rhf"
			},
			{
				"type": "unocc",
				"energy": 0.04005,
				"method": "rhf"
			},
			{
				"type": "unocc",
				"energy": 0.06176,
				"method": "rhf"
			}
		],
		"cosmo_sigma_profile": { 
			"-0.025": 0.0,
			"-0.024": 0.0,
			"-0.023": 0.0,
			"-0.022": 0.0,
			"-0.021": 0.0,
			"-0.02": 0.0,
			"-0.019": 0.0,
			"-0.018": 0.0,
			"-0.017": 0.0,
			"-0.016": 0.0,
			"-0.015": 0.0,
			"-0.014": 0.0,
			"-0.013": 0.335348606634,
			"-0.012": 1.19533811249,
			"-0.011": 4.20887984765,
			"-0.01": 4.9603427266,
			"-0.009": 6.4333591049,
			"-0.008": 6.21729887518,
			"-0.007": 11.054032995,
			"-0.006": 18.576419085,
			"-0.005": 24.9287010067,
			"-0.004": 26.6672788509,
			"-0.003": 31.2721727876,
			"-0.002": 29.0066114383,
			"-0.001": 27.480686248,
			"0.0": 23.1281678502,
			"0.001": 16.6435515348,
			"0.002": 14.9088653569,
			"0.003": 18.5467557406,
			"0.004": 10.91416722,
			"0.005": 6.8720160329,
			"0.006": 7.09230157509,
			"0.007": 6.63744860043,
			"0.008": 6.52011073649,
			"0.009": 6.17746569796,
			"0.01": 9.80290150252,
			"0.011": 13.8288606224,
			"0.012": 10.5566769139,
			"0.013": 4.24507367592,
			"0.014": 0.926080277112,
			"0.015": 0.0,
			"0.016": 0.0,
			"0.017": 0.0,
			"0.018": 0.0,
			"0.019": 0.0,
			"0.02": 0.0,
			"0.021": 0.0,
			"0.022": 0.0,
			"0.023": 0.0,
			"0.024": 0.0,
			"0.025": 0.0
		}
	}
}
