{
	 "smiles": "[O-][N+](=O)C1=CC=CC=C1[N+]([O-])=O", 
	 "Tm": 391.15, 
	 "num_atms": 16, 
	 "gaussian": { 
		 "optdone": 1, 
		 "sigma_profile": "yes", 
		 "theory": "DFT", 
		 "functional": "B3LYP", 
		 "basiset": "6-31G**", 
		 "properties": { 
			 "R2extent": 2897.9917, 
			 "electric_dipole_moment_norm": 6.6331677342, 
			 "electric_quadrupole_moment_norm": 12.4718437334, 
			 "total_energy": -641.223178295, 
			 "HOMO_LUMO_gap": 0.18, 
			 "cosmo_polarized_energy": -12.91, 
			 "cosmo_cavitation_energy": 22.28, 
			 "cosmo_dispersion_energy": -16.07, 
			 "cosmo_repulsion_energy": 1.28, 
			 "cosmo_total_nonelectrostatic_energy": 7.49, 
			 "SMD_solvation_energy": 8.59 
		},
		"coords": [
			{
				"x": 2.9454229908,
				"y": -1.210768216,
				"z": 0.5672759494,
				"element": "O" 
			},
			{
				"x": 1.9197251633,
				"y": -1.5325911652,
				"z": 1.1601915209,
				"element": "N" 
			},
			{
				"x": 1.7239665206,
				"y": -2.5905288392,
				"z": 1.7463951771,
				"element": "O" 
			},
			{
				"x": 0.7932305852,
				"y": -0.5823331671,
				"z": 1.0986974251,
				"element": "C" 
			},
			{
				"x": 0.5673840882,
				"y": 0.0579174611,
				"z": -0.1152277627,
				"element": "C" 
			},
			{
				"x": -0.5554268739,
				"y": 0.872152302,
				"z": -0.2687055483,
				"element": "C" 
			},
			{
				"x": -1.4493654817,
				"y": 1.0392481395,
				"z": 0.7891353487,
				"element": "C" 
			},
			{
				"x": -1.2162016642,
				"y": 0.4054238736,
				"z": 2.0102645917,
				"element": "C" 
			},
			{
				"x": -0.0909551841,
				"y": -0.3971547805,
				"z": 2.1659962989,
				"element": "C" 
			},
			{
				"x": 0.1737743023,
				"y": -0.9324427546,
				"z": 3.5147687788,
				"element": "N" 
			},
			{
				"x": -0.8007376213,
				"y": -1.3089035901,
				"z": 4.1595782015,
				"element": "O" 
			},
			{
				"x": 1.3343818473,
				"y": -0.9050478228,
				"z": 3.9064577378,
				"element": "O" 
			},
			{
				"x": 1.2691021269,
				"y": -0.1032699362,
				"z": -0.9249363067,
				"element": "H" 
			},
			{
				"x": -0.7322765321,
				"y": 1.366143035,
				"z": -1.2184187677,
				"element": "H" 
			},
			{
				"x": -2.3249772604,
				"y": 1.6691867612,
				"z": 0.6719259213,
				"element": "H" 
			},
			{
				"x": -1.8844470068,
				"y": 0.5308686994,
				"z": 2.8539014342,
				"element": "H" 
			}
		],
		 "valence_orbital": [ 
			{
				"type": "occ",
				"energy": -0.31936,
				"method": "rhf"
			},
			{
				"type": "occ",
				"energy": -0.3193,
				"method": "rhf"
			},
			{
				"type": "occ",
				"energy": -0.31563,
				"method": "rhf"
			},
			{
				"type": "occ",
				"energy": -0.2979,
				"method": "rhf"
			},
			{
				"type": "occ",
				"energy": -0.29134,
				"method": "rhf"
			},
			{
				"type": "unocc",
				"energy": -0.11134,
				"method": "rhf"
			},
			{
				"type": "unocc",
				"energy": -0.08565,
				"method": "rhf"
			},
			{
				"type": "unocc",
				"energy": -0.04482,
				"method": "rhf"
			},
			{
				"type": "unocc",
				"energy": -0.02846,
				"method": "rhf"
			},
			{
				"type": "unocc",
				"energy": 0.04719,
				"method": "rhf"
			}
		],
		"cosmo_sigma_profile": { 
			"-0.025": 0.0,
			"-0.024": 0.0,
			"-0.023": 0.0,
			"-0.022": 0.0,
			"-0.021": 0.0,
			"-0.02": 0.0,
			"-0.019": 0.0,
			"-0.018": 0.0,
			"-0.017": 0.0,
			"-0.016": 0.0,
			"-0.015": 0.0,
			"-0.014": 0.0,
			"-0.013": 0.0,
			"-0.012": 0.0,
			"-0.011": 0.0,
			"-0.01": 0.386222702788,
			"-0.009": 6.31255704106,
			"-0.008": 13.0028244452,
			"-0.007": 9.6072029565,
			"-0.006": 8.04616832184,
			"-0.005": 6.69684757503,
			"-0.004": 6.69718267094,
			"-0.003": 11.9094531375,
			"-0.002": 12.8044242144,
			"-0.001": 14.3851094751,
			"0.0": 15.0005013906,
			"0.001": 5.86178760089,
			"0.002": 5.3582104771,
			"0.003": 4.09430948956,
			"0.004": 5.77285342635,
			"0.005": 8.1566658173,
			"0.006": 16.4958790613,
			"0.007": 16.4079830904,
			"0.008": 8.45466772566,
			"0.009": 4.28267980273,
			"0.01": 0.0419769746805,
			"0.011": 0.0,
			"0.012": 0.0,
			"0.013": 0.0,
			"0.014": 0.0,
			"0.015": 0.0,
			"0.016": 0.0,
			"0.017": 0.0,
			"0.018": 0.0,
			"0.019": 0.0,
			"0.02": 0.0,
			"0.021": 0.0,
			"0.022": 0.0,
			"0.023": 0.0,
			"0.024": 0.0,
			"0.025": 0.0
		}
	}
}
