{
	 "smiles": "CCOC(=O)CN1CCCN(CC(=O)OCC)CCN(CC(=O)OCC)CCCN(CC(=O)OCC)CC1", 
	 "Tm": 361.15, 
	 "num_atms": 86, 
	 "gaussian": { 
		 "optdone": 1, 
		 "sigma_profile": "yes", 
		 "theory": "DFT", 
		 "functional": "B3LYP", 
		 "basiset": "6-31G**", 
		 "properties": { 
			 "R2extent": 21783.5352, 
			 "electric_dipole_moment_norm": 2.03655054934, 
			 "electric_quadrupole_moment_norm": 40.8122224508, 
			 "total_energy": -1840.47701662, 
			 "HOMO_LUMO_gap": 0.196, 
			 "cosmo_polarized_energy": -28.36, 
			 "cosmo_cavitation_energy": 81.23, 
			 "cosmo_dispersion_energy": -45.7, 
			 "cosmo_repulsion_energy": 3.45, 
			 "cosmo_total_nonelectrostatic_energy": 38.99, 
			 "SMD_solvation_energy": 13.71 
		},
		"coords": [
			{
				"x": 0.1948579363,
				"y": -5.6351492368,
				"z": 3.9759459581,
				"element": "C" 
			},
			{
				"x": 0.1514671637,
				"y": -5.3556431337,
				"z": 2.4810287435,
				"element": "C" 
			},
			{
				"x": 0.1275382255,
				"y": -3.9350061624,
				"z": 2.2057995575,
				"element": "O" 
			},
			{
				"x": -1.0932742032,
				"y": -3.3309147824,
				"z": 2.249681661,
				"element": "C" 
			},
			{
				"x": -2.1243717216,
				"y": -3.9224488547,
				"z": 2.4725289652,
				"element": "O" 
			},
			{
				"x": -0.9226363742,
				"y": -1.8316602326,
				"z": 2.0123807853,
				"element": "C" 
			},
			{
				"x": -2.1513315724,
				"y": -1.156364711,
				"z": 1.6760955608,
				"element": "N" 
			},
			{
				"x": -2.5452496447,
				"y": -1.1164758546,
				"z": 0.2596248651,
				"element": "C" 
			},
			{
				"x": -2.2575205621,
				"y": -2.3547846401,
				"z": -0.6077157681,
				"element": "C" 
			},
			{
				"x": -0.8554292684,
				"y": -2.4395079039,
				"z": -1.2526960764,
				"element": "C" 
			},
			{
				"x": -0.4230823726,
				"y": -1.1869076657,
				"z": -1.8808840896,
				"element": "N" 
			},
			{
				"x": -1.2270105759,
				"y": -0.740451464,
				"z": -3.0154074615,
				"element": "C" 
			},
			{
				"x": -1.1632129815,
				"y": -1.6916787621,
				"z": -4.209860847,
				"element": "C" 
			},
			{
				"x": -1.8446717612,
				"y": -2.6897888587,
				"z": -4.3355945953,
				"element": "O" 
			},
			{
				"x": -0.1918822793,
				"y": -1.337937433,
				"z": -5.084164201,
				"element": "O" 
			},
			{
				"x": 0.0085404001,
				"y": -2.2344201084,
				"z": -6.2025273602,
				"element": "C" 
			},
			{
				"x": 1.1263675207,
				"y": -1.6627003063,
				"z": -7.0536227678,
				"element": "C" 
			},
			{
				"x": 1.021503338,
				"y": -1.0527172186,
				"z": -2.0679831179,
				"element": "C" 
			},
			{
				"x": 1.7558611846,
				"y": -0.5346048905,
				"z": -0.8173485003,
				"element": "C" 
			},
			{
				"x": 1.3276969327,
				"y": 0.8019590867,
				"z": -0.4060294807,
				"element": "N" 
			},
			{
				"x": 1.9256663934,
				"y": 1.8719643927,
				"z": -1.1871306683,
				"element": "C" 
			},
			{
				"x": 1.0157890594,
				"y": 3.069684524,
				"z": -1.4582306368,
				"element": "C" 
			},
			{
				"x": 1.3384271091,
				"y": 4.2235377842,
				"z": -1.264632602,
				"element": "O" 
			},
			{
				"x": -0.1717581582,
				"y": 2.7065396218,
				"z": -1.9848245482,
				"element": "O" 
			},
			{
				"x": -1.0781787245,
				"y": 3.7960186318,
				"z": -2.2771461502,
				"element": "C" 
			},
			{
				"x": -2.3654707996,
				"y": 3.1982082855,
				"z": -2.8112667644,
				"element": "C" 
			},
			{
				"x": 1.3402778009,
				"y": 1.0550212471,
				"z": 1.0386711408,
				"element": "C" 
			},
			{
				"x": 0.2472329546,
				"y": 2.042398943,
				"z": 1.4768026949,
				"element": "C" 
			},
			{
				"x": -0.0078878082,
				"y": 2.0583476941,
				"z": 2.9952973012,
				"element": "C" 
			},
			{
				"x": -0.3799678604,
				"y": 0.7654522855,
				"z": 3.6125475493,
				"element": "N" 
			},
			{
				"x": 0.23449755,
				"y": 0.6088923201,
				"z": 4.9399933004,
				"element": "C" 
			},
			{
				"x": 1.6864235514,
				"y": 0.1744962809,
				"z": 4.7764681,
				"element": "C" 
			},
			{
				"x": 2.6113282252,
				"y": 0.9194628024,
				"z": 4.5244751863,
				"element": "O" 
			},
			{
				"x": 1.799761677,
				"y": -1.1632961101,
				"z": 4.9114106957,
				"element": "O" 
			},
			{
				"x": 3.1121899452,
				"y": -1.7397598874,
				"z": 4.6915168123,
				"element": "C" 
			},
			{
				"x": 3.3170336283,
				"y": -2.0806976579,
				"z": 3.2234928333,
				"element": "C" 
			},
			{
				"x": -1.8235284252,
				"y": 0.4697712809,
				"z": 3.6420914398,
				"element": "C" 
			},
			{
				"x": -2.4717141063,
				"y": 0.1331219423,
				"z": 2.2964581016,
				"element": "C" 
			},
			{
				"x": -0.7220065333,
				"y": -5.2863586629,
				"z": 4.4569990669,
				"element": "H" 
			},
			{
				"x": 0.2858557863,
				"y": -6.7125034177,
				"z": 4.1509275968,
				"element": "H" 
			},
			{
				"x": 1.0508338455,
				"y": -5.1383412145,
				"z": 4.4427086711,
				"element": "H" 
			},
			{
				"x": -0.7272504841,
				"y": -5.815859399,
				"z": 2.0227610772,
				"element": "H" 
			},
			{
				"x": 1.0530072529,
				"y": -5.7163903835,
				"z": 1.9795838645,
				"element": "H" 
			},
			{
				"x": -0.1133911478,
				"y": -1.6982718803,
				"z": 1.2831452363,
				"element": "H" 
			},
			{
				"x": -0.5101972954,
				"y": -1.4322628886,
				"z": 2.9406294288,
				"element": "H" 
			},
			{
				"x": -2.0808543459,
				"y": -0.2463398759,
				"z": -0.2378911971,
				"element": "H" 
			},
			{
				"x": -3.6302070763,
				"y": -0.944202645,
				"z": 0.2476095112,
				"element": "H" 
			},
			{
				"x": -2.4487371264,
				"y": -3.2729793129,
				"z": -0.0443052612,
				"element": "H" 
			},
			{
				"x": -2.9958108889,
				"y": -2.3560913142,
				"z": -1.4176071629,
				"element": "H" 
			},
			{
				"x": -0.8635952198,
				"y": -3.2804970269,
				"z": -1.9676616073,
				"element": "H" 
			},
			{
				"x": -0.1064997176,
				"y": -2.6926967472,
				"z": -0.4979003233,
				"element": "H" 
			},
			{
				"x": -0.8908372329,
				"y": 0.2578934665,
				"z": -3.3038519999,
				"element": "H" 
			},
			{
				"x": -2.2757107609,
				"y": -0.6762360984,
				"z": -2.7135828813,
				"element": "H" 
			},
			{
				"x": -0.930603256,
				"y": -2.3188271318,
				"z": -6.7583774098,
				"element": "H" 
			},
			{
				"x": 0.2504622182,
				"y": -3.2302203312,
				"z": -5.8176654247,
				"element": "H" 
			},
			{
				"x": 2.0549083202,
				"y": -1.5850484586,
				"z": -6.4805457525,
				"element": "H" 
			},
			{
				"x": 1.3076654014,
				"y": -2.3129052479,
				"z": -7.9151974814,
				"element": "H" 
			},
			{
				"x": 0.8663385947,
				"y": -0.6666942288,
				"z": -7.4235741064,
				"element": "H" 
			},
			{
				"x": 1.1945671069,
				"y": -0.3609128149,
				"z": -2.8977443838,
				"element": "H" 
			},
			{
				"x": 1.4963914331,
				"y": -2.0032120915,
				"z": -2.3722857207,
				"element": "H" 
			},
			{
				"x": 1.5672905875,
				"y": -1.2198804832,
				"z": 0.0132585501,
				"element": "H" 
			},
			{
				"x": 2.8438616244,
				"y": -0.5924340459,
				"z": -1.0152118088,
				"element": "H" 
			},
			{
				"x": 2.8379164031,
				"y": 2.2840821091,
				"z": -0.7247585255,
				"element": "H" 
			},
			{
				"x": 2.2086275747,
				"y": 1.4813874102,
				"z": -2.1715882751,
				"element": "H" 
			},
			{
				"x": -0.6041459433,
				"y": 4.4667535184,
				"z": -3.0010269854,
				"element": "H" 
			},
			{
				"x": -1.2430722162,
				"y": 4.3705603396,
				"z": -1.3603358732,
				"element": "H" 
			},
			{
				"x": -2.8128195284,
				"y": 2.5183098343,
				"z": -2.0806121705,
				"element": "H" 
			},
			{
				"x": -2.1884573455,
				"y": 2.6425814887,
				"z": -3.7368502261,
				"element": "H" 
			},
			{
				"x": -3.0835079199,
				"y": 3.9964094404,
				"z": -3.0245211119,
				"element": "H" 
			},
			{
				"x": 2.3277958781,
				"y": 1.4110807368,
				"z": 1.3883422043,
				"element": "H" 
			},
			{
				"x": 1.1515283424,
				"y": 0.1074017177,
				"z": 1.5458750178,
				"element": "H" 
			},
			{
				"x": -0.6601579784,
				"y": 1.7976331605,
				"z": 0.9198789273,
				"element": "H" 
			},
			{
				"x": 0.5204299052,
				"y": 3.066694729,
				"z": 1.1943315114,
				"element": "H" 
			},
			{
				"x": -0.7769284252,
				"y": 2.8184648445,
				"z": 3.2214644845,
				"element": "H" 
			},
			{
				"x": 0.9136663626,
				"y": 2.3904026045,
				"z": 3.4809413432,
				"element": "H" 
			},
			{
				"x": 0.2123911909,
				"y": 1.5346028272,
				"z": 5.5374817195,
				"element": "H" 
			},
			{
				"x": -0.2950788362,
				"y": -0.1683676509,
				"z": 5.4929902903,
				"element": "H" 
			},
			{
				"x": 3.1222228396,
				"y": -2.6358955375,
				"z": 5.3167374486,
				"element": "H" 
			},
			{
				"x": 3.8685214755,
				"y": -1.0373862198,
				"z": 5.0493044975,
				"element": "H" 
			},
			{
				"x": 2.507224963,
				"y": -2.7187119437,
				"z": 2.8577044653,
				"element": "H" 
			},
			{
				"x": 3.3515389059,
				"y": -1.1698735887,
				"z": 2.6200085627,
				"element": "H" 
			},
			{
				"x": 4.266747159,
				"y": -2.611013907,
				"z": 3.0947552585,
				"element": "H" 
			},
			{
				"x": -2.3913110207,
				"y": 1.3211729771,
				"z": 4.0626017136,
				"element": "H" 
			},
			{
				"x": -1.9815165936,
				"y": -0.3747584263,
				"z": 4.3213827976,
				"element": "H" 
			},
			{
				"x": -3.5592574795,
				"y": 0.1601810087,
				"z": 2.4677831102,
				"element": "H" 
			},
			{
				"x": -2.2718201951,
				"y": 0.9605995132,
				"z": 1.5973437169,
				"element": "H" 
			}
		],
		 "valence_orbital": [ 
			{
				"type": "occ",
				"energy": -0.26398,
				"method": "rhf"
			},
			{
				"type": "occ",
				"energy": -0.22184,
				"method": "rhf"
			},
			{
				"type": "occ",
				"energy": -0.20772,
				"method": "rhf"
			},
			{
				"type": "occ",
				"energy": -0.20439,
				"method": "rhf"
			},
			{
				"type": "occ",
				"energy": -0.19327,
				"method": "rhf"
			},
			{
				"type": "unocc",
				"energy": 0.00273,
				"method": "rhf"
			},
			{
				"type": "unocc",
				"energy": 0.00846,
				"method": "rhf"
			},
			{
				"type": "unocc",
				"energy": 0.01122,
				"method": "rhf"
			},
			{
				"type": "unocc",
				"energy": 0.02012,
				"method": "rhf"
			},
			{
				"type": "unocc",
				"energy": 0.06845,
				"method": "rhf"
			}
		],
		"cosmo_sigma_profile": { 
			"-0.025": 0.0,
			"-0.024": 0.0,
			"-0.023": 0.0,
			"-0.022": 0.0,
			"-0.021": 0.0,
			"-0.02": 0.0,
			"-0.019": 0.0,
			"-0.018": 0.0,
			"-0.017": 0.0,
			"-0.016": 0.0,
			"-0.015": 0.0,
			"-0.014": 0.0,
			"-0.013": 0.0,
			"-0.012": 0.0,
			"-0.011": 0.0,
			"-0.01": 0.0,
			"-0.009": 0.0,
			"-0.008": 0.314682255222,
			"-0.007": 4.61834799458,
			"-0.006": 9.47554248746,
			"-0.005": 30.8085269003,
			"-0.004": 59.3530273549,
			"-0.003": 94.5691937638,
			"-0.002": 98.7546768395,
			"-0.001": 81.1796955347,
			"0.0": 65.1304215988,
			"0.001": 34.7931609908,
			"0.002": 26.7652868197,
			"0.003": 18.707720407,
			"0.004": 14.0650378941,
			"0.005": 12.5454810129,
			"0.006": 9.46245986985,
			"0.007": 9.33360805112,
			"0.008": 8.73537540218,
			"0.009": 6.42498672865,
			"0.01": 8.38130098638,
			"0.011": 9.8172554603,
			"0.012": 16.8411518109,
			"0.013": 5.25774288364,
			"0.014": 1.28769740936,
			"0.015": 1.48055547607,
			"0.016": 1.30609648376,
			"0.017": 0.660466653828,
			"0.018": 0.211760838124,
			"0.019": 0.0,
			"0.02": 0.0,
			"0.021": 0.0,
			"0.022": 0.0,
			"0.023": 0.0,
			"0.024": 0.0,
			"0.025": 0.0
		}
	}
}
