{
	 "smiles": "CC1=C(C=C(O1)C(O)=O)S(N)(=O)=O", 
	 "Tm": 499.15, 
	 "num_atms": 20, 
	 "gaussian": { 
		 "optdone": 1, 
		 "sigma_profile": "yes", 
		 "theory": "DFT", 
		 "functional": "B3LYP", 
		 "basiset": "6-31G**", 
		 "properties": { 
			 "R2extent": 3734.7994, 
			 "electric_dipole_moment_norm": 2.24909059177, 
			 "electric_quadrupole_moment_norm": 34.7392714085, 
			 "total_energy": -1061.83309996, 
			 "HOMO_LUMO_gap": 0.19752, 
			 "cosmo_polarized_energy": -22.18, 
			 "cosmo_cavitation_energy": 27.11, 
			 "cosmo_dispersion_energy": -20.08, 
			 "cosmo_repulsion_energy": 1.57, 
			 "cosmo_total_nonelectrostatic_energy": 8.6, 
			 "SMD_solvation_energy": 6.23 
		},
		"coords": [
			{
				"x": -1.365909978,
				"y": -0.1955225977,
				"z": 1.1892579357,
				"element": "C" 
			},
			{
				"x": -0.4512958257,
				"y": -0.7354825751,
				"z": 0.1480153543,
				"element": "C" 
			},
			{
				"x": -0.3982475056,
				"y": -0.6006292382,
				"z": -1.2198494034,
				"element": "C" 
			},
			{
				"x": 0.7128537607,
				"y": -1.3574649009,
				"z": -1.6923397187,
				"element": "C" 
			},
			{
				"x": 1.2778035229,
				"y": -1.9139925358,
				"z": -0.5822131257,
				"element": "C" 
			},
			{
				"x": 0.570931025,
				"y": -1.5370960372,
				"z": 0.5422802623,
				"element": "O" 
			},
			{
				"x": 2.4460211708,
				"y": -2.7941670318,
				"z": -0.4159506682,
				"element": "C" 
			},
			{
				"x": 2.7278688037,
				"y": -3.1618464511,
				"z": 0.8571384782,
				"element": "O" 
			},
			{
				"x": 3.1148410858,
				"y": -3.1663307599,
				"z": -1.3513085787,
				"element": "O" 
			},
			{
				"x": -1.5584578325,
				"y": 0.3696830849,
				"z": -2.142843868,
				"element": "S" 
			},
			{
				"x": -1.0034626524,
				"y": 0.1622972057,
				"z": -3.7204024423,
				"element": "N" 
			},
			{
				"x": -2.8732801267,
				"y": -0.2677422386,
				"z": -2.0334980832,
				"element": "O" 
			},
			{
				"x": -1.3713253299,
				"y": 1.7752707744,
				"z": -1.7736229493,
				"element": "O" 
			},
			{
				"x": -2.3950936864,
				"y": -0.5150008174,
				"z": 0.9967007234,
				"element": "H" 
			},
			{
				"x": -1.0617513769,
				"y": -0.5451230022,
				"z": 2.177359111,
				"element": "H" 
			},
			{
				"x": -1.355203719,
				"y": 0.8990539985,
				"z": 1.1769357809,
				"element": "H" 
			},
			{
				"x": 1.0433700238,
				"y": -1.4708195012,
				"z": -2.7125055827,
				"element": "H" 
			},
			{
				"x": 2.0861079978,
				"y": -2.7674402883,
				"z": 1.4680308777,
				"element": "H" 
			},
			{
				"x": -1.7219986454,
				"y": -0.2895662664,
				"z": -4.2795267297,
				"element": "H" 
			},
			{
				"x": -0.7289707119,
				"y": 1.0610191784,
				"z": -4.1077573738,
				"element": "H" 
			}
		],
		 "valence_orbital": [ 
			{
				"type": "occ",
				"energy": -0.32286,
				"method": "rhf"
			},
			{
				"type": "occ",
				"energy": -0.31054,
				"method": "rhf"
			},
			{
				"type": "occ",
				"energy": -0.30393,
				"method": "rhf"
			},
			{
				"type": "occ",
				"energy": -0.28567,
				"method": "rhf"
			},
			{
				"type": "occ",
				"energy": -0.25803,
				"method": "rhf"
			},
			{
				"type": "unocc",
				"energy": -0.06051,
				"method": "rhf"
			},
			{
				"type": "unocc",
				"energy": -0.01045,
				"method": "rhf"
			},
			{
				"type": "unocc",
				"energy": 0.03706,
				"method": "rhf"
			},
			{
				"type": "unocc",
				"energy": 0.05392,
				"method": "rhf"
			},
			{
				"type": "unocc",
				"energy": 0.06802,
				"method": "rhf"
			}
		],
		"cosmo_sigma_profile": { 
			"-0.025": 0.0,
			"-0.024": 0.0,
			"-0.023": 0.0,
			"-0.022": 0.0,
			"-0.021": 0.0,
			"-0.02": 0.0,
			"-0.019": 0.0,
			"-0.018": 0.0353573052653,
			"-0.017": 0.674937438706,
			"-0.016": 0.900445987295,
			"-0.015": 3.03451070291,
			"-0.014": 2.68920158819,
			"-0.013": 3.67815654257,
			"-0.012": 3.50063850614,
			"-0.011": 4.045796127,
			"-0.01": 2.02252772175,
			"-0.009": 2.45598443645,
			"-0.008": 4.65218873479,
			"-0.007": 6.36364578072,
			"-0.006": 8.89045112761,
			"-0.005": 10.6716176047,
			"-0.004": 13.9040805545,
			"-0.003": 19.4036512022,
			"-0.002": 15.2800266579,
			"-0.001": 13.6802753024,
			"0.0": 13.4288415975,
			"0.001": 7.1245705999,
			"0.002": 6.57873890755,
			"0.003": 4.70264681257,
			"0.004": 4.98794257487,
			"0.005": 5.71149082835,
			"0.006": 3.85632749251,
			"0.007": 6.00537765291,
			"0.008": 5.64445408486,
			"0.009": 7.05277054331,
			"0.01": 16.0035158475,
			"0.011": 13.4796130709,
			"0.012": 4.89812292858,
			"0.013": 0.707930151638,
			"0.014": 0.0,
			"0.015": 0.0,
			"0.016": 0.0,
			"0.017": 0.0,
			"0.018": 0.0,
			"0.019": 0.0,
			"0.02": 0.0,
			"0.021": 0.0,
			"0.022": 0.0,
			"0.023": 0.0,
			"0.024": 0.0,
			"0.025": 0.0
		}
	}
}
