{
	 "smiles": "NN1C(S)=NN=C1C1=C(F)C=CC=C1", 
	 "Tm": 458.15, 
	 "num_atms": 21, 
	 "gaussian": { 
		 "optdone": 1, 
		 "sigma_profile": "yes", 
		 "theory": "DFT", 
		 "functional": "B3LYP", 
		 "basiset": "6-31G**", 
		 "properties": { 
			 "R2extent": 4027.861, 
			 "electric_dipole_moment_norm": 3.95993327974, 
			 "electric_quadrupole_moment_norm": 22.7648509615, 
			 "total_energy": -1026.03487938, 
			 "HOMO_LUMO_gap": 0.193, 
			 "cosmo_polarized_energy": -17.95, 
			 "cosmo_cavitation_energy": 27.92, 
			 "cosmo_dispersion_energy": -20.84, 
			 "cosmo_repulsion_energy": 1.57, 
			 "cosmo_total_nonelectrostatic_energy": 8.65, 
			 "SMD_solvation_energy": 3.18 
		},
		"coords": [
			{
				"x": 0.6693572296,
				"y": -0.339839909,
				"z": 2.1763941397,
				"element": "N" 
			},
			{
				"x": 0.3808704604,
				"y": 1.0144099659,
				"z": 1.9847494302,
				"element": "N" 
			},
			{
				"x": 0.2203721029,
				"y": 2.0004894594,
				"z": 2.9268126674,
				"element": "C" 
			},
			{
				"x": 0.165297242,
				"y": 1.6224717976,
				"z": 4.6507149767,
				"element": "S" 
			},
			{
				"x": 0.1406585929,
				"y": 3.1789262278,
				"z": 2.3598220482,
				"element": "N" 
			},
			{
				"x": 0.241139979,
				"y": 2.9758913082,
				"z": 0.993612513,
				"element": "N" 
			},
			{
				"x": 0.3872689655,
				"y": 1.6866152793,
				"z": 0.7770276023,
				"element": "C" 
			},
			{
				"x": 0.5378299477,
				"y": 1.0616279196,
				"z": -0.5399470957,
				"element": "C" 
			},
			{
				"x": -0.1397566065,
				"y": -0.1072303547,
				"z": -0.903679034,
				"element": "C" 
			},
			{
				"x": -0.9826087004,
				"y": -0.6869202016,
				"z": -0.0173404991,
				"element": "F" 
			},
			{
				"x": -0.011477403,
				"y": -0.6824701651,
				"z": -2.160300123,
				"element": "C" 
			},
			{
				"x": 0.8063358193,
				"y": -0.0624224491,
				"z": -3.1055356542,
				"element": "C" 
			},
			{
				"x": 1.4750249065,
				"y": 1.1218123478,
				"z": -2.7853581334,
				"element": "C" 
			},
			{
				"x": 1.3401438237,
				"y": 1.6763863528,
				"z": -1.5148881998,
				"element": "C" 
			},
			{
				"x": -0.1832723484,
				"y": -0.8412080963,
				"z": 2.4113823129,
				"element": "H" 
			},
			{
				"x": 1.3464203278,
				"y": -0.4282540963,
				"z": 2.930057843,
				"element": "H" 
			},
			{
				"x": 0.2268680166,
				"y": 2.9174441543,
				"z": 5.0123865272,
				"element": "H" 
			},
			{
				"x": -0.5620056313,
				"y": -1.5898820903,
				"z": -2.3831661952,
				"element": "H" 
			},
			{
				"x": 0.9131446995,
				"y": -0.5025600884,
				"z": -4.0922846782,
				"element": "H" 
			},
			{
				"x": 2.1040082777,
				"y": 1.6099279739,
				"z": -3.5228969574,
				"element": "H" 
			},
			{
				"x": 1.8511802984,
				"y": 2.5957846643,
				"z": -1.2503634905,
				"element": "H" 
			}
		],
		 "valence_orbital": [ 
			{
				"type": "occ",
				"energy": -0.28932,
				"method": "rhf"
			},
			{
				"type": "occ",
				"energy": -0.27242,
				"method": "rhf"
			},
			{
				"type": "occ",
				"energy": -0.25563,
				"method": "rhf"
			},
			{
				"type": "occ",
				"energy": -0.25068,
				"method": "rhf"
			},
			{
				"type": "occ",
				"energy": -0.22668,
				"method": "rhf"
			},
			{
				"type": "unocc",
				"energy": -0.03368,
				"method": "rhf"
			},
			{
				"type": "unocc",
				"energy": -0.00695,
				"method": "rhf"
			},
			{
				"type": "unocc",
				"energy": -0.00216,
				"method": "rhf"
			},
			{
				"type": "unocc",
				"energy": 0.02339,
				"method": "rhf"
			},
			{
				"type": "unocc",
				"energy": 0.04795,
				"method": "rhf"
			}
		],
		"cosmo_sigma_profile": { 
			"-0.025": 0.0,
			"-0.024": 0.0,
			"-0.023": 0.0,
			"-0.022": 0.0,
			"-0.021": 0.0,
			"-0.02": 0.0,
			"-0.019": 0.0,
			"-0.018": 0.0,
			"-0.017": 0.0,
			"-0.016": 0.0,
			"-0.015": 0.0,
			"-0.014": 0.729417578095,
			"-0.013": 3.3140685348,
			"-0.012": 5.29237563311,
			"-0.011": 4.23376330158,
			"-0.01": 4.01130589493,
			"-0.009": 3.72959160559,
			"-0.008": 3.66667210994,
			"-0.007": 7.08352046321,
			"-0.006": 11.4550963936,
			"-0.005": 12.1350248749,
			"-0.004": 10.8783255942,
			"-0.003": 10.2351991653,
			"-0.002": 11.4554494265,
			"-0.001": 13.2326729185,
			"0.0": 16.7576340406,
			"0.001": 14.238454303,
			"0.002": 18.0835247774,
			"0.003": 21.1399516177,
			"0.004": 15.8539182369,
			"0.005": 6.6025421667,
			"0.006": 5.16496179371,
			"0.007": 2.90037418791,
			"0.008": 2.15017825022,
			"0.009": 3.04654471755,
			"0.01": 3.44163889097,
			"0.011": 2.78775567181,
			"0.012": 2.26432306015,
			"0.013": 3.48501318415,
			"0.014": 3.19636276114,
			"0.015": 2.35856226609,
			"0.016": 1.67815585783,
			"0.017": 0.138083070155,
			"0.018": 0.0,
			"0.019": 0.0,
			"0.02": 0.0,
			"0.021": 0.0,
			"0.022": 0.0,
			"0.023": 0.0,
			"0.024": 0.0,
			"0.025": 0.0
		}
	}
}
