{
	 "smiles": "NC(=NO)C1=C(Cl)C(Cl)=CC=C1", 
	 "Tm": 413.15, 
	 "num_atms": 18, 
	 "gaussian": { 
		 "optdone": 1, 
		 "sigma_profile": "yes", 
		 "theory": "DFT", 
		 "functional": "B3LYP", 
		 "basiset": "6-31G**", 
		 "properties": { 
			 "R2extent": 3770.1245, 
			 "electric_dipole_moment_norm": 1.51813954892, 
			 "electric_quadrupole_moment_norm": 10.4912388015, 
			 "total_energy": -1375.4060933, 
			 "HOMO_LUMO_gap": 0.18163, 
			 "cosmo_polarized_energy": -11.62, 
			 "cosmo_cavitation_energy": 26.1, 
			 "cosmo_dispersion_energy": -19.18, 
			 "cosmo_repulsion_energy": 1.56, 
			 "cosmo_total_nonelectrostatic_energy": 8.49, 
			 "SMD_solvation_energy": 3.78 
		},
		"coords": [
			{
				"x": -0.6117507562,
				"y": 1.1377504197,
				"z": 2.0325651437,
				"element": "N" 
			},
			{
				"x": 0.5695552343,
				"y": 0.4007910431,
				"z": 1.9853622125,
				"element": "C" 
			},
			{
				"x": 1.0351043246,
				"y": -0.0643282007,
				"z": 3.0911223273,
				"element": "N" 
			},
			{
				"x": 2.147421148,
				"y": -0.9157209976,
				"z": 2.883177874,
				"element": "O" 
			},
			{
				"x": 1.1187863411,
				"y": 0.1024894057,
				"z": 0.6249779337,
				"element": "C" 
			},
			{
				"x": 1.7026077361,
				"y": 1.0934690383,
				"z": -0.1801010623,
				"element": "C" 
			},
			{
				"x": 1.8402130775,
				"y": 2.7338122635,
				"z": 0.4221077691,
				"element": "Cl" 
			},
			{
				"x": 2.1857536756,
				"y": 0.7700332015,
				"z": -1.4568434249,
				"element": "C" 
			},
			{
				"x": 2.9161777195,
				"y": 1.9790021922,
				"z": -2.4866256993,
				"element": "Cl" 
			},
			{
				"x": 2.0905980107,
				"y": -0.5386761587,
				"z": -1.9301550421,
				"element": "C" 
			},
			{
				"x": 1.5192681286,
				"y": -1.525527579,
				"z": -1.1302510075,
				"element": "C" 
			},
			{
				"x": 1.0407293038,
				"y": -1.2072623052,
				"z": 0.1370793201,
				"element": "C" 
			},
			{
				"x": -0.8530597968,
				"y": 1.4129649967,
				"z": 2.9784052997,
				"element": "H" 
			},
			{
				"x": -0.6380231398,
				"y": 1.9207026949,
				"z": 1.3910200648,
				"element": "H" 
			},
			{
				"x": 2.3863624858,
				"y": -1.1402963322,
				"z": 3.7915060587,
				"element": "H" 
			},
			{
				"x": 2.4687026891,
				"y": -0.7695333864,
				"z": -2.9197057412,
				"element": "H" 
			},
			{
				"x": 1.4507678064,
				"y": -2.54382061,
				"z": -1.4993122038,
				"element": "H" 
			},
			{
				"x": 0.6054860117,
				"y": -1.9709496859,
				"z": 0.7711701775,
				"element": "H" 
			}
		],
		 "valence_orbital": [ 
			{
				"type": "occ",
				"energy": -0.3099,
				"method": "rhf"
			},
			{
				"type": "occ",
				"energy": -0.27565,
				"method": "rhf"
			},
			{
				"type": "occ",
				"energy": -0.26286,
				"method": "rhf"
			},
			{
				"type": "occ",
				"energy": -0.25395,
				"method": "rhf"
			},
			{
				"type": "occ",
				"energy": -0.21536,
				"method": "rhf"
			},
			{
				"type": "unocc",
				"energy": -0.03373,
				"method": "rhf"
			},
			{
				"type": "unocc",
				"energy": -0.02532,
				"method": "rhf"
			},
			{
				"type": "unocc",
				"energy": -0.00248,
				"method": "rhf"
			},
			{
				"type": "unocc",
				"energy": 0.02463,
				"method": "rhf"
			},
			{
				"type": "unocc",
				"energy": 0.06062,
				"method": "rhf"
			}
		],
		"cosmo_sigma_profile": { 
			"-0.025": 0.0,
			"-0.024": 0.0,
			"-0.023": 0.0,
			"-0.022": 0.0,
			"-0.021": 0.0,
			"-0.02": 0.0,
			"-0.019": 0.0,
			"-0.018": 0.0,
			"-0.017": 0.225151343594,
			"-0.016": 1.28819860474,
			"-0.015": 0.592410385965,
			"-0.014": 0.81758635495,
			"-0.013": 1.25633794346,
			"-0.012": 2.54613215184,
			"-0.011": 2.56615206776,
			"-0.01": 3.67779802986,
			"-0.009": 2.80683310109,
			"-0.008": 4.65259576009,
			"-0.007": 8.44850038283,
			"-0.006": 9.53319968276,
			"-0.005": 7.43031087176,
			"-0.004": 6.72242462058,
			"-0.003": 9.19224811364,
			"-0.002": 9.90319069975,
			"-0.001": 13.9755825169,
			"0.0": 17.2153079685,
			"0.001": 19.1039711103,
			"0.002": 21.0223655082,
			"0.003": 18.4051400026,
			"0.004": 16.6240465737,
			"0.005": 7.32526804274,
			"0.006": 4.48500239211,
			"0.007": 4.86506093727,
			"0.008": 3.82222626459,
			"0.009": 4.41021299916,
			"0.01": 3.45710016131,
			"0.011": 3.50883838464,
			"0.012": 0.978360536198,
			"0.013": 1.38797446196,
			"0.014": 0.388486048161,
			"0.015": 0.0,
			"0.016": 0.0,
			"0.017": 0.0,
			"0.018": 0.0,
			"0.019": 0.0,
			"0.02": 0.0,
			"0.021": 0.0,
			"0.022": 0.0,
			"0.023": 0.0,
			"0.024": 0.0,
			"0.025": 0.0
		}
	}
}
