{
	 "smiles": "CC1(C)CNC(NC1)=NN=C(C=CC1=CC=C(C=C1)C(F)(F)F)/C=C/C1=CC=C(C=C1)C(F)(F)F", 
	 "Tm": 461.15, 
	 "num_atms": 59, 
	 "gaussian": { 
		 "optdone": 1, 
		 "sigma_profile": "yes", 
		 "theory": "DFT", 
		 "functional": "B3LYP", 
		 "basiset": "6-31G**", 
		 "properties": { 
			 "R2extent": 36308.6616, 
			 "electric_dipole_moment_norm": 9.84342295495, 
			 "electric_quadrupole_moment_norm": 39.7400426818, 
			 "total_energy": -1785.16147151, 
			 "HOMO_LUMO_gap": 0.11566, 
			 "cosmo_polarized_energy": -17.74, 
			 "cosmo_cavitation_energy": 66.05, 
			 "cosmo_dispersion_energy": -45.32, 
			 "cosmo_repulsion_energy": 3.24, 
			 "cosmo_total_nonelectrostatic_energy": 23.97, 
			 "SMD_solvation_energy": 11.11 
		},
		"coords": [
			{
				"x": 2.3742640248,
				"y": 2.1704942793,
				"z": -6.0417350088,
				"element": "C" 
			},
			{
				"x": 1.5045324897,
				"y": 1.3826969786,
				"z": -5.0508193008,
				"element": "C" 
			},
			{
				"x": 0.1070330287,
				"y": 1.1392170211,
				"z": -5.6496902372,
				"element": "C" 
			},
			{
				"x": 1.3976850777,
				"y": 2.1701281484,
				"z": -3.7270495566,
				"element": "C" 
			},
			{
				"x": 0.7915362269,
				"y": 1.3551590324,
				"z": -2.6858666706,
				"element": "N" 
			},
			{
				"x": 0.9584245808,
				"y": 0.0177082466,
				"z": -2.5828216734,
				"element": "C" 
			},
			{
				"x": 1.5042775444,
				"y": -0.6427215778,
				"z": -3.639522524,
				"element": "N" 
			},
			{
				"x": 2.1954140708,
				"y": 0.0409587865,
				"z": -4.7234147489,
				"element": "C" 
			},
			{
				"x": 0.5746131159,
				"y": -0.7096701588,
				"z": -1.5333894698,
				"element": "N" 
			},
			{
				"x": 0.0266326831,
				"y": 0.0793742166,
				"z": -0.5783899239,
				"element": "N" 
			},
			{
				"x": -0.4360108798,
				"y": -0.475641893,
				"z": 0.5235316141,
				"element": "C" 
			},
			{
				"x": -0.9707128286,
				"y": 0.5128639527,
				"z": 1.4615895208,
				"element": "C" 
			},
			{
				"x": -1.3954833227,
				"y": 0.3190462131,
				"z": 2.7300240513,
				"element": "C" 
			},
			{
				"x": -1.9231428061,
				"y": 1.3441485845,
				"z": 3.6322640581,
				"element": "C" 
			},
			{
				"x": -2.1928015133,
				"y": 0.9990507088,
				"z": 4.9712909644,
				"element": "C" 
			},
			{
				"x": -2.6895768382,
				"y": 1.9296521704,
				"z": 5.8778787905,
				"element": "C" 
			},
			{
				"x": -2.9375422538,
				"y": 3.2405233168,
				"z": 5.4649076049,
				"element": "C" 
			},
			{
				"x": -2.6845937844,
				"y": 3.6048497357,
				"z": 4.1367417888,
				"element": "C" 
			},
			{
				"x": -2.1894902384,
				"y": 2.6718010949,
				"z": 3.2360165042,
				"element": "C" 
			},
			{
				"x": -3.4200303712,
				"y": 4.2701254535,
				"z": 6.4450745855,
				"element": "C" 
			},
			{
				"x": -4.2379711375,
				"y": 5.1773518297,
				"z": 5.8620509609,
				"element": "F" 
			},
			{
				"x": -2.3941097597,
				"y": 4.970184093,
				"z": 6.98873693,
				"element": "F" 
			},
			{
				"x": -4.0990878824,
				"y": 3.714029341,
				"z": 7.4737764561,
				"element": "F" 
			},
			{
				"x": -0.4876518972,
				"y": -1.89531325,
				"z": 0.8719614559,
				"element": "C" 
			},
			{
				"x": 0.0888143953,
				"y": -2.9447209756,
				"z": 0.2417702569,
				"element": "C" 
			},
			{
				"x": -0.0226918588,
				"y": -4.3480055865,
				"z": 0.651685483,
				"element": "C" 
			},
			{
				"x": 0.8223338941,
				"y": -5.2962114037,
				"z": 0.0428044112,
				"element": "C" 
			},
			{
				"x": 0.7761716683,
				"y": -6.6424330643,
				"z": 0.3898631711,
				"element": "C" 
			},
			{
				"x": -0.131448754,
				"y": -7.080240193,
				"z": 1.3569600853,
				"element": "C" 
			},
			{
				"x": -0.9907164733,
				"y": -6.1583944046,
				"z": 1.9668094458,
				"element": "C" 
			},
			{
				"x": -0.9388479001,
				"y": -4.8156334496,
				"z": 1.6163828493,
				"element": "C" 
			},
			{
				"x": -0.1539100775,
				"y": -8.5211167406,
				"z": 1.7802384167,
				"element": "C" 
			},
			{
				"x": -1.394948774,
				"y": -8.9226027455,
				"z": 2.1390168456,
				"element": "F" 
			},
			{
				"x": 0.6492538856,
				"y": -8.7449649384,
				"z": 2.8487261705,
				"element": "F" 
			},
			{
				"x": 0.2705401979,
				"y": -9.3456338757,
				"z": 0.7956943903,
				"element": "F" 
			},
			{
				"x": 3.3783480391,
				"y": 2.3524445558,
				"z": -5.6430004899,
				"element": "H" 
			},
			{
				"x": 2.4798628964,
				"y": 1.6259807946,
				"z": -6.986048107,
				"element": "H" 
			},
			{
				"x": 1.9216703906,
				"y": 3.1412713122,
				"z": -6.2697344568,
				"element": "H" 
			},
			{
				"x": -0.5377009218,
				"y": 0.5861626184,
				"z": -4.9629480543,
				"element": "H" 
			},
			{
				"x": 0.1812674558,
				"y": 0.5669076792,
				"z": -6.5806051582,
				"element": "H" 
			},
			{
				"x": -0.3819453252,
				"y": 2.0913262642,
				"z": -5.8817008525,
				"element": "H" 
			},
			{
				"x": 2.3992415928,
				"y": 2.5132503105,
				"z": -3.4239272495,
				"element": "H" 
			},
			{
				"x": 0.780635371,
				"y": 3.0634140844,
				"z": -3.8729018174,
				"element": "H" 
			},
			{
				"x": 0.4127251866,
				"y": 1.7586149299,
				"z": -1.8357143864,
				"element": "H" 
			},
			{
				"x": 1.6766173697,
				"y": -1.6225693407,
				"z": -3.4685101569,
				"element": "H" 
			},
			{
				"x": 3.2505203997,
				"y": 0.2271219351,
				"z": -4.466681347,
				"element": "H" 
			},
			{
				"x": 2.1849979396,
				"y": -0.6095223796,
				"z": -5.6042347041,
				"element": "H" 
			},
			{
				"x": -0.9806802508,
				"y": 1.515858056,
				"z": 1.0422029591,
				"element": "H" 
			},
			{
				"x": -1.3357451501,
				"y": -0.6746511866,
				"z": 3.1680710601,
				"element": "H" 
			},
			{
				"x": -2.0054766123,
				"y": -0.0191847835,
				"z": 5.3016419436,
				"element": "H" 
			},
			{
				"x": -2.8929582367,
				"y": 1.6391609777,
				"z": 6.9029832032,
				"element": "H" 
			},
			{
				"x": -2.8914054169,
				"y": 4.6186853257,
				"z": 3.8098552247,
				"element": "H" 
			},
			{
				"x": -2.0184349634,
				"y": 2.9740738078,
				"z": 2.2081475198,
				"element": "H" 
			},
			{
				"x": -1.0765311389,
				"y": -2.1034256257,
				"z": 1.76150117,
				"element": "H" 
			},
			{
				"x": 0.6965856685,
				"y": -2.746359477,
				"z": -0.6318974136,
				"element": "H" 
			},
			{
				"x": 1.5290164085,
				"y": -4.9622235748,
				"z": -0.7118979033,
				"element": "H" 
			},
			{
				"x": 1.4353495248,
				"y": -7.3555775851,
				"z": -0.0934591807,
				"element": "H" 
			},
			{
				"x": -1.7098457841,
				"y": -6.5010208155,
				"z": 2.7035053453,
				"element": "H" 
			},
			{
				"x": -1.6322719758,
				"y": -4.1245968297,
				"z": 2.0844551546,
				"element": "H" 
			}
		],
		 "valence_orbital": [ 
			{
				"type": "occ",
				"energy": -0.25854,
				"method": "rhf"
			},
			{
				"type": "occ",
				"energy": -0.25523,
				"method": "rhf"
			},
			{
				"type": "occ",
				"energy": -0.22615,
				"method": "rhf"
			},
			{
				"type": "occ",
				"energy": -0.22111,
				"method": "rhf"
			},
			{
				"type": "occ",
				"energy": -0.18291,
				"method": "rhf"
			},
			{
				"type": "unocc",
				"energy": -0.06725,
				"method": "rhf"
			},
			{
				"type": "unocc",
				"energy": -0.04327,
				"method": "rhf"
			},
			{
				"type": "unocc",
				"energy": -0.00916,
				"method": "rhf"
			},
			{
				"type": "unocc",
				"energy": -0.00698,
				"method": "rhf"
			},
			{
				"type": "unocc",
				"energy": 0.00619,
				"method": "rhf"
			}
		],
		"cosmo_sigma_profile": { 
			"-0.025": 0.0,
			"-0.024": 0.0,
			"-0.023": 0.0,
			"-0.022": 0.0,
			"-0.021": 0.0,
			"-0.02": 0.0,
			"-0.019": 0.0,
			"-0.018": 0.0,
			"-0.017": 0.0,
			"-0.016": 0.0,
			"-0.015": 0.0,
			"-0.014": 0.519763586847,
			"-0.013": 0.996886187542,
			"-0.012": 1.04929929384,
			"-0.011": 1.81730777498,
			"-0.01": 1.34892105883,
			"-0.009": 1.42249910329,
			"-0.008": 3.39839726331,
			"-0.007": 10.821450248,
			"-0.006": 21.4363869969,
			"-0.005": 31.6121199702,
			"-0.004": 38.1044315405,
			"-0.003": 40.2363652311,
			"-0.002": 33.3341481046,
			"-0.001": 31.654688465,
			"0.0": 36.9669298403,
			"0.001": 43.2677294656,
			"0.002": 52.0600587813,
			"0.003": 94.7477415702,
			"0.004": 47.830538657,
			"0.005": 13.3435727504,
			"0.006": 7.02115245569,
			"0.007": 5.57456685863,
			"0.008": 2.95055319097,
			"0.009": 1.7481010728,
			"0.01": 1.31704727227,
			"0.011": 0.85186282733,
			"0.012": 0.301713254582,
			"0.013": 0.0,
			"0.014": 0.0,
			"0.015": 0.0,
			"0.016": 0.0,
			"0.017": 0.0,
			"0.018": 0.0,
			"0.019": 0.0,
			"0.02": 0.0,
			"0.021": 0.0,
			"0.022": 0.0,
			"0.023": 0.0,
			"0.024": 0.0,
			"0.025": 0.0
		}
	}
}
