{
	 "smiles": "COC1=C(OC(C)C)C=CC(=C1)C#N", 
	 "Tm": 345.15, 
	 "num_atms": 27, 
	 "gaussian": { 
		 "optdone": 1, 
		 "sigma_profile": "yes", 
		 "theory": "DFT", 
		 "functional": "B3LYP", 
		 "basiset": "6-31G**", 
		 "properties": { 
			 "R2extent": 3919.9993, 
			 "electric_dipole_moment_norm": 6.80432753694, 
			 "electric_quadrupole_moment_norm": 24.0875343884, 
			 "total_energy": -632.17338915, 
			 "HOMO_LUMO_gap": 0.19336, 
			 "cosmo_polarized_energy": -12.18, 
			 "cosmo_cavitation_energy": 31.4, 
			 "cosmo_dispersion_energy": -21.48, 
			 "cosmo_repulsion_energy": 1.72, 
			 "cosmo_total_nonelectrostatic_energy": 11.64, 
			 "SMD_solvation_energy": 8.0 
		},
		"coords": [
			{
				"x": -2.0496739913,
				"y": -1.4511674745,
				"z": -0.7409772894,
				"element": "C" 
			},
			{
				"x": -0.9207383373,
				"y": -2.2163517017,
				"z": -0.3068978863,
				"element": "O" 
			},
			{
				"x": 0.3092684666,
				"y": -1.6739355132,
				"z": -0.573318685,
				"element": "C" 
			},
			{
				"x": 0.7835487912,
				"y": -0.5419390216,
				"z": 0.138608286,
				"element": "C" 
			},
			{
				"x": -0.0848144299,
				"y": -0.0062393843,
				"z": 1.0327615824,
				"element": "O" 
			},
			{
				"x": 0.3196989332,
				"y": 1.0690393451,
				"z": 1.9102794589,
				"element": "C" 
			},
			{
				"x": -0.9755171181,
				"y": 1.7147052182,
				"z": 2.3873918119,
				"element": "C" 
			},
			{
				"x": 1.1672591718,
				"y": 0.5261078907,
				"z": 3.0598872152,
				"element": "C" 
			},
			{
				"x": 2.0742284545,
				"y": -0.0639253853,
				"z": -0.1267838494,
				"element": "C" 
			},
			{
				"x": 2.8852794426,
				"y": -0.6919550378,
				"z": -1.0695947094,
				"element": "C" 
			},
			{
				"x": 2.4208224045,
				"y": -1.8154113746,
				"z": -1.7655810868,
				"element": "C" 
			},
			{
				"x": 1.1227967307,
				"y": -2.2952536902,
				"z": -1.5098945763,
				"element": "C" 
			},
			{
				"x": 3.2543793003,
				"y": -2.467366097,
				"z": -2.7299446307,
				"element": "C" 
			},
			{
				"x": 3.9328491055,
				"y": -2.9945828214,
				"z": -3.5151293529,
				"element": "N" 
			},
			{
				"x": -2.9310051938,
				"y": -2.0429026026,
				"z": -0.4865947986,
				"element": "H" 
			},
			{
				"x": -2.0207243478,
				"y": -1.2945954207,
				"z": -1.8268735712,
				"element": "H" 
			},
			{
				"x": -2.0986754468,
				"y": -0.4844958936,
				"z": -0.2316714847,
				"element": "H" 
			},
			{
				"x": 0.8902900582,
				"y": 1.8046707108,
				"z": 1.3286313047,
				"element": "H" 
			},
			{
				"x": -1.5865895145,
				"y": 0.9869579736,
				"z": 2.9298629017,
				"element": "H" 
			},
			{
				"x": -1.5553727256,
				"y": 2.0922292483,
				"z": 1.540815906,
				"element": "H" 
			},
			{
				"x": -0.7558460271,
				"y": 2.5510272732,
				"z": 3.0576159631,
				"element": "H" 
			},
			{
				"x": 2.0688205061,
				"y": 0.0255795666,
				"z": 2.6976617777,
				"element": "H" 
			},
			{
				"x": 0.5874798353,
				"y": -0.1949297246,
				"z": 3.6440626561,
				"element": "H" 
			},
			{
				"x": 1.4732850725,
				"y": 1.3424343192,
				"z": 3.7218405866,
				"element": "H" 
			},
			{
				"x": 2.46185735,
				"y": 0.7954078386,
				"z": 0.4058484327,
				"element": "H" 
			},
			{
				"x": 3.8834544123,
				"y": -0.3135799124,
				"z": -1.2612921609,
				"element": "H" 
			},
			{
				"x": 0.7385390971,
				"y": -3.165428329,
				"z": -2.0302138012,
				"element": "H" 
			}
		],
		 "valence_orbital": [ 
			{
				"type": "occ",
				"energy": -0.32134,
				"method": "rhf"
			},
			{
				"type": "occ",
				"energy": -0.3129,
				"method": "rhf"
			},
			{
				"type": "occ",
				"energy": -0.28533,
				"method": "rhf"
			},
			{
				"type": "occ",
				"energy": -0.25962,
				"method": "rhf"
			},
			{
				"type": "occ",
				"energy": -0.2294,
				"method": "rhf"
			},
			{
				"type": "unocc",
				"energy": -0.03604,
				"method": "rhf"
			},
			{
				"type": "unocc",
				"energy": -0.01674,
				"method": "rhf"
			},
			{
				"type": "unocc",
				"energy": 0.04499,
				"method": "rhf"
			},
			{
				"type": "unocc",
				"energy": 0.07124,
				"method": "rhf"
			},
			{
				"type": "unocc",
				"energy": 0.07539,
				"method": "rhf"
			}
		],
		"cosmo_sigma_profile": { 
			"-0.025": 0.0,
			"-0.024": 0.0,
			"-0.023": 0.0,
			"-0.022": 0.0,
			"-0.021": 0.0,
			"-0.02": 0.0,
			"-0.019": 0.0,
			"-0.018": 0.0,
			"-0.017": 0.0,
			"-0.016": 0.0,
			"-0.015": 0.0,
			"-0.014": 0.0,
			"-0.013": 0.0,
			"-0.012": 0.0,
			"-0.011": 0.0,
			"-0.01": 0.0,
			"-0.009": 0.225286774545,
			"-0.008": 3.78151967315,
			"-0.007": 6.31554559705,
			"-0.006": 8.87833407088,
			"-0.005": 12.5931127642,
			"-0.004": 24.0163608577,
			"-0.003": 28.2595267225,
			"-0.002": 25.1138723849,
			"-0.001": 23.9874575021,
			"0.0": 28.7964612322,
			"0.001": 17.9225422537,
			"0.002": 16.3076378861,
			"0.003": 9.28170863262,
			"0.004": 4.66236829089,
			"0.005": 3.69353269089,
			"0.006": 4.799281895,
			"0.007": 4.30429231993,
			"0.008": 4.73131154895,
			"0.009": 5.44505622511,
			"0.01": 6.15134657423,
			"0.011": 4.90546704704,
			"0.012": 2.91724077341,
			"0.013": 2.164389904,
			"0.014": 0.438061602003,
			"0.015": 0.0,
			"0.016": 0.0,
			"0.017": 0.0,
			"0.018": 0.0,
			"0.019": 0.0,
			"0.02": 0.0,
			"0.021": 0.0,
			"0.022": 0.0,
			"0.023": 0.0,
			"0.024": 0.0,
			"0.025": 0.0
		}
	}
}
