{
	 "smiles": "NC(=O)C1=CC=C(CSC2=CC=C(C=C2)C(O)=O)C=C1", 
	 "Tm": 578.15, 
	 "num_atms": 33, 
	 "gaussian": { 
		 "optdone": 1, 
		 "sigma_profile": "yes", 
		 "theory": "DFT", 
		 "functional": "B3LYP", 
		 "basiset": "6-31G**", 
		 "properties": { 
			 "R2extent": 8291.428, 
			 "electric_dipole_moment_norm": 1.71932426261, 
			 "electric_quadrupole_moment_norm": 33.4119177533, 
			 "total_energy": -1258.07106194, 
			 "HOMO_LUMO_gap": 0.17029, 
			 "cosmo_polarized_energy": -26.61, 
			 "cosmo_cavitation_energy": 40.27, 
			 "cosmo_dispersion_energy": -27.91, 
			 "cosmo_repulsion_energy": 2.13, 
			 "cosmo_total_nonelectrostatic_energy": 14.49, 
			 "SMD_solvation_energy": 8.02 
		},
		"coords": [
			{
				"x": -2.3491746959,
				"y": 1.6335686888,
				"z": -4.9510829006,
				"element": "N" 
			},
			{
				"x": -1.8445412161,
				"y": 0.3547251206,
				"z": -4.9563258958,
				"element": "C" 
			},
			{
				"x": -1.6463303528,
				"y": -0.2560868424,
				"z": -5.9995673044,
				"element": "O" 
			},
			{
				"x": -1.5740722475,
				"y": -0.2613393573,
				"z": -3.6126309755,
				"element": "C" 
			},
			{
				"x": -0.7537261722,
				"y": -1.3982242635,
				"z": -3.5770533089,
				"element": "C" 
			},
			{
				"x": -0.4599510583,
				"y": -2.0189832848,
				"z": -2.3694520253,
				"element": "C" 
			},
			{
				"x": -0.990274464,
				"y": -1.5320454533,
				"z": -1.1643940909,
				"element": "C" 
			},
			{
				"x": -0.6737723864,
				"y": -2.202946455,
				"z": 0.1451193519,
				"element": "C" 
			},
			{
				"x": 1.032460102,
				"y": -1.8554964462,
				"z": 0.7983586307,
				"element": "S" 
			},
			{
				"x": 0.9556261182,
				"y": -0.1006418029,
				"z": 1.1384449318,
				"element": "C" 
			},
			{
				"x": 1.8884133682,
				"y": 0.7489310601,
				"z": 0.5300561709,
				"element": "C" 
			},
			{
				"x": 1.8953565533,
				"y": 2.111232432,
				"z": 0.8267246117,
				"element": "C" 
			},
			{
				"x": 0.9571566019,
				"y": 2.6509645101,
				"z": 1.7164149415,
				"element": "C" 
			},
			{
				"x": 0.0082074414,
				"y": 1.8018130284,
				"z": 2.3045557373,
				"element": "C" 
			},
			{
				"x": 0.0204974251,
				"y": 0.4380918649,
				"z": 2.0374584359,
				"element": "C" 
			},
			{
				"x": 0.8853948355,
				"y": 4.1107170745,
				"z": 2.0480419463,
				"element": "C" 
			},
			{
				"x": 2.0106227644,
				"y": 4.8442996195,
				"z": 1.8348832355,
				"element": "O" 
			},
			{
				"x": -0.1093369097,
				"y": 4.642378472,
				"z": 2.4826950419,
				"element": "O" 
			},
			{
				"x": -1.824579563,
				"y": -0.4082795803,
				"z": -1.2048866218,
				"element": "C" 
			},
			{
				"x": -2.1145956502,
				"y": 0.2219656972,
				"z": -2.4149659973,
				"element": "C" 
			},
			{
				"x": -2.2034680814,
				"y": 2.2390914526,
				"z": -4.1586220319,
				"element": "H" 
			},
			{
				"x": -2.4144084255,
				"y": 2.0747714039,
				"z": -5.8571556043,
				"element": "H" 
			},
			{
				"x": -0.3629409757,
				"y": -1.7770239654,
				"z": -4.5153290955,
				"element": "H" 
			},
			{
				"x": 0.188282911,
				"y": -2.8913153677,
				"z": -2.3547974765,
				"element": "H" 
			},
			{
				"x": -1.4044221663,
				"y": -1.9424783441,
				"z": 0.9142067449,
				"element": "H" 
			},
			{
				"x": -0.6742040658,
				"y": -3.2924946038,
				"z": 0.044963822,
				"element": "H" 
			},
			{
				"x": 2.5953312644,
				"y": 0.3422398723,
				"z": -0.1852488767,
				"element": "H" 
			},
			{
				"x": 2.6071046936,
				"y": 2.7517368809,
				"z": 0.3109912722,
				"element": "H" 
			},
			{
				"x": -0.7200860372,
				"y": 2.2326259276,
				"z": 2.983377905,
				"element": "H" 
			},
			{
				"x": -0.6909628254,
				"y": -0.2146386683,
				"z": 2.5337696239,
				"element": "H" 
			},
			{
				"x": 2.7609351079,
				"y": 4.2616645175,
				"z": 1.653349733,
				"element": "H" 
			},
			{
				"x": -2.2586411904,
				"y": -0.0271830854,
				"z": -0.284800787,
				"element": "H" 
			},
			{
				"x": -2.7941007033,
				"y": 1.0691598978,
				"z": -2.4182991441,
				"element": "H" 
			}
		],
		 "valence_orbital": [ 
			{
				"type": "occ",
				"energy": -0.27534,
				"method": "rhf"
			},
			{
				"type": "occ",
				"energy": -0.26587,
				"method": "rhf"
			},
			{
				"type": "occ",
				"energy": -0.26158,
				"method": "rhf"
			},
			{
				"type": "occ",
				"energy": -0.25115,
				"method": "rhf"
			},
			{
				"type": "occ",
				"energy": -0.23595,
				"method": "rhf"
			},
			{
				"type": "unocc",
				"energy": -0.06566,
				"method": "rhf"
			},
			{
				"type": "unocc",
				"energy": -0.04612,
				"method": "rhf"
			},
			{
				"type": "unocc",
				"energy": -0.03229,
				"method": "rhf"
			},
			{
				"type": "unocc",
				"energy": -0.0149,
				"method": "rhf"
			},
			{
				"type": "unocc",
				"energy": 0.02008,
				"method": "rhf"
			}
		],
		"cosmo_sigma_profile": { 
			"-0.025": 0.0,
			"-0.024": 0.0,
			"-0.023": 0.0,
			"-0.022": 0.0,
			"-0.021": 0.0,
			"-0.02": 0.0,
			"-0.019": 0.467900829385,
			"-0.018": 0.522763708696,
			"-0.017": 1.09765994426,
			"-0.016": 1.16318627892,
			"-0.015": 0.95183199945,
			"-0.014": 2.31041550137,
			"-0.013": 3.48832005795,
			"-0.012": 3.3929897333,
			"-0.011": 4.00486086093,
			"-0.01": 3.80537482065,
			"-0.009": 3.72986738604,
			"-0.008": 5.52599676338,
			"-0.007": 14.968771025,
			"-0.006": 20.0495545932,
			"-0.005": 18.9727667723,
			"-0.004": 15.8133813016,
			"-0.003": 15.4517136706,
			"-0.002": 17.3862048647,
			"-0.001": 17.1956019167,
			"0.0": 17.154340436,
			"0.001": 19.2431189393,
			"0.002": 25.869186044,
			"0.003": 24.3535643158,
			"0.004": 19.8522660163,
			"0.005": 10.3074918301,
			"0.006": 7.51757211228,
			"0.007": 6.65822984096,
			"0.008": 6.53564885938,
			"0.009": 5.79995036014,
			"0.01": 6.05632667137,
			"0.011": 6.84027941956,
			"0.012": 6.84940484584,
			"0.013": 5.67491223325,
			"0.014": 4.19139723885,
			"0.015": 0.252529131363,
			"0.016": 0.0,
			"0.017": 0.0,
			"0.018": 0.0,
			"0.019": 0.0,
			"0.02": 0.0,
			"0.021": 0.0,
			"0.022": 0.0,
			"0.023": 0.0,
			"0.024": 0.0,
			"0.025": 0.0
		}
	}
}
