{
	 "smiles": "ClCC1=NC2=C(C3=C(CCCC3)S2)C(=O)N1", 
	 "Tm": 539.15, 
	 "num_atms": 27, 
	 "gaussian": { 
		 "optdone": 1, 
		 "sigma_profile": "yes", 
		 "theory": "DFT", 
		 "functional": "B3LYP", 
		 "basiset": "6-31G**", 
		 "properties": { 
			 "R2extent": 5827.1739, 
			 "electric_dipole_moment_norm": 1.96987249587, 
			 "electric_quadrupole_moment_norm": 12.3415565797, 
			 "total_energy": -1468.94787397, 
			 "HOMO_LUMO_gap": 0.15956, 
			 "cosmo_polarized_energy": -12.06, 
			 "cosmo_cavitation_energy": 32.79, 
			 "cosmo_dispersion_energy": -25.18, 
			 "cosmo_repulsion_energy": 1.93, 
			 "cosmo_total_nonelectrostatic_energy": 9.53, 
			 "SMD_solvation_energy": 2.77 
		},
		"coords": [
			{
				"x": 3.1437997315,
				"y": -4.3867062895,
				"z": -2.0734610737,
				"element": "Cl" 
			},
			{
				"x": 1.3604953066,
				"y": -4.3016352818,
				"z": -1.7291198004,
				"element": "C" 
			},
			{
				"x": 0.9453513525,
				"y": -3.000796101,
				"z": -1.0986402967,
				"element": "C" 
			},
			{
				"x": 0.1237688275,
				"y": -3.0453136705,
				"z": -0.088429195,
				"element": "N" 
			},
			{
				"x": -0.278435791,
				"y": -1.8279126737,
				"z": 0.3774428943,
				"element": "C" 
			},
			{
				"x": 0.1107893461,
				"y": -0.5794629938,
				"z": -0.1042791369,
				"element": "C" 
			},
			{
				"x": -0.4852260883,
				"y": 0.5167600741,
				"z": 0.6059700874,
				"element": "C" 
			},
			{
				"x": -1.3101705581,
				"y": 0.0837105813,
				"z": 1.6113322978,
				"element": "C" 
			},
			{
				"x": -2.093227698,
				"y": 0.9748781695,
				"z": 2.5363365424,
				"element": "C" 
			},
			{
				"x": -1.5544827068,
				"y": 2.4166638352,
				"z": 2.4676554735,
				"element": "C" 
			},
			{
				"x": -1.3184138732,
				"y": 2.8560653701,
				"z": 1.0151317561,
				"element": "C" 
			},
			{
				"x": -0.2567387399,
				"y": 1.9830425767,
				"z": 0.3257147346,
				"element": "C" 
			},
			{
				"x": -1.3860515516,
				"y": -1.6689352575,
				"z": 1.7165141764,
				"element": "S" 
			},
			{
				"x": 1.037236368,
				"y": -0.5324495733,
				"z": -1.2206063437,
				"element": "C" 
			},
			{
				"x": 1.5051474401,
				"y": 0.4504616127,
				"z": -1.779938254,
				"element": "O" 
			},
			{
				"x": 1.3900314156,
				"y": -1.8348367439,
				"z": -1.656460517,
				"element": "N" 
			},
			{
				"x": 0.8638146336,
				"y": -4.451292253,
				"z": -2.6907489913,
				"element": "H" 
			},
			{
				"x": 1.1057431266,
				"y": -5.1125153821,
				"z": -1.0503850865,
				"element": "H" 
			},
			{
				"x": -2.0478005691,
				"y": 0.6003744554,
				"z": 3.5661733562,
				"element": "H" 
			},
			{
				"x": -3.1557037553,
				"y": 0.9604605036,
				"z": 2.2530173975,
				"element": "H" 
			},
			{
				"x": -2.2578498979,
				"y": 3.0922083509,
				"z": 2.9666511874,
				"element": "H" 
			},
			{
				"x": -0.6090599027,
				"y": 2.4753104017,
				"z": 3.0222560214,
				"element": "H" 
			},
			{
				"x": -2.2640015815,
				"y": 2.7870117387,
				"z": 0.4607477151,
				"element": "H" 
			},
			{
				"x": -1.010570271,
				"y": 3.9067454715,
				"z": 0.9813446343,
				"element": "H" 
			},
			{
				"x": 0.7464247476,
				"y": 2.2618179918,
				"z": 0.6768813236,
				"element": "H" 
			},
			{
				"x": -0.2413342705,
				"y": 2.1554115474,
				"z": -0.7542746474,
				"element": "H" 
			},
			{
				"x": 2.0754649591,
				"y": -1.8647664604,
				"z": -2.4036262554,
				"element": "H" 
			}
		],
		 "valence_orbital": [ 
			{
				"type": "occ",
				"energy": -0.29268,
				"method": "rhf"
			},
			{
				"type": "occ",
				"energy": -0.29129,
				"method": "rhf"
			},
			{
				"type": "occ",
				"energy": -0.26452,
				"method": "rhf"
			},
			{
				"type": "occ",
				"energy": -0.25582,
				"method": "rhf"
			},
			{
				"type": "occ",
				"energy": -0.21699,
				"method": "rhf"
			},
			{
				"type": "unocc",
				"energy": -0.05743,
				"method": "rhf"
			},
			{
				"type": "unocc",
				"energy": -0.01185,
				"method": "rhf"
			},
			{
				"type": "unocc",
				"energy": 0.00726,
				"method": "rhf"
			},
			{
				"type": "unocc",
				"energy": 0.01743,
				"method": "rhf"
			},
			{
				"type": "unocc",
				"energy": 0.03154,
				"method": "rhf"
			}
		],
		"cosmo_sigma_profile": { 
			"-0.025": 0.0,
			"-0.024": 0.0,
			"-0.023": 0.0,
			"-0.022": 0.0,
			"-0.021": 0.0,
			"-0.02": 0.0,
			"-0.019": 0.0,
			"-0.018": 0.0,
			"-0.017": 0.0,
			"-0.016": 0.0,
			"-0.015": 0.234878862421,
			"-0.014": 0.765369262542,
			"-0.013": 1.02703813384,
			"-0.012": 0.917867293129,
			"-0.011": 1.44591461639,
			"-0.01": 2.58075349078,
			"-0.009": 5.28241040453,
			"-0.008": 4.29366080091,
			"-0.007": 4.58032748383,
			"-0.006": 3.69637805779,
			"-0.005": 6.14072507813,
			"-0.004": 13.5846562803,
			"-0.003": 23.4669699134,
			"-0.002": 33.0963161236,
			"-0.001": 30.5991833527,
			"0.0": 25.1556091697,
			"0.001": 22.4566899059,
			"0.002": 19.3049346941,
			"0.003": 17.7144944765,
			"0.004": 12.4459482786,
			"0.005": 9.50844432756,
			"0.006": 4.33482509985,
			"0.007": 2.679275845,
			"0.008": 2.5990121816,
			"0.009": 2.3164403533,
			"0.01": 1.92526964879,
			"0.011": 2.97164242985,
			"0.012": 3.3232185563,
			"0.013": 5.31578878408,
			"0.014": 0.516785455671,
			"0.015": 0.0,
			"0.016": 0.0,
			"0.017": 0.0,
			"0.018": 0.0,
			"0.019": 0.0,
			"0.02": 0.0,
			"0.021": 0.0,
			"0.022": 0.0,
			"0.023": 0.0,
			"0.024": 0.0,
			"0.025": 0.0
		}
	}
}
