{
	 "smiles": "FC1=CC=C(C=C1)C1=NN=C(S)N1CCN1CCOCC1", 
	 "Tm": 486.15, 
	 "num_atms": 38, 
	 "gaussian": { 
		 "optdone": 1, 
		 "sigma_profile": "yes", 
		 "theory": "DFT", 
		 "functional": "B3LYP", 
		 "basiset": "6-31G**", 
		 "properties": { 
			 "R2extent": 8923.1032, 
			 "electric_dipole_moment_norm": 4.9588348934, 
			 "electric_quadrupole_moment_norm": 12.8890629085, 
			 "total_energy": -1335.93459286, 
			 "HOMO_LUMO_gap": 0.18442, 
			 "cosmo_polarized_energy": -21.42, 
			 "cosmo_cavitation_energy": 41.91, 
			 "cosmo_dispersion_energy": -29.19, 
			 "cosmo_repulsion_energy": 2.16, 
			 "cosmo_total_nonelectrostatic_energy": 14.88, 
			 "SMD_solvation_energy": 4.62 
		},
		"coords": [
			{
				"x": 3.1810250753,
				"y": -5.8357253809,
				"z": -2.2683490486,
				"element": "F" 
			},
			{
				"x": 2.5442200993,
				"y": -4.8529996066,
				"z": -1.6013834889,
				"element": "C" 
			},
			{
				"x": 1.2184210366,
				"y": -5.0407774056,
				"z": -1.2244819656,
				"element": "C" 
			},
			{
				"x": 0.5638934028,
				"y": -4.0172741648,
				"z": -0.5444804362,
				"element": "C" 
			},
			{
				"x": 1.2245573105,
				"y": -2.8144454731,
				"z": -0.2413859075,
				"element": "C" 
			},
			{
				"x": 2.5715489652,
				"y": -2.6706545585,
				"z": -0.6138187759,
				"element": "C" 
			},
			{
				"x": 3.2355728567,
				"y": -3.6842884446,
				"z": -1.3027350433,
				"element": "C" 
			},
			{
				"x": 0.4956548382,
				"y": -1.7854508967,
				"z": 0.5195436647,
				"element": "C" 
			},
			{
				"x": -0.2567096701,
				"y": -2.0499750269,
				"z": 1.569147566,
				"element": "N" 
			},
			{
				"x": -0.8062822832,
				"y": -0.8686306824,
				"z": 2.0097776608,
				"element": "N" 
			},
			{
				"x": -0.3645620364,
				"y": 0.0830713921,
				"z": 1.2195876024,
				"element": "C" 
			},
			{
				"x": -0.7428137607,
				"y": 1.8050401208,
				"z": 1.3776431533,
				"element": "S" 
			},
			{
				"x": 0.4772315185,
				"y": -0.4270495051,
				"z": 0.2546500425,
				"element": "N" 
			},
			{
				"x": 0.9975374839,
				"y": 0.2790695084,
				"z": -0.9140447103,
				"element": "C" 
			},
			{
				"x": -0.0310090468,
				"y": 0.3572801114,
				"z": -2.0559318365,
				"element": "C" 
			},
			{
				"x": -1.170900996,
				"y": 1.1940236199,
				"z": -1.6874361013,
				"element": "N" 
			},
			{
				"x": -2.498051303,
				"y": 0.6871915344,
				"z": -2.0653028357,
				"element": "C" 
			},
			{
				"x": -2.8392954802,
				"y": 0.9666443919,
				"z": -3.5319482475,
				"element": "C" 
			},
			{
				"x": -2.726149635,
				"y": 2.3568596449,
				"z": -3.8184618443,
				"element": "O" 
			},
			{
				"x": -1.4156774874,
				"y": 2.839497913,
				"z": -3.5464821348,
				"element": "C" 
			},
			{
				"x": -1.0406966279,
				"y": 2.6062913557,
				"z": -2.0789056903,
				"element": "C" 
			},
			{
				"x": 0.7192302202,
				"y": -5.9728401209,
				"z": -1.465867411,
				"element": "H" 
			},
			{
				"x": -0.4668663883,
				"y": -4.1407195792,
				"z": -0.2307277645,
				"element": "H" 
			},
			{
				"x": 3.1217922485,
				"y": -1.7782501412,
				"z": -0.3324296203,
				"element": "H" 
			},
			{
				"x": 4.2766384108,
				"y": -3.588361167,
				"z": -1.5908987767,
				"element": "H" 
			},
			{
				"x": -0.5676954437,
				"y": 1.8175259438,
				"z": 2.7159469259,
				"element": "H" 
			},
			{
				"x": 1.8920464879,
				"y": -0.2390632577,
				"z": -1.2611717181,
				"element": "H" 
			},
			{
				"x": 1.2900411772,
				"y": 1.2828562142,
				"z": -0.5929638913,
				"element": "H" 
			},
			{
				"x": -0.3777144737,
				"y": -0.6581387299,
				"z": -2.2738992358,
				"element": "H" 
			},
			{
				"x": 0.4937796986,
				"y": 0.7074038769,
				"z": -2.9595319896,
				"element": "H" 
			},
			{
				"x": -3.2382683602,
				"y": 1.1895318563,
				"z": -1.4304025892,
				"element": "H" 
			},
			{
				"x": -2.5523588515,
				"y": -0.3844119925,
				"z": -1.8474160535,
				"element": "H" 
			},
			{
				"x": -3.8736910175,
				"y": 0.6867756116,
				"z": -3.755069417,
				"element": "H" 
			},
			{
				"x": -2.1767726323,
				"y": 0.3872920086,
				"z": -4.1991270547,
				"element": "H" 
			},
			{
				"x": -0.6869801559,
				"y": 2.3487102523,
				"z": -4.215457657,
				"element": "H" 
			},
			{
				"x": -1.4214272543,
				"y": 3.9082844534,
				"z": -3.7826999012,
				"element": "H" 
			},
			{
				"x": -1.7105110904,
				"y": 3.1974641288,
				"z": -1.4429447543,
				"element": "H" 
			},
			{
				"x": -0.0188568357,
				"y": 2.9487421951,
				"z": -1.8809407149,
				"element": "H" 
			}
		],
		 "valence_orbital": [ 
			{
				"type": "occ",
				"energy": -0.27257,
				"method": "rhf"
			},
			{
				"type": "occ",
				"energy": -0.26242,
				"method": "rhf"
			},
			{
				"type": "occ",
				"energy": -0.24846,
				"method": "rhf"
			},
			{
				"type": "occ",
				"energy": -0.22537,
				"method": "rhf"
			},
			{
				"type": "occ",
				"energy": -0.21497,
				"method": "rhf"
			},
			{
				"type": "unocc",
				"energy": -0.03055,
				"method": "rhf"
			},
			{
				"type": "unocc",
				"energy": -0.02319,
				"method": "rhf"
			},
			{
				"type": "unocc",
				"energy": 0.01367,
				"method": "rhf"
			},
			{
				"type": "unocc",
				"energy": 0.03502,
				"method": "rhf"
			},
			{
				"type": "unocc",
				"energy": 0.04586,
				"method": "rhf"
			}
		],
		"cosmo_sigma_profile": { 
			"-0.025": 0.0,
			"-0.024": 0.0,
			"-0.023": 0.0,
			"-0.022": 0.0,
			"-0.021": 0.0,
			"-0.02": 0.0,
			"-0.019": 0.0,
			"-0.018": 0.0,
			"-0.017": 0.0,
			"-0.016": 0.0,
			"-0.015": 0.0,
			"-0.014": 0.0,
			"-0.013": 0.0,
			"-0.012": 0.0,
			"-0.011": 0.43568074443,
			"-0.01": 1.90860316608,
			"-0.009": 2.22115164481,
			"-0.008": 4.9531249253,
			"-0.007": 10.1509007535,
			"-0.006": 15.4095233318,
			"-0.005": 29.4113076583,
			"-0.004": 34.5099992393,
			"-0.003": 34.8372412199,
			"-0.002": 26.4293360321,
			"-0.001": 21.308115172,
			"0.0": 20.0837102787,
			"0.001": 21.9728496257,
			"0.002": 18.7189765145,
			"0.003": 20.3165506309,
			"0.004": 17.4213720052,
			"0.005": 8.08809288784,
			"0.006": 6.13749224067,
			"0.007": 5.92930640663,
			"0.008": 4.23434699825,
			"0.009": 3.18536663151,
			"0.01": 3.54008702721,
			"0.011": 3.68773673275,
			"0.012": 3.88010096468,
			"0.013": 5.02928432224,
			"0.014": 3.88041537811,
			"0.015": 2.95693892482,
			"0.016": 2.01421630527,
			"0.017": 1.02143658146,
			"0.018": 0.0,
			"0.019": 0.0,
			"0.02": 0.0,
			"0.021": 0.0,
			"0.022": 0.0,
			"0.023": 0.0,
			"0.024": 0.0,
			"0.025": 0.0
		}
	}
}
