{
	 "smiles": "COC1=C(OCC2=CC=CC=C2)C=CC(CCNC(=O)C=C/C2=CC(OC)=C(OCC3=CC=CC=C3)C=C2)=C1", 
	 "Tm": 436.15, 
	 "num_atms": 72, 
	 "gaussian": { 
		 "optdone": 1, 
		 "sigma_profile": "yes", 
		 "theory": "DFT", 
		 "functional": "B3LYP", 
		 "basiset": "6-31G**", 
		 "properties": { 
			 "R2extent": 22191.9267, 
			 "electric_dipole_moment_norm": 6.79701193834, 
			 "electric_quadrupole_moment_norm": 26.1605066728, 
			 "total_energy": -1708.22059052, 
			 "HOMO_LUMO_gap": 0.16381, 
			 "cosmo_polarized_energy": -24.23, 
			 "cosmo_cavitation_energy": 75.86, 
			 "cosmo_dispersion_energy": -44.21, 
			 "cosmo_repulsion_energy": 3.28, 
			 "cosmo_total_nonelectrostatic_energy": 34.93, 
			 "SMD_solvation_energy": 13.95 
		},
		"coords": [
			{
				"x": -2.9626164212,
				"y": -0.0344824489,
				"z": 0.9655525692,
				"element": "C" 
			},
			{
				"x": -2.7419580334,
				"y": -0.1462959838,
				"z": 2.3736053975,
				"element": "O" 
			},
			{
				"x": -1.4290189144,
				"y": -0.2008821825,
				"z": 2.776275301,
				"element": "C" 
			},
			{
				"x": -0.623041259,
				"y": -1.3288333455,
				"z": 2.5072733409,
				"element": "C" 
			},
			{
				"x": -1.2074157198,
				"y": -2.327102879,
				"z": 1.7747458145,
				"element": "O" 
			},
			{
				"x": -0.5373999881,
				"y": -3.5801464894,
				"z": 1.683561226,
				"element": "C" 
			},
			{
				"x": -1.4375490848,
				"y": -4.566117803,
				"z": 0.9763543632,
				"element": "C" 
			},
			{
				"x": -0.8793539685,
				"y": -5.5795123014,
				"z": 0.1891952374,
				"element": "C" 
			},
			{
				"x": -1.6940498069,
				"y": -6.5303286574,
				"z": -0.4278244467,
				"element": "C" 
			},
			{
				"x": -3.0795317428,
				"y": -6.4694023906,
				"z": -0.2708823845,
				"element": "C" 
			},
			{
				"x": -3.6429741776,
				"y": -5.4558174213,
				"z": 0.5076504423,
				"element": "C" 
			},
			{
				"x": -2.8281007635,
				"y": -4.511023158,
				"z": 1.1318561232,
				"element": "C" 
			},
			{
				"x": 0.6846858877,
				"y": -1.3628648684,
				"z": 2.9998211445,
				"element": "C" 
			},
			{
				"x": 1.1778796265,
				"y": -0.300729055,
				"z": 3.7630705808,
				"element": "C" 
			},
			{
				"x": 0.3909389709,
				"y": 0.8180552746,
				"z": 4.0492003175,
				"element": "C" 
			},
			{
				"x": 0.9278778937,
				"y": 1.9701536776,
				"z": 4.8685740782,
				"element": "C" 
			},
			{
				"x": 1.9084520565,
				"y": 2.8923937998,
				"z": 4.1103211461,
				"element": "C" 
			},
			{
				"x": 1.3442066377,
				"y": 3.5257383989,
				"z": 2.9261513719,
				"element": "N" 
			},
			{
				"x": 0.412140596,
				"y": 4.5167877637,
				"z": 3.0270388507,
				"element": "C" 
			},
			{
				"x": -0.0117756953,
				"y": 4.8962429287,
				"z": 4.1211604531,
				"element": "O" 
			},
			{
				"x": -0.0595386036,
				"y": 5.2063464512,
				"z": 1.7869682924,
				"element": "C" 
			},
			{
				"x": 0.0191582787,
				"y": 4.9216912446,
				"z": 0.4716141759,
				"element": "C" 
			},
			{
				"x": 0.5394298409,
				"y": 3.7607255588,
				"z": -0.2755580137,
				"element": "C" 
			},
			{
				"x": 1.1420269412,
				"y": 3.9999450961,
				"z": -1.5267745199,
				"element": "C" 
			},
			{
				"x": 1.6280404956,
				"y": 2.9692255545,
				"z": -2.3190274909,
				"element": "C" 
			},
			{
				"x": 2.2760288474,
				"y": 3.2833797341,
				"z": -3.487887624,
				"element": "O" 
			},
			{
				"x": 1.602356444,
				"y": 2.9183100365,
				"z": -4.6954250838,
				"element": "C" 
			},
			{
				"x": 1.4984927034,
				"y": 1.6301863418,
				"z": -1.88157329,
				"element": "C" 
			},
			{
				"x": 2.0040580839,
				"y": 0.6815836745,
				"z": -2.7267185463,
				"element": "O" 
			},
			{
				"x": 1.7772902519,
				"y": -0.6996126566,
				"z": -2.4580031133,
				"element": "C" 
			},
			{
				"x": 2.7511875549,
				"y": -1.3093149883,
				"z": -1.4668464431,
				"element": "C" 
			},
			{
				"x": 3.9555769653,
				"y": -0.6774666741,
				"z": -1.1438702284,
				"element": "C" 
			},
			{
				"x": 4.8589024716,
				"y": -1.2873753554,
				"z": -0.270635513,
				"element": "C" 
			},
			{
				"x": 4.5743051502,
				"y": -2.5385076258,
				"z": 0.2776244478,
				"element": "C" 
			},
			{
				"x": 3.3766216795,
				"y": -3.1788823705,
				"z": -0.0500752467,
				"element": "C" 
			},
			{
				"x": 2.4684830902,
				"y": -2.5648239512,
				"z": -0.9132584911,
				"element": "C" 
			},
			{
				"x": 0.8823339167,
				"y": 1.3739596059,
				"z": -0.6538028168,
				"element": "C" 
			},
			{
				"x": 0.4031190619,
				"y": 2.4251411314,
				"z": 0.133889239,
				"element": "C" 
			},
			{
				"x": -0.914588976,
				"y": 0.8480649244,
				"z": 3.535511255,
				"element": "C" 
			},
			{
				"x": -4.0427330852,
				"y": 0.0604204246,
				"z": 0.8345696286,
				"element": "H" 
			},
			{
				"x": -2.6067617663,
				"y": -0.9200799613,
				"z": 0.4304367926,
				"element": "H" 
			},
			{
				"x": -2.4723422003,
				"y": 0.8605376325,
				"z": 0.5609376264,
				"element": "H" 
			},
			{
				"x": 0.4105225044,
				"y": -3.471416695,
				"z": 1.1386111841,
				"element": "H" 
			},
			{
				"x": -0.2939042125,
				"y": -3.9350146137,
				"z": 2.6970787215,
				"element": "H" 
			},
			{
				"x": 0.1995537502,
				"y": -5.6277854057,
				"z": 0.05764909,
				"element": "H" 
			},
			{
				"x": -1.2472120687,
				"y": -7.3114576789,
				"z": -1.0363310816,
				"element": "H" 
			},
			{
				"x": -3.7162450553,
				"y": -7.2045124697,
				"z": -0.7546659502,
				"element": "H" 
			},
			{
				"x": -4.7209724872,
				"y": -5.4010223684,
				"z": 0.630841784,
				"element": "H" 
			},
			{
				"x": -3.26172135,
				"y": -3.7183407132,
				"z": 1.7324978908,
				"element": "H" 
			},
			{
				"x": 1.3248085552,
				"y": -2.2138291173,
				"z": 2.7988404051,
				"element": "H" 
			},
			{
				"x": 2.1935818473,
				"y": -0.3596799107,
				"z": 4.1468473249,
				"element": "H" 
			},
			{
				"x": 0.1060847475,
				"y": 2.590507745,
				"z": 5.2337343606,
				"element": "H" 
			},
			{
				"x": 1.4603217979,
				"y": 1.5868636998,
				"z": 5.7487215309,
				"element": "H" 
			},
			{
				"x": 2.7854128901,
				"y": 2.3243961693,
				"z": 3.784938569,
				"element": "H" 
			},
			{
				"x": 2.2475876643,
				"y": 3.6736143357,
				"z": 4.7999927935,
				"element": "H" 
			},
			{
				"x": 1.6775720666,
				"y": 3.2499240676,
				"z": 2.015532713,
				"element": "H" 
			},
			{
				"x": -0.5499922505,
				"y": 6.1368175194,
				"z": 2.059616846,
				"element": "H" 
			},
			{
				"x": -0.3648807171,
				"y": 5.7046030044,
				"z": -0.1832900168,
				"element": "H" 
			},
			{
				"x": 1.2557953422,
				"y": 5.0137990725,
				"z": -1.8991711774,
				"element": "H" 
			},
			{
				"x": 0.6162313662,
				"y": 3.3971547457,
				"z": -4.7531639812,
				"element": "H" 
			},
			{
				"x": 1.4878094546,
				"y": 1.8337951229,
				"z": -4.7802871167,
				"element": "H" 
			},
			{
				"x": 2.2269936337,
				"y": 3.2837251455,
				"z": -5.5129914798,
				"element": "H" 
			},
			{
				"x": 1.8952067727,
				"y": -1.1835436472,
				"z": -3.4340342842,
				"element": "H" 
			},
			{
				"x": 0.7402537215,
				"y": -0.8637940089,
				"z": -2.1373808955,
				"element": "H" 
			},
			{
				"x": 4.1804838234,
				"y": 0.2910874474,
				"z": -1.5780649882,
				"element": "H" 
			},
			{
				"x": 5.7891061259,
				"y": -0.7839927893,
				"z": -0.0228732216,
				"element": "H" 
			},
			{
				"x": 5.2802264288,
				"y": -3.0134854258,
				"z": 0.9526393498,
				"element": "H" 
			},
			{
				"x": 3.1509014757,
				"y": -4.1569198605,
				"z": 0.3663398996,
				"element": "H" 
			},
			{
				"x": 1.5371845076,
				"y": -3.0683130149,
				"z": -1.1652756976,
				"element": "H" 
			},
			{
				"x": 0.7839104186,
				"y": 0.3588027857,
				"z": -0.2874963108,
				"element": "H" 
			},
			{
				"x": -0.0918041474,
				"y": 2.1883342675,
				"z": 1.0691340208,
				"element": "H" 
			},
			{
				"x": -1.5696598452,
				"y": 1.6896959036,
				"z": 3.7413137545,
				"element": "H" 
			}
		],
		 "valence_orbital": [ 
			{
				"type": "occ",
				"energy": -0.24149,
				"method": "rhf"
			},
			{
				"type": "occ",
				"energy": -0.2387,
				"method": "rhf"
			},
			{
				"type": "occ",
				"energy": -0.2373,
				"method": "rhf"
			},
			{
				"type": "occ",
				"energy": -0.21627,
				"method": "rhf"
			},
			{
				"type": "occ",
				"energy": -0.21006,
				"method": "rhf"
			},
			{
				"type": "unocc",
				"energy": -0.04625,
				"method": "rhf"
			},
			{
				"type": "unocc",
				"energy": -0.01856,
				"method": "rhf"
			},
			{
				"type": "unocc",
				"energy": -0.01311,
				"method": "rhf"
			},
			{
				"type": "unocc",
				"energy": -0.00981,
				"method": "rhf"
			},
			{
				"type": "unocc",
				"energy": -0.00765,
				"method": "rhf"
			}
		],
		"cosmo_sigma_profile": { 
			"-0.025": 0.0,
			"-0.024": 0.0,
			"-0.023": 0.0,
			"-0.022": 0.0,
			"-0.021": 0.0,
			"-0.02": 0.0,
			"-0.019": 0.0,
			"-0.018": 0.0,
			"-0.017": 0.0,
			"-0.016": 0.0,
			"-0.015": 0.0,
			"-0.014": 0.0,
			"-0.013": 0.0,
			"-0.012": 0.0,
			"-0.011": 0.34208408697,
			"-0.01": 0.852885903444,
			"-0.009": 0.468807779698,
			"-0.008": 1.4523555906,
			"-0.007": 5.14607522109,
			"-0.006": 25.8657882711,
			"-0.005": 50.9430184054,
			"-0.004": 58.3776090394,
			"-0.003": 58.837333722,
			"-0.002": 60.004200235,
			"-0.001": 52.0423445948,
			"0.0": 42.4157298158,
			"0.001": 42.844403393,
			"0.002": 39.5307830004,
			"0.003": 41.8997857394,
			"0.004": 36.4926011642,
			"0.005": 27.9889643468,
			"0.006": 20.059136455,
			"0.007": 5.31074749752,
			"0.008": 4.20754097946,
			"0.009": 5.59108306588,
			"0.01": 5.13879316914,
			"0.011": 4.63637667509,
			"0.012": 3.28136137653,
			"0.013": 2.41063857302,
			"0.014": 4.37652762614,
			"0.015": 2.41498103517,
			"0.016": 0.30232820379,
			"0.017": 0.0,
			"0.018": 0.0,
			"0.019": 0.0,
			"0.02": 0.0,
			"0.021": 0.0,
			"0.022": 0.0,
			"0.023": 0.0,
			"0.024": 0.0,
			"0.025": 0.0
		}
	}
}
