{
	 "smiles": "OC(=O)C1=C(OC(F)F)C(Cl)=CC(Cl)=C1", 
	 "Tm": 403.15, 
	 "num_atms": 19, 
	 "gaussian": { 
		 "optdone": 1, 
		 "sigma_profile": "yes", 
		 "theory": "DFT", 
		 "functional": "B3LYP", 
		 "basiset": "6-31G**", 
		 "properties": { 
			 "R2extent": 4152.4499, 
			 "electric_dipole_moment_norm": 2.54981762877, 
			 "electric_quadrupole_moment_norm": 12.322708675, 
			 "total_energy": -1652.99017913, 
			 "HOMO_LUMO_gap": 0.19414, 
			 "cosmo_polarized_energy": -12.04, 
			 "cosmo_cavitation_energy": 28.63, 
			 "cosmo_dispersion_energy": -20.69, 
			 "cosmo_repulsion_energy": 1.58, 
			 "cosmo_total_nonelectrostatic_energy": 9.52, 
			 "SMD_solvation_energy": 6.48 
		},
		"coords": [
			{
				"x": -0.7825746479,
				"y": 1.5532929553,
				"z": 2.3403320655,
				"element": "O" 
			},
			{
				"x": -0.7281860628,
				"y": 0.2087816399,
				"z": 2.4003754789,
				"element": "C" 
			},
			{
				"x": -0.8118693842,
				"y": -0.3684410139,
				"z": 3.4584103073,
				"element": "O" 
			},
			{
				"x": -0.5855895107,
				"y": -0.5520400389,
				"z": 1.0971411379,
				"element": "C" 
			},
			{
				"x": -0.1936724609,
				"y": 0.0148550068,
				"z": -0.1278055722,
				"element": "C" 
			},
			{
				"x": 0.1020934928,
				"y": 1.3738359727,
				"z": -0.207564597,
				"element": "O" 
			},
			{
				"x": 1.4229865196,
				"y": 1.7401345366,
				"z": 0.0951860706,
				"element": "C" 
			},
			{
				"x": 1.3981514572,
				"y": 3.0712039895,
				"z": 0.2449010808,
				"element": "F" 
			},
			{
				"x": 2.2422141488,
				"y": 1.430700705,
				"z": -0.9279503295,
				"element": "F" 
			},
			{
				"x": -0.1725971655,
				"y": -0.7699323537,
				"z": -1.2892235493,
				"element": "C" 
			},
			{
				"x": 0.2261907813,
				"y": -0.0679669995,
				"z": -2.8318835756,
				"element": "Cl" 
			},
			{
				"x": -0.4987066397,
				"y": -2.1244297259,
				"z": -1.229190119,
				"element": "C" 
			},
			{
				"x": -0.8453219553,
				"y": -2.6863325628,
				"z": -0.0007680564,
				"element": "C" 
			},
			{
				"x": -1.2407663762,
				"y": -4.3882876277,
				"z": 0.0742626263,
				"element": "Cl" 
			},
			{
				"x": -0.8947215765,
				"y": -1.9157253519,
				"z": 1.1546545771,
				"element": "C" 
			},
			{
				"x": -0.7433479036,
				"y": 1.8594865036,
				"z": 1.4171452027,
				"element": "H" 
			},
			{
				"x": 1.7886828824,
				"y": 1.255189535,
				"z": 1.0068907576,
				"element": "H" 
			},
			{
				"x": -0.4813459575,
				"y": -2.725273118,
				"z": -2.1301348786,
				"element": "H" 
			},
			{
				"x": -1.1752196412,
				"y": -2.340252052,
				"z": 2.1108213729,
				"element": "H" 
			}
		],
		 "valence_orbital": [ 
			{
				"type": "occ",
				"energy": -0.33508,
				"method": "rhf"
			},
			{
				"type": "occ",
				"energy": -0.32955,
				"method": "rhf"
			},
			{
				"type": "occ",
				"energy": -0.29677,
				"method": "rhf"
			},
			{
				"type": "occ",
				"energy": -0.28873,
				"method": "rhf"
			},
			{
				"type": "occ",
				"energy": -0.27553,
				"method": "rhf"
			},
			{
				"type": "unocc",
				"energy": -0.08139,
				"method": "rhf"
			},
			{
				"type": "unocc",
				"energy": -0.05266,
				"method": "rhf"
			},
			{
				"type": "unocc",
				"energy": -0.01447,
				"method": "rhf"
			},
			{
				"type": "unocc",
				"energy": 0.01871,
				"method": "rhf"
			},
			{
				"type": "unocc",
				"energy": 0.03007,
				"method": "rhf"
			}
		],
		"cosmo_sigma_profile": { 
			"-0.025": 0.0,
			"-0.024": 0.0,
			"-0.023": 0.0,
			"-0.022": 0.0,
			"-0.021": 0.0,
			"-0.02": 0.0,
			"-0.019": 0.0,
			"-0.018": 0.0,
			"-0.017": 0.0,
			"-0.016": 0.0,
			"-0.015": 0.0,
			"-0.014": 0.159772216307,
			"-0.013": 1.30858489172,
			"-0.012": 3.85845121359,
			"-0.011": 3.91356548941,
			"-0.01": 3.15999443382,
			"-0.009": 3.59372937486,
			"-0.008": 4.33670320859,
			"-0.007": 5.76750844209,
			"-0.006": 6.52385971474,
			"-0.005": 6.99655088127,
			"-0.004": 8.32988350765,
			"-0.003": 14.802930844,
			"-0.002": 20.0507093687,
			"-0.001": 22.4842888632,
			"0.0": 15.3611935247,
			"0.001": 16.5321244089,
			"0.002": 24.3715443362,
			"0.003": 31.920611419,
			"0.004": 13.9556826835,
			"0.005": 4.01408091368,
			"0.006": 2.30242577786,
			"0.007": 2.76356410612,
			"0.008": 2.58103115983,
			"0.009": 4.32548885957,
			"0.01": 5.06785627357,
			"0.011": 4.7180714663,
			"0.012": 1.9515837792,
			"0.013": 0.145784315628,
			"0.014": 0.0,
			"0.015": 0.0,
			"0.016": 0.0,
			"0.017": 0.0,
			"0.018": 0.0,
			"0.019": 0.0,
			"0.02": 0.0,
			"0.021": 0.0,
			"0.022": 0.0,
			"0.023": 0.0,
			"0.024": 0.0,
			"0.025": 0.0
		}
	}
}
