{
	 "smiles": "O=CC=CC1=CC=CO1", 
	 "Tm": 325.65, 
	 "num_atms": 15, 
	 "gaussian": { 
		 "optdone": 1, 
		 "sigma_profile": "yes", 
		 "theory": "DFT", 
		 "functional": "B3LYP", 
		 "basiset": "6-31G**", 
		 "properties": { 
			 "R2extent": 1675.6212, 
			 "electric_dipole_moment_norm": 5.23153012034, 
			 "electric_quadrupole_moment_norm": 11.9339048739, 
			 "total_energy": -420.757203684, 
			 "HOMO_LUMO_gap": 0.15252, 
			 "cosmo_polarized_energy": -10.49, 
			 "cosmo_cavitation_energy": 20.57, 
			 "cosmo_dispersion_energy": -14.88, 
			 "cosmo_repulsion_energy": 1.22, 
			 "cosmo_total_nonelectrostatic_energy": 6.91, 
			 "SMD_solvation_energy": 5.89 
		},
		"coords": [
			{
				"x": -0.9875831793,
				"y": 2.1433876323,
				"z": 3.7909204632,
				"element": "O" 
			},
			{
				"x": -0.6450933152,
				"y": 1.1419526205,
				"z": 3.1857605469,
				"element": "C" 
			},
			{
				"x": -0.3184538299,
				"y": 1.1017861589,
				"z": 1.7608950288,
				"element": "C" 
			},
			{
				"x": 0.0530411609,
				"y": -0.0590359976,
				"z": 1.174591335,
				"element": "C" 
			},
			{
				"x": 0.3999729514,
				"y": -0.2487425189,
				"z": -0.2025128887,
				"element": "C" 
			},
			{
				"x": 0.7888891242,
				"y": -1.3660482057,
				"z": -0.9071204372,
				"element": "C" 
			},
			{
				"x": 1.0035052907,
				"y": -0.9509020973,
				"z": -2.2528032805,
				"element": "C" 
			},
			{
				"x": 0.7321316598,
				"y": 0.3873391372,
				"z": -2.2795519326,
				"element": "C" 
			},
			{
				"x": 0.3657797908,
				"y": 0.8303362253,
				"z": -1.0505394628,
				"element": "O" 
			},
			{
				"x": -0.557920789,
				"y": 0.1597476772,
				"z": 3.7072861775,
				"element": "H" 
			},
			{
				"x": -0.3862885252,
				"y": 2.0308819221,
				"z": 1.202855194,
				"element": "H" 
			},
			{
				"x": 0.1040190118,
				"y": -0.9614042439,
				"z": 1.7833114861,
				"element": "H" 
			},
			{
				"x": 0.9042876593,
				"y": -2.3609064184,
				"z": -0.5008563932,
				"element": "H" 
			},
			{
				"x": 1.3163585318,
				"y": -1.5600414237,
				"z": -3.0881806736,
				"element": "H" 
			},
			{
				"x": 0.7525544579,
				"y": 1.1312495321,
				"z": -3.0611551628,
				"element": "H" 
			}
		],
		 "valence_orbital": [ 
			{
				"type": "occ",
				"energy": -0.38312,
				"method": "rhf"
			},
			{
				"type": "occ",
				"energy": -0.31707,
				"method": "rhf"
			},
			{
				"type": "occ",
				"energy": -0.29665,
				"method": "rhf"
			},
			{
				"type": "occ",
				"energy": -0.2448,
				"method": "rhf"
			},
			{
				"type": "occ",
				"energy": -0.2281,
				"method": "rhf"
			},
			{
				"type": "unocc",
				"energy": -0.07558,
				"method": "rhf"
			},
			{
				"type": "unocc",
				"energy": 0.01496,
				"method": "rhf"
			},
			{
				"type": "unocc",
				"energy": 0.0528,
				"method": "rhf"
			},
			{
				"type": "unocc",
				"energy": 0.09153,
				"method": "rhf"
			},
			{
				"type": "unocc",
				"energy": 0.09889,
				"method": "rhf"
			}
		],
		"cosmo_sigma_profile": { 
			"-0.025": 0.0,
			"-0.024": 0.0,
			"-0.023": 0.0,
			"-0.022": 0.0,
			"-0.021": 0.0,
			"-0.02": 0.0,
			"-0.019": 0.0,
			"-0.018": 0.0,
			"-0.017": 0.0,
			"-0.016": 0.0,
			"-0.015": 0.0,
			"-0.014": 0.0,
			"-0.013": 0.0,
			"-0.012": 0.0,
			"-0.011": 0.0,
			"-0.01": 0.900841667245,
			"-0.009": 2.3198210536,
			"-0.008": 9.20452230135,
			"-0.007": 8.41394798484,
			"-0.006": 8.37159788977,
			"-0.005": 11.5815421182,
			"-0.004": 8.61244727856,
			"-0.003": 8.54079142447,
			"-0.002": 9.41567429229,
			"-0.001": 8.22090381688,
			"0.0": 10.9029602216,
			"0.001": 19.6839512204,
			"0.002": 16.3664215723,
			"0.003": 11.4093357583,
			"0.004": 6.33393138733,
			"0.005": 2.89930798149,
			"0.006": 3.51222719873,
			"0.007": 1.45660243299,
			"0.008": 1.41104636681,
			"0.009": 1.6749024201,
			"0.01": 1.65351213982,
			"0.011": 3.47002314649,
			"0.012": 4.53761654908,
			"0.013": 3.70704269303,
			"0.014": 1.07274416744,
			"0.015": 0.0,
			"0.016": 0.0,
			"0.017": 0.0,
			"0.018": 0.0,
			"0.019": 0.0,
			"0.02": 0.0,
			"0.021": 0.0,
			"0.022": 0.0,
			"0.023": 0.0,
			"0.024": 0.0,
			"0.025": 0.0
		}
	}
}
