{
	 "smiles": "FC1=CC=CC2=C1NC=C2", 
	 "Tm": 335.15, 
	 "num_atms": 16, 
	 "gaussian": { 
		 "optdone": 1, 
		 "sigma_profile": "yes", 
		 "theory": "DFT", 
		 "functional": "B3LYP", 
		 "basiset": "6-31G**", 
		 "properties": { 
			 "R2extent": 1449.7702, 
			 "electric_dipole_moment_norm": 1.68169904561, 
			 "electric_quadrupole_moment_norm": 10.7075058688, 
			 "total_energy": -463.051780044, 
			 "HOMO_LUMO_gap": 0.19803, 
			 "cosmo_polarized_energy": -7.18, 
			 "cosmo_cavitation_energy": 20.34, 
			 "cosmo_dispersion_energy": -15.32, 
			 "cosmo_repulsion_energy": 1.2, 
			 "cosmo_total_nonelectrostatic_energy": 6.23, 
			 "SMD_solvation_energy": 3.96 
		},
		"coords": [
			{
				"x": -0.4731393935,
				"y": -2.227978632,
				"z": -2.2317050347,
				"element": "F" 
			},
			{
				"x": -0.1307278319,
				"y": -1.3397035216,
				"z": -1.2662433924,
				"element": "C" 
			},
			{
				"x": 1.0757076762,
				"y": -1.4319975375,
				"z": -0.6011990142,
				"element": "C" 
			},
			{
				"x": 1.3937323304,
				"y": -0.48578127,
				"z": 0.3984997028,
				"element": "C" 
			},
			{
				"x": 0.5218842455,
				"y": 0.5408449311,
				"z": 0.7332818904,
				"element": "C" 
			},
			{
				"x": -0.7104474011,
				"y": 0.6391029632,
				"z": 0.0573530831,
				"element": "C" 
			},
			{
				"x": -1.0227923469,
				"y": -0.3165449402,
				"z": -0.9468854388,
				"element": "C" 
			},
			{
				"x": -2.2655450481,
				"y": -0.0143330231,
				"z": -1.4559755527,
				"element": "N" 
			},
			{
				"x": -2.7506945701,
				"y": 1.1043136948,
				"z": -0.8046334915,
				"element": "C" 
			},
			{
				"x": -1.835822811,
				"y": 1.5319283908,
				"z": 0.122258516,
				"element": "C" 
			},
			{
				"x": 1.7611807677,
				"y": -2.2321276981,
				"z": -0.8584334588,
				"element": "H" 
			},
			{
				"x": 2.3465771815,
				"y": -0.5726819229,
				"z": 0.9118118307,
				"element": "H" 
			},
			{
				"x": 0.7849552947,
				"y": 1.2581627785,
				"z": 1.5046856515,
				"element": "H" 
			},
			{
				"x": -2.7330970118,
				"y": -0.5303533408,
				"z": -2.1825332313,
				"element": "H" 
			},
			{
				"x": -3.7203139968,
				"y": 1.5073940869,
				"z": -1.0596772985,
				"element": "H" 
			},
			{
				"x": -1.9489570849,
				"y": 2.3843550409,
				"z": 0.7765952384,
				"element": "H" 
			}
		],
		 "valence_orbital": [ 
			{
				"type": "occ",
				"energy": -0.34677,
				"method": "rhf"
			},
			{
				"type": "occ",
				"energy": -0.32955,
				"method": "rhf"
			},
			{
				"type": "occ",
				"energy": -0.27092,
				"method": "rhf"
			},
			{
				"type": "occ",
				"energy": -0.22378,
				"method": "rhf"
			},
			{
				"type": "occ",
				"energy": -0.20343,
				"method": "rhf"
			},
			{
				"type": "unocc",
				"energy": -0.0054,
				"method": "rhf"
			},
			{
				"type": "unocc",
				"energy": 0.02444,
				"method": "rhf"
			},
			{
				"type": "unocc",
				"energy": 0.07243,
				"method": "rhf"
			},
			{
				"type": "unocc",
				"energy": 0.07718,
				"method": "rhf"
			},
			{
				"type": "unocc",
				"energy": 0.10309,
				"method": "rhf"
			}
		],
		"cosmo_sigma_profile": { 
			"-0.025": 0.0,
			"-0.024": 0.0,
			"-0.023": 0.0,
			"-0.022": 0.0,
			"-0.021": 0.0,
			"-0.02": 0.0,
			"-0.019": 0.0,
			"-0.018": 0.0,
			"-0.017": 0.0,
			"-0.016": 0.444323265626,
			"-0.015": 1.61358956291,
			"-0.014": 0.813829250577,
			"-0.013": 1.15701226248,
			"-0.012": 0.873989036943,
			"-0.011": 0.874646724199,
			"-0.01": 1.47008312418,
			"-0.009": 1.28078031048,
			"-0.008": 3.20047500123,
			"-0.007": 3.4960430256,
			"-0.006": 6.08034916348,
			"-0.005": 9.16622666302,
			"-0.004": 9.75490777178,
			"-0.003": 10.702152024,
			"-0.002": 9.30366590966,
			"-0.001": 8.39461166209,
			"0.0": 7.44614090391,
			"0.001": 10.2334778713,
			"0.002": 11.9520605876,
			"0.003": 13.4228636989,
			"0.004": 19.8463038583,
			"0.005": 16.5144115236,
			"0.006": 12.4675217455,
			"0.007": 3.19486197459,
			"0.008": 0.0,
			"0.009": 0.0,
			"0.01": 0.0,
			"0.011": 0.0,
			"0.012": 0.0,
			"0.013": 0.0,
			"0.014": 0.0,
			"0.015": 0.0,
			"0.016": 0.0,
			"0.017": 0.0,
			"0.018": 0.0,
			"0.019": 0.0,
			"0.02": 0.0,
			"0.021": 0.0,
			"0.022": 0.0,
			"0.023": 0.0,
			"0.024": 0.0,
			"0.025": 0.0
		}
	}
}
