{
	 "smiles": "COC1=CC=C(C=O)C=C1F", 
	 "Tm": 308.15, 
	 "num_atms": 18, 
	 "gaussian": { 
		 "optdone": 1, 
		 "sigma_profile": "yes", 
		 "theory": "DFT", 
		 "functional": "B3LYP", 
		 "basiset": "6-31G**", 
		 "properties": { 
			 "R2extent": 2272.0417, 
			 "electric_dipole_moment_norm": 5.31049971377, 
			 "electric_quadrupole_moment_norm": 6.85224526415, 
			 "total_energy": -559.326512308, 
			 "HOMO_LUMO_gap": 0.17852, 
			 "cosmo_polarized_energy": -10.48, 
			 "cosmo_cavitation_energy": 23.23, 
			 "cosmo_dispersion_energy": -16.86, 
			 "cosmo_repulsion_energy": 1.32, 
			 "cosmo_total_nonelectrostatic_energy": 7.7, 
			 "SMD_solvation_energy": 6.45 
		},
		"coords": [
			{
				"x": 1.1173471098,
				"y": 3.0691528534,
				"z": 1.9889588518,
				"element": "C" 
			},
			{
				"x": -0.017512519,
				"y": 2.696992045,
				"z": 1.2160472085,
				"element": "O" 
			},
			{
				"x": -0.2457266732,
				"y": 1.3809573294,
				"z": 1.0071933212,
				"element": "C" 
			},
			{
				"x": 0.5411057677,
				"y": 0.3266199246,
				"z": 1.4861384892,
				"element": "C" 
			},
			{
				"x": 0.1887824858,
				"y": -0.9923233611,
				"z": 1.1945452809,
				"element": "C" 
			},
			{
				"x": -0.9431335423,
				"y": -1.2796568075,
				"z": 0.427884403,
				"element": "C" 
			},
			{
				"x": -1.3046194547,
				"y": -2.6772825859,
				"z": 0.126843747,
				"element": "C" 
			},
			{
				"x": -2.2704386297,
				"y": -3.0180111949,
				"z": -0.5315030993,
				"element": "O" 
			},
			{
				"x": -1.7391503983,
				"y": -0.2244956389,
				"z": -0.0571269448,
				"element": "C" 
			},
			{
				"x": -1.3878429075,
				"y": 1.073195354,
				"z": 0.232874273,
				"element": "C" 
			},
			{
				"x": -2.1323745835,
				"y": 2.0974089543,
				"z": -0.2190735023,
				"element": "F" 
			},
			{
				"x": 1.0571641248,
				"y": 2.6675534869,
				"z": 3.0078077782,
				"element": "H" 
			},
			{
				"x": 2.0496278298,
				"y": 2.7322965817,
				"z": 1.519546665,
				"element": "H" 
			},
			{
				"x": 1.10540156,
				"y": 4.1586617828,
				"z": 2.0283626579,
				"element": "H" 
			},
			{
				"x": 1.4223126454,
				"y": 0.5303660213,
				"z": 2.0822421083,
				"element": "H" 
			},
			{
				"x": 0.8038799628,
				"y": -1.8065018865,
				"z": 1.5693915829,
				"element": "H" 
			},
			{
				"x": -0.6106297938,
				"y": -3.4341619033,
				"z": 0.5567567498,
				"element": "H" 
			},
			{
				"x": -2.6196929842,
				"y": -0.4381709552,
				"z": -0.6530895704,
				"element": "H" 
			}
		],
		 "valence_orbital": [ 
			{
				"type": "occ",
				"energy": -0.35062,
				"method": "rhf"
			},
			{
				"type": "occ",
				"energy": -0.33289,
				"method": "rhf"
			},
			{
				"type": "occ",
				"energy": -0.26525,
				"method": "rhf"
			},
			{
				"type": "occ",
				"energy": -0.25321,
				"method": "rhf"
			},
			{
				"type": "occ",
				"energy": -0.2373,
				"method": "rhf"
			},
			{
				"type": "unocc",
				"energy": -0.05878,
				"method": "rhf"
			},
			{
				"type": "unocc",
				"energy": -0.01386,
				"method": "rhf"
			},
			{
				"type": "unocc",
				"energy": 0.04592,
				"method": "rhf"
			},
			{
				"type": "unocc",
				"energy": 0.07285,
				"method": "rhf"
			},
			{
				"type": "unocc",
				"energy": 0.08851,
				"method": "rhf"
			}
		],
		"cosmo_sigma_profile": { 
			"-0.025": 0.0,
			"-0.024": 0.0,
			"-0.023": 0.0,
			"-0.022": 0.0,
			"-0.021": 0.0,
			"-0.02": 0.0,
			"-0.019": 0.0,
			"-0.018": 0.0,
			"-0.017": 0.0,
			"-0.016": 0.0,
			"-0.015": 0.0,
			"-0.014": 0.0,
			"-0.013": 0.0,
			"-0.012": 0.0,
			"-0.011": 0.0,
			"-0.01": 0.0,
			"-0.009": 0.0,
			"-0.008": 2.45220616017,
			"-0.007": 10.1811156849,
			"-0.006": 16.1247303604,
			"-0.005": 15.4668284383,
			"-0.004": 14.142247722,
			"-0.003": 10.6031359305,
			"-0.002": 9.04119012254,
			"-0.001": 10.7512130622,
			"0.0": 14.8136464403,
			"0.001": 15.8747496701,
			"0.002": 14.2066953179,
			"0.003": 10.9550251183,
			"0.004": 11.1351970133,
			"0.005": 5.2693621268,
			"0.006": 3.12782590569,
			"0.007": 3.30379018574,
			"0.008": 3.52292869947,
			"0.009": 4.02121695702,
			"0.01": 2.29944671391,
			"0.011": 3.81697286787,
			"0.012": 3.75765771146,
			"0.013": 1.22108308194,
			"0.014": 0.0725250041994,
			"0.015": 0.0,
			"0.016": 0.0,
			"0.017": 0.0,
			"0.018": 0.0,
			"0.019": 0.0,
			"0.02": 0.0,
			"0.021": 0.0,
			"0.022": 0.0,
			"0.023": 0.0,
			"0.024": 0.0,
			"0.025": 0.0
		}
	}
}
