{
	 "smiles": "FC(F)(F)C1=NN(C(=O)C1)C1=CC=CC=C1", 
	 "Tm": 466.15, 
	 "num_atms": 23, 
	 "gaussian": { 
		 "optdone": 1, 
		 "sigma_profile": "yes", 
		 "theory": "DFT", 
		 "functional": "B3LYP", 
		 "basiset": "6-31G**", 
		 "properties": { 
			 "R2extent": 4459.9262, 
			 "electric_dipole_moment_norm": 0.0516911984771, 
			 "electric_quadrupole_moment_norm": 11.3122183165, 
			 "total_energy": -869.508532234, 
			 "HOMO_LUMO_gap": 0.16635, 
			 "cosmo_polarized_energy": -9.03, 
			 "cosmo_cavitation_energy": 29.36, 
			 "cosmo_dispersion_energy": -21.1, 
			 "cosmo_repulsion_energy": 1.57, 
			 "cosmo_total_nonelectrostatic_energy": 9.83, 
			 "SMD_solvation_energy": 6.24 
		},
		"coords": [
			{
				"x": -3.2224522798,
				"y": 2.5323692235,
				"z": 1.697789454,
				"element": "F" 
			},
			{
				"x": -2.2387857999,
				"y": 1.8853431264,
				"z": 2.3645353903,
				"element": "C" 
			},
			{
				"x": -1.7594351865,
				"y": 2.7476154981,
				"z": 3.290566324,
				"element": "F" 
			},
			{
				"x": -2.7755121874,
				"y": 0.838869809,
				"z": 2.9989799642,
				"element": "F" 
			},
			{
				"x": -1.1481817476,
				"y": 1.4896854941,
				"z": 1.4163065314,
				"element": "C" 
			},
			{
				"x": -0.8042115336,
				"y": 0.261324097,
				"z": 1.2667181113,
				"element": "N" 
			},
			{
				"x": 0.2180257858,
				"y": 0.1996840567,
				"z": 0.3364905102,
				"element": "N" 
			},
			{
				"x": 0.5684235344,
				"y": 1.4681692232,
				"z": -0.1569944155,
				"element": "C" 
			},
			{
				"x": 1.4236190132,
				"y": 1.7289066305,
				"z": -0.9773665945,
				"element": "O" 
			},
			{
				"x": -0.3653737295,
				"y": 2.4369505517,
				"z": 0.5693949996,
				"element": "C" 
			},
			{
				"x": 0.7666020755,
				"y": -1.0735414419,
				"z": 0.0054247053,
				"element": "C" 
			},
			{
				"x": 1.8041627653,
				"y": -1.1823796829,
				"z": -0.9316568138,
				"element": "C" 
			},
			{
				"x": 2.3184708821,
				"y": -2.4436917979,
				"z": -1.2328175054,
				"element": "C" 
			},
			{
				"x": 1.8172042042,
				"y": -3.5907179329,
				"z": -0.6178461593,
				"element": "C" 
			},
			{
				"x": 0.784258171,
				"y": -3.4689469395,
				"z": 0.3132011501,
				"element": "C" 
			},
			{
				"x": 0.2550364231,
				"y": -2.2199752458,
				"z": 0.6297359137,
				"element": "C" 
			},
			{
				"x": 0.2064456635,
				"y": 3.1687349689,
				"z": 1.1501359888,
				"element": "H" 
			},
			{
				"x": -0.9820877383,
				"y": 2.9936816929,
				"z": -0.1443738738,
				"element": "H" 
			},
			{
				"x": 2.1953324395,
				"y": -0.2960328899,
				"z": -1.4104681499,
				"element": "H" 
			},
			{
				"x": 3.122034898,
				"y": -2.5218426447,
				"z": -1.959359418,
				"element": "H" 
			},
			{
				"x": 2.2254013271,
				"y": -4.5671333898,
				"z": -0.8602154382,
				"element": "H" 
			},
			{
				"x": 0.3820157747,
				"y": -4.3517499777,
				"z": 0.8015942117,
				"element": "H" 
			},
			{
				"x": -0.5457927548,
				"y": -2.124622429,
				"z": 1.3514251136,
				"element": "H" 
			}
		],
		 "valence_orbital": [ 
			{
				"type": "occ",
				"energy": -0.3374,
				"method": "rhf"
			},
			{
				"type": "occ",
				"energy": -0.2987,
				"method": "rhf"
			},
			{
				"type": "occ",
				"energy": -0.27666,
				"method": "rhf"
			},
			{
				"type": "occ",
				"energy": -0.2557,
				"method": "rhf"
			},
			{
				"type": "occ",
				"energy": -0.22856,
				"method": "rhf"
			},
			{
				"type": "unocc",
				"energy": -0.06221,
				"method": "rhf"
			},
			{
				"type": "unocc",
				"energy": -0.02509,
				"method": "rhf"
			},
			{
				"type": "unocc",
				"energy": -0.00506,
				"method": "rhf"
			},
			{
				"type": "unocc",
				"energy": 0.03805,
				"method": "rhf"
			},
			{
				"type": "unocc",
				"energy": 0.09195,
				"method": "rhf"
			}
		],
		"cosmo_sigma_profile": { 
			"-0.025": 0.0,
			"-0.024": 0.0,
			"-0.023": 0.0,
			"-0.022": 0.0,
			"-0.021": 0.0,
			"-0.02": 0.0,
			"-0.019": 0.0,
			"-0.018": 0.0,
			"-0.017": 0.0,
			"-0.016": 0.0,
			"-0.015": 0.0,
			"-0.014": 0.0,
			"-0.013": 0.0,
			"-0.012": 0.0,
			"-0.011": 0.0,
			"-0.01": 2.63154343577,
			"-0.009": 6.1915575813,
			"-0.008": 5.19180143789,
			"-0.007": 5.79255865626,
			"-0.006": 10.9521377298,
			"-0.005": 12.6524811085,
			"-0.004": 15.8994670938,
			"-0.003": 12.4382527879,
			"-0.002": 12.3547369661,
			"-0.001": 12.8978627833,
			"0.0": 15.6314147677,
			"0.001": 20.265590075,
			"0.002": 40.0214084469,
			"0.003": 19.6761877618,
			"0.004": 13.2651914047,
			"0.005": 12.8069317782,
			"0.006": 3.98553158175,
			"0.007": 2.93442014891,
			"0.008": 1.47676800144,
			"0.009": 2.33019622072,
			"0.01": 2.19257030512,
			"0.011": 3.32176376762,
			"0.012": 1.62767440911,
			"0.013": 0.0412570074698,
			"0.014": 0.0,
			"0.015": 0.0,
			"0.016": 0.0,
			"0.017": 0.0,
			"0.018": 0.0,
			"0.019": 0.0,
			"0.02": 0.0,
			"0.021": 0.0,
			"0.022": 0.0,
			"0.023": 0.0,
			"0.024": 0.0,
			"0.025": 0.0
		}
	}
}
