{
	 "smiles": "OC(=O)C1CCCN(C1)C(=O)C1=C2C=CC=CC2=CC=C1", 
	 "Tm": 529.15, 
	 "num_atms": 38, 
	 "gaussian": { 
		 "optdone": 1, 
		 "sigma_profile": "yes", 
		 "theory": "DFT", 
		 "functional": "B3LYP", 
		 "basiset": "6-31G**", 
		 "properties": { 
			 "R2extent": 6299.681, 
			 "electric_dipole_moment_norm": 2.89943003192, 
			 "electric_quadrupole_moment_norm": 15.3963940285, 
			 "total_energy": -938.524905511, 
			 "HOMO_LUMO_gap": 0.17131, 
			 "cosmo_polarized_energy": -17.12, 
			 "cosmo_cavitation_energy": 39.33, 
			 "cosmo_dispersion_energy": -27.3, 
			 "cosmo_repulsion_energy": 2.05, 
			 "cosmo_total_nonelectrostatic_energy": 14.08, 
			 "SMD_solvation_energy": 6.35 
		},
		"coords": [
			{
				"x": -1.1942108694,
				"y": -3.3547829626,
				"z": 1.7342342607,
				"element": "O" 
			},
			{
				"x": -1.4832600728,
				"y": -2.0817199751,
				"z": 1.3866893108,
				"element": "C" 
			},
			{
				"x": -1.5947639404,
				"y": -1.7285423285,
				"z": 0.2300579966,
				"element": "O" 
			},
			{
				"x": -1.6297635764,
				"y": -1.1973146341,
				"z": 2.6135514941,
				"element": "C" 
			},
			{
				"x": -2.4380646781,
				"y": 0.0870125582,
				"z": 2.3399673715,
				"element": "C" 
			},
			{
				"x": -1.6494240855,
				"y": 1.1328926183,
				"z": 1.5341238955,
				"element": "C" 
			},
			{
				"x": -0.2589132882,
				"y": 1.3861618075,
				"z": 2.1371437143,
				"element": "C" 
			},
			{
				"x": 0.4660134533,
				"y": 0.1220211802,
				"z": 2.3113885415,
				"element": "N" 
			},
			{
				"x": -0.2255182492,
				"y": -0.8383334626,
				"z": 3.1677377045,
				"element": "C" 
			},
			{
				"x": 1.3977038159,
				"y": -0.368110982,
				"z": 1.4185792542,
				"element": "C" 
			},
			{
				"x": 1.6579011621,
				"y": -1.5677503113,
				"z": 1.3447599369,
				"element": "O" 
			},
			{
				"x": 2.1550185545,
				"y": 0.6330953478,
				"z": 0.5834977182,
				"element": "C" 
			},
			{
				"x": 2.1499914701,
				"y": 0.5333205239,
				"z": -0.8454304008,
				"element": "C" 
			},
			{
				"x": 1.3426211994,
				"y": -0.4002000885,
				"z": -1.5539724203,
				"element": "C" 
			},
			{
				"x": 1.3558833812,
				"y": -0.436056633,
				"z": -2.9305922783,
				"element": "C" 
			},
			{
				"x": 2.1750690885,
				"y": 0.450537535,
				"z": -3.6701181435,
				"element": "C" 
			},
			{
				"x": 2.9653623649,
				"y": 1.3661467532,
				"z": -3.0148143668,
				"element": "C" 
			},
			{
				"x": 2.9743923811,
				"y": 1.4375871746,
				"z": -1.595354736,
				"element": "C" 
			},
			{
				"x": 3.7794072062,
				"y": 2.3845439814,
				"z": -0.90672991,
				"element": "C" 
			},
			{
				"x": 3.7669914702,
				"y": 2.4543457597,
				"z": 0.4667230907,
				"element": "C" 
			},
			{
				"x": 2.9448219129,
				"y": 1.5781738332,
				"z": 1.2119647328,
				"element": "C" 
			},
			{
				"x": -1.0161691832,
				"y": -3.8328317065,
				"z": 0.906983486,
				"element": "H" 
			},
			{
				"x": -2.133413046,
				"y": -1.8013175202,
				"z": 3.3772396664,
				"element": "H" 
			},
			{
				"x": -2.7175845748,
				"y": 0.5135456881,
				"z": 3.3128790349,
				"element": "H" 
			},
			{
				"x": -3.3707611355,
				"y": -0.1591946803,
				"z": 1.8225490099,
				"element": "H" 
			},
			{
				"x": -1.5313913565,
				"y": 0.7821170478,
				"z": 0.5051576192,
				"element": "H" 
			},
			{
				"x": -2.2069350112,
				"y": 2.0765952836,
				"z": 1.5025063932,
				"element": "H" 
			},
			{
				"x": 0.3250280572,
				"y": 2.0509478436,
				"z": 1.5015812562,
				"element": "H" 
			},
			{
				"x": -0.3503704964,
				"y": 1.8649108007,
				"z": 3.1225873522,
				"element": "H" 
			},
			{
				"x": -0.3523599685,
				"y": -0.382629522,
				"z": 4.1580111432,
				"element": "H" 
			},
			{
				"x": 0.3966043043,
				"y": -1.7276505326,
				"z": 3.2598850382,
				"element": "H" 
			},
			{
				"x": 0.7131837114,
				"y": -1.0874377109,
				"z": -1.0004396727,
				"element": "H" 
			},
			{
				"x": 0.730789509,
				"y": -1.1528863297,
				"z": -3.4550647986,
				"element": "H" 
			},
			{
				"x": 2.1754608459,
				"y": 0.4065418294,
				"z": -4.7555024001,
				"element": "H" 
			},
			{
				"x": 3.5951128557,
				"y": 2.0534727391,
				"z": -3.5740918681,
				"element": "H" 
			},
			{
				"x": 4.4065344115,
				"y": 3.0561969924,
				"z": -1.4875145662,
				"element": "H" 
			},
			{
				"x": 4.3876679824,
				"y": 3.1784239299,
				"z": 0.9862311832,
				"element": "H" 
			},
			{
				"x": 2.9438443943,
				"y": 1.6362681523,
				"z": 2.2967953566,
				"element": "H" 
			}
		],
		 "valence_orbital": [ 
			{
				"type": "occ",
				"energy": -0.27307,
				"method": "rhf"
			},
			{
				"type": "occ",
				"energy": -0.24955,
				"method": "rhf"
			},
			{
				"type": "occ",
				"energy": -0.24149,
				"method": "rhf"
			},
			{
				"type": "occ",
				"energy": -0.23548,
				"method": "rhf"
			},
			{
				"type": "occ",
				"energy": -0.2127,
				"method": "rhf"
			},
			{
				"type": "unocc",
				"energy": -0.04139,
				"method": "rhf"
			},
			{
				"type": "unocc",
				"energy": -0.00811,
				"method": "rhf"
			},
			{
				"type": "unocc",
				"energy": 0.00569,
				"method": "rhf"
			},
			{
				"type": "unocc",
				"energy": 0.01043,
				"method": "rhf"
			},
			{
				"type": "unocc",
				"energy": 0.0483,
				"method": "rhf"
			}
		],
		"cosmo_sigma_profile": { 
			"-0.025": 0.0,
			"-0.024": 0.0,
			"-0.023": 0.0,
			"-0.022": 0.0,
			"-0.021": 0.0,
			"-0.02": 0.0,
			"-0.019": 0.01643600947,
			"-0.018": 0.567117719926,
			"-0.017": 1.07283307747,
			"-0.016": 0.810396019825,
			"-0.015": 0.704884726134,
			"-0.014": 0.481616965717,
			"-0.013": 0.892570220235,
			"-0.012": 0.530086309209,
			"-0.011": 0.430681374833,
			"-0.01": 0.98962895007,
			"-0.009": 0.473037872048,
			"-0.008": 0.458048189377,
			"-0.007": 1.65415704929,
			"-0.006": 16.8325243435,
			"-0.005": 24.0488942886,
			"-0.004": 31.4148761888,
			"-0.003": 29.4636876149,
			"-0.002": 29.7245205796,
			"-0.001": 22.31522902,
			"0.0": 19.2988331708,
			"0.001": 16.1028571202,
			"0.002": 15.2377702149,
			"0.003": 20.8729250019,
			"0.004": 24.5621014875,
			"0.005": 15.0751468734,
			"0.006": 5.13472682194,
			"0.007": 5.58307597442,
			"0.008": 5.42726414989,
			"0.009": 4.12172387677,
			"0.01": 3.29251743584,
			"0.011": 4.67363911357,
			"0.012": 3.27416708669,
			"0.013": 3.05453692045,
			"0.014": 2.18412151907,
			"0.015": 0.276358195726,
			"0.016": 0.0,
			"0.017": 0.0,
			"0.018": 0.0,
			"0.019": 0.0,
			"0.02": 0.0,
			"0.021": 0.0,
			"0.022": 0.0,
			"0.023": 0.0,
			"0.024": 0.0,
			"0.025": 0.0
		}
	}
}
