{
	 "smiles": "CN1CCN(C)C2=C1C=CC(Br)=C2", 
	 "Tm": 328.65, 
	 "num_atms": 26, 
	 "gaussian": { 
		 "optdone": 1, 
		 "sigma_profile": "yes", 
		 "theory": "DFT", 
		 "functional": "B3LYP", 
		 "basiset": "6-31G**", 
		 "properties": { 
			 "R2extent": 4791.7226, 
			 "electric_dipole_moment_norm": 4.19764463837, 
			 "electric_quadrupole_moment_norm": 9.58348041371, 
			 "total_energy": -3069.79472787, 
			 "HOMO_LUMO_gap": 0.18453, 
			 "cosmo_polarized_energy": -7.43, 
			 "cosmo_cavitation_energy": 29.5, 
			 "cosmo_dispersion_energy": -22.25, 
			 "cosmo_repulsion_energy": 1.74, 
			 "cosmo_total_nonelectrostatic_energy": 8.99, 
			 "SMD_solvation_energy": 1.62 
		},
		"coords": [
			{
				"x": 1.9582179191,
				"y": -0.5776780549,
				"z": 1.7123356197,
				"element": "C" 
			},
			{
				"x": 0.5800243882,
				"y": -0.6744410569,
				"z": 1.2316092184,
				"element": "N" 
			},
			{
				"x": -0.4187399631,
				"y": -0.2344655803,
				"z": 2.1998102742,
				"element": "C" 
			},
			{
				"x": -0.7405575314,
				"y": 1.2540836306,
				"z": 2.0418544096,
				"element": "C" 
			},
			{
				"x": -1.2588700411,
				"y": 1.469114277,
				"z": 0.7005110924,
				"element": "N" 
			},
			{
				"x": -1.9997523999,
				"y": 2.6919841641,
				"z": 0.4586946524,
				"element": "C" 
			},
			{
				"x": -0.5738242861,
				"y": 0.8539651514,
				"z": -0.3491881819,
				"element": "C" 
			},
			{
				"x": 0.3378360121,
				"y": -0.2119434154,
				"z": -0.0894809505,
				"element": "C" 
			},
			{
				"x": 0.9809999646,
				"y": -0.8304036308,
				"z": -1.1663650834,
				"element": "C" 
			},
			{
				"x": 0.7871980605,
				"y": -0.4251018731,
				"z": -2.4852881974,
				"element": "C" 
			},
			{
				"x": -0.0972928715,
				"y": 0.6212266716,
				"z": -2.7209752358,
				"element": "C" 
			},
			{
				"x": -0.398728891,
				"y": 1.214940267,
				"z": -4.5185911302,
				"element": "Br" 
			},
			{
				"x": -0.7711768974,
				"y": 1.2569812039,
				"z": -1.6843691916,
				"element": "C" 
			},
			{
				"x": 2.0821634803,
				"y": -1.2167952931,
				"z": 2.5926816026,
				"element": "H" 
			},
			{
				"x": 2.2536678206,
				"y": 0.4509134956,
				"z": 1.9851427879,
				"element": "H" 
			},
			{
				"x": 2.6485863797,
				"y": -0.9271915784,
				"z": 0.943452526,
				"element": "H" 
			},
			{
				"x": -0.0509966973,
				"y": -0.4435962919,
				"z": 3.208086723,
				"element": "H" 
			},
			{
				"x": -1.3413218992,
				"y": -0.8089141281,
				"z": 2.0536546485,
				"element": "H" 
			},
			{
				"x": -1.5052416635,
				"y": 1.5576407199,
				"z": 2.7650674962,
				"element": "H" 
			},
			{
				"x": 0.1634269092,
				"y": 1.8564049886,
				"z": 2.2443152543,
				"element": "H" 
			},
			{
				"x": -2.4970982552,
				"y": 2.9887343407,
				"z": 1.3850062092,
				"element": "H" 
			},
			{
				"x": -2.7766056742,
				"y": 2.5345206596,
				"z": -0.2967196258,
				"element": "H" 
			},
			{
				"x": -1.3634873732,
				"y": 3.5282263616,
				"z": 0.1256650022,
				"element": "H" 
			},
			{
				"x": 1.6425326141,
				"y": -1.666221297,
				"z": -0.9590520648,
				"element": "H" 
			},
			{
				"x": 1.2985296853,
				"y": -0.9198302991,
				"z": -3.3019249853,
				"element": "H" 
			},
			{
				"x": -1.4351887895,
				"y": 2.0776465674,
				"z": -1.9171328697,
				"element": "H" 
			}
		],
		 "valence_orbital": [ 
			{
				"type": "occ",
				"energy": -0.27867,
				"method": "rhf"
			},
			{
				"type": "occ",
				"energy": -0.27366,
				"method": "rhf"
			},
			{
				"type": "occ",
				"energy": -0.25264,
				"method": "rhf"
			},
			{
				"type": "occ",
				"energy": -0.21077,
				"method": "rhf"
			},
			{
				"type": "occ",
				"energy": -0.18294,
				"method": "rhf"
			},
			{
				"type": "unocc",
				"energy": 0.00159,
				"method": "rhf"
			},
			{
				"type": "unocc",
				"energy": 0.01489,
				"method": "rhf"
			},
			{
				"type": "unocc",
				"energy": 0.02023,
				"method": "rhf"
			},
			{
				"type": "unocc",
				"energy": 0.07957,
				"method": "rhf"
			},
			{
				"type": "unocc",
				"energy": 0.10151,
				"method": "rhf"
			}
		],
		"cosmo_sigma_profile": { 
			"-0.025": 0.0,
			"-0.024": 0.0,
			"-0.023": 0.0,
			"-0.022": 0.0,
			"-0.021": 0.0,
			"-0.02": 0.0,
			"-0.019": 0.0,
			"-0.018": 0.0,
			"-0.017": 0.0,
			"-0.016": 0.0,
			"-0.015": 0.0,
			"-0.014": 0.0,
			"-0.013": 0.0,
			"-0.012": 0.0,
			"-0.011": 0.0,
			"-0.01": 0.0,
			"-0.009": 0.0,
			"-0.008": 0.0,
			"-0.007": 0.317651950556,
			"-0.006": 6.4637249199,
			"-0.005": 15.8852209243,
			"-0.004": 22.3819163,
			"-0.003": 29.7297899937,
			"-0.002": 30.1648146367,
			"-0.001": 25.0037388765,
			"0.0": 11.957838015,
			"0.001": 11.5279059653,
			"0.002": 10.3293300254,
			"0.003": 13.8226953588,
			"0.004": 17.6201376265,
			"0.005": 23.9024495018,
			"0.006": 10.8699213751,
			"0.007": 2.3927881356,
			"0.008": 0.829468793303,
			"0.009": 0.928180505434,
			"0.01": 0.36208859767,
			"0.011": 0.651279459064,
			"0.012": 0.524055118213,
			"0.013": 0.268348315013,
			"0.014": 0.0,
			"0.015": 0.0,
			"0.016": 0.0,
			"0.017": 0.0,
			"0.018": 0.0,
			"0.019": 0.0,
			"0.02": 0.0,
			"0.021": 0.0,
			"0.022": 0.0,
			"0.023": 0.0,
			"0.024": 0.0,
			"0.025": 0.0
		}
	}
}
