{
	 "smiles": "CC(C)(O[Si](C)(C)C)C(N)=O", 
	 "Tm": 303.15, 
	 "num_atms": 28, 
	 "gaussian": { 
		 "optdone": 1, 
		 "sigma_profile": "yes", 
		 "theory": "DFT", 
		 "functional": "B3LYP", 
		 "basiset": "6-31G**", 
		 "properties": { 
			 "R2extent": 2514.2286, 
			 "electric_dipole_moment_norm": 3.42479299666, 
			 "electric_quadrupole_moment_norm": 12.2912587781, 
			 "total_energy": -771.792589027, 
			 "HOMO_LUMO_gap": 0.27294, 
			 "cosmo_polarized_energy": -10.83, 
			 "cosmo_cavitation_energy": 31.13, 
			 "cosmo_dispersion_energy": -19.06, 
			 "cosmo_repulsion_energy": 1.65, 
			 "cosmo_total_nonelectrostatic_energy": 13.73, 
			 "SMD_solvation_energy": 7.41 
		},
		"coords": [
			{
				"x": 0.3177641078,
				"y": -2.0359051965,
				"z": -0.6386585119,
				"element": "C" 
			},
			{
				"x": 0.9084406358,
				"y": -0.7296861418,
				"z": -0.0910509707,
				"element": "C" 
			},
			{
				"x": 1.232625652,
				"y": 0.2546016773,
				"z": -1.2256839354,
				"element": "C" 
			},
			{
				"x": 0.0463745007,
				"y": -0.10440238,
				"z": 0.8681168272,
				"element": "O" 
			},
			{
				"x": -1.6108882778,
				"y": 0.1732900843,
				"z": 0.9393411103,
				"element": "Si" 
			},
			{
				"x": -1.7911118165,
				"y": 1.4035230288,
				"z": 2.3527576736,
				"element": "C" 
			},
			{
				"x": -2.2834320193,
				"y": 0.923139307,
				"z": -0.6576298135,
				"element": "C" 
			},
			{
				"x": -2.5603687653,
				"y": -1.4060193537,
				"z": 1.3486431813,
				"element": "C" 
			},
			{
				"x": 2.2455730423,
				"y": -1.077739028,
				"z": 0.6146543117,
				"element": "C" 
			},
			{
				"x": 2.3392517852,
				"y": -0.6892417116,
				"z": 1.9094733921,
				"element": "N" 
			},
			{
				"x": 3.1384782133,
				"y": -1.6564546784,
				"z": 0.0063237397,
				"element": "O" 
			},
			{
				"x": 0.0414887503,
				"y": -2.7084667237,
				"z": 0.1785616787,
				"element": "H" 
			},
			{
				"x": -0.5699260208,
				"y": -1.8373537722,
				"z": -1.2478999877,
				"element": "H" 
			},
			{
				"x": 1.0645876348,
				"y": -2.536357574,
				"z": -1.2580164918,
				"element": "H" 
			},
			{
				"x": 1.5989009154,
				"y": 1.198525718,
				"z": -0.8112389297,
				"element": "H" 
			},
			{
				"x": 2.0071401218,
				"y": -0.1677957152,
				"z": -1.8696321552,
				"element": "H" 
			},
			{
				"x": 0.3416866877,
				"y": 0.4598884838,
				"z": -1.8255458543,
				"element": "H" 
			},
			{
				"x": -1.2464458262,
				"y": 2.3301090274,
				"z": 2.1437145019,
				"element": "H" 
			},
			{
				"x": -1.4035794809,
				"y": 0.9922740637,
				"z": 3.2911657356,
				"element": "H" 
			},
			{
				"x": -2.8429754714,
				"y": 1.663624053,
				"z": 2.5165312254,
				"element": "H" 
			},
			{
				"x": -3.3448545941,
				"y": 1.1699294036,
				"z": -0.535333073,
				"element": "H" 
			},
			{
				"x": -2.2060623794,
				"y": 0.2384813009,
				"z": -1.5087457039,
				"element": "H" 
			},
			{
				"x": -1.7574109515,
				"y": 1.8467427262,
				"z": -0.920375298,
				"element": "H" 
			},
			{
				"x": -3.6166821552,
				"y": -1.1760540617,
				"z": 1.532398881,
				"element": "H" 
			},
			{
				"x": -2.1647976205,
				"y": -1.8833004331,
				"z": 2.2517033265,
				"element": "H" 
			},
			{
				"x": -2.5191268003,
				"y": -2.1399687811,
				"z": 0.5381295934,
				"element": "H" 
			},
			{
				"x": 1.5716399916,
				"y": -0.1987324331,
				"z": 2.3390013669,
				"element": "H" 
			},
			{
				"x": 3.1976101405,
				"y": -0.8668508898,
				"z": 2.4063941796,
				"element": "H" 
			}
		],
		 "valence_orbital": [ 
			{
				"type": "occ",
				"energy": -0.31648,
				"method": "rhf"
			},
			{
				"type": "occ",
				"energy": -0.29203,
				"method": "rhf"
			},
			{
				"type": "occ",
				"energy": -0.27334,
				"method": "rhf"
			},
			{
				"type": "occ",
				"energy": -0.25575,
				"method": "rhf"
			},
			{
				"type": "occ",
				"energy": -0.23375,
				"method": "rhf"
			},
			{
				"type": "unocc",
				"energy": 0.03919,
				"method": "rhf"
			},
			{
				"type": "unocc",
				"energy": 0.05988,
				"method": "rhf"
			},
			{
				"type": "unocc",
				"energy": 0.07169,
				"method": "rhf"
			},
			{
				"type": "unocc",
				"energy": 0.08974,
				"method": "rhf"
			},
			{
				"type": "unocc",
				"energy": 0.10255,
				"method": "rhf"
			}
		],
		"cosmo_sigma_profile": { 
			"-0.025": 0.0,
			"-0.024": 0.0,
			"-0.023": 0.0,
			"-0.022": 0.0,
			"-0.021": 0.0,
			"-0.02": 0.0,
			"-0.019": 0.0,
			"-0.018": 0.0,
			"-0.017": 0.0,
			"-0.016": 0.0,
			"-0.015": 0.0,
			"-0.014": 0.542746985662,
			"-0.013": 1.23171448023,
			"-0.012": 1.00615722228,
			"-0.011": 1.69480942978,
			"-0.01": 2.02228784069,
			"-0.009": 1.97675146501,
			"-0.008": 1.61301848112,
			"-0.007": 1.26937153491,
			"-0.006": 1.96649703164,
			"-0.005": 2.40453143456,
			"-0.004": 14.1951490538,
			"-0.003": 28.5369676584,
			"-0.002": 30.1692509172,
			"-0.001": 31.6609655673,
			"0.0": 30.3119421401,
			"0.001": 29.4026582121,
			"0.002": 16.2319766163,
			"0.003": 10.2216554565,
			"0.004": 5.36025183036,
			"0.005": 3.42433613993,
			"0.006": 2.42863263659,
			"0.007": 1.78106571876,
			"0.008": 1.82707103973,
			"0.009": 1.2070433025,
			"0.01": 1.62425653364,
			"0.011": 1.52121619514,
			"0.012": 1.36923023053,
			"0.013": 2.28876390533,
			"0.014": 5.14763659395,
			"0.015": 2.43303740281,
			"0.016": 0.040118718303,
			"0.017": 0.0,
			"0.018": 0.0,
			"0.019": 0.0,
			"0.02": 0.0,
			"0.021": 0.0,
			"0.022": 0.0,
			"0.023": 0.0,
			"0.024": 0.0,
			"0.025": 0.0
		}
	}
}
