{
	 "smiles": "ClCC(=O)NC1=C(C#N)C2=C(CCCC2)N1C1=CC=CC=C1", 
	 "Tm": 430.15, 
	 "num_atms": 38, 
	 "gaussian": { 
		 "optdone": 1, 
		 "sigma_profile": "yes", 
		 "theory": "DFT", 
		 "functional": "B3LYP", 
		 "basiset": "6-31G**", 
		 "properties": { 
			 "R2extent": 7881.9546, 
			 "electric_dipole_moment_norm": 9.36580622317, 
			 "electric_quadrupole_moment_norm": 30.8497921897, 
			 "total_energy": -1357.12540011, 
			 "HOMO_LUMO_gap": 0.18435, 
			 "cosmo_polarized_energy": -20.79, 
			 "cosmo_cavitation_energy": 43.92, 
			 "cosmo_dispersion_energy": -28.87, 
			 "cosmo_repulsion_energy": 2.28, 
			 "cosmo_total_nonelectrostatic_energy": 17.32, 
			 "SMD_solvation_energy": 8.23 
		},
		"coords": [
			{
				"x": 1.3448326864,
				"y": 2.7837281945,
				"z": 4.3424204674,
				"element": "Cl" 
			},
			{
				"x": 0.5979409204,
				"y": 1.3897669529,
				"z": 3.4999228886,
				"element": "C" 
			},
			{
				"x": 1.6291816046,
				"y": 0.3139492543,
				"z": 3.1535199335,
				"element": "C" 
			},
			{
				"x": 2.70019113,
				"y": 0.1877134535,
				"z": 3.7082030561,
				"element": "O" 
			},
			{
				"x": 1.2465531418,
				"y": -0.5699244005,
				"z": 2.1485414225,
				"element": "N" 
			},
			{
				"x": 0.0702499453,
				"y": -0.5812656368,
				"z": 1.3955065552,
				"element": "C" 
			},
			{
				"x": -1.2502826982,
				"y": -0.8059781754,
				"z": 1.7805036589,
				"element": "C" 
			},
			{
				"x": -1.6816392437,
				"y": -1.0971311783,
				"z": 3.0989379431,
				"element": "C" 
			},
			{
				"x": -2.0428377444,
				"y": -1.3186221269,
				"z": 4.1844930153,
				"element": "N" 
			},
			{
				"x": -2.071703591,
				"y": -0.679202493,
				"z": 0.6119045979,
				"element": "C" 
			},
			{
				"x": -1.2329624706,
				"y": -0.4039645274,
				"z": -0.4423039385,
				"element": "C" 
			},
			{
				"x": -1.647849868,
				"y": -0.2316288937,
				"z": -1.8719434388,
				"element": "C" 
			},
			{
				"x": -3.0894936697,
				"y": -0.7539434553,
				"z": -2.0455665984,
				"element": "C" 
			},
			{
				"x": -4.0124251814,
				"y": -0.2843918068,
				"z": -0.9075420011,
				"element": "C" 
			},
			{
				"x": -3.5589195913,
				"y": -0.8316468347,
				"z": 0.4601833939,
				"element": "C" 
			},
			{
				"x": 0.0720041022,
				"y": -0.3333711775,
				"z": 0.0329736024,
				"element": "N" 
			},
			{
				"x": 1.2371562962,
				"y": -0.0613330391,
				"z": -0.7555629611,
				"element": "C" 
			},
			{
				"x": 1.4584804589,
				"y": 1.2299270786,
				"z": -1.2417580264,
				"element": "C" 
			},
			{
				"x": 2.5932451862,
				"y": 1.4916599494,
				"z": -2.0098413156,
				"element": "C" 
			},
			{
				"x": 3.5071138986,
				"y": 0.4717253003,
				"z": -2.2828179561,
				"element": "C" 
			},
			{
				"x": 3.2826179478,
				"y": -0.8163872468,
				"z": -1.7931619733,
				"element": "C" 
			},
			{
				"x": 2.1442517314,
				"y": -1.0880617986,
				"z": -1.0335307899,
				"element": "C" 
			},
			{
				"x": -0.1565485379,
				"y": 0.9637227756,
				"z": 4.1655366677,
				"element": "H" 
			},
			{
				"x": 0.0972127405,
				"y": 1.7649772606,
				"z": 2.6069959042,
				"element": "H" 
			},
			{
				"x": 1.9580717408,
				"y": -1.2681590568,
				"z": 1.9642951965,
				"element": "H" 
			},
			{
				"x": -0.9634879314,
				"y": -0.7627016462,
				"z": -2.5445466438,
				"element": "H" 
			},
			{
				"x": -1.5983597963,
				"y": 0.82737112,
				"z": -2.1636241255,
				"element": "H" 
			},
			{
				"x": -3.0735492297,
				"y": -1.8513088616,
				"z": -2.0661651033,
				"element": "H" 
			},
			{
				"x": -3.4815282467,
				"y": -0.4250163302,
				"z": -3.0137589384,
				"element": "H" 
			},
			{
				"x": -4.0146367079,
				"y": 0.8132570051,
				"z": -0.8763205712,
				"element": "H" 
			},
			{
				"x": -5.0432598432,
				"y": -0.5956174461,
				"z": -1.10726839,
				"element": "H" 
			},
			{
				"x": -3.8370864348,
				"y": -1.8915018669,
				"z": 0.5480483081,
				"element": "H" 
			},
			{
				"x": -4.0846500487,
				"y": -0.3157098956,
				"z": 1.2723090587,
				"element": "H" 
			},
			{
				"x": 0.7507784891,
				"y": 2.0187465475,
				"z": -1.0074635043,
				"element": "H" 
			},
			{
				"x": 2.7674654038,
				"y": 2.4951451349,
				"z": -2.3856698367,
				"element": "H" 
			},
			{
				"x": 4.3927718556,
				"y": 0.6805578786,
				"z": -2.8749843227,
				"element": "H" 
			},
			{
				"x": 3.9894064712,
				"y": -1.6124310205,
				"z": -2.0061978309,
				"element": "H" 
			},
			{
				"x": 1.9476950845,
				"y": -2.0913489913,
				"z": -0.6670674042,
				"element": "H" 
			}
		],
		 "valence_orbital": [ 
			{
				"type": "occ",
				"energy": -0.28388,
				"method": "rhf"
			},
			{
				"type": "occ",
				"energy": -0.28175,
				"method": "rhf"
			},
			{
				"type": "occ",
				"energy": -0.27061,
				"method": "rhf"
			},
			{
				"type": "occ",
				"energy": -0.2541,
				"method": "rhf"
			},
			{
				"type": "occ",
				"energy": -0.22517,
				"method": "rhf"
			},
			{
				"type": "unocc",
				"energy": -0.04082,
				"method": "rhf"
			},
			{
				"type": "unocc",
				"energy": -0.0343,
				"method": "rhf"
			},
			{
				"type": "unocc",
				"energy": -0.02356,
				"method": "rhf"
			},
			{
				"type": "unocc",
				"energy": 0.00403,
				"method": "rhf"
			},
			{
				"type": "unocc",
				"energy": 0.02564,
				"method": "rhf"
			}
		],
		"cosmo_sigma_profile": { 
			"-0.025": 0.0,
			"-0.024": 0.0,
			"-0.023": 0.0,
			"-0.022": 0.0,
			"-0.021": 0.0,
			"-0.02": 0.0,
			"-0.019": 0.0,
			"-0.018": 0.0,
			"-0.017": 0.0,
			"-0.016": 0.0,
			"-0.015": 0.181168770001,
			"-0.014": 0.8428438043,
			"-0.013": 0.931517202918,
			"-0.012": 1.44806438459,
			"-0.011": 1.39219409731,
			"-0.01": 1.55727619679,
			"-0.009": 1.71585528786,
			"-0.008": 3.30210239165,
			"-0.007": 10.361469369,
			"-0.006": 15.8695746498,
			"-0.005": 18.5572243915,
			"-0.004": 24.892392811,
			"-0.003": 31.6239083379,
			"-0.002": 38.3958947338,
			"-0.001": 39.7647159967,
			"0.0": 30.2160275821,
			"0.001": 20.707709398,
			"0.002": 15.8983994333,
			"0.003": 17.4361318023,
			"0.004": 18.1360540888,
			"0.005": 10.8926719722,
			"0.006": 8.60624969719,
			"0.007": 4.22125804907,
			"0.008": 4.67644287153,
			"0.009": 5.01005339914,
			"0.01": 4.9967985867,
			"0.011": 6.14671491285,
			"0.012": 8.38193671605,
			"0.013": 4.74089953276,
			"0.014": 0.71215235973,
			"0.015": 0.0,
			"0.016": 0.0,
			"0.017": 0.0,
			"0.018": 0.0,
			"0.019": 0.0,
			"0.02": 0.0,
			"0.021": 0.0,
			"0.022": 0.0,
			"0.023": 0.0,
			"0.024": 0.0,
			"0.025": 0.0
		}
	}
}
