{
	 "smiles": "CCCCOC1=CC=C(C=C1)C(=O)NC(C(C)O)C(O)=O", 
	 "Tm": 404.15, 
	 "num_atms": 42, 
	 "gaussian": { 
		 "optdone": 1, 
		 "sigma_profile": "yes", 
		 "theory": "DFT", 
		 "functional": "B3LYP", 
		 "basiset": "6-31G**", 
		 "properties": { 
			 "R2extent": 9548.2825, 
			 "electric_dipole_moment_norm": 2.3766663123, 
			 "electric_quadrupole_moment_norm": 27.5419841277, 
			 "total_energy": -1015.14550069, 
			 "HOMO_LUMO_gap": 0.19761, 
			 "cosmo_polarized_energy": -22.34, 
			 "cosmo_cavitation_energy": 44.77, 
			 "cosmo_dispersion_energy": -30.77, 
			 "cosmo_repulsion_energy": 2.42, 
			 "cosmo_total_nonelectrostatic_energy": 16.41, 
			 "SMD_solvation_energy": 9.39 
		},
		"coords": [
			{
				"x": 0.0620504644,
				"y": 6.2423113491,
				"z": 0.5200275133,
				"element": "C" 
			},
			{
				"x": 0.7914022456,
				"y": 4.9175362531,
				"z": 0.7718832063,
				"element": "C" 
			},
			{
				"x": 0.3279706953,
				"y": 4.1644438924,
				"z": 2.0299634731,
				"element": "C" 
			},
			{
				"x": -1.1191918738,
				"y": 3.6690214213,
				"z": 1.9746649846,
				"element": "C" 
			},
			{
				"x": -1.3728701877,
				"y": 2.810954647,
				"z": 0.8558860621,
				"element": "O" 
			},
			{
				"x": -1.0391656391,
				"y": 1.491229636,
				"z": 0.9110278666,
				"element": "C" 
			},
			{
				"x": -1.3233080686,
				"y": 0.7512253371,
				"z": -0.2477041195,
				"element": "C" 
			},
			{
				"x": -1.0344220358,
				"y": -0.6059544399,
				"z": -0.3089999567,
				"element": "C" 
			},
			{
				"x": -0.4546648476,
				"y": -1.2610335761,
				"z": 0.7926335557,
				"element": "C" 
			},
			{
				"x": -0.2024360566,
				"y": -0.5205678277,
				"z": 1.9543164879,
				"element": "C" 
			},
			{
				"x": -0.4726686574,
				"y": 0.8437518476,
				"z": 2.0200281415,
				"element": "C" 
			},
			{
				"x": -0.1771030466,
				"y": -2.7292527502,
				"z": 0.8471260553,
				"element": "C" 
			},
			{
				"x": -0.2856767653,
				"y": -3.3583429555,
				"z": 1.8951114651,
				"element": "O" 
			},
			{
				"x": 0.1707505765,
				"y": -3.4059299127,
				"z": -0.3175034049,
				"element": "N" 
			},
			{
				"x": 0.9350059582,
				"y": -2.8866063695,
				"z": -1.4361039589,
				"element": "C" 
			},
			{
				"x": 0.3503660363,
				"y": -3.2780790248,
				"z": -2.8189032507,
				"element": "C" 
			},
			{
				"x": 0.1243504512,
				"y": -4.7817426964,
				"z": -2.9730128037,
				"element": "C" 
			},
			{
				"x": -0.8681303154,
				"y": -2.5531967829,
				"z": -2.9505528848,
				"element": "O" 
			},
			{
				"x": 2.4184341294,
				"y": -3.276812103,
				"z": -1.4116878829,
				"element": "C" 
			},
			{
				"x": 2.7394751169,
				"y": -4.0988475237,
				"z": -0.3900343737,
				"element": "O" 
			},
			{
				"x": 3.2240122626,
				"y": -2.9012009769,
				"z": -2.2348175364,
				"element": "O" 
			},
			{
				"x": -1.0054189439,
				"y": 6.0924394024,
				"z": 0.3274875697,
				"element": "H" 
			},
			{
				"x": 0.4780690662,
				"y": 6.7567859066,
				"z": -0.3521169375,
				"element": "H" 
			},
			{
				"x": 0.1548673607,
				"y": 6.9179246486,
				"z": 1.3786935556,
				"element": "H" 
			},
			{
				"x": 1.8667770127,
				"y": 5.1116925138,
				"z": 0.8663396025,
				"element": "H" 
			},
			{
				"x": 0.6725900174,
				"y": 4.2612129246,
				"z": -0.0978674797,
				"element": "H" 
			},
			{
				"x": 0.9945431306,
				"y": 3.3122930238,
				"z": 2.2055415934,
				"element": "H" 
			},
			{
				"x": 0.4182451688,
				"y": 4.8165526942,
				"z": 2.9101987455,
				"element": "H" 
			},
			{
				"x": -1.8083761794,
				"y": 4.5058071144,
				"z": 1.8322481391,
				"element": "H" 
			},
			{
				"x": -1.4027014548,
				"y": 3.1699796768,
				"z": 2.9092797406,
				"element": "H" 
			},
			{
				"x": -1.784162061,
				"y": 1.2641005889,
				"z": -1.0856247016,
				"element": "H" 
			},
			{
				"x": -1.2836219431,
				"y": -1.163331464,
				"z": -1.2059802945,
				"element": "H" 
			},
			{
				"x": 0.2097349754,
				"y": -1.0354650176,
				"z": 2.815842326,
				"element": "H" 
			},
			{
				"x": -0.245922394,
				"y": 1.3848003831,
				"z": 2.9306282022,
				"element": "H" 
			},
			{
				"x": 0.3568955711,
				"y": -4.3755608296,
				"z": -0.0886264365,
				"element": "H" 
			},
			{
				"x": 0.9220413719,
				"y": -1.7949499299,
				"z": -1.3943582244,
				"element": "H" 
			},
			{
				"x": 1.0798376446,
				"y": -2.9362517822,
				"z": -3.565929008,
				"element": "H" 
			},
			{
				"x": -0.2616126886,
				"y": -5.0077881966,
				"z": -3.9734747366,
				"element": "H" 
			},
			{
				"x": -0.6050519731,
				"y": -5.135205468,
				"z": -2.2387335037,
				"element": "H" 
			},
			{
				"x": 1.0563705161,
				"y": -5.3445058749,
				"z": -2.8523057558,
				"element": "H" 
			},
			{
				"x": -1.3076185384,
				"y": -2.8433812028,
				"z": -3.7594501015,
				"element": "H" 
			},
			{
				"x": 3.6920338984,
				"y": -4.2762565561,
				"z": -0.4716409344,
				"element": "H" 
			}
		],
		 "valence_orbital": [ 
			{
				"type": "occ",
				"energy": -0.28077,
				"method": "rhf"
			},
			{
				"type": "occ",
				"energy": -0.25234,
				"method": "rhf"
			},
			{
				"type": "occ",
				"energy": -0.25029,
				"method": "rhf"
			},
			{
				"type": "occ",
				"energy": -0.23763,
				"method": "rhf"
			},
			{
				"type": "occ",
				"energy": -0.21643,
				"method": "rhf"
			},
			{
				"type": "unocc",
				"energy": -0.01882,
				"method": "rhf"
			},
			{
				"type": "unocc",
				"energy": -0.00884,
				"method": "rhf"
			},
			{
				"type": "unocc",
				"energy": 0.0031,
				"method": "rhf"
			},
			{
				"type": "unocc",
				"energy": 0.05346,
				"method": "rhf"
			},
			{
				"type": "unocc",
				"energy": 0.06493,
				"method": "rhf"
			}
		],
		"cosmo_sigma_profile": { 
			"-0.025": 0.0,
			"-0.024": 0.0,
			"-0.023": 0.0,
			"-0.022": 0.0,
			"-0.021": 0.0,
			"-0.02": 0.0,
			"-0.019": 0.480574476683,
			"-0.018": 1.07928898791,
			"-0.017": 0.493397389758,
			"-0.016": 1.91875245895,
			"-0.015": 1.67208065367,
			"-0.014": 1.64614521183,
			"-0.013": 1.68276600582,
			"-0.012": 2.04105687238,
			"-0.011": 1.90406407057,
			"-0.01": 2.51928850588,
			"-0.009": 1.99215858768,
			"-0.008": 3.6954093561,
			"-0.007": 6.85797518202,
			"-0.006": 10.506437195,
			"-0.005": 17.521593828,
			"-0.004": 24.5506328793,
			"-0.003": 29.0282788566,
			"-0.002": 32.4814909771,
			"-0.001": 32.342914221,
			"0.0": 32.3470099763,
			"0.001": 29.0841445048,
			"0.002": 17.6788407435,
			"0.003": 17.4084368528,
			"0.004": 17.7760844939,
			"0.005": 10.6159115152,
			"0.006": 7.84487966892,
			"0.007": 7.29826065228,
			"0.008": 5.3171351003,
			"0.009": 4.97737679845,
			"0.01": 6.40766749874,
			"0.011": 6.92650900788,
			"0.012": 4.65821495885,
			"0.013": 4.90479610006,
			"0.014": 3.36951623671,
			"0.015": 0.0936736450331,
			"0.016": 0.0,
			"0.017": 0.0,
			"0.018": 0.0,
			"0.019": 0.0,
			"0.02": 0.0,
			"0.021": 0.0,
			"0.022": 0.0,
			"0.023": 0.0,
			"0.024": 0.0,
			"0.025": 0.0
		}
	}
}
