{
	 "smiles": "COC1=C(C=C(C=C1)C(O)=O)S(=O)(=O)N(C)CC1=CC=CC=C1", 
	 "Tm": 454.15, 
	 "num_atms": 40, 
	 "gaussian": { 
		 "optdone": 1, 
		 "sigma_profile": "yes", 
		 "theory": "DFT", 
		 "functional": "B3LYP", 
		 "basiset": "6-31G**", 
		 "properties": { 
			 "R2extent": 9655.0085, 
			 "electric_dipole_moment_norm": 8.64343746781, 
			 "electric_quadrupole_moment_norm": 30.6683527994, 
			 "total_energy": -1448.92553721, 
			 "HOMO_LUMO_gap": 0.18226, 
			 "cosmo_polarized_energy": -28.28, 
			 "cosmo_cavitation_energy": 45.13, 
			 "cosmo_dispersion_energy": -30.99, 
			 "cosmo_repulsion_energy": 2.3, 
			 "cosmo_total_nonelectrostatic_energy": 16.44, 
			 "SMD_solvation_energy": 8.91 
		},
		"coords": [
			{
				"x": -0.6930178634,
				"y": 3.9494988264,
				"z": -0.439745388,
				"element": "C" 
			},
			{
				"x": -0.2776941916,
				"y": 2.622966785,
				"z": -0.7518103758,
				"element": "O" 
			},
			{
				"x": 0.727602188,
				"y": 2.0647038442,
				"z": -0.0439498173,
				"element": "C" 
			},
			{
				"x": 1.1612533446,
				"y": 0.7812328865,
				"z": -0.450111381,
				"element": "C" 
			},
			{
				"x": 2.1708072259,
				"y": 0.1313735251,
				"z": 0.2458994018,
				"element": "C" 
			},
			{
				"x": 2.7937456889,
				"y": 0.7413543073,
				"z": 1.3451505561,
				"element": "C" 
			},
			{
				"x": 2.3596012799,
				"y": 2.0095755224,
				"z": 1.7439397611,
				"element": "C" 
			},
			{
				"x": 1.3375604781,
				"y": 2.6688541498,
				"z": 1.0632854562,
				"element": "C" 
			},
			{
				"x": 3.8592420926,
				"y": -0.028254026,
				"z": 2.060576183,
				"element": "C" 
			},
			{
				"x": 4.7316271389,
				"y": 0.6950216998,
				"z": 2.8167537996,
				"element": "O" 
			},
			{
				"x": 3.964321745,
				"y": -1.2298061224,
				"z": 1.9996129686,
				"element": "O" 
			},
			{
				"x": 0.4724355815,
				"y": -0.036806016,
				"z": -1.9137707348,
				"element": "S" 
			},
			{
				"x": 1.1368959452,
				"y": -1.3438096151,
				"z": -1.9572189358,
				"element": "O" 
			},
			{
				"x": 0.5527448706,
				"y": 0.8931928012,
				"z": -3.0398091757,
				"element": "O" 
			},
			{
				"x": -1.138753242,
				"y": -0.3272866428,
				"z": -1.6205000487,
				"element": "N" 
			},
			{
				"x": -2.179629805,
				"y": 0.5811578786,
				"z": -2.0920682484,
				"element": "C" 
			},
			{
				"x": -1.5180292347,
				"y": -1.3563390836,
				"z": -0.6428764465,
				"element": "C" 
			},
			{
				"x": -2.3929709555,
				"y": -2.4400738766,
				"z": -1.2474234339,
				"element": "C" 
			},
			{
				"x": -3.6636160506,
				"y": -2.706404792,
				"z": -0.728963215,
				"element": "C" 
			},
			{
				"x": -4.4551614153,
				"y": -3.7222492495,
				"z": -1.2718626649,
				"element": "C" 
			},
			{
				"x": -3.9797727926,
				"y": -4.4770688217,
				"z": -2.3437026007,
				"element": "C" 
			},
			{
				"x": -2.7107502419,
				"y": -4.2140596107,
				"z": -2.869095031,
				"element": "C" 
			},
			{
				"x": -1.9210512232,
				"y": -3.2028971915,
				"z": -2.3250367365,
				"element": "C" 
			},
			{
				"x": 0.1375208119,
				"y": 4.6574735965,
				"z": -0.5376298653,
				"element": "H" 
			},
			{
				"x": -1.1122699796,
				"y": 4.0105898564,
				"z": 0.5715516644,
				"element": "H" 
			},
			{
				"x": -1.4656921355,
				"y": 4.1950174958,
				"z": -1.1681067826,
				"element": "H" 
			},
			{
				"x": 2.4891674598,
				"y": -0.855378063,
				"z": -0.0696839472,
				"element": "H" 
			},
			{
				"x": 2.784406875,
				"y": 2.4911043811,
				"z": 2.6212974345,
				"element": "H" 
			},
			{
				"x": 1.0129370865,
				"y": 3.6438064036,
				"z": 1.4047007083,
				"element": "H" 
			},
			{
				"x": 4.6509610317,
				"y": 1.6366787041,
				"z": 2.6124871636,
				"element": "H" 
			},
			{
				"x": -1.7621582976,
				"y": 1.2446826578,
				"z": -2.8469767116,
				"element": "H" 
			},
			{
				"x": -2.9821035411,
				"y": -0.0107593195,
				"z": -2.5433976501,
				"element": "H" 
			},
			{
				"x": -2.5938417545,
				"y": 1.1788694527,
				"z": -1.2697173888,
				"element": "H" 
			},
			{
				"x": -0.6004531035,
				"y": -1.8031473426,
				"z": -0.2521235714,
				"element": "H" 
			},
			{
				"x": -2.0397919558,
				"y": -0.8813128092,
				"z": 0.1999663537,
				"element": "H" 
			},
			{
				"x": -4.0369233908,
				"y": -2.1182176628,
				"z": 0.1065297555,
				"element": "H" 
			},
			{
				"x": -5.4408568245,
				"y": -3.9188312296,
				"z": -0.8595491437,
				"element": "H" 
			},
			{
				"x": -4.592933441,
				"y": -5.2663651431,
				"z": -2.769286812,
				"element": "H" 
			},
			{
				"x": -2.3353171143,
				"y": -4.8013620103,
				"z": -3.7023421258,
				"element": "H" 
			},
			{
				"x": -0.9337422901,
				"y": -2.9953261465,
				"z": -2.7279929737,
				"element": "H" 
			}
		],
		 "valence_orbital": [ 
			{
				"type": "occ",
				"energy": -0.27706,
				"method": "rhf"
			},
			{
				"type": "occ",
				"energy": -0.26035,
				"method": "rhf"
			},
			{
				"type": "occ",
				"energy": -0.25076,
				"method": "rhf"
			},
			{
				"type": "occ",
				"energy": -0.24918,
				"method": "rhf"
			},
			{
				"type": "occ",
				"energy": -0.24071,
				"method": "rhf"
			},
			{
				"type": "unocc",
				"energy": -0.05845,
				"method": "rhf"
			},
			{
				"type": "unocc",
				"energy": -0.04219,
				"method": "rhf"
			},
			{
				"type": "unocc",
				"energy": -0.00622,
				"method": "rhf"
			},
			{
				"type": "unocc",
				"energy": 0.00011,
				"method": "rhf"
			},
			{
				"type": "unocc",
				"energy": 0.03276,
				"method": "rhf"
			}
		],
		"cosmo_sigma_profile": { 
			"-0.025": 0.0,
			"-0.024": 0.0,
			"-0.023": 0.0,
			"-0.022": 0.0,
			"-0.021": 0.0,
			"-0.02": 0.0,
			"-0.019": 0.3790270158,
			"-0.018": 0.954682114314,
			"-0.017": 1.01433448011,
			"-0.016": 1.18741488335,
			"-0.015": 0.906071463624,
			"-0.014": 0.843492144865,
			"-0.013": 1.14792957092,
			"-0.012": 1.95555814203,
			"-0.011": 0.819179865991,
			"-0.01": 0.936137463491,
			"-0.009": 1.66127578805,
			"-0.008": 5.78524564171,
			"-0.007": 9.75609706735,
			"-0.006": 19.0337058996,
			"-0.005": 26.3561366283,
			"-0.004": 31.2244580364,
			"-0.003": 32.1000324168,
			"-0.002": 27.4573886725,
			"-0.001": 22.9114697924,
			"0.0": 24.2829862325,
			"0.001": 24.311604855,
			"0.002": 18.1818368417,
			"0.003": 15.0137009727,
			"0.004": 14.8144240219,
			"0.005": 12.7816478228,
			"0.006": 10.5236205912,
			"0.007": 5.94968597209,
			"0.008": 7.54528836017,
			"0.009": 6.96869690396,
			"0.01": 11.2573865758,
			"0.011": 13.308036606,
			"0.012": 6.82272295897,
			"0.013": 1.45212787677,
			"0.014": 0.00584333674537,
			"0.015": 0.0,
			"0.016": 0.0,
			"0.017": 0.0,
			"0.018": 0.0,
			"0.019": 0.0,
			"0.02": 0.0,
			"0.021": 0.0,
			"0.022": 0.0,
			"0.023": 0.0,
			"0.024": 0.0,
			"0.0": 0.0
		}
	}
}
