{
	 "smiles": "ClCC1=CC(Br)=C2OCOC2=C1", 
	 "Tm": 374.15, 
	 "num_atms": 18, 
	 "gaussian": { 
		 "optdone": 1, 
		 "sigma_profile": "yes", 
		 "theory": "DFT", 
		 "functional": "B3LYP", 
		 "basiset": "6-31G**", 
		 "properties": { 
			 "R2extent": 4125.4118, 
			 "electric_dipole_moment_norm": 2.49654074471, 
			 "electric_quadrupole_moment_norm": 16.4044012841, 
			 "total_energy": -3490.48533745, 
			 "HOMO_LUMO_gap": 0.19162, 
			 "cosmo_polarized_energy": -8.96, 
			 "cosmo_cavitation_energy": 26.47, 
			 "cosmo_dispersion_energy": -20.23, 
			 "cosmo_repulsion_energy": 1.64, 
			 "cosmo_total_nonelectrostatic_energy": 7.87, 
			 "SMD_solvation_energy": 3.7 
		},
		"coords": [
			{
				"x": 0.9542090249,
				"y": -2.1423404994,
				"z": 4.1858816104,
				"element": "Cl" 
			},
			{
				"x": 1.421783301,
				"y": -2.1641497912,
				"z": 2.4065129347,
				"element": "C" 
			},
			{
				"x": 0.7060332524,
				"y": -1.1172280835,
				"z": 1.608844784,
				"element": "C" 
			},
			{
				"x": -0.4164688494,
				"y": -1.4688222052,
				"z": 0.8548935358,
				"element": "C" 
			},
			{
				"x": -1.1094856463,
				"y": -0.5128277827,
				"z": 0.0943855392,
				"element": "C" 
			},
			{
				"x": -2.6252651307,
				"y": -0.9911285922,
				"z": -0.9426629849,
				"element": "Br" 
			},
			{
				"x": -0.6512772959,
				"y": 0.7891968469,
				"z": 0.1198801501,
				"element": "C" 
			},
			{
				"x": -1.1296274552,
				"y": 1.8840080706,
				"z": -0.5400472343,
				"element": "O" 
			},
			{
				"x": -0.351289151,
				"y": 2.9941230532,
				"z": -0.0680124788,
				"element": "C" 
			},
			{
				"x": 0.7317473607,
				"y": 2.4722955521,
				"z": 0.710897479,
				"element": "O" 
			},
			{
				"x": 0.4697709731,
				"y": 1.1360588821,
				"z": 0.876879493,
				"element": "C" 
			},
			{
				"x": 1.170969238,
				"y": 0.2170800432,
				"z": 1.625800541,
				"element": "C" 
			},
			{
				"x": 2.5023019471,
				"y": -2.0188836188,
				"z": 2.3979181518,
				"element": "H" 
			},
			{
				"x": 1.1897279645,
				"y": -3.1697584603,
				"z": 2.0574430658,
				"element": "H" 
			},
			{
				"x": -0.770193738,
				"y": -2.4938012907,
				"z": 0.8537389166,
				"element": "H" 
			},
			{
				"x": -0.9806604036,
				"y": 3.6386425717,
				"z": 0.5600920852,
				"element": "H" 
			},
			{
				"x": 0.046490817,
				"y": 3.5469330525,
				"z": -0.9241473032,
				"element": "H" 
			},
			{
				"x": 2.0371337915,
				"y": 0.5087022516,
				"z": 2.2090017147,
				"element": "H" 
			}
		],
		 "valence_orbital": [ 
			{
				"type": "occ",
				"energy": -0.29652,
				"method": "rhf"
			},
			{
				"type": "occ",
				"energy": -0.29482,
				"method": "rhf"
			},
			{
				"type": "occ",
				"energy": -0.29217,
				"method": "rhf"
			},
			{
				"type": "occ",
				"energy": -0.2476,
				"method": "rhf"
			},
			{
				"type": "occ",
				"energy": -0.22401,
				"method": "rhf"
			},
			{
				"type": "unocc",
				"energy": -0.03239,
				"method": "rhf"
			},
			{
				"type": "unocc",
				"energy": -0.01604,
				"method": "rhf"
			},
			{
				"type": "unocc",
				"energy": 0.00018,
				"method": "rhf"
			},
			{
				"type": "unocc",
				"energy": 0.0407,
				"method": "rhf"
			},
			{
				"type": "unocc",
				"energy": 0.08685,
				"method": "rhf"
			}
		],
		"cosmo_sigma_profile": { 
			"-0.025": 0.0,
			"-0.024": 0.0,
			"-0.023": 0.0,
			"-0.022": 0.0,
			"-0.021": 0.0,
			"-0.02": 0.0,
			"-0.019": 0.0,
			"-0.018": 0.0,
			"-0.017": 0.0,
			"-0.016": 0.0,
			"-0.015": 0.0,
			"-0.014": 0.0,
			"-0.013": 0.0,
			"-0.012": 0.0,
			"-0.011": 0.0,
			"-0.01": 0.0,
			"-0.009": 1.03320340346,
			"-0.008": 12.3467373555,
			"-0.007": 15.7028621213,
			"-0.006": 12.0188117651,
			"-0.005": 10.3729190576,
			"-0.004": 9.50825176487,
			"-0.003": 9.51130927201,
			"-0.002": 8.81472481497,
			"-0.001": 10.5151838963,
			"0.0": 13.8567107891,
			"0.001": 19.2206306588,
			"0.002": 18.9459637805,
			"0.003": 17.9134327112,
			"0.004": 19.0128410943,
			"0.005": 10.4222026223,
			"0.006": 12.9404906191,
			"0.007": 9.80049077706,
			"0.008": 3.77921333429,
			"0.009": 2.00645976379,
			"0.01": 0.0082485415812,
			"0.011": 0.0,
			"0.012": 0.0,
			"0.013": 0.0,
			"0.014": 0.0,
			"0.015": 0.0,
			"0.016": 0.0,
			"0.017": 0.0,
			"0.018": 0.0,
			"0.019": 0.0,
			"0.02": 0.0,
			"0.021": 0.0,
			"0.022": 0.0,
			"0.023": 0.0,
			"0.024": 0.0,
			"0.025": 0.0
		}
	}
}
