{
	 "smiles": "CC1COC2=C(C=CC=C2)C1O", 
	 "Tm": 369.15, 
	 "num_atms": 24, 
	 "gaussian": { 
		 "optdone": 1, 
		 "sigma_profile": "yes", 
		 "theory": "DFT", 
		 "functional": "B3LYP", 
		 "basiset": "6-31G**", 
		 "properties": { 
			 "R2extent": 2441.1658, 
			 "electric_dipole_moment_norm": 2.6954247105, 
			 "electric_quadrupole_moment_norm": 9.75849495107, 
			 "total_energy": -538.736781385, 
			 "HOMO_LUMO_gap": 0.21126, 
			 "cosmo_polarized_energy": -10.01, 
			 "cosmo_cavitation_energy": 25.8, 
			 "cosmo_dispersion_energy": -19.38, 
			 "cosmo_repulsion_energy": 1.53, 
			 "cosmo_total_nonelectrostatic_energy": 7.95, 
			 "SMD_solvation_energy": 4.32 
		},
		"coords": [
			{
				"x": -2.8877749575,
				"y": 1.1567806423,
				"z": 0.7725147346,
				"element": "C" 
			},
			{
				"x": -1.3605759734,
				"y": 1.1066888886,
				"z": 0.8646480784,
				"element": "C" 
			},
			{
				"x": -0.7140171399,
				"y": 1.2981981814,
				"z": -0.5058865608,
				"element": "C" 
			},
			{
				"x": 0.7101861904,
				"y": 1.3828953365,
				"z": -0.4391522607,
				"element": "O" 
			},
			{
				"x": 1.3441422306,
				"y": 0.5063238808,
				"z": 0.4016226995,
				"element": "C" 
			},
			{
				"x": 0.6648126567,
				"y": -0.285779142,
				"z": 1.3422755382,
				"element": "C" 
			},
			{
				"x": 1.4150902526,
				"y": -1.1286840723,
				"z": 2.1706960239,
				"element": "C" 
			},
			{
				"x": 2.8030505448,
				"y": -1.1928794809,
				"z": 2.0713882031,
				"element": "C" 
			},
			{
				"x": 3.4632669715,
				"y": -0.3975455676,
				"z": 1.1297157589,
				"element": "C" 
			},
			{
				"x": 2.7391070887,
				"y": 0.4501542141,
				"z": 0.2976143751,
				"element": "C" 
			},
			{
				"x": -0.8453340017,
				"y": -0.2183457207,
				"z": 1.4537540656,
				"element": "C" 
			},
			{
				"x": -1.2053672108,
				"y": -0.3808571084,
				"z": 2.8248154011,
				"element": "O" 
			},
			{
				"x": -3.2330668113,
				"y": 2.1191546704,
				"z": 0.3810832338,
				"element": "H" 
			},
			{
				"x": -3.275349819,
				"y": 0.3693150998,
				"z": 0.1140097221,
				"element": "H" 
			},
			{
				"x": -3.3425631638,
				"y": 1.0274732487,
				"z": 1.7599546129,
				"element": "H" 
			},
			{
				"x": -1.0104557917,
				"y": 1.9112642867,
				"z": 1.5242001544,
				"element": "H" 
			},
			{
				"x": -1.0403544297,
				"y": 2.2326362821,
				"z": -0.9708158051,
				"element": "H" 
			},
			{
				"x": -0.9969602944,
				"y": 0.4712120499,
				"z": -1.1771922221,
				"element": "H" 
			},
			{
				"x": 0.8867777493,
				"y": -1.7200858806,
				"z": 2.9110601231,
				"element": "H" 
			},
			{
				"x": 3.3661105169,
				"y": -1.8518047346,
				"z": 2.7252359123,
				"element": "H" 
			},
			{
				"x": 4.545450204,
				"y": -0.4367648775,
				"z": 1.0423860566,
				"element": "H" 
			},
			{
				"x": 3.2273112678,
				"y": 1.0804265688,
				"z": -0.4385889828,
				"element": "H" 
			},
			{
				"x": -1.2840472538,
				"y": -1.0436490855,
				"z": 0.8633136228,
				"element": "H" 
			},
			{
				"x": -2.1371388263,
				"y": -0.6297276803,
				"z": 2.857147515,
				"element": "H" 
			}
		],
		 "valence_orbital": [ 
			{
				"type": "occ",
				"energy": -0.31663,
				"method": "rhf"
			},
			{
				"type": "occ",
				"energy": -0.30466,
				"method": "rhf"
			},
			{
				"type": "occ",
				"energy": -0.27476,
				"method": "rhf"
			},
			{
				"type": "occ",
				"energy": -0.23706,
				"method": "rhf"
			},
			{
				"type": "occ",
				"energy": -0.20926,
				"method": "rhf"
			},
			{
				"type": "unocc",
				"energy": 0.002,
				"method": "rhf"
			},
			{
				"type": "unocc",
				"energy": 0.01769,
				"method": "rhf"
			},
			{
				"type": "unocc",
				"energy": 0.06533,
				"method": "rhf"
			},
			{
				"type": "unocc",
				"energy": 0.09497,
				"method": "rhf"
			},
			{
				"type": "unocc",
				"energy": 0.10902,
				"method": "rhf"
			}
		],
		"cosmo_sigma_profile": { 
			"-0.025": 0.0,
			"-0.024": 0.0,
			"-0.023": 0.0,
			"-0.022": 0.0,
			"-0.021": 0.0,
			"-0.02": 0.0,
			"-0.019": 0.0,
			"-0.018": 0.0,
			"-0.017": 0.0,
			"-0.016": 0.0781118781386,
			"-0.015": 0.707970382682,
			"-0.014": 0.904221797578,
			"-0.013": 0.919186911568,
			"-0.012": 1.16002317673,
			"-0.011": 0.903638414905,
			"-0.01": 0.765472812898,
			"-0.009": 1.30535139107,
			"-0.008": 1.31283673799,
			"-0.007": 0.943694284685,
			"-0.006": 4.60096688325,
			"-0.005": 14.7416762196,
			"-0.004": 21.6473608892,
			"-0.003": 22.2975598155,
			"-0.002": 17.841211555,
			"-0.001": 15.7424586034,
			"0.0": 14.7296997078,
			"0.001": 11.0431319983,
			"0.002": 9.15659441797,
			"0.003": 8.98541111011,
			"0.004": 11.2194598951,
			"0.005": 11.3662854076,
			"0.006": 11.1106971225,
			"0.007": 5.46441501684,
			"0.008": 2.66448890422,
			"0.009": 2.54572106458,
			"0.01": 3.0283444561,
			"0.011": 2.25358338097,
			"0.012": 1.21039932819,
			"0.013": 0.857904661274,
			"0.014": 1.01281570017,
			"0.015": 0.0409426981122,
			"0.016": 0.0,
			"0.017": 0.0,
			"0.018": 0.0,
			"0.019": 0.0,
			"0.02": 0.0,
			"0.021": 0.0,
			"0.022": 0.0,
			"0.023": 0.0,
			"0.024": 0.0,
			"0.025": 0.0
		}
	}
}
