{
	 "smiles": "OC1=C(CC2=CC=CC=C2)C=C(C=C1)[N+]([O-])=O", 
	 "Tm": 392.15, 
	 "num_atms": 28, 
	 "gaussian": { 
		 "optdone": 1, 
		 "sigma_profile": "yes", 
		 "theory": "DFT", 
		 "functional": "B3LYP", 
		 "basiset": "6-31G**", 
		 "properties": { 
			 "R2extent": 5555.7483, 
			 "electric_dipole_moment_norm": 5.55664179429, 
			 "electric_quadrupole_moment_norm": 27.531082829, 
			 "total_energy": -782.341758382, 
			 "HOMO_LUMO_gap": 0.16232, 
			 "cosmo_polarized_energy": -15.41, 
			 "cosmo_cavitation_energy": 33.08, 
			 "cosmo_dispersion_energy": -23.39, 
			 "cosmo_repulsion_energy": 1.81, 
			 "cosmo_total_nonelectrostatic_energy": 11.5, 
			 "SMD_solvation_energy": 7.96 
		},
		"coords": [
			{
				"x": 1.5490316677,
				"y": -3.0781561873,
				"z": -0.237002086,
				"element": "O" 
			},
			{
				"x": 1.7820993753,
				"y": -2.1537271118,
				"z": 0.7316058914,
				"element": "C" 
			},
			{
				"x": 0.7699518673,
				"y": -1.194440876,
				"z": 0.9553551044,
				"element": "C" 
			},
			{
				"x": -0.4905438307,
				"y": -1.1943199547,
				"z": 0.111731876,
				"element": "C" 
			},
			{
				"x": -0.2921225253,
				"y": -0.619770121,
				"z": -1.2859811546,
				"element": "C" 
			},
			{
				"x": -0.3470235195,
				"y": -1.4423743009,
				"z": -2.4166618571,
				"element": "C" 
			},
			{
				"x": -0.1748506594,
				"y": -0.9101667359,
				"z": -3.6962794229,
				"element": "C" 
			},
			{
				"x": 0.057709194,
				"y": 0.4554377341,
				"z": -3.8619996163,
				"element": "C" 
			},
			{
				"x": 0.116416764,
				"y": 1.2855101486,
				"z": -2.7399232644,
				"element": "C" 
			},
			{
				"x": -0.056859604,
				"y": 0.750519704,
				"z": -1.4638314862,
				"element": "C" 
			},
			{
				"x": 0.9773804842,
				"y": -0.2537575198,
				"z": 1.9591388162,
				"element": "C" 
			},
			{
				"x": 2.1580897281,
				"y": -0.2595149035,
				"z": 2.705684746,
				"element": "C" 
			},
			{
				"x": 3.1590818114,
				"y": -1.2006281789,
				"z": 2.4793918638,
				"element": "C" 
			},
			{
				"x": 2.9622244464,
				"y": -2.1525436476,
				"z": 1.4868225492,
				"element": "C" 
			},
			{
				"x": 2.3456305195,
				"y": 0.743905415,
				"z": 3.7527922991,
				"element": "N" 
			},
			{
				"x": 1.4424830998,
				"y": 1.5633532721,
				"z": 3.9321912425,
				"element": "O" 
			},
			{
				"x": 3.3968241786,
				"y": 0.7128486349,
				"z": 4.3958879597,
				"element": "O" 
			},
			{
				"x": 2.3083728652,
				"y": -3.6712875291,
				"z": -0.3113079748,
				"element": "H" 
			},
			{
				"x": -1.2548855746,
				"y": -0.6124889503,
				"z": 0.6385354742,
				"element": "H" 
			},
			{
				"x": -0.8695797056,
				"y": -2.2174981718,
				"z": 0.0267294575,
				"element": "H" 
			},
			{
				"x": -0.5217021473,
				"y": -2.5072991169,
				"z": -2.2916253487,
				"element": "H" 
			},
			{
				"x": -0.2234897453,
				"y": -1.5638308427,
				"z": -4.5628601263,
				"element": "H" 
			},
			{
				"x": 0.1903372327,
				"y": 0.871270135,
				"z": -4.8566856455,
				"element": "H" 
			},
			{
				"x": 0.2942549657,
				"y": 2.3506877513,
				"z": -2.8586174133,
				"element": "H" 
			},
			{
				"x": -0.0093441105,
				"y": 1.404509271,
				"z": -0.5963835581,
				"element": "H" 
			},
			{
				"x": 0.2257373343,
				"y": 0.4950245864,
				"z": 2.1794164882,
				"element": "H" 
			},
			{
				"x": 4.0614955802,
				"y": -1.1779345827,
				"z": 3.0768353716,
				"element": "H" 
			},
			{
				"x": 3.7259803079,
				"y": -2.9026279214,
				"z": 1.2951398145,
				"element": "H" 
			}
		],
		 "valence_orbital": [ 
			{
				"type": "occ",
				"energy": -0.28256,
				"method": "rhf"
			},
			{
				"type": "occ",
				"energy": -0.27433,
				"method": "rhf"
			},
			{
				"type": "occ",
				"energy": -0.25245,
				"method": "rhf"
			},
			{
				"type": "occ",
				"energy": -0.24846,
				"method": "rhf"
			},
			{
				"type": "occ",
				"energy": -0.24192,
				"method": "rhf"
			},
			{
				"type": "unocc",
				"energy": -0.0796,
				"method": "rhf"
			},
			{
				"type": "unocc",
				"energy": -0.02838,
				"method": "rhf"
			},
			{
				"type": "unocc",
				"energy": -0.00329,
				"method": "rhf"
			},
			{
				"type": "unocc",
				"energy": 0.00201,
				"method": "rhf"
			},
			{
				"type": "unocc",
				"energy": 0.01305,
				"method": "rhf"
			}
		],
		"cosmo_sigma_profile": { 
			"-0.025": 0.0,
			"-0.024": 0.0,
			"-0.023": 0.0,
			"-0.022": 0.0,
			"-0.021": 0.0,
			"-0.02": 0.0,
			"-0.019": 0.747890147037,
			"-0.018": 1.36096852493,
			"-0.017": 1.09617560666,
			"-0.016": 1.36484960212,
			"-0.015": 0.334275681663,
			"-0.014": 1.2029373109,
			"-0.013": 0.747309820605,
			"-0.012": 1.14926589339,
			"-0.011": 1.43105945138,
			"-0.01": 1.18898340862,
			"-0.009": 0.953246701227,
			"-0.008": 2.2228297589,
			"-0.007": 5.49924785632,
			"-0.006": 9.10740968048,
			"-0.005": 16.8811201254,
			"-0.004": 20.2569592743,
			"-0.003": 20.1846923213,
			"-0.002": 17.0717218142,
			"-0.001": 18.8341575661,
			"0.0": 18.967652119,
			"0.001": 21.8310327647,
			"0.002": 19.2357076245,
			"0.003": 12.9694604767,
			"0.004": 11.7411948114,
			"0.005": 13.3224890263,
			"0.006": 13.703369705,
			"0.007": 8.62151144555,
			"0.008": 11.0084931396,
			"0.009": 5.56233498839,
			"0.01": 4.08993888188,
			"0.011": 1.50929465455,
			"0.012": 0.0,
			"0.013": 0.0,
			"0.014": 0.0,
			"0.015": 0.0,
			"0.016": 0.0,
			"0.017": 0.0,
			"0.018": 0.0,
			"0.019": 0.0,
			"0.02": 0.0,
			"0.021": 0.0,
			"0.022": 0.0,
			"0.023": 0.0,
			"0.024": 0.0,
			"0.025": 0.0
		}
	}
}
