{
	 "smiles": "NC1=CC(N)=C(C=CC2=CC=CC=C2)C(=C1C=CC1=CC=CC=C1)[N+]([O-])=O", 
	 "Tm": 448.15, 
	 "num_atms": 46, 
	 "gaussian": { 
		 "optdone": 1, 
		 "sigma_profile": "yes", 
		 "theory": "DFT", 
		 "functional": "B3LYP", 
		 "basiset": "6-31G**", 
		 "properties": { 
			 "R2extent": 15000.5385, 
			 "electric_dipole_moment_norm": 5.21467558818, 
			 "electric_quadrupole_moment_norm": 17.774898227, 
			 "total_energy": -1164.37632254, 
			 "HOMO_LUMO_gap": 0.12292, 
			 "cosmo_polarized_energy": -21.22, 
			 "cosmo_cavitation_energy": 51.04, 
			 "cosmo_dispersion_energy": -35.31, 
			 "cosmo_repulsion_energy": 2.66, 
			 "cosmo_total_nonelectrostatic_energy": 18.38, 
			 "SMD_solvation_energy": 10.37 
		},
		"coords": [
			{
				"x": -1.7512926324,
				"y": 2.8147269052,
				"z": 1.381567592,
				"element": "N" 
			},
			{
				"x": -1.0545643815,
				"y": 1.6131419841,
				"z": 1.343621784,
				"element": "C" 
			},
			{
				"x": -0.7913756702,
				"y": 0.9431555226,
				"z": 2.5419599533,
				"element": "C" 
			},
			{
				"x": -0.1021294109,
				"y": -0.2721421184,
				"z": 2.5833908866,
				"element": "C" 
			},
			{
				"x": 0.0562511272,
				"y": -0.9261367002,
				"z": 3.7912007688,
				"element": "N" 
			},
			{
				"x": 0.3607875844,
				"y": -0.8672736378,
				"z": 1.3761665701,
				"element": "C" 
			},
			{
				"x": 1.1279795763,
				"y": -2.1215709691,
				"z": 1.423248263,
				"element": "C" 
			},
			{
				"x": 0.9519913884,
				"y": -3.197737498,
				"z": 0.6310687203,
				"element": "C" 
			},
			{
				"x": 1.7416783033,
				"y": -4.4345601109,
				"z": 0.655446053,
				"element": "C" 
			},
			{
				"x": 2.9913213668,
				"y": -4.5400386496,
				"z": 1.296029513,
				"element": "C" 
			},
			{
				"x": 3.6857522275,
				"y": -5.746269428,
				"z": 1.3122135152,
				"element": "C" 
			},
			{
				"x": 3.1565967323,
				"y": -6.875655312,
				"z": 0.6803450133,
				"element": "C" 
			},
			{
				"x": 1.9273947158,
				"y": -6.7839137268,
				"z": 0.0254523944,
				"element": "C" 
			},
			{
				"x": 1.2318186633,
				"y": -5.576514316,
				"z": 0.010667456,
				"element": "C" 
			},
			{
				"x": 0.0777874938,
				"y": -0.1621008298,
				"z": 0.2026788818,
				"element": "C" 
			},
			{
				"x": -0.600106096,
				"y": 1.0656665516,
				"z": 0.1078643074,
				"element": "C" 
			},
			{
				"x": -0.8198395314,
				"y": 1.6927580474,
				"z": -1.1999675438,
				"element": "C" 
			},
			{
				"x": -0.8609492654,
				"y": 3.0159446713,
				"z": -1.4782968956,
				"element": "C" 
			},
			{
				"x": -1.0881208121,
				"y": 3.6147441084,
				"z": -2.7988339752,
				"element": "C" 
			},
			{
				"x": -0.8447765661,
				"y": 4.990889336,
				"z": -2.9680022329,
				"element": "C" 
			},
			{
				"x": -1.0300540305,
				"y": 5.6119853389,
				"z": -4.2015953663,
				"element": "C" 
			},
			{
				"x": -1.4714857022,
				"y": 4.8709179845,
				"z": -5.2987444284,
				"element": "C" 
			},
			{
				"x": -1.7286663917,
				"y": 3.5048972487,
				"z": -5.1462908691,
				"element": "C" 
			},
			{
				"x": -1.5447763924,
				"y": 2.8848044408,
				"z": -3.9141106706,
				"element": "C" 
			},
			{
				"x": 0.6185329,
				"y": -0.7124459005,
				"z": -1.0633540844,
				"element": "N" 
			},
			{
				"x": -0.1692849401,
				"y": -1.306609652,
				"z": -1.8019623045,
				"element": "O" 
			},
			{
				"x": 1.8047422318,
				"y": -0.5265768662,
				"z": -1.2970308676,
				"element": "O" 
			},
			{
				"x": -2.3183908312,
				"y": 2.9457197846,
				"z": 2.2082373494,
				"element": "H" 
			},
			{
				"x": -2.2435113987,
				"y": 3.0494302782,
				"z": 0.5289091133,
				"element": "H" 
			},
			{
				"x": -1.1680239217,
				"y": 1.3646873913,
				"z": 3.4712014349,
				"element": "H" 
			},
			{
				"x": 0.6672103491,
				"y": -1.7265315152,
				"z": 3.8202904391,
				"element": "H" 
			},
			{
				"x": 0.0529785871,
				"y": -0.3633373128,
				"z": 4.6276516065,
				"element": "H" 
			},
			{
				"x": 1.9019226015,
				"y": -2.1646663265,
				"z": 2.1918186601,
				"element": "H" 
			},
			{
				"x": 0.1404086739,
				"y": -3.1815207887,
				"z": -0.0932040897,
				"element": "H" 
			},
			{
				"x": 3.4338924449,
				"y": -3.6650842116,
				"z": 1.7627074894,
				"element": "H" 
			},
			{
				"x": 4.6507646437,
				"y": -5.8038965733,
				"z": 1.8080811653,
				"element": "H" 
			},
			{
				"x": 3.7039027158,
				"y": -7.8137372396,
				"z": 0.6894730158,
				"element": "H" 
			},
			{
				"x": 1.5109730109,
				"y": -7.6521850468,
				"z": -0.4773308458,
				"element": "H" 
			},
			{
				"x": 0.2752506528,
				"y": -5.5102259761,
				"z": -0.5013118568,
				"element": "H" 
			},
			{
				"x": -0.9248740631,
				"y": 0.9947884997,
				"z": -2.0266165406,
				"element": "H" 
			},
			{
				"x": -0.6615280105,
				"y": 3.7301920344,
				"z": -0.6824261721,
				"element": "H" 
			},
			{
				"x": -0.4965421452,
				"y": 5.5732194156,
				"z": -2.118313398,
				"element": "H" 
			},
			{
				"x": -0.829859691,
				"y": 6.6747344652,
				"z": -4.305582721,
				"element": "H" 
			},
			{
				"x": -1.6196414408,
				"y": 5.3513812778,
				"z": -6.2614320292,
				"element": "H" 
			},
			{
				"x": -2.0813331649,
				"y": 2.9213544343,
				"z": -5.9921325145,
				"element": "H" 
			},
			{
				"x": -1.7691115006,
				"y": 1.8272909857,
				"z": -3.8142525399,
				"element": "H" 
			}
		],
		 "valence_orbital": [ 
			{
				"type": "occ",
				"energy": -0.2477,
				"method": "rhf"
			},
			{
				"type": "occ",
				"energy": -0.24343,
				"method": "rhf"
			},
			{
				"type": "occ",
				"energy": -0.2317,
				"method": "rhf"
			},
			{
				"type": "occ",
				"energy": -0.21472,
				"method": "rhf"
			},
			{
				"type": "occ",
				"energy": -0.18644,
				"method": "rhf"
			},
			{
				"type": "unocc",
				"energy": -0.06352,
				"method": "rhf"
			},
			{
				"type": "unocc",
				"energy": -0.04735,
				"method": "rhf"
			},
			{
				"type": "unocc",
				"energy": -0.04103,
				"method": "rhf"
			},
			{
				"type": "unocc",
				"energy": 0.00095,
				"method": "rhf"
			},
			{
				"type": "unocc",
				"energy": 0.00229,
				"method": "rhf"
			}
		],
		"cosmo_sigma_profile": { 
			"-0.025": 0.0,
			"-0.024": 0.0,
			"-0.023": 0.0,
			"-0.022": 0.0,
			"-0.021": 0.0,
			"-0.02": 0.0,
			"-0.019": 0.0,
			"-0.018": 0.0,
			"-0.017": 0.0,
			"-0.016": 0.0,
			"-0.015": 0.0,
			"-0.014": 0.259518626214,
			"-0.013": 2.93834225081,
			"-0.012": 4.15305355305,
			"-0.011": 4.82772952762,
			"-0.01": 5.7770250204,
			"-0.009": 6.076242445,
			"-0.008": 5.08151359552,
			"-0.007": 7.52211730522,
			"-0.006": 19.6699756578,
			"-0.005": 28.9795865588,
			"-0.004": 27.690397136,
			"-0.003": 27.218934963,
			"-0.002": 19.3493329115,
			"-0.001": 22.0017403387,
			"0.0": 20.8092067754,
			"0.001": 22.8527357066,
			"0.002": 27.8513307484,
			"0.003": 37.3362200946,
			"0.004": 36.1001183927,
			"0.005": 31.5911327604,
			"0.006": 20.7699814262,
			"0.007": 11.3316645549,
			"0.008": 8.56002184988,
			"0.009": 5.78953120454,
			"0.01": 2.0646042519,
			"0.011": 0.805786049125,
			"0.012": 0.805580839243,
			"0.013": 0.103575432363,
			"0.014": 0.0,
			"0.015": 0.0,
			"0.016": 0.0,
			"0.017": 0.0,
			"0.018": 0.0,
			"0.019": 0.0,
			"0.02": 0.0,
			"0.021": 0.0,
			"0.022": 0.0,
			"0.023": 0.0,
			"0.024": 0.0,
			"0.025": 0.0
		}
	}
}
