{
	 "smiles": "CNC(=O)C(C)(C(C)C)C(C)C", 
	 "Tm": 333.15, 
	 "num_atms": 33, 
	 "gaussian": { 
		 "optdone": 1, 
		 "sigma_profile": "yes", 
		 "theory": "DFT", 
		 "functional": "B3LYP", 
		 "basiset": "6-31G**", 
		 "properties": { 
			 "R2extent": 2236.8718, 
			 "electric_dipole_moment_norm": 3.35627915853, 
			 "electric_quadrupole_moment_norm": 8.57384737151, 
			 "total_energy": -523.7072996, 
			 "HOMO_LUMO_gap": 0.25936, 
			 "cosmo_polarized_energy": -8.91, 
			 "cosmo_cavitation_energy": 30.11, 
			 "cosmo_dispersion_energy": -21.64, 
			 "cosmo_repulsion_energy": 1.68, 
			 "cosmo_total_nonelectrostatic_energy": 10.16, 
			 "SMD_solvation_energy": 5.46 
		},
		"coords": [
			{
				"x": -0.5060970456,
				"y": 0.7635633226,
				"z": -2.538448969,
				"element": "C" 
			},
			{
				"x": -1.3248318461,
				"y": 0.137317536,
				"z": -1.5106265786,
				"element": "N" 
			},
			{
				"x": -1.1470925538,
				"y": -0.197780874,
				"z": -0.1855063171,
				"element": "C" 
			},
			{
				"x": -2.1194509472,
				"y": -0.6827709623,
				"z": 0.3943361477,
				"element": "O" 
			},
			{
				"x": 0.2074977287,
				"y": -0.034406955,
				"z": 0.5528771058,
				"element": "C" 
			},
			{
				"x": 0.9969098338,
				"y": 1.2130744106,
				"z": 0.0840456191,
				"element": "C" 
			},
			{
				"x": -0.0670305257,
				"y": 0.1905438282,
				"z": 2.1018678577,
				"element": "C" 
			},
			{
				"x": -0.9977554318,
				"y": 1.3839635562,
				"z": 2.3941525836,
				"element": "C" 
			},
			{
				"x": -0.5478640892,
				"y": -1.0180014969,
				"z": 2.9264462929,
				"element": "C" 
			},
			{
				"x": 1.0769719996,
				"y": -1.3559535492,
				"z": 0.3641976774,
				"element": "C" 
			},
			{
				"x": 2.1301115458,
				"y": -1.3127763286,
				"z": -0.7589825982,
				"element": "C" 
			},
			{
				"x": 0.2433924447,
				"y": -2.6406078078,
				"z": 0.1838065002,
				"element": "C" 
			},
			{
				"x": -0.3222662349,
				"y": 1.8277951638,
				"z": -2.3534052271,
				"element": "H" 
			},
			{
				"x": 0.4543757219,
				"y": 0.2611820421,
				"z": -2.6722599714,
				"element": "H" 
			},
			{
				"x": -1.0486226008,
				"y": 0.6790037286,
				"z": -3.4831452756,
				"element": "H" 
			},
			{
				"x": -2.2825724019,
				"y": -0.0605538707,
				"z": -1.7701047978,
				"element": "H" 
			},
			{
				"x": 1.8532888011,
				"y": 1.3766435954,
				"z": 0.7466672534,
				"element": "H" 
			},
			{
				"x": 0.3801689669,
				"y": 2.1143944129,
				"z": 0.1207649035,
				"element": "H" 
			},
			{
				"x": 1.390916799,
				"y": 1.1278801277,
				"z": -0.9256145512,
				"element": "H" 
			},
			{
				"x": 0.9262900468,
				"y": 0.4524912656,
				"z": 2.495782008,
				"element": "H" 
			},
			{
				"x": -2.0143827449,
				"y": 1.1726327465,
				"z": 2.0538180182,
				"element": "H" 
			},
			{
				"x": -0.6619801632,
				"y": 2.3143899643,
				"z": 1.9275477567,
				"element": "H" 
			},
			{
				"x": -1.0363314429,
				"y": 1.5638784792,
				"z": 3.4739052643,
				"element": "H" 
			},
			{
				"x": -0.5965179728,
				"y": -0.7268938263,
				"z": 3.9821758006,
				"element": "H" 
			},
			{
				"x": -1.5414260736,
				"y": -1.337763497,
				"z": 2.611112139,
				"element": "H" 
			},
			{
				"x": 0.1333390034,
				"y": -1.8706824141,
				"z": 2.8655849426,
				"element": "H" 
			},
			{
				"x": 1.6415971731,
				"y": -1.453886229,
				"z": 1.3007514518,
				"element": "H" 
			},
			{
				"x": 2.8543747117,
				"y": -0.5034199876,
				"z": -0.6392580972,
				"element": "H" 
			},
			{
				"x": 2.6924244921,
				"y": -2.2528343631,
				"z": -0.757930294,
				"element": "H" 
			},
			{
				"x": 1.6721139945,
				"y": -1.2213207322,
				"z": -1.7502060125,
				"element": "H" 
			},
			{
				"x": 0.8947418985,
				"y": -3.5172916657,
				"z": 0.2688087527,
				"element": "H" 
			},
			{
				"x": -0.5611880193,
				"y": -2.7350150622,
				"z": 0.9113933385,
				"element": "H" 
			},
			{
				"x": -0.2149050678,
				"y": -2.6676945581,
				"z": -0.811352724,
				"element": "H" 
			}
		],
		 "valence_orbital": [ 
			{
				"type": "occ",
				"energy": -0.31441,
				"method": "rhf"
			},
			{
				"type": "occ",
				"energy": -0.30094,
				"method": "rhf"
			},
			{
				"type": "occ",
				"energy": -0.29414,
				"method": "rhf"
			},
			{
				"type": "occ",
				"energy": -0.24272,
				"method": "rhf"
			},
			{
				"type": "occ",
				"energy": -0.23449,
				"method": "rhf"
			},
			{
				"type": "unocc",
				"energy": 0.02487,
				"method": "rhf"
			},
			{
				"type": "unocc",
				"energy": 0.07147,
				"method": "rhf"
			},
			{
				"type": "unocc",
				"energy": 0.09132,
				"method": "rhf"
			},
			{
				"type": "unocc",
				"energy": 0.09613,
				"method": "rhf"
			},
			{
				"type": "unocc",
				"energy": 0.11943,
				"method": "rhf"
			}
		],
		"cosmo_sigma_profile": { 
			"-0.025": 0.0,
			"-0.024": 0.0,
			"-0.023": 0.0,
			"-0.022": 0.0,
			"-0.021": 0.0,
			"-0.02": 0.0,
			"-0.019": 0.0,
			"-0.018": 0.0,
			"-0.017": 0.0,
			"-0.016": 0.0,
			"-0.015": 0.0,
			"-0.014": 0.0,
			"-0.013": 0.113464815836,
			"-0.012": 1.11619828021,
			"-0.011": 0.84071201032,
			"-0.01": 1.24457370052,
			"-0.009": 1.13334994306,
			"-0.008": 1.1891716825,
			"-0.007": 1.14661632907,
			"-0.006": 2.33923264701,
			"-0.005": 5.76906257133,
			"-0.004": 8.49049818697,
			"-0.003": 20.459133575,
			"-0.002": 39.6730087994,
			"-0.001": 32.3282307101,
			"0.0": 30.3527810588,
			"0.001": 30.5500415454,
			"0.002": 23.4422399313,
			"0.003": 8.91600752716,
			"0.004": 3.09101348407,
			"0.005": 2.0989928615,
			"0.006": 1.31538908389,
			"0.007": 1.89323405297,
			"0.008": 1.88623699313,
			"0.009": 1.66894720916,
			"0.01": 1.51219619057,
			"0.011": 1.17226748685,
			"0.012": 1.79234559953,
			"0.013": 1.00565708945,
			"0.014": 2.40458987666,
			"0.015": 2.40620718248,
			"0.016": 0.148104747825,
			"0.017": 0.0,
			"0.018": 0.0,
			"0.019": 0.0,
			"0.02": 0.0,
			"0.021": 0.0,
			"0.022": 0.0,
			"0.023": 0.0,
			"0.024": 0.0,
			"0.025": 0.0
		}
	}
}
