{
	 "smiles": "COC1=CC=C(C=C1)C(N)=S", 
	 "Tm": 423.15, 
	 "num_atms": 20, 
	 "gaussian": { 
		 "optdone": 1, 
		 "sigma_profile": "yes", 
		 "theory": "DFT", 
		 "functional": "B3LYP", 
		 "basiset": "6-31G**", 
		 "properties": { 
			 "R2extent": 2771.4036, 
			 "electric_dipole_moment_norm": 6.0879142397, 
			 "electric_quadrupole_moment_norm": 15.1318796162, 
			 "total_energy": -838.436620735, 
			 "HOMO_LUMO_gap": 0.14854, 
			 "cosmo_polarized_energy": -17.08, 
			 "cosmo_cavitation_energy": 25.57, 
			 "cosmo_dispersion_energy": -19.48, 
			 "cosmo_repulsion_energy": 1.52, 
			 "cosmo_total_nonelectrostatic_energy": 7.61, 
			 "SMD_solvation_energy": 4.33 
		},
		"coords": [
			{
				"x": -2.3744453903,
				"y": -1.4030308236,
				"z": -2.6843667777,
				"element": "C" 
			},
			{
				"x": -1.9464891925,
				"y": -1.8974791118,
				"z": -1.4231365314,
				"element": "O" 
			},
			{
				"x": -1.047032717,
				"y": -1.1685454267,
				"z": -0.711336229,
				"element": "C" 
			},
			{
				"x": -0.660288902,
				"y": -1.7144001373,
				"z": 0.5251057068,
				"element": "C" 
			},
			{
				"x": 0.2545900279,
				"y": -1.053342504,
				"z": 1.3253257541,
				"element": "C" 
			},
			{
				"x": 0.8035330178,
				"y": 0.183058445,
				"z": 0.9326150283,
				"element": "C" 
			},
			{
				"x": 0.4130979201,
				"y": 0.7121621785,
				"z": -0.307346654,
				"element": "C" 
			},
			{
				"x": -0.4978411413,
				"y": 0.0499646994,
				"z": -1.1305231777,
				"element": "C" 
			},
			{
				"x": 1.7740927875,
				"y": 0.8867679058,
				"z": 1.8069055997,
				"element": "C" 
			},
			{
				"x": 1.8222554304,
				"y": 2.2334238215,
				"z": 1.6534179144,
				"element": "N" 
			},
			{
				"x": 2.7809718974,
				"y": 0.1102502854,
				"z": 2.8919751448,
				"element": "S" 
			},
			{
				"x": -3.0871335511,
				"y": -2.1345466527,
				"z": -3.0672949837,
				"element": "H" 
			},
			{
				"x": -1.5368724076,
				"y": -1.3124154381,
				"z": -3.3872857638,
				"element": "H" 
			},
			{
				"x": -2.8717246188,
				"y": -0.4296216398,
				"z": -2.5883768441,
				"element": "H" 
			},
			{
				"x": -1.0940565988,
				"y": -2.6609648686,
				"z": 0.8298827367,
				"element": "H" 
			},
			{
				"x": 0.5620602855,
				"y": -1.4777513714,
				"z": 2.2746940984,
				"element": "H" 
			},
			{
				"x": 0.8585779594,
				"y": 1.6342659889,
				"z": -0.6693731258,
				"element": "H" 
			},
			{
				"x": -0.7580635476,
				"y": 0.4809709095,
				"z": -2.0897309562,
				"element": "H" 
			},
			{
				"x": 1.068261417,
				"y": 2.732145207,
				"z": 1.2047384143,
				"element": "H" 
			},
			{
				"x": 2.4456073241,
				"y": 2.7508885333,
				"z": 2.2557106457,
				"element": "H" 
			}
		],
		 "valence_orbital": [ 
			{
				"type": "occ",
				"energy": -0.32444,
				"method": "rhf"
			},
			{
				"type": "occ",
				"energy": -0.26347,
				"method": "rhf"
			},
			{
				"type": "occ",
				"energy": -0.24029,
				"method": "rhf"
			},
			{
				"type": "occ",
				"energy": -0.21937,
				"method": "rhf"
			},
			{
				"type": "occ",
				"energy": -0.20102,
				"method": "rhf"
			},
			{
				"type": "unocc",
				"energy": -0.05248,
				"method": "rhf"
			},
			{
				"type": "unocc",
				"energy": -0.01224,
				"method": "rhf"
			},
			{
				"type": "unocc",
				"energy": 0.03266,
				"method": "rhf"
			},
			{
				"type": "unocc",
				"energy": 0.07336,
				"method": "rhf"
			},
			{
				"type": "unocc",
				"energy": 0.08892,
				"method": "rhf"
			}
		],
		"cosmo_sigma_profile": { 
			"-0.025": 0.0,
			"-0.024": 0.0,
			"-0.023": 0.0,
			"-0.022": 0.0,
			"-0.021": 0.0,
			"-0.02": 0.0,
			"-0.019": 0.0,
			"-0.018": 0.0,
			"-0.017": 0.0,
			"-0.016": 0.065720852439,
			"-0.015": 1.16611439037,
			"-0.014": 2.84073049237,
			"-0.013": 1.96695167419,
			"-0.012": 2.73640664308,
			"-0.011": 2.62030946437,
			"-0.01": 1.84815705033,
			"-0.009": 2.07790547797,
			"-0.008": 2.32607955344,
			"-0.007": 4.82026832642,
			"-0.006": 12.9699758599,
			"-0.005": 15.939435578,
			"-0.004": 15.6259501512,
			"-0.003": 13.5350746881,
			"-0.002": 8.77145869191,
			"-0.001": 7.65181476054,
			"0.0": 9.09940172956,
			"0.001": 10.8550101786,
			"0.002": 12.2022522766,
			"0.003": 16.1933030319,
			"0.004": 15.1462366311,
			"0.005": 7.23033708471,
			"0.006": 5.30497410062,
			"0.007": 5.13435392963,
			"0.008": 7.52906293641,
			"0.009": 8.32571835023,
			"0.01": 5.63252541543,
			"0.011": 3.9639932898,
			"0.012": 2.57865869932,
			"0.013": 0.218100696525,
			"0.014": 0.0,
			"0.015": 0.0,
			"0.016": 0.0,
			"0.017": 0.0,
			"0.018": 0.0,
			"0.019": 0.0,
			"0.02": 0.0,
			"0.021": 0.0,
			"0.022": 0.0,
			"0.023": 0.0,
			"0.024": 0.0,
			"0.025": 0.0
		}
	}
}
