{
	 "smiles": "OC(=O)C1=C(Cl)C=C(Cl)C(=C1)S(=O)(=O)NCC1=CC=CO1", 
	 "Tm": 423.15, 
	 "num_atms": 30, 
	 "gaussian": { 
		 "optdone": 1, 
		 "sigma_profile": "yes", 
		 "theory": "DFT", 
		 "functional": "B3LYP", 
		 "basiset": "6-31G**", 
		 "properties": { 
			 "R2extent": 7663.7271, 
			 "electric_dipole_moment_norm": 5.49883443377, 
			 "electric_quadrupole_moment_norm": 16.2741590216, 
			 "total_energy": -2212.03820606, 
			 "HOMO_LUMO_gap": 0.15785, 
			 "cosmo_polarized_energy": -20.21, 
			 "cosmo_cavitation_energy": 39.97, 
			 "cosmo_dispersion_energy": -27.88, 
			 "cosmo_repulsion_energy": 2.11, 
			 "cosmo_total_nonelectrostatic_energy": 14.19, 
			 "SMD_solvation_energy": 7.15 
		},
		"coords": [
			{
				"x": -4.5456340905,
				"y": -0.7896256616,
				"z": -0.2677579468,
				"element": "O" 
			},
			{
				"x": -3.2781982299,
				"y": -1.2212893542,
				"z": -0.1387267844,
				"element": "C" 
			},
			{
				"x": -2.9246758702,
				"y": -2.3223705182,
				"z": -0.510468084,
				"element": "O" 
			},
			{
				"x": -2.3450241274,
				"y": -0.2524186394,
				"z": 0.5224425859,
				"element": "C" 
			},
			{
				"x": -2.5512959331,
				"y": 1.1166278301,
				"z": 0.7776009551,
				"element": "C" 
			},
			{
				"x": -3.9918016279,
				"y": 1.988975223,
				"z": 0.3172009154,
				"element": "Cl" 
			},
			{
				"x": -1.5644724065,
				"y": 1.869818657,
				"z": 1.4146616104,
				"element": "C" 
			},
			{
				"x": -0.358302064,
				"y": 1.2907216334,
				"z": 1.8064095738,
				"element": "C" 
			},
			{
				"x": 0.7791501461,
				"y": 2.3429376528,
				"z": 2.6094503135,
				"element": "Cl" 
			},
			{
				"x": -0.1221509079,
				"y": -0.0711526014,
				"z": 1.5547323665,
				"element": "C" 
			},
			{
				"x": -1.1210879503,
				"y": -0.806569346,
				"z": 0.921444915,
				"element": "C" 
			},
			{
				"x": 1.3872184044,
				"y": -0.9984265041,
				"z": 1.9868121628,
				"element": "S" 
			},
			{
				"x": 0.990246071,
				"y": -2.4047837206,
				"z": 1.9552424788,
				"element": "O" 
			},
			{
				"x": 1.9817719982,
				"y": -0.3726247557,
				"z": 3.1621657696,
				"element": "O" 
			},
			{
				"x": 2.4751772214,
				"y": -0.839291471,
				"z": 0.738064003,
				"element": "N" 
			},
			{
				"x": 3.2244968116,
				"y": 0.3938966933,
				"z": 0.4554814512,
				"element": "C" 
			},
			{
				"x": 2.6606736438,
				"y": 1.2149528872,
				"z": -0.6581076955,
				"element": "C" 
			},
			{
				"x": 2.2631891475,
				"y": 2.5126578976,
				"z": -0.7868977954,
				"element": "C" 
			},
			{
				"x": 1.8560817462,
				"y": 2.6820944441,
				"z": -2.1528739271,
				"element": "C" 
			},
			{
				"x": 2.0321922188,
				"y": 1.4745991731,
				"z": -2.752833925,
				"element": "C" 
			},
			{
				"x": 2.5274036653,
				"y": 0.5676925721,
				"z": -1.8601247237,
				"element": "O" 
			},
			{
				"x": -5.0287691847,
				"y": -1.5161023154,
				"z": -0.6973481168,
				"element": "H" 
			},
			{
				"x": -1.7376630499,
				"y": 2.9208792639,
				"z": 1.6085452652,
				"element": "H" 
			},
			{
				"x": -0.9647636956,
				"y": -1.8630917718,
				"z": 0.7370013199,
				"element": "H" 
			},
			{
				"x": 2.2325636823,
				"y": -1.4131671623,
				"z": -0.0627490194,
				"element": "H" 
			},
			{
				"x": 4.2512728027,
				"y": 0.0901586955,
				"z": 0.2160552685,
				"element": "H" 
			},
			{
				"x": 3.2704914825,
				"y": 0.9816772568,
				"z": 1.3737823723,
				"element": "H" 
			},
			{
				"x": 2.2579618332,
				"y": 3.2574014992,
				"z": -0.0046617569,
				"element": "H" 
			},
			{
				"x": 1.4808589141,
				"y": 3.5826212468,
				"z": -2.6171231419,
				"element": "H" 
			},
			{
				"x": 1.8631893487,
				"y": 1.106001196,
				"z": -3.7526204098,
				"element": "H" 
			}
		],
		 "valence_orbital": [ 
			{
				"type": "occ",
				"energy": -0.29628,
				"method": "rhf"
			},
			{
				"type": "occ",
				"energy": -0.29078,
				"method": "rhf"
			},
			{
				"type": "occ",
				"energy": -0.28164,
				"method": "rhf"
			},
			{
				"type": "occ",
				"energy": -0.27084,
				"method": "rhf"
			},
			{
				"type": "occ",
				"energy": -0.23813,
				"method": "rhf"
			},
			{
				"type": "unocc",
				"energy": -0.08028,
				"method": "rhf"
			},
			{
				"type": "unocc",
				"energy": -0.05567,
				"method": "rhf"
			},
			{
				"type": "unocc",
				"energy": -0.01099,
				"method": "rhf"
			},
			{
				"type": "unocc",
				"energy": -0.00443,
				"method": "rhf"
			},
			{
				"type": "unocc",
				"energy": 0.01488,
				"method": "rhf"
			}
		],
		"cosmo_sigma_profile": { 
			"-0.025": 0.0,
			"-0.024": 0.0,
			"-0.023": 0.0,
			"-0.022": 0.0,
			"-0.021": 0.0,
			"-0.02": 0.0,
			"-0.019": 0.432624499674,
			"-0.018": 1.08081649651,
			"-0.017": 1.09305674397,
			"-0.016": 0.585123081229,
			"-0.015": 0.942971749846,
			"-0.014": 1.66096260064,
			"-0.013": 1.84260649717,
			"-0.012": 1.96634962506,
			"-0.011": 1.84725577925,
			"-0.01": 1.57412468339,
			"-0.009": 4.4027421783,
			"-0.008": 5.31803375931,
			"-0.007": 9.25829614779,
			"-0.006": 12.6391117184,
			"-0.005": 15.2909779197,
			"-0.004": 19.0682733315,
			"-0.003": 24.756379871,
			"-0.002": 32.2136891523,
			"-0.001": 24.8111526355,
			"0.0": 19.408010754,
			"0.001": 19.5269972006,
			"0.002": 21.4469502979,
			"0.003": 22.9713680005,
			"0.004": 14.0998331853,
			"0.005": 12.7991997913,
			"0.006": 9.2498625948,
			"0.007": 9.29294972056,
			"0.008": 6.46769087922,
			"0.009": 6.8990614751,
			"0.01": 11.5307864492,
			"0.011": 10.1979194337,
			"0.012": 0.417379882179,
			"0.013": 0.0,
			"0.014": 0.0,
			"0.015": 0.0,
			"0.016": 0.0,
			"0.017": 0.0,
			"0.018": 0.0,
			"0.019": 0.0,
			"0.02": 0.0,
			"0.021": 0.0,
			"0.022": 0.0,
			"0.023": 0.0,
			"0.024": 0.0,
			"0.0": 0.0
		}
	}
}
