{
	 "smiles": "OC1=C(C=CC2=C1C=CC=C2)C(=O)OC1=CC=CC=C1", 
	 "Tm": 368.15, 
	 "num_atms": 32, 
	 "gaussian": { 
		 "optdone": 1, 
		 "sigma_profile": "yes", 
		 "theory": "DFT", 
		 "functional": "B3LYP", 
		 "basiset": "6-31G**", 
		 "properties": { 
			 "R2extent": 7997.7943, 
			 "electric_dipole_moment_norm": 3.37440097795, 
			 "electric_quadrupole_moment_norm": 23.4464326037, 
			 "total_energy": -880.722410828, 
			 "HOMO_LUMO_gap": 0.15718, 
			 "cosmo_polarized_energy": -15.87, 
			 "cosmo_cavitation_energy": 36.67, 
			 "cosmo_dispersion_energy": -27.08, 
			 "cosmo_repulsion_energy": 2.02, 
			 "cosmo_total_nonelectrostatic_energy": 11.62, 
			 "SMD_solvation_energy": 7.1 
		},
		"coords": [
			{
				"x": 2.5929757021,
				"y": 1.2802226357,
				"z": -1.6354690207,
				"element": "O" 
			},
			{
				"x": 2.3154897903,
				"y": 0.9880719161,
				"z": -0.3462554847,
				"element": "C" 
			},
			{
				"x": 0.9877481063,
				"y": 0.7563601556,
				"z": 0.0282213096,
				"element": "C" 
			},
			{
				"x": 0.7019434882,
				"y": 0.4313582718,
				"z": 1.3860531847,
				"element": "C" 
			},
			{
				"x": 1.687469176,
				"y": 0.3392355881,
				"z": 2.331826512,
				"element": "C" 
			},
			{
				"x": 3.0435650038,
				"y": 0.576909204,
				"z": 1.9815070649,
				"element": "C" 
			},
			{
				"x": 3.3699711427,
				"y": 0.9129159036,
				"z": 0.6288251003,
				"element": "C" 
			},
			{
				"x": 4.7301312938,
				"y": 1.1660975344,
				"z": 0.3038003637,
				"element": "C" 
			},
			{
				"x": 5.721800988,
				"y": 1.0794363199,
				"z": 1.2562708115,
				"element": "C" 
			},
			{
				"x": 5.3979046118,
				"y": 0.7357638414,
				"z": 2.5885777152,
				"element": "C" 
			},
			{
				"x": 4.0886691836,
				"y": 0.4938099593,
				"z": 2.9387449498,
				"element": "C" 
			},
			{
				"x": -0.1107959309,
				"y": 0.8460375872,
				"z": -0.9686881785,
				"element": "C" 
			},
			{
				"x": -0.0200089343,
				"y": 1.1917646509,
				"z": -2.1227397731,
				"element": "O" 
			},
			{
				"x": -1.3082062969,
				"y": 0.4663477886,
				"z": -0.3904046959,
				"element": "O" 
			},
			{
				"x": -2.4900131098,
				"y": 0.4860383134,
				"z": -1.1261878431,
				"element": "C" 
			},
			{
				"x": -2.8875020226,
				"y": 1.5852996469,
				"z": -1.8890954675,
				"element": "C" 
			},
			{
				"x": -4.1288439531,
				"y": 1.548588318,
				"z": -2.5255916037,
				"element": "C" 
			},
			{
				"x": -4.9644728084,
				"y": 0.4367633837,
				"z": -2.3995679694,
				"element": "C" 
			},
			{
				"x": -4.5537731941,
				"y": -0.6519361949,
				"z": -1.6281604673,
				"element": "C" 
			},
			{
				"x": -3.3133600534,
				"y": -0.6313464042,
				"z": -0.9904078393,
				"element": "C" 
			},
			{
				"x": 3.5486107157,
				"y": 1.3300196085,
				"z": -1.7601478677,
				"element": "H" 
			},
			{
				"x": -0.3307770298,
				"y": 0.2525575689,
				"z": 1.6555778245,
				"element": "H" 
			},
			{
				"x": 1.4442704969,
				"y": 0.0872863502,
				"z": 3.3596298718,
				"element": "H" 
			},
			{
				"x": 5.0227009544,
				"y": 1.4503610098,
				"z": -0.7049573847,
				"element": "H" 
			},
			{
				"x": 6.7534187861,
				"y": 1.2796896196,
				"z": 0.9839531356,
				"element": "H" 
			},
			{
				"x": 6.1846079984,
				"y": 0.668036816,
				"z": 3.3340921272,
				"element": "H" 
			},
			{
				"x": 3.8317883897,
				"y": 0.2350220396,
				"z": 3.9623679163,
				"element": "H" 
			},
			{
				"x": -2.2352543999,
				"y": 2.4428531275,
				"z": -1.9906764452,
				"element": "H" 
			},
			{
				"x": -4.4425643884,
				"y": 2.3992327385,
				"z": -3.1237449057,
				"element": "H" 
			},
			{
				"x": -5.9287697343,
				"y": 0.41979493,
				"z": -2.8985165594,
				"element": "H" 
			},
			{
				"x": -5.1966645247,
				"y": -1.5208487929,
				"z": -1.5214998175,
				"element": "H" 
			},
			{
				"x": -2.9732594472,
				"y": -1.4657434353,
				"z": -0.3857365638,
				"element": "H" 
			}
		],
		 "valence_orbital": [ 
			{
				"type": "occ",
				"energy": -0.2649,
				"method": "rhf"
			},
			{
				"type": "occ",
				"energy": -0.25719,
				"method": "rhf"
			},
			{
				"type": "occ",
				"energy": -0.24552,
				"method": "rhf"
			},
			{
				"type": "occ",
				"energy": -0.23245,
				"method": "rhf"
			},
			{
				"type": "occ",
				"energy": -0.21451,
				"method": "rhf"
			},
			{
				"type": "unocc",
				"energy": -0.05733,
				"method": "rhf"
			},
			{
				"type": "unocc",
				"energy": -0.03361,
				"method": "rhf"
			},
			{
				"type": "unocc",
				"energy": 0.00266,
				"method": "rhf"
			},
			{
				"type": "unocc",
				"energy": 0.0051,
				"method": "rhf"
			},
			{
				"type": "unocc",
				"energy": 0.02345,
				"method": "rhf"
			}
		],
		"cosmo_sigma_profile": { 
			"-0.025": 0.0,
			"-0.024": 0.0,
			"-0.023": 0.0,
			"-0.022": 0.0,
			"-0.021": 0.0,
			"-0.02": 0.0,
			"-0.019": 0.120327694954,
			"-0.018": 0.801299322002,
			"-0.017": 0.883959806248,
			"-0.016": 1.23136474532,
			"-0.015": 0.946227745069,
			"-0.014": 0.856277284101,
			"-0.013": 0.613129269535,
			"-0.012": 0.84954473772,
			"-0.011": 1.22045095783,
			"-0.01": 1.16360804391,
			"-0.009": 1.10790630848,
			"-0.008": 1.11125291698,
			"-0.007": 4.26091097152,
			"-0.006": 20.0691196846,
			"-0.005": 22.436246931,
			"-0.004": 22.2893969574,
			"-0.003": 16.7956928144,
			"-0.002": 17.1422182473,
			"-0.001": 16.4818315595,
			"0.0": 19.8403700453,
			"0.001": 22.6582859996,
			"0.002": 27.2205507694,
			"0.003": 31.2027703505,
			"0.004": 25.3163704065,
			"0.005": 13.9216010354,
			"0.006": 3.86061060264,
			"0.007": 2.22277813927,
			"0.008": 1.83765506819,
			"0.009": 2.41829604317,
			"0.01": 2.76365371113,
			"0.011": 3.00253062263,
			"0.012": 3.50695790159,
			"0.013": 2.0621849439,
			"0.014": 1.51318436096,
			"0.015": 1.44142170391,
			"0.016": 0.267517014042,
			"0.017": 0.0,
			"0.018": 0.0,
			"0.019": 0.0,
			"0.02": 0.0,
			"0.021": 0.0,
			"0.022": 0.0,
			"0.023": 0.0,
			"0.024": 0.0,
			"0.025": 0.0
		}
	}
}
