{
	 "smiles": "COCCOC1=C(C=C(Cl)C=C1)S(N)(=O)=O", 
	 "Tm": 398.15, 
	 "num_atms": 28, 
	 "gaussian": { 
		 "optdone": 1, 
		 "sigma_profile": "yes", 
		 "theory": "DFT", 
		 "functional": "B3LYP", 
		 "basiset": "6-31G**", 
		 "properties": { 
			 "R2extent": 6364.9335, 
			 "electric_dipole_moment_norm": 4.34629329544, 
			 "electric_quadrupole_moment_norm": 17.3346336985, 
			 "total_energy": -1564.11501023, 
			 "HOMO_LUMO_gap": 0.2058, 
			 "cosmo_polarized_energy": -18.09, 
			 "cosmo_cavitation_energy": 35.04, 
			 "cosmo_dispersion_energy": -25.2, 
			 "cosmo_repulsion_energy": 1.94, 
			 "cosmo_total_nonelectrostatic_energy": 11.78, 
			 "SMD_solvation_energy": 5.85 
		},
		"coords": [
			{
				"x": 0.4906814763,
				"y": -4.096636177,
				"z": -1.496995891,
				"element": "C" 
			},
			{
				"x": -0.3136450401,
				"y": -3.069297251,
				"z": -2.0558788002,
				"element": "O" 
			},
			{
				"x": -0.7784292949,
				"y": -2.1221687874,
				"z": -1.1162094102,
				"element": "C" 
			},
			{
				"x": 0.2583028444,
				"y": -1.0253419175,
				"z": -0.8808834469,
				"element": "C" 
			},
			{
				"x": -0.3395738763,
				"y": -0.0691353532,
				"z": 0.0276490875,
				"element": "O" 
			},
			{
				"x": 0.4934997311,
				"y": 0.9345894016,
				"z": 0.4606375918,
				"element": "C" 
			},
			{
				"x": 0.9858766679,
				"y": 0.9028559507,
				"z": 1.7736493829,
				"element": "C" 
			},
			{
				"x": 1.7710401688,
				"y": 1.940086969,
				"z": 2.2750490311,
				"element": "C" 
			},
			{
				"x": 2.073194406,
				"y": 3.014197294,
				"z": 1.4397158631,
				"element": "C" 
			},
			{
				"x": 3.062538554,
				"y": 4.3276932192,
				"z": 2.0483986727,
				"element": "Cl" 
			},
			{
				"x": 1.596196511,
				"y": 3.0630287,
				"z": 0.1286041673,
				"element": "C" 
			},
			{
				"x": 0.801880178,
				"y": 2.0241848302,
				"z": -0.3557336325,
				"element": "C" 
			},
			{
				"x": 0.6373638695,
				"y": -0.515264449,
				"z": 2.8318615171,
				"element": "S" 
			},
			{
				"x": -1.0315679008,
				"y": -0.635890598,
				"z": 2.9031325209,
				"element": "N" 
			},
			{
				"x": 1.0878346972,
				"y": -0.1693734699,
				"z": 4.1790092214,
				"element": "O" 
			},
			{
				"x": 1.1186931943,
				"y": -1.7089294907,
				"z": 2.1366168246,
				"element": "O" 
			},
			{
				"x": 1.4192512199,
				"y": -3.7146876109,
				"z": -1.050831583,
				"element": "H" 
			},
			{
				"x": 0.7483714672,
				"y": -4.7737632534,
				"z": -2.3145762857,
				"element": "H" 
			},
			{
				"x": -0.0559289574,
				"y": -4.6590160248,
				"z": -0.7259266769,
				"element": "H" 
			},
			{
				"x": -1.6887744701,
				"y": -1.6753769807,
				"z": -1.5307231435,
				"element": "H" 
			},
			{
				"x": -1.0334776381,
				"y": -2.5957179077,
				"z": -0.1563066181,
				"element": "H" 
			},
			{
				"x": 1.1669317972,
				"y": -1.4278705401,
				"z": -0.4243037456,
				"element": "H" 
			},
			{
				"x": 0.5086753228,
				"y": -0.5348040252,
				"z": -1.8288060462,
				"element": "H" 
			},
			{
				"x": 2.1332854848,
				"y": 1.8942663199,
				"z": 3.2954817122,
				"element": "H" 
			},
			{
				"x": 1.8360151181,
				"y": 3.9111942831,
				"z": -0.5028830691,
				"element": "H" 
			},
			{
				"x": 0.4053956393,
				"y": 2.0588913164,
				"z": -1.3653047524,
				"element": "H" 
			},
			{
				"x": -1.429251408,
				"y": -0.68451873,
				"z": 1.9674442708,
				"element": "H" 
			},
			{
				"x": -1.4347797619,
				"y": 0.1053042825,
				"z": 3.468813238,
				"element": "H" 
			}
		],
		 "valence_orbital": [ 
			{
				"type": "occ",
				"energy": -0.30861,
				"method": "rhf"
			},
			{
				"type": "occ",
				"energy": -0.29873,
				"method": "rhf"
			},
			{
				"type": "occ",
				"energy": -0.28514,
				"method": "rhf"
			},
			{
				"type": "occ",
				"energy": -0.26602,
				"method": "rhf"
			},
			{
				"type": "occ",
				"energy": -0.25716,
				"method": "rhf"
			},
			{
				"type": "unocc",
				"energy": -0.05136,
				"method": "rhf"
			},
			{
				"type": "unocc",
				"energy": -0.03555,
				"method": "rhf"
			},
			{
				"type": "unocc",
				"energy": 0.01054,
				"method": "rhf"
			},
			{
				"type": "unocc",
				"energy": 0.05425,
				"method": "rhf"
			},
			{
				"type": "unocc",
				"energy": 0.06129,
				"method": "rhf"
			}
		],
		"cosmo_sigma_profile": { 
			"-0.025": 0.0,
			"-0.024": 0.0,
			"-0.023": 0.0,
			"-0.022": 0.0,
			"-0.021": 0.0,
			"-0.02": 0.0,
			"-0.019": 0.0,
			"-0.018": 0.0,
			"-0.017": 0.0,
			"-0.016": 0.284916562819,
			"-0.015": 1.45912807726,
			"-0.014": 1.51150947621,
			"-0.013": 1.14760413703,
			"-0.012": 2.73624762103,
			"-0.011": 1.66921043112,
			"-0.01": 1.67291114886,
			"-0.009": 2.93159884506,
			"-0.008": 5.28403316012,
			"-0.007": 7.49886700452,
			"-0.006": 10.435950493,
			"-0.005": 15.993131212,
			"-0.004": 21.3014927664,
			"-0.003": 23.3586690513,
			"-0.002": 25.3732759752,
			"-0.001": 19.1324130746,
			"0.0": 23.4580589093,
			"0.001": 20.6859802657,
			"0.002": 14.0308101542,
			"0.003": 12.600129373,
			"0.004": 13.5369756987,
			"0.005": 6.44948958339,
			"0.006": 5.49797276661,
			"0.007": 6.39011358384,
			"0.008": 5.94129991765,
			"0.009": 6.64746077162,
			"0.01": 7.2460283722,
			"0.011": 9.61685979571,
			"0.012": 4.6404511017,
			"0.013": 1.55234026067,
			"0.014": 0.0934926242194,
			"0.015": 0.0,
			"0.016": 0.0,
			"0.017": 0.0,
			"0.018": 0.0,
			"0.019": 0.0,
			"0.02": 0.0,
			"0.021": 0.0,
			"0.022": 0.0,
			"0.023": 0.0,
			"0.024": 0.0,
			"0.025": 0.0
		}
	}
}
