{
	 "smiles": "ClCC(=O)N(C1CCS(=O)(=O)C1)C1CCCCC1", 
	 "Tm": 436.15, 
	 "num_atms": 38, 
	 "gaussian": { 
		 "optdone": 1, 
		 "sigma_profile": "yes", 
		 "theory": "DFT", 
		 "functional": "B3LYP", 
		 "basiset": "6-31G**", 
		 "properties": { 
			 "R2extent": 6773.351, 
			 "electric_dipole_moment_norm": 6.42491829831, 
			 "electric_quadrupole_moment_norm": 33.1320863447, 
			 "total_energy": -1608.08521778, 
			 "HOMO_LUMO_gap": 0.22376, 
			 "cosmo_polarized_energy": -20.13, 
			 "cosmo_cavitation_energy": 39.37, 
			 "cosmo_dispersion_energy": -27.91, 
			 "cosmo_repulsion_energy": 2.11, 
			 "cosmo_total_nonelectrostatic_energy": 13.57, 
			 "SMD_solvation_energy": 4.77 
		},
		"coords": [
			{
				"x": 1.1138351195,
				"y": -3.249376062,
				"z": -1.4976176368,
				"element": "Cl" 
			},
			{
				"x": 2.1650204888,
				"y": -1.7678743327,
				"z": -1.5567021869,
				"element": "C" 
			},
			{
				"x": 1.3718576797,
				"y": -0.4847142942,
				"z": -1.8190404571,
				"element": "C" 
			},
			{
				"x": 1.4794941686,
				"y": 0.0439863758,
				"z": -2.9262653078,
				"element": "O" 
			},
			{
				"x": 0.602426938,
				"y": 0.0571913788,
				"z": -0.8282558674,
				"element": "N" 
			},
			{
				"x": -0.1175265236,
				"y": 1.3056423055,
				"z": -1.1444711471,
				"element": "C" 
			},
			{
				"x": -1.137215069,
				"y": 1.164296311,
				"z": -2.3393150217,
				"element": "C" 
			},
			{
				"x": -0.8104700625,
				"y": 2.1860922666,
				"z": -3.4330171905,
				"element": "C" 
			},
			{
				"x": -0.1048044005,
				"y": 3.589248894,
				"z": -2.5181815329,
				"element": "S" 
			},
			{
				"x": 0.7794713416,
				"y": 4.4158486687,
				"z": -3.3505838446,
				"element": "O" 
			},
			{
				"x": -1.1824414295,
				"y": 4.2099952,
				"z": -1.7243228479,
				"element": "O" 
			},
			{
				"x": 0.8352388444,
				"y": 2.495277179,
				"z": -1.4078697755,
				"element": "C" 
			},
			{
				"x": 0.4071656956,
				"y": -0.5384762965,
				"z": 0.5124725069,
				"element": "C" 
			},
			{
				"x": 0.8844825202,
				"y": 0.3988618736,
				"z": 1.6689960706,
				"element": "C" 
			},
			{
				"x": -0.2659548798,
				"y": 0.9096933614,
				"z": 2.5494520315,
				"element": "C" 
			},
			{
				"x": -1.071450702,
				"y": -0.2510445822,
				"z": 3.1697200594,
				"element": "C" 
			},
			{
				"x": -1.2456509791,
				"y": -1.4410839862,
				"z": 2.1883474278,
				"element": "C" 
			},
			{
				"x": -1.0445288864,
				"y": -1.0182172911,
				"z": 0.7257256525,
				"element": "C" 
			},
			{
				"x": 2.7397180763,
				"y": -1.7441691915,
				"z": -0.62984118,
				"element": "H" 
			},
			{
				"x": 2.8314984327,
				"y": -1.892880196,
				"z": -2.4067087112,
				"element": "H" 
			},
			{
				"x": -0.6952132502,
				"y": 1.5470820949,
				"z": -0.2542409414,
				"element": "H" 
			},
			{
				"x": -2.1462145871,
				"y": 1.3390829214,
				"z": -1.9579027712,
				"element": "H" 
			},
			{
				"x": -1.098298359,
				"y": 0.1548121371,
				"z": -2.7490829281,
				"element": "H" 
			},
			{
				"x": -0.0313533167,
				"y": 1.8255446133,
				"z": -4.1067162537,
				"element": "H" 
			},
			{
				"x": -1.6768924238,
				"y": 2.5411130557,
				"z": -3.9936871181,
				"element": "H" 
			},
			{
				"x": 1.7328377071,
				"y": 2.1926406687,
				"z": -1.9459802575,
				"element": "H" 
			},
			{
				"x": 1.0885841129,
				"y": 3.0597424091,
				"z": -0.5091392144,
				"element": "H" 
			},
			{
				"x": 1.0260630548,
				"y": -1.4341523399,
				"z": 0.5373885362,
				"element": "H" 
			},
			{
				"x": 1.5862970604,
				"y": -0.1599446182,
				"z": 2.3002229101,
				"element": "H" 
			},
			{
				"x": 1.4562100611,
				"y": 1.235478785,
				"z": 1.2550579865,
				"element": "H" 
			},
			{
				"x": 0.1314645513,
				"y": 1.5576451992,
				"z": 3.3381239299,
				"element": "H" 
			},
			{
				"x": -0.9337242345,
				"y": 1.5438820595,
				"z": 1.9531951605,
				"element": "H" 
			},
			{
				"x": -2.0507501077,
				"y": 0.1244833232,
				"z": 3.4864139338,
				"element": "H" 
			},
			{
				"x": -0.5703739766,
				"y": -0.6008646672,
				"z": 4.0796911856,
				"element": "H" 
			},
			{
				"x": -0.5192530047,
				"y": -2.2299133934,
				"z": 2.4233885613,
				"element": "H" 
			},
			{
				"x": -2.233148713,
				"y": -1.8968803219,
				"z": 2.3118127288,
				"element": "H" 
			},
			{
				"x": -1.7558498118,
				"y": -0.2228502239,
				"z": 0.4720285949,
				"element": "H" 
			},
			{
				"x": -1.2452511353,
				"y": -1.8506992844,
				"z": 0.044404916,
				"element": "H" 
			}
		],
		 "valence_orbital": [ 
			{
				"type": "occ",
				"energy": -0.30418,
				"method": "rhf"
			},
			{
				"type": "occ",
				"energy": -0.28939,
				"method": "rhf"
			},
			{
				"type": "occ",
				"energy": -0.27992,
				"method": "rhf"
			},
			{
				"type": "occ",
				"energy": -0.2707,
				"method": "rhf"
			},
			{
				"type": "occ",
				"energy": -0.25929,
				"method": "rhf"
			},
			{
				"type": "unocc",
				"energy": -0.03553,
				"method": "rhf"
			},
			{
				"type": "unocc",
				"energy": 0.03428,
				"method": "rhf"
			},
			{
				"type": "unocc",
				"energy": 0.0461,
				"method": "rhf"
			},
			{
				"type": "unocc",
				"energy": 0.06271,
				"method": "rhf"
			},
			{
				"type": "unocc",
				"energy": 0.06847,
				"method": "rhf"
			}
		],
		"cosmo_sigma_profile": { 
			"-0.025": 0.0,
			"-0.024": 0.0,
			"-0.023": 0.0,
			"-0.022": 0.0,
			"-0.021": 0.0,
			"-0.02": 0.0,
			"-0.019": 0.0,
			"-0.018": 0.0,
			"-0.017": 0.0,
			"-0.016": 0.0,
			"-0.015": 0.0,
			"-0.014": 0.0,
			"-0.013": 0.0,
			"-0.012": 0.0,
			"-0.011": 0.0,
			"-0.01": 0.327727177014,
			"-0.009": 3.5565944973,
			"-0.008": 9.20835171248,
			"-0.007": 11.9122886749,
			"-0.006": 14.6528271138,
			"-0.005": 19.3369452192,
			"-0.004": 21.1563744329,
			"-0.003": 27.7098959879,
			"-0.002": 32.9728730164,
			"-0.001": 35.3215606979,
			"0.0": 27.5444270156,
			"0.001": 20.3685231383,
			"0.002": 10.126974582,
			"0.003": 7.32394296265,
			"0.004": 9.40165906441,
			"0.005": 9.1180007781,
			"0.006": 5.83119212479,
			"0.007": 2.79461220182,
			"0.008": 3.20560184318,
			"0.009": 3.63850492279,
			"0.01": 5.67462634538,
			"0.011": 11.2588246132,
			"0.012": 11.8190598187,
			"0.013": 4.14016383975,
			"0.014": 0.712554165562,
			"0.015": 0.0,
			"0.016": 0.0,
			"0.017": 0.0,
			"0.018": 0.0,
			"0.019": 0.0,
			"0.02": 0.0,
			"0.021": 0.0,
			"0.022": 0.0,
			"0.023": 0.0,
			"0.024": 0.0,
			"0.025": 0.0
		}
	}
}
