{
	 "smiles": "CCOS(=O)(=O)C1=CC=C(C)C=C1", 
	 "Tm": 306.35, 
	 "num_atms": 25, 
	 "gaussian": { 
		 "optdone": 1, 
		 "sigma_profile": "yes", 
		 "theory": "DFT", 
		 "functional": "B3LYP", 
		 "basiset": "6-31G**", 
		 "properties": { 
			 "R2extent": 3749.2049, 
			 "electric_dipole_moment_norm": 5.82376363875, 
			 "electric_quadrupole_moment_norm": 22.6543746621, 
			 "total_energy": -973.989447763, 
			 "HOMO_LUMO_gap": 0.22418, 
			 "cosmo_polarized_energy": -12.42, 
			 "cosmo_cavitation_energy": 29.93, 
			 "cosmo_dispersion_energy": -22.01, 
			 "cosmo_repulsion_energy": 1.73, 
			 "cosmo_total_nonelectrostatic_energy": 9.65, 
			 "SMD_solvation_energy": 4.43 
		},
		"coords": [
			{
				"x": -0.0555392704,
				"y": -4.116455739,
				"z": -0.9162599043,
				"element": "C" 
			},
			{
				"x": 0.4262940735,
				"y": -3.1162794939,
				"z": 0.1178283687,
				"element": "C" 
			},
			{
				"x": 1.6169925617,
				"y": -2.4870382475,
				"z": -0.4284730859,
				"element": "O" 
			},
			{
				"x": 2.4304859523,
				"y": -1.4379516719,
				"z": 0.5338607526,
				"element": "S" 
			},
			{
				"x": 3.6992447087,
				"y": -1.2392593855,
				"z": -0.1512228192,
				"element": "O" 
			},
			{
				"x": 2.3595928107,
				"y": -1.9145866842,
				"z": 1.9150525495,
				"element": "O" 
			},
			{
				"x": 1.4572062327,
				"y": 0.0540208778,
				"z": 0.4000345307,
				"element": "C" 
			},
			{
				"x": 1.5760480194,
				"y": 0.8445786502,
				"z": -0.7469161917,
				"element": "C" 
			},
			{
				"x": 0.8088637032,
				"y": 2.0001058639,
				"z": -0.8522589795,
				"element": "C" 
			},
			{
				"x": -0.073614166,
				"y": 2.3836815076,
				"z": 0.1711740228,
				"element": "C" 
			},
			{
				"x": -0.8771757072,
				"y": 3.656026163,
				"z": 0.0526471381,
				"element": "C" 
			},
			{
				"x": -0.1682837272,
				"y": 1.5739897136,
				"z": 1.3101704936,
				"element": "C" 
			},
			{
				"x": 0.5920695373,
				"y": 0.4107259573,
				"z": 1.4343447128,
				"element": "C" 
			},
			{
				"x": 0.7111983621,
				"y": -4.871347403,
				"z": -1.1091460909,
				"element": "H" 
			},
			{
				"x": -0.9550918243,
				"y": -4.6201954448,
				"z": -0.548386102,
				"element": "H" 
			},
			{
				"x": -0.2978303687,
				"y": -3.6184157729,
				"z": -1.8589484672,
				"element": "H" 
			},
			{
				"x": -0.3304922563,
				"y": -2.3451989518,
				"z": 0.3087679956,
				"element": "H" 
			},
			{
				"x": 0.6839729029,
				"y": -3.5981224484,
				"z": 1.0644369823,
				"element": "H" 
			},
			{
				"x": 2.2682080239,
				"y": 0.5595075874,
				"z": -1.5318363603,
				"element": "H" 
			},
			{
				"x": 0.897900316,
				"y": 2.6193270767,
				"z": -1.7410125301,
				"element": "H" 
			},
			{
				"x": -0.2530678116,
				"y": 4.5334072854,
				"z": 0.2617234268,
				"element": "H" 
			},
			{
				"x": -1.7123736126,
				"y": 3.6704701436,
				"z": 0.7578936695,
				"element": "H" 
			},
			{
				"x": -1.2805879198,
				"y": 3.7806884622,
				"z": -0.9571756493,
				"element": "H" 
			},
			{
				"x": -0.8416594473,
				"y": 1.8582382925,
				"z": 2.1142551903,
				"element": "H" 
			},
			{
				"x": 0.532738907,
				"y": -0.2063163384,
				"z": 2.3241463469,
				"element": "H" 
			}
		],
		 "valence_orbital": [ 
			{
				"type": "occ",
				"energy": -0.31475,
				"method": "rhf"
			},
			{
				"type": "occ",
				"energy": -0.31012,
				"method": "rhf"
			},
			{
				"type": "occ",
				"energy": -0.3016,
				"method": "rhf"
			},
			{
				"type": "occ",
				"energy": -0.27262,
				"method": "rhf"
			},
			{
				"type": "occ",
				"energy": -0.26474,
				"method": "rhf"
			},
			{
				"type": "unocc",
				"energy": -0.04056,
				"method": "rhf"
			},
			{
				"type": "unocc",
				"energy": -0.02363,
				"method": "rhf"
			},
			{
				"type": "unocc",
				"energy": 0.0519,
				"method": "rhf"
			},
			{
				"type": "unocc",
				"energy": 0.07881,
				"method": "rhf"
			},
			{
				"type": "unocc",
				"energy": 0.09144,
				"method": "rhf"
			}
		],
		"cosmo_sigma_profile": { 
			"-0.025": 0.0,
			"-0.024": 0.0,
			"-0.023": 0.0,
			"-0.022": 0.0,
			"-0.021": 0.0,
			"-0.02": 0.0,
			"-0.019": 0.0,
			"-0.018": 0.0,
			"-0.017": 0.0,
			"-0.016": 0.0,
			"-0.015": 0.0,
			"-0.014": 0.0,
			"-0.013": 0.0,
			"-0.012": 0.0,
			"-0.011": 0.0,
			"-0.01": 0.0,
			"-0.009": 0.0,
			"-0.008": 0.397725653547,
			"-0.007": 3.72765341683,
			"-0.006": 10.9968575479,
			"-0.005": 22.1060438705,
			"-0.004": 26.9373305557,
			"-0.003": 22.2693745293,
			"-0.002": 20.8672830125,
			"-0.001": 22.7964449953,
			"0.0": 20.1943916447,
			"0.001": 14.4381182217,
			"0.002": 14.0950327836,
			"0.003": 14.0388369479,
			"0.004": 4.47127118136,
			"0.005": 3.71509319467,
			"0.006": 4.03006602337,
			"0.007": 3.84008065962,
			"0.008": 4.88304003005,
			"0.009": 7.19071707621,
			"0.01": 10.1964421435,
			"0.011": 6.02325892175,
			"0.012": 0.0431327608964,
			"0.013": 0.0,
			"0.014": 0.0,
			"0.015": 0.0,
			"0.016": 0.0,
			"0.017": 0.0,
			"0.018": 0.0,
			"0.019": 0.0,
			"0.02": 0.0,
			"0.021": 0.0,
			"0.022": 0.0,
			"0.023": 0.0,
			"0.024": 0.0,
			"0.025": 0.0
		}
	}
}
