{
	 "smiles": "OC1=CC2=C(OCCCO2)C=C1", 
	 "Tm": 371.15, 
	 "num_atms": 22, 
	 "gaussian": { 
		 "optdone": 1, 
		 "sigma_profile": "yes", 
		 "theory": "DFT", 
		 "functional": "B3LYP", 
		 "basiset": "6-31G**", 
		 "properties": { 
			 "R2extent": 2147.5202, 
			 "electric_dipole_moment_norm": 1.28364107912, 
			 "electric_quadrupole_moment_norm": 14.6142592518, 
			 "total_energy": -574.625474555, 
			 "HOMO_LUMO_gap": 0.20281, 
			 "cosmo_polarized_energy": -10.8, 
			 "cosmo_cavitation_energy": 24.54, 
			 "cosmo_dispersion_energy": -18.91, 
			 "cosmo_repulsion_energy": 1.51, 
			 "cosmo_total_nonelectrostatic_energy": 7.13, 
			 "SMD_solvation_energy": 4.58 
		},
		"coords": [
			{
				"x": -0.2404864162,
				"y": 2.4508825452,
				"z": 2.4203802494,
				"element": "O" 
			},
			{
				"x": -0.0340673131,
				"y": 1.2942340836,
				"z": 1.7165888361,
				"element": "C" 
			},
			{
				"x": -0.4884309966,
				"y": 1.259385967,
				"z": 0.3972241388,
				"element": "C" 
			},
			{
				"x": -0.3172388861,
				"y": 0.1149118074,
				"z": -0.3823435136,
				"element": "C" 
			},
			{
				"x": 0.3383227141,
				"y": -1.0127235976,
				"z": 0.1587634769,
				"element": "C" 
			},
			{
				"x": 0.5648279399,
				"y": -2.1811437265,
				"z": -0.5427247413,
				"element": "O" 
			},
			{
				"x": 0.9582445674,
				"y": -2.0198905607,
				"z": -1.9106971523,
				"element": "C" 
			},
			{
				"x": -0.2569552727,
				"y": -1.9184967528,
				"z": -2.8373225768,
				"element": "C" 
			},
			{
				"x": -1.3370910232,
				"y": -1.0328448533,
				"z": -2.214666667,
				"element": "C" 
			},
			{
				"x": -0.7912539547,
				"y": 0.1774214593,
				"z": -1.6714212594,
				"element": "O" 
			},
			{
				"x": 0.7730186031,
				"y": -0.9657201429,
				"z": 1.4827142894,
				"element": "C" 
			},
			{
				"x": 0.5860674605,
				"y": 0.1698179484,
				"z": 2.2697179824,
				"element": "C" 
			},
			{
				"x": 0.102746694,
				"y": 2.3363186355,
				"z": 3.3155756559,
				"element": "H" 
			},
			{
				"x": -0.9929062905,
				"y": 2.11848129,
				"z": -0.0297470023,
				"element": "H" 
			},
			{
				"x": 1.5902455515,
				"y": -1.1291818152,
				"z": -2.0068846289,
				"element": "H" 
			},
			{
				"x": 1.5666217574,
				"y": -2.895579386,
				"z": -2.1559219771,
				"element": "H" 
			},
			{
				"x": -0.6869643354,
				"y": -2.9099112998,
				"z": -3.0241498501,
				"element": "H" 
			},
			{
				"x": 0.0669884284,
				"y": -1.5147375043,
				"z": -3.8039300754,
				"element": "H" 
			},
			{
				"x": -1.8722189102,
				"y": -1.5766519618,
				"z": -1.4281721367,
				"element": "H" 
			},
			{
				"x": -2.0660249256,
				"y": -0.7165756096,
				"z": -2.9662311291,
				"element": "H" 
			},
			{
				"x": 1.2739927767,
				"y": -1.8418286158,
				"z": 1.8815839688,
				"element": "H" 
			},
			{
				"x": 0.9378618312,
				"y": 0.1836320901,
				"z": 3.2985641122,
				"element": "H" 
			}
		],
		 "valence_orbital": [ 
			{
				"type": "occ",
				"energy": -0.31965,
				"method": "rhf"
			},
			{
				"type": "occ",
				"energy": -0.29127,
				"method": "rhf"
			},
			{
				"type": "occ",
				"energy": -0.27986,
				"method": "rhf"
			},
			{
				"type": "occ",
				"energy": -0.22788,
				"method": "rhf"
			},
			{
				"type": "occ",
				"energy": -0.19706,
				"method": "rhf"
			},
			{
				"type": "unocc",
				"energy": 0.00575,
				"method": "rhf"
			},
			{
				"type": "unocc",
				"energy": 0.02671,
				"method": "rhf"
			},
			{
				"type": "unocc",
				"energy": 0.07445,
				"method": "rhf"
			},
			{
				"type": "unocc",
				"energy": 0.08004,
				"method": "rhf"
			},
			{
				"type": "unocc",
				"energy": 0.10625,
				"method": "rhf"
			}
		],
		"cosmo_sigma_profile": { 
			"-0.025": 0.0,
			"-0.024": 0.0,
			"-0.023": 0.0,
			"-0.022": 0.0,
			"-0.021": 0.0,
			"-0.02": 0.0,
			"-0.019": 0.0,
			"-0.018": 0.344874306999,
			"-0.017": 1.0062892397,
			"-0.016": 0.762326331856,
			"-0.015": 1.65889408531,
			"-0.014": 0.769946601769,
			"-0.013": 0.517733783783,
			"-0.012": 0.680257984572,
			"-0.011": 0.969894857208,
			"-0.01": 1.81188140591,
			"-0.009": 0.82163059576,
			"-0.008": 0.709542193292,
			"-0.007": 1.60755838125,
			"-0.006": 6.60582404307,
			"-0.005": 13.1378101827,
			"-0.004": 23.124454626,
			"-0.003": 20.4546859976,
			"-0.002": 14.5204637565,
			"-0.001": 10.3432025192,
			"0.0": 7.98996207443,
			"0.001": 8.37422805013,
			"0.002": 8.04913159321,
			"0.003": 11.6200542475,
			"0.004": 14.8479904799,
			"0.005": 14.6953571876,
			"0.006": 7.11803776177,
			"0.007": 3.15294232132,
			"0.008": 3.43703913869,
			"0.009": 4.0439420612,
			"0.01": 4.4666935566,
			"0.011": 3.88483430401,
			"0.012": 2.20574302818,
			"0.013": 0.0,
			"0.014": 0.0,
			"0.015": 0.0,
			"0.016": 0.0,
			"0.017": 0.0,
			"0.018": 0.0,
			"0.019": 0.0,
			"0.02": 0.0,
			"0.021": 0.0,
			"0.022": 0.0,
			"0.023": 0.0,
			"0.024": 0.0,
			"0.025": 0.0
		}
	}
}
