{
	 "smiles": "CCC(=N/OCC=CCl)C1=C(O)CC(CC1=O)C1CCOCC1", 
	 "Tm": 347.15, 
	 "num_atms": 47, 
	 "gaussian": { 
		 "optdone": 1, 
		 "sigma_profile": "yes", 
		 "theory": "DFT", 
		 "functional": "B3LYP", 
		 "basiset": "6-31G**", 
		 "properties": { 
			 "R2extent": 13172.4355, 
			 "electric_dipole_moment_norm": 5.6013466604, 
			 "electric_quadrupole_moment_norm": 14.6186755187, 
			 "total_energy": -1478.00906536, 
			 "HOMO_LUMO_gap": 0.18412, 
			 "cosmo_polarized_energy": -24.26, 
			 "cosmo_cavitation_energy": 49.96, 
			 "cosmo_dispersion_energy": -34.0, 
			 "cosmo_repulsion_energy": 2.68, 
			 "cosmo_total_nonelectrostatic_energy": 18.64, 
			 "SMD_solvation_energy": 8.57 
		},
		"coords": [
			{
				"x": -2.3152786721,
				"y": 2.8144656322,
				"z": 2.1076325566,
				"element": "C" 
			},
			{
				"x": -2.6567781079,
				"y": 2.470171083,
				"z": 0.6457914876,
				"element": "C" 
			},
			{
				"x": -1.4096778233,
				"y": 2.2275151229,
				"z": -0.1748248053,
				"element": "C" 
			},
			{
				"x": -0.6862983646,
				"y": 3.1471927267,
				"z": -0.7049589173,
				"element": "N" 
			},
			{
				"x": -1.1982213482,
				"y": 4.4344722698,
				"z": -0.4399023414,
				"element": "O" 
			},
			{
				"x": -0.288358352,
				"y": 5.395035497,
				"z": -0.9820066993,
				"element": "C" 
			},
			{
				"x": 0.9657658189,
				"y": 5.5043304101,
				"z": -0.1588201915,
				"element": "C" 
			},
			{
				"x": 1.3832959768,
				"y": 6.6545986644,
				"z": 0.3597510023,
				"element": "C" 
			},
			{
				"x": 2.8553383148,
				"y": 6.8112002749,
				"z": 1.2996054575,
				"element": "Cl" 
			},
			{
				"x": -0.9091904086,
				"y": 0.8359785367,
				"z": -0.3648831571,
				"element": "C" 
			},
			{
				"x": 0.3206794876,
				"y": 0.4355887313,
				"z": 0.0571688407,
				"element": "C" 
			},
			{
				"x": 1.1588966594,
				"y": 1.3216666169,
				"z": 0.6439767751,
				"element": "O" 
			},
			{
				"x": 0.8463466859,
				"y": -0.9704460318,
				"z": -0.0914902408,
				"element": "C" 
			},
			{
				"x": -0.263007087,
				"y": -2.0226917155,
				"z": -0.2629039467,
				"element": "C" 
			},
			{
				"x": -1.2263899386,
				"y": -1.5145249896,
				"z": -1.3461598804,
				"element": "C" 
			},
			{
				"x": -1.7850797902,
				"y": -0.1239614602,
				"z": -1.0611419824,
				"element": "C" 
			},
			{
				"x": -2.907992426,
				"y": 0.184419272,
				"z": -1.4453415281,
				"element": "O" 
			},
			{
				"x": 0.2935369861,
				"y": -3.4338299187,
				"z": -0.5960512554,
				"element": "C" 
			},
			{
				"x": -0.8092103456,
				"y": -4.5304273394,
				"z": -0.5309293432,
				"element": "C" 
			},
			{
				"x": -0.8324069268,
				"y": -5.2244563391,
				"z": 0.8491545574,
				"element": "C" 
			},
			{
				"x": -0.408426251,
				"y": -4.3365400797,
				"z": 1.8762562592,
				"element": "O" 
			},
			{
				"x": 0.983787311,
				"y": -4.049213245,
				"z": 1.7800230689,
				"element": "C" 
			},
			{
				"x": 1.4509517432,
				"y": -3.8905352672,
				"z": 0.3178178846,
				"element": "C" 
			},
			{
				"x": -3.2309180993,
				"y": 2.9755033055,
				"z": 2.6857665801,
				"element": "H" 
			},
			{
				"x": -1.7541752323,
				"y": 2.0050932028,
				"z": 2.5865975595,
				"element": "H" 
			},
			{
				"x": -1.712031759,
				"y": 3.7244584122,
				"z": 2.1581426361,
				"element": "H" 
			},
			{
				"x": -3.2874913783,
				"y": 1.5808351427,
				"z": 0.5957392133,
				"element": "H" 
			},
			{
				"x": -3.2141377815,
				"y": 3.2967761646,
				"z": 0.1962437658,
				"element": "H" 
			},
			{
				"x": -0.8403154689,
				"y": 6.3394130648,
				"z": -0.9979006185,
				"element": "H" 
			},
			{
				"x": -0.0435302173,
				"y": 5.1105230647,
				"z": -2.0134108615,
				"element": "H" 
			},
			{
				"x": 1.520622743,
				"y": 4.5827667668,
				"z": -0.0059402307,
				"element": "H" 
			},
			{
				"x": 0.8617635152,
				"y": 7.5990456443,
				"z": 0.2487758288,
				"element": "H" 
			},
			{
				"x": 1.9458026081,
				"y": 0.8599973181,
				"z": 0.9630070471,
				"element": "H" 
			},
			{
				"x": 1.5305373895,
				"y": -0.9981866519,
				"z": -0.9549121742,
				"element": "H" 
			},
			{
				"x": 1.4568155156,
				"y": -1.1966621972,
				"z": 0.7932283415,
				"element": "H" 
			},
			{
				"x": -0.8101212658,
				"y": -2.0892681282,
				"z": 0.6855243515,
				"element": "H" 
			},
			{
				"x": -2.0842773206,
				"y": -2.1735971966,
				"z": -1.4954200151,
				"element": "H" 
			},
			{
				"x": -0.6954480954,
				"y": -1.4627282176,
				"z": -2.309651278,
				"element": "H" 
			},
			{
				"x": 0.678586807,
				"y": -3.38765138,
				"z": -1.624067345,
				"element": "H" 
			},
			{
				"x": -1.7897884142,
				"y": -4.0938467019,
				"z": -0.7392878546,
				"element": "H" 
			},
			{
				"x": -0.6344254203,
				"y": -5.2836676416,
				"z": -1.3082730317,
				"element": "H" 
			},
			{
				"x": -1.8443046205,
				"y": -5.5411196758,
				"z": 1.1153631501,
				"element": "H" 
			},
			{
				"x": -0.1981736278,
				"y": -6.1259535967,
				"z": 0.8455039451,
				"element": "H" 
			},
			{
				"x": 1.5691475152,
				"y": -4.8378385724,
				"z": 2.2807557424,
				"element": "H" 
			},
			{
				"x": 1.1294102618,
				"y": -3.123603164,
				"z": 2.3472528168,
				"element": "H" 
			},
			{
				"x": 2.3080142726,
				"y": -3.2106228741,
				"z": 0.2712218705,
				"element": "H" 
			},
			{
				"x": 1.8150549312,
				"y": -4.8522745401,
				"z": -0.0627230404,
				"element": "H" 
			}
		],
		 "valence_orbital": [ 
			{
				"type": "occ",
				"energy": -0.25484,
				"method": "rhf"
			},
			{
				"type": "occ",
				"energy": -0.2541,
				"method": "rhf"
			},
			{
				"type": "occ",
				"energy": -0.24901,
				"method": "rhf"
			},
			{
				"type": "occ",
				"energy": -0.23743,
				"method": "rhf"
			},
			{
				"type": "occ",
				"energy": -0.22275,
				"method": "rhf"
			},
			{
				"type": "unocc",
				"energy": -0.03863,
				"method": "rhf"
			},
			{
				"type": "unocc",
				"energy": 0.00101,
				"method": "rhf"
			},
			{
				"type": "unocc",
				"energy": 0.00815,
				"method": "rhf"
			},
			{
				"type": "unocc",
				"energy": 0.04133,
				"method": "rhf"
			},
			{
				"type": "unocc",
				"energy": 0.04362,
				"method": "rhf"
			}
		],
		"cosmo_sigma_profile": { 
			"-0.025": 0.0,
			"-0.024": 0.0,
			"-0.023": 0.0,
			"-0.022": 0.0,
			"-0.021": 0.0,
			"-0.02": 0.0,
			"-0.019": 0.375173850767,
			"-0.018": 1.45516966286,
			"-0.017": 0.633072366794,
			"-0.016": 1.28195513747,
			"-0.015": 0.952252816628,
			"-0.014": 1.24638153079,
			"-0.013": 0.802468880255,
			"-0.012": 0.984058911166,
			"-0.011": 1.26756454599,
			"-0.01": 0.698986059418,
			"-0.009": 2.92493476354,
			"-0.008": 4.60559238386,
			"-0.007": 5.84235137922,
			"-0.006": 11.757351271,
			"-0.005": 18.5275421788,
			"-0.004": 25.2831938092,
			"-0.003": 44.634565737,
			"-0.002": 46.1181321986,
			"-0.001": 41.5311722616,
			"0.0": 30.3880854685,
			"0.001": 23.7683056997,
			"0.002": 17.819477354,
			"0.003": 18.776642996,
			"0.004": 18.2928738425,
			"0.005": 20.6703745076,
			"0.006": 9.71668214268,
			"0.007": 7.49958669286,
			"0.008": 7.23654992199,
			"0.009": 5.37590122447,
			"0.01": 4.27636321389,
			"0.011": 3.60947621669,
			"0.012": 4.64213312754,
			"0.013": 6.16684048136,
			"0.014": 3.04864308685,
			"0.015": 0.364858992329,
			"0.016": 0.0,
			"0.017": 0.0,
			"0.018": 0.0,
			"0.019": 0.0,
			"0.02": 0.0,
			"0.021": 0.0,
			"0.022": 0.0,
			"0.023": 0.0,
			"0.024": 0.0,
			"0.025": 0.0
		}
	}
}
