{
	 "smiles": "OC(=O)C1=CN(C2CC2)C2=CC(Cl)=C(F)C=C2C1=O", 
	 "Tm": 515.15, 
	 "num_atms": 28, 
	 "gaussian": { 
		 "optdone": 1, 
		 "sigma_profile": "yes", 
		 "theory": "DFT", 
		 "functional": "B3LYP", 
		 "basiset": "6-31G**", 
		 "properties": { 
			 "R2extent": 6576.2524, 
			 "electric_dipole_moment_norm": 7.67476347583, 
			 "electric_quadrupole_moment_norm": 32.5092112963, 
			 "total_energy": -1341.25585037, 
			 "HOMO_LUMO_gap": 0.16483, 
			 "cosmo_polarized_energy": -18.64, 
			 "cosmo_cavitation_energy": 34.36, 
			 "cosmo_dispersion_energy": -24.99, 
			 "cosmo_repulsion_energy": 1.87, 
			 "cosmo_total_nonelectrostatic_energy": 11.24, 
			 "SMD_solvation_energy": 7.06 
		},
		"coords": [
			{
				"x": -1.3157637078,
				"y": -5.2897208777,
				"z": -0.0050357953,
				"element": "O" 
			},
			{
				"x": -1.920933909,
				"y": -4.1272669349,
				"z": 0.2469446167,
				"element": "C" 
			},
			{
				"x": -3.0961297401,
				"y": -4.0492413029,
				"z": 0.5506126254,
				"element": "O" 
			},
			{
				"x": -1.0487172462,
				"y": -2.9106870673,
				"z": 0.1282886718,
				"element": "C" 
			},
			{
				"x": -1.6319478202,
				"y": -1.6971258622,
				"z": 0.3772956736,
				"element": "C" 
			},
			{
				"x": -0.9874189996,
				"y": -0.5053992841,
				"z": 0.2946482128,
				"element": "N" 
			},
			{
				"x": -1.6889063659,
				"y": 0.7224037653,
				"z": 0.6296885192,
				"element": "C" 
			},
			{
				"x": -3.1037252154,
				"y": 0.9221848715,
				"z": 0.1587349745,
				"element": "C" 
			},
			{
				"x": -1.9908020991,
				"y": 1.7330367275,
				"z": -0.4512539212,
				"element": "C" 
			},
			{
				"x": 0.3819693884,
				"y": -0.4789985115,
				"z": -0.0091851911,
				"element": "C" 
			},
			{
				"x": 1.0953422953,
				"y": 0.7336116987,
				"z": -0.040552898,
				"element": "C" 
			},
			{
				"x": 2.44810239,
				"y": 0.7292480091,
				"z": -0.3439781632,
				"element": "C" 
			},
			{
				"x": 3.3422024507,
				"y": 2.2222783665,
				"z": -0.3846858042,
				"element": "Cl" 
			},
			{
				"x": 3.1104844744,
				"y": -0.4794712065,
				"z": -0.6207100892,
				"element": "C" 
			},
			{
				"x": 4.4167051942,
				"y": -0.4598907983,
				"z": -0.913365196,
				"element": "F" 
			},
			{
				"x": 2.4240512669,
				"y": -1.6732920168,
				"z": -0.5873796472,
				"element": "C" 
			},
			{
				"x": 1.0550361102,
				"y": -1.6936707294,
				"z": -0.2788330392,
				"element": "C" 
			},
			{
				"x": 0.3501000899,
				"y": -2.986502111,
				"z": -0.2307307462,
				"element": "C" 
			},
			{
				"x": 0.9404154854,
				"y": -4.0600579867,
				"z": -0.4771018394,
				"element": "O" 
			},
			{
				"x": -0.3642763982,
				"y": -5.1058256074,
				"z": -0.232871053,
				"element": "H" 
			},
			{
				"x": -2.6787605628,
				"y": -1.6679940203,
				"z": 0.6550866241,
				"element": "H" 
			},
			{
				"x": -1.4301242481,
				"y": 1.1042563109,
				"z": 1.6151244623,
				"element": "H" 
			},
			{
				"x": -3.5541942214,
				"y": 0.1528694001,
				"z": -0.4595264596,
				"element": "H" 
			},
			{
				"x": -3.7905968279,
				"y": 1.401049169,
				"z": 0.8485122719,
				"element": "H" 
			},
			{
				"x": -1.900504661,
				"y": 2.7849864469,
				"z": -0.1990471936,
				"element": "H" 
			},
			{
				"x": -1.6924566754,
				"y": 1.4807721815,
				"z": -1.4637322978,
				"element": "H" 
			},
			{
				"x": 0.6063053284,
				"y": 1.6746676362,
				"z": 0.1677887868,
				"element": "H" 
			},
			{
				"x": 2.9277442243,
				"y": -2.6109202661,
				"z": -0.7934361048,
				"element": "H" 
			}
		],
		 "valence_orbital": [ 
			{
				"type": "occ",
				"energy": -0.28683,
				"method": "rhf"
			},
			{
				"type": "occ",
				"energy": -0.27533,
				"method": "rhf"
			},
			{
				"type": "occ",
				"energy": -0.27355,
				"method": "rhf"
			},
			{
				"type": "occ",
				"energy": -0.25996,
				"method": "rhf"
			},
			{
				"type": "occ",
				"energy": -0.24435,
				"method": "rhf"
			},
			{
				"type": "unocc",
				"energy": -0.07952,
				"method": "rhf"
			},
			{
				"type": "unocc",
				"energy": -0.05694,
				"method": "rhf"
			},
			{
				"type": "unocc",
				"energy": -0.01934,
				"method": "rhf"
			},
			{
				"type": "unocc",
				"energy": 0.00205,
				"method": "rhf"
			},
			{
				"type": "unocc",
				"energy": 0.02249,
				"method": "rhf"
			}
		],
		"cosmo_sigma_profile": { 
			"-0.025": 0.0,
			"-0.024": 0.0,
			"-0.023": 0.0,
			"-0.022": 0.0,
			"-0.021": 0.0,
			"-0.02": 0.0,
			"-0.019": 0.0,
			"-0.018": 0.0,
			"-0.017": 0.0,
			"-0.016": 0.0,
			"-0.015": 0.0,
			"-0.014": 0.0,
			"-0.013": 0.0,
			"-0.012": 0.0,
			"-0.011": 0.0,
			"-0.01": 0.0,
			"-0.009": 0.260451551037,
			"-0.008": 6.23300057713,
			"-0.007": 12.7483372679,
			"-0.006": 17.6649929807,
			"-0.005": 17.3871895449,
			"-0.004": 19.4551686862,
			"-0.003": 21.2501483614,
			"-0.002": 29.0767496673,
			"-0.001": 30.4038556113,
			"0.0": 21.2297469577,
			"0.001": 12.3027620038,
			"0.002": 14.6245489012,
			"0.003": 22.5163212702,
			"0.004": 11.0395338482,
			"0.005": 3.98620638047,
			"0.006": 2.73413563339,
			"0.007": 3.31867099883,
			"0.008": 4.44738279782,
			"0.009": 3.82684029942,
			"0.01": 5.49776741217,
			"0.011": 6.3588569191,
			"0.012": 7.40194545539,
			"0.013": 3.53457444217,
			"0.014": 1.33767777063,
			"0.015": 0.0282567966335,
			"0.016": 0.0,
			"0.017": 0.0,
			"0.018": 0.0,
			"0.019": 0.0,
			"0.02": 0.0,
			"0.021": 0.0,
			"0.022": 0.0,
			"0.023": 0.0,
			"0.024": 0.0,
			"0.025": 0.0
		}
	}
}
