{
	 "smiles": "OC(=O)C1=C(Br)C=CC=C1F", 
	 "Tm": 427.15, 
	 "num_atms": 15, 
	 "gaussian": { 
		 "optdone": 1, 
		 "sigma_profile": "yes", 
		 "theory": "DFT", 
		 "functional": "B3LYP", 
		 "basiset": "6-31G**", 
		 "properties": { 
			 "R2extent": 5367.491, 
			 "electric_dipole_moment_norm": 5.52050624037, 
			 "electric_quadrupole_moment_norm": 19.9380431873, 
			 "total_energy": -3090.83854588, 
			 "HOMO_LUMO_gap": 0.19581, 
			 "cosmo_polarized_energy": -12.67, 
			 "cosmo_cavitation_energy": 22.23, 
			 "cosmo_dispersion_energy": -17.07, 
			 "cosmo_repulsion_energy": 1.34, 
			 "cosmo_total_nonelectrostatic_energy": 6.5, 
			 "SMD_solvation_energy": 4.34 
		},
		"coords": [
			{
				"x": -2.9734636088,
				"y": 1.0761704701,
				"z": -2.7437637592,
				"element": "O" 
			},
			{
				"x": -1.7904493235,
				"y": 0.5821248773,
				"z": -3.169154211,
				"element": "C" 
			},
			{
				"x": -1.7129654735,
				"y": 0.0308225265,
				"z": -4.2379385442,
				"element": "O" 
			},
			{
				"x": -0.5974756069,
				"y": 0.7703410273,
				"z": -2.2541991677,
				"element": "C" 
			},
			{
				"x": 0.7275187622,
				"y": 0.8532731525,
				"z": -2.734891065,
				"element": "C" 
			},
			{
				"x": 1.1492110426,
				"y": 0.8922273734,
				"z": -4.5898005656,
				"element": "Br" 
			},
			{
				"x": 1.8118720572,
				"y": 0.9567873569,
				"z": -1.8613317664,
				"element": "C" 
			},
			{
				"x": 1.6092764075,
				"y": 0.9680032166,
				"z": -0.4831170555,
				"element": "C" 
			},
			{
				"x": 0.3187833207,
				"y": 0.8963847213,
				"z": 0.0349050215,
				"element": "C" 
			},
			{
				"x": -0.7352333712,
				"y": 0.807755822,
				"z": -0.8583526894,
				"element": "C" 
			},
			{
				"x": -1.9893852246,
				"y": 0.7619234387,
				"z": -0.3225816581,
				"element": "F" 
			},
			{
				"x": -2.9154784334,
				"y": 1.379814101,
				"z": -1.8261819415,
				"element": "H" 
			},
			{
				"x": 2.8121854171,
				"y": 1.028548693,
				"z": -2.270388129,
				"element": "H" 
			},
			{
				"x": 2.4600707229,
				"y": 1.0403181595,
				"z": 0.186722753,
				"element": "H" 
			},
			{
				"x": 0.1149333117,
				"y": 0.909305064,
				"z": 1.0992727778,
				"element": "H" 
			}
		],
		 "valence_orbital": [ 
			{
				"type": "occ",
				"energy": -0.32039,
				"method": "rhf"
			},
			{
				"type": "occ",
				"energy": -0.3014,
				"method": "rhf"
			},
			{
				"type": "occ",
				"energy": -0.28344,
				"method": "rhf"
			},
			{
				"type": "occ",
				"energy": -0.26776,
				"method": "rhf"
			},
			{
				"type": "occ",
				"energy": -0.2605,
				"method": "rhf"
			},
			{
				"type": "unocc",
				"energy": -0.06469,
				"method": "rhf"
			},
			{
				"type": "unocc",
				"energy": -0.03435,
				"method": "rhf"
			},
			{
				"type": "unocc",
				"energy": -0.00715,
				"method": "rhf"
			},
			{
				"type": "unocc",
				"energy": 0.03114,
				"method": "rhf"
			},
			{
				"type": "unocc",
				"energy": 0.07533,
				"method": "rhf"
			}
		],
		"cosmo_sigma_profile": { 
			"-0.025": 0.0,
			"-0.024": 0.0,
			"-0.023": 0.0,
			"-0.022": 0.0,
			"-0.021": 0.0,
			"-0.02": 0.0,
			"-0.019": 0.0,
			"-0.018": 0.0,
			"-0.017": 0.0,
			"-0.016": 0.0761667304235,
			"-0.015": 0.754151292513,
			"-0.014": 1.3199802075,
			"-0.013": 0.505451837034,
			"-0.012": 0.814790827746,
			"-0.011": 1.50345897329,
			"-0.01": 0.51464793513,
			"-0.009": 1.86649559512,
			"-0.008": 5.9792286032,
			"-0.007": 8.53715447955,
			"-0.006": 8.56732635184,
			"-0.005": 7.66743424889,
			"-0.004": 9.40817233956,
			"-0.003": 10.3781591189,
			"-0.002": 11.6846113773,
			"-0.001": 16.5463372748,
			"0.0": 16.0815658651,
			"0.001": 17.5633808126,
			"0.002": 13.1600552102,
			"0.003": 9.22165092892,
			"0.004": 8.95713335063,
			"0.005": 3.45666589702,
			"0.006": 2.76249581067,
			"0.007": 3.0345322447,
			"0.008": 3.02359978637,
			"0.009": 4.13617641067,
			"0.01": 5.44726425974,
			"0.011": 5.71316833647,
			"0.012": 3.64166502914,
			"0.013": 0.361357970905,
			"0.014": 0.0,
			"0.015": 0.0,
			"0.016": 0.0,
			"0.017": 0.0,
			"0.018": 0.0,
			"0.019": 0.0,
			"0.02": 0.0,
			"0.021": 0.0,
			"0.022": 0.0,
			"0.023": 0.0,
			"0.024": 0.0,
			"0.025": 0.0
		}
	}
}
