{
	 "smiles": "CCC1=C(SC=C1)C(N)=O", 
	 "Tm": 420.15, 
	 "num_atms": 19, 
	 "gaussian": { 
		 "optdone": 1, 
		 "sigma_profile": "yes", 
		 "theory": "DFT", 
		 "functional": "B3LYP", 
		 "basiset": "6-31G**", 
		 "properties": { 
			 "R2extent": 1891.2513, 
			 "electric_dipole_moment_norm": 4.36213081876, 
			 "electric_quadrupole_moment_norm": 11.8981832659, 
			 "total_energy": -800.341225817, 
			 "HOMO_LUMO_gap": 0.19396, 
			 "cosmo_polarized_energy": -13.77, 
			 "cosmo_cavitation_energy": 23.62, 
			 "cosmo_dispersion_energy": -17.99, 
			 "cosmo_repulsion_energy": 1.42, 
			 "cosmo_total_nonelectrostatic_energy": 7.05, 
			 "SMD_solvation_energy": 4.86 
		},
		"coords": [
			{
				"x": 0.2435150972,
				"y": -0.2283914814,
				"z": 2.5170119582,
				"element": "C" 
			},
			{
				"x": -0.0960439964,
				"y": -1.4479622027,
				"z": 1.6398964986,
				"element": "C" 
			},
			{
				"x": 0.0262938256,
				"y": -1.1812931765,
				"z": 0.1544215914,
				"element": "C" 
			},
			{
				"x": -0.8498943297,
				"y": -0.4768469727,
				"z": -0.6597248343,
				"element": "C" 
			},
			{
				"x": -0.2622160245,
				"y": -0.3756827108,
				"z": -2.3027867764,
				"element": "S" 
			},
			{
				"x": 1.1471406045,
				"y": -1.2771644655,
				"z": -1.8995277834,
				"element": "C" 
			},
			{
				"x": 1.1682955688,
				"y": -1.632384544,
				"z": -0.5772981635,
				"element": "C" 
			},
			{
				"x": -2.1503962972,
				"y": 0.2072902475,
				"z": -0.4476891152,
				"element": "C" 
			},
			{
				"x": -2.7156561486,
				"y": 0.1541011341,
				"z": 0.8034185795,
				"element": "N" 
			},
			{
				"x": -2.6883803197,
				"y": 0.8279485784,
				"z": -1.36093236,
				"element": "O" 
			},
			{
				"x": -0.434741806,
				"y": 0.6056755373,
				"z": 2.3174729121,
				"element": "H" 
			},
			{
				"x": 0.1734714351,
				"y": -0.4835512966,
				"z": 3.5795924456,
				"element": "H" 
			},
			{
				"x": 1.2628387341,
				"y": 0.1148479436,
				"z": 2.3168891549,
				"element": "H" 
			},
			{
				"x": -1.0958438562,
				"y": -1.8280836221,
				"z": 1.8903035294,
				"element": "H" 
			},
			{
				"x": 0.5835321988,
				"y": -2.2692981227,
				"z": 1.8922943002,
				"element": "H" 
			},
			{
				"x": 1.8870123625,
				"y": -1.5014393327,
				"z": -2.6561699975,
				"element": "H" 
			},
			{
				"x": 1.9703530639,
				"y": -2.2039131847,
				"z": -0.121734189,
				"element": "H" 
			},
			{
				"x": -3.6566506181,
				"y": 0.5159846956,
				"z": 0.8594655678,
				"element": "H" 
			},
			{
				"x": -2.4438294939,
				"y": -0.5421370242,
				"z": 1.4772966817,
				"element": "H" 
			}
		],
		 "valence_orbital": [ 
			{
				"type": "occ",
				"energy": -0.33661,
				"method": "rhf"
			},
			{
				"type": "occ",
				"energy": -0.27081,
				"method": "rhf"
			},
			{
				"type": "occ",
				"energy": -0.25372,
				"method": "rhf"
			},
			{
				"type": "occ",
				"energy": -0.24765,
				"method": "rhf"
			},
			{
				"type": "occ",
				"energy": -0.23708,
				"method": "rhf"
			},
			{
				"type": "unocc",
				"energy": -0.04312,
				"method": "rhf"
			},
			{
				"type": "unocc",
				"energy": 0.03483,
				"method": "rhf"
			},
			{
				"type": "unocc",
				"energy": 0.03859,
				"method": "rhf"
			},
			{
				"type": "unocc",
				"energy": 0.06362,
				"method": "rhf"
			},
			{
				"type": "unocc",
				"energy": 0.1024,
				"method": "rhf"
			}
		],
		"cosmo_sigma_profile": { 
			"-0.025": 0.0,
			"-0.024": 0.0,
			"-0.023": 0.0,
			"-0.022": 0.0,
			"-0.021": 0.0,
			"-0.02": 0.0,
			"-0.019": 0.0,
			"-0.018": 0.0,
			"-0.017": 0.0,
			"-0.016": 0.0,
			"-0.015": 0.0,
			"-0.014": 0.822122353677,
			"-0.013": 1.82934379714,
			"-0.012": 2.3467660758,
			"-0.011": 2.81171633739,
			"-0.01": 2.49519486376,
			"-0.009": 2.86541544092,
			"-0.008": 4.13667230956,
			"-0.007": 4.45992516487,
			"-0.006": 7.61065095641,
			"-0.005": 7.90285805624,
			"-0.004": 8.65942148309,
			"-0.003": 11.6296052083,
			"-0.002": 15.4748353278,
			"-0.001": 16.4615716515,
			"0.0": 16.1841114823,
			"0.001": 13.4795052238,
			"0.002": 11.0884418092,
			"0.003": 15.9861979118,
			"0.004": 14.4970809229,
			"0.005": 6.37865812963,
			"0.006": 2.31751544227,
			"0.007": 2.34959634153,
			"0.008": 1.90370287108,
			"0.009": 0.998009552836,
			"0.01": 1.52033853282,
			"0.011": 2.18342151158,
			"0.012": 1.94521114995,
			"0.013": 4.22812551122,
			"0.014": 4.35016125629,
			"0.015": 0.299719084457,
			"0.016": 0.0,
			"0.017": 0.0,
			"0.018": 0.0,
			"0.019": 0.0,
			"0.02": 0.0,
			"0.021": 0.0,
			"0.022": 0.0,
			"0.023": 0.0,
			"0.024": 0.0,
			"0.025": 0.0
		}
	}
}
