{
	 "smiles": "COC(=O)C1=CC=C2C=C(OC)C=CC2=C1", 
	 "Tm": 403.15, 
	 "num_atms": 28, 
	 "gaussian": { 
		 "optdone": 1, 
		 "sigma_profile": "yes", 
		 "theory": "DFT", 
		 "functional": "B3LYP", 
		 "basiset": "6-31G**", 
		 "properties": { 
			 "R2extent": 5302.8292, 
			 "electric_dipole_moment_norm": 4.01321571187, 
			 "electric_quadrupole_moment_norm": 9.65344902302, 
			 "total_energy": -728.298865417, 
			 "HOMO_LUMO_gap": 0.15759, 
			 "cosmo_polarized_energy": -10.74, 
			 "cosmo_cavitation_energy": 32.32, 
			 "cosmo_dispersion_energy": -23.82, 
			 "cosmo_repulsion_energy": 1.82, 
			 "cosmo_total_nonelectrostatic_energy": 10.32, 
			 "SMD_solvation_energy": 7.57 
		},
		"coords": [
			{
				"x": -0.9882662359,
				"y": -3.0414665115,
				"z": -4.5570823841,
				"element": "C" 
			},
			{
				"x": -0.9426608076,
				"y": -2.3906089397,
				"z": -3.2797716376,
				"element": "O" 
			},
			{
				"x": -0.1316321251,
				"y": -1.3059928519,
				"z": -3.2160480465,
				"element": "C" 
			},
			{
				"x": 0.5127719426,
				"y": -0.9088955684,
				"z": -4.1689162391,
				"element": "O" 
			},
			{
				"x": -0.1234207774,
				"y": -0.6728039463,
				"z": -1.8717685101,
				"element": "C" 
			},
			{
				"x": 0.6954843324,
				"y": 0.4776511221,
				"z": -1.6879503703,
				"element": "C" 
			},
			{
				"x": 0.7486952755,
				"y": 1.1098690173,
				"z": -0.4722600187,
				"element": "C" 
			},
			{
				"x": -0.0118168354,
				"y": 0.633884321,
				"z": 0.6361292726,
				"element": "C" 
			},
			{
				"x": 0.020961447,
				"y": 1.2619863177,
				"z": 1.8998498096,
				"element": "C" 
			},
			{
				"x": -0.7305229613,
				"y": 0.7738534349,
				"z": 2.9563947678,
				"element": "C" 
			},
			{
				"x": -0.6278217445,
				"y": 1.4532897588,
				"z": 4.1340457242,
				"element": "O" 
			},
			{
				"x": -1.3739609092,
				"y": 1.0020278865,
				"z": 5.2542558189,
				"element": "C" 
			},
			{
				"x": -1.549244768,
				"y": -0.3736537343,
				"z": 2.7788653449,
				"element": "C" 
			},
			{
				"x": -1.5937313203,
				"y": -0.9995946544,
				"z": 1.5526677836,
				"element": "C" 
			},
			{
				"x": -0.837323767,
				"y": -0.5260154845,
				"z": 0.4505725681,
				"element": "C" 
			},
			{
				"x": -0.8726113017,
				"y": -1.1588539166,
				"z": -0.8166623174,
				"element": "C" 
			},
			{
				"x": -1.350967569,
				"y": -2.3562482097,
				"z": -5.3276713618,
				"element": "H" 
			},
			{
				"x": 0.0041446604,
				"y": -3.3976907787,
				"z": -4.8453548265,
				"element": "H" 
			},
			{
				"x": -1.6751703246,
				"y": -3.87945381,
				"z": -4.4366144462,
				"element": "H" 
			},
			{
				"x": 1.2709028905,
				"y": 0.833749316,
				"z": -2.5354689695,
				"element": "H" 
			},
			{
				"x": 1.3752201591,
				"y": 1.9873987299,
				"z": -0.3373157526,
				"element": "H" 
			},
			{
				"x": 0.63867227,
				"y": 2.1400466372,
				"z": 2.0604379602,
				"element": "H" 
			},
			{
				"x": -1.1360193767,
				"y": 1.6891242411,
				"z": 6.0676444232,
				"element": "H" 
			},
			{
				"x": -2.4542582708,
				"y": 1.0329618948,
				"z": 5.0635764295,
				"element": "H" 
			},
			{
				"x": -1.0894448455,
				"y": -0.015724883,
				"z": 5.5502125513,
				"element": "H" 
			},
			{
				"x": -2.1397579812,
				"y": -0.7615512039,
				"z": 3.600126256,
				"element": "H" 
			},
			{
				"x": -2.2208208025,
				"y": -1.8772613087,
				"z": 1.4192579865,
				"element": "H" 
			},
			{
				"x": -1.496800254,
				"y": -2.0353268756,
				"z": -0.955751816,
				"element": "H" 
			}
		],
		 "valence_orbital": [ 
			{
				"type": "occ",
				"energy": -0.2952,
				"method": "rhf"
			},
			{
				"type": "occ",
				"energy": -0.28118,
				"method": "rhf"
			},
			{
				"type": "occ",
				"energy": -0.26711,
				"method": "rhf"
			},
			{
				"type": "occ",
				"energy": -0.2378,
				"method": "rhf"
			},
			{
				"type": "occ",
				"energy": -0.20891,
				"method": "rhf"
			},
			{
				"type": "unocc",
				"energy": -0.05132,
				"method": "rhf"
			},
			{
				"type": "unocc",
				"energy": -0.02462,
				"method": "rhf"
			},
			{
				"type": "unocc",
				"energy": 0.02644,
				"method": "rhf"
			},
			{
				"type": "unocc",
				"energy": 0.04981,
				"method": "rhf"
			},
			{
				"type": "unocc",
				"energy": 0.08885,
				"method": "rhf"
			}
		],
		"cosmo_sigma_profile": { 
			"-0.025": 0.0,
			"-0.024": 0.0,
			"-0.023": 0.0,
			"-0.022": 0.0,
			"-0.021": 0.0,
			"-0.02": 0.0,
			"-0.019": 0.0,
			"-0.018": 0.0,
			"-0.017": 0.0,
			"-0.016": 0.0,
			"-0.015": 0.0,
			"-0.014": 0.0,
			"-0.013": 0.0,
			"-0.012": 0.0,
			"-0.011": 0.0,
			"-0.01": 0.0,
			"-0.009": 0.0,
			"-0.008": 0.029456767469,
			"-0.007": 4.53031352971,
			"-0.006": 20.2158883231,
			"-0.005": 24.9565566334,
			"-0.004": 23.5488956168,
			"-0.003": 24.3706626148,
			"-0.002": 16.0957587321,
			"-0.001": 12.2887193352,
			"0.0": 14.1816311957,
			"0.001": 15.2130331442,
			"0.002": 18.1875173672,
			"0.003": 32.8606748788,
			"0.004": 20.3381317703,
			"0.005": 6.66145032012,
			"0.006": 4.5104189672,
			"0.007": 2.69977487465,
			"0.008": 3.41862959812,
			"0.009": 3.16077603887,
			"0.01": 2.70427992952,
			"0.011": 2.63403249937,
			"0.012": 4.66338957869,
			"0.013": 0.789556053636,
			"0.014": 0.0,
			"0.015": 0.0,
			"0.016": 0.0,
			"0.017": 0.0,
			"0.018": 0.0,
			"0.019": 0.0,
			"0.02": 0.0,
			"0.021": 0.0,
			"0.022": 0.0,
			"0.023": 0.0,
			"0.024": 0.0,
			"0.025": 0.0
		}
	}
}
