{
	 "smiles": "CC(C)(C)NS(=O)(=O)C1=C(CN)C=CC=C1", 
	 "Tm": 405.15, 
	 "num_atms": 34, 
	 "gaussian": { 
		 "optdone": 1, 
		 "sigma_profile": "yes", 
		 "theory": "DFT", 
		 "functional": "B3LYP", 
		 "basiset": "6-31G**", 
		 "properties": { 
			 "R2extent": 4594.4019, 
			 "electric_dipole_moment_norm": 4.10019825496, 
			 "electric_quadrupole_moment_norm": 19.4714010967, 
			 "total_energy": -1088.09908398, 
			 "HOMO_LUMO_gap": 0.1886, 
			 "cosmo_polarized_energy": -14.57, 
			 "cosmo_cavitation_energy": 35.66, 
			 "cosmo_dispersion_energy": -24.98, 
			 "cosmo_repulsion_energy": 1.89, 
			 "cosmo_total_nonelectrostatic_energy": 12.57, 
			 "SMD_solvation_energy": 4.01 
		},
		"coords": [
			{
				"x": -1.9165426873,
				"y": 0.3141431419,
				"z": 0.9759033239,
				"element": "C" 
			},
			{
				"x": -2.0826303373,
				"y": 1.5233478752,
				"z": 0.0445125849,
				"element": "C" 
			},
			{
				"x": -2.9566756234,
				"y": 1.1314562932,
				"z": -1.1598744561,
				"element": "C" 
			},
			{
				"x": -2.7183621867,
				"y": 2.7099257323,
				"z": 0.7932222717,
				"element": "C" 
			},
			{
				"x": -0.7601560087,
				"y": 1.8915044573,
				"z": -0.5542897571,
				"element": "N" 
			},
			{
				"x": 0.6310102,
				"y": 2.2367479506,
				"z": 0.3397428328,
				"element": "S" 
			},
			{
				"x": 0.3102330551,
				"y": 2.5871491549,
				"z": 1.7301754584,
				"element": "O" 
			},
			{
				"x": 1.3680057982,
				"y": 3.191023455,
				"z": -0.5055766989,
				"element": "O" 
			},
			{
				"x": 1.5409323732,
				"y": 0.6779423082,
				"z": 0.3870951851,
				"element": "C" 
			},
			{
				"x": 2.0180293587,
				"y": 0.0448248293,
				"z": -0.7803457285,
				"element": "C" 
			},
			{
				"x": 1.8516006838,
				"y": 0.5815175372,
				"z": -2.1993970327,
				"element": "C" 
			},
			{
				"x": 2.8393609293,
				"y": 1.5797711362,
				"z": -2.6189660821,
				"element": "N" 
			},
			{
				"x": 2.7385453787,
				"y": -1.1443683986,
				"z": -0.5989815425,
				"element": "C" 
			},
			{
				"x": 2.9972356346,
				"y": -1.6716376364,
				"z": 0.6663357783,
				"element": "C" 
			},
			{
				"x": 2.5317323131,
				"y": -1.0132343829,
				"z": 1.803173821,
				"element": "C" 
			},
			{
				"x": 1.8010208992,
				"y": 0.1653693833,
				"z": 1.6611052374,
				"element": "C" 
			},
			{
				"x": -1.3267101737,
				"y": 0.567624129,
				"z": 1.8593520499,
				"element": "H" 
			},
			{
				"x": -2.9021524602,
				"y": -0.0183709327,
				"z": 1.3151821475,
				"element": "H" 
			},
			{
				"x": -1.433989982,
				"y": -0.5176833545,
				"z": 0.4547847776,
				"element": "H" 
			},
			{
				"x": -3.0649980234,
				"y": 1.9679298514,
				"z": -1.8600741409,
				"element": "H" 
			},
			{
				"x": -2.5219743436,
				"y": 0.2856752544,
				"z": -1.6997887528,
				"element": "H" 
			},
			{
				"x": -3.9589522319,
				"y": 0.8530073293,
				"z": -0.8201382919,
				"element": "H" 
			},
			{
				"x": -2.845225521,
				"y": 3.5675291871,
				"z": 0.122642794,
				"element": "H" 
			},
			{
				"x": -3.7083958478,
				"y": 2.4330625935,
				"z": 1.1712242018,
				"element": "H" 
			},
			{
				"x": -2.0953618592,
				"y": 3.0192482133,
				"z": 1.6341213712,
				"element": "H" 
			},
			{
				"x": -0.8381027558,
				"y": 2.6422847537,
				"z": -1.2378402807,
				"element": "H" 
			},
			{
				"x": 1.9129789672,
				"y": -0.2714994726,
				"z": -2.885186165,
				"element": "H" 
			},
			{
				"x": 0.8568362624,
				"y": 1.0137761859,
				"z": -2.3244859428,
				"element": "H" 
			},
			{
				"x": 2.7164521801,
				"y": 2.4166446525,
				"z": -2.0529735067,
				"element": "H" 
			},
			{
				"x": 3.7787992522,
				"y": 1.2330780465,
				"z": -2.43841462,
				"element": "H" 
			},
			{
				"x": 3.10505442,
				"y": -1.6644886216,
				"z": -1.480835229,
				"element": "H" 
			},
			{
				"x": 3.5608492456,
				"y": -2.5953946205,
				"z": 0.761386076,
				"element": "H" 
			},
			{
				"x": 2.7307117729,
				"y": -1.410471646,
				"z": 2.7936392518,
				"element": "H" 
			},
			{
				"x": 1.4266413178,
				"y": 0.6981656144,
				"z": 2.5274690645,
				"element": "H" 
			}
		],
		 "valence_orbital": [ 
			{
				"type": "occ",
				"energy": -0.30206,
				"method": "rhf"
			},
			{
				"type": "occ",
				"energy": -0.28044,
				"method": "rhf"
			},
			{
				"type": "occ",
				"energy": -0.26602,
				"method": "rhf"
			},
			{
				"type": "occ",
				"energy": -0.25858,
				"method": "rhf"
			},
			{
				"type": "occ",
				"energy": -0.22663,
				"method": "rhf"
			},
			{
				"type": "unocc",
				"energy": -0.03803,
				"method": "rhf"
			},
			{
				"type": "unocc",
				"energy": -0.01782,
				"method": "rhf"
			},
			{
				"type": "unocc",
				"energy": 0.05365,
				"method": "rhf"
			},
			{
				"type": "unocc",
				"energy": 0.06617,
				"method": "rhf"
			},
			{
				"type": "unocc",
				"energy": 0.0832,
				"method": "rhf"
			}
		],
		"cosmo_sigma_profile": { 
			"-0.025": 0.0,
			"-0.024": 0.0,
			"-0.023": 0.0,
			"-0.022": 0.0,
			"-0.021": 0.0,
			"-0.02": 0.0,
			"-0.019": 0.0,
			"-0.018": 0.0,
			"-0.017": 0.0,
			"-0.016": 0.0,
			"-0.015": 0.0,
			"-0.014": 0.0786130545871,
			"-0.013": 0.576278127907,
			"-0.012": 0.813382290954,
			"-0.011": 1.30021501304,
			"-0.01": 1.30917200989,
			"-0.009": 2.15739283989,
			"-0.008": 2.55609992108,
			"-0.007": 5.93523265232,
			"-0.006": 13.1367501821,
			"-0.005": 15.8803186097,
			"-0.004": 22.2897533505,
			"-0.003": 23.7033588835,
			"-0.002": 24.2503448634,
			"-0.001": 25.6831339518,
			"0.0": 32.2755050114,
			"0.001": 27.0589825432,
			"0.002": 15.6605471788,
			"0.003": 16.0146344975,
			"0.004": 9.64321992095,
			"0.005": 4.26637672989,
			"0.006": 3.70817252809,
			"0.007": 3.22739370762,
			"0.008": 3.62291104051,
			"0.009": 5.23050334945,
			"0.01": 5.15324065852,
			"0.011": 5.44785392361,
			"0.012": 3.72012475235,
			"0.013": 0.436662643365,
			"0.014": 0.453114348808,
			"0.015": 0.950823081635,
			"0.016": 0.819649799428,
			"0.017": 0.492823201004,
			"0.018": 0.632327557962,
			"0.019": 0.720564330462,
			"0.02": 0.145618506827,
			"0.021": 0.0,
			"0.022": 0.0,
			"0.023": 0.0,
			"0.024": 0.0,
			"0.025": 0.0
		}
	}
}
