{
	 "smiles": "OC(=O)C1=CC(=C(F)C=C1)S(=O)(=O)NCC=C", 
	 "Tm": 438.15, 
	 "num_atms": 27, 
	 "gaussian": { 
		 "optdone": 1, 
		 "sigma_profile": "yes", 
		 "theory": "DFT", 
		 "functional": "B3LYP", 
		 "basiset": "6-31G**", 
		 "properties": { 
			 "R2extent": 5480.7802, 
			 "electric_dipole_moment_norm": 4.05113362653, 
			 "electric_quadrupole_moment_norm": 21.4000547429, 
			 "total_energy": -1240.67320484, 
			 "HOMO_LUMO_gap": 0.20552, 
			 "cosmo_polarized_energy": -19.16, 
			 "cosmo_cavitation_energy": 34.47, 
			 "cosmo_dispersion_energy": -23.79, 
			 "cosmo_repulsion_energy": 1.78, 
			 "cosmo_total_nonelectrostatic_energy": 12.46, 
			 "SMD_solvation_energy": 7.49 
		},
		"coords": [
			{
				"x": -1.7931810992,
				"y": 2.091283182,
				"z": -0.8239485512,
				"element": "O" 
			},
			{
				"x": -2.1595603616,
				"y": 1.1534281846,
				"z": 0.0826248039,
				"element": "C" 
			},
			{
				"x": -3.1250704055,
				"y": 1.2890995468,
				"z": 0.8069440989,
				"element": "O" 
			},
			{
				"x": -1.2624779574,
				"y": -0.0322585245,
				"z": 0.086215721,
				"element": "C" 
			},
			{
				"x": -0.1592951454,
				"y": -0.1308707638,
				"z": -0.7720617354,
				"element": "C" 
			},
			{
				"x": 0.6549548135,
				"y": -1.260198072,
				"z": -0.7297627952,
				"element": "C" 
			},
			{
				"x": 0.3471537875,
				"y": -2.2885659207,
				"z": 0.1690719876,
				"element": "C" 
			},
			{
				"x": 1.1139713662,
				"y": -3.383706438,
				"z": 0.205300765,
				"element": "F" 
			},
			{
				"x": -0.7457311776,
				"y": -2.2049396068,
				"z": 1.0245534368,
				"element": "C" 
			},
			{
				"x": -1.5494814068,
				"y": -1.0710851419,
				"z": 0.981477757,
				"element": "C" 
			},
			{
				"x": 2.0844852921,
				"y": -1.4689283867,
				"z": -1.8053596763,
				"element": "S" 
			},
			{
				"x": 3.2537695824,
				"y": -1.6413186561,
				"z": -0.9415400858,
				"element": "O" 
			},
			{
				"x": 1.7473885208,
				"y": -2.4452513448,
				"z": -2.8432540232,
				"element": "O" 
			},
			{
				"x": 2.1655719537,
				"y": 0.0200661123,
				"z": -2.5887824732,
				"element": "N" 
			},
			{
				"x": 3.1594933368,
				"y": 0.9985174785,
				"z": -2.1266404023,
				"element": "C" 
			},
			{
				"x": 2.965169338,
				"y": 2.3445559325,
				"z": -2.7708601307,
				"element": "C" 
			},
			{
				"x": 1.9575930152,
				"y": 2.7079136055,
				"z": -3.5638101916,
				"element": "C" 
			},
			{
				"x": -2.4399639702,
				"y": 2.8110615407,
				"z": -0.7401846501,
				"element": "H" 
			},
			{
				"x": 0.0700657844,
				"y": 0.6642250736,
				"z": -1.4696931997,
				"element": "H" 
			},
			{
				"x": -0.9452199642,
				"y": -3.0265108523,
				"z": 1.7033724929,
				"element": "H" 
			},
			{
				"x": -2.4094855522,
				"y": -0.971705046,
				"z": 1.6345787036,
				"element": "H" 
			},
			{
				"x": 2.1941149214,
				"y": -0.1640373629,
				"z": -3.5887479612,
				"element": "H" 
			},
			{
				"x": 4.1865264594,
				"y": 0.6480210178,
				"z": -2.3011029557,
				"element": "H" 
			},
			{
				"x": 3.0594466824,
				"y": 1.0922998041,
				"z": -1.0389355088,
				"element": "H" 
			},
			{
				"x": 3.7552983491,
				"y": 3.0589405907,
				"z": -2.5426757745,
				"element": "H" 
			},
			{
				"x": 1.9099538635,
				"y": 3.7069518558,
				"z": -3.9850021615,
				"element": "H" 
			},
			{
				"x": 1.1459099739,
				"y": 2.0314121916,
				"z": -3.8131774902,
				"element": "H" 
			}
		],
		 "valence_orbital": [ 
			{
				"type": "occ",
				"energy": -0.29177,
				"method": "rhf"
			},
			{
				"type": "occ",
				"energy": -0.28954,
				"method": "rhf"
			},
			{
				"type": "occ",
				"energy": -0.28522,
				"method": "rhf"
			},
			{
				"type": "occ",
				"energy": -0.27297,
				"method": "rhf"
			},
			{
				"type": "occ",
				"energy": -0.27094,
				"method": "rhf"
			},
			{
				"type": "unocc",
				"energy": -0.06542,
				"method": "rhf"
			},
			{
				"type": "unocc",
				"energy": -0.04561,
				"method": "rhf"
			},
			{
				"type": "unocc",
				"energy": 0.0024,
				"method": "rhf"
			},
			{
				"type": "unocc",
				"energy": 0.03166,
				"method": "rhf"
			},
			{
				"type": "unocc",
				"energy": 0.04044,
				"method": "rhf"
			}
		],
		"cosmo_sigma_profile": { 
			"-0.025": 0.0,
			"-0.024": 0.0,
			"-0.023": 0.0,
			"-0.022": 0.0,
			"-0.021": 0.0,
			"-0.02": 0.0,
			"-0.019": 0.399882292172,
			"-0.018": 0.665637229091,
			"-0.017": 1.14831771376,
			"-0.016": 0.929585118541,
			"-0.015": 1.19524223515,
			"-0.014": 0.829546231683,
			"-0.013": 1.15856977421,
			"-0.012": 1.9291010424,
			"-0.011": 1.86471955024,
			"-0.01": 1.39866790318,
			"-0.009": 3.25556916408,
			"-0.008": 5.52199104872,
			"-0.007": 8.63702802842,
			"-0.006": 12.7202526882,
			"-0.005": 17.0657271455,
			"-0.004": 13.2264209753,
			"-0.003": 17.9995670544,
			"-0.002": 25.3550833206,
			"-0.001": 26.7709460237,
			"0.0": 23.1787294986,
			"0.001": 12.760537659,
			"0.002": 13.864484765,
			"0.003": 13.8216089223,
			"0.004": 8.95562292933,
			"0.005": 8.22362875007,
			"0.006": 7.66249755019,
			"0.007": 6.44533372454,
			"0.008": 5.31969654124,
			"0.009": 5.92812751819,
			"0.01": 13.465776735,
			"0.011": 11.8523106765,
			"0.012": 1.87518645463,
			"0.013": 0.0,
			"0.014": 0.0,
			"0.015": 0.0,
			"0.016": 0.0,
			"0.017": 0.0,
			"0.018": 0.0,
			"0.019": 0.0,
			"0.02": 0.0,
			"0.021": 0.0,
			"0.022": 0.0,
			"0.023": 0.0,
			"0.024": 0.0,
			"0.025": 0.0
		}
	}
}
