{
	 "smiles": "CC(C(NC(=O)OC(C)(C)C)C(O)=O)C1=CC=CC=C1", 
	 "Tm": 375.15, 
	 "num_atms": 41, 
	 "gaussian": { 
		 "optdone": 1, 
		 "sigma_profile": "yes", 
		 "theory": "DFT", 
		 "functional": "B3LYP", 
		 "basiset": "6-31G**", 
		 "properties": { 
			 "R2extent": 5712.0744, 
			 "electric_dipole_moment_norm": 5.25649124987, 
			 "electric_quadrupole_moment_norm": 8.66943192487, 
			 "total_energy": -939.95096596, 
			 "HOMO_LUMO_gap": 0.22959, 
			 "cosmo_polarized_energy": -20.26, 
			 "cosmo_cavitation_energy": 42.91, 
			 "cosmo_dispersion_energy": -27.07, 
			 "cosmo_repulsion_energy": 2.09, 
			 "cosmo_total_nonelectrostatic_energy": 17.94, 
			 "SMD_solvation_energy": 9.23 
		},
		"coords": [
			{
				"x": -1.5900931115,
				"y": 3.1648819671,
				"z": -0.0006613035,
				"element": "C" 
			},
			{
				"x": -0.3982493431,
				"y": 2.3199905346,
				"z": 0.4758935575,
				"element": "C" 
			},
			{
				"x": -0.8434195229,
				"y": 0.8631491881,
				"z": 0.8748043043,
				"element": "C" 
			},
			{
				"x": -1.4457803046,
				"y": 0.1261245924,
				"z": -0.2150699577,
				"element": "N" 
			},
			{
				"x": -0.9076091275,
				"y": -0.9847135867,
				"z": -0.8293172462,
				"element": "C" 
			},
			{
				"x": -1.551223996,
				"y": -1.6885245683,
				"z": -1.5878079776,
				"element": "O" 
			},
			{
				"x": 0.3902232149,
				"y": -1.147051815,
				"z": -0.4888664145,
				"element": "O" 
			},
			{
				"x": 1.2001722489,
				"y": -2.2290991758,
				"z": -1.0773345327,
				"element": "C" 
			},
			{
				"x": 0.6241235389,
				"y": -3.589697632,
				"z": -0.6725215486,
				"element": "C" 
			},
			{
				"x": 2.5711750158,
				"y": -2.0009712677,
				"z": -0.4357570574,
				"element": "C" 
			},
			{
				"x": 1.2764680957,
				"y": -2.0572598626,
				"z": -2.5977031303,
				"element": "C" 
			},
			{
				"x": -1.8532917556,
				"y": 0.9330305439,
				"z": 2.0297382945,
				"element": "C" 
			},
			{
				"x": -1.3568473037,
				"y": 1.3342158144,
				"z": 3.2257457816,
				"element": "O" 
			},
			{
				"x": -3.0302132265,
				"y": 0.6993330098,
				"z": 1.9041156597,
				"element": "O" 
			},
			{
				"x": 0.7587565776,
				"y": 2.2881177909,
				"z": -0.5113557266,
				"element": "C" 
			},
			{
				"x": 2.0740219978,
				"y": 2.4184028566,
				"z": -0.0442948202,
				"element": "C" 
			},
			{
				"x": 3.1601852116,
				"y": 2.3776229534,
				"z": -0.9195436358,
				"element": "C" 
			},
			{
				"x": 2.9461079066,
				"y": 2.2081441296,
				"z": -2.2885971381,
				"element": "C" 
			},
			{
				"x": 1.6410180148,
				"y": 2.0814232586,
				"z": -2.768671755,
				"element": "C" 
			},
			{
				"x": 0.5579123546,
				"y": 2.1201318408,
				"z": -1.888790389,
				"element": "C" 
			},
			{
				"x": -1.2543480757,
				"y": 4.1623912272,
				"z": -0.2963653805,
				"element": "H" 
			},
			{
				"x": -2.338505108,
				"y": 3.2774698047,
				"z": 0.7893871215,
				"element": "H" 
			},
			{
				"x": -2.0853047011,
				"y": 2.7071926522,
				"z": -0.8613784691,
				"element": "H" 
			},
			{
				"x": -0.0131552753,
				"y": 2.7807715116,
				"z": 1.3964022416,
				"element": "H" 
			},
			{
				"x": 0.0457359488,
				"y": 0.3198917189,
				"z": 1.2078508562,
				"element": "H" 
			},
			{
				"x": -2.4584492315,
				"y": 0.1400070309,
				"z": -0.2350519214,
				"element": "H" 
			},
			{
				"x": 0.5452667921,
				"y": -3.6612651313,
				"z": 0.4170869318,
				"element": "H" 
			},
			{
				"x": 1.2904807685,
				"y": -4.3872088178,
				"z": -1.0171385612,
				"element": "H" 
			},
			{
				"x": -0.3632040368,
				"y": -3.7404753502,
				"z": -1.1094049458,
				"element": "H" 
			},
			{
				"x": 2.5089898384,
				"y": -2.0934411065,
				"z": 0.6529776614,
				"element": "H" 
			},
			{
				"x": 2.9482225912,
				"y": -1.0035375389,
				"z": -0.6786889371,
				"element": "H" 
			},
			{
				"x": 3.2848957897,
				"y": -2.7443535108,
				"z": -0.8031998285,
				"element": "H" 
			},
			{
				"x": 1.6450264959,
				"y": -1.0575747582,
				"z": -2.8463562515,
				"element": "H" 
			},
			{
				"x": 0.2974643668,
				"y": -2.2001848504,
				"z": -3.0556767287,
				"element": "H" 
			},
			{
				"x": 1.9724301246,
				"y": -2.7932558685,
				"z": -3.0134605424,
				"element": "H" 
			},
			{
				"x": -0.395541759,
				"y": 1.4358708459,
				"z": 3.1767028598,
				"element": "H" 
			},
			{
				"x": 2.2516933249,
				"y": 2.5622262494,
				"z": 1.0197271599,
				"element": "H" 
			},
			{
				"x": 4.1696747059,
				"y": 2.4884030312,
				"z": -0.5335968287,
				"element": "H" 
			},
			{
				"x": 3.7871650063,
				"y": 2.1831621943,
				"z": -2.9754260079,
				"element": "H" 
			},
			{
				"x": 1.4627331061,
				"y": 1.9555083458,
				"z": -3.8329305584,
				"element": "H" 
			},
			{
				"x": -0.4482071576,
				"y": 2.0147517485,
				"z": -2.2798648356,
				"element": "H" 
			}
		],
		 "valence_orbital": [ 
			{
				"type": "occ",
				"energy": -0.28868,
				"method": "rhf"
			},
			{
				"type": "occ",
				"energy": -0.2638,
				"method": "rhf"
			},
			{
				"type": "occ",
				"energy": -0.26108,
				"method": "rhf"
			},
			{
				"type": "occ",
				"energy": -0.25535,
				"method": "rhf"
			},
			{
				"type": "occ",
				"energy": -0.24669,
				"method": "rhf"
			},
			{
				"type": "unocc",
				"energy": -0.0171,
				"method": "rhf"
			},
			{
				"type": "unocc",
				"energy": -0.0096,
				"method": "rhf"
			},
			{
				"type": "unocc",
				"energy": 0.00321,
				"method": "rhf"
			},
			{
				"type": "unocc",
				"energy": 0.03262,
				"method": "rhf"
			},
			{
				"type": "unocc",
				"energy": 0.053,
				"method": "rhf"
			}
		],
		"cosmo_sigma_profile": { 
			"-0.025": 0.0,
			"-0.024": 0.0,
			"-0.023": 0.0,
			"-0.022": 0.0,
			"-0.021": 0.0,
			"-0.02": 0.108006097824,
			"-0.019": 1.0468344605,
			"-0.018": 1.06389515644,
			"-0.017": 1.49490669682,
			"-0.016": 1.21165005524,
			"-0.015": 1.05954315723,
			"-0.014": 0.668184416242,
			"-0.013": 1.36720906638,
			"-0.012": 1.32560334347,
			"-0.011": 1.78839031876,
			"-0.01": 0.783716533657,
			"-0.009": 1.76833153792,
			"-0.008": 2.87923599747,
			"-0.007": 3.11537672932,
			"-0.006": 6.45050173651,
			"-0.005": 15.3997588639,
			"-0.004": 28.973302823,
			"-0.003": 29.3856986372,
			"-0.002": 26.6279755584,
			"-0.001": 31.7800333408,
			"0.0": 40.8280619142,
			"0.001": 35.4297591517,
			"0.002": 20.5875591522,
			"0.003": 14.4930187725,
			"0.004": 10.8805865002,
			"0.005": 9.98558242369,
			"0.006": 9.32892791082,
			"0.007": 4.53774593112,
			"0.008": 5.6589884569,
			"0.009": 4.92683971128,
			"0.01": 6.46421025797,
			"0.011": 5.2839215029,
			"0.012": 4.14443098693,
			"0.013": 3.72471225998,
			"0.014": 1.66322091764,
			"0.015": 0.0,
			"0.016": 0.0,
			"0.017": 0.0,
			"0.018": 0.0,
			"0.019": 0.0,
			"0.02": 0.0,
			"0.021": 0.0,
			"0.022": 0.0,
			"0.023": 0.0,
			"0.024": 0.0,
			"0.025": 0.0
		}
	}
}
