{
	 "smiles": "OS(=O)(=O)C1=CC=C(NC2=CC=CC=C2)C=C1", 
	 "Tm": 479.15, 
	 "num_atms": 28, 
	 "gaussian": { 
		 "optdone": 1, 
		 "sigma_profile": "yes", 
		 "theory": "DFT", 
		 "functional": "B3LYP", 
		 "basiset": "6-31G**", 
		 "properties": { 
			 "R2extent": 6886.7772, 
			 "electric_dipole_moment_norm": 5.76210038875, 
			 "electric_quadrupole_moment_norm": 18.7405202817, 
			 "total_energy": -1142.45200846, 
			 "HOMO_LUMO_gap": 0.17228, 
			 "cosmo_polarized_energy": -18.61, 
			 "cosmo_cavitation_energy": 33.94, 
			 "cosmo_dispersion_energy": -25.55, 
			 "cosmo_repulsion_energy": 1.92, 
			 "cosmo_total_nonelectrostatic_energy": 10.31, 
			 "SMD_solvation_energy": 4.61 
		},
		"coords": [
			{
				"x": 1.2238902481,
				"y": 2.705315609,
				"z": -3.8750077511,
				"element": "O" 
			},
			{
				"x": 2.396454027,
				"y": 1.7699845337,
				"z": -3.1815931552,
				"element": "S" 
			},
			{
				"x": 2.5380803855,
				"y": 0.5949864352,
				"z": -4.044922898,
				"element": "O" 
			},
			{
				"x": 3.5399565976,
				"y": 2.6255705045,
				"z": -2.8843472356,
				"element": "O" 
			},
			{
				"x": 1.5950525606,
				"y": 1.3280028439,
				"z": -1.6676993976,
				"element": "C" 
			},
			{
				"x": 0.7725125848,
				"y": 0.1992663265,
				"z": -1.6219603215,
				"element": "C" 
			},
			{
				"x": 0.142276154,
				"y": -0.1535835217,
				"z": -0.4362104789,
				"element": "C" 
			},
			{
				"x": 0.3324879964,
				"y": 0.6193909164,
				"z": 0.7289407342,
				"element": "C" 
			},
			{
				"x": -0.2869840329,
				"y": 0.3351021249,
				"z": 1.9353501174,
				"element": "N" 
			},
			{
				"x": -0.9541392718,
				"y": -0.8349365835,
				"z": 2.3461712699,
				"element": "C" 
			},
			{
				"x": -0.5310056795,
				"y": -2.1176673925,
				"z": 1.9620740291,
				"element": "C" 
			},
			{
				"x": -1.2069949875,
				"y": -3.2437554359,
				"z": 2.4304286843,
				"element": "C" 
			},
			{
				"x": -2.2904523458,
				"y": -3.117467645,
				"z": 3.3014907537,
				"element": "C" 
			},
			{
				"x": -2.696198875,
				"y": -1.8433677663,
				"z": 3.7038652299,
				"element": "C" 
			},
			{
				"x": -2.0417571983,
				"y": -0.7106346368,
				"z": 3.2257221689,
				"element": "C" 
			},
			{
				"x": 1.1655125936,
				"y": 1.7577226843,
				"z": 0.6585039232,
				"element": "C" 
			},
			{
				"x": 1.7907125032,
				"y": 2.1121846809,
				"z": -0.5265298565,
				"element": "C" 
			},
			{
				"x": 1.2434156178,
				"y": 2.497314531,
				"z": -4.8248997846,
				"element": "H" 
			},
			{
				"x": 0.6305601516,
				"y": -0.4010625388,
				"z": -2.5141366058,
				"element": "H" 
			},
			{
				"x": -0.5137584835,
				"y": -1.0145627031,
				"z": -0.4152958851,
				"element": "H" 
			},
			{
				"x": -0.3131645168,
				"y": 1.0981245766,
				"z": 2.5955820925,
				"element": "H" 
			},
			{
				"x": 0.3370620394,
				"y": -2.2332987572,
				"z": 1.3230969166,
				"element": "H" 
			},
			{
				"x": -0.8679772498,
				"y": -4.2290609654,
				"z": 2.1235255872,
				"element": "H" 
			},
			{
				"x": -2.8075594985,
				"y": -3.9993274666,
				"z": 3.6662643284,
				"element": "H" 
			},
			{
				"x": -3.5343136673,
				"y": -1.7268320134,
				"z": 4.3848688242,
				"element": "H" 
			},
			{
				"x": -2.3749632302,
				"y": 0.2800962876,
				"z": 3.5247047633,
				"element": "H" 
			},
			{
				"x": 1.3275111179,
				"y": 2.3548308106,
				"z": 1.5521100329,
				"element": "H" 
			},
			{
				"x": 2.4427844596,
				"y": 2.9773645613,
				"z": -0.5713960857,
				"element": "H" 
			}
		],
		 "valence_orbital": [ 
			{
				"type": "occ",
				"energy": -0.29375,
				"method": "rhf"
			},
			{
				"type": "occ",
				"energy": -0.27299,
				"method": "rhf"
			},
			{
				"type": "occ",
				"energy": -0.27007,
				"method": "rhf"
			},
			{
				"type": "occ",
				"energy": -0.26313,
				"method": "rhf"
			},
			{
				"type": "occ",
				"energy": -0.21123,
				"method": "rhf"
			},
			{
				"type": "unocc",
				"energy": -0.03895,
				"method": "rhf"
			},
			{
				"type": "unocc",
				"energy": -0.02225,
				"method": "rhf"
			},
			{
				"type": "unocc",
				"energy": -0.01447,
				"method": "rhf"
			},
			{
				"type": "unocc",
				"energy": 0.00194,
				"method": "rhf"
			},
			{
				"type": "unocc",
				"energy": 0.04856,
				"method": "rhf"
			}
		],
		"cosmo_sigma_profile": { 
			"-0.025": 0.0,
			"-0.024": 0.0,
			"-0.023": 0.0,
			"-0.022": 0.0,
			"-0.021": 0.0,
			"-0.02": 0.287566558024,
			"-0.019": 1.21299537295,
			"-0.018": 0.68132924791,
			"-0.017": 0.630890265364,
			"-0.016": 0.683138432006,
			"-0.015": 1.47158589807,
			"-0.014": 2.19011709828,
			"-0.013": 1.70599947752,
			"-0.012": 2.17124125442,
			"-0.011": 2.22881410458,
			"-0.01": 2.83635040393,
			"-0.009": 2.42307710693,
			"-0.008": 2.84409888136,
			"-0.007": 6.96813781196,
			"-0.006": 13.9820154166,
			"-0.005": 16.8448546422,
			"-0.004": 18.4797942213,
			"-0.003": 16.7361531419,
			"-0.002": 14.3532100709,
			"-0.001": 13.93423662,
			"0.0": 14.1047459739,
			"0.001": 16.5813792392,
			"0.002": 23.083510802,
			"0.003": 24.7881160171,
			"0.004": 12.9283032388,
			"0.005": 12.4731614308,
			"0.006": 9.73783957203,
			"0.007": 4.91365890895,
			"0.008": 5.59714621296,
			"0.009": 6.86818145962,
			"0.01": 10.915599737,
			"0.011": 7.08369051468,
			"0.012": 0.197261911578,
			"0.013": 0.0,
			"0.014": 0.0,
			"0.015": 0.0,
			"0.016": 0.0,
			"0.017": 0.0,
			"0.018": 0.0,
			"0.019": 0.0,
			"0.02": 0.0,
			"0.021": 0.0,
			"0.022": 0.0,
			"0.023": 0.0,
			"0.024": 0.0,
			"0.025": 0.0
		}
	}
}
