{
	 "smiles": "CS(=O)(=O)C1=CC=C(C=C1)C(O)=O", 
	 "Tm": 544.15, 
	 "num_atms": 21, 
	 "gaussian": { 
		 "optdone": 1, 
		 "sigma_profile": "yes", 
		 "theory": "DFT", 
		 "functional": "B3LYP", 
		 "basiset": "6-31G**", 
		 "properties": { 
			 "R2extent": 7456.1002, 
			 "electric_dipole_moment_norm": 5.06120605982, 
			 "electric_quadrupole_moment_norm": 25.5887985089, 
			 "total_energy": -1008.69601694, 
			 "HOMO_LUMO_gap": 0.20382, 
			 "cosmo_polarized_energy": -23.99, 
			 "cosmo_cavitation_energy": 27.27, 
			 "cosmo_dispersion_energy": -20.3, 
			 "cosmo_repulsion_energy": 1.55, 
			 "cosmo_total_nonelectrostatic_energy": 8.52, 
			 "SMD_solvation_energy": 5.66 
		},
		"coords": [
			{
				"x": -1.1647648307,
				"y": 0.5676748865,
				"z": 3.596582091,
				"element": "C" 
			},
			{
				"x": -1.7333711365,
				"y": -1.1067953701,
				"z": 3.9759543207,
				"element": "S" 
			},
			{
				"x": -0.6490921996,
				"y": -1.793312182,
				"z": 4.693716381,
				"element": "O" 
			},
			{
				"x": -3.084368554,
				"y": -0.999236153,
				"z": 4.5447392698,
				"element": "O" 
			},
			{
				"x": -1.8828204229,
				"y": -1.8776737137,
				"z": 2.3491159454,
				"element": "C" 
			},
			{
				"x": -0.806033631,
				"y": -2.6055114178,
				"z": 1.8432916737,
				"element": "C" 
			},
			{
				"x": -0.9219650557,
				"y": -3.1957102236,
				"z": 0.5854368891,
				"element": "C" 
			},
			{
				"x": -2.1055408262,
				"y": -3.0609802121,
				"z": -0.154363228,
				"element": "C" 
			},
			{
				"x": -3.1889295112,
				"y": -2.3565534917,
				"z": 0.3893344374,
				"element": "C" 
			},
			{
				"x": -3.0811700896,
				"y": -1.7578002793,
				"z": 1.6409080214,
				"element": "C" 
			},
			{
				"x": -2.2986623345,
				"y": -3.6838527147,
				"z": -1.5098045743,
				"element": "C" 
			},
			{
				"x": -1.1769074208,
				"y": -4.0015264571,
				"z": -2.2054630718,
				"element": "O" 
			},
			{
				"x": -3.3886231263,
				"y": -3.9004261057,
				"z": -1.9817702224,
				"element": "O" 
			},
			{
				"x": -1.0619392428,
				"y": 1.0766926313,
				"z": 4.5572841391,
				"element": "H" 
			},
			{
				"x": -0.2001001327,
				"y": 0.5147282115,
				"z": 3.0901113661,
				"element": "H" 
			},
			{
				"x": -1.9102157153,
				"y": 1.0706085053,
				"z": 2.9791256394,
				"element": "H" 
			},
			{
				"x": 0.0910793241,
				"y": -2.7259150453,
				"z": 2.4409876944,
				"element": "H" 
			},
			{
				"x": -0.0965451887,
				"y": -3.7975037308,
				"z": 0.2134985279,
				"element": "H" 
			},
			{
				"x": -4.1076893132,
				"y": -2.2985801834,
				"z": -0.183861625,
				"element": "H" 
			},
			{
				"x": -3.9174106794,
				"y": -1.2244612439,
				"z": 2.0805514011,
				"element": "H" 
			},
			{
				"x": -0.3932299131,
				"y": -3.6296657104,
				"z": -1.7779750758,
				"element": "H" 
			}
		],
		 "valence_orbital": [ 
			{
				"type": "occ",
				"energy": -0.30785,
				"method": "rhf"
			},
			{
				"type": "occ",
				"energy": -0.30412,
				"method": "rhf"
			},
			{
				"type": "occ",
				"energy": -0.29525,
				"method": "rhf"
			},
			{
				"type": "occ",
				"energy": -0.29448,
				"method": "rhf"
			},
			{
				"type": "occ",
				"energy": -0.28524,
				"method": "rhf"
			},
			{
				"type": "unocc",
				"energy": -0.08142,
				"method": "rhf"
			},
			{
				"type": "unocc",
				"energy": -0.04531,
				"method": "rhf"
			},
			{
				"type": "unocc",
				"energy": 0.01508,
				"method": "rhf"
			},
			{
				"type": "unocc",
				"energy": 0.04018,
				"method": "rhf"
			},
			{
				"type": "unocc",
				"energy": 0.06293,
				"method": "rhf"
			}
		],
		"cosmo_sigma_profile": { 
			"-0.025": 0.0,
			"-0.024": 0.0,
			"-0.023": 0.0,
			"-0.022": 0.0,
			"-0.021": 0.0,
			"-0.02": 0.10745604388,
			"-0.019": 0.51073611547,
			"-0.018": 0.933022372574,
			"-0.017": 1.2155725114,
			"-0.016": 1.17637354137,
			"-0.015": 0.977390286258,
			"-0.014": 0.727586926473,
			"-0.013": 1.38412093084,
			"-0.012": 1.36445014609,
			"-0.011": 1.20763448543,
			"-0.01": 1.25808787173,
			"-0.009": 5.51442979573,
			"-0.008": 12.5701297452,
			"-0.007": 12.9343492466,
			"-0.006": 12.5839195243,
			"-0.005": 13.0473585416,
			"-0.004": 13.3708463489,
			"-0.003": 10.2311439434,
			"-0.002": 9.55615323184,
			"-0.001": 10.6952917311,
			"0.0": 14.593679298,
			"0.001": 15.6665067324,
			"0.002": 4.76844967579,
			"0.003": 5.18879009966,
			"0.004": 4.22408738373,
			"0.005": 4.35311290697,
			"0.006": 4.25443392037,
			"0.007": 5.24046600965,
			"0.008": 5.71147694972,
			"0.009": 7.53047055944,
			"0.01": 10.3853246276,
			"0.011": 14.6144286737,
			"0.012": 9.78005842623,
			"0.013": 0.624954807574,
			"0.014": 0.0,
			"0.015": 0.0,
			"0.016": 0.0,
			"0.017": 0.0,
			"0.018": 0.0,
			"0.019": 0.0,
			"0.02": 0.0,
			"0.021": 0.0,
			"0.022": 0.0,
			"0.023": 0.0,
			"0.024": 0.0,
			"0.025": 0.0
		}
	}
}
