{
	 "smiles": "NC(=S)C1=CC=C(C=C1)C1OCCO1", 
	 "Tm": 425.15, 
	 "num_atms": 25, 
	 "gaussian": { 
		 "optdone": 1, 
		 "sigma_profile": "yes", 
		 "theory": "DFT", 
		 "functional": "B3LYP", 
		 "basiset": "6-31G**", 
		 "properties": { 
			 "R2extent": 5522.9324, 
			 "electric_dipole_moment_norm": 4.12670969539, 
			 "electric_quadrupole_moment_norm": 21.2282084616, 
			 "total_energy": -991.065186737, 
			 "HOMO_LUMO_gap": 0.14614, 
			 "cosmo_polarized_energy": -17.63, 
			 "cosmo_cavitation_energy": 30.07, 
			 "cosmo_dispersion_energy": -22.66, 
			 "cosmo_repulsion_energy": 1.76, 
			 "cosmo_total_nonelectrostatic_energy": 9.17, 
			 "SMD_solvation_energy": 4.2 
		},
		"coords": [
			{
				"x": -0.49393317,
				"y": -4.0822294085,
				"z": 0.6741734312,
				"element": "N" 
			},
			{
				"x": -0.4671604175,
				"y": -3.0571938996,
				"z": -0.2093351905,
				"element": "C" 
			},
			{
				"x": -1.6490570186,
				"y": -2.8841892529,
				"z": -1.375404602,
				"element": "S" 
			},
			{
				"x": 0.663807094,
				"y": -2.1040086041,
				"z": -0.0335861679,
				"element": "C" 
			},
			{
				"x": 1.1874388028,
				"y": -1.4146393823,
				"z": -1.1389388876,
				"element": "C" 
			},
			{
				"x": 2.2531880605,
				"y": -0.5349836162,
				"z": -0.9838275694,
				"element": "C" 
			},
			{
				"x": 2.8090587178,
				"y": -0.3031394374,
				"z": 0.2811431478,
				"element": "C" 
			},
			{
				"x": 2.2809027501,
				"y": -0.9709965974,
				"z": 1.3893348851,
				"element": "C" 
			},
			{
				"x": 1.2239308664,
				"y": -1.8659263646,
				"z": 1.2337189093,
				"element": "C" 
			},
			{
				"x": 4.0015452752,
				"y": 0.6371921165,
				"z": 0.4242360243,
				"element": "C" 
			},
			{
				"x": 3.914165603,
				"y": 1.7542174025,
				"z": -0.4390964442,
				"element": "O" 
			},
			{
				"x": 3.2282823722,
				"y": 2.7533839817,
				"z": 0.3166840353,
				"element": "C" 
			},
			{
				"x": 3.7951247602,
				"y": 2.539172694,
				"z": 1.7229857201,
				"element": "C" 
			},
			{
				"x": 4.1020415293,
				"y": 1.1406400992,
				"z": 1.7529068469,
				"element": "O" 
			},
			{
				"x": 0.3134918895,
				"y": -4.3100408266,
				"z": 1.2352599059,
				"element": "H" 
			},
			{
				"x": -1.2270415455,
				"y": -4.770005959,
				"z": 0.5810139927,
				"element": "H" 
			},
			{
				"x": 0.7437358692,
				"y": -1.5828140758,
				"z": -2.114125971,
				"element": "H" 
			},
			{
				"x": 2.6523533718,
				"y": -0.0069474727,
				"z": -1.8440007129,
				"element": "H" 
			},
			{
				"x": 2.6911507463,
				"y": -0.7703053005,
				"z": 2.3730549073,
				"element": "H" 
			},
			{
				"x": 0.8009094661,
				"y": -2.3425950126,
				"z": 2.1134631435,
				"element": "H" 
			},
			{
				"x": 4.9325043947,
				"y": 0.1122747795,
				"z": 0.1714387022,
				"element": "H" 
			},
			{
				"x": 3.4604872155,
				"y": 3.7285484514,
				"z": -0.1158701151,
				"element": "H" 
			},
			{
				"x": 2.1421793205,
				"y": 2.5891344476,
				"z": 0.2897135634,
				"element": "H" 
			},
			{
				"x": 4.7125406982,
				"y": 3.1197195631,
				"z": 1.8832880153,
				"element": "H" 
			},
			{
				"x": 3.0792533485,
				"y": 2.7731316745,
				"z": 2.5171704302,
				"element": "H" 
			}
		],
		 "valence_orbital": [ 
			{
				"type": "occ",
				"energy": -0.26664,
				"method": "rhf"
			},
			{
				"type": "occ",
				"energy": -0.26192,
				"method": "rhf"
			},
			{
				"type": "occ",
				"energy": -0.26061,
				"method": "rhf"
			},
			{
				"type": "occ",
				"energy": -0.2276,
				"method": "rhf"
			},
			{
				"type": "occ",
				"energy": -0.2056,
				"method": "rhf"
			},
			{
				"type": "unocc",
				"energy": -0.05946,
				"method": "rhf"
			},
			{
				"type": "unocc",
				"energy": -0.01258,
				"method": "rhf"
			},
			{
				"type": "unocc",
				"energy": 0.01769,
				"method": "rhf"
			},
			{
				"type": "unocc",
				"energy": 0.07416,
				"method": "rhf"
			},
			{
				"type": "unocc",
				"energy": 0.09239,
				"method": "rhf"
			}
		],
		"cosmo_sigma_profile": { 
			"-0.025": 0.0,
			"-0.024": 0.0,
			"-0.023": 0.0,
			"-0.022": 0.0,
			"-0.021": 0.0,
			"-0.02": 0.0,
			"-0.019": 0.0,
			"-0.018": 0.0,
			"-0.017": 0.0,
			"-0.016": 0.0686264914167,
			"-0.015": 1.75958551427,
			"-0.014": 2.50946411908,
			"-0.013": 2.48552627887,
			"-0.012": 3.24191119048,
			"-0.011": 2.01396492433,
			"-0.01": 1.9802418108,
			"-0.009": 1.64912129852,
			"-0.008": 1.84952698504,
			"-0.007": 5.23577571988,
			"-0.006": 11.8696936803,
			"-0.005": 21.6833544228,
			"-0.004": 19.7964605889,
			"-0.003": 16.1093808151,
			"-0.002": 11.6767987652,
			"-0.001": 13.0385850642,
			"0.0": 13.9028600539,
			"0.001": 11.2375006817,
			"0.002": 15.1289130036,
			"0.003": 17.2438445065,
			"0.004": 14.0636189118,
			"0.005": 7.23139677899,
			"0.006": 6.41333954683,
			"0.007": 7.19295954244,
			"0.008": 7.14562808708,
			"0.009": 9.4027175006,
			"0.01": 6.38385806064,
			"0.011": 5.81275422232,
			"0.012": 3.20306996739,
			"0.013": 0.159167511819,
			"0.014": 0.0,
			"0.015": 0.0,
			"0.016": 0.0,
			"0.017": 0.0,
			"0.018": 0.0,
			"0.019": 0.0,
			"0.02": 0.0,
			"0.021": 0.0,
			"0.022": 0.0,
			"0.023": 0.0,
			"0.024": 0.0,
			"0.025": 0.0
		}
	}
}
