{
	 "smiles": "NC(=N/O)C1=CC=CS1", 
	 "Tm": 355.15, 
	 "num_atms": 15, 
	 "gaussian": { 
		 "optdone": 1, 
		 "sigma_profile": "yes", 
		 "theory": "DFT", 
		 "functional": "B3LYP", 
		 "basiset": "6-31G**", 
		 "properties": { 
			 "R2extent": 1726.1157, 
			 "electric_dipole_moment_norm": 1.37138348393, 
			 "electric_quadrupole_moment_norm": 8.22620852094, 
			 "total_energy": -776.994082118, 
			 "HOMO_LUMO_gap": 0.17287, 
			 "cosmo_polarized_energy": -11.05, 
			 "cosmo_cavitation_energy": 20.95, 
			 "cosmo_dispersion_energy": -16.38, 
			 "cosmo_repulsion_energy": 1.31, 
			 "cosmo_total_nonelectrostatic_energy": 5.88, 
			 "SMD_solvation_energy": 3.74 
		},
		"coords": [
			{
				"x": -0.4940164088,
				"y": 0.2801733077,
				"z": -2.8669775652,
				"element": "N" 
			},
			{
				"x": 0.0372552055,
				"y": 0.51908656,
				"z": -1.6124125936,
				"element": "C" 
			},
			{
				"x": 0.7862969122,
				"y": 1.5324058586,
				"z": -1.311960389,
				"element": "N" 
			},
			{
				"x": 0.8460138735,
				"y": 2.4185346268,
				"z": -2.4251536802,
				"element": "O" 
			},
			{
				"x": -0.212000033,
				"y": -0.4682802879,
				"z": -0.5577417543,
				"element": "C" 
			},
			{
				"x": -0.1853022246,
				"y": -0.2786719507,
				"z": 0.8029365789,
				"element": "C" 
			},
			{
				"x": -0.4650892742,
				"y": -1.4657246232,
				"z": 1.5380525119,
				"element": "C" 
			},
			{
				"x": -0.7094431755,
				"y": -2.5451551408,
				"z": 0.7321706195,
				"element": "C" 
			},
			{
				"x": -0.5808729026,
				"y": -2.1355055881,
				"z": -0.9469079072,
				"element": "S" 
			},
			{
				"x": -1.4045994194,
				"y": -0.1566987752,
				"z": -2.8855306416,
				"element": "H" 
			},
			{
				"x": -0.3909126958,
				"y": 1.0602072322,
				"z": -3.5020582152,
				"element": "H" 
			},
			{
				"x": 1.4450961008,
				"y": 3.1018197964,
				"z": -2.1018028181,
				"element": "H" 
			},
			{
				"x": 0.0225589231,
				"y": 0.6879554586,
				"z": 1.2443456972,
				"element": "H" 
			},
			{
				"x": -0.4934998704,
				"y": -1.5120610873,
				"z": 2.6207614509,
				"element": "H" 
			},
			{
				"x": -0.9545850107,
				"y": -3.5577853871,
				"z": 1.020978706,
				"element": "H" 
			}
		],
		 "valence_orbital": [ 
			{
				"type": "occ",
				"energy": -0.32168,
				"method": "rhf"
			},
			{
				"type": "occ",
				"energy": -0.27433,
				"method": "rhf"
			},
			{
				"type": "occ",
				"energy": -0.25421,
				"method": "rhf"
			},
			{
				"type": "occ",
				"energy": -0.24685,
				"method": "rhf"
			},
			{
				"type": "occ",
				"energy": -0.20549,
				"method": "rhf"
			},
			{
				"type": "unocc",
				"energy": -0.03262,
				"method": "rhf"
			},
			{
				"type": "unocc",
				"energy": 0.02771,
				"method": "rhf"
			},
			{
				"type": "unocc",
				"energy": 0.04353,
				"method": "rhf"
			},
			{
				"type": "unocc",
				"energy": 0.06079,
				"method": "rhf"
			},
			{
				"type": "unocc",
				"energy": 0.09286,
				"method": "rhf"
			}
		],
		"cosmo_sigma_profile": { 
			"-0.025": 0.0,
			"-0.024": 0.0,
			"-0.023": 0.0,
			"-0.022": 0.0,
			"-0.021": 0.0,
			"-0.02": 0.0,
			"-0.019": 0.0,
			"-0.018": 0.0,
			"-0.017": 0.479964908402,
			"-0.016": 1.23111522169,
			"-0.015": 0.756261199532,
			"-0.014": 0.819283573002,
			"-0.013": 1.84892257379,
			"-0.012": 1.98607922013,
			"-0.011": 2.76999560682,
			"-0.01": 2.1038561793,
			"-0.009": 3.96881108161,
			"-0.008": 5.40587248028,
			"-0.007": 5.74897016922,
			"-0.006": 6.87630805237,
			"-0.005": 7.02615605517,
			"-0.004": 7.86793791061,
			"-0.003": 7.26673500428,
			"-0.002": 7.34813926223,
			"-0.001": 6.59429697135,
			"0.0": 8.24671591271,
			"0.001": 10.0815242746,
			"0.002": 13.5977598008,
			"0.003": 16.0099130119,
			"0.004": 14.6581943731,
			"0.005": 10.2414370855,
			"0.006": 5.23206851438,
			"0.007": 4.74586263736,
			"0.008": 4.82586335155,
			"0.009": 4.38243100376,
			"0.01": 2.35865405651,
			"0.011": 1.84106568686,
			"0.012": 0.997946871111,
			"0.013": 1.02261321236,
			"0.014": 0.58328357166,
			"0.015": 0.141665620001,
			"0.016": 0.0,
			"0.017": 0.0,
			"0.018": 0.0,
			"0.019": 0.0,
			"0.02": 0.0,
			"0.021": 0.0,
			"0.022": 0.0,
			"0.023": 0.0,
			"0.024": 0.0,
			"0.025": 0.0
		}
	}
}
