{
	 "smiles": "CC1=CC(C)=C(C(=O)CCCC(O)=O)C(C)=C1", 
	 "Tm": 349.15, 
	 "num_atms": 35, 
	 "gaussian": { 
		 "optdone": 1, 
		 "sigma_profile": "yes", 
		 "theory": "DFT", 
		 "functional": "B3LYP", 
		 "basiset": "6-31G**", 
		 "properties": { 
			 "R2extent": 6177.4157, 
			 "electric_dipole_moment_norm": 2.58411508064, 
			 "electric_quadrupole_moment_norm": 8.00223245788, 
			 "total_energy": -770.04791544, 
			 "HOMO_LUMO_gap": 0.19966, 
			 "cosmo_polarized_energy": -13.64, 
			 "cosmo_cavitation_energy": 37.93, 
			 "cosmo_dispersion_energy": -26.03, 
			 "cosmo_repulsion_energy": 2.04, 
			 "cosmo_total_nonelectrostatic_energy": 13.94, 
			 "SMD_solvation_energy": 7.69 
		},
		"coords": [
			{
				"x": -0.1488502642,
				"y": 1.7763660738,
				"z": 5.3396296208,
				"element": "C" 
			},
			{
				"x": -0.1296341147,
				"y": 1.2972053129,
				"z": 3.9071907352,
				"element": "C" 
			},
			{
				"x": -1.321935306,
				"y": 1.0735166864,
				"z": 3.2104889759,
				"element": "C" 
			},
			{
				"x": -1.331878512,
				"y": 0.6655303761,
				"z": 1.8743300241,
				"element": "C" 
			},
			{
				"x": -2.649999208,
				"y": 0.4642903956,
				"z": 1.1586153486,
				"element": "C" 
			},
			{
				"x": -0.0995511798,
				"y": 0.4425204078,
				"z": 1.2246143064,
				"element": "C" 
			},
			{
				"x": -0.0977327832,
				"y": -0.0189962773,
				"z": -0.2119104967,
				"element": "C" 
			},
			{
				"x": -0.5532012095,
				"y": 0.6734925015,
				"z": -1.1077087251,
				"element": "O" 
			},
			{
				"x": 0.4223291821,
				"y": -1.4259721195,
				"z": -0.4959363849,
				"element": "C" 
			},
			{
				"x": 1.0250674067,
				"y": -1.5775566756,
				"z": -1.8964172131,
				"element": "C" 
			},
			{
				"x": 1.4683149062,
				"y": -3.0063323861,
				"z": -2.2166255449,
				"element": "C" 
			},
			{
				"x": 2.6547108182,
				"y": -3.474925909,
				"z": -1.3995871856,
				"element": "C" 
			},
			{
				"x": 2.9685920114,
				"y": -4.763220758,
				"z": -1.6759428742,
				"element": "O" 
			},
			{
				"x": 3.2829028752,
				"y": -2.8154164738,
				"z": -0.5976176257,
				"element": "O" 
			},
			{
				"x": 1.1174674234,
				"y": 0.67149718,
				"z": 1.8984516794,
				"element": "C" 
			},
			{
				"x": 2.4572290543,
				"y": 0.5237198925,
				"z": 1.2059610125,
				"element": "C" 
			},
			{
				"x": 1.0761481285,
				"y": 1.1002284704,
				"z": 3.2298164977,
				"element": "C" 
			},
			{
				"x": -0.9710458685,
				"y": 1.3230427609,
				"z": 5.9023462546,
				"element": "H" 
			},
			{
				"x": 0.786667148,
				"y": 1.5384025099,
				"z": 5.8542347279,
				"element": "H" 
			},
			{
				"x": -0.2831438773,
				"y": 2.8641960567,
				"z": 5.3913385091,
				"element": "H" 
			},
			{
				"x": -2.2716225894,
				"y": 1.2277011502,
				"z": 3.7185309824,
				"element": "H" 
			},
			{
				"x": -2.7380951147,
				"y": 1.1378240056,
				"z": 0.3018444892,
				"element": "H" 
			},
			{
				"x": -2.7540565028,
				"y": -0.5563523119,
				"z": 0.7714303765,
				"element": "H" 
			},
			{
				"x": -3.4890958072,
				"y": 0.6487865493,
				"z": 1.834305917,
				"element": "H" 
			},
			{
				"x": -0.4549115428,
				"y": -2.0851047544,
				"z": -0.3900689025,
				"element": "H" 
			},
			{
				"x": 1.1266146638,
				"y": -1.7396937746,
				"z": 0.2761296022,
				"element": "H" 
			},
			{
				"x": 1.8860871233,
				"y": -0.9072004368,
				"z": -1.9906694043,
				"element": "H" 
			},
			{
				"x": 0.2898410332,
				"y": -1.2486121148,
				"z": -2.6357703902,
				"element": "H" 
			},
			{
				"x": 1.7529297059,
				"y": -3.0997063735,
				"z": -3.2723676903,
				"element": "H" 
			},
			{
				"x": 0.6544499611,
				"y": -3.7277501633,
				"z": -2.0697138402,
				"element": "H" 
			},
			{
				"x": 3.7393874546,
				"y": -4.9785738987,
				"z": -1.1241131056,
				"element": "H" 
			},
			{
				"x": 2.4628131464,
				"y": 1.0285724203,
				"z": 0.233811414,
				"element": "H" 
			},
			{
				"x": 3.2506561352,
				"y": 0.9697280672,
				"z": 1.8115050591,
				"element": "H" 
			},
			{
				"x": 2.7336956198,
				"y": -0.5208394531,
				"z": 1.0240812744,
				"element": "H" 
			},
			{
				"x": 2.013950083,
				"y": 1.2898330633,
				"z": 3.7476925764,
				"element": "H" 
			}
		],
		 "valence_orbital": [ 
			{
				"type": "occ",
				"energy": -0.32305,
				"method": "rhf"
			},
			{
				"type": "occ",
				"energy": -0.28136,
				"method": "rhf"
			},
			{
				"type": "occ",
				"energy": -0.24152,
				"method": "rhf"
			},
			{
				"type": "occ",
				"energy": -0.23438,
				"method": "rhf"
			},
			{
				"type": "occ",
				"energy": -0.22998,
				"method": "rhf"
			},
			{
				"type": "unocc",
				"energy": -0.03032,
				"method": "rhf"
			},
			{
				"type": "unocc",
				"energy": 0.00307,
				"method": "rhf"
			},
			{
				"type": "unocc",
				"energy": 0.00647,
				"method": "rhf"
			},
			{
				"type": "unocc",
				"energy": 0.01651,
				"method": "rhf"
			},
			{
				"type": "unocc",
				"energy": 0.07467,
				"method": "rhf"
			}
		],
		"cosmo_sigma_profile": { 
			"-0.025": 0.0,
			"-0.024": 0.0,
			"-0.023": 0.0,
			"-0.022": 0.0,
			"-0.021": 0.0,
			"-0.02": 0.0,
			"-0.019": 0.0,
			"-0.018": 0.56033443542,
			"-0.017": 0.837630477856,
			"-0.016": 1.20976736256,
			"-0.015": 0.477080506283,
			"-0.014": 0.741093009395,
			"-0.013": 0.501750078581,
			"-0.012": 0.93939186722,
			"-0.011": 0.842740337424,
			"-0.01": 0.851929568312,
			"-0.009": 0.343836074136,
			"-0.008": 0.422453729374,
			"-0.007": 1.06513995273,
			"-0.006": 8.48467709838,
			"-0.005": 18.4462751478,
			"-0.004": 29.1397785539,
			"-0.003": 31.2736308779,
			"-0.002": 33.9081771582,
			"-0.001": 25.6350101742,
			"0.0": 31.6234547237,
			"0.001": 19.3518882106,
			"0.002": 11.4590252323,
			"0.003": 12.4187837905,
			"0.004": 12.9384494024,
			"0.005": 12.7590014647,
			"0.006": 10.7257413518,
			"0.007": 4.48804644216,
			"0.008": 4.34860869228,
			"0.009": 5.34990144635,
			"0.01": 4.88099355429,
			"0.011": 5.21469350558,
			"0.012": 5.09140288003,
			"0.013": 1.00472588077,
			"0.014": 0.0,
			"0.015": 0.0,
			"0.016": 0.0,
			"0.017": 0.0,
			"0.018": 0.0,
			"0.019": 0.0,
			"0.02": 0.0,
			"0.021": 0.0,
			"0.022": 0.0,
			"0.023": 0.0,
			"0.024": 0.0,
			"0.025": 0.0
		}
	}
}
