{
	 "smiles": "COC1=CC(N)=C(NS(C)(=O)=O)C=C1", 
	 "Tm": 418.15, 
	 "num_atms": 26, 
	 "gaussian": { 
		 "optdone": 1, 
		 "sigma_profile": "yes", 
		 "theory": "DFT", 
		 "functional": "B3LYP", 
		 "basiset": "6-31G**", 
		 "properties": { 
			 "R2extent": 3982.8075, 
			 "electric_dipole_moment_norm": 4.15468207448, 
			 "electric_quadrupole_moment_norm": 19.9571917356, 
			 "total_energy": -1045.37131623, 
			 "HOMO_LUMO_gap": 0.20305, 
			 "cosmo_polarized_energy": -19.31, 
			 "cosmo_cavitation_energy": 30.93, 
			 "cosmo_dispersion_energy": -22.75, 
			 "cosmo_repulsion_energy": 1.75, 
			 "cosmo_total_nonelectrostatic_energy": 9.93, 
			 "SMD_solvation_energy": 5.79 
		},
		"coords": [
			{
				"x": -0.6290106904,
				"y": -0.3802490487,
				"z": 4.6853413381,
				"element": "C" 
			},
			{
				"x": -1.354163033,
				"y": 0.3564897292,
				"z": 3.7124850749,
				"element": "O" 
			},
			{
				"x": -0.9494768691,
				"y": 0.2846644525,
				"z": 2.4122489492,
				"element": "C" 
			},
			{
				"x": -1.7150006248,
				"y": 1.0285310608,
				"z": 1.5093746343,
				"element": "C" 
			},
			{
				"x": -1.4015731333,
				"y": 1.0430519884,
				"z": 0.1454425287,
				"element": "C" 
			},
			{
				"x": -2.1943741218,
				"y": 1.7218863428,
				"z": -0.7645482285,
				"element": "N" 
			},
			{
				"x": -0.2851975058,
				"y": 0.2921931278,
				"z": -0.3055579598,
				"element": "C" 
			},
			{
				"x": 0.0118845121,
				"y": 0.342296275,
				"z": -1.7137907912,
				"element": "N" 
			},
			{
				"x": 1.5498648864,
				"y": 0.8057206328,
				"z": -2.2770478182,
				"element": "S" 
			},
			{
				"x": 1.4676594928,
				"y": 2.5936059542,
				"z": -2.0894013817,
				"element": "C" 
			},
			{
				"x": 1.5353629833,
				"y": 0.4488702714,
				"z": -3.698629461,
				"element": "O" 
			},
			{
				"x": 2.6291786384,
				"y": 0.3318028727,
				"z": -1.4045528971,
				"element": "O" 
			},
			{
				"x": 0.4566708187,
				"y": -0.4588275936,
				"z": 0.6066168329,
				"element": "C" 
			},
			{
				"x": 0.1453127009,
				"y": -0.470171126,
				"z": 1.9653054357,
				"element": "C" 
			},
			{
				"x": 0.4178654578,
				"y": -0.0562179379,
				"z": 4.7417090947,
				"element": "H" 
			},
			{
				"x": -1.1184152304,
				"y": -0.1802243555,
				"z": 5.6398193042,
				"element": "H" 
			},
			{
				"x": -0.6600026236,
				"y": -1.4583050675,
				"z": 4.4831189855,
				"element": "H" 
			},
			{
				"x": -2.5676648148,
				"y": 1.5839502432,
				"z": 1.887343517,
				"element": "H" 
			},
			{
				"x": -1.7725337481,
				"y": 1.8660584439,
				"z": -1.6709281244,
				"element": "H" 
			},
			{
				"x": -2.7268657942,
				"y": 2.5020069908,
				"z": -0.4105295516,
				"element": "H" 
			},
			{
				"x": -0.2788759393,
				"y": -0.4577279108,
				"z": -2.2730769107,
				"element": "H" 
			},
			{
				"x": 0.7083595445,
				"y": 2.9864618007,
				"z": -2.7652572684,
				"element": "H" 
			},
			{
				"x": 2.4539939789,
				"y": 2.984276439,
				"z": -2.3439879689,
				"element": "H" 
			},
			{
				"x": 1.2308970232,
				"y": 2.8204830901,
				"z": -1.0486077718,
				"element": "H" 
			},
			{
				"x": 1.3098224205,
				"y": -1.0207834507,
				"z": 0.2438790899,
				"element": "H" 
			},
			{
				"x": 0.7476816709,
				"y": -1.0551432245,
				"z": 2.6481313481,
				"element": "H" 
			}
		],
		 "valence_orbital": [ 
			{
				"type": "occ",
				"energy": -0.30252,
				"method": "rhf"
			},
			{
				"type": "occ",
				"energy": -0.29466,
				"method": "rhf"
			},
			{
				"type": "occ",
				"energy": -0.2747,
				"method": "rhf"
			},
			{
				"type": "occ",
				"energy": -0.22547,
				"method": "rhf"
			},
			{
				"type": "occ",
				"energy": -0.20748,
				"method": "rhf"
			},
			{
				"type": "unocc",
				"energy": -0.00443,
				"method": "rhf"
			},
			{
				"type": "unocc",
				"energy": 0.01545,
				"method": "rhf"
			},
			{
				"type": "unocc",
				"energy": 0.05785,
				"method": "rhf"
			},
			{
				"type": "unocc",
				"energy": 0.07301,
				"method": "rhf"
			},
			{
				"type": "unocc",
				"energy": 0.0847,
				"method": "rhf"
			}
		],
		"cosmo_sigma_profile": { 
			"-0.025": 0.0,
			"-0.024": 0.0,
			"-0.023": 0.0,
			"-0.022": 0.0,
			"-0.021": 0.0,
			"-0.02": 0.0,
			"-0.019": 0.0,
			"-0.018": 0.0,
			"-0.017": 0.0,
			"-0.016": 0.0,
			"-0.015": 0.209126923761,
			"-0.014": 1.30296984821,
			"-0.013": 1.35585255097,
			"-0.012": 2.091405357,
			"-0.011": 2.54667766697,
			"-0.01": 2.36481047618,
			"-0.009": 5.61115691293,
			"-0.008": 8.40133131089,
			"-0.007": 8.41052356995,
			"-0.006": 12.7610709887,
			"-0.005": 22.2460336796,
			"-0.004": 23.3541180456,
			"-0.003": 19.9008451673,
			"-0.002": 11.4936622036,
			"-0.001": 10.1250945639,
			"0.0": 7.96670862632,
			"0.001": 8.68056961665,
			"0.002": 8.1258695444,
			"0.003": 8.46243954319,
			"0.004": 10.0886562679,
			"0.005": 15.4957946932,
			"0.006": 10.0066426416,
			"0.007": 5.719685502,
			"0.008": 4.56997262156,
			"0.009": 5.79671782433,
			"0.01": 7.80632776229,
			"0.011": 11.3753570637,
			"0.012": 7.65303323574,
			"0.013": 0.634197270671,
			"0.014": 0.155573788913,
			"0.015": 0.0,
			"0.016": 0.0,
			"0.017": 0.0,
			"0.018": 0.0,
			"0.019": 0.0,
			"0.02": 0.0,
			"0.021": 0.0,
			"0.022": 0.0,
			"0.023": 0.0,
			"0.024": 0.0,
			"0.025": 0.0
		}
	}
}
