{
	 "smiles": "CSC(SC)=C(C#N)C(=O)C1=CC(Cl)=CC=C1", 
	 "Tm": 362.65, 
	 "num_atms": 27, 
	 "gaussian": { 
		 "optdone": 1, 
		 "sigma_profile": "yes", 
		 "theory": "DFT", 
		 "functional": "B3LYP", 
		 "basiset": "6-31G**", 
		 "properties": { 
			 "R2extent": 6954.6774, 
			 "electric_dipole_moment_norm": 7.10796193715, 
			 "electric_quadrupole_moment_norm": 26.9727490395, 
			 "total_energy": -1849.79794714, 
			 "HOMO_LUMO_gap": 0.16074, 
			 "cosmo_polarized_energy": -16.87, 
			 "cosmo_cavitation_energy": 37.97, 
			 "cosmo_dispersion_energy": -25.68, 
			 "cosmo_repulsion_energy": 1.96, 
			 "cosmo_total_nonelectrostatic_energy": 14.25, 
			 "SMD_solvation_energy": 8.38 
		},
		"coords": [
			{
				"x": -2.0810342425,
				"y": -0.7087985618,
				"z": -1.8183486383,
				"element": "C" 
			},
			{
				"x": -0.9823905384,
				"y": 0.6713292186,
				"z": -2.3120958092,
				"element": "S" 
			},
			{
				"x": 0.5853817318,
				"y": -0.1392536413,
				"z": -2.5394142604,
				"element": "C" 
			},
			{
				"x": 0.7421093063,
				"y": -1.578639809,
				"z": -3.5690291367,
				"element": "S" 
			},
			{
				"x": -0.23495335,
				"y": -1.1317527248,
				"z": -5.0523392007,
				"element": "C" 
			},
			{
				"x": 1.676991164,
				"y": 0.3903387044,
				"z": -1.9203916144,
				"element": "C" 
			},
			{
				"x": 3.0099572797,
				"y": -0.0209706831,
				"z": -2.222077791,
				"element": "C" 
			},
			{
				"x": 4.1189767692,
				"y": -0.3264260183,
				"z": -2.4058012517,
				"element": "N" 
			},
			{
				"x": 1.577560392,
				"y": 1.5330423464,
				"z": -0.9063171219,
				"element": "C" 
			},
			{
				"x": 1.932230959,
				"y": 2.6486245197,
				"z": -1.2392197205,
				"element": "O" 
			},
			{
				"x": 1.1079198294,
				"y": 1.2240717858,
				"z": 0.4784880719,
				"element": "C" 
			},
			{
				"x": 0.9078466155,
				"y": 2.3073156492,
				"z": 1.3479216669,
				"element": "C" 
			},
			{
				"x": 0.4963927648,
				"y": 2.0642349847,
				"z": 2.6519645308,
				"element": "C" 
			},
			{
				"x": 0.2312962224,
				"y": 3.4149084184,
				"z": 3.7420547206,
				"element": "Cl" 
			},
			{
				"x": 0.2899454905,
				"y": 0.7620543166,
				"z": 3.1168247591,
				"element": "C" 
			},
			{
				"x": 0.5024484249,
				"y": -0.3101141786,
				"z": 2.2501888977,
				"element": "C" 
			},
			{
				"x": 0.9074865124,
				"y": -0.0861701934,
				"z": 0.9344732905,
				"element": "C" 
			},
			{
				"x": -2.0273108189,
				"y": -1.5326827916,
				"z": -2.5308778735,
				"element": "H" 
			},
			{
				"x": -3.0920949704,
				"y": -0.2965365098,
				"z": -1.8101156428,
				"element": "H" 
			},
			{
				"x": -1.8226090746,
				"y": -1.060630672,
				"z": -0.8180966,
				"element": "H" 
			},
			{
				"x": -0.1737367024,
				"y": -2.0028111056,
				"z": -5.7084003636,
				"element": "H" 
			},
			{
				"x": 0.204728103,
				"y": -0.2685738858,
				"z": -5.5535884095,
				"element": "H" 
			},
			{
				"x": -1.2787656925,
				"y": -0.9331562149,
				"z": -4.8081807265,
				"element": "H" 
			},
			{
				"x": 1.0783258833,
				"y": 3.3145526188,
				"z": 0.9863622289,
				"element": "H" 
			},
			{
				"x": -0.0268227832,
				"y": 0.5969720189,
				"z": 4.1407476012,
				"element": "H" 
			},
			{
				"x": 0.3551840093,
				"y": -1.3243317576,
				"z": 2.6083872953,
				"element": "H" 
			},
			{
				"x": 1.0802367152,
				"y": -0.9252958341,
				"z": 0.2696810979,
				"element": "H" 
			}
		],
		 "valence_orbital": [ 
			{
				"type": "occ",
				"energy": -0.28202,
				"method": "rhf"
			},
			{
				"type": "occ",
				"energy": -0.27305,
				"method": "rhf"
			},
			{
				"type": "occ",
				"energy": -0.26554,
				"method": "rhf"
			},
			{
				"type": "occ",
				"energy": -0.26071,
				"method": "rhf"
			},
			{
				"type": "occ",
				"energy": -0.24508,
				"method": "rhf"
			},
			{
				"type": "unocc",
				"energy": -0.08434,
				"method": "rhf"
			},
			{
				"type": "unocc",
				"energy": -0.06984,
				"method": "rhf"
			},
			{
				"type": "unocc",
				"energy": -0.02919,
				"method": "rhf"
			},
			{
				"type": "unocc",
				"energy": -0.01302,
				"method": "rhf"
			},
			{
				"type": "unocc",
				"energy": 0.01581,
				"method": "rhf"
			}
		],
		"cosmo_sigma_profile": { 
			"-0.025": 0.0,
			"-0.024": 0.0,
			"-0.023": 0.0,
			"-0.022": 0.0,
			"-0.021": 0.0,
			"-0.02": 0.0,
			"-0.019": 0.0,
			"-0.018": 0.0,
			"-0.017": 0.0,
			"-0.016": 0.0,
			"-0.015": 0.0,
			"-0.014": 0.0,
			"-0.013": 0.0,
			"-0.012": 0.0,
			"-0.011": 0.0,
			"-0.01": 0.0,
			"-0.009": 0.147468870061,
			"-0.008": 5.38064799281,
			"-0.007": 15.6670826511,
			"-0.006": 19.9292548858,
			"-0.005": 20.782030718,
			"-0.004": 22.1836133669,
			"-0.003": 23.6294334843,
			"-0.002": 24.0427301675,
			"-0.001": 18.3545267091,
			"0.0": 20.7937563312,
			"0.001": 27.0497907358,
			"0.002": 25.8097960112,
			"0.003": 18.6567129616,
			"0.004": 19.9638176255,
			"0.005": 10.2129032403,
			"0.006": 6.18700146969,
			"0.007": 6.57044352564,
			"0.008": 5.27268516846,
			"0.009": 5.75528460461,
			"0.01": 6.82546224056,
			"0.011": 4.42297933035,
			"0.012": 2.50274360069,
			"0.013": 0.745897426893,
			"0.014": 0.0,
			"0.015": 0.0,
			"0.016": 0.0,
			"0.017": 0.0,
			"0.018": 0.0,
			"0.019": 0.0,
			"0.02": 0.0,
			"0.021": 0.0,
			"0.022": 0.0,
			"0.023": 0.0,
			"0.024": 0.0,
			"0.025": 0.0
		}
	}
}
