{
	 "smiles": "ClC1=NOC(=N1)C1=CC=CC=C1", 
	 "Tm": 305.15, 
	 "num_atms": 17, 
	 "gaussian": { 
		 "optdone": 1, 
		 "sigma_profile": "yes", 
		 "theory": "DFT", 
		 "functional": "B3LYP", 
		 "basiset": "6-31G**", 
		 "properties": { 
			 "R2extent": 3479.3601, 
			 "electric_dipole_moment_norm": 3.88729847966, 
			 "electric_quadrupole_moment_norm": 4.16245756615, 
			 "total_energy": -952.738130332, 
			 "HOMO_LUMO_gap": 0.18789, 
			 "cosmo_polarized_energy": -6.4, 
			 "cosmo_cavitation_energy": 24.26, 
			 "cosmo_dispersion_energy": -18.4, 
			 "cosmo_repulsion_energy": 1.46, 
			 "cosmo_total_nonelectrostatic_energy": 7.32, 
			 "SMD_solvation_energy": 1.99 
		},
		"coords": [
			{
				"x": -2.4075630518,
				"y": -4.5861371616,
				"z": -0.4082558018,
				"element": "Cl" 
			},
			{
				"x": -1.8048406898,
				"y": -3.1058951064,
				"z": 0.2195255201,
				"element": "C" 
			},
			{
				"x": -1.8711756798,
				"y": -2.8413229043,
				"z": 1.5018005477,
				"element": "N" 
			},
			{
				"x": -1.2809505944,
				"y": -1.5660445088,
				"z": 1.5615435493,
				"element": "O" 
			},
			{
				"x": -0.9346319114,
				"y": -1.2273477177,
				"z": 0.3027988282,
				"element": "C" 
			},
			{
				"x": -1.239540865,
				"y": -2.1528533774,
				"z": -0.5734160577,
				"element": "N" 
			},
			{
				"x": -0.2937910979,
				"y": 0.0609877839,
				"z": 0.0631813027,
				"element": "C" 
			},
			{
				"x": -0.0357857487,
				"y": 0.9457835841,
				"z": 1.1223887405,
				"element": "C" 
			},
			{
				"x": 0.5772269333,
				"y": 2.1694629375,
				"z": 0.8655628459,
				"element": "C" 
			},
			{
				"x": 0.9341121621,
				"y": 2.5155890974,
				"z": -0.4402546896,
				"element": "C" 
			},
			{
				"x": 0.6773546891,
				"y": 1.6349005333,
				"z": -1.4949610341,
				"element": "C" 
			},
			{
				"x": 0.0651732348,
				"y": 0.4095633529,
				"z": -1.2489614796,
				"element": "C" 
			},
			{
				"x": -0.3152778925,
				"y": 0.6712395194,
				"z": 2.1339126517,
				"element": "H" 
			},
			{
				"x": 0.7768127319,
				"y": 2.8537696258,
				"z": 1.6844022874,
				"element": "H" 
			},
			{
				"x": 1.4120169079,
				"y": 3.4709953829,
				"z": -0.6359761126,
				"element": "H" 
			},
			{
				"x": 0.9549377138,
				"y": 1.904507146,
				"z": -2.5093333415,
				"element": "H" 
			},
			{
				"x": -0.1415768416,
				"y": -0.2859981869,
				"z": -2.0551577565,
				"element": "H" 
			}
		],
		 "valence_orbital": [ 
			{
				"type": "occ",
				"energy": -0.33476,
				"method": "rhf"
			},
			{
				"type": "occ",
				"energy": -0.31508,
				"method": "rhf"
			},
			{
				"type": "occ",
				"energy": -0.30217,
				"method": "rhf"
			},
			{
				"type": "occ",
				"energy": -0.27385,
				"method": "rhf"
			},
			{
				"type": "occ",
				"energy": -0.2591,
				"method": "rhf"
			},
			{
				"type": "unocc",
				"energy": -0.07121,
				"method": "rhf"
			},
			{
				"type": "unocc",
				"energy": -0.02314,
				"method": "rhf"
			},
			{
				"type": "unocc",
				"energy": 0.00213,
				"method": "rhf"
			},
			{
				"type": "unocc",
				"energy": 0.01911,
				"method": "rhf"
			},
			{
				"type": "unocc",
				"energy": 0.04897,
				"method": "rhf"
			}
		],
		"cosmo_sigma_profile": { 
			"-0.025": 0.0,
			"-0.024": 0.0,
			"-0.023": 0.0,
			"-0.022": 0.0,
			"-0.021": 0.0,
			"-0.02": 0.0,
			"-0.019": 0.0,
			"-0.018": 0.0,
			"-0.017": 0.0,
			"-0.016": 0.0,
			"-0.015": 0.0,
			"-0.014": 0.0,
			"-0.013": 0.0,
			"-0.012": 0.0,
			"-0.011": 0.0,
			"-0.01": 0.0,
			"-0.009": 0.0,
			"-0.008": 0.0883077684861,
			"-0.007": 5.83725183228,
			"-0.006": 11.3473903592,
			"-0.005": 14.6481960574,
			"-0.004": 13.638364918,
			"-0.003": 13.2219069311,
			"-0.002": 15.2589260424,
			"-0.001": 15.0698672359,
			"0.0": 17.0514899972,
			"0.001": 18.7988956023,
			"0.002": 25.3438133044,
			"0.003": 19.8319336269,
			"0.004": 7.57051794695,
			"0.005": 5.86889915276,
			"0.006": 3.06301877154,
			"0.007": 2.14352026771,
			"0.008": 2.47894765903,
			"0.009": 2.5478995406,
			"0.01": 2.61854935246,
			"0.011": 1.77805248931,
			"0.012": 0.853813566308,
			"0.013": 0.0,
			"0.014": 0.0,
			"0.015": 0.0,
			"0.016": 0.0,
			"0.017": 0.0,
			"0.018": 0.0,
			"0.019": 0.0,
			"0.02": 0.0,
			"0.021": 0.0,
			"0.022": 0.0,
			"0.023": 0.0,
			"0.024": 0.0,
			"0.025": 0.0
		}
	}
}
