{
	 "smiles": "CN(C)CCCN1C2=CC=CC=C2CCC2=CC=CC=C12", 
	 "Tm": 448.15, 
	 "num_atms": 45, 
	 "gaussian": { 
		 "optdone": 1, 
		 "sigma_profile": "yes", 
		 "theory": "DFT", 
		 "functional": "B3LYP", 
		 "basiset": "6-31G**", 
		 "properties": { 
			 "R2extent": 7498.6146, 
			 "electric_dipole_moment_norm": 0.667753442522, 
			 "electric_quadrupole_moment_norm": 6.6388857175, 
			 "total_energy": -847.979545989, 
			 "HOMO_LUMO_gap": 0.18861, 
			 "cosmo_polarized_energy": -7.88, 
			 "cosmo_cavitation_energy": 44.52, 
			 "cosmo_dispersion_energy": -30.53, 
			 "cosmo_repulsion_energy": 2.35, 
			 "cosmo_total_nonelectrostatic_energy": 16.34, 
			 "SMD_solvation_energy": 4.2 
		},
		"coords": [
			{
				"x": 3.0713457377,
				"y": 3.0362239952,
				"z": 0.4276693002,
				"element": "C" 
			},
			{
				"x": 2.0551915826,
				"y": 3.0289752184,
				"z": 1.4681150251,
				"element": "N" 
			},
			{
				"x": 1.0788089657,
				"y": 4.0936189477,
				"z": 1.2994326804,
				"element": "C" 
			},
			{
				"x": 1.4716896794,
				"y": 1.7146451024,
				"z": 1.7260719562,
				"element": "C" 
			},
			{
				"x": 0.640613995,
				"y": 1.0726960295,
				"z": 0.5940931519,
				"element": "C" 
			},
			{
				"x": 0.0891670864,
				"y": -0.2918063475,
				"z": 1.0236227539,
				"element": "C" 
			},
			{
				"x": -0.641452686,
				"y": -0.9755081336,
				"z": -0.0489995902,
				"element": "N" 
			},
			{
				"x": -0.6749244408,
				"y": -2.4027220862,
				"z": -0.0349335449,
				"element": "C" 
			},
			{
				"x": -0.4938780752,
				"y": -3.0779361586,
				"z": 1.1890210821,
				"element": "C" 
			},
			{
				"x": -0.4726617111,
				"y": -4.4669170929,
				"z": 1.2689323792,
				"element": "C" 
			},
			{
				"x": -0.6547458835,
				"y": -5.2278522346,
				"z": 0.1164548883,
				"element": "C" 
			},
			{
				"x": -0.8496330464,
				"y": -4.5696298801,
				"z": -1.0941376551,
				"element": "C" 
			},
			{
				"x": -0.8593591024,
				"y": -3.1720642124,
				"z": -1.2108079643,
				"element": "C" 
			},
			{
				"x": -1.0635273509,
				"y": -2.6290246223,
				"z": -2.620752613,
				"element": "C" 
			},
			{
				"x": -0.8895993341,
				"y": -1.1182277957,
				"z": -2.8400483081,
				"element": "C" 
			},
			{
				"x": -1.8817241539,
				"y": -0.3168039978,
				"z": -2.0421203258,
				"element": "C" 
			},
			{
				"x": -2.9481568058,
				"y": 0.3649633284,
				"z": -2.6359035728,
				"element": "C" 
			},
			{
				"x": -3.8521068751,
				"y": 1.1006985048,
				"z": -1.8682469611,
				"element": "C" 
			},
			{
				"x": -3.6964606778,
				"y": 1.150048559,
				"z": -0.4827303949,
				"element": "C" 
			},
			{
				"x": -2.6488022172,
				"y": 0.4594761417,
				"z": 0.1272358822,
				"element": "C" 
			},
			{
				"x": -1.739994467,
				"y": -0.2778445617,
				"z": -0.6435200605,
				"element": "C" 
			},
			{
				"x": 3.8117241326,
				"y": 2.2545526707,
				"z": 0.6291905197,
				"element": "H" 
			},
			{
				"x": 3.5916070674,
				"y": 4.0006585903,
				"z": 0.4341915499,
				"element": "H" 
			},
			{
				"x": 2.6807672198,
				"y": 2.8786380555,
				"z": -0.5951740727,
				"element": "H" 
			},
			{
				"x": 0.4969663397,
				"y": 4.0375507181,
				"z": 0.3604884788,
				"element": "H" 
			},
			{
				"x": 1.5917303046,
				"y": 5.0619499161,
				"z": 1.3092394808,
				"element": "H" 
			},
			{
				"x": 0.3707900725,
				"y": 4.0810579562,
				"z": 2.1351174035,
				"element": "H" 
			},
			{
				"x": 0.8423209771,
				"y": 1.8059814755,
				"z": 2.6222076037,
				"element": "H" 
			},
			{
				"x": 2.2944851569,
				"y": 1.0373023405,
				"z": 1.9937351262,
				"element": "H" 
			},
			{
				"x": 1.2577884706,
				"y": 0.9319093737,
				"z": -0.3007214992,
				"element": "H" 
			},
			{
				"x": -0.181783028,
				"y": 1.7376401816,
				"z": 0.312091633,
				"element": "H" 
			},
			{
				"x": 0.9305226906,
				"y": -0.937627893,
				"z": 1.2921865565,
				"element": "H" 
			},
			{
				"x": -0.5126976408,
				"y": -0.1735982873,
				"z": 1.9419637975,
				"element": "H" 
			},
			{
				"x": -0.3875904669,
				"y": -2.5028595117,
				"z": 2.1014867753,
				"element": "H" 
			},
			{
				"x": -0.328668978,
				"y": -4.9463004161,
				"z": 2.2332126571,
				"element": "H" 
			},
			{
				"x": -0.6440825191,
				"y": -6.3128817798,
				"z": 0.156246212,
				"element": "H" 
			},
			{
				"x": -0.9860396667,
				"y": -5.1561621059,
				"z": -2.0005484529,
				"element": "H" 
			},
			{
				"x": -2.0734431468,
				"y": -2.9051741763,
				"z": -2.9543799883,
				"element": "H" 
			},
			{
				"x": -0.3745254884,
				"y": -3.1632426382,
				"z": -3.2878022664,
				"element": "H" 
			},
			{
				"x": 0.1283823487,
				"y": -0.8242383788,
				"z": -2.5586756604,
				"element": "H" 
			},
			{
				"x": -1.0093718377,
				"y": -0.9049625383,
				"z": -3.9077939559,
				"element": "H" 
			},
			{
				"x": -3.0584037492,
				"y": 0.331128601,
				"z": -3.7172899717,
				"element": "H" 
			},
			{
				"x": -4.6673598309,
				"y": 1.6340460677,
				"z": -2.3483014208,
				"element": "H" 
			},
			{
				"x": -4.394603675,
				"y": 1.7164634416,
				"z": 0.1272205967,
				"element": "H" 
			},
			{
				"x": -2.5416049724,
				"y": 0.4876596335,
				"z": 1.2071607887,
				"element": "H" 
			}
		],
		 "valence_orbital": [ 
			{
				"type": "occ",
				"energy": -0.24266,
				"method": "rhf"
			},
			{
				"type": "occ",
				"energy": -0.23657,
				"method": "rhf"
			},
			{
				"type": "occ",
				"energy": -0.23096,
				"method": "rhf"
			},
			{
				"type": "occ",
				"energy": -0.20316,
				"method": "rhf"
			},
			{
				"type": "occ",
				"energy": -0.19068,
				"method": "rhf"
			},
			{
				"type": "unocc",
				"energy": -0.00207,
				"method": "rhf"
			},
			{
				"type": "unocc",
				"energy": 0.00422,
				"method": "rhf"
			},
			{
				"type": "unocc",
				"energy": 0.00884,
				"method": "rhf"
			},
			{
				"type": "unocc",
				"energy": 0.01459,
				"method": "rhf"
			},
			{
				"type": "unocc",
				"energy": 0.07834,
				"method": "rhf"
			}
		],
		"cosmo_sigma_profile": { 
			"-0.025": 0.0,
			"-0.024": 0.0,
			"-0.023": 0.0,
			"-0.022": 0.0,
			"-0.021": 0.0,
			"-0.02": 0.0,
			"-0.019": 0.0,
			"-0.018": 0.0,
			"-0.017": 0.0,
			"-0.016": 0.0,
			"-0.015": 0.0,
			"-0.014": 0.0,
			"-0.013": 0.0,
			"-0.012": 0.0,
			"-0.011": 0.0,
			"-0.01": 0.0,
			"-0.009": 0.0,
			"-0.008": 0.0,
			"-0.007": 0.0,
			"-0.006": 1.93162699608,
			"-0.005": 14.5929879497,
			"-0.004": 27.8332771427,
			"-0.003": 50.7540138246,
			"-0.002": 45.4901431646,
			"-0.001": 46.7540590158,
			"0.0": 40.5456703231,
			"0.001": 22.8241290041,
			"0.002": 17.0481766968,
			"0.003": 17.511156238,
			"0.004": 17.1070177625,
			"0.005": 15.6941540379,
			"0.006": 15.5490346299,
			"0.007": 9.41539221456,
			"0.008": 1.00539342188,
			"0.009": 0.923867606847,
			"0.01": 0.5750241247,
			"0.011": 0.364632856784,
			"0.012": 0.591934454297,
			"0.013": 1.16323386751,
			"0.014": 0.160448378472,
			"0.015": 0.494127865901,
			"0.016": 0.318419598589,
			"0.017": 0.25781770751,
			"0.018": 0.0,
			"0.019": 0.0,
			"0.02": 0.0,
			"0.021": 0.0,
			"0.022": 0.0,
			"0.023": 0.0,
			"0.024": 0.0,
			"0.025": 0.0
		}
	}
}
