{
	 "smiles": "CN(C)S(=O)(=O)C1=C(SC=C1)C(O)=O", 
	 "Tm": 382.15, 
	 "num_atms": 23, 
	 "gaussian": { 
		 "optdone": 1, 
		 "sigma_profile": "yes", 
		 "theory": "DFT", 
		 "functional": "B3LYP", 
		 "basiset": "6-31G**", 
		 "properties": { 
			 "R2extent": 4504.5853, 
			 "electric_dipole_moment_norm": 8.59413917388, 
			 "electric_quadrupole_moment_norm": 23.1025510884, 
			 "total_energy": -1424.08597277, 
			 "HOMO_LUMO_gap": 0.18425, 
			 "cosmo_polarized_energy": -26.99, 
			 "cosmo_cavitation_energy": 29.71, 
			 "cosmo_dispersion_energy": -22.09, 
			 "cosmo_repulsion_energy": 1.64, 
			 "cosmo_total_nonelectrostatic_energy": 9.27, 
			 "SMD_solvation_energy": 5.89 
		},
		"coords": [
			{
				"x": 1.2146818453,
				"y": 1.5383355179,
				"z": -0.5532196007,
				"element": "C" 
			},
			{
				"x": 1.5139628309,
				"y": 1.2643018461,
				"z": 0.8477496415,
				"element": "N" 
			},
			{
				"x": 1.5510789194,
				"y": 2.3938485334,
				"z": 1.7697002372,
				"element": "C" 
			},
			{
				"x": 1.5704814057,
				"y": -0.3082044522,
				"z": 1.4008769216,
				"element": "S" 
			},
			{
				"x": 2.1704934504,
				"y": -0.2599282027,
				"z": 2.7312596024,
				"element": "O" 
			},
			{
				"x": 2.1056483367,
				"y": -1.12536726,
				"z": 0.3149329304,
				"element": "O" 
			},
			{
				"x": -0.1644113705,
				"y": -0.788626752,
				"z": 1.5909023644,
				"element": "C" 
			},
			{
				"x": -0.6117512675,
				"y": -2.0915232029,
				"z": 1.6401254189,
				"element": "C" 
			},
			{
				"x": -2.3519788743,
				"y": -2.1306242088,
				"z": 1.8053049305,
				"element": "S" 
			},
			{
				"x": -2.4506102045,
				"y": -0.4075698391,
				"z": 1.7939465072,
				"element": "C" 
			},
			{
				"x": -1.2165294326,
				"y": 0.1707141191,
				"z": 1.6778283053,
				"element": "C" 
			},
			{
				"x": 0.1834534345,
				"y": -3.3551735634,
				"z": 1.6480621671,
				"element": "C" 
			},
			{
				"x": -0.4247474314,
				"y": -4.4347639757,
				"z": 1.0858400804,
				"element": "O" 
			},
			{
				"x": 1.2706501954,
				"y": -3.449542689,
				"z": 2.1535903704,
				"element": "O" 
			},
			{
				"x": 1.9073628761,
				"y": 2.3013064952,
				"z": -0.9255813996,
				"element": "H" 
			},
			{
				"x": 1.3586350497,
				"y": 0.6321914833,
				"z": -1.1410331564,
				"element": "H" 
			},
			{
				"x": 0.1868403532,
				"y": 1.9044223685,
				"z": -0.6898070685,
				"element": "H" 
			},
			{
				"x": 1.8236621686,
				"y": 2.0430333104,
				"z": 2.7640806012,
				"element": "H" 
			},
			{
				"x": 0.5842590122,
				"y": 2.9164763541,
				"z": 1.8175932342,
				"element": "H" 
			},
			{
				"x": 2.3099587263,
				"y": 3.1098600068,
				"z": 1.4336484997,
				"element": "H" 
			},
			{
				"x": -3.4103930213,
				"y": 0.0813205348,
				"z": 1.8893902049,
				"element": "H" 
			},
			{
				"x": -1.060251312,
				"y": 1.2409878496,
				"z": 1.6505993422,
				"element": "H" 
			},
			{
				"x": -1.18089569,
				"y": -4.1618742734,
				"z": 0.5461098656,
				"element": "H" 
			}
		],
		 "valence_orbital": [ 
			{
				"type": "occ",
				"energy": -0.30639,
				"method": "rhf"
			},
			{
				"type": "occ",
				"energy": -0.28743,
				"method": "rhf"
			},
			{
				"type": "occ",
				"energy": -0.28568,
				"method": "rhf"
			},
			{
				"type": "occ",
				"energy": -0.26776,
				"method": "rhf"
			},
			{
				"type": "occ",
				"energy": -0.25997,
				"method": "rhf"
			},
			{
				"type": "unocc",
				"energy": -0.07572,
				"method": "rhf"
			},
			{
				"type": "unocc",
				"energy": -0.0185,
				"method": "rhf"
			},
			{
				"type": "unocc",
				"energy": 0.00172,
				"method": "rhf"
			},
			{
				"type": "unocc",
				"energy": 0.02854,
				"method": "rhf"
			},
			{
				"type": "unocc",
				"energy": 0.04932,
				"method": "rhf"
			}
		],
		"cosmo_sigma_profile": { 
			"-0.025": 0.0,
			"-0.024": 0.0,
			"-0.023": 0.0,
			"-0.022": 0.0,
			"-0.021": 0.0,
			"-0.02": 0.0,
			"-0.019": 0.461079475726,
			"-0.018": 1.05689572842,
			"-0.017": 0.651333414531,
			"-0.016": 0.948717160764,
			"-0.015": 1.05377643076,
			"-0.014": 0.840034195755,
			"-0.013": 0.924532125032,
			"-0.012": 1.22790046462,
			"-0.011": 1.55440168257,
			"-0.01": 3.17552275427,
			"-0.009": 4.43865301572,
			"-0.008": 5.64011933769,
			"-0.007": 5.11061976076,
			"-0.006": 10.4516140869,
			"-0.005": 18.9698995481,
			"-0.004": 19.1652826914,
			"-0.003": 23.2780437553,
			"-0.002": 19.0414129251,
			"-0.001": 14.7543610767,
			"0.0": 13.9825495748,
			"0.001": 10.9838066041,
			"0.002": 7.8474340016,
			"0.003": 5.91612321647,
			"0.004": 5.6593129166,
			"0.005": 4.43926960549,
			"0.006": 4.4440516809,
			"0.007": 4.82249499715,
			"0.008": 6.89192446009,
			"0.009": 8.62895890912,
			"0.01": 13.0394802557,
			"0.011": 15.7135066395,
			"0.012": 3.90630826935,
			"0.013": 0.0,
			"0.014": 0.0,
			"0.015": 0.0,
			"0.016": 0.0,
			"0.017": 0.0,
			"0.018": 0.0,
			"0.019": 0.0,
			"0.02": 0.0,
			"0.021": 0.0,
			"0.022": 0.0,
			"0.023": 0.0,
			"0.024": 0.0,
			"0.025": 0.0
		}
	}
}
