{
	 "smiles": "CN1C(=O)CC2=C1C=CC(=C2)C(=O)CCl", 
	 "Tm": 473.15, 
	 "num_atms": 25, 
	 "gaussian": { 
		 "optdone": 1, 
		 "sigma_profile": "yes", 
		 "theory": "DFT", 
		 "functional": "B3LYP", 
		 "basiset": "6-31G**", 
		 "properties": { 
			 "R2extent": 4866.4693, 
			 "electric_dipole_moment_norm": 2.01862383321, 
			 "electric_quadrupole_moment_norm": 23.4420855034, 
			 "total_energy": -1090.6133614, 
			 "HOMO_LUMO_gap": 0.15955, 
			 "cosmo_polarized_energy": -14.67, 
			 "cosmo_cavitation_energy": 30.85, 
			 "cosmo_dispersion_energy": -22.43, 
			 "cosmo_repulsion_energy": 1.76, 
			 "cosmo_total_nonelectrostatic_energy": 10.17, 
			 "SMD_solvation_energy": 5.97 
		},
		"coords": [
			{
				"x": -1.1689170941,
				"y": 3.0879268618,
				"z": -1.3965403127,
				"element": "C" 
			},
			{
				"x": -1.2753371974,
				"y": 1.7525082484,
				"z": -0.8429658137,
				"element": "N" 
			},
			{
				"x": -2.4477991539,
				"y": 1.2681230625,
				"z": -0.2554250761,
				"element": "C" 
			},
			{
				"x": -3.4803509171,
				"y": 1.8978996102,
				"z": -0.143360781,
				"element": "O" 
			},
			{
				"x": -2.1593408787,
				"y": -0.1689906568,
				"z": 0.1976322065,
				"element": "C" 
			},
			{
				"x": -0.7247186671,
				"y": -0.3835452976,
				"z": -0.2074079031,
				"element": "C" 
			},
			{
				"x": -0.2615567662,
				"y": 0.7976943354,
				"z": -0.8220040384,
				"element": "C" 
			},
			{
				"x": 1.0403423928,
				"y": 0.9075431146,
				"z": -1.3125051261,
				"element": "C" 
			},
			{
				"x": 1.878006297,
				"y": -0.1961619668,
				"z": -1.1742659267,
				"element": "C" 
			},
			{
				"x": 1.4409430674,
				"y": -1.3860940935,
				"z": -0.5660448981,
				"element": "C" 
			},
			{
				"x": 0.1169018391,
				"y": -1.4708727717,
				"z": -0.0792904264,
				"element": "C" 
			},
			{
				"x": 2.4210915888,
				"y": -2.4943794432,
				"z": -0.4470510144,
				"element": "C" 
			},
			{
				"x": 3.579150526,
				"y": -2.3832341596,
				"z": -0.8231587023,
				"element": "O" 
			},
			{
				"x": 2.0044063312,
				"y": -3.818118283,
				"z": 0.2048759113,
				"element": "C" 
			},
			{
				"x": 0.8391416836,
				"y": -4.7538313968,
				"z": -0.8298664721,
				"element": "Cl" 
			},
			{
				"x": -0.3912618008,
				"y": 3.6633855723,
				"z": -0.8829414395,
				"element": "H" 
			},
			{
				"x": -2.134818338,
				"y": 3.57357945,
				"z": -1.2519483587,
				"element": "H" 
			},
			{
				"x": -0.9364943361,
				"y": 3.0504355813,
				"z": -2.4662357655,
				"element": "H" 
			},
			{
				"x": -2.3331489707,
				"y": -0.250002351,
				"z": 1.2763975647,
				"element": "H" 
			},
			{
				"x": -2.8629467788,
				"y": -0.8510530386,
				"z": -0.292572635,
				"element": "H" 
			},
			{
				"x": 1.3925460729,
				"y": 1.8180598474,
				"z": -1.7854549993,
				"element": "H" 
			},
			{
				"x": 2.9000890505,
				"y": -0.1608581537,
				"z": -1.5357857197,
				"element": "H" 
			},
			{
				"x": -0.2481413955,
				"y": -2.3844829857,
				"z": 0.3778995244,
				"element": "H" 
			},
			{
				"x": 2.8967193067,
				"y": -4.430950095,
				"z": 0.3152779277,
				"element": "H" 
			},
			{
				"x": 1.5216941382,
				"y": -3.671280991,
				"z": 1.1730422742,
				"element": "H" 
			}
		],
		 "valence_orbital": [ 
			{
				"type": "occ",
				"energy": -0.30529,
				"method": "rhf"
			},
			{
				"type": "occ",
				"energy": -0.27227,
				"method": "rhf"
			},
			{
				"type": "occ",
				"energy": -0.27079,
				"method": "rhf"
			},
			{
				"type": "occ",
				"energy": -0.25905,
				"method": "rhf"
			},
			{
				"type": "occ",
				"energy": -0.22972,
				"method": "rhf"
			},
			{
				"type": "unocc",
				"energy": -0.07017,
				"method": "rhf"
			},
			{
				"type": "unocc",
				"energy": -0.02526,
				"method": "rhf"
			},
			{
				"type": "unocc",
				"energy": -0.00682,
				"method": "rhf"
			},
			{
				"type": "unocc",
				"energy": 0.01676,
				"method": "rhf"
			},
			{
				"type": "unocc",
				"energy": 0.05656,
				"method": "rhf"
			}
		],
		"cosmo_sigma_profile": { 
			"-0.025": 0.0,
			"-0.024": 0.0,
			"-0.023": 0.0,
			"-0.022": 0.0,
			"-0.021": 0.0,
			"-0.02": 0.0,
			"-0.019": 0.0,
			"-0.018": 0.0,
			"-0.017": 0.0,
			"-0.016": 0.0,
			"-0.015": 0.0,
			"-0.014": 0.0,
			"-0.013": 0.0,
			"-0.012": 0.0,
			"-0.011": 0.0,
			"-0.01": 0.263964200054,
			"-0.009": 2.79275113146,
			"-0.008": 5.82042667655,
			"-0.007": 11.2735987176,
			"-0.006": 20.4195192271,
			"-0.005": 21.476070663,
			"-0.004": 19.655832579,
			"-0.003": 18.1453440157,
			"-0.002": 15.9408754842,
			"-0.001": 12.1016974848,
			"0.0": 12.9326216973,
			"0.001": 12.7628894197,
			"0.002": 16.3039410183,
			"0.003": 19.4228460473,
			"0.004": 12.6994288447,
			"0.005": 9.8171195183,
			"0.006": 6.74166111251,
			"0.007": 2.35214504022,
			"0.008": 3.0654396525,
			"0.009": 3.07635957662,
			"0.01": 4.28622698158,
			"0.011": 6.13454976311,
			"0.012": 7.19856356122,
			"0.013": 3.36611028056,
			"0.014": 0.376824162558,
			"0.015": 0.0,
			"0.016": 0.0,
			"0.017": 0.0,
			"0.018": 0.0,
			"0.019": 0.0,
			"0.02": 0.0,
			"0.021": 0.0,
			"0.022": 0.0,
			"0.023": 0.0,
			"0.024": 0.0,
			"0.025": 0.0
		}
	}
}
