{
	 "smiles": "CC1=C(C)C(C)=C(C)C(C)=C1C", 
	 "Tm": 439.15, 
	 "num_atms": 30, 
	 "gaussian": { 
		 "optdone": 1, 
		 "sigma_profile": "yes", 
		 "theory": "DFT", 
		 "functional": "B3LYP", 
		 "basiset": "6-31G**", 
		 "properties": { 
			 "R2extent": 2389.3551, 
			 "electric_dipole_moment_norm": 0.0, 
			 "electric_quadrupole_moment_norm": 3.63783331944, 
			 "total_energy": -468.151929812, 
			 "HOMO_LUMO_gap": 0.22748, 
			 "cosmo_polarized_energy": -3.22, 
			 "cosmo_cavitation_energy": 29.16, 
			 "cosmo_dispersion_energy": -21.57, 
			 "cosmo_repulsion_energy": 1.68, 
			 "cosmo_total_nonelectrostatic_energy": 9.27, 
			 "SMD_solvation_energy": 4.72 
		},
		"coords": [
			{
				"x": 0.4753546717,
				"y": 0.6339534893,
				"z": 2.8801588872,
				"element": "C" 
			},
			{
				"x": 0.3955774393,
				"y": 0.1316203062,
				"z": 1.4495366068,
				"element": "C" 
			},
			{
				"x": -0.3393801294,
				"y": -1.0326529731,
				"z": 1.1516142935,
				"element": "C" 
			},
			{
				"x": -1.1423057886,
				"y": -1.7229436156,
				"z": 2.2398037692,
				"element": "C" 
			},
			{
				"x": -0.3461768715,
				"y": -1.5441272198,
				"z": -0.1609401164,
				"element": "C" 
			},
			{
				"x": -1.0650430674,
				"y": -2.8465531146,
				"z": -0.4647157437,
				"element": "C" 
			},
			{
				"x": 0.3321090747,
				"y": -0.8579330794,
				"z": -1.1873434939,
				"element": "C" 
			},
			{
				"x": 0.2523321319,
				"y": -1.3602723516,
				"z": -2.6179635316,
				"element": "C" 
			},
			{
				"x": 1.0670695199,
				"y": 0.3063444923,
				"z": -0.8894202997,
				"element": "C" 
			},
			{
				"x": 1.8699973805,
				"y": 0.9966301804,
				"z": -1.9776135435,
				"element": "C" 
			},
			{
				"x": 1.0738648098,
				"y": 0.8178185438,
				"z": 0.4231292048,
				"element": "C" 
			},
			{
				"x": 1.7927263429,
				"y": 2.1202468732,
				"z": 0.7269088306,
				"element": "C" 
			},
			{
				"x": 0.4055454967,
				"y": -0.1850628245,
				"z": 3.5988784933,
				"element": "H" 
			},
			{
				"x": 1.4206700282,
				"y": 1.1442829953,
				"z": 3.0754998874,
				"element": "H" 
			},
			{
				"x": -0.32947472,
				"y": 1.3429832985,
				"z": 3.1200493511,
				"element": "H" 
			},
			{
				"x": -2.0272852932,
				"y": -2.2178306543,
				"z": 1.8346818965,
				"element": "H" 
			},
			{
				"x": -0.5580222792,
				"y": -2.4891402274,
				"z": 2.7685524707,
				"element": "H" 
			},
			{
				"x": -1.4947767015,
				"y": -1.0135727821,
				"z": 2.9913175123,
				"element": "H" 
			},
			{
				"x": -1.0681883412,
				"y": -3.5154401755,
				"z": 0.3982967828,
				"element": "H" 
			},
			{
				"x": -2.1135487078,
				"y": -2.6881225491,
				"z": -0.7537634137,
				"element": "H" 
			},
			{
				"x": -0.5859998595,
				"y": -3.3895970508,
				"z": -1.281928378,
				"element": "H" 
			},
			{
				"x": 0.3221430963,
				"y": -0.541261326,
				"z": -3.336688113,
				"element": "H" 
			},
			{
				"x": -0.6929857174,
				"y": -1.8706000726,
				"z": -2.813299932,
				"element": "H" 
			},
			{
				"x": 1.0571583827,
				"y": -2.0693070751,
				"z": -2.8578489989,
				"element": "H" 
			},
			{
				"x": 2.7549490766,
				"y": 1.4915607637,
				"z": -1.5724854539,
				"element": "H" 
			},
			{
				"x": 2.2225121674,
				"y": 0.2872465166,
				"z": -2.7290943147,
				"element": "H" 
			},
			{
				"x": 1.2856967868,
				"y": 1.7627872613,
				"z": -2.5063993616,
				"element": "H" 
			},
			{
				"x": 1.7959222335,
				"y": 2.7891120036,
				"z": -0.1361202783,
				"element": "H" 
			},
			{
				"x": 2.8412152646,
				"y": 1.9618147343,
				"z": 1.0160153827,
				"element": "H" 
			},
			{
				"x": 1.3136435733,
				"y": 2.663315633,
				"z": 1.544081604,
				"element": "H" 
			}
		],
		 "valence_orbital": [ 
			{
				"type": "occ",
				"energy": -0.30916,
				"method": "rhf"
			},
			{
				"type": "occ",
				"energy": -0.30915,
				"method": "rhf"
			},
			{
				"type": "occ",
				"energy": -0.30646,
				"method": "rhf"
			},
			{
				"type": "occ",
				"energy": -0.21049,
				"method": "rhf"
			},
			{
				"type": "occ",
				"energy": -0.21049,
				"method": "rhf"
			},
			{
				"type": "unocc",
				"energy": 0.01699,
				"method": "rhf"
			},
			{
				"type": "unocc",
				"energy": 0.017,
				"method": "rhf"
			},
			{
				"type": "unocc",
				"energy": 0.08943,
				"method": "rhf"
			},
			{
				"type": "unocc",
				"energy": 0.11434,
				"method": "rhf"
			},
			{
				"type": "unocc",
				"energy": 0.11435,
				"method": "rhf"
			}
		],
		"cosmo_sigma_profile": { 
			"-0.025": 0.0,
			"-0.024": 0.0,
			"-0.023": 0.0,
			"-0.022": 0.0,
			"-0.021": 0.0,
			"-0.02": 0.0,
			"-0.019": 0.0,
			"-0.018": 0.0,
			"-0.017": 0.0,
			"-0.016": 0.0,
			"-0.015": 0.0,
			"-0.014": 0.0,
			"-0.013": 0.0,
			"-0.012": 0.0,
			"-0.011": 0.0,
			"-0.01": 0.0,
			"-0.009": 0.0,
			"-0.008": 0.0,
			"-0.007": 0.0,
			"-0.006": 0.0,
			"-0.005": 0.0,
			"-0.004": 2.71886206303,
			"-0.003": 31.2824915434,
			"-0.002": 46.0941386051,
			"-0.001": 38.4490929245,
			"0.0": 33.0336871184,
			"0.001": 29.5061273871,
			"0.002": 13.3274015948,
			"0.003": 7.06232545828,
			"0.004": 5.73142370806,
			"0.005": 5.12548230111,
			"0.006": 5.22657648828,
			"0.007": 4.55475431481,
			"0.008": 4.46004298015,
			"0.009": 0.949808243942,
			"0.01": 0.0,
			"0.011": 0.0,
			"0.012": 0.0,
			"0.013": 0.0,
			"0.014": 0.0,
			"0.015": 0.0,
			"0.016": 0.0,
			"0.017": 0.0,
			"0.018": 0.0,
			"0.019": 0.0,
			"0.02": 0.0,
			"0.021": 0.0,
			"0.022": 0.0,
			"0.023": 0.0,
			"0.024": 0.0,
			"0.025": 0.0
		}
	}
}
