{
	 "smiles": "BrC1=CC=C(C=C1)C1=C(C(=NO1)C(=O)C1=CC=C2C=CC=CC2=C1)S(=O)(=O)C1=CC=CC=C1", 
	 "Tm": 446.15, 
	 "num_atms": 49, 
	 "gaussian": { 
		 "optdone": 1, 
		 "sigma_profile": "yes", 
		 "theory": "DFT", 
		 "functional": "B3LYP", 
		 "basiset": "6-31G**", 
		 "properties": { 
			 "R2extent": 23937.65, 
			 "electric_dipole_moment_norm": 7.6579138974, 
			 "electric_quadrupole_moment_norm": 20.2401427236, 
			 "total_energy": -4325.52844155, 
			 "HOMO_LUMO_gap": 0.15623, 
			 "cosmo_polarized_energy": -21.79, 
			 "cosmo_cavitation_energy": 58.2, 
			 "cosmo_dispersion_energy": -38.6, 
			 "cosmo_repulsion_energy": 2.83, 
			 "cosmo_total_nonelectrostatic_energy": 22.42, 
			 "SMD_solvation_energy": 7.69 
		},
		"coords": [
			{
				"x": 7.4552452382,
				"y": 3.9992517807,
				"z": -2.0787476167,
				"element": "Br" 
			},
			{
				"x": 5.9509458518,
				"y": 3.2767683906,
				"z": -1.1571636124,
				"element": "C" 
			},
			{
				"x": 6.0858637895,
				"y": 2.0806659683,
				"z": -0.4534115671,
				"element": "C" 
			},
			{
				"x": 4.9859506014,
				"y": 1.549498803,
				"z": 0.2169422443,
				"element": "C" 
			},
			{
				"x": 3.7472048971,
				"y": 2.2120258606,
				"z": 0.1810101815,
				"element": "C" 
			},
			{
				"x": 3.6376356033,
				"y": 3.425784814,
				"z": -0.5226238169,
				"element": "C" 
			},
			{
				"x": 4.7330705543,
				"y": 3.9572853734,
				"z": -1.1944640545,
				"element": "C" 
			},
			{
				"x": 2.574892403,
				"y": 1.7011651002,
				"z": 0.8964880108,
				"element": "C" 
			},
			{
				"x": 2.0628722823,
				"y": 0.4632842569,
				"z": 1.2361460865,
				"element": "C" 
			},
			{
				"x": 0.8490126503,
				"y": 0.7600486748,
				"z": 1.9366914965,
				"element": "C" 
			},
			{
				"x": 0.6352334028,
				"y": 2.0509029683,
				"z": 2.0008889667,
				"element": "N" 
			},
			{
				"x": 1.7224073892,
				"y": 2.6449126481,
				"z": 1.3464980352,
				"element": "O" 
			},
			{
				"x": -0.0937737868,
				"y": -0.1757531109,
				"z": 2.6839524089,
				"element": "C" 
			},
			{
				"x": 0.2035902814,
				"y": -0.4935957316,
				"z": 3.8196195066,
				"element": "O" 
			},
			{
				"x": -1.3377220298,
				"y": -0.6222977293,
				"z": 2.0108149067,
				"element": "C" 
			},
			{
				"x": -2.1395548877,
				"y": -1.5983974153,
				"z": 2.6688157603,
				"element": "C" 
			},
			{
				"x": -3.3021405357,
				"y": -2.0408384081,
				"z": 2.0925227501,
				"element": "C" 
			},
			{
				"x": -3.7382248859,
				"y": -1.5340882427,
				"z": 0.834514132,
				"element": "C" 
			},
			{
				"x": -4.9365193007,
				"y": -1.9717625796,
				"z": 0.2131196815,
				"element": "C" 
			},
			{
				"x": -5.3290312829,
				"y": -1.455847691,
				"z": -1.002968078,
				"element": "C" 
			},
			{
				"x": -4.5414550133,
				"y": -0.475973157,
				"z": -1.6556829397,
				"element": "C" 
			},
			{
				"x": -3.372879903,
				"y": -0.030532342,
				"z": -1.0798042,
				"element": "C" 
			},
			{
				"x": -2.9392027927,
				"y": -0.5447381576,
				"z": 0.1724968452,
				"element": "C" 
			},
			{
				"x": -1.7377097021,
				"y": -0.1098023162,
				"z": 0.7887581895,
				"element": "C" 
			},
			{
				"x": 2.5988432769,
				"y": -1.1854047059,
				"z": 0.8118213131,
				"element": "S" 
			},
			{
				"x": 1.6593744918,
				"y": -2.0862798684,
				"z": 1.4916079135,
				"element": "O" 
			},
			{
				"x": 4.049853424,
				"y": -1.2900337064,
				"z": 1.0281318657,
				"element": "O" 
			},
			{
				"x": 2.2939563541,
				"y": -1.3108142014,
				"z": -0.9570890306,
				"element": "C" 
			},
			{
				"x": 1.0161218187,
				"y": -1.6723483679,
				"z": -1.3929648266,
				"element": "C" 
			},
			{
				"x": 0.7770478197,
				"y": -1.7764546516,
				"z": -2.7627505666,
				"element": "C" 
			},
			{
				"x": 1.8058141992,
				"y": -1.5269424925,
				"z": -3.6753322157,
				"element": "C" 
			},
			{
				"x": 3.0809229319,
				"y": -1.1792165051,
				"z": -3.2240974038,
				"element": "C" 
			},
			{
				"x": 3.3347719343,
				"y": -1.0702975236,
				"z": -1.856104914,
				"element": "C" 
			},
			{
				"x": 7.0427450461,
				"y": 1.572722714,
				"z": -0.4191008216,
				"element": "H" 
			},
			{
				"x": 5.0903884901,
				"y": 0.627543491,
				"z": 0.7767059741,
				"element": "H" 
			},
			{
				"x": 2.6886382552,
				"y": 3.9500230057,
				"z": -0.5448355286,
				"element": "H" 
			},
			{
				"x": 4.643994509,
				"y": 4.8885013349,
				"z": -1.7416781949,
				"element": "H" 
			},
			{
				"x": -1.7985899279,
				"y": -1.9768673959,
				"z": 3.6259911002,
				"element": "H" 
			},
			{
				"x": -3.91046019,
				"y": -2.7904271915,
				"z": 2.5916930409,
				"element": "H" 
			},
			{
				"x": -5.5423620219,
				"y": -2.7220293789,
				"z": 0.7141646983,
				"element": "H" 
			},
			{
				"x": -6.2493056979,
				"y": -1.7990519557,
				"z": -1.4665889612,
				"element": "H" 
			},
			{
				"x": -4.8654801567,
				"y": -0.0761425949,
				"z": -2.6119472054,
				"element": "H" 
			},
			{
				"x": -2.7661140801,
				"y": 0.7236788047,
				"z": -1.5742927411,
				"element": "H" 
			},
			{
				"x": -1.1419260272,
				"y": 0.6493967932,
				"z": 0.2908883441,
				"element": "H" 
			},
			{
				"x": 0.2350323677,
				"y": -1.8825458253,
				"z": -0.6705461057,
				"element": "H" 
			},
			{
				"x": -0.2098308628,
				"y": -2.0599536624,
				"z": -3.1154870841,
				"element": "H" 
			},
			{
				"x": 1.6150232533,
				"y": -1.6125559427,
				"z": -4.741056683,
				"element": "H" 
			},
			{
				"x": 3.8813671404,
				"y": -0.9993635221,
				"z": -3.9351818733,
				"element": "H" 
			},
			{
				"x": 4.3228628281,
				"y": -0.8210044085,
				"z": -1.487463411,
				"element": "H" 
			}
		],
		 "valence_orbital": [ 
			{
				"type": "occ",
				"energy": -0.27775,
				"method": "rhf"
			},
			{
				"type": "occ",
				"energy": -0.26584,
				"method": "rhf"
			},
			{
				"type": "occ",
				"energy": -0.25759,
				"method": "rhf"
			},
			{
				"type": "occ",
				"energy": -0.25068,
				"method": "rhf"
			},
			{
				"type": "occ",
				"energy": -0.23234,
				"method": "rhf"
			},
			{
				"type": "unocc",
				"energy": -0.07611,
				"method": "rhf"
			},
			{
				"type": "unocc",
				"energy": -0.07524,
				"method": "rhf"
			},
			{
				"type": "unocc",
				"energy": -0.04808,
				"method": "rhf"
			},
			{
				"type": "unocc",
				"energy": -0.04213,
				"method": "rhf"
			},
			{
				"type": "unocc",
				"energy": -0.03378,
				"method": "rhf"
			}
		],
		"cosmo_sigma_profile": { 
			"-0.025": 0.0,
			"-0.024": 0.0,
			"-0.023": 0.0,
			"-0.022": 0.0,
			"-0.021": 0.0,
			"-0.02": 0.0,
			"-0.019": 0.0,
			"-0.018": 0.0,
			"-0.017": 0.0,
			"-0.016": 0.0,
			"-0.015": 0.0,
			"-0.014": 0.0,
			"-0.013": 0.0,
			"-0.012": 0.0,
			"-0.011": 0.0,
			"-0.01": 0.0,
			"-0.009": 0.296455003103,
			"-0.008": 5.21982093366,
			"-0.007": 20.0366937317,
			"-0.006": 30.5614481014,
			"-0.005": 32.5034248972,
			"-0.004": 32.3848620322,
			"-0.003": 30.9174411968,
			"-0.002": 31.2068358261,
			"-0.001": 31.2554297074,
			"0.0": 38.8764133858,
			"0.001": 47.2324483091,
			"0.002": 47.0327650013,
			"0.003": 41.1068773602,
			"0.004": 27.2917990044,
			"0.005": 8.65818376289,
			"0.006": 7.46739076426,
			"0.007": 6.11367839112,
			"0.008": 6.9317791855,
			"0.009": 8.11436262057,
			"0.01": 11.4548159887,
			"0.011": 8.27472109273,
			"0.012": 1.02067568298,
			"0.013": 0.0,
			"0.014": 0.0,
			"0.015": 0.0,
			"0.016": 0.0,
			"0.017": 0.0,
			"0.018": 0.0,
			"0.019": 0.0,
			"0.02": 0.0,
			"0.021": 0.0,
			"0.022": 0.0,
			"0.023": 0.0,
			"0.024": 0.0,
			"0.025": 0.0
		}
	}
}
