{
	 "smiles": "OC(=O)C1=CC(C(O)=O)=C(C=C1C(O)=O)C(O)=O", 
	 "Tm": 556.15, 
	 "num_atms": 24, 
	 "gaussian": { 
		 "optdone": 1, 
		 "sigma_profile": "yes", 
		 "theory": "DFT", 
		 "functional": "B3LYP", 
		 "basiset": "6-31G**", 
		 "properties": { 
			 "R2extent": 4968.7071, 
			 "electric_dipole_moment_norm": 5.62102430345, 
			 "electric_quadrupole_moment_norm": 23.9688925228, 
			 "total_energy": -986.499398386, 
			 "HOMO_LUMO_gap": 0.17024, 
			 "cosmo_polarized_energy": -33.23, 
			 "cosmo_cavitation_energy": 30.97, 
			 "cosmo_dispersion_energy": -22.21, 
			 "cosmo_repulsion_energy": 1.72, 
			 "cosmo_total_nonelectrostatic_energy": 10.48, 
			 "SMD_solvation_energy": 9.82 
		},
		"coords": [
			{
				"x": -2.0794369983,
				"y": 2.0759917858,
				"z": -0.5091429702,
				"element": "O" 
			},
			{
				"x": -0.9256888288,
				"y": 1.6315554974,
				"z": -1.0337364894,
				"element": "C" 
			},
			{
				"x": -0.4484540207,
				"y": 2.2258970752,
				"z": -1.9841907262,
				"element": "O" 
			},
			{
				"x": -0.3437360888,
				"y": 0.3870111093,
				"z": -0.4256485683,
				"element": "C" 
			},
			{
				"x": -1.2651035039,
				"y": -0.5850285448,
				"z": 0.002258839,
				"element": "C" 
			},
			{
				"x": -0.8616788683,
				"y": -1.7951250453,
				"z": 0.5605775775,
				"element": "C" 
			},
			{
				"x": -1.8662529741,
				"y": -2.8639895214,
				"z": 0.8535575759,
				"element": "C" 
			},
			{
				"x": -3.0928285593,
				"y": -2.3580900975,
				"z": 1.1151422762,
				"element": "O" 
			},
			{
				"x": -1.6263709121,
				"y": -4.0491071202,
				"z": 0.8171740688,
				"element": "O" 
			},
			{
				"x": 0.5110644543,
				"y": -2.0333662322,
				"z": 0.7464213334,
				"element": "C" 
			},
			{
				"x": 1.4270845504,
				"y": -1.0751103723,
				"z": 0.3162641889,
				"element": "C" 
			},
			{
				"x": 1.0413278944,
				"y": 0.1252377892,
				"z": -0.2996243975,
				"element": "C" 
			},
			{
				"x": 2.2342977794,
				"y": 1.0061446941,
				"z": -0.6920272822,
				"element": "C" 
			},
			{
				"x": 2.0929098733,
				"y": 1.9083767051,
				"z": -1.6534426066,
				"element": "O" 
			},
			{
				"x": 3.3018247426,
				"y": 0.8210207866,
				"z": -0.1464399036,
				"element": "O" 
			},
			{
				"x": 1.0163780806,
				"y": -3.2168445939,
				"z": 1.5429854538,
				"element": "C" 
			},
			{
				"x": 1.9738089402,
				"y": -3.9620404035,
				"z": 0.947916749,
				"element": "O" 
			},
			{
				"x": 0.6588260661,
				"y": -3.4300883695,
				"z": 2.6716946426,
				"element": "O" 
			},
			{
				"x": -2.2871917881,
				"y": 1.6109979444,
				"z": 0.3145732942,
				"element": "H" 
			},
			{
				"x": -2.327883422,
				"y": -0.4259653125,
				"z": -0.1469087162,
				"element": "H" 
			},
			{
				"x": -3.6802569718,
				"y": -3.1204354262,
				"z": 1.2532592345,
				"element": "H" 
			},
			{
				"x": 2.4904110487,
				"y": -1.2170368148,
				"z": 0.4789730205,
				"element": "H" 
			},
			{
				"x": 1.1611055647,
				"y": 1.9786820561,
				"z": -1.9791940504,
				"element": "H" 
			},
			{
				"x": 2.0745439415,
				"y": -3.7070875888,
				"z": 0.0192574561,
				"element": "H" 
			}
		],
		 "valence_orbital": [ 
			{
				"type": "occ",
				"energy": -0.31596,
				"method": "rhf"
			},
			{
				"type": "occ",
				"energy": -0.31365,
				"method": "rhf"
			},
			{
				"type": "occ",
				"energy": -0.30578,
				"method": "rhf"
			},
			{
				"type": "occ",
				"energy": -0.29009,
				"method": "rhf"
			},
			{
				"type": "occ",
				"energy": -0.28436,
				"method": "rhf"
			},
			{
				"type": "unocc",
				"energy": -0.11412,
				"method": "rhf"
			},
			{
				"type": "unocc",
				"energy": -0.08674,
				"method": "rhf"
			},
			{
				"type": "unocc",
				"energy": -0.03311,
				"method": "rhf"
			},
			{
				"type": "unocc",
				"energy": -0.00557,
				"method": "rhf"
			},
			{
				"type": "unocc",
				"energy": 0.00176,
				"method": "rhf"
			}
		],
		"cosmo_sigma_profile": { 
			"-0.025": 0.0,
			"-0.024": 0.0,
			"-0.023": 0.0,
			"-0.022": 0.0,
			"-0.021": 0.13073831478,
			"-0.02": 1.11781411261,
			"-0.019": 2.82612818118,
			"-0.018": 3.45918927944,
			"-0.017": 2.56098673236,
			"-0.016": 2.71726080123,
			"-0.015": 3.03169712801,
			"-0.014": 2.91619227225,
			"-0.013": 2.04341254777,
			"-0.012": 3.17057695906,
			"-0.011": 3.32140821562,
			"-0.01": 4.93519901578,
			"-0.009": 5.15641778003,
			"-0.008": 7.26950118464,
			"-0.007": 6.24937926302,
			"-0.006": 8.61549271458,
			"-0.005": 7.7524717669,
			"-0.004": 12.3851588715,
			"-0.003": 16.779165999,
			"-0.002": 14.3849261863,
			"-0.001": 9.74429023968,
			"0.0": 7.30140909427,
			"0.001": 7.52646034699,
			"0.002": 7.68114588703,
			"0.003": 8.39789448388,
			"0.004": 7.65088677407,
			"0.005": 9.09610176749,
			"0.006": 8.62910258147,
			"0.007": 13.0716259071,
			"0.008": 13.1391609555,
			"0.009": 13.6362017238,
			"0.01": 14.5030380797,
			"0.011": 12.3282932861,
			"0.012": 4.31469776838,
			"0.013": 1.02252815247,
			"0.014": 0.0,
			"0.015": 0.0,
			"0.016": 0.0,
			"0.017": 0.0,
			"0.018": 0.0,
			"0.019": 0.0,
			"0.02": 0.0,
			"0.021": 0.0,
			"0.022": 0.0,
			"0.023": 0.0,
			"0.024": 0.0,
			"0.025": 0.0
		}
	}
}
