{
	 "smiles": "COC1=CC=C(Br)C=C1N", 
	 "Tm": 368.15, 
	 "num_atms": 18, 
	 "gaussian": { 
		 "optdone": 1, 
		 "sigma_profile": "yes", 
		 "theory": "DFT", 
		 "functional": "B3LYP", 
		 "basiset": "6-31G**", 
		 "properties": { 
			 "R2extent": 3493.8289, 
			 "electric_dipole_moment_norm": 3.5918781285, 
			 "electric_quadrupole_moment_norm": 11.9093886875, 
			 "total_energy": -2972.93618317, 
			 "HOMO_LUMO_gap": 0.1989, 
			 "cosmo_polarized_energy": -9.02, 
			 "cosmo_cavitation_energy": 23.91, 
			 "cosmo_dispersion_energy": -18.38, 
			 "cosmo_repulsion_energy": 1.5, 
			 "cosmo_total_nonelectrostatic_energy": 7.03, 
			 "SMD_solvation_energy": 3.65 
		},
		"coords": [
			{
				"x": -1.1256459094,
				"y": -2.7722045833,
				"z": -2.2640363487,
				"element": "C" 
			},
			{
				"x": -0.554873456,
				"y": -1.4838611157,
				"z": -2.1073203304,
				"element": "O" 
			},
			{
				"x": 0.182103322,
				"y": -1.2368644613,
				"z": -0.9756459968,
				"element": "C" 
			},
			{
				"x": 0.4212577944,
				"y": -2.1524496142,
				"z": 0.0435943674,
				"element": "C" 
			},
			{
				"x": 1.2029234053,
				"y": -1.7993427085,
				"z": 1.1524709276,
				"element": "C" 
			},
			{
				"x": 1.7349611823,
				"y": -0.5194910767,
				"z": 1.2096093027,
				"element": "C" 
			},
			{
				"x": 2.8129302694,
				"y": -0.0110299272,
				"z": 2.7093131572,
				"element": "Br" 
			},
			{
				"x": 1.5066184288,
				"y": 0.4145327593,
				"z": 0.1985599511,
				"element": "C" 
			},
			{
				"x": 0.7239331397,
				"y": 0.071252982,
				"z": -0.9080013551,
				"element": "C" 
			},
			{
				"x": 0.4213040994,
				"y": 0.9825104149,
				"z": -1.9132081478,
				"element": "N" 
			},
			{
				"x": -1.8343085067,
				"y": -2.9985299308,
				"z": -1.4571869023,
				"element": "H" 
			},
			{
				"x": -1.6591164188,
				"y": -2.7549964553,
				"z": -3.2157484926,
				"element": "H" 
			},
			{
				"x": -0.355632015,
				"y": -3.5540775806,
				"z": -2.2946712323,
				"element": "H" 
			},
			{
				"x": 0.0083903222,
				"y": -3.1530269583,
				"z": -0.0094995641,
				"element": "H" 
			},
			{
				"x": 1.3874379854,
				"y": -2.5143670498,
				"z": 1.9446717669,
				"element": "H" 
			},
			{
				"x": 1.9289135493,
				"y": 1.4111771232,
				"z": 0.2697595492,
				"element": "H" 
			},
			{
				"x": 1.0922427112,
				"y": 1.7258500279,
				"z": -2.0432237438,
				"element": "H" 
			},
			{
				"x": 0.1152600966,
				"y": 0.5587181544,
				"z": -2.7777369084,
				"element": "H" 
			}
		],
		 "valence_orbital": [ 
			{
				"type": "occ",
				"energy": -0.31917,
				"method": "rhf"
			},
			{
				"type": "occ",
				"energy": -0.27963,
				"method": "rhf"
			},
			{
				"type": "occ",
				"energy": -0.2761,
				"method": "rhf"
			},
			{
				"type": "occ",
				"energy": -0.22952,
				"method": "rhf"
			},
			{
				"type": "occ",
				"energy": -0.19527,
				"method": "rhf"
			},
			{
				"type": "unocc",
				"energy": 0.00363,
				"method": "rhf"
			},
			{
				"type": "unocc",
				"energy": 0.01341,
				"method": "rhf"
			},
			{
				"type": "unocc",
				"energy": 0.01762,
				"method": "rhf"
			},
			{
				"type": "unocc",
				"energy": 0.08272,
				"method": "rhf"
			},
			{
				"type": "unocc",
				"energy": 0.09714,
				"method": "rhf"
			}
		],
		"cosmo_sigma_profile": { 
			"-0.025": 0.0,
			"-0.024": 0.0,
			"-0.023": 0.0,
			"-0.022": 0.0,
			"-0.021": 0.0,
			"-0.02": 0.0,
			"-0.019": 0.0,
			"-0.018": 0.0,
			"-0.017": 0.0,
			"-0.016": 0.0,
			"-0.015": 0.0,
			"-0.014": 0.0,
			"-0.013": 0.590517848856,
			"-0.012": 1.54111291363,
			"-0.011": 1.82326956957,
			"-0.01": 2.49483532918,
			"-0.009": 2.78488176714,
			"-0.008": 2.61262657336,
			"-0.007": 3.37718446696,
			"-0.006": 9.75083358675,
			"-0.005": 15.0886094222,
			"-0.004": 14.2720787319,
			"-0.003": 13.8335315414,
			"-0.002": 10.5463022003,
			"-0.001": 8.84271030311,
			"0.0": 8.8560995085,
			"0.001": 9.05907680927,
			"0.002": 11.3494212278,
			"0.003": 17.2258096672,
			"0.004": 20.806159433,
			"0.005": 23.9515480381,
			"0.006": 6.9563653911,
			"0.007": 2.06472867569,
			"0.008": 1.42838801852,
			"0.009": 0.995204295232,
			"0.01": 0.458103302905,
			"0.011": 0.86404142946,
			"0.012": 0.805445805122,
			"0.013": 0.52796819119,
			"0.014": 0.436615803509,
			"0.015": 0.0350638561123,
			"0.016": 0.0,
			"0.017": 0.0,
			"0.018": 0.0,
			"0.019": 0.0,
			"0.02": 0.0,
			"0.021": 0.0,
			"0.022": 0.0,
			"0.023": 0.0,
			"0.024": 0.0,
			"0.025": 0.0
		}
	}
}
