{
	 "smiles": "CCOC(=O)C1=C(C)NC(=O)NC1C1=C(Cl)C(Cl)=CC=C1", 
	 "Tm": 516.15, 
	 "num_atms": 35, 
	 "gaussian": { 
		 "optdone": 1, 
		 "sigma_profile": "yes", 
		 "theory": "DFT", 
		 "functional": "B3LYP", 
		 "basiset": "6-31G**", 
		 "properties": { 
			 "R2extent": 8494.6054, 
			 "electric_dipole_moment_norm": 4.049438629, 
			 "electric_quadrupole_moment_norm": 25.6316521621, 
			 "total_energy": -1797.51936586, 
			 "HOMO_LUMO_gap": 0.18423, 
			 "cosmo_polarized_energy": -18.42, 
			 "cosmo_cavitation_energy": 41.44, 
			 "cosmo_dispersion_energy": -28.82, 
			 "cosmo_repulsion_energy": 2.23, 
			 "cosmo_total_nonelectrostatic_energy": 14.85, 
			 "SMD_solvation_energy": 7.83 
		},
		"coords": [
			{
				"x": 3.6499175861,
				"y": -1.5171816938,
				"z": 1.5876854171,
				"element": "C" 
			},
			{
				"x": 2.1346949331,
				"y": -1.5314740225,
				"z": 1.5116562627,
				"element": "C" 
			},
			{
				"x": 1.7217519085,
				"y": -0.3350266796,
				"z": 0.8138026691,
				"element": "O" 
			},
			{
				"x": 0.3819668537,
				"y": -0.1960103402,
				"z": 0.6403848658,
				"element": "C" 
			},
			{
				"x": -0.4137116184,
				"y": -1.0310293518,
				"z": 1.0468245834,
				"element": "O" 
			},
			{
				"x": -0.0313974572,
				"y": 1.0244559359,
				"z": -0.0620706458,
				"element": "C" 
			},
			{
				"x": 0.7673739614,
				"y": 2.0967987812,
				"z": -0.3356215211,
				"element": "C" 
			},
			{
				"x": 2.2525608316,
				"y": 2.2006172355,
				"z": -0.0914098349,
				"element": "C" 
			},
			{
				"x": 0.2128387082,
				"y": 3.230905357,
				"z": -0.8875745702,
				"element": "N" 
			},
			{
				"x": -1.1536044376,
				"y": 3.4555032053,
				"z": -1.0918708653,
				"element": "C" 
			},
			{
				"x": -1.5606214707,
				"y": 4.5279258706,
				"z": -1.510910273,
				"element": "O" 
			},
			{
				"x": -1.9475110513,
				"y": 2.4042394271,
				"z": -0.7449272579,
				"element": "N" 
			},
			{
				"x": -1.5224842403,
				"y": 1.0538934387,
				"z": -0.3757790595,
				"element": "C" 
			},
			{
				"x": -1.9883170977,
				"y": -0.0024619028,
				"z": -1.3984289606,
				"element": "C" 
			},
			{
				"x": -1.6152329205,
				"y": -0.02901034,
				"z": -2.7544744076,
				"element": "C" 
			},
			{
				"x": -0.5166002205,
				"y": 1.166807439,
				"z": -3.4055781934,
				"element": "Cl" 
			},
			{
				"x": -2.1234811395,
				"y": -1.0214582076,
				"z": -3.60860804,
				"element": "C" 
			},
			{
				"x": -1.6813536305,
				"y": -1.0803571387,
				"z": -5.3013003778,
				"element": "Cl" 
			},
			{
				"x": -2.9995104332,
				"y": -1.9934871459,
				"z": -3.1259275212,
				"element": "C" 
			},
			{
				"x": -3.3680857829,
				"y": -1.9774407348,
				"z": -1.7847130231,
				"element": "C" 
			},
			{
				"x": -2.865502931,
				"y": -0.9926792194,
				"z": -0.9394540178,
				"element": "C" 
			},
			{
				"x": 4.0093587288,
				"y": -0.6419110763,
				"z": 2.1370490922,
				"element": "H" 
			},
			{
				"x": 4.092920253,
				"y": -1.5031681751,
				"z": 0.5875525167,
				"element": "H" 
			},
			{
				"x": 4.002800124,
				"y": -2.4142399369,
				"z": 2.1059324017,
				"element": "H" 
			},
			{
				"x": 1.6736011982,
				"y": -1.5419304265,
				"z": 2.5043177209,
				"element": "H" 
			},
			{
				"x": 1.7594638663,
				"y": -2.4044044835,
				"z": 0.9688429563,
				"element": "H" 
			},
			{
				"x": 2.4934404105,
				"y": 2.0019331103,
				"z": 0.9538537161,
				"element": "H" 
			},
			{
				"x": 2.7947936357,
				"y": 1.4628453358,
				"z": -0.6862600988,
				"element": "H" 
			},
			{
				"x": 2.6142516083,
				"y": 3.199065423,
				"z": -0.3521230642,
				"element": "H" 
			},
			{
				"x": 0.7921398382,
				"y": 4.0271091482,
				"z": -1.1076140437,
				"element": "H" 
			},
			{
				"x": -2.9288970749,
				"y": 2.5603760123,
				"z": -0.9251525348,
				"element": "H" 
			},
			{
				"x": -2.0424024941,
				"y": 0.7834292356,
				"z": 0.5501776257,
				"element": "H" 
			},
			{
				"x": -3.377996619,
				"y": -2.7486059515,
				"z": -3.805532113,
				"element": "H" 
			},
			{
				"x": -4.0443753594,
				"y": -2.7344690964,
				"z": -1.4005519543,
				"element": "H" 
			},
			{
				"x": -3.1348884667,
				"y": -0.993659032,
				"z": 0.1115025502,
				"element": "H" 
			}
		],
		 "valence_orbital": [ 
			{
				"type": "occ",
				"energy": -0.26955,
				"method": "rhf"
			},
			{
				"type": "occ",
				"energy": -0.26346,
				"method": "rhf"
			},
			{
				"type": "occ",
				"energy": -0.24975,
				"method": "rhf"
			},
			{
				"type": "occ",
				"energy": -0.24676,
				"method": "rhf"
			},
			{
				"type": "occ",
				"energy": -0.22661,
				"method": "rhf"
			},
			{
				"type": "unocc",
				"energy": -0.04238,
				"method": "rhf"
			},
			{
				"type": "unocc",
				"energy": -0.0238,
				"method": "rhf"
			},
			{
				"type": "unocc",
				"energy": -0.01542,
				"method": "rhf"
			},
			{
				"type": "unocc",
				"energy": 0.00475,
				"method": "rhf"
			},
			{
				"type": "unocc",
				"energy": 0.05794,
				"method": "rhf"
			}
		],
		"cosmo_sigma_profile": { 
			"-0.025": 0.0,
			"-0.024": 0.0,
			"-0.023": 0.0,
			"-0.022": 0.0,
			"-0.021": 0.0,
			"-0.02": 0.0,
			"-0.019": 0.0,
			"-0.018": 0.0,
			"-0.017": 0.0,
			"-0.016": 0.0932711165069,
			"-0.015": 1.48461863778,
			"-0.014": 2.23059324751,
			"-0.013": 1.94199468987,
			"-0.012": 2.11900932941,
			"-0.011": 2.06641645627,
			"-0.01": 2.39964068828,
			"-0.009": 2.13152008559,
			"-0.008": 3.12253348586,
			"-0.007": 8.08316947148,
			"-0.006": 10.0811716899,
			"-0.005": 16.0528556943,
			"-0.004": 21.9310440346,
			"-0.003": 26.5482701345,
			"-0.002": 26.9957333037,
			"-0.001": 31.3761595671,
			"0.0": 31.4878811883,
			"0.001": 30.2467539137,
			"0.002": 24.0759124466,
			"0.003": 22.9966883781,
			"0.004": 19.3127231064,
			"0.005": 9.94170212357,
			"0.006": 4.93813887715,
			"0.007": 2.98600044152,
			"0.008": 2.55709541244,
			"0.009": 2.65614790481,
			"0.01": 3.29330896347,
			"0.011": 2.91969790281,
			"0.012": 4.32235641351,
			"0.013": 7.99638402877,
			"0.014": 3.98011758414,
			"0.015": 0.11703675415,
			"0.016": 0.0,
			"0.017": 0.0,
			"0.018": 0.0,
			"0.019": 0.0,
			"0.02": 0.0,
			"0.021": 0.0,
			"0.022": 0.0,
			"0.023": 0.0,
			"0.024": 0.0,
			"0.025": 0.0
		}
	}
}
