{
	 "smiles": "CC(C)(C)OC(=O)N1CCC(O)C1", 
	 "Tm": 328.15, 
	 "num_atms": 30, 
	 "gaussian": { 
		 "optdone": 1, 
		 "sigma_profile": "yes", 
		 "theory": "DFT", 
		 "functional": "B3LYP", 
		 "basiset": "6-31G**", 
		 "properties": { 
			 "R2extent": 3628.0291, 
			 "electric_dipole_moment_norm": 2.42626175628, 
			 "electric_quadrupole_moment_norm": 17.4902415515, 
			 "total_energy": -633.654709633, 
			 "HOMO_LUMO_gap": 0.28497, 
			 "cosmo_polarized_energy": -12.21, 
			 "cosmo_cavitation_energy": 31.19, 
			 "cosmo_dispersion_energy": -22.18, 
			 "cosmo_repulsion_energy": 1.79, 
			 "cosmo_total_nonelectrostatic_energy": 10.8, 
			 "SMD_solvation_energy": 5.39 
		},
		"coords": [
			{
				"x": 0.5073225717,
				"y": 1.6200925874,
				"z": -3.0065901587,
				"element": "C" 
			},
			{
				"x": 0.5650830616,
				"y": 0.1006088711,
				"z": -2.8258973254,
				"element": "C" 
			},
			{
				"x": 2.0170330266,
				"y": -0.377406329,
				"z": -2.7121088384,
				"element": "C" 
			},
			{
				"x": -0.1916985474,
				"y": -0.6093073427,
				"z": -3.9541598909,
				"element": "C" 
			},
			{
				"x": -0.1318167829,
				"y": -0.0960923652,
				"z": -1.5477512459,
				"element": "O" 
			},
			{
				"x": -0.296555404,
				"y": -1.3417678272,
				"z": -1.0309279367,
				"element": "C" 
			},
			{
				"x": 0.0952817544,
				"y": -2.3899242742,
				"z": -1.5278842788,
				"element": "O" 
			},
			{
				"x": -0.9737450066,
				"y": -1.2801306814,
				"z": 0.1490394324,
				"element": "N" 
			},
			{
				"x": -1.2375835376,
				"y": -2.5018363109,
				"z": 0.9196611684,
				"element": "C" 
			},
			{
				"x": -1.7001843755,
				"y": -1.9570095178,
				"z": 2.2769948477,
				"element": "C" 
			},
			{
				"x": -2.3590943484,
				"y": -0.6111540484,
				"z": 1.9213332967,
				"element": "C" 
			},
			{
				"x": -2.4026157921,
				"y": 0.3336498333,
				"z": 2.9759008214,
				"element": "O" 
			},
			{
				"x": -1.45976449,
				"y": -0.0657749171,
				"z": 0.8031697874,
				"element": "C" 
			},
			{
				"x": -0.5300636554,
				"y": 1.9652935539,
				"z": -3.0457834383,
				"element": "H" 
			},
			{
				"x": 1.0037232898,
				"y": 1.9077324529,
				"z": -3.9382565185,
				"element": "H" 
			},
			{
				"x": 1.0075875116,
				"y": 2.1266984054,
				"z": -2.1760883108,
				"element": "H" 
			},
			{
				"x": 2.0597869036,
				"y": -1.4557275493,
				"z": -2.5579874417,
				"element": "H" 
			},
			{
				"x": 2.5605871342,
				"y": -0.1268800147,
				"z": -3.6290850262,
				"element": "H" 
			},
			{
				"x": 2.5156435527,
				"y": 0.1215829837,
				"z": -1.8748910261,
				"element": "H" 
			},
			{
				"x": -0.1721407156,
				"y": -1.6903564051,
				"z": -3.8151716864,
				"element": "H" 
			},
			{
				"x": -1.2332558703,
				"y": -0.2730737453,
				"z": -3.9821058537,
				"element": "H" 
			},
			{
				"x": 0.2692386432,
				"y": -0.3658684279,
				"z": -4.9171389507,
				"element": "H" 
			},
			{
				"x": -2.0148080604,
				"y": -3.1053989905,
				"z": 0.4320994176,
				"element": "H" 
			},
			{
				"x": -0.3383216175,
				"y": -3.1203350985,
				"z": 0.9798605027,
				"element": "H" 
			},
			{
				"x": -0.8411456976,
				"y": -1.7506687628,
				"z": 2.9251538081,
				"element": "H" 
			},
			{
				"x": -2.3707659218,
				"y": -2.643822921,
				"z": 2.8023078737,
				"element": "H" 
			},
			{
				"x": -3.3681195482,
				"y": -0.7927688772,
				"z": 1.517459076,
				"element": "H" 
			},
			{
				"x": -3.0427243949,
				"y": 0.0256968413,
				"z": 3.6296020643,
				"element": "H" 
			},
			{
				"x": -0.644167426,
				"y": 0.517815147,
				"z": 1.2508675102,
				"element": "H" 
			},
			{
				"x": -1.9927162571,
				"y": 0.5799337304,
				"z": 0.1015783205,
				"element": "H" 
			}
		],
		 "valence_orbital": [ 
			{
				"type": "occ",
				"energy": -0.32417,
				"method": "rhf"
			},
			{
				"type": "occ",
				"energy": -0.27933,
				"method": "rhf"
			},
			{
				"type": "occ",
				"energy": -0.27455,
				"method": "rhf"
			},
			{
				"type": "occ",
				"energy": -0.25247,
				"method": "rhf"
			},
			{
				"type": "occ",
				"energy": -0.23081,
				"method": "rhf"
			},
			{
				"type": "unocc",
				"energy": 0.05416,
				"method": "rhf"
			},
			{
				"type": "unocc",
				"energy": 0.06986,
				"method": "rhf"
			},
			{
				"type": "unocc",
				"energy": 0.08547,
				"method": "rhf"
			},
			{
				"type": "unocc",
				"energy": 0.09806,
				"method": "rhf"
			},
			{
				"type": "unocc",
				"energy": 0.10781,
				"method": "rhf"
			}
		],
		"cosmo_sigma_profile": { 
			"-0.025": 0.0,
			"-0.024": 0.0,
			"-0.023": 0.0,
			"-0.022": 0.0,
			"-0.021": 0.0,
			"-0.02": 0.0,
			"-0.019": 0.0,
			"-0.018": 0.0,
			"-0.017": 0.0,
			"-0.016": 0.601921694656,
			"-0.015": 1.08782872223,
			"-0.014": 1.38205744892,
			"-0.013": 0.240158006488,
			"-0.012": 0.849343662929,
			"-0.011": 1.0750291134,
			"-0.01": 0.932189227409,
			"-0.009": 1.52629994981,
			"-0.008": 0.739713116727,
			"-0.007": 0.986638402989,
			"-0.006": 1.15637469836,
			"-0.005": 5.11918447444,
			"-0.004": 27.4225728884,
			"-0.003": 32.1899043709,
			"-0.002": 27.6647301578,
			"-0.001": 24.4847768227,
			"0.0": 29.131917942,
			"0.001": 26.5329062777,
			"0.002": 9.02256427867,
			"0.003": 6.74610097131,
			"0.004": 5.66939176993,
			"0.005": 4.86043331987,
			"0.006": 5.19132684279,
			"0.007": 3.95458246891,
			"0.008": 3.06834240815,
			"0.009": 2.94201019557,
			"0.01": 2.59695140101,
			"0.011": 2.58049342708,
			"0.012": 2.9428678713,
			"0.013": 4.68823064621,
			"0.014": 3.71001182072,
			"0.015": 0.247938498614,
			"0.016": 0.0,
			"0.017": 0.0,
			"0.018": 0.0,
			"0.019": 0.0,
			"0.02": 0.0,
			"0.021": 0.0,
			"0.022": 0.0,
			"0.023": 0.0,
			"0.024": 0.0,
			"0.025": 0.0
		}
	}
}
