{
	 "smiles": "ClCC1=COC(=N1)C1=CC=C(Cl)C=C1", 
	 "Tm": 365.15, 
	 "num_atms": 21, 
	 "gaussian": { 
		 "optdone": 1, 
		 "sigma_profile": "yes", 
		 "theory": "DFT", 
		 "functional": "B3LYP", 
		 "basiset": "6-31G**", 
		 "properties": { 
			 "R2extent": 6966.0527, 
			 "electric_dipole_moment_norm": 2.92020335936, 
			 "electric_quadrupole_moment_norm": 16.7601996378, 
			 "total_energy": -1435.63914052, 
			 "HOMO_LUMO_gap": 0.17581, 
			 "cosmo_polarized_energy": -9.68, 
			 "cosmo_cavitation_energy": 30.0, 
			 "cosmo_dispersion_energy": -22.28, 
			 "cosmo_repulsion_energy": 1.77, 
			 "cosmo_total_nonelectrostatic_energy": 9.5, 
			 "SMD_solvation_energy": 3.72 
		},
		"coords": [
			{
				"x": 1.9015129605,
				"y": -2.3052445846,
				"z": 6.1282889125,
				"element": "Cl" 
			},
			{
				"x": 0.2038914241,
				"y": -2.3074191587,
				"z": 5.4366328035,
				"element": "C" 
			},
			{
				"x": 0.0247871107,
				"y": -1.298974974,
				"z": 4.3635151467,
				"element": "C" 
			},
			{
				"x": -0.5277172493,
				"y": -0.0570005561,
				"z": 4.4397445864,
				"element": "C" 
			},
			{
				"x": -0.4810199165,
				"y": 0.5033086193,
				"z": 3.1957094578,
				"element": "O" 
			},
			{
				"x": 0.1117724904,
				"y": -0.4455163866,
				"z": 2.407633319,
				"element": "C" 
			},
			{
				"x": 0.4270865595,
				"y": -1.5301949486,
				"z": 3.0560485583,
				"element": "N" 
			},
			{
				"x": 0.3086820041,
				"y": -0.1492156201,
				"z": 0.9930018151,
				"element": "C" 
			},
			{
				"x": 0.9273020189,
				"y": -1.1070021864,
				"z": 0.1731047212,
				"element": "C" 
			},
			{
				"x": 1.128255072,
				"y": -0.8533018503,
				"z": -1.1791538828,
				"element": "C" 
			},
			{
				"x": 0.7083188785,
				"y": 0.3663537093,
				"z": -1.7145555926,
				"element": "C" 
			},
			{
				"x": 0.9596062838,
				"y": 0.691027151,
				"z": -3.420759572,
				"element": "Cl" 
			},
			{
				"x": 0.0928546519,
				"y": 1.3314626748,
				"z": -0.9168245763,
				"element": "C" 
			},
			{
				"x": -0.1053753418,
				"y": 1.0704783757,
				"z": 0.4363103256,
				"element": "C" 
			},
			{
				"x": -0.4624823287,
				"y": -2.1229965004,
				"z": 6.2788208927,
				"element": "H" 
			},
			{
				"x": 0.0463537268,
				"y": -3.3141770933,
				"z": 5.0510923505,
				"element": "H" 
			},
			{
				"x": -0.9625380812,
				"y": 0.5362541374,
				"z": 5.2278973819,
				"element": "H" 
			},
			{
				"x": 1.2471137272,
				"y": -2.0465916345,
				"z": 0.6103265801,
				"element": "H" 
			},
			{
				"x": 1.605926337,
				"y": -1.5900232061,
				"z": -1.8151672414,
				"element": "H" 
			},
			{
				"x": -0.2255870225,
				"y": 2.2726107808,
				"z": -1.3506560406,
				"element": "H" 
			},
			{
				"x": -0.5828433053,
				"y": 1.8151632512,
				"z": 1.0636900546,
				"element": "H" 
			}
		],
		 "valence_orbital": [ 
			{
				"type": "occ",
				"energy": -0.29893,
				"method": "rhf"
			},
			{
				"type": "occ",
				"energy": -0.29527,
				"method": "rhf"
			},
			{
				"type": "occ",
				"energy": -0.28215,
				"method": "rhf"
			},
			{
				"type": "occ",
				"energy": -0.27416,
				"method": "rhf"
			},
			{
				"type": "occ",
				"energy": -0.23279,
				"method": "rhf"
			},
			{
				"type": "unocc",
				"energy": -0.05698,
				"method": "rhf"
			},
			{
				"type": "unocc",
				"energy": -0.02399,
				"method": "rhf"
			},
			{
				"type": "unocc",
				"energy": -0.01557,
				"method": "rhf"
			},
			{
				"type": "unocc",
				"energy": 0.02394,
				"method": "rhf"
			},
			{
				"type": "unocc",
				"energy": 0.03887,
				"method": "rhf"
			}
		],
		"cosmo_sigma_profile": { 
			"-0.025": 0.0,
			"-0.024": 0.0,
			"-0.023": 0.0,
			"-0.022": 0.0,
			"-0.021": 0.0,
			"-0.02": 0.0,
			"-0.019": 0.0,
			"-0.018": 0.0,
			"-0.017": 0.0,
			"-0.016": 0.0,
			"-0.015": 0.0,
			"-0.014": 0.0,
			"-0.013": 0.0,
			"-0.012": 0.0,
			"-0.011": 0.655761902739,
			"-0.01": 2.38888666531,
			"-0.009": 3.76559886995,
			"-0.008": 7.20966567601,
			"-0.007": 10.5528273516,
			"-0.006": 11.8883328469,
			"-0.005": 11.8947351587,
			"-0.004": 9.6553215371,
			"-0.003": 10.0504370449,
			"-0.002": 13.4707134137,
			"-0.001": 18.492192518,
			"0.0": 22.7815578366,
			"0.001": 23.5709024268,
			"0.002": 27.0848159914,
			"0.003": 20.0186694534,
			"0.004": 17.4818250203,
			"0.005": 10.8170104406,
			"0.006": 12.6281820319,
			"0.007": 6.21466624559,
			"0.008": 1.00008118191,
			"0.009": 1.45086952904,
			"0.01": 1.13967065991,
			"0.011": 0.770563061668,
			"0.012": 0.58243515442,
			"0.013": 0.793493117764,
			"0.014": 0.0,
			"0.015": 0.0,
			"0.016": 0.0,
			"0.017": 0.0,
			"0.018": 0.0,
			"0.019": 0.0,
			"0.02": 0.0,
			"0.021": 0.0,
			"0.022": 0.0,
			"0.023": 0.0,
			"0.024": 0.0,
			"0.025": 0.0
		}
	}
}
