{
	 "smiles": "NC(=O)C1=CC=C(C=C1)C1=NC(CCl)=CS1", 
	 "Tm": 451.15, 
	 "num_atms": 25, 
	 "gaussian": { 
		 "optdone": 1, 
		 "sigma_profile": "yes", 
		 "theory": "DFT", 
		 "functional": "B3LYP", 
		 "basiset": "6-31G**", 
		 "properties": { 
			 "R2extent": 8324.7047, 
			 "electric_dipole_moment_norm": 1.11515821747, 
			 "electric_quadrupole_moment_norm": 32.1246911842, 
			 "total_energy": -1467.72369792, 
			 "HOMO_LUMO_gap": 0.16056, 
			 "cosmo_polarized_energy": -18.01, 
			 "cosmo_cavitation_energy": 33.6, 
			 "cosmo_dispersion_energy": -25.11, 
			 "cosmo_repulsion_energy": 1.93, 
			 "cosmo_total_nonelectrostatic_energy": 10.41, 
			 "SMD_solvation_energy": 4.7 
		},
		"coords": [
			{
				"x": -2.3654870807,
				"y": 1.0414868876,
				"z": -3.8903906024,
				"element": "N" 
			},
			{
				"x": -1.9814306449,
				"y": -0.0091738444,
				"z": -3.0920635195,
				"element": "C" 
			},
			{
				"x": -2.0647470935,
				"y": -1.1717784339,
				"z": -3.4688692374,
				"element": "O" 
			},
			{
				"x": -1.477737512,
				"y": 0.3446413642,
				"z": -1.7210905808,
				"element": "C" 
			},
			{
				"x": -0.7623447281,
				"y": -0.6380498159,
				"z": -1.0247636238,
				"element": "C" 
			},
			{
				"x": -0.2625347368,
				"y": -0.3819031691,
				"z": 0.2456898753,
				"element": "C" 
			},
			{
				"x": -0.4766871965,
				"y": 0.8635484207,
				"z": 0.8600704239,
				"element": "C" 
			},
			{
				"x": -1.2121183009,
				"y": 1.842908093,
				"z": 0.1696376651,
				"element": "C" 
			},
			{
				"x": -1.7051888886,
				"y": 1.5839156705,
				"z": -1.1039669597,
				"element": "C" 
			},
			{
				"x": 0.0355444772,
				"y": 1.1751155311,
				"z": 2.2002882906,
				"element": "C" 
			},
			{
				"x": -0.1838765458,
				"y": 2.3020062887,
				"z": 2.8232107109,
				"element": "N" 
			},
			{
				"x": 0.4087382635,
				"y": 2.3310574718,
				"z": 4.0620349621,
				"element": "C" 
			},
			{
				"x": 0.261553278,
				"y": 3.5425861236,
				"z": 4.918780897,
				"element": "C" 
			},
			{
				"x": 1.4220201362,
				"y": 4.8793922421,
				"z": 4.4435722692,
				"element": "Cl" 
			},
			{
				"x": 1.1006434505,
				"y": 1.1992179842,
				"z": 4.4066663354,
				"element": "C" 
			},
			{
				"x": 1.020094383,
				"y": 0.0361661231,
				"z": 3.1334195397,
				"element": "S" 
			},
			{
				"x": -2.0037365929,
				"y": 1.9681558843,
				"z": -3.7281724011,
				"element": "H" 
			},
			{
				"x": -2.5891016194,
				"y": 0.7987037735,
				"z": -4.844849031,
				"element": "H" 
			},
			{
				"x": -0.6133268593,
				"y": -1.5998428745,
				"z": -1.5031006001,
				"element": "H" 
			},
			{
				"x": 0.2936240611,
				"y": -1.1589788991,
				"z": 0.762777792,
				"element": "H" 
			},
			{
				"x": -1.3892056267,
				"y": 2.7974031437,
				"z": 0.6520439733,
				"element": "H" 
			},
			{
				"x": -2.2984662636,
				"y": 2.3454945172,
				"z": -1.6013872972,
				"element": "H" 
			},
			{
				"x": 0.4686390318,
				"y": 3.3244817962,
				"z": 5.9657374876,
				"element": "H" 
			},
			{
				"x": -0.735040235,
				"y": 3.9705823435,
				"z": 4.8155462173,
				"element": "H" 
			},
			{
				"x": 1.6467728433,
				"y": 0.9980633779,
				"z": 5.3174774136,
				"element": "H" 
			}
		],
		 "valence_orbital": [ 
			{
				"type": "occ",
				"energy": -0.28498,
				"method": "rhf"
			},
			{
				"type": "occ",
				"energy": -0.27724,
				"method": "rhf"
			},
			{
				"type": "occ",
				"energy": -0.26789,
				"method": "rhf"
			},
			{
				"type": "occ",
				"energy": -0.25515,
				"method": "rhf"
			},
			{
				"type": "occ",
				"energy": -0.23492,
				"method": "rhf"
			},
			{
				"type": "unocc",
				"energy": -0.07436,
				"method": "rhf"
			},
			{
				"type": "unocc",
				"energy": -0.02592,
				"method": "rhf"
			},
			{
				"type": "unocc",
				"energy": -0.01722,
				"method": "rhf"
			},
			{
				"type": "unocc",
				"energy": 0.00382,
				"method": "rhf"
			},
			{
				"type": "unocc",
				"energy": 0.00895,
				"method": "rhf"
			}
		],
		"cosmo_sigma_profile": { 
			"-0.025": 0.0,
			"-0.024": 0.0,
			"-0.023": 0.0,
			"-0.022": 0.0,
			"-0.021": 0.0,
			"-0.02": 0.0,
			"-0.019": 0.0,
			"-0.018": 0.0,
			"-0.017": 0.0,
			"-0.016": 0.0,
			"-0.015": 0.206008560917,
			"-0.014": 1.62430573096,
			"-0.013": 2.30985079519,
			"-0.012": 2.76608671911,
			"-0.011": 2.02088984342,
			"-0.01": 4.54648785546,
			"-0.009": 6.74629653923,
			"-0.008": 8.59581550209,
			"-0.007": 10.0536519859,
			"-0.006": 11.5174020049,
			"-0.005": 13.9370178854,
			"-0.004": 10.7587675868,
			"-0.003": 12.0524586766,
			"-0.002": 12.9321012607,
			"-0.001": 16.33062771,
			"0.0": 22.3516334322,
			"0.001": 23.5448709565,
			"0.002": 24.800605614,
			"0.003": 22.3058946524,
			"0.004": 10.0489929346,
			"0.005": 10.4339689774,
			"0.006": 14.1987806751,
			"0.007": 8.6869599986,
			"0.008": 3.51792692876,
			"0.009": 2.99593978466,
			"0.01": 2.660453052,
			"0.011": 1.49783499629,
			"0.012": 2.34694196093,
			"0.013": 4.7955426867,
			"0.014": 3.19869748306,
			"0.015": 0.0963311670952,
			"0.016": 0.0,
			"0.017": 0.0,
			"0.018": 0.0,
			"0.019": 0.0,
			"0.02": 0.0,
			"0.021": 0.0,
			"0.022": 0.0,
			"0.023": 0.0,
			"0.024": 0.0,
			"0.025": 0.0
		}
	}
}
