{
	 "smiles": "COC(=O)C1=CC(Cl)=CC=C1[N+]([O-])=O", 
	 "Tm": 321.95, 
	 "num_atms": 20, 
	 "gaussian": { 
		 "optdone": 1, 
		 "sigma_profile": "yes", 
		 "theory": "DFT", 
		 "functional": "B3LYP", 
		 "basiset": "6-31G**", 
		 "properties": { 
			 "R2extent": 3812.4445, 
			 "electric_dipole_moment_norm": 2.33695166617, 
			 "electric_quadrupole_moment_norm": 17.4308701082, 
			 "total_energy": -1124.20195036, 
			 "HOMO_LUMO_gap": 0.1773, 
			 "cosmo_polarized_energy": -10.91, 
			 "cosmo_cavitation_energy": 27.91, 
			 "cosmo_dispersion_energy": -19.96, 
			 "cosmo_repulsion_energy": 1.58, 
			 "cosmo_total_nonelectrostatic_energy": 9.54, 
			 "SMD_solvation_energy": 8.18 
		},
		"coords": [
			{
				"x": 0.2250730461,
				"y": 1.2505138237,
				"z": 2.5163094414,
				"element": "C" 
			},
			{
				"x": -0.280526763,
				"y": 0.828329489,
				"z": 1.2352972266,
				"element": "O" 
			},
			{
				"x": 0.3351299985,
				"y": -0.234686814,
				"z": 0.6973021657,
				"element": "C" 
			},
			{
				"x": 1.1685324807,
				"y": -0.9135654527,
				"z": 1.2541476742,
				"element": "O" 
			},
			{
				"x": -0.224704233,
				"y": -0.5655713721,
				"z": -0.660746189,
				"element": "C" 
			},
			{
				"x": -0.640652961,
				"y": -1.8833241878,
				"z": -0.8630635046,
				"element": "C" 
			},
			{
				"x": -1.2326609645,
				"y": -2.2522484494,
				"z": -2.0710017402,
				"element": "C" 
			},
			{
				"x": -1.7510735241,
				"y": -3.905722067,
				"z": -2.2988595691,
				"element": "Cl" 
			},
			{
				"x": -1.4216384315,
				"y": -1.325138164,
				"z": -3.097193918,
				"element": "C" 
			},
			{
				"x": -0.9922938566,
				"y": -0.0148665563,
				"z": -2.9098418605,
				"element": "C" 
			},
			{
				"x": -0.3897797986,
				"y": 0.350563119,
				"z": -1.7084119833,
				"element": "C" 
			},
			{
				"x": 0.1492810619,
				"y": 1.7164576451,
				"z": -1.615290727,
				"element": "N" 
			},
			{
				"x": -0.3929336744,
				"y": 2.5842730842,
				"z": -2.2971360662,
				"element": "O" 
			},
			{
				"x": 1.1300193139,
				"y": 1.8907462285,
				"z": -0.8951040252,
				"element": "O" 
			},
			{
				"x": -0.4080340782,
				"y": 2.0837429916,
				"z": 2.8183983186,
				"element": "H" 
			},
			{
				"x": 1.264325847,
				"y": 1.5729808671,
				"z": 2.4195327057,
				"element": "H" 
			},
			{
				"x": 0.1651686249,
				"y": 0.434115098,
				"z": 3.2393146815,
				"element": "H" 
			},
			{
				"x": -0.5042124849,
				"y": -2.6091633445,
				"z": -0.0701546975,
				"element": "H" 
			},
			{
				"x": -1.8836863432,
				"y": -1.6274589651,
				"z": -4.0297514523,
				"element": "H" 
			},
			{
				"x": -1.1027332599,
				"y": 0.7293230265,
				"z": -3.6890464807,
				"element": "H" 
			}
		],
		 "valence_orbital": [ 
			{
				"type": "occ",
				"energy": -0.31145,
				"method": "rhf"
			},
			{
				"type": "occ",
				"energy": -0.30694,
				"method": "rhf"
			},
			{
				"type": "occ",
				"energy": -0.30375,
				"method": "rhf"
			},
			{
				"type": "occ",
				"energy": -0.28453,
				"method": "rhf"
			},
			{
				"type": "occ",
				"energy": -0.27761,
				"method": "rhf"
			},
			{
				"type": "unocc",
				"energy": -0.10031,
				"method": "rhf"
			},
			{
				"type": "unocc",
				"energy": -0.05782,
				"method": "rhf"
			},
			{
				"type": "unocc",
				"energy": -0.02737,
				"method": "rhf"
			},
			{
				"type": "unocc",
				"energy": 0.00272,
				"method": "rhf"
			},
			{
				"type": "unocc",
				"energy": 0.01911,
				"method": "rhf"
			}
		],
		"cosmo_sigma_profile": { 
			"-0.025": 0.0,
			"-0.024": 0.0,
			"-0.023": 0.0,
			"-0.022": 0.0,
			"-0.021": 0.0,
			"-0.02": 0.0,
			"-0.019": 0.0,
			"-0.018": 0.0,
			"-0.017": 0.0,
			"-0.016": 0.0,
			"-0.015": 0.0,
			"-0.014": 0.0,
			"-0.013": 0.0,
			"-0.012": 0.0,
			"-0.011": 0.0,
			"-0.01": 0.31223417424,
			"-0.009": 3.74766751454,
			"-0.008": 6.63455851826,
			"-0.007": 7.87035260295,
			"-0.006": 11.7824856882,
			"-0.005": 13.5873741782,
			"-0.004": 15.6238575354,
			"-0.003": 15.2840305387,
			"-0.002": 19.4464325544,
			"-0.001": 23.9237099245,
			"0.0": 17.1769981048,
			"0.001": 10.2215008107,
			"0.002": 11.623399127,
			"0.003": 16.3674545163,
			"0.004": 9.28305855279,
			"0.005": 6.51296126928,
			"0.006": 7.03402717386,
			"0.007": 10.2668708162,
			"0.008": 5.89129813042,
			"0.009": 5.42540486581,
			"0.01": 3.13728119414,
			"0.011": 4.61185232254,
			"0.012": 0.661939778807,
			"0.013": 0.0,
			"0.014": 0.0,
			"0.015": 0.0,
			"0.016": 0.0,
			"0.017": 0.0,
			"0.018": 0.0,
			"0.019": 0.0,
			"0.02": 0.0,
			"0.021": 0.0,
			"0.022": 0.0,
			"0.023": 0.0,
			"0.024": 0.0,
			"0.025": 0.0
		}
	}
}
