{
	 "smiles": "NC(=O)C1=CSC(C=O)=C1", 
	 "Tm": 429.15, 
	 "num_atms": 15, 
	 "gaussian": { 
		 "optdone": 1, 
		 "sigma_profile": "yes", 
		 "theory": "DFT", 
		 "functional": "B3LYP", 
		 "basiset": "6-31G**", 
		 "properties": { 
			 "R2extent": 2400.8014, 
			 "electric_dipole_moment_norm": 4.28721106198, 
			 "electric_quadrupole_moment_norm": 19.4189698326, 
			 "total_energy": -835.031391197, 
			 "HOMO_LUMO_gap": 0.18223, 
			 "cosmo_polarized_energy": -17.14, 
			 "cosmo_cavitation_energy": 22.15, 
			 "cosmo_dispersion_energy": -16.68, 
			 "cosmo_repulsion_energy": 1.31, 
			 "cosmo_total_nonelectrostatic_energy": 6.78, 
			 "SMD_solvation_energy": 5.67 
		},
		"coords": [
			{
				"x": -2.3010167453,
				"y": 1.3095846851,
				"z": 0.3513030402,
				"element": "N" 
			},
			{
				"x": -1.0030446672,
				"y": 0.8803897788,
				"z": 0.4800130711,
				"element": "C" 
			},
			{
				"x": -0.3220455728,
				"y": 1.133677695,
				"z": 1.4652547457,
				"element": "O" 
			},
			{
				"x": -0.4421359734,
				"y": 0.1089209443,
				"z": -0.670713721,
				"element": "C" 
			},
			{
				"x": -0.9627641811,
				"y": 0.0067512474,
				"z": -1.9446777071,
				"element": "C" 
			},
			{
				"x": 0.0074169712,
				"y": -0.959089361,
				"z": -2.9892166268,
				"element": "S" 
			},
			{
				"x": 1.155863256,
				"y": -1.2464998266,
				"z": -1.7008819526,
				"element": "C" 
			},
			{
				"x": 2.3379340996,
				"y": -2.0735471844,
				"z": -1.9277790926,
				"element": "C" 
			},
			{
				"x": 2.6067716539,
				"y": -2.6155959106,
				"z": -2.9851275063,
				"element": "O" 
			},
			{
				"x": 0.7813088696,
				"y": -0.6081422404,
				"z": -0.5422565267,
				"element": "C" 
			},
			{
				"x": -2.702107257,
				"y": 1.7325575512,
				"z": 1.1761899087,
				"element": "H" 
			},
			{
				"x": -2.9367617905,
				"y": 0.8385887791,
				"z": -0.2734620547,
				"element": "H" 
			},
			{
				"x": -1.8527630366,
				"y": 0.4820996284,
				"z": -2.3359830083,
				"element": "H" 
			},
			{
				"x": 2.9942934554,
				"y": -2.1746811164,
				"z": -1.0374192199,
				"element": "H" 
			},
			{
				"x": 1.3458509182,
				"y": -0.6353146699,
				"z": 0.3823566502,
				"element": "H" 
			}
		],
		 "valence_orbital": [ 
			{
				"type": "occ",
				"energy": -0.28611,
				"method": "rhf"
			},
			{
				"type": "occ",
				"energy": -0.2775,
				"method": "rhf"
			},
			{
				"type": "occ",
				"energy": -0.26764,
				"method": "rhf"
			},
			{
				"type": "occ",
				"energy": -0.26379,
				"method": "rhf"
			},
			{
				"type": "occ",
				"energy": -0.26165,
				"method": "rhf"
			},
			{
				"type": "unocc",
				"energy": -0.07942,
				"method": "rhf"
			},
			{
				"type": "unocc",
				"energy": -0.03375,
				"method": "rhf"
			},
			{
				"type": "unocc",
				"energy": 0.01253,
				"method": "rhf"
			},
			{
				"type": "unocc",
				"energy": 0.05059,
				"method": "rhf"
			},
			{
				"type": "unocc",
				"energy": 0.05564,
				"method": "rhf"
			}
		],
		"cosmo_sigma_profile": { 
			"-0.025": 0.0,
			"-0.024": 0.0,
			"-0.023": 0.0,
			"-0.022": 0.0,
			"-0.021": 0.0,
			"-0.02": 0.0,
			"-0.019": 0.0,
			"-0.018": 0.0,
			"-0.017": 0.0,
			"-0.016": 0.0,
			"-0.015": 0.410486085656,
			"-0.014": 2.76162253174,
			"-0.013": 3.18180002556,
			"-0.012": 2.30595095666,
			"-0.011": 3.60688518191,
			"-0.01": 4.18132914,
			"-0.009": 4.42419952104,
			"-0.008": 6.7575154349,
			"-0.007": 7.40741404971,
			"-0.006": 5.35768793385,
			"-0.005": 5.75186059171,
			"-0.004": 6.27529929151,
			"-0.003": 7.10457232049,
			"-0.002": 8.85342619135,
			"-0.001": 11.1017204387,
			"0.0": 17.5329041183,
			"0.001": 21.4127709956,
			"0.002": 10.4630323721,
			"0.003": 5.11019528156,
			"0.004": 4.81808631232,
			"0.005": 3.32559561182,
			"0.006": 3.41343191273,
			"0.007": 4.16042533546,
			"0.008": 3.60951432355,
			"0.009": 3.01969354838,
			"0.01": 4.64188804046,
			"0.011": 5.6988933541,
			"0.012": 5.29753264091,
			"0.013": 5.78913586173,
			"0.014": 1.95816115217,
			"0.015": 0.0229286771288,
			"0.016": 0.0,
			"0.017": 0.0,
			"0.018": 0.0,
			"0.019": 0.0,
			"0.02": 0.0,
			"0.021": 0.0,
			"0.022": 0.0,
			"0.023": 0.0,
			"0.024": 0.0,
			"0.025": 0.0
		}
	}
}
