{
	 "smiles": "NC1=NN(CC2=CN=CC=C2)C=C1", 
	 "Tm": 362.15, 
	 "num_atms": 23, 
	 "gaussian": { 
		 "optdone": 1, 
		 "sigma_profile": "yes", 
		 "theory": "DFT", 
		 "functional": "B3LYP", 
		 "basiset": "6-31G**", 
		 "properties": { 
			 "R2extent": 2859.169, 
			 "electric_dipole_moment_norm": 2.65451989821, 
			 "electric_quadrupole_moment_norm": 14.9565794064, 
			 "total_energy": -567.959992588, 
			 "HOMO_LUMO_gap": 0.17616, 
			 "cosmo_polarized_energy": -15.21, 
			 "cosmo_cavitation_energy": 27.46, 
			 "cosmo_dispersion_energy": -19.83, 
			 "cosmo_repulsion_energy": 1.58, 
			 "cosmo_total_nonelectrostatic_energy": 9.21, 
			 "SMD_solvation_energy": 2.66 
		},
		"coords": [
			{
				"x": 2.2107834235,
				"y": -2.8652540544,
				"z": 1.5613241193,
				"element": "N" 
			},
			{
				"x": 1.9642584837,
				"y": -1.637623366,
				"z": 0.9446971822,
				"element": "C" 
			},
			{
				"x": 1.3479518956,
				"y": -1.5797446053,
				"z": -0.2365975786,
				"element": "N" 
			},
			{
				"x": 1.3711678788,
				"y": -0.25685316,
				"z": -0.5741192466,
				"element": "N" 
			},
			{
				"x": 0.6688048306,
				"y": 0.1836342791,
				"z": -1.7673542768,
				"element": "C" 
			},
			{
				"x": -0.7981415404,
				"y": 0.5077699027,
				"z": -1.5438162443,
				"element": "C" 
			},
			{
				"x": -1.6652234109,
				"y": -0.4273983391,
				"z": -0.9581637573,
				"element": "C" 
			},
			{
				"x": -2.967545633,
				"y": -0.2097444935,
				"z": -0.7484595526,
				"element": "N" 
			},
			{
				"x": -3.4648629705,
				"y": 0.975614845,
				"z": -1.1279962509,
				"element": "C" 
			},
			{
				"x": -2.6972689643,
				"y": 1.977574567,
				"z": -1.7197468545,
				"element": "C" 
			},
			{
				"x": -1.3393902333,
				"y": 1.7356557472,
				"z": -1.9279671977,
				"element": "C" 
			},
			{
				"x": 1.9554506995,
				"y": 0.5022128642,
				"z": 0.3866033722,
				"element": "C" 
			},
			{
				"x": 2.3688970028,
				"y": -0.3512611424,
				"z": 1.3897689826,
				"element": "C" 
			},
			{
				"x": 1.6510239296,
				"y": -3.6063372481,
				"z": 1.1565789447,
				"element": "H" 
			},
			{
				"x": 2.1011690279,
				"y": -2.839048161,
				"z": 2.5671413989,
				"element": "H" 
			},
			{
				"x": 1.1870555721,
				"y": 1.0629334954,
				"z": -2.1629733246,
				"element": "H" 
			},
			{
				"x": 0.7779579427,
				"y": -0.6217688793,
				"z": -2.4997750389,
				"element": "H" 
			},
			{
				"x": -1.2730717979,
				"y": -1.3909952437,
				"z": -0.6391809092,
				"element": "H" 
			},
			{
				"x": -4.5278389476,
				"y": 1.129045611,
				"z": -0.9495098972,
				"element": "H" 
			},
			{
				"x": -3.1499870908,
				"y": 2.9218995247,
				"z": -2.0059270589,
				"element": "H" 
			},
			{
				"x": -0.7075714517,
				"y": 2.494222233,
				"z": -2.3851011631,
				"element": "H" 
			},
			{
				"x": 2.0434468549,
				"y": 1.574618413,
				"z": 0.2838673608,
				"element": "H" 
			},
			{
				"x": 2.9083344989,
				"y": -0.0969527891,
				"z": 2.2898069905,
				"element": "H" 
			}
		],
		 "valence_orbital": [ 
			{
				"type": "occ",
				"energy": -0.28387,
				"method": "rhf"
			},
			{
				"type": "occ",
				"energy": -0.25842,
				"method": "rhf"
			},
			{
				"type": "occ",
				"energy": -0.25116,
				"method": "rhf"
			},
			{
				"type": "occ",
				"energy": -0.23799,
				"method": "rhf"
			},
			{
				"type": "occ",
				"energy": -0.19974,
				"method": "rhf"
			},
			{
				"type": "unocc",
				"energy": -0.02358,
				"method": "rhf"
			},
			{
				"type": "unocc",
				"energy": -0.01566,
				"method": "rhf"
			},
			{
				"type": "unocc",
				"energy": 0.02665,
				"method": "rhf"
			},
			{
				"type": "unocc",
				"energy": 0.07861,
				"method": "rhf"
			},
			{
				"type": "unocc",
				"energy": 0.09005,
				"method": "rhf"
			}
		],
		"cosmo_sigma_profile": { 
			"-0.025": 0.0,
			"-0.024": 0.0,
			"-0.023": 0.0,
			"-0.022": 0.0,
			"-0.021": 0.0,
			"-0.02": 0.0,
			"-0.019": 0.0,
			"-0.018": 0.0,
			"-0.017": 0.0,
			"-0.016": 0.0,
			"-0.015": 0.0,
			"-0.014": 0.0,
			"-0.013": 0.101016903602,
			"-0.012": 1.65437883989,
			"-0.011": 2.38627804872,
			"-0.01": 2.20742443884,
			"-0.009": 3.03529887998,
			"-0.008": 8.06071141279,
			"-0.007": 12.0384015857,
			"-0.006": 14.8217633993,
			"-0.005": 16.0621716104,
			"-0.004": 12.6250747876,
			"-0.003": 13.2645427001,
			"-0.002": 11.425083819,
			"-0.001": 10.285721071,
			"0.0": 9.72675576712,
			"0.001": 12.5790367175,
			"0.002": 19.1201256702,
			"0.003": 14.2116575926,
			"0.004": 8.62256016057,
			"0.005": 9.62960103046,
			"0.006": 8.10748160752,
			"0.007": 5.13271877347,
			"0.008": 4.32171411938,
			"0.009": 3.57844338936,
			"0.01": 2.50483011943,
			"0.011": 2.10216121105,
			"0.012": 2.72341050722,
			"0.013": 2.81092491149,
			"0.014": 2.23023825501,
			"0.015": 1.82164951911,
			"0.016": 1.56486067789,
			"0.017": 0.453836966673,
			"0.018": 0.0,
			"0.019": 0.0,
			"0.02": 0.0,
			"0.021": 0.0,
			"0.022": 0.0,
			"0.023": 0.0,
			"0.024": 0.0,
			"0.025": 0.0
		}
	}
}
