{
	 "smiles": "CC1=C(Cl)C=C(C=C1Cl)[N+]([O-])=O", 
	 "Tm": 336.65, 
	 "num_atms": 17, 
	 "gaussian": { 
		 "optdone": 1, 
		 "sigma_profile": "yes", 
		 "theory": "DFT", 
		 "functional": "B3LYP", 
		 "basiset": "6-31G**", 
		 "properties": { 
			 "R2extent": 3082.5086, 
			 "electric_dipole_moment_norm": 3.5882879511, 
			 "electric_quadrupole_moment_norm": 7.02113770268, 
			 "total_energy": -1395.24459893, 
			 "HOMO_LUMO_gap": 0.17209, 
			 "cosmo_polarized_energy": -6.56, 
			 "cosmo_cavitation_energy": 25.38, 
			 "cosmo_dispersion_energy": -18.96, 
			 "cosmo_repulsion_energy": 1.5, 
			 "cosmo_total_nonelectrostatic_energy": 7.92, 
			 "SMD_solvation_energy": 6.21 
		},
		"coords": [
			{
				"x": 1.9064982168,
				"y": -0.2647852636,
				"z": 2.0998311322,
				"element": "C" 
			},
			{
				"x": 0.8171334071,
				"y": -0.4400749541,
				"z": 1.0772436783,
				"element": "C" 
			},
			{
				"x": 0.9138639152,
				"y": 0.1011671584,
				"z": -0.2209065459,
				"element": "C" 
			},
			{
				"x": 2.3327145934,
				"y": 1.027967822,
				"z": -0.6802913434,
				"element": "Cl" 
			},
			{
				"x": -0.0801448377,
				"y": -0.0516875429,
				"z": -1.1821362529,
				"element": "C" 
			},
			{
				"x": -1.2190186224,
				"y": -0.7662348439,
				"z": -0.832921893,
				"element": "C" 
			},
			{
				"x": -1.3908090082,
				"y": -1.3164715794,
				"z": 0.4309240252,
				"element": "C" 
			},
			{
				"x": -0.3727169049,
				"y": -1.1403310286,
				"z": 1.3625156432,
				"element": "C" 
			},
			{
				"x": -0.62460605,
				"y": -1.8255937127,
				"z": 2.9594272884,
				"element": "Cl" 
			},
			{
				"x": -2.283805363,
				"y": -0.9420102225,
				"z": -1.8359942494,
				"element": "N" 
			},
			{
				"x": -3.280786431,
				"y": -1.5767349715,
				"z": -1.49809189,
				"element": "O" 
			},
			{
				"x": -2.1053606138,
				"y": -0.4419977516,
				"z": -2.9446765638,
				"element": "O" 
			},
			{
				"x": 2.8822398634,
				"y": -0.1767600736,
				"z": 1.6213473748,
				"element": "H" 
			},
			{
				"x": 1.9253908481,
				"y": -1.1010684094,
				"z": 2.7991543974,
				"element": "H" 
			},
			{
				"x": 1.7412271428,
				"y": 0.6494723054,
				"z": 2.6830737716,
				"element": "H" 
			},
			{
				"x": 0.0172019923,
				"y": 0.3692002975,
				"z": -2.1736343162,
				"element": "H" 
			},
			{
				"x": -2.2939221483,
				"y": -1.8610572295,
				"z": 0.6707357435,
				"element": "H" 
			}
		],
		 "valence_orbital": [ 
			{
				"type": "occ",
				"energy": -0.32175,
				"method": "rhf"
			},
			{
				"type": "occ",
				"energy": -0.31869,
				"method": "rhf"
			},
			{
				"type": "occ",
				"energy": -0.30391,
				"method": "rhf"
			},
			{
				"type": "occ",
				"energy": -0.28296,
				"method": "rhf"
			},
			{
				"type": "occ",
				"energy": -0.27486,
				"method": "rhf"
			},
			{
				"type": "unocc",
				"energy": -0.10277,
				"method": "rhf"
			},
			{
				"type": "unocc",
				"energy": -0.04808,
				"method": "rhf"
			},
			{
				"type": "unocc",
				"energy": -0.01768,
				"method": "rhf"
			},
			{
				"type": "unocc",
				"energy": -0.01258,
				"method": "rhf"
			},
			{
				"type": "unocc",
				"energy": 0.03236,
				"method": "rhf"
			}
		],
		"cosmo_sigma_profile": { 
			"-0.025": 0.0,
			"-0.024": 0.0,
			"-0.023": 0.0,
			"-0.022": 0.0,
			"-0.021": 0.0,
			"-0.02": 0.0,
			"-0.019": 0.0,
			"-0.018": 0.0,
			"-0.017": 0.0,
			"-0.016": 0.0,
			"-0.015": 0.0,
			"-0.014": 0.0,
			"-0.013": 0.0,
			"-0.012": 0.0,
			"-0.011": 0.0,
			"-0.01": 0.0,
			"-0.009": 0.341592583115,
			"-0.008": 2.48130135709,
			"-0.007": 3.66710979432,
			"-0.006": 6.70571853863,
			"-0.005": 9.04159205109,
			"-0.004": 12.6801194832,
			"-0.003": 19.4266463353,
			"-0.002": 27.6570236671,
			"-0.001": 29.6469279146,
			"0.0": 15.9346875628,
			"0.001": 12.9085599642,
			"0.002": 13.591098354,
			"0.003": 16.7302129969,
			"0.004": 10.288236115,
			"0.005": 3.1955037945,
			"0.006": 4.76678804311,
			"0.007": 9.62101081238,
			"0.008": 5.10716140909,
			"0.009": 3.66845023381,
			"0.01": 0.909727114896,
			"0.011": 0.0,
			"0.012": 0.0,
			"0.013": 0.0,
			"0.014": 0.0,
			"0.015": 0.0,
			"0.016": 0.0,
			"0.017": 0.0,
			"0.018": 0.0,
			"0.019": 0.0,
			"0.02": 0.0,
			"0.021": 0.0,
			"0.022": 0.0,
			"0.023": 0.0,
			"0.024": 0.0,
			"0.025": 0.0
		}
	}
}
