{
	 "smiles": "CC(NO)C1=CC=C(F)C=C1", 
	 "Tm": 348.15, 
	 "num_atms": 21, 
	 "gaussian": { 
		 "optdone": 1, 
		 "sigma_profile": "yes", 
		 "theory": "DFT", 
		 "functional": "B3LYP", 
		 "basiset": "6-31G**", 
		 "properties": { 
			 "R2extent": 2509.0243, 
			 "electric_dipole_moment_norm": 1.91407337895, 
			 "electric_quadrupole_moment_norm": 10.4200492849, 
			 "total_energy": -540.625487692, 
			 "HOMO_LUMO_gap": 0.21231, 
			 "cosmo_polarized_energy": -10.89, 
			 "cosmo_cavitation_energy": 24.48, 
			 "cosmo_dispersion_energy": -17.63, 
			 "cosmo_repulsion_energy": 1.4, 
			 "cosmo_total_nonelectrostatic_energy": 8.25, 
			 "SMD_solvation_energy": 4.47 
		},
		"coords": [
			{
				"x": -2.6262405971,
				"y": -0.3527061616,
				"z": -0.3709551036,
				"element": "C" 
			},
			{
				"x": -1.1970539824,
				"y": -0.4031006482,
				"z": 0.1739027902,
				"element": "C" 
			},
			{
				"x": -1.0202763073,
				"y": -1.6498682702,
				"z": 0.9563802109,
				"element": "N" 
			},
			{
				"x": -1.0290480182,
				"y": -2.798100013,
				"z": 0.1103073537,
				"element": "O" 
			},
			{
				"x": -0.1081845157,
				"y": -0.2051955803,
				"z": -0.8769604001,
				"element": "C" 
			},
			{
				"x": -0.1750239569,
				"y": -0.8027008656,
				"z": -2.1470036226,
				"element": "C" 
			},
			{
				"x": 0.8698496523,
				"y": -0.6727386668,
				"z": -3.0655534584,
				"element": "C" 
			},
			{
				"x": 1.9892595785,
				"y": 0.0661606949,
				"z": -2.7054345717,
				"element": "C" 
			},
			{
				"x": 3.0001367426,
				"y": 0.2008717168,
				"z": -3.5880504097,
				"element": "F" 
			},
			{
				"x": 2.0935568636,
				"y": 0.6777380305,
				"z": -1.460281342,
				"element": "C" 
			},
			{
				"x": 1.0433115057,
				"y": 0.5317496914,
				"z": -0.5560338062,
				"element": "C" 
			},
			{
				"x": -3.3334696921,
				"y": -0.3831364907,
				"z": 0.4615756775,
				"element": "H" 
			},
			{
				"x": -2.7932437287,
				"y": 0.5607349513,
				"z": -0.9488490494,
				"element": "H" 
			},
			{
				"x": -2.8324385214,
				"y": -1.2161320652,
				"z": -1.0078292568,
				"element": "H" 
			},
			{
				"x": -1.0809669769,
				"y": 0.3907053579,
				"z": 0.9237511482,
				"element": "H" 
			},
			{
				"x": -0.0987120327,
				"y": -1.6286323549,
				"z": 1.3985683305,
				"element": "H" 
			},
			{
				"x": -0.317179359,
				"y": -2.675703976,
				"z": -0.5461114868,
				"element": "H" 
			},
			{
				"x": -1.0616032194,
				"y": -1.3564763976,
				"z": -2.4389452172,
				"element": "H" 
			},
			{
				"x": 0.8218498517,
				"y": -1.1281046991,
				"z": -4.0489346853,
				"element": "H" 
			},
			{
				"x": 2.9794503092,
				"y": 1.2553397659,
				"z": -1.2189631501,
				"element": "H" 
			},
			{
				"x": 1.1162264043,
				"y": 1.0088959802,
				"z": 0.4186200487,
				"element": "H" 
			}
		],
		 "valence_orbital": [ 
			{
				"type": "occ",
				"energy": -0.34048,
				"method": "rhf"
			},
			{
				"type": "occ",
				"energy": -0.28572,
				"method": "rhf"
			},
			{
				"type": "occ",
				"energy": -0.27129,
				"method": "rhf"
			},
			{
				"type": "occ",
				"energy": -0.25708,
				"method": "rhf"
			},
			{
				"type": "occ",
				"energy": -0.23668,
				"method": "rhf"
			},
			{
				"type": "unocc",
				"energy": -0.02437,
				"method": "rhf"
			},
			{
				"type": "unocc",
				"energy": -0.01105,
				"method": "rhf"
			},
			{
				"type": "unocc",
				"energy": 0.07298,
				"method": "rhf"
			},
			{
				"type": "unocc",
				"energy": 0.08947,
				"method": "rhf"
			},
			{
				"type": "unocc",
				"energy": 0.09304,
				"method": "rhf"
			}
		],
		"cosmo_sigma_profile": { 
			"-0.025": 0.0,
			"-0.024": 0.0,
			"-0.023": 0.0,
			"-0.022": 0.0,
			"-0.021": 0.0,
			"-0.02": 0.0,
			"-0.019": 0.0,
			"-0.018": 0.0,
			"-0.017": 0.0,
			"-0.016": 0.0,
			"-0.015": 0.0,
			"-0.014": 0.0,
			"-0.013": 0.0,
			"-0.012": 0.266220785713,
			"-0.011": 2.18389889027,
			"-0.01": 3.11724433134,
			"-0.009": 2.84177827074,
			"-0.008": 2.59055052311,
			"-0.007": 7.48540997884,
			"-0.006": 11.6266982166,
			"-0.005": 11.5679616241,
			"-0.004": 12.0943090527,
			"-0.003": 12.8442763169,
			"-0.002": 12.9148476764,
			"-0.001": 12.2274046964,
			"0.0": 14.8192358879,
			"0.001": 18.4384072797,
			"0.002": 13.0360293624,
			"0.003": 11.5596056032,
			"0.004": 16.5606967106,
			"0.005": 6.71073038436,
			"0.006": 1.9601602635,
			"0.007": 1.25648207204,
			"0.008": 1.0165125658,
			"0.009": 1.80367519187,
			"0.01": 1.79579139226,
			"0.011": 1.54399392062,
			"0.012": 2.49863009706,
			"0.013": 3.91451112391,
			"0.014": 2.76922881127,
			"0.015": 0.821022397448,
			"0.016": 0.594100371988,
			"0.017": 0.382598774947,
			"0.018": 0.0,
			"0.019": 0.0,
			"0.02": 0.0,
			"0.021": 0.0,
			"0.022": 0.0,
			"0.023": 0.0,
			"0.024": 0.0,
			"0.025": 0.0
		}
	}
}
