{
	 "smiles": "CC1=C(C(NC(=O)N1)C1=CC=CO1)C(=O)OCC1=CC=CC=C1", 
	 "Tm": 468.15, 
	 "num_atms": 39, 
	 "gaussian": { 
		 "optdone": 1, 
		 "sigma_profile": "yes", 
		 "theory": "DFT", 
		 "functional": "B3LYP", 
		 "basiset": "6-31G**", 
		 "properties": { 
			 "R2extent": 7575.409, 
			 "electric_dipole_moment_norm": 2.50930634439, 
			 "electric_quadrupole_moment_norm": 25.7813397949, 
			 "total_energy": -1067.85765194, 
			 "HOMO_LUMO_gap": 0.1813, 
			 "cosmo_polarized_energy": -18.44, 
			 "cosmo_cavitation_energy": 43.72, 
			 "cosmo_dispersion_energy": -28.93, 
			 "cosmo_repulsion_energy": 2.25, 
			 "cosmo_total_nonelectrostatic_energy": 17.04, 
			 "SMD_solvation_energy": 9.02 
		},
		"coords": [
			{
				"x": 1.6229530252,
				"y": 0.9396042193,
				"z": -3.3581005218,
				"element": "C" 
			},
			{
				"x": 1.3631711276,
				"y": 1.5367162527,
				"z": -2.0031052957,
				"element": "C" 
			},
			{
				"x": 1.2723654786,
				"y": 0.8775946829,
				"z": -0.8112817951,
				"element": "C" 
			},
			{
				"x": 0.9274664725,
				"y": 1.6785244761,
				"z": 0.4351145117,
				"element": "C" 
			},
			{
				"x": 1.4056709093,
				"y": 3.0653683627,
				"z": 0.2792879604,
				"element": "N" 
			},
			{
				"x": 1.3141527978,
				"y": 3.7508012257,
				"z": -0.9003578074,
				"element": "C" 
			},
			{
				"x": 1.3634159219,
				"y": 4.9646506013,
				"z": -1.0191883502,
				"element": "O" 
			},
			{
				"x": 1.2219621615,
				"y": 2.912569168,
				"z": -2.021241497,
				"element": "N" 
			},
			{
				"x": -0.5431608821,
				"y": 1.6253555941,
				"z": 0.7557659368,
				"element": "C" 
			},
			{
				"x": -1.6636010362,
				"y": 1.2418369491,
				"z": 0.0804223315,
				"element": "C" 
			},
			{
				"x": -2.7731525357,
				"y": 1.494559396,
				"z": 0.9542860082,
				"element": "C" 
			},
			{
				"x": -2.2464900746,
				"y": 2.0162287332,
				"z": 2.094457705,
				"element": "C" 
			},
			{
				"x": -0.887546299,
				"y": 2.1016352734,
				"z": 1.9946054488,
				"element": "O" 
			},
			{
				"x": 1.4533087662,
				"y": -0.5773695244,
				"z": -0.6855859514,
				"element": "C" 
			},
			{
				"x": 1.7008648216,
				"y": -1.3702028768,
				"z": -1.58382892,
				"element": "O" 
			},
			{
				"x": 1.318747803,
				"y": -0.967899017,
				"z": 0.6103354074,
				"element": "O" 
			},
			{
				"x": 1.4654839794,
				"y": -2.3864924264,
				"z": 0.8870202536,
				"element": "C" 
			},
			{
				"x": 0.1456610795,
				"y": -3.1159433036,
				"z": 0.8230586477,
				"element": "C" 
			},
			{
				"x": -0.6446573709,
				"y": -3.2483290203,
				"z": 1.9714797921,
				"element": "C" 
			},
			{
				"x": -1.867644634,
				"y": -3.9179576674,
				"z": 1.9199355197,
				"element": "C" 
			},
			{
				"x": -2.3129754012,
				"y": -4.4637136141,
				"z": 0.7145339077,
				"element": "C" 
			},
			{
				"x": -1.5318688127,
				"y": -4.3359157135,
				"z": -0.4363653239,
				"element": "C" 
			},
			{
				"x": -0.309422801,
				"y": -3.6658482907,
				"z": -0.3836030148,
				"element": "C" 
			},
			{
				"x": 2.6234563346,
				"y": 1.2274917518,
				"z": -3.7034911024,
				"element": "H" 
			},
			{
				"x": 0.8993811335,
				"y": 1.3377107473,
				"z": -4.0793605561,
				"element": "H" 
			},
			{
				"x": 1.5621838832,
				"y": -0.1441748317,
				"z": -3.3297380612,
				"element": "H" 
			},
			{
				"x": 1.467175929,
				"y": 1.260974842,
				"z": 1.2889419092,
				"element": "H" 
			},
			{
				"x": 1.3390518642,
				"y": 3.6628426738,
				"z": 1.0923986603,
				"element": "H" 
			},
			{
				"x": 1.2850369613,
				"y": 3.4072008307,
				"z": -2.8997540235,
				"element": "H" 
			},
			{
				"x": -1.6956169427,
				"y": 0.8214878949,
				"z": -0.9136109079,
				"element": "H" 
			},
			{
				"x": -3.8185733332,
				"y": 1.3077654335,
				"z": 0.7551446116,
				"element": "H" 
			},
			{
				"x": -2.6725467313,
				"y": 2.3582303694,
				"z": 3.0249293078,
				"element": "H" 
			},
			{
				"x": 2.1845726919,
				"y": -2.8046847416,
				"z": 0.1806964545,
				"element": "H" 
			},
			{
				"x": 1.8792427767,
				"y": -2.418697884,
				"z": 1.8972800661,
				"element": "H" 
			},
			{
				"x": -0.2981032341,
				"y": -2.8257883097,
				"z": 2.9115359901,
				"element": "H" 
			},
			{
				"x": -2.4697658954,
				"y": -4.0161802555,
				"z": 2.8187587192,
				"element": "H" 
			},
			{
				"x": -3.2631857175,
				"y": -4.9887487766,
				"z": 0.6727761023,
				"element": "H" 
			},
			{
				"x": -1.87391721,
				"y": -4.7614062002,
				"z": -1.375676422,
				"element": "H" 
			},
			{
				"x": 0.2974029931,
				"y": -3.5529970246,
				"z": -1.2764757009,
				"element": "H" 
			}
		],
		 "valence_orbital": [ 
			{
				"type": "occ",
				"energy": -0.25834,
				"method": "rhf"
			},
			{
				"type": "occ",
				"energy": -0.25059,
				"method": "rhf"
			},
			{
				"type": "occ",
				"energy": -0.24823,
				"method": "rhf"
			},
			{
				"type": "occ",
				"energy": -0.23269,
				"method": "rhf"
			},
			{
				"type": "occ",
				"energy": -0.22227,
				"method": "rhf"
			},
			{
				"type": "unocc",
				"energy": -0.04097,
				"method": "rhf"
			},
			{
				"type": "unocc",
				"energy": -0.00999,
				"method": "rhf"
			},
			{
				"type": "unocc",
				"energy": -0.00164,
				"method": "rhf"
			},
			{
				"type": "unocc",
				"energy": 0.01013,
				"method": "rhf"
			},
			{
				"type": "unocc",
				"energy": 0.05058,
				"method": "rhf"
			}
		],
		"cosmo_sigma_profile": { 
			"-0.025": 0.0,
			"-0.024": 0.0,
			"-0.023": 0.0,
			"-0.022": 0.0,
			"-0.021": 0.0,
			"-0.02": 0.0,
			"-0.019": 0.0,
			"-0.018": 0.0,
			"-0.017": 0.0,
			"-0.016": 0.142505611765,
			"-0.015": 0.6494126058,
			"-0.014": 1.8337126398,
			"-0.013": 2.09885378709,
			"-0.012": 1.57599097128,
			"-0.011": 2.06252072573,
			"-0.01": 2.50751315285,
			"-0.009": 3.04833061828,
			"-0.008": 3.70099769042,
			"-0.007": 7.70037505927,
			"-0.006": 19.9577721539,
			"-0.005": 22.7597745377,
			"-0.004": 25.4642065583,
			"-0.003": 26.620545426,
			"-0.002": 25.0894498491,
			"-0.001": 25.2342827197,
			"0.0": 24.3817308565,
			"0.001": 21.3610408085,
			"0.002": 20.9059007569,
			"0.003": 22.0943374635,
			"0.004": 22.7977992625,
			"0.005": 23.4580944695,
			"0.006": 14.6987382873,
			"0.007": 4.03568307876,
			"0.008": 3.13632604021,
			"0.009": 3.04968961562,
			"0.01": 2.00406463079,
			"0.011": 3.23992479486,
			"0.012": 4.0342293538,
			"0.013": 6.24584723159,
			"0.014": 2.88345098644,
			"0.015": 0.0229504463365,
			"0.016": 0.0,
			"0.017": 0.0,
			"0.018": 0.0,
			"0.019": 0.0,
			"0.02": 0.0,
			"0.021": 0.0,
			"0.022": 0.0,
			"0.023": 0.0,
			"0.024": 0.0,
			"0.025": 0.0
		}
	}
}
