{
	 "smiles": "CC1CCC(C)(C(=O)CCOC(=S)NC2=CC=CC=C2)C1(C)C", 
	 "Tm": 427.15, 
	 "num_atms": 50, 
	 "gaussian": { 
		 "optdone": 1, 
		 "sigma_profile": "yes", 
		 "theory": "DFT", 
		 "functional": "B3LYP", 
		 "basiset": "6-31G**", 
		 "properties": { 
			 "R2extent": 9531.2235, 
			 "electric_dipole_moment_norm": 2.07155154655, 
			 "electric_quadrupole_moment_norm": 17.1782366874, 
			 "total_energy": -1343.70130902, 
			 "HOMO_LUMO_gap": 0.18078, 
			 "cosmo_polarized_energy": -14.3, 
			 "cosmo_cavitation_energy": 49.93, 
			 "cosmo_dispersion_energy": -32.28, 
			 "cosmo_repulsion_energy": 2.39, 
			 "cosmo_total_nonelectrostatic_energy": 20.03, 
			 "SMD_solvation_energy": 7.68 
		},
		"coords": [
			{
				"x": 2.342085469,
				"y": -1.3447843806,
				"z": -0.247254894,
				"element": "C" 
			},
			{
				"x": 1.4270344751,
				"y": -0.1518352443,
				"z": -0.5366838274,
				"element": "C" 
			},
			{
				"x": 2.1938539143,
				"y": 1.1333651358,
				"z": -0.9304103353,
				"element": "C" 
			},
			{
				"x": 1.2356014249,
				"y": 1.9452100563,
				"z": -1.8406416886,
				"element": "C" 
			},
			{
				"x": -0.1118338582,
				"y": 1.170313769,
				"z": -1.9011729971,
				"element": "C" 
			},
			{
				"x": -0.8380552251,
				"y": 1.3941552697,
				"z": -3.2430631796,
				"element": "C" 
			},
			{
				"x": -1.1153800439,
				"y": 1.608762306,
				"z": -0.8042004369,
				"element": "C" 
			},
			{
				"x": -2.2847790299,
				"y": 1.2668107663,
				"z": -0.8744686796,
				"element": "O" 
			},
			{
				"x": -0.6720827744,
				"y": 2.5260088118,
				"z": 0.3404890886,
				"element": "C" 
			},
			{
				"x": -1.7130922521,
				"y": 2.6562398691,
				"z": 1.441263734,
				"element": "C" 
			},
			{
				"x": -1.9107900414,
				"y": 1.3998434767,
				"z": 2.1288735415,
				"element": "O" 
			},
			{
				"x": -1.1426271875,
				"y": 1.0623042258,
				"z": 3.166281385,
				"element": "C" 
			},
			{
				"x": 0.1100066319,
				"y": 1.9688094763,
				"z": 3.8171960494,
				"element": "S" 
			},
			{
				"x": -1.4818966714,
				"y": -0.1478827823,
				"z": 3.6870741421,
				"element": "N" 
			},
			{
				"x": -2.4791904712,
				"y": -1.0992678511,
				"z": 3.3610383829,
				"element": "C" 
			},
			{
				"x": -2.6395447552,
				"y": -2.151249996,
				"z": 4.2799875328,
				"element": "C" 
			},
			{
				"x": -3.5754484013,
				"y": -3.1549051638,
				"z": 4.0530744525,
				"element": "C" 
			},
			{
				"x": -4.37062497,
				"y": -3.1283291848,
				"z": 2.9056476402,
				"element": "C" 
			},
			{
				"x": -4.2090875219,
				"y": -2.0862497114,
				"z": 1.9930873162,
				"element": "C" 
			},
			{
				"x": -3.2736215213,
				"y": -1.0716227599,
				"z": 2.2032759019,
				"element": "C" 
			},
			{
				"x": 0.3502271977,
				"y": -0.3396147151,
				"z": -1.6513503759,
				"element": "C" 
			},
			{
				"x": -0.7739145947,
				"y": -1.2897048962,
				"z": -1.2087318037,
				"element": "C" 
			},
			{
				"x": 0.9774109927,
				"y": -0.9201380307,
				"z": -2.938121298,
				"element": "C" 
			},
			{
				"x": 2.9902139902,
				"y": -1.5787474908,
				"z": -1.0981715136,
				"element": "H" 
			},
			{
				"x": 2.9922500628,
				"y": -1.1237380551,
				"z": 0.6061462441,
				"element": "H" 
			},
			{
				"x": 1.7712831212,
				"y": -2.2456066252,
				"z": 0.0022987976,
				"element": "H" 
			},
			{
				"x": 0.8737528347,
				"y": 0.0513338805,
				"z": 0.3907687391,
				"element": "H" 
			},
			{
				"x": 3.1113888122,
				"y": 0.8773165098,
				"z": -1.4721680995,
				"element": "H" 
			},
			{
				"x": 2.5085591233,
				"y": 1.6949774605,
				"z": -0.0446590393,
				"element": "H" 
			},
			{
				"x": 1.1090937875,
				"y": 2.9788705712,
				"z": -1.5075358743,
				"element": "H" 
			},
			{
				"x": 1.6427356239,
				"y": 2.0120297251,
				"z": -2.8541779843,
				"element": "H" 
			},
			{
				"x": -1.1283116803,
				"y": 2.4455765281,
				"z": -3.3488961368,
				"element": "H" 
			},
			{
				"x": -1.7509275547,
				"y": 0.7978809906,
				"z": -3.3021227912,
				"element": "H" 
			},
			{
				"x": -0.1912516543,
				"y": 1.1470946738,
				"z": -4.0874691578,
				"element": "H" 
			},
			{
				"x": -0.5006784769,
				"y": 3.5264206852,
				"z": -0.0820240306,
				"element": "H" 
			},
			{
				"x": 0.2882195161,
				"y": 2.2183303546,
				"z": 0.7621186467,
				"element": "H" 
			},
			{
				"x": -1.4182732262,
				"y": 3.4144911723,
				"z": 2.1685891708,
				"element": "H" 
			},
			{
				"x": -2.694027769,
				"y": 2.8782584883,
				"z": 1.0208176765,
				"element": "H" 
			},
			{
				"x": -0.9141068602,
				"y": -0.3783705077,
				"z": 4.4910798729,
				"element": "H" 
			},
			{
				"x": -2.0269166138,
				"y": -2.1761962276,
				"z": 5.1783041415,
				"element": "H" 
			},
			{
				"x": -3.6827836993,
				"y": -3.956892709,
				"z": 4.7775289018,
				"element": "H" 
			},
			{
				"x": -5.1031467409,
				"y": -3.9090846875,
				"z": 2.7261446382,
				"element": "H" 
			},
			{
				"x": -4.8167501943,
				"y": -2.0534210377,
				"z": 1.0934084233,
				"element": "H" 
			},
			{
				"x": -3.1659738728,
				"y": -0.2796665979,
				"z": 1.4770986864,
				"element": "H" 
			},
			{
				"x": -1.1856233201,
				"y": -1.0274082154,
				"z": -0.2314007956,
				"element": "H" 
			},
			{
				"x": -1.6028118184,
				"y": -1.2907038308,
				"z": -1.9230277641,
				"element": "H" 
			},
			{
				"x": -0.3924642936,
				"y": -2.3145473934,
				"z": -1.1441970038,
				"element": "H" 
			},
			{
				"x": 0.2247694606,
				"y": -1.0477993384,
				"z": -3.7210290833,
				"element": "H" 
			},
			{
				"x": 1.3979841999,
				"y": -1.9093906844,
				"z": -2.736019254,
				"element": "H" 
			},
			{
				"x": 1.7812464563,
				"y": -0.2972460855,
				"z": -3.342995062,
				"element": "H" 
			}
		],
		 "valence_orbital": [ 
			{
				"type": "occ",
				"energy": -0.25764,
				"method": "rhf"
			},
			{
				"type": "occ",
				"energy": -0.25563,
				"method": "rhf"
			},
			{
				"type": "occ",
				"energy": -0.24502,
				"method": "rhf"
			},
			{
				"type": "occ",
				"energy": -0.22071,
				"method": "rhf"
			},
			{
				"type": "occ",
				"energy": -0.21339,
				"method": "rhf"
			},
			{
				"type": "unocc",
				"energy": -0.03261,
				"method": "rhf"
			},
			{
				"type": "unocc",
				"energy": -0.02272,
				"method": "rhf"
			},
			{
				"type": "unocc",
				"energy": -0.00666,
				"method": "rhf"
			},
			{
				"type": "unocc",
				"energy": 0.0262,
				"method": "rhf"
			},
			{
				"type": "unocc",
				"energy": 0.05934,
				"method": "rhf"
			}
		],
		"cosmo_sigma_profile": { 
			"-0.025": 0.0,
			"-0.024": 0.0,
			"-0.023": 0.0,
			"-0.022": 0.0,
			"-0.021": 0.0,
			"-0.02": 0.0,
			"-0.019": 0.0,
			"-0.018": 0.0,
			"-0.017": 0.0,
			"-0.016": 0.0,
			"-0.015": 0.524674967128,
			"-0.014": 1.28308543095,
			"-0.013": 1.02305455647,
			"-0.012": 0.908014495455,
			"-0.011": 1.10839057619,
			"-0.01": 1.16952038304,
			"-0.009": 1.39710684528,
			"-0.008": 1.95755294786,
			"-0.007": 6.77261843914,
			"-0.006": 12.2676851067,
			"-0.005": 16.5427887064,
			"-0.004": 20.6130262375,
			"-0.003": 31.6239292805,
			"-0.002": 48.5129031993,
			"-0.001": 45.3510147563,
			"0.0": 44.0515355164,
			"0.001": 42.8013577115,
			"0.002": 26.9927668371,
			"0.003": 16.7056068438,
			"0.004": 16.613229971,
			"0.005": 15.3740342716,
			"0.006": 7.26645567537,
			"0.007": 6.62849198227,
			"0.008": 7.18005476358,
			"0.009": 8.30208591515,
			"0.01": 5.01572864464,
			"0.011": 3.03689448663,
			"0.012": 1.81675756646,
			"0.013": 0.165407167208,
			"0.014": 0.0,
			"0.015": 0.0,
			"0.016": 0.0,
			"0.017": 0.0,
			"0.018": 0.0,
			"0.019": 0.0,
			"0.02": 0.0,
			"0.021": 0.0,
			"0.022": 0.0,
			"0.023": 0.0,
			"0.024": 0.0,
			"0.025": 0.0
		}
	}
}
