{
	 "smiles": "OC(=O)CCS(=O)(=O)C1=CC=C(Br)C=C1", 
	 "Tm": 425.15, 
	 "num_atms": 24, 
	 "gaussian": { 
		 "optdone": 1, 
		 "sigma_profile": "yes", 
		 "theory": "DFT", 
		 "functional": "B3LYP", 
		 "basiset": "6-31G**", 
		 "properties": { 
			 "R2extent": 8034.4462, 
			 "electric_dipole_moment_norm": 6.21748576275, 
			 "electric_quadrupole_moment_norm": 19.0955522392, 
			 "total_energy": -3618.81566564, 
			 "HOMO_LUMO_gap": 0.19331, 
			 "cosmo_polarized_energy": -21.4, 
			 "cosmo_cavitation_energy": 31.9, 
			 "cosmo_dispersion_energy": -23.78, 
			 "cosmo_repulsion_energy": 1.82, 
			 "cosmo_total_nonelectrostatic_energy": 9.94, 
			 "SMD_solvation_energy": 4.7 
		},
		"coords": [
			{
				"x": -3.0074591512,
				"y": 1.5163596378,
				"z": 0.1067433484,
				"element": "O" 
			},
			{
				"x": -2.629154051,
				"y": 1.5808488742,
				"z": 1.3909783627,
				"element": "C" 
			},
			{
				"x": -3.4360261863,
				"y": 1.5582094178,
				"z": 2.2903558251,
				"element": "O" 
			},
			{
				"x": -1.1222813992,
				"y": 1.6769079195,
				"z": 1.6813281889,
				"element": "C" 
			},
			{
				"x": -0.3629445665,
				"y": 2.7840088776,
				"z": 0.9314509763,
				"element": "C" 
			},
			{
				"x": 0.3268579582,
				"y": 2.3008683038,
				"z": -0.6860589503,
				"element": "S" 
			},
			{
				"x": -0.7123766612,
				"y": 1.4911786542,
				"z": -1.374807952,
				"element": "O" 
			},
			{
				"x": 0.8731873639,
				"y": 3.5111851609,
				"z": -1.3115302295,
				"element": "O" 
			},
			{
				"x": 1.6847931678,
				"y": 1.1883253833,
				"z": -0.312048791,
				"element": "C" 
			},
			{
				"x": 2.9367336163,
				"y": 1.7294345231,
				"z": -0.007402835,
				"element": "C" 
			},
			{
				"x": 3.9962785154,
				"y": 0.8738190517,
				"z": 0.2847121193,
				"element": "C" 
			},
			{
				"x": 3.7857490188,
				"y": -0.5071315865,
				"z": 0.2594116911,
				"element": "C" 
			},
			{
				"x": 5.233622137,
				"y": -1.6751816659,
				"z": 0.6606638903,
				"element": "Br" 
			},
			{
				"x": 2.5404532907,
				"y": -1.0488195992,
				"z": -0.0624460086,
				"element": "C" 
			},
			{
				"x": 1.4791138693,
				"y": -0.1922362365,
				"z": -0.3531291991,
				"element": "C" 
			},
			{
				"x": -2.2417822489,
				"y": 1.4829860816,
				"z": -0.5093601029,
				"element": "H" 
			},
			{
				"x": -1.0421035603,
				"y": 1.8617159807,
				"z": 2.7538401705,
				"element": "H" 
			},
			{
				"x": -0.6586558138,
				"y": 0.6997041146,
				"z": 1.4970426367,
				"element": "H" 
			},
			{
				"x": -0.9959634566,
				"y": 3.6449986439,
				"z": 0.6931001908,
				"element": "H" 
			},
			{
				"x": 0.490151967,
				"y": 3.1506219097,
				"z": 1.5080529493,
				"element": "H" 
			},
			{
				"x": 3.0857829657,
				"y": 2.8041006332,
				"z": -0.0221561162,
				"element": "H" 
			},
			{
				"x": 4.9765341061,
				"y": 1.2714407567,
				"z": 0.5200660279,
				"element": "H" 
			},
			{
				"x": 2.4038883717,
				"y": -2.1234555003,
				"z": -0.0923508933,
				"element": "H" 
			},
			{
				"x": 0.5091007469,
				"y": -0.5879893359,
				"z": -0.6334552995,
				"element": "H" 
			}
		],
		 "valence_orbital": [ 
			{
				"type": "occ",
				"energy": -0.31419,
				"method": "rhf"
			},
			{
				"type": "occ",
				"energy": -0.30606,
				"method": "rhf"
			},
			{
				"type": "occ",
				"energy": -0.30265,
				"method": "rhf"
			},
			{
				"type": "occ",
				"energy": -0.28042,
				"method": "rhf"
			},
			{
				"type": "occ",
				"energy": -0.26527,
				"method": "rhf"
			},
			{
				"type": "unocc",
				"energy": -0.07196,
				"method": "rhf"
			},
			{
				"type": "unocc",
				"energy": -0.05379,
				"method": "rhf"
			},
			{
				"type": "unocc",
				"energy": -0.02072,
				"method": "rhf"
			},
			{
				"type": "unocc",
				"energy": 0.00957,
				"method": "rhf"
			},
			{
				"type": "unocc",
				"energy": 0.03905,
				"method": "rhf"
			}
		],
		"cosmo_sigma_profile": { 
			"-0.025": 0.0,
			"-0.024": 0.0,
			"-0.023": 0.0,
			"-0.022": 0.0,
			"-0.021": 0.0,
			"-0.02": 0.0,
			"-0.019": 0.0,
			"-0.018": 0.0,
			"-0.017": 0.0,
			"-0.016": 0.0,
			"-0.015": 0.0,
			"-0.014": 0.0,
			"-0.013": 0.0,
			"-0.012": 0.00412471071889,
			"-0.011": 0.928558420287,
			"-0.01": 4.32081568862,
			"-0.009": 8.47287849625,
			"-0.008": 16.2833852775,
			"-0.007": 15.5100853262,
			"-0.006": 15.7581897365,
			"-0.005": 13.5141872031,
			"-0.004": 12.5614190947,
			"-0.003": 11.4734386469,
			"-0.002": 11.1694466205,
			"-0.001": 15.0563437668,
			"0.0": 22.2884310505,
			"0.001": 19.053572174,
			"0.002": 11.7706775673,
			"0.003": 13.20794825,
			"0.004": 11.1496865486,
			"0.005": 4.43712816668,
			"0.006": 3.96725157169,
			"0.007": 5.25350554673,
			"0.008": 5.40393631389,
			"0.009": 6.64711979075,
			"0.01": 9.60569612191,
			"0.011": 10.5898475442,
			"0.012": 6.75413623581,
			"0.013": 2.90067335148,
			"0.014": 0.48917164726,
			"0.015": 0.0,
			"0.016": 0.0,
			"0.017": 0.0,
			"0.018": 0.0,
			"0.019": 0.0,
			"0.02": 0.0,
			"0.021": 0.0,
			"0.022": 0.0,
			"0.023": 0.0,
			"0.024": 0.0,
			"0.025": 0.0
		}
	}
}
