{
	 "smiles": "COC(=O)C1=C(C)NC(CBr)=C(C1C1=CC(=CC=C1)[N+]([O-])=O)C(=O)OCCCl", 
	 "Tm": 479.15, 
	 "num_atms": 46, 
	 "gaussian": { 
		 "optdone": 1, 
		 "sigma_profile": "yes", 
		 "theory": "DFT", 
		 "functional": "B3LYP", 
		 "basiset": "6-31G**", 
		 "properties": { 
			 "R2extent": 15888.8626, 
			 "electric_dipole_moment_norm": 2.3528222096, 
			 "electric_quadrupole_moment_norm": 35.2492367855, 
			 "total_energy": -4289.12586611, 
			 "HOMO_LUMO_gap": 0.14218, 
			 "cosmo_polarized_energy": -22.82, 
			 "cosmo_cavitation_energy": 54.88, 
			 "cosmo_dispersion_energy": -36.03, 
			 "cosmo_repulsion_energy": 2.82, 
			 "cosmo_total_nonelectrostatic_energy": 21.67, 
			 "SMD_solvation_energy": 12.15 
		},
		"coords": [
			{
				"x": -1.3398755987,
				"y": 2.8595421842,
				"z": -3.5953971767,
				"element": "C" 
			},
			{
				"x": -0.984854422,
				"y": 1.9376421198,
				"z": -2.5552288023,
				"element": "O" 
			},
			{
				"x": -1.1236317362,
				"y": 2.411792603,
				"z": -1.2900670091,
				"element": "C" 
			},
			{
				"x": -1.520356329,
				"y": 3.5437424069,
				"z": -1.0617794581,
				"element": "O" 
			},
			{
				"x": -0.7432976637,
				"y": 1.3953069085,
				"z": -0.2921002428,
				"element": "C" 
			},
			{
				"x": -0.7655640313,
				"y": 1.6900113986,
				"z": 1.0364396823,
				"element": "C" 
			},
			{
				"x": -1.1025402923,
				"y": 3.0112243892,
				"z": 1.6728924972,
				"element": "C" 
			},
			{
				"x": -0.4754354235,
				"y": 0.6766206845,
				"z": 1.9432874567,
				"element": "N" 
			},
			{
				"x": -0.5268109061,
				"y": -0.6689178232,
				"z": 1.6181175377,
				"element": "C" 
			},
			{
				"x": -0.4999520257,
				"y": -1.5676907416,
				"z": 2.8114900851,
				"element": "C" 
			},
			{
				"x": -2.1654760212,
				"y": -1.4067951925,
				"z": 3.9047378398,
				"element": "Br" 
			},
			{
				"x": -0.5413605387,
				"y": -1.0353966202,
				"z": 0.3039170736,
				"element": "C" 
			},
			{
				"x": -0.2797101044,
				"y": 0.0253399929,
				"z": -0.7688134844,
				"element": "C" 
			},
			{
				"x": 1.1950677613,
				"y": 0.0098213544,
				"z": -1.2010199072,
				"element": "C" 
			},
			{
				"x": 2.1708627044,
				"y": 0.689885379,
				"z": -0.4672845451,
				"element": "C" 
			},
			{
				"x": 3.5011835097,
				"y": 0.6297174164,
				"z": -0.8754532729,
				"element": "C" 
			},
			{
				"x": 3.9061200623,
				"y": -0.0819286331,
				"z": -2.0029390587,
				"element": "C" 
			},
			{
				"x": 2.9305985742,
				"y": -0.7572432092,
				"z": -2.7324558277,
				"element": "C" 
			},
			{
				"x": 1.5920695156,
				"y": -0.7141590008,
				"z": -2.3354096872,
				"element": "C" 
			},
			{
				"x": 4.5149330768,
				"y": 1.3469107641,
				"z": -0.0850922419,
				"element": "N" 
			},
			{
				"x": 4.1377101006,
				"y": 1.9521514865,
				"z": 0.9193592719,
				"element": "O" 
			},
			{
				"x": 5.6824980739,
				"y": 1.2977616098,
				"z": -0.4713901881,
				"element": "O" 
			},
			{
				"x": -0.791133352,
				"y": -2.3869695671,
				"z": -0.2348673361,
				"element": "C" 
			},
			{
				"x": -0.779630369,
				"y": -2.6386377456,
				"z": -1.4278838359,
				"element": "O" 
			},
			{
				"x": -1.0858484274,
				"y": -3.3468177078,
				"z": 0.6865374625,
				"element": "O" 
			},
			{
				"x": -1.3902000667,
				"y": -4.6481155315,
				"z": 0.144107345,
				"element": "C" 
			},
			{
				"x": -1.7744887277,
				"y": -5.5097776842,
				"z": 1.335751384,
				"element": "C" 
			},
			{
				"x": -2.202747908,
				"y": -7.1716252015,
				"z": 0.7685772641,
				"element": "Cl" 
			},
			{
				"x": -2.3860353194,
				"y": 3.1624902024,
				"z": -3.5033789444,
				"element": "H" 
			},
			{
				"x": -1.1767270452,
				"y": 2.3237741168,
				"z": -4.5305294705,
				"element": "H" 
			},
			{
				"x": -0.7116420832,
				"y": 3.7526738319,
				"z": -3.550043547,
				"element": "H" 
			},
			{
				"x": -0.7149678028,
				"y": 3.0515410057,
				"z": 2.696339603,
				"element": "H" 
			},
			{
				"x": -0.6989615247,
				"y": 3.8409926565,
				"z": 1.0958726941,
				"element": "H" 
			},
			{
				"x": -2.187669005,
				"y": 3.1544995202,
				"z": 1.709653327,
				"element": "H" 
			},
			{
				"x": -0.5866010766,
				"y": 0.9038676542,
				"z": 2.921850523,
				"element": "H" 
			},
			{
				"x": -0.4208129255,
				"y": -2.6113649822,
				"z": 2.5451135193,
				"element": "H" 
			},
			{
				"x": 0.2991163765,
				"y": -1.2743478052,
				"z": 3.4934321,
				"element": "H" 
			},
			{
				"x": -0.8616670314,
				"y": -0.2527004043,
				"z": -1.6477642482,
				"element": "H" 
			},
			{
				"x": 1.9204212282,
				"y": 1.2725514097,
				"z": 0.4095793036,
				"element": "H" 
			},
			{
				"x": 4.9515720705,
				"y": -0.0937815035,
				"z": -2.2835338458,
				"element": "H" 
			},
			{
				"x": 3.2139315808,
				"y": -1.3196404092,
				"z": -3.6168099943,
				"element": "H" 
			},
			{
				"x": 0.8407689503,
				"y": -1.2570848399,
				"z": -2.8988724511,
				"element": "H" 
			},
			{
				"x": -0.5178486493,
				"y": -5.049134947,
				"z": -0.3788953173,
				"element": "H" 
			},
			{
				"x": -2.2103955567,
				"y": -4.5674801759,
				"z": -0.5730928817,
				"element": "H" 
			},
			{
				"x": -0.9475847925,
				"y": -5.6122215023,
				"z": 2.0398690704,
				"element": "H" 
			},
			{
				"x": -2.6442268292,
				"y": -5.104429867,
				"z": 1.8538777345,
				"element": "H" 
			}
		],
		 "valence_orbital": [ 
			{
				"type": "occ",
				"energy": -0.28438,
				"method": "rhf"
			},
			{
				"type": "occ",
				"energy": -0.27453,
				"method": "rhf"
			},
			{
				"type": "occ",
				"energy": -0.2708,
				"method": "rhf"
			},
			{
				"type": "occ",
				"energy": -0.26218,
				"method": "rhf"
			},
			{
				"type": "occ",
				"energy": -0.2283,
				"method": "rhf"
			},
			{
				"type": "unocc",
				"energy": -0.08612,
				"method": "rhf"
			},
			{
				"type": "unocc",
				"energy": -0.08041,
				"method": "rhf"
			},
			{
				"type": "unocc",
				"energy": -0.03315,
				"method": "rhf"
			},
			{
				"type": "unocc",
				"energy": -0.02026,
				"method": "rhf"
			},
			{
				"type": "unocc",
				"energy": -0.00359,
				"method": "rhf"
			}
		],
		"cosmo_sigma_profile": { 
			"-0.025": 0.0,
			"-0.024": 0.0,
			"-0.023": 0.0,
			"-0.022": 0.0,
			"-0.021": 0.0,
			"-0.02": 0.0,
			"-0.019": 0.0,
			"-0.018": 0.0,
			"-0.017": 0.0,
			"-0.016": 0.0118832610743,
			"-0.015": 0.783552013019,
			"-0.014": 1.24966037678,
			"-0.013": 1.36798595339,
			"-0.012": 1.30809200153,
			"-0.011": 1.8374578255,
			"-0.01": 2.31144915102,
			"-0.009": 3.11375715137,
			"-0.008": 5.08116781312,
			"-0.007": 12.9465042103,
			"-0.006": 23.7554150022,
			"-0.005": 30.9301010323,
			"-0.004": 30.0965761012,
			"-0.003": 34.1946939086,
			"-0.002": 34.1255393296,
			"-0.001": 36.9530234813,
			"0.0": 31.7676078441,
			"0.001": 30.1117024992,
			"0.002": 25.3342617208,
			"0.003": 23.4281455247,
			"0.004": 22.1059730769,
			"0.005": 25.3384172148,
			"0.006": 18.3710950933,
			"0.007": 10.3229117728,
			"0.008": 11.4504588586,
			"0.009": 7.09105064703,
			"0.01": 6.45319714003,
			"0.011": 4.21264291471,
			"0.012": 4.26298863723,
			"0.013": 1.9325357173,
			"0.014": 0.00565354824764,
			"0.015": 0.0,
			"0.016": 0.0,
			"0.017": 0.0,
			"0.018": 0.0,
			"0.019": 0.0,
			"0.02": 0.0,
			"0.021": 0.0,
			"0.022": 0.0,
			"0.023": 0.0,
			"0.024": 0.0,
			"0.025": 0.0
		}
	}
}
