{
	 "smiles": "CCOC1=CC=C(NC2=NN=C(S)S2)C=C1", 
	 "Tm": 444.15, 
	 "num_atms": 27, 
	 "gaussian": { 
		 "optdone": 1, 
		 "sigma_profile": "yes", 
		 "theory": "DFT", 
		 "functional": "B3LYP", 
		 "basiset": "6-31G**", 
		 "properties": { 
			 "R2extent": 8566.5177, 
			 "electric_dipole_moment_norm": 6.07260347298, 
			 "electric_quadrupole_moment_norm": 27.2905179485, 
			 "total_energy": -1423.49819124, 
			 "HOMO_LUMO_gap": 0.16622, 
			 "cosmo_polarized_energy": -16.37, 
			 "cosmo_cavitation_energy": 34.76, 
			 "cosmo_dispersion_energy": -26.57, 
			 "cosmo_repulsion_energy": 2.0, 
			 "cosmo_total_nonelectrostatic_energy": 10.19, 
			 "SMD_solvation_energy": 3.64 
		},
		"coords": [
			{
				"x": -2.646098442,
				"y": -1.9919109371,
				"z": -3.5744134305,
				"element": "C" 
			},
			{
				"x": -1.5050488853,
				"y": -2.5689528993,
				"z": -2.7427175552,
				"element": "C" 
			},
			{
				"x": -1.5576690085,
				"y": -2.1554250833,
				"z": -1.3745310526,
				"element": "O" 
			},
			{
				"x": -1.0877346932,
				"y": -0.9259824299,
				"z": -1.0150457715,
				"element": "C" 
			},
			{
				"x": -1.2247767964,
				"y": -0.5998153522,
				"z": 0.3422706148,
				"element": "C" 
			},
			{
				"x": -0.7746797671,
				"y": 0.6190611391,
				"z": 0.8330890808,
				"element": "C" 
			},
			{
				"x": -0.144586265,
				"y": 1.5373808128,
				"z": -0.0216398298,
				"element": "C" 
			},
			{
				"x": 0.3208758837,
				"y": 2.7950108636,
				"z": 0.4211418215,
				"element": "N" 
			},
			{
				"x": 0.8555677396,
				"y": 3.1534756364,
				"z": 1.6216856084,
				"element": "C" 
			},
			{
				"x": 1.1212738247,
				"y": 4.4161489103,
				"z": 1.8885953668,
				"element": "N" 
			},
			{
				"x": 1.7550755469,
				"y": 4.5830714392,
				"z": 3.081619239,
				"element": "N" 
			},
			{
				"x": 1.955057549,
				"y": 3.4798763909,
				"z": 3.734092064,
				"element": "C" 
			},
			{
				"x": 2.620177544,
				"y": 3.4307098036,
				"z": 5.3729588491,
				"element": "S" 
			},
			{
				"x": 1.3417132801,
				"y": 2.0378243234,
				"z": 2.8945140951,
				"element": "S" 
			},
			{
				"x": -0.0123852279,
				"y": 1.2127131468,
				"z": -1.3756785178,
				"element": "C" 
			},
			{
				"x": -0.4875505283,
				"y": 0.000917057,
				"z": -1.8773611579,
				"element": "C" 
			},
			{
				"x": -2.5979063685,
				"y": -0.901017697,
				"z": -3.6302951983,
				"element": "H" 
			},
			{
				"x": -2.6038383992,
				"y": -2.3885244652,
				"z": -4.5943382413,
				"element": "H" 
			},
			{
				"x": -3.6096363958,
				"y": -2.2680117313,
				"z": -3.1369887159,
				"element": "H" 
			},
			{
				"x": -1.5823639635,
				"y": -3.6588610343,
				"z": -2.6989886473,
				"element": "H" 
			},
			{
				"x": -0.5256639446,
				"y": -2.3285496918,
				"z": -3.1758858165,
				"element": "H" 
			},
			{
				"x": -1.7069907347,
				"y": -1.3163143253,
				"z": 0.9987808746,
				"element": "H" 
			},
			{
				"x": -0.9360393453,
				"y": 0.8620796576,
				"z": 1.8773934317,
				"element": "H" 
			},
			{
				"x": 0.3042949299,
				"y": 3.5608249408,
				"z": -0.2400392481,
				"element": "H" 
			},
			{
				"x": 3.6801829979,
				"y": 2.6402222734,
				"z": 5.097091981,
				"element": "H" 
			},
			{
				"x": 0.4722038316,
				"y": 1.9143599762,
				"z": -2.0494722617,
				"element": "H" 
			},
			{
				"x": -0.3719543619,
				"y": -0.2070107244,
				"z": -2.9340375824,
				"element": "H" 
			}
		],
		 "valence_orbital": [ 
			{
				"type": "occ",
				"energy": -0.27332,
				"method": "rhf"
			},
			{
				"type": "occ",
				"energy": -0.26671,
				"method": "rhf"
			},
			{
				"type": "occ",
				"energy": -0.25809,
				"method": "rhf"
			},
			{
				"type": "occ",
				"energy": -0.24609,
				"method": "rhf"
			},
			{
				"type": "occ",
				"energy": -0.20311,
				"method": "rhf"
			},
			{
				"type": "unocc",
				"energy": -0.03689,
				"method": "rhf"
			},
			{
				"type": "unocc",
				"energy": -0.0227,
				"method": "rhf"
			},
			{
				"type": "unocc",
				"energy": -0.00022,
				"method": "rhf"
			},
			{
				"type": "unocc",
				"energy": 0.00865,
				"method": "rhf"
			},
			{
				"type": "unocc",
				"energy": 0.0242,
				"method": "rhf"
			}
		],
		"cosmo_sigma_profile": { 
			"-0.025": 0.0,
			"-0.024": 0.0,
			"-0.023": 0.0,
			"-0.022": 0.0,
			"-0.021": 0.0,
			"-0.02": 0.0,
			"-0.019": 0.0,
			"-0.018": 0.0,
			"-0.017": 0.0,
			"-0.016": 0.0940020517139,
			"-0.015": 0.971981930695,
			"-0.014": 1.08658285163,
			"-0.013": 1.3530938049,
			"-0.012": 1.23634309788,
			"-0.011": 4.20885724243,
			"-0.01": 3.41836815723,
			"-0.009": 2.75693270267,
			"-0.008": 3.42588846014,
			"-0.007": 5.5495753559,
			"-0.006": 11.0652146519,
			"-0.005": 14.8517352361,
			"-0.004": 20.1717135318,
			"-0.003": 19.7620704104,
			"-0.002": 21.194915522,
			"-0.001": 24.5610622993,
			"0.0": 25.4791162992,
			"0.001": 21.9728131094,
			"0.002": 17.4742510856,
			"0.003": 16.6308668191,
			"0.004": 17.2650160578,
			"0.005": 10.7308132208,
			"0.006": 5.32384322257,
			"0.007": 6.43449400923,
			"0.008": 4.57983339936,
			"0.009": 3.66348218941,
			"0.01": 4.15376816728,
			"0.011": 4.25586776884,
			"0.012": 2.73156374997,
			"0.013": 2.49586331789,
			"0.014": 2.41245542306,
			"0.015": 0.854316607746,
			"0.016": 0.0,
			"0.017": 0.0,
			"0.018": 0.0,
			"0.019": 0.0,
			"0.02": 0.0,
			"0.021": 0.0,
			"0.022": 0.0,
			"0.023": 0.0,
			"0.024": 0.0,
			"0.025": 0.0
		}
	}
}
