{
	 "smiles": "COC(=O)CN1C=NC(N)=N1", 
	 "Tm": 410.15, 
	 "num_atms": 19, 
	 "gaussian": { 
		 "optdone": 1, 
		 "sigma_profile": "yes", 
		 "theory": "DFT", 
		 "functional": "B3LYP", 
		 "basiset": "6-31G**", 
		 "properties": { 
			 "R2extent": 3727.4616, 
			 "electric_dipole_moment_norm": 2.29980898555, 
			 "electric_quadrupole_moment_norm": 14.8680244014, 
			 "total_energy": -564.795509768, 
			 "HOMO_LUMO_gap": 0.20975, 
			 "cosmo_polarized_energy": -17.7, 
			 "cosmo_cavitation_energy": 24.35, 
			 "cosmo_dispersion_energy": -17.48, 
			 "cosmo_repulsion_energy": 1.46, 
			 "cosmo_total_nonelectrostatic_energy": 8.33, 
			 "SMD_solvation_energy": 3.5 
		},
		"coords": [
			{
				"x": 0.3949359053,
				"y": 0.5050130322,
				"z": 1.5888861952,
				"element": "C" 
			},
			{
				"x": 0.0179742008,
				"y": -0.741567662,
				"z": 0.975440416,
				"element": "O" 
			},
			{
				"x": 0.3574325451,
				"y": -1.8426789139,
				"z": 1.6618348368,
				"element": "C" 
			},
			{
				"x": 0.9662296285,
				"y": -1.8480148137,
				"z": 2.7075913113,
				"element": "O" 
			},
			{
				"x": -0.0555615444,
				"y": -3.1274859704,
				"z": 0.9408048121,
				"element": "C" 
			},
			{
				"x": -1.1913111632,
				"y": -3.0033230494,
				"z": 0.0636351941,
				"element": "N" 
			},
			{
				"x": -1.2414897217,
				"y": -2.8499753397,
				"z": -1.274721955,
				"element": "C" 
			},
			{
				"x": -2.4853967174,
				"y": -2.6726577878,
				"z": -1.6822724054,
				"element": "N" 
			},
			{
				"x": -3.1865315473,
				"y": -2.7132254374,
				"z": -0.5069919454,
				"element": "C" 
			},
			{
				"x": -4.5640493826,
				"y": -2.6257914844,
				"z": -0.4835438786,
				"element": "N" 
			},
			{
				"x": -2.4554566974,
				"y": -2.9003168999,
				"z": 0.5876607815,
				"element": "N" 
			},
			{
				"x": 0.0379046729,
				"y": 1.2825738332,
				"z": 0.9145932004,
				"element": "H" 
			},
			{
				"x": 1.4799835978,
				"y": 0.5615878197,
				"z": 1.7049653752,
				"element": "H" 
			},
			{
				"x": -0.0727058347,
				"y": 0.6016244567,
				"z": 2.5713571269,
				"element": "H" 
			},
			{
				"x": -0.2645673226,
				"y": -3.8770499999,
				"z": 1.7061704571,
				"element": "H" 
			},
			{
				"x": 0.8024204576,
				"y": -3.4733212108,
				"z": 0.354470272,
				"element": "H" 
			},
			{
				"x": -0.3623249343,
				"y": -2.8801800995,
				"z": -1.9044058781,
				"element": "H" 
			},
			{
				"x": -4.9454556715,
				"y": -2.1268740236,
				"z": -1.2748081439,
				"element": "H" 
			},
			{
				"x": -4.9453304709,
				"y": -2.3320364493,
				"z": 0.4047342279,
				"element": "H" 
			}
		],
		 "valence_orbital": [ 
			{
				"type": "occ",
				"energy": -0.31362,
				"method": "rhf"
			},
			{
				"type": "occ",
				"energy": -0.29036,
				"method": "rhf"
			},
			{
				"type": "occ",
				"energy": -0.27363,
				"method": "rhf"
			},
			{
				"type": "occ",
				"energy": -0.27017,
				"method": "rhf"
			},
			{
				"type": "occ",
				"energy": -0.21256,
				"method": "rhf"
			},
			{
				"type": "unocc",
				"energy": -0.00281,
				"method": "rhf"
			},
			{
				"type": "unocc",
				"energy": 0.01346,
				"method": "rhf"
			},
			{
				"type": "unocc",
				"energy": 0.07496,
				"method": "rhf"
			},
			{
				"type": "unocc",
				"energy": 0.08964,
				"method": "rhf"
			},
			{
				"type": "unocc",
				"energy": 0.10014,
				"method": "rhf"
			}
		],
		"cosmo_sigma_profile": { 
			"-0.025": 0.0,
			"-0.024": 0.0,
			"-0.023": 0.0,
			"-0.022": 0.0,
			"-0.021": 0.0,
			"-0.02": 0.0,
			"-0.019": 0.0,
			"-0.018": 0.0,
			"-0.017": 0.0,
			"-0.016": 0.0,
			"-0.015": 0.0,
			"-0.014": 0.0665300806516,
			"-0.013": 1.84679325384,
			"-0.012": 2.55536935864,
			"-0.011": 4.87037619591,
			"-0.01": 7.67661742297,
			"-0.009": 5.40275597496,
			"-0.008": 5.67107164241,
			"-0.007": 7.86860404604,
			"-0.006": 11.9798978103,
			"-0.005": 12.8464104073,
			"-0.004": 14.2581464091,
			"-0.003": 11.0111743427,
			"-0.002": 8.51397928133,
			"-0.001": 7.55065009506,
			"0.0": 7.35108393509,
			"0.001": 6.90180538638,
			"0.002": 6.34371932099,
			"0.003": 6.28185303112,
			"0.004": 7.71126614661,
			"0.005": 6.82760500231,
			"0.006": 7.55816735746,
			"0.007": 6.91291607579,
			"0.008": 5.58891344457,
			"0.009": 4.37781907577,
			"0.01": 4.6501621952,
			"0.011": 7.80585827367,
			"0.012": 5.41633647514,
			"0.013": 2.1627911133,
			"0.014": 2.72028539551,
			"0.015": 1.2556653335,
			"0.016": 1.12354945389,
			"0.017": 0.184808245521,
			"0.018": 0.0,
			"0.019": 0.0,
			"0.02": 0.0,
			"0.021": 0.0,
			"0.022": 0.0,
			"0.023": 0.0,
			"0.024": 0.0,
			"0.025": 0.0
		}
	}
}
