{
	 "smiles": "CC(C)(C)OC(=O)NCCNS(=O)(=O)C1=CC(N)=CC=C1", 
	 "Tm": 422.15, 
	 "num_atms": 42, 
	 "gaussian": { 
		 "optdone": 1, 
		 "sigma_profile": "yes", 
		 "theory": "DFT", 
		 "functional": "B3LYP", 
		 "basiset": "6-31G**", 
		 "properties": { 
			 "R2extent": 7863.5626, 
			 "electric_dipole_moment_norm": 5.53502370275, 
			 "electric_quadrupole_moment_norm": 31.3024540643, 
			 "total_energy": -1371.34956114, 
			 "HOMO_LUMO_gap": 0.18832, 
			 "cosmo_polarized_energy": -25.57, 
			 "cosmo_cavitation_energy": 46.22, 
			 "cosmo_dispersion_energy": -29.84, 
			 "cosmo_repulsion_energy": 2.28, 
			 "cosmo_total_nonelectrostatic_energy": 18.66, 
			 "SMD_solvation_energy": 6.71 
		},
		"coords": [
			{
				"x": 2.0592812103,
				"y": -0.9783426556,
				"z": -0.3979917838,
				"element": "C" 
			},
			{
				"x": 2.363403963,
				"y": -0.6849756968,
				"z": 1.0729400416,
				"element": "C" 
			},
			{
				"x": 1.978385619,
				"y": -1.8736243423,
				"z": 1.9591173107,
				"element": "C" 
			},
			{
				"x": 3.8277754264,
				"y": -0.27311168,
				"z": 1.2547172654,
				"element": "C" 
			},
			{
				"x": 1.4803555953,
				"y": 0.46400583,
				"z": 1.3628343383,
				"element": "O" 
			},
			{
				"x": 1.4971705169,
				"y": 1.0665157218,
				"z": 2.582270571,
				"element": "C" 
			},
			{
				"x": 2.1229202712,
				"y": 0.6933675364,
				"z": 3.5597023393,
				"element": "O" 
			},
			{
				"x": 0.6886176984,
				"y": 2.1714657203,
				"z": 2.5886099305,
				"element": "N" 
			},
			{
				"x": -0.0077962591,
				"y": 2.7856563909,
				"z": 1.4643340331,
				"element": "C" 
			},
			{
				"x": -1.4441230009,
				"y": 2.2887929226,
				"z": 1.255463785,
				"element": "C" 
			},
			{
				"x": -1.4260818077,
				"y": 0.9666244776,
				"z": 0.6016664996,
				"element": "N" 
			},
			{
				"x": -2.9166737232,
				"y": 0.1625815205,
				"z": 0.5626096446,
				"element": "S" 
			},
			{
				"x": -3.1901668223,
				"y": -0.5207409238,
				"z": 1.8356032801,
				"element": "O" 
			},
			{
				"x": -3.8786343312,
				"y": 1.1334657,
				"z": 0.0282438403,
				"element": "O" 
			},
			{
				"x": -2.5753245932,
				"y": -1.093966501,
				"z": -0.6719450699,
				"element": "C" 
			},
			{
				"x": -2.704565798,
				"y": -0.7524061458,
				"z": -2.0154718056,
				"element": "C" 
			},
			{
				"x": -2.4460230136,
				"y": -1.7186547248,
				"z": -3.0009581632,
				"element": "C" 
			},
			{
				"x": -2.5161179793,
				"y": -1.3907536031,
				"z": -4.351915537,
				"element": "N" 
			},
			{
				"x": -2.0595946159,
				"y": -3.0096640773,
				"z": -2.5918764694,
				"element": "C" 
			},
			{
				"x": -1.9465788457,
				"y": -3.3277888455,
				"z": -1.2415290015,
				"element": "C" 
			},
			{
				"x": -2.208001491,
				"y": -2.3738450813,
				"z": -0.254580151,
				"element": "C" 
			},
			{
				"x": 2.2852478999,
				"y": -0.1085395308,
				"z": -1.0214627647,
				"element": "H" 
			},
			{
				"x": 2.669253693,
				"y": -1.8186286337,
				"z": -0.7429236161,
				"element": "H" 
			},
			{
				"x": 1.0061892632,
				"y": -1.2386037596,
				"z": -0.5379742385,
				"element": "H" 
			},
			{
				"x": 2.5744715114,
				"y": -2.7477656333,
				"z": 1.677305412,
				"element": "H" 
			},
			{
				"x": 2.1541943738,
				"y": -1.6493093581,
				"z": 3.0111304751,
				"element": "H" 
			},
			{
				"x": 0.9224871384,
				"y": -2.1282318081,
				"z": 1.8203186526,
				"element": "H" 
			},
			{
				"x": 4.0557228994,
				"y": 0.6034282704,
				"z": 0.6397980124,
				"element": "H" 
			},
			{
				"x": 4.0435327785,
				"y": -0.0418186891,
				"z": 2.2979661153,
				"element": "H" 
			},
			{
				"x": 4.4796812837,
				"y": -1.0913934972,
				"z": 0.9325174329,
				"element": "H" 
			},
			{
				"x": 0.6378455222,
				"y": 2.614018585,
				"z": 3.4937162643,
				"element": "H" 
			},
			{
				"x": 0.5726373106,
				"y": 2.6241236981,
				"z": 0.5526410726,
				"element": "H" 
			},
			{
				"x": -0.041145375,
				"y": 3.8643573012,
				"z": 1.6492099683,
				"element": "H" 
			},
			{
				"x": -1.9626558473,
				"y": 2.2736516041,
				"z": 2.2243737965,
				"element": "H" 
			},
			{
				"x": -1.9807867921,
				"y": 2.9782786221,
				"z": 0.5977958737,
				"element": "H" 
			},
			{
				"x": -0.7132921115,
				"y": 0.3554768104,
				"z": 1.0008862061,
				"element": "H" 
			},
			{
				"x": -3.0116611956,
				"y": 0.252284493,
				"z": -2.2878645753,
				"element": "H" 
			},
			{
				"x": -2.6741654908,
				"y": -2.1647626409,
				"z": -4.9819689972,
				"element": "H" 
			},
			{
				"x": -3.0904693053,
				"y": -0.5902442235,
				"z": -4.5767855525,
				"element": "H" 
			},
			{
				"x": -1.852783095,
				"y": -3.7655817438,
				"z": -3.3453471911,
				"element": "H" 
			},
			{
				"x": -1.6622308569,
				"y": -4.3358896752,
				"z": -0.9542331605,
				"element": "H" 
			},
			{
				"x": -2.1587016239,
				"y": -2.6127517339,
				"z": 0.801155916,
				"element": "H" 
			}
		],
		 "valence_orbital": [ 
			{
				"type": "occ",
				"energy": -0.27304,
				"method": "rhf"
			},
			{
				"type": "occ",
				"energy": -0.26739,
				"method": "rhf"
			},
			{
				"type": "occ",
				"energy": -0.25743,
				"method": "rhf"
			},
			{
				"type": "occ",
				"energy": -0.25114,
				"method": "rhf"
			},
			{
				"type": "occ",
				"energy": -0.21979,
				"method": "rhf"
			},
			{
				"type": "unocc",
				"energy": -0.03147,
				"method": "rhf"
			},
			{
				"type": "unocc",
				"energy": -0.00265,
				"method": "rhf"
			},
			{
				"type": "unocc",
				"energy": 0.04771,
				"method": "rhf"
			},
			{
				"type": "unocc",
				"energy": 0.06137,
				"method": "rhf"
			},
			{
				"type": "unocc",
				"energy": 0.06995,
				"method": "rhf"
			}
		],
		"cosmo_sigma_profile": { 
			"-0.025": 0.0,
			"-0.024": 0.0,
			"-0.023": 0.0,
			"-0.022": 0.0,
			"-0.021": 0.0,
			"-0.02": 0.0,
			"-0.019": 0.0,
			"-0.018": 0.0,
			"-0.017": 0.0,
			"-0.016": 0.0,
			"-0.015": 0.0349361172945,
			"-0.014": 0.996564554103,
			"-0.013": 3.08487708744,
			"-0.012": 4.58234304622,
			"-0.011": 3.99181175249,
			"-0.01": 4.39333123079,
			"-0.009": 4.98494914708,
			"-0.008": 5.69968918931,
			"-0.007": 10.2366853188,
			"-0.006": 13.7735686585,
			"-0.005": 19.2383564139,
			"-0.004": 28.4479320854,
			"-0.003": 25.842387515,
			"-0.002": 25.925471205,
			"-0.001": 27.8728256195,
			"0.0": 36.5979153558,
			"0.001": 27.2100574559,
			"0.002": 17.5696704241,
			"0.003": 18.7331209876,
			"0.004": 15.3587194869,
			"0.005": 9.17608669793,
			"0.006": 6.0065387878,
			"0.007": 7.2558081471,
			"0.008": 5.49322111329,
			"0.009": 5.27518267139,
			"0.01": 8.09000136598,
			"0.011": 11.4228874578,
			"0.012": 8.99022324169,
			"0.013": 4.6351793761,
			"0.014": 1.86312753495,
			"0.015": 0.0,
			"0.016": 0.0,
			"0.017": 0.0,
			"0.018": 0.0,
			"0.019": 0.0,
			"0.02": 0.0,
			"0.021": 0.0,
			"0.022": 0.0,
			"0.023": 0.0,
			"0.024": 0.0,
			"0.025": 0.0
		}
	}
}
