{
	 "smiles": "OC1=CC(Br)=CC(Br)=C1", 
	 "Tm": 354.15, 
	 "num_atms": 13, 
	 "gaussian": { 
		 "optdone": 1, 
		 "sigma_profile": "yes", 
		 "theory": "DFT", 
		 "functional": "B3LYP", 
		 "basiset": "6-31G**", 
		 "properties": { 
			 "R2extent": 3873.3252, 
			 "electric_dipole_moment_norm": 2.27183662045, 
			 "electric_quadrupole_moment_norm": 6.85525425568, 
			 "total_energy": -5449.07463285, 
			 "HOMO_LUMO_gap": 0.21397, 
			 "cosmo_polarized_energy": -8.29, 
			 "cosmo_cavitation_energy": 22.25, 
			 "cosmo_dispersion_energy": -17.45, 
			 "cosmo_repulsion_energy": 1.43, 
			 "cosmo_total_nonelectrostatic_energy": 6.24, 
			 "SMD_solvation_energy": 1.93 
		},
		"coords": [
			{
				"x": -1.4735099477,
				"y": -1.2720242041,
				"z": 2.4657589099,
				"element": "O" 
			},
			{
				"x": -1.0646584112,
				"y": -0.3363859329,
				"z": 1.5651784296,
				"element": "C" 
			},
			{
				"x": -1.3610991617,
				"y": -0.4267341109,
				"z": 0.2001972897,
				"element": "C" 
			},
			{
				"x": -0.9035458842,
				"y": 0.5750367651,
				"z": -0.6522471858,
				"element": "C" 
			},
			{
				"x": -1.3066052333,
				"y": 0.4538723222,
				"z": -2.5142943849,
				"element": "Br" 
			},
			{
				"x": -0.1628071654,
				"y": 1.6607634822,
				"z": -0.1923535675,
				"element": "C" 
			},
			{
				"x": 0.1132444051,
				"y": 1.7171290052,
				"z": 1.1746246289,
				"element": "C" 
			},
			{
				"x": 1.1261205853,
				"y": 3.1903594621,
				"z": 1.8446479347,
				"element": "Br" 
			},
			{
				"x": -0.3220918542,
				"y": 0.7412599355,
				"z": 2.0632009934,
				"element": "C" 
			},
			{
				"x": -1.9731678494,
				"y": -1.96253624,
				"z": 2.0115191102,
				"element": "H" 
			},
			{
				"x": -1.9362908157,
				"y": -1.2598874904,
				"z": -0.1908199702,
				"element": "H" 
			},
			{
				"x": 0.184890375,
				"y": 2.4301248942,
				"z": -0.8678589803,
				"element": "H" 
			},
			{
				"x": -0.1015790424,
				"y": 0.7960221117,
				"z": 3.1214467922,
				"element": "H" 
			}
		],
		 "valence_orbital": [ 
			{
				"type": "occ",
				"energy": -0.29807,
				"method": "rhf"
			},
			{
				"type": "occ",
				"energy": -0.29132,
				"method": "rhf"
			},
			{
				"type": "occ",
				"energy": -0.29022,
				"method": "rhf"
			},
			{
				"type": "occ",
				"energy": -0.25012,
				"method": "rhf"
			},
			{
				"type": "occ",
				"energy": -0.24206,
				"method": "rhf"
			},
			{
				"type": "unocc",
				"energy": -0.02809,
				"method": "rhf"
			},
			{
				"type": "unocc",
				"energy": -0.01955,
				"method": "rhf"
			},
			{
				"type": "unocc",
				"energy": -0.0128,
				"method": "rhf"
			},
			{
				"type": "unocc",
				"energy": 0.02238,
				"method": "rhf"
			},
			{
				"type": "unocc",
				"energy": 0.05738,
				"method": "rhf"
			}
		],
		"cosmo_sigma_profile": { 
			"-0.025": 0.0,
			"-0.024": 0.0,
			"-0.023": 0.0,
			"-0.022": 0.0,
			"-0.021": 0.0,
			"-0.02": 0.0,
			"-0.019": 0.520385519452,
			"-0.018": 1.23411721279,
			"-0.017": 1.32660788637,
			"-0.016": 1.26636089444,
			"-0.015": 0.471001784745,
			"-0.014": 1.14140735414,
			"-0.013": 0.602419388978,
			"-0.012": 1.157062289,
			"-0.011": 2.00372508177,
			"-0.01": 0.644111805321,
			"-0.009": 1.08351106129,
			"-0.008": 2.40537578747,
			"-0.007": 4.40117465138,
			"-0.006": 3.24828246074,
			"-0.005": 6.57377478409,
			"-0.004": 6.48528261215,
			"-0.003": 8.88999938184,
			"-0.002": 8.70600184201,
			"-0.001": 9.33741510329,
			"0.0": 12.2950682223,
			"0.001": 22.5900090173,
			"0.002": 32.8937869434,
			"0.003": 18.6596530081,
			"0.004": 23.2990393799,
			"0.005": 5.85411315893,
			"0.006": 1.61568816674,
			"0.007": 1.49390968119,
			"0.008": 1.0191442817,
			"0.009": 1.69371192334,
			"0.01": 1.78681261711,
			"0.011": 0.595936662747,
			"0.012": 0.0,
			"0.013": 0.0,
			"0.014": 0.0,
			"0.015": 0.0,
			"0.016": 0.0,
			"0.017": 0.0,
			"0.018": 0.0,
			"0.019": 0.0,
			"0.02": 0.0,
			"0.021": 0.0,
			"0.022": 0.0,
			"0.023": 0.0,
			"0.024": 0.0,
			"0.025": 0.0
		}
	}
}
