{
	 "smiles": "CC(=O)SC1CC2=CC(=O)CCC2(C)C2CCC3(C)C(CCC33CCC(=O)O3)C12", 
	 "Tm": 481.15, 
	 "num_atms": 61, 
	 "gaussian": { 
		 "optdone": 1, 
		 "sigma_profile": "yes", 
		 "theory": "DFT", 
		 "functional": "B3LYP", 
		 "basiset": "6-31G**", 
		 "properties": { 
			 "R2extent": 13267.9623, 
			 "electric_dipole_moment_norm": 1.92879990927, 
			 "electric_quadrupole_moment_norm": 57.290350199, 
			 "total_energy": -1632.92849615, 
			 "HOMO_LUMO_gap": 0.18441, 
			 "cosmo_polarized_energy": -23.29, 
			 "cosmo_cavitation_energy": 54.08, 
			 "cosmo_dispersion_energy": -37.22, 
			 "cosmo_repulsion_energy": 2.67, 
			 "cosmo_total_nonelectrostatic_energy": 19.54, 
			 "SMD_solvation_energy": 9.65 
		},
		"coords": [
			{
				"x": -0.6242945718,
				"y": -4.6178696735,
				"z": 2.6424217743,
				"element": "C" 
			},
			{
				"x": -0.9010193902,
				"y": -3.1916537818,
				"z": 2.204371044,
				"element": "C" 
			},
			{
				"x": -1.706425435,
				"y": -2.9072988809,
				"z": 1.3439782899,
				"element": "O" 
			},
			{
				"x": 0.0714823046,
				"y": -1.985828234,
				"z": 3.1239568089,
				"element": "S" 
			},
			{
				"x": -0.609448908,
				"y": -0.3210605997,
				"z": 2.6535644862,
				"element": "C" 
			},
			{
				"x": -2.1476742107,
				"y": -0.2693682361,
				"z": 2.8351142917,
				"element": "C" 
			},
			{
				"x": -2.5078979873,
				"y": 1.1875150688,
				"z": 2.9138786922,
				"element": "C" 
			},
			{
				"x": -2.8794432119,
				"y": 1.7486673916,
				"z": 4.0838433554,
				"element": "C" 
			},
			{
				"x": -2.9373333981,
				"y": 3.2038932709,
				"z": 4.3172793312,
				"element": "C" 
			},
			{
				"x": -3.3275148666,
				"y": 3.6774042765,
				"z": 5.3751432067,
				"element": "O" 
			},
			{
				"x": -2.3854354997,
				"y": 4.0624452562,
				"z": 3.1889964864,
				"element": "C" 
			},
			{
				"x": -2.7140287623,
				"y": 3.447632593,
				"z": 1.8262193998,
				"element": "C" 
			},
			{
				"x": -2.2510045288,
				"y": 1.9761195529,
				"z": 1.6369049844,
				"element": "C" 
			},
			{
				"x": -3.1539403957,
				"y": 1.3878639113,
				"z": 0.5178174463,
				"element": "C" 
			},
			{
				"x": -0.6901325128,
				"y": 1.8651532463,
				"z": 1.3810909897,
				"element": "C" 
			},
			{
				"x": -0.1395886226,
				"y": 2.6436889441,
				"z": 0.1712414226,
				"element": "C" 
			},
			{
				"x": -0.409282568,
				"y": 1.9710531182,
				"z": -1.1758390159,
				"element": "C" 
			},
			{
				"x": 0.088857125,
				"y": 0.5163672784,
				"z": -1.2887054032,
				"element": "C" 
			},
			{
				"x": -0.6987935323,
				"y": -0.1360418323,
				"z": -2.4527901614,
				"element": "C" 
			},
			{
				"x": -0.171274453,
				"y": -0.3514016885,
				"z": 0.0122799234,
				"element": "C" 
			},
			{
				"x": 0.9125171473,
				"y": -1.4503658542,
				"z": -0.1249901555,
				"element": "C" 
			},
			{
				"x": 2.1608139547,
				"y": -0.7027151749,
				"z": -0.5909959697,
				"element": "C" 
			},
			{
				"x": 1.6593039041,
				"y": 0.3867826704,
				"z": -1.5664528586,
				"element": "C" 
			},
			{
				"x": 2.5486674578,
				"y": 1.6557309316,
				"z": -1.5436680162,
				"element": "C" 
			},
			{
				"x": 3.679634844,
				"y": 1.300192991,
				"z": -2.5113986554,
				"element": "C" 
			},
			{
				"x": 3.0041906987,
				"y": 0.3513260164,
				"z": -3.4906452809,
				"element": "C" 
			},
			{
				"x": 3.3742694921,
				"y": 0.0104416672,
				"z": -4.5847839756,
				"element": "O" 
			},
			{
				"x": 1.8478897488,
				"y": -0.1048970844,
				"z": -2.9357154802,
				"element": "O" 
			},
			{
				"x": -0.0812070249,
				"y": 0.4098215763,
				"z": 1.3743451248,
				"element": "C" 
			},
			{
				"x": -0.7307963077,
				"y": -5.2768507626,
				"z": 1.7779104739,
				"element": "H" 
			},
			{
				"x": -1.3739404165,
				"y": -4.9058588148,
				"z": 3.3877989894,
				"element": "H" 
			},
			{
				"x": 0.3655563633,
				"y": -4.7357232025,
				"z": 3.0892068625,
				"element": "H" 
			},
			{
				"x": -0.1956339166,
				"y": 0.2533921361,
				"z": 3.491956115,
				"element": "H" 
			},
			{
				"x": -2.417832211,
				"y": -0.7797473558,
				"z": 3.7633425352,
				"element": "H" 
			},
			{
				"x": -2.6418485786,
				"y": -0.7878285203,
				"z": 2.0121322992,
				"element": "H" 
			},
			{
				"x": -3.0755456775,
				"y": 1.1291393401,
				"z": 4.956539213,
				"element": "H" 
			},
			{
				"x": -1.2992942515,
				"y": 4.1438917617,
				"z": 3.3372969866,
				"element": "H" 
			},
			{
				"x": -2.7928599348,
				"y": 5.0727459826,
				"z": 3.2854046163,
				"element": "H" 
			},
			{
				"x": -2.3256155391,
				"y": 4.0739280052,
				"z": 1.0176161218,
				"element": "H" 
			},
			{
				"x": -3.8051604252,
				"y": 3.4596594745,
				"z": 1.7106910486,
				"element": "H" 
			},
			{
				"x": -2.8157462979,
				"y": 0.4237093861,
				"z": 0.1392032182,
				"element": "H" 
			},
			{
				"x": -4.1705837334,
				"y": 1.256609392,
				"z": 0.9037536432,
				"element": "H" 
			},
			{
				"x": -3.2202544067,
				"y": 2.078770403,
				"z": -0.326491153,
				"element": "H" 
			},
			{
				"x": -0.2527756545,
				"y": 2.3431856859,
				"z": 2.2688797864,
				"element": "H" 
			},
			{
				"x": 0.9408411545,
				"y": 2.7558027176,
				"z": 0.3219773627,
				"element": "H" 
			},
			{
				"x": -0.5368796774,
				"y": 3.6636770983,
				"z": 0.1579574162,
				"element": "H" 
			},
			{
				"x": 0.0181766351,
				"y": 2.5709861827,
				"z": -1.9875774865,
				"element": "H" 
			},
			{
				"x": -1.4838222263,
				"y": 1.9743114453,
				"z": -1.368209784,
				"element": "H" 
			},
			{
				"x": -1.7673560731,
				"y": -0.1215294872,
				"z": -2.2160873026,
				"element": "H" 
			},
			{
				"x": -0.403234284,
				"y": -1.1701068104,
				"z": -2.6370677863,
				"element": "H" 
			},
			{
				"x": -0.5474472457,
				"y": 0.4121619398,
				"z": -3.3857980171,
				"element": "H" 
			},
			{
				"x": -1.1590326468,
				"y": -0.8105046729,
				"z": -0.0631529451,
				"element": "H" 
			},
			{
				"x": 1.0959796911,
				"y": -2.0042021018,
				"z": 0.7926585521,
				"element": "H" 
			},
			{
				"x": 0.599066124,
				"y": -2.1731797487,
				"z": -0.8844673782,
				"element": "H" 
			},
			{
				"x": 2.8991202924,
				"y": -1.3531192558,
				"z": -1.0684647857,
				"element": "H" 
			},
			{
				"x": 2.6549933729,
				"y": -0.2288892041,
				"z": 0.2655934214,
				"element": "H" 
			},
			{
				"x": 2.0068097404,
				"y": 2.522892844,
				"z": -1.9287218727,
				"element": "H" 
			},
			{
				"x": 2.8967897192,
				"y": 1.8975131548,
				"z": -0.5374351699,
				"element": "H" 
			},
			{
				"x": 4.4954572493,
				"y": 0.7578221229,
				"z": -2.0185918201,
				"element": "H" 
			},
			{
				"x": 4.1199151963,
				"y": 2.1469316587,
				"z": -3.0411466997,
				"element": "H" 
			},
			{
				"x": 0.9887671685,
				"y": 0.5741104849,
				"z": 1.5634314538,
				"element": "H" 
			}
		],
		 "valence_orbital": [ 
			{
				"type": "occ",
				"energy": -0.2717,
				"method": "rhf"
			},
			{
				"type": "occ",
				"energy": -0.26353,
				"method": "rhf"
			},
			{
				"type": "occ",
				"energy": -0.26114,
				"method": "rhf"
			},
			{
				"type": "occ",
				"energy": -0.25379,
				"method": "rhf"
			},
			{
				"type": "occ",
				"energy": -0.23572,
				"method": "rhf"
			},
			{
				"type": "unocc",
				"energy": -0.05131,
				"method": "rhf"
			},
			{
				"type": "unocc",
				"energy": -0.0315,
				"method": "rhf"
			},
			{
				"type": "unocc",
				"energy": 0.01191,
				"method": "rhf"
			},
			{
				"type": "unocc",
				"energy": 0.01824,
				"method": "rhf"
			},
			{
				"type": "unocc",
				"energy": 0.04226,
				"method": "rhf"
			}
		],
		"cosmo_sigma_profile": { 
			"-0.025": 0.0,
			"-0.024": 0.0,
			"-0.023": 0.0,
			"-0.022": 0.0,
			"-0.021": 0.0,
			"-0.02": 0.0,
			"-0.019": 0.0,
			"-0.018": 0.0,
			"-0.017": 0.0,
			"-0.016": 0.0,
			"-0.015": 0.0,
			"-0.014": 0.0,
			"-0.013": 0.0,
			"-0.012": 0.0,
			"-0.011": 0.0,
			"-0.01": 0.0,
			"-0.009": 0.0,
			"-0.008": 0.0201243628282,
			"-0.007": 3.15748732148,
			"-0.006": 16.4106827919,
			"-0.005": 33.6256378536,
			"-0.004": 46.2080600111,
			"-0.003": 56.65944039,
			"-0.002": 54.9831827406,
			"-0.001": 43.7242498023,
			"0.0": 36.330216035,
			"0.001": 26.6429005422,
			"0.002": 12.6168915398,
			"0.003": 9.94831448487,
			"0.004": 10.5049102851,
			"0.005": 8.10249952794,
			"0.006": 8.08144666528,
			"0.007": 7.29685096656,
			"0.008": 4.19426557952,
			"0.009": 5.38994139842,
			"0.01": 6.98029234002,
			"0.011": 7.5970157239,
			"0.012": 10.8934617093,
			"0.013": 8.78234570149,
			"0.014": 3.21875688073,
			"0.015": 0.413977612124,
			"0.016": 0.0,
			"0.017": 0.0,
			"0.018": 0.0,
			"0.019": 0.0,
			"0.02": 0.0,
			"0.021": 0.0,
			"0.022": 0.0,
			"0.023": 0.0,
			"0.024": 0.0,
			"0.025": 0.0
		}
	}
}
