{
	 "smiles": "CN1C(C)=CC=C1CNCC1=CC=C(C)N1C", 
	 "Tm": 335.15, 
	 "num_atms": 38, 
	 "gaussian": { 
		 "optdone": 1, 
		 "sigma_profile": "yes", 
		 "theory": "DFT", 
		 "functional": "B3LYP", 
		 "basiset": "6-31G**", 
		 "properties": { 
			 "R2extent": 4983.6013, 
			 "electric_dipole_moment_norm": 2.86193752727, 
			 "electric_quadrupole_moment_norm": 6.74154586649, 
			 "total_energy": -710.380359935, 
			 "HOMO_LUMO_gap": 0.22372, 
			 "cosmo_polarized_energy": -11.03, 
			 "cosmo_cavitation_energy": 38.76, 
			 "cosmo_dispersion_energy": -25.81, 
			 "cosmo_repulsion_energy": 2.0, 
			 "cosmo_total_nonelectrostatic_energy": 14.96, 
			 "SMD_solvation_energy": 4.78 
		},
		"coords": [
			{
				"x": -0.1786321064,
				"y": 2.1265778662,
				"z": 0.5492470374,
				"element": "C" 
			},
			{
				"x": -1.0303262483,
				"y": 1.3152395113,
				"z": -0.3021078752,
				"element": "N" 
			},
			{
				"x": -1.4643800739,
				"y": 1.6609148244,
				"z": -1.5751186154,
				"element": "C" 
			},
			{
				"x": -1.0361769601,
				"y": 2.91380461,
				"z": -2.2720027252,
				"element": "C" 
			},
			{
				"x": -2.3065922919,
				"y": 0.6582205719,
				"z": -2.0098878496,
				"element": "C" 
			},
			{
				"x": -2.4007642465,
				"y": -0.3159093963,
				"z": -0.9776950611,
				"element": "C" 
			},
			{
				"x": -1.6075769045,
				"y": 0.107439563,
				"z": 0.068938474,
				"element": "C" 
			},
			{
				"x": -1.365057068,
				"y": -0.5146041934,
				"z": 1.4164151687,
				"element": "C" 
			},
			{
				"x": -1.6993122056,
				"y": -1.9399913119,
				"z": 1.4206406959,
				"element": "N" 
			},
			{
				"x": -0.7263328152,
				"y": -2.8213269505,
				"z": 0.7415823137,
				"element": "C" 
			},
			{
				"x": 0.7044893343,
				"y": -2.7456044542,
				"z": 1.2092839469,
				"element": "C" 
			},
			{
				"x": 1.2611517963,
				"y": -3.2430428392,
				"z": 2.3732610256,
				"element": "C" 
			},
			{
				"x": 2.6377552993,
				"y": -2.8980504694,
				"z": 2.3834576904,
				"element": "C" 
			},
			{
				"x": 2.9039100253,
				"y": -2.1972098391,
				"z": 1.2236233845,
				"element": "C" 
			},
			{
				"x": 4.1964894937,
				"y": -1.6258160076,
				"z": 0.7319800147,
				"element": "C" 
			},
			{
				"x": 1.7177817037,
				"y": -2.0919002514,
				"z": 0.5154253326,
				"element": "N" 
			},
			{
				"x": 1.6084772254,
				"y": -1.5294658314,
				"z": -0.8222772129,
				"element": "C" 
			},
			{
				"x": 0.6633114242,
				"y": 1.542422451,
				"z": 0.9335949459,
				"element": "H" 
			},
			{
				"x": 0.2218388768,
				"y": 2.9607150377,
				"z": -0.0271654166,
				"element": "H" 
			},
			{
				"x": -0.7316144484,
				"y": 2.5351101452,
				"z": 1.4035426851,
				"element": "H" 
			},
			{
				"x": -1.3289653902,
				"y": 3.8240618314,
				"z": -1.7321687371,
				"element": "H" 
			},
			{
				"x": -1.5108415089,
				"y": 2.9538548778,
				"z": -3.2554750088,
				"element": "H" 
			},
			{
				"x": 0.0490374111,
				"y": 2.9658126991,
				"z": -2.432907652,
				"element": "H" 
			},
			{
				"x": -2.7980225884,
				"y": 0.6343598502,
				"z": -2.973384382,
				"element": "H" 
			},
			{
				"x": -2.9843293801,
				"y": -1.2249220082,
				"z": -0.9769478973,
				"element": "H" 
			},
			{
				"x": -2.0029923482,
				"y": -0.0358565021,
				"z": 2.17424905,
				"element": "H" 
			},
			{
				"x": -0.323745766,
				"y": -0.3255156723,
				"z": 1.7352124727,
				"element": "H" 
			},
			{
				"x": -1.7745033417,
				"y": -2.2399936071,
				"z": 2.3886060088,
				"element": "H" 
			},
			{
				"x": -0.7937190818,
				"y": -2.6259846344,
				"z": -0.332000795,
				"element": "H" 
			},
			{
				"x": -1.0894607251,
				"y": -3.8442213374,
				"z": 0.8891464283,
				"element": "H" 
			},
			{
				"x": 0.725770494,
				"y": -3.7974013681,
				"z": 3.1333616332,
				"element": "H" 
			},
			{
				"x": 3.3644054975,
				"y": -3.1327160345,
				"z": 3.1497892977,
				"element": "H" 
			},
			{
				"x": 4.9818688286,
				"y": -1.8336590847,
				"z": 1.4628355704,
				"element": "H" 
			},
			{
				"x": 4.5160668113,
				"y": -2.0584232307,
				"z": -0.2250453649,
				"element": "H" 
			},
			{
				"x": 4.1570951818,
				"y": -0.5365128573,
				"z": 0.5969743255,
				"element": "H" 
			},
			{
				"x": 2.3416289963,
				"y": -0.7296172997,
				"z": -0.9432034163,
				"element": "H" 
			},
			{
				"x": 1.7938534144,
				"y": -2.2843885408,
				"z": -1.5967523623,
				"element": "H" 
			},
			{
				"x": 0.6162136851,
				"y": -1.1039001174,
				"z": -0.9776271306,
				"element": "H" 
			}
		],
		 "valence_orbital": [ 
			{
				"type": "occ",
				"energy": -0.22534,
				"method": "rhf"
			},
			{
				"type": "occ",
				"energy": -0.22136,
				"method": "rhf"
			},
			{
				"type": "occ",
				"energy": -0.2193,
				"method": "rhf"
			},
			{
				"type": "occ",
				"energy": -0.18678,
				"method": "rhf"
			},
			{
				"type": "occ",
				"energy": -0.1846,
				"method": "rhf"
			},
			{
				"type": "unocc",
				"energy": 0.03912,
				"method": "rhf"
			},
			{
				"type": "unocc",
				"energy": 0.04441,
				"method": "rhf"
			},
			{
				"type": "unocc",
				"energy": 0.0737,
				"method": "rhf"
			},
			{
				"type": "unocc",
				"energy": 0.08718,
				"method": "rhf"
			},
			{
				"type": "unocc",
				"energy": 0.09365,
				"method": "rhf"
			}
		],
		"cosmo_sigma_profile": { 
			"-0.025": 0.0,
			"-0.024": 0.0,
			"-0.023": 0.0,
			"-0.022": 0.0,
			"-0.021": 0.0,
			"-0.02": 0.0,
			"-0.019": 0.0,
			"-0.018": 0.0,
			"-0.017": 0.0,
			"-0.016": 0.0,
			"-0.015": 0.0,
			"-0.014": 0.0,
			"-0.013": 0.0,
			"-0.012": 0.0,
			"-0.011": 0.0,
			"-0.01": 0.425533731873,
			"-0.009": 1.20611803425,
			"-0.008": 1.26689686968,
			"-0.007": 1.64209885836,
			"-0.006": 1.88221238025,
			"-0.005": 14.6481145189,
			"-0.004": 37.8366786929,
			"-0.003": 40.2759583092,
			"-0.002": 42.3171566259,
			"-0.001": 30.3393746733,
			"0.0": 28.6393232275,
			"0.001": 17.6345094968,
			"0.002": 13.019561467,
			"0.003": 12.477675233,
			"0.004": 10.2105920301,
			"0.005": 8.11882654994,
			"0.006": 8.91061513189,
			"0.007": 9.26703600639,
			"0.008": 8.91087311459,
			"0.009": 7.09547242437,
			"0.01": 4.22840554937,
			"0.011": 0.803549491989,
			"0.012": 0.442956666336,
			"0.013": 0.710917133054,
			"0.014": 0.79580113166,
			"0.015": 0.50594895531,
			"0.016": 0.349693730163,
			"0.017": 0.155163036822,
			"0.018": 0.0,
			"0.019": 0.0,
			"0.02": 0.0,
			"0.021": 0.0,
			"0.022": 0.0,
			"0.023": 0.0,
			"0.024": 0.0,
			"0.025": 0.0
		}
	}
}
