{
	 "smiles": "COC1=NC2=C(C=C1)N=C(CCl)N2", 
	 "Tm": 425.15, 
	 "num_atms": 21, 
	 "gaussian": { 
		 "optdone": 1, 
		 "sigma_profile": "yes", 
		 "theory": "DFT", 
		 "functional": "B3LYP", 
		 "basiset": "6-31G**", 
		 "properties": { 
			 "R2extent": 4562.1768, 
			 "electric_dipole_moment_norm": 2.2080669238, 
			 "electric_quadrupole_moment_norm": 8.71279125367, 
			 "total_energy": -1009.35634164, 
			 "HOMO_LUMO_gap": 0.17816, 
			 "cosmo_polarized_energy": -12.18, 
			 "cosmo_cavitation_energy": 27.42, 
			 "cosmo_dispersion_energy": -20.7, 
			 "cosmo_repulsion_energy": 1.66, 
			 "cosmo_total_nonelectrostatic_energy": 8.38, 
			 "SMD_solvation_energy": 1.81 
		},
		"coords": [
			{
				"x": -1.5772908234,
				"y": 0.9304368943,
				"z": 2.8993815029,
				"element": "C" 
			},
			{
				"x": -1.8264114734,
				"y": 1.4733074273,
				"z": 1.60160993,
				"element": "O" 
			},
			{
				"x": -1.5933786231,
				"y": 0.6692246455,
				"z": 0.5410647554,
				"element": "C" 
			},
			{
				"x": -1.1545191559,
				"y": -0.5701489799,
				"z": 0.7457745561,
				"element": "N" 
			},
			{
				"x": -0.9635123887,
				"y": -1.2630137551,
				"z": -0.3788921545,
				"element": "C" 
			},
			{
				"x": -1.1681263225,
				"y": -0.8241843496,
				"z": -1.7032213121,
				"element": "C" 
			},
			{
				"x": -1.633796069,
				"y": 0.4882321292,
				"z": -1.8774545596,
				"element": "C" 
			},
			{
				"x": -1.8476978111,
				"y": 1.2400886173,
				"z": -0.735016091,
				"element": "C" 
			},
			{
				"x": -0.841292157,
				"y": -1.8255605766,
				"z": -2.6017947399,
				"element": "N" 
			},
			{
				"x": -0.4632248034,
				"y": -2.8363223095,
				"z": -1.8530234295,
				"element": "C" 
			},
			{
				"x": -0.0671075284,
				"y": -4.1626664748,
				"z": -2.3920469644,
				"element": "C" 
			},
			{
				"x": 1.5854048913,
				"y": -4.6893257686,
				"z": -1.8060119504,
				"element": "Cl" 
			},
			{
				"x": -0.5244058098,
				"y": -2.5632767314,
				"z": -0.4989618002,
				"element": "N" 
			},
			{
				"x": -2.2046413893,
				"y": 0.053965309,
				"z": 3.0879619797,
				"element": "H" 
			},
			{
				"x": -1.8227335908,
				"y": 1.7291893376,
				"z": 3.6004452999,
				"element": "H" 
			},
			{
				"x": -0.5289872629,
				"y": 0.6370919067,
				"z": 3.0101519045,
				"element": "H" 
			},
			{
				"x": -1.8152208234,
				"y": 0.8942281184,
				"z": -2.8674012503,
				"element": "H" 
			},
			{
				"x": -2.2050491406,
				"y": 2.2619641327,
				"z": -0.7792457585,
				"element": "H" 
			},
			{
				"x": -0.7465166813,
				"y": -4.9599361352,
				"z": -2.0840125345,
				"element": "H" 
			},
			{
				"x": -0.0297914766,
				"y": -4.1032182415,
				"z": -3.4778994817,
				"element": "H" 
			},
			{
				"x": -0.2027015606,
				"y": -3.1552751959,
				"z": 0.252492098,
				"element": "H" 
			}
		],
		 "valence_orbital": [ 
			{
				"type": "occ",
				"energy": -0.30706,
				"method": "rhf"
			},
			{
				"type": "occ",
				"energy": -0.30608,
				"method": "rhf"
			},
			{
				"type": "occ",
				"energy": -0.26508,
				"method": "rhf"
			},
			{
				"type": "occ",
				"energy": -0.25736,
				"method": "rhf"
			},
			{
				"type": "occ",
				"energy": -0.21746,
				"method": "rhf"
			},
			{
				"type": "unocc",
				"energy": -0.0393,
				"method": "rhf"
			},
			{
				"type": "unocc",
				"energy": -0.00193,
				"method": "rhf"
			},
			{
				"type": "unocc",
				"energy": 0.02357,
				"method": "rhf"
			},
			{
				"type": "unocc",
				"energy": 0.05393,
				"method": "rhf"
			},
			{
				"type": "unocc",
				"energy": 0.08017,
				"method": "rhf"
			}
		],
		"cosmo_sigma_profile": { 
			"-0.025": 0.0,
			"-0.024": 0.0,
			"-0.023": 0.0,
			"-0.022": 0.0,
			"-0.021": 0.0,
			"-0.02": 0.0,
			"-0.019": 0.0,
			"-0.018": 0.0,
			"-0.017": 0.311753101474,
			"-0.016": 0.985055466143,
			"-0.015": 1.13482413352,
			"-0.014": 0.506894974478,
			"-0.013": 0.861365242853,
			"-0.012": 1.34464006463,
			"-0.011": 1.42101279225,
			"-0.01": 1.16962531411,
			"-0.009": 4.02141545032,
			"-0.008": 4.87910277599,
			"-0.007": 7.6978503738,
			"-0.006": 9.13100973919,
			"-0.005": 13.8429673039,
			"-0.004": 13.2007252779,
			"-0.003": 13.4762446221,
			"-0.002": 11.2272355368,
			"-0.001": 10.0673560453,
			"0.0": 17.8972725376,
			"0.001": 19.0591257212,
			"0.002": 18.9424405507,
			"0.003": 15.1708060245,
			"0.004": 12.3613493708,
			"0.005": 11.2034231435,
			"0.006": 11.1892478265,
			"0.007": 3.5378945039,
			"0.008": 4.20421324226,
			"0.009": 3.15683614014,
			"0.01": 3.27037807686,
			"0.011": 1.36977971952,
			"0.012": 1.18607169024,
			"0.013": 1.01988305874,
			"0.014": 0.834801735512,
			"0.015": 1.00392206787,
			"0.016": 0.729220791927,
			"0.017": 0.119902130393,
			"0.018": 0.0,
			"0.019": 0.0,
			"0.02": 0.0,
			"0.021": 0.0,
			"0.022": 0.0,
			"0.023": 0.0,
			"0.024": 0.0,
			"0.025": 0.0
		}
	}
}
