{
	 "smiles": "FC1=CC=C(C=C1)C1=NN=C(CCl)O1", 
	 "Tm": 412.15, 
	 "num_atms": 20, 
	 "gaussian": { 
		 "optdone": 1, 
		 "sigma_profile": "yes", 
		 "theory": "DFT", 
		 "functional": "B3LYP", 
		 "basiset": "6-31G**", 
		 "properties": { 
			 "R2extent": 4557.1638, 
			 "electric_dipole_moment_norm": 2.67311233771, 
			 "electric_quadrupole_moment_norm": 11.102209708, 
			 "total_energy": -1091.30181801, 
			 "HOMO_LUMO_gap": 0.18285, 
			 "cosmo_polarized_energy": -11.12, 
			 "cosmo_cavitation_energy": 28.07, 
			 "cosmo_dispersion_energy": -20.55, 
			 "cosmo_repulsion_energy": 1.6, 
			 "cosmo_total_nonelectrostatic_energy": 9.12, 
			 "SMD_solvation_energy": 3.41 
		},
		"coords": [
			{
				"x": -0.8781531793,
				"y": 4.1069068744,
				"z": -2.5555990567,
				"element": "F" 
			},
			{
				"x": -0.619348773,
				"y": 2.988655197,
				"z": -1.8540150805,
				"element": "C" 
			},
			{
				"x": 0.6693921227,
				"y": 2.7791705934,
				"z": -1.3733626296,
				"element": "C" 
			},
			{
				"x": 0.9332775744,
				"y": 1.6210631533,
				"z": -0.6476911718,
				"element": "C" 
			},
			{
				"x": -0.0875752484,
				"y": 0.6873000606,
				"z": -0.4092755102,
				"element": "C" 
			},
			{
				"x": -1.3804441109,
				"y": 0.9245967707,
				"z": -0.9076920895,
				"element": "C" 
			},
			{
				"x": -1.6506676159,
				"y": 2.0787304105,
				"z": -1.6331252639,
				"element": "C" 
			},
			{
				"x": 0.1661660436,
				"y": -0.5311270761,
				"z": 0.3466414281,
				"element": "C" 
			},
			{
				"x": -0.662498765,
				"y": -1.4960416312,
				"z": 0.6333496477,
				"element": "N" 
			},
			{
				"x": 0.0564398813,
				"y": -2.4328345128,
				"z": 1.3650225878,
				"element": "N" 
			},
			{
				"x": 1.2616087476,
				"y": -1.9677069518,
				"z": 1.472883351,
				"element": "C" 
			},
			{
				"x": 2.408602923,
				"y": -2.5827123046,
				"z": 2.1738427753,
				"element": "C" 
			},
			{
				"x": 3.7007287828,
				"y": -3.1492079852,
				"z": 1.0202944196,
				"element": "Cl" 
			},
			{
				"x": 1.413122312,
				"y": -0.7621392366,
				"z": 0.8554274216,
				"element": "O" 
			},
			{
				"x": 1.4414421612,
				"y": 3.5143225567,
				"z": -1.5709937034,
				"element": "H" 
			},
			{
				"x": 1.9320522061,
				"y": 1.4379962911,
				"z": -0.2668566389,
				"element": "H" 
			},
			{
				"x": -2.1609181892,
				"y": 0.1958428474,
				"z": -0.7183210796,
				"element": "H" 
			},
			{
				"x": -2.6396166282,
				"y": 2.2838048037,
				"z": -2.0275950468,
				"element": "H" 
			},
			{
				"x": 2.0557551211,
				"y": -3.4533877882,
				"z": 2.7234772229,
				"element": "H" 
			},
			{
				"x": 2.8930346337,
				"y": -1.8767320724,
				"z": 2.849188417,
				"element": "H" 
			}
		],
		 "valence_orbital": [ 
			{
				"type": "occ",
				"energy": -0.31223,
				"method": "rhf"
			},
			{
				"type": "occ",
				"energy": -0.30742,
				"method": "rhf"
			},
			{
				"type": "occ",
				"energy": -0.28817,
				"method": "rhf"
			},
			{
				"type": "occ",
				"energy": -0.28012,
				"method": "rhf"
			},
			{
				"type": "occ",
				"energy": -0.24673,
				"method": "rhf"
			},
			{
				"type": "unocc",
				"energy": -0.06388,
				"method": "rhf"
			},
			{
				"type": "unocc",
				"energy": -0.03057,
				"method": "rhf"
			},
			{
				"type": "unocc",
				"energy": -0.02459,
				"method": "rhf"
			},
			{
				"type": "unocc",
				"energy": 0.03745,
				"method": "rhf"
			},
			{
				"type": "unocc",
				"energy": 0.05313,
				"method": "rhf"
			}
		],
		"cosmo_sigma_profile": { 
			"-0.025": 0.0,
			"-0.024": 0.0,
			"-0.023": 0.0,
			"-0.022": 0.0,
			"-0.021": 0.0,
			"-0.02": 0.0,
			"-0.019": 0.0,
			"-0.018": 0.0,
			"-0.017": 0.0,
			"-0.016": 0.0,
			"-0.015": 0.0,
			"-0.014": 0.0,
			"-0.013": 0.0,
			"-0.012": 0.0,
			"-0.011": 0.0568602016313,
			"-0.01": 3.57710757187,
			"-0.009": 4.36344549127,
			"-0.008": 7.60950686792,
			"-0.007": 9.97459465421,
			"-0.006": 11.4925062874,
			"-0.005": 11.3247376237,
			"-0.004": 10.2257074932,
			"-0.003": 11.3003771712,
			"-0.002": 13.6807771516,
			"-0.001": 17.0334704255,
			"0.0": 20.2398912851,
			"0.001": 20.7762892212,
			"0.002": 22.7879240849,
			"0.003": 15.0547594055,
			"0.004": 15.4128716241,
			"0.005": 11.3784415522,
			"0.006": 4.50832375753,
			"0.007": 1.96966033727,
			"0.008": 1.77410911311,
			"0.009": 2.18425666454,
			"0.01": 3.02257333369,
			"0.011": 3.17267886193,
			"0.012": 2.5881713436,
			"0.013": 2.42335098811,
			"0.014": 1.00292358741,
			"0.015": 0.131927353286,
			"0.016": 0.0,
			"0.017": 0.0,
			"0.018": 0.0,
			"0.019": 0.0,
			"0.02": 0.0,
			"0.021": 0.0,
			"0.022": 0.0,
			"0.023": 0.0,
			"0.024": 0.0,
			"0.025": 0.0
		}
	}
}
