{
	 "smiles": "ClC1=CC=C(C=C1)C(=O)C1=CC2=C(OCCO2)C=C1Br", 
	 "Tm": 403.15, 
	 "num_atms": 30, 
	 "gaussian": { 
		 "optdone": 1, 
		 "sigma_profile": "yes", 
		 "theory": "DFT", 
		 "functional": "B3LYP", 
		 "basiset": "6-31G**", 
		 "properties": { 
			 "R2extent": 9651.0389, 
			 "electric_dipole_moment_norm": 4.97119025687, 
			 "electric_quadrupole_moment_norm": 20.761379446, 
			 "total_energy": -3834.86738326, 
			 "HOMO_LUMO_gap": 0.15794, 
			 "cosmo_polarized_energy": -12.29, 
			 "cosmo_cavitation_energy": 38.47, 
			 "cosmo_dispersion_energy": -28.18, 
			 "cosmo_repulsion_energy": 2.16, 
			 "cosmo_total_nonelectrostatic_energy": 12.45, 
			 "SMD_solvation_energy": 5.91 
		},
		"coords": [
			{
				"x": -5.0542450505,
				"y": 4.3061738254,
				"z": -1.9168787357,
				"element": "Cl" 
			},
			{
				"x": -4.0099244276,
				"y": 3.1572090841,
				"z": -1.0990483726,
				"element": "C" 
			},
			{
				"x": -4.4862285426,
				"y": 2.4816698194,
				"z": 0.0275447877,
				"element": "C" 
			},
			{
				"x": -3.6505461231,
				"y": 1.5775074235,
				"z": 0.6727423472,
				"element": "C" 
			},
			{
				"x": -2.3544135623,
				"y": 1.3291674554,
				"z": 0.1950758058,
				"element": "C" 
			},
			{
				"x": -1.8991588503,
				"y": 2.0213086117,
				"z": -0.9358783711,
				"element": "C" 
			},
			{
				"x": -2.7203063581,
				"y": 2.94029103,
				"z": -1.5850555963,
				"element": "C" 
			},
			{
				"x": -1.4882560987,
				"y": 0.388587569,
				"z": 0.9699084136,
				"element": "C" 
			},
			{
				"x": -1.7876171152,
				"y": 0.0631865546,
				"z": 2.1107183088,
				"element": "O" 
			},
			{
				"x": -0.177869921,
				"y": -0.0895489305,
				"z": 0.3912408721,
				"element": "C" 
			},
			{
				"x": 0.9666390426,
				"y": 0.1511546799,
				"z": 1.1644054459,
				"element": "C" 
			},
			{
				"x": 2.227645687,
				"y": -0.2583476304,
				"z": 0.7468676158,
				"element": "C" 
			},
			{
				"x": 2.3630333089,
				"y": -0.9467247555,
				"z": -0.4727878786,
				"element": "C" 
			},
			{
				"x": 3.5784888465,
				"y": -1.3622346712,
				"z": -0.9408047031,
				"element": "O" 
			},
			{
				"x": 4.696325011,
				"y": -0.7677244305,
				"z": -0.2734612837,
				"element": "C" 
			},
			{
				"x": 4.4664062106,
				"y": -0.7558837733,
				"z": 1.2286684326,
				"element": "C" 
			},
			{
				"x": 3.3087482743,
				"y": 0.0213241055,
				"z": 1.5418071883,
				"element": "O" 
			},
			{
				"x": 1.2296699542,
				"y": -1.2393303803,
				"z": -1.2307618426,
				"element": "C" 
			},
			{
				"x": -0.0240699317,
				"y": -0.8142476605,
				"z": -0.8000067824,
				"element": "C" 
			},
			{
				"x": -1.5351227668,
				"y": -1.3411485902,
				"z": -1.8524251059,
				"element": "Br" 
			},
			{
				"x": -5.4914698226,
				"y": 2.6688875732,
				"z": 0.3882708777,
				"element": "H" 
			},
			{
				"x": -3.984827984,
				"y": 1.0486610799,
				"z": 1.5588488115,
				"element": "H" 
			},
			{
				"x": -0.8951090014,
				"y": 1.8499850985,
				"z": -1.3088289469,
				"element": "H" 
			},
			{
				"x": -2.3693330976,
				"y": 3.4816407743,
				"z": -2.4563142754,
				"element": "H" 
			},
			{
				"x": 0.8733458786,
				"y": 0.6629740572,
				"z": 2.1161286631,
				"element": "H" 
			},
			{
				"x": 5.5683501151,
				"y": -1.3698645392,
				"z": -0.5391643068,
				"element": "H" 
			},
			{
				"x": 4.842469338,
				"y": 0.2570556922,
				"z": -0.6395411413,
				"element": "H" 
			},
			{
				"x": 4.3373525715,
				"y": -1.7821183737,
				"z": 1.5979136606,
				"element": "H" 
			},
			{
				"x": 5.3033691617,
				"y": -0.2900129154,
				"z": 1.7540450382,
				"element": "H" 
			},
			{
				"x": 1.3454552533,
				"y": -1.8032977832,
				"z": -2.1484289265,
				"element": "H" 
			}
		],
		 "valence_orbital": [ 
			{
				"type": "occ",
				"energy": -0.26926,
				"method": "rhf"
			},
			{
				"type": "occ",
				"energy": -0.26038,
				"method": "rhf"
			},
			{
				"type": "occ",
				"energy": -0.25107,
				"method": "rhf"
			},
			{
				"type": "occ",
				"energy": -0.24586,
				"method": "rhf"
			},
			{
				"type": "occ",
				"energy": -0.22518,
				"method": "rhf"
			},
			{
				"type": "unocc",
				"energy": -0.06724,
				"method": "rhf"
			},
			{
				"type": "unocc",
				"energy": -0.02126,
				"method": "rhf"
			},
			{
				"type": "unocc",
				"energy": -0.01841,
				"method": "rhf"
			},
			{
				"type": "unocc",
				"energy": -0.01235,
				"method": "rhf"
			},
			{
				"type": "unocc",
				"energy": 0.00361,
				"method": "rhf"
			}
		],
		"cosmo_sigma_profile": { 
			"-0.025": 0.0,
			"-0.024": 0.0,
			"-0.023": 0.0,
			"-0.022": 0.0,
			"-0.021": 0.0,
			"-0.02": 0.0,
			"-0.019": 0.0,
			"-0.018": 0.0,
			"-0.017": 0.0,
			"-0.016": 0.0,
			"-0.015": 0.0,
			"-0.014": 0.0,
			"-0.013": 0.0,
			"-0.012": 0.0,
			"-0.011": 0.0,
			"-0.01": 0.0,
			"-0.009": 0.0,
			"-0.008": 4.55501786213,
			"-0.007": 17.3789291483,
			"-0.006": 22.6994515303,
			"-0.005": 18.4944880149,
			"-0.004": 19.0936444166,
			"-0.003": 16.6232919319,
			"-0.002": 15.5842514697,
			"-0.001": 18.4448906986,
			"0.0": 25.184877207,
			"0.001": 34.6231015467,
			"0.002": 35.7255688458,
			"0.003": 26.5858677478,
			"0.004": 24.3821704109,
			"0.005": 7.33337033102,
			"0.006": 4.35425094729,
			"0.007": 3.78509032913,
			"0.008": 4.48249232747,
			"0.009": 4.94540721199,
			"0.01": 3.52430490438,
			"0.011": 3.90162560218,
			"0.012": 2.16897931452,
			"0.013": 0.209527051442,
			"0.014": 0.0,
			"0.015": 0.0,
			"0.016": 0.0,
			"0.017": 0.0,
			"0.018": 0.0,
			"0.019": 0.0,
			"0.02": 0.0,
			"0.021": 0.0,
			"0.022": 0.0,
			"0.023": 0.0,
			"0.024": 0.0,
			"0.025": 0.0
		}
	}
}
