{
	 "smiles": "CC1=CC=CC=N1", 
	 "Tm": 204.85, 
	 "num_atms": 14, 
	 "gaussian": { 
		 "optdone": 1, 
		 "sigma_profile": "yes", 
		 "theory": "DFT", 
		 "functional": "B3LYP", 
		 "basiset": "6-31G**", 
		 "properties": { 
			 "R2extent": 783.8307, 
			 "electric_dipole_moment_norm": 1.87403558131, 
			 "electric_quadrupole_moment_norm": 5.7194401518, 
			 "total_energy": -287.609713949, 
			 "HOMO_LUMO_gap": 0.23054, 
			 "cosmo_polarized_energy": -5.46, 
			 "cosmo_cavitation_energy": 17.44, 
			 "cosmo_dispersion_energy": -13.17, 
			 "cosmo_repulsion_energy": 1.11, 
			 "cosmo_total_nonelectrostatic_energy": 5.38, 
			 "SMD_solvation_energy": 1.92 
		},
		"coords": [
			{
				"x": 1.7811899826,
				"y": 0.2996967871,
				"z": -0.1921573282,
				"element": "C" 
			},
			{
				"x": 0.2732684621,
				"y": 0.2984103941,
				"z": -0.2705000685,
				"element": "C" 
			},
			{
				"x": -0.3986166238,
				"y": -0.3896938579,
				"z": -1.2930037324,
				"element": "C" 
			},
			{
				"x": -1.7893057196,
				"y": -0.3662734455,
				"z": -1.3298603385,
				"element": "C" 
			},
			{
				"x": -2.475313088,
				"y": 0.3446377555,
				"z": -0.3434462514,
				"element": "C" 
			},
			{
				"x": -1.7245390031,
				"y": 0.9972379516,
				"z": 0.6320797016,
				"element": "C" 
			},
			{
				"x": -0.3853354586,
				"y": 0.9823728496,
				"z": 0.6786317089,
				"element": "N" 
			},
			{
				"x": 2.1755918486,
				"y": -0.7178456418,
				"z": -0.0893253534,
				"element": "H" 
			},
			{
				"x": 2.1015156529,
				"y": 0.8880688507,
				"z": 0.6689463106,
				"element": "H" 
			},
			{
				"x": 2.2267382067,
				"y": 0.7290160916,
				"z": -1.0969719551,
				"element": "H" 
			},
			{
				"x": 0.1677779059,
				"y": -0.932869481,
				"z": -2.0445076001,
				"element": "H" 
			},
			{
				"x": -2.3289153634,
				"y": -0.8921605251,
				"z": -2.112604164,
				"element": "H" 
			},
			{
				"x": -3.5596495048,
				"y": 0.3926664589,
				"z": -0.3294230494,
				"element": "H" 
			},
			{
				"x": -2.2195072974,
				"y": 1.5632358121,
				"z": 1.4200421198,
				"element": "H" 
			}
		],
		 "valence_orbital": [ 
			{
				"type": "occ",
				"energy": -0.37254,
				"method": "rhf"
			},
			{
				"type": "occ",
				"energy": -0.35513,
				"method": "rhf"
			},
			{
				"type": "occ",
				"energy": -0.2812,
				"method": "rhf"
			},
			{
				"type": "occ",
				"energy": -0.24981,
				"method": "rhf"
			},
			{
				"type": "occ",
				"energy": -0.24778,
				"method": "rhf"
			},
			{
				"type": "unocc",
				"energy": -0.01724,
				"method": "rhf"
			},
			{
				"type": "unocc",
				"energy": -0.00722,
				"method": "rhf"
			},
			{
				"type": "unocc",
				"energy": 0.09855,
				"method": "rhf"
			},
			{
				"type": "unocc",
				"energy": 0.12601,
				"method": "rhf"
			},
			{
				"type": "unocc",
				"energy": 0.1361,
				"method": "rhf"
			}
		],
		"cosmo_sigma_profile": { 
			"-0.025": 0.0,
			"-0.024": 0.0,
			"-0.023": 0.0,
			"-0.022": 0.0,
			"-0.021": 0.0,
			"-0.02": 0.0,
			"-0.019": 0.0,
			"-0.018": 0.0,
			"-0.017": 0.0,
			"-0.016": 0.0,
			"-0.015": 0.0,
			"-0.014": 0.0,
			"-0.013": 0.0,
			"-0.012": 0.0,
			"-0.011": 0.0,
			"-0.01": 0.0,
			"-0.009": 0.0,
			"-0.008": 0.0,
			"-0.007": 1.72189183478,
			"-0.006": 7.71530641818,
			"-0.005": 10.6396302337,
			"-0.004": 14.4396854422,
			"-0.003": 13.0717615835,
			"-0.002": 11.6242722521,
			"-0.001": 11.6482470981,
			"0.0": 11.854304685,
			"0.001": 10.2661700463,
			"0.002": 9.06553230091,
			"0.003": 13.702112543,
			"0.004": 8.44058044676,
			"0.005": 2.4133981651,
			"0.006": 1.7863749907,
			"0.007": 1.4493155992,
			"0.008": 1.27748314923,
			"0.009": 1.36985347528,
			"0.01": 1.6019616502,
			"0.011": 0.651680893307,
			"0.012": 0.694489644036,
			"0.013": 0.980874388807,
			"0.014": 0.695943247009,
			"0.015": 0.869505382079,
			"0.016": 0.922383919356,
			"0.017": 0.175834720216,
			"0.018": 0.0,
			"0.019": 0.0,
			"0.02": 0.0,
			"0.021": 0.0,
			"0.022": 0.0,
			"0.023": 0.0,
			"0.024": 0.0,
			"0.025": 0.0
		}
	}
}
