{
	 "smiles": "COC1=C(C2=NC3=C(C=CC=C3)N=C2C2=C1C=CC=C2)C(C)(C)C(C)C", 
	 "Tm": 361.75, 
	 "num_atms": 50, 
	 "gaussian": { 
		 "optdone": 1, 
		 "sigma_profile": "yes", 
		 "theory": "DFT", 
		 "functional": "B3LYP", 
		 "basiset": "6-31G**", 
		 "properties": { 
			 "R2extent": 9353.9172, 
			 "electric_dipole_moment_norm": 1.27672702642, 
			 "electric_quadrupole_moment_norm": 16.0508465447, 
			 "total_energy": -1075.64972657, 
			 "HOMO_LUMO_gap": 0.13302, 
			 "cosmo_polarized_energy": -7.6, 
			 "cosmo_cavitation_energy": 47.91, 
			 "cosmo_dispersion_energy": -33.25, 
			 "cosmo_repulsion_energy": 2.43, 
			 "cosmo_total_nonelectrostatic_energy": 17.09, 
			 "SMD_solvation_energy": 6.88 
		},
		"coords": [
			{
				"x": 3.8265350037,
				"y": 0.8031961771,
				"z": 1.2015281535,
				"element": "C" 
			},
			{
				"x": 2.9681941956,
				"y": -0.3170222644,
				"z": 0.9696167294,
				"element": "O" 
			},
			{
				"x": 1.6192959954,
				"y": -0.0559526863,
				"z": 1.0974158668,
				"element": "C" 
			},
			{
				"x": 0.8002265338,
				"y": 0.1336793172,
				"z": 0.0050813293,
				"element": "C" 
			},
			{
				"x": -0.597795878,
				"y": 0.4898464473,
				"z": 0.3137822031,
				"element": "C" 
			},
			{
				"x": -1.4425764258,
				"y": 0.7644848381,
				"z": -0.6824985019,
				"element": "N" 
			},
			{
				"x": -2.7087036681,
				"y": 1.130190758,
				"z": -0.399203256,
				"element": "C" 
			},
			{
				"x": -3.1615566872,
				"y": 1.2249192541,
				"z": 0.9552769343,
				"element": "C" 
			},
			{
				"x": -4.5038014199,
				"y": 1.6159402323,
				"z": 1.2212894758,
				"element": "C" 
			},
			{
				"x": -5.3530929218,
				"y": 1.8975176498,
				"z": 0.1787430894,
				"element": "C" 
			},
			{
				"x": -4.9050362895,
				"y": 1.8022905299,
				"z": -1.169386129,
				"element": "C" 
			},
			{
				"x": -3.614719237,
				"y": 1.4280513551,
				"z": -1.4570864151,
				"element": "C" 
			},
			{
				"x": -2.3226904114,
				"y": 0.9432271811,
				"z": 1.9716985485,
				"element": "N" 
			},
			{
				"x": -1.075892153,
				"y": 0.5848612235,
				"z": 1.6815090159,
				"element": "C" 
			},
			{
				"x": -0.1877462073,
				"y": 0.2594728624,
				"z": 2.7820952364,
				"element": "C" 
			},
			{
				"x": 1.1486385716,
				"y": -0.0763534556,
				"z": 2.4798703511,
				"element": "C" 
			},
			{
				"x": 2.0054673038,
				"y": -0.4621065832,
				"z": 3.5347895832,
				"element": "C" 
			},
			{
				"x": 1.5512538366,
				"y": -0.4761323391,
				"z": 4.8438586069,
				"element": "C" 
			},
			{
				"x": 0.2283292891,
				"y": -0.1064273086,
				"z": 5.1406806448,
				"element": "C" 
			},
			{
				"x": -0.6336995805,
				"y": 0.2509966558,
				"z": 4.117710668,
				"element": "C" 
			},
			{
				"x": 1.2295359692,
				"y": -0.0422669248,
				"z": -1.4878208937,
				"element": "C" 
			},
			{
				"x": 0.3178511209,
				"y": -1.1498133299,
				"z": -2.0963185164,
				"element": "C" 
			},
			{
				"x": 2.6723941045,
				"y": -0.5688292139,
				"z": -1.684593548,
				"element": "C" 
			},
			{
				"x": 1.0526383952,
				"y": 1.3171414996,
				"z": -2.2757554487,
				"element": "C" 
			},
			{
				"x": 1.7986300244,
				"y": 2.4965857173,
				"z": -1.6304387543,
				"element": "C" 
			},
			{
				"x": 1.434968863,
				"y": 1.2301252552,
				"z": -3.7648812923,
				"element": "C" 
			},
			{
				"x": 4.8481735925,
				"y": 0.420004575,
				"z": 1.1567981368,
				"element": "H" 
			},
			{
				"x": 3.691179184,
				"y": 1.5702145303,
				"z": 0.4313583793,
				"element": "H" 
			},
			{
				"x": 3.6498058309,
				"y": 1.2513432561,
				"z": 2.186232149,
				"element": "H" 
			},
			{
				"x": -4.819753796,
				"y": 1.6798849918,
				"z": 2.2576494583,
				"element": "H" 
			},
			{
				"x": -6.3781810517,
				"y": 2.1960027487,
				"z": 0.3777587316,
				"element": "H" 
			},
			{
				"x": -5.5965207634,
				"y": 2.0295992786,
				"z": -1.9754848403,
				"element": "H" 
			},
			{
				"x": -3.2527337646,
				"y": 1.3494233616,
				"z": -2.4772938872,
				"element": "H" 
			},
			{
				"x": 3.0163468164,
				"y": -0.7742733833,
				"z": 3.3031643241,
				"element": "H" 
			},
			{
				"x": 2.2213974588,
				"y": -0.7815963204,
				"z": 5.6423988341,
				"element": "H" 
			},
			{
				"x": -0.1211371759,
				"y": -0.114234201,
				"z": 6.1689579263,
				"element": "H" 
			},
			{
				"x": -1.6647794543,
				"y": 0.5210235982,
				"z": 4.3144243113,
				"element": "H" 
			},
			{
				"x": -0.7230578282,
				"y": -0.8383108889,
				"z": -2.1619744281,
				"element": "H" 
			},
			{
				"x": 0.6662019239,
				"y": -1.4177311222,
				"z": -3.0978804965,
				"element": "H" 
			},
			{
				"x": 0.371924187,
				"y": -2.0559022982,
				"z": -1.4831490732,
				"element": "H" 
			},
			{
				"x": 2.8095754418,
				"y": -0.797250555,
				"z": -2.7452714133,
				"element": "H" 
			},
			{
				"x": 2.8473939831,
				"y": -1.4878097359,
				"z": -1.1243226625,
				"element": "H" 
			},
			{
				"x": 3.4454483653,
				"y": 0.1463396567,
				"z": -1.4018236589,
				"element": "H" 
			},
			{
				"x": -0.0133811447,
				"y": 1.5472125996,
				"z": -2.2342970401,
				"element": "H" 
			},
			{
				"x": 2.8866802022,
				"y": 2.3673889194,
				"z": -1.6754714433,
				"element": "H" 
			},
			{
				"x": 1.5658335269,
				"y": 3.4261077799,
				"z": -2.1617042909,
				"element": "H" 
			},
			{
				"x": 1.5168352594,
				"y": 2.6378951517,
				"z": -0.5826812632,
				"element": "H" 
			},
			{
				"x": 0.9241258265,
				"y": 0.4136404813,
				"z": -4.2830553257,
				"element": "H" 
			},
			{
				"x": 1.1498678189,
				"y": 2.1607716464,
				"z": -4.2682011023,
				"element": "H" 
			},
			{
				"x": 2.512607234,
				"y": 1.1028330818,
				"z": -3.9130950059,
				"element": "H" 
			}
		],
		 "valence_orbital": [ 
			{
				"type": "occ",
				"energy": -0.26672,
				"method": "rhf"
			},
			{
				"type": "occ",
				"energy": -0.25293,
				"method": "rhf"
			},
			{
				"type": "occ",
				"energy": -0.23571,
				"method": "rhf"
			},
			{
				"type": "occ",
				"energy": -0.22946,
				"method": "rhf"
			},
			{
				"type": "occ",
				"energy": -0.21454,
				"method": "rhf"
			},
			{
				"type": "unocc",
				"energy": -0.08152,
				"method": "rhf"
			},
			{
				"type": "unocc",
				"energy": -0.04166,
				"method": "rhf"
			},
			{
				"type": "unocc",
				"energy": -0.01364,
				"method": "rhf"
			},
			{
				"type": "unocc",
				"energy": 0.00623,
				"method": "rhf"
			},
			{
				"type": "unocc",
				"energy": 0.02146,
				"method": "rhf"
			}
		],
		"cosmo_sigma_profile": { 
			"-0.025": 0.0,
			"-0.024": 0.0,
			"-0.023": 0.0,
			"-0.022": 0.0,
			"-0.021": 0.0,
			"-0.02": 0.0,
			"-0.019": 0.0,
			"-0.018": 0.0,
			"-0.017": 0.0,
			"-0.016": 0.0,
			"-0.015": 0.0,
			"-0.014": 0.0,
			"-0.013": 0.0,
			"-0.012": 0.0,
			"-0.011": 0.0,
			"-0.01": 0.0,
			"-0.009": 0.0,
			"-0.008": 0.0,
			"-0.007": 1.96800309244,
			"-0.006": 12.8196235247,
			"-0.005": 18.0660296581,
			"-0.004": 23.5263626784,
			"-0.003": 26.3367256905,
			"-0.002": 39.8625191702,
			"-0.001": 42.882161733,
			"0.0": 38.664561821,
			"0.001": 46.0597331695,
			"0.002": 50.7246481792,
			"0.003": 35.8426874087,
			"0.004": 22.8195862639,
			"0.005": 7.68853601774,
			"0.006": 3.33095010129,
			"0.007": 3.11059671808,
			"0.008": 2.08915731899,
			"0.009": 2.51863322996,
			"0.01": 1.02997115137,
			"0.011": 0.377291688007,
			"0.012": 0.0,
			"0.013": 0.0,
			"0.014": 0.0,
			"0.015": 0.0,
			"0.016": 0.0,
			"0.017": 0.0,
			"0.018": 0.0,
			"0.019": 0.0,
			"0.02": 0.0,
			"0.021": 0.0,
			"0.022": 0.0,
			"0.023": 0.0,
			"0.024": 0.0,
			"0.025": 0.0
		}
	}
}
