{
	 "smiles": "NC(=O)CCC1=C(C=C(C=C1)[N+]([O-])=O)[N+]([O-])=O", 
	 "Tm": 389.15, 
	 "num_atms": 26, 
	 "gaussian": { 
		 "optdone": 1, 
		 "sigma_profile": "yes", 
		 "theory": "DFT", 
		 "functional": "B3LYP", 
		 "basiset": "6-31G**", 
		 "properties": { 
			 "R2extent": 4685.5594, 
			 "electric_dipole_moment_norm": 5.45419475817, 
			 "electric_quadrupole_moment_norm": 24.8843012496, 
			 "total_energy": -888.574688927, 
			 "HOMO_LUMO_gap": 0.16119, 
			 "cosmo_polarized_energy": -18.4, 
			 "cosmo_cavitation_energy": 31.71, 
			 "cosmo_dispersion_energy": -22.69, 
			 "cosmo_repulsion_energy": 1.78, 
			 "cosmo_total_nonelectrostatic_energy": 10.8, 
			 "SMD_solvation_energy": 10.21 
		},
		"coords": [
			{
				"x": -3.5771379668,
				"y": 1.6333025835,
				"z": -0.8608237882,
				"element": "N" 
			},
			{
				"x": -2.2562865091,
				"y": 1.7741474587,
				"z": -1.1671583238,
				"element": "C" 
			},
			{
				"x": -1.5967815679,
				"y": 2.7333966574,
				"z": -0.7821513025,
				"element": "O" 
			},
			{
				"x": -1.678383083,
				"y": 0.665883653,
				"z": -2.0479883106,
				"element": "C" 
			},
			{
				"x": -0.1429505713,
				"y": 0.5805341594,
				"z": -1.9698880863,
				"element": "C" 
			},
			{
				"x": 0.3770047903,
				"y": -0.0049788967,
				"z": -0.6719696641,
				"element": "C" 
			},
			{
				"x": 0.6444875598,
				"y": -1.3707658385,
				"z": -0.442945157,
				"element": "C" 
			},
			{
				"x": 1.1763492305,
				"y": -1.8445568192,
				"z": 0.7551440561,
				"element": "C" 
			},
			{
				"x": 1.4183189901,
				"y": -0.9333447367,
				"z": 1.7709039618,
				"element": "C" 
			},
			{
				"x": 1.1636698045,
				"y": 0.427045121,
				"z": 1.6079355577,
				"element": "C" 
			},
			{
				"x": 0.658443072,
				"y": 0.8722028296,
				"z": 0.3921483515,
				"element": "C" 
			},
			{
				"x": 1.9607103678,
				"y": -1.4216284397,
				"z": 3.0500163826,
				"element": "N" 
			},
			{
				"x": 2.1792273286,
				"y": -0.5861769734,
				"z": 3.9253745918,
				"element": "O" 
			},
			{
				"x": 2.1582751184,
				"y": -2.6298418851,
				"z": 3.1595750434,
				"element": "O" 
			},
			{
				"x": 0.3836972779,
				"y": -2.4025882921,
				"z": -1.4663347612,
				"element": "N" 
			},
			{
				"x": -0.4921387198,
				"y": -2.1811006173,
				"z": -2.3049425402,
				"element": "O" 
			},
			{
				"x": 1.0446442505,
				"y": -3.4361092558,
				"z": -1.4088893674,
				"element": "O" 
			},
			{
				"x": -4.0299207854,
				"y": 2.3757513827,
				"z": -0.3492372849,
				"element": "H" 
			},
			{
				"x": -4.1338758914,
				"y": 0.8685867588,
				"z": -1.2064836513,
				"element": "H" 
			},
			{
				"x": -1.9606748601,
				"y": 0.8972939515,
				"z": -3.0834053262,
				"element": "H" 
			},
			{
				"x": -2.1294637772,
				"y": -0.3021818903,
				"z": -1.8132573303,
				"element": "H" 
			},
			{
				"x": 0.213618129,
				"y": -0.0040766051,
				"z": -2.8179718442,
				"element": "H" 
			},
			{
				"x": 0.2517748048,
				"y": 1.5957485359,
				"z": -2.0603123865,
				"element": "H" 
			},
			{
				"x": 1.3918191781,
				"y": -2.8957752067,
				"z": 0.8876281229,
				"element": "H" 
			},
			{
				"x": 1.3673425625,
				"y": 1.1102501088,
				"z": 2.4230893626,
				"element": "H" 
			},
			{
				"x": 0.446631267,
				"y": 1.9254822561,
				"z": 0.2465436944,
				"element": "H" 
			}
		],
		 "valence_orbital": [ 
			{
				"type": "occ",
				"energy": -0.30184,
				"method": "rhf"
			},
			{
				"type": "occ",
				"energy": -0.29326,
				"method": "rhf"
			},
			{
				"type": "occ",
				"energy": -0.29207,
				"method": "rhf"
			},
			{
				"type": "occ",
				"energy": -0.28343,
				"method": "rhf"
			},
			{
				"type": "occ",
				"energy": -0.26676,
				"method": "rhf"
			},
			{
				"type": "unocc",
				"energy": -0.10557,
				"method": "rhf"
			},
			{
				"type": "unocc",
				"energy": -0.09719,
				"method": "rhf"
			},
			{
				"type": "unocc",
				"energy": -0.03,
				"method": "rhf"
			},
			{
				"type": "unocc",
				"energy": -0.00936,
				"method": "rhf"
			},
			{
				"type": "unocc",
				"energy": 0.01129,
				"method": "rhf"
			}
		],
		"cosmo_sigma_profile": { 
			"-0.025": 0.0,
			"-0.024": 0.0,
			"-0.023": 0.0,
			"-0.022": 0.0,
			"-0.021": 0.0,
			"-0.02": 0.0,
			"-0.019": 0.0,
			"-0.018": 0.0,
			"-0.017": 0.0,
			"-0.016": 0.0,
			"-0.015": 0.250513097136,
			"-0.014": 1.95346482299,
			"-0.013": 2.57576461765,
			"-0.012": 2.13339319527,
			"-0.011": 2.40588270907,
			"-0.01": 3.13913515086,
			"-0.009": 3.39499121411,
			"-0.008": 4.99292661295,
			"-0.007": 9.36560028385,
			"-0.006": 11.9775901967,
			"-0.005": 15.3583339806,
			"-0.004": 18.5610592277,
			"-0.003": 20.6700950117,
			"-0.002": 24.8137735481,
			"-0.001": 15.3810259592,
			"0.0": 12.0471157114,
			"0.001": 9.38321965245,
			"0.002": 8.00189297044,
			"0.003": 7.95409042033,
			"0.004": 9.09251306189,
			"0.005": 8.54407296707,
			"0.006": 11.2537155298,
			"0.007": 17.7629792417,
			"0.008": 11.1414135804,
			"0.009": 8.66624652611,
			"0.01": 2.79299227034,
			"0.011": 1.27585815444,
			"0.012": 2.04001712582,
			"0.013": 2.69414535708,
			"0.014": 2.65917589468,
			"0.015": 0.425124631172,
			"0.016": 0.0,
			"0.017": 0.0,
			"0.018": 0.0,
			"0.019": 0.0,
			"0.02": 0.0,
			"0.021": 0.0,
			"0.022": 0.0,
			"0.023": 0.0,
			"0.024": 0.0,
			"0.025": 0.0
		}
	}
}
