{
	 "smiles": "CCN(CC)CCC1(C(=O)OC2=C1C=CC=C2)C1=CC=CC=C1", 
	 "Tm": 316.55, 
	 "num_atms": 46, 
	 "gaussian": { 
		 "optdone": 1, 
		 "sigma_profile": "yes", 
		 "theory": "DFT", 
		 "functional": "B3LYP", 
		 "basiset": "6-31G**", 
		 "properties": { 
			 "R2extent": 7671.7277, 
			 "electric_dipole_moment_norm": 3.79119125738, 
			 "electric_quadrupole_moment_norm": 17.5118501761, 
			 "total_energy": -981.190896602, 
			 "HOMO_LUMO_gap": 0.17064, 
			 "cosmo_polarized_energy": -10.74, 
			 "cosmo_cavitation_energy": 46.26, 
			 "cosmo_dispersion_energy": -30.71, 
			 "cosmo_repulsion_energy": 2.36, 
			 "cosmo_total_nonelectrostatic_energy": 17.91, 
			 "SMD_solvation_energy": 6.78 
		},
		"coords": [
			{
				"x": -0.806029734,
				"y": -2.3141969329,
				"z": -3.72850064,
				"element": "C" 
			},
			{
				"x": -1.624517751,
				"y": -2.5930743123,
				"z": -2.4528270591,
				"element": "C" 
			},
			{
				"x": -1.0183691681,
				"y": -2.2847606331,
				"z": -1.1603592844,
				"element": "N" 
			},
			{
				"x": -0.0095908902,
				"y": -3.2217393651,
				"z": -0.6633727885,
				"element": "C" 
			},
			{
				"x": 1.4524068384,
				"y": -3.0258064278,
				"z": -1.1093996624,
				"element": "C" 
			},
			{
				"x": -0.770533741,
				"y": -0.8671798837,
				"z": -0.9202856105,
				"element": "C" 
			},
			{
				"x": -0.8835897799,
				"y": -0.5176743383,
				"z": 0.5709115232,
				"element": "C" 
			},
			{
				"x": -0.5610939808,
				"y": 0.9711805017,
				"z": 0.9261045293,
				"element": "C" 
			},
			{
				"x": -0.7336070735,
				"y": 1.0856127836,
				"z": 2.4664686408,
				"element": "C" 
			},
			{
				"x": -0.1455312438,
				"y": 0.4935083202,
				"z": 3.3287115939,
				"element": "O" 
			},
			{
				"x": -1.7402898016,
				"y": 1.9842626036,
				"z": 2.7653632879,
				"element": "O" 
			},
			{
				"x": -2.2680448491,
				"y": 2.4628064846,
				"z": 1.5792687393,
				"element": "C" 
			},
			{
				"x": -1.6335016318,
				"y": 1.9347733407,
				"z": 0.4542387999,
				"element": "C" 
			},
			{
				"x": -2.0784664908,
				"y": 2.3300392381,
				"z": -0.8063231512,
				"element": "C" 
			},
			{
				"x": -3.1404398133,
				"y": 3.2389249459,
				"z": -0.9038012427,
				"element": "C" 
			},
			{
				"x": -3.7522203165,
				"y": 3.7474527583,
				"z": 0.244997573,
				"element": "C" 
			},
			{
				"x": -3.3198662949,
				"y": 3.3624443432,
				"z": 1.518946337,
				"element": "C" 
			},
			{
				"x": 0.8875508329,
				"y": 1.3499592075,
				"z": 0.5591970171,
				"element": "C" 
			},
			{
				"x": 1.1896568868,
				"y": 2.4462673735,
				"z": -0.2578524441,
				"element": "C" 
			},
			{
				"x": 2.5136942619,
				"y": 2.7578039982,
				"z": -0.5778071197,
				"element": "C" 
			},
			{
				"x": 3.5601857112,
				"y": 1.9845377389,
				"z": -0.0791802671,
				"element": "C" 
			},
			{
				"x": 3.2719716211,
				"y": 0.9002626842,
				"z": 0.7523514367,
				"element": "C" 
			},
			{
				"x": 1.9512861341,
				"y": 0.5866826266,
				"z": 1.0702217292,
				"element": "C" 
			},
			{
				"x": -1.4219202672,
				"y": -2.4979093314,
				"z": -4.6165174094,
				"element": "H" 
			},
			{
				"x": -0.4685447999,
				"y": -1.2730191402,
				"z": -3.7696760147,
				"element": "H" 
			},
			{
				"x": 0.0761613811,
				"y": -2.9567341225,
				"z": -3.7993162571,
				"element": "H" 
			},
			{
				"x": -1.9124593197,
				"y": -3.651685377,
				"z": -2.4372320232,
				"element": "H" 
			},
			{
				"x": -2.5627048844,
				"y": -2.0245842963,
				"z": -2.5145793527,
				"element": "H" 
			},
			{
				"x": -0.3426203592,
				"y": -4.2265161542,
				"z": -0.9481780727,
				"element": "H" 
			},
			{
				"x": -0.0322787966,
				"y": -3.2052238426,
				"z": 0.4345124621,
				"element": "H" 
			},
			{
				"x": 1.8457192125,
				"y": -2.0526506077,
				"z": -0.798264327,
				"element": "H" 
			},
			{
				"x": 1.5710314208,
				"y": -3.1045833509,
				"z": -2.1934917285,
				"element": "H" 
			},
			{
				"x": 2.0822404389,
				"y": -3.7941661589,
				"z": -0.6468032464,
				"element": "H" 
			},
			{
				"x": 0.2019112994,
				"y": -0.5189888371,
				"z": -1.3060906496,
				"element": "H" 
			},
			{
				"x": -1.5380747471,
				"y": -0.3115888466,
				"z": -1.4687713832,
				"element": "H" 
			},
			{
				"x": -1.8984575569,
				"y": -0.7536884857,
				"z": 0.9096331922,
				"element": "H" 
			},
			{
				"x": -0.2069312813,
				"y": -1.1415605826,
				"z": 1.1608827025,
				"element": "H" 
			},
			{
				"x": -1.6047130964,
				"y": 1.9531168091,
				"z": -1.706795673,
				"element": "H" 
			},
			{
				"x": -3.4892841681,
				"y": 3.5512117208,
				"z": -1.8832027005,
				"element": "H" 
			},
			{
				"x": -4.5739767372,
				"y": 4.4510984279,
				"z": 0.1522385543,
				"element": "H" 
			},
			{
				"x": -3.7798364115,
				"y": 3.7426781007,
				"z": 2.4241818895,
				"element": "H" 
			},
			{
				"x": 0.3923175008,
				"y": 3.0699273903,
				"z": -0.6448691254,
				"element": "H" 
			},
			{
				"x": 2.7214342627,
				"y": 3.6120206276,
				"z": -1.2161203502,
				"element": "H" 
			},
			{
				"x": 4.5893357057,
				"y": 2.2269576778,
				"z": -0.3276895486,
				"element": "H" 
			},
			{
				"x": 4.0776332746,
				"y": 0.2982303589,
				"z": 1.1628918074,
				"element": "H" 
			},
			{
				"x": 1.7475582028,
				"y": -0.2356290349,
				"z": 1.7463853167,
				"element": "H" 
			}
		],
		 "valence_orbital": [ 
			{
				"type": "occ",
				"energy": -0.26308,
				"method": "rhf"
			},
			{
				"type": "occ",
				"energy": -0.25173,
				"method": "rhf"
			},
			{
				"type": "occ",
				"energy": -0.24717,
				"method": "rhf"
			},
			{
				"type": "occ",
				"energy": -0.24034,
				"method": "rhf"
			},
			{
				"type": "occ",
				"energy": -0.19723,
				"method": "rhf"
			},
			{
				"type": "unocc",
				"energy": -0.02659,
				"method": "rhf"
			},
			{
				"type": "unocc",
				"energy": -0.01595,
				"method": "rhf"
			},
			{
				"type": "unocc",
				"energy": -0.00624,
				"method": "rhf"
			},
			{
				"type": "unocc",
				"energy": -0.00266,
				"method": "rhf"
			},
			{
				"type": "unocc",
				"energy": 0.01938,
				"method": "rhf"
			}
		],
		"cosmo_sigma_profile": { 
			"-0.025": 0.0,
			"-0.024": 0.0,
			"-0.023": 0.0,
			"-0.022": 0.0,
			"-0.021": 0.0,
			"-0.02": 0.0,
			"-0.019": 0.0,
			"-0.018": 0.0,
			"-0.017": 0.0,
			"-0.016": 0.0,
			"-0.015": 0.0,
			"-0.014": 0.0,
			"-0.013": 0.0,
			"-0.012": 0.0,
			"-0.011": 0.0,
			"-0.01": 0.0,
			"-0.009": 0.0,
			"-0.008": 0.16315862352,
			"-0.007": 3.27288969023,
			"-0.006": 12.4549699824,
			"-0.005": 21.2003177843,
			"-0.004": 27.6754823382,
			"-0.003": 36.9321976925,
			"-0.002": 36.700182588,
			"-0.001": 43.0404652075,
			"0.0": 39.9049770712,
			"0.001": 37.3162881282,
			"0.002": 25.271349668,
			"0.003": 18.641459918,
			"0.004": 18.8375774236,
			"0.005": 14.6642486646,
			"0.006": 6.16236561215,
			"0.007": 4.51920794612,
			"0.008": 4.75589311606,
			"0.009": 3.69622522115,
			"0.01": 4.13861568027,
			"0.011": 3.92058625892,
			"0.012": 1.12127421807,
			"0.013": 0.387639942107,
			"0.014": 0.296427560011,
			"0.015": 0.101477873828,
			"0.016": 0.0,
			"0.017": 0.0,
			"0.018": 0.0,
			"0.019": 0.0,
			"0.02": 0.0,
			"0.021": 0.0,
			"0.022": 0.0,
			"0.023": 0.0,
			"0.024": 0.0,
			"0.025": 0.0
		}
	}
}
