{
	 "smiles": "CC(=O)NC1=CC=C(C(C)=O)C(O)=C1", 
	 "Tm": 417.15, 
	 "num_atms": 25, 
	 "gaussian": { 
		 "optdone": 1, 
		 "sigma_profile": "yes", 
		 "theory": "DFT", 
		 "functional": "B3LYP", 
		 "basiset": "6-31G**", 
		 "properties": { 
			 "R2extent": 4015.4907, 
			 "electric_dipole_moment_norm": 4.03694705935, 
			 "electric_quadrupole_moment_norm": 13.9942505691, 
			 "total_energy": -668.149344608, 
			 "HOMO_LUMO_gap": 0.16529, 
			 "cosmo_polarized_energy": -15.31, 
			 "cosmo_cavitation_energy": 28.87, 
			 "cosmo_dispersion_energy": -21.43, 
			 "cosmo_repulsion_energy": 1.66, 
			 "cosmo_total_nonelectrostatic_energy": 9.09, 
			 "SMD_solvation_energy": 6.67 
		},
		"coords": [
			{
				"x": -0.9891174175,
				"y": -2.5089992154,
				"z": 2.8868920403,
				"element": "C" 
			},
			{
				"x": 0.5182969173,
				"y": -2.3934057069,
				"z": 2.9368255943,
				"element": "C" 
			},
			{
				"x": 1.1977823158,
				"y": -3.1370700684,
				"z": 3.6274226254,
				"element": "O" 
			},
			{
				"x": 1.1766690315,
				"y": -1.4215413872,
				"z": 2.1850447367,
				"element": "N" 
			},
			{
				"x": 0.8073932402,
				"y": -0.4063396658,
				"z": 1.2967927852,
				"element": "C" 
			},
			{
				"x": -0.5221216568,
				"y": -0.1058727288,
				"z": 0.9153179122,
				"element": "C" 
			},
			{
				"x": -0.7554966119,
				"y": 0.9271657617,
				"z": 0.0252234597,
				"element": "C" 
			},
			{
				"x": 0.2789726694,
				"y": 1.7054261252,
				"z": -0.5277305438,
				"element": "C" 
			},
			{
				"x": 0.0379595547,
				"y": 2.7996175191,
				"z": -1.4698710439,
				"element": "C" 
			},
			{
				"x": -1.3747730297,
				"y": 3.145104187,
				"z": -1.8970691345,
				"element": "C" 
			},
			{
				"x": 0.9819820933,
				"y": 3.4627642777,
				"z": -1.9348689865,
				"element": "O" 
			},
			{
				"x": 1.6161045211,
				"y": 1.3952442746,
				"z": -0.137320563,
				"element": "C" 
			},
			{
				"x": 2.6652261423,
				"y": 2.0761173868,
				"z": -0.6070341743,
				"element": "O" 
			},
			{
				"x": 1.8554526093,
				"y": 0.3526532677,
				"z": 0.7613810486,
				"element": "C" 
			},
			{
				"x": -1.3401809949,
				"y": -2.7259405252,
				"z": 1.8735221413,
				"element": "H" 
			},
			{
				"x": -1.2705554132,
				"y": -3.3285496729,
				"z": 3.5473794992,
				"element": "H" 
			},
			{
				"x": -1.4723105699,
				"y": -1.588625358,
				"z": 3.2284596841,
				"element": "H" 
			},
			{
				"x": 2.1745408297,
				"y": -1.4981266494,
				"z": 2.3464888921,
				"element": "H" 
			},
			{
				"x": -1.3608388465,
				"y": -0.6626280223,
				"z": 1.3013156658,
				"element": "H" 
			},
			{
				"x": -1.7827415814,
				"y": 1.1396300505,
				"z": -0.2530068506,
				"element": "H" 
			},
			{
				"x": -1.3305874852,
				"y": 3.9816078753,
				"z": -2.5948311255,
				"element": "H" 
			},
			{
				"x": -1.9895875931,
				"y": 3.4245345692,
				"z": -1.0349844344,
				"element": "H" 
			},
			{
				"x": -1.8584721891,
				"y": 2.2920045961,
				"z": -2.3844339524,
				"element": "H" 
			},
			{
				"x": 2.2910677767,
				"y": 2.7651858514,
				"z": -1.2218492525,
				"element": "H" 
			},
			{
				"x": 2.886235688,
				"y": 0.1476432577,
				"z": 1.0337339766,
				"element": "H" 
			}
		],
		 "valence_orbital": [ 
			{
				"type": "occ",
				"energy": -0.31118,
				"method": "rhf"
			},
			{
				"type": "occ",
				"energy": -0.26888,
				"method": "rhf"
			},
			{
				"type": "occ",
				"energy": -0.26544,
				"method": "rhf"
			},
			{
				"type": "occ",
				"energy": -0.24121,
				"method": "rhf"
			},
			{
				"type": "occ",
				"energy": -0.23145,
				"method": "rhf"
			},
			{
				"type": "unocc",
				"energy": -0.06616,
				"method": "rhf"
			},
			{
				"type": "unocc",
				"energy": -0.00737,
				"method": "rhf"
			},
			{
				"type": "unocc",
				"energy": 0.00327,
				"method": "rhf"
			},
			{
				"type": "unocc",
				"energy": 0.04713,
				"method": "rhf"
			},
			{
				"type": "unocc",
				"energy": 0.0768,
				"method": "rhf"
			}
		],
		"cosmo_sigma_profile": { 
			"-0.025": 0.0,
			"-0.024": 0.0,
			"-0.023": 0.0,
			"-0.022": 0.0,
			"-0.021": 0.0,
			"-0.02": 0.0,
			"-0.019": 0.0,
			"-0.018": 0.0,
			"-0.017": 0.0,
			"-0.016": 0.0,
			"-0.015": 0.162831955802,
			"-0.014": 1.09903487411,
			"-0.013": 1.08984017395,
			"-0.012": 1.41839114788,
			"-0.011": 1.09416690707,
			"-0.01": 1.04299398407,
			"-0.009": 0.762365111014,
			"-0.008": 1.76974645843,
			"-0.007": 10.4917577909,
			"-0.006": 19.0017419316,
			"-0.005": 16.5894931585,
			"-0.004": 15.0990413534,
			"-0.003": 15.4749908539,
			"-0.002": 20.0315091498,
			"-0.001": 19.413481545,
			"0.0": 13.2741730472,
			"0.001": 12.9270009186,
			"0.002": 12.4998342322,
			"0.003": 14.5409635279,
			"0.004": 8.68067034344,
			"0.005": 4.2997046859,
			"0.006": 4.73688575288,
			"0.007": 2.79899736233,
			"0.008": 4.104128362,
			"0.009": 5.41063503857,
			"0.01": 4.04827592561,
			"0.011": 5.58053971246,
			"0.012": 5.98348107567,
			"0.013": 5.33901791594,
			"0.014": 0.9600712909,
			"0.015": 0.0,
			"0.016": 0.0,
			"0.017": 0.0,
			"0.018": 0.0,
			"0.019": 0.0,
			"0.02": 0.0,
			"0.021": 0.0,
			"0.022": 0.0,
			"0.023": 0.0,
			"0.024": 0.0,
			"0.025": 0.0
		}
	}
}
