{
	 "smiles": "COC1=CC=C(CO)C(Cl)=C1OC", 
	 "Tm": 344.15, 
	 "num_atms": 24, 
	 "gaussian": { 
		 "optdone": 1, 
		 "sigma_profile": "yes", 
		 "theory": "DFT", 
		 "functional": "B3LYP", 
		 "basiset": "6-31G**", 
		 "properties": { 
			 "R2extent": 2966.827, 
			 "electric_dipole_moment_norm": 2.06540901034, 
			 "electric_quadrupole_moment_norm": 5.85951849558, 
			 "total_energy": -1035.40481967, 
			 "HOMO_LUMO_gap": 0.22349, 
			 "cosmo_polarized_energy": -9.86, 
			 "cosmo_cavitation_energy": 28.97, 
			 "cosmo_dispersion_energy": -20.89, 
			 "cosmo_repulsion_energy": 1.68, 
			 "cosmo_total_nonelectrostatic_energy": 9.75, 
			 "SMD_solvation_energy": 6.25 
		},
		"coords": [
			{
				"x": -0.7776223269,
				"y": -1.6399361849,
				"z": 3.3590475694,
				"element": "C" 
			},
			{
				"x": 0.484112001,
				"y": -1.3783524643,
				"z": 2.7300757225,
				"element": "O" 
			},
			{
				"x": 0.4323887482,
				"y": -0.5135767595,
				"z": 1.6616416063,
				"element": "C" 
			},
			{
				"x": 0.9953989674,
				"y": 0.7550213605,
				"z": 1.7780037676,
				"element": "C" 
			},
			{
				"x": 0.986235067,
				"y": 1.629435868,
				"z": 0.6925318968,
				"element": "C" 
			},
			{
				"x": 0.4170296099,
				"y": 1.2650489775,
				"z": -0.5307573171,
				"element": "C" 
			},
			{
				"x": 0.4060667876,
				"y": 2.2410012446,
				"z": -1.6971140422,
				"element": "C" 
			},
			{
				"x": 1.2387934836,
				"y": 3.3712436076,
				"z": -1.4967145793,
				"element": "O" 
			},
			{
				"x": -0.1418408286,
				"y": -0.0169240337,
				"z": -0.6343572852,
				"element": "C" 
			},
			{
				"x": -0.8774728626,
				"y": -0.5355309431,
				"z": -2.1463691119,
				"element": "Cl" 
			},
			{
				"x": -0.1406856373,
				"y": -0.9175759139,
				"z": 0.4397109946,
				"element": "C" 
			},
			{
				"x": -0.7249856674,
				"y": -2.1492627584,
				"z": 0.3116621801,
				"element": "O" 
			},
			{
				"x": 0.1968195101,
				"y": -3.2459271035,
				"z": 0.2252043352,
				"element": "C" 
			},
			{
				"x": -0.5716584719,
				"y": -2.332576247,
				"z": 4.1774744401,
				"element": "H" 
			},
			{
				"x": -1.4848100006,
				"y": -2.0937641044,
				"z": 2.6584346829,
				"element": "H" 
			},
			{
				"x": -1.206116595,
				"y": -0.7155607938,
				"z": 3.7659532565,
				"element": "H" 
			},
			{
				"x": 1.4337809217,
				"y": 1.0406883199,
				"z": 2.7287278356,
				"element": "H" 
			},
			{
				"x": 1.4084177298,
				"y": 2.6242811332,
				"z": 0.7827089568,
				"element": "H" 
			},
			{
				"x": 0.6626383855,
				"y": 1.7118372834,
				"z": -2.6253038067,
				"element": "H" 
			},
			{
				"x": -0.606279716,
				"y": 2.6373775677,
				"z": -1.837455712,
				"element": "H" 
			},
			{
				"x": 2.1554460376,
				"y": 3.0653522354,
				"z": -1.5075367217,
				"element": "H" 
			},
			{
				"x": -0.4128817057,
				"y": -4.1470240825,
				"z": 0.1381225217,
				"element": "H" 
			},
			{
				"x": 0.8300256023,
				"y": -3.1498124246,
				"z": -0.6643674496,
				"element": "H" 
			},
			{
				"x": 0.8216009601,
				"y": -3.3048637841,
				"z": 1.1216762595,
				"element": "H" 
			}
		],
		 "valence_orbital": [ 
			{
				"type": "occ",
				"energy": -0.29792,
				"method": "rhf"
			},
			{
				"type": "occ",
				"energy": -0.28092,
				"method": "rhf"
			},
			{
				"type": "occ",
				"energy": -0.26858,
				"method": "rhf"
			},
			{
				"type": "occ",
				"energy": -0.24077,
				"method": "rhf"
			},
			{
				"type": "occ",
				"energy": -0.23452,
				"method": "rhf"
			},
			{
				"type": "unocc",
				"energy": -0.01103,
				"method": "rhf"
			},
			{
				"type": "unocc",
				"energy": -0.00554,
				"method": "rhf"
			},
			{
				"type": "unocc",
				"energy": 0.03012,
				"method": "rhf"
			},
			{
				"type": "unocc",
				"energy": 0.07503,
				"method": "rhf"
			},
			{
				"type": "unocc",
				"energy": 0.0927,
				"method": "rhf"
			}
		],
		"cosmo_sigma_profile": { 
			"-0.025": 0.0,
			"-0.024": 0.0,
			"-0.023": 0.0,
			"-0.022": 0.0,
			"-0.021": 0.0,
			"-0.02": 0.0,
			"-0.019": 0.0,
			"-0.018": 0.0,
			"-0.017": 0.0342886763108,
			"-0.016": 0.691468119494,
			"-0.015": 0.878774036262,
			"-0.014": 1.25779455415,
			"-0.013": 0.638067261059,
			"-0.012": 0.681681162943,
			"-0.011": 0.831400679266,
			"-0.01": 0.281154299483,
			"-0.009": 1.34303685812,
			"-0.008": 1.52441982061,
			"-0.007": 1.90783020388,
			"-0.006": 6.01196755848,
			"-0.005": 14.8521408293,
			"-0.004": 20.1143815376,
			"-0.003": 26.1105311746,
			"-0.002": 22.5174033111,
			"-0.001": 16.2678256751,
			"0.0": 15.5338254791,
			"0.001": 16.5014057358,
			"0.002": 18.4347545905,
			"0.003": 16.2341474895,
			"0.004": 13.890778114,
			"0.005": 9.11665773694,
			"0.006": 4.5150977865,
			"0.007": 2.67405105766,
			"0.008": 3.19823346107,
			"0.009": 4.23968259329,
			"0.01": 2.67065184202,
			"0.011": 3.43555617661,
			"0.012": 1.90697426775,
			"0.013": 2.02123683018,
			"0.014": 0.959771667218,
			"0.015": 0.0,
			"0.016": 0.0,
			"0.017": 0.0,
			"0.018": 0.0,
			"0.019": 0.0,
			"0.02": 0.0,
			"0.021": 0.0,
			"0.022": 0.0,
			"0.023": 0.0,
			"0.024": 0.0,
			"0.025": 0.0
		}
	}
}
