{
	 "smiles": "NC1=CC(C#N)=C(OC2=CC=C(C=C2)C(F)(F)F)C=C1", 
	 "Tm": 349.15, 
	 "num_atms": 29, 
	 "gaussian": { 
		 "optdone": 1, 
		 "sigma_profile": "yes", 
		 "theory": "DFT", 
		 "functional": "B3LYP", 
		 "basiset": "6-31G**", 
		 "properties": { 
			 "R2extent": 8438.9963, 
			 "electric_dipole_moment_norm": 7.35549663177, 
			 "electric_quadrupole_moment_norm": 19.059814838, 
			 "total_energy": -1023.14464806, 
			 "HOMO_LUMO_gap": 0.16749, 
			 "cosmo_polarized_energy": -16.79, 
			 "cosmo_cavitation_energy": 37.12, 
			 "cosmo_dispersion_energy": -25.21, 
			 "cosmo_repulsion_energy": 1.89, 
			 "cosmo_total_nonelectrostatic_energy": 13.8, 
			 "SMD_solvation_energy": 8.95 
		},
		"coords": [
			{
				"x": -3.5439947814,
				"y": -0.1131602966,
				"z": -3.1786876974,
				"element": "N" 
			},
			{
				"x": -2.5559115537,
				"y": -0.4576354677,
				"z": -2.2618693845,
				"element": "C" 
			},
			{
				"x": -1.4651311044,
				"y": -1.2505479724,
				"z": -2.6429188666,
				"element": "C" 
			},
			{
				"x": -0.4367578423,
				"y": -1.54309821,
				"z": -1.7334701189,
				"element": "C" 
			},
			{
				"x": 0.66895595,
				"y": -2.3539306647,
				"z": -2.1500929001,
				"element": "C" 
			},
			{
				"x": 1.5547609068,
				"y": -3.0109639274,
				"z": -2.5188551301,
				"element": "N" 
			},
			{
				"x": -0.498318739,
				"y": -1.0492601773,
				"z": -0.4198815001,
				"element": "C" 
			},
			{
				"x": 0.474216898,
				"y": -1.4405273288,
				"z": 0.4776461532,
				"element": "O" 
			},
			{
				"x": 1.2625656187,
				"y": -0.504119411,
				"z": 1.1097804757,
				"element": "C" 
			},
			{
				"x": 1.4274371012,
				"y": 0.8066879748,
				"z": 0.6537851333,
				"element": "C" 
			},
			{
				"x": 2.2742816181,
				"y": 1.6676118168,
				"z": 1.3497671533,
				"element": "C" 
			},
			{
				"x": 2.9526803452,
				"y": 1.2296030435,
				"z": 2.48850669,
				"element": "C" 
			},
			{
				"x": 2.7854890166,
				"y": -0.087750996,
				"z": 2.9309810941,
				"element": "C" 
			},
			{
				"x": 1.9417000912,
				"y": -0.9540277345,
				"z": 2.2472986805,
				"element": "C" 
			},
			{
				"x": 3.9043036677,
				"y": 2.1451114337,
				"z": 3.2038238334,
				"element": "C" 
			},
			{
				"x": 3.5760904507,
				"y": 3.4464214361,
				"z": 3.0357281513,
				"element": "F" 
			},
			{
				"x": 3.9308056259,
				"y": 1.9010187514,
				"z": 4.5343792293,
				"element": "F" 
			},
			{
				"x": 5.1753718328,
				"y": 2.0026522191,
				"z": 2.758861563,
				"element": "F" 
			},
			{
				"x": -1.5874976486,
				"y": -0.2680915039,
				"z": -0.0332251048,
				"element": "C" 
			},
			{
				"x": -2.5978898391,
				"y": 0.029253813,
				"z": -0.9403559134,
				"element": "C" 
			},
			{
				"x": -3.6363526865,
				"y": -0.7242519245,
				"z": -3.9777178143,
				"element": "H" 
			},
			{
				"x": -4.4383225954,
				"y": 0.1436334063,
				"z": -2.7855124797,
				"element": "H" 
			},
			{
				"x": -1.4002377797,
				"y": -1.6433398037,
				"z": -3.6526282775,
				"element": "H" 
			},
			{
				"x": 0.9067573946,
				"y": 1.1497850083,
				"z": -0.2324646574,
				"element": "H" 
			},
			{
				"x": 2.4043093096,
				"y": 2.6875201129,
				"z": 1.0045688881,
				"element": "H" 
			},
			{
				"x": 3.3075583539,
				"y": -0.4295755229,
				"z": 3.8182228977,
				"element": "H" 
			},
			{
				"x": 1.7950102833,
				"y": -1.9774324932,
				"z": 2.5746888358,
				"element": "H" 
			},
			{
				"x": -1.6407179136,
				"y": 0.099293181,
				"z": 0.9861847165,
				"element": "H" 
			},
			{
				"x": -3.4371619804,
				"y": 0.6425212378,
				"z": -0.6234436503,
				"element": "H" 
			}
		],
		 "valence_orbital": [ 
			{
				"type": "occ",
				"energy": -0.31704,
				"method": "rhf"
			},
			{
				"type": "occ",
				"energy": -0.27424,
				"method": "rhf"
			},
			{
				"type": "occ",
				"energy": -0.26968,
				"method": "rhf"
			},
			{
				"type": "occ",
				"energy": -0.24946,
				"method": "rhf"
			},
			{
				"type": "occ",
				"energy": -0.22249,
				"method": "rhf"
			},
			{
				"type": "unocc",
				"energy": -0.055,
				"method": "rhf"
			},
			{
				"type": "unocc",
				"energy": -0.02429,
				"method": "rhf"
			},
			{
				"type": "unocc",
				"energy": -0.01894,
				"method": "rhf"
			},
			{
				"type": "unocc",
				"energy": -0.01049,
				"method": "rhf"
			},
			{
				"type": "unocc",
				"energy": 0.03587,
				"method": "rhf"
			}
		],
		"cosmo_sigma_profile": { 
			"-0.025": 0.0,
			"-0.024": 0.0,
			"-0.023": 0.0,
			"-0.022": 0.0,
			"-0.021": 0.0,
			"-0.02": 0.0,
			"-0.019": 0.0,
			"-0.018": 0.0,
			"-0.017": 0.0,
			"-0.016": 0.0,
			"-0.015": 0.0,
			"-0.014": 0.0287800201808,
			"-0.013": 2.46247605987,
			"-0.012": 3.14178032262,
			"-0.011": 3.67937716915,
			"-0.01": 3.41331073301,
			"-0.009": 3.74500716226,
			"-0.008": 5.64589609052,
			"-0.007": 12.5451928964,
			"-0.006": 14.250565752,
			"-0.005": 14.3853599613,
			"-0.004": 12.3287321371,
			"-0.003": 13.0905155603,
			"-0.002": 12.4331921995,
			"-0.001": 18.1416236848,
			"0.0": 20.6084421182,
			"0.001": 25.8762892006,
			"0.002": 38.6318713654,
			"0.003": 48.0386027235,
			"0.004": 10.1157737876,
			"0.005": 5.06217761312,
			"0.006": 5.08459712439,
			"0.007": 5.208429327,
			"0.008": 4.65766031663,
			"0.009": 4.43071771336,
			"0.01": 3.57595427523,
			"0.011": 3.54484338881,
			"0.012": 2.81393752479,
			"0.013": 2.14301859768,
			"0.014": 0.101212778607,
			"0.015": 0.0,
			"0.016": 0.0,
			"0.017": 0.0,
			"0.018": 0.0,
			"0.019": 0.0,
			"0.02": 0.0,
			"0.021": 0.0,
			"0.022": 0.0,
			"0.023": 0.0,
			"0.024": 0.0,
			"0.025": 0.0
		}
	}
}
