{
	 "smiles": "COC1=CC=C(NCC2=CC=CS2)C=C1", 
	 "Tm": 345.15, 
	 "num_atms": 28, 
	 "gaussian": { 
		 "optdone": 1, 
		 "sigma_profile": "yes", 
		 "theory": "DFT", 
		 "functional": "B3LYP", 
		 "basiset": "6-31G**", 
		 "properties": { 
			 "R2extent": 5511.571, 
			 "electric_dipole_moment_norm": 1.30561119404, 
			 "electric_quadrupole_moment_norm": 6.03415437655, 
			 "total_energy": -993.240334386, 
			 "HOMO_LUMO_gap": 0.16861, 
			 "cosmo_polarized_energy": -10.99, 
			 "cosmo_cavitation_energy": 33.24, 
			 "cosmo_dispersion_energy": -24.08, 
			 "cosmo_repulsion_energy": 1.84, 
			 "cosmo_total_nonelectrostatic_energy": 11.0, 
			 "SMD_solvation_energy": 4.91 
		},
		"coords": [
			{
				"x": -1.2206415662,
				"y": -2.3297573224,
				"z": -4.7905897584,
				"element": "C" 
			},
			{
				"x": -1.3238599739,
				"y": -1.0547320999,
				"z": -4.1852221011,
				"element": "O" 
			},
			{
				"x": -0.8628163851,
				"y": -0.9170817827,
				"z": -2.9007475339,
				"element": "C" 
			},
			{
				"x": -0.9811716063,
				"y": 0.3601530083,
				"z": -2.3384729839,
				"element": "C" 
			},
			{
				"x": -0.5473792229,
				"y": 0.611870673,
				"z": -1.0427144351,
				"element": "C" 
			},
			{
				"x": 0.0301941568,
				"y": -0.4074281779,
				"z": -0.2619040395,
				"element": "C" 
			},
			{
				"x": 0.4097912061,
				"y": -0.2043960151,
				"z": 1.0792946587,
				"element": "N" 
			},
			{
				"x": 1.0260104482,
				"y": 1.0567393166,
				"z": 1.50541163,
				"element": "C" 
			},
			{
				"x": 2.4023560932,
				"y": 1.3352315125,
				"z": 0.950495801,
				"element": "C" 
			},
			{
				"x": 2.7507736661,
				"y": 2.0590374716,
				"z": -0.1602279042,
				"element": "C" 
			},
			{
				"x": 4.1531683966,
				"y": 2.0478242018,
				"z": -0.4338703727,
				"element": "C" 
			},
			{
				"x": 4.8632296794,
				"y": 1.309269045,
				"z": 0.4706542242,
				"element": "C" 
			},
			{
				"x": 3.8249816075,
				"y": 0.6204691661,
				"z": 1.678426615,
				"element": "S" 
			},
			{
				"x": 0.1493390887,
				"y": -1.6785899425,
				"z": -0.8393682799,
				"element": "C" 
			},
			{
				"x": -0.2960431654,
				"y": -1.9412052152,
				"z": -2.1369262156,
				"element": "C" 
			},
			{
				"x": -1.792401185,
				"y": -3.0903295278,
				"z": -4.2413525567,
				"element": "H" 
			},
			{
				"x": -1.6384014326,
				"y": -2.2255858855,
				"z": -5.7936428476,
				"element": "H" 
			},
			{
				"x": -0.1761697801,
				"y": -2.6611611735,
				"z": -4.86986144,
				"element": "H" 
			},
			{
				"x": -1.4256245245,
				"y": 1.1494269077,
				"z": -2.936486458,
				"element": "H" 
			},
			{
				"x": -0.6757867932,
				"y": 1.6090144082,
				"z": -0.6347954208,
				"element": "H" 
			},
			{
				"x": 0.9161594803,
				"y": -1.0025248293,
				"z": 1.4444917292,
				"element": "H" 
			},
			{
				"x": 1.0544185582,
				"y": 1.0424438798,
				"z": 2.6001282374,
				"element": "H" 
			},
			{
				"x": 0.3640531769,
				"y": 1.8828144642,
				"z": 1.2322148167,
				"element": "H" 
			},
			{
				"x": 2.0224456749,
				"y": 2.5815847254,
				"z": -0.7703821969,
				"element": "H" 
			},
			{
				"x": 4.6104628485,
				"y": 2.5693920401,
				"z": -1.267193142,
				"element": "H" 
			},
			{
				"x": 5.9297446413,
				"y": 1.1365903853,
				"z": 0.5099838321,
				"element": "H" 
			},
			{
				"x": 0.5963737902,
				"y": -2.4857900892,
				"z": -0.2631820977,
				"element": "H" 
			},
			{
				"x": -0.1836068776,
				"y": -2.9421791445,
				"z": -2.5369617601,
				"element": "H" 
			}
		],
		 "valence_orbital": [ 
			{
				"type": "occ",
				"energy": -0.26473,
				"method": "rhf"
			},
			{
				"type": "occ",
				"energy": -0.24947,
				"method": "rhf"
			},
			{
				"type": "occ",
				"energy": -0.24302,
				"method": "rhf"
			},
			{
				"type": "occ",
				"energy": -0.2296,
				"method": "rhf"
			},
			{
				"type": "occ",
				"energy": -0.18089,
				"method": "rhf"
			},
			{
				"type": "unocc",
				"energy": -0.01228,
				"method": "rhf"
			},
			{
				"type": "unocc",
				"energy": 0.00446,
				"method": "rhf"
			},
			{
				"type": "unocc",
				"energy": 0.02684,
				"method": "rhf"
			},
			{
				"type": "unocc",
				"energy": 0.03108,
				"method": "rhf"
			},
			{
				"type": "unocc",
				"energy": 0.06724,
				"method": "rhf"
			}
		],
		"cosmo_sigma_profile": { 
			"-0.025": 0.0,
			"-0.024": 0.0,
			"-0.023": 0.0,
			"-0.022": 0.0,
			"-0.021": 0.0,
			"-0.02": 0.0,
			"-0.019": 0.0,
			"-0.018": 0.0,
			"-0.017": 0.0,
			"-0.016": 0.0,
			"-0.015": 0.0,
			"-0.014": 0.0,
			"-0.013": 0.0,
			"-0.012": 0.165398415424,
			"-0.011": 1.24952398962,
			"-0.01": 1.58918800387,
			"-0.009": 1.59686448174,
			"-0.008": 4.03866988489,
			"-0.007": 5.84954987797,
			"-0.006": 14.6558147413,
			"-0.005": 24.0022040297,
			"-0.004": 25.0675661208,
			"-0.003": 24.5084183573,
			"-0.002": 17.8226706996,
			"-0.001": 13.286176871,
			"0.0": 13.38682822,
			"0.001": 12.1108789912,
			"0.002": 13.4684593801,
			"0.003": 15.6066628212,
			"0.004": 18.5709927921,
			"0.005": 21.1875081744,
			"0.006": 19.9819667007,
			"0.007": 7.66172261316,
			"0.008": 3.03567326941,
			"0.009": 2.05297279082,
			"0.01": 1.79365215592,
			"0.011": 2.40904174078,
			"0.012": 0.688512304499,
			"0.013": 0.524111482431,
			"0.014": 0.263883050141,
			"0.015": 0.0,
			"0.016": 0.0,
			"0.017": 0.0,
			"0.018": 0.0,
			"0.019": 0.0,
			"0.02": 0.0,
			"0.021": 0.0,
			"0.022": 0.0,
			"0.023": 0.0,
			"0.024": 0.0,
			"0.025": 0.0
		}
	}
}
