{
	 "smiles": "CCCN(C(C)C)C(=O)C1=C(N)C=CC=C1", 
	 "Tm": 338.15, 
	 "num_atms": 36, 
	 "gaussian": { 
		 "optdone": 1, 
		 "sigma_profile": "yes", 
		 "theory": "DFT", 
		 "functional": "B3LYP", 
		 "basiset": "6-31G**", 
		 "properties": { 
			 "R2extent": 4723.1082, 
			 "electric_dipole_moment_norm": 1.89237190319, 
			 "electric_quadrupole_moment_norm": 8.62157553699, 
			 "total_energy": -692.196186383, 
			 "HOMO_LUMO_gap": 0.1789, 
			 "cosmo_polarized_energy": -10.24, 
			 "cosmo_cavitation_energy": 36.01, 
			 "cosmo_dispersion_energy": -24.92, 
			 "cosmo_repulsion_energy": 1.94, 
			 "cosmo_total_nonelectrostatic_energy": 13.03, 
			 "SMD_solvation_energy": 6.44 
		},
		"coords": [
			{
				"x": -0.3265103211,
				"y": 2.6195204735,
				"z": 1.8155875796,
				"element": "C" 
			},
			{
				"x": -1.2512651449,
				"y": 1.90102021,
				"z": 0.8300848383,
				"element": "C" 
			},
			{
				"x": -0.5548613598,
				"y": 1.037621611,
				"z": -0.2366997616,
				"element": "C" 
			},
			{
				"x": 0.2461227013,
				"y": -0.0908986675,
				"z": 0.275853074,
				"element": "N" 
			},
			{
				"x": -0.5437097697,
				"y": -1.1731245173,
				"z": 0.9297808508,
				"element": "C" 
			},
			{
				"x": 0.1457410247,
				"y": -1.72630151,
				"z": 2.1833908667,
				"element": "C" 
			},
			{
				"x": -0.9627707287,
				"y": -2.2772617225,
				"z": -0.0545273636,
				"element": "C" 
			},
			{
				"x": 1.483546144,
				"y": -0.4110834575,
				"z": -0.2395010011,
				"element": "C" 
			},
			{
				"x": 1.9333680113,
				"y": -1.5641404159,
				"z": -0.1635427135,
				"element": "O" 
			},
			{
				"x": 2.3234852362,
				"y": 0.6541357939,
				"z": -0.8895555922,
				"element": "C" 
			},
			{
				"x": 2.9916362885,
				"y": 0.3521511057,
				"z": -2.1071080911,
				"element": "C" 
			},
			{
				"x": 2.8012757409,
				"y": -0.8641144187,
				"z": -2.7447754544,
				"element": "N" 
			},
			{
				"x": 3.8083254262,
				"y": 1.3426615555,
				"z": -2.6854772303,
				"element": "C" 
			},
			{
				"x": 4.0104595816,
				"y": 2.5667334811,
				"z": -2.0587685409,
				"element": "C" 
			},
			{
				"x": 3.4045984431,
				"y": 2.8427238913,
				"z": -0.8301492291,
				"element": "C" 
			},
			{
				"x": 2.567396846,
				"y": 1.8839900673,
				"z": -0.2644092406,
				"element": "C" 
			},
			{
				"x": 0.3113783678,
				"y": 1.9099082737,
				"z": 2.3524463932,
				"element": "H" 
			},
			{
				"x": -0.9092445167,
				"y": 3.1711862838,
				"z": 2.5601898614,
				"element": "H" 
			},
			{
				"x": 0.3216123752,
				"y": 3.3391578163,
				"z": 1.3051736058,
				"element": "H" 
			},
			{
				"x": -1.8528667684,
				"y": 2.6397409632,
				"z": 0.2848335312,
				"element": "H" 
			},
			{
				"x": -1.9732317059,
				"y": 1.2937350752,
				"z": 1.3891492067,
				"element": "H" 
			},
			{
				"x": 0.09283562,
				"y": 1.6610887729,
				"z": -0.8521224131,
				"element": "H" 
			},
			{
				"x": -1.3286833008,
				"y": 0.6315658564,
				"z": -0.9055445905,
				"element": "H" 
			},
			{
				"x": -1.4577432797,
				"y": -0.6760488024,
				"z": 1.2668344663,
				"element": "H" 
			},
			{
				"x": -0.5394885101,
				"y": -2.4014260398,
				"z": 2.7072112448,
				"element": "H" 
			},
			{
				"x": 1.0512264678,
				"y": -2.2753117433,
				"z": 1.92512381,
				"element": "H" 
			},
			{
				"x": 0.4105510938,
				"y": -0.9148999091,
				"z": 2.8688018077,
				"element": "H" 
			},
			{
				"x": -1.6651527359,
				"y": -2.9608166517,
				"z": 0.4345581429,
				"element": "H" 
			},
			{
				"x": -0.0945875823,
				"y": -2.8444106254,
				"z": -0.3909827318,
				"element": "H" 
			},
			{
				"x": -1.4660644848,
				"y": -1.8539214296,
				"z": -0.9305850442,
				"element": "H" 
			},
			{
				"x": 3.4947427865,
				"y": -1.0898991463,
				"z": -3.4435248563,
				"element": "H" 
			},
			{
				"x": 2.6023315862,
				"y": -1.6245920052,
				"z": -2.1045204697,
				"element": "H" 
			},
			{
				"x": 4.3005885952,
				"y": 1.1275380041,
				"z": -3.6310284539,
				"element": "H" 
			},
			{
				"x": 4.6593759691,
				"y": 3.3029277282,
				"z": -2.5254313255,
				"element": "H" 
			},
			{
				"x": 3.5831563701,
				"y": 3.7847787538,
				"z": -0.3217943251,
				"element": "H" 
			},
			{
				"x": 2.1013255333,
				"y": 2.0776653452,
				"z": 0.6949291489,
				"element": "H" 
			}
		],
		 "valence_orbital": [ 
			{
				"type": "occ",
				"energy": -0.30351,
				"method": "rhf"
			},
			{
				"type": "occ",
				"energy": -0.25431,
				"method": "rhf"
			},
			{
				"type": "occ",
				"energy": -0.23995,
				"method": "rhf"
			},
			{
				"type": "occ",
				"energy": -0.23285,
				"method": "rhf"
			},
			{
				"type": "occ",
				"energy": -0.1981,
				"method": "rhf"
			},
			{
				"type": "unocc",
				"energy": -0.0192,
				"method": "rhf"
			},
			{
				"type": "unocc",
				"energy": 0.01497,
				"method": "rhf"
			},
			{
				"type": "unocc",
				"energy": 0.04574,
				"method": "rhf"
			},
			{
				"type": "unocc",
				"energy": 0.07494,
				"method": "rhf"
			},
			{
				"type": "unocc",
				"energy": 0.09692,
				"method": "rhf"
			}
		],
		"cosmo_sigma_profile": { 
			"-0.025": 0.0,
			"-0.024": 0.0,
			"-0.023": 0.0,
			"-0.022": 0.0,
			"-0.021": 0.0,
			"-0.02": 0.0,
			"-0.019": 0.0,
			"-0.018": 0.0,
			"-0.017": 0.0,
			"-0.016": 0.0,
			"-0.015": 0.0,
			"-0.014": 0.0,
			"-0.013": 0.207013718253,
			"-0.012": 1.23603027067,
			"-0.011": 1.35644149966,
			"-0.01": 1.18277922864,
			"-0.009": 1.58312430629,
			"-0.008": 2.25518534236,
			"-0.007": 2.54598635283,
			"-0.006": 4.02169209078,
			"-0.005": 8.40835859728,
			"-0.004": 17.5027903532,
			"-0.003": 36.7640891462,
			"-0.002": 35.7311608773,
			"-0.001": 32.3221567837,
			"0.0": 29.758120842,
			"0.001": 27.4249796995,
			"0.002": 19.8757020922,
			"0.003": 9.41095620116,
			"0.004": 9.91346469459,
			"0.005": 10.4249644521,
			"0.006": 11.3643219484,
			"0.007": 3.72886409734,
			"0.008": 2.29208712606,
			"0.009": 2.54739610753,
			"0.01": 2.55275109162,
			"0.011": 1.61935316454,
			"0.012": 1.72940798603,
			"0.013": 2.53949529268,
			"0.014": 1.52498680681,
			"0.015": 0.00285663435806,
			"0.016": 0.0,
			"0.017": 0.0,
			"0.018": 0.0,
			"0.019": 0.0,
			"0.02": 0.0,
			"0.021": 0.0,
			"0.022": 0.0,
			"0.023": 0.0,
			"0.024": 0.0,
			"0.025": 0.0
		}
	}
}
