{
	 "smiles": "CC1(C)C=[N+]([O-])C(C)(C)C=[N+]1[O-]", 
	 "Tm": 572.15, 
	 "num_atms": 26, 
	 "gaussian": { 
		 "optdone": 1, 
		 "sigma_profile": "yes", 
		 "theory": "DFT", 
		 "functional": "B3LYP", 
		 "basiset": "6-31G**", 
		 "properties": { 
			 "R2extent": 2349.8496, 
			 "electric_dipole_moment_norm": 0.00210950231097, 
			 "electric_quadrupole_moment_norm": 22.2099963167, 
			 "total_energy": -573.103593494, 
			 "HOMO_LUMO_gap": 0.18815, 
			 "cosmo_polarized_energy": -15.92, 
			 "cosmo_cavitation_energy": 27.66, 
			 "cosmo_dispersion_energy": -19.2, 
			 "cosmo_repulsion_energy": 1.51, 
			 "cosmo_total_nonelectrostatic_energy": 9.97, 
			 "SMD_solvation_energy": 7.08 
		},
		"coords": [
			{
				"x": -2.9206982381,
				"y": 0.4742072486,
				"z": -0.6906515115,
				"element": "C" 
			},
			{
				"x": -1.3927036685,
				"y": 0.3996741581,
				"z": -0.5000650722,
				"element": "C" 
			},
			{
				"x": -0.7516657392,
				"y": 1.7820872621,
				"z": -0.734059279,
				"element": "C" 
			},
			{
				"x": -1.0639132274,
				"y": -0.0996277447,
				"z": 0.876819249,
				"element": "C" 
			},
			{
				"x": -0.4044294339,
				"y": -1.1828088999,
				"z": 1.1829372166,
				"element": "N" 
			},
			{
				"x": -0.1571559616,
				"y": -1.5519917622,
				"z": 2.3774534697,
				"element": "O" 
			},
			{
				"x": 0.12766319,
				"y": -2.1021161814,
				"z": 0.109919356,
				"element": "C" 
			},
			{
				"x": -0.5139954896,
				"y": -3.4841921982,
				"z": 0.3442187843,
				"element": "C" 
			},
			{
				"x": 1.6556627644,
				"y": -2.1773691942,
				"z": 0.300203115,
				"element": "C" 
			},
			{
				"x": -0.2010431114,
				"y": -1.6027609154,
				"z": -1.2669643574,
				"element": "C" 
			},
			{
				"x": -0.8600563343,
				"y": -0.519295066,
				"z": -1.5730904679,
				"element": "N" 
			},
			{
				"x": -1.1066870062,
				"y": -0.1497111367,
				"z": -2.767615632,
				"element": "O" 
			},
			{
				"x": -3.3479785616,
				"y": 1.1808470814,
				"z": 0.0261476345,
				"element": "H" 
			},
			{
				"x": -3.3797733003,
				"y": -0.5046916265,
				"z": -0.5265132545,
				"element": "H" 
			},
			{
				"x": -3.1412986403,
				"y": 0.8064099859,
				"z": -1.7060425269,
				"element": "H" 
			},
			{
				"x": -0.9726147014,
				"y": 2.1144542462,
				"z": -1.7493112118,
				"element": "H" 
			},
			{
				"x": -1.1558820012,
				"y": 2.5023711494,
				"z": -0.0174506957,
				"element": "H" 
			},
			{
				"x": 0.3327398566,
				"y": 1.7337137479,
				"z": -0.6011455133,
				"element": "H" 
			},
			{
				"x": -1.3971639798,
				"y": 0.4817651477,
				"z": 1.7294047494,
				"element": "H" 
			},
			{
				"x": -1.5984123048,
				"y": -3.4352973192,
				"z": 0.2115764713,
				"element": "H" 
			},
			{
				"x": -0.1103136845,
				"y": -4.2047340118,
				"z": -0.372424053,
				"element": "H" 
			},
			{
				"x": -0.2929534175,
				"y": -3.8165588941,
				"z": 1.3594515297,
				"element": "H" 
			},
			{
				"x": 2.0824652925,
				"y": -2.8843551586,
				"z": -0.4165475416,
				"element": "H" 
			},
			{
				"x": 2.1151919262,
				"y": -1.1987311389,
				"z": 0.135796651,
				"element": "H" 
			},
			{
				"x": 1.8762947869,
				"y": -2.5095046331,
				"z": 1.3156064749,
				"element": "H" 
			},
			{
				"x": 0.1323209853,
				"y": -2.1840841464,
				"z": -2.1195535845,
				"element": "H" 
			}
		],
		 "valence_orbital": [ 
			{
				"type": "occ",
				"energy": -0.35431,
				"method": "rhf"
			},
			{
				"type": "occ",
				"energy": -0.24994,
				"method": "rhf"
			},
			{
				"type": "occ",
				"energy": -0.2474,
				"method": "rhf"
			},
			{
				"type": "occ",
				"energy": -0.22432,
				"method": "rhf"
			},
			{
				"type": "occ",
				"energy": -0.2209,
				"method": "rhf"
			},
			{
				"type": "unocc",
				"energy": -0.03275,
				"method": "rhf"
			},
			{
				"type": "unocc",
				"energy": -0.01979,
				"method": "rhf"
			},
			{
				"type": "unocc",
				"energy": 0.0753,
				"method": "rhf"
			},
			{
				"type": "unocc",
				"energy": 0.0793,
				"method": "rhf"
			},
			{
				"type": "unocc",
				"energy": 0.09908,
				"method": "rhf"
			}
		],
		"cosmo_sigma_profile": { 
			"-0.025": 0.0,
			"-0.024": 0.0,
			"-0.023": 0.0,
			"-0.022": 0.0,
			"-0.021": 0.0,
			"-0.02": 0.0,
			"-0.019": 0.0,
			"-0.018": 0.0,
			"-0.017": 0.0,
			"-0.016": 0.0,
			"-0.015": 0.0,
			"-0.014": 0.0,
			"-0.013": 0.0,
			"-0.012": 0.0,
			"-0.011": 0.0,
			"-0.01": 0.0,
			"-0.009": 2.92754173639,
			"-0.008": 5.89009068476,
			"-0.007": 6.26190759181,
			"-0.006": 10.5997250686,
			"-0.005": 17.2115548485,
			"-0.004": 19.2258263834,
			"-0.003": 22.3535583409,
			"-0.002": 25.3702497407,
			"-0.001": 29.3756360496,
			"0.0": 17.9476642642,
			"0.001": 4.94005120882,
			"0.002": 3.99023938072,
			"0.003": 3.88339404913,
			"0.004": 2.76794213178,
			"0.005": 2.65550868221,
			"0.006": 3.45950131308,
			"0.007": 4.42581431899,
			"0.008": 2.57463560545,
			"0.009": 0.89003550125,
			"0.01": 2.8008620782,
			"0.011": 3.10237106919,
			"0.012": 4.69900801825,
			"0.013": 9.41470706674,
			"0.014": 6.24948175681,
			"0.015": 2.3858990924,
			"0.016": 0.0,
			"0.017": 0.0,
			"0.018": 0.0,
			"0.019": 0.0,
			"0.02": 0.0,
			"0.021": 0.0,
			"0.022": 0.0,
			"0.023": 0.0,
			"0.024": 0.0,
			"0.025": 0.0
		}
	}
}
