{
	 "smiles": "COC(=O)C(CC1=CC=CC=C1)=CC1=CC=CC=C1", 
	 "Tm": 300.65, 
	 "num_atms": 35, 
	 "gaussian": { 
		 "optdone": 1, 
		 "sigma_profile": "yes", 
		 "theory": "DFT", 
		 "functional": "B3LYP", 
		 "basiset": "6-31G**", 
		 "properties": { 
			 "R2extent": 6056.4348, 
			 "electric_dipole_moment_norm": 2.27074625619, 
			 "electric_quadrupole_moment_norm": 5.69418587684, 
			 "total_energy": -807.898564892, 
			 "HOMO_LUMO_gap": 0.17775, 
			 "cosmo_polarized_energy": -9.75, 
			 "cosmo_cavitation_energy": 39.22, 
			 "cosmo_dispersion_energy": -26.86, 
			 "cosmo_repulsion_energy": 2.1, 
			 "cosmo_total_nonelectrostatic_energy": 14.46, 
			 "SMD_solvation_energy": 7.85 
		},
		"coords": [
			{
				"x": -0.0641422573,
				"y": 3.0584910215,
				"z": 4.1080200078,
				"element": "C" 
			},
			{
				"x": -0.3910189329,
				"y": 2.480310935,
				"z": 2.8362218895,
				"element": "O" 
			},
			{
				"x": -0.2405316037,
				"y": 1.1364251741,
				"z": 2.759865089,
				"element": "C" 
			},
			{
				"x": 0.1562465685,
				"y": 0.4695490823,
				"z": 3.6983345293,
				"element": "O" 
			},
			{
				"x": -0.6273151724,
				"y": 0.5559351742,
				"z": 1.4380137997,
				"element": "C" 
			},
			{
				"x": -0.1857002461,
				"y": -0.8832383161,
				"z": 1.2434681864,
				"element": "C" 
			},
			{
				"x": 1.3195544196,
				"y": -1.0038135726,
				"z": 1.0307662423,
				"element": "C" 
			},
			{
				"x": 1.8737500689,
				"y": -0.7190888114,
				"z": -0.2251927551,
				"element": "C" 
			},
			{
				"x": 3.2470457827,
				"y": -0.8323458312,
				"z": -0.4422146493,
				"element": "C" 
			},
			{
				"x": 4.0895853509,
				"y": -1.2318067821,
				"z": 0.5976399927,
				"element": "C" 
			},
			{
				"x": 3.5479994199,
				"y": -1.513616461,
				"z": 1.8526341846,
				"element": "C" 
			},
			{
				"x": 2.1731035063,
				"y": -1.3987437779,
				"z": 2.0679092616,
				"element": "C" 
			},
			{
				"x": -1.2923278789,
				"y": 1.3221042421,
				"z": 0.5466398495,
				"element": "C" 
			},
			{
				"x": -1.8387725921,
				"y": 0.9524555064,
				"z": -0.7733245663,
				"element": "C" 
			},
			{
				"x": -2.5688222521,
				"y": -0.2281137777,
				"z": -1.0010853744,
				"element": "C" 
			},
			{
				"x": -3.0889099949,
				"y": -0.513248856,
				"z": -2.2631071232,
				"element": "C" 
			},
			{
				"x": -2.8936964971,
				"y": 0.374165845,
				"z": -3.3231199672,
				"element": "C" 
			},
			{
				"x": -2.1895217203,
				"y": 1.5609879872,
				"z": -3.1076713061,
				"element": "C" 
			},
			{
				"x": -1.6801155378,
				"y": 1.8520341692,
				"z": -1.8438737779,
				"element": "C" 
			},
			{
				"x": -0.7046959547,
				"y": 2.6514947643,
				"z": 4.8947966561,
				"element": "H" 
			},
			{
				"x": -0.23084759,
				"y": 4.1299175055,
				"z": 3.9953656189,
				"element": "H" 
			},
			{
				"x": 0.9785717349,
				"y": 2.8572091919,
				"z": 4.3660875074,
				"element": "H" 
			},
			{
				"x": -0.6954083629,
				"y": -1.3106219219,
				"z": 0.3795169306,
				"element": "H" 
			},
			{
				"x": -0.4747285319,
				"y": -1.4648094532,
				"z": 2.1236656186,
				"element": "H" 
			},
			{
				"x": 1.2223121589,
				"y": -0.4087222021,
				"z": -1.0386086239,
				"element": "H" 
			},
			{
				"x": 3.6585917779,
				"y": -0.6122888467,
				"z": -1.4235662156,
				"element": "H" 
			},
			{
				"x": 5.1591318969,
				"y": -1.3231720445,
				"z": 0.4300472436,
				"element": "H" 
			},
			{
				"x": 4.1958696183,
				"y": -1.8235891347,
				"z": 2.6680882236,
				"element": "H" 
			},
			{
				"x": 1.7555986321,
				"y": -1.6005170473,
				"z": 3.0491644282,
				"element": "H" 
			},
			{
				"x": -1.4297581756,
				"y": 2.3663739012,
				"z": 0.8171461017,
				"element": "H" 
			},
			{
				"x": -2.759816964,
				"y": -0.9074999907,
				"z": -0.1768305405,
				"element": "H" 
			},
			{
				"x": -3.6562726419,
				"y": -1.4269376257,
				"z": -2.4155665834,
				"element": "H" 
			},
			{
				"x": -3.2983868609,
				"y": 0.1493197045,
				"z": -4.3055749973,
				"element": "H" 
			},
			{
				"x": -2.0432487989,
				"y": 2.263880869,
				"z": -3.9228499886,
				"element": "H" 
			},
			{
				"x": -1.1402223693,
				"y": 2.7808193791,
				"z": -1.679004892,
				"element": "H" 
			}
		],
		 "valence_orbital": [ 
			{
				"type": "occ",
				"energy": -0.26942,
				"method": "rhf"
			},
			{
				"type": "occ",
				"energy": -0.25725,
				"method": "rhf"
			},
			{
				"type": "occ",
				"energy": -0.23974,
				"method": "rhf"
			},
			{
				"type": "occ",
				"energy": -0.23497,
				"method": "rhf"
			},
			{
				"type": "occ",
				"energy": -0.23116,
				"method": "rhf"
			},
			{
				"type": "unocc",
				"energy": -0.05341,
				"method": "rhf"
			},
			{
				"type": "unocc",
				"energy": -0.0089,
				"method": "rhf"
			},
			{
				"type": "unocc",
				"energy": 0.00664,
				"method": "rhf"
			},
			{
				"type": "unocc",
				"energy": 0.00941,
				"method": "rhf"
			},
			{
				"type": "unocc",
				"energy": 0.01394,
				"method": "rhf"
			}
		],
		"cosmo_sigma_profile": { 
			"-0.025": 0.0,
			"-0.024": 0.0,
			"-0.023": 0.0,
			"-0.022": 0.0,
			"-0.021": 0.0,
			"-0.02": 0.0,
			"-0.019": 0.0,
			"-0.018": 0.0,
			"-0.017": 0.0,
			"-0.016": 0.0,
			"-0.015": 0.0,
			"-0.014": 0.0,
			"-0.013": 0.0,
			"-0.012": 0.0,
			"-0.011": 0.0,
			"-0.01": 0.0,
			"-0.009": 0.0,
			"-0.008": 0.0,
			"-0.007": 0.644436490171,
			"-0.006": 13.8900496805,
			"-0.005": 26.9208957276,
			"-0.004": 29.732857716,
			"-0.003": 35.8637156327,
			"-0.002": 27.4695797775,
			"-0.001": 25.0117737171,
			"0.0": 20.829403325,
			"0.001": 22.2023392422,
			"0.002": 20.7786415327,
			"0.003": 20.5650118074,
			"0.004": 20.3411808893,
			"0.005": 20.4598518064,
			"0.006": 12.7847747243,
			"0.007": 4.95008509603,
			"0.008": 2.40167245744,
			"0.009": 0.93868625746,
			"0.01": 2.04216375296,
			"0.011": 2.17761736651,
			"0.012": 2.50534878726,
			"0.013": 0.441006053604,
			"0.014": 0.0,
			"0.015": 0.0,
			"0.016": 0.0,
			"0.017": 0.0,
			"0.018": 0.0,
			"0.019": 0.0,
			"0.02": 0.0,
			"0.021": 0.0,
			"0.022": 0.0,
			"0.023": 0.0,
			"0.024": 0.0,
			"0.025": 0.0
		}
	}
}
