{
	 "smiles": "ClC1=C(Cl)C2(Cl)C3C4CC(C=C4)C3C1(Cl)C2(Cl)Cl", 
	 "Tm": 513.15, 
	 "num_atms": 26, 
	 "gaussian": { 
		 "optdone": 1, 
		 "sigma_profile": "yes", 
		 "theory": "DFT", 
		 "functional": "B3LYP", 
		 "basiset": "6-31G**", 
		 "properties": { 
			 "R2extent": 5724.044, 
			 "electric_dipole_moment_norm": 3.63872541421, 
			 "electric_quadrupole_moment_norm": 4.60770693947, 
			 "total_energy": -3223.1486832, 
			 "HOMO_LUMO_gap": 0.20228, 
			 "cosmo_polarized_energy": -5.81, 
			 "cosmo_cavitation_energy": 35.41, 
			 "cosmo_dispersion_energy": -25.31, 
			 "cosmo_repulsion_energy": 1.9, 
			 "cosmo_total_nonelectrostatic_energy": 12.0, 
			 "SMD_solvation_energy": 3.42 
		},
		"coords": [
			{
				"x": 0.8214254932,
				"y": -2.9431932168,
				"z": -1.2082020063,
				"element": "Cl" 
			},
			{
				"x": 1.0366489512,
				"y": -1.4210883458,
				"z": -0.4510751125,
				"element": "C" 
			},
			{
				"x": 1.4165185952,
				"y": -1.1824649187,
				"z": 0.8117446873,
				"element": "C" 
			},
			{
				"x": 1.7937639506,
				"y": -2.3321404757,
				"z": 2.0251000594,
				"element": "Cl" 
			},
			{
				"x": 1.3864546969,
				"y": 0.3290601663,
				"z": 1.0303984469,
				"element": "C" 
			},
			{
				"x": 2.3497413054,
				"y": 0.9258729757,
				"z": 2.4037106835,
				"element": "Cl" 
			},
			{
				"x": -0.0782720135,
				"y": 0.8713079602,
				"z": 0.9948402233,
				"element": "C" 
			},
			{
				"x": -1.2823923715,
				"y": 0.3120917607,
				"z": 1.836146084,
				"element": "C" 
			},
			{
				"x": -2.4245286869,
				"y": 0.7793161083,
				"z": 0.8849494383,
				"element": "C" 
			},
			{
				"x": -1.9267101824,
				"y": -0.0926743196,
				"z": -0.3063622033,
				"element": "C" 
			},
			{
				"x": -1.816122951,
				"y": -1.4304254309,
				"z": 0.4086687648,
				"element": "C" 
			},
			{
				"x": -1.4364335376,
				"y": -1.1919358778,
				"z": 1.6710161036,
				"element": "C" 
			},
			{
				"x": -0.5230376517,
				"y": 0.5918809269,
				"z": -0.4841784458,
				"element": "C" 
			},
			{
				"x": 0.7421353677,
				"y": -0.0758283506,
				"z": -1.1120766778,
				"element": "C" 
			},
			{
				"x": 0.7569429918,
				"y": -0.0751518929,
				"z": -2.8924822923,
				"element": "Cl" 
			},
			{
				"x": 1.8789802297,
				"y": 0.7682317294,
				"z": -0.4070947676,
				"element": "C" 
			},
			{
				"x": 3.5459215885,
				"y": 0.2429723072,
				"z": -0.809123361,
				"element": "Cl" 
			},
			{
				"x": 1.7975981067,
				"y": 2.5378382959,
				"z": -0.7170448154,
				"element": "Cl" 
			},
			{
				"x": -0.0132825919,
				"y": 1.9443166159,
				"z": 1.1833136901,
				"element": "H" 
			},
			{
				"x": -1.3042077913,
				"y": 0.6880690172,
				"z": 2.8602762746,
				"element": "H" 
			},
			{
				"x": -3.4111115994,
				"y": 0.4720583441,
				"z": 1.2396827397,
				"element": "H" 
			},
			{
				"x": -2.4240788767,
				"y": 1.8563568347,
				"z": 0.681335789,
				"element": "H" 
			},
			{
				"x": -2.5297717835,
				"y": -0.0819108549,
				"z": -1.2156914841,
				"element": "H" 
			},
			{
				"x": -1.948008847,
				"y": -2.3959583853,
				"z": -0.0645770203,
				"element": "H" 
			},
			{
				"x": -1.1967247926,
				"y": -1.9242318108,
				"z": 2.4325276043,
				"element": "H" 
			},
			{
				"x": -0.6773475995,
				"y": 1.5271308374,
				"z": -1.0251024025,
				"element": "H" 
			}
		],
		 "valence_orbital": [ 
			{
				"type": "occ",
				"energy": -0.31293,
				"method": "rhf"
			},
			{
				"type": "occ",
				"energy": -0.31043,
				"method": "rhf"
			},
			{
				"type": "occ",
				"energy": -0.30413,
				"method": "rhf"
			},
			{
				"type": "occ",
				"energy": -0.26753,
				"method": "rhf"
			},
			{
				"type": "occ",
				"energy": -0.24495,
				"method": "rhf"
			},
			{
				"type": "unocc",
				"energy": -0.04267,
				"method": "rhf"
			},
			{
				"type": "unocc",
				"energy": -0.04193,
				"method": "rhf"
			},
			{
				"type": "unocc",
				"energy": -0.00456,
				"method": "rhf"
			},
			{
				"type": "unocc",
				"energy": 0.00358,
				"method": "rhf"
			},
			{
				"type": "unocc",
				"energy": 0.00966,
				"method": "rhf"
			}
		],
		"cosmo_sigma_profile": { 
			"-0.025": 0.0,
			"-0.024": 0.0,
			"-0.023": 0.0,
			"-0.022": 0.0,
			"-0.021": 0.0,
			"-0.02": 0.0,
			"-0.019": 0.0,
			"-0.018": 0.0,
			"-0.017": 0.0,
			"-0.016": 0.0,
			"-0.015": 0.0,
			"-0.014": 0.0,
			"-0.013": 0.0,
			"-0.012": 0.0,
			"-0.011": 0.0,
			"-0.01": 0.0,
			"-0.009": 0.0,
			"-0.008": 0.0,
			"-0.007": 0.292104801279,
			"-0.006": 5.82878512908,
			"-0.005": 12.4246095854,
			"-0.004": 19.6895595128,
			"-0.003": 28.5942505866,
			"-0.002": 27.633307468,
			"-0.001": 29.6000920561,
			"0.0": 31.2013535943,
			"0.001": 29.398203875,
			"0.002": 34.7453620804,
			"0.003": 40.7510696684,
			"0.004": 29.5532482474,
			"0.005": 2.98921178754,
			"0.006": 0.623605263715,
			"0.007": 0.0046801070398,
			"0.008": 0.0,
			"0.009": 0.0,
			"0.01": 0.0,
			"0.011": 0.0,
			"0.012": 0.0,
			"0.013": 0.0,
			"0.014": 0.0,
			"0.015": 0.0,
			"0.016": 0.0,
			"0.017": 0.0,
			"0.018": 0.0,
			"0.019": 0.0,
			"0.02": 0.0,
			"0.021": 0.0,
			"0.022": 0.0,
			"0.023": 0.0,
			"0.024": 0.0,
			"0.025": 0.0
		}
	}
}
