{
	 "smiles": "O=S1(=O)CCC=C1", 
	 "Tm": 336.15, 
	 "num_atms": 13, 
	 "gaussian": { 
		 "optdone": 1, 
		 "sigma_profile": "yes", 
		 "theory": "DFT", 
		 "functional": "B3LYP", 
		 "basiset": "6-31G**", 
		 "properties": { 
			 "R2extent": 843.4315, 
			 "electric_dipole_moment_norm": 5.52928888194, 
			 "electric_quadrupole_moment_norm": 8.08181437983, 
			 "total_energy": -704.585462249, 
			 "HOMO_LUMO_gap": 0.24596, 
			 "cosmo_polarized_energy": -15.86, 
			 "cosmo_cavitation_energy": 17.52, 
			 "cosmo_dispersion_energy": -14.11, 
			 "cosmo_repulsion_energy": 1.14, 
			 "cosmo_total_nonelectrostatic_energy": 4.56, 
			 "SMD_solvation_energy": 2.55 
		},
		"coords": [
			{
				"x": 1.6124354491,
				"y": 0.9879687099,
				"z": 0.3309426164,
				"element": "O" 
			},
			{
				"x": 0.4459193448,
				"y": 0.2533141261,
				"z": 0.8424894097,
				"element": "S" 
			},
			{
				"x": -0.2550648049,
				"y": 0.7448936691,
				"z": 2.03925327,
				"element": "O" 
			},
			{
				"x": -0.7595250107,
				"y": -0.0599372299,
				"z": -0.5112676126,
				"element": "C" 
			},
			{
				"x": -1.0534661015,
				"y": -1.5703695301,
				"z": -0.498197469,
				"element": "C" 
			},
			{
				"x": 0.0133087548,
				"y": -2.2546670383,
				"z": 0.3315375966,
				"element": "C" 
			},
			{
				"x": 0.8289970792,
				"y": -1.4787591022,
				"z": 1.0404729977,
				"element": "C" 
			},
			{
				"x": -0.2675395195,
				"y": 0.2609723828,
				"z": -1.4308406691,
				"element": "H" 
			},
			{
				"x": -1.6303030518,
				"y": 0.5672864358,
				"z": -0.3175879213,
				"element": "H" 
			},
			{
				"x": -1.0681239228,
				"y": -1.9744075104,
				"z": -1.5161228441,
				"element": "H" 
			},
			{
				"x": -2.039107723,
				"y": -1.7794026249,
				"z": -0.064768353,
				"element": "H" 
			},
			{
				"x": 0.0721298067,
				"y": -3.3394614853,
				"z": 0.3472117203,
				"element": "H" 
			},
			{
				"x": 1.6277396996,
				"y": -1.7682308027,
				"z": 1.7114772585,
				"element": "H" 
			}
		],
		 "valence_orbital": [ 
			{
				"type": "occ",
				"energy": -0.32795,
				"method": "rhf"
			},
			{
				"type": "occ",
				"energy": -0.31943,
				"method": "rhf"
			},
			{
				"type": "occ",
				"energy": -0.30197,
				"method": "rhf"
			},
			{
				"type": "occ",
				"energy": -0.28627,
				"method": "rhf"
			},
			{
				"type": "occ",
				"energy": -0.27628,
				"method": "rhf"
			},
			{
				"type": "unocc",
				"energy": -0.03032,
				"method": "rhf"
			},
			{
				"type": "unocc",
				"energy": 0.05183,
				"method": "rhf"
			},
			{
				"type": "unocc",
				"energy": 0.07107,
				"method": "rhf"
			},
			{
				"type": "unocc",
				"energy": 0.08118,
				"method": "rhf"
			},
			{
				"type": "unocc",
				"energy": 0.08551,
				"method": "rhf"
			}
		],
		"cosmo_sigma_profile": { 
			"-0.025": 0.0,
			"-0.024": 0.0,
			"-0.023": 0.0,
			"-0.022": 0.0,
			"-0.021": 0.0,
			"-0.02": 0.0,
			"-0.019": 0.0,
			"-0.018": 0.0,
			"-0.017": 0.0,
			"-0.016": 0.0,
			"-0.015": 0.0,
			"-0.014": 0.0,
			"-0.013": 0.0,
			"-0.012": 0.0,
			"-0.011": 0.0,
			"-0.01": 1.40987877688,
			"-0.009": 3.39957756999,
			"-0.008": 6.99669263059,
			"-0.007": 12.2301807324,
			"-0.006": 17.2764321642,
			"-0.005": 13.5920713901,
			"-0.004": 11.6616940558,
			"-0.003": 8.06302468162,
			"-0.002": 3.7581780489,
			"-0.001": 4.32914795372,
			"0.0": 3.53748356398,
			"0.001": 4.40403660439,
			"0.002": 3.48697328476,
			"0.003": 2.57420710914,
			"0.004": 2.7550387843,
			"0.005": 2.3420744235,
			"0.006": 1.93844961288,
			"0.007": 1.40484658944,
			"0.008": 1.69313683122,
			"0.009": 4.14017780683,
			"0.01": 3.44888393533,
			"0.011": 9.66902208232,
			"0.012": 12.4889623494,
			"0.013": 2.7093704904,
			"0.014": 0.0,
			"0.015": 0.0,
			"0.016": 0.0,
			"0.017": 0.0,
			"0.018": 0.0,
			"0.019": 0.0,
			"0.02": 0.0,
			"0.021": 0.0,
			"0.022": 0.0,
			"0.023": 0.0,
			"0.024": 0.0,
			"0.025": 0.0
		}
	}
}
