{
	 "smiles": "CS(=O)(=O)C1=CC(=C(Cl)S1)S(Cl)(=O)=O", 
	 "Tm": 398.15, 
	 "num_atms": 18, 
	 "gaussian": { 
		 "optdone": 1, 
		 "sigma_profile": "yes", 
		 "theory": "DFT", 
		 "functional": "B3LYP", 
		 "basiset": "6-31G**", 
		 "properties": { 
			 "R2extent": 5210.4833, 
			 "electric_dipole_moment_norm": 4.25437888534, 
			 "electric_quadrupole_moment_norm": 26.1975370581, 
			 "total_energy": -2608.60862155, 
			 "HOMO_LUMO_gap": 0.1831, 
			 "cosmo_polarized_energy": -17.04, 
			 "cosmo_cavitation_energy": 31.5, 
			 "cosmo_dispersion_energy": -23.85, 
			 "cosmo_repulsion_energy": 1.76, 
			 "cosmo_total_nonelectrostatic_energy": 9.41, 
			 "SMD_solvation_energy": 3.33 
		},
		"coords": [
			{
				"x": 1.5971243712,
				"y": -1.3374547929,
				"z": -3.5290876884,
				"element": "C" 
			},
			{
				"x": 2.4131174814,
				"y": -0.8740853932,
				"z": -1.9868932112,
				"element": "S" 
			},
			{
				"x": 3.2210090339,
				"y": 0.3212210233,
				"z": -2.244770822,
				"element": "O" 
			},
			{
				"x": 2.976720932,
				"y": -2.0901026824,
				"z": -1.387763835,
				"element": "O" 
			},
			{
				"x": 1.0641934171,
				"y": -0.3695795762,
				"z": -0.9246160213,
				"element": "C" 
			},
			{
				"x": 0.5586256456,
				"y": 0.8941680449,
				"z": -0.8115515831,
				"element": "C" 
			},
			{
				"x": -0.5093634799,
				"y": 0.9496715638,
				"z": 0.13111507,
				"element": "C" 
			},
			{
				"x": -0.7774349978,
				"y": -0.2672822553,
				"z": 0.7262266965,
				"element": "C" 
			},
			{
				"x": -1.9384244402,
				"y": -0.634413329,
				"z": 1.9305533821,
				"element": "Cl" 
			},
			{
				"x": 0.2809529125,
				"y": -1.50924357,
				"z": 0.1374303111,
				"element": "S" 
			},
			{
				"x": -1.3677618117,
				"y": 2.4803021105,
				"z": 0.4302228102,
				"element": "S" 
			},
			{
				"x": -0.5372876914,
				"y": 3.0755314416,
				"z": 2.2846317549,
				"element": "Cl" 
			},
			{
				"x": -0.9001799201,
				"y": 3.4360175414,
				"z": -0.5641853319,
				"element": "O" 
			},
			{
				"x": -2.7797921973,
				"y": 2.2248091281,
				"z": 0.6664090242,
				"element": "O" 
			},
			{
				"x": 0.9004912439,
				"y": -2.1544725619,
				"z": -3.3365544435,
				"element": "H" 
			},
			{
				"x": 2.3915033455,
				"y": -1.6673656234,
				"z": -4.2022739681,
				"element": "H" 
			},
			{
				"x": 1.0871589279,
				"y": -0.465525143,
				"z": -3.940230649,
				"element": "H" 
			},
			{
				"x": 0.9238472271,
				"y": 1.7517040737,
				"z": -1.3623614956,
				"element": "H" 
			}
		],
		 "valence_orbital": [ 
			{
				"type": "occ",
				"energy": -0.32739,
				"method": "rhf"
			},
			{
				"type": "occ",
				"energy": -0.32467,
				"method": "rhf"
			},
			{
				"type": "occ",
				"energy": -0.31941,
				"method": "rhf"
			},
			{
				"type": "occ",
				"energy": -0.31516,
				"method": "rhf"
			},
			{
				"type": "occ",
				"energy": -0.28924,
				"method": "rhf"
			},
			{
				"type": "unocc",
				"energy": -0.10614,
				"method": "rhf"
			},
			{
				"type": "unocc",
				"energy": -0.08526,
				"method": "rhf"
			},
			{
				"type": "unocc",
				"energy": -0.03728,
				"method": "rhf"
			},
			{
				"type": "unocc",
				"energy": -0.03188,
				"method": "rhf"
			},
			{
				"type": "unocc",
				"energy": -0.0198,
				"method": "rhf"
			}
		],
		"cosmo_sigma_profile": { 
			"-0.025": 0.0,
			"-0.024": 0.0,
			"-0.023": 0.0,
			"-0.022": 0.0,
			"-0.021": 0.0,
			"-0.02": 0.0,
			"-0.019": 0.0,
			"-0.018": 0.0,
			"-0.017": 0.0,
			"-0.016": 0.0,
			"-0.015": 0.0,
			"-0.014": 0.0,
			"-0.013": 0.0,
			"-0.012": 0.01566753437,
			"-0.011": 0.306358563467,
			"-0.01": 2.88751783479,
			"-0.009": 8.25232505234,
			"-0.008": 7.36345725851,
			"-0.007": 8.94823258323,
			"-0.006": 11.7021348325,
			"-0.005": 17.399361656,
			"-0.004": 20.862283702,
			"-0.003": 20.1619800936,
			"-0.002": 17.8588493167,
			"-0.001": 17.6903548564,
			"0.0": 16.3629264724,
			"0.001": 17.1618898366,
			"0.002": 16.9007120648,
			"0.003": 13.5698829392,
			"0.004": 5.07949952312,
			"0.005": 6.39527872682,
			"0.006": 5.88844189862,
			"0.007": 11.7803475025,
			"0.008": 11.1641402141,
			"0.009": 5.67930512304,
			"0.01": 8.86965421457,
			"0.011": 7.85514890441,
			"0.012": 0.329525957836,
			"0.013": 0.0,
			"0.014": 0.0,
			"0.015": 0.0,
			"0.016": 0.0,
			"0.017": 0.0,
			"0.018": 0.0,
			"0.019": 0.0,
			"0.02": 0.0,
			"0.021": 0.0,
			"0.022": 0.0,
			"0.023": 0.0,
			"0.024": 0.0,
			"0.025": 0.0
		}
	}
}
