{
	 "smiles": "COC1=CC(OC)=C(CN2NC=CC2=N)C=C1", 
	 "Tm": 350.15, 
	 "num_atms": 32, 
	 "gaussian": { 
		 "optdone": 1, 
		 "sigma_profile": "yes", 
		 "theory": "DFT", 
		 "functional": "B3LYP", 
		 "basiset": "6-31G**", 
		 "properties": { 
			 "R2extent": 5842.519, 
			 "electric_dipole_moment_norm": 5.42175559759, 
			 "electric_quadrupole_moment_norm": 23.4373603132, 
			 "total_energy": -780.937764805, 
			 "HOMO_LUMO_gap": 0.1799, 
			 "cosmo_polarized_energy": -18.95, 
			 "cosmo_cavitation_energy": 35.4, 
			 "cosmo_dispersion_energy": -25.05, 
			 "cosmo_repulsion_energy": 1.92, 
			 "cosmo_total_nonelectrostatic_energy": 12.27, 
			 "SMD_solvation_energy": 6.04 
		},
		"coords": [
			{
				"x": 4.2139521533,
				"y": -3.5298102686,
				"z": 1.0990762826,
				"element": "C" 
			},
			{
				"x": 2.8407477055,
				"y": -3.6627466164,
				"z": 0.7653647514,
				"element": "O" 
			},
			{
				"x": 1.9785091362,
				"y": -2.6978476434,
				"z": 1.1974839513,
				"element": "C" 
			},
			{
				"x": 0.6388696555,
				"y": -2.8903887147,
				"z": 0.8184751489,
				"element": "C" 
			},
			{
				"x": -0.3290617676,
				"y": -1.9676676158,
				"z": 1.2006245313,
				"element": "C" 
			},
			{
				"x": -1.6574868439,
				"y": -2.0912121887,
				"z": 0.874199602,
				"element": "O" 
			},
			{
				"x": -2.0740311775,
				"y": -3.2669626145,
				"z": 0.1918609793,
				"element": "C" 
			},
			{
				"x": 0.0112158626,
				"y": -0.8316428823,
				"z": 1.969541145,
				"element": "C" 
			},
			{
				"x": -1.0452923665,
				"y": 0.1652292432,
				"z": 2.3961337522,
				"element": "C" 
			},
			{
				"x": -1.6312020874,
				"y": 0.9200895396,
				"z": 1.2902643408,
				"element": "N" 
			},
			{
				"x": -2.9872179993,
				"y": 0.6359079852,
				"z": 0.9782454822,
				"element": "N" 
			},
			{
				"x": -3.4693680269,
				"y": 1.7801007006,
				"z": 0.3479284087,
				"element": "C" 
			},
			{
				"x": -2.5865669491,
				"y": 2.7964143064,
				"z": 0.428931831,
				"element": "C" 
			},
			{
				"x": -1.3812713084,
				"y": 2.2948731666,
				"z": 1.0854453128,
				"element": "C" 
			},
			{
				"x": -0.3401630997,
				"y": 2.9802015437,
				"z": 1.4105205897,
				"element": "N" 
			},
			{
				"x": 1.3451776665,
				"y": -0.6739588103,
				"z": 2.3281441221,
				"element": "C" 
			},
			{
				"x": 2.3407615768,
				"y": -1.5862605154,
				"z": 1.9586454603,
				"element": "C" 
			},
			{
				"x": 4.7163438191,
				"y": -4.391187066,
				"z": 0.6563006522,
				"element": "H" 
			},
			{
				"x": 4.6431464475,
				"y": -2.6086836973,
				"z": 0.6848996014,
				"element": "H" 
			},
			{
				"x": 4.369063938,
				"y": -3.5405257887,
				"z": 2.185515127,
				"element": "H" 
			},
			{
				"x": 0.4047035093,
				"y": -3.766802046,
				"z": 0.2282583147,
				"element": "H" 
			},
			{
				"x": -1.6180157823,
				"y": -3.3387373025,
				"z": -0.8031823924,
				"element": "H" 
			},
			{
				"x": -3.1575406501,
				"y": -3.1891385872,
				"z": 0.0867291946,
				"element": "H" 
			},
			{
				"x": -1.8310795323,
				"y": -4.1694430611,
				"z": 0.7653033094,
				"element": "H" 
			},
			{
				"x": -1.8691251447,
				"y": -0.3383350653,
				"z": 2.9122356175,
				"element": "H" 
			},
			{
				"x": -0.6014496112,
				"y": 0.8810719525,
				"z": 3.099473445,
				"element": "H" 
			},
			{
				"x": -3.0488732236,
				"y": -0.2376615667,
				"z": 0.4579437817,
				"element": "H" 
			},
			{
				"x": -4.4550681831,
				"y": 1.7505564711,
				"z": -0.0981565465,
				"element": "H" 
			},
			{
				"x": -2.7162380122,
				"y": 3.8191565458,
				"z": 0.1104478436,
				"element": "H" 
			},
			{
				"x": 0.384102919,
				"y": 2.3852459765,
				"z": 1.8165796665,
				"element": "H" 
			},
			{
				"x": 1.6251921775,
				"y": 0.1914367257,
				"z": 2.9241898678,
				"element": "H" 
			},
			{
				"x": 3.3656651989,
				"y": -1.4169721061,
				"z": 2.2633768259,
				"element": "H" 
			}
		],
		 "valence_orbital": [ 
			{
				"type": "occ",
				"energy": -0.25313,
				"method": "rhf"
			},
			{
				"type": "occ",
				"energy": -0.23903,
				"method": "rhf"
			},
			{
				"type": "occ",
				"energy": -0.23471,
				"method": "rhf"
			},
			{
				"type": "occ",
				"energy": -0.21612,
				"method": "rhf"
			},
			{
				"type": "occ",
				"energy": -0.18076,
				"method": "rhf"
			},
			{
				"type": "unocc",
				"energy": -0.00086,
				"method": "rhf"
			},
			{
				"type": "unocc",
				"energy": 0.00849,
				"method": "rhf"
			},
			{
				"type": "unocc",
				"energy": 0.0093,
				"method": "rhf"
			},
			{
				"type": "unocc",
				"energy": 0.07593,
				"method": "rhf"
			},
			{
				"type": "unocc",
				"energy": 0.08528,
				"method": "rhf"
			}
		],
		"cosmo_sigma_profile": { 
			"-0.025": 0.0,
			"-0.024": 0.0,
			"-0.023": 0.0,
			"-0.022": 0.0,
			"-0.021": 0.0,
			"-0.02": 0.0,
			"-0.019": 0.0,
			"-0.018": 0.0,
			"-0.017": 0.0,
			"-0.016": 0.0,
			"-0.015": 0.0,
			"-0.014": 0.0,
			"-0.013": 0.0520025287217,
			"-0.012": 0.52911634898,
			"-0.011": 1.05814375544,
			"-0.01": 1.32569205309,
			"-0.009": 2.97421110944,
			"-0.008": 4.13036648204,
			"-0.007": 7.3344151785,
			"-0.006": 20.1198544468,
			"-0.005": 29.1049548161,
			"-0.004": 27.3326721503,
			"-0.003": 26.8143661524,
			"-0.002": 18.6120007243,
			"-0.001": 14.9783860628,
			"0.0": 11.1952265855,
			"0.001": 10.4425641295,
			"0.002": 13.319805745,
			"0.003": 15.1793366441,
			"0.004": 20.5128562686,
			"0.005": 18.4266488648,
			"0.006": 9.09600552315,
			"0.007": 4.26786466123,
			"0.008": 3.40720294766,
			"0.009": 3.44910804401,
			"0.01": 3.75988622654,
			"0.011": 1.52215789835,
			"0.012": 1.29614145263,
			"0.013": 0.801946112487,
			"0.014": 1.56181860978,
			"0.015": 1.44332928886,
			"0.016": 1.30071735894,
			"0.017": 1.4230565224,
			"0.018": 1.11206675627,
			"0.019": 1.56771773693,
			"0.02": 1.11217723476,
			"0.021": 0.214940195544,
			"0.022": 0.0,
			"0.023": 0.0,
			"0.024": 0.0,
			"0.025": 0.0
		}
	}
}
