{
	 "smiles": "OCC1=C(Cl)C=CC(=C1)[N+]([O-])=O", 
	 "Tm": 350.65, 
	 "num_atms": 18, 
	 "gaussian": { 
		 "optdone": 1, 
		 "sigma_profile": "yes", 
		 "theory": "DFT", 
		 "functional": "B3LYP", 
		 "basiset": "6-31G**", 
		 "properties": { 
			 "R2extent": 3434.4948, 
			 "electric_dipole_moment_norm": 3.69578888737, 
			 "electric_quadrupole_moment_norm": 11.5264303824, 
			 "total_energy": -1010.86534672, 
			 "HOMO_LUMO_gap": 0.17904, 
			 "cosmo_polarized_energy": -11.6, 
			 "cosmo_cavitation_energy": 24.82, 
			 "cosmo_dispersion_energy": -18.37, 
			 "cosmo_repulsion_energy": 1.47, 
			 "cosmo_total_nonelectrostatic_energy": 7.92, 
			 "SMD_solvation_energy": 6.32 
		},
		"coords": [
			{
				"x": -2.2472656522,
				"y": 1.2960624171,
				"z": 0.9621001694,
				"element": "O" 
			},
			{
				"x": -1.1413301302,
				"y": 1.8865646982,
				"z": 1.6156983639,
				"element": "C" 
			},
			{
				"x": 0.1363117726,
				"y": 1.0681382851,
				"z": 1.5040603964,
				"element": "C" 
			},
			{
				"x": 1.3009929666,
				"y": 1.3974401114,
				"z": 2.2149636926,
				"element": "C" 
			},
			{
				"x": 1.3048028225,
				"y": 2.8004213581,
				"z": 3.2717920869,
				"element": "Cl" 
			},
			{
				"x": 2.4746156023,
				"y": 0.6481943808,
				"z": 2.1098178804,
				"element": "C" 
			},
			{
				"x": 2.5075470347,
				"y": -0.4634405738,
				"z": 1.2742165764,
				"element": "C" 
			},
			{
				"x": 1.3563273866,
				"y": -0.7894544389,
				"z": 0.5621627037,
				"element": "C" 
			},
			{
				"x": 0.1855104126,
				"y": -0.0436383877,
				"z": 0.662288576,
				"element": "C" 
			},
			{
				"x": 1.3779831096,
				"y": -1.9625319954,
				"z": -0.3263929128,
				"element": "N" 
			},
			{
				"x": 2.4318280643,
				"y": -2.592484433,
				"z": -0.4102346119,
				"element": "O" 
			},
			{
				"x": 0.3420068376,
				"y": -2.242162598,
				"z": -0.927636744,
				"element": "O" 
			},
			{
				"x": -2.5425297323,
				"y": 0.5411222993,
				"z": 1.4881178307,
				"element": "H" 
			},
			{
				"x": -1.3531261342,
				"y": 2.0913998039,
				"z": 2.674557952,
				"element": "H" 
			},
			{
				"x": -0.9888352044,
				"y": 2.8608219769,
				"z": 1.1372317625,
				"element": "H" 
			},
			{
				"x": 3.3501635497,
				"y": 0.9374694807,
				"z": 2.6797078601,
				"element": "H" 
			},
			{
				"x": 3.3978583081,
				"y": -1.0698765941,
				"z": 1.1681512226,
				"element": "H" 
			},
			{
				"x": -0.6863610138,
				"y": -0.3178457905,
				"z": 0.082597195,
				"element": "H" 
			}
		],
		 "valence_orbital": [ 
			{
				"type": "occ",
				"energy": -0.31269,
				"method": "rhf"
			},
			{
				"type": "occ",
				"energy": -0.30071,
				"method": "rhf"
			},
			{
				"type": "occ",
				"energy": -0.29511,
				"method": "rhf"
			},
			{
				"type": "occ",
				"energy": -0.28452,
				"method": "rhf"
			},
			{
				"type": "occ",
				"energy": -0.27461,
				"method": "rhf"
			},
			{
				"type": "unocc",
				"energy": -0.09557,
				"method": "rhf"
			},
			{
				"type": "unocc",
				"energy": -0.03741,
				"method": "rhf"
			},
			{
				"type": "unocc",
				"energy": -0.0116,
				"method": "rhf"
			},
			{
				"type": "unocc",
				"energy": 0.00995,
				"method": "rhf"
			},
			{
				"type": "unocc",
				"energy": 0.05877,
				"method": "rhf"
			}
		],
		"cosmo_sigma_profile": { 
			"-0.025": 0.0,
			"-0.024": 0.0,
			"-0.023": 0.0,
			"-0.022": 0.0,
			"-0.021": 0.0,
			"-0.02": 0.0,
			"-0.019": 0.0,
			"-0.018": 0.0,
			"-0.017": 0.100687719714,
			"-0.016": 1.01468121079,
			"-0.015": 1.3183163068,
			"-0.014": 0.848487092387,
			"-0.013": 0.773108416783,
			"-0.012": 1.01413722105,
			"-0.011": 1.71166571627,
			"-0.01": 0.886336389556,
			"-0.009": 1.42983980565,
			"-0.008": 4.6740966281,
			"-0.007": 6.19787472432,
			"-0.006": 9.19886395383,
			"-0.005": 9.16149813444,
			"-0.004": 10.1239714018,
			"-0.003": 12.6658988488,
			"-0.002": 15.2780108586,
			"-0.001": 16.8608827875,
			"0.0": 23.0629445684,
			"0.001": 15.9715367015,
			"0.002": 10.6349200652,
			"0.003": 10.3981980637,
			"0.004": 7.18054218077,
			"0.005": 4.03178101936,
			"0.006": 4.79178704171,
			"0.007": 9.56133518878,
			"0.008": 8.61916196587,
			"0.009": 4.71241715394,
			"0.01": 3.28723755291,
			"0.011": 1.43285818166,
			"0.012": 1.77618949112,
			"0.013": 1.50464521489,
			"0.014": 0.337055348933,
			"0.015": 0.0,
			"0.016": 0.0,
			"0.017": 0.0,
			"0.018": 0.0,
			"0.019": 0.0,
			"0.02": 0.0,
			"0.021": 0.0,
			"0.022": 0.0,
			"0.023": 0.0,
			"0.024": 0.0,
			"0.025": 0.0
		}
	}
}
