{
	 "smiles": "CC1NC2=C(NC1=O)C=CC=N2", 
	 "Tm": 546.15, 
	 "num_atms": 21, 
	 "gaussian": { 
		 "optdone": 1, 
		 "sigma_profile": "yes", 
		 "theory": "DFT", 
		 "functional": "B3LYP", 
		 "basiset": "6-31G**", 
		 "properties": { 
			 "R2extent": 2554.0102, 
			 "electric_dipole_moment_norm": 1.66887598101, 
			 "electric_quadrupole_moment_norm": 14.214876946, 
			 "total_energy": -549.779358012, 
			 "HOMO_LUMO_gap": 0.18172, 
			 "cosmo_polarized_energy": -13.58, 
			 "cosmo_cavitation_energy": 24.41, 
			 "cosmo_dispersion_energy": -18.5, 
			 "cosmo_repulsion_energy": 1.46, 
			 "cosmo_total_nonelectrostatic_energy": 7.38, 
			 "SMD_solvation_energy": 2.47 
		},
		"coords": [
			{
				"x": -3.1203858598,
				"y": -1.0516130668,
				"z": -0.5868249649,
				"element": "C" 
			},
			{
				"x": -1.7155441836,
				"y": -0.798903154,
				"z": -1.1266780504,
				"element": "C" 
			},
			{
				"x": -0.872079303,
				"y": -0.1802463745,
				"z": -0.1045592004,
				"element": "N" 
			},
			{
				"x": 0.3525336003,
				"y": 0.3534193072,
				"z": -0.459510293,
				"element": "C" 
			},
			{
				"x": 0.4849354703,
				"y": 0.8940870132,
				"z": -1.7611188453,
				"element": "C" 
			},
			{
				"x": -0.6325374133,
				"y": 0.8412206816,
				"z": -2.6077378123,
				"element": "N" 
			},
			{
				"x": -1.7618544847,
				"y": 0.0896974284,
				"z": -2.3808054151,
				"element": "C" 
			},
			{
				"x": -2.7046202282,
				"y": 0.0900576253,
				"z": -3.1557169825,
				"element": "O" 
			},
			{
				"x": 1.6939694783,
				"y": 1.4740623896,
				"z": -2.1148264723,
				"element": "C" 
			},
			{
				"x": 2.7245676934,
				"y": 1.5153873088,
				"z": -1.166919899,
				"element": "C" 
			},
			{
				"x": 2.4905705498,
				"y": 0.9662874267,
				"z": 0.0888711336,
				"element": "C" 
			},
			{
				"x": 1.3317834295,
				"y": 0.3858715042,
				"z": 0.4425214402,
				"element": "N" 
			},
			{
				"x": -3.753713624,
				"y": -1.4502396916,
				"z": -1.3804484768,
				"element": "H" 
			},
			{
				"x": -3.0892632445,
				"y": -1.7714052311,
				"z": 0.2375361992,
				"element": "H" 
			},
			{
				"x": -3.561423834,
				"y": -0.1200971045,
				"z": -0.2218691084,
				"element": "H" 
			},
			{
				"x": -1.2903664408,
				"y": -1.7625444711,
				"z": -1.4680944659,
				"element": "H" 
			},
			{
				"x": -0.851244713,
				"y": -0.6492989269,
				"z": 0.7929930295,
				"element": "H" 
			},
			{
				"x": -0.6331288991,
				"y": 1.3678237278,
				"z": -3.4723804851,
				"element": "H" 
			},
			{
				"x": 1.8278109955,
				"y": 1.8958455239,
				"z": -3.1077038011,
				"element": "H" 
			},
			{
				"x": 3.6819556077,
				"y": 1.9649024627,
				"z": -1.4060332144,
				"element": "H" 
			},
			{
				"x": 3.2635354033,
				"y": 0.9839856211,
				"z": 0.8540056841,
				"element": "H" 
			}
		],
		 "valence_orbital": [ 
			{
				"type": "occ",
				"energy": -0.31128,
				"method": "rhf"
			},
			{
				"type": "occ",
				"energy": -0.26665,
				"method": "rhf"
			},
			{
				"type": "occ",
				"energy": -0.2649,
				"method": "rhf"
			},
			{
				"type": "occ",
				"energy": -0.25316,
				"method": "rhf"
			},
			{
				"type": "occ",
				"energy": -0.20532,
				"method": "rhf"
			},
			{
				"type": "unocc",
				"energy": -0.0236,
				"method": "rhf"
			},
			{
				"type": "unocc",
				"energy": -0.00628,
				"method": "rhf"
			},
			{
				"type": "unocc",
				"energy": 0.02908,
				"method": "rhf"
			},
			{
				"type": "unocc",
				"energy": 0.08126,
				"method": "rhf"
			},
			{
				"type": "unocc",
				"energy": 0.09235,
				"method": "rhf"
			}
		],
		"cosmo_sigma_profile": { 
			"-0.025": 0.0,
			"-0.024": 0.0,
			"-0.023": 0.0,
			"-0.022": 0.0,
			"-0.021": 0.0,
			"-0.02": 0.0,
			"-0.019": 0.0,
			"-0.018": 0.0,
			"-0.017": 0.0,
			"-0.016": 0.0928938549611,
			"-0.015": 1.0454874734,
			"-0.014": 1.33317694056,
			"-0.013": 1.26078035256,
			"-0.012": 2.23144583429,
			"-0.011": 2.39494736545,
			"-0.01": 2.19782290123,
			"-0.009": 3.01870165438,
			"-0.008": 2.20584686623,
			"-0.007": 4.48403287809,
			"-0.006": 10.6636202605,
			"-0.005": 12.6002449251,
			"-0.004": 13.9989112248,
			"-0.003": 12.7101417511,
			"-0.002": 13.0543864624,
			"-0.001": 12.7361716713,
			"0.0": 15.1418370515,
			"0.001": 13.5643107593,
			"0.002": 9.88805771222,
			"0.003": 10.7964663077,
			"0.004": 10.9118317913,
			"0.005": 5.02508210652,
			"0.006": 4.51230061099,
			"0.007": 3.2900996858,
			"0.008": 2.90982449327,
			"0.009": 3.58192960831,
			"0.01": 2.61057943308,
			"0.011": 3.16135753718,
			"0.012": 3.91355493349,
			"0.013": 5.95491886256,
			"0.014": 1.25656896245,
			"0.015": 0.966539944905,
			"0.016": 0.236234748059,
			"0.017": 0.0,
			"0.018": 0.0,
			"0.019": 0.0,
			"0.02": 0.0,
			"0.021": 0.0,
			"0.022": 0.0,
			"0.023": 0.0,
			"0.024": 0.0,
			"0.025": 0.0
		}
	}
}
