{
	 "smiles": "CC1=CC(Cl)=C(Cl)C(Cl)=C1", 
	 "Tm": 318.65, 
	 "num_atms": 15, 
	 "gaussian": { 
		 "optdone": 1, 
		 "sigma_profile": "yes", 
		 "theory": "DFT", 
		 "functional": "B3LYP", 
		 "basiset": "6-31G**", 
		 "properties": { 
			 "R2extent": 4105.3639, 
			 "electric_dipole_moment_norm": 3.37141261491, 
			 "electric_quadrupole_moment_norm": 4.94786219897, 
			 "total_energy": -1650.33537, 
			 "HOMO_LUMO_gap": 0.22013, 
			 "cosmo_polarized_energy": -4.53, 
			 "cosmo_cavitation_energy": 24.23, 
			 "cosmo_dispersion_energy": -18.33, 
			 "cosmo_repulsion_energy": 1.49, 
			 "cosmo_total_nonelectrostatic_energy": 7.39, 
			 "SMD_solvation_energy": 3.48 
		},
		"coords": [
			{
				"x": 1.5258473082,
				"y": 1.2712521355,
				"z": 0.209736588,
				"element": "C" 
			},
			{
				"x": 0.3323049946,
				"y": 0.7956504762,
				"z": -0.5837158315,
				"element": "C" 
			},
			{
				"x": -0.5602032202,
				"y": -0.134782893,
				"z": -0.0445725681,
				"element": "C" 
			},
			{
				"x": -1.6457222056,
				"y": -0.597760701,
				"z": -0.7861352602,
				"element": "C" 
			},
			{
				"x": -2.7201355067,
				"y": -1.7582280295,
				"z": -0.0434467525,
				"element": "Cl" 
			},
			{
				"x": -1.8751481757,
				"y": -0.1410348958,
				"z": -2.0943614429,
				"element": "C" 
			},
			{
				"x": -3.2309834661,
				"y": -0.7119801036,
				"z": -3.0189069134,
				"element": "Cl" 
			},
			{
				"x": -0.9762997889,
				"y": 0.7965290403,
				"z": -2.6288936613,
				"element": "C" 
			},
			{
				"x": -1.19346737,
				"y": 1.421504886,
				"z": -4.2459355811,
				"element": "Cl" 
			},
			{
				"x": 0.1078995672,
				"y": 1.2567638109,
				"z": -1.8836966473,
				"element": "C" 
			},
			{
				"x": 1.8129662691,
				"y": 2.2876925068,
				"z": -0.0733694551,
				"element": "H" 
			},
			{
				"x": 1.3199338103,
				"y": 1.2610397262,
				"z": 1.2836223207,
				"element": "H" 
			},
			{
				"x": 2.3945740528,
				"y": 0.624605807,
				"z": 0.0361329231,
				"element": "H" 
			},
			{
				"x": -0.4204188153,
				"y": -0.5098073864,
				"z": 0.9635892248,
				"element": "H" 
			},
			{
				"x": 0.7767525463,
				"y": 1.9836556205,
				"z": -2.3318469432,
				"element": "H" 
			}
		],
		 "valence_orbital": [ 
			{
				"type": "occ",
				"energy": -0.32692,
				"method": "rhf"
			},
			{
				"type": "occ",
				"energy": -0.32318,
				"method": "rhf"
			},
			{
				"type": "occ",
				"energy": -0.30578,
				"method": "rhf"
			},
			{
				"type": "occ",
				"energy": -0.25754,
				"method": "rhf"
			},
			{
				"type": "occ",
				"energy": -0.2524,
				"method": "rhf"
			},
			{
				"type": "unocc",
				"energy": -0.03227,
				"method": "rhf"
			},
			{
				"type": "unocc",
				"energy": -0.03043,
				"method": "rhf"
			},
			{
				"type": "unocc",
				"energy": -0.01746,
				"method": "rhf"
			},
			{
				"type": "unocc",
				"energy": 0.04549,
				"method": "rhf"
			},
			{
				"type": "unocc",
				"energy": 0.06264,
				"method": "rhf"
			}
		],
		"cosmo_sigma_profile": { 
			"-0.025": 0.0,
			"-0.024": 0.0,
			"-0.023": 0.0,
			"-0.022": 0.0,
			"-0.021": 0.0,
			"-0.02": 0.0,
			"-0.019": 0.0,
			"-0.018": 0.0,
			"-0.017": 0.0,
			"-0.016": 0.0,
			"-0.015": 0.0,
			"-0.014": 0.0,
			"-0.013": 0.0,
			"-0.012": 0.0,
			"-0.011": 0.0,
			"-0.01": 0.0,
			"-0.009": 0.0,
			"-0.008": 1.5300425059,
			"-0.007": 4.14606727134,
			"-0.006": 5.57785406572,
			"-0.005": 8.42251748331,
			"-0.004": 9.88398215854,
			"-0.003": 13.6762349904,
			"-0.002": 15.0977811545,
			"-0.001": 21.8088340484,
			"0.0": 26.6110427883,
			"0.001": 24.3170545656,
			"0.002": 19.9885560077,
			"0.003": 20.2714214868,
			"0.004": 23.2427231066,
			"0.005": 6.09094093462,
			"0.006": 0.0392016163343,
			"0.007": 0.0,
			"0.008": 0.0,
			"0.009": 0.0,
			"0.01": 0.0,
			"0.011": 0.0,
			"0.012": 0.0,
			"0.013": 0.0,
			"0.014": 0.0,
			"0.015": 0.0,
			"0.016": 0.0,
			"0.017": 0.0,
			"0.018": 0.0,
			"0.019": 0.0,
			"0.02": 0.0,
			"0.021": 0.0,
			"0.022": 0.0,
			"0.023": 0.0,
			"0.024": 0.0,
			"0.025": 0.0
		}
	}
}
