{
	 "smiles": "COCCS(=O)(=O)C1=C(Cl)C(C(O)=O)=C(Cl)C=C1", 
	 "Tm": 403.15, 
	 "num_atms": 28, 
	 "gaussian": { 
		 "optdone": 1, 
		 "sigma_profile": "yes", 
		 "theory": "DFT", 
		 "functional": "B3LYP", 
		 "basiset": "6-31G**", 
		 "properties": { 
			 "R2extent": 8463.2303, 
			 "electric_dipole_moment_norm": 7.23894087971, 
			 "electric_quadrupole_moment_norm": 24.1969728828, 
			 "total_energy": -2081.6817673, 
			 "HOMO_LUMO_gap": 0.2012, 
			 "cosmo_polarized_energy": -27.51, 
			 "cosmo_cavitation_energy": 37.7, 
			 "cosmo_dispersion_energy": -26.67, 
			 "cosmo_repulsion_energy": 2.04, 
			 "cosmo_total_nonelectrostatic_energy": 13.07, 
			 "SMD_solvation_energy": 6.91 
		},
		"coords": [
			{
				"x": -2.4982297977,
				"y": -3.156899578,
				"z": -2.3546435415,
				"element": "C" 
			},
			{
				"x": -1.5390452846,
				"y": -2.6746904679,
				"z": -1.433185352,
				"element": "O" 
			},
			{
				"x": -2.030956034,
				"y": -1.6384732074,
				"z": -0.6188886497,
				"element": "C" 
			},
			{
				"x": -0.8788650873,
				"y": -1.0964283129,
				"z": 0.2140860802,
				"element": "C" 
			},
			{
				"x": 0.3395970914,
				"y": -0.2139847867,
				"z": -0.835806384,
				"element": "S" 
			},
			{
				"x": -0.4347754708,
				"y": 0.6084802642,
				"z": -1.7824463199,
				"element": "O" 
			},
			{
				"x": 1.3809663846,
				"y": -1.1269905783,
				"z": -1.3109627432,
				"element": "O" 
			},
			{
				"x": 1.1098408932,
				"y": 0.9845838052,
				"z": 0.3133362641,
				"element": "C" 
			},
			{
				"x": 1.9271848741,
				"y": 0.6371879367,
				"z": 1.3966622185,
				"element": "C" 
			},
			{
				"x": 2.2045164653,
				"y": -1.0332583227,
				"z": 1.8334731609,
				"element": "Cl" 
			},
			{
				"x": 2.5291009533,
				"y": 1.6307705359,
				"z": 2.1855302335,
				"element": "C" 
			},
			{
				"x": 3.4756957687,
				"y": 1.2589740525,
				"z": 3.31478413,
				"element": "C" 
			},
			{
				"x": 2.9348250342,
				"y": 1.2778373259,
				"z": 4.5537319972,
				"element": "O" 
			},
			{
				"x": 4.6264848079,
				"y": 0.9691081697,
				"z": 3.1338363588,
				"element": "O" 
			},
			{
				"x": 2.2991518155,
				"y": 2.9737425553,
				"z": 1.854666019,
				"element": "C" 
			},
			{
				"x": 3.0262814479,
				"y": 4.237573863,
				"z": 2.8233298186,
				"element": "Cl" 
			},
			{
				"x": 1.4976591495,
				"y": 3.3324838313,
				"z": 0.7733137416,
				"element": "C" 
			},
			{
				"x": 0.9079463523,
				"y": 2.3322147811,
				"z": 0.0080057098,
				"element": "C" 
			},
			{
				"x": -2.0134590794,
				"y": -3.9421619643,
				"z": -2.9377565071,
				"element": "H" 
			},
			{
				"x": -2.8396273227,
				"y": -2.363462493,
				"z": -3.0357253864,
				"element": "H" 
			},
			{
				"x": -3.3762104301,
				"y": -3.5816176256,
				"z": -1.8430547168,
				"element": "H" 
			},
			{
				"x": -2.8096446021,
				"y": -2.006541763,
				"z": 0.0725269137,
				"element": "H" 
			},
			{
				"x": -2.470530631,
				"y": -0.8286451854,
				"z": -1.2199724442,
				"element": "H" 
			},
			{
				"x": -1.2432353985,
				"y": -0.3646015717,
				"z": 0.9404868153,
				"element": "H" 
			},
			{
				"x": -0.34165692,
				"y": -1.8965685053,
				"z": 0.7245146376,
				"element": "H" 
			},
			{
				"x": 2.0049857247,
				"y": 1.5447647398,
				"z": 4.5114054459,
				"element": "H" 
			},
			{
				"x": 1.3426820814,
				"y": 4.378702314,
				"z": 0.5369919438,
				"element": "H" 
			},
			{
				"x": 0.2826172139,
				"y": 2.5777001875,
				"z": -0.8433394437,
				"element": "H" 
			}
		],
		 "valence_orbital": [ 
			{
				"type": "occ",
				"energy": -0.30265,
				"method": "rhf"
			},
			{
				"type": "occ",
				"energy": -0.30106,
				"method": "rhf"
			},
			{
				"type": "occ",
				"energy": -0.28192,
				"method": "rhf"
			},
			{
				"type": "occ",
				"energy": -0.28164,
				"method": "rhf"
			},
			{
				"type": "occ",
				"energy": -0.26916,
				"method": "rhf"
			},
			{
				"type": "unocc",
				"energy": -0.06796,
				"method": "rhf"
			},
			{
				"type": "unocc",
				"energy": -0.05932,
				"method": "rhf"
			},
			{
				"type": "unocc",
				"energy": -0.01998,
				"method": "rhf"
			},
			{
				"type": "unocc",
				"energy": -0.01471,
				"method": "rhf"
			},
			{
				"type": "unocc",
				"energy": 0.01801,
				"method": "rhf"
			}
		],
		"cosmo_sigma_profile": { 
			"-0.025": 0.0,
			"-0.024": 0.0,
			"-0.023": 0.0,
			"-0.022": 0.0,
			"-0.021": 0.0,
			"-0.02": 0.821269526737,
			"-0.019": 0.63747783345,
			"-0.018": 1.23756314342,
			"-0.017": 0.536440191869,
			"-0.016": 0.809763462244,
			"-0.015": 0.957212393673,
			"-0.014": 1.04025158145,
			"-0.013": 1.45264873497,
			"-0.012": 0.828270301466,
			"-0.011": 0.713660322526,
			"-0.01": 2.80746197619,
			"-0.009": 6.49265934083,
			"-0.008": 8.33475182912,
			"-0.007": 7.94938822193,
			"-0.006": 10.8613567321,
			"-0.005": 18.4471690858,
			"-0.004": 24.3694501564,
			"-0.003": 25.0816225003,
			"-0.002": 27.7946247778,
			"-0.001": 21.5049406736,
			"0.0": 15.6723340147,
			"0.001": 16.3055514995,
			"0.002": 16.9963802841,
			"0.003": 13.6645543941,
			"0.004": 6.74778760733,
			"0.005": 6.93769384761,
			"0.006": 5.97316234469,
			"0.007": 7.0735564867,
			"0.008": 9.49252649871,
			"0.009": 10.6342523706,
			"0.01": 14.5546175371,
			"0.011": 13.0848792938,
			"0.012": 4.48740054795,
			"0.013": 0.0391706532668,
			"0.014": 0.0,
			"0.015": 0.0,
			"0.016": 0.0,
			"0.017": 0.0,
			"0.018": 0.0,
			"0.019": 0.0,
			"0.02": 0.0,
			"0.021": 0.0,
			"0.022": 0.0,
			"0.023": 0.0,
			"0.024": 0.0,
			"0.025": 0.0
		}
	}
}
