{
	 "smiles": "IC1=CC(C#N)=C(C=C1)C#N", 
	 "Tm": 414.15, 
	 "num_atms": 14, 
	 "gaussian": { 
		 "optdone": 1, 
		 "sigma_profile": "yes", 
		 "theory": "DFT", 
		 "functional": "B3LYP", 
		 "basiset": "6-31G**", 
		 "properties": { 
			 "R2extent": 1914.0189, 
			 "electric_dipole_moment_norm": 6.02693034471, 
			 "electric_quadrupole_moment_norm": 11.5610731228, 
			 "total_energy": -427.503157974, 
			 "HOMO_LUMO_gap": 0.177, 
			 "cosmo_polarized_energy": -13.46, 
			 "cosmo_cavitation_energy": 24.59, 
			 "cosmo_dispersion_energy": -18.15, 
			 "cosmo_repulsion_energy": 1.43, 
			 "cosmo_total_nonelectrostatic_energy": 7.87, 
			 "SMD_solvation_energy": 6.0 
		},
		"coords": [
			{
				"x": -0.636626532,
				"y": 3.4803156519,
				"z": -1.8227459641,
				"element": "I" 
			},
			{
				"x": -0.5128970215,
				"y": 1.54199224,
				"z": -0.9987660206,
				"element": "C" 
			},
			{
				"x": 0.4557718914,
				"y": 0.6566957759,
				"z": -1.4707494505,
				"element": "C" 
			},
			{
				"x": 0.5430657148,
				"y": -0.6331455183,
				"z": -0.9271327261,
				"element": "C" 
			},
			{
				"x": 1.544411323,
				"y": -1.5301287428,
				"z": -1.4237763113,
				"element": "C" 
			},
			{
				"x": 2.3655773661,
				"y": -2.2372040738,
				"z": -1.8448218775,
				"element": "N" 
			},
			{
				"x": -0.3501981076,
				"y": -1.0304545245,
				"z": 0.0959780509,
				"element": "C" 
			},
			{
				"x": -1.3149764303,
				"y": -0.1216740533,
				"z": 0.5529810632,
				"element": "C" 
			},
			{
				"x": -1.3999706782,
				"y": 1.1583915789,
				"z": 0.0120039575,
				"element": "C" 
			},
			{
				"x": -0.2841569981,
				"y": -2.3409475298,
				"z": 0.669299031,
				"element": "C" 
			},
			{
				"x": -0.2542941286,
				"y": -3.3977212765,
				"z": 1.153355146,
				"element": "N" 
			},
			{
				"x": 1.1457593489,
				"y": 0.9476720441,
				"z": -2.253380771,
				"element": "H" 
			},
			{
				"x": -1.9994982253,
				"y": -0.4262430837,
				"z": 1.337078174,
				"element": "H" 
			},
			{
				"x": -2.1516675226,
				"y": 1.8487515121,
				"z": 0.3766776985,
				"element": "H" 
			}
		],
		 "valence_orbital": [ 
			{
				"type": "occ",
				"energy": -0.35074,
				"method": "rhf"
			},
			{
				"type": "occ",
				"energy": -0.32101,
				"method": "rhf"
			},
			{
				"type": "occ",
				"energy": -0.30122,
				"method": "rhf"
			},
			{
				"type": "occ",
				"energy": -0.29798,
				"method": "rhf"
			},
			{
				"type": "occ",
				"energy": -0.27396,
				"method": "rhf"
			},
			{
				"type": "unocc",
				"energy": -0.09696,
				"method": "rhf"
			},
			{
				"type": "unocc",
				"energy": -0.07197,
				"method": "rhf"
			},
			{
				"type": "unocc",
				"energy": -0.06976,
				"method": "rhf"
			},
			{
				"type": "unocc",
				"energy": 0.00378,
				"method": "rhf"
			},
			{
				"type": "unocc",
				"energy": 0.02088,
				"method": "rhf"
			}
		],
		"cosmo_sigma_profile": { 
			"-0.025": 0.0,
			"-0.024": 0.0,
			"-0.023": 0.0,
			"-0.022": 0.0,
			"-0.021": 0.0,
			"-0.02": 0.0,
			"-0.019": 0.0,
			"-0.018": 0.0,
			"-0.017": 0.0,
			"-0.016": 0.0,
			"-0.015": 0.0,
			"-0.014": 0.0,
			"-0.013": 0.0,
			"-0.012": 0.0,
			"-0.011": 0.0,
			"-0.01": 2.57532044299,
			"-0.009": 6.93436884751,
			"-0.008": 8.82143890637,
			"-0.007": 6.23196740817,
			"-0.006": 8.82418560333,
			"-0.005": 9.21200448829,
			"-0.004": 13.5130399233,
			"-0.003": 16.4597359532,
			"-0.002": 17.1951948605,
			"-0.001": 20.6106750009,
			"0.0": 9.79110036664,
			"0.001": 9.06550122651,
			"0.002": 12.7717367149,
			"0.003": 15.2534975271,
			"0.004": 7.42651386787,
			"0.005": 4.43413700461,
			"0.006": 5.63922738722,
			"0.007": 6.4974067343,
			"0.008": 6.14659207743,
			"0.009": 6.25508418864,
			"0.01": 5.01689562938,
			"0.011": 4.75694267342,
			"0.012": 2.87489844893,
			"0.013": 0.0557227104484,
			"0.014": 0.0,
			"0.015": 0.0,
			"0.016": 0.0,
			"0.017": 0.0,
			"0.018": 0.0,
			"0.019": 0.0,
			"0.02": 0.0,
			"0.021": 0.0,
			"0.022": 0.0,
			"0.023": 0.0,
			"0.024": 0.0,
			"0.025": 0.0
		}
	}
}
