{
	 "smiles": "CCCN(CCC)C1=C(C=C(C=C1[N+]([O-])=O)S(N)(=O)=O)[N+]([O-])=O", 
	 "Tm": 414.15, 
	 "num_atms": 41, 
	 "gaussian": { 
		 "optdone": 1, 
		 "sigma_profile": "yes", 
		 "theory": "DFT", 
		 "functional": "B3LYP", 
		 "basiset": "6-31G**", 
		 "properties": { 
			 "R2extent": 8536.3896, 
			 "electric_dipole_moment_norm": 5.09086094291, 
			 "electric_quadrupole_moment_norm": 31.2986276023, 
			 "total_energy": -1536.36542018, 
			 "HOMO_LUMO_gap": 0.1265, 
			 "cosmo_polarized_energy": -24.57, 
			 "cosmo_cavitation_energy": 44.71, 
			 "cosmo_dispersion_energy": -30.51, 
			 "cosmo_repulsion_energy": 2.3, 
			 "cosmo_total_nonelectrostatic_energy": 16.51, 
			 "SMD_solvation_energy": 11.39 
		},
		"coords": [
			{
				"x": 3.9571098201,
				"y": 1.3604771878,
				"z": 1.0689431496,
				"element": "C" 
			},
			{
				"x": 3.4360550633,
				"y": -0.0528052901,
				"z": 0.7920523926,
				"element": "C" 
			},
			{
				"x": 2.2648581158,
				"y": -0.5199570145,
				"z": 1.6764988403,
				"element": "C" 
			},
			{
				"x": 0.9872369228,
				"y": 0.1639920107,
				"z": 1.4040870904,
				"element": "N" 
			},
			{
				"x": 0.6478859478,
				"y": 1.3631079203,
				"z": 2.1908472941,
				"element": "C" 
			},
			{
				"x": -0.2070561059,
				"y": 1.0799532038,
				"z": 3.4403404994,
				"element": "C" 
			},
			{
				"x": 0.5038991527,
				"y": 0.3414550119,
				"z": 4.578156703,
				"element": "C" 
			},
			{
				"x": 0.1301035614,
				"y": -0.3058318379,
				"z": 0.4310551056,
				"element": "C" 
			},
			{
				"x": -0.4364063348,
				"y": 0.5216960144,
				"z": -0.5810878793,
				"element": "C" 
			},
			{
				"x": -1.3347325439,
				"y": 0.0696618141,
				"z": -1.5392171397,
				"element": "C" 
			},
			{
				"x": -1.6551389542,
				"y": -1.2843899771,
				"z": -1.5941835802,
				"element": "C" 
			},
			{
				"x": -1.0922531715,
				"y": -2.1648961011,
				"z": -0.6749366921,
				"element": "C" 
			},
			{
				"x": -0.2723944589,
				"y": -1.6685629455,
				"z": 0.3317921463,
				"element": "C" 
			},
			{
				"x": 0.065234509,
				"y": -2.6509425829,
				"z": 1.3803652333,
				"element": "N" 
			},
			{
				"x": -0.0728377246,
				"y": -2.3038066669,
				"z": 2.5509699961,
				"element": "O" 
			},
			{
				"x": 0.4095497367,
				"y": -3.7704498947,
				"z": 1.0090491175,
				"element": "O" 
			},
			{
				"x": -2.780169512,
				"y": -1.8946486341,
				"z": -2.8588232423,
				"element": "S" 
			},
			{
				"x": -4.331804627,
				"y": -1.7632328765,
				"z": -2.2487919706,
				"element": "N" 
			},
			{
				"x": -2.5225530189,
				"y": -3.3257579792,
				"z": -2.9888268283,
				"element": "O" 
			},
			{
				"x": -2.7092564861,
				"y": -0.9507508577,
				"z": -3.9704682626,
				"element": "O" 
			},
			{
				"x": -0.0030479433,
				"y": 1.9203693446,
				"z": -0.767345717,
				"element": "N" 
			},
			{
				"x": -0.8811213994,
				"y": 2.7463061519,
				"z": -1.0101979631,
				"element": "O" 
			},
			{
				"x": 1.1999373489,
				"y": 2.1595735248,
				"z": -0.7159315434,
				"element": "O" 
			},
			{
				"x": 4.2399883687,
				"y": 1.4812898985,
				"z": 2.1217347427,
				"element": "H" 
			},
			{
				"x": 4.8472869393,
				"y": 1.5645495932,
				"z": 0.4655228162,
				"element": "H" 
			},
			{
				"x": 3.2138751515,
				"y": 2.1209183494,
				"z": 0.8187615766,
				"element": "H" 
			},
			{
				"x": 4.2493654337,
				"y": -0.7748246449,
				"z": 0.946169827,
				"element": "H" 
			},
			{
				"x": 3.138960516,
				"y": -0.1395937932,
				"z": -0.2597715093,
				"element": "H" 
			},
			{
				"x": 2.5048919556,
				"y": -0.3754099195,
				"z": 2.7333419005,
				"element": "H" 
			},
			{
				"x": 2.1492095797,
				"y": -1.5960916391,
				"z": 1.5393498284,
				"element": "H" 
			},
			{
				"x": 0.1088549318,
				"y": 2.0798055716,
				"z": 1.569148753,
				"element": "H" 
			},
			{
				"x": 1.5823288423,
				"y": 1.8547239006,
				"z": 2.474013877,
				"element": "H" 
			},
			{
				"x": -1.0999543753,
				"y": 0.5206707161,
				"z": 3.1359890572,
				"element": "H" 
			},
			{
				"x": -0.5593468209,
				"y": 2.0543299409,
				"z": 3.8052578292,
				"element": "H" 
			},
			{
				"x": -0.1480377959,
				"y": 0.2702518642,
				"z": 5.4546470134,
				"element": "H" 
			},
			{
				"x": 1.4132236553,
				"y": 0.8703661622,
				"z": 4.8882384107,
				"element": "H" 
			},
			{
				"x": 0.7747754743,
				"y": -0.6768369229,
				"z": 4.2903468442,
				"element": "H" 
			},
			{
				"x": -1.7189605729,
				"y": 0.7625907566,
				"z": -2.2791003633,
				"element": "H" 
			},
			{
				"x": -1.3092712577,
				"y": -3.2263497769,
				"z": -0.7142725315,
				"element": "H" 
			},
			{
				"x": -4.6488377405,
				"y": -0.8085311876,
				"z": -2.1200427898,
				"element": "H" 
			},
			{
				"x": -4.525550183,
				"y": -2.3804183951,
				"z": -1.4677820319,
				"element": "H" 
			}
		],
		 "valence_orbital": [ 
			{
				"type": "occ",
				"energy": -0.31902,
				"method": "rhf"
			},
			{
				"type": "occ",
				"energy": -0.31472,
				"method": "rhf"
			},
			{
				"type": "occ",
				"energy": -0.30144,
				"method": "rhf"
			},
			{
				"type": "occ",
				"energy": -0.29761,
				"method": "rhf"
			},
			{
				"type": "occ",
				"energy": -0.23546,
				"method": "rhf"
			},
			{
				"type": "unocc",
				"energy": -0.10896,
				"method": "rhf"
			},
			{
				"type": "unocc",
				"energy": -0.10525,
				"method": "rhf"
			},
			{
				"type": "unocc",
				"energy": -0.05784,
				"method": "rhf"
			},
			{
				"type": "unocc",
				"energy": -0.04355,
				"method": "rhf"
			},
			{
				"type": "unocc",
				"energy": 0.03209,
				"method": "rhf"
			}
		],
		"cosmo_sigma_profile": { 
			"-0.025": 0.0,
			"-0.024": 0.0,
			"-0.023": 0.0,
			"-0.022": 0.0,
			"-0.021": 0.0,
			"-0.02": 0.0,
			"-0.019": 0.0,
			"-0.018": 0.0,
			"-0.017": 0.0,
			"-0.016": 1.23871623504,
			"-0.015": 3.17129410413,
			"-0.014": 2.72136992348,
			"-0.013": 3.30667157778,
			"-0.012": 3.53924012605,
			"-0.011": 2.11699513042,
			"-0.01": 1.8779052202,
			"-0.009": 4.23361678545,
			"-0.008": 7.62711488008,
			"-0.007": 7.17840709979,
			"-0.006": 7.59699472137,
			"-0.005": 11.6584880092,
			"-0.004": 21.5933045847,
			"-0.003": 41.1837394364,
			"-0.002": 34.940788874,
			"-0.001": 27.5250235239,
			"0.0": 27.9890707367,
			"0.001": 21.99302018,
			"0.002": 13.9852849256,
			"0.003": 10.8440042764,
			"0.004": 10.358425747,
			"0.005": 11.4966679798,
			"0.006": 15.4738000093,
			"0.007": 17.2010032036,
			"0.008": 13.1363041254,
			"0.009": 9.73242089952,
			"0.01": 9.36324296882,
			"0.011": 8.87702613068,
			"0.012": 0.673657118028,
			"0.013": 0.0,
			"0.014": 0.0,
			"0.015": 0.0,
			"0.016": 0.0,
			"0.017": 0.0,
			"0.018": 0.0,
			"0.019": 0.0,
			"0.02": 0.0,
			"0.021": 0.0,
			"0.022": 0.0,
			"0.023": 0.0,
			"0.024": 0.0,
			"0.025": 0.0
		}
	}
}
