{
	 "smiles": "CC1=C(N2C=CC=C2)C(=CC=C1)C(O)=O", 
	 "Tm": 401.15, 
	 "num_atms": 26, 
	 "gaussian": { 
		 "optdone": 1, 
		 "sigma_profile": "yes", 
		 "theory": "DFT", 
		 "functional": "B3LYP", 
		 "basiset": "6-31G**", 
		 "properties": { 
			 "R2extent": 3273.8634, 
			 "electric_dipole_moment_norm": 2.0889910603, 
			 "electric_quadrupole_moment_norm": 7.61885473939, 
			 "total_energy": -669.1054362, 
			 "HOMO_LUMO_gap": 0.15429, 
			 "cosmo_polarized_energy": -11.59, 
			 "cosmo_cavitation_energy": 29.88, 
			 "cosmo_dispersion_energy": -20.96, 
			 "cosmo_repulsion_energy": 1.64, 
			 "cosmo_total_nonelectrostatic_energy": 10.55, 
			 "SMD_solvation_energy": 7.25 
		},
		"coords": [
			{
				"x": 1.1922511855,
				"y": 1.7733022974,
				"z": -0.6376599559,
				"element": "C" 
			},
			{
				"x": 0.1077078431,
				"y": 0.7223863361,
				"z": -0.633872179,
				"element": "C" 
			},
			{
				"x": 0.2313732419,
				"y": -0.4462234602,
				"z": 0.1444473862,
				"element": "C" 
			},
			{
				"x": 1.4008405646,
				"y": -0.5988274299,
				"z": 0.9489734886,
				"element": "N" 
			},
			{
				"x": 1.4649103465,
				"y": -0.375309433,
				"z": 2.3119868929,
				"element": "C" 
			},
			{
				"x": 2.7626280374,
				"y": -0.5849316623,
				"z": 2.7205493509,
				"element": "C" 
			},
			{
				"x": 3.5171798124,
				"y": -0.9533220944,
				"z": 1.5691433962,
				"element": "C" 
			},
			{
				"x": 2.6562761755,
				"y": -0.9515857778,
				"z": 0.4950099067,
				"element": "C" 
			},
			{
				"x": -0.8030265197,
				"y": -1.4041688564,
				"z": 0.167078431,
				"element": "C" 
			},
			{
				"x": -1.9701867935,
				"y": -1.1728911669,
				"z": -0.5750284525,
				"element": "C" 
			},
			{
				"x": -2.0931156512,
				"y": -0.0322137639,
				"z": -1.3582882379,
				"element": "C" 
			},
			{
				"x": -1.0578294446,
				"y": 0.9012661489,
				"z": -1.3879594008,
				"element": "C" 
			},
			{
				"x": -0.7779578752,
				"y": -2.693653792,
				"z": 0.9288133053,
				"element": "C" 
			},
			{
				"x": 0.4564079302,
				"y": -3.1709446233,
				"z": 1.1833766625,
				"element": "O" 
			},
			{
				"x": -1.7839238273,
				"y": -3.2956795217,
				"z": 1.2522256518,
				"element": "O" 
			},
			{
				"x": 1.4962530384,
				"y": 2.0305295245,
				"z": 0.3812954676,
				"element": "H" 
			},
			{
				"x": 2.09239602,
				"y": 1.4248985531,
				"z": -1.154592453,
				"element": "H" 
			},
			{
				"x": 0.8460852792,
				"y": 2.6812376793,
				"z": -1.1377877402,
				"element": "H" 
			},
			{
				"x": 0.5815533666,
				"y": -0.0803493025,
				"z": 2.8587915533,
				"element": "H" 
			},
			{
				"x": 3.1292125568,
				"y": -0.483300785,
				"z": 3.7325897903,
				"element": "H" 
			},
			{
				"x": 4.5697443433,
				"y": -1.1977061617,
				"z": 1.5331709837,
				"element": "H" 
			},
			{
				"x": 2.8131574835,
				"y": -1.1945087609,
				"z": -0.5452709853,
				"element": "H" 
			},
			{
				"x": -2.7625311285,
				"y": -1.9109475937,
				"z": -0.5232361983,
				"element": "H" 
			},
			{
				"x": -2.9944148143,
				"y": 0.1347376361,
				"z": -1.9401936801,
				"element": "H" 
			},
			{
				"x": -1.1586474667,
				"y": 1.7996185209,
				"z": -1.991153367,
				"element": "H" 
			},
			{
				"x": 0.3232562962,
				"y": -4.0012125106,
				"z": 1.670890383,
				"element": "H" 
			}
		],
		 "valence_orbital": [ 
			{
				"type": "occ",
				"energy": -0.2811,
				"method": "rhf"
			},
			{
				"type": "occ",
				"energy": -0.26747,
				"method": "rhf"
			},
			{
				"type": "occ",
				"energy": -0.2569,
				"method": "rhf"
			},
			{
				"type": "occ",
				"energy": -0.2302,
				"method": "rhf"
			},
			{
				"type": "occ",
				"energy": -0.20478,
				"method": "rhf"
			},
			{
				"type": "unocc",
				"energy": -0.05049,
				"method": "rhf"
			},
			{
				"type": "unocc",
				"energy": -0.01847,
				"method": "rhf"
			},
			{
				"type": "unocc",
				"energy": 0.04087,
				"method": "rhf"
			},
			{
				"type": "unocc",
				"energy": 0.04779,
				"method": "rhf"
			},
			{
				"type": "unocc",
				"energy": 0.08081,
				"method": "rhf"
			}
		],
		"cosmo_sigma_profile": { 
			"-0.025": 0.0,
			"-0.024": 0.0,
			"-0.023": 0.0,
			"-0.022": 0.0,
			"-0.021": 0.0,
			"-0.02": 0.0,
			"-0.019": 0.0457791859776,
			"-0.018": 0.705184981624,
			"-0.017": 1.21755174307,
			"-0.016": 0.674335918263,
			"-0.015": 0.570054556606,
			"-0.014": 0.817225289061,
			"-0.013": 0.320694214868,
			"-0.012": 0.881629123918,
			"-0.011": 0.86633857839,
			"-0.01": 0.951520308809,
			"-0.009": 0.517312529931,
			"-0.008": 0.571088238726,
			"-0.007": 5.58687441151,
			"-0.006": 11.9741059521,
			"-0.005": 15.2736938859,
			"-0.004": 19.0375429746,
			"-0.003": 15.8372567536,
			"-0.002": 20.3211822842,
			"-0.001": 21.4078118282,
			"0.0": 20.8547829949,
			"0.001": 16.5859678334,
			"0.002": 15.5897625609,
			"0.003": 15.0005435529,
			"0.004": 9.71612908062,
			"0.005": 5.8671977127,
			"0.006": 7.54345628264,
			"0.007": 5.70228102959,
			"0.008": 5.53512308422,
			"0.009": 5.33398635235,
			"0.01": 4.00495179532,
			"0.011": 4.97095279097,
			"0.012": 4.07811297409,
			"0.013": 0.0581070169535,
			"0.014": 0.0,
			"0.015": 0.0,
			"0.016": 0.0,
			"0.017": 0.0,
			"0.018": 0.0,
			"0.019": 0.0,
			"0.02": 0.0,
			"0.021": 0.0,
			"0.022": 0.0,
			"0.023": 0.0,
			"0.024": 0.0,
			"0.025": 0.0
		}
	}
}
