{
	 "smiles": "OC(=O)C1=CN(N=N1)C1=CC(=CC=C1)[N+]([O-])=O", 
	 "Tm": 433.15, 
	 "num_atms": 23, 
	 "gaussian": { 
		 "optdone": 1, 
		 "sigma_profile": "yes", 
		 "theory": "DFT", 
		 "functional": "B3LYP", 
		 "basiset": "6-31G**", 
		 "properties": { 
			 "R2extent": 6108.9964, 
			 "electric_dipole_moment_norm": 8.12029305752, 
			 "electric_quadrupole_moment_norm": 32.5474629191, 
			 "total_energy": -866.324220939, 
			 "HOMO_LUMO_gap": 0.16913, 
			 "cosmo_polarized_energy": -30.48, 
			 "cosmo_cavitation_energy": 30.5, 
			 "cosmo_dispersion_energy": -22.1, 
			 "cosmo_repulsion_energy": 1.69, 
			 "cosmo_total_nonelectrostatic_energy": 10.08, 
			 "SMD_solvation_energy": 7.62 
		},
		"coords": [
			{
				"x": -3.0648571849,
				"y": 0.0783663571,
				"z": -3.5440711382,
				"element": "O" 
			},
			{
				"x": -2.4331395157,
				"y": 1.2466585554,
				"z": -3.2312326072,
				"element": "C" 
			},
			{
				"x": -2.4002850777,
				"y": 2.1607472886,
				"z": -4.0110395692,
				"element": "O" 
			},
			{
				"x": -1.7756346068,
				"y": 1.2669244142,
				"z": -1.8960089227,
				"element": "C" 
			},
			{
				"x": -1.2765423005,
				"y": 0.2232560444,
				"z": -1.1410103479,
				"element": "C" 
			},
			{
				"x": -0.7394176547,
				"y": 0.8213325971,
				"z": -0.0468455588,
				"element": "N" 
			},
			{
				"x": -0.9080093626,
				"y": 2.1793530805,
				"z": -0.1249238165,
				"element": "N" 
			},
			{
				"x": -1.5181416554,
				"y": 2.4385077919,
				"z": -1.2327937759,
				"element": "N" 
			},
			{
				"x": -0.0713844591,
				"y": 0.2435733462,
				"z": 1.0666477368,
				"element": "C" 
			},
			{
				"x": -0.1139484576,
				"y": 0.9055552995,
				"z": 2.2948724941,
				"element": "C" 
			},
			{
				"x": 0.5480333481,
				"y": 0.321418591,
				"z": 3.3682909124,
				"element": "C" 
			},
			{
				"x": 1.2333468779,
				"y": -0.8870357149,
				"z": 3.2673021013,
				"element": "C" 
			},
			{
				"x": 1.2613967324,
				"y": -1.5271733357,
				"z": 2.0300963211,
				"element": "C" 
			},
			{
				"x": 0.6206483514,
				"y": -0.9643835576,
				"z": 0.9261325098,
				"element": "C" 
			},
			{
				"x": 0.5083419332,
				"y": 1.0101292913,
				"z": 4.6752785132,
				"element": "N" 
			},
			{
				"x": 1.1039347672,
				"y": 0.4786724176,
				"z": 5.6098616776,
				"element": "O" 
			},
			{
				"x": -0.1172931342,
				"y": 2.0646588035,
				"z": 4.7413251312,
				"element": "O" 
			},
			{
				"x": -3.1892328613,
				"y": -0.4605940396,
				"z": -2.7504057633,
				"element": "H" 
			},
			{
				"x": -1.2543848261,
				"y": -0.8444533821,
				"z": -1.2920430471,
				"element": "H" 
			},
			{
				"x": -0.6390254127,
				"y": 1.8437837906,
				"z": 2.4118856034,
				"element": "H" 
			},
			{
				"x": 1.7269568694,
				"y": -1.2958888559,
				"z": 4.1394592652,
				"element": "H" 
			},
			{
				"x": 1.7972361938,
				"y": -2.4637683665,
				"z": 1.9184185293,
				"element": "H" 
			},
			{
				"x": 0.6795014359,
				"y": -1.4520404164,
				"z": -0.0410962486,
				"element": "H" 
			}
		],
		 "valence_orbital": [ 
			{
				"type": "occ",
				"energy": -0.30963,
				"method": "rhf"
			},
			{
				"type": "occ",
				"energy": -0.30748,
				"method": "rhf"
			},
			{
				"type": "occ",
				"energy": -0.29921,
				"method": "rhf"
			},
			{
				"type": "occ",
				"energy": -0.29127,
				"method": "rhf"
			},
			{
				"type": "occ",
				"energy": -0.27933,
				"method": "rhf"
			},
			{
				"type": "unocc",
				"energy": -0.1102,
				"method": "rhf"
			},
			{
				"type": "unocc",
				"energy": -0.07658,
				"method": "rhf"
			},
			{
				"type": "unocc",
				"energy": -0.04424,
				"method": "rhf"
			},
			{
				"type": "unocc",
				"energy": -0.03257,
				"method": "rhf"
			},
			{
				"type": "unocc",
				"energy": -0.01099,
				"method": "rhf"
			}
		],
		"cosmo_sigma_profile": { 
			"-0.025": 0.0,
			"-0.024": 0.0,
			"-0.023": 0.0,
			"-0.022": 0.0,
			"-0.021": 0.0,
			"-0.02": 0.362530603979,
			"-0.019": 1.00389235289,
			"-0.018": 1.35842631843,
			"-0.017": 1.40689320169,
			"-0.016": 1.1221195009,
			"-0.015": 0.809738945245,
			"-0.014": 1.77915049458,
			"-0.013": 3.12080661831,
			"-0.012": 3.83539588015,
			"-0.011": 2.68039827042,
			"-0.01": 2.63911382673,
			"-0.009": 4.0787688039,
			"-0.008": 8.60276286462,
			"-0.007": 10.0587857229,
			"-0.006": 9.80265650769,
			"-0.005": 11.2583580398,
			"-0.004": 14.7354408842,
			"-0.003": 13.520640328,
			"-0.002": 18.2705946196,
			"-0.001": 18.7615167765,
			"0.0": 13.1546238816,
			"0.001": 8.78554402057,
			"0.002": 6.40556666859,
			"0.003": 6.19288238721,
			"0.004": 5.7509116382,
			"0.005": 7.32556581978,
			"0.006": 7.88896801673,
			"0.007": 14.2655541792,
			"0.008": 12.1426291796,
			"0.009": 11.051403901,
			"0.01": 9.26828539486,
			"0.011": 7.60491245066,
			"0.012": 5.41077066661,
			"0.013": 1.6097791988,
			"0.014": 0.561318781003,
			"0.015": 0.0,
			"0.016": 0.0,
			"0.017": 0.0,
			"0.018": 0.0,
			"0.019": 0.0,
			"0.02": 0.0,
			"0.021": 0.0,
			"0.022": 0.0,
			"0.023": 0.0,
			"0.024": 0.0,
			"0.025": 0.0
		}
	}
}
