{
	 "smiles": "OC(=O)C1CCCN(C1)C(=O)NC1CCCC1", 
	 "Tm": 441.15, 
	 "num_atms": 37, 
	 "gaussian": { 
		 "optdone": 1, 
		 "sigma_profile": "yes", 
		 "theory": "DFT", 
		 "functional": "B3LYP", 
		 "basiset": "6-31G**", 
		 "properties": { 
			 "R2extent": 5526.8743, 
			 "electric_dipole_moment_norm": 4.49017351112, 
			 "electric_quadrupole_moment_norm": 22.9065054306, 
			 "total_energy": -804.528822078, 
			 "HOMO_LUMO_gap": 0.22986, 
			 "cosmo_polarized_energy": -20.66, 
			 "cosmo_cavitation_energy": 36.42, 
			 "cosmo_dispersion_energy": -25.59, 
			 "cosmo_repulsion_energy": 2.0, 
			 "cosmo_total_nonelectrostatic_energy": 12.83, 
			 "SMD_solvation_energy": 5.76 
		},
		"coords": [
			{
				"x": -2.3444343543,
				"y": 3.8446537757,
				"z": -1.921810164,
				"element": "O" 
			},
			{
				"x": -1.1461279233,
				"y": 3.3333770334,
				"z": -2.3150870983,
				"element": "C" 
			},
			{
				"x": -0.3923931114,
				"y": 4.0135916578,
				"z": -2.9677020403,
				"element": "O" 
			},
			{
				"x": -0.8960592369,
				"y": 1.8764363748,
				"z": -1.9215990614,
				"element": "C" 
			},
			{
				"x": -1.6513839317,
				"y": 0.932171487,
				"z": -2.9080576594,
				"element": "C" 
			},
			{
				"x": -0.746344432,
				"y": 0.5859345618,
				"z": -4.0948514281,
				"element": "C" 
			},
			{
				"x": 0.4606459112,
				"y": -0.2455739029,
				"z": -3.6253746218,
				"element": "C" 
			},
			{
				"x": 0.8730860246,
				"y": 0.1676462731,
				"z": -2.2741464674,
				"element": "N" 
			},
			{
				"x": 0.6184923594,
				"y": 1.5685889155,
				"z": -1.9357325726,
				"element": "C" 
			},
			{
				"x": 1.8579268165,
				"y": -0.5919890033,
				"z": -1.687496423,
				"element": "C" 
			},
			{
				"x": 2.3684277411,
				"y": -1.5450762144,
				"z": -2.2705450375,
				"element": "O" 
			},
			{
				"x": 2.2756128533,
				"y": -0.1858454588,
				"z": -0.3834257069,
				"element": "N" 
			},
			{
				"x": 1.5160937381,
				"y": -0.6808130089,
				"z": 0.7914556534,
				"element": "C" 
			},
			{
				"x": 1.4203653431,
				"y": -2.2256484623,
				"z": 0.9303057791,
				"element": "C" 
			},
			{
				"x": 0.1537045701,
				"y": -2.4945639933,
				"z": 1.7901837013,
				"element": "C" 
			},
			{
				"x": -0.4846694006,
				"y": -1.102783235,
				"z": 2.0456052447,
				"element": "C" 
			},
			{
				"x": 0.0570877755,
				"y": -0.216536081,
				"z": 0.913691957,
				"element": "C" 
			},
			{
				"x": -2.8270934934,
				"y": 3.1940272902,
				"z": -1.3923416001,
				"element": "H" 
			},
			{
				"x": -1.2977792498,
				"y": 1.7212377733,
				"z": -0.9123694445,
				"element": "H" 
			},
			{
				"x": -1.9272964696,
				"y": 0.0136951515,
				"z": -2.3777899443,
				"element": "H" 
			},
			{
				"x": -2.5843082115,
				"y": 1.3968659894,
				"z": -3.2458238364,
				"element": "H" 
			},
			{
				"x": -0.4154429132,
				"y": 1.5130745922,
				"z": -4.5764086406,
				"element": "H" 
			},
			{
				"x": -1.2979409705,
				"y": 0.0195574384,
				"z": -4.8517561019,
				"element": "H" 
			},
			{
				"x": 0.2064237029,
				"y": -1.3081642059,
				"z": -3.5801048187,
				"element": "H" 
			},
			{
				"x": 1.3006455919,
				"y": -0.1554396262,
				"z": -4.3267910529,
				"element": "H" 
			},
			{
				"x": 1.0900176848,
				"y": 2.2229253986,
				"z": -2.6795550071,
				"element": "H" 
			},
			{
				"x": 1.0816448491,
				"y": 1.7808223306,
				"z": -0.9743727782,
				"element": "H" 
			},
			{
				"x": 3.220792546,
				"y": -0.5529554246,
				"z": -0.3004051969,
				"element": "H" 
			},
			{
				"x": 2.0579755954,
				"y": -0.2830260448,
				"z": 1.6592238026,
				"element": "H" 
			},
			{
				"x": 2.3301453367,
				"y": -2.6419623898,
				"z": 1.3747594046,
				"element": "H" 
			},
			{
				"x": 1.3265219633,
				"y": -2.6710661924,
				"z": -0.0647422621,
				"element": "H" 
			},
			{
				"x": -0.5433247409,
				"y": -3.1416390284,
				"z": 1.2479016418,
				"element": "H" 
			},
			{
				"x": 0.3874827286,
				"y": -3.0054236883,
				"z": 2.7288453565,
				"element": "H" 
			},
			{
				"x": -0.1509637715,
				"y": -0.7052338215,
				"z": 3.0118961699,
				"element": "H" 
			},
			{
				"x": -1.57804554,
				"y": -1.1361238633,
				"z": 2.0754925378,
				"element": "H" 
			},
			{
				"x": -0.476657549,
				"y": -0.4296382269,
				"z": -0.0198351093,
				"element": "H" 
			},
			{
				"x": -0.031127832,
				"y": 0.8548958289,
				"z": 1.1213628251,
				"element": "H" 
			}
		],
		 "valence_orbital": [ 
			{
				"type": "occ",
				"energy": -0.32042,
				"method": "rhf"
			},
			{
				"type": "occ",
				"energy": -0.27744,
				"method": "rhf"
			},
			{
				"type": "occ",
				"energy": -0.27691,
				"method": "rhf"
			},
			{
				"type": "occ",
				"energy": -0.23593,
				"method": "rhf"
			},
			{
				"type": "occ",
				"energy": -0.22973,
				"method": "rhf"
			},
			{
				"type": "unocc",
				"energy": 0.00013,
				"method": "rhf"
			},
			{
				"type": "unocc",
				"energy": 0.02513,
				"method": "rhf"
			},
			{
				"type": "unocc",
				"energy": 0.04545,
				"method": "rhf"
			},
			{
				"type": "unocc",
				"energy": 0.07134,
				"method": "rhf"
			},
			{
				"type": "unocc",
				"energy": 0.07833,
				"method": "rhf"
			}
		],
		"cosmo_sigma_profile": { 
			"-0.025": 0.0,
			"-0.024": 0.0,
			"-0.023": 0.0,
			"-0.022": 0.0,
			"-0.021": 0.0,
			"-0.02": 0.0,
			"-0.019": 0.449888260857,
			"-0.018": 0.95835874054,
			"-0.017": 1.13353479771,
			"-0.016": 1.14874776989,
			"-0.015": 1.10794586844,
			"-0.014": 0.763714373815,
			"-0.013": 0.849966895275,
			"-0.012": 1.23562394351,
			"-0.011": 2.54858114073,
			"-0.01": 1.90265727885,
			"-0.009": 1.62428011359,
			"-0.008": 2.33956300497,
			"-0.007": 2.60709434417,
			"-0.006": 4.02365701709,
			"-0.005": 8.40531991104,
			"-0.004": 20.1242761026,
			"-0.003": 35.9413264075,
			"-0.002": 40.2106012543,
			"-0.001": 39.7978324241,
			"0.0": 22.7148887092,
			"0.001": 19.0849399333,
			"0.002": 10.3351338442,
			"0.003": 5.02976055904,
			"0.004": 4.17618606756,
			"0.005": 4.88381874942,
			"0.006": 4.11493001994,
			"0.007": 5.13468131317,
			"0.008": 4.40334967645,
			"0.009": 5.38230002849,
			"0.01": 5.88081019848,
			"0.011": 7.24119913821,
			"0.012": 6.59103913455,
			"0.013": 3.38967465813,
			"0.014": 5.32504573776,
			"0.015": 0.978839422078,
			"0.016": 0.0,
			"0.017": 0.0,
			"0.018": 0.0,
			"0.019": 0.0,
			"0.02": 0.0,
			"0.021": 0.0,
			"0.022": 0.0,
			"0.023": 0.0,
			"0.024": 0.0,
			"0.025": 0.0
		}
	}
}
