{
	 "smiles": "CC1=C(C(Cl)=NN1)N(=O)=O", 
	 "Tm": 384.15, 
	 "num_atms": 14, 
	 "gaussian": { 
		 "optdone": 1, 
		 "sigma_profile": "yes", 
		 "theory": "DFT", 
		 "functional": "B3LYP", 
		 "basiset": "6-31G**", 
		 "properties": { 
			 "R2extent": 2003.1319, 
			 "electric_dipole_moment_norm": 5.6798151396, 
			 "electric_quadrupole_moment_norm": 7.97869433867, 
			 "total_energy": -929.602584535, 
			 "HOMO_LUMO_gap": 0.19425, 
			 "cosmo_polarized_energy": -15.63, 
			 "cosmo_cavitation_energy": 21.01, 
			 "cosmo_dispersion_energy": -15.84, 
			 "cosmo_repulsion_energy": 1.3, 
			 "cosmo_total_nonelectrostatic_energy": 6.47, 
			 "SMD_solvation_energy": 4.71 
		},
		"coords": [
			{
				"x": 1.8349218996,
				"y": -0.547329919,
				"z": -1.0153070126,
				"element": "C" 
			},
			{
				"x": 0.7109164982,
				"y": 0.4309978891,
				"z": -1.0681660519,
				"element": "C" 
			},
			{
				"x": -0.1555830786,
				"y": 0.9326461995,
				"z": -0.0940102274,
				"element": "C" 
			},
			{
				"x": -1.016104432,
				"y": 1.8413584537,
				"z": -0.7750098873,
				"element": "C" 
			},
			{
				"x": -2.3019294544,
				"y": 2.7889323687,
				"z": -0.1440247519,
				"element": "Cl" 
			},
			{
				"x": -0.7198485317,
				"y": 1.9071241957,
				"z": -2.0600576583,
				"element": "N" 
			},
			{
				"x": 0.322697562,
				"y": 1.0471039639,
				"z": -2.2024464319,
				"element": "N" 
			},
			{
				"x": -0.1311179245,
				"y": 0.5666909768,
				"z": 1.2876434792,
				"element": "N" 
			},
			{
				"x": -0.9531725742,
				"y": 1.082585756,
				"z": 2.0420582583,
				"element": "O" 
			},
			{
				"x": 0.7283119458,
				"y": -0.2557018057,
				"z": 1.6327928473,
				"element": "O" 
			},
			{
				"x": 1.4852351888,
				"y": -1.514519136,
				"z": -0.6461789521,
				"element": "H" 
			},
			{
				"x": 2.6070297709,
				"y": -0.2078602676,
				"z": -0.3206091838,
				"element": "H" 
			},
			{
				"x": 2.2771628397,
				"y": -0.6798727875,
				"z": -2.0070469399,
				"element": "H" 
			},
			{
				"x": 0.7252802904,
				"y": 0.9299441124,
				"z": -3.1210374876,
				"element": "H" 
			}
		],
		 "valence_orbital": [ 
			{
				"type": "occ",
				"energy": -0.30783,
				"method": "rhf"
			},
			{
				"type": "occ",
				"energy": -0.30245,
				"method": "rhf"
			},
			{
				"type": "occ",
				"energy": -0.28867,
				"method": "rhf"
			},
			{
				"type": "occ",
				"energy": -0.28785,
				"method": "rhf"
			},
			{
				"type": "occ",
				"energy": -0.27515,
				"method": "rhf"
			},
			{
				"type": "unocc",
				"energy": -0.0809,
				"method": "rhf"
			},
			{
				"type": "unocc",
				"energy": -0.01475,
				"method": "rhf"
			},
			{
				"type": "unocc",
				"energy": 0.02226,
				"method": "rhf"
			},
			{
				"type": "unocc",
				"energy": 0.0518,
				"method": "rhf"
			},
			{
				"type": "unocc",
				"energy": 0.05888,
				"method": "rhf"
			}
		],
		"cosmo_sigma_profile": { 
			"-0.025": 0.0,
			"-0.024": 0.0,
			"-0.023": 0.0,
			"-0.022": 0.0,
			"-0.021": 0.0,
			"-0.02": 0.0,
			"-0.019": 0.21964174203,
			"-0.018": 1.55788078197,
			"-0.017": 1.7335540213,
			"-0.016": 1.28419833299,
			"-0.015": 1.11585856589,
			"-0.014": 1.34630956811,
			"-0.013": 1.30195856638,
			"-0.012": 1.11386497396,
			"-0.011": 0.843284640864,
			"-0.01": 1.39520891385,
			"-0.009": 1.00216065772,
			"-0.008": 0.843676963036,
			"-0.007": 3.18987737393,
			"-0.006": 7.83036104269,
			"-0.005": 7.90240724279,
			"-0.004": 13.6218835928,
			"-0.003": 15.2792953685,
			"-0.002": 14.3525063433,
			"-0.001": 8.80648659023,
			"0.0": 7.22306239255,
			"0.001": 6.72782759784,
			"0.002": 8.59695885144,
			"0.003": 12.0451379217,
			"0.004": 8.05287955134,
			"0.005": 5.59695211611,
			"0.006": 4.99946754484,
			"0.007": 6.32697936308,
			"0.008": 10.8151783415,
			"0.009": 7.02271814173,
			"0.01": 4.52257620955,
			"0.011": 1.99485868418,
			"0.012": 0.908037499295,
			"0.013": 0.785666182521,
			"0.014": 0.0590657219348,
			"0.015": 0.0,
			"0.016": 0.0,
			"0.017": 0.0,
			"0.018": 0.0,
			"0.019": 0.0,
			"0.02": 0.0,
			"0.021": 0.0,
			"0.022": 0.0,
			"0.023": 0.0,
			"0.024": 0.0,
			"0.025": 0.0
		}
	}
}
