{
	 "smiles": "OC(=O)C1=C(N(N=N1)C1=CC=C(Br)C=C1)C(F)(F)F", 
	 "Tm": 443.15, 
	 "num_atms": 24, 
	 "gaussian": { 
		 "optdone": 1, 
		 "sigma_profile": "yes", 
		 "theory": "DFT", 
		 "functional": "B3LYP", 
		 "basiset": "6-31G**", 
		 "properties": { 
			 "R2extent": 8848.8998, 
			 "electric_dipole_moment_norm": 3.41237938248, 
			 "electric_quadrupole_moment_norm": 21.8846375081, 
			 "total_energy": -3569.66506891, 
			 "HOMO_LUMO_gap": 0.18761, 
			 "cosmo_polarized_energy": -15.44, 
			 "cosmo_cavitation_energy": 33.76, 
			 "cosmo_dispersion_energy": -24.19, 
			 "cosmo_repulsion_energy": 1.81, 
			 "cosmo_total_nonelectrostatic_energy": 11.39, 
			 "SMD_solvation_energy": 5.5 
		},
		"coords": [
			{
				"x": 1.5585281244,
				"y": -0.529486876,
				"z": -4.1318704578,
				"element": "O" 
			},
			{
				"x": 1.9675607397,
				"y": -1.584873465,
				"z": -3.3926955073,
				"element": "C" 
			},
			{
				"x": 2.8307396637,
				"y": -2.3550675145,
				"z": -3.7413084872,
				"element": "O" 
			},
			{
				"x": 1.2001849115,
				"y": -1.7067932615,
				"z": -2.1262688767,
				"element": "C" 
			},
			{
				"x": 0.5598846146,
				"y": -0.7695462801,
				"z": -1.3280028103,
				"element": "C" 
			},
			{
				"x": -0.0002675463,
				"y": -1.5082080124,
				"z": -0.3260946477,
				"element": "N" 
			},
			{
				"x": 0.2979097448,
				"y": -2.828210099,
				"z": -0.5024950572,
				"element": "N" 
			},
			{
				"x": 1.0217465448,
				"y": -2.9390703362,
				"z": -1.5685186371,
				"element": "N" 
			},
			{
				"x": -0.8216778349,
				"y": -1.1406617393,
				"z": 0.7861717767,
				"element": "C" 
			},
			{
				"x": -0.5594698381,
				"y": -1.7274793617,
				"z": 2.0258902598,
				"element": "C" 
			},
			{
				"x": -1.3734812707,
				"y": -1.4251577344,
				"z": 3.1146820352,
				"element": "C" 
			},
			{
				"x": -2.4354954861,
				"y": -0.5357773272,
				"z": 2.9501081959,
				"element": "C" 
			},
			{
				"x": -3.5439249802,
				"y": -0.1127775701,
				"z": 4.4413652471,
				"element": "Br" 
			},
			{
				"x": -2.7019741356,
				"y": 0.047208045,
				"z": 1.7112842363,
				"element": "C" 
			},
			{
				"x": -1.8957928751,
				"y": -0.2643504371,
				"z": 0.6190072122,
				"element": "C" 
			},
			{
				"x": 0.5149062148,
				"y": 0.7305843697,
				"z": -1.3948265541,
				"element": "C" 
			},
			{
				"x": 0.5226522659,
				"y": 1.2705762139,
				"z": -0.1578932385,
				"element": "F" 
			},
			{
				"x": -0.6035814221,
				"y": 1.1673460453,
				"z": -2.0174121042,
				"element": "F" 
			},
			{
				"x": 1.5724452164,
				"y": 1.2182628955,
				"z": -2.0535979863,
				"element": "F" 
			},
			{
				"x": 2.1187495588,
				"y": -0.5203161879,
				"z": -4.9262952836,
				"element": "H" 
			},
			{
				"x": 0.2703228305,
				"y": -2.4167552572,
				"z": 2.1289399949,
				"element": "H" 
			},
			{
				"x": -1.1802370069,
				"y": -1.8727211537,
				"z": 4.082389623,
				"element": "H" 
			},
			{
				"x": -3.5365174796,
				"y": 0.7286243937,
				"z": 1.5961925702,
				"element": "H" 
			},
			{
				"x": -2.1050105543,
				"y": 0.17085065,
				"z": -0.3510515033,
				"element": "H" 
			}
		],
		 "valence_orbital": [ 
			{
				"type": "occ",
				"energy": -0.30296,
				"method": "rhf"
			},
			{
				"type": "occ",
				"energy": -0.29709,
				"method": "rhf"
			},
			{
				"type": "occ",
				"energy": -0.2894,
				"method": "rhf"
			},
			{
				"type": "occ",
				"energy": -0.28881,
				"method": "rhf"
			},
			{
				"type": "occ",
				"energy": -0.26023,
				"method": "rhf"
			},
			{
				"type": "unocc",
				"energy": -0.07262,
				"method": "rhf"
			},
			{
				"type": "unocc",
				"energy": -0.04028,
				"method": "rhf"
			},
			{
				"type": "unocc",
				"energy": -0.03872,
				"method": "rhf"
			},
			{
				"type": "unocc",
				"energy": -0.02019,
				"method": "rhf"
			},
			{
				"type": "unocc",
				"energy": -0.00957,
				"method": "rhf"
			}
		],
		"cosmo_sigma_profile": { 
			"-0.025": 0.0,
			"-0.024": 0.0,
			"-0.023": 0.0,
			"-0.022": 0.0,
			"-0.021": 0.0,
			"-0.02": 0.0460358979844,
			"-0.019": 0.859571110009,
			"-0.018": 0.91061491303,
			"-0.017": 1.02138992816,
			"-0.016": 0.696706087737,
			"-0.015": 0.638528656968,
			"-0.014": 0.510997365897,
			"-0.013": 0.774131856986,
			"-0.012": 1.24772965999,
			"-0.011": 0.688124196467,
			"-0.01": 0.396558990931,
			"-0.009": 1.5415475627,
			"-0.008": 8.38118806193,
			"-0.007": 10.5050885142,
			"-0.006": 12.7912115488,
			"-0.005": 12.9471312366,
			"-0.004": 12.9402935798,
			"-0.003": 14.1592574254,
			"-0.002": 14.7648769504,
			"-0.001": 16.4927007601,
			"0.0": 24.0020842636,
			"0.001": 41.1936069844,
			"0.002": 28.2505745232,
			"0.003": 15.6970759068,
			"0.004": 13.9630357851,
			"0.005": 5.38126434241,
			"0.006": 4.80792852486,
			"0.007": 4.38002607258,
			"0.008": 4.8654591771,
			"0.009": 4.47953376816,
			"0.01": 6.03687551048,
			"0.011": 6.42295636687,
			"0.012": 2.9955357748,
			"0.013": 1.20637782197,
			"0.014": 0.18850470546,
			"0.015": 0.0,
			"0.016": 0.0,
			"0.017": 0.0,
			"0.018": 0.0,
			"0.019": 0.0,
			"0.02": 0.0,
			"0.021": 0.0,
			"0.022": 0.0,
			"0.023": 0.0,
			"0.024": 0.0,
			"0.025": 0.0
		}
	}
}
