{
	 "smiles": "COC(=O)C1CC2=C(CN1C(=O)CCl)C=CC=C2", 
	 "Tm": 359.15, 
	 "num_atms": 32, 
	 "gaussian": { 
		 "optdone": 1, 
		 "sigma_profile": "yes", 
		 "theory": "DFT", 
		 "functional": "B3LYP", 
		 "basiset": "6-31G**", 
		 "properties": { 
			 "R2extent": 6879.5061, 
			 "electric_dipole_moment_norm": 5.10186297052, 
			 "electric_quadrupole_moment_norm": 19.3294607229, 
			 "total_energy": -1244.45251545, 
			 "HOMO_LUMO_gap": 0.23139, 
			 "cosmo_polarized_energy": -19.79, 
			 "cosmo_cavitation_energy": 37.07, 
			 "cosmo_dispersion_energy": -25.93, 
			 "cosmo_repulsion_energy": 2.02, 
			 "cosmo_total_nonelectrostatic_energy": 13.17, 
			 "SMD_solvation_energy": 7.07 
		},
		"coords": [
			{
				"x": -0.0692285246,
				"y": 5.1660190237,
				"z": -0.3277899269,
				"element": "C" 
			},
			{
				"x": -0.1770878035,
				"y": 3.7326398245,
				"z": -0.3839596569,
				"element": "O" 
			},
			{
				"x": 0.8886202927,
				"y": 3.0583467393,
				"z": 0.0818307703,
				"element": "C" 
			},
			{
				"x": 1.9094853044,
				"y": 3.5732200529,
				"z": 0.4800082919,
				"element": "O" 
			},
			{
				"x": 0.6751424159,
				"y": 1.5472639823,
				"z": -0.0591061618,
				"element": "C" 
			},
			{
				"x": 1.2011986574,
				"y": 1.0961241462,
				"z": -1.4450703816,
				"element": "C" 
			},
			{
				"x": 1.4225617001,
				"y": -0.3937876585,
				"z": -1.5122794831,
				"element": "C" 
			},
			{
				"x": 2.104634526,
				"y": -0.9729550618,
				"z": -0.4314352961,
				"element": "C" 
			},
			{
				"x": 2.4885892285,
				"y": -0.0407016262,
				"z": 0.6954011432,
				"element": "C" 
			},
			{
				"x": 1.3581965292,
				"y": 0.8382669495,
				"z": 1.0274211982,
				"element": "N" 
			},
			{
				"x": 0.8936063376,
				"y": 1.1143595848,
				"z": 2.2883377026,
				"element": "C" 
			},
			{
				"x": -0.0358405427,
				"y": 1.8876151131,
				"z": 2.4651644994,
				"element": "O" 
			},
			{
				"x": 1.6060032417,
				"y": 0.3949734725,
				"z": 3.4454760982,
				"element": "C" 
			},
			{
				"x": 0.8995638038,
				"y": 0.8089000682,
				"z": 5.0367866398,
				"element": "Cl" 
			},
			{
				"x": 2.3798421223,
				"y": -2.3402088786,
				"z": -0.4278104089,
				"element": "C" 
			},
			{
				"x": 1.9808258014,
				"y": -3.1360087015,
				"z": -1.5048098375,
				"element": "C" 
			},
			{
				"x": 1.295721933,
				"y": -2.5637285752,
				"z": -2.5775399661,
				"element": "C" 
			},
			{
				"x": 1.0134656355,
				"y": -1.1952644333,
				"z": -2.5790331774,
				"element": "C" 
			},
			{
				"x": 0.7898963436,
				"y": 5.5111552233,
				"z": -0.9084805735,
				"element": "H" 
			},
			{
				"x": 0.0456107153,
				"y": 5.4948753475,
				"z": 0.7075463867,
				"element": "H" 
			},
			{
				"x": -0.9983476693,
				"y": 5.5478867009,
				"z": -0.750130624,
				"element": "H" 
			},
			{
				"x": -0.3972362814,
				"y": 1.3488449948,
				"z": 0.0132337202,
				"element": "H" 
			},
			{
				"x": 0.4981072784,
				"y": 1.4360259808,
				"z": -2.2098926583,
				"element": "H" 
			},
			{
				"x": 2.1535185528,
				"y": 1.610540964,
				"z": -1.6364840595,
				"element": "H" 
			},
			{
				"x": 3.3561213997,
				"y": 0.5749757652,
				"z": 0.413333098,
				"element": "H" 
			},
			{
				"x": 2.7802013459,
				"y": -0.613630986,
				"z": 1.5750309605,
				"element": "H" 
			},
			{
				"x": 1.5331995588,
				"y": -0.6891815641,
				"z": 3.3344700492,
				"element": "H" 
			},
			{
				"x": 2.6618568393,
				"y": 0.6728564247,
				"z": 3.4766718157,
				"element": "H" 
			},
			{
				"x": 2.9029841901,
				"y": -2.7865976748,
				"z": 0.4146024203,
				"element": "H" 
			},
			{
				"x": 2.1956353367,
				"y": -4.2005018369,
				"z": -1.5004525256,
				"element": "H" 
			},
			{
				"x": 0.9765726971,
				"y": -3.1822250722,
				"z": -3.4112892059,
				"element": "H" 
			},
			{
				"x": 0.4773790343,
				"y": -0.7499982891,
				"z": -3.4133508514,
				"element": "H" 
			}
		],
		 "valence_orbital": [ 
			{
				"type": "occ",
				"energy": -0.2779,
				"method": "rhf"
			},
			{
				"type": "occ",
				"energy": -0.26517,
				"method": "rhf"
			},
			{
				"type": "occ",
				"energy": -0.26051,
				"method": "rhf"
			},
			{
				"type": "occ",
				"energy": -0.25166,
				"method": "rhf"
			},
			{
				"type": "occ",
				"energy": -0.24808,
				"method": "rhf"
			},
			{
				"type": "unocc",
				"energy": -0.01669,
				"method": "rhf"
			},
			{
				"type": "unocc",
				"energy": -0.01522,
				"method": "rhf"
			},
			{
				"type": "unocc",
				"energy": 0.00877,
				"method": "rhf"
			},
			{
				"type": "unocc",
				"energy": 0.02168,
				"method": "rhf"
			},
			{
				"type": "unocc",
				"energy": 0.02544,
				"method": "rhf"
			}
		],
		"cosmo_sigma_profile": { 
			"-0.025": 0.0,
			"-0.024": 0.0,
			"-0.023": 0.0,
			"-0.022": 0.0,
			"-0.021": 0.0,
			"-0.02": 0.0,
			"-0.019": 0.0,
			"-0.018": 0.0,
			"-0.017": 0.0,
			"-0.016": 0.0,
			"-0.015": 0.0,
			"-0.014": 0.0,
			"-0.013": 0.0,
			"-0.012": 0.0,
			"-0.011": 0.0666872698687,
			"-0.01": 3.09885915058,
			"-0.009": 7.48817617997,
			"-0.008": 5.2647881349,
			"-0.007": 6.7301602406,
			"-0.006": 22.3504330647,
			"-0.005": 27.6202147793,
			"-0.004": 28.6657541477,
			"-0.003": 23.4135259238,
			"-0.002": 18.3039628987,
			"-0.001": 14.3048754292,
			"0.0": 12.3271614174,
			"0.001": 14.0202926454,
			"0.002": 12.5987579236,
			"0.003": 14.5658167046,
			"0.004": 14.7601034856,
			"0.005": 18.695945921,
			"0.006": 14.0995208025,
			"0.007": 6.37278635804,
			"0.008": 5.86762803239,
			"0.009": 4.16367802896,
			"0.01": 2.97868033506,
			"0.011": 5.23156186755,
			"0.012": 7.35657600975,
			"0.013": 3.28080075725,
			"0.014": 1.98626279503,
			"0.015": 0.0997526706805,
			"0.016": 0.0,
			"0.017": 0.0,
			"0.018": 0.0,
			"0.019": 0.0,
			"0.02": 0.0,
			"0.021": 0.0,
			"0.022": 0.0,
			"0.023": 0.0,
			"0.024": 0.0,
			"0.025": 0.0
		}
	}
}
