{
	 "smiles": "COC1=CC=C(N)C=C1F", 
	 "Tm": 355.15, 
	 "num_atms": 18, 
	 "gaussian": { 
		 "optdone": 1, 
		 "sigma_profile": "yes", 
		 "theory": "DFT", 
		 "functional": "B3LYP", 
		 "basiset": "6-31G**", 
		 "properties": { 
			 "R2extent": 1696.363, 
			 "electric_dipole_moment_norm": 2.1343961324, 
			 "electric_quadrupole_moment_norm": 13.6076795605, 
			 "total_energy": -501.356940836, 
			 "HOMO_LUMO_gap": 0.19927, 
			 "cosmo_polarized_energy": -9.5, 
			 "cosmo_cavitation_energy": 22.16, 
			 "cosmo_dispersion_energy": -16.44, 
			 "cosmo_repulsion_energy": 1.33, 
			 "cosmo_total_nonelectrostatic_energy": 7.05, 
			 "SMD_solvation_energy": 5.05 
		},
		"coords": [
			{
				"x": 1.0633446379,
				"y": -2.4006673157,
				"z": -0.9613272532,
				"element": "C" 
			},
			{
				"x": -0.3210293819,
				"y": -2.0487522948,
				"z": -1.0103433674,
				"element": "O" 
			},
			{
				"x": -0.6293192254,
				"y": -0.7821318802,
				"z": -0.5753912092,
				"element": "C" 
			},
			{
				"x": -1.4920172179,
				"y": -0.6087357015,
				"z": 0.5086502847,
				"element": "C" 
			},
			{
				"x": -1.8824724888,
				"y": 0.6598670614,
				"z": 0.9319991666,
				"element": "C" 
			},
			{
				"x": -1.4010552106,
				"y": 1.8098228674,
				"z": 0.2839609775,
				"element": "C" 
			},
			{
				"x": -1.7312893771,
				"y": 3.0882514897,
				"z": 0.7445882085,
				"element": "N" 
			},
			{
				"x": -0.5294204909,
				"y": 1.6483066365,
				"z": -0.8059014946,
				"element": "C" 
			},
			{
				"x": -0.1706045386,
				"y": 0.3738812081,
				"z": -1.2172851815,
				"element": "C" 
			},
			{
				"x": 0.6533550425,
				"y": 0.2491514184,
				"z": -2.2844081951,
				"element": "F" 
			},
			{
				"x": 1.1243149799,
				"y": -3.4428952256,
				"z": -1.2817551468,
				"element": "H" 
			},
			{
				"x": 1.6624422603,
				"y": -1.7786912638,
				"z": -1.6333747339,
				"element": "H" 
			},
			{
				"x": 1.4559803372,
				"y": -2.3130403207,
				"z": 0.0602308206,
				"element": "H" 
			},
			{
				"x": -1.8641439288,
				"y": -1.4977704742,
				"z": 1.0079525965,
				"element": "H" 
			},
			{
				"x": -2.5564019151,
				"y": 0.7625123606,
				"z": 1.7781782352,
				"element": "H" 
			},
			{
				"x": -1.6750550143,
				"y": 3.819309461,
				"z": 0.0485784898,
				"element": "H" 
			},
			{
				"x": -2.5972063807,
				"y": 3.1383325963,
				"z": 1.2638771721,
				"element": "H" 
			},
			{
				"x": -0.1297220878,
				"y": 2.5024493771,
				"z": -1.3436293699,
				"element": "H" 
			}
		],
		 "valence_orbital": [ 
			{
				"type": "occ",
				"energy": -0.33904,
				"method": "rhf"
			},
			{
				"type": "occ",
				"energy": -0.29771,
				"method": "rhf"
			},
			{
				"type": "occ",
				"energy": -0.26888,
				"method": "rhf"
			},
			{
				"type": "occ",
				"energy": -0.2437,
				"method": "rhf"
			},
			{
				"type": "occ",
				"energy": -0.19685,
				"method": "rhf"
			},
			{
				"type": "unocc",
				"energy": 0.00242,
				"method": "rhf"
			},
			{
				"type": "unocc",
				"energy": 0.02047,
				"method": "rhf"
			},
			{
				"type": "unocc",
				"energy": 0.07635,
				"method": "rhf"
			},
			{
				"type": "unocc",
				"energy": 0.09176,
				"method": "rhf"
			},
			{
				"type": "unocc",
				"energy": 0.11744,
				"method": "rhf"
			}
		],
		"cosmo_sigma_profile": { 
			"-0.025": 0.0,
			"-0.024": 0.0,
			"-0.023": 0.0,
			"-0.022": 0.0,
			"-0.021": 0.0,
			"-0.02": 0.0,
			"-0.019": 0.0,
			"-0.018": 0.0,
			"-0.017": 0.0,
			"-0.016": 0.0,
			"-0.015": 0.0,
			"-0.014": 0.0,
			"-0.013": 0.406736521817,
			"-0.012": 2.67587079909,
			"-0.011": 3.22211236286,
			"-0.01": 2.68435749529,
			"-0.009": 3.4592517053,
			"-0.008": 3.36716415285,
			"-0.007": 4.19159260443,
			"-0.006": 6.09270793634,
			"-0.005": 8.94720257501,
			"-0.004": 12.0001613972,
			"-0.003": 13.3952834742,
			"-0.002": 12.3303631428,
			"-0.001": 9.42468902128,
			"0.0": 8.89753910824,
			"0.001": 9.25291222683,
			"0.002": 11.7927073517,
			"0.003": 11.3581787685,
			"0.004": 18.0378677956,
			"0.005": 14.1909496944,
			"0.006": 5.60430933402,
			"0.007": 2.76736302318,
			"0.008": 1.43473285112,
			"0.009": 2.3751108626,
			"0.01": 2.7709329732,
			"0.011": 1.82730609892,
			"0.012": 1.70790228611,
			"0.013": 0.872661281717,
			"0.014": 0.568193551757,
			"0.015": 0.296612140638,
			"0.016": 0.0,
			"0.017": 0.0,
			"0.018": 0.0,
			"0.019": 0.0,
			"0.02": 0.0,
			"0.021": 0.0,
			"0.022": 0.0,
			"0.023": 0.0,
			"0.024": 0.0,
			"0.025": 0.0
		}
	}
}
