{
	 "smiles": "CC1(C)CC(=O)C(=NNC2=CC=CC=C2)C(=O)C1", 
	 "Tm": 421.15, 
	 "num_atms": 34, 
	 "gaussian": { 
		 "optdone": 1, 
		 "sigma_profile": "yes", 
		 "theory": "DFT", 
		 "functional": "B3LYP", 
		 "basiset": "6-31G**", 
		 "properties": { 
			 "R2extent": 6626.5267, 
			 "electric_dipole_moment_norm": 2.23499957271, 
			 "electric_quadrupole_moment_norm": 15.7615105631, 
			 "total_energy": -803.069067798, 
			 "HOMO_LUMO_gap": 0.13586, 
			 "cosmo_polarized_energy": -14.57, 
			 "cosmo_cavitation_energy": 36.8, 
			 "cosmo_dispersion_energy": -26.27, 
			 "cosmo_repulsion_energy": 2.01, 
			 "cosmo_total_nonelectrostatic_energy": 12.54, 
			 "SMD_solvation_energy": 6.5 
		},
		"coords": [
			{
				"x": -0.4121513987,
				"y": 2.9618990999,
				"z": 1.9481480552,
				"element": "C" 
			},
			{
				"x": -1.5604475384,
				"y": 2.7206776742,
				"z": 0.947098015,
				"element": "C" 
			},
			{
				"x": -2.6913281084,
				"y": 3.7256415981,
				"z": 1.2250746875,
				"element": "C" 
			},
			{
				"x": -1.0593643592,
				"y": 2.903588802,
				"z": -0.5014223624,
				"element": "C" 
			},
			{
				"x": -0.0752735035,
				"y": 1.8491574156,
				"z": -0.9771926039,
				"element": "C" 
			},
			{
				"x": 0.7489094696,
				"y": 2.1336698396,
				"z": -1.8631039599,
				"element": "O" 
			},
			{
				"x": -0.1470759868,
				"y": 0.5068948247,
				"z": -0.3931028612,
				"element": "C" 
			},
			{
				"x": 0.6395084088,
				"y": -0.4983354435,
				"z": -0.7614494792,
				"element": "N" 
			},
			{
				"x": 1.5300976691,
				"y": -0.3316682174,
				"z": -1.6918353949,
				"element": "N" 
			},
			{
				"x": 2.3637806515,
				"y": -1.3908788939,
				"z": -2.097029751,
				"element": "C" 
			},
			{
				"x": 2.2705595698,
				"y": -2.6612097159,
				"z": -1.5125437215,
				"element": "C" 
			},
			{
				"x": 3.1211082309,
				"y": -3.6710794932,
				"z": -1.9525175737,
				"element": "C" 
			},
			{
				"x": 4.0580593321,
				"y": -3.4297375682,
				"z": -2.9627915993,
				"element": "C" 
			},
			{
				"x": 4.1420945871,
				"y": -2.1603932434,
				"z": -3.5377004327,
				"element": "C" 
			},
			{
				"x": 3.298058463,
				"y": -1.13759552,
				"z": -3.1092870343,
				"element": "C" 
			},
			{
				"x": -1.1160025887,
				"y": 0.1820259499,
				"z": 0.6954723158,
				"element": "C" 
			},
			{
				"x": -1.1493545,
				"y": -0.9099744427,
				"z": 1.2387050745,
				"element": "O" 
			},
			{
				"x": -2.1007856825,
				"y": 1.2814543557,
				"z": 1.0838663031,
				"element": "C" 
			},
			{
				"x": 0.4238746382,
				"y": 2.2719831184,
				"z": 1.792707551,
				"element": "H" 
			},
			{
				"x": -0.7628112902,
				"y": 2.8281919578,
				"z": 2.9769869729,
				"element": "H" 
			},
			{
				"x": -0.0237571351,
				"y": 3.9819873201,
				"z": 1.8552126974,
				"element": "H" 
			},
			{
				"x": -3.5304484597,
				"y": 3.5832999891,
				"z": 0.534820684,
				"element": "H" 
			},
			{
				"x": -3.0731408203,
				"y": 3.6108689171,
				"z": 2.2453669661,
				"element": "H" 
			},
			{
				"x": -2.3365908951,
				"y": 4.7566047939,
				"z": 1.1151406727,
				"element": "H" 
			},
			{
				"x": -0.5900975492,
				"y": 3.8813044463,
				"z": -0.6525602282,
				"element": "H" 
			},
			{
				"x": -1.9180028725,
				"y": 2.8620126871,
				"z": -1.1889264725,
				"element": "H" 
			},
			{
				"x": 1.5995609182,
				"y": 0.6056458728,
				"z": -2.1170053777,
				"element": "H" 
			},
			{
				"x": 1.5396977634,
				"y": -2.8310770973,
				"z": -0.7307259684,
				"element": "H" 
			},
			{
				"x": 3.0517910578,
				"y": -4.6567046536,
				"z": -1.5017098124,
				"element": "H" 
			},
			{
				"x": 4.7164434843,
				"y": -4.2251935271,
				"z": -3.2979334529,
				"element": "H" 
			},
			{
				"x": 4.8658318679,
				"y": -1.9622376641,
				"z": -4.3225585115,
				"element": "H" 
			},
			{
				"x": 3.3597689478,
				"y": -0.1479275325,
				"z": -3.5540781497,
				"element": "H" 
			},
			{
				"x": -2.4380316199,
				"y": 1.0702620446,
				"z": 2.1032481417,
				"element": "H" 
			},
			{
				"x": -2.9798807515,
				"y": 1.164942306,
				"z": 0.4315266103,
				"element": "H" 
			}
		],
		 "valence_orbital": [ 
			{
				"type": "occ",
				"energy": -0.28595,
				"method": "rhf"
			},
			{
				"type": "occ",
				"energy": -0.26162,
				"method": "rhf"
			},
			{
				"type": "occ",
				"energy": -0.25186,
				"method": "rhf"
			},
			{
				"type": "occ",
				"energy": -0.23392,
				"method": "rhf"
			},
			{
				"type": "occ",
				"energy": -0.22124,
				"method": "rhf"
			},
			{
				"type": "unocc",
				"energy": -0.08538,
				"method": "rhf"
			},
			{
				"type": "unocc",
				"energy": -0.01803,
				"method": "rhf"
			},
			{
				"type": "unocc",
				"energy": -0.01115,
				"method": "rhf"
			},
			{
				"type": "unocc",
				"energy": 0.01013,
				"method": "rhf"
			},
			{
				"type": "unocc",
				"energy": 0.06572,
				"method": "rhf"
			}
		],
		"cosmo_sigma_profile": { 
			"-0.025": 0.0,
			"-0.024": 0.0,
			"-0.023": 0.0,
			"-0.022": 0.0,
			"-0.021": 0.0,
			"-0.02": 0.0,
			"-0.019": 0.0,
			"-0.018": 0.0,
			"-0.017": 0.0,
			"-0.016": 0.0,
			"-0.015": 0.0,
			"-0.014": 0.0,
			"-0.013": 0.0,
			"-0.012": 0.23729102033,
			"-0.011": 0.897158959705,
			"-0.01": 0.871205055666,
			"-0.009": 1.26099282889,
			"-0.008": 1.60040104363,
			"-0.007": 5.22227835304,
			"-0.006": 14.9751295476,
			"-0.005": 17.7463154847,
			"-0.004": 27.1238327281,
			"-0.003": 35.1230140627,
			"-0.002": 28.9494765402,
			"-0.001": 24.2744105887,
			"0.0": 25.0488082971,
			"0.001": 23.8357158665,
			"0.002": 13.2922131446,
			"0.003": 13.0302044179,
			"0.004": 14.0220996024,
			"0.005": 7.77807286372,
			"0.006": 4.24552390578,
			"0.007": 2.07436949024,
			"0.008": 3.08504508767,
			"0.009": 3.72882173294,
			"0.01": 3.24532028656,
			"0.011": 4.44520812067,
			"0.012": 4.94984232283,
			"0.013": 6.0114869478,
			"0.014": 2.76728064046,
			"0.015": 1.03919785059,
			"0.016": 0.0,
			"0.017": 0.0,
			"0.018": 0.0,
			"0.019": 0.0,
			"0.02": 0.0,
			"0.021": 0.0,
			"0.022": 0.0,
			"0.023": 0.0,
			"0.024": 0.0,
			"0.025": 0.0
		}
	}
}
