{
	 "smiles": "NC1=CC=C(C=C1)C(=O)NC(CCC(O)=O)C(O)=O", 
	 "Tm": 446.15, 
	 "num_atms": 33, 
	 "gaussian": { 
		 "optdone": 1, 
		 "sigma_profile": "yes", 
		 "theory": "DFT", 
		 "functional": "B3LYP", 
		 "basiset": "6-31G**", 
		 "properties": { 
			 "R2extent": 7468.8016, 
			 "electric_dipole_moment_norm": 4.44618295058, 
			 "electric_quadrupole_moment_norm": 11.7036683715, 
			 "total_energy": -951.397485918, 
			 "HOMO_LUMO_gap": 0.18817, 
			 "cosmo_polarized_energy": -25.53, 
			 "cosmo_cavitation_energy": 37.62, 
			 "cosmo_dispersion_energy": -26.0, 
			 "cosmo_repulsion_energy": 2.02, 
			 "cosmo_total_nonelectrostatic_energy": 13.64, 
			 "SMD_solvation_energy": 8.68 
		},
		"coords": [
			{
				"x": -1.4329934251,
				"y": 1.0892631812,
				"z": -4.3382229042,
				"element": "N" 
			},
			{
				"x": -0.9071770607,
				"y": 0.7764732086,
				"z": -3.0916350642,
				"element": "C" 
			},
			{
				"x": 0.4284959431,
				"y": 1.0895348519,
				"z": -2.7736200941,
				"element": "C" 
			},
			{
				"x": 0.9325375508,
				"y": 0.821452405,
				"z": -1.5100604194,
				"element": "C" 
			},
			{
				"x": 0.1323549419,
				"y": 0.2422287642,
				"z": -0.5132481208,
				"element": "C" 
			},
			{
				"x": -1.1963530246,
				"y": -0.0764772101,
				"z": -0.8350531279,
				"element": "C" 
			},
			{
				"x": -1.7102464088,
				"y": 0.1834699611,
				"z": -2.0995276283,
				"element": "C" 
			},
			{
				"x": 0.7647425293,
				"y": -0.0074612326,
				"z": 0.8167349958,
				"element": "C" 
			},
			{
				"x": 1.9788127481,
				"y": 0.1026205607,
				"z": 0.9912385449,
				"element": "O" 
			},
			{
				"x": -0.0768986362,
				"y": -0.3869705778,
				"z": 1.8358690502,
				"element": "N" 
			},
			{
				"x": 0.4147402043,
				"y": -0.5590534351,
				"z": 3.186557619,
				"element": "C" 
			},
			{
				"x": 0.3040396831,
				"y": -2.007225069,
				"z": 3.7077684928,
				"element": "C" 
			},
			{
				"x": -1.0191576052,
				"y": -2.7317217616,
				"z": 3.3652140705,
				"element": "C" 
			},
			{
				"x": -2.2528029337,
				"y": -1.9505119328,
				"z": 3.7524406349,
				"element": "C" 
			},
			{
				"x": -2.876453738,
				"y": -2.4436852904,
				"z": 4.8369178999,
				"element": "O" 
			},
			{
				"x": -2.6626010325,
				"y": -0.9660079372,
				"z": 3.1595022902,
				"element": "O" 
			},
			{
				"x": -0.2179807631,
				"y": 0.4336747097,
				"z": 4.1654885565,
				"element": "C" 
			},
			{
				"x": -0.453483868,
				"y": 1.6352013606,
				"z": 3.6024740299,
				"element": "O" 
			},
			{
				"x": -0.4433892467,
				"y": 0.2008470719,
				"z": 5.3351504949,
				"element": "O" 
			},
			{
				"x": -0.7645900474,
				"y": 1.2013506986,
				"z": -5.0869413348,
				"element": "H" 
			},
			{
				"x": -2.2539997942,
				"y": 0.5723900302,
				"z": -4.6185593071,
				"element": "H" 
			},
			{
				"x": 1.0642755094,
				"y": 1.5472464863,
				"z": -3.5276534986,
				"element": "H" 
			},
			{
				"x": 1.9630795303,
				"y": 1.0527978554,
				"z": -1.2629346092,
				"element": "H" 
			},
			{
				"x": -1.8472454407,
				"y": -0.5563350449,
				"z": -0.1094636287,
				"element": "H" 
			},
			{
				"x": -2.7415879251,
				"y": -0.073256881,
				"z": -2.3282512121,
				"element": "H" 
			},
			{
				"x": -1.0790753873,
				"y": -0.2932434977,
				"z": 1.7413512168,
				"element": "H" 
			},
			{
				"x": 1.4789088168,
				"y": -0.2912188016,
				"z": 3.1408982993,
				"element": "H" 
			},
			{
				"x": 0.4530234386,
				"y": -1.992868906,
				"z": 4.7901547846,
				"element": "H" 
			},
			{
				"x": 1.1142883166,
				"y": -2.5938963769,
				"z": 3.2646455565,
				"element": "H" 
			},
			{
				"x": -1.034312759,
				"y": -3.7095016859,
				"z": 3.8515740281,
				"element": "H" 
			},
			{
				"x": -1.0696265403,
				"y": -2.8798019929,
				"z": 2.2825087333,
				"element": "H" 
			},
			{
				"x": -3.6213675631,
				"y": -1.8467222993,
				"z": 5.0241302347,
				"element": "H" 
			},
			{
				"x": -0.8213560127,
				"y": 2.1938087871,
				"z": 4.3075514166,
				"element": "H" 
			}
		],
		 "valence_orbital": [ 
			{
				"type": "occ",
				"energy": -0.28364,
				"method": "rhf"
			},
			{
				"type": "occ",
				"energy": -0.2522,
				"method": "rhf"
			},
			{
				"type": "occ",
				"energy": -0.24531,
				"method": "rhf"
			},
			{
				"type": "occ",
				"energy": -0.23912,
				"method": "rhf"
			},
			{
				"type": "occ",
				"energy": -0.207,
				"method": "rhf"
			},
			{
				"type": "unocc",
				"energy": -0.01883,
				"method": "rhf"
			},
			{
				"type": "unocc",
				"energy": -0.00448,
				"method": "rhf"
			},
			{
				"type": "unocc",
				"energy": 0.00034,
				"method": "rhf"
			},
			{
				"type": "unocc",
				"energy": 0.01036,
				"method": "rhf"
			},
			{
				"type": "unocc",
				"energy": 0.06921,
				"method": "rhf"
			}
		],
		"cosmo_sigma_profile": { 
			"-0.025": 0.0,
			"-0.024": 0.0,
			"-0.023": 0.0,
			"-0.022": 0.0,
			"-0.021": 0.0,
			"-0.02": 0.0,
			"-0.019": 0.302962878459,
			"-0.018": 1.98378419948,
			"-0.017": 1.86817724077,
			"-0.016": 1.60352453927,
			"-0.015": 1.20783059516,
			"-0.014": 1.92678974754,
			"-0.013": 2.33482487265,
			"-0.012": 4.04988355427,
			"-0.011": 5.26175498677,
			"-0.01": 4.67766131823,
			"-0.009": 3.81067263223,
			"-0.008": 4.57842086508,
			"-0.007": 7.53574827136,
			"-0.006": 13.1487732001,
			"-0.005": 18.3442880015,
			"-0.004": 22.4735067025,
			"-0.003": 20.5997311404,
			"-0.002": 15.0160776066,
			"-0.001": 13.3443396693,
			"0.0": 12.540182158,
			"0.001": 12.9830518046,
			"0.002": 13.6251768164,
			"0.003": 15.5031642821,
			"0.004": 17.0555999674,
			"0.005": 21.234303854,
			"0.006": 12.1094301834,
			"0.007": 7.68329823882,
			"0.008": 7.3797357405,
			"0.009": 6.44261137964,
			"0.01": 6.29522445597,
			"0.011": 7.43904867908,
			"0.012": 5.20622743866,
			"0.013": 3.58276152243,
			"0.014": 3.89435290181,
			"0.015": 0.0695722956665,
			"0.016": 0.0,
			"0.017": 0.0,
			"0.018": 0.0,
			"0.019": 0.0,
			"0.02": 0.0,
			"0.021": 0.0,
			"0.022": 0.0,
			"0.023": 0.0,
			"0.024": 0.0,
			"0.025": 0.0
		}
	}
}
