{
	 "smiles": "COC1=CC=C(C=C1)C(N)CC(O)=O", 
	 "Tm": 511.15, 
	 "num_atms": 27, 
	 "gaussian": { 
		 "optdone": 1, 
		 "sigma_profile": "yes", 
		 "theory": "DFT", 
		 "functional": "B3LYP", 
		 "basiset": "6-31G**", 
		 "properties": { 
			 "R2extent": 4050.9209, 
			 "electric_dipole_moment_norm": 4.93186528405, 
			 "electric_quadrupole_moment_norm": 32.7147659171, 
			 "total_energy": -669.313809155, 
			 "HOMO_LUMO_gap": 0.21336, 
			 "cosmo_polarized_energy": -18.97, 
			 "cosmo_cavitation_energy": 30.39, 
			 "cosmo_dispersion_energy": -21.63, 
			 "cosmo_repulsion_energy": 1.72, 
			 "cosmo_total_nonelectrostatic_energy": 10.47, 
			 "SMD_solvation_energy": 5.8 
		},
		"coords": [
			{
				"x": -0.2538677851,
				"y": -0.5744025693,
				"z": -3.9645530125,
				"element": "C" 
			},
			{
				"x": -0.6122432693,
				"y": 0.367642034,
				"z": -2.9631865495,
				"element": "O" 
			},
			{
				"x": -0.1626928824,
				"y": 0.1659125534,
				"z": -1.6949339721,
				"element": "C" 
			},
			{
				"x": 0.6391836858,
				"y": -0.9087700444,
				"z": -1.2916486527,
				"element": "C" 
			},
			{
				"x": 1.0393652244,
				"y": -1.0081876023,
				"z": 0.0428871311,
				"element": "C" 
			},
			{
				"x": 0.6675667605,
				"y": -0.0572777581,
				"z": 0.9996262292,
				"element": "C" 
			},
			{
				"x": -0.1358055794,
				"y": 1.0173112725,
				"z": 0.5708368752,
				"element": "C" 
			},
			{
				"x": -0.54708062,
				"y": 1.1310331642,
				"z": -0.7508132757,
				"element": "C" 
			},
			{
				"x": 1.0713580287,
				"y": -0.2211533648,
				"z": 2.4609371511,
				"element": "C" 
			},
			{
				"x": -0.1048141614,
				"y": -0.6511204717,
				"z": 3.232107031,
				"element": "N" 
			},
			{
				"x": 1.7692745097,
				"y": 1.0346560784,
				"z": 3.0605066542,
				"element": "C" 
			},
			{
				"x": 3.1641294377,
				"y": 1.3580707798,
				"z": 2.526631069,
				"element": "C" 
			},
			{
				"x": 3.3014569408,
				"y": 1.4080820508,
				"z": 1.1795793758,
				"element": "O" 
			},
			{
				"x": 4.1103364468,
				"y": 1.5768201983,
				"z": 3.2438654077,
				"element": "O" 
			},
			{
				"x": -0.6344414058,
				"y": -1.576608987,
				"z": -3.7306085376,
				"element": "H" 
			},
			{
				"x": 0.8337500499,
				"y": -0.6244513115,
				"z": -4.1009270525,
				"element": "H" 
			},
			{
				"x": -0.7155254207,
				"y": -0.2212791665,
				"z": -4.8875217005,
				"element": "H" 
			},
			{
				"x": 0.9549071598,
				"y": -1.6669229462,
				"z": -1.9981194018,
				"element": "H" 
			},
			{
				"x": 1.6547583964,
				"y": -1.8516184045,
				"z": 0.344423693,
				"element": "H" 
			},
			{
				"x": -0.4511120482,
				"y": 1.7802533506,
				"z": 1.278566751,
				"element": "H" 
			},
			{
				"x": -1.1655507904,
				"y": 1.9595858778,
				"z": -1.079576504,
				"element": "H" 
			},
			{
				"x": 1.7907546586,
				"y": -1.0478593042,
				"z": 2.5123050084,
				"element": "H" 
			},
			{
				"x": -0.8320357672,
				"y": 0.0595742746,
				"z": 3.1850728862,
				"element": "H" 
			},
			{
				"x": 0.1425354256,
				"y": -0.7507197883,
				"z": 4.2147591287,
				"element": "H" 
			},
			{
				"x": 1.1311401382,
				"y": 1.9168293096,
				"z": 2.9152509757,
				"element": "H" 
			},
			{
				"x": 1.8883125753,
				"y": 0.9008099918,
				"z": 4.138361103,
				"element": "H" 
			},
			{
				"x": 2.4648402917,
				"y": 1.1686907829,
				"z": 0.7453721885,
				"element": "H" 
			}
		],
		 "valence_orbital": [ 
			{
				"type": "occ",
				"energy": -0.30239,
				"method": "rhf"
			},
			{
				"type": "occ",
				"energy": -0.26966,
				"method": "rhf"
			},
			{
				"type": "occ",
				"energy": -0.26823,
				"method": "rhf"
			},
			{
				"type": "occ",
				"energy": -0.23973,
				"method": "rhf"
			},
			{
				"type": "occ",
				"energy": -0.23412,
				"method": "rhf"
			},
			{
				"type": "unocc",
				"energy": -0.02076,
				"method": "rhf"
			},
			{
				"type": "unocc",
				"energy": -0.01128,
				"method": "rhf"
			},
			{
				"type": "unocc",
				"energy": 0.01872,
				"method": "rhf"
			},
			{
				"type": "unocc",
				"energy": 0.06839,
				"method": "rhf"
			},
			{
				"type": "unocc",
				"energy": 0.08511,
				"method": "rhf"
			}
		],
		"cosmo_sigma_profile": { 
			"-0.025": 0.0,
			"-0.024": 0.0,
			"-0.023": 0.0,
			"-0.022": 0.0,
			"-0.021": 0.0,
			"-0.02": 0.0,
			"-0.019": 0.0,
			"-0.018": 0.0,
			"-0.017": 0.0,
			"-0.016": 0.0,
			"-0.015": 0.0,
			"-0.014": 0.0,
			"-0.013": 0.0,
			"-0.012": 0.0,
			"-0.011": 0.0175035766913,
			"-0.01": 2.13802161728,
			"-0.009": 5.37220248991,
			"-0.008": 6.5340508977,
			"-0.007": 10.8519981884,
			"-0.006": 21.6392347174,
			"-0.005": 26.081066681,
			"-0.004": 21.0952272179,
			"-0.003": 17.5858645289,
			"-0.002": 13.2640433546,
			"-0.001": 9.40931588077,
			"0.0": 9.82241163488,
			"0.001": 9.41327888686,
			"0.002": 10.1513148446,
			"0.003": 11.1535445685,
			"0.004": 8.44128449714,
			"0.005": 7.98211553657,
			"0.006": 5.77830176764,
			"0.007": 4.87849898344,
			"0.008": 5.17512656325,
			"0.009": 4.7497672041,
			"0.01": 6.62526361251,
			"0.011": 5.87313701862,
			"0.012": 6.82463911448,
			"0.013": 4.58213070953,
			"0.014": 1.37073115932,
			"0.015": 0.557279091679,
			"0.016": 0.479785814433,
			"0.017": 0.757153489986,
			"0.018": 0.406329793889,
			"0.019": 0.479742764048,
			"0.02": 0.0,
			"0.021": 0.0,
			"0.022": 0.0,
			"0.023": 0.0,
			"0.024": 0.0,
			"0.025": 0.0
		}
	}
}
