{
	 "smiles": "NC(=O)C1=C(O)C=CC(=C1)C(=O)CN(CC1=CC=CC=C1)CC1=CC=CC=C1", 
	 "Tm": 441.15, 
	 "num_atms": 50, 
	 "gaussian": { 
		 "optdone": 1, 
		 "sigma_profile": "yes", 
		 "theory": "DFT", 
		 "functional": "B3LYP", 
		 "basiset": "6-31G**", 
		 "properties": { 
			 "R2extent": 12248.4099, 
			 "electric_dipole_moment_norm": 4.94087460375, 
			 "electric_quadrupole_moment_norm": 12.0148426611, 
			 "total_energy": -1224.90729994, 
			 "HOMO_LUMO_gap": 0.16621, 
			 "cosmo_polarized_energy": -18.39, 
			 "cosmo_cavitation_energy": 51.89, 
			 "cosmo_dispersion_energy": -34.6, 
			 "cosmo_repulsion_energy": 2.55, 
			 "cosmo_total_nonelectrostatic_energy": 19.83, 
			 "SMD_solvation_energy": 9.39 
		},
		"coords": [
			{
				"x": 0.4305360582,
				"y": 1.9910480349,
				"z": 3.3319381705,
				"element": "N" 
			},
			{
				"x": 1.7143396643,
				"y": 2.3448017059,
				"z": 3.0562050263,
				"element": "C" 
			},
			{
				"x": 2.441229073,
				"y": 2.7913269579,
				"z": 3.9663452763,
				"element": "O" 
			},
			{
				"x": 2.2213776832,
				"y": 2.2043741975,
				"z": 1.6686864531,
				"element": "C" 
			},
			{
				"x": 3.6107709693,
				"y": 2.422562735,
				"z": 1.4391718353,
				"element": "C" 
			},
			{
				"x": 4.4437815955,
				"y": 2.7884791193,
				"z": 2.4112185402,
				"element": "O" 
			},
			{
				"x": 4.1338279273,
				"y": 2.2445625371,
				"z": 0.1416239607,
				"element": "C" 
			},
			{
				"x": 3.3044258959,
				"y": 1.8922962717,
				"z": -0.9028361567,
				"element": "C" 
			},
			{
				"x": 1.9167224652,
				"y": 1.710889006,
				"z": -0.7068657022,
				"element": "C" 
			},
			{
				"x": 1.4025660435,
				"y": 1.871531807,
				"z": 0.5822450928,
				"element": "C" 
			},
			{
				"x": 1.0715575254,
				"y": 1.375989598,
				"z": -1.8828143067,
				"element": "C" 
			},
			{
				"x": 1.5687185861,
				"y": 1.2080446336,
				"z": -2.9913615385,
				"element": "O" 
			},
			{
				"x": -0.4520377291,
				"y": 1.2631340678,
				"z": -1.7137069912,
				"element": "C" 
			},
			{
				"x": -0.8291071912,
				"y": 0.1324302287,
				"z": -0.8622437776,
				"element": "N" 
			},
			{
				"x": -2.1926418349,
				"y": 0.2269698116,
				"z": -0.3407816586,
				"element": "C" 
			},
			{
				"x": -2.4091908275,
				"y": -0.5617372291,
				"z": 0.9429949994,
				"element": "C" 
			},
			{
				"x": -3.7050933413,
				"y": -0.9459605973,
				"z": 1.3104901071,
				"element": "C" 
			},
			{
				"x": -3.9412748141,
				"y": -1.6030393199,
				"z": 2.5189679478,
				"element": "C" 
			},
			{
				"x": -2.8800581993,
				"y": -1.8981148212,
				"z": 3.3774192987,
				"element": "C" 
			},
			{
				"x": -1.5822580118,
				"y": -1.5336857939,
				"z": 3.0148630286,
				"element": "C" 
			},
			{
				"x": -1.3494762563,
				"y": -0.8694414959,
				"z": 1.8076524625,
				"element": "C" 
			},
			{
				"x": -0.4965222616,
				"y": -1.1887223107,
				"z": -1.4486565774,
				"element": "C" 
			},
			{
				"x": -1.2702412042,
				"y": -1.5885954421,
				"z": -2.6951794481,
				"element": "C" 
			},
			{
				"x": -2.4432863852,
				"y": -2.3507066392,
				"z": -2.590954331,
				"element": "C" 
			},
			{
				"x": -3.1692268644,
				"y": -2.7088521315,
				"z": -3.7283810281,
				"element": "C" 
			},
			{
				"x": -2.7282449363,
				"y": -2.3111314232,
				"z": -4.9916966005,
				"element": "C" 
			},
			{
				"x": -1.5578009428,
				"y": -1.5587309174,
				"z": -5.1098764091,
				"element": "C" 
			},
			{
				"x": -0.8324345407,
				"y": -1.201526328,
				"z": -3.9718309974,
				"element": "C" 
			},
			{
				"x": 0.1661236451,
				"y": 2.0303268356,
				"z": 4.3054401215,
				"element": "H" 
			},
			{
				"x": -0.1148486943,
				"y": 1.3963316879,
				"z": 2.7273372605,
				"element": "H" 
			},
			{
				"x": 3.878807768,
				"y": 2.8994594498,
				"z": 3.2299357911,
				"element": "H" 
			},
			{
				"x": 5.1970688016,
				"y": 2.4040895068,
				"z": -0.0025729602,
				"element": "H" 
			},
			{
				"x": 3.6970574753,
				"y": 1.7599776581,
				"z": -1.9057166193,
				"element": "H" 
			},
			{
				"x": 0.340657193,
				"y": 1.7283985935,
				"z": 0.736558846,
				"element": "H" 
			},
			{
				"x": -0.8161442523,
				"y": 2.1815474936,
				"z": -1.2377688218,
				"element": "H" 
			},
			{
				"x": -0.881962055,
				"y": 1.2232304239,
				"z": -2.7246985079,
				"element": "H" 
			},
			{
				"x": -2.3826825593,
				"y": 1.2864664359,
				"z": -0.1230665101,
				"element": "H" 
			},
			{
				"x": -2.9563932793,
				"y": -0.0663264158,
				"z": -1.0805496481,
				"element": "H" 
			},
			{
				"x": -4.5368729734,
				"y": -0.7252632037,
				"z": 0.645271884,
				"element": "H" 
			},
			{
				"x": -4.9540012783,
				"y": -1.8909552102,
				"z": 2.786857917,
				"element": "H" 
			},
			{
				"x": -3.0621281506,
				"y": -2.4157893623,
				"z": 4.3146338525,
				"element": "H" 
			},
			{
				"x": -0.7469311652,
				"y": -1.7742233374,
				"z": 3.6670530951,
				"element": "H" 
			},
			{
				"x": -0.3382725822,
				"y": -0.6106557098,
				"z": 1.5063501929,
				"element": "H" 
			},
			{
				"x": -0.6589036803,
				"y": -1.9348220016,
				"z": -0.6649450917,
				"element": "H" 
			},
			{
				"x": 0.5759094498,
				"y": -1.1851996127,
				"z": -1.6671899808,
				"element": "H" 
			},
			{
				"x": -2.7819644718,
				"y": -2.6777583017,
				"z": -1.6103597191,
				"element": "H" 
			},
			{
				"x": -4.0727198516,
				"y": -3.3041553998,
				"z": -3.628515551,
				"element": "H" 
			},
			{
				"x": -3.2889602899,
				"y": -2.5919306334,
				"z": -5.8788125113,
				"element": "H" 
			},
			{
				"x": -1.2038090784,
				"y": -1.253937965,
				"z": -6.0908111054,
				"element": "H" 
			},
			{
				"x": 0.0800118829,
				"y": -0.6191071943,
				"z": -4.0708686101,
				"element": "H" 
			}
		],
		 "valence_orbital": [ 
			{
				"type": "occ",
				"energy": -0.25538,
				"method": "rhf"
			},
			{
				"type": "occ",
				"energy": -0.24866,
				"method": "rhf"
			},
			{
				"type": "occ",
				"energy": -0.24524,
				"method": "rhf"
			},
			{
				"type": "occ",
				"energy": -0.23518,
				"method": "rhf"
			},
			{
				"type": "occ",
				"energy": -0.22255,
				"method": "rhf"
			},
			{
				"type": "unocc",
				"energy": -0.05634,
				"method": "rhf"
			},
			{
				"type": "unocc",
				"energy": -0.04965,
				"method": "rhf"
			},
			{
				"type": "unocc",
				"energy": -0.01928,
				"method": "rhf"
			},
			{
				"type": "unocc",
				"energy": -0.01509,
				"method": "rhf"
			},
			{
				"type": "unocc",
				"energy": -0.00416,
				"method": "rhf"
			}
		],
		"cosmo_sigma_profile": { 
			"-0.025": 0.0,
			"-0.024": 0.0,
			"-0.023": 0.0,
			"-0.022": 0.0,
			"-0.021": 0.0,
			"-0.02": 0.0,
			"-0.019": 0.0,
			"-0.018": 0.0,
			"-0.017": 0.0,
			"-0.016": 0.0,
			"-0.015": 0.349336627199,
			"-0.014": 0.879116399886,
			"-0.013": 1.2918368436,
			"-0.012": 1.22418702194,
			"-0.011": 0.894021797988,
			"-0.01": 1.80065676614,
			"-0.009": 2.50863208799,
			"-0.008": 4.90601509576,
			"-0.007": 7.71609037532,
			"-0.006": 14.4327122075,
			"-0.005": 27.5771583138,
			"-0.004": 30.7821036941,
			"-0.003": 38.4416315928,
			"-0.002": 37.2383538284,
			"-0.001": 36.2180532102,
			"0.0": 29.2890126396,
			"0.001": 32.7688646102,
			"0.002": 30.6683258753,
			"0.003": 25.6265583784,
			"0.004": 19.9150191645,
			"0.005": 20.0649374785,
			"0.006": 17.5255724957,
			"0.007": 5.57443605331,
			"0.008": 4.51882198918,
			"0.009": 4.93914621636,
			"0.01": 5.15985050946,
			"0.011": 5.38127074532,
			"0.012": 4.73134729634,
			"0.013": 1.34539320916,
			"0.014": 0.0300222502087,
			"0.015": 0.0,
			"0.016": 0.0,
			"0.017": 0.0,
			"0.018": 0.0,
			"0.019": 0.0,
			"0.02": 0.0,
			"0.021": 0.0,
			"0.022": 0.0,
			"0.023": 0.0,
			"0.024": 0.0,
			"0.025": 0.0
		}
	}
}
