{
	 "smiles": "OC(=O)C1=CC(=CC=C1)S(Cl)(=O)=O", 
	 "Tm": 408.15, 
	 "num_atms": 18, 
	 "gaussian": { 
		 "optdone": 1, 
		 "sigma_profile": "yes", 
		 "theory": "DFT", 
		 "functional": "B3LYP", 
		 "basiset": "6-31G**", 
		 "properties": { 
			 "R2extent": 4629.8744, 
			 "electric_dipole_moment_norm": 6.11465438843, 
			 "electric_quadrupole_moment_norm": 13.7925573822, 
			 "total_energy": -1428.97993384, 
			 "HOMO_LUMO_gap": 0.20158, 
			 "cosmo_polarized_energy": -13.89, 
			 "cosmo_cavitation_energy": 26.99, 
			 "cosmo_dispersion_energy": -20.16, 
			 "cosmo_repulsion_energy": 1.56, 
			 "cosmo_total_nonelectrostatic_energy": 8.39, 
			 "SMD_solvation_energy": 4.65 
		},
		"coords": [
			{
				"x": 1.1306683683,
				"y": 2.1669370298,
				"z": -1.6479271406,
				"element": "O" 
			},
			{
				"x": 1.1172085921,
				"y": 1.1353599666,
				"z": -0.772370898,
				"element": "C" 
			},
			{
				"x": 1.9249993958,
				"y": 0.2314837479,
				"z": -0.807253016,
				"element": "O" 
			},
			{
				"x": 0.0106120628,
				"y": 1.2383831577,
				"z": 0.2230444783,
				"element": "C" 
			},
			{
				"x": -0.0956650446,
				"y": 0.2205940612,
				"z": 1.1771200886,
				"element": "C" 
			},
			{
				"x": -1.1183851946,
				"y": 0.300327835,
				"z": 2.1159471355,
				"element": "C" 
			},
			{
				"x": -2.0339072629,
				"y": 1.3553014844,
				"z": 2.14139076,
				"element": "C" 
			},
			{
				"x": -1.9136319256,
				"y": 2.3617722018,
				"z": 1.184105679,
				"element": "C" 
			},
			{
				"x": -0.8988894378,
				"y": 2.3048458312,
				"z": 0.2278095952,
				"element": "C" 
			},
			{
				"x": -1.2532536839,
				"y": -0.9835551387,
				"z": 3.3565260057,
				"element": "S" 
			},
			{
				"x": -2.5468895944,
				"y": -2.3667621215,
				"z": 2.3774871213,
				"element": "Cl" 
			},
			{
				"x": 0.0312480501,
				"y": -1.6545522723,
				"z": 3.5003601619,
				"element": "O" 
			},
			{
				"x": -1.99899332,
				"y": -0.4660995943,
				"z": 4.4968687831,
				"element": "O" 
			},
			{
				"x": 1.8791834446,
				"y": 2.0052028268,
				"z": -2.2458715466,
				"element": "H" 
			},
			{
				"x": 0.6149432108,
				"y": -0.5981475994,
				"z": 1.1746964846,
				"element": "H" 
			},
			{
				"x": -2.8093054251,
				"y": 1.3849603055,
				"z": 2.898653997,
				"element": "H" 
			},
			{
				"x": -2.6110206619,
				"y": 3.1930746232,
				"z": 1.1871159169,
				"element": "H" 
			},
			{
				"x": -0.8043215737,
				"y": 3.0861736551,
				"z": -0.5174036059,
				"element": "H" 
			}
		],
		 "valence_orbital": [ 
			{
				"type": "occ",
				"energy": -0.3366,
				"method": "rhf"
			},
			{
				"type": "occ",
				"energy": -0.31689,
				"method": "rhf"
			},
			{
				"type": "occ",
				"energy": -0.30047,
				"method": "rhf"
			},
			{
				"type": "occ",
				"energy": -0.29997,
				"method": "rhf"
			},
			{
				"type": "occ",
				"energy": -0.2973,
				"method": "rhf"
			},
			{
				"type": "unocc",
				"energy": -0.09572,
				"method": "rhf"
			},
			{
				"type": "unocc",
				"energy": -0.07759,
				"method": "rhf"
			},
			{
				"type": "unocc",
				"energy": -0.05032,
				"method": "rhf"
			},
			{
				"type": "unocc",
				"energy": 0.01738,
				"method": "rhf"
			},
			{
				"type": "unocc",
				"energy": 0.05031,
				"method": "rhf"
			}
		],
		"cosmo_sigma_profile": { 
			"-0.025": 0.0,
			"-0.024": 0.0,
			"-0.023": 0.0,
			"-0.022": 0.0,
			"-0.021": 0.0,
			"-0.02": 0.0,
			"-0.019": 0.426431594848,
			"-0.018": 1.06346735464,
			"-0.017": 0.618700634179,
			"-0.016": 1.14103864861,
			"-0.015": 1.04952019593,
			"-0.014": 0.440936315657,
			"-0.013": 0.139743438009,
			"-0.012": 0.66201307843,
			"-0.011": 1.35864453789,
			"-0.01": 0.619442907032,
			"-0.009": 2.2463750834,
			"-0.008": 6.56621891519,
			"-0.007": 8.22166369196,
			"-0.006": 9.02132070981,
			"-0.005": 7.42728197155,
			"-0.004": 10.3006075318,
			"-0.003": 13.4672903499,
			"-0.002": 18.1860600881,
			"-0.001": 22.8723616096,
			"0.0": 18.3124015362,
			"0.001": 13.1030341535,
			"0.002": 11.233746335,
			"0.003": 17.5211535767,
			"0.004": 9.54166533617,
			"0.005": 5.2644393229,
			"0.006": 6.58072288056,
			"0.007": 8.90093963804,
			"0.008": 10.880044942,
			"0.009": 4.65002928229,
			"0.01": 2.5653942388,
			"0.011": 4.75063075481,
			"0.012": 0.695317287552,
			"0.013": 0.0,
			"0.014": 0.0,
			"0.015": 0.0,
			"0.016": 0.0,
			"0.017": 0.0,
			"0.018": 0.0,
			"0.019": 0.0,
			"0.02": 0.0,
			"0.021": 0.0,
			"0.022": 0.0,
			"0.023": 0.0,
			"0.024": 0.0,
			"0.025": 0.0
		}
	}
}
