{
	 "smiles": "NC1=C(C#N)C(OCCO)=NN1", 
	 "Tm": 437.15, 
	 "num_atms": 20, 
	 "gaussian": { 
		 "optdone": 1, 
		 "sigma_profile": "yes", 
		 "theory": "DFT", 
		 "functional": "B3LYP", 
		 "basiset": "6-31G**", 
		 "properties": { 
			 "R2extent": 2548.6702, 
			 "electric_dipole_moment_norm": 6.49004504915, 
			 "electric_quadrupole_moment_norm": 12.6410739378, 
			 "total_energy": -602.858087967, 
			 "HOMO_LUMO_gap": 0.22876, 
			 "cosmo_polarized_energy": -23.47, 
			 "cosmo_cavitation_energy": 26.02, 
			 "cosmo_dispersion_energy": -18.55, 
			 "cosmo_repulsion_energy": 1.55, 
			 "cosmo_total_nonelectrostatic_energy": 9.01, 
			 "SMD_solvation_energy": 5.38 
		},
		"coords": [
			{
				"x": -1.1756518597,
				"y": -2.5808226478,
				"z": 1.7033236339,
				"element": "N" 
			},
			{
				"x": -0.9779253269,
				"y": -1.6122424186,
				"z": 0.7450330336,
				"element": "C" 
			},
			{
				"x": 0.1502549531,
				"y": -0.8277619675,
				"z": 0.4770865143,
				"element": "C" 
			},
			{
				"x": 1.4114819395,
				"y": -0.9398780746,
				"z": 1.0970076603,
				"element": "C" 
			},
			{
				"x": 2.4402962303,
				"y": -1.0655767996,
				"z": 1.631522984,
				"element": "N" 
			},
			{
				"x": -0.2841918856,
				"y": 0.0516336133,
				"z": -0.5662177546,
				"element": "C" 
			},
			{
				"x": 0.5110075489,
				"y": 0.9731140207,
				"z": -1.1263522977,
				"element": "O" 
			},
			{
				"x": -0.0820489651,
				"y": 1.8115227734,
				"z": -2.139883729,
				"element": "C" 
			},
			{
				"x": 0.9951298239,
				"y": 2.8015097746,
				"z": -2.5455402413,
				"element": "C" 
			},
			{
				"x": 1.3873571912,
				"y": 3.6326215715,
				"z": -1.4704576959,
				"element": "O" 
			},
			{
				"x": -1.5355506974,
				"y": -0.155543854,
				"z": -0.9236173093,
				"element": "N" 
			},
			{
				"x": -1.9393101667,
				"y": -1.1942196462,
				"z": -0.1067859322,
				"element": "N" 
			},
			{
				"x": -0.323944418,
				"y": -2.8699885778,
				"z": 2.1672332202,
				"element": "H" 
			},
			{
				"x": -1.7475256988,
				"y": -3.3683265005,
				"z": 1.4269985587,
				"element": "H" 
			},
			{
				"x": -0.4106946743,
				"y": 1.1941334427,
				"z": -2.9840693003,
				"element": "H" 
			},
			{
				"x": -0.9531864588,
				"y": 2.3239932447,
				"z": -1.7184571268,
				"element": "H" 
			},
			{
				"x": 1.8498209744,
				"y": 2.2518975876,
				"z": -2.9708309556,
				"element": "H" 
			},
			{
				"x": 0.5974091226,
				"y": 3.4565124276,
				"z": -3.3278609968,
				"element": "H" 
			},
			{
				"x": 1.6885995496,
				"y": 3.0461514161,
				"z": -0.7627975819,
				"element": "H" 
			},
			{
				"x": -2.9113271823,
				"y": -1.4581293857,
				"z": -0.1082346837,
				"element": "H" 
			}
		],
		 "valence_orbital": [ 
			{
				"type": "occ",
				"energy": -0.32706,
				"method": "rhf"
			},
			{
				"type": "occ",
				"energy": -0.30568,
				"method": "rhf"
			},
			{
				"type": "occ",
				"energy": -0.26798,
				"method": "rhf"
			},
			{
				"type": "occ",
				"energy": -0.24258,
				"method": "rhf"
			},
			{
				"type": "occ",
				"energy": -0.23122,
				"method": "rhf"
			},
			{
				"type": "unocc",
				"energy": -0.00246,
				"method": "rhf"
			},
			{
				"type": "unocc",
				"energy": 0.02459,
				"method": "rhf"
			},
			{
				"type": "unocc",
				"energy": 0.03026,
				"method": "rhf"
			},
			{
				"type": "unocc",
				"energy": 0.04969,
				"method": "rhf"
			},
			{
				"type": "unocc",
				"energy": 0.07642,
				"method": "rhf"
			}
		],
		"cosmo_sigma_profile": { 
			"-0.025": 0.0,
			"-0.024": 0.0,
			"-0.023": 0.0,
			"-0.022": 0.0,
			"-0.021": 0.0,
			"-0.02": 0.0,
			"-0.019": 0.0,
			"-0.018": 0.1722041757,
			"-0.017": 1.8650452709,
			"-0.016": 2.52192259945,
			"-0.015": 2.87112994417,
			"-0.014": 3.65491434726,
			"-0.013": 3.2247685763,
			"-0.012": 5.01941769572,
			"-0.011": 3.92418426912,
			"-0.01": 3.21090361449,
			"-0.009": 2.77403949078,
			"-0.008": 3.50509043633,
			"-0.007": 3.00530936977,
			"-0.006": 7.73272090693,
			"-0.005": 13.5908137371,
			"-0.004": 11.9371866418,
			"-0.003": 9.44822228667,
			"-0.002": 8.04613413918,
			"-0.001": 8.23777450469,
			"0.0": 10.3707792423,
			"0.001": 17.099288611,
			"0.002": 10.9428632299,
			"0.003": 8.16329246838,
			"0.004": 7.45555618841,
			"0.005": 6.916404676,
			"0.006": 5.00405541404,
			"0.007": 6.56297699543,
			"0.008": 5.26009629614,
			"0.009": 6.27026900316,
			"0.01": 6.89862415849,
			"0.011": 5.9360348858,
			"0.012": 5.13498427064,
			"0.013": 5.54018551861,
			"0.014": 4.19783707337,
			"0.015": 0.207833471994,
			"0.016": 0.0,
			"0.017": 0.0,
			"0.018": 0.0,
			"0.019": 0.0,
			"0.02": 0.0,
			"0.021": 0.0,
			"0.022": 0.0,
			"0.023": 0.0,
			"0.024": 0.0,
			"0.025": 0.0
		}
	}
}
