{
	 "smiles": "FC(F)(F)C1=CN=C(Cl)C=C1", 
	 "Tm": 305.15, 
	 "num_atms": 14, 
	 "gaussian": { 
		 "optdone": 1, 
		 "sigma_profile": "yes", 
		 "theory": "DFT", 
		 "functional": "B3LYP", 
		 "basiset": "6-31G**", 
		 "properties": { 
			 "R2extent": 2416.4029, 
			 "electric_dipole_moment_norm": 1.94667824255, 
			 "electric_quadrupole_moment_norm": 8.8963350898, 
			 "total_energy": -1044.91040226, 
			 "HOMO_LUMO_gap": 0.22136, 
			 "cosmo_polarized_energy": -6.05, 
			 "cosmo_cavitation_energy": 22.1, 
			 "cosmo_dispersion_energy": -16.09, 
			 "cosmo_repulsion_energy": 1.24, 
			 "cosmo_total_nonelectrostatic_energy": 7.24, 
			 "SMD_solvation_energy": 3.37 
		},
		"coords": [
			{
				"x": -0.0276491921,
				"y": 2.7248214551,
				"z": 1.5433020326,
				"element": "F" 
			},
			{
				"x": -0.1155120357,
				"y": 2.1778647661,
				"z": 0.3103876858,
				"element": "C" 
			},
			{
				"x": 0.8315979107,
				"y": 2.7586059703,
				"z": -0.4540083274,
				"element": "F" 
			},
			{
				"x": -1.3218848097,
				"y": 2.5269348631,
				"z": -0.1886539224,
				"element": "F" 
			},
			{
				"x": 0.0439893628,
				"y": 0.683652902,
				"z": 0.3587125489,
				"element": "C" 
			},
			{
				"x": 1.2725294252,
				"y": 0.0817057063,
				"z": 0.0898495859,
				"element": "C" 
			},
			{
				"x": 1.4695734172,
				"y": -1.2410268852,
				"z": 0.1625931685,
				"element": "N" 
			},
			{
				"x": 0.4387427201,
				"y": -1.9914169737,
				"z": 0.5071175097,
				"element": "C" 
			},
			{
				"x": 0.7181486911,
				"y": -3.7232129258,
				"z": 0.5999783625,
				"element": "Cl" 
			},
			{
				"x": -0.8419797527,
				"y": -1.5051894235,
				"z": 0.7957364438,
				"element": "C" 
			},
			{
				"x": -1.0340668367,
				"y": -0.1324399639,
				"z": 0.7175023993,
				"element": "C" 
			},
			{
				"x": 2.13016057,
				"y": 0.6808875516,
				"z": -0.201869466,
				"element": "H" 
			},
			{
				"x": -1.6445185144,
				"y": -2.1807024096,
				"z": 1.0652503924,
				"element": "H" 
			},
			{
				"x": -2.0071309559,
				"y": 0.3016153673,
				"z": 0.9229015863,
				"element": "H" 
			}
		],
		 "valence_orbital": [ 
			{
				"type": "occ",
				"energy": -0.35495,
				"method": "rhf"
			},
			{
				"type": "occ",
				"energy": -0.32672,
				"method": "rhf"
			},
			{
				"type": "occ",
				"energy": -0.31845,
				"method": "rhf"
			},
			{
				"type": "occ",
				"energy": -0.29197,
				"method": "rhf"
			},
			{
				"type": "occ",
				"energy": -0.27905,
				"method": "rhf"
			},
			{
				"type": "unocc",
				"energy": -0.05769,
				"method": "rhf"
			},
			{
				"type": "unocc",
				"energy": -0.04957,
				"method": "rhf"
			},
			{
				"type": "unocc",
				"energy": 0.02211,
				"method": "rhf"
			},
			{
				"type": "unocc",
				"energy": 0.09446,
				"method": "rhf"
			},
			{
				"type": "unocc",
				"energy": 0.09753,
				"method": "rhf"
			}
		],
		"cosmo_sigma_profile": { 
			"-0.025": 0.0,
			"-0.024": 0.0,
			"-0.023": 0.0,
			"-0.022": 0.0,
			"-0.021": 0.0,
			"-0.02": 0.0,
			"-0.019": 0.0,
			"-0.018": 0.0,
			"-0.017": 0.0,
			"-0.016": 0.0,
			"-0.015": 0.0,
			"-0.014": 0.0,
			"-0.013": 0.0,
			"-0.012": 0.0,
			"-0.011": 0.0,
			"-0.01": 0.29244519054,
			"-0.009": 3.63998128182,
			"-0.008": 5.91678471177,
			"-0.007": 5.12140934545,
			"-0.006": 5.32671114676,
			"-0.005": 6.23504579841,
			"-0.004": 5.40361692878,
			"-0.003": 9.73418018711,
			"-0.002": 16.205086929,
			"-0.001": 19.8386446251,
			"0.0": 14.8899806019,
			"0.001": 13.4306868988,
			"0.002": 29.3705608671,
			"0.003": 23.6152472172,
			"0.004": 8.54429079396,
			"0.005": 3.64240220033,
			"0.006": 2.28904873698,
			"0.007": 1.4823773357,
			"0.008": 0.927406139722,
			"0.009": 1.00161366694,
			"0.01": 1.16117286959,
			"0.011": 0.83509145555,
			"0.012": 0.873533155383,
			"0.013": 0.926300799396,
			"0.014": 0.214067222757,
			"0.015": 0.0,
			"0.016": 0.0,
			"0.017": 0.0,
			"0.018": 0.0,
			"0.019": 0.0,
			"0.02": 0.0,
			"0.021": 0.0,
			"0.022": 0.0,
			"0.023": 0.0,
			"0.024": 0.0,
			"0.025": 0.0
		}
	}
}
