{
	 "smiles": "CC1=CC=CC=C1Cl", 
	 "Tm": 237.65, 
	 "num_atms": 15, 
	 "gaussian": { 
		 "optdone": 1, 
		 "sigma_profile": "yes", 
		 "theory": "DFT", 
		 "functional": "B3LYP", 
		 "basiset": "6-31G**", 
		 "properties": { 
			 "R2extent": 1819.5101, 
			 "electric_dipole_moment_norm": 1.65907406405, 
			 "electric_quadrupole_moment_norm": 5.3922819381, 
			 "total_energy": -731.164759091, 
			 "HOMO_LUMO_gap": 0.23148, 
			 "cosmo_polarized_energy": -3.48, 
			 "cosmo_cavitation_energy": 20.03, 
			 "cosmo_dispersion_energy": -15.1, 
			 "cosmo_repulsion_energy": 1.24, 
			 "cosmo_total_nonelectrostatic_energy": 6.17, 
			 "SMD_solvation_energy": 3.27 
		},
		"coords": [
			{
				"x": -3.3016899515,
				"y": 0.4491669974,
				"z": 1.8171200867,
				"element": "C" 
			},
			{
				"x": -1.90909888,
				"y": 0.227070748,
				"z": 1.2855026881,
				"element": "C" 
			},
			{
				"x": -0.8601268143,
				"y": 1.0957560418,
				"z": 1.6186861871,
				"element": "C" 
			},
			{
				"x": 0.435129657,
				"y": 0.907657485,
				"z": 1.137345831,
				"element": "C" 
			},
			{
				"x": 0.7135297402,
				"y": -0.1711617768,
				"z": 0.298576184,
				"element": "C" 
			},
			{
				"x": -0.3059518712,
				"y": -1.0553075395,
				"z": -0.0534820601,
				"element": "C" 
			},
			{
				"x": -1.5932337594,
				"y": -0.8476198233,
				"z": 0.439613328,
				"element": "C" 
			},
			{
				"x": -2.8559492906,
				"y": -1.9877628646,
				"z": -0.028297722,
				"element": "Cl" 
			},
			{
				"x": -3.6462654205,
				"y": -0.408927055,
				"z": 2.4042345962,
				"element": "H" 
			},
			{
				"x": -3.3347380137,
				"y": 1.3363749944,
				"z": 2.4541634501,
				"element": "H" 
			},
			{
				"x": -4.0228052345,
				"y": 0.5827493187,
				"z": 1.0035450831,
				"element": "H" 
			},
			{
				"x": -1.0748508051,
				"y": 1.9372027329,
				"z": 2.2723008019,
				"element": "H" 
			},
			{
				"x": 1.2221825398,
				"y": 1.6013969659,
				"z": 1.4170755707,
				"element": "H" 
			},
			{
				"x": 1.7174835413,
				"y": -0.3296551347,
				"z": -0.0835191874,
				"element": "H" 
			},
			{
				"x": -0.1121154373,
				"y": -1.9008410901,
				"z": -0.7043648375,
				"element": "H" 
			}
		],
		 "valence_orbital": [ 
			{
				"type": "occ",
				"energy": -0.35286,
				"method": "rhf"
			},
			{
				"type": "occ",
				"energy": -0.32979,
				"method": "rhf"
			},
			{
				"type": "occ",
				"energy": -0.30829,
				"method": "rhf"
			},
			{
				"type": "occ",
				"energy": -0.25341,
				"method": "rhf"
			},
			{
				"type": "occ",
				"energy": -0.24124,
				"method": "rhf"
			},
			{
				"type": "unocc",
				"energy": -0.00976,
				"method": "rhf"
			},
			{
				"type": "unocc",
				"energy": -0.00723,
				"method": "rhf"
			},
			{
				"type": "unocc",
				"energy": 0.0339,
				"method": "rhf"
			},
			{
				"type": "unocc",
				"energy": 0.10442,
				"method": "rhf"
			},
			{
				"type": "unocc",
				"energy": 0.12057,
				"method": "rhf"
			}
		],
		"cosmo_sigma_profile": { 
			"-0.025": 0.0,
			"-0.024": 0.0,
			"-0.023": 0.0,
			"-0.022": 0.0,
			"-0.021": 0.0,
			"-0.02": 0.0,
			"-0.019": 0.0,
			"-0.018": 0.0,
			"-0.017": 0.0,
			"-0.016": 0.0,
			"-0.015": 0.0,
			"-0.014": 0.0,
			"-0.013": 0.0,
			"-0.012": 0.0,
			"-0.011": 0.0,
			"-0.01": 0.0,
			"-0.009": 0.0,
			"-0.008": 0.0,
			"-0.007": 1.25672632026,
			"-0.006": 7.97769227612,
			"-0.005": 10.2076534449,
			"-0.004": 13.8071036437,
			"-0.003": 11.3481091502,
			"-0.002": 12.7166169399,
			"-0.001": 13.5901189149,
			"0.0": 16.0242379639,
			"0.001": 12.3408481435,
			"0.002": 14.0638289054,
			"0.003": 15.7140752958,
			"0.004": 17.2005425846,
			"0.005": 14.4435943401,
			"0.006": 1.1277219216,
			"0.007": 0.0,
			"0.008": 0.0,
			"0.009": 0.0,
			"0.01": 0.0,
			"0.011": 0.0,
			"0.012": 0.0,
			"0.013": 0.0,
			"0.014": 0.0,
			"0.015": 0.0,
			"0.016": 0.0,
			"0.017": 0.0,
			"0.018": 0.0,
			"0.019": 0.0,
			"0.02": 0.0,
			"0.021": 0.0,
			"0.022": 0.0,
			"0.023": 0.0,
			"0.024": 0.0,
			"0.025": 0.0
		}
	}
}
