{
	 "smiles": "CN(C)C1=C(N)C=NC=N1", 
	 "Tm": 371.15, 
	 "num_atms": 20, 
	 "gaussian": { 
		 "optdone": 1, 
		 "sigma_profile": "yes", 
		 "theory": "DFT", 
		 "functional": "B3LYP", 
		 "basiset": "6-31G**", 
		 "properties": { 
			 "R2extent": 1881.2144, 
			 "electric_dipole_moment_norm": 3.65065128025, 
			 "electric_quadrupole_moment_norm": 6.36629021644, 
			 "total_energy": -453.663565814, 
			 "HOMO_LUMO_gap": 0.18953, 
			 "cosmo_polarized_energy": -11.21, 
			 "cosmo_cavitation_energy": 22.76, 
			 "cosmo_dispersion_energy": -17.04, 
			 "cosmo_repulsion_energy": 1.38, 
			 "cosmo_total_nonelectrostatic_energy": 7.09, 
			 "SMD_solvation_energy": 1.26 
		},
		"coords": [
			{
				"x": -2.2850571915,
				"y": 1.3290348579,
				"z": 2.441306294,
				"element": "C" 
			},
			{
				"x": -1.4114480859,
				"y": 0.2957453943,
				"z": 1.8680845701,
				"element": "N" 
			},
			{
				"x": -1.6937295428,
				"y": -1.0301937694,
				"z": 2.4143143745,
				"element": "C" 
			},
			{
				"x": -1.20124535,
				"y": 0.3524379431,
				"z": 0.4825483187,
				"element": "C" 
			},
			{
				"x": -0.5781760102,
				"y": 1.4891553629,
				"z": -0.1046480291,
				"element": "C" 
			},
			{
				"x": -0.163853665,
				"y": 2.5791212964,
				"z": 0.6684628858,
				"element": "N" 
			},
			{
				"x": -0.4191376909,
				"y": 1.4440460304,
				"z": -1.4876329556,
				"element": "C" 
			},
			{
				"x": -0.777879584,
				"y": 0.3951776302,
				"z": -2.2434750641,
				"element": "N" 
			},
			{
				"x": -1.2869515419,
				"y": -0.6396457788,
				"z": -1.579507324,
				"element": "C" 
			},
			{
				"x": -1.5190243102,
				"y": -0.7092761022,
				"z": -0.2632578022,
				"element": "N" 
			},
			{
				"x": -2.131077466,
				"y": 1.370108701,
				"z": 3.5243368162,
				"element": "H" 
			},
			{
				"x": -2.0545900655,
				"y": 2.3069756091,
				"z": 2.0176555307,
				"element": "H" 
			},
			{
				"x": -3.3474685183,
				"y": 1.1081026713,
				"z": 2.2533519904,
				"element": "H" 
			},
			{
				"x": -0.9727410119,
				"y": -1.7521932555,
				"z": 2.0297834225,
				"element": "H" 
			},
			{
				"x": -2.7001793294,
				"y": -1.3901199254,
				"z": 2.1571914428,
				"element": "H" 
			},
			{
				"x": -1.6050857268,
				"y": -0.9765833551,
				"z": 3.50394813,
				"element": "H" 
			},
			{
				"x": 0.180587591,
				"y": 2.2959918579,
				"z": 1.5801364985,
				"element": "H" 
			},
			{
				"x": 0.5051426957,
				"y": 3.1753475147,
				"z": 0.1957295994,
				"element": "H" 
			},
			{
				"x": 0.0414494934,
				"y": 2.2866280719,
				"z": -2.0052310941,
				"element": "H" 
			},
			{
				"x": -1.5507346897,
				"y": -1.5192607548,
				"z": -2.1631976046,
				"element": "H" 
			}
		],
		 "valence_orbital": [ 
			{
				"type": "occ",
				"energy": -0.31065,
				"method": "rhf"
			},
			{
				"type": "occ",
				"energy": -0.29079,
				"method": "rhf"
			},
			{
				"type": "occ",
				"energy": -0.24826,
				"method": "rhf"
			},
			{
				"type": "occ",
				"energy": -0.24053,
				"method": "rhf"
			},
			{
				"type": "occ",
				"energy": -0.20683,
				"method": "rhf"
			},
			{
				"type": "unocc",
				"energy": -0.0173,
				"method": "rhf"
			},
			{
				"type": "unocc",
				"energy": 7e-05,
				"method": "rhf"
			},
			{
				"type": "unocc",
				"energy": 0.07491,
				"method": "rhf"
			},
			{
				"type": "unocc",
				"energy": 0.10118,
				"method": "rhf"
			},
			{
				"type": "unocc",
				"energy": 0.12287,
				"method": "rhf"
			}
		],
		"cosmo_sigma_profile": { 
			"-0.025": 0.0,
			"-0.024": 0.0,
			"-0.023": 0.0,
			"-0.022": 0.0,
			"-0.021": 0.0,
			"-0.02": 0.0,
			"-0.019": 0.0,
			"-0.018": 0.0,
			"-0.017": 0.0,
			"-0.016": 0.0,
			"-0.015": 0.0,
			"-0.014": 0.0,
			"-0.013": 0.924325053679,
			"-0.012": 2.01416509368,
			"-0.011": 2.67833356704,
			"-0.01": 2.73210254424,
			"-0.009": 2.86749925534,
			"-0.008": 2.70598065453,
			"-0.007": 3.09397297449,
			"-0.006": 4.34087345957,
			"-0.005": 7.71039540821,
			"-0.004": 11.0332317246,
			"-0.003": 15.6850648516,
			"-0.002": 19.0848770864,
			"-0.001": 22.3090335882,
			"0.0": 14.4226440577,
			"0.001": 10.5916452189,
			"0.002": 10.8871454731,
			"0.003": 6.5203580095,
			"0.004": 6.23250247931,
			"0.005": 6.20807912252,
			"0.006": 3.96722004218,
			"0.007": 3.73329160996,
			"0.008": 3.98147385894,
			"0.009": 3.45950264023,
			"0.01": 2.63044956483,
			"0.011": 2.07154979484,
			"0.012": 2.23188452391,
			"0.013": 1.53705298879,
			"0.014": 1.75014018449,
			"0.015": 0.797117762326,
			"0.016": 1.03377879525,
			"0.017": 0.422912339599,
			"0.018": 0.0,
			"0.019": 0.0,
			"0.02": 0.0,
			"0.021": 0.0,
			"0.022": 0.0,
			"0.023": 0.0,
			"0.024": 0.0,
			"0.025": 0.0
		}
	}
}
