{
	 "smiles": "COC1=C2C(C[C@@H]3N(CCC4=CC5=C(OCO5)C=C34)C2=O)=CC=C1O", 
	 "Tm": 482.0, 
	 "num_atms": 42, 
	 "gaussian": { 
		 "optdone": 1, 
		 "sigma_profile": "yes", 
		 "theory": "DFT", 
		 "functional": "B3LYP", 
		 "basiset": "6-31G**", 
		 "properties": { 
			 "R2extent": 11441.7686, 
			 "electric_dipole_moment_norm": 4.38755195183, 
			 "electric_quadrupole_moment_norm": 18.9224190837, 
			 "total_energy": -1165.11053166, 
			 "HOMO_LUMO_gap": 0.17782, 
			 "cosmo_polarized_energy": -21.21, 
			 "cosmo_cavitation_energy": 43.29, 
			 "cosmo_dispersion_energy": -32.11, 
			 "cosmo_repulsion_energy": 2.37, 
			 "cosmo_total_nonelectrostatic_energy": 13.55, 
			 "SMD_solvation_energy": 7.92 
		},
		"coords": [
			{
				"x": -5.2015957448,
				"y": -0.8899422521,
				"z": 1.0491493312,
				"element": "C" 
			},
			{
				"x": -4.6780751505,
				"y": -0.3185707603,
				"z": -0.1560333326,
				"element": "O" 
			},
			{
				"x": -3.954441104,
				"y": 0.8273868557,
				"z": -0.0071425061,
				"element": "C" 
			},
			{
				"x": -2.5476574216,
				"y": 0.8341401219,
				"z": -0.0063635981,
				"element": "C" 
			},
			{
				"x": -1.8458145849,
				"y": 2.0560283763,
				"z": -0.0176186265,
				"element": "C" 
			},
			{
				"x": -0.3394380477,
				"y": 2.0180714647,
				"z": -0.0994604024,
				"element": "C" 
			},
			{
				"x": 0.1090743926,
				"y": 0.8378451994,
				"z": -0.9700273957,
				"element": "C" 
			},
			{
				"x": -0.4746014308,
				"y": -0.4009213648,
				"z": -0.4029705911,
				"element": "N" 
			},
			{
				"x": 0.2724327812,
				"y": -1.6611677377,
				"z": -0.4186206941,
				"element": "C" 
			},
			{
				"x": 1.2373434788,
				"y": -1.6940950828,
				"z": -1.6028981995,
				"element": "C" 
			},
			{
				"x": 2.1684048817,
				"y": -0.5100188101,
				"z": -1.5301440975,
				"element": "C" 
			},
			{
				"x": 3.5460313995,
				"y": -0.6498764463,
				"z": -1.7896452852,
				"element": "C" 
			},
			{
				"x": 4.334247443,
				"y": 0.4762333708,
				"z": -1.6752228172,
				"element": "C" 
			},
			{
				"x": 3.7961582091,
				"y": 1.7030638548,
				"z": -1.3027194408,
				"element": "C" 
			},
			{
				"x": 4.7967413897,
				"y": 2.644773112,
				"z": -1.2276890149,
				"element": "O" 
			},
			{
				"x": 5.9731653352,
				"y": 1.9971831966,
				"z": -1.7255982741,
				"element": "C" 
			},
			{
				"x": 5.6917052049,
				"y": 0.5973489307,
				"z": -1.8497763708,
				"element": "O" 
			},
			{
				"x": 2.4529478729,
				"y": 1.8623728058,
				"z": -1.0327682888,
				"element": "C" 
			},
			{
				"x": 1.6214017815,
				"y": 0.7270786092,
				"z": -1.1516917513,
				"element": "C" 
			},
			{
				"x": -1.7718599805,
				"y": -0.448885705,
				"z": 0.0607800824,
				"element": "C" 
			},
			{
				"x": -2.2387429191,
				"y": -1.4833525422,
				"z": 0.5370202413,
				"element": "O" 
			},
			{
				"x": -2.5503535108,
				"y": 3.255994748,
				"z": 0.0305349145,
				"element": "C" 
			},
			{
				"x": -3.9448697611,
				"y": 3.2578556914,
				"z": 0.0736042827,
				"element": "C" 
			},
			{
				"x": -4.6488447239,
				"y": 2.054831127,
				"z": 0.0452427445,
				"element": "C" 
			},
			{
				"x": -6.0135316859,
				"y": 1.9912199739,
				"z": 0.0536489296,
				"element": "O" 
			},
			{
				"x": -5.8421938157,
				"y": -0.1744727544,
				"z": 1.5771652325,
				"element": "H" 
			},
			{
				"x": -5.8010866673,
				"y": -1.747510297,
				"z": 0.7375709188,
				"element": "H" 
			},
			{
				"x": -4.3821727918,
				"y": -1.230182137,
				"z": 1.687459579,
				"element": "H" 
			},
			{
				"x": 0.115165178,
				"y": 1.9166698204,
				"z": 0.8960377791,
				"element": "H" 
			},
			{
				"x": 0.016459676,
				"y": 2.9591485588,
				"z": -0.5272830782,
				"element": "H" 
			},
			{
				"x": -0.3271119037,
				"y": 0.9916674298,
				"z": -1.9726763273,
				"element": "H" 
			},
			{
				"x": -0.4590030215,
				"y": -2.4693320899,
				"z": -0.4644390945,
				"element": "H" 
			},
			{
				"x": 0.8353640716,
				"y": -1.7830722292,
				"z": 0.5171187912,
				"element": "H" 
			},
			{
				"x": 1.802414943,
				"y": -2.6316291253,
				"z": -1.588293942,
				"element": "H" 
			},
			{
				"x": 0.6613305308,
				"y": -1.6839310778,
				"z": -2.5392954246,
				"element": "H" 
			},
			{
				"x": 3.9703022464,
				"y": -1.6097013788,
				"z": -2.0647378803,
				"element": "H" 
			},
			{
				"x": 6.7962002381,
				"y": 2.1417678923,
				"z": -1.0188371417,
				"element": "H" 
			},
			{
				"x": 6.2295252631,
				"y": 2.4080934225,
				"z": -2.7127600925,
				"element": "H" 
			},
			{
				"x": 2.073668314,
				"y": 2.8326160034,
				"z": -0.7391763544,
				"element": "H" 
			},
			{
				"x": -2.012523614,
				"y": 4.2001534411,
				"z": 0.025699187,
				"element": "H" 
			},
			{
				"x": -4.489724283,
				"y": 4.1995024498,
				"z": 0.1060107055,
				"element": "H" 
			},
			{
				"x": -6.3661424684,
				"y": 2.8898153342,
				"z": 0.0848473029,
				"element": "H" 
			}
		],
		 "valence_orbital": [ 
			{
				"type": "occ",
				"energy": -0.24354,
				"method": "rhf"
			},
			{
				"type": "occ",
				"energy": -0.23674,
				"method": "rhf"
			},
			{
				"type": "occ",
				"energy": -0.22607,
				"method": "rhf"
			},
			{
				"type": "occ",
				"energy": -0.21487,
				"method": "rhf"
			},
			{
				"type": "occ",
				"energy": -0.2067,
				"method": "rhf"
			},
			{
				"type": "unocc",
				"energy": -0.02888,
				"method": "rhf"
			},
			{
				"type": "unocc",
				"energy": -0.00616,
				"method": "rhf"
			},
			{
				"type": "unocc",
				"energy": 0.00251,
				"method": "rhf"
			},
			{
				"type": "unocc",
				"energy": 0.00967,
				"method": "rhf"
			},
			{
				"type": "unocc",
				"energy": 0.06592,
				"method": "rhf"
			}
		],
		"cosmo_sigma_profile": { 
			"-0.025": 0.0,
			"-0.024": 0.0,
			"-0.023": 0.0,
			"-0.022": 0.0,
			"-0.021": 0.0,
			"-0.02": 0.0,
			"-0.019": 0.0,
			"-0.018": 0.586485566308,
			"-0.017": 1.00409184137,
			"-0.016": 1.74018660522,
			"-0.015": 0.745858092046,
			"-0.014": 0.559809744495,
			"-0.013": 1.12094903673,
			"-0.012": 1.19429898591,
			"-0.011": 1.15608717007,
			"-0.01": 0.897469334779,
			"-0.009": 0.824170294198,
			"-0.008": 4.80222960916,
			"-0.007": 11.6362739863,
			"-0.006": 16.5946640556,
			"-0.005": 22.230871684,
			"-0.004": 27.9673606088,
			"-0.003": 28.4210289904,
			"-0.002": 30.8493160577,
			"-0.001": 24.9910375087,
			"0.0": 21.3424994727,
			"0.001": 16.0545923996,
			"0.002": 22.3703130367,
			"0.003": 24.7878798389,
			"0.004": 21.8669502842,
			"0.005": 10.7836292391,
			"0.006": 6.51058962362,
			"0.007": 5.90937658518,
			"0.008": 6.86845777189,
			"0.009": 6.8223582228,
			"0.01": 6.37461901373,
			"0.011": 3.53675658779,
			"0.012": 4.81642897209,
			"0.013": 4.44562942778,
			"0.014": 3.35121114375,
			"0.015": 0.440352924319,
			"0.016": 0.0,
			"0.017": 0.0,
			"0.018": 0.0,
			"0.019": 0.0,
			"0.02": 0.0,
			"0.021": 0.0,
			"0.022": 0.0,
			"0.023": 0.0,
			"0.024": 0.0,
			"0.025": 0.0
		}
	}
}
