{
	 "smiles": "CC1=CC=C(C=C1)S(=O)(=O)C1=CC=C(NN)C=C1", 
	 "Tm": 447.15, 
	 "num_atms": 32, 
	 "gaussian": { 
		 "optdone": 1, 
		 "sigma_profile": "yes", 
		 "theory": "DFT", 
		 "functional": "B3LYP", 
		 "basiset": "6-31G**", 
		 "properties": { 
			 "R2extent": 6556.7791, 
			 "electric_dipole_moment_norm": 5.84474516125, 
			 "electric_quadrupole_moment_norm": 29.5695922975, 
			 "total_energy": -1161.86688515, 
			 "HOMO_LUMO_gap": 0.18055, 
			 "cosmo_polarized_energy": -20.91, 
			 "cosmo_cavitation_energy": 37.55, 
			 "cosmo_dispersion_energy": -27.05, 
			 "cosmo_repulsion_energy": 2.05, 
			 "cosmo_total_nonelectrostatic_energy": 12.55, 
			 "SMD_solvation_energy": 6.09 
		},
		"coords": [
			{
				"x": -2.5996311703,
				"y": 1.3309905746,
				"z": -4.8346247564,
				"element": "C" 
			},
			{
				"x": -1.9141417348,
				"y": 0.4825728642,
				"z": -3.790653606,
				"element": "C" 
			},
			{
				"x": -0.6257997326,
				"y": -0.0259243314,
				"z": -4.012109547,
				"element": "C" 
			},
			{
				"x": 0.025500712,
				"y": -0.7861882993,
				"z": -3.0430399589,
				"element": "C" 
			},
			{
				"x": -0.6195768241,
				"y": -1.0432601779,
				"z": -1.8322611851,
				"element": "C" 
			},
			{
				"x": -1.9074442414,
				"y": -0.5628777778,
				"z": -1.591099142,
				"element": "C" 
			},
			{
				"x": -2.5444957027,
				"y": 0.1958516227,
				"z": -2.571196269,
				"element": "C" 
			},
			{
				"x": 0.2107357863,
				"y": -2.0295121575,
				"z": -0.5749034713,
				"element": "S" 
			},
			{
				"x": 1.1990448892,
				"y": -2.8725893369,
				"z": -1.2703983078,
				"element": "O" 
			},
			{
				"x": -0.8393160942,
				"y": -2.6105969506,
				"z": 0.2799453366,
				"element": "O" 
			},
			{
				"x": 1.1198320786,
				"y": -0.853342632,
				"z": 0.4207390863,
				"element": "C" 
			},
			{
				"x": 2.4436869407,
				"y": -0.5493767505,
				"z": 0.101087691,
				"element": "C" 
			},
			{
				"x": 3.1581729038,
				"y": 0.3578623718,
				"z": 0.8772054169,
				"element": "C" 
			},
			{
				"x": 2.5519441889,
				"y": 0.9737532907,
				"z": 1.989015591,
				"element": "C" 
			},
			{
				"x": 3.2211388516,
				"y": 1.9085606868,
				"z": 2.762773162,
				"element": "N" 
			},
			{
				"x": 4.6188571125,
				"y": 2.0474519558,
				"z": 2.7550109354,
				"element": "N" 
			},
			{
				"x": 1.2146247781,
				"y": 0.647503493,
				"z": 2.3048235667,
				"element": "C" 
			},
			{
				"x": 0.5064539967,
				"y": -0.2561781449,
				"z": 1.5293018263,
				"element": "C" 
			},
			{
				"x": -3.6878358427,
				"y": 1.2373447554,
				"z": -4.7756078938,
				"element": "H" 
			},
			{
				"x": -2.3557870533,
				"y": 2.3922479789,
				"z": -4.6994375669,
				"element": "H" 
			},
			{
				"x": -2.2875380515,
				"y": 1.0523246665,
				"z": -5.8453672279,
				"element": "H" 
			},
			{
				"x": -0.1304121756,
				"y": 0.1680474199,
				"z": -4.9600041181,
				"element": "H" 
			},
			{
				"x": 1.0106934849,
				"y": -1.2009732853,
				"z": -3.2271043845,
				"element": "H" 
			},
			{
				"x": -2.4071935894,
				"y": -0.806415881,
				"z": -0.6597388983,
				"element": "H" 
			},
			{
				"x": -3.5513472815,
				"y": 0.5634724061,
				"z": -2.3906859192,
				"element": "H" 
			},
			{
				"x": 2.9175063818,
				"y": -1.0419882833,
				"z": -0.7413153974,
				"element": "H" 
			},
			{
				"x": 4.1865216515,
				"y": 0.5891638554,
				"z": 0.6232267555,
				"element": "H" 
			},
			{
				"x": 2.8248080157,
				"y": 2.1017162825,
				"z": 3.6717169155,
				"element": "H" 
			},
			{
				"x": 5.0731877451,
				"y": 1.1334825252,
				"z": 2.7315946925,
				"element": "H" 
			},
			{
				"x": 4.8999920979,
				"y": 2.5618185773,
				"z": 1.9239419109,
				"element": "H" 
			},
			{
				"x": 0.7436029078,
				"y": 1.1053209376,
				"z": 3.1710072136,
				"element": "H" 
			},
			{
				"x": -0.511085029,
				"y": -0.5265622559,
				"z": 1.7903575496,
				"element": "H" 
			}
		],
		 "valence_orbital": [ 
			{
				"type": "occ",
				"energy": -0.27737,
				"method": "rhf"
			},
			{
				"type": "occ",
				"energy": -0.26701,
				"method": "rhf"
			},
			{
				"type": "occ",
				"energy": -0.26165,
				"method": "rhf"
			},
			{
				"type": "occ",
				"energy": -0.25779,
				"method": "rhf"
			},
			{
				"type": "occ",
				"energy": -0.21819,
				"method": "rhf"
			},
			{
				"type": "unocc",
				"energy": -0.03764,
				"method": "rhf"
			},
			{
				"type": "unocc",
				"energy": -0.01963,
				"method": "rhf"
			},
			{
				"type": "unocc",
				"energy": -0.00969,
				"method": "rhf"
			},
			{
				"type": "unocc",
				"energy": -0.00461,
				"method": "rhf"
			},
			{
				"type": "unocc",
				"energy": 0.06089,
				"method": "rhf"
			}
		],
		"cosmo_sigma_profile": { 
			"-0.025": 0.0,
			"-0.024": 0.0,
			"-0.023": 0.0,
			"-0.022": 0.0,
			"-0.021": 0.0,
			"-0.02": 0.0,
			"-0.019": 0.0,
			"-0.018": 0.0,
			"-0.017": 0.0,
			"-0.016": 0.0,
			"-0.015": 0.0,
			"-0.014": 0.13601009999,
			"-0.013": 1.1448655746,
			"-0.012": 1.93293296907,
			"-0.011": 3.59879895195,
			"-0.01": 5.59901430085,
			"-0.009": 5.05350278413,
			"-0.008": 4.57135970612,
			"-0.007": 7.3804710716,
			"-0.006": 15.2644347321,
			"-0.005": 22.2908872553,
			"-0.004": 24.3634256215,
			"-0.003": 18.053034001,
			"-0.002": 17.5891106145,
			"-0.001": 21.4436369185,
			"0.0": 17.2453701823,
			"0.001": 17.1645110547,
			"0.002": 18.9405769078,
			"0.003": 25.5524747426,
			"0.004": 23.1011431734,
			"0.005": 5.19709490524,
			"0.006": 4.2937161123,
			"0.007": 4.41853563517,
			"0.008": 4.54985103314,
			"0.009": 4.98138049019,
			"0.01": 4.67413771246,
			"0.011": 7.41616237703,
			"0.012": 8.5870422886,
			"0.013": 2.06098209199,
			"0.014": 0.811788389313,
			"0.015": 0.90647984545,
			"0.016": 0.379395277025,
			"0.017": 0.0852671948765,
			"0.018": 0.0,
			"0.019": 0.0,
			"0.02": 0.0,
			"0.021": 0.0,
			"0.022": 0.0,
			"0.023": 0.0,
			"0.024": 0.0,
			"0.025": 0.0
		}
	}
}
