{
	 "smiles": "CN1C=C(C=C1C(=O)NC(=O)CCl)S(=O)(=O)N1CCOCC1", 
	 "Tm": 503.15, 
	 "num_atms": 38, 
	 "gaussian": { 
		 "optdone": 1, 
		 "sigma_profile": "yes", 
		 "theory": "DFT", 
		 "functional": "B3LYP", 
		 "basiset": "6-31G**", 
		 "properties": { 
			 "R2extent": 8323.1269, 
			 "electric_dipole_moment_norm": 3.66024966362, 
			 "electric_quadrupole_moment_norm": 22.157095812, 
			 "total_energy": -1865.59177617, 
			 "HOMO_LUMO_gap": 0.17946, 
			 "cosmo_polarized_energy": -26.08, 
			 "cosmo_cavitation_energy": 44.2, 
			 "cosmo_dispersion_energy": -29.73, 
			 "cosmo_repulsion_energy": 2.25, 
			 "cosmo_total_nonelectrostatic_energy": 16.72, 
			 "SMD_solvation_energy": 6.5 
		},
		"coords": [
			{
				"x": -2.1373250911,
				"y": 1.8428079668,
				"z": -1.8057464273,
				"element": "C" 
			},
			{
				"x": -0.9986182783,
				"y": 0.9878736757,
				"z": -1.4673479473,
				"element": "N" 
			},
			{
				"x": -1.0237404507,
				"y": -0.3675740501,
				"z": -1.4757545172,
				"element": "C" 
			},
			{
				"x": 0.2287352301,
				"y": -0.8357709586,
				"z": -1.0950030605,
				"element": "C" 
			},
			{
				"x": 1.0430811637,
				"y": 0.2883616961,
				"z": -0.8305476065,
				"element": "C" 
			},
			{
				"x": 0.2592131406,
				"y": 1.4145820469,
				"z": -1.0587260145,
				"element": "C" 
			},
			{
				"x": 0.6510765967,
				"y": 2.826469704,
				"z": -1.1093415398,
				"element": "C" 
			},
			{
				"x": 0.1602796686,
				"y": 3.6319749204,
				"z": -1.8856192038,
				"element": "O" 
			},
			{
				"x": 1.7411605394,
				"y": 3.2224714324,
				"z": -0.3001875937,
				"element": "N" 
			},
			{
				"x": 2.0504854698,
				"y": 3.0181328551,
				"z": 1.0436643107,
				"element": "C" 
			},
			{
				"x": 3.0429819839,
				"y": 3.5322024355,
				"z": 1.5230739438,
				"element": "O" 
			},
			{
				"x": 1.1236931556,
				"y": 2.1867781276,
				"z": 1.9273468715,
				"element": "C" 
			},
			{
				"x": -0.5599325701,
				"y": 2.8553638898,
				"z": 1.9860660214,
				"element": "Cl" 
			},
			{
				"x": 0.6816375873,
				"y": -2.5420302528,
				"z": -1.003455944,
				"element": "S" 
			},
			{
				"x": -0.3123231914,
				"y": -3.2817820678,
				"z": -1.7837089214,
				"element": "O" 
			},
			{
				"x": 2.1188181055,
				"y": -2.6238047871,
				"z": -1.263949711,
				"element": "O" 
			},
			{
				"x": 0.4735567608,
				"y": -3.0391499431,
				"z": 0.5981857798,
				"element": "N" 
			},
			{
				"x": -0.9073995186,
				"y": -3.1086358277,
				"z": 1.0999028336,
				"element": "C" 
			},
			{
				"x": -0.907337729,
				"y": -3.9336842228,
				"z": 2.3876718372,
				"element": "C" 
			},
			{
				"x": -0.0124381571,
				"y": -3.3924149461,
				"z": 3.3488220665,
				"element": "O" 
			},
			{
				"x": 1.3176230545,
				"y": -3.376969688,
				"z": 2.8515299855,
				"element": "C" 
			},
			{
				"x": 1.4273782508,
				"y": -2.5210776864,
				"z": 1.5889198465,
				"element": "C" 
			},
			{
				"x": -1.8976995661,
				"y": 2.4618212705,
				"z": -2.6695456443,
				"element": "H" 
			},
			{
				"x": -2.3795430026,
				"y": 2.493928722,
				"z": -0.9630563662,
				"element": "H" 
			},
			{
				"x": -2.9911153609,
				"y": 1.1999657707,
				"z": -2.0228574343,
				"element": "H" 
			},
			{
				"x": -1.9033573561,
				"y": -0.9210678512,
				"z": -1.7678988606,
				"element": "H" 
			},
			{
				"x": 2.0946812339,
				"y": 0.2782688797,
				"z": -0.5840789451,
				"element": "H" 
			},
			{
				"x": 2.2245904597,
				"y": 4.0330086849,
				"z": -0.6759429532,
				"element": "H" 
			},
			{
				"x": 1.5292853579,
				"y": 2.2375827083,
				"z": 2.9351742799,
				"element": "H" 
			},
			{
				"x": 1.0426884949,
				"y": 1.1532438597,
				"z": 1.5949457651,
				"element": "H" 
			},
			{
				"x": -1.3054866575,
				"y": -2.1022215013,
				"z": 1.3095074296,
				"element": "H" 
			},
			{
				"x": -1.529295983,
				"y": -3.5894265669,
				"z": 0.3423136089,
				"element": "H" 
			},
			{
				"x": -1.90202488,
				"y": -3.9213323831,
				"z": 2.8418724664,
				"element": "H" 
			},
			{
				"x": -0.6356067914,
				"y": -4.97476022,
				"z": 2.1538064628,
				"element": "H" 
			},
			{
				"x": 1.6574140813,
				"y": -4.4002493828,
				"z": 2.6284166043,
				"element": "H" 
			},
			{
				"x": 1.9457128332,
				"y": -2.9608653207,
				"z": 3.6441851757,
				"element": "H" 
			},
			{
				"x": 1.204697966,
				"y": -1.4713012948,
				"z": 1.844946151,
				"element": "H" 
			},
			{
				"x": 2.4341534498,
				"y": -2.5827196947,
				"z": 1.1716172503,
				"element": "H" 
			}
		],
		 "valence_orbital": [ 
			{
				"type": "occ",
				"energy": -0.29236,
				"method": "rhf"
			},
			{
				"type": "occ",
				"energy": -0.28114,
				"method": "rhf"
			},
			{
				"type": "occ",
				"energy": -0.27645,
				"method": "rhf"
			},
			{
				"type": "occ",
				"energy": -0.2638,
				"method": "rhf"
			},
			{
				"type": "occ",
				"energy": -0.25334,
				"method": "rhf"
			},
			{
				"type": "unocc",
				"energy": -0.07388,
				"method": "rhf"
			},
			{
				"type": "unocc",
				"energy": -0.03837,
				"method": "rhf"
			},
			{
				"type": "unocc",
				"energy": -0.00826,
				"method": "rhf"
			},
			{
				"type": "unocc",
				"energy": 0.02719,
				"method": "rhf"
			},
			{
				"type": "unocc",
				"energy": 0.04652,
				"method": "rhf"
			}
		],
		"cosmo_sigma_profile": { 
			"-0.025": 0.0,
			"-0.024": 0.0,
			"-0.023": 0.0,
			"-0.022": 0.0,
			"-0.021": 0.0,
			"-0.02": 0.0,
			"-0.019": 0.0,
			"-0.018": 0.0,
			"-0.017": 0.0,
			"-0.016": 0.193310028788,
			"-0.015": 1.00915195101,
			"-0.014": 0.84893523723,
			"-0.013": 0.775312028872,
			"-0.012": 0.582522510536,
			"-0.011": 1.91761130975,
			"-0.01": 3.89727678295,
			"-0.009": 6.10430536904,
			"-0.008": 7.20980248401,
			"-0.007": 9.52568515076,
			"-0.006": 22.7510879927,
			"-0.005": 29.4867204379,
			"-0.004": 36.9491141494,
			"-0.003": 32.7222059301,
			"-0.002": 22.1820047947,
			"-0.001": 18.1682000028,
			"0.0": 16.4796357382,
			"0.001": 15.2641997853,
			"0.002": 16.1300506044,
			"0.003": 11.2234127742,
			"0.004": 11.7188304761,
			"0.005": 13.3038853396,
			"0.006": 8.51851841313,
			"0.007": 8.17708248666,
			"0.008": 8.6138784887,
			"0.009": 8.14762087286,
			"0.01": 12.9784230226,
			"0.011": 17.7456766512,
			"0.012": 7.63039002777,
			"0.013": 1.2658272477,
			"0.014": 0.00442497590865,
			"0.015": 0.0,
			"0.016": 0.0,
			"0.017": 0.0,
			"0.018": 0.0,
			"0.019": 0.0,
			"0.02": 0.0,
			"0.021": 0.0,
			"0.022": 0.0,
			"0.023": 0.0,
			"0.024": 0.0,
			"0.025": 0.0
		}
	}
}
