{
	 "smiles": "CC(=O)CC(=O)C1=CC=C2C=CC=CC2=C1", 
	 "Tm": 351.15, 
	 "num_atms": 28, 
	 "gaussian": { 
		 "optdone": 1, 
		 "sigma_profile": "yes", 
		 "theory": "DFT", 
		 "functional": "B3LYP", 
		 "basiset": "6-31G**", 
		 "properties": { 
			 "R2extent": 5025.4981, 
			 "electric_dipole_moment_norm": 4.78128917448, 
			 "electric_quadrupole_moment_norm": 12.0411393252, 
			 "total_energy": -691.181524278, 
			 "HOMO_LUMO_gap": 0.15814, 
			 "cosmo_polarized_energy": -13.08, 
			 "cosmo_cavitation_energy": 32.37, 
			 "cosmo_dispersion_energy": -23.36, 
			 "cosmo_repulsion_energy": 1.79, 
			 "cosmo_total_nonelectrostatic_energy": 10.8, 
			 "SMD_solvation_energy": 6.43 
		},
		"coords": [
			{
				"x": 3.3575934444,
				"y": 3.0492662764,
				"z": 0.0560616607,
				"element": "C" 
			},
			{
				"x": 3.1854115228,
				"y": 1.6662247207,
				"z": 0.6429223394,
				"element": "C" 
			},
			{
				"x": 3.9723474174,
				"y": 1.1893768058,
				"z": 1.4367768456,
				"element": "O" 
			},
			{
				"x": 1.9743442115,
				"y": 0.8478464565,
				"z": 0.1853120542,
				"element": "C" 
			},
			{
				"x": 0.629239383,
				"y": 1.3958091534,
				"z": 0.6763234701,
				"element": "C" 
			},
			{
				"x": 0.5545726508,
				"y": 2.48445683,
				"z": 1.228350424,
				"element": "O" 
			},
			{
				"x": -0.5968894852,
				"y": 0.5675562133,
				"z": 0.4599517643,
				"element": "C" 
			},
			{
				"x": -1.8365163641,
				"y": 1.0871104226,
				"z": 0.9339744842,
				"element": "C" 
			},
			{
				"x": -3.0011406908,
				"y": 0.3841627557,
				"z": 0.7601505628,
				"element": "C" 
			},
			{
				"x": -3.0052897482,
				"y": -0.8783652899,
				"z": 0.1024606327,
				"element": "C" 
			},
			{
				"x": -4.1922599205,
				"y": -1.6310977119,
				"z": -0.0943920323,
				"element": "C" 
			},
			{
				"x": -4.1549569705,
				"y": -2.8497850909,
				"z": -0.7360214631,
				"element": "C" 
			},
			{
				"x": -2.9277097699,
				"y": -3.374176884,
				"z": -1.2113770585,
				"element": "C" 
			},
			{
				"x": -1.7588136554,
				"y": -2.6687204688,
				"z": -1.0359149,
				"element": "C" 
			},
			{
				"x": -1.7634787249,
				"y": -1.4083816357,
				"z": -0.3782469977,
				"element": "C" 
			},
			{
				"x": -0.575201604,
				"y": -0.6589470071,
				"z": -0.1818621533,
				"element": "C" 
			},
			{
				"x": 3.3328843953,
				"y": 3.0138361319,
				"z": -1.0394813968,
				"element": "H" 
			},
			{
				"x": 4.3029311951,
				"y": 3.4767535824,
				"z": 0.392988073,
				"element": "H" 
			},
			{
				"x": 2.5215811335,
				"y": 3.6753567085,
				"z": 0.3830468334,
				"element": "H" 
			},
			{
				"x": 1.9436709558,
				"y": 0.8071833271,
				"z": -0.9125749124,
				"element": "H" 
			},
			{
				"x": 2.1140653648,
				"y": -0.1739871317,
				"z": 0.5499407362,
				"element": "H" 
			},
			{
				"x": -1.824468068,
				"y": 2.0497035741,
				"z": 1.4327729942,
				"element": "H" 
			},
			{
				"x": -3.9429431467,
				"y": 0.7855230006,
				"z": 1.1252885987,
				"element": "H" 
			},
			{
				"x": -5.1337708459,
				"y": -1.2293077851,
				"z": 0.2705733467,
				"element": "H" 
			},
			{
				"x": -5.070607785,
				"y": -3.4158855689,
				"z": -0.8800714362,
				"element": "H" 
			},
			{
				"x": -2.9138181417,
				"y": -4.3363075191,
				"z": -1.7146492303,
				"element": "H" 
			},
			{
				"x": -0.8145998977,
				"y": -3.0673453025,
				"z": -1.3980420989,
				"element": "H" 
			},
			{
				"x": 0.3561231441,
				"y": -1.0770585634,
				"z": -0.5517611408,
				"element": "H" 
			}
		],
		 "valence_orbital": [ 
			{
				"type": "occ",
				"energy": -0.29879,
				"method": "rhf"
			},
			{
				"type": "occ",
				"energy": -0.26269,
				"method": "rhf"
			},
			{
				"type": "occ",
				"energy": -0.25678,
				"method": "rhf"
			},
			{
				"type": "occ",
				"energy": -0.24371,
				"method": "rhf"
			},
			{
				"type": "occ",
				"energy": -0.23113,
				"method": "rhf"
			},
			{
				"type": "unocc",
				"energy": -0.07299,
				"method": "rhf"
			},
			{
				"type": "unocc",
				"energy": -0.03916,
				"method": "rhf"
			},
			{
				"type": "unocc",
				"energy": -0.01309,
				"method": "rhf"
			},
			{
				"type": "unocc",
				"energy": 0.00512,
				"method": "rhf"
			},
			{
				"type": "unocc",
				"energy": 0.02649,
				"method": "rhf"
			}
		],
		"cosmo_sigma_profile": { 
			"-0.025": 0.0,
			"-0.024": 0.0,
			"-0.023": 0.0,
			"-0.022": 0.0,
			"-0.021": 0.0,
			"-0.02": 0.0,
			"-0.019": 0.0,
			"-0.018": 0.0,
			"-0.017": 0.0,
			"-0.016": 0.0,
			"-0.015": 0.0,
			"-0.014": 0.0,
			"-0.013": 0.0,
			"-0.012": 0.0,
			"-0.011": 0.0,
			"-0.01": 0.0,
			"-0.009": 0.0932924924635,
			"-0.008": 5.61434400285,
			"-0.007": 12.1631729193,
			"-0.006": 19.4205988784,
			"-0.005": 18.7333236729,
			"-0.004": 20.2598194061,
			"-0.003": 16.7328902277,
			"-0.002": 16.51351016,
			"-0.001": 18.5849069367,
			"0.0": 15.3561029229,
			"0.001": 14.3088485007,
			"0.002": 20.592027695,
			"0.003": 26.9142745896,
			"0.004": 17.7468767443,
			"0.005": 6.39423526724,
			"0.006": 2.70809212294,
			"0.007": 2.60109678782,
			"0.008": 3.60886855061,
			"0.009": 3.04430002324,
			"0.01": 5.11585541524,
			"0.011": 6.07013493778,
			"0.012": 4.44956040294,
			"0.013": 1.69307370605,
			"0.014": 0.00316725209276,
			"0.015": 0.0,
			"0.016": 0.0,
			"0.017": 0.0,
			"0.018": 0.0,
			"0.019": 0.0,
			"0.02": 0.0,
			"0.021": 0.0,
			"0.022": 0.0,
			"0.023": 0.0,
			"0.024": 0.0,
			"0.025": 0.0
		}
	}
}
