{
	 "smiles": "CC1=NN(CC2=CC=C(F)C=C2)C2=C1C(N)=NN2", 
	 "Tm": 414.15, 
	 "num_atms": 30, 
	 "gaussian": { 
		 "optdone": 1, 
		 "sigma_profile": "yes", 
		 "theory": "DFT", 
		 "functional": "B3LYP", 
		 "basiset": "6-31G**", 
		 "properties": { 
			 "R2extent": 5721.3867, 
			 "electric_dipole_moment_norm": 1.18009480128, 
			 "electric_quadrupole_moment_norm": 19.3929256986, 
			 "total_energy": -838.050190737, 
			 "HOMO_LUMO_gap": 0.16841, 
			 "cosmo_polarized_energy": -16.84, 
			 "cosmo_cavitation_energy": 35.5, 
			 "cosmo_dispersion_energy": -24.62, 
			 "cosmo_repulsion_energy": 1.9, 
			 "cosmo_total_nonelectrostatic_energy": 12.78, 
			 "SMD_solvation_energy": 4.14 
		},
		"coords": [
			{
				"x": -2.6933931393,
				"y": -0.1289885822,
				"z": -4.3075332645,
				"element": "C" 
			},
			{
				"x": -1.6222965687,
				"y": -0.0831814752,
				"z": -3.2625345537,
				"element": "C" 
			},
			{
				"x": -0.7093150636,
				"y": -1.0476021107,
				"z": -3.1987992108,
				"element": "N" 
			},
			{
				"x": 0.1300869253,
				"y": -0.7447917708,
				"z": -2.1374201078,
				"element": "N" 
			},
			{
				"x": 1.3305105724,
				"y": -1.5282600048,
				"z": -1.9029077339,
				"element": "C" 
			},
			{
				"x": 1.5537955076,
				"y": -1.8245863275,
				"z": -0.4324693339,
				"element": "C" 
			},
			{
				"x": 2.7235968638,
				"y": -1.4065841503,
				"z": 0.211693512,
				"element": "C" 
			},
			{
				"x": 2.9434611939,
				"y": -1.6880688967,
				"z": 1.5624829677,
				"element": "C" 
			},
			{
				"x": 1.9703741187,
				"y": -2.3918019336,
				"z": 2.2598951604,
				"element": "C" 
			},
			{
				"x": 2.1691545564,
				"y": -2.6680754255,
				"z": 3.5642383341,
				"element": "F" 
			},
			{
				"x": 0.7917361863,
				"y": -2.8185185997,
				"z": 1.6528192733,
				"element": "C" 
			},
			{
				"x": 0.5912239679,
				"y": -2.5306177857,
				"z": 0.3055156723,
				"element": "C" 
			},
			{
				"x": -0.269572627,
				"y": 0.4198791683,
				"z": -1.5686098396,
				"element": "C" 
			},
			{
				"x": -1.3945602446,
				"y": 0.8863310503,
				"z": -2.2371341691,
				"element": "C" 
			},
			{
				"x": -1.7138723151,
				"y": 2.1017933656,
				"z": -1.5433050423,
				"element": "C" 
			},
			{
				"x": -2.7194608001,
				"y": 3.0146800274,
				"z": -1.8496398625,
				"element": "N" 
			},
			{
				"x": -0.8615942235,
				"y": 2.3344944845,
				"z": -0.5554673681,
				"element": "N" 
			},
			{
				"x": 0.0961740271,
				"y": 1.3169682633,
				"z": -0.6160327043,
				"element": "N" 
			},
			{
				"x": -2.6861819415,
				"y": 0.7791019014,
				"z": -4.9207041,
				"element": "H" 
			},
			{
				"x": -3.6903863715,
				"y": -0.2122257736,
				"z": -3.8583165525,
				"element": "H" 
			},
			{
				"x": -2.5385834363,
				"y": -0.9913739814,
				"z": -4.9593075969,
				"element": "H" 
			},
			{
				"x": 2.208167615,
				"y": -1.0126772421,
				"z": -2.315466855,
				"element": "H" 
			},
			{
				"x": 1.1906575336,
				"y": -2.447307726,
				"z": -2.4785193154,
				"element": "H" 
			},
			{
				"x": 3.4774948671,
				"y": -0.8576765103,
				"z": -0.3468172869,
				"element": "H" 
			},
			{
				"x": 3.8467316219,
				"y": -1.370830476,
				"z": 2.0720332905,
				"element": "H" 
			},
			{
				"x": 0.0575382997,
				"y": -3.3646397651,
				"z": 2.235130335,
				"element": "H" 
			},
			{
				"x": -0.3249076008,
				"y": -2.8515771299,
				"z": -0.1822801814,
				"element": "H" 
			},
			{
				"x": -2.8385936445,
				"y": 3.7018922208,
				"z": -1.1144819928,
				"element": "H" 
			},
			{
				"x": -3.6005532089,
				"y": 2.5814913959,
				"z": -2.0955972495,
				"element": "H" 
			},
			{
				"x": 0.6487673285,
				"y": 1.1464537897,
				"z": 0.2085357757,
				"element": "H" 
			}
		],
		 "valence_orbital": [ 
			{
				"type": "occ",
				"energy": -0.26392,
				"method": "rhf"
			},
			{
				"type": "occ",
				"energy": -0.25763,
				"method": "rhf"
			},
			{
				"type": "occ",
				"energy": -0.24393,
				"method": "rhf"
			},
			{
				"type": "occ",
				"energy": -0.22474,
				"method": "rhf"
			},
			{
				"type": "occ",
				"energy": -0.19329,
				"method": "rhf"
			},
			{
				"type": "unocc",
				"energy": -0.02488,
				"method": "rhf"
			},
			{
				"type": "unocc",
				"energy": -0.01595,
				"method": "rhf"
			},
			{
				"type": "unocc",
				"energy": 0.02016,
				"method": "rhf"
			},
			{
				"type": "unocc",
				"energy": 0.04694,
				"method": "rhf"
			},
			{
				"type": "unocc",
				"energy": 0.07106,
				"method": "rhf"
			}
		],
		"cosmo_sigma_profile": { 
			"-0.025": 0.0,
			"-0.024": 0.0,
			"-0.023": 0.0,
			"-0.022": 0.0,
			"-0.021": 0.0,
			"-0.02": 0.0,
			"-0.019": 0.0,
			"-0.018": 0.0,
			"-0.017": 0.0,
			"-0.016": 0.0,
			"-0.015": 0.0817879869981,
			"-0.014": 0.575902728716,
			"-0.013": 1.13541324645,
			"-0.012": 2.26097250227,
			"-0.011": 3.53782938475,
			"-0.01": 2.50244840283,
			"-0.009": 3.72787667543,
			"-0.008": 3.7146990152,
			"-0.007": 11.7139464762,
			"-0.006": 16.8947854672,
			"-0.005": 18.4834194416,
			"-0.004": 20.1472242318,
			"-0.003": 17.4905610531,
			"-0.002": 16.472684227,
			"-0.001": 17.0797739634,
			"0.0": 19.5534709966,
			"0.001": 19.9878163996,
			"0.002": 17.8076306363,
			"0.003": 19.6636857421,
			"0.004": 23.1716984731,
			"0.005": 9.65439771938,
			"0.006": 5.19916147341,
			"0.007": 5.27634663595,
			"0.008": 4.03773994356,
			"0.009": 3.36965735675,
			"0.01": 2.97280887815,
			"0.011": 3.70567106115,
			"0.012": 2.75264461248,
			"0.013": 3.59860923175,
			"0.014": 1.87151293812,
			"0.015": 2.71787431834,
			"0.016": 1.38272188426,
			"0.017": 0.303156468217,
			"0.018": 0.0,
			"0.019": 0.0,
			"0.02": 0.0,
			"0.021": 0.0,
			"0.022": 0.0,
			"0.023": 0.0,
			"0.024": 0.0,
			"0.025": 0.0
		}
	}
}
