{
	 "smiles": "CC1=NC(CC(N)=NO)=NO1", 
	 "Tm": 416.15, 
	 "num_atms": 19, 
	 "gaussian": { 
		 "optdone": 1, 
		 "sigma_profile": "yes", 
		 "theory": "DFT", 
		 "functional": "B3LYP", 
		 "basiset": "6-31G**", 
		 "properties": { 
			 "R2extent": 2331.2412, 
			 "electric_dipole_moment_norm": 3.49194815254, 
			 "electric_quadrupole_moment_norm": 10.75980764, 
			 "total_energy": -564.726201697, 
			 "HOMO_LUMO_gap": 0.17812, 
			 "cosmo_polarized_energy": -13.88, 
			 "cosmo_cavitation_energy": 23.87, 
			 "cosmo_dispersion_energy": -17.88, 
			 "cosmo_repulsion_energy": 1.49, 
			 "cosmo_total_nonelectrostatic_energy": 7.47, 
			 "SMD_solvation_energy": 2.92 
		},
		"coords": [
			{
				"x": -1.7909358622,
				"y": -2.702142096,
				"z": 1.1388886618,
				"element": "C" 
			},
			{
				"x": -1.1238912587,
				"y": -1.3728323117,
				"z": 1.1631135368,
				"element": "C" 
			},
			{
				"x": -0.4382492906,
				"y": -0.7888762762,
				"z": 0.2213888572,
				"element": "N" 
			},
			{
				"x": -0.0764738763,
				"y": 0.4090514434,
				"z": 0.8110280772,
				"element": "C" 
			},
			{
				"x": 0.7581237233,
				"y": 1.4429817776,
				"z": 0.1149001331,
				"element": "C" 
			},
			{
				"x": 0.1950597415,
				"y": 1.8742495768,
				"z": -1.2213665703,
				"element": "C" 
			},
			{
				"x": 0.048464071,
				"y": 0.9177345093,
				"z": -2.1958819708,
				"element": "N" 
			},
			{
				"x": -0.0312859934,
				"y": 3.1360916243,
				"z": -1.3641036535,
				"element": "N" 
			},
			{
				"x": -0.5265776012,
				"y": 3.3759128452,
				"z": -2.683147378,
				"element": "O" 
			},
			{
				"x": -0.504254437,
				"y": 0.5605353591,
				"z": 2.0375991043,
				"element": "N" 
			},
			{
				"x": -1.2082446957,
				"y": -0.6382923751,
				"z": 2.2818295017,
				"element": "O" 
			},
			{
				"x": -2.865400376,
				"y": -2.5959962721,
				"z": 1.3166272257,
				"element": "H" 
			},
			{
				"x": -1.3864823766,
				"y": -3.3490945224,
				"z": 1.923243279,
				"element": "H" 
			},
			{
				"x": -1.6294559192,
				"y": -3.1689647106,
				"z": 0.1673005726,
				"element": "H" 
			},
			{
				"x": 1.7599402877,
				"y": 1.0218914178,
				"z": -0.0446872712,
				"element": "H" 
			},
			{
				"x": 0.8510960678,
				"y": 2.3224558553,
				"z": 0.7524836405,
				"element": "H" 
			},
			{
				"x": -0.1314050576,
				"y": -0.0216357458,
				"z": -1.8632444544,
				"element": "H" 
			},
			{
				"x": -0.4926150255,
				"y": 1.22117838,
				"z": -2.9938588272,
				"element": "H" 
			},
			{
				"x": -0.6986121214,
				"y": 4.3245515209,
				"z": -2.6578124643,
				"element": "H" 
			}
		],
		 "valence_orbital": [ 
			{
				"type": "occ",
				"energy": -0.3081,
				"method": "rhf"
			},
			{
				"type": "occ",
				"energy": -0.30468,
				"method": "rhf"
			},
			{
				"type": "occ",
				"energy": -0.2909,
				"method": "rhf"
			},
			{
				"type": "occ",
				"energy": -0.26738,
				"method": "rhf"
			},
			{
				"type": "occ",
				"energy": -0.2081,
				"method": "rhf"
			},
			{
				"type": "unocc",
				"energy": -0.02998,
				"method": "rhf"
			},
			{
				"type": "unocc",
				"energy": 0.02526,
				"method": "rhf"
			},
			{
				"type": "unocc",
				"energy": 0.05007,
				"method": "rhf"
			},
			{
				"type": "unocc",
				"energy": 0.076,
				"method": "rhf"
			},
			{
				"type": "unocc",
				"energy": 0.08423,
				"method": "rhf"
			}
		],
		"cosmo_sigma_profile": { 
			"-0.025": 0.0,
			"-0.024": 0.0,
			"-0.023": 0.0,
			"-0.022": 0.0,
			"-0.021": 0.0,
			"-0.02": 0.0,
			"-0.019": 0.0,
			"-0.018": 0.0,
			"-0.017": 0.318184582549,
			"-0.016": 0.816206451194,
			"-0.015": 1.00435956667,
			"-0.014": 1.09359149888,
			"-0.013": 0.293936819815,
			"-0.012": 0.896684741423,
			"-0.011": 1.21655928212,
			"-0.01": 1.46775245955,
			"-0.009": 2.65235766267,
			"-0.008": 4.447792804,
			"-0.007": 11.3150087028,
			"-0.006": 11.198929553,
			"-0.005": 12.4902346514,
			"-0.004": 14.9792878953,
			"-0.003": 15.5523493093,
			"-0.002": 12.5066960123,
			"-0.001": 9.36452172227,
			"0.0": 6.9866704305,
			"0.001": 8.01673722113,
			"0.002": 7.86839223391,
			"0.003": 6.24337254568,
			"0.004": 5.63950383455,
			"0.005": 7.10802767147,
			"0.006": 9.44531472626,
			"0.007": 8.11685430029,
			"0.008": 7.28638834377,
			"0.009": 6.03450501584,
			"0.01": 4.62320057889,
			"0.011": 4.54013937357,
			"0.012": 2.46228311042,
			"0.013": 1.87622216301,
			"0.014": 0.820301847054,
			"0.015": 0.580267029458,
			"0.016": 0.0,
			"0.017": 0.0,
			"0.018": 0.0,
			"0.019": 0.0,
			"0.02": 0.0,
			"0.021": 0.0,
			"0.022": 0.0,
			"0.023": 0.0,
			"0.024": 0.0,
			"0.025": 0.0
		}
	}
}
