{
	 "smiles": "CCCCN(CCCC)CCCN", 
	 "Tm": 223.15, 
	 "num_atms": 39, 
	 "gaussian": { 
		 "optdone": 1, 
		 "sigma_profile": "yes", 
		 "theory": "DFT", 
		 "functional": "B3LYP", 
		 "basiset": "6-31G**", 
		 "properties": { 
			 "R2extent": 4106.206, 
			 "electric_dipole_moment_norm": 2.11026493597, 
			 "electric_quadrupole_moment_norm": 5.32611550851, 
			 "total_energy": -544.347269928, 
			 "HOMO_LUMO_gap": 0.28166, 
			 "cosmo_polarized_energy": -5.93, 
			 "cosmo_cavitation_energy": 37.41, 
			 "cosmo_dispersion_energy": -25.45, 
			 "cosmo_repulsion_energy": 2.07, 
			 "cosmo_total_nonelectrostatic_energy": 14.03, 
			 "SMD_solvation_energy": 3.91 
		},
		"coords": [
			{
				"x": -3.7211715528,
				"y": -2.5083646502,
				"z": 2.1106542702,
				"element": "C" 
			},
			{
				"x": -2.7773372711,
				"y": -2.7099102041,
				"z": 0.9207958838,
				"element": "C" 
			},
			{
				"x": -1.7312440277,
				"y": -1.5944491096,
				"z": 0.7886724852,
				"element": "C" 
			},
			{
				"x": -0.7970979405,
				"y": -1.8096415909,
				"z": -0.4075532873,
				"element": "C" 
			},
			{
				"x": 0.1814022021,
				"y": -0.7262584312,
				"z": -0.6106279752,
				"element": "N" 
			},
			{
				"x": 0.6729060074,
				"y": -0.7404536944,
				"z": -1.9988312594,
				"element": "C" 
			},
			{
				"x": 1.4718820046,
				"y": 0.4994946639,
				"z": -2.454935091,
				"element": "C" 
			},
			{
				"x": 3.0018828491,
				"y": 0.379037462,
				"z": -2.3848802306,
				"element": "C" 
			},
			{
				"x": 3.7174133038,
				"y": 1.63261245,
				"z": -2.8988237438,
				"element": "C" 
			},
			{
				"x": 1.2584882298,
				"y": -0.7618105814,
				"z": 0.4033293045,
				"element": "C" 
			},
			{
				"x": 1.6876410853,
				"y": 0.6012048236,
				"z": 0.9767184355,
				"element": "C" 
			},
			{
				"x": 0.5499096383,
				"y": 1.4101861359,
				"z": 1.6322778767,
				"element": "C" 
			},
			{
				"x": -0.4212630756,
				"y": 2.0282709574,
				"z": 0.7238525545,
				"element": "N" 
			},
			{
				"x": -4.2690892939,
				"y": -1.5633212344,
				"z": 2.0254748879,
				"element": "H" 
			},
			{
				"x": -3.167288457,
				"y": -2.4833342081,
				"z": 3.0560158192,
				"element": "H" 
			},
			{
				"x": -4.4575013109,
				"y": -3.3159305999,
				"z": 2.1780221994,
				"element": "H" 
			},
			{
				"x": -2.2678419299,
				"y": -3.6784286099,
				"z": 1.0178359112,
				"element": "H" 
			},
			{
				"x": -3.3653572481,
				"y": -2.7686819244,
				"z": -0.0054013631,
				"element": "H" 
			},
			{
				"x": -2.2313284507,
				"y": -0.6242111962,
				"z": 0.6769082527,
				"element": "H" 
			},
			{
				"x": -1.1560056085,
				"y": -1.5363787105,
				"z": 1.7216322703,
				"element": "H" 
			},
			{
				"x": -1.415649343,
				"y": -1.8664763829,
				"z": -1.3107128454,
				"element": "H" 
			},
			{
				"x": -0.297777048,
				"y": -2.794476284,
				"z": -0.3168091696,
				"element": "H" 
			},
			{
				"x": -0.215572879,
				"y": -0.8195347259,
				"z": -2.6337262169,
				"element": "H" 
			},
			{
				"x": 1.2758184999,
				"y": -1.6497108214,
				"z": -2.1978284579,
				"element": "H" 
			},
			{
				"x": 1.1262552784,
				"y": 1.3724267729,
				"z": -1.8884921768,
				"element": "H" 
			},
			{
				"x": 1.2066172359,
				"y": 0.7000358683,
				"z": -3.5015008598,
				"element": "H" 
			},
			{
				"x": 3.3139603056,
				"y": -0.4899177068,
				"z": -2.9797558155,
				"element": "H" 
			},
			{
				"x": 3.3270186576,
				"y": 0.1719405256,
				"z": -1.3589386767,
				"element": "H" 
			},
			{
				"x": 3.4579621727,
				"y": 2.5123605276,
				"z": -2.298533578,
				"element": "H" 
			},
			{
				"x": 3.4398676916,
				"y": 1.8504368861,
				"z": -3.9366809022,
				"element": "H" 
			},
			{
				"x": 4.805451106,
				"y": 1.515928529,
				"z": -2.8629301403,
				"element": "H" 
			},
			{
				"x": 2.1404379274,
				"y": -1.2940535466,
				"z": 0.0061478122,
				"element": "H" 
			},
			{
				"x": 0.9062740233,
				"y": -1.3652496272,
				"z": 1.2466175039,
				"element": "H" 
			},
			{
				"x": 2.4638480472,
				"y": 0.3970412643,
				"z": 1.7288653711,
				"element": "H" 
			},
			{
				"x": 2.1649780062,
				"y": 1.2200287829,
				"z": 0.2081539529,
				"element": "H" 
			},
			{
				"x": 0.9861455637,
				"y": 2.2025327522,
				"z": 2.2529475601,
				"element": "H" 
			},
			{
				"x": 0.000903261,
				"y": 0.7561508539,
				"z": 2.3240307682,
				"element": "H" 
			},
			{
				"x": 0.0365185707,
				"y": 2.7717677761,
				"z": 0.1995448368,
				"element": "H" 
			},
			{
				"x": -0.6880562308,
				"y": 1.3233368083,
				"z": 0.0375638329,
				"element": "H" 
			}
		],
		 "valence_orbital": [ 
			{
				"type": "occ",
				"energy": -0.32079,
				"method": "rhf"
			},
			{
				"type": "occ",
				"energy": -0.31324,
				"method": "rhf"
			},
			{
				"type": "occ",
				"energy": -0.31087,
				"method": "rhf"
			},
			{
				"type": "occ",
				"energy": -0.227,
				"method": "rhf"
			},
			{
				"type": "occ",
				"energy": -0.20253,
				"method": "rhf"
			},
			{
				"type": "unocc",
				"energy": 0.07913,
				"method": "rhf"
			},
			{
				"type": "unocc",
				"energy": 0.08377,
				"method": "rhf"
			},
			{
				"type": "unocc",
				"energy": 0.09622,
				"method": "rhf"
			},
			{
				"type": "unocc",
				"energy": 0.10209,
				"method": "rhf"
			},
			{
				"type": "unocc",
				"energy": 0.10277,
				"method": "rhf"
			}
		],
		"cosmo_sigma_profile": { 
			"-0.025": 0.0,
			"-0.024": 0.0,
			"-0.023": 0.0,
			"-0.022": 0.0,
			"-0.021": 0.0,
			"-0.02": 0.0,
			"-0.019": 0.0,
			"-0.018": 0.0,
			"-0.017": 0.0,
			"-0.016": 0.0,
			"-0.015": 0.0,
			"-0.014": 0.0,
			"-0.013": 0.0,
			"-0.012": 0.0,
			"-0.011": 0.0,
			"-0.01": 0.0,
			"-0.009": 0.132192885027,
			"-0.008": 1.04083490219,
			"-0.007": 1.4121946762,
			"-0.006": 1.15334979696,
			"-0.005": 0.986621002015,
			"-0.004": 3.35169940178,
			"-0.003": 17.9183532946,
			"-0.002": 49.8275601752,
			"-0.001": 66.4560661913,
			"0.0": 58.8577867219,
			"0.001": 44.8833768498,
			"0.002": 20.8668969362,
			"0.003": 3.73147517186,
			"0.004": 1.95972832191,
			"0.005": 1.9495816398,
			"0.006": 0.949852445528,
			"0.007": 0.783456385008,
			"0.008": 0.642500398599,
			"0.009": 1.29736103286,
			"0.01": 0.632299105428,
			"0.011": 0.391531104773,
			"0.012": 0.594551337963,
			"0.013": 0.651286254377,
			"0.014": 1.3654542731,
			"0.015": 0.413274872542,
			"0.016": 0.466961410546,
			"0.017": 0.729921338775,
			"0.018": 0.613472685185,
			"0.019": 0.621001777914,
			"0.02": 0.738407697654,
			"0.021": 0.378039566001,
			"0.022": 0.0,
			"0.023": 0.0,
			"0.024": 0.0,
			"0.025": 0.0
		}
	}
}
