{
	 "smiles": "COC1=C(OC(C)C)C(Cl)=CC(C=O)=C1", 
	 "Tm": 308.15, 
	 "num_atms": 28, 
	 "gaussian": { 
		 "optdone": 1, 
		 "sigma_profile": "yes", 
		 "theory": "DFT", 
		 "functional": "B3LYP", 
		 "basiset": "6-31G**", 
		 "properties": { 
			 "R2extent": 4352.6404, 
			 "electric_dipole_moment_norm": 3.1562230086, 
			 "electric_quadrupole_moment_norm": 14.2832534977, 
			 "total_energy": -1112.84210015, 
			 "HOMO_LUMO_gap": 0.18077, 
			 "cosmo_polarized_energy": -9.37, 
			 "cosmo_cavitation_energy": 33.42, 
			 "cosmo_dispersion_energy": -22.89, 
			 "cosmo_repulsion_energy": 1.8, 
			 "cosmo_total_nonelectrostatic_energy": 12.33, 
			 "SMD_solvation_energy": 7.55 
		},
		"coords": [
			{
				"x": -0.5761487996,
				"y": 3.2771357528,
				"z": 1.6858050217,
				"element": "C" 
			},
			{
				"x": 0.097675114,
				"y": 2.5798644473,
				"z": 0.6293903023,
				"element": "O" 
			},
			{
				"x": 0.5796827733,
				"y": 1.3387177711,
				"z": 0.9493563694,
				"element": "C" 
			},
			{
				"x": -0.3085376264,
				"y": 0.2542385731,
				"z": 1.1619328771,
				"element": "C" 
			},
			{
				"x": -1.6503118686,
				"y": 0.4752007513,
				"z": 1.1476754312,
				"element": "O" 
			},
			{
				"x": -2.4010973924,
				"y": 0.032299888,
				"z": -0.0278274317,
				"element": "C" 
			},
			{
				"x": -2.2267619105,
				"y": 1.0233087925,
				"z": -1.173838027,
				"element": "C" 
			},
			{
				"x": -3.8426888266,
				"y": -0.1065494039,
				"z": 0.4367961454,
				"element": "C" 
			},
			{
				"x": 0.2387561594,
				"y": -1.0081775475,
				"z": 1.454973462,
				"element": "C" 
			},
			{
				"x": -0.8299761717,
				"y": -2.3572320479,
				"z": 1.7995322783,
				"element": "Cl" 
			},
			{
				"x": 1.6151927787,
				"y": -1.2077644307,
				"z": 1.500373804,
				"element": "C" 
			},
			{
				"x": 2.4757189715,
				"y": -0.1317245113,
				"z": 1.2613522919,
				"element": "C" 
			},
			{
				"x": 3.9399646723,
				"y": -0.3442234745,
				"z": 1.3075177534,
				"element": "C" 
			},
			{
				"x": 4.7686882649,
				"y": 0.5257451325,
				"z": 1.121085972,
				"element": "O" 
			},
			{
				"x": 1.9541636295,
				"y": 1.1416322254,
				"z": 0.9972827272,
				"element": "C" 
			},
			{
				"x": -1.4573751621,
				"y": 2.7267430406,
				"z": 2.0260012,
				"element": "H" 
			},
			{
				"x": -0.8793703861,
				"y": 4.2381789612,
				"z": 1.2664481977,
				"element": "H" 
			},
			{
				"x": 0.1033386376,
				"y": 3.4492292115,
				"z": 2.5297510988,
				"element": "H" 
			},
			{
				"x": -2.0133839694,
				"y": -0.949622443,
				"z": -0.3228640527,
				"element": "H" 
			},
			{
				"x": -2.6179376863,
				"y": 2.0066810738,
				"z": -0.8971098787,
				"element": "H" 
			},
			{
				"x": -1.1747001394,
				"y": 1.1398916225,
				"z": -1.445256237,
				"element": "H" 
			},
			{
				"x": -2.7700701596,
				"y": 0.668539361,
				"z": -2.0562117177,
				"element": "H" 
			},
			{
				"x": -3.9153426278,
				"y": -0.826738826,
				"z": 1.2553889799,
				"element": "H" 
			},
			{
				"x": -4.225296852,
				"y": 0.8577544996,
				"z": 0.7863723414,
				"element": "H" 
			},
			{
				"x": -4.474159861,
				"y": -0.4482607229,
				"z": -0.3889154046,
				"element": "H" 
			},
			{
				"x": 2.0113283976,
				"y": -2.1930358475,
				"z": 1.725988163,
				"element": "H" 
			},
			{
				"x": 4.2476997602,
				"y": -1.3896538973,
				"z": 1.5323634426,
				"element": "H" 
			},
			{
				"x": 2.6268502806,
				"y": 1.9731220482,
				"z": 0.8177348902,
				"element": "H" 
			}
		],
		 "valence_orbital": [ 
			{
				"type": "occ",
				"energy": -0.29717,
				"method": "rhf"
			},
			{
				"type": "occ",
				"energy": -0.2842,
				"method": "rhf"
			},
			{
				"type": "occ",
				"energy": -0.25929,
				"method": "rhf"
			},
			{
				"type": "occ",
				"energy": -0.25379,
				"method": "rhf"
			},
			{
				"type": "occ",
				"energy": -0.2485,
				"method": "rhf"
			},
			{
				"type": "unocc",
				"energy": -0.06773,
				"method": "rhf"
			},
			{
				"type": "unocc",
				"energy": -0.02081,
				"method": "rhf"
			},
			{
				"type": "unocc",
				"energy": 0.01797,
				"method": "rhf"
			},
			{
				"type": "unocc",
				"energy": 0.03228,
				"method": "rhf"
			},
			{
				"type": "unocc",
				"energy": 0.08203,
				"method": "rhf"
			}
		],
		"cosmo_sigma_profile": { 
			"-0.025": 0.0,
			"-0.024": 0.0,
			"-0.023": 0.0,
			"-0.022": 0.0,
			"-0.021": 0.0,
			"-0.02": 0.0,
			"-0.019": 0.0,
			"-0.018": 0.0,
			"-0.017": 0.0,
			"-0.016": 0.0,
			"-0.015": 0.0,
			"-0.014": 0.0,
			"-0.013": 0.0,
			"-0.012": 0.0,
			"-0.011": 0.0,
			"-0.01": 0.0414532007787,
			"-0.009": 1.65520739937,
			"-0.008": 3.10987440954,
			"-0.007": 3.97359919563,
			"-0.006": 6.2633406128,
			"-0.005": 9.67831406637,
			"-0.004": 24.6290419789,
			"-0.003": 29.6808967289,
			"-0.002": 28.9039150598,
			"-0.001": 24.3826374637,
			"0.0": 32.5364047946,
			"0.001": 28.5300126278,
			"0.002": 16.3871521771,
			"0.003": 10.2839156959,
			"0.004": 12.3454015327,
			"0.005": 6.43259751646,
			"0.006": 4.62652015843,
			"0.007": 3.55823870912,
			"0.008": 4.45310282983,
			"0.009": 2.84720111243,
			"0.01": 4.3695485483,
			"0.011": 5.18593669998,
			"0.012": 2.42424436756,
			"0.013": 0.438910517921,
			"0.014": 0.0,
			"0.015": 0.0,
			"0.016": 0.0,
			"0.017": 0.0,
			"0.018": 0.0,
			"0.019": 0.0,
			"0.02": 0.0,
			"0.021": 0.0,
			"0.022": 0.0,
			"0.023": 0.0,
			"0.024": 0.0,
			"0.025": 0.0
		}
	}
}
