{
	 "smiles": "FC(F)(F)C1=NN(C(=O)C1=NNC1=CN=CC=C1)C1=CC=CC=C1", 
	 "Tm": 434.15, 
	 "num_atms": 34, 
	 "gaussian": { 
		 "optdone": 1, 
		 "sigma_profile": "yes", 
		 "theory": "DFT", 
		 "functional": "B3LYP", 
		 "basiset": "6-31G**", 
		 "properties": { 
			 "R2extent": 10462.6384, 
			 "electric_dipole_moment_norm": 4.13676612948, 
			 "electric_quadrupole_moment_norm": 15.3921187229, 
			 "total_energy": -1226.07203689, 
			 "HOMO_LUMO_gap": 0.11671, 
			 "cosmo_polarized_energy": -13.64, 
			 "cosmo_cavitation_energy": 41.82, 
			 "cosmo_dispersion_energy": -29.53, 
			 "cosmo_repulsion_energy": 2.14, 
			 "cosmo_total_nonelectrostatic_energy": 14.43, 
			 "SMD_solvation_energy": 6.11 
		},
		"coords": [
			{
				"x": -2.9482183328,
				"y": 1.9056351548,
				"z": 1.1953850114,
				"element": "F" 
			},
			{
				"x": -3.2045711259,
				"y": 0.5811812898,
				"z": 1.1511563801,
				"element": "C" 
			},
			{
				"x": -4.4631390356,
				"y": 0.4112375207,
				"z": 0.7249543165,
				"element": "F" 
			},
			{
				"x": -3.1196609612,
				"y": 0.1152318577,
				"z": 2.4151250123,
				"element": "F" 
			},
			{
				"x": -2.2153216354,
				"y": -0.1174410879,
				"z": 0.264620534,
				"element": "C" 
			},
			{
				"x": -2.6016008952,
				"y": -0.7955069151,
				"z": -0.775882271,
				"element": "N" 
			},
			{
				"x": -1.4695431396,
				"y": -1.3186135169,
				"z": -1.3854482745,
				"element": "N" 
			},
			{
				"x": -0.3074951641,
				"y": -0.9641933117,
				"z": -0.7117005957,
				"element": "C" 
			},
			{
				"x": 0.869223104,
				"y": -1.254450651,
				"z": -0.9758430601,
				"element": "O" 
			},
			{
				"x": -0.7847363755,
				"y": -0.1481925776,
				"z": 0.4133257429,
				"element": "C" 
			},
			{
				"x": -0.0589065743,
				"y": 0.4247242277,
				"z": 1.3465756635,
				"element": "N" 
			},
			{
				"x": 1.2382660222,
				"y": 0.2600042203,
				"z": 1.2819516347,
				"element": "N" 
			},
			{
				"x": 2.0983790603,
				"y": 0.8301471158,
				"z": 2.2300401323,
				"element": "C" 
			},
			{
				"x": 1.6257758614,
				"y": 1.6078117994,
				"z": 3.3009400664,
				"element": "C" 
			},
			{
				"x": 2.438212405,
				"y": 2.1528679423,
				"z": 4.2062575627,
				"element": "N" 
			},
			{
				"x": 3.7564735591,
				"y": 1.9456369307,
				"z": 4.0822042133,
				"element": "C" 
			},
			{
				"x": 4.3184029039,
				"y": 1.18826402,
				"z": 3.0529003098,
				"element": "C" 
			},
			{
				"x": 3.4752599099,
				"y": 0.6173261128,
				"z": 2.1056471399,
				"element": "C" 
			},
			{
				"x": -1.6238763823,
				"y": -2.1094984936,
				"z": -2.5595803498,
				"element": "C" 
			},
			{
				"x": -0.5039334099,
				"y": -2.655229817,
				"z": -3.2024551483,
				"element": "C" 
			},
			{
				"x": -0.6883147346,
				"y": -3.4254341397,
				"z": -4.3507306125,
				"element": "C" 
			},
			{
				"x": -1.9650926551,
				"y": -3.6570407184,
				"z": -4.8626349789,
				"element": "C" 
			},
			{
				"x": -3.0716861073,
				"y": -3.1076487533,
				"z": -4.2124399445,
				"element": "C" 
			},
			{
				"x": -2.91143597,
				"y": -2.3352791426,
				"z": -3.0643736527,
				"element": "C" 
			},
			{
				"x": 1.6127297357,
				"y": -0.3058243269,
				"z": 0.5076593266,
				"element": "H" 
			},
			{
				"x": 0.5601213604,
				"y": 1.7832477949,
				"z": 3.4128136413,
				"element": "H" 
			},
			{
				"x": 4.3886818811,
				"y": 2.4052740965,
				"z": 4.8385576434,
				"element": "H" 
			},
			{
				"x": 5.3928224126,
				"y": 1.0485484814,
				"z": 2.9942959044,
				"element": "H" 
			},
			{
				"x": 3.8700558142,
				"y": 0.02028695,
				"z": 1.2877039952,
				"element": "H" 
			},
			{
				"x": 0.4865620352,
				"y": -2.4770331238,
				"z": -2.8073443635,
				"element": "H" 
			},
			{
				"x": 0.1818575115,
				"y": -3.8464696146,
				"z": -4.8459409158,
				"element": "H" 
			},
			{
				"x": -2.0970227618,
				"y": -4.2581241362,
				"z": -5.7571161779,
				"element": "H" 
			},
			{
				"x": -4.072314892,
				"y": -3.2788071562,
				"z": -4.5984835553,
				"element": "H" 
			},
			{
				"x": -3.765953424,
				"y": -1.9071380325,
				"z": -2.5566403299,
				"element": "H" 
			}
		],
		 "valence_orbital": [ 
			{
				"type": "occ",
				"energy": -0.27794,
				"method": "rhf"
			},
			{
				"type": "occ",
				"energy": -0.26574,
				"method": "rhf"
			},
			{
				"type": "occ",
				"energy": -0.25581,
				"method": "rhf"
			},
			{
				"type": "occ",
				"energy": -0.24135,
				"method": "rhf"
			},
			{
				"type": "occ",
				"energy": -0.22735,
				"method": "rhf"
			},
			{
				"type": "unocc",
				"energy": -0.11064,
				"method": "rhf"
			},
			{
				"type": "unocc",
				"energy": -0.04211,
				"method": "rhf"
			},
			{
				"type": "unocc",
				"energy": -0.02841,
				"method": "rhf"
			},
			{
				"type": "unocc",
				"energy": -0.01306,
				"method": "rhf"
			},
			{
				"type": "unocc",
				"energy": -0.00547,
				"method": "rhf"
			}
		],
		"cosmo_sigma_profile": { 
			"-0.025": 0.0,
			"-0.024": 0.0,
			"-0.023": 0.0,
			"-0.022": 0.0,
			"-0.021": 0.0,
			"-0.02": 0.0,
			"-0.019": 0.0,
			"-0.018": 0.0,
			"-0.017": 0.0,
			"-0.016": 0.0,
			"-0.015": 0.00524444436763,
			"-0.014": 0.283153308119,
			"-0.013": 1.10003103088,
			"-0.012": 1.16564048853,
			"-0.011": 1.02385125305,
			"-0.01": 1.35869482869,
			"-0.009": 2.22808686087,
			"-0.008": 3.21353628212,
			"-0.007": 8.20668841905,
			"-0.006": 17.4664761265,
			"-0.005": 20.0281896352,
			"-0.004": 21.764192696,
			"-0.003": 21.7808194901,
			"-0.002": 23.2128663898,
			"-0.001": 23.5621536443,
			"0.0": 26.262731217,
			"0.001": 32.4721652726,
			"0.002": 48.3058405646,
			"0.003": 29.7459762124,
			"0.004": 17.1493579827,
			"0.005": 13.3384605314,
			"0.006": 4.18807740995,
			"0.007": 3.19602401189,
			"0.008": 3.4033116151,
			"0.009": 3.86054082855,
			"0.01": 3.36954933491,
			"0.011": 1.62516872707,
			"0.012": 1.14594358794,
			"0.013": 0.525856293525,
			"0.014": 0.820567666264,
			"0.015": 1.60576346817,
			"0.016": 0.736414874956,
			"0.017": 0.302707877851,
			"0.018": 0.0836501985798,
			"0.019": 0.0,
			"0.02": 0.00846984620517,
			"0.021": 0.183916299795,
			"0.022": 0.0,
			"0.023": 0.0,
			"0.024": 0.0,
			"0.025": 0.0
		}
	}
}
