{
	 "smiles": "COC1=CC=C(NN=C2C(=O)NC3=C(C=CC=C3)N=C2C)C=C1", 
	 "Tm": 469.15, 
	 "num_atms": 39, 
	 "gaussian": { 
		 "optdone": 1, 
		 "sigma_profile": "yes", 
		 "theory": "DFT", 
		 "functional": "B3LYP", 
		 "basiset": "6-31G**", 
		 "properties": { 
			 "R2extent": 7858.9079, 
			 "electric_dipole_moment_norm": 4.4079141008, 
			 "electric_quadrupole_moment_norm": 17.0775308634, 
			 "total_energy": -1026.84618841, 
			 "HOMO_LUMO_gap": 0.15109, 
			 "cosmo_polarized_energy": -20.36, 
			 "cosmo_cavitation_energy": 42.74, 
			 "cosmo_dispersion_energy": -29.08, 
			 "cosmo_repulsion_energy": 2.21, 
			 "cosmo_total_nonelectrostatic_energy": 15.87, 
			 "SMD_solvation_energy": 6.64 
		},
		"coords": [
			{
				"x": -4.67818991,
				"y": -0.5132676336,
				"z": -0.251076305,
				"element": "C" 
			},
			{
				"x": -4.1570752418,
				"y": 0.5506586051,
				"z": 0.5301427556,
				"element": "O" 
			},
			{
				"x": -2.8318601719,
				"y": 0.5264975004,
				"z": 0.8513797023,
				"element": "C" 
			},
			{
				"x": -2.3713026249,
				"y": 1.6047738345,
				"z": 1.6223496485,
				"element": "C" 
			},
			{
				"x": -1.0341778451,
				"y": 1.682117935,
				"z": 1.9863097548,
				"element": "C" 
			},
			{
				"x": -0.1324210759,
				"y": 0.6764857752,
				"z": 1.6072387896,
				"element": "C" 
			},
			{
				"x": 1.213193034,
				"y": 0.7645204344,
				"z": 2.0940851818,
				"element": "N" 
			},
			{
				"x": 2.3350449577,
				"y": 0.2469710056,
				"z": 1.5591502688,
				"element": "N" 
			},
			{
				"x": 2.5428125102,
				"y": 0.127915572,
				"z": 0.288091075,
				"element": "C" 
			},
			{
				"x": 3.8948434145,
				"y": -0.4486744287,
				"z": -0.0453410257,
				"element": "C" 
			},
			{
				"x": 4.9207575993,
				"y": -0.1833613102,
				"z": 0.5551295462,
				"element": "O" 
			},
			{
				"x": 3.9105606761,
				"y": -1.3096694065,
				"z": -1.1369231689,
				"element": "N" 
			},
			{
				"x": 2.832630349,
				"y": -2.0054396434,
				"z": -1.71754034,
				"element": "C" 
			},
			{
				"x": 1.6096803363,
				"y": -1.3687145188,
				"z": -2.0438016885,
				"element": "C" 
			},
			{
				"x": 0.6138326379,
				"y": -2.1258709146,
				"z": -2.6902921136,
				"element": "C" 
			},
			{
				"x": 0.7957892541,
				"y": -3.4687154738,
				"z": -2.9916939462,
				"element": "C" 
			},
			{
				"x": 2.013103151,
				"y": -4.0851660621,
				"z": -2.6815708197,
				"element": "C" 
			},
			{
				"x": 3.0169134513,
				"y": -3.3560382934,
				"z": -2.0556047401,
				"element": "C" 
			},
			{
				"x": 1.3522330767,
				"y": -0.0053122735,
				"z": -1.8788847597,
				"element": "N" 
			},
			{
				"x": 1.7509109353,
				"y": 0.6713698846,
				"z": -0.8622794731,
				"element": "C" 
			},
			{
				"x": 1.5237422782,
				"y": 2.1641666332,
				"z": -0.8653830833,
				"element": "C" 
			},
			{
				"x": -0.5955916538,
				"y": -0.4059675887,
				"z": 0.8574165249,
				"element": "C" 
			},
			{
				"x": -1.9350983834,
				"y": -0.4780465457,
				"z": 0.4686645332,
				"element": "C" 
			},
			{
				"x": -4.1879727408,
				"y": -0.5734089326,
				"z": -1.2313176494,
				"element": "H" 
			},
			{
				"x": -4.5768695747,
				"y": -1.4791856331,
				"z": 0.2604375764,
				"element": "H" 
			},
			{
				"x": -5.7371451096,
				"y": -0.2924111366,
				"z": -0.3926626699,
				"element": "H" 
			},
			{
				"x": -3.0774554309,
				"y": 2.3759518819,
				"z": 1.9114738923,
				"element": "H" 
			},
			{
				"x": -0.6765276991,
				"y": 2.5261079776,
				"z": 2.5693706421,
				"element": "H" 
			},
			{
				"x": 1.2817466819,
				"y": 0.7342389498,
				"z": 3.1032364037,
				"element": "H" 
			},
			{
				"x": 4.8274661344,
				"y": -1.7215557909,
				"z": -1.2659550875,
				"element": "H" 
			},
			{
				"x": -0.3013993015,
				"y": -1.6077950741,
				"z": -2.9584843502,
				"element": "H" 
			},
			{
				"x": 0.0064086542,
				"y": -4.028260025,
				"z": -3.4841188737,
				"element": "H" 
			},
			{
				"x": 2.1804581393,
				"y": -5.1294060146,
				"z": -2.9272997632,
				"element": "H" 
			},
			{
				"x": 3.9624742348,
				"y": -3.831586855,
				"z": -1.8070534821,
				"element": "H" 
			},
			{
				"x": 2.4812821684,
				"y": 2.6774148547,
				"z": -1.0195105153,
				"element": "H" 
			},
			{
				"x": 1.1191317049,
				"y": 2.5196226555,
				"z": 0.0850863855,
				"element": "H" 
			},
			{
				"x": 0.8460309408,
				"y": 2.4259303497,
				"z": -1.679442747,
				"element": "H" 
			},
			{
				"x": 0.0813456244,
				"y": -1.2038615922,
				"z": 0.5735654026,
				"element": "H" 
			},
			{
				"x": -2.2631051812,
				"y": -1.326228702,
				"z": -0.119991481,
				"element": "H" 
			}
		],
		 "valence_orbital": [ 
			{
				"type": "occ",
				"energy": -0.26001,
				"method": "rhf"
			},
			{
				"type": "occ",
				"energy": -0.25421,
				"method": "rhf"
			},
			{
				"type": "occ",
				"energy": -0.23113,
				"method": "rhf"
			},
			{
				"type": "occ",
				"energy": -0.21883,
				"method": "rhf"
			},
			{
				"type": "occ",
				"energy": -0.20482,
				"method": "rhf"
			},
			{
				"type": "unocc",
				"energy": -0.05373,
				"method": "rhf"
			},
			{
				"type": "unocc",
				"energy": -0.02448,
				"method": "rhf"
			},
			{
				"type": "unocc",
				"energy": -0.01227,
				"method": "rhf"
			},
			{
				"type": "unocc",
				"energy": -0.0079,
				"method": "rhf"
			},
			{
				"type": "unocc",
				"energy": 0.00526,
				"method": "rhf"
			}
		],
		"cosmo_sigma_profile": { 
			"-0.025": 0.0,
			"-0.024": 0.0,
			"-0.023": 0.0,
			"-0.022": 0.0,
			"-0.021": 0.0,
			"-0.02": 0.0,
			"-0.019": 0.0,
			"-0.018": 0.0,
			"-0.017": 0.0,
			"-0.016": 0.0,
			"-0.015": 0.772913310214,
			"-0.014": 2.83732501434,
			"-0.013": 1.20939794715,
			"-0.012": 2.58985675684,
			"-0.011": 2.20821149905,
			"-0.01": 2.50191442705,
			"-0.009": 2.38369980266,
			"-0.008": 1.74974088491,
			"-0.007": 5.82825716382,
			"-0.006": 18.8168454628,
			"-0.005": 27.8851037001,
			"-0.004": 28.1450912047,
			"-0.003": 28.2679922159,
			"-0.002": 25.3563380909,
			"-0.001": 24.2155854981,
			"0.0": 20.0814898687,
			"0.001": 18.4157316955,
			"0.002": 19.5930305657,
			"0.003": 22.3074394314,
			"0.004": 26.5840235679,
			"0.005": 16.1270878893,
			"0.006": 5.87806784463,
			"0.007": 4.21653293164,
			"0.008": 4.5353059117,
			"0.009": 3.6026206289,
			"0.01": 4.70729561491,
			"0.011": 3.45808756701,
			"0.012": 5.77933170862,
			"0.013": 6.12167415321,
			"0.014": 2.70487090563,
			"0.015": 1.73505139018,
			"0.016": 0.223365432342,
			"0.017": 0.0,
			"0.018": 0.0,
			"0.019": 0.0,
			"0.02": 0.0,
			"0.021": 0.0,
			"0.022": 0.0,
			"0.023": 0.0,
			"0.024": 0.0,
			"0.025": 0.0
		}
	}
}
