{
	 "smiles": "CC(C)(C)OC(=O)N1CCC2(CC2C(=O)NN)CC1", 
	 "Tm": 406.15, 
	 "num_atms": 42, 
	 "gaussian": { 
		 "optdone": 1, 
		 "sigma_profile": "yes", 
		 "theory": "DFT", 
		 "functional": "B3LYP", 
		 "basiset": "6-31G**", 
		 "properties": { 
			 "R2extent": 8753.8367, 
			 "electric_dipole_moment_norm": 1.49390991027, 
			 "electric_quadrupole_moment_norm": 20.7510898641, 
			 "total_energy": -899.168496915, 
			 "HOMO_LUMO_gap": 0.24283, 
			 "cosmo_polarized_energy": -17.27, 
			 "cosmo_cavitation_energy": 42.43, 
			 "cosmo_dispersion_energy": -29.38, 
			 "cosmo_repulsion_energy": 2.3, 
			 "cosmo_total_nonelectrostatic_energy": 15.35, 
			 "SMD_solvation_energy": 7.87 
		},
		"coords": [
			{
				"x": -0.0943819145,
				"y": -1.4213243902,
				"z": 4.4896576172,
				"element": "C" 
			},
			{
				"x": 1.0176717073,
				"y": -1.4964634585,
				"z": 3.4395187965,
				"element": "C" 
			},
			{
				"x": 2.1268706119,
				"y": -0.4857265355,
				"z": 3.7518243112,
				"element": "C" 
			},
			{
				"x": 1.5537233884,
				"y": -2.9273917322,
				"z": 3.3194326891,
				"element": "C" 
			},
			{
				"x": 0.3177774942,
				"y": -1.1117833118,
				"z": 2.2061655857,
				"element": "O" 
			},
			{
				"x": 0.9733413917,
				"y": -1.0703917496,
				"z": 1.017513616,
				"element": "C" 
			},
			{
				"x": 2.1635151244,
				"y": -1.309852259,
				"z": 0.8531346808,
				"element": "O" 
			},
			{
				"x": 0.1141967768,
				"y": -0.7202558854,
				"z": 0.0114269382,
				"element": "N" 
			},
			{
				"x": 0.6560621757,
				"y": -0.5285906853,
				"z": -1.3353545533,
				"element": "C" 
			},
			{
				"x": 0.0665532156,
				"y": 0.7365133112,
				"z": -1.9652049464,
				"element": "C" 
			},
			{
				"x": -1.4700160051,
				"y": 0.6791747698,
				"z": -2.0277194675,
				"element": "C" 
			},
			{
				"x": -2.2012267468,
				"y": 1.9607024992,
				"z": -2.29102958,
				"element": "C" 
			},
			{
				"x": -2.1297643724,
				"y": 0.919817909,
				"z": -3.3915613319,
				"element": "C" 
			},
			{
				"x": -3.395011221,
				"y": 0.2163208255,
				"z": -3.7675580039,
				"element": "C" 
			},
			{
				"x": -4.3648261658,
				"y": 0.0921342338,
				"z": -3.0215994914,
				"element": "O" 
			},
			{
				"x": -3.4084278326,
				"y": -0.2923508941,
				"z": -5.0414620811,
				"element": "N" 
			},
			{
				"x": -4.4654799756,
				"y": -1.1102857792,
				"z": -5.4899709949,
				"element": "N" 
			},
			{
				"x": -2.0642564771,
				"y": -0.3608810736,
				"z": -1.0772543943,
				"element": "C" 
			},
			{
				"x": -1.3025457961,
				"y": -0.4029383535,
				"z": 0.2497407866,
				"element": "C" 
			},
			{
				"x": 0.3005048406,
				"y": -1.6843815785,
				"z": 5.4755332271,
				"element": "H" 
			},
			{
				"x": -0.9046955698,
				"y": -2.1144337818,
				"z": 4.2449767334,
				"element": "H" 
			},
			{
				"x": -0.5093574853,
				"y": -0.4104318756,
				"z": 4.5408393397,
				"element": "H" 
			},
			{
				"x": 2.9073996781,
				"y": -0.5188649951,
				"z": 2.9917002984,
				"element": "H" 
			},
			{
				"x": 2.5691940391,
				"y": -0.7138348066,
				"z": 4.7272064245,
				"element": "H" 
			},
			{
				"x": 1.7147929787,
				"y": 0.527657121,
				"z": 3.7948462049,
				"element": "H" 
			},
			{
				"x": 1.9706220254,
				"y": -3.2458523332,
				"z": 4.2805771944,
				"element": "H" 
			},
			{
				"x": 2.3312330051,
				"y": -2.9892694291,
				"z": 2.5579921805,
				"element": "H" 
			},
			{
				"x": 0.74326692,
				"y": -3.6149932476,
				"z": 3.0568297563,
				"element": "H" 
			},
			{
				"x": 1.7400295681,
				"y": -0.4572209404,
				"z": -1.2420247874,
				"element": "H" 
			},
			{
				"x": 0.4411073421,
				"y": -1.4035030739,
				"z": -1.9659489127,
				"element": "H" 
			},
			{
				"x": 0.4982910592,
				"y": 0.881690208,
				"z": -2.9621482944,
				"element": "H" 
			},
			{
				"x": 0.3752176964,
				"y": 1.5972865323,
				"z": -1.3585019038,
				"element": "H" 
			},
			{
				"x": -1.624777571,
				"y": 2.8722081568,
				"z": -2.4253447821,
				"element": "H" 
			},
			{
				"x": -3.1817681804,
				"y": 2.089548134,
				"z": -1.8421339105,
				"element": "H" 
			},
			{
				"x": -1.445112193,
				"y": 1.118233162,
				"z": -4.2140180998,
				"element": "H" 
			},
			{
				"x": -2.5480907854,
				"y": -0.3949065929,
				"z": -5.5597399528,
				"element": "H" 
			},
			{
				"x": -5.2423890508,
				"y": -0.4968185367,
				"z": -5.7352696513,
				"element": "H" 
			},
			{
				"x": -4.7906172679,
				"y": -1.6390110702,
				"z": -4.6793856017,
				"element": "H" 
			},
			{
				"x": -2.019357115,
				"y": -1.355717811,
				"z": -1.5386617372,
				"element": "H" 
			},
			{
				"x": -3.1201696057,
				"y": -0.1558832061,
				"z": -0.8948802438,
				"element": "H" 
			},
			{
				"x": -1.7335588953,
				"y": -1.162258251,
				"z": 0.906406988,
				"element": "H" 
			},
			{
				"x": -1.3967408123,
				"y": 0.5604307748,
				"z": 0.7709493539,
				"element": "H" 
			}
		],
		 "valence_orbital": [ 
			{
				"type": "occ",
				"energy": -0.27973,
				"method": "rhf"
			},
			{
				"type": "occ",
				"energy": -0.25778,
				"method": "rhf"
			},
			{
				"type": "occ",
				"energy": -0.25508,
				"method": "rhf"
			},
			{
				"type": "occ",
				"energy": -0.25193,
				"method": "rhf"
			},
			{
				"type": "occ",
				"energy": -0.2287,
				"method": "rhf"
			},
			{
				"type": "unocc",
				"energy": 0.01413,
				"method": "rhf"
			},
			{
				"type": "unocc",
				"energy": 0.06009,
				"method": "rhf"
			},
			{
				"type": "unocc",
				"energy": 0.07275,
				"method": "rhf"
			},
			{
				"type": "unocc",
				"energy": 0.08224,
				"method": "rhf"
			},
			{
				"type": "unocc",
				"energy": 0.08852,
				"method": "rhf"
			}
		],
		"cosmo_sigma_profile": { 
			"-0.025": 0.0,
			"-0.024": 0.0,
			"-0.023": 0.0,
			"-0.022": 0.0,
			"-0.021": 0.0,
			"-0.02": 0.0,
			"-0.019": 0.0,
			"-0.018": 0.0,
			"-0.017": 0.0,
			"-0.016": 0.0,
			"-0.015": 0.082225052821,
			"-0.014": 0.802429600677,
			"-0.013": 1.48504664679,
			"-0.012": 1.24469322533,
			"-0.011": 2.25678647936,
			"-0.01": 3.66125798719,
			"-0.009": 3.90060879849,
			"-0.008": 2.88984068234,
			"-0.007": 2.97696689809,
			"-0.006": 4.77711895809,
			"-0.005": 7.86187170196,
			"-0.004": 25.6434676062,
			"-0.003": 40.2862105607,
			"-0.002": 42.2529525862,
			"-0.001": 36.1638078316,
			"0.0": 35.9104784175,
			"0.001": 31.8896745502,
			"0.002": 16.7980863246,
			"0.003": 10.6189381117,
			"0.004": 7.22746899935,
			"0.005": 7.2747837617,
			"0.006": 6.65794853002,
			"0.007": 4.71977657904,
			"0.008": 4.63020195404,
			"0.009": 2.78937182118,
			"0.01": 2.58324395343,
			"0.011": 4.08363367557,
			"0.012": 4.11602159415,
			"0.013": 5.24151269544,
			"0.014": 6.49634020383,
			"0.015": 0.72217826064,
			"0.016": 0.507974094345,
			"0.017": 0.357833504501,
			"0.018": 0.0,
			"0.019": 0.0,
			"0.02": 0.0,
			"0.021": 0.0,
			"0.022": 0.0,
			"0.023": 0.0,
			"0.024": 0.0,
			"0.025": 0.0
		}
	}
}
