{
	 "smiles": "CC(=O)NC1=CC2=C(CCN(C2)C(=O)OC(C)(C)C)C=C1", 
	 "Tm": 384.15, 
	 "num_atms": 43, 
	 "gaussian": { 
		 "optdone": 1, 
		 "sigma_profile": "yes", 
		 "theory": "DFT", 
		 "functional": "B3LYP", 
		 "basiset": "6-31G**", 
		 "properties": { 
			 "R2extent": 10258.7016, 
			 "electric_dipole_moment_norm": 4.24271319441, 
			 "electric_quadrupole_moment_norm": 19.6946115443, 
			 "total_energy": -958.205180272, 
			 "HOMO_LUMO_gap": 0.20355, 
			 "cosmo_polarized_energy": -17.75, 
			 "cosmo_cavitation_energy": 44.33, 
			 "cosmo_dispersion_energy": -31.4, 
			 "cosmo_repulsion_energy": 2.41, 
			 "cosmo_total_nonelectrostatic_energy": 15.34, 
			 "SMD_solvation_energy": 8.28 
		},
		"coords": [
			{
				"x": 2.6361472334,
				"y": 6.3375645019,
				"z": 0.8375458552,
				"element": "C" 
			},
			{
				"x": 1.783811342,
				"y": 5.6341714889,
				"z": -0.210632855,
				"element": "C" 
			},
			{
				"x": 1.1775629936,
				"y": 6.2641158008,
				"z": -1.0653180893,
				"element": "O" 
			},
			{
				"x": 1.7659942853,
				"y": 4.2601388336,
				"z": -0.10189241,
				"element": "N" 
			},
			{
				"x": 1.0852415938,
				"y": 3.3156755738,
				"z": -0.9006874318,
				"element": "C" 
			},
			{
				"x": 1.2355792988,
				"y": 1.9637181658,
				"z": -0.5707949201,
				"element": "C" 
			},
			{
				"x": 0.596888274,
				"y": 0.9585268577,
				"z": -1.3010798888,
				"element": "C" 
			},
			{
				"x": -0.2101594683,
				"y": 1.3015539637,
				"z": -2.3961668146,
				"element": "C" 
			},
			{
				"x": -0.910450715,
				"y": 0.2265088088,
				"z": -3.2006956232,
				"element": "C" 
			},
			{
				"x": -0.2119456729,
				"y": -1.1254214389,
				"z": -3.0468404003,
				"element": "C" 
			},
			{
				"x": -0.0163053184,
				"y": -1.4173764862,
				"z": -1.6301297294,
				"element": "N" 
			},
			{
				"x": 0.8234317648,
				"y": -0.4867958732,
				"z": -0.8864160529,
				"element": "C" 
			},
			{
				"x": -0.4821149255,
				"y": -2.6021340385,
				"z": -1.1189768866,
				"element": "C" 
			},
			{
				"x": -1.1360170354,
				"y": -3.4113114878,
				"z": -1.7632645579,
				"element": "O" 
			},
			{
				"x": -0.1234508716,
				"y": -2.7428775244,
				"z": 0.1824662013,
				"element": "O" 
			},
			{
				"x": -0.5529254958,
				"y": -3.9158108337,
				"z": 0.9594912213,
				"element": "C" 
			},
			{
				"x": 0.0529233971,
				"y": -3.6389118549,
				"z": 2.338359241,
				"element": "C" 
			},
			{
				"x": -2.0824637222,
				"y": -3.9657610215,
				"z": 1.039822773,
				"element": "C" 
			},
			{
				"x": 0.0399833709,
				"y": -5.1928944832,
				"z": 0.354198383,
				"element": "C" 
			},
			{
				"x": -0.3499383456,
				"y": 2.6576741935,
				"z": -2.7177483899,
				"element": "C" 
			},
			{
				"x": 0.2769608494,
				"y": 3.6667169142,
				"z": -1.9943478535,
				"element": "C" 
			},
			{
				"x": 3.3992718301,
				"y": 6.9297577159,
				"z": 0.3252517903,
				"element": "H" 
			},
			{
				"x": 3.1266992633,
				"y": 5.6654510675,
				"z": 1.5472761998,
				"element": "H" 
			},
			{
				"x": 2.0014606237,
				"y": 7.0349443488,
				"z": 1.3909790118,
				"element": "H" 
			},
			{
				"x": 2.3113575039,
				"y": 3.8656965109,
				"z": 0.650211922,
				"element": "H" 
			},
			{
				"x": 1.8630468879,
				"y": 1.6862250979,
				"z": 0.2758727288,
				"element": "H" 
			},
			{
				"x": -1.9523470732,
				"y": 0.1247229291,
				"z": -2.8678435596,
				"element": "H" 
			},
			{
				"x": -0.9446402015,
				"y": 0.5095269532,
				"z": -4.2595036548,
				"element": "H" 
			},
			{
				"x": -0.8002252674,
				"y": -1.9371064376,
				"z": -3.4727630887,
				"element": "H" 
			},
			{
				"x": 0.7650222097,
				"y": -1.1035167236,
				"z": -3.5525892018,
				"element": "H" 
			},
			{
				"x": 0.6124054627,
				"y": -0.6065329133,
				"z": 0.1768242632,
				"element": "H" 
			},
			{
				"x": 1.8885344575,
				"y": -0.7380635688,
				"z": -1.027055808,
				"element": "H" 
			},
			{
				"x": -0.1902589562,
				"y": -4.4540740927,
				"z": 3.026314336,
				"element": "H" 
			},
			{
				"x": 1.1417412625,
				"y": -3.5552538091,
				"z": 2.2721653771,
				"element": "H" 
			},
			{
				"x": -0.3410472712,
				"y": -2.7067229671,
				"z": 2.7541669006,
				"element": "H" 
			},
			{
				"x": -2.4726997122,
				"y": -3.0228975872,
				"z": 1.4363507164,
				"element": "H" 
			},
			{
				"x": -2.518878355,
				"y": -4.1443669834,
				"z": 0.0571318959,
				"element": "H" 
			},
			{
				"x": -2.3884234323,
				"y": -4.7706447709,
				"z": 1.7161850672,
				"element": "H" 
			},
			{
				"x": 1.1286338691,
				"y": -5.1062329529,
				"z": 0.2776241773,
				"element": "H" 
			},
			{
				"x": -0.3709380836,
				"y": -5.3806201359,
				"z": -0.6376578621,
				"element": "H" 
			},
			{
				"x": -0.1877693775,
				"y": -6.0462368753,
				"z": 1.0014059665,
				"element": "H" 
			},
			{
				"x": -0.9698629658,
				"y": 2.9342955232,
				"z": -3.567536131,
				"element": "H" 
			},
			{
				"x": 0.1589644932,
				"y": 4.7077796112,
				"z": -2.2577028181,
				"element": "H" 
			}
		],
		 "valence_orbital": [ 
			{
				"type": "occ",
				"energy": -0.25891,
				"method": "rhf"
			},
			{
				"type": "occ",
				"energy": -0.25333,
				"method": "rhf"
			},
			{
				"type": "occ",
				"energy": -0.24871,
				"method": "rhf"
			},
			{
				"type": "occ",
				"energy": -0.23261,
				"method": "rhf"
			},
			{
				"type": "occ",
				"energy": -0.21624,
				"method": "rhf"
			},
			{
				"type": "unocc",
				"energy": -0.01269,
				"method": "rhf"
			},
			{
				"type": "unocc",
				"energy": -0.00516,
				"method": "rhf"
			},
			{
				"type": "unocc",
				"energy": 0.04454,
				"method": "rhf"
			},
			{
				"type": "unocc",
				"energy": 0.05587,
				"method": "rhf"
			},
			{
				"type": "unocc",
				"energy": 0.06169,
				"method": "rhf"
			}
		],
		"cosmo_sigma_profile": { 
			"-0.025": 0.0,
			"-0.024": 0.0,
			"-0.023": 0.0,
			"-0.022": 0.0,
			"-0.021": 0.0,
			"-0.02": 0.0,
			"-0.019": 0.0,
			"-0.018": 0.0,
			"-0.017": 0.0,
			"-0.016": 0.0,
			"-0.015": 0.928742183753,
			"-0.014": 1.54153176235,
			"-0.013": 1.12452657938,
			"-0.012": 1.70789020946,
			"-0.011": 1.18585157772,
			"-0.01": 1.88588791825,
			"-0.009": 1.2863945618,
			"-0.008": 1.52025014278,
			"-0.007": 3.01823032107,
			"-0.006": 6.01861004876,
			"-0.005": 13.9739904658,
			"-0.004": 33.8300784317,
			"-0.003": 40.3103830724,
			"-0.002": 38.3315422449,
			"-0.001": 34.6894360904,
			"0.0": 35.0562171913,
			"0.001": 30.7928869507,
			"0.002": 18.1070902877,
			"0.003": 14.6549864203,
			"0.004": 15.3244898497,
			"0.005": 13.1006370342,
			"0.006": 9.02828439371,
			"0.007": 4.3464712444,
			"0.008": 3.2771277256,
			"0.009": 2.14186066624,
			"0.01": 3.23991828049,
			"0.011": 3.15770843982,
			"0.012": 4.30418324572,
			"0.013": 5.88560186886,
			"0.014": 3.62650967783,
			"0.015": 0.436344969863,
			"0.016": 0.0,
			"0.017": 0.0,
			"0.018": 0.0,
			"0.019": 0.0,
			"0.02": 0.0,
			"0.021": 0.0,
			"0.022": 0.0,
			"0.023": 0.0,
			"0.024": 0.0,
			"0.025": 0.0
		}
	}
}
