{
	 "smiles": "CCOC=C1N=C(OC1=O)C1=CC=CC=C1", 
	 "Tm": 368.15, 
	 "num_atms": 27, 
	 "gaussian": { 
		 "optdone": 1, 
		 "sigma_profile": "yes", 
		 "theory": "DFT", 
		 "functional": "B3LYP", 
		 "basiset": "6-31G**", 
		 "properties": { 
			 "R2extent": 7028.8531, 
			 "electric_dipole_moment_norm": 4.03475760115, 
			 "electric_quadrupole_moment_norm": 25.8282062383, 
			 "total_energy": -744.31761472, 
			 "HOMO_LUMO_gap": 0.14699, 
			 "cosmo_polarized_energy": -14.54, 
			 "cosmo_cavitation_energy": 32.73, 
			 "cosmo_dispersion_energy": -23.76, 
			 "cosmo_repulsion_energy": 1.87, 
			 "cosmo_total_nonelectrostatic_energy": 10.84, 
			 "SMD_solvation_energy": 5.96 
		},
		"coords": [
			{
				"x": -1.5499471627,
				"y": 0.7036058027,
				"z": -3.2988825461,
				"element": "C" 
			},
			{
				"x": -0.839657304,
				"y": -0.636204143,
				"z": -3.4189947367,
				"element": "C" 
			},
			{
				"x": -0.7311927069,
				"y": -1.288622463,
				"z": -2.1389262387,
				"element": "O" 
			},
			{
				"x": 0.3177753621,
				"y": -0.9686986724,
				"z": -1.382454392,
				"element": "C" 
			},
			{
				"x": 0.4650212087,
				"y": -1.4043770889,
				"z": -0.1060692298,
				"element": "C" 
			},
			{
				"x": 1.5850164357,
				"y": -1.0991974567,
				"z": 0.6753562103,
				"element": "N" 
			},
			{
				"x": 1.3718296228,
				"y": -1.6762500196,
				"z": 1.8119567131,
				"element": "C" 
			},
			{
				"x": 0.18771986,
				"y": -2.3750899738,
				"z": 1.9172440849,
				"element": "O" 
			},
			{
				"x": -0.4668786449,
				"y": -2.2363543203,
				"z": 0.6744263627,
				"element": "C" 
			},
			{
				"x": -1.5369073932,
				"y": -2.7374670351,
				"z": 0.4530182156,
				"element": "O" 
			},
			{
				"x": 2.2465868979,
				"y": -1.6630271689,
				"z": 2.9811150645,
				"element": "C" 
			},
			{
				"x": 1.8861618615,
				"y": -2.3371711767,
				"z": 4.1584988038,
				"element": "C" 
			},
			{
				"x": 2.736635864,
				"y": -2.3110730845,
				"z": 5.2624699098,
				"element": "C" 
			},
			{
				"x": 3.9463553521,
				"y": -1.6165146642,
				"z": 5.2016762089,
				"element": "C" 
			},
			{
				"x": 4.3074893642,
				"y": -0.9440571654,
				"z": 4.029235331,
				"element": "C" 
			},
			{
				"x": 3.4650139068,
				"y": -0.9649000011,
				"z": 2.9229351967,
				"element": "C" 
			},
			{
				"x": -0.9765571959,
				"y": 1.4013286439,
				"z": -2.6804831639,
				"element": "H" 
			},
			{
				"x": -2.5375152102,
				"y": 0.5742065111,
				"z": -2.8482170188,
				"element": "H" 
			},
			{
				"x": -1.6756359916,
				"y": 1.1500883484,
				"z": -4.2906281911,
				"element": "H" 
			},
			{
				"x": -1.407530661,
				"y": -1.3326304141,
				"z": -4.0400266302,
				"element": "H" 
			},
			{
				"x": 0.1618311942,
				"y": -0.5251946267,
				"z": -3.854503913,
				"element": "H" 
			},
			{
				"x": 1.0948478087,
				"y": -0.3447972659,
				"z": -1.8248073108,
				"element": "H" 
			},
			{
				"x": 0.9451688334,
				"y": -2.8744622194,
				"z": 4.198308564,
				"element": "H" 
			},
			{
				"x": 2.4539990144,
				"y": -2.8339869941,
				"z": 6.1713354058,
				"element": "H" 
			},
			{
				"x": 4.6067642441,
				"y": -1.5982529299,
				"z": 6.0638719416,
				"element": "H" 
			},
			{
				"x": 5.2482329659,
				"y": -0.4034971359,
				"z": 3.9803748564,
				"element": "H" 
			},
			{
				"x": 3.7292724738,
				"y": -0.4493032865,
				"z": 2.0058705019,
				"element": "H" 
			}
		],
		 "valence_orbital": [ 
			{
				"type": "occ",
				"energy": -0.30807,
				"method": "rhf"
			},
			{
				"type": "occ",
				"energy": -0.26874,
				"method": "rhf"
			},
			{
				"type": "occ",
				"energy": -0.26105,
				"method": "rhf"
			},
			{
				"type": "occ",
				"energy": -0.25679,
				"method": "rhf"
			},
			{
				"type": "occ",
				"energy": -0.21157,
				"method": "rhf"
			},
			{
				"type": "unocc",
				"energy": -0.06458,
				"method": "rhf"
			},
			{
				"type": "unocc",
				"energy": -0.0208,
				"method": "rhf"
			},
			{
				"type": "unocc",
				"energy": -0.00553,
				"method": "rhf"
			},
			{
				"type": "unocc",
				"energy": 0.06116,
				"method": "rhf"
			},
			{
				"type": "unocc",
				"energy": 0.07199,
				"method": "rhf"
			}
		],
		"cosmo_sigma_profile": { 
			"-0.025": 0.0,
			"-0.024": 0.0,
			"-0.023": 0.0,
			"-0.022": 0.0,
			"-0.021": 0.0,
			"-0.02": 0.0,
			"-0.019": 0.0,
			"-0.018": 0.0,
			"-0.017": 0.0,
			"-0.016": 0.0,
			"-0.015": 0.0,
			"-0.014": 0.0,
			"-0.013": 0.0,
			"-0.012": 0.0,
			"-0.011": 0.0,
			"-0.01": 2.41663475852,
			"-0.009": 2.84881720374,
			"-0.008": 2.59487638907,
			"-0.007": 4.95740396704,
			"-0.006": 15.51829058,
			"-0.005": 22.2214811159,
			"-0.004": 26.2913312631,
			"-0.003": 19.4340250323,
			"-0.002": 17.1986101814,
			"-0.001": 20.2350054208,
			"0.0": 22.6268064794,
			"0.001": 15.1036677318,
			"0.002": 15.1886541313,
			"0.003": 16.2796779777,
			"0.004": 16.2077408917,
			"0.005": 7.92875007653,
			"0.006": 3.99610823035,
			"0.007": 4.46014093566,
			"0.008": 4.38681365212,
			"0.009": 3.81712858318,
			"0.01": 4.80723653565,
			"0.011": 7.88315752352,
			"0.012": 4.93144342966,
			"0.013": 0.796407047546,
			"0.014": 0.0,
			"0.015": 0.0,
			"0.016": 0.0,
			"0.017": 0.0,
			"0.018": 0.0,
			"0.019": 0.0,
			"0.02": 0.0,
			"0.021": 0.0,
			"0.022": 0.0,
			"0.023": 0.0,
			"0.024": 0.0,
			"0.025": 0.0
		}
	}
}
