{
	 "smiles": "CSC(=O)C1=C2SN=NC2=CC=C1", 
	 "Tm": 406.15, 
	 "num_atms": 19, 
	 "gaussian": { 
		 "optdone": 1, 
		 "sigma_profile": "yes", 
		 "theory": "DFT", 
		 "functional": "B3LYP", 
		 "basiset": "6-31G**", 
		 "properties": { 
			 "R2extent": 3255.628, 
			 "electric_dipole_moment_norm": 4.49976922297, 
			 "electric_quadrupole_moment_norm": 8.20917154224, 
			 "total_energy": -1289.54504221, 
			 "HOMO_LUMO_gap": 0.16667, 
			 "cosmo_polarized_energy": -9.82, 
			 "cosmo_cavitation_energy": 26.77, 
			 "cosmo_dispersion_energy": -21.03, 
			 "cosmo_repulsion_energy": 1.54, 
			 "cosmo_total_nonelectrostatic_energy": 7.28, 
			 "SMD_solvation_energy": 3.07 
		},
		"coords": [
			{
				"x": 2.4143148157,
				"y": 2.7716127367,
				"z": 2.4536036619,
				"element": "C" 
			},
			{
				"x": 2.8765122081,
				"y": 1.4094149509,
				"z": 1.3320489874,
				"element": "S" 
			},
			{
				"x": 1.2222672485,
				"y": 0.8729343089,
				"z": 0.8773609662,
				"element": "C" 
			},
			{
				"x": 0.2302456769,
				"y": 1.4244519153,
				"z": 1.3257081517,
				"element": "O" 
			},
			{
				"x": 1.1165221228,
				"y": -0.2699345074,
				"z": -0.0668833137,
				"element": "C" 
			},
			{
				"x": -0.1744704044,
				"y": -0.703836128,
				"z": -0.4337349311,
				"element": "C" 
			},
			{
				"x": -1.7380800641,
				"y": -0.1423379153,
				"z": 0.0193310232,
				"element": "S" 
			},
			{
				"x": -2.5022093555,
				"y": -1.3752221267,
				"z": -1.0035398439,
				"element": "N" 
			},
			{
				"x": -1.6584217956,
				"y": -2.1018811473,
				"z": -1.5977824227,
				"element": "N" 
			},
			{
				"x": -0.3330217748,
				"y": -1.7856746353,
				"z": -1.3279424006,
				"element": "C" 
			},
			{
				"x": 0.7776349251,
				"y": -2.4486098073,
				"z": -1.8678933437,
				"element": "C" 
			},
			{
				"x": 2.0468461164,
				"y": -2.0185229383,
				"z": -1.5043923505,
				"element": "C" 
			},
			{
				"x": 2.2110833359,
				"y": -0.9434275597,
				"z": -0.6156789633,
				"element": "C" 
			},
			{
				"x": 3.3506137737,
				"y": 3.2005407588,
				"z": 2.8140008187,
				"element": "H" 
			},
			{
				"x": 1.8275010906,
				"y": 2.3879912633,
				"z": 3.2883171129,
				"element": "H" 
			},
			{
				"x": 1.8366915865,
				"y": 3.5224235468,
				"z": 1.9142567606,
				"element": "H" 
			},
			{
				"x": 0.6252052344,
				"y": -3.276284307,
				"z": -2.5522628162,
				"element": "H" 
			},
			{
				"x": 2.9240609215,
				"y": -2.513628,
				"z": -1.9073122671,
				"element": "H" 
			},
			{
				"x": 3.2166043385,
				"y": -0.6313104084,
				"z": -0.35130483,
				"element": "H" 
			}
		],
		 "valence_orbital": [ 
			{
				"type": "occ",
				"energy": -0.28278,
				"method": "rhf"
			},
			{
				"type": "occ",
				"energy": -0.28272,
				"method": "rhf"
			},
			{
				"type": "occ",
				"energy": -0.26732,
				"method": "rhf"
			},
			{
				"type": "occ",
				"energy": -0.25797,
				"method": "rhf"
			},
			{
				"type": "occ",
				"energy": -0.25423,
				"method": "rhf"
			},
			{
				"type": "unocc",
				"energy": -0.08756,
				"method": "rhf"
			},
			{
				"type": "unocc",
				"energy": -0.0544,
				"method": "rhf"
			},
			{
				"type": "unocc",
				"energy": -0.00927,
				"method": "rhf"
			},
			{
				"type": "unocc",
				"energy": -0.00379,
				"method": "rhf"
			},
			{
				"type": "unocc",
				"energy": 0.01659,
				"method": "rhf"
			}
		],
		"cosmo_sigma_profile": { 
			"-0.025": 0.0,
			"-0.024": 0.0,
			"-0.023": 0.0,
			"-0.022": 0.0,
			"-0.021": 0.0,
			"-0.02": 0.0,
			"-0.019": 0.0,
			"-0.018": 0.0,
			"-0.017": 0.0,
			"-0.016": 0.0,
			"-0.015": 0.0,
			"-0.014": 0.0,
			"-0.013": 0.0,
			"-0.012": 0.0,
			"-0.011": 0.0,
			"-0.01": 0.0,
			"-0.009": 0.881756262381,
			"-0.008": 5.42542241693,
			"-0.007": 9.57887502969,
			"-0.006": 10.9382218054,
			"-0.005": 9.12587968585,
			"-0.004": 11.7506682921,
			"-0.003": 16.0682347155,
			"-0.002": 23.3466294389,
			"-0.001": 25.5075293144,
			"0.0": 21.011749237,
			"0.001": 19.2971897931,
			"0.002": 13.2550233558,
			"0.003": 9.23530447895,
			"0.004": 7.85047169181,
			"0.005": 6.42223215635,
			"0.006": 5.93884450997,
			"0.007": 4.8923591861,
			"0.008": 4.8334607893,
			"0.009": 5.23307469518,
			"0.01": 4.76181160671,
			"0.011": 2.85872969076,
			"0.012": 1.84807713943,
			"0.013": 0.0767943844678,
			"0.014": 0.0,
			"0.015": 0.0,
			"0.016": 0.0,
			"0.017": 0.0,
			"0.018": 0.0,
			"0.019": 0.0,
			"0.02": 0.0,
			"0.021": 0.0,
			"0.022": 0.0,
			"0.023": 0.0,
			"0.024": 0.0,
			"0.025": 0.0
		}
	}
}
