{
	 "smiles": "CC(C)N1N=C(CCC1=O)C(O)=O", 
	 "Tm": 405.15, 
	 "num_atms": 25, 
	 "gaussian": { 
		 "optdone": 1, 
		 "sigma_profile": "yes", 
		 "theory": "DFT", 
		 "functional": "B3LYP", 
		 "basiset": "6-31G**", 
		 "properties": { 
			 "R2extent": 3127.1367, 
			 "electric_dipole_moment_norm": 2.81875460798, 
			 "electric_quadrupole_moment_norm": 22.8021031668, 
			 "total_energy": -647.263410602, 
			 "HOMO_LUMO_gap": 0.18, 
			 "cosmo_polarized_energy": -14.01, 
			 "cosmo_cavitation_energy": 28.0, 
			 "cosmo_dispersion_energy": -20.18, 
			 "cosmo_repulsion_energy": 1.63, 
			 "cosmo_total_nonelectrostatic_energy": 9.45, 
			 "SMD_solvation_energy": 6.04 
		},
		"coords": [
			{
				"x": 2.2682088296,
				"y": -0.9866150131,
				"z": 0.1364451708,
				"element": "C" 
			},
			{
				"x": 0.9120203695,
				"y": -1.3041856557,
				"z": 0.7768680773,
				"element": "C" 
			},
			{
				"x": 0.910141825,
				"y": -1.1233514193,
				"z": 2.2990951929,
				"element": "C" 
			},
			{
				"x": -0.1967578038,
				"y": -0.5406498316,
				"z": 0.1374284768,
				"element": "N" 
			},
			{
				"x": -1.0742025078,
				"y": -1.3089314357,
				"z": -0.5793738109,
				"element": "N" 
			},
			{
				"x": -2.1635907485,
				"y": -0.7943390055,
				"z": -1.0380392239,
				"element": "C" 
			},
			{
				"x": -2.5611969259,
				"y": 0.6344812548,
				"z": -0.8290426917,
				"element": "C" 
			},
			{
				"x": -1.2926979543,
				"y": 1.4856915264,
				"z": -0.7470768209,
				"element": "C" 
			},
			{
				"x": -0.2266639345,
				"y": 0.8565485224,
				"z": 0.136056928,
				"element": "C" 
			},
			{
				"x": 0.5920983842,
				"y": 1.5111638021,
				"z": 0.7607448906,
				"element": "O" 
			},
			{
				"x": -3.0700102851,
				"y": -1.7326099147,
				"z": -1.7799452088,
				"element": "C" 
			},
			{
				"x": -2.6289990854,
				"y": -2.9993393813,
				"z": -1.8765586315,
				"element": "O" 
			},
			{
				"x": -4.1239671971,
				"y": -1.3681391444,
				"z": -2.2519026011,
				"element": "O" 
			},
			{
				"x": 3.0315986595,
				"y": -1.6506625189,
				"z": 0.5540287885,
				"element": "H" 
			},
			{
				"x": 2.2353811575,
				"y": -1.1480818866,
				"z": -0.9455886982,
				"element": "H" 
			},
			{
				"x": 2.5629770156,
				"y": 0.0458119775,
				"z": 0.3317037197,
				"element": "H" 
			},
			{
				"x": 0.6534118683,
				"y": -2.3414475515,
				"z": 0.5494143152,
				"element": "H" 
			},
			{
				"x": 1.1596953934,
				"y": -0.0965536027,
				"z": 2.5706333509,
				"element": "H" 
			},
			{
				"x": -0.068859174,
				"y": -1.3724265581,
				"z": 2.7198318166,
				"element": "H" 
			},
			{
				"x": 1.6513105439,
				"y": -1.7942200015,
				"z": 2.7451228874,
				"element": "H" 
			},
			{
				"x": -3.2329715213,
				"y": 0.9560737147,
				"z": -1.6272946629,
				"element": "H" 
			},
			{
				"x": -3.1342163628,
				"y": 0.7031211179,
				"z": 0.1072747472,
				"element": "H" 
			},
			{
				"x": -1.4826031536,
				"y": 2.4900912426,
				"z": -0.3649292677,
				"element": "H" 
			},
			{
				"x": -0.848379456,
				"y": 1.5988583411,
				"z": -1.7455700578,
				"element": "H" 
			},
			{
				"x": -1.7674279364,
				"y": -3.0375885788,
				"z": -1.4195266866,
				"element": "H" 
			}
		],
		 "valence_orbital": [ 
			{
				"type": "occ",
				"energy": -0.32975,
				"method": "rhf"
			},
			{
				"type": "occ",
				"energy": -0.31708,
				"method": "rhf"
			},
			{
				"type": "occ",
				"energy": -0.28243,
				"method": "rhf"
			},
			{
				"type": "occ",
				"energy": -0.26513,
				"method": "rhf"
			},
			{
				"type": "occ",
				"energy": -0.25485,
				"method": "rhf"
			},
			{
				"type": "unocc",
				"energy": -0.07485,
				"method": "rhf"
			},
			{
				"type": "unocc",
				"energy": 0.00418,
				"method": "rhf"
			},
			{
				"type": "unocc",
				"energy": 0.06209,
				"method": "rhf"
			},
			{
				"type": "unocc",
				"energy": 0.0797,
				"method": "rhf"
			},
			{
				"type": "unocc",
				"energy": 0.09669,
				"method": "rhf"
			}
		],
		"cosmo_sigma_profile": { 
			"-0.025": 0.0,
			"-0.024": 0.0,
			"-0.023": 0.0,
			"-0.022": 0.0,
			"-0.021": 0.0,
			"-0.02": 0.0,
			"-0.019": 0.0,
			"-0.018": 0.0,
			"-0.017": 0.0,
			"-0.016": 0.0,
			"-0.015": 0.0,
			"-0.014": 0.209167251459,
			"-0.013": 0.752422448961,
			"-0.012": 0.886728851149,
			"-0.011": 0.220920678544,
			"-0.01": 0.888676850785,
			"-0.009": 0.796152015636,
			"-0.008": 0.888958534944,
			"-0.007": 7.64292713219,
			"-0.006": 12.380045186,
			"-0.005": 16.1792691781,
			"-0.004": 22.4845715599,
			"-0.003": 22.0762898873,
			"-0.002": 21.2127134324,
			"-0.001": 18.7062245515,
			"0.0": 20.8260618843,
			"0.001": 13.9542875314,
			"0.002": 6.79956522823,
			"0.003": 3.66273364152,
			"0.004": 4.02040745529,
			"0.005": 3.96656108894,
			"0.006": 4.59941887493,
			"0.007": 3.45641248354,
			"0.008": 4.60214160659,
			"0.009": 5.45012537697,
			"0.01": 6.56560473687,
			"0.011": 7.68009954812,
			"0.012": 6.36321591429,
			"0.013": 2.83482484153,
			"0.014": 0.0773395156999,
			"0.015": 0.0,
			"0.016": 0.0,
			"0.017": 0.0,
			"0.018": 0.0,
			"0.019": 0.0,
			"0.02": 0.0,
			"0.021": 0.0,
			"0.022": 0.0,
			"0.023": 0.0,
			"0.024": 0.0,
			"0.025": 0.0
		}
	}
}
