{
	 "smiles": "OC1=C(F)C(C=O)=C(F)C=C1", 
	 "Tm": 385.15, 
	 "num_atms": 15, 
	 "gaussian": { 
		 "optdone": 1, 
		 "sigma_profile": "yes", 
		 "theory": "DFT", 
		 "functional": "B3LYP", 
		 "basiset": "6-31G**", 
		 "properties": { 
			 "R2extent": 1815.1969, 
			 "electric_dipole_moment_norm": 5.30131818513, 
			 "electric_quadrupole_moment_norm": 9.0186869704, 
			 "total_energy": -619.240996716, 
			 "HOMO_LUMO_gap": 0.16777, 
			 "cosmo_polarized_energy": -13.72, 
			 "cosmo_cavitation_energy": 21.09, 
			 "cosmo_dispersion_energy": -15.38, 
			 "cosmo_repulsion_energy": 1.19, 
			 "cosmo_total_nonelectrostatic_energy": 6.9, 
			 "SMD_solvation_energy": 6.05 
		},
		"coords": [
			{
				"x": -0.2663218899,
				"y": 0.3457808109,
				"z": -2.9812484559,
				"element": "O" 
			},
			{
				"x": -0.04077281,
				"y": 0.6187659954,
				"z": -1.6662774652,
				"element": "C" 
			},
			{
				"x": 0.8395706737,
				"y": -0.2221849839,
				"z": -0.9757905841,
				"element": "C" 
			},
			{
				"x": 1.3985136012,
				"y": -1.2371503238,
				"z": -1.6581999759,
				"element": "F" 
			},
			{
				"x": 1.1552422751,
				"y": -0.048893546,
				"z": 0.3779173845,
				"element": "C" 
			},
			{
				"x": 2.1006728524,
				"y": -0.9877558421,
				"z": 1.0347424592,
				"element": "C" 
			},
			{
				"x": 2.4431252053,
				"y": -0.9302477179,
				"z": 2.19877983,
				"element": "O" 
			},
			{
				"x": 0.5402058883,
				"y": 1.0303305703,
				"z": 1.0414378935,
				"element": "C" 
			},
			{
				"x": 0.8005348496,
				"y": 1.2495325105,
				"z": 2.3359377006,
				"element": "F" 
			},
			{
				"x": -0.3364133265,
				"y": 1.8830108538,
				"z": 0.3895040175,
				"element": "C" 
			},
			{
				"x": -0.623184759,
				"y": 1.6735001821,
				"z": -0.9619473649,
				"element": "C" 
			},
			{
				"x": -0.8867878792,
				"y": 0.9939432728,
				"z": -3.3385464435,
				"element": "H" 
			},
			{
				"x": 2.487800624,
				"y": -1.7767941373,
				"z": 0.36233363,
				"element": "H" 
			},
			{
				"x": -0.7871740392,
				"y": 2.7011885207,
				"z": 0.9390514913,
				"element": "H" 
			},
			{
				"x": -1.3107112658,
				"y": 2.3415738346,
				"z": -1.474994117,
				"element": "H" 
			}
		],
		 "valence_orbital": [ 
			{
				"type": "occ",
				"energy": -0.38029,
				"method": "rhf"
			},
			{
				"type": "occ",
				"energy": -0.34284,
				"method": "rhf"
			},
			{
				"type": "occ",
				"energy": -0.27642,
				"method": "rhf"
			},
			{
				"type": "occ",
				"energy": -0.25453,
				"method": "rhf"
			},
			{
				"type": "occ",
				"energy": -0.23863,
				"method": "rhf"
			},
			{
				"type": "unocc",
				"energy": -0.07086,
				"method": "rhf"
			},
			{
				"type": "unocc",
				"energy": -0.00954,
				"method": "rhf"
			},
			{
				"type": "unocc",
				"energy": 0.03151,
				"method": "rhf"
			},
			{
				"type": "unocc",
				"energy": 0.04692,
				"method": "rhf"
			},
			{
				"type": "unocc",
				"energy": 0.06167,
				"method": "rhf"
			}
		],
		"cosmo_sigma_profile": { 
			"-0.025": 0.0,
			"-0.024": 0.0,
			"-0.023": 0.0,
			"-0.022": 0.0,
			"-0.021": 0.0,
			"-0.02": 0.0,
			"-0.019": 0.602036664461,
			"-0.018": 1.53878119699,
			"-0.017": 1.10202169617,
			"-0.016": 0.93931435619,
			"-0.015": 0.69985307752,
			"-0.014": 1.54890660961,
			"-0.013": 0.900754464824,
			"-0.012": 1.05558841892,
			"-0.011": 1.15321018315,
			"-0.01": 1.1492424483,
			"-0.009": 1.71028961455,
			"-0.008": 4.02130766667,
			"-0.007": 5.09043205807,
			"-0.006": 6.73118352302,
			"-0.005": 7.34498818125,
			"-0.004": 7.61640075737,
			"-0.003": 6.48437339536,
			"-0.002": 9.7650229804,
			"-0.001": 16.5397306568,
			"0.0": 14.8426549107,
			"0.001": 11.6294565149,
			"0.002": 11.6913295687,
			"0.003": 11.4601671812,
			"0.004": 10.2660130722,
			"0.005": 4.71681005914,
			"0.006": 4.00372085267,
			"0.007": 3.63724656082,
			"0.008": 4.36267664953,
			"0.009": 3.98933766181,
			"0.01": 5.67350814587,
			"0.011": 4.7628441301,
			"0.012": 2.78836593159,
			"0.013": 0.260148865207,
			"0.014": 0.0,
			"0.015": 0.0,
			"0.016": 0.0,
			"0.017": 0.0,
			"0.018": 0.0,
			"0.019": 0.0,
			"0.02": 0.0,
			"0.021": 0.0,
			"0.022": 0.0,
			"0.023": 0.0,
			"0.024": 0.0,
			"0.025": 0.0
		}
	}
}
