{
	 "smiles": "CCOC1=C(C=C(CN2C(=O)C3=C(C=CC=C3)C2=O)C=C1)C(O)=O", 
	 "Tm": 446.15, 
	 "num_atms": 39, 
	 "gaussian": { 
		 "optdone": 1, 
		 "sigma_profile": "yes", 
		 "theory": "DFT", 
		 "functional": "B3LYP", 
		 "basiset": "6-31G**", 
		 "properties": { 
			 "R2extent": 10413.1511, 
			 "electric_dipole_moment_norm": 7.06737969052, 
			 "electric_quadrupole_moment_norm": 37.0375769301, 
			 "total_energy": -1125.87562919, 
			 "HOMO_LUMO_gap": 0.15634, 
			 "cosmo_polarized_energy": -22.03, 
			 "cosmo_cavitation_energy": 44.57, 
			 "cosmo_dispersion_energy": -30.96, 
			 "cosmo_repulsion_energy": 2.32, 
			 "cosmo_total_nonelectrostatic_energy": 15.92, 
			 "SMD_solvation_energy": 9.7 
		},
		"coords": [
			{
				"x": 5.7263938202,
				"y": -3.0767453519,
				"z": 0.3774805602,
				"element": "C" 
			},
			{
				"x": 4.3710260412,
				"y": -2.7103947151,
				"z": 0.9537081772,
				"element": "C" 
			},
			{
				"x": 3.9798322477,
				"y": -1.4528076523,
				"z": 0.3814804306,
				"element": "O" 
			},
			{
				"x": 2.7818149559,
				"y": -0.876902729,
				"z": 0.7285776148,
				"element": "C" 
			},
			{
				"x": 2.4603172895,
				"y": 0.3617482419,
				"z": 0.1282912414,
				"element": "C" 
			},
			{
				"x": 1.2440275866,
				"y": 0.9662930926,
				"z": 0.4679876941,
				"element": "C" 
			},
			{
				"x": 0.3557395847,
				"y": 0.3905382673,
				"z": 1.3764832195,
				"element": "C" 
			},
			{
				"x": -0.9548600963,
				"y": 1.0707671536,
				"z": 1.721873179,
				"element": "C" 
			},
			{
				"x": -2.0912859992,
				"y": 0.5783511553,
				"z": 0.9433267629,
				"element": "N" 
			},
			{
				"x": -2.834794904,
				"y": -0.5612182402,
				"z": 1.2777192249,
				"element": "C" 
			},
			{
				"x": -2.638613222,
				"y": -1.2690317469,
				"z": 2.2486219551,
				"element": "O" 
			},
			{
				"x": -3.8764034312,
				"y": -0.6885134655,
				"z": 0.214858901,
				"element": "C" 
			},
			{
				"x": -3.706017313,
				"y": 0.360080711,
				"z": -0.6925690598,
				"element": "C" 
			},
			{
				"x": -4.5331652639,
				"y": 0.5064165729,
				"z": -1.7963023241,
				"element": "C" 
			},
			{
				"x": -5.5504261587,
				"y": -0.4421159355,
				"z": -1.9692880935,
				"element": "C" 
			},
			{
				"x": -5.7216186843,
				"y": -1.4933634959,
				"z": -1.0594791781,
				"element": "C" 
			},
			{
				"x": -4.8809090185,
				"y": -1.6314241276,
				"z": 0.053397224,
				"element": "C" 
			},
			{
				"x": -2.5535513786,
				"y": 1.1927216366,
				"z": -0.2347838362,
				"element": "C" 
			},
			{
				"x": -2.0853265167,
				"y": 2.1975489826,
				"z": -0.7301543661,
				"element": "O" 
			},
			{
				"x": 0.6978412541,
				"y": -0.8364104468,
				"z": 1.9556878866,
				"element": "C" 
			},
			{
				"x": 1.8979032537,
				"y": -1.4687319818,
				"z": 1.6372005764,
				"element": "C" 
			},
			{
				"x": 3.3209048465,
				"y": 1.114008936,
				"z": -0.8593972828,
				"element": "C" 
			},
			{
				"x": 4.4922333891,
				"y": 0.5595341579,
				"z": -1.2256316006,
				"element": "O" 
			},
			{
				"x": 2.9785943382,
				"y": 2.183582416,
				"z": -1.3149102146,
				"element": "O" 
			},
			{
				"x": 6.4730521361,
				"y": -2.3168495571,
				"z": 0.6245920527,
				"element": "H" 
			},
			{
				"x": 6.0580053893,
				"y": -4.0327827934,
				"z": 0.7932101656,
				"element": "H" 
			},
			{
				"x": 5.6736955546,
				"y": -3.1748272746,
				"z": -0.710481324,
				"element": "H" 
			},
			{
				"x": 4.4179616868,
				"y": -2.6107235576,
				"z": 2.0452563975,
				"element": "H" 
			},
			{
				"x": 3.6173049126,
				"y": -3.4687482448,
				"z": 0.7078381195,
				"element": "H" 
			},
			{
				"x": 1.01522196,
				"y": 1.9126706852,
				"z": -0.0119423962,
				"element": "H" 
			},
			{
				"x": -0.8903586248,
				"y": 2.1435116154,
				"z": 1.5279347507,
				"element": "H" 
			},
			{
				"x": -1.199780854,
				"y": 0.915603843,
				"z": 2.7759130142,
				"element": "H" 
			},
			{
				"x": -4.39130876,
				"y": 1.3252579924,
				"z": -2.4941420307,
				"element": "H" 
			},
			{
				"x": -6.2180333355,
				"y": -0.3625629265,
				"z": -2.8220123531,
				"element": "H" 
			},
			{
				"x": -6.5195144687,
				"y": -2.2120294463,
				"z": -1.2210371558,
				"element": "H" 
			},
			{
				"x": -5.004978828,
				"y": -2.4413046673,
				"z": 0.7650110684,
				"element": "H" 
			},
			{
				"x": 0.0121919207,
				"y": -1.3086015836,
				"z": 2.6531472893,
				"element": "H" 
			},
			{
				"x": 2.1364435207,
				"y": -2.4171392949,
				"z": 2.102029082,
				"element": "H" 
			},
			{
				"x": 4.6103411693,
				"y": -0.290506225,
				"z": -0.7622953721,
				"element": "H" 
			}
		],
		 "valence_orbital": [ 
			{
				"type": "occ",
				"energy": -0.26995,
				"method": "rhf"
			},
			{
				"type": "occ",
				"energy": -0.26922,
				"method": "rhf"
			},
			{
				"type": "occ",
				"energy": -0.26253,
				"method": "rhf"
			},
			{
				"type": "occ",
				"energy": -0.25728,
				"method": "rhf"
			},
			{
				"type": "occ",
				"energy": -0.2398,
				"method": "rhf"
			},
			{
				"type": "unocc",
				"energy": -0.08346,
				"method": "rhf"
			},
			{
				"type": "unocc",
				"energy": -0.04364,
				"method": "rhf"
			},
			{
				"type": "unocc",
				"energy": -0.04175,
				"method": "rhf"
			},
			{
				"type": "unocc",
				"energy": -0.00831,
				"method": "rhf"
			},
			{
				"type": "unocc",
				"energy": 0.02653,
				"method": "rhf"
			}
		],
		"cosmo_sigma_profile": { 
			"-0.025": 0.0,
			"-0.024": 0.0,
			"-0.023": 0.0,
			"-0.022": 0.0,
			"-0.021": 0.0,
			"-0.02": 0.0,
			"-0.019": 0.0,
			"-0.018": 0.0,
			"-0.017": 0.0,
			"-0.016": 0.0,
			"-0.015": 0.0,
			"-0.014": 0.0,
			"-0.013": 0.0,
			"-0.012": 0.0,
			"-0.011": 0.0,
			"-0.01": 0.0,
			"-0.009": 0.0,
			"-0.008": 2.81562137867,
			"-0.007": 13.3736537951,
			"-0.006": 24.0921685336,
			"-0.005": 31.1660063878,
			"-0.004": 34.6896361462,
			"-0.003": 30.4975395807,
			"-0.002": 24.2118896668,
			"-0.001": 29.1544236839,
			"0.0": 28.7912857852,
			"0.001": 27.0448199356,
			"0.002": 29.1699895438,
			"0.003": 16.0231962659,
			"0.004": 5.83888048635,
			"0.005": 4.77304782316,
			"0.006": 5.27235972911,
			"0.007": 4.4538170864,
			"0.008": 6.10295439629,
			"0.009": 6.48842543214,
			"0.01": 8.10305735994,
			"0.011": 12.3357615702,
			"0.012": 8.65884080341,
			"0.013": 3.07734194513,
			"0.014": 0.734602620535,
			"0.015": 0.0,
			"0.016": 0.0,
			"0.017": 0.0,
			"0.018": 0.0,
			"0.019": 0.0,
			"0.02": 0.0,
			"0.021": 0.0,
			"0.022": 0.0,
			"0.023": 0.0,
			"0.024": 0.0,
			"0.025": 0.0
		}
	}
}
