{
	 "smiles": "CC(C)=CCNC(N)=N", 
	 "Tm": 335.65, 
	 "num_atms": 22, 
	 "gaussian": { 
		 "optdone": 1, 
		 "sigma_profile": "yes", 
		 "theory": "DFT", 
		 "functional": "B3LYP", 
		 "basiset": "6-31G**", 
		 "properties": { 
			 "R2extent": 2010.9943, 
			 "electric_dipole_moment_norm": 3.15352193428, 
			 "electric_quadrupole_moment_norm": 11.7186658084, 
			 "total_energy": -400.717559089, 
			 "HOMO_LUMO_gap": 0.23699, 
			 "cosmo_polarized_energy": -12.86, 
			 "cosmo_cavitation_energy": 24.97, 
			 "cosmo_dispersion_energy": -17.97, 
			 "cosmo_repulsion_energy": 1.51, 
			 "cosmo_total_nonelectrostatic_energy": 8.51, 
			 "SMD_solvation_energy": 2.73 
		},
		"coords": [
			{
				"x": -0.2230989707,
				"y": -0.8440930573,
				"z": 2.7937135903,
				"element": "C" 
			},
			{
				"x": 0.0266983836,
				"y": 0.2515847117,
				"z": 1.7845987467,
				"element": "C" 
			},
			{
				"x": -0.5267819934,
				"y": 1.5993095172,
				"z": 2.180157661,
				"element": "C" 
			},
			{
				"x": 0.7005853508,
				"y": -0.0036903166,
				"z": 0.6520589813,
				"element": "C" 
			},
			{
				"x": 1.030929638,
				"y": 0.9511445911,
				"z": -0.4685021584,
				"element": "C" 
			},
			{
				"x": 0.6188276549,
				"y": 0.4692044805,
				"z": -1.7872613914,
				"element": "N" 
			},
			{
				"x": 1.3598121752,
				"y": -0.5035534385,
				"z": -2.4627907759,
				"element": "C" 
			},
			{
				"x": 0.6824126604,
				"y": -0.9665723,
				"z": -3.5978479688,
				"element": "N" 
			},
			{
				"x": 2.5171715883,
				"y": -0.9808360456,
				"z": -2.1802882319,
				"element": "N" 
			},
			{
				"x": -1.2988116998,
				"y": -0.9816087926,
				"z": 2.9663503543,
				"element": "H" 
			},
			{
				"x": 0.1954151059,
				"y": -1.8007561415,
				"z": 2.4703489076,
				"element": "H" 
			},
			{
				"x": 0.2168476667,
				"y": -0.5908317572,
				"z": 3.7673966201,
				"element": "H" 
			},
			{
				"x": -1.5979330328,
				"y": 1.5232041879,
				"z": 2.407254912,
				"element": "H" 
			},
			{
				"x": -0.0420187974,
				"y": 1.9597638767,
				"z": 3.0968535157,
				"element": "H" 
			},
			{
				"x": -0.3985574751,
				"y": 2.3680741115,
				"z": 1.4158290249,
				"element": "H" 
			},
			{
				"x": 1.0516288231,
				"y": -1.0221547662,
				"z": 0.4862702055,
				"element": "H" 
			},
			{
				"x": 0.5690303994,
				"y": 1.9298165106,
				"z": -0.3142153866,
				"element": "H" 
			},
			{
				"x": 2.111843578,
				"y": 1.1337358494,
				"z": -0.5180000409,
				"element": "H" 
			},
			{
				"x": -0.3802254347,
				"y": 0.3218389774,
				"z": -1.8700455312,
				"element": "H" 
			},
			{
				"x": 0.2720812318,
				"y": -0.2281555651,
				"z": -4.1577471343,
				"element": "H" 
			},
			{
				"x": 1.288136455,
				"y": -1.5639561851,
				"z": -4.1467735545,
				"element": "H" 
			},
			{
				"x": 2.8450066928,
				"y": -0.6679684483,
				"z": -1.2683603455,
				"element": "H" 
			}
		],
		 "valence_orbital": [ 
			{
				"type": "occ",
				"energy": -0.33787,
				"method": "rhf"
			},
			{
				"type": "occ",
				"energy": -0.25728,
				"method": "rhf"
			},
			{
				"type": "occ",
				"energy": -0.24894,
				"method": "rhf"
			},
			{
				"type": "occ",
				"energy": -0.24119,
				"method": "rhf"
			},
			{
				"type": "occ",
				"energy": -0.21751,
				"method": "rhf"
			},
			{
				"type": "unocc",
				"energy": 0.01948,
				"method": "rhf"
			},
			{
				"type": "unocc",
				"energy": 0.06423,
				"method": "rhf"
			},
			{
				"type": "unocc",
				"energy": 0.08215,
				"method": "rhf"
			},
			{
				"type": "unocc",
				"energy": 0.09638,
				"method": "rhf"
			},
			{
				"type": "unocc",
				"energy": 0.111,
				"method": "rhf"
			}
		],
		"cosmo_sigma_profile": { 
			"-0.025": 0.0,
			"-0.024": 0.0,
			"-0.023": 0.0,
			"-0.022": 0.0,
			"-0.021": 0.0,
			"-0.02": 0.0,
			"-0.019": 0.0,
			"-0.018": 0.0,
			"-0.017": 0.0,
			"-0.016": 0.0,
			"-0.015": 0.0,
			"-0.014": 0.0,
			"-0.013": 0.334747649213,
			"-0.012": 2.02506024182,
			"-0.011": 3.8484999735,
			"-0.01": 2.05945609948,
			"-0.009": 4.05922742158,
			"-0.008": 5.31558042925,
			"-0.007": 3.85392482645,
			"-0.006": 5.59319114314,
			"-0.005": 7.03804675824,
			"-0.004": 11.4482820775,
			"-0.003": 19.3467835593,
			"-0.002": 20.0981870651,
			"-0.001": 17.6561844232,
			"0.0": 21.6881558908,
			"0.001": 15.3817101627,
			"0.002": 8.15884196224,
			"0.003": 6.65710301135,
			"0.004": 5.83601789957,
			"0.005": 4.38589867623,
			"0.006": 5.12326054027,
			"0.007": 3.11936375828,
			"0.008": 2.20288924238,
			"0.009": 2.62673487538,
			"0.01": 2.3923064509,
			"0.011": 2.20397156234,
			"0.012": 2.18809614967,
			"0.013": 1.44439309492,
			"0.014": 1.71385651029,
			"0.015": 1.29677000676,
			"0.016": 1.78188178779,
			"0.017": 0.952304354463,
			"0.018": 1.17729408949,
			"0.019": 1.17126265143,
			"0.02": 0.292462256074,
			"0.021": 0.0,
			"0.022": 0.0,
			"0.023": 0.0,
			"0.024": 0.0,
			"0.025": 0.0
		}
	}
}
