{
	 "smiles": "CC1=CC(CC(O)=O)=C(C)S1", 
	 "Tm": 340.15, 
	 "num_atms": 21, 
	 "gaussian": { 
		 "optdone": 1, 
		 "sigma_profile": "yes", 
		 "theory": "DFT", 
		 "functional": "B3LYP", 
		 "basiset": "6-31G**", 
		 "properties": { 
			 "R2extent": 2330.9188, 
			 "electric_dipole_moment_norm": 1.70296685229, 
			 "electric_quadrupole_moment_norm": 4.68992974361, 
			 "total_energy": -859.52886656, 
			 "HOMO_LUMO_gap": 0.20395, 
			 "cosmo_polarized_energy": -9.46, 
			 "cosmo_cavitation_energy": 26.46, 
			 "cosmo_dispersion_energy": -19.29, 
			 "cosmo_repulsion_energy": 1.53, 
			 "cosmo_total_nonelectrostatic_energy": 8.7, 
			 "SMD_solvation_energy": 5.46 
		},
		"coords": [
			{
				"x": -3.532232018,
				"y": -0.2217323409,
				"z": -1.150430578,
				"element": "C" 
			},
			{
				"x": -2.2075196061,
				"y": 0.0609355147,
				"z": -0.5076160214,
				"element": "C" 
			},
			{
				"x": -1.2747799711,
				"y": 0.9973647997,
				"z": -0.8531045107,
				"element": "C" 
			},
			{
				"x": -0.1087177832,
				"y": 1.0037202539,
				"z": -0.0174837595,
				"element": "C" 
			},
			{
				"x": 1.0495628075,
				"y": 1.9627051952,
				"z": -0.2216284865,
				"element": "C" 
			},
			{
				"x": 2.1824693479,
				"y": 1.2967905057,
				"z": -0.9816960457,
				"element": "C" 
			},
			{
				"x": 1.9940394005,
				"y": 1.3507599551,
				"z": -2.3210618866,
				"element": "O" 
			},
			{
				"x": 3.1386292998,
				"y": 0.7466602363,
				"z": -0.4783514457,
				"element": "O" 
			},
			{
				"x": -0.1507628149,
				"y": 0.0473119083,
				"z": 0.9676338182,
				"element": "C" 
			},
			{
				"x": 0.8619760868,
				"y": -0.2518819745,
				"z": 2.0361161905,
				"element": "C" 
			},
			{
				"x": -1.6472999337,
				"y": -0.8532517276,
				"z": 0.8748468449,
				"element": "S" 
			},
			{
				"x": -3.6832773372,
				"y": 0.4548553275,
				"z": -1.9963340181,
				"element": "H" 
			},
			{
				"x": -4.3662091189,
				"y": -0.0782688046,
				"z": -0.4536917669,
				"element": "H" 
			},
			{
				"x": -3.5944844556,
				"y": -1.2489135998,
				"z": -1.5279512243,
				"element": "H" 
			},
			{
				"x": -1.4071968893,
				"y": 1.6772239463,
				"z": -1.6890288101,
				"element": "H" 
			},
			{
				"x": 1.4562619634,
				"y": 2.2979079445,
				"z": 0.7348991493,
				"element": "H" 
			},
			{
				"x": 0.7090969225,
				"y": 2.8388399036,
				"z": -0.7800895422,
				"element": "H" 
			},
			{
				"x": 2.7324696965,
				"y": 0.8586457499,
				"z": -2.7184387864,
				"element": "H" 
			},
			{
				"x": 1.8634350771,
				"y": 0.0262966375,
				"z": 1.698558412,
				"element": "H" 
			},
			{
				"x": 0.8812556152,
				"y": -1.3180492684,
				"z": 2.281395249,
				"element": "H" 
			},
			{
				"x": 0.6457837108,
				"y": 0.2922798378,
				"z": 2.9646572182,
				"element": "H" 
			}
		],
		 "valence_orbital": [ 
			{
				"type": "occ",
				"energy": -0.32835,
				"method": "rhf"
			},
			{
				"type": "occ",
				"energy": -0.31798,
				"method": "rhf"
			},
			{
				"type": "occ",
				"energy": -0.27905,
				"method": "rhf"
			},
			{
				"type": "occ",
				"energy": -0.24041,
				"method": "rhf"
			},
			{
				"type": "occ",
				"energy": -0.21358,
				"method": "rhf"
			},
			{
				"type": "unocc",
				"energy": -0.00963,
				"method": "rhf"
			},
			{
				"type": "unocc",
				"energy": 0.0086,
				"method": "rhf"
			},
			{
				"type": "unocc",
				"energy": 0.02957,
				"method": "rhf"
			},
			{
				"type": "unocc",
				"energy": 0.07242,
				"method": "rhf"
			},
			{
				"type": "unocc",
				"energy": 0.07864,
				"method": "rhf"
			}
		],
		"cosmo_sigma_profile": { 
			"-0.025": 0.0,
			"-0.024": 0.0,
			"-0.023": 0.0,
			"-0.022": 0.0,
			"-0.021": 0.0,
			"-0.02": 0.0,
			"-0.019": 0.0,
			"-0.018": 0.648513291137,
			"-0.017": 0.874341046035,
			"-0.016": 0.905566940191,
			"-0.015": 1.32143734659,
			"-0.014": 0.430445681712,
			"-0.013": 0.447459160547,
			"-0.012": 0.284057816932,
			"-0.011": 1.36995152243,
			"-0.01": 0.75253730457,
			"-0.009": 0.527727289531,
			"-0.008": 0.442917276036,
			"-0.007": 1.05414671949,
			"-0.006": 6.01061230765,
			"-0.005": 12.5374950678,
			"-0.004": 20.5675374321,
			"-0.003": 18.6154925054,
			"-0.002": 20.7593689459,
			"-0.001": 21.7188992412,
			"0.0": 15.3089439518,
			"0.001": 9.77506244634,
			"0.002": 12.0138947934,
			"0.003": 11.2106389633,
			"0.004": 12.9651516546,
			"0.005": 15.9326665195,
			"0.006": 7.18425431336,
			"0.007": 2.01949783871,
			"0.008": 3.13962425613,
			"0.009": 3.06504180568,
			"0.01": 1.86180399613,
			"0.011": 3.65928017702,
			"0.012": 3.60323566669,
			"0.013": 0.054329438924,
			"0.014": 0.0,
			"0.015": 0.0,
			"0.016": 0.0,
			"0.017": 0.0,
			"0.018": 0.0,
			"0.019": 0.0,
			"0.02": 0.0,
			"0.021": 0.0,
			"0.022": 0.0,
			"0.023": 0.0,
			"0.024": 0.0,
			"0.025": 0.0
		}
	}
}
