{
	 "smiles": "O=C1NC2=C3C1=CC=CC3=CC=C2", 
	 "Tm": 449.15, 
	 "num_atms": 20, 
	 "gaussian": { 
		 "optdone": 1, 
		 "sigma_profile": "yes", 
		 "theory": "DFT", 
		 "functional": "B3LYP", 
		 "basiset": "6-31G**", 
		 "properties": { 
			 "R2extent": 2051.7257, 
			 "electric_dipole_moment_norm": 3.16490090998, 
			 "electric_quadrupole_moment_norm": 13.0899756214, 
			 "total_energy": -553.388261045, 
			 "HOMO_LUMO_gap": 0.14298, 
			 "cosmo_polarized_energy": -11.1, 
			 "cosmo_cavitation_energy": 24.07, 
			 "cosmo_dispersion_energy": -18.26, 
			 "cosmo_repulsion_energy": 1.41, 
			 "cosmo_total_nonelectrostatic_energy": 7.22, 
			 "SMD_solvation_energy": 4.27 
		},
		"coords": [
			{
				"x": -1.3335062012,
				"y": 1.7127702671,
				"z": -2.5523533401,
				"element": "O" 
			},
			{
				"x": -0.7644376546,
				"y": 1.331399145,
				"z": -1.5469404979,
				"element": "C" 
			},
			{
				"x": -0.7418915358,
				"y": 2.0200977332,
				"z": -0.3142555527,
				"element": "N" 
			},
			{
				"x": -0.0063935204,
				"y": 1.3329124373,
				"z": 0.6553840619,
				"element": "C" 
			},
			{
				"x": 0.4693532201,
				"y": 0.1528564397,
				"z": 0.0353528312,
				"element": "C" 
			},
			{
				"x": 0.0442347739,
				"y": 0.0934565862,
				"z": -1.298953099,
				"element": "C" 
			},
			{
				"x": 0.40771427,
				"y": -0.9873338552,
				"z": -2.0759785662,
				"element": "C" 
			},
			{
				"x": 1.2047564506,
				"y": -1.9934959212,
				"z": -1.4684435502,
				"element": "C" 
			},
			{
				"x": 1.6196693873,
				"y": -1.9219271779,
				"z": -0.1431724415,
				"element": "C" 
			},
			{
				"x": 1.2553121965,
				"y": -0.8161348869,
				"z": 0.6738389337,
				"element": "C" 
			},
			{
				"x": 1.5763802262,
				"y": -0.5591784702,
				"z": 2.0415661082,
				"element": "C" 
			},
			{
				"x": 1.1106314684,
				"y": 0.5940382596,
				"z": 2.6451306834,
				"element": "C" 
			},
			{
				"x": 0.3094034117,
				"y": 1.5695790422,
				"z": 1.9734939462,
				"element": "C" 
			},
			{
				"x": -1.2155097124,
				"y": 2.9020297717,
				"z": -0.1937036857,
				"element": "H" 
			},
			{
				"x": 0.100215647,
				"y": -1.0731354232,
				"z": -3.1135303056,
				"element": "H" 
			},
			{
				"x": 1.5011969829,
				"y": -2.8522868904,
				"z": -2.0637439555,
				"element": "H" 
			},
			{
				"x": 2.2291276552,
				"y": -2.7208243432,
				"z": 0.2713380907,
				"element": "H" 
			},
			{
				"x": 2.1817867916,
				"y": -1.2641806244,
				"z": 2.6035020558,
				"element": "H" 
			},
			{
				"x": 1.3612009474,
				"y": 0.7788483908,
				"z": 3.6859238132,
				"element": "H" 
			},
			{
				"x": -0.0254448045,
				"y": 2.4554095197,
				"z": 2.5037444699,
				"element": "H" 
			}
		],
		 "valence_orbital": [ 
			{
				"type": "occ",
				"energy": -0.31108,
				"method": "rhf"
			},
			{
				"type": "occ",
				"energy": -0.26522,
				"method": "rhf"
			},
			{
				"type": "occ",
				"energy": -0.25952,
				"method": "rhf"
			},
			{
				"type": "occ",
				"energy": -0.25433,
				"method": "rhf"
			},
			{
				"type": "occ",
				"energy": -0.21287,
				"method": "rhf"
			},
			{
				"type": "unocc",
				"energy": -0.06989,
				"method": "rhf"
			},
			{
				"type": "unocc",
				"energy": -0.01804,
				"method": "rhf"
			},
			{
				"type": "unocc",
				"energy": 0.02523,
				"method": "rhf"
			},
			{
				"type": "unocc",
				"energy": 0.05061,
				"method": "rhf"
			},
			{
				"type": "unocc",
				"energy": 0.08911,
				"method": "rhf"
			}
		],
		"cosmo_sigma_profile": { 
			"-0.025": 0.0,
			"-0.024": 0.0,
			"-0.023": 0.0,
			"-0.022": 0.0,
			"-0.021": 0.0,
			"-0.02": 0.0,
			"-0.019": 0.0,
			"-0.018": 0.0,
			"-0.017": 0.0,
			"-0.016": 0.267311412063,
			"-0.015": 1.38174865732,
			"-0.014": 1.2702298515,
			"-0.013": 0.974897812092,
			"-0.012": 1.32376810126,
			"-0.011": 0.94600405424,
			"-0.01": 0.608881048079,
			"-0.009": 1.24835426254,
			"-0.008": 1.08204785719,
			"-0.007": 6.1589601184,
			"-0.006": 13.7470725452,
			"-0.005": 14.5118393965,
			"-0.004": 12.0216042615,
			"-0.003": 10.020756898,
			"-0.002": 8.58580486636,
			"-0.001": 11.5753104573,
			"0.0": 13.70816315,
			"0.001": 15.364893573,
			"0.002": 18.6450450863,
			"0.003": 22.9496744958,
			"0.004": 12.8777575553,
			"0.005": 5.12124985106,
			"0.006": 1.25068147348,
			"0.007": 1.94713219757,
			"0.008": 0.778135500718,
			"0.009": 1.85228018487,
			"0.01": 1.37101239179,
			"0.011": 1.87094330011,
			"0.012": 4.78194342765,
			"0.013": 5.21225799324,
			"0.014": 0.697594298585,
			"0.015": 0.0,
			"0.016": 0.0,
			"0.017": 0.0,
			"0.018": 0.0,
			"0.019": 0.0,
			"0.02": 0.0,
			"0.021": 0.0,
			"0.022": 0.0,
			"0.023": 0.0,
			"0.024": 0.0,
			"0.025": 0.0
		}
	}
}
