{
	 "smiles": "CC(C)(C)OC(=O)NCC1=CNN=C1", 
	 "Tm": 378.15, 
	 "num_atms": 29, 
	 "gaussian": { 
		 "optdone": 1, 
		 "sigma_profile": "yes", 
		 "theory": "DFT", 
		 "functional": "B3LYP", 
		 "basiset": "6-31G**", 
		 "properties": { 
			 "R2extent": 4094.9348, 
			 "electric_dipole_moment_norm": 3.37351290201, 
			 "electric_quadrupole_moment_norm": 27.5430422337, 
			 "total_energy": -666.711243003, 
			 "HOMO_LUMO_gap": 0.25689, 
			 "cosmo_polarized_energy": -16.39, 
			 "cosmo_cavitation_energy": 32.2, 
			 "cosmo_dispersion_energy": -22.07, 
			 "cosmo_repulsion_energy": 1.75, 
			 "cosmo_total_nonelectrostatic_energy": 11.88, 
			 "SMD_solvation_energy": 5.41 
		},
		"coords": [
			{
				"x": -1.05594905,
				"y": -0.6832092046,
				"z": 2.0688603679,
				"element": "C" 
			},
			{
				"x": -0.0392850353,
				"y": 0.2984568192,
				"z": 1.4764880537,
				"element": "C" 
			},
			{
				"x": -0.4747093346,
				"y": 1.7577677285,
				"z": 1.6478443379,
				"element": "C" 
			},
			{
				"x": 1.3497606284,
				"y": 0.0730946538,
				"z": 2.0794442826,
				"element": "C" 
			},
			{
				"x": 0.1777777782,
				"y": 0.0021124017,
				"z": 0.0506742214,
				"element": "O" 
			},
			{
				"x": -0.8341290871,
				"y": 0.1250961058,
				"z": -0.8442149043,
				"element": "C" 
			},
			{
				"x": -1.9939240795,
				"y": 0.4042740058,
				"z": -0.5847366702,
				"element": "O" 
			},
			{
				"x": -0.387764043,
				"y": -0.0818905487,
				"z": -2.1243198727,
				"element": "N" 
			},
			{
				"x": 0.9175447984,
				"y": -0.6200727862,
				"z": -2.5074509176,
				"element": "C" 
			},
			{
				"x": 0.9737201545,
				"y": -2.1212633094,
				"z": -2.6015740954,
				"element": "C" 
			},
			{
				"x": 1.097030157,
				"y": -2.8954216828,
				"z": -3.7420902837,
				"element": "C" 
			},
			{
				"x": 1.0919100569,
				"y": -4.1909964878,
				"z": -3.3325294494,
				"element": "N" 
			},
			{
				"x": 0.9712930365,
				"y": -4.3243301543,
				"z": -1.9940233909,
				"element": "N" 
			},
			{
				"x": 0.8994334319,
				"y": -3.0721556047,
				"z": -1.5501348327,
				"element": "C" 
			},
			{
				"x": -1.1330039785,
				"y": -0.5242048097,
				"z": 3.1494952669,
				"element": "H" 
			},
			{
				"x": -0.731957046,
				"y": -1.7155157217,
				"z": 1.9014847734,
				"element": "H" 
			},
			{
				"x": -2.0386107866,
				"y": -0.543727188,
				"z": 1.6185538889,
				"element": "H" 
			},
			{
				"x": 0.2514803425,
				"y": 2.4286113997,
				"z": 1.1776530488,
				"element": "H" 
			},
			{
				"x": -1.4546442572,
				"y": 1.9270119418,
				"z": 1.2012762914,
				"element": "H" 
			},
			{
				"x": -0.5231523535,
				"y": 2.003354991,
				"z": 2.7137186831,
				"element": "H" 
			},
			{
				"x": 1.6804334786,
				"y": -0.9572918859,
				"z": 1.9185133264,
				"element": "H" 
			},
			{
				"x": 2.0830102472,
				"y": 0.7457828746,
				"z": 1.624827159,
				"element": "H" 
			},
			{
				"x": 1.3265396829,
				"y": 0.2635071793,
				"z": 3.1565514166,
				"element": "H" 
			},
			{
				"x": -1.1471454159,
				"y": -0.169235234,
				"z": -2.7845108836,
				"element": "H" 
			},
			{
				"x": 1.6392718735,
				"y": -0.2540590993,
				"z": -1.7754636162,
				"element": "H" 
			},
			{
				"x": 1.1896278096,
				"y": -0.1808473424,
				"z": -3.4734745967,
				"element": "H" 
			},
			{
				"x": 1.1908448558,
				"y": -2.6242948638,
				"z": -4.7843222261,
				"element": "H" 
			},
			{
				"x": 1.1702229755,
				"y": -5.0197616658,
				"z": -3.9006402019,
				"element": "H" 
			},
			{
				"x": 0.7954731598,
				"y": -2.8797925123,
				"z": -0.4908991767,
				"element": "H" 
			}
		],
		 "valence_orbital": [ 
			{
				"type": "occ",
				"energy": -0.28524,
				"method": "rhf"
			},
			{
				"type": "occ",
				"energy": -0.26281,
				"method": "rhf"
			},
			{
				"type": "occ",
				"energy": -0.25674,
				"method": "rhf"
			},
			{
				"type": "occ",
				"energy": -0.25139,
				"method": "rhf"
			},
			{
				"type": "occ",
				"energy": -0.23915,
				"method": "rhf"
			},
			{
				"type": "unocc",
				"energy": 0.01774,
				"method": "rhf"
			},
			{
				"type": "unocc",
				"energy": 0.0474,
				"method": "rhf"
			},
			{
				"type": "unocc",
				"energy": 0.06985,
				"method": "rhf"
			},
			{
				"type": "unocc",
				"energy": 0.0746,
				"method": "rhf"
			},
			{
				"type": "unocc",
				"energy": 0.08354,
				"method": "rhf"
			}
		],
		"cosmo_sigma_profile": { 
			"-0.025": 0.0,
			"-0.024": 0.0,
			"-0.023": 0.0,
			"-0.022": 0.0,
			"-0.021": 0.0,
			"-0.02": 0.0,
			"-0.019": 0.0,
			"-0.018": 0.0,
			"-0.017": 0.313736107771,
			"-0.016": 1.65003210341,
			"-0.015": 1.41126880557,
			"-0.014": 1.60681723044,
			"-0.013": 1.76315271312,
			"-0.012": 1.3488356851,
			"-0.011": 2.66539362911,
			"-0.01": 1.93251210695,
			"-0.009": 3.18719483262,
			"-0.008": 4.23847374467,
			"-0.007": 3.17302112609,
			"-0.006": 7.08330370597,
			"-0.005": 7.02093722007,
			"-0.004": 17.1158186154,
			"-0.003": 23.1034078965,
			"-0.002": 19.9630753905,
			"-0.001": 21.725795768,
			"0.0": 31.5603369822,
			"0.001": 25.1602160296,
			"0.002": 10.9045284681,
			"0.003": 9.91365915145,
			"0.004": 11.2009496262,
			"0.005": 10.2478290177,
			"0.006": 4.29354818608,
			"0.007": 4.93838402582,
			"0.008": 3.18527055622,
			"0.009": 3.09648663259,
			"0.01": 3.092885285,
			"0.011": 1.92435191602,
			"0.012": 2.42266587339,
			"0.013": 5.06564039109,
			"0.014": 3.93112425644,
			"0.015": 1.08549095087,
			"0.016": 0.96157278384,
			"0.017": 0.181592352167,
			"0.018": 0.0,
			"0.019": 0.0,
			"0.02": 0.0,
			"0.021": 0.0,
			"0.022": 0.0,
			"0.023": 0.0,
			"0.024": 0.0,
			"0.025": 0.0
		}
	}
}
