{
	 "smiles": "CC1=C(C=CC=C1)C1CC1C(O)=O", 
	 "Tm": 338.15, 
	 "num_atms": 25, 
	 "gaussian": { 
		 "optdone": 1, 
		 "sigma_profile": "yes", 
		 "theory": "DFT", 
		 "functional": "B3LYP", 
		 "basiset": "6-31G**", 
		 "properties": { 
			 "R2extent": 3306.9446, 
			 "electric_dipole_moment_norm": 4.02092040956, 
			 "electric_quadrupole_moment_norm": 11.4158665352, 
			 "total_energy": -576.841290027, 
			 "HOMO_LUMO_gap": 0.22457, 
			 "cosmo_polarized_energy": -14.91, 
			 "cosmo_cavitation_energy": 28.43, 
			 "cosmo_dispersion_energy": -20.02, 
			 "cosmo_repulsion_energy": 1.57, 
			 "cosmo_total_nonelectrostatic_energy": 9.99, 
			 "SMD_solvation_energy": 5.6 
		},
		"coords": [
			{
				"x": 2.9944557627,
				"y": 0.0537681374,
				"z": 0.88535086,
				"element": "C" 
			},
			{
				"x": 2.0812810704,
				"y": -0.3298281404,
				"z": 2.0258614874,
				"element": "C" 
			},
			{
				"x": 0.8321004501,
				"y": -0.9475946441,
				"z": 1.7841968491,
				"element": "C" 
			},
			{
				"x": 0.021810446,
				"y": -1.3003482879,
				"z": 2.8695994201,
				"element": "C" 
			},
			{
				"x": 0.4163513178,
				"y": -1.0403495502,
				"z": 4.1828653611,
				"element": "C" 
			},
			{
				"x": 1.6420609811,
				"y": -0.4232464676,
				"z": 4.4228755959,
				"element": "C" 
			},
			{
				"x": 2.4625555725,
				"y": -0.0767388128,
				"z": 3.3478440074,
				"element": "C" 
			},
			{
				"x": 0.4088605542,
				"y": -1.2369210766,
				"z": 0.3776135502,
				"element": "C" 
			},
			{
				"x": -1.0144757165,
				"y": -1.3867250255,
				"z": -0.0398472127,
				"element": "C" 
			},
			{
				"x": -0.2613237309,
				"y": -0.1396947211,
				"z": -0.4661228124,
				"element": "C" 
			},
			{
				"x": 0.1625322613,
				"y": -0.0400814435,
				"z": -1.8931605526,
				"element": "C" 
			},
			{
				"x": 0.2665951872,
				"y": 1.2180607952,
				"z": -2.4023494507,
				"element": "O" 
			},
			{
				"x": 0.4259532551,
				"y": -0.9962247455,
				"z": -2.5850299543,
				"element": "O" 
			},
			{
				"x": 3.2994695771,
				"y": -0.8198719554,
				"z": 0.2969264731,
				"element": "H" 
			},
			{
				"x": 2.5073068274,
				"y": 0.743654172,
				"z": 0.1865750905,
				"element": "H" 
			},
			{
				"x": 3.9021772388,
				"y": 0.53710531,
				"z": 1.2556439234,
				"element": "H" 
			},
			{
				"x": -0.9249881614,
				"y": -1.7990182162,
				"z": 2.6848935866,
				"element": "H" 
			},
			{
				"x": -0.2283616482,
				"y": -1.324816956,
				"z": 5.0094110355,
				"element": "H" 
			},
			{
				"x": 1.9630626425,
				"y": -0.2150496986,
				"z": 5.439534515,
				"element": "H" 
			},
			{
				"x": 3.421071072,
				"y": 0.4006289514,
				"z": 3.5362585663,
				"element": "H" 
			},
			{
				"x": 1.111469884,
				"y": -1.8219561262,
				"z": -0.2130681683,
				"element": "H" 
			},
			{
				"x": -1.2310536614,
				"y": -2.0992128698,
				"z": -0.828640857,
				"element": "H" 
			},
			{
				"x": -1.8013482657,
				"y": -1.2454726681,
				"z": 0.6937230009,
				"element": "H" 
			},
			{
				"x": -0.5082869759,
				"y": 0.7803041224,
				"z": 0.0585949035,
				"element": "H" 
			},
			{
				"x": 0.0142240597,
				"y": 1.8702299171,
				"z": -1.734149218,
				"element": "H" 
			}
		],
		 "valence_orbital": [ 
			{
				"type": "occ",
				"energy": -0.31252,
				"method": "rhf"
			},
			{
				"type": "occ",
				"energy": -0.30189,
				"method": "rhf"
			},
			{
				"type": "occ",
				"energy": -0.27326,
				"method": "rhf"
			},
			{
				"type": "occ",
				"energy": -0.2487,
				"method": "rhf"
			},
			{
				"type": "occ",
				"energy": -0.23933,
				"method": "rhf"
			},
			{
				"type": "unocc",
				"energy": -0.01476,
				"method": "rhf"
			},
			{
				"type": "unocc",
				"energy": -0.00224,
				"method": "rhf"
			},
			{
				"type": "unocc",
				"energy": 0.01518,
				"method": "rhf"
			},
			{
				"type": "unocc",
				"energy": 0.0508,
				"method": "rhf"
			},
			{
				"type": "unocc",
				"energy": 0.09181,
				"method": "rhf"
			}
		],
		"cosmo_sigma_profile": { 
			"-0.025": 0.0,
			"-0.024": 0.0,
			"-0.023": 0.0,
			"-0.022": 0.0,
			"-0.021": 0.0,
			"-0.02": 0.0,
			"-0.019": 0.392018713825,
			"-0.018": 1.49618721084,
			"-0.017": 0.91331767456,
			"-0.016": 1.30374361934,
			"-0.015": 0.808779816264,
			"-0.014": 1.3014450112,
			"-0.013": 0.808242031498,
			"-0.012": 1.02493204733,
			"-0.011": 1.02623512782,
			"-0.01": 0.782051100623,
			"-0.009": 1.27859028055,
			"-0.008": 1.0797648227,
			"-0.007": 2.44249322462,
			"-0.006": 6.35479232116,
			"-0.005": 16.6583575857,
			"-0.004": 19.2250106245,
			"-0.003": 20.031186241,
			"-0.002": 19.1315551823,
			"-0.001": 18.4978198375,
			"0.0": 17.6553603985,
			"0.001": 14.8396138117,
			"0.002": 11.8562947897,
			"0.003": 10.2652624546,
			"0.004": 8.82566081112,
			"0.005": 10.0324831683,
			"0.006": 9.73569671086,
			"0.007": 4.27937146959,
			"0.008": 2.45125787968,
			"0.009": 2.97275705353,
			"0.01": 3.91768219037,
			"0.011": 4.79202144031,
			"0.012": 5.10483111416,
			"0.013": 3.24720144489,
			"0.014": 0.449644500413,
			"0.015": 0.0,
			"0.016": 0.0,
			"0.017": 0.0,
			"0.018": 0.0,
			"0.019": 0.0,
			"0.02": 0.0,
			"0.021": 0.0,
			"0.022": 0.0,
			"0.023": 0.0,
			"0.024": 0.0,
			"0.025": 0.0
		}
	}
}
