{
	 "smiles": "NNC(=N)NN(=O)=O", 
	 "Tm": 458.15, 
	 "num_atms": 13, 
	 "gaussian": { 
		 "optdone": 1, 
		 "sigma_profile": "yes", 
		 "theory": "DFT", 
		 "functional": "B3LYP", 
		 "basiset": "6-31G**", 
		 "properties": { 
			 "R2extent": 1527.3542, 
			 "electric_dipole_moment_norm": 7.9862000407, 
			 "electric_quadrupole_moment_norm": 11.8676427103, 
			 "total_energy": -465.151012247, 
			 "HOMO_LUMO_gap": 0.20394, 
			 "cosmo_polarized_energy": -23.02, 
			 "cosmo_cavitation_energy": 18.26, 
			 "cosmo_dispersion_energy": -13.73, 
			 "cosmo_repulsion_energy": 1.21, 
			 "cosmo_total_nonelectrostatic_energy": 5.74, 
			 "SMD_solvation_energy": 5.84 
		},
		"coords": [
			{
				"x": -2.136156148,
				"y": -0.8927143069,
				"z": 0.2784361988,
				"element": "N" 
			},
			{
				"x": -0.9344727126,
				"y": -0.2218375948,
				"z": 0.5822366503,
				"element": "N" 
			},
			{
				"x": -0.1173337795,
				"y": 0.2369258857,
				"z": -0.4737362921,
				"element": "C" 
			},
			{
				"x": 1.0752168025,
				"y": 0.663523411,
				"z": -0.359379386,
				"element": "N" 
			},
			{
				"x": -0.8063542763,
				"y": 0.1648264752,
				"z": -1.6921632342,
				"element": "N" 
			},
			{
				"x": -0.6071540493,
				"y": 0.9998094654,
				"z": -2.7935922423,
				"element": "N" 
			},
			{
				"x": 0.435188761,
				"y": 1.6144666195,
				"z": -2.8959757138,
				"element": "O" 
			},
			{
				"x": -1.5505397412,
				"y": 0.9867718664,
				"z": -3.5857242178,
				"element": "O" 
			},
			{
				"x": -2.8709115626,
				"y": -0.566993885,
				"z": 0.8985853263,
				"element": "H" 
			},
			{
				"x": -2.0430900086,
				"y": -1.9032860727,
				"z": 0.363789303,
				"element": "H" 
			},
			{
				"x": -0.3995764029,
				"y": -0.5707601411,
				"z": 1.3703614281,
				"element": "H" 
			},
			{
				"x": 1.3666226078,
				"y": 0.6522243428,
				"z": 0.6195151603,
				"element": "H" 
			},
			{
				"x": -1.7699394902,
				"y": -0.1513560656,
				"z": -1.6393529805,
				"element": "H" 
			}
		],
		 "valence_orbital": [ 
			{
				"type": "occ",
				"energy": -0.3046,
				"method": "rhf"
			},
			{
				"type": "occ",
				"energy": -0.29917,
				"method": "rhf"
			},
			{
				"type": "occ",
				"energy": -0.28622,
				"method": "rhf"
			},
			{
				"type": "occ",
				"energy": -0.27049,
				"method": "rhf"
			},
			{
				"type": "occ",
				"energy": -0.25118,
				"method": "rhf"
			},
			{
				"type": "unocc",
				"energy": -0.04724,
				"method": "rhf"
			},
			{
				"type": "unocc",
				"energy": 0.03305,
				"method": "rhf"
			},
			{
				"type": "unocc",
				"energy": 0.04338,
				"method": "rhf"
			},
			{
				"type": "unocc",
				"energy": 0.07009,
				"method": "rhf"
			},
			{
				"type": "unocc",
				"energy": 0.10709,
				"method": "rhf"
			}
		],
		"cosmo_sigma_profile": { 
			"-0.025": 0.0,
			"-0.024": 0.0,
			"-0.023": 0.0,
			"-0.022": 0.0,
			"-0.021": 0.0,
			"-0.02": 0.0,
			"-0.019": 0.0,
			"-0.018": 0.0,
			"-0.017": 0.0,
			"-0.016": 0.0,
			"-0.015": 0.92716732583,
			"-0.014": 2.69364586361,
			"-0.013": 3.65446301322,
			"-0.012": 6.22722416101,
			"-0.011": 5.41516650506,
			"-0.01": 5.67423276749,
			"-0.009": 4.3187984206,
			"-0.008": 6.28466800055,
			"-0.007": 4.47656680631,
			"-0.006": 4.0994342538,
			"-0.005": 4.54075733216,
			"-0.004": 4.44544548121,
			"-0.003": 5.85479315933,
			"-0.002": 5.81679158908,
			"-0.001": 5.10783040933,
			"0.0": 4.89402948375,
			"0.001": 4.60763260601,
			"0.002": 4.43181346127,
			"0.003": 4.66888928269,
			"0.004": 5.10331085172,
			"0.005": 3.86472444096,
			"0.006": 5.68564239075,
			"0.007": 7.93520274345,
			"0.008": 12.5424960615,
			"0.009": 6.18490029318,
			"0.01": 2.78575785817,
			"0.011": 2.19156734975,
			"0.012": 1.21133062013,
			"0.013": 0.945314467072,
			"0.014": 1.9095111388,
			"0.015": 1.26756334481,
			"0.016": 1.46513477013,
			"0.017": 0.937307176231,
			"0.018": 1.25196848674,
			"0.019": 0.442424909266,
			"0.02": 0.0,
			"0.021": 0.0,
			"0.022": 0.0,
			"0.023": 0.0,
			"0.024": 0.0,
			"0.025": 0.0
		}
	}
}
