{
	 "smiles": "O=C1C=CC(=O)C2C3CC(C=C3)C12", 
	 "Tm": 348.35, 
	 "num_atms": 23, 
	 "gaussian": { 
		 "optdone": 1, 
		 "sigma_profile": "yes", 
		 "theory": "DFT", 
		 "functional": "B3LYP", 
		 "basiset": "6-31G**", 
		 "properties": { 
			 "R2extent": 1922.7107, 
			 "electric_dipole_moment_norm": 0.704702816796, 
			 "electric_quadrupole_moment_norm": 13.880233132, 
			 "total_energy": -575.581030807, 
			 "HOMO_LUMO_gap": 0.15615, 
			 "cosmo_polarized_energy": -10.58, 
			 "cosmo_cavitation_energy": 25.15, 
			 "cosmo_dispersion_energy": -18.44, 
			 "cosmo_repulsion_energy": 1.44, 
			 "cosmo_total_nonelectrostatic_energy": 8.15, 
			 "SMD_solvation_energy": 4.85 
		},
		"coords": [
			{
				"x": -0.3772806454,
				"y": 3.1560037028,
				"z": 1.1445119862,
				"element": "O" 
			},
			{
				"x": -0.1061357653,
				"y": 2.2506078213,
				"z": 0.3681852528,
				"element": "C" 
			},
			{
				"x": -0.6621172376,
				"y": 2.2585769547,
				"z": -1.0065675958,
				"element": "C" 
			},
			{
				"x": -0.4429819321,
				"y": 1.2745877056,
				"z": -1.8972393851,
				"element": "C" 
			},
			{
				"x": 0.3781552778,
				"y": 0.0759622922,
				"z": -1.6001985081,
				"element": "C" 
			},
			{
				"x": 0.5044270398,
				"y": -0.8042380633,
				"z": -2.4399827189,
				"element": "O" 
			},
			{
				"x": 1.0556010966,
				"y": -0.034346873,
				"z": -0.2449092102,
				"element": "C" 
			},
			{
				"x": 0.6087976487,
				"y": -1.3290116642,
				"z": 0.5479218474,
				"element": "C" 
			},
			{
				"x": 1.106654278,
				"y": -0.9548970126,
				"z": 1.9627438655,
				"element": "C" 
			},
			{
				"x": 0.2401431356,
				"y": 0.3226726258,
				"z": 2.0432262799,
				"element": "C" 
			},
			{
				"x": -1.1148248071,
				"y": -0.2417510979,
				"z": 1.6399644385,
				"element": "C" 
			},
			{
				"x": -0.8959340821,
				"y": -1.2224780873,
				"z": 0.7520522229,
				"element": "C" 
			},
			{
				"x": 0.8010920711,
				"y": 1.1067791674,
				"z": 0.7882667351,
				"element": "C" 
			},
			{
				"x": -1.2807103116,
				"y": 3.1197080744,
				"z": -1.2475981376,
				"element": "H" 
			},
			{
				"x": -0.875521367,
				"y": 1.3002178307,
				"z": -2.894514107,
				"element": "H" 
			},
			{
				"x": 2.1279903656,
				"y": -0.1198826765,
				"z": -0.4560140625,
				"element": "H" 
			},
			{
				"x": 0.9766866014,
				"y": -2.2496736442,
				"z": 0.0954012608,
				"element": "H" 
			},
			{
				"x": 0.8273811829,
				"y": -1.6978309048,
				"z": 2.7145102241,
				"element": "H" 
			},
			{
				"x": 2.1843173244,
				"y": -0.7621227812,
				"z": 2.0155488878,
				"element": "H" 
			},
			{
				"x": 0.2707826292,
				"y": 0.9131268257,
				"z": 2.9587392315,
				"element": "H" 
			},
			{
				"x": -2.0703940626,
				"y": 0.1658063565,
				"z": 1.9506841567,
				"element": "H" 
			},
			{
				"x": -1.6360700616,
				"y": -1.7801103447,
				"z": 0.1890183565,
				"element": "H" 
			},
			{
				"x": 1.7504416214,
				"y": 1.5727937926,
				"z": 1.0771489793,
				"element": "H" 
			}
		],
		 "valence_orbital": [ 
			{
				"type": "occ",
				"energy": -0.31861,
				"method": "rhf"
			},
			{
				"type": "occ",
				"energy": -0.29637,
				"method": "rhf"
			},
			{
				"type": "occ",
				"energy": -0.26052,
				"method": "rhf"
			},
			{
				"type": "occ",
				"energy": -0.25202,
				"method": "rhf"
			},
			{
				"type": "occ",
				"energy": -0.25136,
				"method": "rhf"
			},
			{
				"type": "unocc",
				"energy": -0.09521,
				"method": "rhf"
			},
			{
				"type": "unocc",
				"energy": -0.01219,
				"method": "rhf"
			},
			{
				"type": "unocc",
				"energy": 0.00328,
				"method": "rhf"
			},
			{
				"type": "unocc",
				"energy": 0.07776,
				"method": "rhf"
			},
			{
				"type": "unocc",
				"energy": 0.08304,
				"method": "rhf"
			}
		],
		"cosmo_sigma_profile": { 
			"-0.025": 0.0,
			"-0.024": 0.0,
			"-0.023": 0.0,
			"-0.022": 0.0,
			"-0.021": 0.0,
			"-0.02": 0.0,
			"-0.019": 0.0,
			"-0.018": 0.0,
			"-0.017": 0.0,
			"-0.016": 0.0,
			"-0.015": 0.0,
			"-0.014": 0.0,
			"-0.013": 0.0,
			"-0.012": 0.0,
			"-0.011": 0.0,
			"-0.01": 0.0,
			"-0.009": 0.0289822184115,
			"-0.008": 2.72001001784,
			"-0.007": 4.84016225283,
			"-0.006": 16.0152435301,
			"-0.005": 16.6469861357,
			"-0.004": 17.3557361295,
			"-0.003": 16.7431114437,
			"-0.002": 20.9416584949,
			"-0.001": 20.1823897309,
			"0.0": 17.7768282843,
			"0.001": 10.5739393545,
			"0.002": 7.45877973415,
			"0.003": 3.53775292193,
			"0.004": 5.7559285914,
			"0.005": 3.82309128119,
			"0.006": 3.84255280218,
			"0.007": 2.8960355187,
			"0.008": 2.6363687379,
			"0.009": 3.21959224544,
			"0.01": 4.8832995805,
			"0.011": 6.96553386736,
			"0.012": 7.84433147353,
			"0.013": 2.14339560107,
			"0.014": 0.0,
			"0.015": 0.0,
			"0.016": 0.0,
			"0.017": 0.0,
			"0.018": 0.0,
			"0.019": 0.0,
			"0.02": 0.0,
			"0.021": 0.0,
			"0.022": 0.0,
			"0.023": 0.0,
			"0.024": 0.0,
			"0.025": 0.0
		}
	}
}
