{
	 "smiles": "CC(C)(C)OC(=O)N(CC(O)=O)C1=CC=CC=C1", 
	 "Tm": 358.15, 
	 "num_atms": 35, 
	 "gaussian": { 
		 "optdone": 1, 
		 "sigma_profile": "yes", 
		 "theory": "DFT", 
		 "functional": "B3LYP", 
		 "basiset": "6-31G**", 
		 "properties": { 
			 "R2extent": 5236.8734, 
			 "electric_dipole_moment_norm": 3.23506100252, 
			 "electric_quadrupole_moment_norm": 9.50736665066, 
			 "total_energy": -861.320133827, 
			 "HOMO_LUMO_gap": 0.22455, 
			 "cosmo_polarized_energy": -14.61, 
			 "cosmo_cavitation_energy": 38.42, 
			 "cosmo_dispersion_energy": -25.21, 
			 "cosmo_repulsion_energy": 2.0, 
			 "cosmo_total_nonelectrostatic_energy": 15.21, 
			 "SMD_solvation_energy": 8.98 
		},
		"coords": [
			{
				"x": 2.6833282652,
				"y": -1.5141693573,
				"z": -3.1705034562,
				"element": "C" 
			},
			{
				"x": 1.4232117248,
				"y": -2.2441853769,
				"z": -2.6987863125,
				"element": "C" 
			},
			{
				"x": 1.7724077427,
				"y": -3.6232283438,
				"z": -2.1297024784,
				"element": "C" 
			},
			{
				"x": 0.3865643746,
				"y": -2.32428348,
				"z": -3.8242369772,
				"element": "C" 
			},
			{
				"x": 0.9329224283,
				"y": -1.3637276891,
				"z": -1.6239707354,
				"element": "O" 
			},
			{
				"x": -0.1854775717,
				"y": -1.6659879034,
				"z": -0.9381341652,
				"element": "C" 
			},
			{
				"x": -0.8945218832,
				"y": -2.6466666241,
				"z": -1.1063229325,
				"element": "O" 
			},
			{
				"x": -0.4658107992,
				"y": -0.6876688206,
				"z": 0.0001037981,
				"element": "N" 
			},
			{
				"x": -1.6233255196,
				"y": -0.8920471096,
				"z": 0.8517351869,
				"element": "C" 
			},
			{
				"x": -1.3514512762,
				"y": -1.5061839238,
				"z": 2.2209940908,
				"element": "C" 
			},
			{
				"x": -0.1552980634,
				"y": -2.1280661418,
				"z": 2.3054363779,
				"element": "O" 
			},
			{
				"x": -2.1452797028,
				"y": -1.4683099835,
				"z": 3.1336769485,
				"element": "O" 
			},
			{
				"x": 0.3865241637,
				"y": 0.4408666075,
				"z": 0.2527336291,
				"element": "C" 
			},
			{
				"x": -0.0581217608,
				"y": 1.7233725723,
				"z": -0.0832804357,
				"element": "C" 
			},
			{
				"x": 0.7381008719,
				"y": 2.834874113,
				"z": 0.1959437025,
				"element": "C" 
			},
			{
				"x": 1.9844947684,
				"y": 2.6682434525,
				"z": 0.8019566734,
				"element": "C" 
			},
			{
				"x": 2.4294277811,
				"y": 1.3862896373,
				"z": 1.1333596081,
				"element": "C" 
			},
			{
				"x": 1.6315809263,
				"y": 0.2737764002,
				"z": 0.8678687988,
				"element": "C" 
			},
			{
				"x": 3.4015838329,
				"y": -1.4154658731,
				"z": -2.3516023818,
				"element": "H" 
			},
			{
				"x": 2.4360693586,
				"y": -0.5122809123,
				"z": -3.5327114774,
				"element": "H" 
			},
			{
				"x": 3.1572424804,
				"y": -2.0715983639,
				"z": -3.9839240916,
				"element": "H" 
			},
			{
				"x": 2.2425545537,
				"y": -4.2321975883,
				"z": -2.9087055113,
				"element": "H" 
			},
			{
				"x": 0.8800213516,
				"y": -4.1364018476,
				"z": -1.7710008123,
				"element": "H" 
			},
			{
				"x": 2.4822687401,
				"y": -3.523979861,
				"z": -1.3023503295,
				"element": "H" 
			},
			{
				"x": 0.1295689877,
				"y": -1.3199339063,
				"z": -4.1755393147,
				"element": "H" 
			},
			{
				"x": 0.8049271242,
				"y": -2.8821208615,
				"z": -4.6683600683,
				"element": "H" 
			},
			{
				"x": -0.5207719331,
				"y": -2.8249434853,
				"z": -3.485808238,
				"element": "H" 
			},
			{
				"x": -2.1431113633,
				"y": 0.0528904346,
				"z": 1.0272401337,
				"element": "H" 
			},
			{
				"x": -2.3093466772,
				"y": -1.5689372739,
				"z": 0.3348414967,
				"element": "H" 
			},
			{
				"x": -0.1137339061,
				"y": -2.503215987,
				"z": 3.2013786186,
				"element": "H" 
			},
			{
				"x": -1.0220533376,
				"y": 1.8423021182,
				"z": -0.5695940743,
				"element": "H" 
			},
			{
				"x": 0.38736432,
				"y": 3.8284293219,
				"z": -0.0676045386,
				"element": "H" 
			},
			{
				"x": 2.606114581,
				"y": 3.5328239965,
				"z": 1.0155653047,
				"element": "H" 
			},
			{
				"x": 3.3974410377,
				"y": 1.2522681398,
				"z": 1.607635643,
				"element": "H" 
			},
			{
				"x": 1.9575843792,
				"y": -0.7250360796,
				"z": 1.13476832,
				"element": "H" 
			}
		],
		 "valence_orbital": [ 
			{
				"type": "occ",
				"energy": -0.28705,
				"method": "rhf"
			},
			{
				"type": "occ",
				"energy": -0.27656,
				"method": "rhf"
			},
			{
				"type": "occ",
				"energy": -0.25771,
				"method": "rhf"
			},
			{
				"type": "occ",
				"energy": -0.25446,
				"method": "rhf"
			},
			{
				"type": "occ",
				"energy": -0.23653,
				"method": "rhf"
			},
			{
				"type": "unocc",
				"energy": -0.01198,
				"method": "rhf"
			},
			{
				"type": "unocc",
				"energy": -0.00785,
				"method": "rhf"
			},
			{
				"type": "unocc",
				"energy": 0.00855,
				"method": "rhf"
			},
			{
				"type": "unocc",
				"energy": 0.05157,
				"method": "rhf"
			},
			{
				"type": "unocc",
				"energy": 0.07187,
				"method": "rhf"
			}
		],
		"cosmo_sigma_profile": { 
			"-0.025": 0.0,
			"-0.024": 0.0,
			"-0.023": 0.0,
			"-0.022": 0.0,
			"-0.021": 0.0,
			"-0.02": 0.0,
			"-0.019": 0.0705518856082,
			"-0.018": 0.82222045428,
			"-0.017": 1.3724128516,
			"-0.016": 0.452255897513,
			"-0.015": 0.772533244264,
			"-0.014": 0.50341921166,
			"-0.013": 0.87983414696,
			"-0.012": 0.782317155406,
			"-0.011": 1.186493528,
			"-0.01": 0.371937941494,
			"-0.009": 0.537238751371,
			"-0.008": 1.36304730472,
			"-0.007": 4.49180601356,
			"-0.006": 12.1986119697,
			"-0.005": 15.6577943025,
			"-0.004": 27.3247942206,
			"-0.003": 28.1296321696,
			"-0.002": 24.7074494825,
			"-0.001": 27.1964290677,
			"0.0": 34.479465142,
			"0.001": 24.4179526079,
			"0.002": 15.1148294344,
			"0.003": 13.4535293976,
			"0.004": 12.6488379206,
			"0.005": 13.5335039351,
			"0.006": 8.00817153286,
			"0.007": 6.46161560283,
			"0.008": 3.75903129379,
			"0.009": 3.96891992715,
			"0.01": 3.86120311008,
			"0.011": 5.62886699074,
			"0.012": 6.64624258819,
			"0.013": 1.7118131477,
			"0.014": 0.0,
			"0.015": 0.0,
			"0.016": 0.0,
			"0.017": 0.0,
			"0.018": 0.0,
			"0.019": 0.0,
			"0.02": 0.0,
			"0.021": 0.0,
			"0.022": 0.0,
			"0.023": 0.0,
			"0.024": 0.0,
			"0.025": 0.0
		}
	}
}
