{
	 "smiles": "COC(=O)C1=CC=C(OC)C=C1", 
	 "Tm": 322.65, 
	 "num_atms": 22, 
	 "gaussian": { 
		 "optdone": 1, 
		 "sigma_profile": "yes", 
		 "theory": "DFT", 
		 "functional": "B3LYP", 
		 "basiset": "6-31G**", 
		 "properties": { 
			 "R2extent": 2964.7083, 
			 "electric_dipole_moment_norm": 3.4633115179, 
			 "electric_quadrupole_moment_norm": 7.81904937125, 
			 "total_energy": -574.657128609, 
			 "HOMO_LUMO_gap": 0.19492, 
			 "cosmo_polarized_energy": -9.4, 
			 "cosmo_cavitation_energy": 26.33, 
			 "cosmo_dispersion_energy": -19.47, 
			 "cosmo_repulsion_energy": 1.55, 
			 "cosmo_total_nonelectrostatic_energy": 8.4, 
			 "SMD_solvation_energy": 6.96 
		},
		"coords": [
			{
				"x": 0.4703826057,
				"y": -3.3932256854,
				"z": 2.3967649763,
				"element": "C" 
			},
			{
				"x": -0.1484700396,
				"y": -2.2838560182,
				"z": 1.7312781091,
				"element": "O" 
			},
			{
				"x": 0.4854275988,
				"y": -1.8602507525,
				"z": 0.6089729523,
				"element": "C" 
			},
			{
				"x": 1.5044291997,
				"y": -2.3801203611,
				"z": 0.1933398228,
				"element": "O" 
			},
			{
				"x": -0.2002927318,
				"y": -0.7125910607,
				"z": -0.0337482326,
				"element": "C" 
			},
			{
				"x": -1.3719622899,
				"y": -0.1449449975,
				"z": 0.4790801602,
				"element": "C" 
			},
			{
				"x": -1.9824803416,
				"y": 0.9339241577,
				"z": -0.1589644726,
				"element": "C" 
			},
			{
				"x": -1.4151615224,
				"y": 1.4571675095,
				"z": -1.3298373636,
				"element": "C" 
			},
			{
				"x": -1.9244375174,
				"y": 2.5040548924,
				"z": -2.032237983,
				"element": "O" 
			},
			{
				"x": -3.1137807787,
				"y": 3.1228313957,
				"z": -1.5624141031,
				"element": "C" 
			},
			{
				"x": -0.2379618496,
				"y": 0.8918595542,
				"z": -1.8507530792,
				"element": "C" 
			},
			{
				"x": 0.3588792336,
				"y": -0.1792421782,
				"z": -1.2081397936,
				"element": "C" 
			},
			{
				"x": -0.1556202516,
				"y": -3.60351787,
				"z": 3.2642780677,
				"element": "H" 
			},
			{
				"x": 0.5161321502,
				"y": -4.2637535835,
				"z": 1.7372014328,
				"element": "H" 
			},
			{
				"x": 1.486346288,
				"y": -3.1389608951,
				"z": 2.7099899928,
				"element": "H" 
			},
			{
				"x": -1.8091204092,
				"y": -0.550674726,
				"z": 1.3843313217,
				"element": "H" 
			},
			{
				"x": -2.8890509829,
				"y": 1.3555077514,
				"z": 0.2581307274,
				"element": "H" 
			},
			{
				"x": -2.9776925708,
				"y": 3.5512027168,
				"z": -0.5615107641,
				"element": "H" 
			},
			{
				"x": -3.9542731261,
				"y": 2.4178809234,
				"z": -1.5412555094,
				"element": "H" 
			},
			{
				"x": -3.3343675315,
				"y": 3.9239128284,
				"z": -2.2691645207,
				"element": "H" 
			},
			{
				"x": 0.1809473106,
				"y": 1.3148690024,
				"z": -2.7577207563,
				"element": "H" 
			},
			{
				"x": 1.2672275564,
				"y": -0.6260726036,
				"z": -1.5979209851,
				"element": "H" 
			}
		],
		 "valence_orbital": [ 
			{
				"type": "occ",
				"energy": -0.32247,
				"method": "rhf"
			},
			{
				"type": "occ",
				"energy": -0.29451,
				"method": "rhf"
			},
			{
				"type": "occ",
				"energy": -0.26593,
				"method": "rhf"
			},
			{
				"type": "occ",
				"energy": -0.25768,
				"method": "rhf"
			},
			{
				"type": "occ",
				"energy": -0.22771,
				"method": "rhf"
			},
			{
				"type": "unocc",
				"energy": -0.03279,
				"method": "rhf"
			},
			{
				"type": "unocc",
				"energy": -0.0056,
				"method": "rhf"
			},
			{
				"type": "unocc",
				"energy": 0.06965,
				"method": "rhf"
			},
			{
				"type": "unocc",
				"energy": 0.09019,
				"method": "rhf"
			},
			{
				"type": "unocc",
				"energy": 0.10272,
				"method": "rhf"
			}
		],
		"cosmo_sigma_profile": { 
			"-0.025": 0.0,
			"-0.024": 0.0,
			"-0.023": 0.0,
			"-0.022": 0.0,
			"-0.021": 0.0,
			"-0.02": 0.0,
			"-0.019": 0.0,
			"-0.018": 0.0,
			"-0.017": 0.0,
			"-0.016": 0.0,
			"-0.015": 0.0,
			"-0.014": 0.0,
			"-0.013": 0.0,
			"-0.012": 0.0,
			"-0.011": 0.0,
			"-0.01": 0.0,
			"-0.009": 0.0,
			"-0.008": 0.0,
			"-0.007": 2.84659671009,
			"-0.006": 15.823728701,
			"-0.005": 20.2090391291,
			"-0.004": 22.6394091246,
			"-0.003": 20.9578773629,
			"-0.002": 12.7735190603,
			"-0.001": 12.0967516004,
			"0.0": 10.5095164899,
			"0.001": 13.1436266317,
			"0.002": 16.8293092295,
			"0.003": 16.7666825411,
			"0.004": 14.851102304,
			"0.005": 6.00400769436,
			"0.006": 4.67305185828,
			"0.007": 2.45204862465,
			"0.008": 3.07880778911,
			"0.009": 3.90982199694,
			"0.01": 1.97691041575,
			"0.011": 1.80421475175,
			"0.012": 4.97363256819,
			"0.013": 1.27601310853,
			"0.014": 0.0,
			"0.015": 0.0,
			"0.016": 0.0,
			"0.017": 0.0,
			"0.018": 0.0,
			"0.019": 0.0,
			"0.02": 0.0,
			"0.021": 0.0,
			"0.022": 0.0,
			"0.023": 0.0,
			"0.024": 0.0,
			"0.025": 0.0
		}
	}
}
