{
	 "smiles": "[O-][N+](=O)C1=CC(NC(=O)NCC#C)=CC=C1", 
	 "Tm": 447.15, 
	 "num_atms": 25, 
	 "gaussian": { 
		 "optdone": 1, 
		 "sigma_profile": "yes", 
		 "theory": "DFT", 
		 "functional": "B3LYP", 
		 "basiset": "6-31G**", 
		 "properties": { 
			 "R2extent": 4679.7544, 
			 "electric_dipole_moment_norm": 4.42109444029, 
			 "electric_quadrupole_moment_norm": 18.6683288874, 
			 "total_energy": -776.250720084, 
			 "HOMO_LUMO_gap": 0.15147, 
			 "cosmo_polarized_energy": -17.36, 
			 "cosmo_cavitation_energy": 31.75, 
			 "cosmo_dispersion_energy": -21.88, 
			 "cosmo_repulsion_energy": 1.71, 
			 "cosmo_total_nonelectrostatic_energy": 11.58, 
			 "SMD_solvation_energy": 9.55 
		},
		"coords": [
			{
				"x": 3.4731196901,
				"y": -0.1297739559,
				"z": 1.774036146,
				"element": "O" 
			},
			{
				"x": 3.0116757298,
				"y": -1.0098738017,
				"z": 1.0483387197,
				"element": "N" 
			},
			{
				"x": 3.6546907614,
				"y": -1.9557103272,
				"z": 0.5967951913,
				"element": "O" 
			},
			{
				"x": 1.5826744224,
				"y": -0.9255712526,
				"z": 0.6930267741,
				"element": "C" 
			},
			{
				"x": 0.8457628148,
				"y": 0.1458685273,
				"z": 1.182727186,
				"element": "C" 
			},
			{
				"x": -0.515400617,
				"y": 0.2429904726,
				"z": 0.8607451705,
				"element": "C" 
			},
			{
				"x": -1.23507048,
				"y": 1.3263639452,
				"z": 1.403944883,
				"element": "N" 
			},
			{
				"x": -2.5688846927,
				"y": 1.7105953063,
				"z": 1.2180485723,
				"element": "C" 
			},
			{
				"x": -3.223656597,
				"y": 2.1447193462,
				"z": 2.1532682247,
				"element": "O" 
			},
			{
				"x": -3.089329465,
				"y": 1.58555801,
				"z": -0.0620984531,
				"element": "N" 
			},
			{
				"x": -2.3337205422,
				"y": 1.9794641113,
				"z": -1.2649095499,
				"element": "C" 
			},
			{
				"x": -3.0953019182,
				"y": 1.674792205,
				"z": -2.4751871565,
				"element": "C" 
			},
			{
				"x": -3.732047485,
				"y": 1.4418765944,
				"z": -3.4732795557,
				"element": "C" 
			},
			{
				"x": -1.0961123963,
				"y": -0.7482077284,
				"z": 0.0492753133,
				"element": "C" 
			},
			{
				"x": -0.3209537546,
				"y": -1.8014252463,
				"z": -0.4378803961,
				"element": "C" 
			},
			{
				"x": 1.0314367422,
				"y": -1.9106872497,
				"z": -0.1226012984,
				"element": "C" 
			},
			{
				"x": 1.3356266368,
				"y": 0.8880433074,
				"z": 1.801631467,
				"element": "H" 
			},
			{
				"x": -0.9208648001,
				"y": 1.6279367167,
				"z": 2.3177376733,
				"element": "H" 
			},
			{
				"x": -4.0462109854,
				"y": 1.9202458715,
				"z": -0.065060716,
				"element": "H" 
			},
			{
				"x": -2.0878250386,
				"y": 3.0519958012,
				"z": -1.2477849953,
				"element": "H" 
			},
			{
				"x": -1.3847708401,
				"y": 1.4368269751,
				"z": -1.2882182473,
				"element": "H" 
			},
			{
				"x": -4.2895597763,
				"y": 1.2309626424,
				"z": -4.356764541,
				"element": "H" 
			},
			{
				"x": -2.1516473784,
				"y": -0.6934875829,
				"z": -0.1899435418,
				"element": "H" 
			},
			{
				"x": -0.7886498941,
				"y": -2.5551763916,
				"z": -1.0633402921,
				"element": "H" 
			},
			{
				"x": 1.6493198634,
				"y": -2.7223262963,
				"z": -0.4830065779,
				"element": "H" 
			}
		],
		 "valence_orbital": [ 
			{
				"type": "occ",
				"energy": -0.29381,
				"method": "rhf"
			},
			{
				"type": "occ",
				"energy": -0.28765,
				"method": "rhf"
			},
			{
				"type": "occ",
				"energy": -0.28358,
				"method": "rhf"
			},
			{
				"type": "occ",
				"energy": -0.26746,
				"method": "rhf"
			},
			{
				"type": "occ",
				"energy": -0.24519,
				"method": "rhf"
			},
			{
				"type": "unocc",
				"energy": -0.09372,
				"method": "rhf"
			},
			{
				"type": "unocc",
				"energy": -0.03413,
				"method": "rhf"
			},
			{
				"type": "unocc",
				"energy": -0.00956,
				"method": "rhf"
			},
			{
				"type": "unocc",
				"energy": 0.01757,
				"method": "rhf"
			},
			{
				"type": "unocc",
				"energy": 0.02968,
				"method": "rhf"
			}
		],
		"cosmo_sigma_profile": { 
			"-0.025": 0.0,
			"-0.024": 0.0,
			"-0.023": 0.0,
			"-0.022": 0.0,
			"-0.021": 0.0,
			"-0.02": 0.0,
			"-0.019": 0.0,
			"-0.018": 0.0,
			"-0.017": 0.0,
			"-0.016": 0.0612196698483,
			"-0.015": 0.785062711972,
			"-0.014": 1.60182976336,
			"-0.013": 1.56305794179,
			"-0.012": 2.97801719445,
			"-0.011": 3.98129470685,
			"-0.01": 3.05662641879,
			"-0.009": 2.41447826978,
			"-0.008": 5.70172537037,
			"-0.007": 10.8696958654,
			"-0.006": 15.4128463108,
			"-0.005": 14.7404891115,
			"-0.004": 13.8697838385,
			"-0.003": 13.6570732493,
			"-0.002": 14.6181687249,
			"-0.001": 17.7730399143,
			"0.0": 18.6184317149,
			"0.001": 18.6568327712,
			"0.002": 13.1404725392,
			"0.003": 9.72283772543,
			"0.004": 9.87139100654,
			"0.005": 10.657798269,
			"0.006": 11.1364437441,
			"0.007": 11.1585193819,
			"0.008": 7.79647247608,
			"0.009": 5.64212015547,
			"0.01": 3.97886975664,
			"0.011": 1.83582944368,
			"0.012": 2.95326708307,
			"0.013": 6.00298662063,
			"0.014": 1.14262093528,
			"0.015": 0.0,
			"0.016": 0.0,
			"0.017": 0.0,
			"0.018": 0.0,
			"0.019": 0.0,
			"0.02": 0.0,
			"0.021": 0.0,
			"0.022": 0.0,
			"0.023": 0.0,
			"0.024": 0.0,
			"0.025": 0.0
		}
	}
}
