{
	 "smiles": "COC1=CC(OC)=C(Cl)C=C1NC(=O)OCC(F)(F)F", 
	 "Tm": 361.15, 
	 "num_atms": 31, 
	 "gaussian": { 
		 "optdone": 1, 
		 "sigma_profile": "yes", 
		 "theory": "DFT", 
		 "functional": "B3LYP", 
		 "basiset": "6-31G**", 
		 "properties": { 
			 "R2extent": 9133.2631, 
			 "electric_dipole_moment_norm": 4.06377210237, 
			 "electric_quadrupole_moment_norm": 16.3063649784, 
			 "total_energy": -1541.15395702, 
			 "HOMO_LUMO_gap": 0.19576, 
			 "cosmo_polarized_energy": -12.99, 
			 "cosmo_cavitation_energy": 39.29, 
			 "cosmo_dispersion_energy": -26.93, 
			 "cosmo_repulsion_energy": 2.04, 
			 "cosmo_total_nonelectrostatic_energy": 14.4, 
			 "SMD_solvation_energy": 10.21 
		},
		"coords": [
			{
				"x": -2.871633595,
				"y": 0.1942708427,
				"z": 1.5676351194,
				"element": "C" 
			},
			{
				"x": -1.8773282971,
				"y": -0.4480741952,
				"z": 0.7810343647,
				"element": "O" 
			},
			{
				"x": -0.5762403356,
				"y": -0.0453094033,
				"z": 0.916446102,
				"element": "C" 
			},
			{
				"x": -0.1423612852,
				"y": 0.9522449448,
				"z": 1.7821866782,
				"element": "C" 
			},
			{
				"x": 1.2135249541,
				"y": 1.2990204968,
				"z": 1.8536118783,
				"element": "C" 
			},
			{
				"x": 1.6067802681,
				"y": 2.2426936927,
				"z": 2.7668541774,
				"element": "O" 
			},
			{
				"x": 1.7638706838,
				"y": 3.5650461264,
				"z": 2.2425295503,
				"element": "C" 
			},
			{
				"x": 2.1193052271,
				"y": 0.6311013662,
				"z": 1.026803519,
				"element": "C" 
			},
			{
				"x": 3.8278110523,
				"y": 1.0225545696,
				"z": 1.1002244063,
				"element": "Cl" 
			},
			{
				"x": 1.6954540448,
				"y": -0.3641895372,
				"z": 0.1425595358,
				"element": "C" 
			},
			{
				"x": 0.3485178194,
				"y": -0.7221615865,
				"z": 0.083313432,
				"element": "C" 
			},
			{
				"x": -0.2061676583,
				"y": -1.6933235876,
				"z": -0.7742284346,
				"element": "N" 
			},
			{
				"x": 0.343319871,
				"y": -2.6958528194,
				"z": -1.5232537122,
				"element": "C" 
			},
			{
				"x": -0.3082778044,
				"y": -3.4381885766,
				"z": -2.2307110908,
				"element": "O" 
			},
			{
				"x": 1.6979921706,
				"y": -2.7771500726,
				"z": -1.3594030044,
				"element": "O" 
			},
			{
				"x": 2.3834006706,
				"y": -3.6830257878,
				"z": -2.2152644547,
				"element": "C" 
			},
			{
				"x": 3.1755536119,
				"y": -2.8834884638,
				"z": -3.2343441998,
				"element": "C" 
			},
			{
				"x": 3.8855834083,
				"y": -3.7216708372,
				"z": -4.0164005501,
				"element": "F" 
			},
			{
				"x": 2.3679567486,
				"y": -2.1501764131,
				"z": -4.021844815,
				"element": "F" 
			},
			{
				"x": 4.0398754725,
				"y": -2.0387150912,
				"z": -2.6353343927,
				"element": "F" 
			},
			{
				"x": -2.6873230703,
				"y": 0.0486188889,
				"z": 2.63875687,
				"element": "H" 
			},
			{
				"x": -2.9206612074,
				"y": 1.2681669914,
				"z": 1.3500818512,
				"element": "H" 
			},
			{
				"x": -3.8185433156,
				"y": -0.2739949493,
				"z": 1.2967190284,
				"element": "H" 
			},
			{
				"x": -0.8288254161,
				"y": 1.4729246517,
				"z": 2.4378423846,
				"element": "H" 
			},
			{
				"x": 0.8186317208,
				"y": 3.9382996111,
				"z": 1.8275016219,
				"element": "H" 
			},
			{
				"x": 2.0637000366,
				"y": 4.1932250236,
				"z": 3.0833479884,
				"element": "H" 
			},
			{
				"x": 2.5386041716,
				"y": 3.6006803705,
				"z": 1.4690563801,
				"element": "H" 
			},
			{
				"x": 2.4192617916,
				"y": -0.8536855092,
				"z": -0.4915092899,
				"element": "H" 
			},
			{
				"x": -1.2170947282,
				"y": -1.699862889,
				"z": -0.8008351078,
				"element": "H" 
			},
			{
				"x": 3.0768018117,
				"y": -4.2669867866,
				"z": -1.60666413,
				"element": "H" 
			},
			{
				"x": 1.6773111777,
				"y": -4.3365910711,
				"z": -2.7298117059,
				"element": "H" 
			}
		],
		 "valence_orbital": [ 
			{
				"type": "occ",
				"energy": -0.29664,
				"method": "rhf"
			},
			{
				"type": "occ",
				"energy": -0.29336,
				"method": "rhf"
			},
			{
				"type": "occ",
				"energy": -0.28077,
				"method": "rhf"
			},
			{
				"type": "occ",
				"energy": -0.24704,
				"method": "rhf"
			},
			{
				"type": "occ",
				"energy": -0.2141,
				"method": "rhf"
			},
			{
				"type": "unocc",
				"energy": -0.01834,
				"method": "rhf"
			},
			{
				"type": "unocc",
				"energy": -0.00626,
				"method": "rhf"
			},
			{
				"type": "unocc",
				"energy": 0.03017,
				"method": "rhf"
			},
			{
				"type": "unocc",
				"energy": 0.0502,
				"method": "rhf"
			},
			{
				"type": "unocc",
				"energy": 0.07606,
				"method": "rhf"
			}
		],
		"cosmo_sigma_profile": { 
			"-0.025": 0.0,
			"-0.024": 0.0,
			"-0.023": 0.0,
			"-0.022": 0.0,
			"-0.021": 0.0,
			"-0.02": 0.0,
			"-0.019": 0.0,
			"-0.018": 0.0,
			"-0.017": 0.0,
			"-0.016": 0.0,
			"-0.015": 0.0,
			"-0.014": 0.0,
			"-0.013": 0.0,
			"-0.012": 0.253885781513,
			"-0.011": 0.663867357445,
			"-0.01": 0.810644447674,
			"-0.009": 3.98247894678,
			"-0.008": 4.98135811566,
			"-0.007": 8.10324634449,
			"-0.006": 15.2498102198,
			"-0.005": 16.761930845,
			"-0.004": 20.9407903467,
			"-0.003": 24.9645801357,
			"-0.002": 24.2392951242,
			"-0.001": 19.9230014118,
			"0.0": 22.0580173308,
			"0.001": 24.9154705515,
			"0.002": 48.8867330881,
			"0.003": 33.5664050092,
			"0.004": 11.8056239619,
			"0.005": 8.26995955469,
			"0.006": 3.1898690929,
			"0.007": 3.6688243679,
			"0.008": 2.64577344173,
			"0.009": 3.10873463729,
			"0.01": 2.78949777068,
			"0.011": 4.88969796477,
			"0.012": 4.642234954,
			"0.013": 0.398557911906,
			"0.014": 0.0,
			"0.015": 0.0,
			"0.016": 0.0,
			"0.017": 0.0,
			"0.018": 0.0,
			"0.019": 0.0,
			"0.02": 0.0,
			"0.021": 0.0,
			"0.022": 0.0,
			"0.023": 0.0,
			"0.024": 0.0,
			"0.025": 0.0
		}
	}
}
