{
	 "smiles": "FC1=C2CCC(=O)C2=C(F)C=C1", 
	 "Tm": 391.15, 
	 "num_atms": 18, 
	 "gaussian": { 
		 "optdone": 1, 
		 "sigma_profile": "yes", 
		 "theory": "DFT", 
		 "functional": "B3LYP", 
		 "basiset": "6-31G**", 
		 "properties": { 
			 "R2extent": 2974.3254, 
			 "electric_dipole_moment_norm": 3.16165034278, 
			 "electric_quadrupole_moment_norm": 17.8178513463, 
			 "total_energy": -621.468184897, 
			 "HOMO_LUMO_gap": 0.18569, 
			 "cosmo_polarized_energy": -9.22, 
			 "cosmo_cavitation_energy": 23.07, 
			 "cosmo_dispersion_energy": -16.87, 
			 "cosmo_repulsion_energy": 1.3, 
			 "cosmo_total_nonelectrostatic_energy": 7.49, 
			 "SMD_solvation_energy": 5.12 
		},
		"coords": [
			{
				"x": -2.5365769981,
				"y": 1.5843780038,
				"z": -1.8095780792,
				"element": "F" 
			},
			{
				"x": -1.1873891693,
				"y": 1.5971698406,
				"z": -1.8820138691,
				"element": "C" 
			},
			{
				"x": -0.4809877486,
				"y": 0.4244570148,
				"z": -1.6543907739,
				"element": "C" 
			},
			{
				"x": -1.0186494544,
				"y": -0.9489217416,
				"z": -1.3173394588,
				"element": "C" 
			},
			{
				"x": 0.2449101247,
				"y": -1.8294455061,
				"z": -1.1845049992,
				"element": "C" 
			},
			{
				"x": 1.4557797279,
				"y": -0.9156525062,
				"z": -1.4524321206,
				"element": "C" 
			},
			{
				"x": 2.6187492827,
				"y": -1.2608355744,
				"z": -1.4351481673,
				"element": "O" 
			},
			{
				"x": 0.9170183707,
				"y": 0.4436757904,
				"z": -1.7308508974,
				"element": "C" 
			},
			{
				"x": 1.5859788424,
				"y": 1.632394351,
				"z": -2.0330409459,
				"element": "C" 
			},
			{
				"x": 2.9236403655,
				"y": 1.6547667245,
				"z": -2.107049688,
				"element": "F" 
			},
			{
				"x": 0.8714592342,
				"y": 2.803295551,
				"z": -2.2597919149,
				"element": "C" 
			},
			{
				"x": -0.5260774683,
				"y": 2.7834775304,
				"z": -2.1832164917,
				"element": "C" 
			},
			{
				"x": -1.6067961346,
				"y": -0.9197448692,
				"z": -0.3936944616,
				"element": "H" 
			},
			{
				"x": -1.6952680271,
				"y": -1.3043793716,
				"z": -2.1020149123,
				"element": "H" 
			},
			{
				"x": 0.2644930074,
				"y": -2.6574911618,
				"z": -1.8999191746,
				"element": "H" 
			},
			{
				"x": 0.3527277785,
				"y": -2.2728425698,
				"z": -0.1897047068,
				"element": "H" 
			},
			{
				"x": 1.406047255,
				"y": 3.7172899792,
				"z": -2.4931230798,
				"element": "H" 
			},
			{
				"x": -1.1055589885,
				"y": 3.6841085152,
				"z": -2.3560862589,
				"element": "H" 
			}
		],
		 "valence_orbital": [ 
			{
				"type": "occ",
				"energy": -0.36411,
				"method": "rhf"
			},
			{
				"type": "occ",
				"energy": -0.34398,
				"method": "rhf"
			},
			{
				"type": "occ",
				"energy": -0.27419,
				"method": "rhf"
			},
			{
				"type": "occ",
				"energy": -0.25033,
				"method": "rhf"
			},
			{
				"type": "occ",
				"energy": -0.24874,
				"method": "rhf"
			},
			{
				"type": "unocc",
				"energy": -0.06305,
				"method": "rhf"
			},
			{
				"type": "unocc",
				"energy": -0.01725,
				"method": "rhf"
			},
			{
				"type": "unocc",
				"energy": 0.03858,
				"method": "rhf"
			},
			{
				"type": "unocc",
				"energy": 0.08051,
				"method": "rhf"
			},
			{
				"type": "unocc",
				"energy": 0.09228,
				"method": "rhf"
			}
		],
		"cosmo_sigma_profile": { 
			"-0.025": 0.0,
			"-0.024": 0.0,
			"-0.023": 0.0,
			"-0.022": 0.0,
			"-0.021": 0.0,
			"-0.02": 0.0,
			"-0.019": 0.0,
			"-0.018": 0.0,
			"-0.017": 0.0,
			"-0.016": 0.0,
			"-0.015": 0.0,
			"-0.014": 0.0,
			"-0.013": 0.0,
			"-0.012": 0.0,
			"-0.011": 0.0,
			"-0.01": 0.0,
			"-0.009": 0.502584559107,
			"-0.008": 3.78979777749,
			"-0.007": 4.02356635316,
			"-0.006": 11.0922746146,
			"-0.005": 17.6222146231,
			"-0.004": 13.5580075195,
			"-0.003": 12.0184674568,
			"-0.002": 13.1152493976,
			"-0.001": 16.9002245158,
			"0.0": 19.4725663307,
			"0.001": 12.2104784647,
			"0.002": 10.0243549357,
			"0.003": 10.7326514892,
			"0.004": 15.2847863237,
			"0.005": 3.36324123187,
			"0.006": 2.51673758212,
			"0.007": 2.20362820939,
			"0.008": 1.38820189742,
			"0.009": 2.123438652,
			"0.01": 2.98321324606,
			"0.011": 4.51469238197,
			"0.012": 4.31059810632,
			"0.013": 1.36868226117,
			"0.014": 0.00631609149196,
			"0.015": 0.0,
			"0.016": 0.0,
			"0.017": 0.0,
			"0.018": 0.0,
			"0.019": 0.0,
			"0.02": 0.0,
			"0.021": 0.0,
			"0.022": 0.0,
			"0.023": 0.0,
			"0.024": 0.0,
			"0.025": 0.0
		}
	}
}
