{
	 "smiles": "O=C1CCC(CC1)(C#N)C1=CC=CC=C1", 
	 "Tm": 388.15, 
	 "num_atms": 28, 
	 "gaussian": { 
		 "optdone": 1, 
		 "sigma_profile": "yes", 
		 "theory": "DFT", 
		 "functional": "B3LYP", 
		 "basiset": "6-31G**", 
		 "properties": { 
			 "R2extent": 3447.1128, 
			 "electric_dipole_moment_norm": 4.18962385066, 
			 "electric_quadrupole_moment_norm": 16.5844814324, 
			 "total_energy": -633.170867275, 
			 "HOMO_LUMO_gap": 0.22437, 
			 "cosmo_polarized_energy": -15.15, 
			 "cosmo_cavitation_energy": 30.77, 
			 "cosmo_dispersion_energy": -21.55, 
			 "cosmo_repulsion_energy": 1.69, 
			 "cosmo_total_nonelectrostatic_energy": 10.9, 
			 "SMD_solvation_energy": 6.45 
		},
		"coords": [
			{
				"x": 0.5342957186,
				"y": 2.1242525683,
				"z": 3.1330299294,
				"element": "O" 
			},
			{
				"x": 0.4758321656,
				"y": 1.5301882603,
				"z": 2.0760793568,
				"element": "C" 
			},
			{
				"x": 0.1127995714,
				"y": 0.0517108867,
				"z": 1.9757235836,
				"element": "C" 
			},
			{
				"x": 0.8720273069,
				"y": -0.6359516585,
				"z": 0.8318932453,
				"element": "C" 
			},
			{
				"x": 0.5798983804,
				"y": 0.007831579,
				"z": -0.5864887791,
				"element": "C" 
			},
			{
				"x": 0.0422380585,
				"y": 1.4604881504,
				"z": -0.4053334262,
				"element": "C" 
			},
			{
				"x": 0.7543666946,
				"y": 2.2008877193,
				"z": 0.733474197,
				"element": "C" 
			},
			{
				"x": 1.8714247619,
				"y": 0.1061638594,
				"z": -1.300320073,
				"element": "C" 
			},
			{
				"x": 2.8963273674,
				"y": 0.199942592,
				"z": -1.839157148,
				"element": "N" 
			},
			{
				"x": -0.3521317328,
				"y": -0.8939874528,
				"z": -1.4286984641,
				"element": "C" 
			},
			{
				"x": 0.0831743159,
				"y": -2.1893173928,
				"z": -1.7555257214,
				"element": "C" 
			},
			{
				"x": -0.7192603595,
				"y": -3.0525144227,
				"z": -2.4965395825,
				"element": "C" 
			},
			{
				"x": -1.979310504,
				"y": -2.6366552663,
				"z": -2.9339521734,
				"element": "C" 
			},
			{
				"x": -2.4170807369,
				"y": -1.3504324281,
				"z": -2.6287643479,
				"element": "C" 
			},
			{
				"x": -1.6090368234,
				"y": -0.483831042,
				"z": -1.8857046278,
				"element": "C" 
			},
			{
				"x": 0.3218502067,
				"y": -0.425898385,
				"z": 2.9365668897,
				"element": "H" 
			},
			{
				"x": -0.9720248036,
				"y": -0.0232928832,
				"z": 1.8142859295,
				"element": "H" 
			},
			{
				"x": 1.9449577796,
				"y": -0.5710892002,
				"z": 1.0375677889,
				"element": "H" 
			},
			{
				"x": 0.6250198401,
				"y": -1.6988810547,
				"z": 0.8000506108,
				"element": "H" 
			},
			{
				"x": 0.1299707646,
				"y": 2.0079596018,
				"z": -1.3476942274,
				"element": "H" 
			},
			{
				"x": -1.0237776742,
				"y": 1.4100659681,
				"z": -0.1660912682,
				"element": "H" 
			},
			{
				"x": 0.4437835011,
				"y": 3.2475367882,
				"z": 0.7964391141,
				"element": "H" 
			},
			{
				"x": 1.8413437435,
				"y": 2.2066223411,
				"z": 0.5698052595,
				"element": "H" 
			},
			{
				"x": 1.0684033805,
				"y": -2.5205744978,
				"z": -1.4384131904,
				"element": "H" 
			},
			{
				"x": -0.3578299017,
				"y": -4.0479468558,
				"z": -2.7373076002,
				"element": "H" 
			},
			{
				"x": -2.6077274563,
				"y": -3.3073282601,
				"z": -3.5122879246,
				"element": "H" 
			},
			{
				"x": -3.3901109925,
				"y": -1.0094181078,
				"z": -2.9702692878,
				"element": "H" 
			},
			{
				"x": -1.9774225724,
				"y": 0.514268593,
				"z": -1.6805680625,
				"element": "H" 
			}
		],
		 "valence_orbital": [ 
			{
				"type": "occ",
				"energy": -0.32328,
				"method": "rhf"
			},
			{
				"type": "occ",
				"energy": -0.31881,
				"method": "rhf"
			},
			{
				"type": "occ",
				"energy": -0.26565,
				"method": "rhf"
			},
			{
				"type": "occ",
				"energy": -0.26072,
				"method": "rhf"
			},
			{
				"type": "occ",
				"energy": -0.24834,
				"method": "rhf"
			},
			{
				"type": "unocc",
				"energy": -0.02397,
				"method": "rhf"
			},
			{
				"type": "unocc",
				"energy": -0.02283,
				"method": "rhf"
			},
			{
				"type": "unocc",
				"energy": -0.01743,
				"method": "rhf"
			},
			{
				"type": "unocc",
				"energy": 0.02811,
				"method": "rhf"
			},
			{
				"type": "unocc",
				"energy": 0.04312,
				"method": "rhf"
			}
		],
		"cosmo_sigma_profile": { 
			"-0.025": 0.0,
			"-0.024": 0.0,
			"-0.023": 0.0,
			"-0.022": 0.0,
			"-0.021": 0.0,
			"-0.02": 0.0,
			"-0.019": 0.0,
			"-0.018": 0.0,
			"-0.017": 0.0,
			"-0.016": 0.0,
			"-0.015": 0.0,
			"-0.014": 0.0,
			"-0.013": 0.0,
			"-0.012": 0.0,
			"-0.011": 0.0,
			"-0.01": 0.0,
			"-0.009": 0.241670613619,
			"-0.008": 3.05434174627,
			"-0.007": 7.84440810801,
			"-0.006": 19.2720195866,
			"-0.005": 28.7229056964,
			"-0.004": 29.6200030743,
			"-0.003": 24.7489443694,
			"-0.002": 16.9644498097,
			"-0.001": 8.73248638906,
			"0.0": 9.93628863392,
			"0.001": 9.77516999491,
			"0.002": 10.0696327663,
			"0.003": 10.4747189831,
			"0.004": 11.2041646621,
			"0.005": 12.4002304724,
			"0.006": 4.38073808811,
			"0.007": 3.28698419474,
			"0.008": 4.62369774504,
			"0.009": 5.16816696091,
			"0.01": 5.54580202145,
			"0.011": 5.98063319603,
			"0.012": 7.30612184913,
			"0.013": 4.5431810626,
			"0.014": 0.354329305817,
			"0.015": 0.0,
			"0.016": 0.0,
			"0.017": 0.0,
			"0.018": 0.0,
			"0.019": 0.0,
			"0.02": 0.0,
			"0.021": 0.0,
			"0.022": 0.0,
			"0.023": 0.0,
			"0.024": 0.0,
			"0.025": 0.0
		}
	}
}
