{
	 "smiles": "COC1=CC(OC)=C(C=C1S(Cl)(=O)=O)S(Cl)(=O)=O", 
	 "Tm": 413.15, 
	 "num_atms": 26, 
	 "gaussian": { 
		 "optdone": 1, 
		 "sigma_profile": "yes", 
		 "theory": "DFT", 
		 "functional": "B3LYP", 
		 "basiset": "6-31G**", 
		 "properties": { 
			 "R2extent": 9216.2618, 
			 "electric_dipole_moment_norm": 9.91098180656, 
			 "electric_quadrupole_moment_norm": 19.1275484571, 
			 "total_energy": -2477.60223954, 
			 "HOMO_LUMO_gap": 0.18095, 
			 "cosmo_polarized_energy": -21.52, 
			 "cosmo_cavitation_energy": 37.49, 
			 "cosmo_dispersion_energy": -26.98, 
			 "cosmo_repulsion_energy": 2.04, 
			 "cosmo_total_nonelectrostatic_energy": 12.55, 
			 "SMD_solvation_energy": 5.58 
		},
		"coords": [
			{
				"x": 0.1028823564,
				"y": 3.0392734882,
				"z": -0.6156395851,
				"element": "C" 
			},
			{
				"x": -1.0541861449,
				"y": 2.2044873198,
				"z": -0.6638441166,
				"element": "O" 
			},
			{
				"x": -1.1987649299,
				"y": 1.2088966002,
				"z": 0.2177945169,
				"element": "C" 
			},
			{
				"x": -0.2611541574,
				"y": 0.8994206644,
				"z": 1.2115143465,
				"element": "C" 
			},
			{
				"x": -0.4759298028,
				"y": -0.1731963095,
				"z": 2.0865549113,
				"element": "C" 
			},
			{
				"x": 0.3808671168,
				"y": -0.5395407614,
				"z": 3.0463011186,
				"element": "O" 
			},
			{
				"x": 1.5925713374,
				"y": 0.1902492343,
				"z": 3.2390867806,
				"element": "C" 
			},
			{
				"x": -1.6560449803,
				"y": -0.9433056578,
				"z": 1.9553419487,
				"element": "C" 
			},
			{
				"x": -2.5858672613,
				"y": -0.6510367871,
				"z": 0.9639637988,
				"element": "C" 
			},
			{
				"x": -2.3705918539,
				"y": 0.4230180364,
				"z": 0.1078364555,
				"element": "C" 
			},
			{
				"x": -3.6412675817,
				"y": 0.7883608599,
				"z": -1.0885936282,
				"element": "S" 
			},
			{
				"x": -2.660929618,
				"y": 0.3122589708,
				"z": -2.9178557752,
				"element": "Cl" 
			},
			{
				"x": -4.7010955715,
				"y": -0.1993461661,
				"z": -0.9288116456,
				"element": "O" 
			},
			{
				"x": -3.922125134,
				"y": 2.2156528119,
				"z": -1.1268041438,
				"element": "O" 
			},
			{
				"x": -2.0341437599,
				"y": -2.2849044503,
				"z": 3.0674539495,
				"element": "S" 
			},
			{
				"x": -0.5547720807,
				"y": -3.7194361339,
				"z": 2.531362671,
				"element": "Cl" 
			},
			{
				"x": -3.3137453521,
				"y": -2.852769396,
				"z": 2.6618924512,
				"element": "O" 
			},
			{
				"x": -1.7654379326,
				"y": -1.9061749774,
				"z": 4.4465292374,
				"element": "O" 
			},
			{
				"x": 1.0155821398,
				"y": 2.4578817259,
				"z": -0.786613386,
				"element": "H" 
			},
			{
				"x": 0.1669713565,
				"y": 3.5670963798,
				"z": 0.3421250019,
				"element": "H" 
			},
			{
				"x": -0.0277617485,
				"y": 3.7601298085,
				"z": -1.4215535944,
				"element": "H" 
			},
			{
				"x": 0.6389194552,
				"y": 1.4896186322,
				"z": 1.2997283684,
				"element": "H" 
			},
			{
				"x": 2.2269757215,
				"y": 0.1433517563,
				"z": 2.3471058799,
				"element": "H" 
			},
			{
				"x": 2.0953210792,
				"y": -0.3002767885,
				"z": 4.0714434484,
				"element": "H" 
			},
			{
				"x": 1.3854645246,
				"y": 1.2340741675,
				"z": 3.498979778,
				"element": "H" 
			},
			{
				"x": -3.4817371777,
				"y": -1.2531830281,
				"z": 0.8651012124,
				"element": "H" 
			}
		],
		 "valence_orbital": [ 
			{
				"type": "occ",
				"energy": -0.33211,
				"method": "rhf"
			},
			{
				"type": "occ",
				"energy": -0.31455,
				"method": "rhf"
			},
			{
				"type": "occ",
				"energy": -0.31412,
				"method": "rhf"
			},
			{
				"type": "occ",
				"energy": -0.29311,
				"method": "rhf"
			},
			{
				"type": "occ",
				"energy": -0.27348,
				"method": "rhf"
			},
			{
				"type": "unocc",
				"energy": -0.09253,
				"method": "rhf"
			},
			{
				"type": "unocc",
				"energy": -0.0892,
				"method": "rhf"
			},
			{
				"type": "unocc",
				"energy": -0.05426,
				"method": "rhf"
			},
			{
				"type": "unocc",
				"energy": -0.05058,
				"method": "rhf"
			},
			{
				"type": "unocc",
				"energy": 0.02578,
				"method": "rhf"
			}
		],
		"cosmo_sigma_profile": { 
			"-0.025": 0.0,
			"-0.024": 0.0,
			"-0.023": 0.0,
			"-0.022": 0.0,
			"-0.021": 0.0,
			"-0.02": 0.0,
			"-0.019": 0.0,
			"-0.018": 0.0,
			"-0.017": 0.0,
			"-0.016": 0.0,
			"-0.015": 0.0,
			"-0.014": 0.0,
			"-0.013": 0.0,
			"-0.012": 0.0,
			"-0.011": 0.0,
			"-0.01": 1.45929529518,
			"-0.009": 3.75778856868,
			"-0.008": 7.95013241649,
			"-0.007": 20.7855230526,
			"-0.006": 17.6559083081,
			"-0.005": 23.1380609975,
			"-0.004": 19.3823058639,
			"-0.003": 20.6982092997,
			"-0.002": 20.5741275071,
			"-0.001": 14.6651373837,
			"0.0": 13.3826740473,
			"0.001": 13.3782778906,
			"0.002": 18.2618255,
			"0.003": 26.7627339835,
			"0.004": 19.4104133827,
			"0.005": 10.9231042461,
			"0.006": 7.28806229406,
			"0.007": 12.6975705528,
			"0.008": 21.7281295529,
			"0.009": 11.2775555741,
			"0.01": 0.44771205783,
			"0.011": 0.0,
			"0.012": 0.0,
			"0.013": 0.0,
			"0.014": 0.0,
			"0.015": 0.0,
			"0.016": 0.0,
			"0.017": 0.0,
			"0.018": 0.0,
			"0.019": 0.0,
			"0.02": 0.0,
			"0.021": 0.0,
			"0.022": 0.0,
			"0.023": 0.0,
			"0.024": 0.0,
			"0.025": 0.0
		}
	}
}
