{
	 "smiles": "OCC1CCN(CC1)S(=O)(=O)C1=C(SC=C1)C(O)=O", 
	 "Tm": 417.15, 
	 "num_atms": 34, 
	 "gaussian": { 
		 "optdone": 1, 
		 "sigma_profile": "yes", 
		 "theory": "DFT", 
		 "functional": "B3LYP", 
		 "basiset": "6-31G**", 
		 "properties": { 
			 "R2extent": 7658.5256, 
			 "electric_dipole_moment_norm": 6.64775709319, 
			 "electric_quadrupole_moment_norm": 27.8993809974, 
			 "total_energy": -1655.37059857, 
			 "HOMO_LUMO_gap": 0.18137, 
			 "cosmo_polarized_energy": -21.12, 
			 "cosmo_cavitation_energy": 38.05, 
			 "cosmo_dispersion_energy": -27.65, 
			 "cosmo_repulsion_energy": 2.04, 
			 "cosmo_total_nonelectrostatic_energy": 12.45, 
			 "SMD_solvation_energy": 5.51 
		},
		"coords": [
			{
				"x": 1.1553856553,
				"y": 0.480857163,
				"z": -3.9163498777,
				"element": "O" 
			},
			{
				"x": 1.2807877989,
				"y": 0.9650734039,
				"z": -2.5866926403,
				"element": "C" 
			},
			{
				"x": 0.9657151848,
				"y": -0.1823855941,
				"z": -1.6271348452,
				"element": "C" 
			},
			{
				"x": -0.4890767581,
				"y": -0.6917592198,
				"z": -1.7896809893,
				"element": "C" 
			},
			{
				"x": -1.4538493538,
				"y": -0.0293027766,
				"z": -0.8058584956,
				"element": "C" 
			},
			{
				"x": -1.0419137944,
				"y": -0.3794035411,
				"z": 0.5749833663,
				"element": "N" 
			},
			{
				"x": 0.41034217,
				"y": -0.5561915429,
				"z": 0.8319697821,
				"element": "C" 
			},
			{
				"x": 1.2405645311,
				"y": 0.2506956045,
				"z": -0.168154338,
				"element": "C" 
			},
			{
				"x": -2.0413852849,
				"y": 0.0770636162,
				"z": 1.8129868848,
				"element": "S" 
			},
			{
				"x": -3.4150577912,
				"y": -0.0971967987,
				"z": 1.3498115163,
				"element": "O" 
			},
			{
				"x": -1.5627187332,
				"y": -0.6193407656,
				"z": 3.026001755,
				"element": "O" 
			},
			{
				"x": -1.8232299262,
				"y": 1.8398305358,
				"z": 2.0923159135,
				"element": "C" 
			},
			{
				"x": -0.8685753087,
				"y": 2.4779749081,
				"z": 2.8740882574,
				"element": "C" 
			},
			{
				"x": -1.0242537291,
				"y": 4.2054459009,
				"z": 2.7081426398,
				"element": "S" 
			},
			{
				"x": -2.3532376567,
				"y": 4.0478781847,
				"z": 1.6253236629,
				"element": "C" 
			},
			{
				"x": -2.6716891753,
				"y": 2.7397544046,
				"z": 1.3799034646,
				"element": "C" 
			},
			{
				"x": 0.2365476969,
				"y": 2.0684420472,
				"z": 3.8036496674,
				"element": "C" 
			},
			{
				"x": 0.3325037617,
				"y": 0.7938272472,
				"z": 4.1832843463,
				"element": "O" 
			},
			{
				"x": 1.0231168881,
				"y": 2.9083103382,
				"z": 4.1934525107,
				"element": "O" 
			},
			{
				"x": 1.3132361133,
				"y": 1.2131299849,
				"z": -4.5244371802,
				"element": "H" 
			},
			{
				"x": 2.2993605852,
				"y": 1.336158357,
				"z": -2.3885849884,
				"element": "H" 
			},
			{
				"x": 0.5876069813,
				"y": 1.8036770218,
				"z": -2.3987343786,
				"element": "H" 
			},
			{
				"x": 1.6422150355,
				"y": -1.0045262629,
				"z": -1.8891906374,
				"element": "H" 
			},
			{
				"x": -0.8288690277,
				"y": -0.5092696504,
				"z": -2.8130225912,
				"element": "H" 
			},
			{
				"x": -0.529164287,
				"y": -1.7750671464,
				"z": -1.6336421756,
				"element": "H" 
			},
			{
				"x": -2.472884143,
				"y": -0.3884308437,
				"z": -0.9548873537,
				"element": "H" 
			},
			{
				"x": -1.4558675677,
				"y": 1.0622387294,
				"z": -0.9499348027,
				"element": "H" 
			},
			{
				"x": 0.6386370211,
				"y": -0.2569628199,
				"z": 1.8553998298,
				"element": "H" 
			},
			{
				"x": 0.6462321087,
				"y": -1.6243743447,
				"z": 0.7561173809,
				"element": "H" 
			},
			{
				"x": 1.0045959493,
				"y": 1.3152913644,
				"z": -0.0377465352,
				"element": "H" 
			},
			{
				"x": 2.3020454151,
				"y": 0.1371816073,
				"z": 0.0756178813,
				"element": "H" 
			},
			{
				"x": -2.8424860202,
				"y": 4.9286652122,
				"z": 1.2314435177,
				"element": "H" 
			},
			{
				"x": -3.4867425146,
				"y": 2.4074891527,
				"z": 0.7503437668,
				"element": "H" 
			},
			{
				"x": -0.4258918244,
				"y": 0.2398265227,
				"z": 3.8717156856,
				"element": "H" 
			}
		],
		 "valence_orbital": [ 
			{
				"type": "occ",
				"energy": -0.29329,
				"method": "rhf"
			},
			{
				"type": "occ",
				"energy": -0.28284,
				"method": "rhf"
			},
			{
				"type": "occ",
				"energy": -0.28178,
				"method": "rhf"
			},
			{
				"type": "occ",
				"energy": -0.27004,
				"method": "rhf"
			},
			{
				"type": "occ",
				"energy": -0.26055,
				"method": "rhf"
			},
			{
				"type": "unocc",
				"energy": -0.07918,
				"method": "rhf"
			},
			{
				"type": "unocc",
				"energy": -0.00113,
				"method": "rhf"
			},
			{
				"type": "unocc",
				"energy": 0.00275,
				"method": "rhf"
			},
			{
				"type": "unocc",
				"energy": 0.04521,
				"method": "rhf"
			},
			{
				"type": "unocc",
				"energy": 0.05405,
				"method": "rhf"
			}
		],
		"cosmo_sigma_profile": { 
			"-0.025": 0.0,
			"-0.024": 0.0,
			"-0.023": 0.0,
			"-0.022": 0.0,
			"-0.021": 0.0,
			"-0.02": 0.0,
			"-0.019": 0.0,
			"-0.018": 0.0,
			"-0.017": 0.0,
			"-0.016": 0.300901503323,
			"-0.015": 1.20576148752,
			"-0.014": 0.883675601277,
			"-0.013": 1.09292895614,
			"-0.012": 0.556933024732,
			"-0.011": 1.55781203177,
			"-0.01": 3.3335670778,
			"-0.009": 3.19134220676,
			"-0.008": 5.02932171355,
			"-0.007": 5.37064078618,
			"-0.006": 7.65020574207,
			"-0.005": 17.6418397411,
			"-0.004": 34.8045329057,
			"-0.003": 41.9418124149,
			"-0.002": 26.2167752823,
			"-0.001": 21.762689784,
			"0.0": 16.1914992974,
			"0.001": 17.1609002564,
			"0.002": 13.1302411928,
			"0.003": 8.24482451291,
			"0.004": 8.32262812068,
			"0.005": 6.85771256702,
			"0.006": 6.97065319083,
			"0.007": 7.65554748357,
			"0.008": 7.12986254816,
			"0.009": 9.38177697482,
			"0.01": 11.9909375981,
			"0.011": 8.61761441433,
			"0.012": 4.61452325758,
			"0.013": 2.2358987533,
			"0.014": 1.04758980787,
			"0.015": 0.17266371201,
			"0.016": 0.0,
			"0.017": 0.0,
			"0.018": 0.0,
			"0.019": 0.0,
			"0.02": 0.0,
			"0.021": 0.0,
			"0.022": 0.0,
			"0.023": 0.0,
			"0.024": 0.0,
			"0.025": 0.0
		}
	}
}
