{
	 "smiles": "NNC(=O)CC1=CSC(=N1)N1CCOCC1", 
	 "Tm": 442.15, 
	 "num_atms": 30, 
	 "gaussian": { 
		 "optdone": 1, 
		 "sigma_profile": "yes", 
		 "theory": "DFT", 
		 "functional": "B3LYP", 
		 "basiset": "6-31G**", 
		 "properties": { 
			 "R2extent": 5778.9476, 
			 "electric_dipole_moment_norm": 3.94458786821, 
			 "electric_quadrupole_moment_norm": 19.1018152229, 
			 "total_energy": -1118.99288945, 
			 "HOMO_LUMO_gap": 0.20019, 
			 "cosmo_polarized_energy": -16.13, 
			 "cosmo_cavitation_energy": 34.17, 
			 "cosmo_dispersion_energy": -25.28, 
			 "cosmo_repulsion_energy": 1.97, 
			 "cosmo_total_nonelectrostatic_energy": 10.85, 
			 "SMD_solvation_energy": 5.16 
		},
		"coords": [
			{
				"x": -0.096310624,
				"y": 2.4322448618,
				"z": -3.5295726779,
				"element": "N" 
			},
			{
				"x": 1.0063967354,
				"y": 1.7893885904,
				"z": -2.9246409888,
				"element": "N" 
			},
			{
				"x": 1.9742165857,
				"y": 1.1963454068,
				"z": -3.6810574173,
				"element": "C" 
			},
			{
				"x": 2.0296128962,
				"y": 1.3141814205,
				"z": -4.8997716399,
				"element": "O" 
			},
			{
				"x": 3.023959813,
				"y": 0.4085849408,
				"z": -2.8800763308,
				"element": "C" 
			},
			{
				"x": 2.4737235106,
				"y": -0.5916661694,
				"z": -1.8972515802,
				"element": "C" 
			},
			{
				"x": 2.6877993794,
				"y": -1.9341794833,
				"z": -1.9493056913,
				"element": "C" 
			},
			{
				"x": 1.892894042,
				"y": -2.731309927,
				"z": -0.6085125657,
				"element": "S" 
			},
			{
				"x": 1.321083176,
				"y": -1.138005107,
				"z": -0.0718141523,
				"element": "C" 
			},
			{
				"x": 1.7011083856,
				"y": -0.1422944465,
				"z": -0.8366514262,
				"element": "N" 
			},
			{
				"x": 0.555511874,
				"y": -1.0105853987,
				"z": 1.0439434735,
				"element": "N" 
			},
			{
				"x": 0.1833975366,
				"y": -2.1640864949,
				"z": 1.860300326,
				"element": "C" 
			},
			{
				"x": -0.3294414909,
				"y": -1.6745788436,
				"z": 3.2130816166,
				"element": "C" 
			},
			{
				"x": -1.4446458369,
				"y": -0.8050576679,
				"z": 3.0983345362,
				"element": "O" 
			},
			{
				"x": -1.378184323,
				"y": 0.1236698248,
				"z": 2.0131524093,
				"element": "C" 
			},
			{
				"x": 0.0267943018,
				"y": 0.2955773916,
				"z": 1.4419017915,
				"element": "C" 
			},
			{
				"x": 0.22388928,
				"y": 3.3478166739,
				"z": -3.84543297,
				"element": "H" 
			},
			{
				"x": -0.2995406355,
				"y": 1.9178361185,
				"z": -4.3882231504,
				"element": "H" 
			},
			{
				"x": 0.8709412658,
				"y": 1.4679547799,
				"z": -1.9718629453,
				"element": "H" 
			},
			{
				"x": 3.656897253,
				"y": -0.0896287331,
				"z": -3.6154319858,
				"element": "H" 
			},
			{
				"x": 3.6444116278,
				"y": 1.1360711764,
				"z": -2.3397826135,
				"element": "H" 
			},
			{
				"x": 3.2566167603,
				"y": -2.5020190539,
				"z": -2.670397396,
				"element": "H" 
			},
			{
				"x": 1.0590977835,
				"y": -2.8073677355,
				"z": 2.0202837392,
				"element": "H" 
			},
			{
				"x": -0.5879833543,
				"y": -2.768400001,
				"z": 1.3599897815,
				"element": "H" 
			},
			{
				"x": -0.660282772,
				"y": -2.529106321,
				"z": 3.8102704533,
				"element": "H" 
			},
			{
				"x": 0.4946007082,
				"y": -1.1866983101,
				"z": 3.7570406248,
				"element": "H" 
			},
			{
				"x": -1.7451766944,
				"y": 1.0886390852,
				"z": 2.3809269245,
				"element": "H" 
			},
			{
				"x": -2.0531719143,
				"y": -0.210897939,
				"z": 1.2122825019,
				"element": "H" 
			},
			{
				"x": -0.0081561109,
				"y": 0.9402215872,
				"z": 0.5621380129,
				"element": "H" 
			},
			{
				"x": 0.6900408413,
				"y": 0.7771497742,
				"z": 2.17383934,
				"element": "H" 
			}
		],
		 "valence_orbital": [ 
			{
				"type": "occ",
				"energy": -0.27386,
				"method": "rhf"
			},
			{
				"type": "occ",
				"energy": -0.26481,
				"method": "rhf"
			},
			{
				"type": "occ",
				"energy": -0.24365,
				"method": "rhf"
			},
			{
				"type": "occ",
				"energy": -0.23943,
				"method": "rhf"
			},
			{
				"type": "occ",
				"energy": -0.20528,
				"method": "rhf"
			},
			{
				"type": "unocc",
				"energy": -0.00509,
				"method": "rhf"
			},
			{
				"type": "unocc",
				"energy": 0.00945,
				"method": "rhf"
			},
			{
				"type": "unocc",
				"energy": 0.03055,
				"method": "rhf"
			},
			{
				"type": "unocc",
				"energy": 0.05514,
				"method": "rhf"
			},
			{
				"type": "unocc",
				"energy": 0.06992,
				"method": "rhf"
			}
		],
		"cosmo_sigma_profile": { 
			"-0.025": 0.0,
			"-0.024": 0.0,
			"-0.023": 0.0,
			"-0.022": 0.0,
			"-0.021": 0.0,
			"-0.02": 0.0,
			"-0.019": 0.0,
			"-0.018": 0.0,
			"-0.017": 0.0,
			"-0.016": 0.0,
			"-0.015": 0.0,
			"-0.014": 0.0,
			"-0.013": 0.0,
			"-0.012": 0.170009771643,
			"-0.011": 1.48633938967,
			"-0.01": 1.90411464474,
			"-0.009": 2.76546604608,
			"-0.008": 3.94869670246,
			"-0.007": 4.86514296005,
			"-0.006": 18.4390542341,
			"-0.005": 30.4150168185,
			"-0.004": 29.6566981989,
			"-0.003": 23.0690037087,
			"-0.002": 16.527449929,
			"-0.001": 14.6217365704,
			"0.0": 14.8183021669,
			"0.001": 16.4888563577,
			"0.002": 14.942662102,
			"0.003": 14.3203171175,
			"0.004": 12.0424087254,
			"0.005": 9.36249505939,
			"0.006": 3.98001826362,
			"0.007": 4.55755935074,
			"0.008": 3.27325275388,
			"0.009": 3.75447195946,
			"0.01": 3.50629315052,
			"0.011": 3.99958678,
			"0.012": 4.04243747963,
			"0.013": 6.59216680995,
			"0.014": 4.63449415018,
			"0.015": 1.59457525707,
			"0.016": 0.546849041499,
			"0.017": 0.534064432153,
			"0.018": 0.0,
			"0.019": 0.0,
			"0.02": 0.0,
			"0.021": 0.0,
			"0.022": 0.0,
			"0.023": 0.0,
			"0.024": 0.0,
			"0.025": 0.0
		}
	}
}
