{
	 "smiles": "CC1=CC(=CC(C)=C1)N(CCC(O)=O)S(=O)(=O)C1=CC=C(Br)C=C1", 
	 "Tm": 407.15, 
	 "num_atms": 42, 
	 "gaussian": { 
		 "optdone": 1, 
		 "sigma_profile": "yes", 
		 "theory": "DFT", 
		 "functional": "B3LYP", 
		 "basiset": "6-31G**", 
		 "properties": { 
			 "R2extent": 15888.3477, 
			 "electric_dipole_moment_norm": 4.56295315119, 
			 "electric_quadrupole_moment_norm": 10.4131636221, 
			 "total_energy": -3983.85335645, 
			 "HOMO_LUMO_gap": 0.18878, 
			 "cosmo_polarized_energy": -19.13, 
			 "cosmo_cavitation_energy": 49.86, 
			 "cosmo_dispersion_energy": -33.21, 
			 "cosmo_repulsion_energy": 2.59, 
			 "cosmo_total_nonelectrostatic_energy": 19.23, 
			 "SMD_solvation_energy": 7.24 
		},
		"coords": [
			{
				"x": 2.6383421192,
				"y": -1.6107979524,
				"z": 2.4507897041,
				"element": "C" 
			},
			{
				"x": 1.3938290815,
				"y": -0.927063884,
				"z": 1.9331931387,
				"element": "C" 
			},
			{
				"x": 0.5592055262,
				"y": -1.5666818776,
				"z": 1.011027733,
				"element": "C" 
			},
			{
				"x": -0.6150414861,
				"y": -0.9451960131,
				"z": 0.5650809545,
				"element": "C" 
			},
			{
				"x": -0.9531626029,
				"y": 0.3277292848,
				"z": 1.032072713,
				"element": "C" 
			},
			{
				"x": -0.1190503096,
				"y": 0.9965225626,
				"z": 1.9351597812,
				"element": "C" 
			},
			{
				"x": -0.4648873117,
				"y": 2.3900306146,
				"z": 2.4055820841,
				"element": "C" 
			},
			{
				"x": 1.0421582462,
				"y": 0.3535309384,
				"z": 2.3787857236,
				"element": "C" 
			},
			{
				"x": -1.5030046449,
				"y": -1.6074550054,
				"z": -0.356220006,
				"element": "N" 
			},
			{
				"x": -1.8538874722,
				"y": -3.0172709399,
				"z": -0.1064867513,
				"element": "C" 
			},
			{
				"x": -2.6956209453,
				"y": -3.1357567859,
				"z": 1.1651317234,
				"element": "C" 
			},
			{
				"x": -3.0456684245,
				"y": -4.5747338863,
				"z": 1.4662580036,
				"element": "C" 
			},
			{
				"x": -3.8544433558,
				"y": -4.6749741979,
				"z": 2.5466822278,
				"element": "O" 
			},
			{
				"x": -2.6634711542,
				"y": -5.541158939,
				"z": 0.8418786855,
				"element": "O" 
			},
			{
				"x": -1.4805408896,
				"y": -1.0891015618,
				"z": -1.9778882812,
				"element": "S" 
			},
			{
				"x": -1.3935633457,
				"y": 0.3699484932,
				"z": -1.950214523,
				"element": "O" 
			},
			{
				"x": -2.5813663709,
				"y": -1.7888782674,
				"z": -2.6442874638,
				"element": "O" 
			},
			{
				"x": 0.0536141735,
				"y": -1.7013839032,
				"z": -2.6845592118,
				"element": "C" 
			},
			{
				"x": 1.2178754316,
				"y": -0.937973921,
				"z": -2.5634463458,
				"element": "C" 
			},
			{
				"x": 2.4155130154,
				"y": -1.4283419996,
				"z": -3.0813432163,
				"element": "C" 
			},
			{
				"x": 2.4272573473,
				"y": -2.6736975332,
				"z": -3.7111327334,
				"element": "C" 
			},
			{
				"x": 4.0667485332,
				"y": -3.3449724004,
				"z": -4.4187072474,
				"element": "Br" 
			},
			{
				"x": 1.265345327,
				"y": -3.4350696215,
				"z": -3.8421421437,
				"element": "C" 
			},
			{
				"x": 0.067982294,
				"y": -2.943513647,
				"z": -3.3237980297,
				"element": "C" 
			},
			{
				"x": 3.0199626608,
				"y": -2.3449624719,
				"z": 1.7352003616,
				"element": "H" 
			},
			{
				"x": 3.4355461485,
				"y": -0.8893922464,
				"z": 2.6540871736,
				"element": "H" 
			},
			{
				"x": 2.4364119516,
				"y": -2.1435544284,
				"z": 3.3884925812,
				"element": "H" 
			},
			{
				"x": 0.827577457,
				"y": -2.5514709864,
				"z": 0.6405534898,
				"element": "H" 
			},
			{
				"x": -1.8641304061,
				"y": 0.7915538267,
				"z": 0.6709331956,
				"element": "H" 
			},
			{
				"x": 0.0583506117,
				"y": 2.641661635,
				"z": 3.3324279736,
				"element": "H" 
			},
			{
				"x": -0.1855344257,
				"y": 3.1386599628,
				"z": 1.6542230097,
				"element": "H" 
			},
			{
				"x": -1.5397709888,
				"y": 2.4971161501,
				"z": 2.5812798727,
				"element": "H" 
			},
			{
				"x": 1.6890300658,
				"y": 0.8612929195,
				"z": 3.091199366,
				"element": "H" 
			},
			{
				"x": -2.4364488288,
				"y": -3.3676480167,
				"z": -0.9578701518,
				"element": "H" 
			},
			{
				"x": -0.9672180976,
				"y": -3.6571423976,
				"z": -0.0301322795,
				"element": "H" 
			},
			{
				"x": -3.6200868997,
				"y": -2.5560649864,
				"z": 1.0712089886,
				"element": "H" 
			},
			{
				"x": -2.1658559187,
				"y": -2.7251078425,
				"z": 2.032573006,
				"element": "H" 
			},
			{
				"x": -4.027152164,
				"y": -5.6238172424,
				"z": 2.6692346316,
				"element": "H" 
			},
			{
				"x": 1.1797071293,
				"y": 0.0353677493,
				"z": -2.0877920194,
				"element": "H" 
			},
			{
				"x": 3.3275283734,
				"y": -0.8481183958,
				"z": -3.0025687671,
				"element": "H" 
			},
			{
				"x": 1.2941444701,
				"y": -4.3933436257,
				"z": -4.3475889137,
				"element": "H" 
			},
			{
				"x": -0.8524239206,
				"y": -3.5061691601,
				"z": -3.4341780376,
				"element": "H" 
			}
		],
		 "valence_orbital": [ 
			{
				"type": "occ",
				"energy": -0.28175,
				"method": "rhf"
			},
			{
				"type": "occ",
				"energy": -0.27881,
				"method": "rhf"
			},
			{
				"type": "occ",
				"energy": -0.25913,
				"method": "rhf"
			},
			{
				"type": "occ",
				"energy": -0.24549,
				"method": "rhf"
			},
			{
				"type": "occ",
				"energy": -0.23695,
				"method": "rhf"
			},
			{
				"type": "unocc",
				"energy": -0.04817,
				"method": "rhf"
			},
			{
				"type": "unocc",
				"energy": -0.03228,
				"method": "rhf"
			},
			{
				"type": "unocc",
				"energy": -0.01694,
				"method": "rhf"
			},
			{
				"type": "unocc",
				"energy": -0.00892,
				"method": "rhf"
			},
			{
				"type": "unocc",
				"energy": -0.00472,
				"method": "rhf"
			}
		],
		"cosmo_sigma_profile": { 
			"-0.025": 0.0,
			"-0.024": 0.0,
			"-0.023": 0.0,
			"-0.022": 0.0,
			"-0.021": 0.0,
			"-0.02": 0.0,
			"-0.019": 0.0,
			"-0.018": 0.806461370927,
			"-0.017": 1.02925256109,
			"-0.016": 0.559951991671,
			"-0.015": 0.841799733692,
			"-0.014": 0.884268579333,
			"-0.013": 0.585302854311,
			"-0.012": 0.4324218138,
			"-0.011": 1.31150751831,
			"-0.01": 0.817195937275,
			"-0.009": 0.456265103673,
			"-0.008": 5.56258624937,
			"-0.007": 11.8567666427,
			"-0.006": 15.7780705082,
			"-0.005": 21.6826066557,
			"-0.004": 33.8753168664,
			"-0.003": 28.9539513447,
			"-0.002": 32.7426301171,
			"-0.001": 34.5332164994,
			"0.0": 37.6332282211,
			"0.001": 38.8947897695,
			"0.002": 25.6549856262,
			"0.003": 20.3842851156,
			"0.004": 22.9207531512,
			"0.005": 10.0834330183,
			"0.006": 5.86776250311,
			"0.007": 5.88975490795,
			"0.008": 6.74648796566,
			"0.009": 7.45502750374,
			"0.01": 9.69434673708,
			"0.011": 10.8136405373,
			"0.012": 4.24866365879,
			"0.013": 0.0502272779604,
			"0.014": 0.0,
			"0.015": 0.0,
			"0.016": 0.0,
			"0.017": 0.0,
			"0.018": 0.0,
			"0.019": 0.0,
			"0.02": 0.0,
			"0.021": 0.0,
			"0.022": 0.0,
			"0.023": 0.0,
			"0.024": 0.0,
			"0.025": 0.0
		}
	}
}
