{
	 "smiles": "NC1=CC=CC(=C1)C1=CC=CN=C1", 
	 "Tm": 349.15, 
	 "num_atms": 23, 
	 "gaussian": { 
		 "optdone": 1, 
		 "sigma_profile": "yes", 
		 "theory": "DFT", 
		 "functional": "B3LYP", 
		 "basiset": "6-31G**", 
		 "properties": { 
			 "R2extent": 3199.3506, 
			 "electric_dipole_moment_norm": 2.20778895051, 
			 "electric_quadrupole_moment_norm": 13.4831877744, 
			 "total_energy": -534.703664734, 
			 "HOMO_LUMO_gap": 0.17371, 
			 "cosmo_polarized_energy": -11.67, 
			 "cosmo_cavitation_energy": 26.96, 
			 "cosmo_dispersion_energy": -19.95, 
			 "cosmo_repulsion_energy": 1.56, 
			 "cosmo_total_nonelectrostatic_energy": 8.57, 
			 "SMD_solvation_energy": 2.95 
		},
		"coords": [
			{
				"x": -2.8455302001,
				"y": -2.5655927866,
				"z": -0.617392352,
				"element": "N" 
			},
			{
				"x": -2.6603634195,
				"y": -1.2637618333,
				"z": -0.1485514653,
				"element": "C" 
			},
			{
				"x": -3.7565890569,
				"y": -0.4013241171,
				"z": 0.0255872,
				"element": "C" 
			},
			{
				"x": -3.5658441511,
				"y": 0.8709867173,
				"z": 0.5576541487,
				"element": "C" 
			},
			{
				"x": -2.295535807,
				"y": 1.3133543208,
				"z": 0.9240777611,
				"element": "C" 
			},
			{
				"x": -1.1875783049,
				"y": 0.46555892,
				"z": 0.7571477002,
				"element": "C" 
			},
			{
				"x": -1.3829150163,
				"y": -0.8152574521,
				"z": 0.2228974689,
				"element": "C" 
			},
			{
				"x": 0.1737757075,
				"y": 0.9186264166,
				"z": 1.1349444628,
				"element": "C" 
			},
			{
				"x": 0.4071933235,
				"y": 1.6966436416,
				"z": 2.2786221897,
				"element": "C" 
			},
			{
				"x": 1.7057931054,
				"y": 2.0943219455,
				"z": 2.584325862,
				"element": "C" 
			},
			{
				"x": 2.7431035106,
				"y": 1.6980353911,
				"z": 1.7391362055,
				"element": "C" 
			},
			{
				"x": 2.5508485414,
				"y": 0.961157675,
				"z": 0.6379755267,
				"element": "N" 
			},
			{
				"x": 1.2980005139,
				"y": 0.5935780545,
				"z": 0.3548392735,
				"element": "C" 
			},
			{
				"x": -3.6762654025,
				"y": -2.7070661107,
				"z": -1.1754412859,
				"element": "H" 
			},
			{
				"x": -2.0316861134,
				"y": -2.9909740992,
				"z": -1.0397524575,
				"element": "H" 
			},
			{
				"x": -4.7529949184,
				"y": -0.7361709122,
				"z": -0.2518703867,
				"element": "H" 
			},
			{
				"x": -4.4210417161,
				"y": 1.5304725864,
				"z": 0.6774708799,
				"element": "H" 
			},
			{
				"x": -2.1566995859,
				"y": 2.319351813,
				"z": 1.3063666838,
				"element": "H" 
			},
			{
				"x": -0.5366531193,
				"y": -1.4900400497,
				"z": 0.1240169092,
				"element": "H" 
			},
			{
				"x": -0.420311428,
				"y": 1.9650197312,
				"z": 2.9289330938,
				"element": "H" 
			},
			{
				"x": 1.9149671724,
				"y": 2.6905377378,
				"z": 3.4673059372,
				"element": "H" 
			},
			{
				"x": 3.771240615,
				"y": 1.9840325743,
				"z": 1.9543452984,
				"element": "H" 
			},
			{
				"x": 1.1658857497,
				"y": 0.0188098359,
				"z": -0.5603386539,
				"element": "H" 
			}
		],
		 "valence_orbital": [ 
			{
				"type": "occ",
				"energy": -0.28368,
				"method": "rhf"
			},
			{
				"type": "occ",
				"energy": -0.26829,
				"method": "rhf"
			},
			{
				"type": "occ",
				"energy": -0.24875,
				"method": "rhf"
			},
			{
				"type": "occ",
				"energy": -0.23145,
				"method": "rhf"
			},
			{
				"type": "occ",
				"energy": -0.20461,
				"method": "rhf"
			},
			{
				"type": "unocc",
				"energy": -0.0309,
				"method": "rhf"
			},
			{
				"type": "unocc",
				"energy": -0.01699,
				"method": "rhf"
			},
			{
				"type": "unocc",
				"energy": 0.00934,
				"method": "rhf"
			},
			{
				"type": "unocc",
				"energy": 0.02901,
				"method": "rhf"
			},
			{
				"type": "unocc",
				"energy": 0.07889,
				"method": "rhf"
			}
		],
		"cosmo_sigma_profile": { 
			"-0.025": 0.0,
			"-0.024": 0.0,
			"-0.023": 0.0,
			"-0.022": 0.0,
			"-0.021": 0.0,
			"-0.02": 0.0,
			"-0.019": 0.0,
			"-0.018": 0.0,
			"-0.017": 0.0,
			"-0.016": 0.0,
			"-0.015": 0.0,
			"-0.014": 0.0,
			"-0.013": 0.292386790919,
			"-0.012": 2.62460843263,
			"-0.011": 2.25006797591,
			"-0.01": 3.04383669585,
			"-0.009": 3.80779032405,
			"-0.008": 2.2656935958,
			"-0.007": 5.23181409674,
			"-0.006": 12.6212780658,
			"-0.005": 17.9306298843,
			"-0.004": 15.5925776208,
			"-0.003": 13.3010012803,
			"-0.002": 11.3594617864,
			"-0.001": 11.0763370748,
			"0.0": 11.7325353512,
			"0.001": 12.1662916615,
			"0.002": 20.4742814187,
			"0.003": 17.5492364851,
			"0.004": 9.42392780887,
			"0.005": 11.1329593443,
			"0.006": 12.0284729364,
			"0.007": 5.00990186202,
			"0.008": 2.11439772084,
			"0.009": 1.81119705959,
			"0.01": 1.99096544138,
			"0.011": 2.30518133181,
			"0.012": 0.829646323461,
			"0.013": 1.34673520633,
			"0.014": 2.00681077243,
			"0.015": 1.0428467263,
			"0.016": 0.738804673764,
			"0.017": 0.519308456237,
			"0.018": 0.00377363264933,
			"0.019": 0.0,
			"0.02": 0.0,
			"0.021": 0.0,
			"0.022": 0.0,
			"0.023": 0.0,
			"0.024": 0.0,
			"0.025": 0.0
		}
	}
}
