{
	 "smiles": "COC(=O)C1=CC=CC=C1S(=O)(=O)NC(=O)NC1=NC(OC(F)F)=CC(OC(F)F)=N1", 
	 "Tm": 469.15, 
	 "num_atms": 43, 
	 "gaussian": { 
		 "optdone": 1, 
		 "sigma_profile": "yes", 
		 "theory": "DFT", 
		 "functional": "B3LYP", 
		 "basiset": "6-31G**", 
		 "properties": { 
			 "R2extent": 17237.8692, 
			 "electric_dipole_moment_norm": 6.27545642483, 
			 "electric_quadrupole_moment_norm": 25.1687900905, 
			 "total_energy": -2121.90244121, 
			 "HOMO_LUMO_gap": 0.18133, 
			 "cosmo_polarized_energy": -26.27, 
			 "cosmo_cavitation_energy": 54.1, 
			 "cosmo_dispersion_energy": -36.33, 
			 "cosmo_repulsion_energy": 2.66, 
			 "cosmo_total_nonelectrostatic_energy": 20.43, 
			 "SMD_solvation_energy": 12.07 
		},
		"coords": [
			{
				"x": -5.1713475991,
				"y": 3.0134838538,
				"z": -2.0975948048,
				"element": "C" 
			},
			{
				"x": -3.7439796477,
				"y": 3.0691558677,
				"z": -1.915189138,
				"element": "O" 
			},
			{
				"x": -3.0408539108,
				"y": 2.1918412478,
				"z": -2.659599421,
				"element": "C" 
			},
			{
				"x": -3.5480042895,
				"y": 1.3994616609,
				"z": -3.4226400011,
				"element": "O" 
			},
			{
				"x": -1.5649459146,
				"y": 2.3420951369,
				"z": -2.4538668918,
				"element": "C" 
			},
			{
				"x": -1.0619209775,
				"y": 3.5596338657,
				"z": -1.978706232,
				"element": "C" 
			},
			{
				"x": 0.3093203725,
				"y": 3.7755967273,
				"z": -1.8525156161,
				"element": "C" 
			},
			{
				"x": 1.2012188583,
				"y": 2.7645192623,
				"z": -2.1967937484,
				"element": "C" 
			},
			{
				"x": 0.7210898313,
				"y": 1.5357349691,
				"z": -2.6553333024,
				"element": "C" 
			},
			{
				"x": -0.6512796084,
				"y": 1.3173678449,
				"z": -2.7842964128,
				"element": "C" 
			},
			{
				"x": -1.2155321413,
				"y": -0.3238092526,
				"z": -3.3407449235,
				"element": "S" 
			},
			{
				"x": -2.1390954814,
				"y": -0.8481653938,
				"z": -2.328661998,
				"element": "O" 
			},
			{
				"x": -1.5038370051,
				"y": -0.3124513249,
				"z": -4.7672221767,
				"element": "O" 
			},
			{
				"x": 0.1824802164,
				"y": -1.2854901627,
				"z": -3.2262867455,
				"element": "N" 
			},
			{
				"x": 0.8591816718,
				"y": -1.8462933703,
				"z": -2.1144866628,
				"element": "C" 
			},
			{
				"x": 2.0071772153,
				"y": -2.2154264031,
				"z": -2.2451877078,
				"element": "O" 
			},
			{
				"x": 0.0752043502,
				"y": -1.928768586,
				"z": -0.9795281189,
				"element": "N" 
			},
			{
				"x": 0.4737539176,
				"y": -2.3350999729,
				"z": 0.2862204778,
				"element": "C" 
			},
			{
				"x": -0.544042617,
				"y": -2.5299952707,
				"z": 1.1390288543,
				"element": "N" 
			},
			{
				"x": -0.1976424985,
				"y": -2.9115926117,
				"z": 2.3654153816,
				"element": "C" 
			},
			{
				"x": -1.1689108113,
				"y": -3.1141369275,
				"z": 3.2929027683,
				"element": "O" 
			},
			{
				"x": -2.5026241324,
				"y": -2.9808046394,
				"z": 2.9024168788,
				"element": "C" 
			},
			{
				"x": -3.1961534492,
				"y": -2.8129418514,
				"z": 4.0413575757,
				"element": "F" 
			},
			{
				"x": -2.9152320139,
				"y": -4.1259604824,
				"z": 2.3175480818,
				"element": "F" 
			},
			{
				"x": 1.1184560729,
				"y": -3.1164179448,
				"z": 2.7762540893,
				"element": "C" 
			},
			{
				"x": 2.0672109319,
				"y": -2.8675581435,
				"z": 1.7880685319,
				"element": "C" 
			},
			{
				"x": 3.3715071541,
				"y": -3.0499744095,
				"z": 2.1121813875,
				"element": "O" 
			},
			{
				"x": 4.3385544503,
				"y": -2.7599996604,
				"z": 1.142319077,
				"element": "C" 
			},
			{
				"x": 4.6450251676,
				"y": -1.444592551,
				"z": 1.2076617028,
				"element": "F" 
			},
			{
				"x": 5.4273926656,
				"y": -3.4632339512,
				"z": 1.4982156089,
				"element": "F" 
			},
			{
				"x": 1.7697759658,
				"y": -2.4696668558,
				"z": 0.5538135061,
				"element": "N" 
			},
			{
				"x": -5.5805681868,
				"y": 3.7657353711,
				"z": -1.4241358947,
				"element": "H" 
			},
			{
				"x": -5.4332041705,
				"y": 3.2381111191,
				"z": -3.1342676514,
				"element": "H" 
			},
			{
				"x": -5.5475495134,
				"y": 2.019968369,
				"z": -1.8441681145,
				"element": "H" 
			},
			{
				"x": -1.7665119724,
				"y": 4.3399448849,
				"z": -1.7179768775,
				"element": "H" 
			},
			{
				"x": 0.674920271,
				"y": 4.7302529813,
				"z": -1.4877479428,
				"element": "H" 
			},
			{
				"x": 2.271870538,
				"y": 2.9164671066,
				"z": -2.1041709224,
				"element": "H" 
			},
			{
				"x": 1.4256171653,
				"y": 0.7499889325,
				"z": -2.8966615235,
				"element": "H" 
			},
			{
				"x": 0.7178416107,
				"y": -1.3407291378,
				"z": -4.0858969693,
				"element": "H" 
			},
			{
				"x": -0.923959313,
				"y": -1.7622841502,
				"z": -1.0900653229,
				"element": "H" 
			},
			{
				"x": -2.6605795991,
				"y": -2.143920579,
				"z": 2.2215600371,
				"element": "H" 
			},
			{
				"x": 1.3771227103,
				"y": -3.4371715044,
				"z": 3.7752007982,
				"element": "H" 
			},
			{
				"x": 4.0129537161,
				"y": -3.011874064,
				"z": 0.1330803637,
				"element": "H" 
			}
		],
		 "valence_orbital": [ 
			{
				"type": "occ",
				"energy": -0.29444,
				"method": "rhf"
			},
			{
				"type": "occ",
				"energy": -0.29109,
				"method": "rhf"
			},
			{
				"type": "occ",
				"energy": -0.28712,
				"method": "rhf"
			},
			{
				"type": "occ",
				"energy": -0.27827,
				"method": "rhf"
			},
			{
				"type": "occ",
				"energy": -0.25982,
				"method": "rhf"
			},
			{
				"type": "unocc",
				"energy": -0.07849,
				"method": "rhf"
			},
			{
				"type": "unocc",
				"energy": -0.05081,
				"method": "rhf"
			},
			{
				"type": "unocc",
				"energy": -0.04427,
				"method": "rhf"
			},
			{
				"type": "unocc",
				"energy": -0.03471,
				"method": "rhf"
			},
			{
				"type": "unocc",
				"energy": 0.01261,
				"method": "rhf"
			}
		],
		"cosmo_sigma_profile": { 
			"-0.025": 0.0,
			"-0.024": 0.0,
			"-0.023": 0.0,
			"-0.022": 0.0,
			"-0.021": 0.0,
			"-0.02": 0.0,
			"-0.019": 0.0,
			"-0.018": 0.0,
			"-0.017": 0.378688109776,
			"-0.016": 0.793960738614,
			"-0.015": 1.29621584328,
			"-0.014": 1.07825213055,
			"-0.013": 0.839353126924,
			"-0.012": 0.984821055458,
			"-0.011": 1.48587734635,
			"-0.01": 4.35063288553,
			"-0.009": 5.7036408117,
			"-0.008": 10.5309285051,
			"-0.007": 16.8825557006,
			"-0.006": 21.5055554886,
			"-0.005": 22.7644707892,
			"-0.004": 29.290620825,
			"-0.003": 30.1079919921,
			"-0.002": 28.5997025326,
			"-0.001": 28.1879034873,
			"0.0": 29.3410694367,
			"0.001": 29.6678327662,
			"0.002": 25.2179595508,
			"0.003": 50.0611028777,
			"0.004": 25.7624905917,
			"0.005": 10.3170010986,
			"0.006": 8.56762842972,
			"0.007": 7.7136324828,
			"0.008": 6.42332074059,
			"0.009": 10.3658730247,
			"0.01": 11.2883713386,
			"0.011": 10.9090597618,
			"0.012": 4.28523909983,
			"0.013": 0.555383818565,
			"0.014": 0.0,
			"0.015": 0.0,
			"0.016": 0.0,
			"0.017": 0.0,
			"0.018": 0.0,
			"0.019": 0.0,
			"0.02": 0.0,
			"0.021": 0.0,
			"0.022": 0.0,
			"0.023": 0.0,
			"0.024": 0.0,
			"0.025": 0.0
		}
	}
}
