{
	 "smiles": "CC(=O)O[Si](C)(C)C", 
	 "Tm": 241.15, 
	 "num_atms": 20, 
	 "gaussian": { 
		 "optdone": 1, 
		 "sigma_profile": "yes", 
		 "theory": "DFT", 
		 "functional": "B3LYP", 
		 "basiset": "6-31G**", 
		 "properties": { 
			 "R2extent": 1725.3167, 
			 "electric_dipole_moment_norm": 1.71669692724, 
			 "electric_quadrupole_moment_norm": 9.58011609533, 
			 "total_energy": -637.81296897, 
			 "HOMO_LUMO_gap": 0.27623, 
			 "cosmo_polarized_energy": -6.21, 
			 "cosmo_cavitation_energy": 24.59, 
			 "cosmo_dispersion_energy": -15.32, 
			 "cosmo_repulsion_energy": 1.43, 
			 "cosmo_total_nonelectrostatic_energy": 10.7, 
			 "SMD_solvation_energy": 6.99 
		},
		"coords": [
			{
				"x": 0.1964743635,
				"y": -1.4755673546,
				"z": 3.3795225785,
				"element": "C" 
			},
			{
				"x": 0.2031954544,
				"y": -1.599080745,
				"z": 1.8736309187,
				"element": "C" 
			},
			{
				"x": -0.3043415807,
				"y": -2.5137901784,
				"z": 1.255813083,
				"element": "O" 
			},
			{
				"x": 0.8431456215,
				"y": -0.5686673337,
				"z": 1.2826091923,
				"element": "O" 
			},
			{
				"x": 1.0086993814,
				"y": -0.4417829688,
				"z": -0.4354477998,
				"element": "Si" 
			},
			{
				"x": -0.6932222369,
				"y": -0.3204787589,
				"z": -1.2218251692,
				"element": "C" 
			},
			{
				"x": 1.9640531319,
				"y": 1.1656205467,
				"z": -0.6238161972,
				"element": "C" 
			},
			{
				"x": 1.9980241621,
				"y": -1.903508533,
				"z": -1.0790806487,
				"element": "C" 
			},
			{
				"x": 1.224048715,
				"y": -1.4352224784,
				"z": 3.7533425222,
				"element": "H" 
			},
			{
				"x": -0.2901367587,
				"y": -0.5405680956,
				"z": 3.6732244743,
				"element": "H" 
			},
			{
				"x": -0.3279685955,
				"y": -2.3239043016,
				"z": 3.8182380125,
				"element": "H" 
			},
			{
				"x": -1.2535737768,
				"y": 0.5318966445,
				"z": -0.8228738893,
				"element": "H" 
			},
			{
				"x": -0.6101292515,
				"y": -0.1843900801,
				"z": -2.3063004348,
				"element": "H" 
			},
			{
				"x": -1.2714622387,
				"y": -1.2285136553,
				"z": -1.032592959,
				"element": "H" 
			},
			{
				"x": 2.9336881999,
				"y": 1.1127712062,
				"z": -0.1180289329,
				"element": "H" 
			},
			{
				"x": 1.410106073,
				"y": 2.0086311624,
				"z": -0.1980405842,
				"element": "H" 
			},
			{
				"x": 2.1505398909,
				"y": 1.3884449118,
				"z": -1.6804965904,
				"element": "H" 
			},
			{
				"x": 2.1609661918,
				"y": -1.8153756628,
				"z": -2.1594436676,
				"element": "H" 
			},
			{
				"x": 1.4709695911,
				"y": -2.8415189907,
				"z": -0.8864776366,
				"element": "H" 
			},
			{
				"x": 2.9810236622,
				"y": -1.9580953347,
				"z": -0.5990562713,
				"element": "H" 
			}
		],
		 "valence_orbital": [ 
			{
				"type": "occ",
				"energy": -0.33747,
				"method": "rhf"
			},
			{
				"type": "occ",
				"energy": -0.32198,
				"method": "rhf"
			},
			{
				"type": "occ",
				"energy": -0.29973,
				"method": "rhf"
			},
			{
				"type": "occ",
				"energy": -0.28982,
				"method": "rhf"
			},
			{
				"type": "occ",
				"energy": -0.26481,
				"method": "rhf"
			},
			{
				"type": "unocc",
				"energy": 0.01142,
				"method": "rhf"
			},
			{
				"type": "unocc",
				"energy": 0.07229,
				"method": "rhf"
			},
			{
				"type": "unocc",
				"energy": 0.07856,
				"method": "rhf"
			},
			{
				"type": "unocc",
				"energy": 0.10684,
				"method": "rhf"
			},
			{
				"type": "unocc",
				"energy": 0.11314,
				"method": "rhf"
			}
		],
		"cosmo_sigma_profile": { 
			"-0.025": 0.0,
			"-0.024": 0.0,
			"-0.023": 0.0,
			"-0.022": 0.0,
			"-0.021": 0.0,
			"-0.02": 0.0,
			"-0.019": 0.0,
			"-0.018": 0.0,
			"-0.017": 0.0,
			"-0.016": 0.0,
			"-0.015": 0.0,
			"-0.014": 0.0,
			"-0.013": 0.0,
			"-0.012": 0.0,
			"-0.011": 0.0,
			"-0.01": 0.0,
			"-0.009": 0.0,
			"-0.008": 0.0,
			"-0.007": 0.446279538507,
			"-0.006": 3.98511902679,
			"-0.005": 7.76381965737,
			"-0.004": 18.4140228643,
			"-0.003": 23.8723623901,
			"-0.002": 22.4009681801,
			"-0.001": 24.1259108427,
			"0.0": 21.7389943328,
			"0.001": 22.2845707912,
			"0.002": 10.5350050985,
			"0.003": 5.41438212975,
			"0.004": 4.28816699747,
			"0.005": 3.3377263337,
			"0.006": 3.14490324944,
			"0.007": 2.70520512652,
			"0.008": 2.10413865375,
			"0.009": 3.15429706467,
			"0.01": 2.38732882141,
			"0.011": 2.04686166425,
			"0.012": 2.99830909794,
			"0.013": 1.67229834345,
			"0.014": 0.105002631289,
			"0.015": 0.0,
			"0.016": 0.0,
			"0.017": 0.0,
			"0.018": 0.0,
			"0.019": 0.0,
			"0.02": 0.0,
			"0.021": 0.0,
			"0.022": 0.0,
			"0.023": 0.0,
			"0.024": 0.0,
			"0.025": 0.0
		}
	}
}
