{
	 "smiles": "[O-][N+](=O)C1=C(Cl)C=CC(CN2C=CC=CC2=O)=C1", 
	 "Tm": 366.15, 
	 "num_atms": 27, 
	 "gaussian": { 
		 "optdone": 1, 
		 "sigma_profile": "yes", 
		 "theory": "DFT", 
		 "functional": "B3LYP", 
		 "basiset": "6-31G**", 
		 "properties": { 
			 "R2extent": 7247.3654, 
			 "electric_dipole_moment_norm": 7.92113509353, 
			 "electric_quadrupole_moment_norm": 25.5415381477, 
			 "total_energy": -1257.95864162, 
			 "HOMO_LUMO_gap": 0.14077, 
			 "cosmo_polarized_energy": -18.92, 
			 "cosmo_cavitation_energy": 34.21, 
			 "cosmo_dispersion_energy": -24.26, 
			 "cosmo_repulsion_energy": 1.86, 
			 "cosmo_total_nonelectrostatic_energy": 11.81, 
			 "SMD_solvation_energy": 8.38 
		},
		"coords": [
			{
				"x": 0.7943963,
				"y": 4.8591039272,
				"z": -2.3726347264,
				"element": "O" 
			},
			{
				"x": -0.2234117836,
				"y": 4.2518739419,
				"z": -2.055838857,
				"element": "N" 
			},
			{
				"x": -1.1930205341,
				"y": 4.7362988666,
				"z": -1.4761578616,
				"element": "O" 
			},
			{
				"x": -0.2859628999,
				"y": 2.8092654751,
				"z": -2.3569042667,
				"element": "C" 
			},
			{
				"x": 0.2425207886,
				"y": 2.2586894927,
				"z": -3.5346810307,
				"element": "C" 
			},
			{
				"x": 0.9460765099,
				"y": 3.212391412,
				"z": -4.8119890912,
				"element": "Cl" 
			},
			{
				"x": 0.145642201,
				"y": 0.8795569468,
				"z": -3.7257262419,
				"element": "C" 
			},
			{
				"x": -0.4423628704,
				"y": 0.0715961424,
				"z": -2.7546928848,
				"element": "C" 
			},
			{
				"x": -0.9701828766,
				"y": 0.6193646126,
				"z": -1.5806961614,
				"element": "C" 
			},
			{
				"x": -1.6113448725,
				"y": -0.262607025,
				"z": -0.5271848461,
				"element": "C" 
			},
			{
				"x": -0.7819558555,
				"y": -0.4324293766,
				"z": 0.6810522045,
				"element": "N" 
			},
			{
				"x": 0.1391040045,
				"y": -1.4415190214,
				"z": 0.7489312657,
				"element": "C" 
			},
			{
				"x": 0.9149253385,
				"y": -1.6340589979,
				"z": 1.8542586184,
				"element": "C" 
			},
			{
				"x": 0.7442762133,
				"y": -0.7512646551,
				"z": 2.9580168772,
				"element": "C" 
			},
			{
				"x": -0.1691267702,
				"y": 0.262558607,
				"z": 2.905747439,
				"element": "C" 
			},
			{
				"x": -0.9874007467,
				"y": 0.4991877061,
				"z": 1.7352895246,
				"element": "C" 
			},
			{
				"x": -1.8069262407,
				"y": 1.4110512221,
				"z": 1.6010683142,
				"element": "O" 
			},
			{
				"x": -0.9002445494,
				"y": 2.0039365799,
				"z": -1.3999111076,
				"element": "C" 
			},
			{
				"x": 0.5309140313,
				"y": 0.4493795691,
				"z": -4.6431930692,
				"element": "H" 
			},
			{
				"x": -0.5011332666,
				"y": -0.9998090128,
				"z": -2.9281125156,
				"element": "H" 
			},
			{
				"x": -1.8097917511,
				"y": -1.2558504536,
				"z": -0.9381360108,
				"element": "H" 
			},
			{
				"x": -2.5514257564,
				"y": 0.1762039842,
				"z": -0.1886961174,
				"element": "H" 
			},
			{
				"x": 0.2075874236,
				"y": -2.0749544974,
				"z": -0.1290846829,
				"element": "H" 
			},
			{
				"x": 1.6326726914,
				"y": -2.444336762,
				"z": 1.8789825344,
				"element": "H" 
			},
			{
				"x": 1.3488017692,
				"y": -0.8886458698,
				"z": 3.8505426334,
				"element": "H" 
			},
			{
				"x": -0.3188543307,
				"y": 0.9502234971,
				"z": 3.7298198349,
				"element": "H" 
			},
			{
				"x": -1.3143721668,
				"y": 2.4596936888,
				"z": -0.5070697749,
				"element": "H" 
			}
		],
		 "valence_orbital": [ 
			{
				"type": "occ",
				"energy": -0.29795,
				"method": "rhf"
			},
			{
				"type": "occ",
				"energy": -0.27843,
				"method": "rhf"
			},
			{
				"type": "occ",
				"energy": -0.27084,
				"method": "rhf"
			},
			{
				"type": "occ",
				"energy": -0.25839,
				"method": "rhf"
			},
			{
				"type": "occ",
				"energy": -0.2267,
				"method": "rhf"
			},
			{
				"type": "unocc",
				"energy": -0.08593,
				"method": "rhf"
			},
			{
				"type": "unocc",
				"energy": -0.0514,
				"method": "rhf"
			},
			{
				"type": "unocc",
				"energy": -0.0422,
				"method": "rhf"
			},
			{
				"type": "unocc",
				"energy": -0.01897,
				"method": "rhf"
			},
			{
				"type": "unocc",
				"energy": 0.0033,
				"method": "rhf"
			}
		],
		"cosmo_sigma_profile": { 
			"-0.025": 0.0,
			"-0.024": 0.0,
			"-0.023": 0.0,
			"-0.022": 0.0,
			"-0.021": 0.0,
			"-0.02": 0.0,
			"-0.019": 0.0,
			"-0.018": 0.0,
			"-0.017": 0.0,
			"-0.016": 0.0,
			"-0.015": 0.0,
			"-0.014": 0.0,
			"-0.013": 0.0,
			"-0.012": 0.0,
			"-0.011": 0.289811886876,
			"-0.01": 2.39719493522,
			"-0.009": 5.12149715945,
			"-0.008": 8.93656205108,
			"-0.007": 13.5954925898,
			"-0.006": 15.2295440146,
			"-0.005": 15.5578596357,
			"-0.004": 15.2634106474,
			"-0.003": 15.4608804634,
			"-0.002": 16.1821275141,
			"-0.001": 23.0581673073,
			"0.0": 27.5215671921,
			"0.001": 21.8844558995,
			"0.002": 17.7371406482,
			"0.003": 20.1057227506,
			"0.004": 9.12722878988,
			"0.005": 5.66126398776,
			"0.006": 6.59586367764,
			"0.007": 11.3957744908,
			"0.008": 9.39322703229,
			"0.009": 5.5655207547,
			"0.01": 1.87812260724,
			"0.011": 0.633184471316,
			"0.012": 1.77178794366,
			"0.013": 2.18051603801,
			"0.014": 2.70613111461,
			"0.015": 1.77735749301,
			"0.016": 0.208124249938,
			"0.017": 0.0,
			"0.018": 0.0,
			"0.019": 0.0,
			"0.02": 0.0,
			"0.021": 0.0,
			"0.022": 0.0,
			"0.023": 0.0,
			"0.024": 0.0,
			"0.025": 0.0
		}
	}
}
