{
	 "smiles": "CC1(NC(=O)NC1=O)C1=CC2=C(OCCO2)C=C1", 
	 "Tm": 454.15, 
	 "num_atms": 30, 
	 "gaussian": { 
		 "optdone": 1, 
		 "sigma_profile": "yes", 
		 "theory": "DFT", 
		 "functional": "B3LYP", 
		 "basiset": "6-31G**", 
		 "properties": { 
			 "R2extent": 5256.9953, 
			 "electric_dipole_moment_norm": 3.6264437263, 
			 "electric_quadrupole_moment_norm": 16.4734868562, 
			 "total_energy": -874.931245483, 
			 "HOMO_LUMO_gap": 0.19906, 
			 "cosmo_polarized_energy": -19.48, 
			 "cosmo_cavitation_energy": 33.49, 
			 "cosmo_dispersion_energy": -24.49, 
			 "cosmo_repulsion_energy": 1.89, 
			 "cosmo_total_nonelectrostatic_energy": 10.89, 
			 "SMD_solvation_energy": 7.67 
		},
		"coords": [
			{
				"x": 2.0481816604,
				"y": 1.370207292,
				"z": -2.6875590999,
				"element": "C" 
			},
			{
				"x": 1.0391044817,
				"y": 0.2960843128,
				"z": -2.2311374895,
				"element": "C" 
			},
			{
				"x": -0.2857454325,
				"y": 0.533911512,
				"z": -2.8009320859,
				"element": "N" 
			},
			{
				"x": -0.681351953,
				"y": -0.4107566132,
				"z": -3.7146824041,
				"element": "C" 
			},
			{
				"x": -1.6784222085,
				"y": -0.4265613968,
				"z": -4.4051697982,
				"element": "O" 
			},
			{
				"x": 0.3324145608,
				"y": -1.3917887175,
				"z": -3.6979542411,
				"element": "N" 
			},
			{
				"x": 1.4032741929,
				"y": -1.0594624072,
				"z": -2.8990422034,
				"element": "C" 
			},
			{
				"x": 2.4344520596,
				"y": -1.6826202299,
				"z": -2.7604990759,
				"element": "O" 
			},
			{
				"x": 1.0204599637,
				"y": 0.1558080702,
				"z": -0.70406169,
				"element": "C" 
			},
			{
				"x": -0.1466838595,
				"y": 0.3873122134,
				"z": 0.0263930637,
				"element": "C" 
			},
			{
				"x": -0.1480293464,
				"y": 0.2904967449,
				"z": 1.4183409465,
				"element": "C" 
			},
			{
				"x": 1.0330740149,
				"y": -0.0403790989,
				"z": 2.1006885444,
				"element": "C" 
			},
			{
				"x": 1.0823305116,
				"y": -0.1308203267,
				"z": 3.4697265016,
				"element": "O" 
			},
			{
				"x": -0.0388912982,
				"y": 0.4593755618,
				"z": 4.1278400324,
				"element": "C" 
			},
			{
				"x": -1.3290205263,
				"y": 0.0570665471,
				"z": 3.4310385801,
				"element": "C" 
			},
			{
				"x": -1.3273415677,
				"y": 0.5279145209,
				"z": 2.083213748,
				"element": "O" 
			},
			{
				"x": 2.1941581806,
				"y": -0.2987236634,
				"z": 1.3705569397,
				"element": "C" 
			},
			{
				"x": 2.1915886596,
				"y": -0.2038609304,
				"z": -0.0175040877,
				"element": "C" 
			},
			{
				"x": 3.0563579088,
				"y": 1.1061266362,
				"z": -2.3631212319,
				"element": "H" 
			},
			{
				"x": 1.7864612657,
				"y": 2.3380106059,
				"z": -2.2491283543,
				"element": "H" 
			},
			{
				"x": 2.0454847617,
				"y": 1.4618108515,
				"z": -3.7780592809,
				"element": "H" 
			},
			{
				"x": -0.7488669618,
				"y": 1.4296252588,
				"z": -2.7846342114,
				"element": "H" 
			},
			{
				"x": 0.2916818685,
				"y": -2.2174506035,
				"z": -4.2781503371,
				"element": "H" 
			},
			{
				"x": -1.0821552498,
				"y": 0.6276446332,
				"z": -0.4653105317,
				"element": "H" 
			},
			{
				"x": 0.0603454082,
				"y": 1.5535845617,
				"z": 4.125824447,
				"element": "H" 
			},
			{
				"x": -0.0163169109,
				"y": 0.1018777531,
				"z": 5.1604309751,
				"element": "H" 
			},
			{
				"x": -2.1992314587,
				"y": 0.5065188632,
				"z": 3.9159758453,
				"element": "H" 
			},
			{
				"x": -1.4360323304,
				"y": -1.0362382805,
				"z": 3.4451184409,
				"element": "H" 
			},
			{
				"x": 3.0932971408,
				"y": -0.5717157861,
				"z": 1.9135171073,
				"element": "H" 
			},
			{
				"x": 3.0939224642,
				"y": -0.4371978847,
				"z": -0.570419049,
				"element": "H" 
			}
		],
		 "valence_orbital": [ 
			{
				"type": "occ",
				"energy": -0.28726,
				"method": "rhf"
			},
			{
				"type": "occ",
				"energy": -0.27013,
				"method": "rhf"
			},
			{
				"type": "occ",
				"energy": -0.2622,
				"method": "rhf"
			},
			{
				"type": "occ",
				"energy": -0.23845,
				"method": "rhf"
			},
			{
				"type": "occ",
				"energy": -0.2138,
				"method": "rhf"
			},
			{
				"type": "unocc",
				"energy": -0.01474,
				"method": "rhf"
			},
			{
				"type": "unocc",
				"energy": -0.00156,
				"method": "rhf"
			},
			{
				"type": "unocc",
				"energy": 0.01188,
				"method": "rhf"
			},
			{
				"type": "unocc",
				"energy": 0.06125,
				"method": "rhf"
			},
			{
				"type": "unocc",
				"energy": 0.07433,
				"method": "rhf"
			}
		],
		"cosmo_sigma_profile": { 
			"-0.025": 0.0,
			"-0.024": 0.0,
			"-0.023": 0.0,
			"-0.022": 0.0,
			"-0.021": 0.0,
			"-0.02": 0.0,
			"-0.019": 0.0,
			"-0.018": 0.0,
			"-0.017": 0.460747798135,
			"-0.016": 1.33184693259,
			"-0.015": 2.11791207008,
			"-0.014": 2.05151462656,
			"-0.013": 2.19931683916,
			"-0.012": 1.3592425042,
			"-0.011": 1.89215770548,
			"-0.01": 2.19959824831,
			"-0.009": 2.25324849763,
			"-0.008": 2.4109980999,
			"-0.007": 9.46192332711,
			"-0.006": 17.3025809323,
			"-0.005": 21.5895641062,
			"-0.004": 20.7158449156,
			"-0.003": 17.3503294186,
			"-0.002": 17.4261352733,
			"-0.001": 18.4714177473,
			"0.0": 12.1596476607,
			"0.001": 11.2452799066,
			"0.002": 11.4618210947,
			"0.003": 13.7711561286,
			"0.004": 14.9832867715,
			"0.005": 11.2127340307,
			"0.006": 6.0901019538,
			"0.007": 5.37411128515,
			"0.008": 5.01786474269,
			"0.009": 5.44137123844,
			"0.01": 6.77225830555,
			"0.011": 6.22316211411,
			"0.012": 8.42006816598,
			"0.013": 6.15081066449,
			"0.014": 0.587935114701,
			"0.015": 0.0,
			"0.016": 0.0,
			"0.017": 0.0,
			"0.018": 0.0,
			"0.019": 0.0,
			"0.02": 0.0,
			"0.021": 0.0,
			"0.022": 0.0,
			"0.023": 0.0,
			"0.024": 0.0,
			"0.025": 0.0
		}
	}
}
