{
	 "smiles": "ON=C(C(=O)C1=CC=C2CCC3=C2C1=CC=C3)C1=CC=CC=C1", 
	 "Tm": 477.15, 
	 "num_atms": 38, 
	 "gaussian": { 
		 "optdone": 1, 
		 "sigma_profile": "yes", 
		 "theory": "DFT", 
		 "functional": "B3LYP", 
		 "basiset": "6-31G**", 
		 "properties": { 
			 "R2extent": 7095.2506, 
			 "electric_dipole_moment_norm": 4.29850743398, 
			 "electric_quadrupole_moment_norm": 16.9552034169, 
			 "total_energy": -976.310221215, 
			 "HOMO_LUMO_gap": 0.14804, 
			 "cosmo_polarized_energy": -15.4, 
			 "cosmo_cavitation_energy": 41.39, 
			 "cosmo_dispersion_energy": -28.73, 
			 "cosmo_repulsion_energy": 2.2, 
			 "cosmo_total_nonelectrostatic_energy": 14.85, 
			 "SMD_solvation_energy": 6.58 
		},
		"coords": [
			{
				"x": 4.6865382921,
				"y": -0.3867738328,
				"z": 0.362462051,
				"element": "O" 
			},
			{
				"x": 3.5958776792,
				"y": -1.2430388768,
				"z": 0.1585874988,
				"element": "N" 
			},
			{
				"x": 2.5004550299,
				"y": -0.8295277831,
				"z": 0.6898945463,
				"element": "C" 
			},
			{
				"x": 1.3556839124,
				"y": -1.8217167903,
				"z": 0.4868762526,
				"element": "C" 
			},
			{
				"x": 1.3950090618,
				"y": -2.8797538212,
				"z": 1.098543308,
				"element": "O" 
			},
			{
				"x": 0.1818251357,
				"y": -1.4532888819,
				"z": -0.3633504655,
				"element": "C" 
			},
			{
				"x": -0.9881335415,
				"y": -2.165526196,
				"z": -0.0933828811,
				"element": "C" 
			},
			{
				"x": -2.2147316598,
				"y": -1.9347189598,
				"z": -0.7511481475,
				"element": "C" 
			},
			{
				"x": -2.2632564316,
				"y": -0.957011891,
				"z": -1.7222886328,
				"element": "C" 
			},
			{
				"x": -3.3975681456,
				"y": -0.4648870496,
				"z": -2.5989875701,
				"element": "C" 
			},
			{
				"x": -2.7563750006,
				"y": 0.6416230762,
				"z": -3.5007923696,
				"element": "C" 
			},
			{
				"x": -1.3015474568,
				"y": 0.6951723933,
				"z": -3.0713475665,
				"element": "C" 
			},
			{
				"x": -1.0857796302,
				"y": -0.2417809139,
				"z": -2.0335184027,
				"element": "C" 
			},
			{
				"x": 0.1671618875,
				"y": -0.4500917182,
				"z": -1.3978828638,
				"element": "C" 
			},
			{
				"x": 1.2413205405,
				"y": 0.3364862542,
				"z": -1.9032009069,
				"element": "C" 
			},
			{
				"x": 1.0269548405,
				"y": 1.2508686392,
				"z": -2.9205441298,
				"element": "C" 
			},
			{
				"x": -0.2437081109,
				"y": 1.4538523003,
				"z": -3.5174729642,
				"element": "C" 
			},
			{
				"x": 2.2214615406,
				"y": 0.3876052527,
				"z": 1.4896042722,
				"element": "C" 
			},
			{
				"x": 1.2168265642,
				"y": 0.3248409574,
				"z": 2.4731228375,
				"element": "C" 
			},
			{
				"x": 0.9043370208,
				"y": 1.4407556346,
				"z": 3.2463123961,
				"element": "C" 
			},
			{
				"x": 1.5800468768,
				"y": 2.6447252152,
				"z": 3.0419735594,
				"element": "C" 
			},
			{
				"x": 2.5744662218,
				"y": 2.7214230266,
				"z": 2.0645701103,
				"element": "C" 
			},
			{
				"x": 2.9002335547,
				"y": 1.6052701948,
				"z": 1.2968760044,
				"element": "C" 
			},
			{
				"x": 5.4037033137,
				"y": -0.8781585997,
				"z": -0.0603415683,
				"element": "H" 
			},
			{
				"x": -0.9297070598,
				"y": -2.9276484619,
				"z": 0.6769889244,
				"element": "H" 
			},
			{
				"x": -3.0900122284,
				"y": -2.5190759381,
				"z": -0.481533787,
				"element": "H" 
			},
			{
				"x": -3.8184471405,
				"y": -1.2812582711,
				"z": -3.196972696,
				"element": "H" 
			},
			{
				"x": -4.2218598332,
				"y": -0.0682261737,
				"z": -1.9951453261,
				"element": "H" 
			},
			{
				"x": -3.250118371,
				"y": 1.6099468369,
				"z": -3.3602663177,
				"element": "H" 
			},
			{
				"x": -2.850978669,
				"y": 0.3972957669,
				"z": -4.564887849,
				"element": "H" 
			},
			{
				"x": 2.2432670105,
				"y": 0.2131157984,
				"z": -1.5159509548,
				"element": "H" 
			},
			{
				"x": 1.8708009352,
				"y": 1.8325675368,
				"z": -3.281882319,
				"element": "H" 
			},
			{
				"x": -0.3584468111,
				"y": 2.1846322299,
				"z": -4.3133726089,
				"element": "H" 
			},
			{
				"x": 0.6919930186,
				"y": -0.6093536153,
				"z": 2.6456555019,
				"element": "H" 
			},
			{
				"x": 0.1327952783,
				"y": 1.3687628057,
				"z": 4.0072722702,
				"element": "H" 
			},
			{
				"x": 1.3349387531,
				"y": 3.5170549773,
				"z": 3.6410940411,
				"element": "H" 
			},
			{
				"x": 3.1034509628,
				"y": 3.6557587357,
				"z": 1.8997119348,
				"element": "H" 
			},
			{
				"x": 3.6795226593,
				"y": 1.6709801423,
				"z": 0.5498248184,
				"element": "H" 
			}
		],
		 "valence_orbital": [ 
			{
				"type": "occ",
				"energy": -0.25302,
				"method": "rhf"
			},
			{
				"type": "occ",
				"energy": -0.24761,
				"method": "rhf"
			},
			{
				"type": "occ",
				"energy": -0.24222,
				"method": "rhf"
			},
			{
				"type": "occ",
				"energy": -0.23485,
				"method": "rhf"
			},
			{
				"type": "occ",
				"energy": -0.21186,
				"method": "rhf"
			},
			{
				"type": "unocc",
				"energy": -0.06382,
				"method": "rhf"
			},
			{
				"type": "unocc",
				"energy": -0.04008,
				"method": "rhf"
			},
			{
				"type": "unocc",
				"energy": -0.0143,
				"method": "rhf"
			},
			{
				"type": "unocc",
				"energy": -0.01096,
				"method": "rhf"
			},
			{
				"type": "unocc",
				"energy": -0.00218,
				"method": "rhf"
			}
		],
		"cosmo_sigma_profile": { 
			"-0.025": 0.0,
			"-0.024": 0.0,
			"-0.023": 0.0,
			"-0.022": 0.0,
			"-0.021": 0.0,
			"-0.02": 0.0,
			"-0.019": 0.0,
			"-0.018": 0.652990918816,
			"-0.017": 1.0262911823,
			"-0.016": 0.637716390336,
			"-0.015": 1.06904953726,
			"-0.014": 0.789876904472,
			"-0.013": 0.974334847446,
			"-0.012": 0.483505435807,
			"-0.011": 0.272134736848,
			"-0.01": 0.713279292789,
			"-0.009": 1.08431638504,
			"-0.008": 0.434410197213,
			"-0.007": 1.71535730071,
			"-0.006": 12.956354567,
			"-0.005": 24.5115824206,
			"-0.004": 32.665871224,
			"-0.003": 31.630349286,
			"-0.002": 26.8767183817,
			"-0.001": 23.9345578037,
			"0.0": 18.8323045052,
			"0.001": 20.0590769681,
			"0.002": 24.8643821238,
			"0.003": 31.607219855,
			"0.004": 29.8895348952,
			"0.005": 14.1989121509,
			"0.006": 4.76327637965,
			"0.007": 3.14072518746,
			"0.008": 3.91647565166,
			"0.009": 3.56947960842,
			"0.01": 4.70829380168,
			"0.011": 5.3133350136,
			"0.012": 3.44042510452,
			"0.013": 0.736672058866,
			"0.014": 0.0,
			"0.015": 0.0,
			"0.016": 0.0,
			"0.017": 0.0,
			"0.018": 0.0,
			"0.019": 0.0,
			"0.02": 0.0,
			"0.021": 0.0,
			"0.022": 0.0,
			"0.023": 0.0,
			"0.024": 0.0,
			"0.025": 0.0
		}
	}
}
