{
	 "smiles": "FC(F)(F)C1=CC=CC=C1Cl", 
	 "Tm": 266.45, 
	 "num_atms": 15, 
	 "gaussian": { 
		 "optdone": 1, 
		 "sigma_profile": "yes", 
		 "theory": "DFT", 
		 "functional": "B3LYP", 
		 "basiset": "6-31G**", 
		 "properties": { 
			 "R2extent": 2842.6275, 
			 "electric_dipole_moment_norm": 3.41683754516, 
			 "electric_quadrupole_moment_norm": 6.47669764386, 
			 "total_energy": -1028.87130041, 
			 "HOMO_LUMO_gap": 0.22213, 
			 "cosmo_polarized_energy": -4.42, 
			 "cosmo_cavitation_energy": 22.09, 
			 "cosmo_dispersion_energy": -16.17, 
			 "cosmo_repulsion_energy": 1.23, 
			 "cosmo_total_nonelectrostatic_energy": 7.15, 
			 "SMD_solvation_energy": 4.71 
		},
		"coords": [
			{
				"x": 2.1004125464,
				"y": 0.03516976,
				"z": -2.5794752748,
				"element": "F" 
			},
			{
				"x": 1.1946943927,
				"y": 0.3922222879,
				"z": -1.6461853436,
				"element": "C" 
			},
			{
				"x": 1.3820790494,
				"y": 1.7010455873,
				"z": -1.3802502246,
				"element": "F" 
			},
			{
				"x": -0.0265659612,
				"y": 0.2750051357,
				"z": -2.2148698706,
				"element": "F" 
			},
			{
				"x": 1.3034205476,
				"y": -0.4578064925,
				"z": -0.4002505936,
				"element": "C" 
			},
			{
				"x": 0.2036825497,
				"y": -1.222307542,
				"z": 0.0039601959,
				"element": "C" 
			},
			{
				"x": 0.2629924904,
				"y": -2.0186175191,
				"z": 1.1458021209,
				"element": "C" 
			},
			{
				"x": 1.4342294606,
				"y": -2.0575934101,
				"z": 1.900686698,
				"element": "C" 
			},
			{
				"x": 2.5412949582,
				"y": -1.3028936099,
				"z": 1.5144449302,
				"element": "C" 
			},
			{
				"x": 2.4757577264,
				"y": -0.5077681644,
				"z": 0.3705004187,
				"element": "C" 
			},
			{
				"x": 3.900882757,
				"y": 0.4171983472,
				"z": -0.0621476755,
				"element": "Cl" 
			},
			{
				"x": -0.7015006626,
				"y": -1.1844993185,
				"z": -0.5901968782,
				"element": "H" 
			},
			{
				"x": -0.6017204059,
				"y": -2.6038366449,
				"z": 1.4414864616,
				"element": "H" 
			},
			{
				"x": 1.4934032251,
				"y": -2.6740499711,
				"z": 2.7925673158,
				"element": "H" 
			},
			{
				"x": 3.4583373263,
				"y": -1.3240684453,
				"z": 2.0925277199,
				"element": "H" 
			}
		],
		 "valence_orbital": [ 
			{
				"type": "occ",
				"energy": -0.37092,
				"method": "rhf"
			},
			{
				"type": "occ",
				"energy": -0.3448,
				"method": "rhf"
			},
			{
				"type": "occ",
				"energy": -0.31917,
				"method": "rhf"
			},
			{
				"type": "occ",
				"energy": -0.2811,
				"method": "rhf"
			},
			{
				"type": "occ",
				"energy": -0.26124,
				"method": "rhf"
			},
			{
				"type": "unocc",
				"energy": -0.03911,
				"method": "rhf"
			},
			{
				"type": "unocc",
				"energy": -0.02789,
				"method": "rhf"
			},
			{
				"type": "unocc",
				"energy": 0.02046,
				"method": "rhf"
			},
			{
				"type": "unocc",
				"energy": 0.09702,
				"method": "rhf"
			},
			{
				"type": "unocc",
				"energy": 0.11368,
				"method": "rhf"
			}
		],
		"cosmo_sigma_profile": { 
			"-0.025": 0.0,
			"-0.024": 0.0,
			"-0.023": 0.0,
			"-0.022": 0.0,
			"-0.021": 0.0,
			"-0.02": 0.0,
			"-0.019": 0.0,
			"-0.018": 0.0,
			"-0.017": 0.0,
			"-0.016": 0.0,
			"-0.015": 0.0,
			"-0.014": 0.0,
			"-0.013": 0.0,
			"-0.012": 0.0,
			"-0.011": 0.0,
			"-0.01": 0.0,
			"-0.009": 0.0,
			"-0.008": 1.65157191985,
			"-0.007": 8.19563027275,
			"-0.006": 9.08321326044,
			"-0.005": 7.52126139173,
			"-0.004": 6.50780947054,
			"-0.003": 8.73778415133,
			"-0.002": 10.2628511238,
			"-0.001": 9.85089427457,
			"0.0": 17.480192054,
			"0.001": 20.3560733289,
			"0.002": 33.2256689266,
			"0.003": 32.3144085433,
			"0.004": 13.4676804926,
			"0.005": 1.51051596856,
			"0.006": 0.0,
			"0.007": 0.0,
			"0.008": 0.0,
			"0.009": 0.0,
			"0.01": 0.0,
			"0.011": 0.0,
			"0.012": 0.0,
			"0.013": 0.0,
			"0.014": 0.0,
			"0.015": 0.0,
			"0.016": 0.0,
			"0.017": 0.0,
			"0.018": 0.0,
			"0.019": 0.0,
			"0.02": 0.0,
			"0.021": 0.0,
			"0.022": 0.0,
			"0.023": 0.0,
			"0.024": 0.0,
			"0.025": 0.0
		}
	}
}
