{
	 "smiles": "COC(=O)C1=CC=C(C(=O)OC)C(N)=C1", 
	 "Tm": 406.15, 
	 "num_atms": 26, 
	 "gaussian": { 
		 "optdone": 1, 
		 "sigma_profile": "yes", 
		 "theory": "DFT", 
		 "functional": "B3LYP", 
		 "basiset": "6-31G**", 
		 "properties": { 
			 "R2extent": 4789.9991, 
			 "electric_dipole_moment_norm": 1.93294732986, 
			 "electric_quadrupole_moment_norm": 21.7165522678, 
			 "total_energy": -743.373338242, 
			 "HOMO_LUMO_gap": 0.14553, 
			 "cosmo_polarized_energy": -11.94, 
			 "cosmo_cavitation_energy": 30.67, 
			 "cosmo_dispersion_energy": -22.73, 
			 "cosmo_repulsion_energy": 1.78, 
			 "cosmo_total_nonelectrostatic_energy": 9.72, 
			 "SMD_solvation_energy": 8.24 
		},
		"coords": [
			{
				"x": 2.1765795516,
				"y": -4.4445036482,
				"z": -3.1471567458,
				"element": "C" 
			},
			{
				"x": 1.7515589153,
				"y": -3.2378459693,
				"z": -2.4961189671,
				"element": "O" 
			},
			{
				"x": 1.5954452573,
				"y": -3.3329364028,
				"z": -1.155169638,
				"element": "C" 
			},
			{
				"x": 1.7990811696,
				"y": -4.3593260266,
				"z": -0.5371766887,
				"element": "O" 
			},
			{
				"x": 1.1510238502,
				"y": -2.04932979,
				"z": -0.5335307346,
				"element": "C" 
			},
			{
				"x": 0.9610712766,
				"y": -2.0302674554,
				"z": 0.860674354,
				"element": "C" 
			},
			{
				"x": 0.55434513,
				"y": -0.8546577701,
				"z": 1.4638045607,
				"element": "C" 
			},
			{
				"x": 0.3248058084,
				"y": 0.3202043907,
				"z": 0.7202084237,
				"element": "C" 
			},
			{
				"x": -0.0830159998,
				"y": 1.5673069681,
				"z": 1.3951817633,
				"element": "C" 
			},
			{
				"x": -0.2691329982,
				"y": 2.6476971934,
				"z": 0.8428083167,
				"element": "O" 
			},
			{
				"x": -0.2370738471,
				"y": 1.4226812358,
				"z": 2.7306323214,
				"element": "O" 
			},
			{
				"x": -0.6260308721,
				"y": 2.6080992909,
				"z": 3.4392148689,
				"element": "C" 
			},
			{
				"x": 0.5076458015,
				"y": 0.3007045386,
				"z": -0.6948600804,
				"element": "C" 
			},
			{
				"x": 0.26500451,
				"y": 1.3930511338,
				"z": -1.4746563341,
				"element": "N" 
			},
			{
				"x": 0.9287380121,
				"y": -0.9086145516,
				"z": -1.2940054949,
				"element": "C" 
			},
			{
				"x": 2.2510430633,
				"y": -4.1972517745,
				"z": -4.2061481407,
				"element": "H" 
			},
			{
				"x": 1.4485152643,
				"y": -5.2442567669,
				"z": -2.9895794894,
				"element": "H" 
			},
			{
				"x": 3.1450392785,
				"y": -4.7708278439,
				"z": -2.7596674678,
				"element": "H" 
			},
			{
				"x": 1.1393734575,
				"y": -2.9334683103,
				"z": 1.431284529,
				"element": "H" 
			},
			{
				"x": 0.4076300874,
				"y": -0.8164320135,
				"z": 2.536528677,
				"element": "H" 
			},
			{
				"x": 0.1248122528,
				"y": 3.3935009452,
				"z": 3.3211148993,
				"element": "H" 
			},
			{
				"x": -1.5852544928,
				"y": 2.9811951178,
				"z": 3.071667289,
				"element": "H" 
			},
			{
				"x": -0.7064216362,
				"y": 2.30993595,
				"z": 4.4845344067,
				"element": "H" 
			},
			{
				"x": 0.5644341713,
				"y": 1.3846471977,
				"z": -2.4352411651,
				"element": "H" 
			},
			{
				"x": 0.078425892,
				"y": 2.2712327893,
				"z": -1.0078619946,
				"element": "H" 
			},
			{
				"x": 1.0747570965,
				"y": -0.9425384281,
				"z": -2.3681814686,
				"element": "H" 
			}
		],
		 "valence_orbital": [ 
			{
				"type": "occ",
				"energy": -0.30092,
				"method": "rhf"
			},
			{
				"type": "occ",
				"energy": -0.27841,
				"method": "rhf"
			},
			{
				"type": "occ",
				"energy": -0.27305,
				"method": "rhf"
			},
			{
				"type": "occ",
				"energy": -0.26033,
				"method": "rhf"
			},
			{
				"type": "occ",
				"energy": -0.2074,
				"method": "rhf"
			},
			{
				"type": "unocc",
				"energy": -0.06187,
				"method": "rhf"
			},
			{
				"type": "unocc",
				"energy": 0.00847,
				"method": "rhf"
			},
			{
				"type": "unocc",
				"energy": 0.01748,
				"method": "rhf"
			},
			{
				"type": "unocc",
				"energy": 0.09048,
				"method": "rhf"
			},
			{
				"type": "unocc",
				"energy": 0.09228,
				"method": "rhf"
			}
		],
		"cosmo_sigma_profile": { 
			"-0.025": 0.0,
			"-0.024": 0.0,
			"-0.023": 0.0,
			"-0.022": 0.0,
			"-0.021": 0.0,
			"-0.02": 0.0,
			"-0.019": 0.0,
			"-0.018": 0.0,
			"-0.017": 0.0,
			"-0.016": 0.0,
			"-0.015": 0.0,
			"-0.014": 0.519183246163,
			"-0.013": 1.42358830151,
			"-0.012": 1.38382653797,
			"-0.011": 1.63573498303,
			"-0.01": 1.18823151667,
			"-0.009": 2.00639399343,
			"-0.008": 2.53388162697,
			"-0.007": 3.43615723067,
			"-0.006": 11.8296717582,
			"-0.005": 16.1482895546,
			"-0.004": 22.8885927357,
			"-0.003": 22.2194300471,
			"-0.002": 16.1419228362,
			"-0.001": 15.1345984338,
			"0.0": 14.2464137121,
			"0.001": 17.0742551081,
			"0.002": 21.3760965824,
			"0.003": 20.6633925836,
			"0.004": 13.033910637,
			"0.005": 8.72606052621,
			"0.006": 6.64419827512,
			"0.007": 3.15719641302,
			"0.008": 3.20422121427,
			"0.009": 3.95343413502,
			"0.01": 3.45560865996,
			"0.011": 5.45006243988,
			"0.012": 4.75693726563,
			"0.013": 0.0316388685935,
			"0.014": 0.0,
			"0.015": 0.0,
			"0.016": 0.0,
			"0.017": 0.0,
			"0.018": 0.0,
			"0.019": 0.0,
			"0.02": 0.0,
			"0.021": 0.0,
			"0.022": 0.0,
			"0.023": 0.0,
			"0.024": 0.0,
			"0.025": 0.0
		}
	}
}
