{
	 "smiles": "CC1=NC2=C(C3=C(CCCCC3)S2)C(=O)N1N", 
	 "Tm": 473.15, 
	 "num_atms": 32, 
	 "gaussian": { 
		 "optdone": 1, 
		 "sigma_profile": "yes", 
		 "theory": "DFT", 
		 "functional": "B3LYP", 
		 "basiset": "6-31G**", 
		 "properties": { 
			 "R2extent": 4955.0892, 
			 "electric_dipole_moment_norm": 0.533865694721, 
			 "electric_quadrupole_moment_norm": 16.3209331826, 
			 "total_energy": -1103.99533419, 
			 "HOMO_LUMO_gap": 0.1703, 
			 "cosmo_polarized_energy": -10.71, 
			 "cosmo_cavitation_energy": 34.52, 
			 "cosmo_dispersion_energy": -26.08, 
			 "cosmo_repulsion_energy": 1.97, 
			 "cosmo_total_nonelectrostatic_energy": 10.41, 
			 "SMD_solvation_energy": 3.89 
		},
		"coords": [
			{
				"x": -2.2730114411,
				"y": -1.1684200739,
				"z": 4.336769827,
				"element": "C" 
			},
			{
				"x": -1.5349023451,
				"y": -0.6865534861,
				"z": 3.1229794961,
				"element": "C" 
			},
			{
				"x": -2.1731954398,
				"y": -0.5428035836,
				"z": 1.9919395816,
				"element": "N" 
			},
			{
				"x": -1.436557024,
				"y": -0.1006495867,
				"z": 0.9399582313,
				"element": "C" 
			},
			{
				"x": -0.078428388,
				"y": 0.2165895703,
				"z": 0.9330253228,
				"element": "C" 
			},
			{
				"x": 0.4068135276,
				"y": 0.6592029896,
				"z": -0.3507662796,
				"element": "C" 
			},
			{
				"x": -0.592270457,
				"y": 0.6680901945,
				"z": -1.290362058,
				"element": "C" 
			},
			{
				"x": -0.4972397346,
				"y": 1.0691915448,
				"z": -2.7389931608,
				"element": "C" 
			},
			{
				"x": 0.5748601697,
				"y": 0.3057222296,
				"z": -3.5426024377,
				"element": "C" 
			},
			{
				"x": 2.0274369203,
				"y": 0.6721976843,
				"z": -3.2007757596,
				"element": "C" 
			},
			{
				"x": 2.510256008,
				"y": 0.3038279395,
				"z": -1.7888886289,
				"element": "C" 
			},
			{
				"x": 1.8356722763,
				"y": 1.0694168221,
				"z": -0.6335513686,
				"element": "C" 
			},
			{
				"x": -2.1370277829,
				"y": 0.1385187787,
				"z": -0.6371200857,
				"element": "S" 
			},
			{
				"x": 0.6418764297,
				"y": 0.0604419215,
				"z": 2.1765889169,
				"element": "C" 
			},
			{
				"x": 1.8295266409,
				"y": 0.2765383809,
				"z": 2.4145488574,
				"element": "O" 
			},
			{
				"x": -0.1884809339,
				"y": -0.4085542151,
				"z": 3.2389272995,
				"element": "N" 
			},
			{
				"x": 0.4271138519,
				"y": -0.590527426,
				"z": 4.5005165389,
				"element": "N" 
			},
			{
				"x": -3.3143796748,
				"y": -1.3248569442,
				"z": 4.0560797437,
				"element": "H" 
			},
			{
				"x": -1.8465497415,
				"y": -2.1016053465,
				"z": 4.7159139793,
				"element": "H" 
			},
			{
				"x": -2.2103116017,
				"y": -0.442100307,
				"z": 5.1518602847,
				"element": "H" 
			},
			{
				"x": -1.4715806152,
				"y": 0.9236552313,
				"z": -3.2183300821,
				"element": "H" 
			},
			{
				"x": -0.2893062449,
				"y": 2.1478683084,
				"z": -2.8034910563,
				"element": "H" 
			},
			{
				"x": 0.4090243574,
				"y": 0.516040542,
				"z": -4.6068724733,
				"element": "H" 
			},
			{
				"x": 0.4206776302,
				"y": -0.7728146414,
				"z": -3.4100325745,
				"element": "H" 
			},
			{
				"x": 2.6838564633,
				"y": 0.1810430475,
				"z": -3.9304873241,
				"element": "H" 
			},
			{
				"x": 2.1646974953,
				"y": 1.7533028979,
				"z": -3.3520896292,
				"element": "H" 
			},
			{
				"x": 3.5880211338,
				"y": 0.5034039913,
				"z": -1.7381671978,
				"element": "H" 
			},
			{
				"x": 2.389299421,
				"y": -0.7751078331,
				"z": -1.6254769216,
				"element": "H" 
			},
			{
				"x": 2.414140636,
				"y": 0.9301690012,
				"z": 0.2813913032,
				"element": "H" 
			},
			{
				"x": 1.8652400426,
				"y": 2.1461030722,
				"z": -0.8595101095,
				"element": "H" 
			},
			{
				"x": 0.9103214402,
				"y": 0.2857520644,
				"z": 4.7032445346,
				"element": "H" 
			},
			{
				"x": 1.1851069804,
				"y": -1.2587827683,
				"z": 4.3532732304,
				"element": "H" 
			}
		],
		 "valence_orbital": [ 
			{
				"type": "occ",
				"energy": -0.27931,
				"method": "rhf"
			},
			{
				"type": "occ",
				"energy": -0.27327,
				"method": "rhf"
			},
			{
				"type": "occ",
				"energy": -0.26357,
				"method": "rhf"
			},
			{
				"type": "occ",
				"energy": -0.2503,
				"method": "rhf"
			},
			{
				"type": "occ",
				"energy": -0.20732,
				"method": "rhf"
			},
			{
				"type": "unocc",
				"energy": -0.03702,
				"method": "rhf"
			},
			{
				"type": "unocc",
				"energy": -0.00626,
				"method": "rhf"
			},
			{
				"type": "unocc",
				"energy": 0.02075,
				"method": "rhf"
			},
			{
				"type": "unocc",
				"energy": 0.03188,
				"method": "rhf"
			},
			{
				"type": "unocc",
				"energy": 0.07459,
				"method": "rhf"
			}
		],
		"cosmo_sigma_profile": { 
			"-0.025": 0.0,
			"-0.024": 0.0,
			"-0.023": 0.0,
			"-0.022": 0.0,
			"-0.021": 0.0,
			"-0.02": 0.0,
			"-0.019": 0.0,
			"-0.018": 0.0,
			"-0.017": 0.0,
			"-0.016": 0.0,
			"-0.015": 0.0,
			"-0.014": 0.0,
			"-0.013": 0.0699227175422,
			"-0.012": 2.24303651066,
			"-0.011": 3.12998931136,
			"-0.01": 2.07286666501,
			"-0.009": 1.79617996825,
			"-0.008": 2.56218122208,
			"-0.007": 1.83328362672,
			"-0.006": 3.78176704923,
			"-0.005": 8.66498987381,
			"-0.004": 15.3756430465,
			"-0.003": 24.3771843503,
			"-0.002": 35.9744242161,
			"-0.001": 38.6433256356,
			"0.0": 30.0384631556,
			"0.001": 24.5063967693,
			"0.002": 18.5574656868,
			"0.003": 16.426116947,
			"0.004": 10.4514952619,
			"0.005": 5.30832601718,
			"0.006": 3.42405855156,
			"0.007": 3.15532072141,
			"0.008": 3.22201365803,
			"0.009": 3.48973584653,
			"0.01": 2.79902526453,
			"0.011": 3.58083744283,
			"0.012": 3.77738379963,
			"0.013": 3.6706681162,
			"0.014": 0.399560200234,
			"0.015": 0.0,
			"0.016": 0.0,
			"0.017": 0.0,
			"0.018": 0.0,
			"0.019": 0.0,
			"0.02": 0.0,
			"0.021": 0.0,
			"0.022": 0.0,
			"0.023": 0.0,
			"0.024": 0.0,
			"0.025": 0.0
		}
	}
}
