{
	 "smiles": "OC(C1=CC=CC=C1)C1=CC=C(C=C1)C(F)(F)F", 
	 "Tm": 333.15, 
	 "num_atms": 29, 
	 "gaussian": { 
		 "optdone": 1, 
		 "sigma_profile": "yes", 
		 "theory": "DFT", 
		 "functional": "B3LYP", 
		 "basiset": "6-31G**", 
		 "properties": { 
			 "R2extent": 6243.2672, 
			 "electric_dipole_moment_norm": 4.31334336449, 
			 "electric_quadrupole_moment_norm": 6.57937350285, 
			 "total_energy": -914.867282701, 
			 "HOMO_LUMO_gap": 0.22205, 
			 "cosmo_polarized_energy": -8.99, 
			 "cosmo_cavitation_energy": 34.62, 
			 "cosmo_dispersion_energy": -24.02, 
			 "cosmo_repulsion_energy": 1.8, 
			 "cosmo_total_nonelectrostatic_energy": 12.4, 
			 "SMD_solvation_energy": 6.93 
		},
		"coords": [
			{
				"x": 1.3694317699,
				"y": 1.0007447123,
				"z": 2.8521141207,
				"element": "O" 
			},
			{
				"x": 1.6383979395,
				"y": 1.3766367402,
				"z": 1.5045378738,
				"element": "C" 
			},
			{
				"x": 2.6768228145,
				"y": 0.4594963479,
				"z": 0.8690464952,
				"element": "C" 
			},
			{
				"x": 3.8064382393,
				"y": 0.9855687462,
				"z": 0.2344354992,
				"element": "C" 
			},
			{
				"x": 4.7567891898,
				"y": 0.1389718139,
				"z": -0.3430379989,
				"element": "C" 
			},
			{
				"x": 4.5873818593,
				"y": -1.2438381932,
				"z": -0.2806897043,
				"element": "C" 
			},
			{
				"x": 3.4650663338,
				"y": -1.7776356459,
				"z": 0.360776106,
				"element": "C" 
			},
			{
				"x": 2.5157192584,
				"y": -0.9322818521,
				"z": 0.9308678886,
				"element": "C" 
			},
			{
				"x": 0.316248216,
				"y": 1.3752901039,
				"z": 0.7445920053,
				"element": "C" 
			},
			{
				"x": 0.287443707,
				"y": 1.7752465932,
				"z": -0.5985228952,
				"element": "C" 
			},
			{
				"x": -0.9079382103,
				"y": 1.7966611363,
				"z": -1.3089178981,
				"element": "C" 
			},
			{
				"x": -2.0981676405,
				"y": 1.4157206694,
				"z": -0.6803718427,
				"element": "C" 
			},
			{
				"x": -2.0798003486,
				"y": 1.01806749,
				"z": 0.6568725036,
				"element": "C" 
			},
			{
				"x": -0.8784229332,
				"y": 1.0009281894,
				"z": 1.3663511464,
				"element": "C" 
			},
			{
				"x": -3.3806223902,
				"y": 1.3817452826,
				"z": -1.4635616168,
				"element": "C" 
			},
			{
				"x": -3.4142287942,
				"y": 2.3400468706,
				"z": -2.4179477359,
				"element": "F" 
			},
			{
				"x": -4.4628086069,
				"y": 1.5588262772,
				"z": -0.6728240436,
				"element": "F" 
			},
			{
				"x": -3.5506733418,
				"y": 0.1966574278,
				"z": -2.0980278916,
				"element": "F" 
			},
			{
				"x": 2.219889429,
				"y": 0.8717513393,
				"z": 3.2907234298,
				"element": "H" 
			},
			{
				"x": 2.0355885624,
				"y": 2.4052537409,
				"z": 1.4737286813,
				"element": "H" 
			},
			{
				"x": 3.9475088405,
				"y": 2.0634393732,
				"z": 0.1956129252,
				"element": "H" 
			},
			{
				"x": 5.6296737606,
				"y": 0.5606735315,
				"z": -0.8331998627,
				"element": "H" 
			},
			{
				"x": 5.3258386781,
				"y": -1.9043441903,
				"z": -0.7258739996,
				"element": "H" 
			},
			{
				"x": 3.330432276,
				"y": -2.8543441668,
				"z": 0.4132578329,
				"element": "H" 
			},
			{
				"x": 1.6432981744,
				"y": -1.3427383772,
				"z": 1.4307486776,
				"element": "H" 
			},
			{
				"x": 1.209323071,
				"y": 2.0663516669,
				"z": -1.0944365483,
				"element": "H" 
			},
			{
				"x": -0.9224488038,
				"y": 2.1142747103,
				"z": -2.34608777,
				"element": "H" 
			},
			{
				"x": -3.0047187545,
				"y": 0.732381378,
				"z": 1.1465589174,
				"element": "H" 
			},
			{
				"x": -0.8620622955,
				"y": 0.7046482843,
				"z": 2.4078757048,
				"element": "H" 
			}
		],
		 "valence_orbital": [ 
			{
				"type": "occ",
				"energy": -0.29451,
				"method": "rhf"
			},
			{
				"type": "occ",
				"energy": -0.26038,
				"method": "rhf"
			},
			{
				"type": "occ",
				"energy": -0.25882,
				"method": "rhf"
			},
			{
				"type": "occ",
				"energy": -0.25751,
				"method": "rhf"
			},
			{
				"type": "occ",
				"energy": -0.24804,
				"method": "rhf"
			},
			{
				"type": "unocc",
				"energy": -0.02599,
				"method": "rhf"
			},
			{
				"type": "unocc",
				"energy": -0.01621,
				"method": "rhf"
			},
			{
				"type": "unocc",
				"energy": -0.00989,
				"method": "rhf"
			},
			{
				"type": "unocc",
				"energy": -0.00498,
				"method": "rhf"
			},
			{
				"type": "unocc",
				"energy": 0.0807,
				"method": "rhf"
			}
		],
		"cosmo_sigma_profile": { 
			"-0.025": 0.0,
			"-0.024": 0.0,
			"-0.023": 0.0,
			"-0.022": 0.0,
			"-0.021": 0.0,
			"-0.02": 0.0,
			"-0.019": 0.0,
			"-0.018": 0.0,
			"-0.017": 0.0,
			"-0.016": 0.372722029343,
			"-0.015": 0.821578108546,
			"-0.014": 0.886264258535,
			"-0.013": 0.999828538641,
			"-0.012": 0.734438866397,
			"-0.011": 0.566639129012,
			"-0.01": 0.388709216872,
			"-0.009": 1.45820576219,
			"-0.008": 0.839661727812,
			"-0.007": 2.45328539402,
			"-0.006": 13.7926396157,
			"-0.005": 21.8132221026,
			"-0.004": 20.1953059818,
			"-0.003": 18.1063119793,
			"-0.002": 14.6500696455,
			"-0.001": 15.3079934072,
			"0.0": 17.6541073248,
			"0.001": 20.8257442426,
			"0.002": 29.8957041197,
			"0.003": 48.7449786297,
			"0.004": 23.1925632691,
			"0.005": 10.184465587,
			"0.006": 5.6359154514,
			"0.007": 1.17586455519,
			"0.008": 1.62873139137,
			"0.009": 1.16709353031,
			"0.01": 1.44197221296,
			"0.011": 1.04050381612,
			"0.012": 0.461384891671,
			"0.013": 0.200390865739,
			"0.014": 0.0,
			"0.015": 0.0,
			"0.016": 0.0,
			"0.017": 0.0,
			"0.018": 0.0,
			"0.019": 0.0,
			"0.02": 0.0,
			"0.021": 0.0,
			"0.022": 0.0,
			"0.023": 0.0,
			"0.024": 0.0,
			"0.025": 0.0
		}
	}
}
