{
	 "smiles": "CC(C)(C)C1=CC=C(CCCCC(O)=O)C=C1", 
	 "Tm": 345.15, 
	 "num_atms": 39, 
	 "gaussian": { 
		 "optdone": 1, 
		 "sigma_profile": "yes", 
		 "theory": "DFT", 
		 "functional": "B3LYP", 
		 "basiset": "6-31G**", 
		 "properties": { 
			 "R2extent": 6020.5836, 
			 "electric_dipole_moment_norm": 4.64392343068, 
			 "electric_quadrupole_moment_norm": 24.2631402755, 
			 "total_energy": -735.338861172, 
			 "HOMO_LUMO_gap": 0.22901, 
			 "cosmo_polarized_energy": -14.58, 
			 "cosmo_cavitation_energy": 40.04, 
			 "cosmo_dispersion_energy": -26.64, 
			 "cosmo_repulsion_energy": 2.1, 
			 "cosmo_total_nonelectrostatic_energy": 15.5, 
			 "SMD_solvation_energy": 7.52 
		},
		"coords": [
			{
				"x": -0.358805821,
				"y": 3.0935296229,
				"z": -1.3361773751,
				"element": "C" 
			},
			{
				"x": -1.2206965832,
				"y": 2.9355670242,
				"z": -0.060842461,
				"element": "C" 
			},
			{
				"x": -2.6684570281,
				"y": 2.6366185929,
				"z": -0.4939291727,
				"element": "C" 
			},
			{
				"x": -1.2182684676,
				"y": 4.268580709,
				"z": 0.7251827185,
				"element": "C" 
			},
			{
				"x": -0.6323894017,
				"y": 1.8196030441,
				"z": 0.8216742633,
				"element": "C" 
			},
			{
				"x": 0.6825525625,
				"y": 1.9265391251,
				"z": 1.3103013333,
				"element": "C" 
			},
			{
				"x": 1.2480078759,
				"y": 0.9413258805,
				"z": 2.1143807381,
				"element": "C" 
			},
			{
				"x": 0.5279109211,
				"y": -0.2093957885,
				"z": 2.4706588081,
				"element": "C" 
			},
			{
				"x": 1.145615399,
				"y": -1.2790810308,
				"z": 3.3495821097,
				"element": "C" 
			},
			{
				"x": 2.3638975647,
				"y": -2.028109831,
				"z": 2.7612649388,
				"element": "C" 
			},
			{
				"x": 2.0755557565,
				"y": -3.003794235,
				"z": 1.6081584125,
				"element": "C" 
			},
			{
				"x": 1.768549813,
				"y": -2.346909896,
				"z": 0.2586364856,
				"element": "C" 
			},
			{
				"x": 1.6589974036,
				"y": -3.356241447,
				"z": -0.8758457864,
				"element": "C" 
			},
			{
				"x": 1.3037259641,
				"y": -2.8301097673,
				"z": -2.0825824986,
				"element": "O" 
			},
			{
				"x": 1.8655085729,
				"y": -4.5397175899,
				"z": -0.7749930679,
				"element": "O" 
			},
			{
				"x": -0.7820779355,
				"y": -0.3168421358,
				"z": 1.9947085609,
				"element": "C" 
			},
			{
				"x": -1.3496821907,
				"y": 0.6734011331,
				"z": 1.1861532449,
				"element": "C" 
			},
			{
				"x": -0.3533867069,
				"y": 2.1683105918,
				"z": -1.9223631068,
				"element": "H" 
			},
			{
				"x": 0.679137214,
				"y": 3.3448747071,
				"z": -1.0983364737,
				"element": "H" 
			},
			{
				"x": -0.7576224305,
				"y": 3.8929724107,
				"z": -1.9707139038,
				"element": "H" 
			},
			{
				"x": -2.7372736338,
				"y": 1.7148294237,
				"z": -1.0811309272,
				"element": "H" 
			},
			{
				"x": -3.3404315303,
				"y": 2.5454508707,
				"z": 0.3656954506,
				"element": "H" 
			},
			{
				"x": -3.0427588233,
				"y": 3.4536862119,
				"z": -1.1191087046,
				"element": "H" 
			},
			{
				"x": -1.6298280944,
				"y": 5.0759340425,
				"z": 0.1089044673,
				"element": "H" 
			},
			{
				"x": -0.2083588792,
				"y": 4.5622482874,
				"z": 1.0265004791,
				"element": "H" 
			},
			{
				"x": -1.8269629562,
				"y": 4.1889534929,
				"z": 1.6317649651,
				"element": "H" 
			},
			{
				"x": 1.2792450695,
				"y": 2.8007015823,
				"z": 1.0649226686,
				"element": "H" 
			},
			{
				"x": 2.2652654812,
				"y": 1.0720087961,
				"z": 2.4769802902,
				"element": "H" 
			},
			{
				"x": 0.376190871,
				"y": -2.0130392835,
				"z": 3.6192945263,
				"element": "H" 
			},
			{
				"x": 1.4650699549,
				"y": -0.8144709202,
				"z": 4.2920246812,
				"element": "H" 
			},
			{
				"x": 3.1255704516,
				"y": -1.3007810625,
				"z": 2.44856144,
				"element": "H" 
			},
			{
				"x": 2.817089194,
				"y": -2.6025169673,
				"z": 3.5785515876,
				"element": "H" 
			},
			{
				"x": 1.2450530479,
				"y": -3.6663695467,
				"z": 1.8809418572,
				"element": "H" 
			},
			{
				"x": 2.940614179,
				"y": -3.6609503858,
				"z": 1.4708756823,
				"element": "H" 
			},
			{
				"x": 0.8404802581,
				"y": -1.7650715807,
				"z": 0.2989478924,
				"element": "H" 
			},
			{
				"x": 2.5586385972,
				"y": -1.6286885425,
				"z": -0.0056805261,
				"element": "H" 
			},
			{
				"x": 1.1619039667,
				"y": -1.876468436,
				"z": -1.9965981071,
				"element": "H" 
			},
			{
				"x": -1.3759641943,
				"y": -1.1889449738,
				"z": 2.2593333845,
				"element": "H" 
			},
			{
				"x": -2.3704154414,
				"y": 0.5367678714,
				"z": 0.847101125,
				"element": "H" 
			}
		],
		 "valence_orbital": [ 
			{
				"type": "occ",
				"energy": -0.31801,
				"method": "rhf"
			},
			{
				"type": "occ",
				"energy": -0.30876,
				"method": "rhf"
			},
			{
				"type": "occ",
				"energy": -0.26513,
				"method": "rhf"
			},
			{
				"type": "occ",
				"energy": -0.25322,
				"method": "rhf"
			},
			{
				"type": "occ",
				"energy": -0.23673,
				"method": "rhf"
			},
			{
				"type": "unocc",
				"energy": -0.00772,
				"method": "rhf"
			},
			{
				"type": "unocc",
				"energy": -0.00517,
				"method": "rhf"
			},
			{
				"type": "unocc",
				"energy": 0.01903,
				"method": "rhf"
			},
			{
				"type": "unocc",
				"energy": 0.06161,
				"method": "rhf"
			},
			{
				"type": "unocc",
				"energy": 0.07618,
				"method": "rhf"
			}
		],
		"cosmo_sigma_profile": { 
			"-0.025": 0.0,
			"-0.024": 0.0,
			"-0.023": 0.0,
			"-0.022": 0.0,
			"-0.021": 0.0,
			"-0.02": 0.0,
			"-0.019": 0.0719078204996,
			"-0.018": 0.799930711918,
			"-0.017": 1.05665622436,
			"-0.016": 1.01788397439,
			"-0.015": 1.21362583103,
			"-0.014": 1.11786654966,
			"-0.013": 0.66944896813,
			"-0.012": 1.13072455663,
			"-0.011": 1.2805657104,
			"-0.01": 1.18152224495,
			"-0.009": 0.911054914239,
			"-0.008": 1.43828327053,
			"-0.007": 1.5860324494,
			"-0.006": 2.76971082826,
			"-0.005": 8.29663476391,
			"-0.004": 14.3961519825,
			"-0.003": 36.636091461,
			"-0.002": 48.6876335835,
			"-0.001": 38.4434726686,
			"0.0": 33.1392550761,
			"0.001": 31.5946450871,
			"0.002": 19.4660237172,
			"0.003": 9.24772079118,
			"0.004": 9.43256100803,
			"0.005": 8.70605909949,
			"0.006": 7.31997306834,
			"0.007": 4.89728471678,
			"0.008": 2.65684984906,
			"0.009": 3.02431355607,
			"0.01": 4.12287469346,
			"0.011": 5.72272673286,
			"0.012": 6.23513344067,
			"0.013": 2.75338811784,
			"0.014": 0.230609622879,
			"0.015": 0.0,
			"0.016": 0.0,
			"0.017": 0.0,
			"0.018": 0.0,
			"0.019": 0.0,
			"0.02": 0.0,
			"0.021": 0.0,
			"0.022": 0.0,
			"0.023": 0.0,
			"0.024": 0.0,
			"0.025": 0.0
		}
	}
}
