{
	 "smiles": "CC(=O)O[C@@]12[C@@H](O[C@@]11C(=O)N(C(C)=O)C3=CC=CC=C13)N(C(C)=O)C1=C2C=CC=C1", 
	 "Tm": 466.0, 
	 "num_atms": 48, 
	 "gaussian": { 
		 "optdone": 1, 
		 "sigma_profile": "yes", 
		 "theory": "DFT", 
		 "functional": "B3LYP", 
		 "basiset": "6-31G**", 
		 "properties": { 
			 "R2extent": 11081.2684, 
			 "electric_dipole_moment_norm": 5.41952329084, 
			 "electric_quadrupole_moment_norm": 22.0684072425, 
			 "total_energy": -1410.05286129, 
			 "HOMO_LUMO_gap": 0.1791, 
			 "cosmo_polarized_energy": -20.88, 
			 "cosmo_cavitation_energy": 50.42, 
			 "cosmo_dispersion_energy": -33.52, 
			 "cosmo_repulsion_energy": 2.48, 
			 "cosmo_total_nonelectrostatic_energy": 19.38, 
			 "SMD_solvation_energy": 10.6 
		},
		"coords": [
			{
				"x": 3.4997971262,
				"y": -2.0478250463,
				"z": 2.9555734072,
				"element": "C" 
			},
			{
				"x": 2.1302359104,
				"y": -1.8850709951,
				"z": 2.3512064925,
				"element": "C" 
			},
			{
				"x": 1.3210341023,
				"y": -2.7698461776,
				"z": 2.1677077813,
				"element": "O" 
			},
			{
				"x": 1.9113811754,
				"y": -0.594820685,
				"z": 1.9981040993,
				"element": "O" 
			},
			{
				"x": 0.6730276024,
				"y": -0.2627527989,
				"z": 1.3694315856,
				"element": "C" 
			},
			{
				"x": 0.7408010966,
				"y": 1.0115512748,
				"z": 0.5160136271,
				"element": "C" 
			},
			{
				"x": 0.0912959849,
				"y": 0.3324476201,
				"z": -0.5843701865,
				"element": "O" 
			},
			{
				"x": 0.254390993,
				"y": -0.9745123179,
				"z": 0.0249009462,
				"element": "C" 
			},
			{
				"x": 1.4073327709,
				"y": -1.7628070113,
				"z": -0.6367713804,
				"element": "C" 
			},
			{
				"x": 2.538047025,
				"y": -1.3499467764,
				"z": -0.7822378517,
				"element": "O" 
			},
			{
				"x": 0.9053100438,
				"y": -3.0160637711,
				"z": -1.0381848704,
				"element": "N" 
			},
			{
				"x": 1.646766556,
				"y": -4.0525844965,
				"z": -1.6575199177,
				"element": "C" 
			},
			{
				"x": 3.112931832,
				"y": -3.8096059676,
				"z": -1.9278962838,
				"element": "C" 
			},
			{
				"x": 1.0996597762,
				"y": -5.0979710055,
				"z": -1.9553528323,
				"element": "O" 
			},
			{
				"x": -0.4937454209,
				"y": -3.0887726302,
				"z": -0.732682141,
				"element": "C" 
			},
			{
				"x": -1.3936251781,
				"y": -4.1177612216,
				"z": -0.9980043857,
				"element": "C" 
			},
			{
				"x": -2.7341437519,
				"y": -3.910915487,
				"z": -0.6510598799,
				"element": "C" 
			},
			{
				"x": -3.1662955346,
				"y": -2.7161338457,
				"z": -0.0730665993,
				"element": "C" 
			},
			{
				"x": -2.2489993084,
				"y": -1.6955076714,
				"z": 0.1929441319,
				"element": "C" 
			},
			{
				"x": -0.9100650789,
				"y": -1.8969933534,
				"z": -0.1208404218,
				"element": "C" 
			},
			{
				"x": -0.0878345714,
				"y": 2.0071107903,
				"z": 1.1648272881,
				"element": "N" 
			},
			{
				"x": 0.1083990673,
				"y": 3.3523849601,
				"z": 0.8389267622,
				"element": "C" 
			},
			{
				"x": -0.6536489963,
				"y": 4.4072868407,
				"z": 1.6123391788,
				"element": "C" 
			},
			{
				"x": 0.8885886055,
				"y": 3.6490612746,
				"z": -0.0513276843,
				"element": "O" 
			},
			{
				"x": -0.8599706785,
				"y": 1.3728512742,
				"z": 2.1745384452,
				"element": "C" 
			},
			{
				"x": -0.442097326,
				"y": 0.0361436364,
				"z": 2.336834358,
				"element": "C" 
			},
			{
				"x": -1.0391213608,
				"y": -0.797442786,
				"z": 3.2753614136,
				"element": "C" 
			},
			{
				"x": -2.0755901198,
				"y": -0.2932908636,
				"z": 4.0667729156,
				"element": "C" 
			},
			{
				"x": -2.5067216248,
				"y": 1.0220538813,
				"z": 3.8899261355,
				"element": "C" 
			},
			{
				"x": -1.9169665582,
				"y": 1.8673913244,
				"z": 2.9432097517,
				"element": "C" 
			},
			{
				"x": 3.6472892289,
				"y": -1.3291822087,
				"z": 3.7660547997,
				"element": "H" 
			},
			{
				"x": 3.6161075252,
				"y": -3.0662383011,
				"z": 3.324453303,
				"element": "H" 
			},
			{
				"x": 4.2544309824,
				"y": -1.8399610794,
				"z": 2.1906005801,
				"element": "H" 
			},
			{
				"x": 1.7091090198,
				"y": 1.4184733671,
				"z": 0.2349126106,
				"element": "H" 
			},
			{
				"x": 3.6587865858,
				"y": -3.5993152809,
				"z": -1.0052530764,
				"element": "H" 
			},
			{
				"x": 3.2615188808,
				"y": -2.9437495748,
				"z": -2.5769949409,
				"element": "H" 
			},
			{
				"x": 3.4992893558,
				"y": -4.712795416,
				"z": -2.4003787257,
				"element": "H" 
			},
			{
				"x": -1.0639963927,
				"y": -5.0345147166,
				"z": -1.462009079,
				"element": "H" 
			},
			{
				"x": -3.4517678974,
				"y": -4.7013045182,
				"z": -0.8513319326,
				"element": "H" 
			},
			{
				"x": -4.2156180752,
				"y": -2.576879829,
				"z": 0.1678979429,
				"element": "H" 
			},
			{
				"x": -2.5741302098,
				"y": -0.7582943494,
				"z": 0.6299612262,
				"element": "H" 
			},
			{
				"x": -1.7177098543,
				"y": 4.386459987,
				"z": 1.3549448107,
				"element": "H" 
			},
			{
				"x": -0.5599572853,
				"y": 4.2738911165,
				"z": 2.693566661,
				"element": "H" 
			},
			{
				"x": -0.2447272747,
				"y": 5.375327521,
				"z": 1.3240743741,
				"element": "H" 
			},
			{
				"x": -0.706378769,
				"y": -1.8247663269,
				"z": 3.3715213262,
				"element": "H" 
			},
			{
				"x": -2.5547789043,
				"y": -0.9293611893,
				"z": 4.8040057489,
				"element": "H" 
			},
			{
				"x": -3.3256575597,
				"y": 1.40563657,
				"z": 4.4915682975,
				"element": "H" 
			},
			{
				"x": -2.2940835154,
				"y": 2.8727162597,
				"z": 2.822702189,
				"element": "H" 
			}
		],
		 "valence_orbital": [ 
			{
				"type": "occ",
				"energy": -0.26645,
				"method": "rhf"
			},
			{
				"type": "occ",
				"energy": -0.26042,
				"method": "rhf"
			},
			{
				"type": "occ",
				"energy": -0.2521,
				"method": "rhf"
			},
			{
				"type": "occ",
				"energy": -0.2335,
				"method": "rhf"
			},
			{
				"type": "occ",
				"energy": -0.23344,
				"method": "rhf"
			},
			{
				"type": "unocc",
				"energy": -0.05434,
				"method": "rhf"
			},
			{
				"type": "unocc",
				"energy": -0.02872,
				"method": "rhf"
			},
			{
				"type": "unocc",
				"energy": -0.02639,
				"method": "rhf"
			},
			{
				"type": "unocc",
				"energy": -0.01936,
				"method": "rhf"
			},
			{
				"type": "unocc",
				"energy": -0.00729,
				"method": "rhf"
			}
		],
		"cosmo_sigma_profile": { 
			"-0.025": 0.0,
			"-0.024": 0.0,
			"-0.023": 0.0,
			"-0.022": 0.0,
			"-0.021": 0.0,
			"-0.02": 0.0,
			"-0.019": 0.0,
			"-0.018": 0.0,
			"-0.017": 0.0,
			"-0.016": 0.0,
			"-0.015": 0.0,
			"-0.014": 0.0,
			"-0.013": 0.0,
			"-0.012": 0.0,
			"-0.011": 0.0,
			"-0.01": 0.0,
			"-0.009": 0.337983765663,
			"-0.008": 3.11633759139,
			"-0.007": 10.8892924194,
			"-0.006": 30.8577255364,
			"-0.005": 35.9001471575,
			"-0.004": 36.9715389779,
			"-0.003": 35.6932528901,
			"-0.002": 37.3449873643,
			"-0.001": 25.3987108073,
			"0.0": 19.880660359,
			"0.001": 21.5751415764,
			"0.002": 24.5556144017,
			"0.003": 28.766207452,
			"0.004": 23.0325626484,
			"0.005": 10.4743760476,
			"0.006": 9.57726826355,
			"0.007": 7.72906576031,
			"0.008": 7.4609207325,
			"0.009": 7.82879713543,
			"0.01": 9.0075412117,
			"0.011": 7.10076747574,
			"0.012": 6.72816643204,
			"0.013": 2.35072238546,
			"0.014": 0.189300922991,
			"0.015": 0.0,
			"0.016": 0.0,
			"0.017": 0.0,
			"0.018": 0.0,
			"0.019": 0.0,
			"0.02": 0.0,
			"0.021": 0.0,
			"0.022": 0.0,
			"0.023": 0.0,
			"0.024": 0.0,
			"0.025": 0.0
		}
	}
}
