{
	 "smiles": "OCCC(O)C1=CC=CC=C1", 
	 "Tm": 337.15, 
	 "num_atms": 23, 
	 "gaussian": { 
		 "optdone": 1, 
		 "sigma_profile": "yes", 
		 "theory": "DFT", 
		 "functional": "B3LYP", 
		 "basiset": "6-31G**", 
		 "properties": { 
			 "R2extent": 2584.5931, 
			 "electric_dipole_moment_norm": 3.5309603637, 
			 "electric_quadrupole_moment_norm": 16.5629670678, 
			 "total_energy": -500.628559461, 
			 "HOMO_LUMO_gap": 0.23265, 
			 "cosmo_polarized_energy": -10.42, 
			 "cosmo_cavitation_energy": 25.65, 
			 "cosmo_dispersion_energy": -18.83, 
			 "cosmo_repulsion_energy": 1.54, 
			 "cosmo_total_nonelectrostatic_energy": 8.36, 
			 "SMD_solvation_energy": 4.2 
		},
		"coords": [
			{
				"x": -4.0830342364,
				"y": -2.3015154452,
				"z": 0.5548027918,
				"element": "O" 
			},
			{
				"x": -3.5357852107,
				"y": -1.2273306465,
				"z": 1.2943619987,
				"element": "C" 
			},
			{
				"x": -2.3022003725,
				"y": -0.5963103921,
				"z": 0.6341907886,
				"element": "C" 
			},
			{
				"x": -1.0514657982,
				"y": -1.4849623615,
				"z": 0.6947481037,
				"element": "C" 
			},
			{
				"x": -1.3887769777,
				"y": -2.7162249502,
				"z": 0.0329630446,
				"element": "O" 
			},
			{
				"x": 0.167121108,
				"y": -0.829340934,
				"z": 0.0680813066,
				"element": "C" 
			},
			{
				"x": 0.3835857961,
				"y": -0.9026649776,
				"z": -1.314196053,
				"element": "C" 
			},
			{
				"x": 1.4862269549,
				"y": -0.2721162068,
				"z": -1.891705547,
				"element": "C" 
			},
			{
				"x": 2.3842670002,
				"y": 0.4419402578,
				"z": -1.0953797259,
				"element": "C" 
			},
			{
				"x": 2.1764930913,
				"y": 0.5182300113,
				"z": 0.2832595115,
				"element": "C" 
			},
			{
				"x": 1.0763155549,
				"y": -0.1177690075,
				"z": 0.8600207219,
				"element": "C" 
			},
			{
				"x": -3.332887923,
				"y": -2.8640867571,
				"z": 0.3078565878,
				"element": "H" 
			},
			{
				"x": -3.2755134718,
				"y": -1.5332413776,
				"z": 2.3248409345,
				"element": "H" 
			},
			{
				"x": -4.3256991056,
				"y": -0.4724650542,
				"z": 1.3800704931,
				"element": "H" 
			},
			{
				"x": -2.5291115369,
				"y": -0.3690120822,
				"z": -0.414109566,
				"element": "H" 
			},
			{
				"x": -2.0638025269,
				"y": 0.3522675615,
				"z": 1.1303078839,
				"element": "H" 
			},
			{
				"x": -0.8320726441,
				"y": -1.6907826338,
				"z": 1.7554517991,
				"element": "H" 
			},
			{
				"x": -0.6215971219,
				"y": -3.3023195245,
				"z": 0.073452617,
				"element": "H" 
			},
			{
				"x": -0.3138470661,
				"y": -1.4646382932,
				"z": -1.9279117502,
				"element": "H" 
			},
			{
				"x": 1.6444979998,
				"y": -0.3381479345,
				"z": -2.9645606032,
				"element": "H" 
			},
			{
				"x": 3.2429738003,
				"y": 0.9317567977,
				"z": -1.5454340443,
				"element": "H" 
			},
			{
				"x": 2.8748442188,
				"y": 1.0652658441,
				"z": 0.9103699831,
				"element": "H" 
			},
			{
				"x": 0.9234684677,
				"y": -0.0637318939,
				"z": 1.9358187236,
				"element": "H" 
			}
		],
		 "valence_orbital": [ 
			{
				"type": "occ",
				"energy": -0.30716,
				"method": "rhf"
			},
			{
				"type": "occ",
				"energy": -0.28514,
				"method": "rhf"
			},
			{
				"type": "occ",
				"energy": -0.25543,
				"method": "rhf"
			},
			{
				"type": "occ",
				"energy": -0.25109,
				"method": "rhf"
			},
			{
				"type": "occ",
				"energy": -0.24311,
				"method": "rhf"
			},
			{
				"type": "unocc",
				"energy": -0.01046,
				"method": "rhf"
			},
			{
				"type": "unocc",
				"energy": -0.00729,
				"method": "rhf"
			},
			{
				"type": "unocc",
				"energy": 0.06932,
				"method": "rhf"
			},
			{
				"type": "unocc",
				"energy": 0.09197,
				"method": "rhf"
			},
			{
				"type": "unocc",
				"energy": 0.11181,
				"method": "rhf"
			}
		],
		"cosmo_sigma_profile": { 
			"-0.025": 0.0,
			"-0.024": 0.0,
			"-0.023": 0.0,
			"-0.022": 0.0,
			"-0.021": 0.0,
			"-0.02": 0.0,
			"-0.019": 0.0,
			"-0.018": 0.0,
			"-0.017": 0.0,
			"-0.016": 0.659613890762,
			"-0.015": 0.956609420945,
			"-0.014": 0.806931631263,
			"-0.013": 0.846920306379,
			"-0.012": 0.790091108374,
			"-0.011": 1.16780269417,
			"-0.01": 0.738536072902,
			"-0.009": 0.453870054256,
			"-0.008": 0.634075068658,
			"-0.007": 1.28386723003,
			"-0.006": 4.7521623753,
			"-0.005": 13.5127504832,
			"-0.004": 20.530575639,
			"-0.003": 25.7219904736,
			"-0.002": 16.9670137773,
			"-0.001": 17.7366489154,
			"0.0": 14.8077956451,
			"0.001": 11.1385277442,
			"0.002": 10.11060023,
			"0.003": 10.6302987192,
			"0.004": 9.89365498045,
			"0.005": 9.98852726185,
			"0.006": 10.6623335847,
			"0.007": 2.54514933873,
			"0.008": 1.39563159172,
			"0.009": 1.67388724366,
			"0.01": 1.65175860536,
			"0.011": 1.41385857707,
			"0.012": 1.73389295747,
			"0.013": 1.1205311208,
			"0.014": 1.66331760584,
			"0.015": 2.85610513323,
			"0.016": 0.472569839117,
			"0.017": 0.0,
			"0.018": 0.0,
			"0.019": 0.0,
			"0.02": 0.0,
			"0.021": 0.0,
			"0.022": 0.0,
			"0.023": 0.0,
			"0.024": 0.0,
			"0.025": 0.0
		}
	}
}
