{
	 "smiles": "OC(=O)C1=NNC(=C1)C1=CC=CO1", 
	 "Tm": 493.15, 
	 "num_atms": 19, 
	 "gaussian": { 
		 "optdone": 1, 
		 "sigma_profile": "yes", 
		 "theory": "DFT", 
		 "functional": "B3LYP", 
		 "basiset": "6-31G**", 
		 "properties": { 
			 "R2extent": 3235.0006, 
			 "electric_dipole_moment_norm": 3.78239948578, 
			 "electric_quadrupole_moment_norm": 6.49075661537, 
			 "total_energy": -643.611163233, 
			 "HOMO_LUMO_gap": 0.18008, 
			 "cosmo_polarized_energy": -15.67, 
			 "cosmo_cavitation_energy": 25.3, 
			 "cosmo_dispersion_energy": -18.72, 
			 "cosmo_repulsion_energy": 1.48, 
			 "cosmo_total_nonelectrostatic_energy": 8.06, 
			 "SMD_solvation_energy": 5.62 
		},
		"coords": [
			{
				"x": -3.0577731346,
				"y": -2.4829768807,
				"z": -2.7135821555,
				"element": "O" 
			},
			{
				"x": -2.9257963143,
				"y": -1.7795928751,
				"z": -1.568849726,
				"element": "C" 
			},
			{
				"x": -3.861024804,
				"y": -1.5306396148,
				"z": -0.83235242,
				"element": "O" 
			},
			{
				"x": -1.5416778044,
				"y": -1.3454106388,
				"z": -1.2980031655,
				"element": "C" 
			},
			{
				"x": -0.5163573736,
				"y": -1.6243649115,
				"z": -2.1142488705,
				"element": "N" 
			},
			{
				"x": 0.5364361804,
				"y": -1.0598563113,
				"z": -1.5116569867,
				"element": "N" 
			},
			{
				"x": 0.2296273399,
				"y": -0.4262375793,
				"z": -0.3358086356,
				"element": "C" 
			},
			{
				"x": -1.1354918333,
				"y": -0.5981684874,
				"z": -0.1690231946,
				"element": "C" 
			},
			{
				"x": 1.2356725153,
				"y": 0.2403242822,
				"z": 0.4553950078,
				"element": "C" 
			},
			{
				"x": 1.2126382914,
				"y": 0.9330053415,
				"z": 1.6361392051,
				"element": "C" 
			},
			{
				"x": 2.5585399237,
				"y": 1.347979694,
				"z": 1.8873163579,
				"element": "C" 
			},
			{
				"x": 3.3050764454,
				"y": 0.882463161,
				"z": 0.848474537,
				"element": "C" 
			},
			{
				"x": 2.5164663163,
				"y": 0.2036830881,
				"z": -0.0363921382,
				"element": "O" 
			},
			{
				"x": -4.0016614275,
				"y": -2.7056605697,
				"z": -2.7728691962,
				"element": "H" 
			},
			{
				"x": 1.4513140153,
				"y": -1.1273576971,
				"z": -1.9329338562,
				"element": "H" 
			},
			{
				"x": -1.7611045315,
				"y": -0.2467234634,
				"z": 0.6359427995,
				"element": "H" 
			},
			{
				"x": 0.3436589091,
				"y": 1.1226704402,
				"z": 2.2489058633,
				"element": "H" 
			},
			{
				"x": 2.9180710113,
				"y": 1.917826362,
				"z": 2.7317272942,
				"element": "H" 
			},
			{
				"x": 4.3518862751,
				"y": 0.9403366602,
				"z": 0.5952192802,
				"element": "H" 
			}
		],
		 "valence_orbital": [ 
			{
				"type": "occ",
				"energy": -0.30284,
				"method": "rhf"
			},
			{
				"type": "occ",
				"energy": -0.28974,
				"method": "rhf"
			},
			{
				"type": "occ",
				"energy": -0.27322,
				"method": "rhf"
			},
			{
				"type": "occ",
				"energy": -0.26993,
				"method": "rhf"
			},
			{
				"type": "occ",
				"energy": -0.2183,
				"method": "rhf"
			},
			{
				"type": "unocc",
				"energy": -0.03822,
				"method": "rhf"
			},
			{
				"type": "unocc",
				"energy": -0.02394,
				"method": "rhf"
			},
			{
				"type": "unocc",
				"energy": 0.03864,
				"method": "rhf"
			},
			{
				"type": "unocc",
				"energy": 0.0767,
				"method": "rhf"
			},
			{
				"type": "unocc",
				"energy": 0.08767,
				"method": "rhf"
			}
		],
		"cosmo_sigma_profile": { 
			"-0.025": 0.0,
			"-0.024": 0.0,
			"-0.023": 0.0,
			"-0.022": 0.0,
			"-0.021": 0.0,
			"-0.02": 0.0,
			"-0.019": 0.0725181541167,
			"-0.018": 0.781739390877,
			"-0.017": 1.617362891,
			"-0.016": 2.08991609178,
			"-0.015": 1.03929825033,
			"-0.014": 1.59129766622,
			"-0.013": 1.96973384661,
			"-0.012": 1.13226714823,
			"-0.011": 1.64408328497,
			"-0.01": 1.74263411965,
			"-0.009": 2.92397702411,
			"-0.008": 6.38833730542,
			"-0.007": 9.17163335796,
			"-0.006": 7.82027754678,
			"-0.005": 8.90361168779,
			"-0.004": 8.35052247936,
			"-0.003": 8.70134969554,
			"-0.002": 11.8253430994,
			"-0.001": 10.1484875187,
			"0.0": 12.2264097962,
			"0.001": 17.0812324681,
			"0.002": 20.3333074814,
			"0.003": 16.0739544417,
			"0.004": 11.195776697,
			"0.005": 5.42388851975,
			"0.006": 2.63984835319,
			"0.007": 3.75978863633,
			"0.008": 4.0116250857,
			"0.009": 3.40726494922,
			"0.01": 4.34197878617,
			"0.011": 5.63726892043,
			"0.012": 5.73440667013,
			"0.013": 1.90758062407,
			"0.014": 1.41556393646,
			"0.015": 0.729019790433,
			"0.016": 0.0,
			"0.017": 0.0,
			"0.018": 0.0,
			"0.019": 0.0,
			"0.02": 0.0,
			"0.021": 0.0,
			"0.022": 0.0,
			"0.023": 0.0,
			"0.024": 0.0,
			"0.025": 0.0
		}
	}
}
