{
	 "smiles": "FC1=C(CBr)C=C(C=C1)C#N", 
	 "Tm": 318.15, 
	 "num_atms": 16, 
	 "gaussian": { 
		 "optdone": 1, 
		 "sigma_profile": "yes", 
		 "theory": "DFT", 
		 "functional": "B3LYP", 
		 "basiset": "6-31G**", 
		 "properties": { 
			 "R2extent": 2905.6096, 
			 "electric_dipole_moment_norm": 3.30535658742, 
			 "electric_quadrupole_moment_norm": 21.2238569245, 
			 "total_energy": -3033.84170982, 
			 "HOMO_LUMO_gap": 0.20272, 
			 "cosmo_polarized_energy": -11.14, 
			 "cosmo_cavitation_energy": 24.62, 
			 "cosmo_dispersion_energy": -17.39, 
			 "cosmo_repulsion_energy": 1.39, 
			 "cosmo_total_nonelectrostatic_energy": 8.62, 
			 "SMD_solvation_energy": 4.87 
		},
		"coords": [
			{
				"x": 2.6349079794,
				"y": -0.5552505174,
				"z": -0.2317704186,
				"element": "F" 
			},
			{
				"x": 1.3217638794,
				"y": -0.8041707884,
				"z": -0.3757933348,
				"element": "C" 
			},
			{
				"x": 0.4282362496,
				"y": -0.2083688604,
				"z": 0.5224533994,
				"element": "C" 
			},
			{
				"x": 0.9256309617,
				"y": 0.6845625143,
				"z": 1.6098534613,
				"element": "C" 
			},
			{
				"x": 1.0931176007,
				"y": 2.5794849895,
				"z": 0.9970509388,
				"element": "Br" 
			},
			{
				"x": -0.9307431442,
				"y": -0.4854973114,
				"z": 0.3572331023,
				"element": "C" 
			},
			{
				"x": -1.3742655958,
				"y": -1.3340168159,
				"z": -0.6688957264,
				"element": "C" 
			},
			{
				"x": -0.4453580174,
				"y": -1.9148110061,
				"z": -1.550281562,
				"element": "C" 
			},
			{
				"x": 0.9112354642,
				"y": -1.6485399649,
				"z": -1.4005923543,
				"element": "C" 
			},
			{
				"x": -2.7732997186,
				"y": -1.610951681,
				"z": -0.8147843401,
				"element": "C" 
			},
			{
				"x": -3.9078324577,
				"y": -1.8386387071,
				"z": -0.9327352439,
				"element": "N" 
			},
			{
				"x": 1.9249895813,
				"y": 0.414933556,
				"z": 1.9419832846,
				"element": "H" 
			},
			{
				"x": 0.2406570058,
				"y": 0.7238959967,
				"z": 2.4539630566,
				"element": "H" 
			},
			{
				"x": -1.6542414472,
				"y": -0.0365560556,
				"z": 1.030226143,
				"element": "H" 
			},
			{
				"x": -0.7909428242,
				"y": -2.5701940278,
				"z": -2.3420284039,
				"element": "H" 
			},
			{
				"x": 1.6532444831,
				"y": -2.0822813206,
				"z": -2.061282002,
				"element": "H" 
			}
		],
		 "valence_orbital": [ 
			{
				"type": "occ",
				"energy": -0.33982,
				"method": "rhf"
			},
			{
				"type": "occ",
				"energy": -0.2952,
				"method": "rhf"
			},
			{
				"type": "occ",
				"energy": -0.28402,
				"method": "rhf"
			},
			{
				"type": "occ",
				"energy": -0.28097,
				"method": "rhf"
			},
			{
				"type": "occ",
				"energy": -0.26849,
				"method": "rhf"
			},
			{
				"type": "unocc",
				"energy": -0.06577,
				"method": "rhf"
			},
			{
				"type": "unocc",
				"energy": -0.05587,
				"method": "rhf"
			},
			{
				"type": "unocc",
				"energy": -0.00016,
				"method": "rhf"
			},
			{
				"type": "unocc",
				"energy": 0.0274,
				"method": "rhf"
			},
			{
				"type": "unocc",
				"energy": 0.06489,
				"method": "rhf"
			}
		],
		"cosmo_sigma_profile": { 
			"-0.025": 0.0,
			"-0.024": 0.0,
			"-0.023": 0.0,
			"-0.022": 0.0,
			"-0.021": 0.0,
			"-0.02": 0.0,
			"-0.019": 0.0,
			"-0.018": 0.0,
			"-0.017": 0.0,
			"-0.016": 0.0,
			"-0.015": 0.0,
			"-0.014": 0.0,
			"-0.013": 0.0,
			"-0.012": 0.0,
			"-0.011": 0.0,
			"-0.01": 0.677593596653,
			"-0.009": 6.38258930567,
			"-0.008": 10.3981319146,
			"-0.007": 10.2207240357,
			"-0.006": 9.28591168052,
			"-0.005": 8.57318706202,
			"-0.004": 9.06692273108,
			"-0.003": 8.4503758567,
			"-0.002": 14.2143404512,
			"-0.001": 18.1471538219,
			"0.0": 17.9108784773,
			"0.001": 14.1003641778,
			"0.002": 9.38526710458,
			"0.003": 15.3080215699,
			"0.004": 8.26706143876,
			"0.005": 11.4615165209,
			"0.006": 11.7070326934,
			"0.007": 2.40354467646,
			"0.008": 3.88124955495,
			"0.009": 2.9716130357,
			"0.01": 3.33080106128,
			"0.011": 2.61605815757,
			"0.012": 2.50524073949,
			"0.013": 1.24192643782,
			"0.014": 0.0,
			"0.015": 0.0,
			"0.016": 0.0,
			"0.017": 0.0,
			"0.018": 0.0,
			"0.019": 0.0,
			"0.02": 0.0,
			"0.021": 0.0,
			"0.022": 0.0,
			"0.023": 0.0,
			"0.024": 0.0,
			"0.025": 0.0
		}
	}
}
