{
	 "smiles": "OC(=O)C1=NN(C(=O)CC1)C1=CC=C(Cl)C=C1", 
	 "Tm": 435.15, 
	 "num_atms": 26, 
	 "gaussian": { 
		 "optdone": 1, 
		 "sigma_profile": "yes", 
		 "theory": "DFT", 
		 "functional": "B3LYP", 
		 "basiset": "6-31G**", 
		 "properties": { 
			 "R2extent": 6589.8431, 
			 "electric_dipole_moment_norm": 4.82535624177, 
			 "electric_quadrupole_moment_norm": 9.77153317551, 
			 "total_energy": -1219.94823777, 
			 "HOMO_LUMO_gap": 0.15096, 
			 "cosmo_polarized_energy": -16.91, 
			 "cosmo_cavitation_energy": 32.84, 
			 "cosmo_dispersion_energy": -24.1, 
			 "cosmo_repulsion_energy": 1.88, 
			 "cosmo_total_nonelectrostatic_energy": 10.61, 
			 "SMD_solvation_energy": 6.55 
		},
		"coords": [
			{
				"x": 3.0066308665,
				"y": -1.8982613396,
				"z": 1.9988609563,
				"element": "O" 
			},
			{
				"x": 2.5505904443,
				"y": -0.6613633482,
				"z": 1.6660707312,
				"element": "C" 
			},
			{
				"x": 2.9863509563,
				"y": 0.3536565249,
				"z": 2.1583409062,
				"element": "O" 
			},
			{
				"x": 1.4577531935,
				"y": -0.7548038364,
				"z": 0.6455327721,
				"element": "C" 
			},
			{
				"x": 0.9673999835,
				"y": 0.3812449973,
				"z": 0.2889605644,
				"element": "N" 
			},
			{
				"x": -0.0733726423,
				"y": 0.4409646844,
				"z": -0.5993874213,
				"element": "N" 
			},
			{
				"x": -0.4978483868,
				"y": -0.6618052867,
				"z": -1.3706271859,
				"element": "C" 
			},
			{
				"x": -1.4721365089,
				"y": -0.6148100023,
				"z": -2.0970450931,
				"element": "O" 
			},
			{
				"x": 0.4029559099,
				"y": -1.8780615434,
				"z": -1.2736319764,
				"element": "C" 
			},
			{
				"x": 0.9567554731,
				"y": -2.0794336293,
				"z": 0.1361908778,
				"element": "C" 
			},
			{
				"x": -0.6845625879,
				"y": 1.7415119411,
				"z": -0.6849761075,
				"element": "C" 
			},
			{
				"x": -1.291794469,
				"y": 2.1977667575,
				"z": -1.8615207083,
				"element": "C" 
			},
			{
				"x": -1.8528533326,
				"y": 3.4729752597,
				"z": -1.9041633411,
				"element": "C" 
			},
			{
				"x": -1.8009298574,
				"y": 4.2918775603,
				"z": -0.7782959713,
				"element": "C" 
			},
			{
				"x": -2.5109068897,
				"y": 5.8982450627,
				"z": -0.8378816659,
				"element": "Cl" 
			},
			{
				"x": -1.1912832922,
				"y": 3.8506881871,
				"z": 0.3946885565,
				"element": "C" 
			},
			{
				"x": -0.6372927936,
				"y": 2.5742772074,
				"z": 0.4398706531,
				"element": "C" 
			},
			{
				"x": 3.6964235157,
				"y": -1.7555885124,
				"z": 2.6680823638,
				"element": "H" 
			},
			{
				"x": 1.2291620826,
				"y": -1.7206914559,
				"z": -1.9808078032,
				"element": "H" 
			},
			{
				"x": -0.1711461578,
				"y": -2.7353991567,
				"z": -1.6283249963,
				"element": "H" 
			},
			{
				"x": 1.7500370617,
				"y": -2.8286090705,
				"z": 0.1521942942,
				"element": "H" 
			},
			{
				"x": 0.1706846877,
				"y": -2.4443067553,
				"z": 0.8135040527,
				"element": "H" 
			},
			{
				"x": -1.3429607351,
				"y": 1.5647572437,
				"z": -2.7351181043,
				"element": "H" 
			},
			{
				"x": -2.3241701856,
				"y": 3.8274649808,
				"z": -2.8138959245,
				"element": "H" 
			},
			{
				"x": -1.1514584188,
				"y": 4.4947103359,
				"z": 1.2658876638,
				"element": "H" 
			},
			{
				"x": -0.1463279172,
				"y": 2.2280931939,
				"z": 1.3406919068,
				"element": "H" 
			}
		],
		 "valence_orbital": [ 
			{
				"type": "occ",
				"energy": -0.28771,
				"method": "rhf"
			},
			{
				"type": "occ",
				"energy": -0.28146,
				"method": "rhf"
			},
			{
				"type": "occ",
				"energy": -0.26938,
				"method": "rhf"
			},
			{
				"type": "occ",
				"energy": -0.26281,
				"method": "rhf"
			},
			{
				"type": "occ",
				"energy": -0.22864,
				"method": "rhf"
			},
			{
				"type": "unocc",
				"energy": -0.07768,
				"method": "rhf"
			},
			{
				"type": "unocc",
				"energy": -0.02959,
				"method": "rhf"
			},
			{
				"type": "unocc",
				"energy": -0.01315,
				"method": "rhf"
			},
			{
				"type": "unocc",
				"energy": 0.0182,
				"method": "rhf"
			},
			{
				"type": "unocc",
				"energy": 0.03233,
				"method": "rhf"
			}
		],
		"cosmo_sigma_profile": { 
			"-0.025": 0.0,
			"-0.024": 0.0,
			"-0.023": 0.0,
			"-0.022": 0.0,
			"-0.021": 0.0,
			"-0.02": 0.0,
			"-0.019": 0.194018452097,
			"-0.018": 1.16762566209,
			"-0.017": 0.769838135515,
			"-0.016": 0.632125392304,
			"-0.015": 1.04874327393,
			"-0.014": 0.676197693364,
			"-0.013": 0.35630678433,
			"-0.012": 1.04303339891,
			"-0.011": 1.10092451662,
			"-0.01": 0.491674518837,
			"-0.009": 0.499404113591,
			"-0.008": 4.47244826258,
			"-0.007": 14.1226400174,
			"-0.006": 19.5861356065,
			"-0.005": 19.0921062367,
			"-0.004": 17.0744166335,
			"-0.003": 16.3970714709,
			"-0.002": 13.8956072614,
			"-0.001": 12.976428269,
			"0.0": 13.1942085634,
			"0.001": 16.275829488,
			"0.002": 21.0563013026,
			"0.003": 23.6758399041,
			"0.004": 15.171411595,
			"0.005": 11.7193901576,
			"0.006": 4.65359379414,
			"0.007": 4.14038570443,
			"0.008": 4.07215664436,
			"0.009": 3.95548321875,
			"0.01": 5.34435592419,
			"0.011": 8.64426008941,
			"0.012": 4.57067910836,
			"0.013": 2.16359436396,
			"0.014": 0.763967937031,
			"0.015": 0.138669911283,
			"0.016": 0.0,
			"0.017": 0.0,
			"0.018": 0.0,
			"0.019": 0.0,
			"0.02": 0.0,
			"0.021": 0.0,
			"0.022": 0.0,
			"0.023": 0.0,
			"0.024": 0.0,
			"0.025": 0.0
		}
	}
}
