{
	 "smiles": "O=C1CCCN1C1=CC=CC=C1", 
	 "Tm": 339.15, 
	 "num_atms": 23, 
	 "gaussian": { 
		 "optdone": 1, 
		 "sigma_profile": "yes", 
		 "theory": "DFT", 
		 "functional": "B3LYP", 
		 "basiset": "6-31G**", 
		 "properties": { 
			 "R2extent": 2452.6574, 
			 "electric_dipole_moment_norm": 3.60829933764, 
			 "electric_quadrupole_moment_norm": 13.274972035, 
			 "total_energy": -517.689713522, 
			 "HOMO_LUMO_gap": 0.20595, 
			 "cosmo_polarized_energy": -9.96, 
			 "cosmo_cavitation_energy": 25.38, 
			 "cosmo_dispersion_energy": -19.26, 
			 "cosmo_repulsion_energy": 1.52, 
			 "cosmo_total_nonelectrostatic_energy": 7.64, 
			 "SMD_solvation_energy": 4.25 
		},
		"coords": [
			{
				"x": 0.7354200869,
				"y": 2.9175361478,
				"z": -0.1622385217,
				"element": "O" 
			},
			{
				"x": 0.7485214365,
				"y": 2.2104911701,
				"z": -1.1556942902,
				"element": "C" 
			},
			{
				"x": 1.4339992546,
				"y": 2.5496514895,
				"z": -2.4776070876,
				"element": "C" 
			},
			{
				"x": 0.8194799528,
				"y": 1.5732770311,
				"z": -3.4843478225,
				"element": "C" 
			},
			{
				"x": 0.4202210845,
				"y": 0.3682339215,
				"z": -2.6149215601,
				"element": "C" 
			},
			{
				"x": 0.1722233736,
				"y": 0.9510615937,
				"z": -1.2902713985,
				"element": "N" 
			},
			{
				"x": -0.4533851463,
				"y": 0.2032723072,
				"z": -0.2625332387,
				"element": "C" 
			},
			{
				"x": -0.8688936049,
				"y": 0.8041922528,
				"z": 0.9407594247,
				"element": "C" 
			},
			{
				"x": -1.4946657208,
				"y": 0.0349772288,
				"z": 1.9190517803,
				"element": "C" 
			},
			{
				"x": -1.7241431496,
				"y": -1.3295027133,
				"z": 1.7314820791,
				"element": "C" 
			},
			{
				"x": -1.3118659045,
				"y": -1.9251555261,
				"z": 0.5409253782,
				"element": "C" 
			},
			{
				"x": -0.6812119859,
				"y": -1.1716649408,
				"z": -0.4490181845,
				"element": "C" 
			},
			{
				"x": 1.2907877993,
				"y": 3.6056177955,
				"z": -2.7150624676,
				"element": "H" 
			},
			{
				"x": 2.5113656445,
				"y": 2.3852956279,
				"z": -2.3486299918,
				"element": "H" 
			},
			{
				"x": 1.4963055411,
				"y": 1.2867070951,
				"z": -4.292666246,
				"element": "H" 
			},
			{
				"x": -0.0752307234,
				"y": 2.0127627928,
				"z": -3.9365525793,
				"element": "H" 
			},
			{
				"x": 1.2250542591,
				"y": -0.3789577883,
				"z": -2.5632814248,
				"element": "H" 
			},
			{
				"x": -0.4786581757,
				"y": -0.1337844695,
				"z": -2.9844883153,
				"element": "H" 
			},
			{
				"x": -0.6863226679,
				"y": 1.8570933323,
				"z": 1.0975106531,
				"element": "H" 
			},
			{
				"x": -1.8086687245,
				"y": 0.5162935294,
				"z": 2.8411129967,
				"element": "H" 
			},
			{
				"x": -2.2148240942,
				"y": -1.9177424195,
				"z": 2.5009858214,
				"element": "H" 
			},
			{
				"x": -1.4758768908,
				"y": -2.9860079013,
				"z": 0.3736814863,
				"element": "H" 
			},
			{
				"x": -0.3612316444,
				"y": -1.6655475566,
				"z": -1.3588964913,
				"element": "H" 
			}
		],
		 "valence_orbital": [ 
			{
				"type": "occ",
				"energy": -0.33985,
				"method": "rhf"
			},
			{
				"type": "occ",
				"energy": -0.29171,
				"method": "rhf"
			},
			{
				"type": "occ",
				"energy": -0.2488,
				"method": "rhf"
			},
			{
				"type": "occ",
				"energy": -0.24451,
				"method": "rhf"
			},
			{
				"type": "occ",
				"energy": -0.21478,
				"method": "rhf"
			},
			{
				"type": "unocc",
				"energy": -0.00883,
				"method": "rhf"
			},
			{
				"type": "unocc",
				"energy": 0.00318,
				"method": "rhf"
			},
			{
				"type": "unocc",
				"energy": 0.04452,
				"method": "rhf"
			},
			{
				"type": "unocc",
				"energy": 0.08028,
				"method": "rhf"
			},
			{
				"type": "unocc",
				"energy": 0.09568,
				"method": "rhf"
			}
		],
		"cosmo_sigma_profile": { 
			"-0.025": 0.0,
			"-0.024": 0.0,
			"-0.023": 0.0,
			"-0.022": 0.0,
			"-0.021": 0.0,
			"-0.02": 0.0,
			"-0.019": 0.0,
			"-0.018": 0.0,
			"-0.017": 0.0,
			"-0.016": 0.0,
			"-0.015": 0.0,
			"-0.014": 0.0,
			"-0.013": 0.0,
			"-0.012": 0.0,
			"-0.011": 0.0,
			"-0.01": 0.0,
			"-0.009": 0.0,
			"-0.008": 0.0,
			"-0.007": 0.394965093022,
			"-0.006": 8.25424238473,
			"-0.005": 22.3987473703,
			"-0.004": 28.5736193044,
			"-0.003": 24.5996824531,
			"-0.002": 15.8602973331,
			"-0.001": 15.0835007804,
			"0.0": 9.60021715493,
			"0.001": 8.75921178047,
			"0.002": 10.0071367585,
			"0.003": 9.48180740529,
			"0.004": 10.3132595305,
			"0.005": 11.0580618545,
			"0.006": 9.75047555644,
			"0.007": 2.31804070768,
			"0.008": 2.10452293772,
			"0.009": 1.29241394132,
			"0.01": 1.49938668946,
			"0.011": 2.01157472645,
			"0.012": 3.00081188504,
			"0.013": 3.10046227364,
			"0.014": 1.89891089386,
			"0.015": 0.133515887128,
			"0.016": 0.0,
			"0.017": 0.0,
			"0.018": 0.0,
			"0.019": 0.0,
			"0.02": 0.0,
			"0.021": 0.0,
			"0.022": 0.0,
			"0.023": 0.0,
			"0.024": 0.0,
			"0.025": 0.0
		}
	}
}
