{
	 "smiles": "OC(=O)CC1(CCN(C1)C(=O)OCC1=CC=CC=C1)C(O)=O", 
	 "Tm": 443.15, 
	 "num_atms": 39, 
	 "gaussian": { 
		 "optdone": 1, 
		 "sigma_profile": "yes", 
		 "theory": "DFT", 
		 "functional": "B3LYP", 
		 "basiset": "6-31G**", 
		 "properties": { 
			 "R2extent": 10667.462, 
			 "electric_dipole_moment_norm": 3.01497417734, 
			 "electric_quadrupole_moment_norm": 26.1813410468, 
			 "total_energy": -1087.98460059, 
			 "HOMO_LUMO_gap": 0.21652, 
			 "cosmo_polarized_energy": -22.68, 
			 "cosmo_cavitation_energy": 43.27, 
			 "cosmo_dispersion_energy": -29.77, 
			 "cosmo_repulsion_energy": 2.31, 
			 "cosmo_total_nonelectrostatic_energy": 15.8, 
			 "SMD_solvation_energy": 9.55 
		},
		"coords": [
			{
				"x": 2.6940250597,
				"y": 2.531662536,
				"z": -4.0796844563,
				"element": "O" 
			},
			{
				"x": 1.4431187067,
				"y": 2.1280031518,
				"z": -3.7583647961,
				"element": "C" 
			},
			{
				"x": 0.5531805631,
				"y": 2.9108325279,
				"z": -3.5005868969,
				"element": "O" 
			},
			{
				"x": 1.3154087732,
				"y": 0.6180906383,
				"z": -3.7657925767,
				"element": "C" 
			},
			{
				"x": 1.1173959082,
				"y": 0.0061573637,
				"z": -2.3508991415,
				"element": "C" 
			},
			{
				"x": -0.1829999251,
				"y": 0.4708072545,
				"z": -1.6281557915,
				"element": "C" 
			},
			{
				"x": 0.103113808,
				"y": 0.1997728712,
				"z": -0.1461654636,
				"element": "C" 
			},
			{
				"x": 1.5494497237,
				"y": 0.4102098032,
				"z": -0.0536946331,
				"element": "N" 
			},
			{
				"x": 2.2282036692,
				"y": 0.3920273487,
				"z": -1.3484261885,
				"element": "C" 
			},
			{
				"x": 2.2753732812,
				"y": 0.4630347022,
				"z": 1.0940367533,
				"element": "C" 
			},
			{
				"x": 3.4886073878,
				"y": 0.5918077534,
				"z": 1.1427571161,
				"element": "O" 
			},
			{
				"x": 1.4628172666,
				"y": 0.3642721798,
				"z": 2.1861812038,
				"element": "O" 
			},
			{
				"x": 2.135919316,
				"y": 0.4515017632,
				"z": 3.4589928724,
				"element": "C" 
			},
			{
				"x": 1.2257800263,
				"y": -0.0999755499,
				"z": 4.526477703,
				"element": "C" 
			},
			{
				"x": 0.6549798763,
				"y": -1.3729829713,
				"z": 4.3893413368,
				"element": "C" 
			},
			{
				"x": -0.1558354372,
				"y": -1.8966645529,
				"z": 5.3944756279,
				"element": "C" 
			},
			{
				"x": -0.4017286253,
				"y": -1.1579731576,
				"z": 6.555555448,
				"element": "C" 
			},
			{
				"x": 0.1633101511,
				"y": 0.1087826338,
				"z": 6.7008144785,
				"element": "C" 
			},
			{
				"x": 0.9682939966,
				"y": 0.6352738417,
				"z": 5.6877543966,
				"element": "C" 
			},
			{
				"x": 1.059324137,
				"y": -1.5203165598,
				"z": -2.4856055801,
				"element": "C" 
			},
			{
				"x": 0.1827512633,
				"y": -1.9096445837,
				"z": -3.4450162354,
				"element": "O" 
			},
			{
				"x": 1.676947669,
				"y": -2.3175892854,
				"z": -1.8163874237,
				"element": "O" 
			},
			{
				"x": 2.6862376084,
				"y": 3.5039649044,
				"z": -4.0452790105,
				"element": "H" 
			},
			{
				"x": 2.2056448197,
				"y": 0.1890994431,
				"z": -4.2330022953,
				"element": "H" 
			},
			{
				"x": 0.4507518594,
				"y": 0.3635387623,
				"z": -4.3832728331,
				"element": "H" 
			},
			{
				"x": -0.3187706849,
				"y": 1.5394740901,
				"z": -1.8075772501,
				"element": "H" 
			},
			{
				"x": -1.0704201518,
				"y": -0.0506651451,
				"z": -1.9946771178,
				"element": "H" 
			},
			{
				"x": -0.1628490801,
				"y": -0.8266881315,
				"z": 0.1404200752,
				"element": "H" 
			},
			{
				"x": -0.4341437931,
				"y": 0.8798670555,
				"z": 0.5189334476,
				"element": "H" 
			},
			{
				"x": 2.6464430851,
				"y": 1.3785290418,
				"z": -1.5806129392,
				"element": "H" 
			},
			{
				"x": 3.049204963,
				"y": -0.3281718696,
				"z": -1.3447148858,
				"element": "H" 
			},
			{
				"x": 3.0749062449,
				"y": -0.1069206771,
				"z": 3.3930336524,
				"element": "H" 
			},
			{
				"x": 2.391282065,
				"y": 1.4974229803,
				"z": 3.6615932407,
				"element": "H" 
			},
			{
				"x": 0.8427002084,
				"y": -1.9456557799,
				"z": 3.4857257049,
				"element": "H" 
			},
			{
				"x": -0.5945007925,
				"y": -2.8834327926,
				"z": 5.27499067,
				"element": "H" 
			},
			{
				"x": -1.0317387058,
				"y": -1.5681296767,
				"z": 7.3397081879,
				"element": "H" 
			},
			{
				"x": -0.0266740121,
				"y": 0.6917987844,
				"z": 7.597542314,
				"element": "H" 
			},
			{
				"x": 1.3995800219,
				"y": 1.6269646706,
				"z": 5.8006287612,
				"element": "H" 
			},
			{
				"x": 0.1922097493,
				"y": -2.8816853687,
				"z": -3.4416474751,
				"element": "H" 
			}
		],
		 "valence_orbital": [ 
			{
				"type": "occ",
				"energy": -0.2784,
				"method": "rhf"
			},
			{
				"type": "occ",
				"energy": -0.26476,
				"method": "rhf"
			},
			{
				"type": "occ",
				"energy": -0.24886,
				"method": "rhf"
			},
			{
				"type": "occ",
				"energy": -0.24183,
				"method": "rhf"
			},
			{
				"type": "occ",
				"energy": -0.23447,
				"method": "rhf"
			},
			{
				"type": "unocc",
				"energy": -0.01795,
				"method": "rhf"
			},
			{
				"type": "unocc",
				"energy": -0.00465,
				"method": "rhf"
			},
			{
				"type": "unocc",
				"energy": 0.00094,
				"method": "rhf"
			},
			{
				"type": "unocc",
				"energy": 0.00187,
				"method": "rhf"
			},
			{
				"type": "unocc",
				"energy": 0.05248,
				"method": "rhf"
			}
		],
		"cosmo_sigma_profile": { 
			"-0.025": 0.0,
			"-0.024": 0.0,
			"-0.023": 0.0,
			"-0.022": 0.0,
			"-0.021": 0.0,
			"-0.02": 0.0,
			"-0.019": 0.488446625352,
			"-0.018": 1.97290620542,
			"-0.017": 0.976802261784,
			"-0.016": 2.43029272019,
			"-0.015": 1.50162246886,
			"-0.014": 1.27359117276,
			"-0.013": 1.08622261337,
			"-0.012": 1.69206112314,
			"-0.011": 1.35150857987,
			"-0.01": 1.60379100045,
			"-0.009": 0.857625188035,
			"-0.008": 3.60499910891,
			"-0.007": 5.24109142986,
			"-0.006": 15.4449647591,
			"-0.005": 28.0354163367,
			"-0.004": 32.6153006696,
			"-0.003": 33.4801492088,
			"-0.002": 23.0330611762,
			"-0.001": 19.7996913908,
			"0.0": 20.0364706346,
			"0.001": 17.9998346708,
			"0.002": 14.5200277524,
			"0.003": 16.3911192014,
			"0.004": 16.8782969195,
			"0.005": 17.7877978619,
			"0.006": 14.0908049683,
			"0.007": 7.88212217456,
			"0.008": 5.858889996,
			"0.009": 5.37701783856,
			"0.01": 6.85225141551,
			"0.011": 9.69015413263,
			"0.012": 4.36301556703,
			"0.013": 5.17600785362,
			"0.014": 2.07779566123,
			"0.015": 0.0,
			"0.016": 0.0,
			"0.017": 0.0,
			"0.018": 0.0,
			"0.019": 0.0,
			"0.02": 0.0,
			"0.021": 0.0,
			"0.022": 0.0,
			"0.023": 0.0,
			"0.024": 0.0,
			"0.025": 0.0
		}
	}
}
