{
	 "smiles": "CCCCCCCCCCCC(=O)OC(=O)CCCCCCCCCCC", 
	 "Tm": 314.95, 
	 "num_atms": 73, 
	 "gaussian": { 
		 "optdone": 1, 
		 "sigma_profile": "yes", 
		 "theory": "DFT", 
		 "functional": "B3LYP", 
		 "basiset": "6-31G**", 
		 "properties": { 
			 "R2extent": 23189.9461, 
			 "electric_dipole_moment_norm": 3.29071716652, 
			 "electric_quadrupole_moment_norm": 8.58154451949, 
			 "total_energy": -1168.03007554, 
			 "HOMO_LUMO_gap": 0.24595, 
			 "cosmo_polarized_energy": -10.85, 
			 "cosmo_cavitation_energy": 71.15, 
			 "cosmo_dispersion_energy": -46.07, 
			 "cosmo_repulsion_energy": 3.7, 
			 "cosmo_total_nonelectrostatic_energy": 28.78, 
			 "SMD_solvation_energy": 10.78 
		},
		"coords": [
			{
				"x": 0.4993472032,
				"y": -1.9185067306,
				"z": -5.6868052691,
				"element": "C" 
			},
			{
				"x": 0.5092716832,
				"y": -3.411061211,
				"z": -6.0376127126,
				"element": "C" 
			},
			{
				"x": -0.8091286351,
				"y": -4.1433004393,
				"z": -5.7289990763,
				"element": "C" 
			},
			{
				"x": -1.2271524916,
				"y": -4.1892758595,
				"z": -4.247917228,
				"element": "C" 
			},
			{
				"x": -0.2687874949,
				"y": -4.9777109665,
				"z": -3.3423911778,
				"element": "C" 
			},
			{
				"x": -0.6843525288,
				"y": -5.0225134471,
				"z": -1.8614416228,
				"element": "C" 
			},
			{
				"x": -1.9795004386,
				"y": -5.8029758318,
				"z": -1.5876182093,
				"element": "C" 
			},
			{
				"x": -2.288383415,
				"y": -6.0121231569,
				"z": -0.0936172736,
				"element": "C" 
			},
			{
				"x": -2.4282342678,
				"y": -4.7289804308,
				"z": 0.7439603237,
				"element": "C" 
			},
			{
				"x": -3.5756240752,
				"y": -3.8092913368,
				"z": 0.3022879322,
				"element": "C" 
			},
			{
				"x": -3.6735640166,
				"y": -2.5227891318,
				"z": 1.1277605706,
				"element": "C" 
			},
			{
				"x": -2.5600229505,
				"y": -1.5393932533,
				"z": 0.8419333293,
				"element": "C" 
			},
			{
				"x": -1.7572614175,
				"y": -1.594411239,
				"z": -0.0499929569,
				"element": "O" 
			},
			{
				"x": -2.5581157343,
				"y": -0.5334145076,
				"z": 1.8057962878,
				"element": "O" 
			},
			{
				"x": -2.0533795818,
				"y": 0.7381581217,
				"z": 1.5184483601,
				"element": "C" 
			},
			{
				"x": -2.0783942163,
				"y": 1.2203684691,
				"z": 0.420455051,
				"element": "O" 
			},
			{
				"x": -1.5535177271,
				"y": 1.3883796184,
				"z": 2.7864677093,
				"element": "C" 
			},
			{
				"x": -1.164397044,
				"y": 2.8563331023,
				"z": 2.5929457009,
				"element": "C" 
			},
			{
				"x": -0.7074237331,
				"y": 3.5508776687,
				"z": 3.8864492521,
				"element": "C" 
			},
			{
				"x": 0.5668352183,
				"y": 2.9841414526,
				"z": 4.5415989805,
				"element": "C" 
			},
			{
				"x": 1.8406927018,
				"y": 3.025172949,
				"z": 3.6783874681,
				"element": "C" 
			},
			{
				"x": 2.2987342551,
				"y": 4.4403443315,
				"z": 3.2937367702,
				"element": "C" 
			},
			{
				"x": 3.6754821372,
				"y": 4.4951759834,
				"z": 2.6079873052,
				"element": "C" 
			},
			{
				"x": 3.7876462348,
				"y": 3.7593044952,
				"z": 1.259540683,
				"element": "C" 
			},
			{
				"x": 2.8666882702,
				"y": 4.2205992295,
				"z": 0.1127369571,
				"element": "C" 
			},
			{
				"x": 3.122376824,
				"y": 5.6360794622,
				"z": -0.4488061887,
				"element": "C" 
			},
			{
				"x": 2.3933381146,
				"y": 6.7799228839,
				"z": 0.26933551,
				"element": "C" 
			},
			{
				"x": 1.4367811971,
				"y": -1.4373433007,
				"z": -5.9852735045,
				"element": "H" 
			},
			{
				"x": 0.3733809633,
				"y": -1.7506880629,
				"z": -4.6122932214,
				"element": "H" 
			},
			{
				"x": -0.318548977,
				"y": -1.3981844257,
				"z": -6.1991610311,
				"element": "H" 
			},
			{
				"x": 1.341165474,
				"y": -3.903018946,
				"z": -5.5176639921,
				"element": "H" 
			},
			{
				"x": 0.7208793098,
				"y": -3.5241947917,
				"z": -7.108869771,
				"element": "H" 
			},
			{
				"x": -1.6144200105,
				"y": -3.6665444525,
				"z": -6.3050522651,
				"element": "H" 
			},
			{
				"x": -0.7368431489,
				"y": -5.1729793595,
				"z": -6.106316129,
				"element": "H" 
			},
			{
				"x": -2.2281925325,
				"y": -4.635329257,
				"z": -4.1942520351,
				"element": "H" 
			},
			{
				"x": -1.3336432825,
				"y": -3.1688194063,
				"z": -3.8561419623,
				"element": "H" 
			},
			{
				"x": 0.7338122526,
				"y": -4.5363132963,
				"z": -3.4038410171,
				"element": "H" 
			},
			{
				"x": -0.1719321021,
				"y": -6.0045382245,
				"z": -3.7256135773,
				"element": "H" 
			},
			{
				"x": 0.1295680881,
				"y": -5.4817245965,
				"z": -1.2824494437,
				"element": "H" 
			},
			{
				"x": -0.7828192931,
				"y": -3.9948121401,
				"z": -1.4886451216,
				"element": "H" 
			},
			{
				"x": -1.9079569076,
				"y": -6.7910065987,
				"z": -2.0635371474,
				"element": "H" 
			},
			{
				"x": -2.8266178177,
				"y": -5.3017785259,
				"z": -2.0716034504,
				"element": "H" 
			},
			{
				"x": -3.2110229213,
				"y": -6.6021093142,
				"z": -0.0017363739,
				"element": "H" 
			},
			{
				"x": -1.4916635183,
				"y": -6.6257875339,
				"z": 0.3483520366,
				"element": "H" 
			},
			{
				"x": -2.5865221481,
				"y": -5.0122269668,
				"z": 1.7939712989,
				"element": "H" 
			},
			{
				"x": -1.4874876321,
				"y": -4.1681507952,
				"z": 0.7161388554,
				"element": "H" 
			},
			{
				"x": -3.4556925909,
				"y": -3.5343954246,
				"z": -0.7504207329,
				"element": "H" 
			},
			{
				"x": -4.5279930254,
				"y": -4.3483841068,
				"z": 0.3823069191,
				"element": "H" 
			},
			{
				"x": -4.6118498963,
				"y": -1.9897694223,
				"z": 0.921383447,
				"element": "H" 
			},
			{
				"x": -3.6828786344,
				"y": -2.7264000689,
				"z": 2.2054161782,
				"element": "H" 
			},
			{
				"x": -2.3305911524,
				"y": 1.2747345056,
				"z": 3.553480561,
				"element": "H" 
			},
			{
				"x": -0.7079757515,
				"y": 0.7840304913,
				"z": 3.1398806521,
				"element": "H" 
			},
			{
				"x": -2.0259678336,
				"y": 3.3947491311,
				"z": 2.1824077555,
				"element": "H" 
			},
			{
				"x": -0.3861685605,
				"y": 2.9196830959,
				"z": 1.8247095663,
				"element": "H" 
			},
			{
				"x": -0.5609830148,
				"y": 4.6157500854,
				"z": 3.6697542314,
				"element": "H" 
			},
			{
				"x": -1.5233215193,
				"y": 3.5071584831,
				"z": 4.6211402307,
				"element": "H" 
			},
			{
				"x": 0.3869061544,
				"y": 1.9475196564,
				"z": 4.856188245,
				"element": "H" 
			},
			{
				"x": 0.7510190874,
				"y": 3.5445832519,
				"z": 5.4681490785,
				"element": "H" 
			},
			{
				"x": 2.6489383772,
				"y": 2.5326253248,
				"z": 4.2365352436,
				"element": "H" 
			},
			{
				"x": 1.6949839441,
				"y": 2.4211716158,
				"z": 2.7738326434,
				"element": "H" 
			},
			{
				"x": 2.3419310622,
				"y": 5.0543198606,
				"z": 4.2043837697,
				"element": "H" 
			},
			{
				"x": 1.547708041,
				"y": 4.9142670353,
				"z": 2.6500256847,
				"element": "H" 
			},
			{
				"x": 4.4218365068,
				"y": 4.0655859389,
				"z": 3.2909877543,
				"element": "H" 
			},
			{
				"x": 3.9657273192,
				"y": 5.5447036791,
				"z": 2.4779600648,
				"element": "H" 
			},
			{
				"x": 3.6138792552,
				"y": 2.6879976157,
				"z": 1.4246967715,
				"element": "H" 
			},
			{
				"x": 4.8282695321,
				"y": 3.8371118857,
				"z": 0.9154545175,
				"element": "H" 
			},
			{
				"x": 1.812682696,
				"y": 4.1332874841,
				"z": 0.4106303594,
				"element": "H" 
			},
			{
				"x": 2.9969285965,
				"y": 3.5005107054,
				"z": -0.7048889265,
				"element": "H" 
			},
			{
				"x": 4.2036076012,
				"y": 5.8325895358,
				"z": -0.4552102531,
				"element": "H" 
			},
			{
				"x": 2.8126542003,
				"y": 5.649918763,
				"z": -1.5014502489,
				"element": "H" 
			},
			{
				"x": 1.309112103,
				"y": 6.6182518761,
				"z": 0.2585764463,
				"element": "H" 
			},
			{
				"x": 2.5872863686,
				"y": 7.7381091087,
				"z": -0.2250930232,
				"element": "H" 
			},
			{
				"x": 2.7006612667,
				"y": 6.8825296619,
				"z": 1.3139244407,
				"element": "H" 
			}
		],
		 "valence_orbital": [ 
			{
				"type": "occ",
				"energy": -0.29764,
				"method": "rhf"
			},
			{
				"type": "occ",
				"energy": -0.29673,
				"method": "rhf"
			},
			{
				"type": "occ",
				"energy": -0.29417,
				"method": "rhf"
			},
			{
				"type": "occ",
				"energy": -0.29133,
				"method": "rhf"
			},
			{
				"type": "occ",
				"energy": -0.271,
				"method": "rhf"
			},
			{
				"type": "unocc",
				"energy": -0.02505,
				"method": "rhf"
			},
			{
				"type": "unocc",
				"energy": 0.0162,
				"method": "rhf"
			},
			{
				"type": "unocc",
				"energy": 0.06453,
				"method": "rhf"
			},
			{
				"type": "unocc",
				"energy": 0.08429,
				"method": "rhf"
			},
			{
				"type": "unocc",
				"energy": 0.08676,
				"method": "rhf"
			}
		],
		"cosmo_sigma_profile": { 
			"-0.025": 0.0,
			"-0.024": 0.0,
			"-0.023": 0.0,
			"-0.022": 0.0,
			"-0.021": 0.0,
			"-0.02": 0.0,
			"-0.019": 0.0,
			"-0.018": 0.0,
			"-0.017": 0.0,
			"-0.016": 0.0,
			"-0.015": 0.0,
			"-0.014": 0.0,
			"-0.013": 0.0,
			"-0.012": 0.0,
			"-0.011": 0.0,
			"-0.01": 0.0,
			"-0.009": 0.0,
			"-0.008": 0.0560952806088,
			"-0.007": 2.97887774016,
			"-0.006": 8.03284281506,
			"-0.005": 10.4294538018,
			"-0.004": 13.2616456749,
			"-0.003": 26.6219071521,
			"-0.002": 77.3115810083,
			"-0.001": 106.000256981,
			"0.0": 115.013539329,
			"0.001": 101.004596554,
			"0.002": 39.3231192613,
			"0.003": 5.94977041392,
			"0.004": 5.57319281386,
			"0.005": 5.39655981864,
			"0.006": 3.56985188773,
			"0.007": 2.99188154733,
			"0.008": 3.42020175421,
			"0.009": 4.16209774121,
			"0.01": 5.93592837402,
			"0.011": 6.40709090011,
			"0.012": 2.58827809747,
			"0.013": 0.065555128798,
			"0.014": 0.0,
			"0.015": 0.0,
			"0.016": 0.0,
			"0.017": 0.0,
			"0.018": 0.0,
			"0.019": 0.0,
			"0.02": 0.0,
			"0.021": 0.0,
			"0.022": 0.0,
			"0.023": 0.0,
			"0.024": 0.0,
			"0.025": 0.0
		}
	}
}
