{
	 "smiles": "OC(=O)C1=C2C=CC=CC2=NC(=C1)C1=NC=CC=C1", 
	 "Tm": 571.15, 
	 "num_atms": 29, 
	 "gaussian": { 
		 "optdone": 1, 
		 "sigma_profile": "yes", 
		 "theory": "DFT", 
		 "functional": "B3LYP", 
		 "basiset": "6-31G**", 
		 "properties": { 
			 "R2extent": 6809.5859, 
			 "electric_dipole_moment_norm": 1.7908847227, 
			 "electric_quadrupole_moment_norm": 10.9744641455, 
			 "total_energy": -837.60259996, 
			 "HOMO_LUMO_gap": 0.14851, 
			 "cosmo_polarized_energy": -11.5, 
			 "cosmo_cavitation_energy": 33.96, 
			 "cosmo_dispersion_energy": -25.22, 
			 "cosmo_repulsion_energy": 1.89, 
			 "cosmo_total_nonelectrostatic_energy": 10.64, 
			 "SMD_solvation_energy": 4.69 
		},
		"coords": [
			{
				"x": -3.9112022186,
				"y": -2.0234478207,
				"z": -2.5810490159,
				"element": "O" 
			},
			{
				"x": -4.1310534455,
				"y": -0.7825116221,
				"z": -2.0818305277,
				"element": "C" 
			},
			{
				"x": -5.2151064751,
				"y": -0.2432122635,
				"z": -2.2000436594,
				"element": "O" 
			},
			{
				"x": -2.9225808688,
				"y": -0.2127936343,
				"z": -1.4086217505,
				"element": "C" 
			},
			{
				"x": -2.9248167272,
				"y": 1.092432311,
				"z": -0.8079667336,
				"element": "C" 
			},
			{
				"x": -4.030761548,
				"y": 1.984142503,
				"z": -0.7725002067,
				"element": "C" 
			},
			{
				"x": -3.9169600908,
				"y": 3.2174034281,
				"z": -0.165871708,
				"element": "C" 
			},
			{
				"x": -2.7036736619,
				"y": 3.628018431,
				"z": 0.4348035839,
				"element": "C" 
			},
			{
				"x": -1.6138246113,
				"y": 2.7903085848,
				"z": 0.4188630596,
				"element": "C" 
			},
			{
				"x": -1.6931772128,
				"y": 1.5118462817,
				"z": -0.1967300015,
				"element": "C" 
			},
			{
				"x": -0.5720388638,
				"y": 0.7415387128,
				"z": -0.1705881364,
				"element": "N" 
			},
			{
				"x": -0.6054166541,
				"y": -0.4545220006,
				"z": -0.7325315453,
				"element": "C" 
			},
			{
				"x": -1.7688674444,
				"y": -0.9681409078,
				"z": -1.3645603678,
				"element": "C" 
			},
			{
				"x": 0.6388131392,
				"y": -1.2739776902,
				"z": -0.6869743876,
				"element": "C" 
			},
			{
				"x": 0.5859591094,
				"y": -2.4879204158,
				"z": -1.2626818175,
				"element": "N" 
			},
			{
				"x": 1.6861128201,
				"y": -3.2448247003,
				"z": -1.2370471673,
				"element": "C" 
			},
			{
				"x": 2.8852556495,
				"y": -2.8439688261,
				"z": -0.6459425236,
				"element": "C" 
			},
			{
				"x": 2.9353865891,
				"y": -1.5830379287,
				"z": -0.0496597866,
				"element": "C" 
			},
			{
				"x": 1.797978769,
				"y": -0.7826173291,
				"z": -0.0679001025,
				"element": "C" 
			},
			{
				"x": -4.7507531448,
				"y": -2.2912329988,
				"z": -2.9892379158,
				"element": "H" 
			},
			{
				"x": -4.9613385374,
				"y": 1.677954357,
				"z": -1.2290521487,
				"element": "H" 
			},
			{
				"x": -4.7745105964,
				"y": 3.8839360654,
				"z": -0.1497426714,
				"element": "H" 
			},
			{
				"x": -2.637166737,
				"y": 4.603978028,
				"z": 0.9067495093,
				"element": "H" 
			},
			{
				"x": -0.6660456295,
				"y": 3.0675533108,
				"z": 0.8682057865,
				"element": "H" 
			},
			{
				"x": -1.7235680854,
				"y": -1.9547100539,
				"z": -1.8036998233,
				"element": "H" 
			},
			{
				"x": 1.605848576,
				"y": -4.2208776031,
				"z": -1.7126793397,
				"element": "H" 
			},
			{
				"x": 3.7488707581,
				"y": -3.5012867268,
				"z": -0.6548351479,
				"element": "H" 
			},
			{
				"x": 3.8477719489,
				"y": -1.2295959287,
				"z": 0.4223197259,
				"element": "H" 
			},
			{
				"x": 1.7784651935,
				"y": 0.2039664369,
				"z": 0.3788048195,
				"element": "H" 
			}
		],
		 "valence_orbital": [ 
			{
				"type": "occ",
				"energy": -0.27629,
				"method": "rhf"
			},
			{
				"type": "occ",
				"energy": -0.26843,
				"method": "rhf"
			},
			{
				"type": "occ",
				"energy": -0.25202,
				"method": "rhf"
			},
			{
				"type": "occ",
				"energy": -0.24323,
				"method": "rhf"
			},
			{
				"type": "occ",
				"energy": -0.23024,
				"method": "rhf"
			},
			{
				"type": "unocc",
				"energy": -0.08173,
				"method": "rhf"
			},
			{
				"type": "unocc",
				"energy": -0.04509,
				"method": "rhf"
			},
			{
				"type": "unocc",
				"energy": -0.01908,
				"method": "rhf"
			},
			{
				"type": "unocc",
				"energy": -0.00557,
				"method": "rhf"
			},
			{
				"type": "unocc",
				"energy": 0.00808,
				"method": "rhf"
			}
		],
		"cosmo_sigma_profile": { 
			"-0.025": 0.0,
			"-0.024": 0.0,
			"-0.023": 0.0,
			"-0.022": 0.0,
			"-0.021": 0.0,
			"-0.02": 0.0,
			"-0.019": 0.215279709975,
			"-0.018": 0.951912133981,
			"-0.017": 0.920472508062,
			"-0.016": 0.915322434245,
			"-0.015": 0.508347810054,
			"-0.014": 0.594169676956,
			"-0.013": 0.404573163367,
			"-0.012": 1.16874031144,
			"-0.011": 0.930283353068,
			"-0.01": 0.29772342711,
			"-0.009": 0.282878719209,
			"-0.008": 1.1729691147,
			"-0.007": 7.30144582762,
			"-0.006": 15.2683295667,
			"-0.005": 15.5072332456,
			"-0.004": 16.1490462459,
			"-0.003": 13.6688286794,
			"-0.002": 15.4362246465,
			"-0.001": 18.8935624934,
			"0.0": 28.7834207472,
			"0.001": 28.6533579184,
			"0.002": 33.9724079221,
			"0.003": 22.5381374825,
			"0.004": 14.7824346598,
			"0.005": 6.34031067081,
			"0.006": 7.28510381753,
			"0.007": 5.22861519643,
			"0.008": 4.85829157922,
			"0.009": 3.79739906733,
			"0.01": 4.07227692337,
			"0.011": 3.20200612611,
			"0.012": 0.414985173934,
			"0.013": 0.0,
			"0.014": 0.0,
			"0.015": 0.0,
			"0.016": 0.0,
			"0.017": 0.0,
			"0.018": 0.0,
			"0.019": 0.0,
			"0.02": 0.0,
			"0.021": 0.0,
			"0.022": 0.0,
			"0.023": 0.0,
			"0.024": 0.0,
			"0.0": 0.0
		}
	}
}
