{
	 "smiles": "C1CN(CCN1C1=CC=CC=C1)C1=CC=CC=C1", 
	 "Tm": 438.15, 
	 "num_atms": 36, 
	 "gaussian": { 
		 "optdone": 1, 
		 "sigma_profile": "yes", 
		 "theory": "DFT", 
		 "functional": "B3LYP", 
		 "basiset": "6-31G**", 
		 "properties": { 
			 "R2extent": 7847.5416, 
			 "electric_dipole_moment_norm": 0.00418210473327, 
			 "electric_quadrupole_moment_norm": 9.32615886418, 
			 "total_energy": -730.038740288, 
			 "HOMO_LUMO_gap": 0.19163, 
			 "cosmo_polarized_energy": -8.64, 
			 "cosmo_cavitation_energy": 36.74, 
			 "cosmo_dispersion_energy": -27.25, 
			 "cosmo_repulsion_energy": 2.06, 
			 "cosmo_total_nonelectrostatic_energy": 11.55, 
			 "SMD_solvation_energy": 4.02 
		},
		"coords": [
			{
				"x": 0.60346863,
				"y": -1.801614311,
				"z": -2.0104085419,
				"element": "C" 
			},
			{
				"x": -0.3657304006,
				"y": -0.7777161747,
				"z": -2.607035484,
				"element": "C" 
			},
			{
				"x": -1.1065757931,
				"y": -0.0831759954,
				"z": -1.5645397719,
				"element": "N" 
			},
			{
				"x": -0.4631879187,
				"y": 0.0376143675,
				"z": -0.2646756846,
				"element": "C" 
			},
			{
				"x": 1.0619536439,
				"y": 0.0284172809,
				"z": -0.3974457144,
				"element": "C" 
			},
			{
				"x": 1.5251197651,
				"y": -1.1730677589,
				"z": -1.0757051631,
				"element": "N" 
			},
			{
				"x": 2.7924031265,
				"y": -1.694981363,
				"z": -0.8433723134,
				"element": "C" 
			},
			{
				"x": 3.1280859439,
				"y": -3.0072162749,
				"z": -1.2459409598,
				"element": "C" 
			},
			{
				"x": 4.4020191716,
				"y": -3.5202285506,
				"z": -1.0132894141,
				"element": "C" 
			},
			{
				"x": 5.3794923403,
				"y": -2.7604006588,
				"z": -0.3691060549,
				"element": "C" 
			},
			{
				"x": 5.055954369,
				"y": -1.4648947853,
				"z": 0.0367357022,
				"element": "C" 
			},
			{
				"x": 3.7902000759,
				"y": -0.9320353965,
				"z": -0.1960744671,
				"element": "C" 
			},
			{
				"x": -2.3702705674,
				"y": 0.4453364666,
				"z": -1.8014380265,
				"element": "C" 
			},
			{
				"x": -2.8584350542,
				"y": 0.612052451,
				"z": -3.1169659892,
				"element": "C" 
			},
			{
				"x": -4.1279243089,
				"y": 1.1381094098,
				"z": -3.3448414571,
				"element": "C" 
			},
			{
				"x": -4.9500580464,
				"y": 1.5242107438,
				"z": -2.2852561332,
				"element": "C" 
			},
			{
				"x": -4.4749757566,
				"y": 1.367637608,
				"z": -0.9823488348,
				"element": "C" 
			},
			{
				"x": -3.2120495243,
				"y": 0.83456357,
				"z": -0.7352808589,
				"element": "C" 
			},
			{
				"x": 0.0276744854,
				"y": -2.6153895028,
				"z": -1.5392198164,
				"element": "H" 
			},
			{
				"x": 1.1714724914,
				"y": -2.2441497861,
				"z": -2.8356318399,
				"element": "H" 
			},
			{
				"x": -1.0681244837,
				"y": -1.3179948156,
				"z": -3.2507124272,
				"element": "H" 
			},
			{
				"x": 0.194300554,
				"y": -0.0797928862,
				"z": -3.2513607716,
				"element": "H" 
			},
			{
				"x": -0.7727337697,
				"y": -0.7642485501,
				"z": 0.4259670706,
				"element": "H" 
			},
			{
				"x": -0.7525574809,
				"y": 0.9887154148,
				"z": 0.1948224363,
				"element": "H" 
			},
			{
				"x": 1.3871468425,
				"y": 0.9464758887,
				"z": -0.9144293225,
				"element": "H" 
			},
			{
				"x": 1.4853928078,
				"y": 0.0595013962,
				"z": 0.6121697338,
				"element": "H" 
			},
			{
				"x": 2.3849938214,
				"y": -3.6402137388,
				"z": -1.7174092961,
				"element": "H" 
			},
			{
				"x": 4.6248220006,
				"y": -4.5351773284,
				"z": -1.3320702547,
				"element": "H" 
			},
			{
				"x": 6.3689630712,
				"y": -3.1678656942,
				"z": -0.1877389681,
				"element": "H" 
			},
			{
				"x": 5.8010850112,
				"y": -0.8486270232,
				"z": 0.5331036145,
				"element": "H" 
			},
			{
				"x": 3.5876828817,
				"y": 0.0902217764,
				"z": 0.1024560682,
				"element": "H" 
			},
			{
				"x": -2.2356234532,
				"y": 0.356485136,
				"z": -3.9666299546,
				"element": "H" 
			},
			{
				"x": -4.4699689705,
				"y": 1.2570099956,
				"z": -4.3696612556,
				"element": "H" 
			},
			{
				"x": -5.9366951176,
				"y": 1.9368641493,
				"z": -2.4702819774,
				"element": "H" 
			},
			{
				"x": -5.0981693826,
				"y": 1.6522966148,
				"z": -0.1385571992,
				"element": "H" 
			},
			{
				"x": -2.8922510047,
				"y": 0.6956783252,
				"z": 0.2911733264,
				"element": "H" 
			}
		],
		 "valence_orbital": [ 
			{
				"type": "occ",
				"energy": -0.27527,
				"method": "rhf"
			},
			{
				"type": "occ",
				"energy": -0.24151,
				"method": "rhf"
			},
			{
				"type": "occ",
				"energy": -0.24148,
				"method": "rhf"
			},
			{
				"type": "occ",
				"energy": -0.19062,
				"method": "rhf"
			},
			{
				"type": "occ",
				"energy": -0.18531,
				"method": "rhf"
			},
			{
				"type": "unocc",
				"energy": 0.00632,
				"method": "rhf"
			},
			{
				"type": "unocc",
				"energy": 0.00706,
				"method": "rhf"
			},
			{
				"type": "unocc",
				"energy": 0.02041,
				"method": "rhf"
			},
			{
				"type": "unocc",
				"energy": 0.02404,
				"method": "rhf"
			},
			{
				"type": "unocc",
				"energy": 0.07371,
				"method": "rhf"
			}
		],
		"cosmo_sigma_profile": { 
			"-0.025": 0.0,
			"-0.024": 0.0,
			"-0.023": 0.0,
			"-0.022": 0.0,
			"-0.021": 0.0,
			"-0.02": 0.0,
			"-0.019": 0.0,
			"-0.018": 0.0,
			"-0.017": 0.0,
			"-0.016": 0.0,
			"-0.015": 0.0,
			"-0.014": 0.0,
			"-0.013": 0.0,
			"-0.012": 0.0,
			"-0.011": 0.0,
			"-0.01": 0.0,
			"-0.009": 0.0,
			"-0.008": 0.0,
			"-0.007": 0.0,
			"-0.006": 1.53389720668,
			"-0.005": 26.8512466455,
			"-0.004": 37.3332288937,
			"-0.003": 45.6572084029,
			"-0.002": 30.3421152086,
			"-0.001": 18.5093528201,
			"0.0": 15.4772149717,
			"0.001": 14.0203540343,
			"0.002": 13.7114592989,
			"0.003": 14.2784067811,
			"0.004": 16.3447987723,
			"0.005": 16.597757534,
			"0.006": 15.4695992122,
			"0.007": 16.4096572676,
			"0.008": 8.28567200297,
			"0.009": 0.0010600924746,
			"0.01": 0.0,
			"0.011": 0.0,
			"0.012": 0.0,
			"0.013": 0.0,
			"0.014": 0.0,
			"0.015": 0.0,
			"0.016": 0.0,
			"0.017": 0.0,
			"0.018": 0.0,
			"0.019": 0.0,
			"0.02": 0.0,
			"0.021": 0.0,
			"0.022": 0.0,
			"0.023": 0.0,
			"0.024": 0.0,
			"0.025": 0.0
		}
	}
}
