{
	 "smiles": "CCOC1=C(OC)C(Br)=CC(C=O)=C1", 
	 "Tm": 326.15, 
	 "num_atms": 25, 
	 "gaussian": { 
		 "optdone": 1, 
		 "sigma_profile": "yes", 
		 "theory": "DFT", 
		 "functional": "B3LYP", 
		 "basiset": "6-31G**", 
		 "properties": { 
			 "R2extent": 5406.3492, 
			 "electric_dipole_moment_norm": 4.47752923162, 
			 "electric_quadrupole_moment_norm": 16.6466090958, 
			 "total_energy": -3184.73370938, 
			 "HOMO_LUMO_gap": 0.18179, 
			 "cosmo_polarized_energy": -9.68, 
			 "cosmo_cavitation_energy": 31.72, 
			 "cosmo_dispersion_energy": -22.38, 
			 "cosmo_repulsion_energy": 1.79, 
			 "cosmo_total_nonelectrostatic_energy": 11.13, 
			 "SMD_solvation_energy": 6.52 
		},
		"coords": [
			{
				"x": 1.5204752057,
				"y": -2.7094950079,
				"z": -0.8697605883,
				"element": "C" 
			},
			{
				"x": 0.5296373909,
				"y": -1.5608657027,
				"z": -0.865580808,
				"element": "C" 
			},
			{
				"x": 1.1887403765,
				"y": -0.4165704703,
				"z": -0.2764426757,
				"element": "O" 
			},
			{
				"x": 0.4344456042,
				"y": 0.7271849921,
				"z": -0.2063772857,
				"element": "C" 
			},
			{
				"x": -0.6186203621,
				"y": 0.8362392706,
				"z": 0.7278608762,
				"element": "C" 
			},
			{
				"x": -0.9509676924,
				"y": -0.2170425784,
				"z": 1.5274273414,
				"element": "O" 
			},
			{
				"x": -0.0344492225,
				"y": -0.4811972527,
				"z": 2.6036392728,
				"element": "C" 
			},
			{
				"x": -1.3501158583,
				"y": 2.0356632594,
				"z": 0.7879845628,
				"element": "C" 
			},
			{
				"x": -2.7724392089,
				"y": 2.1898505884,
				"z": 2.0473558861,
				"element": "Br" 
			},
			{
				"x": -1.0486002237,
				"y": 3.1056677095,
				"z": -0.0429327706,
				"element": "C" 
			},
			{
				"x": 0.0121040671,
				"y": 2.9925887732,
				"z": -0.9513659232,
				"element": "C" 
			},
			{
				"x": 0.3512097725,
				"y": 4.1319089896,
				"z": -1.8343483291,
				"element": "C" 
			},
			{
				"x": -0.2353322464,
				"y": 5.1968119368,
				"z": -1.843108593,
				"element": "O" 
			},
			{
				"x": 0.7459416863,
				"y": 1.8037209148,
				"z": -1.0327203745,
				"element": "C" 
			},
			{
				"x": 2.4172627309,
				"y": -2.4462058544,
				"z": -1.4377685234,
				"element": "H" 
			},
			{
				"x": 1.0659067479,
				"y": -3.5932006843,
				"z": -1.3281974883,
				"element": "H" 
			},
			{
				"x": 1.8220055939,
				"y": -2.966958603,
				"z": 0.1497091046,
				"element": "H" 
			},
			{
				"x": 0.220395377,
				"y": -1.3027774008,
				"z": -1.8874519219,
				"element": "H" 
			},
			{
				"x": -0.3664454463,
				"y": -1.8058481073,
				"z": -0.2855390449,
				"element": "H" 
			},
			{
				"x": -0.4254905556,
				"y": -1.3583131889,
				"z": 3.1212923897,
				"element": "H" 
			},
			{
				"x": -0.0043417153,
				"y": 0.3667865849,
				"z": 3.2966094288,
				"element": "H" 
			},
			{
				"x": 0.9687167732,
				"y": -0.6891546868,
				"z": 2.2207718491,
				"element": "H" 
			},
			{
				"x": -1.6088023469,
				"y": 4.032168109,
				"z": 0.0036965883,
				"element": "H" 
			},
			{
				"x": 1.2106557012,
				"y": 3.9456459999,
				"z": -2.5160912219,
				"element": "H" 
			},
			{
				"x": 1.5675078512,
				"y": 1.7000924093,
				"z": -1.7360617513,
				"element": "H" 
			}
		],
		 "valence_orbital": [ 
			{
				"type": "occ",
				"energy": -0.28731,
				"method": "rhf"
			},
			{
				"type": "occ",
				"energy": -0.28004,
				"method": "rhf"
			},
			{
				"type": "occ",
				"energy": -0.25942,
				"method": "rhf"
			},
			{
				"type": "occ",
				"energy": -0.25139,
				"method": "rhf"
			},
			{
				"type": "occ",
				"energy": -0.25005,
				"method": "rhf"
			},
			{
				"type": "unocc",
				"energy": -0.06826,
				"method": "rhf"
			},
			{
				"type": "unocc",
				"energy": -0.02238,
				"method": "rhf"
			},
			{
				"type": "unocc",
				"energy": 0.00193,
				"method": "rhf"
			},
			{
				"type": "unocc",
				"energy": 0.03143,
				"method": "rhf"
			},
			{
				"type": "unocc",
				"energy": 0.07888,
				"method": "rhf"
			}
		],
		"cosmo_sigma_profile": { 
			"-0.025": 0.0,
			"-0.024": 0.0,
			"-0.023": 0.0,
			"-0.022": 0.0,
			"-0.021": 0.0,
			"-0.02": 0.0,
			"-0.019": 0.0,
			"-0.018": 0.0,
			"-0.017": 0.0,
			"-0.016": 0.0,
			"-0.015": 0.0,
			"-0.014": 0.0,
			"-0.013": 0.0,
			"-0.012": 0.0,
			"-0.011": 0.0,
			"-0.01": 0.0,
			"-0.009": 0.341610690779,
			"-0.008": 3.32773261261,
			"-0.007": 4.73491633966,
			"-0.006": 7.75869794635,
			"-0.005": 11.9688139944,
			"-0.004": 23.548786482,
			"-0.003": 30.3617916814,
			"-0.002": 25.8100827456,
			"-0.001": 22.9031247352,
			"0.0": 27.1026370827,
			"0.001": 24.6782646558,
			"0.002": 13.0653393221,
			"0.003": 11.119114946,
			"0.004": 12.9449563636,
			"0.005": 6.28027813333,
			"0.006": 3.99777282743,
			"0.007": 5.15690425052,
			"0.008": 3.86680345859,
			"0.009": 3.74212214326,
			"0.01": 4.92941873965,
			"0.011": 5.26080389054,
			"0.012": 1.94494175768,
			"0.013": 0.535388753772,
			"0.014": 0.0,
			"0.015": 0.0,
			"0.016": 0.0,
			"0.017": 0.0,
			"0.018": 0.0,
			"0.019": 0.0,
			"0.02": 0.0,
			"0.021": 0.0,
			"0.022": 0.0,
			"0.023": 0.0,
			"0.024": 0.0,
			"0.025": 0.0
		}
	}
}
