{
	 "smiles": "O=C1N2CCC3=CC=CC=C3C2=CC2=CC=CC=C12", 
	 "Tm": 374.15, 
	 "num_atms": 32, 
	 "gaussian": { 
		 "optdone": 1, 
		 "sigma_profile": "yes", 
		 "theory": "DFT", 
		 "functional": "B3LYP", 
		 "basiset": "6-31G**", 
		 "properties": { 
			 "R2extent": 5299.5558, 
			 "electric_dipole_moment_norm": 3.48220317759, 
			 "electric_quadrupole_moment_norm": 15.3342475498, 
			 "total_energy": -785.664323372, 
			 "HOMO_LUMO_gap": 0.14757, 
			 "cosmo_polarized_energy": -11.09, 
			 "cosmo_cavitation_energy": 34.26, 
			 "cosmo_dispersion_energy": -25.62, 
			 "cosmo_repulsion_energy": 1.89, 
			 "cosmo_total_nonelectrostatic_energy": 10.53, 
			 "SMD_solvation_energy": 5.22 
		},
		"coords": [
			{
				"x": -2.2643296512,
				"y": -1.0107723068,
				"z": -1.3062584217,
				"element": "O" 
			},
			{
				"x": -1.1300230633,
				"y": -0.6040813618,
				"z": -1.0542977651,
				"element": "C" 
			},
			{
				"x": -0.7599198581,
				"y": -0.2885052277,
				"z": 0.2656567597,
				"element": "N" 
			},
			{
				"x": -1.7913778379,
				"y": -0.4699997339,
				"z": 1.299562687,
				"element": "C" 
			},
			{
				"x": -1.1678507553,
				"y": -1.025729166,
				"z": 2.5756109021,
				"element": "C" 
			},
			{
				"x": -0.0566768723,
				"y": -0.115090421,
				"z": 3.0351133584,
				"element": "C" 
			},
			{
				"x": 0.2002923872,
				"y": 0.1307335869,
				"z": 4.3857961104,
				"element": "C" 
			},
			{
				"x": 1.220883366,
				"y": 0.9977691233,
				"z": 4.773591099,
				"element": "C" 
			},
			{
				"x": 1.9864081251,
				"y": 1.6428900903,
				"z": 3.7990537684,
				"element": "C" 
			},
			{
				"x": 1.7374475509,
				"y": 1.4086499472,
				"z": 2.4502047953,
				"element": "C" 
			},
			{
				"x": 0.7285906094,
				"y": 0.5161520832,
				"z": 2.0487100623,
				"element": "C" 
			},
			{
				"x": 0.4932114753,
				"y": 0.2155831135,
				"z": 0.6179968726,
				"element": "C" 
			},
			{
				"x": 1.4535113185,
				"y": 0.3810919397,
				"z": -0.3396935953,
				"element": "C" 
			},
			{
				"x": 1.1916380133,
				"y": 0.0738946449,
				"z": -1.7134742937,
				"element": "C" 
			},
			{
				"x": 2.1615584412,
				"y": 0.2345169159,
				"z": -2.7292106649,
				"element": "C" 
			},
			{
				"x": 1.8605596156,
				"y": -0.0785961172,
				"z": -4.0442922573,
				"element": "C" 
			},
			{
				"x": 0.5852808663,
				"y": -0.5624169464,
				"z": -4.391254301,
				"element": "C" 
			},
			{
				"x": -0.3795416503,
				"y": -0.7279916202,
				"z": -3.409746233,
				"element": "C" 
			},
			{
				"x": -0.0869511091,
				"y": -0.4149411713,
				"z": -2.072215639,
				"element": "C" 
			},
			{
				"x": -2.5398136962,
				"y": -1.1368923761,
				"z": 0.8738268137,
				"element": "H" 
			},
			{
				"x": -2.2751325959,
				"y": 0.4944050157,
				"z": 1.5021334027,
				"element": "H" 
			},
			{
				"x": -1.9365333609,
				"y": -1.1194802489,
				"z": 3.3495926421,
				"element": "H" 
			},
			{
				"x": -0.7836523297,
				"y": -2.0368185405,
				"z": 2.3810509035,
				"element": "H" 
			},
			{
				"x": -0.4115871247,
				"y": -0.3601710976,
				"z": 5.1385265812,
				"element": "H" 
			},
			{
				"x": 1.4069379103,
				"y": 1.1828252473,
				"z": 5.8274244265,
				"element": "H" 
			},
			{
				"x": 2.7677934893,
				"y": 2.3387969463,
				"z": 4.0895424531,
				"element": "H" 
			},
			{
				"x": 2.3140829916,
				"y": 1.9409891121,
				"z": 1.7011865103,
				"element": "H" 
			},
			{
				"x": 2.441050736,
				"y": 0.7201956491,
				"z": -0.0537930021,
				"element": "H" 
			},
			{
				"x": 3.1472457459,
				"y": 0.6082087754,
				"z": -2.4648527727,
				"element": "H" 
			},
			{
				"x": 2.6157252762,
				"y": 0.0507140046,
				"z": -4.8147386193,
				"element": "H" 
			},
			{
				"x": 0.3601734177,
				"y": -0.804936281,
				"z": -5.425390041,
				"element": "H" 
			},
			{
				"x": -1.372701431,
				"y": -1.0980935791,
				"z": -3.6403625422,
				"element": "H" 
			}
		],
		 "valence_orbital": [ 
			{
				"type": "occ",
				"energy": -0.26049,
				"method": "rhf"
			},
			{
				"type": "occ",
				"energy": -0.25259,
				"method": "rhf"
			},
			{
				"type": "occ",
				"energy": -0.25162,
				"method": "rhf"
			},
			{
				"type": "occ",
				"energy": -0.24837,
				"method": "rhf"
			},
			{
				"type": "occ",
				"energy": -0.1986,
				"method": "rhf"
			},
			{
				"type": "unocc",
				"energy": -0.05103,
				"method": "rhf"
			},
			{
				"type": "unocc",
				"energy": -0.03099,
				"method": "rhf"
			},
			{
				"type": "unocc",
				"energy": -0.01076,
				"method": "rhf"
			},
			{
				"type": "unocc",
				"energy": 0.00942,
				"method": "rhf"
			},
			{
				"type": "unocc",
				"energy": 0.0505,
				"method": "rhf"
			}
		],
		"cosmo_sigma_profile": { 
			"-0.025": 0.0,
			"-0.024": 0.0,
			"-0.023": 0.0,
			"-0.022": 0.0,
			"-0.021": 0.0,
			"-0.02": 0.0,
			"-0.019": 0.0,
			"-0.018": 0.0,
			"-0.017": 0.0,
			"-0.016": 0.0,
			"-0.015": 0.0,
			"-0.014": 0.0,
			"-0.013": 0.0,
			"-0.012": 0.0,
			"-0.011": 0.0,
			"-0.01": 0.0,
			"-0.009": 0.0,
			"-0.008": 0.29362192994,
			"-0.007": 3.63881116821,
			"-0.006": 15.6365879691,
			"-0.005": 25.2393753836,
			"-0.004": 30.3105300084,
			"-0.003": 23.3182378821,
			"-0.002": 19.459473653,
			"-0.001": 19.5848414951,
			"0.0": 17.9721417074,
			"0.001": 16.7970229767,
			"0.002": 21.5697242908,
			"0.003": 24.8566426928,
			"0.004": 23.2501517372,
			"0.005": 13.6443518224,
			"0.006": 2.45744350344,
			"0.007": 1.57510013181,
			"0.008": 2.00547117449,
			"0.009": 1.26557689071,
			"0.01": 1.02141570539,
			"0.011": 1.31901781009,
			"0.012": 2.42184892627,
			"0.013": 3.2002115806,
			"0.014": 3.73861606645,
			"0.015": 0.0192257010166,
			"0.016": 0.0,
			"0.017": 0.0,
			"0.018": 0.0,
			"0.019": 0.0,
			"0.02": 0.0,
			"0.021": 0.0,
			"0.022": 0.0,
			"0.023": 0.0,
			"0.024": 0.0,
			"0.025": 0.0
		}
	}
}
