{
	 "smiles": "CCCCCOC=O", 
	 "Tm": 199.65, 
	 "num_atms": 20, 
	 "gaussian": { 
		 "optdone": 1, 
		 "sigma_profile": "yes", 
		 "theory": "DFT", 
		 "functional": "B3LYP", 
		 "basiset": "6-31G**", 
		 "properties": { 
			 "R2extent": 1763.8375, 
			 "electric_dipole_moment_norm": 2.1501053137, 
			 "electric_quadrupole_moment_norm": 9.82209004133, 
			 "total_energy": -386.33038202, 
			 "HOMO_LUMO_gap": 0.28675, 
			 "cosmo_polarized_energy": -6.05, 
			 "cosmo_cavitation_energy": 22.73, 
			 "cosmo_dispersion_energy": -16.22, 
			 "cosmo_repulsion_energy": 1.38, 
			 "cosmo_total_nonelectrostatic_energy": 7.89, 
			 "SMD_solvation_energy": 5.73 
		},
		"coords": [
			{
				"x": -0.0049993527,
				"y": -0.2185866471,
				"z": 3.0947157376,
				"element": "C" 
			},
			{
				"x": 0.7718099369,
				"y": 0.5821196573,
				"z": 2.0427217955,
				"element": "C" 
			},
			{
				"x": 0.0191519637,
				"y": 0.794001519,
				"z": 0.7174873673,
				"element": "C" 
			},
			{
				"x": -0.3140348208,
				"y": -0.4822265813,
				"z": -0.0756897658,
				"element": "C" 
			},
			{
				"x": 0.8944165199,
				"y": -1.2692026036,
				"z": -0.56087424,
				"element": "C" 
			},
			{
				"x": 1.6514043428,
				"y": -0.4170705685,
				"z": -1.4596279638,
				"element": "O" 
			},
			{
				"x": 2.7889003163,
				"y": -0.9376899996,
				"z": -1.9427648977,
				"element": "C" 
			},
			{
				"x": 3.2268848394,
				"y": -2.0361043068,
				"z": -1.6990976498,
				"element": "O" 
			},
			{
				"x": -0.9728967516,
				"y": 0.2487763583,
				"z": 3.3107970842,
				"element": "H" 
			},
			{
				"x": 0.552448696,
				"y": -0.2769738463,
				"z": 4.0351539873,
				"element": "H" 
			},
			{
				"x": -0.2007784181,
				"y": -1.2460376207,
				"z": 2.7696525315,
				"element": "H" 
			},
			{
				"x": 1.0159525438,
				"y": 1.5690284122,
				"z": 2.4553638894,
				"element": "H" 
			},
			{
				"x": 1.7379109133,
				"y": 0.096813789,
				"z": 1.8518945182,
				"element": "H" 
			},
			{
				"x": -0.9209462803,
				"y": 1.3218536946,
				"z": 0.9253610487,
				"element": "H" 
			},
			{
				"x": 0.6083922296,
				"y": 1.4574049369,
				"z": 0.0741089349,
				"element": "H" 
			},
			{
				"x": -0.924528311,
				"y": -1.1632823802,
				"z": 0.5301886504,
				"element": "H" 
			},
			{
				"x": -0.9254840198,
				"y": -0.2145174508,
				"z": -0.9457518554,
				"element": "H" 
			},
			{
				"x": 1.5502383244,
				"y": -1.5821872515,
				"z": 0.2569502304,
				"element": "H" 
			},
			{
				"x": 0.5955945847,
				"y": -2.1705880414,
				"z": -1.1052935582,
				"element": "H" 
			},
			{
				"x": 3.2682627437,
				"y": -0.1994310695,
				"z": -2.6052958446,
				"element": "H" 
			}
		],
		 "valence_orbital": [ 
			{
				"type": "occ",
				"energy": -0.32974,
				"method": "rhf"
			},
			{
				"type": "occ",
				"energy": -0.3253,
				"method": "rhf"
			},
			{
				"type": "occ",
				"energy": -0.32161,
				"method": "rhf"
			},
			{
				"type": "occ",
				"energy": -0.3027,
				"method": "rhf"
			},
			{
				"type": "occ",
				"energy": -0.27889,
				"method": "rhf"
			},
			{
				"type": "unocc",
				"energy": 0.00786,
				"method": "rhf"
			},
			{
				"type": "unocc",
				"energy": 0.07603,
				"method": "rhf"
			},
			{
				"type": "unocc",
				"energy": 0.11224,
				"method": "rhf"
			},
			{
				"type": "unocc",
				"energy": 0.11638,
				"method": "rhf"
			},
			{
				"type": "unocc",
				"energy": 0.12264,
				"method": "rhf"
			}
		],
		"cosmo_sigma_profile": { 
			"-0.025": 0.0,
			"-0.024": 0.0,
			"-0.023": 0.0,
			"-0.022": 0.0,
			"-0.021": 0.0,
			"-0.02": 0.0,
			"-0.019": 0.0,
			"-0.018": 0.0,
			"-0.017": 0.0,
			"-0.016": 0.0,
			"-0.015": 0.0,
			"-0.014": 0.0,
			"-0.013": 0.0,
			"-0.012": 0.0,
			"-0.011": 0.0,
			"-0.01": 0.0,
			"-0.009": 1.54677498214,
			"-0.008": 2.9419816471,
			"-0.007": 1.92434667685,
			"-0.006": 2.43064575982,
			"-0.005": 5.76013606639,
			"-0.004": 12.7234316252,
			"-0.003": 19.0648160954,
			"-0.002": 21.359196004,
			"-0.001": 23.827926677,
			"0.0": 26.1073671622,
			"0.001": 20.2646749598,
			"0.002": 8.84989458329,
			"0.003": 2.73143835888,
			"0.004": 3.41123787246,
			"0.005": 3.67232449862,
			"0.006": 2.14487173805,
			"0.007": 2.61946796999,
			"0.008": 2.09801277714,
			"0.009": 2.3013886997,
			"0.01": 2.06267462746,
			"0.011": 4.43567288056,
			"0.012": 3.8297987658,
			"0.013": 0.584573188171,
			"0.014": 0.0,
			"0.015": 0.0,
			"0.016": 0.0,
			"0.017": 0.0,
			"0.018": 0.0,
			"0.019": 0.0,
			"0.02": 0.0,
			"0.021": 0.0,
			"0.022": 0.0,
			"0.023": 0.0,
			"0.024": 0.0,
			"0.025": 0.0
		}
	}
}
