{
	 "smiles": "OC(=O)CCC1NC(=O)N(C1=O)C1=CC=C(C=C1)C#N", 
	 "Tm": 494.15, 
	 "num_atms": 31, 
	 "gaussian": { 
		 "optdone": 1, 
		 "sigma_profile": "yes", 
		 "theory": "DFT", 
		 "functional": "B3LYP", 
		 "basiset": "6-31G**", 
		 "properties": { 
			 "R2extent": 7615.1689, 
			 "electric_dipole_moment_norm": 4.98191369456, 
			 "electric_quadrupole_moment_norm": 50.6795904528, 
			 "total_energy": -967.192654502, 
			 "HOMO_LUMO_gap": 0.19305, 
			 "cosmo_polarized_energy": -30.76, 
			 "cosmo_cavitation_energy": 37.83, 
			 "cosmo_dispersion_energy": -25.81, 
			 "cosmo_repulsion_energy": 1.99, 
			 "cosmo_total_nonelectrostatic_energy": 14.01, 
			 "SMD_solvation_energy": 9.73 
		},
		"coords": [
			{
				"x": 4.9170370185,
				"y": -1.6350895852,
				"z": 1.2410254291,
				"element": "O" 
			},
			{
				"x": 4.7274270613,
				"y": -0.4056552147,
				"z": 0.6892380398,
				"element": "C" 
			},
			{
				"x": 5.6213559474,
				"y": 0.4014662004,
				"z": 0.6810209964,
				"element": "O" 
			},
			{
				"x": 3.361221073,
				"y": -0.1730831553,
				"z": 0.055076895,
				"element": "C" 
			},
			{
				"x": 3.2895772392,
				"y": -0.8313577849,
				"z": -1.3357621964,
				"element": "C" 
			},
			{
				"x": 1.9261898679,
				"y": -0.6851243222,
				"z": -2.0267727528,
				"element": "C" 
			},
			{
				"x": 1.4409650176,
				"y": 0.6729475399,
				"z": -2.1855136435,
				"element": "N" 
			},
			{
				"x": 0.145617306,
				"y": 0.8389580821,
				"z": -1.7679775379,
				"element": "C" 
			},
			{
				"x": -0.5548900754,
				"y": 1.8175249648,
				"z": -1.9015425322,
				"element": "O" 
			},
			{
				"x": -0.2266437411,
				"y": -0.3858715064,
				"z": -1.1189962199,
				"element": "N" 
			},
			{
				"x": 0.7976530889,
				"y": -1.3249821183,
				"z": -1.2104284116,
				"element": "C" 
			},
			{
				"x": 0.8263913352,
				"y": -2.4387221098,
				"z": -0.7273585008,
				"element": "O" 
			},
			{
				"x": -1.4691505423,
				"y": -0.5841898195,
				"z": -0.449038274,
				"element": "C" 
			},
			{
				"x": -2.0440989868,
				"y": -1.8625946072,
				"z": -0.4172086589,
				"element": "C" 
			},
			{
				"x": -3.2493273164,
				"y": -2.0618587752,
				"z": 0.2453357434,
				"element": "C" 
			},
			{
				"x": -3.898725702,
				"y": -0.9877513567,
				"z": 0.8746847714,
				"element": "C" 
			},
			{
				"x": -3.3185468398,
				"y": 0.2903419811,
				"z": 0.8338986292,
				"element": "C" 
			},
			{
				"x": -2.1082640254,
				"y": 0.4927375747,
				"z": 0.1815328986,
				"element": "C" 
			},
			{
				"x": -5.1439087935,
				"y": -1.1950365236,
				"z": 1.5539464179,
				"element": "C" 
			},
			{
				"x": -6.154079729,
				"y": -1.3641076113,
				"z": 2.1055720526,
				"element": "N" 
			},
			{
				"x": 4.103454517,
				"y": -2.1580350227,
				"z": 1.2005014511,
				"element": "H" 
			},
			{
				"x": 2.5731316392,
				"y": -0.5759969378,
				"z": 0.7036867184,
				"element": "H" 
			},
			{
				"x": 3.215550708,
				"y": 0.9052635705,
				"z": -0.0274632969,
				"element": "H" 
			},
			{
				"x": 3.4882204062,
				"y": -1.9059844091,
				"z": -1.261023532,
				"element": "H" 
			},
			{
				"x": 4.0671380424,
				"y": -0.4068806693,
				"z": -1.9801704464,
				"element": "H" 
			},
			{
				"x": 1.9696230151,
				"y": -1.208320474,
				"z": -2.9936819095,
				"element": "H" 
			},
			{
				"x": 1.8153755598,
				"y": 1.3302525596,
				"z": -2.8538078248,
				"element": "H" 
			},
			{
				"x": -1.5434458645,
				"y": -2.6954213139,
				"z": -0.8917024447,
				"element": "H" 
			},
			{
				"x": -3.6944092748,
				"y": -3.0504489297,
				"z": 0.2734787787,
				"element": "H" 
			},
			{
				"x": -3.8167548595,
				"y": 1.1225706558,
				"z": 1.3190546878,
				"element": "H" 
			},
			{
				"x": -1.6715830921,
				"y": 1.481049118,
				"z": 0.1424946729,
				"element": "H" 
			}
		],
		 "valence_orbital": [ 
			{
				"type": "occ",
				"energy": -0.30086,
				"method": "rhf"
			},
			{
				"type": "occ",
				"energy": -0.29431,
				"method": "rhf"
			},
			{
				"type": "occ",
				"energy": -0.28354,
				"method": "rhf"
			},
			{
				"type": "occ",
				"energy": -0.27999,
				"method": "rhf"
			},
			{
				"type": "occ",
				"energy": -0.26032,
				"method": "rhf"
			},
			{
				"type": "unocc",
				"energy": -0.06727,
				"method": "rhf"
			},
			{
				"type": "unocc",
				"energy": -0.03967,
				"method": "rhf"
			},
			{
				"type": "unocc",
				"energy": -0.03179,
				"method": "rhf"
			},
			{
				"type": "unocc",
				"energy": -0.00248,
				"method": "rhf"
			},
			{
				"type": "unocc",
				"energy": 0.02371,
				"method": "rhf"
			}
		],
		"cosmo_sigma_profile": { 
			"-0.025": 0.0,
			"-0.024": 0.0,
			"-0.023": 0.0,
			"-0.022": 0.0,
			"-0.021": 0.0,
			"-0.02": 0.0,
			"-0.019": 0.0815363580716,
			"-0.018": 0.648385737758,
			"-0.017": 1.20443726365,
			"-0.016": 1.81734354766,
			"-0.015": 2.81116880321,
			"-0.014": 2.26658633495,
			"-0.013": 2.42553117946,
			"-0.012": 2.42683084357,
			"-0.011": 2.42244157676,
			"-0.01": 2.30014459642,
			"-0.009": 5.50199543579,
			"-0.008": 12.8450091539,
			"-0.007": 14.8808579913,
			"-0.006": 18.980464253,
			"-0.005": 19.9197349715,
			"-0.004": 19.2504050179,
			"-0.003": 15.9037278115,
			"-0.002": 14.3629883865,
			"-0.001": 15.0847409419,
			"0.0": 14.8415669793,
			"0.001": 19.182129559,
			"0.002": 13.6410845023,
			"0.003": 7.81547409356,
			"0.004": 7.20801130452,
			"0.005": 6.54633566637,
			"0.006": 8.5478911327,
			"0.007": 7.71062342723,
			"0.008": 8.03510046347,
			"0.009": 10.6082097288,
			"0.01": 12.2226578573,
			"0.011": 14.540463078,
			"0.012": 12.4680809675,
			"0.013": 4.12386087379,
			"0.014": 0.107973707427,
			"0.015": 0.0,
			"0.016": 0.0,
			"0.017": 0.0,
			"0.018": 0.0,
			"0.019": 0.0,
			"0.02": 0.0,
			"0.021": 0.0,
			"0.022": 0.0,
			"0.023": 0.0,
			"0.024": 0.0,
			"0.025": 0.0
		}
	}
}
