{
	 "smiles": "BrCC(=O)C1=CC(=CC(=C1)C(=O)CBr)C(=O)CBr", 
	 "Tm": 384.15, 
	 "num_atms": 27, 
	 "gaussian": { 
		 "optdone": 1, 
		 "sigma_profile": "yes", 
		 "theory": "DFT", 
		 "functional": "B3LYP", 
		 "basiset": "6-31G**", 
		 "properties": { 
			 "R2extent": 13213.1013, 
			 "electric_dipole_moment_norm": 5.06845479806, 
			 "electric_quadrupole_moment_norm": 13.3815767505, 
			 "total_energy": -8402.5717762, 
			 "HOMO_LUMO_gap": 0.17277, 
			 "cosmo_polarized_energy": -21.89, 
			 "cosmo_cavitation_energy": 39.76, 
			 "cosmo_dispersion_energy": -28.11, 
			 "cosmo_repulsion_energy": 2.19, 
			 "cosmo_total_nonelectrostatic_energy": 13.83, 
			 "SMD_solvation_energy": 4.89 
		},
		"coords": [
			{
				"x": 2.2448842847,
				"y": -5.5575505486,
				"z": 0.3105457711,
				"element": "Br" 
			},
			{
				"x": 1.326361581,
				"y": -3.9292274327,
				"z": -0.2385283535,
				"element": "C" 
			},
			{
				"x": 1.6282136114,
				"y": -2.731668158,
				"z": 0.6619767769,
				"element": "C" 
			},
			{
				"x": 2.3684830733,
				"y": -2.8001856747,
				"z": 1.6207755055,
				"element": "O" 
			},
			{
				"x": 0.9548386176,
				"y": -1.4330688372,
				"z": 0.2995289671,
				"element": "C" 
			},
			{
				"x": 1.2336355577,
				"y": -0.3132901601,
				"z": 1.0934371266,
				"element": "C" 
			},
			{
				"x": 0.6481248358,
				"y": 0.9271338045,
				"z": 0.8188915104,
				"element": "C" 
			},
			{
				"x": -0.2271335741,
				"y": 1.0491317892,
				"z": -0.271172727,
				"element": "C" 
			},
			{
				"x": -0.5250846919,
				"y": -0.0638982554,
				"z": -1.067119346,
				"element": "C" 
			},
			{
				"x": 0.0717511762,
				"y": -1.2991396389,
				"z": -0.7752116797,
				"element": "C" 
			},
			{
				"x": -1.4832752969,
				"y": -0.0275106994,
				"z": -2.2190477313,
				"element": "C" 
			},
			{
				"x": -1.7347811096,
				"y": -1.0362267051,
				"z": -2.8570206971,
				"element": "O" 
			},
			{
				"x": -2.1919313977,
				"y": 1.2693667611,
				"z": -2.5865775712,
				"element": "C" 
			},
			{
				"x": -0.9421342012,
				"y": 2.507941913,
				"z": -3.486633841,
				"element": "Br" 
			},
			{
				"x": 0.9776408544,
				"y": 2.0632327894,
				"z": 1.7429149993,
				"element": "C" 
			},
			{
				"x": 1.7384517827,
				"y": 1.9088621456,
				"z": 2.6815792664,
				"element": "O" 
			},
			{
				"x": 0.3210816872,
				"y": 3.424583611,
				"z": 1.5470765096,
				"element": "C" 
			},
			{
				"x": 1.101660675,
				"y": 4.3614429233,
				"z": -0.0092264202,
				"element": "Br" 
			},
			{
				"x": 1.6304771364,
				"y": -3.7200451918,
				"z": -1.2662979503,
				"element": "H" 
			},
			{
				"x": 0.2568434488,
				"y": -4.1495017778,
				"z": -0.2367078469,
				"element": "H" 
			},
			{
				"x": 1.9114809847,
				"y": -0.4099337079,
				"z": 1.9342534338,
				"element": "H" 
			},
			{
				"x": -0.6472251272,
				"y": 2.0165286607,
				"z": -0.5192507596,
				"element": "H" 
			},
			{
				"x": -0.1871803701,
				"y": -2.1335619271,
				"z": -1.4175038704,
				"element": "H" 
			},
			{
				"x": -2.9769907194,
				"y": 1.0453592058,
				"z": -3.30422841,
				"element": "H" 
			},
			{
				"x": -2.5905044926,
				"y": 1.8055419607,
				"z": -1.7254802733,
				"element": "H" 
			},
			{
				"x": -0.751831642,
				"y": 3.3653711149,
				"z": 1.363710954,
				"element": "H" 
			},
			{
				"x": 0.534543316,
				"y": 4.0403120356,
				"z": 2.4170166568,
				"element": "H" 
			}
		],
		 "valence_orbital": [ 
			{
				"type": "occ",
				"energy": -0.28542,
				"method": "rhf"
			},
			{
				"type": "occ",
				"energy": -0.28168,
				"method": "rhf"
			},
			{
				"type": "occ",
				"energy": -0.28024,
				"method": "rhf"
			},
			{
				"type": "occ",
				"energy": -0.2768,
				"method": "rhf"
			},
			{
				"type": "occ",
				"energy": -0.27566,
				"method": "rhf"
			},
			{
				"type": "unocc",
				"energy": -0.10289,
				"method": "rhf"
			},
			{
				"type": "unocc",
				"energy": -0.09676,
				"method": "rhf"
			},
			{
				"type": "unocc",
				"energy": -0.07302,
				"method": "rhf"
			},
			{
				"type": "unocc",
				"energy": -0.02985,
				"method": "rhf"
			},
			{
				"type": "unocc",
				"energy": -0.01459,
				"method": "rhf"
			}
		],
		"cosmo_sigma_profile": { 
			"-0.025": 0.0,
			"-0.024": 0.0,
			"-0.023": 0.0,
			"-0.022": 0.0,
			"-0.021": 0.0,
			"-0.02": 0.0,
			"-0.019": 0.0,
			"-0.018": 0.0,
			"-0.017": 0.0,
			"-0.016": 0.0,
			"-0.015": 0.0,
			"-0.014": 0.0,
			"-0.013": 0.0,
			"-0.012": 0.351459276377,
			"-0.011": 3.27764972403,
			"-0.01": 12.8136731346,
			"-0.009": 12.9170606163,
			"-0.008": 11.2880854974,
			"-0.007": 10.8753287978,
			"-0.006": 12.49364958,
			"-0.005": 10.4706087516,
			"-0.004": 12.010102527,
			"-0.003": 15.0558160442,
			"-0.002": 22.6783857165,
			"-0.001": 30.4469672333,
			"0.0": 19.4857196202,
			"0.001": 18.1301217523,
			"0.002": 17.3135588574,
			"0.003": 21.370496478,
			"0.004": 27.154127105,
			"0.005": 22.8463009882,
			"0.006": 9.17535330468,
			"0.007": 5.9302043613,
			"0.008": 5.90620445808,
			"0.009": 7.1903804419,
			"0.01": 10.8872649624,
			"0.011": 6.74513665518,
			"0.012": 1.50973842369,
			"0.013": 0.0122179654865,
			"0.014": 0.0,
			"0.015": 0.0,
			"0.016": 0.0,
			"0.017": 0.0,
			"0.018": 0.0,
			"0.019": 0.0,
			"0.02": 0.0,
			"0.021": 0.0,
			"0.022": 0.0,
			"0.023": 0.0,
			"0.024": 0.0,
			"0.025": 0.0
		}
	}
}
