{
	 "smiles": "O=C1NC=CC2=C1N(CC1=CC=CC=C1)C=C2", 
	 "Tm": 451.15, 
	 "num_atms": 29, 
	 "gaussian": { 
		 "optdone": 1, 
		 "sigma_profile": "yes", 
		 "theory": "DFT", 
		 "functional": "B3LYP", 
		 "basiset": "6-31G**", 
		 "properties": { 
			 "R2extent": 4379.6141, 
			 "electric_dipole_moment_norm": 2.03704879912, 
			 "electric_quadrupole_moment_norm": 14.2040220332, 
			 "total_energy": -725.46721997, 
			 "HOMO_LUMO_gap": 0.1835, 
			 "cosmo_polarized_energy": -13.7, 
			 "cosmo_cavitation_energy": 32.48, 
			 "cosmo_dispersion_energy": -23.51, 
			 "cosmo_repulsion_energy": 1.79, 
			 "cosmo_total_nonelectrostatic_energy": 10.76, 
			 "SMD_solvation_energy": 6.03 
		},
		"coords": [
			{
				"x": -1.669991325,
				"y": 0.5377831485,
				"z": -0.6635138582,
				"element": "O" 
			},
			{
				"x": -0.7238612159,
				"y": 1.3348972761,
				"z": -0.7434186209,
				"element": "C" 
			},
			{
				"x": -0.9290154121,
				"y": 2.7015956959,
				"z": -0.5232419321,
				"element": "N" 
			},
			{
				"x": 0.0282671238,
				"y": 3.6959438621,
				"z": -0.5789778171,
				"element": "C" 
			},
			{
				"x": 1.3247196876,
				"y": 3.4059321274,
				"z": -0.8638478791,
				"element": "C" 
			},
			{
				"x": 1.6612199816,
				"y": 2.0359156524,
				"z": -1.1063095686,
				"element": "C" 
			},
			{
				"x": 0.6549772438,
				"y": 1.0518018869,
				"z": -1.0447957848,
				"element": "C" 
			},
			{
				"x": 1.2232138952,
				"y": -0.1718601863,
				"z": -1.3342635758,
				"element": "N" 
			},
			{
				"x": 0.5461614804,
				"y": -1.4790496208,
				"z": -1.3329107932,
				"element": "C" 
			},
			{
				"x": 0.6964905595,
				"y": -2.2339461129,
				"z": -0.0249310149,
				"element": "C" 
			},
			{
				"x": 1.6745024881,
				"y": -3.2242173515,
				"z": 0.121384163,
				"element": "C" 
			},
			{
				"x": 1.8199039106,
				"y": -3.9075169524,
				"z": 1.3303023989,
				"element": "C" 
			},
			{
				"x": 0.9831689362,
				"y": -3.6054503181,
				"z": 2.4055419839,
				"element": "C" 
			},
			{
				"x": -0.000076145,
				"y": -2.6227394069,
				"z": 2.2646632557,
				"element": "C" 
			},
			{
				"x": -0.145751995,
				"y": -1.9407367472,
				"z": 1.0566532851,
				"element": "C" 
			},
			{
				"x": 2.5613193165,
				"y": 0.0251882841,
				"z": -1.5592866118,
				"element": "C" 
			},
			{
				"x": 2.8717935645,
				"y": 1.3641913079,
				"z": -1.4341694673,
				"element": "C" 
			},
			{
				"x": -1.8890148255,
				"y": 2.9369381208,
				"z": -0.3081652448,
				"element": "H" 
			},
			{
				"x": -0.329840926,
				"y": 4.699477395,
				"z": -0.3822218151,
				"element": "H" 
			},
			{
				"x": 2.0682022256,
				"y": 4.1926398483,
				"z": -0.9052502844,
				"element": "H" 
			},
			{
				"x": 0.9675301883,
				"y": -2.061711072,
				"z": -2.1577977197,
				"element": "H" 
			},
			{
				"x": -0.505965438,
				"y": -1.2828367294,
				"z": -1.5394493376,
				"element": "H" 
			},
			{
				"x": 2.3227148105,
				"y": -3.4691099438,
				"z": -0.7174349733,
				"element": "H" 
			},
			{
				"x": 2.5814334548,
				"y": -4.6759641576,
				"z": 1.4299106825,
				"element": "H" 
			},
			{
				"x": 1.0924285727,
				"y": -4.1370038997,
				"z": 3.3467153806,
				"element": "H" 
			},
			{
				"x": -0.6593371596,
				"y": -2.391162748,
				"z": 3.0966972446,
				"element": "H" 
			},
			{
				"x": -0.9138655125,
				"y": -1.1818664653,
				"z": 0.9344549355,
				"element": "H" 
			},
			{
				"x": 3.1998876141,
				"y": -0.8138961178,
				"z": -1.7970439482,
				"element": "H" 
			},
			{
				"x": 3.8486849005,
				"y": 1.8059632242,
				"z": -1.5698930826,
				"element": "H" 
			}
		],
		 "valence_orbital": [ 
			{
				"type": "occ",
				"energy": -0.25006,
				"method": "rhf"
			},
			{
				"type": "occ",
				"energy": -0.24621,
				"method": "rhf"
			},
			{
				"type": "occ",
				"energy": -0.24206,
				"method": "rhf"
			},
			{
				"type": "occ",
				"energy": -0.22657,
				"method": "rhf"
			},
			{
				"type": "occ",
				"energy": -0.19747,
				"method": "rhf"
			},
			{
				"type": "unocc",
				"energy": -0.01397,
				"method": "rhf"
			},
			{
				"type": "unocc",
				"energy": 0.00045,
				"method": "rhf"
			},
			{
				"type": "unocc",
				"energy": 0.00195,
				"method": "rhf"
			},
			{
				"type": "unocc",
				"energy": 0.01157,
				"method": "rhf"
			},
			{
				"type": "unocc",
				"energy": 0.06883,
				"method": "rhf"
			}
		],
		"cosmo_sigma_profile": { 
			"-0.025": 0.0,
			"-0.024": 0.0,
			"-0.023": 0.0,
			"-0.022": 0.0,
			"-0.021": 0.0,
			"-0.02": 0.0,
			"-0.019": 0.0,
			"-0.018": 0.0,
			"-0.017": 0.0,
			"-0.016": 0.0591314055363,
			"-0.015": 1.26627986695,
			"-0.014": 1.31044731263,
			"-0.013": 1.18151577967,
			"-0.012": 1.07122040686,
			"-0.011": 1.22107997945,
			"-0.01": 0.986284285886,
			"-0.009": 1.36332867189,
			"-0.008": 5.44195977916,
			"-0.007": 7.42529711794,
			"-0.006": 13.3972846809,
			"-0.005": 18.3634434988,
			"-0.004": 17.9508258658,
			"-0.003": 19.4756685817,
			"-0.002": 15.4236066893,
			"-0.001": 14.6020247307,
			"0.0": 13.8167472659,
			"0.001": 19.5355117628,
			"0.002": 18.4344892873,
			"0.003": 20.67275405,
			"0.004": 20.2055999728,
			"0.005": 19.5402506349,
			"0.006": 12.859974247,
			"0.007": 1.95212810915,
			"0.008": 1.0594923661,
			"0.009": 1.31935479741,
			"0.01": 1.32524929585,
			"0.011": 1.64553276255,
			"0.012": 0.999126736765,
			"0.013": 1.67882790143,
			"0.014": 2.874144421,
			"0.015": 1.98273511456,
			"0.016": 0.070547452336,
			"0.017": 0.0,
			"0.018": 0.0,
			"0.019": 0.0,
			"0.02": 0.0,
			"0.021": 0.0,
			"0.022": 0.0,
			"0.023": 0.0,
			"0.024": 0.0,
			"0.025": 0.0
		}
	}
}
