{
	 "smiles": "CC1=NOC(C=CC2=CC=C(F)C=C2)=C1N", 
	 "Tm": 441.15, 
	 "num_atms": 27, 
	 "gaussian": { 
		 "optdone": 1, 
		 "sigma_profile": "yes", 
		 "theory": "DFT", 
		 "functional": "B3LYP", 
		 "basiset": "6-31G**", 
		 "properties": { 
			 "R2extent": 4716.3576, 
			 "electric_dipole_moment_norm": 3.07427354671, 
			 "electric_quadrupole_moment_norm": 18.1067077692, 
			 "total_energy": -748.406428367, 
			 "HOMO_LUMO_gap": 0.14586, 
			 "cosmo_polarized_energy": -13.0, 
			 "cosmo_cavitation_energy": 31.61, 
			 "cosmo_dispersion_energy": -22.45, 
			 "cosmo_repulsion_energy": 1.72, 
			 "cosmo_total_nonelectrostatic_energy": 10.88, 
			 "SMD_solvation_energy": 5.4 
		},
		"coords": [
			{
				"x": 0.6364699216,
				"y": -0.3066326177,
				"z": 3.9669486765,
				"element": "C" 
			},
			{
				"x": 0.0834343034,
				"y": 0.7946065052,
				"z": 3.1188689011,
				"element": "C" 
			},
			{
				"x": -0.0619763557,
				"y": 2.0106573409,
				"z": 3.5972760185,
				"element": "N" 
			},
			{
				"x": -0.6073781548,
				"y": 2.7672037676,
				"z": 2.5787794067,
				"element": "O" 
			},
			{
				"x": -0.7798509537,
				"y": 1.9892849995,
				"z": 1.4586577866,
				"element": "C" 
			},
			{
				"x": -1.4681800751,
				"y": 2.6414526449,
				"z": 0.3684685219,
				"element": "C" 
			},
			{
				"x": -1.4789632739,
				"y": 2.3866804394,
				"z": -0.9619125261,
				"element": "C" 
			},
			{
				"x": -0.6447749175,
				"y": 1.4969365965,
				"z": -1.7770068061,
				"element": "C" 
			},
			{
				"x": -1.142531185,
				"y": 1.0338984875,
				"z": -3.0134416089,
				"element": "C" 
			},
			{
				"x": -0.3787553432,
				"y": 0.2310982831,
				"z": -3.854150362,
				"element": "C" 
			},
			{
				"x": 0.9149999014,
				"y": -0.1038737282,
				"z": -3.4650108179,
				"element": "C" 
			},
			{
				"x": 1.6646330908,
				"y": -0.8779971035,
				"z": -4.275552507,
				"element": "F" 
			},
			{
				"x": 1.457183176,
				"y": 0.3471233939,
				"z": -2.2673029252,
				"element": "C" 
			},
			{
				"x": 0.6764708939,
				"y": 1.1440012437,
				"z": -1.4297282707,
				"element": "C" 
			},
			{
				"x": -0.3633568545,
				"y": 0.7072946567,
				"z": 1.7611864856,
				"element": "C" 
			},
			{
				"x": -0.4476619764,
				"y": -0.4622927375,
				"z": 1.0200388568,
				"element": "N" 
			},
			{
				"x": -0.0887562067,
				"y": -1.1207600212,
				"z": 4.0786006467,
				"element": "H" 
			},
			{
				"x": 1.5482987145,
				"y": -0.7311778173,
				"z": 3.5292054169,
				"element": "H" 
			},
			{
				"x": 0.8813640274,
				"y": 0.0778646504,
				"z": 4.9588636243,
				"element": "H" 
			},
			{
				"x": -2.1020663441,
				"y": 3.4579752667,
				"z": 0.7099940929,
				"element": "H" 
			},
			{
				"x": -2.2062116032,
				"y": 2.9560744682,
				"z": -1.5381515717,
				"element": "H" 
			},
			{
				"x": -2.149874278,
				"y": 1.3092495154,
				"z": -3.3133256924,
				"element": "H" 
			},
			{
				"x": -0.7646564102,
				"y": -0.1315418395,
				"z": -4.8007515203,
				"element": "H" 
			},
			{
				"x": 2.478716397,
				"y": 0.0872546174,
				"z": -2.0106749851,
				"element": "H" 
			},
			{
				"x": 1.1073903725,
				"y": 1.5325646128,
				"z": -0.5128917286,
				"element": "H" 
			},
			{
				"x": 0.1851171628,
				"y": -1.1908758851,
				"z": 1.323041892,
				"element": "H" 
			},
			{
				"x": -0.4231840292,
				"y": -0.3421697396,
				"z": 0.0153709953,
				"element": "H" 
			}
		],
		 "valence_orbital": [ 
			{
				"type": "occ",
				"energy": -0.29386,
				"method": "rhf"
			},
			{
				"type": "occ",
				"energy": -0.27346,
				"method": "rhf"
			},
			{
				"type": "occ",
				"energy": -0.27042,
				"method": "rhf"
			},
			{
				"type": "occ",
				"energy": -0.24135,
				"method": "rhf"
			},
			{
				"type": "occ",
				"energy": -0.19907,
				"method": "rhf"
			},
			{
				"type": "unocc",
				"energy": -0.05321,
				"method": "rhf"
			},
			{
				"type": "unocc",
				"energy": -0.02374,
				"method": "rhf"
			},
			{
				"type": "unocc",
				"energy": 0.00509,
				"method": "rhf"
			},
			{
				"type": "unocc",
				"energy": 0.04479,
				"method": "rhf"
			},
			{
				"type": "unocc",
				"energy": 0.06577,
				"method": "rhf"
			}
		],
		"cosmo_sigma_profile": { 
			"-0.025": 0.0,
			"-0.024": 0.0,
			"-0.023": 0.0,
			"-0.022": 0.0,
			"-0.021": 0.0,
			"-0.02": 0.0,
			"-0.019": 0.0,
			"-0.018": 0.0,
			"-0.017": 0.0,
			"-0.016": 0.0,
			"-0.015": 0.0,
			"-0.014": 0.0,
			"-0.013": 0.472031594561,
			"-0.012": 1.17037120914,
			"-0.011": 1.30562639184,
			"-0.01": 1.84051158493,
			"-0.009": 1.53543761997,
			"-0.008": 3.14216867907,
			"-0.007": 7.4069935436,
			"-0.006": 16.1252090101,
			"-0.005": 19.586111307,
			"-0.004": 16.6861501773,
			"-0.003": 15.4405476582,
			"-0.002": 16.80757496,
			"-0.001": 18.7611842196,
			"0.0": 16.9584362908,
			"0.001": 20.6034696137,
			"0.002": 19.4538189411,
			"0.003": 20.6164307034,
			"0.004": 19.6039690021,
			"0.005": 7.82180891762,
			"0.006": 2.89483533353,
			"0.007": 3.26669707789,
			"0.008": 3.81634835589,
			"0.009": 6.03359127514,
			"0.01": 3.04138530698,
			"0.011": 2.54132884634,
			"0.012": 1.82007192323,
			"0.013": 2.06859837814,
			"0.014": 1.34747264592,
			"0.015": 0.671625181103,
			"0.016": 0.000325596958246,
			"0.017": 0.0,
			"0.018": 0.0,
			"0.019": 0.0,
			"0.02": 0.0,
			"0.021": 0.0,
			"0.022": 0.0,
			"0.023": 0.0,
			"0.024": 0.0,
			"0.025": 0.0
		}
	}
}
