{
	 "smiles": "CN(C)C(=O)C1=C(N)NN=C1", 
	 "Tm": 441.15, 
	 "num_atms": 21, 
	 "gaussian": { 
		 "optdone": 1, 
		 "sigma_profile": "yes", 
		 "theory": "DFT", 
		 "functional": "B3LYP", 
		 "basiset": "6-31G**", 
		 "properties": { 
			 "R2extent": 2496.4834, 
			 "electric_dipole_moment_norm": 5.40512586532, 
			 "electric_quadrupole_moment_norm": 15.873266208, 
			 "total_energy": -528.878361664, 
			 "HOMO_LUMO_gap": 0.21571, 
			 "cosmo_polarized_energy": -20.18, 
			 "cosmo_cavitation_energy": 24.28, 
			 "cosmo_dispersion_energy": -17.8, 
			 "cosmo_repulsion_energy": 1.44, 
			 "cosmo_total_nonelectrostatic_energy": 7.92, 
			 "SMD_solvation_energy": 4.22 
		},
		"coords": [
			{
				"x": 0.838274359,
				"y": -0.8060512344,
				"z": 1.5267039251,
				"element": "C" 
			},
			{
				"x": 0.3118022781,
				"y": 0.0638445932,
				"z": 0.4702624306,
				"element": "N" 
			},
			{
				"x": -0.2115783244,
				"y": 1.3310669406,
				"z": 0.9774329323,
				"element": "C" 
			},
			{
				"x": 0.9743254844,
				"y": 0.1477669501,
				"z": -0.767064779,
				"element": "C" 
			},
			{
				"x": 1.1443222603,
				"y": 1.2266240103,
				"z": -1.3267341839,
				"element": "O" 
			},
			{
				"x": 1.3676415232,
				"y": -1.1224166672,
				"z": -1.399474634,
				"element": "C" 
			},
			{
				"x": 0.7168795132,
				"y": -2.3594203558,
				"z": -1.3743766842,
				"element": "C" 
			},
			{
				"x": -0.3713250811,
				"y": -2.8006493346,
				"z": -0.6347993613,
				"element": "N" 
			},
			{
				"x": 1.3859511587,
				"y": -3.1542483444,
				"z": -2.2458282688,
				"element": "N" 
			},
			{
				"x": 2.436979,
				"y": -2.5214822381,
				"z": -2.8595432378,
				"element": "N" 
			},
			{
				"x": 2.4062593201,
				"y": -1.3007229286,
				"z": -2.3563191623,
				"element": "C" 
			},
			{
				"x": 1.5932515084,
				"y": -0.2789806423,
				"z": 2.1289544292,
				"element": "H" 
			},
			{
				"x": 0.0292069363,
				"y": -1.1171716569,
				"z": 2.196060521,
				"element": "H" 
			},
			{
				"x": 1.29881001,
				"y": -1.6961733327,
				"z": 1.102126857,
				"element": "H" 
			},
			{
				"x": -0.65769656,
				"y": 1.8938450737,
				"z": 0.1583430461,
				"element": "H" 
			},
			{
				"x": -0.9681910501,
				"y": 1.1218092607,
				"z": 1.7399042422,
				"element": "H" 
			},
			{
				"x": 0.5768016222,
				"y": 1.9526263817,
				"z": 1.424886407,
				"element": "H" 
			},
			{
				"x": -0.8659502335,
				"y": -2.020835917,
				"z": -0.214356224,
				"element": "H" 
			},
			{
				"x": -1.006342565,
				"y": -3.4050719352,
				"z": -1.1432379252,
				"element": "H" 
			},
			{
				"x": 1.2129362549,
				"y": -4.1262429963,
				"z": -2.4488452374,
				"element": "H" 
			},
			{
				"x": 3.1246425852,
				"y": -0.5580156268,
				"z": -2.6752950924,
				"element": "H" 
			}
		],
		 "valence_orbital": [ 
			{
				"type": "occ",
				"energy": -0.2863,
				"method": "rhf"
			},
			{
				"type": "occ",
				"energy": -0.26245,
				"method": "rhf"
			},
			{
				"type": "occ",
				"energy": -0.24997,
				"method": "rhf"
			},
			{
				"type": "occ",
				"energy": -0.2343,
				"method": "rhf"
			},
			{
				"type": "occ",
				"energy": -0.21647,
				"method": "rhf"
			},
			{
				"type": "unocc",
				"energy": -0.00076,
				"method": "rhf"
			},
			{
				"type": "unocc",
				"energy": 0.02863,
				"method": "rhf"
			},
			{
				"type": "unocc",
				"energy": 0.05983,
				"method": "rhf"
			},
			{
				"type": "unocc",
				"energy": 0.08509,
				"method": "rhf"
			},
			{
				"type": "unocc",
				"energy": 0.10153,
				"method": "rhf"
			}
		],
		"cosmo_sigma_profile": { 
			"-0.025": 0.0,
			"-0.024": 0.0,
			"-0.023": 0.0,
			"-0.022": 0.0,
			"-0.021": 0.0,
			"-0.02": 0.0,
			"-0.019": 0.0,
			"-0.018": 0.0,
			"-0.017": 0.531360032978,
			"-0.016": 2.24735880615,
			"-0.015": 2.06192027642,
			"-0.014": 2.94598322515,
			"-0.013": 2.45116145399,
			"-0.012": 2.35079518358,
			"-0.011": 3.57132334606,
			"-0.01": 2.05041364922,
			"-0.009": 2.32470601067,
			"-0.008": 2.23260246275,
			"-0.007": 2.9691339821,
			"-0.006": 3.72211651892,
			"-0.005": 8.5130301566,
			"-0.004": 16.8875998266,
			"-0.003": 16.4472295578,
			"-0.002": 19.8720831675,
			"-0.001": 15.2181805601,
			"0.0": 8.65720596685,
			"0.001": 7.89974140738,
			"0.002": 9.19115619561,
			"0.003": 5.95738408986,
			"0.004": 6.51771066076,
			"0.005": 6.40060604614,
			"0.006": 4.08145840773,
			"0.007": 4.80376473902,
			"0.008": 3.42156713904,
			"0.009": 3.15963937103,
			"0.01": 3.53378449072,
			"0.011": 3.979635285,
			"0.012": 3.92194700692,
			"0.013": 4.34864980968,
			"0.014": 6.21877772098,
			"0.015": 1.94871658167,
			"0.016": 0.995211273251,
			"0.017": 0.0498937987151,
			"0.018": 0.0,
			"0.019": 0.0,
			"0.02": 0.0,
			"0.021": 0.0,
			"0.022": 0.0,
			"0.023": 0.0,
			"0.024": 0.0,
			"0.025": 0.0
		}
	}
}
