{
	 "smiles": "O=CC1=CC=CC=C1", 
	 "Tm": 216.95, 
	 "num_atms": 14, 
	 "gaussian": { 
		 "optdone": 1, 
		 "sigma_profile": "yes", 
		 "theory": "DFT", 
		 "functional": "B3LYP", 
		 "basiset": "6-31G**", 
		 "properties": { 
			 "R2extent": 1152.6458, 
			 "electric_dipole_moment_norm": 3.27335660447, 
			 "electric_quadrupole_moment_norm": 4.91075459986, 
			 "total_energy": -345.575485947, 
			 "HOMO_LUMO_gap": 0.19158, 
			 "cosmo_polarized_energy": -7.15, 
			 "cosmo_cavitation_energy": 18.35, 
			 "cosmo_dispersion_energy": -13.54, 
			 "cosmo_repulsion_energy": 1.12, 
			 "cosmo_total_nonelectrostatic_energy": 5.93, 
			 "SMD_solvation_energy": 4.32 
		},
		"coords": [
			{
				"x": 1.356980076,
				"y": 0.4252480128,
				"z": -1.3997521433,
				"element": "O" 
			},
			{
				"x": 0.3266554171,
				"y": 0.7414635967,
				"z": -0.8357962247,
				"element": "C" 
			},
			{
				"x": -0.0638222257,
				"y": 0.2933395269,
				"z": 0.5201904645,
				"element": "C" 
			},
			{
				"x": -1.2778508131,
				"y": 0.7215402681,
				"z": 1.0730582617,
				"element": "C" 
			},
			{
				"x": -1.6518883316,
				"y": 0.3034566114,
				"z": 2.3494830045,
				"element": "C" 
			},
			{
				"x": -0.8106325748,
				"y": -0.5441524514,
				"z": 3.0742522475,
				"element": "C" 
			},
			{
				"x": 0.4036672576,
				"y": -0.9747722224,
				"z": 2.5259350607,
				"element": "C" 
			},
			{
				"x": 0.7776503869,
				"y": -0.5582609411,
				"z": 1.2527362259,
				"element": "C" 
			},
			{
				"x": -0.4105373195,
				"y": 1.4139868117,
				"z": -1.3298031954,
				"element": "H" 
			},
			{
				"x": -1.9245254677,
				"y": 1.3815223047,
				"z": 0.4990169739,
				"element": "H" 
			},
			{
				"x": -2.5926862757,
				"y": 0.634819177,
				"z": 2.7787875779,
				"element": "H" 
			},
			{
				"x": -1.1003380965,
				"y": -0.8710213857,
				"z": 4.0689714276,
				"element": "H" 
			},
			{
				"x": 1.052201218,
				"y": -1.6337398436,
				"z": 3.0957817709,
				"element": "H" 
			},
			{
				"x": 1.7125267489,
				"y": -0.875129465,
				"z": 0.8011385483,
				"element": "H" 
			}
		],
		 "valence_orbital": [ 
			{
				"type": "occ",
				"energy": -0.3639,
				"method": "rhf"
			},
			{
				"type": "occ",
				"energy": -0.35515,
				"method": "rhf"
			},
			{
				"type": "occ",
				"energy": -0.26708,
				"method": "rhf"
			},
			{
				"type": "occ",
				"energy": -0.26397,
				"method": "rhf"
			},
			{
				"type": "occ",
				"energy": -0.25487,
				"method": "rhf"
			},
			{
				"type": "unocc",
				"energy": -0.06329,
				"method": "rhf"
			},
			{
				"type": "unocc",
				"energy": -0.015,
				"method": "rhf"
			},
			{
				"type": "unocc",
				"energy": 0.03888,
				"method": "rhf"
			},
			{
				"type": "unocc",
				"energy": 0.08768,
				"method": "rhf"
			},
			{
				"type": "unocc",
				"energy": 0.11552,
				"method": "rhf"
			}
		],
		"cosmo_sigma_profile": { 
			"-0.025": 0.0,
			"-0.024": 0.0,
			"-0.023": 0.0,
			"-0.022": 0.0,
			"-0.021": 0.0,
			"-0.02": 0.0,
			"-0.019": 0.0,
			"-0.018": 0.0,
			"-0.017": 0.0,
			"-0.016": 0.0,
			"-0.015": 0.0,
			"-0.014": 0.0,
			"-0.013": 0.0,
			"-0.012": 0.0,
			"-0.011": 0.0,
			"-0.01": 0.0,
			"-0.009": 0.0,
			"-0.008": 0.494594320385,
			"-0.007": 5.82041980429,
			"-0.006": 13.4154720037,
			"-0.005": 13.8233310994,
			"-0.004": 12.5300899918,
			"-0.003": 9.59172556045,
			"-0.002": 8.9641503412,
			"-0.001": 8.51632889632,
			"0.0": 8.498100061,
			"0.001": 10.8234390786,
			"0.002": 10.9749442479,
			"0.003": 13.2087130349,
			"0.004": 11.1773739946,
			"0.005": 2.34819091331,
			"0.006": 1.21651614905,
			"0.007": 1.35271676007,
			"0.008": 2.28566788603,
			"0.009": 1.71473954989,
			"0.01": 2.49963295505,
			"0.011": 4.00350107574,
			"0.012": 3.27003799118,
			"0.013": 0.928771788168,
			"0.014": 0.0,
			"0.015": 0.0,
			"0.016": 0.0,
			"0.017": 0.0,
			"0.018": 0.0,
			"0.019": 0.0,
			"0.02": 0.0,
			"0.021": 0.0,
			"0.022": 0.0,
			"0.023": 0.0,
			"0.024": 0.0,
			"0.025": 0.0
		}
	}
}
