{
	 "smiles": "NC1=CC=CN=C1[N+]([O-])=O", 
	 "Tm": 468.15, 
	 "num_atms": 15, 
	 "gaussian": { 
		 "optdone": 1, 
		 "sigma_profile": "yes", 
		 "theory": "DFT", 
		 "functional": "B3LYP", 
		 "basiset": "6-31G**", 
		 "properties": { 
			 "R2extent": 1615.2616, 
			 "electric_dipole_moment_norm": 6.23288463314, 
			 "electric_quadrupole_moment_norm": 13.0497433308, 
			 "total_energy": -508.143358076, 
			 "HOMO_LUMO_gap": 0.15004, 
			 "cosmo_polarized_energy": -15.96, 
			 "cosmo_cavitation_energy": 19.82, 
			 "cosmo_dispersion_energy": -15.21, 
			 "cosmo_repulsion_energy": 1.24, 
			 "cosmo_total_nonelectrostatic_energy": 5.84, 
			 "SMD_solvation_energy": 4.61 
		},
		"coords": [
			{
				"x": 1.517631495,
				"y": -1.3623236293,
				"z": 1.9290663707,
				"element": "N" 
			},
			{
				"x": 0.8937391607,
				"y": -0.6532844674,
				"z": 0.9582255319,
				"element": "C" 
			},
			{
				"x": 0.7620122109,
				"y": 0.7557903315,
				"z": 1.0728089805,
				"element": "C" 
			},
			{
				"x": 0.1279326472,
				"y": 1.4842492055,
				"z": 0.0889897866,
				"element": "C" 
			},
			{
				"x": -0.3885940675,
				"y": 0.8119362785,
				"z": -1.033486847,
				"element": "C" 
			},
			{
				"x": -0.2815837221,
				"y": -0.5000627089,
				"z": -1.1694304512,
				"element": "N" 
			},
			{
				"x": 0.327813443,
				"y": -1.2051163063,
				"z": -0.2252636006,
				"element": "C" 
			},
			{
				"x": 0.380219007,
				"y": -2.6537259002,
				"z": -0.496793016,
				"element": "N" 
			},
			{
				"x": -0.1193805791,
				"y": -3.0781470802,
				"z": -1.5256524145,
				"element": "O" 
			},
			{
				"x": 0.9397751963,
				"y": -3.3789950764,
				"z": 0.3503343774,
				"element": "O" 
			},
			{
				"x": 1.5944756167,
				"y": -2.3628003867,
				"z": 1.8158500513,
				"element": "H" 
			},
			{
				"x": 1.8907100828,
				"y": -0.8906992896,
				"z": 2.7358459764,
				"element": "H" 
			},
			{
				"x": 1.1714895189,
				"y": 1.2462528532,
				"z": 1.9518927088,
				"element": "H" 
			},
			{
				"x": 0.0282287858,
				"y": 2.5615447467,
				"z": 0.1783749935,
				"element": "H" 
			},
			{
				"x": -0.8950687955,
				"y": 1.3505814296,
				"z": -1.8300624478,
				"element": "H" 
			}
		],
		 "valence_orbital": [ 
			{
				"type": "occ",
				"energy": -0.30221,
				"method": "rhf"
			},
			{
				"type": "occ",
				"energy": -0.30064,
				"method": "rhf"
			},
			{
				"type": "occ",
				"energy": -0.29018,
				"method": "rhf"
			},
			{
				"type": "occ",
				"energy": -0.27249,
				"method": "rhf"
			},
			{
				"type": "occ",
				"energy": -0.23455,
				"method": "rhf"
			},
			{
				"type": "unocc",
				"energy": -0.08451,
				"method": "rhf"
			},
			{
				"type": "unocc",
				"energy": -0.02441,
				"method": "rhf"
			},
			{
				"type": "unocc",
				"energy": 0.00213,
				"method": "rhf"
			},
			{
				"type": "unocc",
				"energy": 0.06926,
				"method": "rhf"
			},
			{
				"type": "unocc",
				"energy": 0.09018,
				"method": "rhf"
			}
		],
		"cosmo_sigma_profile": { 
			"-0.025": 0.0,
			"-0.024": 0.0,
			"-0.023": 0.0,
			"-0.022": 0.0,
			"-0.021": 0.0,
			"-0.02": 0.0,
			"-0.019": 0.0,
			"-0.018": 0.0,
			"-0.017": 0.0,
			"-0.016": 0.0,
			"-0.015": 1.11844767322,
			"-0.014": 1.67621747051,
			"-0.013": 1.51877020622,
			"-0.012": 1.54273623915,
			"-0.011": 2.09896350329,
			"-0.01": 2.43168130837,
			"-0.009": 2.94935181107,
			"-0.008": 5.02777253166,
			"-0.007": 7.2332532704,
			"-0.006": 8.74219823738,
			"-0.005": 7.70865521411,
			"-0.004": 6.92142963197,
			"-0.003": 7.98235522785,
			"-0.002": 7.19760911701,
			"-0.001": 12.3445818187,
			"0.0": 13.3906335558,
			"0.001": 12.7420405066,
			"0.002": 8.28262967021,
			"0.003": 5.03460989942,
			"0.004": 4.1395337158,
			"0.005": 3.2437765781,
			"0.006": 4.38384700629,
			"0.007": 4.02373873303,
			"0.008": 6.55949048738,
			"0.009": 6.96798554342,
			"0.01": 5.61922848058,
			"0.011": 2.44345965029,
			"0.012": 1.5860031805,
			"0.013": 1.26727844339,
			"0.014": 0.76135379913,
			"0.015": 0.904956082775,
			"0.016": 0.891023086795,
			"0.017": 0.417114728573,
			"0.018": 0.0,
			"0.019": 0.0,
			"0.02": 0.0,
			"0.021": 0.0,
			"0.022": 0.0,
			"0.023": 0.0,
			"0.024": 0.0,
			"0.025": 0.0
		}
	}
}
