{
	 "smiles": "NC(=O)CN1C=CC(=N1)[N+]([O-])=O", 
	 "Tm": 433.15, 
	 "num_atms": 18, 
	 "gaussian": { 
		 "optdone": 1, 
		 "sigma_profile": "yes", 
		 "theory": "DFT", 
		 "functional": "B3LYP", 
		 "basiset": "6-31G**", 
		 "properties": { 
			 "R2extent": 3237.9011, 
			 "electric_dipole_moment_norm": 3.04050879459, 
			 "electric_quadrupole_moment_norm": 24.832353196, 
			 "total_energy": -638.708848769, 
			 "HOMO_LUMO_gap": 0.17199, 
			 "cosmo_polarized_energy": -18.6, 
			 "cosmo_cavitation_energy": 24.05, 
			 "cosmo_dispersion_energy": -17.38, 
			 "cosmo_repulsion_energy": 1.41, 
			 "cosmo_total_nonelectrostatic_energy": 8.08, 
			 "SMD_solvation_energy": 7.24 
		},
		"coords": [
			{
				"x": -1.493316576,
				"y": -1.9620133791,
				"z": -1.2457613138,
				"element": "N" 
			},
			{
				"x": -0.2739262601,
				"y": -1.4988043233,
				"z": -1.6082808089,
				"element": "C" 
			},
			{
				"x": 0.3283203139,
				"y": -1.8251972937,
				"z": -2.6191978136,
				"element": "O" 
			},
			{
				"x": 0.3437262917,
				"y": -0.4302402156,
				"z": -0.6793407371,
				"element": "C" 
			},
			{
				"x": 0.0999217883,
				"y": -0.6053372582,
				"z": 0.7486785692,
				"element": "N" 
			},
			{
				"x": 1.0140757541,
				"y": -0.898119021,
				"z": 1.7195811927,
				"element": "C" 
			},
			{
				"x": 0.3261642073,
				"y": -0.9803552891,
				"z": 2.9133476611,
				"element": "C" 
			},
			{
				"x": -1.003587082,
				"y": -0.7261427649,
				"z": 2.5352185386,
				"element": "C" 
			},
			{
				"x": -1.1460309731,
				"y": -0.494941194,
				"z": 1.2323352678,
				"element": "N" 
			},
			{
				"x": -2.1587361085,
				"y": -0.7073305405,
				"z": 3.4106262917,
				"element": "N" 
			},
			{
				"x": -3.264384721,
				"y": -0.5352583888,
				"z": 2.9075051677,
				"element": "O" 
			},
			{
				"x": -1.9271724402,
				"y": -0.8747153156,
				"z": 4.6095050453,
				"element": "O" 
			},
			{
				"x": -1.9502183802,
				"y": -2.6187589952,
				"z": -1.8602482296,
				"element": "H" 
			},
			{
				"x": -1.9718043918,
				"y": -1.6064659434,
				"z": -0.428000602,
				"element": "H" 
			},
			{
				"x": -0.0384617961,
				"y": 0.551451254,
				"z": -0.9773986222,
				"element": "H" 
			},
			{
				"x": 1.4197963222,
				"y": -0.4496452333,
				"z": -0.8471078938,
				"element": "H" 
			},
			{
				"x": 2.0622306291,
				"y": -1.0165120374,
				"z": 1.4877351092,
				"element": "H" 
			},
			{
				"x": 0.7029034226,
				"y": -1.188214061,
				"z": 3.9010031775,
				"element": "H" 
			}
		],
		 "valence_orbital": [ 
			{
				"type": "occ",
				"energy": -0.30615,
				"method": "rhf"
			},
			{
				"type": "occ",
				"energy": -0.29615,
				"method": "rhf"
			},
			{
				"type": "occ",
				"energy": -0.29322,
				"method": "rhf"
			},
			{
				"type": "occ",
				"energy": -0.28176,
				"method": "rhf"
			},
			{
				"type": "occ",
				"energy": -0.26233,
				"method": "rhf"
			},
			{
				"type": "unocc",
				"energy": -0.09034,
				"method": "rhf"
			},
			{
				"type": "unocc",
				"energy": -0.01738,
				"method": "rhf"
			},
			{
				"type": "unocc",
				"energy": 0.00878,
				"method": "rhf"
			},
			{
				"type": "unocc",
				"energy": 0.05432,
				"method": "rhf"
			},
			{
				"type": "unocc",
				"energy": 0.06678,
				"method": "rhf"
			}
		],
		"cosmo_sigma_profile": { 
			"-0.025": 0.0,
			"-0.024": 0.0,
			"-0.023": 0.0,
			"-0.022": 0.0,
			"-0.021": 0.0,
			"-0.02": 0.0,
			"-0.019": 0.0,
			"-0.018": 0.0,
			"-0.017": 0.0,
			"-0.016": 0.0,
			"-0.015": 0.144103488756,
			"-0.014": 1.16762800273,
			"-0.013": 1.23044607722,
			"-0.012": 1.92410290367,
			"-0.011": 4.71495364341,
			"-0.01": 5.31549005968,
			"-0.009": 7.62540368352,
			"-0.008": 8.46209412299,
			"-0.007": 8.33082742752,
			"-0.006": 10.3500531103,
			"-0.005": 8.72678303696,
			"-0.004": 9.50914438364,
			"-0.003": 9.59360519234,
			"-0.002": 10.5127134449,
			"-0.001": 11.6324190485,
			"0.0": 9.82905727642,
			"0.001": 8.47077697508,
			"0.002": 7.67304424854,
			"0.003": 5.19822454955,
			"0.004": 5.56982156186,
			"0.005": 4.26375245998,
			"0.006": 5.80850672995,
			"0.007": 9.4488999725,
			"0.008": 11.5903338602,
			"0.009": 6.2971766906,
			"0.01": 5.3311388566,
			"0.011": 2.25515305877,
			"0.012": 2.52795584046,
			"0.013": 6.17046415543,
			"0.014": 2.70521591272,
			"0.015": 0.0457544572298,
			"0.016": 0.0,
			"0.017": 0.0,
			"0.018": 0.0,
			"0.019": 0.0,
			"0.02": 0.0,
			"0.021": 0.0,
			"0.022": 0.0,
			"0.023": 0.0,
			"0.024": 0.0,
			"0.025": 0.0
		}
	}
}
