{
	 "smiles": "OC(=O)C1=CC=C(OCC#C)C=C1", 
	 "Tm": 490.15, 
	 "num_atms": 21, 
	 "gaussian": { 
		 "optdone": 1, 
		 "sigma_profile": "yes", 
		 "theory": "DFT", 
		 "functional": "B3LYP", 
		 "basiset": "6-31G**", 
		 "properties": { 
			 "R2extent": 3224.6288, 
			 "electric_dipole_moment_norm": 6.09115630894, 
			 "electric_quadrupole_moment_norm": 18.7279756923, 
			 "total_energy": -611.473675757, 
			 "HOMO_LUMO_gap": 0.19974, 
			 "cosmo_polarized_energy": -17.26, 
			 "cosmo_cavitation_energy": 26.96, 
			 "cosmo_dispersion_energy": -19.11, 
			 "cosmo_repulsion_energy": 1.5, 
			 "cosmo_total_nonelectrostatic_energy": 9.36, 
			 "SMD_solvation_energy": 7.48 
		},
		"coords": [
			{
				"x": 1.7071828226,
				"y": 1.591968718,
				"z": 3.2903355151,
				"element": "O" 
			},
			{
				"x": 0.3788958977,
				"y": 1.3189418065,
				"z": 3.1531730734,
				"element": "C" 
			},
			{
				"x": -0.3554234197,
				"y": 1.4219711856,
				"z": 4.1086623534,
				"element": "O" 
			},
			{
				"x": -0.0878845614,
				"y": 0.9016431002,
				"z": 1.7966008577,
				"element": "C" 
			},
			{
				"x": 0.7630989331,
				"y": 0.3980486504,
				"z": 0.8062014751,
				"element": "C" 
			},
			{
				"x": 0.2741518141,
				"y": 0.0060979607,
				"z": -0.4403140696,
				"element": "C" 
			},
			{
				"x": -1.0966721682,
				"y": 0.116639083,
				"z": -0.703995242,
				"element": "C" 
			},
			{
				"x": -1.6974077538,
				"y": -0.2403700797,
				"z": -1.8755105384,
				"element": "O" 
			},
			{
				"x": -0.9192396897,
				"y": -0.8700935918,
				"z": -2.8962250768,
				"element": "C" 
			},
			{
				"x": -0.0367734401,
				"y": 0.0472077294,
				"z": -3.6213318344,
				"element": "C" 
			},
			{
				"x": 0.6894763955,
				"y": 0.7924234378,
				"z": -4.2331763137,
				"element": "C" 
			},
			{
				"x": -1.9629112847,
				"y": 0.612992391,
				"z": 0.2847415238,
				"element": "C" 
			},
			{
				"x": -1.4631291304,
				"y": 0.9896944957,
				"z": 1.5196376588,
				"element": "C" 
			},
			{
				"x": 2.126754396,
				"y": 1.6424947078,
				"z": 2.4207376643,
				"element": "H" 
			},
			{
				"x": 1.8255131752,
				"y": 0.2674553638,
				"z": 0.9989188009,
				"element": "H" 
			},
			{
				"x": 0.9625557171,
				"y": -0.3624232012,
				"z": -1.1904206486,
				"element": "H" 
			},
			{
				"x": -1.658736449,
				"y": -1.2938879779,
				"z": -3.5819604067,
				"element": "H" 
			},
			{
				"x": -0.3421898969,
				"y": -1.7036606387,
				"z": -2.4730234395,
				"element": "H" 
			},
			{
				"x": 1.3249531075,
				"y": 1.4568706942,
				"z": -4.7724639938,
				"element": "H" 
			},
			{
				"x": -3.0212361971,
				"y": 0.6832260052,
				"z": 0.0571187219,
				"element": "H" 
			},
			{
				"x": -2.1225782679,
				"y": 1.3596601599,
				"z": 2.2971939193,
				"element": "H" 
			}
		],
		 "valence_orbital": [ 
			{
				"type": "occ",
				"energy": -0.29637,
				"method": "rhf"
			},
			{
				"type": "occ",
				"energy": -0.28936,
				"method": "rhf"
			},
			{
				"type": "occ",
				"energy": -0.27132,
				"method": "rhf"
			},
			{
				"type": "occ",
				"energy": -0.26695,
				"method": "rhf"
			},
			{
				"type": "occ",
				"energy": -0.24107,
				"method": "rhf"
			},
			{
				"type": "unocc",
				"energy": -0.04133,
				"method": "rhf"
			},
			{
				"type": "unocc",
				"energy": -0.02091,
				"method": "rhf"
			},
			{
				"type": "unocc",
				"energy": 0.01015,
				"method": "rhf"
			},
			{
				"type": "unocc",
				"energy": 0.03287,
				"method": "rhf"
			},
			{
				"type": "unocc",
				"energy": 0.05602,
				"method": "rhf"
			}
		],
		"cosmo_sigma_profile": { 
			"-0.025": 0.0,
			"-0.024": 0.0,
			"-0.023": 0.0,
			"-0.022": 0.0,
			"-0.021": 0.0,
			"-0.02": 0.0,
			"-0.019": 0.0742699162646,
			"-0.018": 0.819055173284,
			"-0.017": 0.96708756854,
			"-0.016": 0.956993686782,
			"-0.015": 0.83107644177,
			"-0.014": 1.30352937509,
			"-0.013": 0.813728185951,
			"-0.012": 2.40117529941,
			"-0.011": 2.37792418218,
			"-0.01": 2.39075470979,
			"-0.009": 3.56758383149,
			"-0.008": 8.36951764446,
			"-0.007": 10.525551051,
			"-0.006": 12.3046810168,
			"-0.005": 10.3769388117,
			"-0.004": 8.87135808537,
			"-0.003": 8.60498973424,
			"-0.002": 10.2393344353,
			"-0.001": 9.51357661904,
			"0.0": 10.3503579582,
			"0.001": 12.0894131831,
			"0.002": 18.3237011302,
			"0.003": 21.7681240781,
			"0.004": 11.4430720712,
			"0.005": 11.4254993531,
			"0.006": 7.75316808482,
			"0.007": 3.34635835891,
			"0.008": 4.06174756236,
			"0.009": 3.99480808825,
			"0.01": 4.50096121252,
			"0.011": 4.94400440822,
			"0.012": 5.54311164434,
			"0.013": 2.22090612419,
			"0.014": 0.306170704009,
			"0.015": 0.0,
			"0.016": 0.0,
			"0.017": 0.0,
			"0.018": 0.0,
			"0.019": 0.0,
			"0.02": 0.0,
			"0.021": 0.0,
			"0.022": 0.0,
			"0.023": 0.0,
			"0.024": 0.0,
			"0.025": 0.0
		}
	}
}
