{
	 "smiles": "NC1=CC(Br)=NC=C1", 
	 "Tm": 371.15, 
	 "num_atms": 13, 
	 "gaussian": { 
		 "optdone": 1, 
		 "sigma_profile": "yes", 
		 "theory": "DFT", 
		 "functional": "B3LYP", 
		 "basiset": "6-31G**", 
		 "properties": { 
			 "R2extent": 2438.4376, 
			 "electric_dipole_moment_norm": 5.30628006988, 
			 "electric_quadrupole_moment_norm": 6.97702177078, 
			 "total_energy": -2874.45298099, 
			 "HOMO_LUMO_gap": 0.22071, 
			 "cosmo_polarized_energy": -12.98, 
			 "cosmo_cavitation_energy": 19.55, 
			 "cosmo_dispersion_energy": -15.26, 
			 "cosmo_repulsion_energy": 1.28, 
			 "cosmo_total_nonelectrostatic_energy": 5.57, 
			 "SMD_solvation_energy": 0.87 
		},
		"coords": [
			{
				"x": 0.8081026456,
				"y": 0.0383693948,
				"z": 1.6974801847,
				"element": "N" 
			},
			{
				"x": 0.2306669892,
				"y": -0.0755589086,
				"z": 0.451788128,
				"element": "C" 
			},
			{
				"x": -0.4671445271,
				"y": 0.9977846792,
				"z": -0.128364971,
				"element": "C" 
			},
			{
				"x": -1.0615972077,
				"y": 0.7867205854,
				"z": -1.3678242833,
				"element": "C" 
			},
			{
				"x": -2.0137544443,
				"y": 2.265154184,
				"z": -2.1591692503,
				"element": "Br" 
			},
			{
				"x": -1.03390704,
				"y": -0.3341296851,
				"z": -2.0631105955,
				"element": "N" 
			},
			{
				"x": -0.3637814315,
				"y": -1.3546796142,
				"z": -1.4986537185,
				"element": "C" 
			},
			{
				"x": 0.2747854606,
				"y": -1.285735112,
				"z": -0.2702687153,
				"element": "C" 
			},
			{
				"x": 1.5176572235,
				"y": -0.6349241371,
				"z": 1.9441052347,
				"element": "H" 
			},
			{
				"x": 0.978245755,
				"y": 0.9687783697,
				"z": 2.048652088,
				"element": "H" 
			},
			{
				"x": -0.5444053709,
				"y": 1.9568509247,
				"z": 0.3704248317,
				"element": "H" 
			},
			{
				"x": -0.3405486573,
				"y": -2.2785284631,
				"z": -2.0727314698,
				"element": "H" 
			},
			{
				"x": 0.795980605,
				"y": -2.1508022177,
				"z": 0.1287725365,
				"element": "H" 
			}
		],
		 "valence_orbital": [ 
			{
				"type": "occ",
				"energy": -0.30244,
				"method": "rhf"
			},
			{
				"type": "occ",
				"energy": -0.27797,
				"method": "rhf"
			},
			{
				"type": "occ",
				"energy": -0.26256,
				"method": "rhf"
			},
			{
				"type": "occ",
				"energy": -0.24727,
				"method": "rhf"
			},
			{
				"type": "occ",
				"energy": -0.23727,
				"method": "rhf"
			},
			{
				"type": "unocc",
				"energy": -0.01656,
				"method": "rhf"
			},
			{
				"type": "unocc",
				"energy": -0.01017,
				"method": "rhf"
			},
			{
				"type": "unocc",
				"energy": 0.01658,
				"method": "rhf"
			},
			{
				"type": "unocc",
				"energy": 0.06348,
				"method": "rhf"
			},
			{
				"type": "unocc",
				"energy": 0.10339,
				"method": "rhf"
			}
		],
		"cosmo_sigma_profile": { 
			"-0.025": 0.0,
			"-0.024": 0.0,
			"-0.023": 0.0,
			"-0.022": 0.0,
			"-0.021": 0.0,
			"-0.02": 0.0,
			"-0.019": 0.0,
			"-0.018": 0.0,
			"-0.017": 0.0,
			"-0.016": 0.0,
			"-0.015": 0.0,
			"-0.014": 1.68406654704,
			"-0.013": 3.15710786476,
			"-0.012": 2.7479570077,
			"-0.011": 3.40003388126,
			"-0.01": 3.79490793869,
			"-0.009": 2.70035781271,
			"-0.008": 3.06371834381,
			"-0.007": 5.31752643141,
			"-0.006": 7.29034594206,
			"-0.005": 5.67583350697,
			"-0.004": 5.22644050058,
			"-0.003": 6.34996679474,
			"-0.002": 6.34781977375,
			"-0.001": 6.64260710385,
			"0.0": 6.66460535968,
			"0.001": 11.8857588692,
			"0.002": 18.2619916518,
			"0.003": 15.55974922,
			"0.004": 11.3696726566,
			"0.005": 12.3279303151,
			"0.006": 4.52684025836,
			"0.007": 3.08558132226,
			"0.008": 3.0439711905,
			"0.009": 1.14426755613,
			"0.01": 2.15586904069,
			"0.011": 2.023737786,
			"0.012": 1.01075030042,
			"0.013": 1.07234070769,
			"0.014": 0.916259399135,
			"0.015": 0.921114828954,
			"0.016": 0.317943572025,
			"0.017": 0.0,
			"0.018": 0.0,
			"0.019": 0.0,
			"0.02": 0.0,
			"0.021": 0.0,
			"0.022": 0.0,
			"0.023": 0.0,
			"0.024": 0.0,
			"0.025": 0.0
		}
	}
}
