{
	 "smiles": "ClC(Cl)C1=CC=CC=C1", 
	 "Tm": 256.65, 
	 "num_atms": 15, 
	 "gaussian": { 
		 "optdone": 1, 
		 "sigma_profile": "yes", 
		 "theory": "DFT", 
		 "functional": "B3LYP", 
		 "basiset": "6-31G**", 
		 "properties": { 
			 "R2extent": 2543.8874, 
			 "electric_dipole_moment_norm": 2.70167737896, 
			 "electric_quadrupole_moment_norm": 10.1233021525, 
			 "total_energy": -1190.74468094, 
			 "HOMO_LUMO_gap": 0.22159, 
			 "cosmo_polarized_energy": -6.1, 
			 "cosmo_cavitation_energy": 22.38, 
			 "cosmo_dispersion_energy": -16.58, 
			 "cosmo_repulsion_energy": 1.37, 
			 "cosmo_total_nonelectrostatic_energy": 7.17, 
			 "SMD_solvation_energy": 3.1 
		},
		"coords": [
			{
				"x": -0.2057906512,
				"y": -1.7236304681,
				"z": 3.5301432512,
				"element": "Cl" 
			},
			{
				"x": 0.6781194408,
				"y": -1.949839849,
				"z": 1.9602941806,
				"element": "C" 
			},
			{
				"x": 0.1442086276,
				"y": -3.5005271251,
				"z": 1.1807821259,
				"element": "Cl" 
			},
			{
				"x": 0.5153098254,
				"y": -0.7708721893,
				"z": 1.0439655789,
				"element": "C" 
			},
			{
				"x": -0.7423893876,
				"y": -0.3814049585,
				"z": 0.5648856849,
				"element": "C" 
			},
			{
				"x": -0.8542381018,
				"y": 0.7163384681,
				"z": -0.2833327829,
				"element": "C" 
			},
			{
				"x": 0.2854118121,
				"y": 1.4343063473,
				"z": -0.6608244995,
				"element": "C" 
			},
			{
				"x": 1.5383383246,
				"y": 1.0494232673,
				"z": -0.1858951329,
				"element": "C" 
			},
			{
				"x": 1.6535395823,
				"y": -0.0516802777,
				"z": 0.6654689234,
				"element": "C" 
			},
			{
				"x": 1.7193897392,
				"y": -2.1043566226,
				"z": 2.2321834997,
				"element": "H" 
			},
			{
				"x": -1.6253334586,
				"y": -0.940016163,
				"z": 0.8591202118,
				"element": "H" 
			},
			{
				"x": -1.8313190663,
				"y": 1.0141336214,
				"z": -0.6518608345,
				"element": "H" 
			},
			{
				"x": 0.1939088269,
				"y": 2.290221558,
				"z": -1.3229182448,
				"element": "H" 
			},
			{
				"x": 2.4269644563,
				"y": 1.6024155253,
				"z": -0.4751020758,
				"element": "H" 
			},
			{
				"x": 2.6306800302,
				"y": -0.3512111341,
				"z": 1.0352901141,
				"element": "H" 
			}
		],
		 "valence_orbital": [ 
			{
				"type": "occ",
				"energy": -0.32229,
				"method": "rhf"
			},
			{
				"type": "occ",
				"energy": -0.30527,
				"method": "rhf"
			},
			{
				"type": "occ",
				"energy": -0.30313,
				"method": "rhf"
			},
			{
				"type": "occ",
				"energy": -0.26587,
				"method": "rhf"
			},
			{
				"type": "occ",
				"energy": -0.25971,
				"method": "rhf"
			},
			{
				"type": "unocc",
				"energy": -0.03812,
				"method": "rhf"
			},
			{
				"type": "unocc",
				"energy": -0.01518,
				"method": "rhf"
			},
			{
				"type": "unocc",
				"energy": -0.01196,
				"method": "rhf"
			},
			{
				"type": "unocc",
				"energy": 0.05035,
				"method": "rhf"
			},
			{
				"type": "unocc",
				"energy": 0.07683,
				"method": "rhf"
			}
		],
		"cosmo_sigma_profile": { 
			"-0.025": 0.0,
			"-0.024": 0.0,
			"-0.023": 0.0,
			"-0.022": 0.0,
			"-0.021": 0.0,
			"-0.02": 0.0,
			"-0.019": 0.0,
			"-0.018": 0.0,
			"-0.017": 0.0,
			"-0.016": 0.0,
			"-0.015": 0.0,
			"-0.014": 0.0,
			"-0.013": 0.0,
			"-0.012": 0.0,
			"-0.011": 0.903872891158,
			"-0.01": 3.03644356806,
			"-0.009": 1.83863119216,
			"-0.008": 2.39495100855,
			"-0.007": 3.844633266,
			"-0.006": 10.8142699207,
			"-0.005": 11.6443465978,
			"-0.004": 11.4606403281,
			"-0.003": 8.96619223483,
			"-0.002": 10.4052253509,
			"-0.001": 9.52255075514,
			"0.0": 11.5804330268,
			"0.001": 12.6637154922,
			"0.002": 13.7219273773,
			"0.003": 18.3565928403,
			"0.004": 29.5466830111,
			"0.005": 22.3888725134,
			"0.006": 0.40747661244,
			"0.007": 0.0,
			"0.008": 0.0,
			"0.009": 0.0,
			"0.01": 0.0,
			"0.011": 0.0,
			"0.012": 0.0,
			"0.013": 0.0,
			"0.014": 0.0,
			"0.015": 0.0,
			"0.016": 0.0,
			"0.017": 0.0,
			"0.018": 0.0,
			"0.019": 0.0,
			"0.02": 0.0,
			"0.021": 0.0,
			"0.022": 0.0,
			"0.023": 0.0,
			"0.024": 0.0,
			"0.025": 0.0
		}
	}
}
