{
	 "smiles": "CC(C)(C)C(=O)OCOC(=O)C1N2C(SC1(C)C)C(N=CN1CCCCCC1)C2=O", 
	 "Tm": 392.15, 
	 "num_atms": 63, 
	 "gaussian": { 
		 "optdone": 1, 
		 "sigma_profile": "yes", 
		 "theory": "DFT", 
		 "functional": "B3LYP", 
		 "basiset": "6-31G**", 
		 "properties": { 
			 "R2extent": 20833.2712, 
			 "electric_dipole_moment_norm": 2.1635906868, 
			 "electric_quadrupole_moment_norm": 29.0365575561, 
			 "total_energy": -1758.69203331, 
			 "HOMO_LUMO_gap": 0.19658, 
			 "cosmo_polarized_energy": -19.02, 
			 "cosmo_cavitation_energy": 63.61, 
			 "cosmo_dispersion_energy": -41.15, 
			 "cosmo_repulsion_energy": 3.13, 
			 "cosmo_total_nonelectrostatic_energy": 25.59, 
			 "SMD_solvation_energy": 8.89 
		},
		"coords": [
			{
				"x": -4.4661743882,
				"y": -3.0266766396,
				"z": -2.1975719209,
				"element": "C" 
			},
			{
				"x": -4.406417429,
				"y": -4.3238754798,
				"z": -1.3580290299,
				"element": "C" 
			},
			{
				"x": -5.3332142337,
				"y": -4.2125112963,
				"z": -0.1376264029,
				"element": "C" 
			},
			{
				"x": -4.8127292379,
				"y": -5.5317652906,
				"z": -2.2323067062,
				"element": "C" 
			},
			{
				"x": -2.9718158472,
				"y": -4.5196878004,
				"z": -0.8663471333,
				"element": "C" 
			},
			{
				"x": -2.6076944414,
				"y": -4.5481610037,
				"z": 0.2861253827,
				"element": "O" 
			},
			{
				"x": -2.1008081743,
				"y": -4.6659119798,
				"z": -1.9183548826,
				"element": "O" 
			},
			{
				"x": -0.7427340496,
				"y": -4.8206973056,
				"z": -1.5817738477,
				"element": "C" 
			},
			{
				"x": -0.2144926666,
				"y": -3.5100461443,
				"z": -1.3430572876,
				"element": "O" 
			},
			{
				"x": 0.9091827531,
				"y": -3.4613039135,
				"z": -0.5999382818,
				"element": "C" 
			},
			{
				"x": 1.498639986,
				"y": -4.4425571497,
				"z": -0.1974809111,
				"element": "O" 
			},
			{
				"x": 1.3665802749,
				"y": -2.0410553394,
				"z": -0.2844381842,
				"element": "C" 
			},
			{
				"x": 0.8200140984,
				"y": -1.0015694332,
				"z": -1.1455752426,
				"element": "N" 
			},
			{
				"x": 0.1922346514,
				"y": 0.1601049715,
				"z": -0.4890560184,
				"element": "C" 
			},
			{
				"x": 0.9733139977,
				"y": 0.2229775779,
				"z": 1.1688735016,
				"element": "S" 
			},
			{
				"x": 1.0236091954,
				"y": -1.6517174228,
				"z": 1.2090255635,
				"element": "C" 
			},
			{
				"x": -0.3406893747,
				"y": -2.2024279362,
				"z": 1.6584949612,
				"element": "C" 
			},
			{
				"x": 2.1313083275,
				"y": -2.1151328175,
				"z": 2.1604872445,
				"element": "C" 
			},
			{
				"x": 0.803169494,
				"y": 1.0823556568,
				"z": -1.5973062957,
				"element": "C" 
			},
			{
				"x": 1.429928642,
				"y": 2.2975598056,
				"z": -1.1794093494,
				"element": "N" 
			},
			{
				"x": 2.6465272619,
				"y": 2.5193987594,
				"z": -1.5436046276,
				"element": "C" 
			},
			{
				"x": 3.3096303409,
				"y": 3.6526336719,
				"z": -1.189160497,
				"element": "N" 
			},
			{
				"x": 4.6892198734,
				"y": 3.8690443991,
				"z": -1.6104908123,
				"element": "C" 
			},
			{
				"x": 5.7354057598,
				"y": 3.6604225028,
				"z": -0.4845306249,
				"element": "C" 
			},
			{
				"x": 5.1969402272,
				"y": 3.9350944,
				"z": 0.9274147591,
				"element": "C" 
			},
			{
				"x": 4.6003566692,
				"y": 5.3330242242,
				"z": 1.1648662053,
				"element": "C" 
			},
			{
				"x": 3.5094240542,
				"y": 5.7663547346,
				"z": 0.1570431911,
				"element": "C" 
			},
			{
				"x": 2.6067413448,
				"y": 4.6397963116,
				"z": -0.3531433316,
				"element": "C" 
			},
			{
				"x": 1.613967463,
				"y": -0.1952319763,
				"z": -1.9703587806,
				"element": "C" 
			},
			{
				"x": 2.6086500491,
				"y": -0.4625562995,
				"z": -2.6053327676,
				"element": "O" 
			},
			{
				"x": -3.8059039988,
				"y": -3.083568506,
				"z": -3.0661072847,
				"element": "H" 
			},
			{
				"x": -5.4902848506,
				"y": -2.8662243142,
				"z": -2.5500663555,
				"element": "H" 
			},
			{
				"x": -4.1754250924,
				"y": -2.1554068818,
				"z": -1.601430301,
				"element": "H" 
			},
			{
				"x": -5.2928212068,
				"y": -5.1172127519,
				"z": 0.4749691008,
				"element": "H" 
			},
			{
				"x": -6.3657213486,
				"y": -4.0652908302,
				"z": -0.469907472,
				"element": "H" 
			},
			{
				"x": -5.0506503532,
				"y": -3.3699965409,
				"z": 0.4989266422,
				"element": "H" 
			},
			{
				"x": -5.8432472504,
				"y": -5.4020966404,
				"z": -2.5786383563,
				"element": "H" 
			},
			{
				"x": -4.7655141486,
				"y": -6.4668723328,
				"z": -1.6642386161,
				"element": "H" 
			},
			{
				"x": -4.1650350377,
				"y": -5.6273205213,
				"z": -3.1068759725,
				"element": "H" 
			},
			{
				"x": -0.2549701038,
				"y": -5.2559416805,
				"z": -2.4551903349,
				"element": "H" 
			},
			{
				"x": -0.611303805,
				"y": -5.4384074404,
				"z": -0.6937723635,
				"element": "H" 
			},
			{
				"x": 2.4552040885,
				"y": -2.0534630379,
				"z": -0.4079081255,
				"element": "H" 
			},
			{
				"x": -0.8968019253,
				"y": 0.118552144,
				"z": -0.4192880903,
				"element": "H" 
			},
			{
				"x": -1.1486565453,
				"y": -1.9102594856,
				"z": 0.983408808,
				"element": "H" 
			},
			{
				"x": -0.3288124515,
				"y": -3.2965352561,
				"z": 1.7024963956,
				"element": "H" 
			},
			{
				"x": -0.578446878,
				"y": -1.8255283974,
				"z": 2.6561511189,
				"element": "H" 
			},
			{
				"x": 2.2243626185,
				"y": -3.2043877768,
				"z": 2.108878746,
				"element": "H" 
			},
			{
				"x": 3.0951805584,
				"y": -1.6715365278,
				"z": 1.8953977697,
				"element": "H" 
			},
			{
				"x": 1.8951595298,
				"y": -1.8398947142,
				"z": 3.1928127228,
				"element": "H" 
			},
			{
				"x": 0.033541166,
				"y": 1.2869786115,
				"z": -2.3558141054,
				"element": "H" 
			},
			{
				"x": 3.2322265332,
				"y": 1.8276895562,
				"z": -2.1563915178,
				"element": "H" 
			},
			{
				"x": 4.8925722624,
				"y": 3.1827011416,
				"z": -2.4375711156,
				"element": "H" 
			},
			{
				"x": 4.7800285532,
				"y": 4.8767134589,
				"z": -2.0287717397,
				"element": "H" 
			},
			{
				"x": 6.606972343,
				"y": 4.2936595645,
				"z": -0.6956221251,
				"element": "H" 
			},
			{
				"x": 6.0916432841,
				"y": 2.623638077,
				"z": -0.5133754863,
				"element": "H" 
			},
			{
				"x": 4.4336509279,
				"y": 3.1814480589,
				"z": 1.1540090671,
				"element": "H" 
			},
			{
				"x": 6.0052109455,
				"y": 3.7694786475,
				"z": 1.6500284052,
				"element": "H" 
			},
			{
				"x": 5.3990043781,
				"y": 6.0858593818,
				"z": 1.1637506624,
				"element": "H" 
			},
			{
				"x": 4.1766011949,
				"y": 5.3441827728,
				"z": 2.1767567479,
				"element": "H" 
			},
			{
				"x": 2.8580256906,
				"y": 6.5091747726,
				"z": 0.6318071781,
				"element": "H" 
			},
			{
				"x": 3.9635641792,
				"y": 6.2860937828,
				"z": -0.6936736068,
				"element": "H" 
			},
			{
				"x": 1.7749597735,
				"y": 5.0625847942,
				"z": -0.9327154314,
				"element": "H" 
			},
			{
				"x": 2.1435123479,
				"y": 4.1040070849,
				"z": 0.4839271625,
				"element": "H" 
			}
		],
		 "valence_orbital": [ 
			{
				"type": "occ",
				"energy": -0.27931,
				"method": "rhf"
			},
			{
				"type": "occ",
				"energy": -0.25389,
				"method": "rhf"
			},
			{
				"type": "occ",
				"energy": -0.23038,
				"method": "rhf"
			},
			{
				"type": "occ",
				"energy": -0.22555,
				"method": "rhf"
			},
			{
				"type": "occ",
				"energy": -0.20563,
				"method": "rhf"
			},
			{
				"type": "unocc",
				"energy": -0.00905,
				"method": "rhf"
			},
			{
				"type": "unocc",
				"energy": -0.00402,
				"method": "rhf"
			},
			{
				"type": "unocc",
				"energy": 0.00737,
				"method": "rhf"
			},
			{
				"type": "unocc",
				"energy": 0.02546,
				"method": "rhf"
			},
			{
				"type": "unocc",
				"energy": 0.0369,
				"method": "rhf"
			}
		],
		"cosmo_sigma_profile": { 
			"-0.025": 0.0,
			"-0.024": 0.0,
			"-0.023": 0.0,
			"-0.022": 0.0,
			"-0.021": 0.0,
			"-0.02": 0.0,
			"-0.019": 0.0,
			"-0.018": 0.0,
			"-0.017": 0.0,
			"-0.016": 0.0,
			"-0.015": 0.0,
			"-0.014": 0.0,
			"-0.013": 0.0,
			"-0.012": 0.0,
			"-0.011": 0.0,
			"-0.01": 0.0,
			"-0.009": 2.04184211664,
			"-0.008": 2.58168510009,
			"-0.007": 9.19557357822,
			"-0.006": 14.6165639618,
			"-0.005": 19.0095007634,
			"-0.004": 38.0262781424,
			"-0.003": 55.4105124553,
			"-0.002": 64.6219573592,
			"-0.001": 64.3074834868,
			"0.0": 62.8025339568,
			"0.001": 39.0770692112,
			"0.002": 18.1863861951,
			"0.003": 15.535490555,
			"0.004": 15.9309510748,
			"0.005": 12.7088425117,
			"0.006": 9.74577518067,
			"0.007": 9.59054794283,
			"0.008": 9.63615928624,
			"0.009": 9.28024807238,
			"0.01": 8.15218522445,
			"0.011": 10.6615792973,
			"0.012": 3.97264704828,
			"0.013": 0.709510459306,
			"0.014": 0.297196911505,
			"0.015": 0.701225197543,
			"0.016": 0.0,
			"0.017": 0.0,
			"0.018": 0.0,
			"0.019": 0.0,
			"0.02": 0.0,
			"0.021": 0.0,
			"0.022": 0.0,
			"0.023": 0.0,
			"0.024": 0.0,
			"0.025": 0.0
		}
	}
}
