{
	 "smiles": "OC(=O)C1=CC2=C(OCOC2)C=C1", 
	 "Tm": 463.15, 
	 "num_atms": 21, 
	 "gaussian": { 
		 "optdone": 1, 
		 "sigma_profile": "yes", 
		 "theory": "DFT", 
		 "functional": "B3LYP", 
		 "basiset": "6-31G**", 
		 "properties": { 
			 "R2extent": 2999.8643, 
			 "electric_dipole_moment_norm": 5.27272951041, 
			 "electric_quadrupole_moment_norm": 13.2740662696, 
			 "total_energy": -648.66303985, 
			 "HOMO_LUMO_gap": 0.19643, 
			 "cosmo_polarized_energy": -17.39, 
			 "cosmo_cavitation_energy": 24.98, 
			 "cosmo_dispersion_energy": -19.07, 
			 "cosmo_repulsion_energy": 1.49, 
			 "cosmo_total_nonelectrostatic_energy": 7.4, 
			 "SMD_solvation_energy": 5.77 
		},
		"coords": [
			{
				"x": 0.8373292251,
				"y": 1.537427972,
				"z": -2.5935024639,
				"element": "O" 
			},
			{
				"x": -0.3107189111,
				"y": 1.5591997236,
				"z": -1.8588223592,
				"element": "C" 
			},
			{
				"x": -1.3366163082,
				"y": 1.9554707272,
				"z": -2.3613374031,
				"element": "O" 
			},
			{
				"x": -0.2164844822,
				"y": 1.0797267297,
				"z": -0.4463108888,
				"element": "C" 
			},
			{
				"x": 0.8141722831,
				"y": 0.2520210126,
				"z": 0.0173762224,
				"element": "C" 
			},
			{
				"x": 0.8536492083,
				"y": -0.1857154486,
				"z": 1.3409370239,
				"element": "C" 
			},
			{
				"x": -0.1644324493,
				"y": 0.2270147648,
				"z": 2.2164092555,
				"element": "C" 
			},
			{
				"x": -0.1745277873,
				"y": -0.1505372944,
				"z": 3.5261269564,
				"element": "O" 
			},
			{
				"x": 1.0507495558,
				"y": -0.7306467253,
				"z": 3.9768819562,
				"element": "C" 
			},
			{
				"x": 1.5327705056,
				"y": -1.7017827719,
				"z": 3.1026847499,
				"element": "O" 
			},
			{
				"x": 1.9239591883,
				"y": -1.122356975,
				"z": 1.8583093107,
				"element": "C" 
			},
			{
				"x": -1.2198909432,
				"y": 1.0280524565,
				"z": 1.7607301977,
				"element": "C" 
			},
			{
				"x": -1.2459907516,
				"y": 1.4423479968,
				"z": 0.4385891335,
				"element": "C" 
			},
			{
				"x": 1.5970989318,
				"y": 1.3795890112,
				"z": -2.0168496064,
				"element": "H" 
			},
			{
				"x": 1.5814620021,
				"y": -0.1102214655,
				"z": -0.6653434687,
				"element": "H" 
			},
			{
				"x": 0.8245668106,
				"y": -1.214767544,
				"z": 4.926780296,
				"element": "H" 
			},
			{
				"x": 1.7857083469,
				"y": 0.0797749329,
				"z": 4.1159357902,
				"element": "H" 
			},
			{
				"x": 2.0790253048,
				"y": -1.95915045,
				"z": 1.1711277797,
				"element": "H" 
			},
			{
				"x": 2.8880327528,
				"y": -0.599585949,
				"z": 1.9741805584,
				"element": "H" 
			},
			{
				"x": -1.9991262585,
				"y": 1.3100283781,
				"z": 2.4607850391,
				"element": "H" 
			},
			{
				"x": -2.0560362237,
				"y": 2.0571109184,
				"z": 0.0619119207,
				"element": "H" 
			}
		],
		 "valence_orbital": [ 
			{
				"type": "occ",
				"energy": -0.31234,
				"method": "rhf"
			},
			{
				"type": "occ",
				"energy": -0.29694,
				"method": "rhf"
			},
			{
				"type": "occ",
				"energy": -0.27162,
				"method": "rhf"
			},
			{
				"type": "occ",
				"energy": -0.26923,
				"method": "rhf"
			},
			{
				"type": "occ",
				"energy": -0.24209,
				"method": "rhf"
			},
			{
				"type": "unocc",
				"energy": -0.04566,
				"method": "rhf"
			},
			{
				"type": "unocc",
				"energy": -0.02742,
				"method": "rhf"
			},
			{
				"type": "unocc",
				"energy": 0.04946,
				"method": "rhf"
			},
			{
				"type": "unocc",
				"energy": 0.05957,
				"method": "rhf"
			},
			{
				"type": "unocc",
				"energy": 0.08574,
				"method": "rhf"
			}
		],
		"cosmo_sigma_profile": { 
			"-0.025": 0.0,
			"-0.024": 0.0,
			"-0.023": 0.0,
			"-0.022": 0.0,
			"-0.021": 0.0,
			"-0.02": 0.0,
			"-0.019": 0.132501651512,
			"-0.018": 0.820085808265,
			"-0.017": 0.923718016122,
			"-0.016": 1.05247355272,
			"-0.015": 0.832524648566,
			"-0.014": 1.01770421747,
			"-0.013": 0.868708309769,
			"-0.012": 1.12549414103,
			"-0.011": 1.51520965343,
			"-0.01": 0.877472113616,
			"-0.009": 1.85434896802,
			"-0.008": 4.9351421777,
			"-0.007": 10.9633017105,
			"-0.006": 16.756758694,
			"-0.005": 14.5973306462,
			"-0.004": 10.9460988391,
			"-0.003": 9.74239463923,
			"-0.002": 9.37842187173,
			"-0.001": 7.3049577956,
			"0.0": 9.45754438046,
			"0.001": 12.4584926268,
			"0.002": 13.9424474743,
			"0.003": 13.9679137844,
			"0.004": 7.0484592549,
			"0.005": 5.4785224161,
			"0.006": 4.79920804453,
			"0.007": 4.34393243224,
			"0.008": 5.19584696621,
			"0.009": 5.77277185163,
			"0.01": 6.23918657627,
			"0.011": 6.66063298366,
			"0.012": 5.85725235551,
			"0.013": 2.20409692285,
			"0.014": 0.221773503552,
			"0.015": 0.0,
			"0.016": 0.0,
			"0.017": 0.0,
			"0.018": 0.0,
			"0.019": 0.0,
			"0.02": 0.0,
			"0.021": 0.0,
			"0.022": 0.0,
			"0.023": 0.0,
			"0.024": 0.0,
			"0.025": 0.0
		}
	}
}
