{
	 "smiles": "OC(C1=CC=C(C=C1)C1=CC=C(C=C1)C(O)(C(F)(F)F)C(F)(F)F)(C(F)(F)F)C(F)(F)F", 
	 "Tm": 399.15, 
	 "num_atms": 42, 
	 "gaussian": { 
		 "optdone": 1, 
		 "sigma_profile": "yes", 
		 "theory": "DFT", 
		 "functional": "B3LYP", 
		 "basiset": "6-31G**", 
		 "properties": { 
			 "R2extent": 24009.7088, 
			 "electric_dipole_moment_norm": 2.29769302127, 
			 "electric_quadrupole_moment_norm": 17.7496659802, 
			 "total_energy": -2040.48177974, 
			 "HOMO_LUMO_gap": 0.19064, 
			 "cosmo_polarized_energy": -11.83, 
			 "cosmo_cavitation_energy": 50.36, 
			 "cosmo_dispersion_energy": -33.83, 
			 "cosmo_repulsion_energy": 2.26, 
			 "cosmo_total_nonelectrostatic_energy": 18.78, 
			 "SMD_solvation_energy": 12.5 
		},
		"coords": [
			{
				"x": -5.3831766391,
				"y": 0.4783109522,
				"z": 2.3182845774,
				"element": "O" 
			},
			{
				"x": -5.0330790445,
				"y": -0.3891886824,
				"z": 1.2620865621,
				"element": "C" 
			},
			{
				"x": -3.523233174,
				"y": -0.3951173608,
				"z": 0.9860023858,
				"element": "C" 
			},
			{
				"x": -2.667381641,
				"y": 0.1435236574,
				"z": 1.9538874972,
				"element": "C" 
			},
			{
				"x": -1.28797687,
				"y": 0.1450057071,
				"z": 1.7651286117,
				"element": "C" 
			},
			{
				"x": -0.714392918,
				"y": -0.4025835257,
				"z": 0.6073849709,
				"element": "C" 
			},
			{
				"x": -1.5792074996,
				"y": -0.9593680574,
				"z": -0.3488930831,
				"element": "C" 
			},
			{
				"x": -2.9588652338,
				"y": -0.9636566862,
				"z": -0.1644976971,
				"element": "C" 
			},
			{
				"x": 0.75546958,
				"y": -0.399474767,
				"z": 0.402981698,
				"element": "C" 
			},
			{
				"x": 1.6376319,
				"y": -0.6103728917,
				"z": 1.4742901588,
				"element": "C" 
			},
			{
				"x": 3.0171142008,
				"y": -0.6067168603,
				"z": 1.2851528543,
				"element": "C" 
			},
			{
				"x": 3.5560720631,
				"y": -0.3911258017,
				"z": 0.0129780303,
				"element": "C" 
			},
			{
				"x": 2.6870660213,
				"y": -0.1802327818,
				"z": -1.0659110315,
				"element": "C" 
			},
			{
				"x": 1.3091147488,
				"y": -0.1850589155,
				"z": -0.8694939263,
				"element": "C" 
			},
			{
				"x": 5.0705993126,
				"y": -0.3907921368,
				"z": -0.1737759778,
				"element": "C" 
			},
			{
				"x": 5.6880377888,
				"y": -0.622253753,
				"z": 1.0701332145,
				"element": "O" 
			},
			{
				"x": 5.5700114651,
				"y": 0.9901089479,
				"z": -0.6851333335,
				"element": "C" 
			},
			{
				"x": 6.9241069425,
				"y": 1.025888155,
				"z": -0.6707181101,
				"element": "F" 
			},
			{
				"x": 5.1722269693,
				"y": 1.266494055,
				"z": -1.9397610511,
				"element": "F" 
			},
			{
				"x": 5.1319743496,
				"y": 1.9671630065,
				"z": 0.1190422979,
				"element": "F" 
			},
			{
				"x": 5.5151227732,
				"y": -1.5344972844,
				"z": -1.128614903,
				"element": "C" 
			},
			{
				"x": 5.1105270902,
				"y": -1.3519516181,
				"z": -2.3980740805,
				"element": "F" 
			},
			{
				"x": 5.0347750007,
				"y": -2.7082926562,
				"z": -0.6992944934,
				"element": "F" 
			},
			{
				"x": 6.8666790697,
				"y": -1.626535474,
				"z": -1.1415222015,
				"element": "F" 
			},
			{
				"x": -5.8615912885,
				"y": 0.0660139052,
				"z": 0.0281171101,
				"element": "C" 
			},
			{
				"x": -7.1668265886,
				"y": 0.1477981116,
				"z": 0.3138749291,
				"element": "F" 
			},
			{
				"x": -5.4444614414,
				"y": 1.3053071273,
				"z": -0.3264616497,
				"element": "F" 
			},
			{
				"x": -5.7311331187,
				"y": -0.7383729737,
				"z": -1.0431440808,
				"element": "F" 
			},
			{
				"x": -5.4866048401,
				"y": -1.7906987503,
				"z": 1.7455903191,
				"element": "C" 
			},
			{
				"x": -5.2729686079,
				"y": -2.7113394516,
				"z": 0.7840793099,
				"element": "F" 
			},
			{
				"x": -4.7863238206,
				"y": -2.1489640362,
				"z": 2.8321630147,
				"element": "F" 
			},
			{
				"x": -6.7885460993,
				"y": -1.8191862674,
				"z": 2.0619538967,
				"element": "F" 
			},
			{
				"x": -5.1329863599,
				"y": 1.3752888574,
				"z": 2.0536279452,
				"element": "H" 
			},
			{
				"x": -3.0853917484,
				"y": 0.558688144,
				"z": 2.8636642223,
				"element": "H" 
			},
			{
				"x": -0.6503097559,
				"y": 0.5956540783,
				"z": 2.5194175389,
				"element": "H" 
			},
			{
				"x": -1.1657330298,
				"y": -1.4230890495,
				"z": -1.2391824989,
				"element": "H" 
			},
			{
				"x": -3.5878183322,
				"y": -1.4179445395,
				"z": -0.9183626882,
				"element": "H" 
			},
			{
				"x": 1.2405961216,
				"y": -0.8066180326,
				"z": 2.4655447319,
				"element": "H" 
			},
			{
				"x": 3.6806442069,
				"y": -0.7799791156,
				"z": 2.1228255481,
				"element": "H" 
			},
			{
				"x": 3.0783224958,
				"y": -0.0028894454,
				"z": -2.0598114514,
				"element": "H" 
			},
			{
				"x": 0.6550349595,
				"y": 0.0064965464,
				"z": -1.7144716803,
				"element": "H" 
			},
			{
				"x": 6.6459809916,
				"y": -0.6198403366,
				"z": 0.9292125136,
				"element": "H" 
			}
		],
		 "valence_orbital": [ 
			{
				"type": "occ",
				"energy": -0.31885,
				"method": "rhf"
			},
			{
				"type": "occ",
				"energy": -0.2902,
				"method": "rhf"
			},
			{
				"type": "occ",
				"energy": -0.26898,
				"method": "rhf"
			},
			{
				"type": "occ",
				"energy": -0.26699,
				"method": "rhf"
			},
			{
				"type": "occ",
				"energy": -0.24309,
				"method": "rhf"
			},
			{
				"type": "unocc",
				"energy": -0.05245,
				"method": "rhf"
			},
			{
				"type": "unocc",
				"energy": -0.02243,
				"method": "rhf"
			},
			{
				"type": "unocc",
				"energy": -0.01762,
				"method": "rhf"
			},
			{
				"type": "unocc",
				"energy": 0.00158,
				"method": "rhf"
			},
			{
				"type": "unocc",
				"energy": 0.05291,
				"method": "rhf"
			}
		],
		"cosmo_sigma_profile": { 
			"-0.025": 0.0,
			"-0.024": 0.0,
			"-0.023": 0.0,
			"-0.022": 0.0,
			"-0.021": 0.0,
			"-0.02": 0.0,
			"-0.019": 0.0,
			"-0.018": 0.152255579333,
			"-0.017": 1.20499395723,
			"-0.016": 0.923740460952,
			"-0.015": 1.58757465435,
			"-0.014": 1.37715330231,
			"-0.013": 1.170616679,
			"-0.012": 1.83187086465,
			"-0.011": 2.04583123464,
			"-0.01": 1.93073141144,
			"-0.009": 2.05069760851,
			"-0.008": 1.90899887286,
			"-0.007": 5.07043027022,
			"-0.006": 16.5816762899,
			"-0.005": 15.9446001155,
			"-0.004": 13.9024749394,
			"-0.003": 14.3324431744,
			"-0.002": 18.649341995,
			"-0.001": 22.4031593947,
			"0.0": 33.0631593842,
			"0.001": 66.8318417401,
			"0.002": 112.588188337,
			"0.003": 39.6218901251,
			"0.004": 13.9159561946,
			"0.005": 3.45320894882,
			"0.006": 3.49390699615,
			"0.007": 3.97461596644,
			"0.008": 2.0629673936,
			"0.009": 1.4163614472,
			"0.01": 0.416657284778,
			"0.011": 0.0,
			"0.012": 0.0,
			"0.013": 0.0,
			"0.014": 0.0,
			"0.015": 0.0,
			"0.016": 0.0,
			"0.017": 0.0,
			"0.018": 0.0,
			"0.019": 0.0,
			"0.02": 0.0,
			"0.021": 0.0,
			"0.022": 0.0,
			"0.023": 0.0,
			"0.024": 0.0,
			"0.025": 0.0
		}
	}
}
