{
	 "smiles": "BrC1=CC=C(C=C1)C(=O)C1=NOC(=C1S(=O)(=O)C1=CC=CC=C1)C1=CC=C(Br)C=C1", 
	 "Tm": 428.15, 
	 "num_atms": 43, 
	 "gaussian": { 
		 "optdone": 1, 
		 "sigma_profile": "yes", 
		 "theory": "DFT", 
		 "functional": "B3LYP", 
		 "basiset": "6-31G**", 
		 "properties": { 
			 "R2extent": 23881.7651, 
			 "electric_dipole_moment_norm": 6.40998318641, 
			 "electric_quadrupole_moment_norm": 9.07933040923, 
			 "total_energy": -6742.68498492, 
			 "HOMO_LUMO_gap": 0.17481, 
			 "cosmo_polarized_energy": -21.09, 
			 "cosmo_cavitation_energy": 55.54, 
			 "cosmo_dispersion_energy": -37.23, 
			 "cosmo_repulsion_energy": 2.77, 
			 "cosmo_total_nonelectrostatic_energy": 21.08, 
			 "SMD_solvation_energy": 6.37 
		},
		"coords": [
			{
				"x": -2.8699018289,
				"y": -2.9626822579,
				"z": 5.9777186795,
				"element": "Br" 
			},
			{
				"x": -1.5750889049,
				"y": -2.1321604889,
				"z": 4.8514968068,
				"element": "C" 
			},
			{
				"x": -0.2404705741,
				"y": -2.5410216831,
				"z": 4.9256185076,
				"element": "C" 
			},
			{
				"x": 0.6982202303,
				"y": -1.931969682,
				"z": 4.1020556017,
				"element": "C" 
			},
			{
				"x": 0.313175322,
				"y": -0.9249370962,
				"z": 3.2026815116,
				"element": "C" 
			},
			{
				"x": -1.0308471946,
				"y": -0.5289722404,
				"z": 3.1456900512,
				"element": "C" 
			},
			{
				"x": -1.9802095378,
				"y": -1.1287845682,
				"z": 3.9715373885,
				"element": "C" 
			},
			{
				"x": 1.362590502,
				"y": -0.3094147738,
				"z": 2.3503740736,
				"element": "C" 
			},
			{
				"x": 2.5495418812,
				"y": -0.5314390321,
				"z": 2.4897101164,
				"element": "O" 
			},
			{
				"x": 0.9424663985,
				"y": 0.6797892552,
				"z": 1.2713019661,
				"element": "C" 
			},
			{
				"x": 0.759956862,
				"y": 1.9340702464,
				"z": 1.603180955,
				"element": "N" 
			},
			{
				"x": 0.5290639637,
				"y": 2.6108720742,
				"z": 0.3989684104,
				"element": "O" 
			},
			{
				"x": 0.5751720955,
				"y": 1.7521501876,
				"z": -0.6406411265,
				"element": "C" 
			},
			{
				"x": 0.8246966743,
				"y": 0.4876174671,
				"z": -0.1426500934,
				"element": "C" 
			},
			{
				"x": 0.8455173237,
				"y": -1.1082294936,
				"z": -0.9419998347,
				"element": "S" 
			},
			{
				"x": 1.6898655371,
				"y": -1.0349351224,
				"z": -2.1438310304,
				"element": "O" 
			},
			{
				"x": 1.1255673545,
				"y": -2.0709928126,
				"z": 0.1315289666,
				"element": "O" 
			},
			{
				"x": -0.8538593505,
				"y": -1.3640967256,
				"z": -1.4742885585,
				"element": "C" 
			},
			{
				"x": -1.2075583833,
				"y": -1.1094189629,
				"z": -2.8004245757,
				"element": "C" 
			},
			{
				"x": -2.5274234253,
				"y": -1.3271324478,
				"z": -3.198848593,
				"element": "C" 
			},
			{
				"x": -3.4689047164,
				"y": -1.7955072192,
				"z": -2.280290165,
				"element": "C" 
			},
			{
				"x": -3.0968842198,
				"y": -2.0578902502,
				"z": -0.9586281068,
				"element": "C" 
			},
			{
				"x": -1.7820916946,
				"y": -1.8459405893,
				"z": -0.5466450097,
				"element": "C" 
			},
			{
				"x": 0.341067872,
				"y": 2.3494117526,
				"z": -1.957149471,
				"element": "C" 
			},
			{
				"x": -0.48080221,
				"y": 3.4874377432,
				"z": -2.0534655797,
				"element": "C" 
			},
			{
				"x": -0.7055480744,
				"y": 4.0966930936,
				"z": -3.2830940128,
				"element": "C" 
			},
			{
				"x": -0.0982406016,
				"y": 3.5717588943,
				"z": -4.4249027287,
				"element": "C" 
			},
			{
				"x": -0.4044797366,
				"y": 4.4019097693,
				"z": -6.1129885859,
				"element": "Br" 
			},
			{
				"x": 0.732102277,
				"y": 2.4540148106,
				"z": -4.3496025435,
				"element": "C" 
			},
			{
				"x": 0.9531632191,
				"y": 1.8439853615,
				"z": -3.1167401766,
				"element": "C" 
			},
			{
				"x": 0.0512961434,
				"y": -3.3232089937,
				"z": 5.6168483926,
				"element": "H" 
			},
			{
				"x": 1.7418991683,
				"y": -2.225744882,
				"z": 4.13491538,
				"element": "H" 
			},
			{
				"x": -1.3377961616,
				"y": 0.2627866667,
				"z": 2.4704147803,
				"element": "H" 
			},
			{
				"x": -3.0184771299,
				"y": -0.8196978727,
				"z": 3.9379303932,
				"element": "H" 
			},
			{
				"x": -0.4584990029,
				"y": -0.7663925461,
				"z": -3.5041655423,
				"element": "H" 
			},
			{
				"x": -2.8162795754,
				"y": -1.137449053,
				"z": -4.2280096261,
				"element": "H" 
			},
			{
				"x": -4.4937955523,
				"y": -1.9656486462,
				"z": -2.5965334503,
				"element": "H" 
			},
			{
				"x": -3.8280227885,
				"y": -2.4368209595,
				"z": -0.2511176437,
				"element": "H" 
			},
			{
				"x": -1.4719196311,
				"y": -2.0658705458,
				"z": 0.4692340757,
				"element": "H" 
			},
			{
				"x": -0.9469611949,
				"y": 3.8908762828,
				"z": -1.1613251646,
				"element": "H" 
			},
			{
				"x": -1.3448372454,
				"y": 4.9687346817,
				"z": -3.3562752419,
				"element": "H" 
			},
			{
				"x": 1.2109696214,
				"y": 2.0690676525,
				"z": -5.2425266262,
				"element": "H" 
			},
			{
				"x": 1.6110662888,
				"y": 0.9850830061,
				"z": -3.0511625696,
				"element": "H" 
			}
		],
		 "valence_orbital": [ 
			{
				"type": "occ",
				"energy": -0.2815,
				"method": "rhf"
			},
			{
				"type": "occ",
				"energy": -0.2798,
				"method": "rhf"
			},
			{
				"type": "occ",
				"energy": -0.27233,
				"method": "rhf"
			},
			{
				"type": "occ",
				"energy": -0.25918,
				"method": "rhf"
			},
			{
				"type": "occ",
				"energy": -0.25361,
				"method": "rhf"
			},
			{
				"type": "unocc",
				"energy": -0.0788,
				"method": "rhf"
			},
			{
				"type": "unocc",
				"energy": -0.07846,
				"method": "rhf"
			},
			{
				"type": "unocc",
				"energy": -0.05139,
				"method": "rhf"
			},
			{
				"type": "unocc",
				"energy": -0.03689,
				"method": "rhf"
			},
			{
				"type": "unocc",
				"energy": -0.03121,
				"method": "rhf"
			}
		],
		"cosmo_sigma_profile": { 
			"-0.025": 0.0,
			"-0.024": 0.0,
			"-0.023": 0.0,
			"-0.022": 0.0,
			"-0.021": 0.0,
			"-0.02": 0.0,
			"-0.019": 0.0,
			"-0.018": 0.0,
			"-0.017": 0.0,
			"-0.016": 0.0,
			"-0.015": 0.0,
			"-0.014": 0.0,
			"-0.013": 2.38676448375,
			"-0.012": 0.932712058248,
			"-0.011": 0.0,
			"-0.01": 0.0,
			"-0.009": 0.168602500647,
			"-0.008": 7.00861674944,
			"-0.007": 19.8745128997,
			"-0.006": 25.8061587214,
			"-0.005": 25.622425853,
			"-0.004": 27.9127221584,
			"-0.003": 30.7432766694,
			"-0.002": 30.6263301748,
			"-0.001": 31.2302542446,
			"0.0": 41.0835471414,
			"0.001": 54.956124053,
			"0.002": 40.8037115966,
			"0.003": 33.9765108508,
			"0.004": 26.2412796566,
			"0.005": 8.3296936694,
			"0.006": 7.2842206886,
			"0.007": 6.59602398779,
			"0.008": 6.24402802296,
			"0.009": 9.11471709369,
			"0.01": 10.084073562,
			"0.011": 8.07877545484,
			"0.012": 1.09555972463,
			"0.013": 0.0,
			"0.014": 0.0,
			"0.015": 0.0,
			"0.016": 0.0,
			"0.017": 0.0,
			"0.018": 0.0,
			"0.019": 0.0,
			"0.02": 0.0,
			"0.021": 0.0,
			"0.022": 0.0,
			"0.023": 0.0,
			"0.024": 0.0,
			"0.025": 0.0
		}
	}
}
