{
	 "smiles": "CN1N=NN=C1C1=CC(NC(=O)OCC(F)(F)F)=CC=C1", 
	 "Tm": 402.15, 
	 "num_atms": 31, 
	 "gaussian": { 
		 "optdone": 1, 
		 "sigma_profile": "yes", 
		 "theory": "DFT", 
		 "functional": "B3LYP", 
		 "basiset": "6-31G**", 
		 "properties": { 
			 "R2extent": 7247.5493, 
			 "electric_dipole_moment_norm": 7.49002809474, 
			 "electric_quadrupole_moment_norm": 16.7791537331, 
			 "total_energy": -1148.89662652, 
			 "HOMO_LUMO_gap": 0.18984, 
			 "cosmo_polarized_energy": -23.95, 
			 "cosmo_cavitation_energy": 38.37, 
			 "cosmo_dispersion_energy": -26.1, 
			 "cosmo_repulsion_energy": 1.92, 
			 "cosmo_total_nonelectrostatic_energy": 14.19, 
			 "SMD_solvation_energy": 6.84 
		},
		"coords": [
			{
				"x": -4.0078650935,
				"y": 1.2964251497,
				"z": -1.0149289342,
				"element": "C" 
			},
			{
				"x": -3.1023145783,
				"y": 1.2544861962,
				"z": 0.1224022892,
				"element": "N" 
			},
			{
				"x": -3.2900795575,
				"y": 2.1156954212,
				"z": 1.153441711,
				"element": "N" 
			},
			{
				"x": -2.3230599987,
				"y": 1.9110088611,
				"z": 1.9868553528,
				"element": "N" 
			},
			{
				"x": -1.4935526709,
				"y": 0.9399198748,
				"z": 1.5425075485,
				"element": "N" 
			},
			{
				"x": -1.9824296481,
				"y": 0.5288917094,
				"z": 0.3781483723,
				"element": "C" 
			},
			{
				"x": -1.3719917699,
				"y": -0.5074916531,
				"z": -0.4659286823,
				"element": "C" 
			},
			{
				"x": 0.0178781469,
				"y": -0.6790903894,
				"z": -0.3675323144,
				"element": "C" 
			},
			{
				"x": 0.6567427199,
				"y": -1.6539221078,
				"z": -1.1411878177,
				"element": "C" 
			},
			{
				"x": 2.0435858936,
				"y": -1.9132606661,
				"z": -1.096765146,
				"element": "N" 
			},
			{
				"x": 3.1205898499,
				"y": -1.1701019016,
				"z": -0.6795317091,
				"element": "C" 
			},
			{
				"x": 4.2594732336,
				"y": -1.5894205462,
				"z": -0.7017357054,
				"element": "O" 
			},
			{
				"x": 2.758542537,
				"y": 0.0808448038,
				"z": -0.2823459566,
				"element": "O" 
			},
			{
				"x": 3.7791573657,
				"y": 0.868668098,
				"z": 0.324235991,
				"element": "C" 
			},
			{
				"x": 3.5673818562,
				"y": 0.8773442116,
				"z": 1.8291265179,
				"element": "C" 
			},
			{
				"x": 2.3532701506,
				"y": 1.3570094225,
				"z": 2.1532546391,
				"element": "F" 
			},
			{
				"x": 3.6729397876,
				"y": -0.3608136413,
				"z": 2.345821506,
				"element": "F" 
			},
			{
				"x": 4.4998669602,
				"y": 1.6612253938,
				"z": 2.4082917439,
				"element": "F" 
			},
			{
				"x": -0.1086430284,
				"y": -2.4677469835,
				"z": -1.994317855,
				"element": "C" 
			},
			{
				"x": -1.4877631772,
				"y": -2.3101657645,
				"z": -2.0676810472,
				"element": "C" 
			},
			{
				"x": -2.129832126,
				"y": -1.3309014507,
				"z": -1.311239234,
				"element": "C" 
			},
			{
				"x": -4.7771235345,
				"y": 0.5230069678,
				"z": -0.9350133175,
				"element": "H" 
			},
			{
				"x": -4.4850010136,
				"y": 2.2762016105,
				"z": -1.012717212,
				"element": "H" 
			},
			{
				"x": -3.4460746601,
				"y": 1.1587720352,
				"z": -1.9402255217,
				"element": "H" 
			},
			{
				"x": 0.5733025785,
				"y": -0.0525089314,
				"z": 0.3145648971,
				"element": "H" 
			},
			{
				"x": 2.3433187037,
				"y": -2.7992539313,
				"z": -1.4789322035,
				"element": "H" 
			},
			{
				"x": 4.7661992045,
				"y": 0.4643491896,
				"z": 0.0959107125,
				"element": "H" 
			},
			{
				"x": 3.6791484175,
				"y": 1.8872818074,
				"z": -0.054249979,
				"element": "H" 
			},
			{
				"x": 0.3843237404,
				"y": -3.2245316992,
				"z": -2.5990757391,
				"element": "H" 
			},
			{
				"x": -2.0666848506,
				"y": -2.957413896,
				"z": -2.7191536545,
				"element": "H" 
			},
			{
				"x": -3.2086054386,
				"y": -1.2400071903,
				"z": -1.3567992522,
				"element": "H" 
			}
		],
		 "valence_orbital": [ 
			{
				"type": "occ",
				"energy": -0.30012,
				"method": "rhf"
			},
			{
				"type": "occ",
				"energy": -0.29305,
				"method": "rhf"
			},
			{
				"type": "occ",
				"energy": -0.27643,
				"method": "rhf"
			},
			{
				"type": "occ",
				"energy": -0.25966,
				"method": "rhf"
			},
			{
				"type": "occ",
				"energy": -0.24233,
				"method": "rhf"
			},
			{
				"type": "unocc",
				"energy": -0.05249,
				"method": "rhf"
			},
			{
				"type": "unocc",
				"energy": -0.02803,
				"method": "rhf"
			},
			{
				"type": "unocc",
				"energy": 0.00045,
				"method": "rhf"
			},
			{
				"type": "unocc",
				"energy": 0.03297,
				"method": "rhf"
			},
			{
				"type": "unocc",
				"energy": 0.05033,
				"method": "rhf"
			}
		],
		"cosmo_sigma_profile": { 
			"-0.025": 0.0,
			"-0.024": 0.0,
			"-0.023": 0.0,
			"-0.022": 0.0,
			"-0.021": 0.0,
			"-0.02": 0.0,
			"-0.019": 0.0,
			"-0.018": 0.0,
			"-0.017": 0.0,
			"-0.016": 0.413305665033,
			"-0.015": 0.9916111573,
			"-0.014": 1.53165918935,
			"-0.013": 1.2195239476,
			"-0.012": 1.0936583096,
			"-0.011": 1.04847584228,
			"-0.01": 2.62546991396,
			"-0.009": 6.42625223461,
			"-0.008": 10.9043169425,
			"-0.007": 15.7948859302,
			"-0.006": 18.4120264695,
			"-0.005": 18.548764936,
			"-0.004": 16.412109292,
			"-0.003": 13.3237092968,
			"-0.002": 14.1760515142,
			"-0.001": 16.8460787998,
			"0.0": 17.3230588068,
			"0.001": 18.9441451421,
			"0.002": 37.1808165735,
			"0.003": 30.1174980119,
			"0.004": 10.7747670232,
			"0.005": 5.74097308043,
			"0.006": 5.33486464107,
			"0.007": 5.03271117542,
			"0.008": 6.57691898585,
			"0.009": 6.77910637349,
			"0.01": 6.07341914583,
			"0.011": 7.57625409295,
			"0.012": 7.12963762057,
			"0.013": 2.46633028633,
			"0.014": 1.16632151874,
			"0.015": 0.0634671660601,
			"0.016": 0.0,
			"0.017": 0.0,
			"0.018": 0.0,
			"0.019": 0.0,
			"0.02": 0.0,
			"0.021": 0.0,
			"0.022": 0.0,
			"0.023": 0.0,
			"0.024": 0.0,
			"0.025": 0.0
		}
	}
}
