{
	 "smiles": "CN(C)S(=O)(=O)C1=CC=C(C=C1)S(Cl)(=O)=O", 
	 "Tm": 408.15, 
	 "num_atms": 26, 
	 "gaussian": { 
		 "optdone": 1, 
		 "sigma_profile": "yes", 
		 "theory": "DFT", 
		 "functional": "B3LYP", 
		 "basiset": "6-31G**", 
		 "properties": { 
			 "R2extent": 7678.0424, 
			 "electric_dipole_moment_norm": 4.9107061702, 
			 "electric_quadrupole_moment_norm": 22.1059859242, 
			 "total_energy": -1922.94232549, 
			 "HOMO_LUMO_gap": 0.1647, 
			 "cosmo_polarized_energy": -16.01, 
			 "cosmo_cavitation_energy": 34.82, 
			 "cosmo_dispersion_energy": -25.5, 
			 "cosmo_repulsion_energy": 1.9, 
			 "cosmo_total_nonelectrostatic_energy": 11.23, 
			 "SMD_solvation_energy": 3.65 
		},
		"coords": [
			{
				"x": 2.2278284924,
				"y": -1.607172827,
				"z": 1.5260627027,
				"element": "C" 
			},
			{
				"x": 2.1162367353,
				"y": -0.3039798426,
				"z": 0.8573355283,
				"element": "N" 
			},
			{
				"x": 3.1291718609,
				"y": 0.6759881588,
				"z": 1.2828026859,
				"element": "C" 
			},
			{
				"x": 1.893197139,
				"y": -0.407559861,
				"z": -0.8222502868,
				"element": "S" 
			},
			{
				"x": 2.0400973908,
				"y": 0.9518953861,
				"z": -1.3474831716,
				"element": "O" 
			},
			{
				"x": 2.6472287527,
				"y": -1.5268119624,
				"z": -1.4019802567,
				"element": "O" 
			},
			{
				"x": 0.1462145755,
				"y": -0.8542365781,
				"z": -0.9029923471,
				"element": "C" 
			},
			{
				"x": -0.8116287149,
				"y": 0.0794418123,
				"z": -0.4970029116,
				"element": "C" 
			},
			{
				"x": -2.1611456346,
				"y": -0.2461182941,
				"z": -0.5939805955,
				"element": "C" 
			},
			{
				"x": -2.507830193,
				"y": -1.5004657938,
				"z": -1.1025747885,
				"element": "C" 
			},
			{
				"x": -1.5615670387,
				"y": -2.4321675001,
				"z": -1.5250659014,
				"element": "C" 
			},
			{
				"x": -0.2101524555,
				"y": -2.0977772949,
				"z": -1.4239716022,
				"element": "C" 
			},
			{
				"x": -4.2452275131,
				"y": -1.9184270567,
				"z": -1.2420938403,
				"element": "S" 
			},
			{
				"x": -4.5998709318,
				"y": -2.8001072606,
				"z": 0.6657718251,
				"element": "Cl" 
			},
			{
				"x": -5.031372879,
				"y": -0.6926687439,
				"z": -1.2790854516,
				"element": "O" 
			},
			{
				"x": -4.405276762,
				"y": -2.9839554914,
				"z": -2.2222418522,
				"element": "O" 
			},
			{
				"x": 1.4000825344,
				"y": -2.2549015341,
				"z": 1.2283978915,
				"element": "H" 
			},
			{
				"x": 2.1511705155,
				"y": -1.4372726041,
				"z": 2.6032289263,
				"element": "H" 
			},
			{
				"x": 3.1742976959,
				"y": -2.1166607716,
				"z": 1.3050532506,
				"element": "H" 
			},
			{
				"x": 4.1558704085,
				"y": 0.3167208063,
				"z": 1.1275239856,
				"element": "H" 
			},
			{
				"x": 2.9783425046,
				"y": 0.8628207153,
				"z": 2.3496408719,
				"element": "H" 
			},
			{
				"x": 2.9879195595,
				"y": 1.606566574,
				"z": 0.7348025417,
				"element": "H" 
			},
			{
				"x": -0.5027617091,
				"y": 1.0468678534,
				"z": -0.1174523084,
				"element": "H" 
			},
			{
				"x": -2.9315399119,
				"y": 0.4557904085,
				"z": -0.2957223359,
				"element": "H" 
			},
			{
				"x": -1.8748438049,
				"y": -3.3870649888,
				"z": -1.9315587949,
				"element": "H" 
			},
			{
				"x": 0.5639593836,
				"y": -2.7825433095,
				"z": -1.7518637648,
				"element": "H" 
			}
		],
		 "valence_orbital": [ 
			{
				"type": "occ",
				"energy": -0.32295,
				"method": "rhf"
			},
			{
				"type": "occ",
				"energy": -0.31717,
				"method": "rhf"
			},
			{
				"type": "occ",
				"energy": -0.30796,
				"method": "rhf"
			},
			{
				"type": "occ",
				"energy": -0.30413,
				"method": "rhf"
			},
			{
				"type": "occ",
				"energy": -0.26889,
				"method": "rhf"
			},
			{
				"type": "unocc",
				"energy": -0.10419,
				"method": "rhf"
			},
			{
				"type": "unocc",
				"energy": -0.06676,
				"method": "rhf"
			},
			{
				"type": "unocc",
				"energy": -0.05369,
				"method": "rhf"
			},
			{
				"type": "unocc",
				"energy": 0.02982,
				"method": "rhf"
			},
			{
				"type": "unocc",
				"energy": 0.04556,
				"method": "rhf"
			}
		],
		"cosmo_sigma_profile": { 
			"-0.025": 0.0,
			"-0.024": 0.0,
			"-0.023": 0.0,
			"-0.022": 0.0,
			"-0.021": 0.0,
			"-0.02": 0.0,
			"-0.019": 0.0,
			"-0.018": 0.0,
			"-0.017": 0.0,
			"-0.016": 0.0,
			"-0.015": 0.0,
			"-0.014": 0.0,
			"-0.013": 0.0,
			"-0.012": 0.0,
			"-0.011": 0.0,
			"-0.01": 0.768512758248,
			"-0.009": 5.62610355512,
			"-0.008": 6.71240531783,
			"-0.007": 8.449474684,
			"-0.006": 13.3732173294,
			"-0.005": 18.6841065752,
			"-0.004": 22.6195311694,
			"-0.003": 25.4612468812,
			"-0.002": 29.0109242009,
			"-0.001": 23.2838349848,
			"0.0": 15.7858460684,
			"0.001": 12.2544289418,
			"0.002": 14.3382867589,
			"0.003": 18.2980456796,
			"0.004": 8.10695560194,
			"0.005": 5.93821390859,
			"0.006": 7.58680860219,
			"0.007": 10.6799904057,
			"0.008": 11.9459306297,
			"0.009": 6.85174451478,
			"0.01": 7.42522802851,
			"0.011": 6.67971855094,
			"0.012": 0.798657268873,
			"0.013": 0.0,
			"0.014": 0.0,
			"0.015": 0.0,
			"0.016": 0.0,
			"0.017": 0.0,
			"0.018": 0.0,
			"0.019": 0.0,
			"0.02": 0.0,
			"0.021": 0.0,
			"0.022": 0.0,
			"0.023": 0.0,
			"0.024": 0.0,
			"0.025": 0.0
		}
	}
}
