{
	 "smiles": "OC(=O)CN1C=CN=N1", 
	 "Tm": 488.15, 
	 "num_atms": 14, 
	 "gaussian": { 
		 "optdone": 1, 
		 "sigma_profile": "yes", 
		 "theory": "DFT", 
		 "functional": "B3LYP", 
		 "basiset": "6-31G**", 
		 "properties": { 
			 "R2extent": 1591.1178, 
			 "electric_dipole_moment_norm": 5.14985652324, 
			 "electric_quadrupole_moment_norm": 15.0264749469, 
			 "total_energy": -470.101062991, 
			 "HOMO_LUMO_gap": 0.23899, 
			 "cosmo_polarized_energy": -16.82, 
			 "cosmo_cavitation_energy": 18.77, 
			 "cosmo_dispersion_energy": -14.2, 
			 "cosmo_repulsion_energy": 1.17, 
			 "cosmo_total_nonelectrostatic_energy": 5.75, 
			 "SMD_solvation_energy": 3.74 
		},
		"coords": [
			{
				"x": 1.0108374713,
				"y": -1.1153359717,
				"z": -0.8966997114,
				"element": "O" 
			},
			{
				"x": 2.1323941182,
				"y": -0.7679052047,
				"z": -0.2675284662,
				"element": "C" 
			},
			{
				"x": 3.0269826407,
				"y": -1.5417965344,
				"z": -0.0276469426,
				"element": "O" 
			},
			{
				"x": 2.3190159693,
				"y": 0.7244174691,
				"z": 0.0904401576,
				"element": "C" 
			},
			{
				"x": 1.091884702,
				"y": 1.4720300139,
				"z": 0.353118944,
				"element": "N" 
			},
			{
				"x": 0.8145824692,
				"y": 2.3696774328,
				"z": 1.3289477768,
				"element": "C" 
			},
			{
				"x": -0.4737282488,
				"y": 2.7820164775,
				"z": 1.0553564453,
				"element": "C" 
			},
			{
				"x": -0.9198142816,
				"y": 2.1286146497,
				"z": -0.0496922187,
				"element": "N" 
			},
			{
				"x": 0.0315994358,
				"y": 1.3461429668,
				"z": -0.4780213101,
				"element": "N" 
			},
			{
				"x": 0.4101418886,
				"y": -0.3363219536,
				"z": -0.9934639175,
				"element": "H" 
			},
			{
				"x": 2.9505488732,
				"y": 0.7702371778,
				"z": 0.9765389384,
				"element": "H" 
			},
			{
				"x": 2.8576513793,
				"y": 1.1965212248,
				"z": -0.7394221512,
				"element": "H" 
			},
			{
				"x": 1.5226966566,
				"y": 2.6313664965,
				"z": 2.0993607308,
				"element": "H" 
			},
			{
				"x": -1.0925930738,
				"y": 3.4916357554,
				"z": 1.5830117246,
				"element": "H" 
			}
		],
		 "valence_orbital": [ 
			{
				"type": "occ",
				"energy": -0.32629,
				"method": "rhf"
			},
			{
				"type": "occ",
				"energy": -0.31731,
				"method": "rhf"
			},
			{
				"type": "occ",
				"energy": -0.29707,
				"method": "rhf"
			},
			{
				"type": "occ",
				"energy": -0.29177,
				"method": "rhf"
			},
			{
				"type": "occ",
				"energy": -0.27567,
				"method": "rhf"
			},
			{
				"type": "unocc",
				"energy": -0.03668,
				"method": "rhf"
			},
			{
				"type": "unocc",
				"energy": 0.00052,
				"method": "rhf"
			},
			{
				"type": "unocc",
				"energy": 0.02415,
				"method": "rhf"
			},
			{
				"type": "unocc",
				"energy": 0.06894,
				"method": "rhf"
			},
			{
				"type": "unocc",
				"energy": 0.10287,
				"method": "rhf"
			}
		],
		"cosmo_sigma_profile": { 
			"-0.025": 0.0,
			"-0.024": 0.0,
			"-0.023": 0.0,
			"-0.022": 0.0,
			"-0.021": 0.0,
			"-0.02": 0.0,
			"-0.019": 0.0,
			"-0.018": 0.0,
			"-0.017": 0.0,
			"-0.016": 0.0,
			"-0.015": 0.0,
			"-0.014": 0.0,
			"-0.013": 0.181517832811,
			"-0.012": 1.63646872684,
			"-0.011": 3.88296389725,
			"-0.01": 6.47403701013,
			"-0.009": 8.08669233307,
			"-0.008": 8.40514694362,
			"-0.007": 9.17542701545,
			"-0.006": 8.96264528522,
			"-0.005": 6.19413440983,
			"-0.004": 6.29302858454,
			"-0.003": 6.23647842042,
			"-0.002": 5.61541400372,
			"-0.001": 6.37594495198,
			"0.0": 6.0229789632,
			"0.001": 6.58749873138,
			"0.002": 6.31104099405,
			"0.003": 4.09301065478,
			"0.004": 3.63927844084,
			"0.005": 4.28991389702,
			"0.006": 4.11999075753,
			"0.007": 4.75890338122,
			"0.008": 5.50620565849,
			"0.009": 5.48409427241,
			"0.01": 6.3012954715,
			"0.011": 6.6424645327,
			"0.012": 5.93659575212,
			"0.013": 1.96856744853,
			"0.014": 1.19150361098,
			"0.015": 0.574387953372,
			"0.016": 0.0,
			"0.017": 0.0,
			"0.018": 0.0,
			"0.019": 0.0,
			"0.02": 0.0,
			"0.021": 0.0,
			"0.022": 0.0,
			"0.023": 0.0,
			"0.024": 0.0,
			"0.025": 0.0
		}
	}
}
