{
	 "smiles": "CN1C(=O)C(C2=NNC(=O)C2=N/NC2=CC=C(C=C2)[N+]([O-])=O)=C(O)C2=CC=CC=C12", 
	 "Tm": 573.15, 
	 "num_atms": 44, 
	 "gaussian": { 
		 "optdone": 1, 
		 "sigma_profile": "yes", 
		 "theory": "DFT", 
		 "functional": "B3LYP", 
		 "basiset": "6-31G**", 
		 "properties": { 
			 "R2extent": 16957.9004, 
			 "electric_dipole_moment_norm": 6.3047524432, 
			 "electric_quadrupole_moment_norm": 35.3336325595, 
			 "total_energy": -1436.98026702, 
			 "HOMO_LUMO_gap": 0.11017, 
			 "cosmo_polarized_energy": -22.27, 
			 "cosmo_cavitation_energy": 49.64, 
			 "cosmo_dispersion_energy": -36.04, 
			 "cosmo_repulsion_energy": 2.61, 
			 "cosmo_total_nonelectrostatic_energy": 16.21, 
			 "SMD_solvation_energy": 10.66 
		},
		"coords": [
			{
				"x": 1.8308725958,
				"y": -2.3922449927,
				"z": 0.5040646758,
				"element": "C" 
			},
			{
				"x": 1.1137200577,
				"y": -2.0609538554,
				"z": -0.7270104893,
				"element": "N" 
			},
			{
				"x": -0.0151182227,
				"y": -1.2215415877,
				"z": -0.5985541103,
				"element": "C" 
			},
			{
				"x": -0.3730999214,
				"y": -0.8426669142,
				"z": 0.5157423712,
				"element": "O" 
			},
			{
				"x": -0.7127166401,
				"y": -0.8683913921,
				"z": -1.8369804579,
				"element": "C" 
			},
			{
				"x": -1.8009458709,
				"y": 0.1098234332,
				"z": -1.8181108948,
				"element": "C" 
			},
			{
				"x": -2.6837134493,
				"y": 0.1049301559,
				"z": -2.8031773017,
				"element": "N" 
			},
			{
				"x": -3.5409930148,
				"y": 1.1773192073,
				"z": -2.635745267,
				"element": "N" 
			},
			{
				"x": -3.2688744244,
				"y": 1.9169708565,
				"z": -1.5199768459,
				"element": "C" 
			},
			{
				"x": -3.8621369909,
				"y": 2.9218222308,
				"z": -1.1041715862,
				"element": "O" 
			},
			{
				"x": -2.0802138588,
				"y": 1.2493282388,
				"z": -0.9467513386,
				"element": "C" 
			},
			{
				"x": -1.3899414932,
				"y": 1.6870397357,
				"z": 0.0754032611,
				"element": "N" 
			},
			{
				"x": -1.8121252959,
				"y": 2.7741059874,
				"z": 0.6772471783,
				"element": "N" 
			},
			{
				"x": -1.1378279814,
				"y": 3.2613622055,
				"z": 1.7995730639,
				"element": "C" 
			},
			{
				"x": -1.546333828,
				"y": 4.4925024297,
				"z": 2.3376344883,
				"element": "C" 
			},
			{
				"x": -0.9005571183,
				"y": 5.0065817741,
				"z": 3.4537959969,
				"element": "C" 
			},
			{
				"x": 0.148800239,
				"y": 4.2826974494,
				"z": 4.0195457098,
				"element": "C" 
			},
			{
				"x": 0.5593543378,
				"y": 3.0537097952,
				"z": 3.4966958721,
				"element": "C" 
			},
			{
				"x": -0.0852941809,
				"y": 2.5349116286,
				"z": 2.383755843,
				"element": "C" 
			},
			{
				"x": 0.8338632321,
				"y": 4.8240318194,
				"z": 5.1956407952,
				"element": "N" 
			},
			{
				"x": 0.4445407897,
				"y": 5.9064110867,
				"z": 5.6374196347,
				"element": "O" 
			},
			{
				"x": 1.7592389816,
				"y": 4.1655727788,
				"z": 5.6728176221,
				"element": "O" 
			},
			{
				"x": -0.3739653916,
				"y": -1.4958966651,
				"z": -3.03074132,
				"element": "C" 
			},
			{
				"x": -1.0504477705,
				"y": -1.3289238407,
				"z": -4.1670629062,
				"element": "O" 
			},
			{
				"x": 0.7782869461,
				"y": -2.3620917985,
				"z": -3.1101044539,
				"element": "C" 
			},
			{
				"x": 1.1722487158,
				"y": -2.9435898514,
				"z": -4.3297184422,
				"element": "C" 
			},
			{
				"x": 2.2923180326,
				"y": -3.7553099566,
				"z": -4.3984884241,
				"element": "C" 
			},
			{
				"x": 3.033246833,
				"y": -3.999137264,
				"z": -3.2336006831,
				"element": "C" 
			},
			{
				"x": 2.6603754769,
				"y": -3.443069297,
				"z": -2.0170531257,
				"element": "C" 
			},
			{
				"x": 1.5231838923,
				"y": -2.613834579,
				"z": -1.9319667306,
				"element": "C" 
			},
			{
				"x": 1.3128825849,
				"y": -1.895419903,
				"z": 1.3205403207,
				"element": "H" 
			},
			{
				"x": 2.8660358466,
				"y": -2.0398317672,
				"z": 0.454486436,
				"element": "H" 
			},
			{
				"x": 1.8276218724,
				"y": -3.4733976348,
				"z": 0.6736511152,
				"element": "H" 
			},
			{
				"x": -4.3160686772,
				"y": 1.2990457931,
				"z": -3.2686917728,
				"element": "H" 
			},
			{
				"x": -2.6585290679,
				"y": 3.2367233047,
				"z": 0.3161000366,
				"element": "H" 
			},
			{
				"x": -2.3620563865,
				"y": 5.0425350491,
				"z": 1.877676513,
				"element": "H" 
			},
			{
				"x": -1.1901812153,
				"y": 5.9538450072,
				"z": 3.8904881792,
				"element": "H" 
			},
			{
				"x": 1.3716586824,
				"y": 2.5213127306,
				"z": 3.9752929896,
				"element": "H" 
			},
			{
				"x": 0.1913799183,
				"y": 1.5749314549,
				"z": 1.9632160219,
				"element": "H" 
			},
			{
				"x": -1.8546252547,
				"y": -0.7760334309,
				"z": -3.9663594689,
				"element": "H" 
			},
			{
				"x": 0.5770278449,
				"y": -2.7357535619,
				"z": -5.2111466615,
				"element": "H" 
			},
			{
				"x": 2.5918867755,
				"y": -4.1982106005,
				"z": -5.3426494039,
				"element": "H" 
			},
			{
				"x": 3.9135658343,
				"y": -4.6341279316,
				"z": -3.2742032757,
				"element": "H" 
			},
			{
				"x": 3.2512565649,
				"y": -3.6521873286,
				"z": -1.1350231643,
				"element": "H" 
			}
		],
		 "valence_orbital": [ 
			{
				"type": "occ",
				"energy": -0.26872,
				"method": "rhf"
			},
			{
				"type": "occ",
				"energy": -0.25715,
				"method": "rhf"
			},
			{
				"type": "occ",
				"energy": -0.23786,
				"method": "rhf"
			},
			{
				"type": "occ",
				"energy": -0.23161,
				"method": "rhf"
			},
			{
				"type": "occ",
				"energy": -0.21864,
				"method": "rhf"
			},
			{
				"type": "unocc",
				"energy": -0.10847,
				"method": "rhf"
			},
			{
				"type": "unocc",
				"energy": -0.07462,
				"method": "rhf"
			},
			{
				"type": "unocc",
				"energy": -0.05654,
				"method": "rhf"
			},
			{
				"type": "unocc",
				"energy": -0.02943,
				"method": "rhf"
			},
			{
				"type": "unocc",
				"energy": -0.0146,
				"method": "rhf"
			}
		],
		"cosmo_sigma_profile": { 
			"-0.025": 0.0,
			"-0.024": 0.0,
			"-0.023": 0.0,
			"-0.022": 0.0,
			"-0.021": 0.0,
			"-0.02": 0.0,
			"-0.019": 0.0,
			"-0.018": 0.0149119184574,
			"-0.017": 1.28053829512,
			"-0.016": 1.30068241614,
			"-0.015": 1.2586888993,
			"-0.014": 0.954607563062,
			"-0.013": 0.942066203913,
			"-0.012": 2.24374273724,
			"-0.011": 2.3543474759,
			"-0.01": 1.68086281554,
			"-0.009": 2.62157411562,
			"-0.008": 5.48709868,
			"-0.007": 8.73441315182,
			"-0.006": 20.3619743354,
			"-0.005": 24.105290969,
			"-0.004": 25.2354133652,
			"-0.003": 27.6074850217,
			"-0.002": 31.1359446274,
			"-0.001": 37.5015543264,
			"0.0": 39.0412780616,
			"0.001": 33.6325196564,
			"0.002": 21.9166500775,
			"0.003": 18.5769770898,
			"0.004": 18.907021909,
			"0.005": 10.1281823711,
			"0.006": 9.18421186366,
			"0.007": 13.3475139255,
			"0.008": 13.4457772037,
			"0.009": 7.79320089098,
			"0.01": 6.92784508328,
			"0.011": 4.03983742309,
			"0.012": 4.34367513177,
			"0.013": 3.23416366999,
			"0.014": 1.09813012524,
			"0.015": 0.0,
			"0.016": 0.0,
			"0.017": 0.0,
			"0.018": 0.0,
			"0.019": 0.0,
			"0.02": 0.0,
			"0.021": 0.0,
			"0.022": 0.0,
			"0.023": 0.0,
			"0.024": 0.0,
			"0.025": 0.0
		}
	}
}
