{
	 "smiles": "CCCCCl", 
	 "Tm": 150.15, 
	 "num_atms": 14, 
	 "gaussian": { 
		 "optdone": 1, 
		 "sigma_profile": "yes", 
		 "theory": "DFT", 
		 "functional": "B3LYP", 
		 "basiset": "6-31G**", 
		 "properties": { 
			 "R2extent": 761.8122, 
			 "electric_dipole_moment_norm": 2.21359720365, 
			 "electric_quadrupole_moment_norm": 4.34737249727, 
			 "total_energy": -618.058652856, 
			 "HOMO_LUMO_gap": 0.31927, 
			 "cosmo_polarized_energy": -3.65, 
			 "cosmo_cavitation_energy": 17.73, 
			 "cosmo_dispersion_energy": -13.3, 
			 "cosmo_repulsion_energy": 1.18, 
			 "cosmo_total_nonelectrostatic_energy": 5.61, 
			 "SMD_solvation_energy": 2.72 
		},
		"coords": [
			{
				"x": 0.2531893988,
				"y": 1.8326843128,
				"z": -0.8352076303,
				"element": "C" 
			},
			{
				"x": -0.1336575154,
				"y": 0.4379391776,
				"z": -1.3398919883,
				"element": "C" 
			},
			{
				"x": -1.404408089,
				"y": -0.1394633366,
				"z": -0.6983043666,
				"element": "C" 
			},
			{
				"x": -1.3453996471,
				"y": -0.3619170966,
				"z": 0.808577775,
				"element": "C" 
			},
			{
				"x": -0.0911509641,
				"y": -1.5994670049,
				"z": 1.2840862239,
				"element": "Cl" 
			},
			{
				"x": -0.5651072776,
				"y": 2.5492748632,
				"z": -0.9740452808,
				"element": "H" 
			},
			{
				"x": 1.1234249802,
				"y": 2.215229165,
				"z": -1.3778090639,
				"element": "H" 
			},
			{
				"x": 0.5147390777,
				"y": 1.8258481315,
				"z": 0.2282131569,
				"element": "H" 
			},
			{
				"x": 0.6974122074,
				"y": -0.2576813011,
				"z": -1.1770227813,
				"element": "H" 
			},
			{
				"x": -0.2926931703,
				"y": 0.4778909165,
				"z": -2.4244134279,
				"element": "H" 
			},
			{
				"x": -1.6658379649,
				"y": -1.0866436157,
				"z": -1.1836175113,
				"element": "H" 
			},
			{
				"x": -2.2470313263,
				"y": 0.5457722851,
				"z": -0.875110253,
				"element": "H" 
			},
			{
				"x": -2.2936203223,
				"y": -0.7433723465,
				"z": 1.1898226658,
				"element": "H" 
			},
			{
				"x": -1.0867593871,
				"y": 0.5469058499,
				"z": 1.3536224818,
				"element": "H" 
			}
		],
		 "valence_orbital": [ 
			{
				"type": "occ",
				"energy": -0.34084,
				"method": "rhf"
			},
			{
				"type": "occ",
				"energy": -0.33989,
				"method": "rhf"
			},
			{
				"type": "occ",
				"energy": -0.3347,
				"method": "rhf"
			},
			{
				"type": "occ",
				"energy": -0.29073,
				"method": "rhf"
			},
			{
				"type": "occ",
				"energy": -0.28925,
				"method": "rhf"
			},
			{
				"type": "unocc",
				"energy": 0.03002,
				"method": "rhf"
			},
			{
				"type": "unocc",
				"energy": 0.08099,
				"method": "rhf"
			},
			{
				"type": "unocc",
				"energy": 0.11453,
				"method": "rhf"
			},
			{
				"type": "unocc",
				"energy": 0.13132,
				"method": "rhf"
			},
			{
				"type": "unocc",
				"energy": 0.14279,
				"method": "rhf"
			}
		],
		"cosmo_sigma_profile": { 
			"-0.025": 0.0,
			"-0.024": 0.0,
			"-0.023": 0.0,
			"-0.022": 0.0,
			"-0.021": 0.0,
			"-0.02": 0.0,
			"-0.019": 0.0,
			"-0.018": 0.0,
			"-0.017": 0.0,
			"-0.016": 0.0,
			"-0.015": 0.0,
			"-0.014": 0.0,
			"-0.013": 0.0,
			"-0.012": 0.0,
			"-0.011": 0.0,
			"-0.01": 0.0,
			"-0.009": 0.0,
			"-0.008": 0.0,
			"-0.007": 0.938133996937,
			"-0.006": 3.70033443936,
			"-0.005": 5.56515918428,
			"-0.004": 10.0046673538,
			"-0.003": 15.4993340427,
			"-0.002": 16.7793117347,
			"-0.001": 17.758533717,
			"0.0": 16.0709198669,
			"0.001": 15.6741019406,
			"0.002": 8.35454591625,
			"0.003": 4.15149682418,
			"0.004": 4.27389461252,
			"0.005": 4.72279169548,
			"0.006": 7.24722359513,
			"0.007": 8.10309382432,
			"0.008": 1.01764751297,
			"0.009": 0.0,
			"0.01": 0.0,
			"0.011": 0.0,
			"0.012": 0.0,
			"0.013": 0.0,
			"0.014": 0.0,
			"0.015": 0.0,
			"0.016": 0.0,
			"0.017": 0.0,
			"0.018": 0.0,
			"0.019": 0.0,
			"0.02": 0.0,
			"0.021": 0.0,
			"0.022": 0.0,
			"0.023": 0.0,
			"0.024": 0.0,
			"0.025": 0.0
		}
	}
}
