{
	 "smiles": "CCCC1=CC=C(C=C1)C(=O)COC1=C(OC)C=C(C=O)C=C1", 
	 "Tm": 347.15, 
	 "num_atms": 43, 
	 "gaussian": { 
		 "optdone": 1, 
		 "sigma_profile": "yes", 
		 "theory": "DFT", 
		 "functional": "B3LYP", 
		 "basiset": "6-31G**", 
		 "properties": { 
			 "R2extent": 11413.5093, 
			 "electric_dipole_moment_norm": 2.82528171516, 
			 "electric_quadrupole_moment_norm": 25.1467715765, 
			 "total_energy": -1036.94566702, 
			 "HOMO_LUMO_gap": 0.16635, 
			 "cosmo_polarized_energy": -15.46, 
			 "cosmo_cavitation_energy": 47.3, 
			 "cosmo_dispersion_energy": -32.11, 
			 "cosmo_repulsion_energy": 2.46, 
			 "cosmo_total_nonelectrostatic_energy": 17.65, 
			 "SMD_solvation_energy": 10.17 
		},
		"coords": [
			{
				"x": 6.0203468918,
				"y": 3.039578637,
				"z": 1.2147639569,
				"element": "C" 
			},
			{
				"x": 5.4025295759,
				"y": 3.6971451319,
				"z": -0.0224466651,
				"element": "C" 
			},
			{
				"x": 5.2209308152,
				"y": 2.737461316,
				"z": -1.2210199356,
				"element": "C" 
			},
			{
				"x": 4.2238547085,
				"y": 1.6269110397,
				"z": -0.9715807463,
				"element": "C" 
			},
			{
				"x": 2.8450255802,
				"y": 1.8856269159,
				"z": -1.0143773887,
				"element": "C" 
			},
			{
				"x": 1.9143795674,
				"y": 0.8823549368,
				"z": -0.7601304621,
				"element": "C" 
			},
			{
				"x": 2.3409072666,
				"y": -0.4228308281,
				"z": -0.4648763275,
				"element": "C" 
			},
			{
				"x": 3.7184560795,
				"y": -0.6899527177,
				"z": -0.4313894329,
				"element": "C" 
			},
			{
				"x": 4.6420693121,
				"y": 0.3200120027,
				"z": -0.6765247329,
				"element": "C" 
			},
			{
				"x": 1.4031334621,
				"y": -1.5573291462,
				"z": -0.2296650733,
				"element": "C" 
			},
			{
				"x": 1.7989331504,
				"y": -2.7117866118,
				"z": -0.1647362367,
				"element": "O" 
			},
			{
				"x": -0.1046730872,
				"y": -1.300975581,
				"z": -0.11234831,
				"element": "C" 
			},
			{
				"x": -0.3328412925,
				"y": -0.3303352912,
				"z": 0.9198062324,
				"element": "O" 
			},
			{
				"x": -1.4543818375,
				"y": 0.4464789838,
				"z": 0.901073337,
				"element": "C" 
			},
			{
				"x": -2.7561052698,
				"y": -0.0514314784,
				"z": 0.6191360119,
				"element": "C" 
			},
			{
				"x": -2.8483122106,
				"y": -1.3834650123,
				"z": 0.3419685656,
				"element": "O" 
			},
			{
				"x": -4.1360478843,
				"y": -1.9229981118,
				"z": 0.0695034392,
				"element": "C" 
			},
			{
				"x": -3.8370881457,
				"y": 0.8218603998,
				"z": 0.6593700049,
				"element": "C" 
			},
			{
				"x": -3.6561353391,
				"y": 2.1721629925,
				"z": 1.0046501535,
				"element": "C" 
			},
			{
				"x": -4.8220205616,
				"y": 3.0747083991,
				"z": 1.0484926936,
				"element": "C" 
			},
			{
				"x": -5.9666191108,
				"y": 2.7435604052,
				"z": 0.7941433375,
				"element": "O" 
			},
			{
				"x": -2.3803192326,
				"y": 2.6502787951,
				"z": 1.313304637,
				"element": "C" 
			},
			{
				"x": -1.288597653,
				"y": 1.7876318402,
				"z": 1.2547867775,
				"element": "C" 
			},
			{
				"x": 6.135231065,
				"y": 3.7637969853,
				"z": 2.0275851376,
				"element": "H" 
			},
			{
				"x": 7.0130035714,
				"y": 2.6315731501,
				"z": 0.991211117,
				"element": "H" 
			},
			{
				"x": 5.3994162224,
				"y": 2.2177106644,
				"z": 1.584842988,
				"element": "H" 
			},
			{
				"x": 6.0345388662,
				"y": 4.5330775224,
				"z": -0.3473384024,
				"element": "H" 
			},
			{
				"x": 4.4284981049,
				"y": 4.1309044361,
				"z": 0.2377415024,
				"element": "H" 
			},
			{
				"x": 6.1937107227,
				"y": 2.3034904109,
				"z": -1.4825424233,
				"element": "H" 
			},
			{
				"x": 4.8949963227,
				"y": 3.3227100903,
				"z": -2.0898384844,
				"element": "H" 
			},
			{
				"x": 2.4978514282,
				"y": 2.8876191439,
				"z": -1.2550373946,
				"element": "H" 
			},
			{
				"x": 0.8572298605,
				"y": 1.1192098041,
				"z": -0.8003237522,
				"element": "H" 
			},
			{
				"x": 4.0398623395,
				"y": -1.7033069422,
				"z": -0.2145540589,
				"element": "H" 
			},
			{
				"x": 5.7051486322,
				"y": 0.0953395802,
				"z": -0.6468136359,
				"element": "H" 
			},
			{
				"x": -0.4954147552,
				"y": -0.9396870661,
				"z": -1.0731250337,
				"element": "H" 
			},
			{
				"x": -0.5820373835,
				"y": -2.2506512539,
				"z": 0.1277426695,
				"element": "H" 
			},
			{
				"x": -4.8110560202,
				"y": -1.7962080669,
				"z": 0.9243016723,
				"element": "H" 
			},
			{
				"x": -3.9804231503,
				"y": -2.9864946811,
				"z": -0.1150571835,
				"element": "H" 
			},
			{
				"x": -4.5865486009,
				"y": -1.460699374,
				"z": -0.8172786192,
				"element": "H" 
			},
			{
				"x": -4.8465823774,
				"y": 0.4904878685,
				"z": 0.4474281698,
				"element": "H" 
			},
			{
				"x": -4.583440527,
				"y": 4.1217785737,
				"z": 1.3406251204,
				"element": "H" 
			},
			{
				"x": -2.2408455532,
				"y": 3.6926197389,
				"z": 1.5874725883,
				"element": "H" 
			},
			{
				"x": -0.2832635532,
				"y": 2.1249623982,
				"z": 1.483454187,
				"element": "H" 
			}
		],
		 "valence_orbital": [ 
			{
				"type": "occ",
				"energy": -0.25595,
				"method": "rhf"
			},
			{
				"type": "occ",
				"energy": -0.2536,
				"method": "rhf"
			},
			{
				"type": "occ",
				"energy": -0.25319,
				"method": "rhf"
			},
			{
				"type": "occ",
				"energy": -0.24963,
				"method": "rhf"
			},
			{
				"type": "occ",
				"energy": -0.22814,
				"method": "rhf"
			},
			{
				"type": "unocc",
				"energy": -0.06179,
				"method": "rhf"
			},
			{
				"type": "unocc",
				"energy": -0.05926,
				"method": "rhf"
			},
			{
				"type": "unocc",
				"energy": -0.011,
				"method": "rhf"
			},
			{
				"type": "unocc",
				"energy": -0.00684,
				"method": "rhf"
			},
			{
				"type": "unocc",
				"energy": 0.02758,
				"method": "rhf"
			}
		],
		"cosmo_sigma_profile": { 
			"-0.025": 0.0,
			"-0.024": 0.0,
			"-0.023": 0.0,
			"-0.022": 0.0,
			"-0.021": 0.0,
			"-0.02": 0.0,
			"-0.019": 0.0,
			"-0.018": 0.0,
			"-0.017": 0.0,
			"-0.016": 0.0,
			"-0.015": 0.0,
			"-0.014": 0.0,
			"-0.013": 0.0,
			"-0.012": 0.0,
			"-0.011": 0.0,
			"-0.01": 0.0,
			"-0.009": 0.0676499312382,
			"-0.008": 3.34638574931,
			"-0.007": 8.93738825622,
			"-0.006": 18.9950026671,
			"-0.005": 25.1257995974,
			"-0.004": 29.85070168,
			"-0.003": 33.4137117896,
			"-0.002": 33.7058445688,
			"-0.001": 34.5179782864,
			"0.0": 32.8494009703,
			"0.001": 34.5211030127,
			"0.002": 29.6054083744,
			"0.003": 24.3752929921,
			"0.004": 18.6118012837,
			"0.005": 7.81451554549,
			"0.006": 5.13745216356,
			"0.007": 4.65185435515,
			"0.008": 4.45699811621,
			"0.009": 4.02308355014,
			"0.01": 5.560908919,
			"0.011": 6.94245457147,
			"0.012": 6.68255784338,
			"0.013": 1.6741588354,
			"0.014": 0.0554708818748,
			"0.015": 0.0,
			"0.016": 0.0,
			"0.017": 0.0,
			"0.018": 0.0,
			"0.019": 0.0,
			"0.02": 0.0,
			"0.021": 0.0,
			"0.022": 0.0,
			"0.023": 0.0,
			"0.024": 0.0,
			"0.025": 0.0
		}
	}
}
