{
	 "smiles": "NC1=NN=C(S1)C1=CC=C(C=C1)[N+]([O-])=O", 
	 "Tm": 476.15, 
	 "num_atms": 21, 
	 "gaussian": { 
		 "optdone": 1, 
		 "sigma_profile": "yes", 
		 "theory": "DFT", 
		 "functional": "B3LYP", 
		 "basiset": "6-31G**", 
		 "properties": { 
			 "R2extent": 5151.6215, 
			 "electric_dipole_moment_norm": 7.09956868972, 
			 "electric_quadrupole_moment_norm": 14.1313921462, 
			 "total_energy": -1075.984212, 
			 "HOMO_LUMO_gap": 0.13831, 
			 "cosmo_polarized_energy": -18.15, 
			 "cosmo_cavitation_energy": 28.7, 
			 "cosmo_dispersion_energy": -21.91, 
			 "cosmo_repulsion_energy": 1.65, 
			 "cosmo_total_nonelectrostatic_energy": 8.44, 
			 "SMD_solvation_energy": 5.15 
		},
		"coords": [
			{
				"x": -1.6128750994,
				"y": 1.0473489104,
				"z": 5.3584796973,
				"element": "N" 
			},
			{
				"x": -1.1365724124,
				"y": 1.2122323626,
				"z": 4.0883877086,
				"element": "C" 
			},
			{
				"x": -0.3335248229,
				"y": 2.1922501007,
				"z": 3.7471341722,
				"element": "N" 
			},
			{
				"x": 0.0693591019,
				"y": 2.1083990968,
				"z": 2.4542664765,
				"element": "N" 
			},
			{
				"x": -0.4149185062,
				"y": 1.0948910948,
				"z": 1.7935783614,
				"element": "C" 
			},
			{
				"x": -1.4728122457,
				"y": 0.071913579,
				"z": 2.7928457846,
				"element": "S" 
			},
			{
				"x": -0.1248609451,
				"y": 0.8288467975,
				"z": 0.3832888827,
				"element": "C" 
			},
			{
				"x": 0.7235310489,
				"y": 1.7101402608,
				"z": -0.3169855089,
				"element": "C" 
			},
			{
				"x": 1.0201506982,
				"y": 1.4892337693,
				"z": -1.6541082065,
				"element": "C" 
			},
			{
				"x": 0.4650891028,
				"y": 0.3808704397,
				"z": -2.295931195,
				"element": "C" 
			},
			{
				"x": -0.3764950453,
				"y": -0.5079651865,
				"z": -1.6308384403,
				"element": "C" 
			},
			{
				"x": -0.6675679925,
				"y": -0.2790615289,
				"z": -0.291114909,
				"element": "C" 
			},
			{
				"x": 0.7757975507,
				"y": 0.1434377466,
				"z": -3.711676952,
				"element": "N" 
			},
			{
				"x": 1.5220113477,
				"y": 0.9445874946,
				"z": -4.2742959653,
				"element": "O" 
			},
			{
				"x": 0.2708280607,
				"y": -0.842364647,
				"z": -4.2498420146,
				"element": "O" 
			},
			{
				"x": -2.5009121387,
				"y": 0.5843520111,
				"z": 5.4796727197,
				"element": "H" 
			},
			{
				"x": -1.4612760737,
				"y": 1.8495353236,
				"z": 5.9560299787,
				"element": "H" 
			},
			{
				"x": 1.1387717995,
				"y": 2.5618839321,
				"z": 0.2087483807,
				"element": "H" 
			},
			{
				"x": 1.6695259721,
				"y": 2.1548434661,
				"z": -2.208723049,
				"element": "H" 
			},
			{
				"x": -0.7856738736,
				"y": -1.3557050402,
				"z": -2.1655185411,
				"element": "H" 
			},
			{
				"x": -1.3222755269,
				"y": -0.9705699832,
				"z": 0.2305026194,
				"element": "H" 
			}
		],
		 "valence_orbital": [ 
			{
				"type": "occ",
				"energy": -0.29101,
				"method": "rhf"
			},
			{
				"type": "occ",
				"energy": -0.28999,
				"method": "rhf"
			},
			{
				"type": "occ",
				"energy": -0.28176,
				"method": "rhf"
			},
			{
				"type": "occ",
				"energy": -0.27321,
				"method": "rhf"
			},
			{
				"type": "occ",
				"energy": -0.23631,
				"method": "rhf"
			},
			{
				"type": "unocc",
				"energy": -0.098,
				"method": "rhf"
			},
			{
				"type": "unocc",
				"energy": -0.0455,
				"method": "rhf"
			},
			{
				"type": "unocc",
				"energy": -0.03009,
				"method": "rhf"
			},
			{
				"type": "unocc",
				"energy": -0.01827,
				"method": "rhf"
			},
			{
				"type": "unocc",
				"energy": 0.00913,
				"method": "rhf"
			}
		],
		"cosmo_sigma_profile": { 
			"-0.025": 0.0,
			"-0.024": 0.0,
			"-0.023": 0.0,
			"-0.022": 0.0,
			"-0.021": 0.0,
			"-0.02": 0.0,
			"-0.019": 0.0,
			"-0.018": 0.0,
			"-0.017": 0.0,
			"-0.016": 0.488011809322,
			"-0.015": 2.29506783442,
			"-0.014": 2.86254084676,
			"-0.013": 2.5407791095,
			"-0.012": 3.10412511814,
			"-0.011": 2.50551014338,
			"-0.01": 2.18751205331,
			"-0.009": 1.59032517115,
			"-0.008": 5.53399041033,
			"-0.007": 8.36653035921,
			"-0.006": 9.38221779508,
			"-0.005": 9.03199187395,
			"-0.004": 11.0927073237,
			"-0.003": 10.847471563,
			"-0.002": 16.0048035063,
			"-0.001": 19.3154434001,
			"0.0": 25.2636619348,
			"0.001": 22.4371486812,
			"0.002": 11.9314664774,
			"0.003": 6.76113929782,
			"0.004": 5.28190525069,
			"0.005": 5.93935578272,
			"0.006": 5.8577323901,
			"0.007": 10.1007350141,
			"0.008": 10.830104764,
			"0.009": 7.06603160283,
			"0.01": 5.24056837881,
			"0.011": 3.4595652061,
			"0.012": 2.91837638507,
			"0.013": 1.66254565007,
			"0.014": 0.973586685585,
			"0.015": 0.63024639608,
			"0.016": 0.0,
			"0.017": 0.0,
			"0.018": 0.0,
			"0.019": 0.0,
			"0.02": 0.0,
			"0.021": 0.0,
			"0.022": 0.0,
			"0.023": 0.0,
			"0.024": 0.0,
			"0.025": 0.0
		}
	}
}
