{
	 "smiles": "CC1CCS(=O)(=O)C1", 
	 "Tm": 274.15, 
	 "num_atms": 18, 
	 "gaussian": { 
		 "optdone": 1, 
		 "sigma_profile": "yes", 
		 "theory": "DFT", 
		 "functional": "B3LYP", 
		 "basiset": "6-31G**", 
		 "properties": { 
			 "R2extent": 1154.1562, 
			 "electric_dipole_moment_norm": 5.28893325823, 
			 "electric_quadrupole_moment_norm": 11.0505553313, 
			 "total_energy": -745.139174376, 
			 "HOMO_LUMO_gap": 0.32494, 
			 "cosmo_polarized_energy": -14.43, 
			 "cosmo_cavitation_energy": 20.88, 
			 "cosmo_dispersion_energy": -16.27, 
			 "cosmo_repulsion_energy": 1.29, 
			 "cosmo_total_nonelectrostatic_energy": 5.9, 
			 "SMD_solvation_energy": 2.6 
		},
		"coords": [
			{
				"x": -2.0650550913,
				"y": -0.1769463025,
				"z": 1.1712982498,
				"element": "C" 
			},
			{
				"x": -1.3143542188,
				"y": 0.4092535592,
				"z": -0.0338858944,
				"element": "C" 
			},
			{
				"x": -0.5354173947,
				"y": -0.6642398724,
				"z": -0.8424963871,
				"element": "C" 
			},
			{
				"x": 0.7286652605,
				"y": -1.0421182197,
				"z": -0.0597851448,
				"element": "C" 
			},
			{
				"x": 1.2549484656,
				"y": 0.5018472579,
				"z": 0.7948318233,
				"element": "S" 
			},
			{
				"x": 1.2981983604,
				"y": 0.2563987275,
				"z": 2.2472279751,
				"element": "O" 
			},
			{
				"x": 2.411562762,
				"y": 1.0918383725,
				"z": 0.1009296763,
				"element": "O" 
			},
			{
				"x": -0.2628755213,
				"y": 1.4534525718,
				"z": 0.3796805643,
				"element": "C" 
			},
			{
				"x": -1.3817553267,
				"y": -0.606993131,
				"z": 1.9099900486,
				"element": "H" 
			},
			{
				"x": -2.7619686385,
				"y": -0.9583253019,
				"z": 0.85107546,
				"element": "H" 
			},
			{
				"x": -2.6440449689,
				"y": 0.6010246732,
				"z": 1.6790343194,
				"element": "H" 
			},
			{
				"x": -2.041698222,
				"y": 0.8896281836,
				"z": -0.6981865075,
				"element": "H" 
			},
			{
				"x": -1.1558599927,
				"y": -1.5454765502,
				"z": -1.0319497576,
				"element": "H" 
			},
			{
				"x": -0.2520088631,
				"y": -0.2486231633,
				"z": -1.8157089502,
				"element": "H" 
			},
			{
				"x": 1.5620584386,
				"y": -1.3684183548,
				"z": -0.6834430176,
				"element": "H" 
			},
			{
				"x": 0.5441220938,
				"y": -1.7774807648,
				"z": 0.7253960533,
				"element": "H" 
			},
			{
				"x": -0.5276759424,
				"y": 2.0426399683,
				"z": 1.2596443885,
				"element": "H" 
			},
			{
				"x": 0.0112587994,
				"y": 2.1163383467,
				"z": -0.4444528993,
				"element": "H" 
			}
		],
		 "valence_orbital": [ 
			{
				"type": "occ",
				"energy": -0.35439,
				"method": "rhf"
			},
			{
				"type": "occ",
				"energy": -0.31196,
				"method": "rhf"
			},
			{
				"type": "occ",
				"energy": -0.30212,
				"method": "rhf"
			},
			{
				"type": "occ",
				"energy": -0.28934,
				"method": "rhf"
			},
			{
				"type": "occ",
				"energy": -0.27514,
				"method": "rhf"
			},
			{
				"type": "unocc",
				"energy": 0.0498,
				"method": "rhf"
			},
			{
				"type": "unocc",
				"energy": 0.05951,
				"method": "rhf"
			},
			{
				"type": "unocc",
				"energy": 0.07486,
				"method": "rhf"
			},
			{
				"type": "unocc",
				"energy": 0.07558,
				"method": "rhf"
			},
			{
				"type": "unocc",
				"energy": 0.07941,
				"method": "rhf"
			}
		],
		"cosmo_sigma_profile": { 
			"-0.025": 0.0,
			"-0.024": 0.0,
			"-0.023": 0.0,
			"-0.022": 0.0,
			"-0.021": 0.0,
			"-0.02": 0.0,
			"-0.019": 0.0,
			"-0.018": 0.0,
			"-0.017": 0.0,
			"-0.016": 0.0,
			"-0.015": 0.0,
			"-0.014": 0.0,
			"-0.013": 0.0,
			"-0.012": 0.0,
			"-0.011": 0.0,
			"-0.01": 0.0,
			"-0.009": 0.0,
			"-0.008": 1.56804346458,
			"-0.007": 8.41682534541,
			"-0.006": 9.91094995141,
			"-0.005": 19.4517737632,
			"-0.004": 22.3932777972,
			"-0.003": 20.0037646107,
			"-0.002": 13.4382446267,
			"-0.001": 9.8817860085,
			"0.0": 8.39703898076,
			"0.001": 5.33704191717,
			"0.002": 2.74734182717,
			"0.003": 1.54902175222,
			"0.004": 1.59695466075,
			"0.005": 1.87934470174,
			"0.006": 2.44716875352,
			"0.007": 2.12643498131,
			"0.008": 1.49940239232,
			"0.009": 2.98898435952,
			"0.01": 3.50121366923,
			"0.011": 7.20792676032,
			"0.012": 11.8544542244,
			"0.013": 4.65839283489,
			"0.014": 0.0,
			"0.015": 0.0,
			"0.016": 0.0,
			"0.017": 0.0,
			"0.018": 0.0,
			"0.019": 0.0,
			"0.02": 0.0,
			"0.021": 0.0,
			"0.022": 0.0,
			"0.023": 0.0,
			"0.024": 0.0,
			"0.025": 0.0
		}
	}
}
