{
	 "smiles": "CCOC(=O)C1=C2C=CC=CC2=NN1C", 
	 "Tm": 324.15, 
	 "num_atms": 27, 
	 "gaussian": { 
		 "optdone": 1, 
		 "sigma_profile": "yes", 
		 "theory": "DFT", 
		 "functional": "B3LYP", 
		 "basiset": "6-31G**", 
		 "properties": { 
			 "R2extent": 3441.8812, 
			 "electric_dipole_moment_norm": 1.67570786237, 
			 "electric_quadrupole_moment_norm": 5.76278988165, 
			 "total_energy": -686.356826594, 
			 "HOMO_LUMO_gap": 0.15753, 
			 "cosmo_polarized_energy": -8.47, 
			 "cosmo_cavitation_energy": 30.79, 
			 "cosmo_dispersion_energy": -22.35, 
			 "cosmo_repulsion_energy": 1.74, 
			 "cosmo_total_nonelectrostatic_energy": 10.19, 
			 "SMD_solvation_energy": 5.12 
		},
		"coords": [
			{
				"x": -2.5150511075,
				"y": -3.2299880022,
				"z": -0.4824392921,
				"element": "C" 
			},
			{
				"x": -2.6250890502,
				"y": -1.8801530324,
				"z": -1.175581646,
				"element": "C" 
			},
			{
				"x": -1.7107869448,
				"y": -0.9158503488,
				"z": -0.6007290665,
				"element": "O" 
			},
			{
				"x": -0.447676569,
				"y": -0.9187037822,
				"z": -1.0893635967,
				"element": "C" 
			},
			{
				"x": -0.0628344816,
				"y": -1.6699083395,
				"z": -1.9724245264,
				"element": "O" 
			},
			{
				"x": 0.3731562773,
				"y": 0.0906258777,
				"z": -0.4250349176,
				"element": "C" 
			},
			{
				"x": 0.0868970866,
				"y": 1.0189222431,
				"z": 0.5995027215,
				"element": "C" 
			},
			{
				"x": -1.0454904251,
				"y": 1.3566800321,
				"z": 1.3775161079,
				"element": "C" 
			},
			{
				"x": -0.9090571595,
				"y": 2.3622063607,
				"z": 2.3116705224,
				"element": "C" 
			},
			{
				"x": 0.3239968912,
				"y": 3.0505990449,
				"z": 2.5021378025,
				"element": "C" 
			},
			{
				"x": 1.4410123934,
				"y": 2.7413559995,
				"z": 1.7584979153,
				"element": "C" 
			},
			{
				"x": 1.3216682491,
				"y": 1.7122890302,
				"z": 0.7946207178,
				"element": "C" 
			},
			{
				"x": 2.2844125442,
				"y": 1.2489644063,
				"z": -0.0395823879,
				"element": "N" 
			},
			{
				"x": 1.6917869814,
				"y": 0.2886206772,
				"z": -0.7485826789,
				"element": "N" 
			},
			{
				"x": 2.486053497,
				"y": -0.414822269,
				"z": -1.7525877199,
				"element": "C" 
			},
			{
				"x": -3.2700160492,
				"y": -3.9148473661,
				"z": -0.882890692,
				"element": "H" 
			},
			{
				"x": -1.5292759191,
				"y": -3.669586034,
				"z": -0.6524030184,
				"element": "H" 
			},
			{
				"x": -2.678302836,
				"y": -3.1300416835,
				"z": 0.5946062923,
				"element": "H" 
			},
			{
				"x": -2.4190173448,
				"y": -1.9675404985,
				"z": -2.2447221174,
				"element": "H" 
			},
			{
				"x": -3.6119454848,
				"y": -1.4342450627,
				"z": -1.0310676401,
				"element": "H" 
			},
			{
				"x": -1.9847615139,
				"y": 0.8356512167,
				"z": 1.2361272276,
				"element": "H" 
			},
			{
				"x": -1.7624291388,
				"y": 2.6421329842,
				"z": 2.9227594291,
				"element": "H" 
			},
			{
				"x": 0.3761349273,
				"y": 3.8347651484,
				"z": 3.2518113362,
				"element": "H" 
			},
			{
				"x": 2.3860180056,
				"y": 3.2571529354,
				"z": 1.8930985129,
				"element": "H" 
			},
			{
				"x": 2.5219810621,
				"y": -1.4812270054,
				"z": -1.5259722677,
				"element": "H" 
			},
			{
				"x": 3.4816644638,
				"y": 0.0240493346,
				"z": -1.717688582,
				"element": "H" 
			},
			{
				"x": 2.0400516453,
				"y": -0.2921018668,
				"z": -2.7403784361,
				"element": "H" 
			}
		],
		 "valence_orbital": [ 
			{
				"type": "occ",
				"energy": -0.29307,
				"method": "rhf"
			},
			{
				"type": "occ",
				"energy": -0.28564,
				"method": "rhf"
			},
			{
				"type": "occ",
				"energy": -0.27917,
				"method": "rhf"
			},
			{
				"type": "occ",
				"energy": -0.24505,
				"method": "rhf"
			},
			{
				"type": "occ",
				"energy": -0.21377,
				"method": "rhf"
			},
			{
				"type": "unocc",
				"energy": -0.05624,
				"method": "rhf"
			},
			{
				"type": "unocc",
				"energy": -0.00151,
				"method": "rhf"
			},
			{
				"type": "unocc",
				"energy": 0.03187,
				"method": "rhf"
			},
			{
				"type": "unocc",
				"energy": 0.09311,
				"method": "rhf"
			},
			{
				"type": "unocc",
				"energy": 0.10152,
				"method": "rhf"
			}
		],
		"cosmo_sigma_profile": { 
			"-0.025": 0.0,
			"-0.024": 0.0,
			"-0.023": 0.0,
			"-0.022": 0.0,
			"-0.021": 0.0,
			"-0.02": 0.0,
			"-0.019": 0.0,
			"-0.018": 0.0,
			"-0.017": 0.0,
			"-0.016": 0.0,
			"-0.015": 0.0,
			"-0.014": 0.0,
			"-0.013": 0.0,
			"-0.012": 0.0,
			"-0.011": 0.0,
			"-0.01": 0.0,
			"-0.009": 0.0,
			"-0.008": 0.0,
			"-0.007": 1.80333318269,
			"-0.006": 11.8117086041,
			"-0.005": 17.7961317871,
			"-0.004": 25.7179304698,
			"-0.003": 27.9222185622,
			"-0.002": 21.2044128703,
			"-0.001": 20.6609725428,
			"0.0": 20.0832286941,
			"0.001": 14.9109946013,
			"0.002": 14.8813207326,
			"0.003": 18.8176618015,
			"0.004": 16.7034512058,
			"0.005": 12.3206380276,
			"0.006": 2.42894224183,
			"0.007": 1.91244139345,
			"0.008": 3.22858407018,
			"0.009": 3.35037469745,
			"0.01": 1.98603084003,
			"0.011": 3.06222716182,
			"0.012": 3.01018221874,
			"0.013": 0.873285692773,
			"0.014": 0.70251582591,
			"0.015": 0.0651435189028,
			"0.016": 0.0,
			"0.017": 0.0,
			"0.018": 0.0,
			"0.019": 0.0,
			"0.02": 0.0,
			"0.021": 0.0,
			"0.022": 0.0,
			"0.023": 0.0,
			"0.024": 0.0,
			"0.025": 0.0
		}
	}
}
