{
	 "smiles": "CCOC(=O)C1=C(N)SC=C1C1=CC=CO1", 
	 "Tm": 360.65, 
	 "num_atms": 27, 
	 "gaussian": { 
		 "optdone": 1, 
		 "sigma_profile": "yes", 
		 "theory": "DFT", 
		 "functional": "B3LYP", 
		 "basiset": "6-31G**", 
		 "properties": { 
			 "R2extent": 4706.0874, 
			 "electric_dipole_moment_norm": 0.816032634151, 
			 "electric_quadrupole_moment_norm": 12.981938522, 
			 "total_energy": -1104.39307962, 
			 "HOMO_LUMO_gap": 0.16949, 
			 "cosmo_polarized_energy": -10.81, 
			 "cosmo_cavitation_energy": 32.48, 
			 "cosmo_dispersion_energy": -24.09, 
			 "cosmo_repulsion_energy": 1.82, 
			 "cosmo_total_nonelectrostatic_energy": 10.22, 
			 "SMD_solvation_energy": 7.08 
		},
		"coords": [
			{
				"x": -0.8174596513,
				"y": 3.1415498447,
				"z": 2.8432595645,
				"element": "C" 
			},
			{
				"x": 0.1682057853,
				"y": 3.0928117258,
				"z": 1.6846595085,
				"element": "C" 
			},
			{
				"x": -0.2213855444,
				"y": 2.1232804649,
				"z": 0.6842593179,
				"element": "O" 
			},
			{
				"x": 0.1345297872,
				"y": 0.8404625994,
				"z": 0.9094277362,
				"element": "C" 
			},
			{
				"x": 0.7373179822,
				"y": 0.5121342094,
				"z": 1.935131814,
				"element": "O" 
			},
			{
				"x": -0.2240160796,
				"y": -0.0893826636,
				"z": -0.1572952331,
				"element": "C" 
			},
			{
				"x": 0.2408815352,
				"y": -1.408453341,
				"z": -0.0502952768,
				"element": "C" 
			},
			{
				"x": 0.9858660226,
				"y": -1.9383490335,
				"z": 0.9472506859,
				"element": "N" 
			},
			{
				"x": -0.1727330928,
				"y": -2.3636952556,
				"z": -1.4524379236,
				"element": "S" 
			},
			{
				"x": -0.9900695283,
				"y": -1.0061652773,
				"z": -2.1803843065,
				"element": "C" 
			},
			{
				"x": -0.9512760258,
				"y": 0.1233509911,
				"z": -1.410259869,
				"element": "C" 
			},
			{
				"x": -1.6401224146,
				"y": 1.3203469286,
				"z": -1.8929037175,
				"element": "C" 
			},
			{
				"x": -2.2798023946,
				"y": 2.3951801917,
				"z": -1.331252682,
				"element": "C" 
			},
			{
				"x": -2.8857880764,
				"y": 3.1273482478,
				"z": -2.399549602,
				"element": "C" 
			},
			{
				"x": -2.5804998658,
				"y": 2.4537656667,
				"z": -3.5419560342,
				"element": "C" 
			},
			{
				"x": -1.8291901022,
				"y": 1.3559304945,
				"z": -3.2582702545,
				"element": "O" 
			},
			{
				"x": -0.8232744854,
				"y": 2.1911635948,
				"z": 3.3813121354,
				"element": "H" 
			},
			{
				"x": -0.5265434004,
				"y": 3.9324517564,
				"z": 3.5430123419,
				"element": "H" 
			},
			{
				"x": -1.8308221701,
				"y": 3.3563664583,
				"z": 2.4900853068,
				"element": "H" 
			},
			{
				"x": 0.1916738202,
				"y": 4.0398137933,
				"z": 1.1399720812,
				"element": "H" 
			},
			{
				"x": 1.1736864878,
				"y": 2.8517657522,
				"z": 2.0367327223,
				"element": "H" 
			},
			{
				"x": 1.1209150374,
				"y": -1.3317388219,
				"z": 1.751119646,
				"element": "H" 
			},
			{
				"x": 1.1169689333,
				"y": -2.9334488063,
				"z": 1.0175116355,
				"element": "H" 
			},
			{
				"x": -1.4837285445,
				"y": -1.1291845871,
				"z": -3.1314550866,
				"element": "H" 
			},
			{
				"x": -2.3177059445,
				"y": 2.6263282508,
				"z": -0.2808962633,
				"element": "H" 
			},
			{
				"x": -3.467379967,
				"y": 4.0347950993,
				"z": -2.3214963072,
				"element": "H" 
			},
			{
				"x": -2.7945481035,
				"y": 2.6197717165,
				"z": -4.5864819399,
				"element": "H" 
			}
		],
		 "valence_orbital": [ 
			{
				"type": "occ",
				"energy": -0.27449,
				"method": "rhf"
			},
			{
				"type": "occ",
				"energy": -0.26953,
				"method": "rhf"
			},
			{
				"type": "occ",
				"energy": -0.26482,
				"method": "rhf"
			},
			{
				"type": "occ",
				"energy": -0.21834,
				"method": "rhf"
			},
			{
				"type": "occ",
				"energy": -0.18741,
				"method": "rhf"
			},
			{
				"type": "unocc",
				"energy": -0.01792,
				"method": "rhf"
			},
			{
				"type": "unocc",
				"energy": -0.01457,
				"method": "rhf"
			},
			{
				"type": "unocc",
				"energy": 0.01082,
				"method": "rhf"
			},
			{
				"type": "unocc",
				"energy": 0.04856,
				"method": "rhf"
			},
			{
				"type": "unocc",
				"energy": 0.08552,
				"method": "rhf"
			}
		],
		"cosmo_sigma_profile": { 
			"-0.025": 0.0,
			"-0.024": 0.0,
			"-0.023": 0.0,
			"-0.022": 0.0,
			"-0.021": 0.0,
			"-0.02": 0.0,
			"-0.019": 0.0,
			"-0.018": 0.0,
			"-0.017": 0.0,
			"-0.016": 0.0496500300595,
			"-0.015": 1.05940545861,
			"-0.014": 1.31626984633,
			"-0.013": 1.10311407763,
			"-0.012": 1.19773818692,
			"-0.011": 1.66785713587,
			"-0.01": 1.73685838266,
			"-0.009": 3.00395510383,
			"-0.008": 4.32290094073,
			"-0.007": 4.86230243828,
			"-0.006": 8.1861151634,
			"-0.005": 10.0505794114,
			"-0.004": 17.7916176922,
			"-0.003": 19.7288023136,
			"-0.002": 18.9053007174,
			"-0.001": 19.5293435968,
			"0.0": 22.2187259685,
			"0.001": 18.3373183676,
			"0.002": 21.6483047384,
			"0.003": 25.4174367077,
			"0.004": 21.5205209459,
			"0.005": 14.2332018043,
			"0.006": 8.84465318024,
			"0.007": 5.11439224309,
			"0.008": 3.31344149329,
			"0.009": 2.01072854464,
			"0.01": 1.89504781557,
			"0.011": 1.26312085625,
			"0.012": 1.39936736652,
			"0.013": 0.112203844338,
			"0.014": 0.0,
			"0.015": 0.0,
			"0.016": 0.0,
			"0.017": 0.0,
			"0.018": 0.0,
			"0.019": 0.0,
			"0.02": 0.0,
			"0.021": 0.0,
			"0.022": 0.0,
			"0.023": 0.0,
			"0.024": 0.0,
			"0.025": 0.0
		}
	}
}
