{
	 "smiles": "CC(C)CCCCCCO", 
	 "Tm": 337.65, 
	 "num_atms": 30, 
	 "gaussian": { 
		 "optdone": 1, 
		 "sigma_profile": "yes", 
		 "theory": "DFT", 
		 "functional": "B3LYP", 
		 "basiset": "6-31G**", 
		 "properties": { 
			 "R2extent": 3160.653, 
			 "electric_dipole_moment_norm": 1.50027584464, 
			 "electric_quadrupole_moment_norm": 8.67427314649, 
			 "total_energy": -430.251486756, 
			 "HOMO_LUMO_gap": 0.33692, 
			 "cosmo_polarized_energy": -5.94, 
			 "cosmo_cavitation_energy": 30.44, 
			 "cosmo_dispersion_energy": -21.29, 
			 "cosmo_repulsion_energy": 1.78, 
			 "cosmo_total_nonelectrostatic_energy": 10.92, 
			 "SMD_solvation_energy": 4.69 
		},
		"coords": [
			{
				"x": -2.0737346872,
				"y": -2.0118753049,
				"z": 3.5848174788,
				"element": "C" 
			},
			{
				"x": -1.3498295952,
				"y": -0.9342925361,
				"z": 2.7632095772,
				"element": "C" 
			},
			{
				"x": -1.9430815573,
				"y": 0.4529010428,
				"z": 3.0522380341,
				"element": "C" 
			},
			{
				"x": -1.392608981,
				"y": -1.2922114901,
				"z": 1.2626931621,
				"element": "C" 
			},
			{
				"x": -0.6207245192,
				"y": -0.3628090934,
				"z": 0.3097030585,
				"element": "C" 
			},
			{
				"x": 0.8970546369,
				"y": -0.3273978964,
				"z": 0.5481239559,
				"element": "C" 
			},
			{
				"x": 1.6902458576,
				"y": 0.4539091032,
				"z": -0.5122152414,
				"element": "C" 
			},
			{
				"x": 1.4322946826,
				"y": 1.9664344823,
				"z": -0.5237131191,
				"element": "C" 
			},
			{
				"x": 2.2316739232,
				"y": 2.7063189855,
				"z": -1.5996346123,
				"element": "C" 
			},
			{
				"x": 1.9492751181,
				"y": 2.2546401941,
				"z": -2.9202195728,
				"element": "O" 
			},
			{
				"x": -1.6369527791,
				"y": -3.0027539485,
				"z": 3.4181129966,
				"element": "H" 
			},
			{
				"x": -2.0202540378,
				"y": -1.7981852085,
				"z": 4.6579757119,
				"element": "H" 
			},
			{
				"x": -3.1345914978,
				"y": -2.0666037944,
				"z": 3.3103279166,
				"element": "H" 
			},
			{
				"x": -0.2986751123,
				"y": -0.925343678,
				"z": 3.0848566416,
				"element": "H" 
			},
			{
				"x": -2.988718771,
				"y": 0.5062930981,
				"z": 2.7236497217,
				"element": "H" 
			},
			{
				"x": -1.3937564046,
				"y": 1.2514608269,
				"z": 2.5437269451,
				"element": "H" 
			},
			{
				"x": -1.9223993277,
				"y": 0.6720357679,
				"z": 4.1254254568,
				"element": "H" 
			},
			{
				"x": -1.0091075924,
				"y": -2.3150131723,
				"z": 1.1390680547,
				"element": "H" 
			},
			{
				"x": -2.4456242401,
				"y": -1.3251010156,
				"z": 0.9471784566,
				"element": "H" 
			},
			{
				"x": -0.8035892425,
				"y": -0.7006804989,
				"z": -0.7199067544,
				"element": "H" 
			},
			{
				"x": -1.0350151064,
				"y": 0.6512208334,
				"z": 0.3678154719,
				"element": "H" 
			},
			{
				"x": 1.2700014815,
				"y": -1.3606877447,
				"z": 0.572716712,
				"element": "H" 
			},
			{
				"x": 1.1114599947,
				"y": 0.0938984907,
				"z": 1.5398323815,
				"element": "H" 
			},
			{
				"x": 1.4743233166,
				"y": 0.0526581644,
				"z": -1.5099288666,
				"element": "H" 
			},
			{
				"x": 2.7636002471,
				"y": 0.2881293602,
				"z": -0.346453708,
				"element": "H" 
			},
			{
				"x": 0.3629840216,
				"y": 2.1711964012,
				"z": -0.6786397836,
				"element": "H" 
			},
			{
				"x": 1.6835487586,
				"y": 2.3981064389,
				"z": 0.4557899357,
				"element": "H" 
			},
			{
				"x": 3.3042643394,
				"y": 2.5314675227,
				"z": -1.4571037145,
				"element": "H" 
			},
			{
				"x": 2.0656750622,
				"y": 3.7919906038,
				"z": -1.5088109704,
				"element": "H" 
			},
			{
				"x": 1.0141620113,
				"y": 2.4261940658,
				"z": -3.0927353264,
				"element": "H" 
			}
		],
		 "valence_orbital": [ 
			{
				"type": "occ",
				"energy": -0.31377,
				"method": "rhf"
			},
			{
				"type": "occ",
				"energy": -0.30821,
				"method": "rhf"
			},
			{
				"type": "occ",
				"energy": -0.30483,
				"method": "rhf"
			},
			{
				"type": "occ",
				"energy": -0.30115,
				"method": "rhf"
			},
			{
				"type": "occ",
				"energy": -0.26141,
				"method": "rhf"
			},
			{
				"type": "unocc",
				"energy": 0.07551,
				"method": "rhf"
			},
			{
				"type": "unocc",
				"energy": 0.08213,
				"method": "rhf"
			},
			{
				"type": "unocc",
				"energy": 0.10777,
				"method": "rhf"
			},
			{
				"type": "unocc",
				"energy": 0.11243,
				"method": "rhf"
			},
			{
				"type": "unocc",
				"energy": 0.11589,
				"method": "rhf"
			}
		],
		"cosmo_sigma_profile": { 
			"-0.025": 0.0,
			"-0.024": 0.0,
			"-0.023": 0.0,
			"-0.022": 0.0,
			"-0.021": 0.0,
			"-0.02": 0.0,
			"-0.019": 0.0,
			"-0.018": 0.0,
			"-0.017": 0.0,
			"-0.016": 0.0,
			"-0.015": 0.533053247462,
			"-0.014": 0.853836816567,
			"-0.013": 1.02327003688,
			"-0.012": 0.945312328741,
			"-0.011": 1.14000488332,
			"-0.01": 0.718734189515,
			"-0.009": 0.883856749833,
			"-0.008": 0.541528077863,
			"-0.007": 0.779320755189,
			"-0.006": 1.57732014116,
			"-0.005": 1.68346177712,
			"-0.004": 2.05312471094,
			"-0.003": 9.89360683097,
			"-0.002": 32.2708196745,
			"-0.001": 51.9034992095,
			"0.0": 45.5046277214,
			"0.001": 38.7674005509,
			"0.002": 20.8936184331,
			"0.003": 2.93062866654,
			"0.004": 2.05133405986,
			"0.005": 1.85345718171,
			"0.006": 0.887547066175,
			"0.007": 1.23227934925,
			"0.008": 1.920312922,
			"0.009": 1.1076544383,
			"0.01": 0.882464065408,
			"0.011": 1.34863142337,
			"0.012": 1.61878724706,
			"0.013": 0.965413071829,
			"0.014": 1.94384209364,
			"0.015": 1.73685055878,
			"0.016": 0.0170771801829,
			"0.017": 0.0,
			"0.018": 0.0,
			"0.019": 0.0,
			"0.02": 0.0,
			"0.021": 0.0,
			"0.022": 0.0,
			"0.023": 0.0,
			"0.024": 0.0,
			"0.025": 0.0
		}
	}
}
