{
	 "smiles": "NS(=O)(=O)C1=CC(C(O)=O)=C(F)C(Cl)=C1", 
	 "Tm": 502.15, 
	 "num_atms": 20, 
	 "gaussian": { 
		 "optdone": 1, 
		 "sigma_profile": "yes", 
		 "theory": "DFT", 
		 "functional": "B3LYP", 
		 "basiset": "6-31G**", 
		 "properties": { 
			 "R2extent": 4858.9397, 
			 "electric_dipole_moment_norm": 5.72422493793, 
			 "electric_quadrupole_moment_norm": 29.7383311541, 
			 "total_energy": -1583.53981177, 
			 "HOMO_LUMO_gap": 0.20043, 
			 "cosmo_polarized_energy": -28.95, 
			 "cosmo_cavitation_energy": 29.49, 
			 "cosmo_dispersion_energy": -21.81, 
			 "cosmo_repulsion_energy": 1.67, 
			 "cosmo_total_nonelectrostatic_energy": 9.35, 
			 "SMD_solvation_energy": 6.08 
		},
		"coords": [
			{
				"x": 2.3221608485,
				"y": 0.395284374,
				"z": 2.3891769058,
				"element": "N" 
			},
			{
				"x": 2.1332835311,
				"y": 0.1695775535,
				"z": 0.7434260697,
				"element": "S" 
			},
			{
				"x": 1.9251552533,
				"y": 1.5008523796,
				"z": 0.1795877045,
				"element": "O" 
			},
			{
				"x": 3.2138477127,
				"y": -0.7244837446,
				"z": 0.339643938,
				"element": "O" 
			},
			{
				"x": 0.5891934158,
				"y": -0.7336016804,
				"z": 0.5048108739,
				"element": "C" 
			},
			{
				"x": -0.5694343472,
				"y": -0.0333779043,
				"z": 0.1769949452,
				"element": "C" 
			},
			{
				"x": -1.7763574671,
				"y": -0.7191521092,
				"z": -0.0135447031,
				"element": "C" 
			},
			{
				"x": -3.0264712507,
				"y": -0.0002798521,
				"z": -0.4507608977,
				"element": "C" 
			},
			{
				"x": -3.1782203923,
				"y": 1.257371739,
				"z": 0.0400905401,
				"element": "O" 
			},
			{
				"x": -3.8380375233,
				"y": -0.4694948003,
				"z": -1.2048484603,
				"element": "O" 
			},
			{
				"x": -1.783152557,
				"y": -2.1136565843,
				"z": 0.1322154309,
				"element": "C" 
			},
			{
				"x": -2.9121606914,
				"y": -2.7958829772,
				"z": -0.0203659947,
				"element": "F" 
			},
			{
				"x": -0.6141388579,
				"y": -2.8122048479,
				"z": 0.4597288085,
				"element": "C" 
			},
			{
				"x": -0.6736274892,
				"y": -4.5415624292,
				"z": 0.629985779,
				"element": "Cl" 
			},
			{
				"x": 0.5823755336,
				"y": -2.1227978251,
				"z": 0.6369403851,
				"element": "C" 
			},
			{
				"x": 2.5012352786,
				"y": -0.4545732325,
				"z": 2.9122576415,
				"element": "H" 
			},
			{
				"x": 1.6406468062,
				"y": 1.0167166191,
				"z": 2.8098474407,
				"element": "H" 
			},
			{
				"x": -0.5053042167,
				"y": 1.037986345,
				"z": 0.0137310063,
				"element": "H" 
			},
			{
				"x": -2.5296956938,
				"y": 1.435670996,
				"z": 0.7352967882,
				"element": "H" 
			},
			{
				"x": 1.4968021069,
				"y": -2.6651920189,
				"z": 0.8496857984,
				"element": "H" 
			}
		],
		 "valence_orbital": [ 
			{
				"type": "occ",
				"energy": -0.32874,
				"method": "rhf"
			},
			{
				"type": "occ",
				"energy": -0.32786,
				"method": "rhf"
			},
			{
				"type": "occ",
				"energy": -0.30407,
				"method": "rhf"
			},
			{
				"type": "occ",
				"energy": -0.29121,
				"method": "rhf"
			},
			{
				"type": "occ",
				"energy": -0.28449,
				"method": "rhf"
			},
			{
				"type": "unocc",
				"energy": -0.08406,
				"method": "rhf"
			},
			{
				"type": "unocc",
				"energy": -0.06784,
				"method": "rhf"
			},
			{
				"type": "unocc",
				"energy": -0.00948,
				"method": "rhf"
			},
			{
				"type": "unocc",
				"energy": 0.0041,
				"method": "rhf"
			},
			{
				"type": "unocc",
				"energy": 0.03204,
				"method": "rhf"
			}
		],
		"cosmo_sigma_profile": { 
			"-0.025": 0.0,
			"-0.024": 0.0,
			"-0.023": 0.0,
			"-0.022": 0.0,
			"-0.021": 0.0,
			"-0.02": 0.10417453736,
			"-0.019": 1.23521342369,
			"-0.018": 0.928962800309,
			"-0.017": 1.03780937738,
			"-0.016": 2.36356865198,
			"-0.015": 3.79856825131,
			"-0.014": 4.51060462718,
			"-0.013": 4.11625313214,
			"-0.012": 3.88390034302,
			"-0.011": 4.01967108516,
			"-0.01": 3.68101745435,
			"-0.009": 5.43926306661,
			"-0.008": 5.01389874219,
			"-0.007": 5.98403158917,
			"-0.006": 5.2179039996,
			"-0.005": 5.41856875555,
			"-0.004": 11.0390575548,
			"-0.003": 15.477987518,
			"-0.002": 17.0122559137,
			"-0.001": 11.4000494681,
			"0.0": 8.459296769,
			"0.001": 10.3468345053,
			"0.002": 15.0806902362,
			"0.003": 18.646641633,
			"0.004": 7.09315463199,
			"0.005": 5.32824742284,
			"0.006": 6.56769293073,
			"0.007": 8.08120702124,
			"0.008": 7.04810586829,
			"0.009": 10.4794345847,
			"0.01": 14.54911364,
			"0.011": 13.4327281731,
			"0.012": 2.28078144244,
			"0.013": 0.0408033776309,
			"0.014": 0.0,
			"0.015": 0.0,
			"0.016": 0.0,
			"0.017": 0.0,
			"0.018": 0.0,
			"0.019": 0.0,
			"0.02": 0.0,
			"0.021": 0.0,
			"0.022": 0.0,
			"0.023": 0.0,
			"0.024": 0.0,
			"0.025": 0.0
		}
	}
}
