{
	 "smiles": "CC(C)(CC(O)=O)C1=CC=CC=C1", 
	 "Tm": 333.15, 
	 "num_atms": 27, 
	 "gaussian": { 
		 "optdone": 1, 
		 "sigma_profile": "yes", 
		 "theory": "DFT", 
		 "functional": "B3LYP", 
		 "basiset": "6-31G**", 
		 "properties": { 
			 "R2extent": 3354.9599, 
			 "electric_dipole_moment_norm": 4.12402781998, 
			 "electric_quadrupole_moment_norm": 10.6251103138, 
			 "total_energy": -578.069712421, 
			 "HOMO_LUMO_gap": 0.2396, 
			 "cosmo_polarized_energy": -14.79, 
			 "cosmo_cavitation_energy": 28.81, 
			 "cosmo_dispersion_energy": -20.52, 
			 "cosmo_repulsion_energy": 1.6, 
			 "cosmo_total_nonelectrostatic_energy": 9.89, 
			 "SMD_solvation_energy": 5.96 
		},
		"coords": [
			{
				"x": -0.3226996717,
				"y": -1.2898809307,
				"z": 0.1456719731,
				"element": "C" 
			},
			{
				"x": -0.6631672077,
				"y": 0.2039510729,
				"z": -0.0715948332,
				"element": "C" 
			},
			{
				"x": -0.632560282,
				"y": 0.5293148846,
				"z": -1.5848484512,
				"element": "C" 
			},
			{
				"x": 0.397025851,
				"y": 1.0815294975,
				"z": 0.6637530223,
				"element": "C" 
			},
			{
				"x": 1.8251442313,
				"y": 0.8721789576,
				"z": 0.1756913967,
				"element": "C" 
			},
			{
				"x": 2.249426774,
				"y": 1.6960751627,
				"z": -0.8248320436,
				"element": "O" 
			},
			{
				"x": 2.5729400487,
				"y": 0.032325187,
				"z": 0.6119602935,
				"element": "O" 
			},
			{
				"x": -2.0758521635,
				"y": 0.4874645161,
				"z": 0.4824681417,
				"element": "C" 
			},
			{
				"x": -2.3309700133,
				"y": 1.3734080947,
				"z": 1.5385090357,
				"element": "C" 
			},
			{
				"x": -3.6297083732,
				"y": 1.5901148966,
				"z": 2.0092672762,
				"element": "C" 
			},
			{
				"x": -4.7090490312,
				"y": 0.9236049386,
				"z": 1.4351284156,
				"element": "C" 
			},
			{
				"x": -4.4753286816,
				"y": 0.0337911136,
				"z": 0.3845700892,
				"element": "C" 
			},
			{
				"x": -3.1794651101,
				"y": -0.1784773912,
				"z": -0.080451773,
				"element": "C" 
			},
			{
				"x": -0.3622842053,
				"y": -1.5463148904,
				"z": 1.2086440586,
				"element": "H" 
			},
			{
				"x": 0.6814383524,
				"y": -1.5227520366,
				"z": -0.2173442401,
				"element": "H" 
			},
			{
				"x": -1.035050917,
				"y": -1.9310970569,
				"z": -0.3805592182,
				"element": "H" 
			},
			{
				"x": -1.3703317997,
				"y": -0.0618677768,
				"z": -2.1323501052,
				"element": "H" 
			},
			{
				"x": 0.3479275761,
				"y": 0.3095640121,
				"z": -2.0183788205,
				"element": "H" 
			},
			{
				"x": -0.8672243389,
				"y": 1.5852874341,
				"z": -1.7667144605,
				"element": "H" 
			},
			{
				"x": 0.4014393454,
				"y": 0.8320825221,
				"z": 1.7276597145,
				"element": "H" 
			},
			{
				"x": 0.1229706737,
				"y": 2.1395836987,
				"z": 0.569294599,
				"element": "H" 
			},
			{
				"x": 1.5438809942,
				"y": 2.3085968845,
				"z": -1.0737189089,
				"element": "H" 
			},
			{
				"x": -1.5203869045,
				"y": 1.9097865005,
				"z": 2.0182916281,
				"element": "H" 
			},
			{
				"x": -3.7901396621,
				"y": 2.2837929923,
				"z": 2.8299359902,
				"element": "H" 
			},
			{
				"x": -5.7180358915,
				"y": 1.0914899609,
				"z": 1.8001559655,
				"element": "H" 
			},
			{
				"x": -5.3037815462,
				"y": -0.4983179759,
				"z": -0.0747313457,
				"element": "H" 
			},
			{
				"x": -3.0287580475,
				"y": -0.8797342687,
				"z": -0.8957773997,
				"element": "H" 
			}
		],
		 "valence_orbital": [ 
			{
				"type": "occ",
				"energy": -0.32843,
				"method": "rhf"
			},
			{
				"type": "occ",
				"energy": -0.31179,
				"method": "rhf"
			},
			{
				"type": "occ",
				"energy": -0.26839,
				"method": "rhf"
			},
			{
				"type": "occ",
				"energy": -0.25469,
				"method": "rhf"
			},
			{
				"type": "occ",
				"energy": -0.24793,
				"method": "rhf"
			},
			{
				"type": "unocc",
				"energy": -0.00833,
				"method": "rhf"
			},
			{
				"type": "unocc",
				"energy": -0.00501,
				"method": "rhf"
			},
			{
				"type": "unocc",
				"energy": 0.00477,
				"method": "rhf"
			},
			{
				"type": "unocc",
				"energy": 0.0483,
				"method": "rhf"
			},
			{
				"type": "unocc",
				"energy": 0.08555,
				"method": "rhf"
			}
		],
		"cosmo_sigma_profile": { 
			"-0.025": 0.0,
			"-0.024": 0.0,
			"-0.023": 0.0,
			"-0.022": 0.0,
			"-0.021": 0.0,
			"-0.02": 0.0,
			"-0.019": 0.0,
			"-0.018": 0.36093082375,
			"-0.017": 1.28180468839,
			"-0.016": 0.841953633044,
			"-0.015": 0.920524428325,
			"-0.014": 1.35142900531,
			"-0.013": 0.991804615742,
			"-0.012": 1.3464546011,
			"-0.011": 0.942600916254,
			"-0.01": 1.26182813971,
			"-0.009": 0.920376481649,
			"-0.008": 1.4447734926,
			"-0.007": 1.47762437747,
			"-0.006": 10.0205918041,
			"-0.005": 16.6365885221,
			"-0.004": 20.4351239038,
			"-0.003": 21.7815028415,
			"-0.002": 16.7500305618,
			"-0.001": 16.6124978945,
			"0.0": 18.4329904204,
			"0.001": 16.0259165484,
			"0.002": 8.8322766775,
			"0.003": 9.85511367636,
			"0.004": 9.91708302859,
			"0.005": 10.0860494253,
			"0.006": 10.4705030172,
			"0.007": 3.78175399807,
			"0.008": 2.82921256701,
			"0.009": 3.67365914649,
			"0.01": 3.76860070569,
			"0.011": 5.24500049407,
			"0.012": 5.40474473563,
			"0.013": 2.65465564137,
			"0.014": 0.117656616825,
			"0.015": 0.0,
			"0.016": 0.0,
			"0.017": 0.0,
			"0.018": 0.0,
			"0.019": 0.0,
			"0.02": 0.0,
			"0.021": 0.0,
			"0.022": 0.0,
			"0.023": 0.0,
			"0.024": 0.0,
			"0.025": 0.0
		}
	}
}
