{
	 "smiles": "CC1=C(C(O)=O)C2=C(O1)N=CNC2=O", 
	 "Tm": 423.15, 
	 "num_atms": 20, 
	 "gaussian": { 
		 "optdone": 1, 
		 "sigma_profile": "yes", 
		 "theory": "DFT", 
		 "functional": "B3LYP", 
		 "basiset": "6-31G**", 
		 "properties": { 
			 "R2extent": 3144.0651, 
			 "electric_dipole_moment_norm": 6.37006081761, 
			 "electric_quadrupole_moment_norm": 14.6882862527, 
			 "total_energy": -718.89728007, 
			 "HOMO_LUMO_gap": 0.17969, 
			 "cosmo_polarized_energy": -20.36, 
			 "cosmo_cavitation_energy": 24.9, 
			 "cosmo_dispersion_energy": -19.03, 
			 "cosmo_repulsion_energy": 1.46, 
			 "cosmo_total_nonelectrostatic_energy": 7.32, 
			 "SMD_solvation_energy": 5.07 
		},
		"coords": [
			{
				"x": 1.6261890023,
				"y": -2.7235729038,
				"z": 2.060049889,
				"element": "C" 
			},
			{
				"x": 0.4112920879,
				"y": -2.0657704456,
				"z": 1.5134336497,
				"element": "C" 
			},
			{
				"x": 0.2248214121,
				"y": -1.055042448,
				"z": 0.6004353766,
				"element": "C" 
			},
			{
				"x": 1.3300486985,
				"y": -0.3436260226,
				"z": -0.0960225686,
				"element": "C" 
			},
			{
				"x": 0.9909454613,
				"y": 0.6203946362,
				"z": -0.9600759783,
				"element": "O" 
			},
			{
				"x": 2.4934366019,
				"y": -0.629711916,
				"z": 0.1144455128,
				"element": "O" 
			},
			{
				"x": -1.1999762753,
				"y": -0.8850365678,
				"z": 0.5072793719,
				"element": "C" 
			},
			{
				"x": -1.7695949523,
				"y": -1.8045906143,
				"z": 1.3699770581,
				"element": "C" 
			},
			{
				"x": -0.7997121593,
				"y": -2.5246549088,
				"z": 1.9841463759,
				"element": "O" 
			},
			{
				"x": -3.0775592048,
				"y": -2.0191845717,
				"z": 1.6221829751,
				"element": "N" 
			},
			{
				"x": -3.8597733302,
				"y": -1.2320503573,
				"z": 0.9386821608,
				"element": "C" 
			},
			{
				"x": -3.4176302142,
				"y": -0.2826157203,
				"z": 0.0542843545,
				"element": "N" 
			},
			{
				"x": -2.0659283262,
				"y": -0.0232434848,
				"z": -0.2406557421,
				"element": "C" 
			},
			{
				"x": -1.7482655754,
				"y": 0.8529068165,
				"z": -1.0529275386,
				"element": "O" 
			},
			{
				"x": 2.2175239764,
				"y": -3.1652177479,
				"z": 1.2531422379,
				"element": "H" 
			},
			{
				"x": 2.2732395296,
				"y": -1.988136657,
				"z": 2.5461582542,
				"element": "H" 
			},
			{
				"x": 1.3423017858,
				"y": -3.4968922112,
				"z": 2.7763151086,
				"element": "H" 
			},
			{
				"x": 0.014992929,
				"y": 0.7577207184,
				"z": -1.0430458362,
				"element": "H" 
			},
			{
				"x": -4.936892112,
				"y": -1.3073749437,
				"z": 1.0539643418,
				"element": "H" 
			},
			{
				"x": -4.0879593352,
				"y": 0.2936993497,
				"z": -0.4419690033,
				"element": "H" 
			}
		],
		 "valence_orbital": [ 
			{
				"type": "occ",
				"energy": -0.31125,
				"method": "rhf"
			},
			{
				"type": "occ",
				"energy": -0.30225,
				"method": "rhf"
			},
			{
				"type": "occ",
				"energy": -0.2928,
				"method": "rhf"
			},
			{
				"type": "occ",
				"energy": -0.26193,
				"method": "rhf"
			},
			{
				"type": "occ",
				"energy": -0.24144,
				"method": "rhf"
			},
			{
				"type": "unocc",
				"energy": -0.06175,
				"method": "rhf"
			},
			{
				"type": "unocc",
				"energy": -0.04492,
				"method": "rhf"
			},
			{
				"type": "unocc",
				"energy": -0.01817,
				"method": "rhf"
			},
			{
				"type": "unocc",
				"energy": 0.04796,
				"method": "rhf"
			},
			{
				"type": "unocc",
				"energy": 0.07631,
				"method": "rhf"
			}
		],
		"cosmo_sigma_profile": { 
			"-0.025": 0.0,
			"-0.024": 0.0,
			"-0.023": 0.0,
			"-0.022": 0.0,
			"-0.021": 0.0,
			"-0.02": 0.0,
			"-0.019": 0.0265886940325,
			"-0.018": 1.36394688764,
			"-0.017": 1.66411588261,
			"-0.016": 1.43001600918,
			"-0.015": 1.22466072768,
			"-0.014": 1.14805957489,
			"-0.013": 1.42700713901,
			"-0.012": 1.84707031941,
			"-0.011": 2.65189776629,
			"-0.01": 2.61015822546,
			"-0.009": 2.16708212493,
			"-0.008": 1.90664053402,
			"-0.007": 3.15143191846,
			"-0.006": 8.08878586832,
			"-0.005": 11.0431287635,
			"-0.004": 16.6639182093,
			"-0.003": 22.2716890017,
			"-0.002": 19.7840050204,
			"-0.001": 14.8027285845,
			"0.0": 8.39794128452,
			"0.001": 5.16709520478,
			"0.002": 5.10217469188,
			"0.003": 6.98616718814,
			"0.004": 5.26134850709,
			"0.005": 6.0262331935,
			"0.006": 6.33812970129,
			"0.007": 5.0461010942,
			"0.008": 5.74915726718,
			"0.009": 5.43954886659,
			"0.01": 5.36427882692,
			"0.011": 7.57167950201,
			"0.012": 7.74597758624,
			"0.013": 3.82938762243,
			"0.014": 1.21184190486,
			"0.015": 0.0,
			"0.016": 0.0,
			"0.017": 0.0,
			"0.018": 0.0,
			"0.019": 0.0,
			"0.02": 0.0,
			"0.021": 0.0,
			"0.022": 0.0,
			"0.023": 0.0,
			"0.024": 0.0,
			"0.025": 0.0
		}
	}
}
