{
	 "smiles": "COC1=CC=C(C=C1Br)C#N", 
	 "Tm": 395.15, 
	 "num_atms": 17, 
	 "gaussian": { 
		 "optdone": 1, 
		 "sigma_profile": "yes", 
		 "theory": "DFT", 
		 "functional": "B3LYP", 
		 "basiset": "6-31G**", 
		 "properties": { 
			 "R2extent": 4712.7478, 
			 "electric_dipole_moment_norm": 5.70556621029, 
			 "electric_quadrupole_moment_norm": 6.98845121397, 
			 "total_energy": -3009.81469047, 
			 "HOMO_LUMO_gap": 0.1942, 
			 "cosmo_polarized_energy": -11.45, 
			 "cosmo_cavitation_energy": 24.85, 
			 "cosmo_dispersion_energy": -18.11, 
			 "cosmo_repulsion_energy": 1.46, 
			 "cosmo_total_nonelectrostatic_energy": 8.21, 
			 "SMD_solvation_energy": 5.47 
		},
		"coords": [
			{
				"x": -2.8810542831,
				"y": -0.3733037969,
				"z": 1.9475704479,
				"element": "C" 
			},
			{
				"x": -1.7542897709,
				"y": -1.1881917563,
				"z": 2.252873015,
				"element": "O" 
			},
			{
				"x": -0.6850706598,
				"y": -1.1579159546,
				"z": 1.4302271304,
				"element": "C" 
			},
			{
				"x": -0.5959414399,
				"y": -0.3690243602,
				"z": 0.2730895548,
				"element": "C" 
			},
			{
				"x": 0.5462877781,
				"y": -0.3983154784,
				"z": -0.5204965972,
				"element": "C" 
			},
			{
				"x": 1.6282133885,
				"y": -1.2192471649,
				"z": -0.1741944895,
				"element": "C" 
			},
			{
				"x": 1.5486447793,
				"y": -2.0139859451,
				"z": 0.9841266686,
				"element": "C" 
			},
			{
				"x": 0.4093158192,
				"y": -1.9815350724,
				"z": 1.7712480885,
				"element": "C" 
			},
			{
				"x": 0.3217227947,
				"y": -3.0631870081,
				"z": 3.3328047034,
				"element": "Br" 
			},
			{
				"x": 2.8057933591,
				"y": -1.2527828142,
				"z": -0.9877889023,
				"element": "C" 
			},
			{
				"x": 3.7612695295,
				"y": -1.2774412487,
				"z": -1.6514790364,
				"element": "N" 
			},
			{
				"x": -3.3207233779,
				"y": -0.6441864502,
				"z": 0.9803215788,
				"element": "H" 
			},
			{
				"x": -3.6044730524,
				"y": -0.5643449779,
				"z": 2.7402122859,
				"element": "H" 
			},
			{
				"x": -2.6165651937,
				"y": 0.6907876424,
				"z": 1.9447349887,
				"element": "H" 
			},
			{
				"x": -1.4209414651,
				"y": 0.2720096788,
				"z": -0.0118288886,
				"element": "H" 
			},
			{
				"x": 0.60169764,
				"y": 0.21660078,
				"z": -1.4121694018,
				"element": "H" 
			},
			{
				"x": 2.3775141543,
				"y": -2.6531360735,
				"z": 1.2636488537,
				"element": "H" 
			}
		],
		 "valence_orbital": [ 
			{
				"type": "occ",
				"energy": -0.33097,
				"method": "rhf"
			},
			{
				"type": "occ",
				"energy": -0.32012,
				"method": "rhf"
			},
			{
				"type": "occ",
				"energy": -0.29331,
				"method": "rhf"
			},
			{
				"type": "occ",
				"energy": -0.2687,
				"method": "rhf"
			},
			{
				"type": "occ",
				"energy": -0.24241,
				"method": "rhf"
			},
			{
				"type": "unocc",
				"energy": -0.04821,
				"method": "rhf"
			},
			{
				"type": "unocc",
				"energy": -0.03458,
				"method": "rhf"
			},
			{
				"type": "unocc",
				"energy": -0.00525,
				"method": "rhf"
			},
			{
				"type": "unocc",
				"energy": 0.03728,
				"method": "rhf"
			},
			{
				"type": "unocc",
				"energy": 0.07681,
				"method": "rhf"
			}
		],
		"cosmo_sigma_profile": { 
			"-0.025": 0.0,
			"-0.024": 0.0,
			"-0.023": 0.0,
			"-0.022": 0.0,
			"-0.021": 0.0,
			"-0.02": 0.0,
			"-0.019": 0.0,
			"-0.018": 0.0,
			"-0.017": 0.0,
			"-0.016": 0.0,
			"-0.015": 0.0,
			"-0.014": 0.0,
			"-0.013": 0.0,
			"-0.012": 0.0,
			"-0.011": 0.0,
			"-0.01": 0.0,
			"-0.009": 1.51262424639,
			"-0.008": 6.71038613194,
			"-0.007": 10.7710652593,
			"-0.006": 14.4895434459,
			"-0.005": 12.8534155139,
			"-0.004": 14.0381839231,
			"-0.003": 11.476914994,
			"-0.002": 10.6037037123,
			"-0.001": 12.8607148657,
			"0.0": 20.3538683043,
			"0.001": 18.8031772126,
			"0.002": 11.7810509985,
			"0.003": 9.47515113045,
			"0.004": 11.9210475279,
			"0.005": 6.00126723641,
			"0.006": 5.01115069895,
			"0.007": 4.45146786876,
			"0.008": 4.68158474255,
			"0.009": 5.31746580659,
			"0.01": 3.56838620465,
			"0.011": 2.7071388091,
			"0.012": 2.65917069209,
			"0.013": 1.6892655999,
			"0.014": 0.120474482738,
			"0.015": 0.0,
			"0.016": 0.0,
			"0.017": 0.0,
			"0.018": 0.0,
			"0.019": 0.0,
			"0.02": 0.0,
			"0.021": 0.0,
			"0.022": 0.0,
			"0.023": 0.0,
			"0.024": 0.0,
			"0.025": 0.0
		}
	}
}
