{
	 "smiles": "CCOC1=C(OCC(=O)NN)C=CC=C1", 
	 "Tm": 368.15, 
	 "num_atms": 29, 
	 "gaussian": { 
		 "optdone": 1, 
		 "sigma_profile": "yes", 
		 "theory": "DFT", 
		 "functional": "B3LYP", 
		 "basiset": "6-31G**", 
		 "properties": { 
			 "R2extent": 3893.5572, 
			 "electric_dipole_moment_norm": 2.49189320798, 
			 "electric_quadrupole_moment_norm": 11.8228794792, 
			 "total_energy": -724.63763454, 
			 "HOMO_LUMO_gap": 0.21735, 
			 "cosmo_polarized_energy": -12.95, 
			 "cosmo_cavitation_energy": 32.29, 
			 "cosmo_dispersion_energy": -22.46, 
			 "cosmo_repulsion_energy": 1.76, 
			 "cosmo_total_nonelectrostatic_energy": 11.59, 
			 "SMD_solvation_energy": 6.82 
		},
		"coords": [
			{
				"x": -0.1045358855,
				"y": 0.483126824,
				"z": -3.0902596257,
				"element": "C" 
			},
			{
				"x": 0.4719703534,
				"y": -0.3120845826,
				"z": -1.9317405944,
				"element": "C" 
			},
			{
				"x": -0.3913906471,
				"y": -0.1185364779,
				"z": -0.8073170931,
				"element": "O" 
			},
			{
				"x": -0.073256599,
				"y": -0.7017324758,
				"z": 0.3843111461,
				"element": "C" 
			},
			{
				"x": -0.9737866465,
				"y": -0.4504467863,
				"z": 1.4431398291,
				"element": "C" 
			},
			{
				"x": -2.1155111535,
				"y": 0.2990487459,
				"z": 1.2385885919,
				"element": "O" 
			},
			{
				"x": -1.9410996649,
				"y": 1.6764396749,
				"z": 0.8809348907,
				"element": "C" 
			},
			{
				"x": -2.5661006617,
				"y": 2.0346819026,
				"z": -0.4635166837,
				"element": "C" 
			},
			{
				"x": -2.4307423758,
				"y": 3.1589599187,
				"z": -0.9386629839,
				"element": "O" 
			},
			{
				"x": -3.2845301633,
				"y": 1.0473296411,
				"z": -1.0616590108,
				"element": "N" 
			},
			{
				"x": -3.6887807327,
				"y": 1.2054370218,
				"z": -2.4103583534,
				"element": "N" 
			},
			{
				"x": -0.7582534703,
				"y": -1.0202394506,
				"z": 2.6926422678,
				"element": "C" 
			},
			{
				"x": 0.3520950685,
				"y": -1.8405499685,
				"z": 2.9150683628,
				"element": "C" 
			},
			{
				"x": 1.2491287677,
				"y": -2.0775070431,
				"z": 1.8771766759,
				"element": "C" 
			},
			{
				"x": 1.0416740058,
				"y": -1.5127313257,
				"z": 0.6138581188,
				"element": "C" 
			},
			{
				"x": -0.1354878759,
				"y": 1.5489828725,
				"z": -2.8462524126,
				"element": "H" 
			},
			{
				"x": 0.5167900451,
				"y": 0.3482352998,
				"z": -3.9809727486,
				"element": "H" 
			},
			{
				"x": -1.1221335057,
				"y": 0.1540276105,
				"z": -3.3188951156,
				"element": "H" 
			},
			{
				"x": 1.4854619432,
				"y": 0.0313262255,
				"z": -1.6827432428,
				"element": "H" 
			},
			{
				"x": 0.5270889949,
				"y": -1.3827781595,
				"z": -2.1726189171,
				"element": "H" 
			},
			{
				"x": -0.8842965325,
				"y": 1.9517092563,
				"z": 0.840145228,
				"element": "H" 
			},
			{
				"x": -2.4228389972,
				"y": 2.2930696091,
				"z": 1.6490262847,
				"element": "H" 
			},
			{
				"x": -3.0765923961,
				"y": 0.0986475746,
				"z": -0.7807959518,
				"element": "H" 
			},
			{
				"x": -4.6587558891,
				"y": 1.5215315012,
				"z": -2.3991873168,
				"element": "H" 
			},
			{
				"x": -3.1522747472,
				"y": 2.0023225798,
				"z": -2.7601369767,
				"element": "H" 
			},
			{
				"x": -1.477803996,
				"y": -0.8137753768,
				"z": 3.4784997606,
				"element": "H" 
			},
			{
				"x": 0.5121148784,
				"y": -2.2820998256,
				"z": 3.8935365958,
				"element": "H" 
			},
			{
				"x": 2.1178944672,
				"y": -2.7087769299,
				"z": 2.0381449486,
				"element": "H" 
			},
			{
				"x": 1.7429534159,
				"y": -1.7166178563,
				"z": -0.1866556738,
				"element": "H" 
			}
		],
		 "valence_orbital": [ 
			{
				"type": "occ",
				"energy": -0.29501,
				"method": "rhf"
			},
			{
				"type": "occ",
				"energy": -0.25,
				"method": "rhf"
			},
			{
				"type": "occ",
				"energy": -0.24464,
				"method": "rhf"
			},
			{
				"type": "occ",
				"energy": -0.23642,
				"method": "rhf"
			},
			{
				"type": "occ",
				"energy": -0.22075,
				"method": "rhf"
			},
			{
				"type": "unocc",
				"energy": -0.0034,
				"method": "rhf"
			},
			{
				"type": "unocc",
				"energy": 0.00634,
				"method": "rhf"
			},
			{
				"type": "unocc",
				"energy": 0.03055,
				"method": "rhf"
			},
			{
				"type": "unocc",
				"energy": 0.07464,
				"method": "rhf"
			},
			{
				"type": "unocc",
				"energy": 0.08365,
				"method": "rhf"
			}
		],
		"cosmo_sigma_profile": { 
			"-0.025": 0.0,
			"-0.024": 0.0,
			"-0.023": 0.0,
			"-0.022": 0.0,
			"-0.021": 0.0,
			"-0.02": 0.0,
			"-0.019": 0.0,
			"-0.018": 0.0,
			"-0.017": 0.0,
			"-0.016": 0.0,
			"-0.015": 0.0,
			"-0.014": 0.0,
			"-0.013": 0.0,
			"-0.012": 0.623417070547,
			"-0.011": 2.3401283554,
			"-0.01": 2.3737128903,
			"-0.009": 2.69480207581,
			"-0.008": 1.52071370539,
			"-0.007": 5.95099234081,
			"-0.006": 12.119842072,
			"-0.005": 19.411759405,
			"-0.004": 23.8431770809,
			"-0.003": 22.0008083031,
			"-0.002": 19.0546004886,
			"-0.001": 20.2687888044,
			"0.0": 18.787051341,
			"0.001": 16.5521708507,
			"0.002": 15.8370634656,
			"0.003": 14.9865849074,
			"0.004": 11.527013843,
			"0.005": 13.0365139903,
			"0.006": 6.95123103262,
			"0.007": 2.37162259848,
			"0.008": 2.61916363183,
			"0.009": 2.84603523358,
			"0.01": 2.58412354128,
			"0.011": 1.71993962501,
			"0.012": 2.87092523248,
			"0.013": 4.76023312505,
			"0.014": 3.50985163315,
			"0.015": 1.04904355419,
			"0.016": 0.370525150027,
			"0.017": 0.0,
			"0.018": 0.0,
			"0.019": 0.0,
			"0.02": 0.0,
			"0.021": 0.0,
			"0.022": 0.0,
			"0.023": 0.0,
			"0.024": 0.0,
			"0.025": 0.0
		}
	}
}
