{
	 "smiles": "COC(=O)C1=C(N)N=C(S1)N1CCOCC1", 
	 "Tm": 430.15, 
	 "num_atms": 29, 
	 "gaussian": { 
		 "optdone": 1, 
		 "sigma_profile": "yes", 
		 "theory": "DFT", 
		 "functional": "B3LYP", 
		 "basiset": "6-31G**", 
		 "properties": { 
			 "R2extent": 5425.6739, 
			 "electric_dipole_moment_norm": 2.37455955705, 
			 "electric_quadrupole_moment_norm": 10.9750448947, 
			 "total_energy": -1138.91169388, 
			 "HOMO_LUMO_gap": 0.16703, 
			 "cosmo_polarized_energy": -14.15, 
			 "cosmo_cavitation_energy": 33.13, 
			 "cosmo_dispersion_energy": -25.52, 
			 "cosmo_repulsion_energy": 1.97, 
			 "cosmo_total_nonelectrostatic_energy": 9.58, 
			 "SMD_solvation_energy": 4.62 
		},
		"coords": [
			{
				"x": 3.0702065613,
				"y": -1.403491018,
				"z": 3.771952797,
				"element": "C" 
			},
			{
				"x": 2.1027329757,
				"y": -1.2274830816,
				"z": 2.7306221723,
				"element": "O" 
			},
			{
				"x": 1.3855886515,
				"y": -0.0718914252,
				"z": 2.792603107,
				"element": "C" 
			},
			{
				"x": 1.5544512919,
				"y": 0.7643778426,
				"z": 3.6822813224,
				"element": "O" 
			},
			{
				"x": 0.4388123347,
				"y": 0.0589811884,
				"z": 1.7262587291,
				"element": "C" 
			},
			{
				"x": -0.4075734606,
				"y": 1.1524588625,
				"z": 1.5379375718,
				"element": "C" 
			},
			{
				"x": -0.5022777835,
				"y": 2.1997506897,
				"z": 2.3930271743,
				"element": "N" 
			},
			{
				"x": -1.2013829788,
				"y": 1.1249314519,
				"z": 0.4226596134,
				"element": "N" 
			},
			{
				"x": -0.9903780114,
				"y": 0.0267107033,
				"z": -0.2707462732,
				"element": "C" 
			},
			{
				"x": 0.1933349217,
				"y": -1.0978108763,
				"z": 0.4127652841,
				"element": "S" 
			},
			{
				"x": -1.6215837584,
				"y": -0.2332920962,
				"z": -1.4493350744,
				"element": "N" 
			},
			{
				"x": -2.7885506047,
				"y": 0.5740196463,
				"z": -1.8252550516,
				"element": "C" 
			},
			{
				"x": -2.9064922509,
				"y": 0.6200062963,
				"z": -3.3458266737,
				"element": "C" 
			},
			{
				"x": -2.9352967934,
				"y": -0.6887445256,
				"z": -3.9019714946,
				"element": "O" 
			},
			{
				"x": -1.7396583178,
				"y": -1.3890092879,
				"z": -3.5992933454,
				"element": "C" 
			},
			{
				"x": -1.5473847439,
				"y": -1.5446913359,
				"z": -2.0892540031,
				"element": "C" 
			},
			{
				"x": 3.5417566858,
				"y": -2.3669386631,
				"z": 3.5754946844,
				"element": "H" 
			},
			{
				"x": 2.589790295,
				"y": -1.4076331145,
				"z": 4.7540872725,
				"element": "H" 
			},
			{
				"x": 3.8156312989,
				"y": -0.6037814434,
				"z": 3.7514910728,
				"element": "H" 
			},
			{
				"x": -0.9586587992,
				"y": 3.0352162926,
				"z": 2.065361349,
				"element": "H" 
			},
			{
				"x": 0.1960457724,
				"y": 2.2414695401,
				"z": 3.1258310029,
				"element": "H" 
			},
			{
				"x": -2.662887227,
				"y": 1.5729349041,
				"z": -1.4066599031,
				"element": "H" 
			},
			{
				"x": -3.7003481628,
				"y": 0.132189299,
				"z": -1.3955862807,
				"element": "H" 
			},
			{
				"x": -3.8417914934,
				"y": 1.1058772759,
				"z": -3.6370769805,
				"element": "H" 
			},
			{
				"x": -2.0650661887,
				"y": 1.1929035491,
				"z": -3.7679168926,
				"element": "H" 
			},
			{
				"x": -1.8195752714,
				"y": -2.372636966,
				"z": -4.0702548026,
				"element": "H" 
			},
			{
				"x": -0.8702244024,
				"y": -0.8629246027,
				"z": -4.0260107352,
				"element": "H" 
			},
			{
				"x": -0.5679760963,
				"y": -1.9916197226,
				"z": -1.8957483942,
				"element": "H" 
			},
			{
				"x": -2.3188444444,
				"y": -2.2156793831,
				"z": -1.6813372483,
				"element": "H" 
			}
		],
		 "valence_orbital": [ 
			{
				"type": "occ",
				"energy": -0.27912,
				"method": "rhf"
			},
			{
				"type": "occ",
				"energy": -0.27047,
				"method": "rhf"
			},
			{
				"type": "occ",
				"energy": -0.26167,
				"method": "rhf"
			},
			{
				"type": "occ",
				"energy": -0.24151,
				"method": "rhf"
			},
			{
				"type": "occ",
				"energy": -0.18848,
				"method": "rhf"
			},
			{
				"type": "unocc",
				"energy": -0.02145,
				"method": "rhf"
			},
			{
				"type": "unocc",
				"energy": 0.01755,
				"method": "rhf"
			},
			{
				"type": "unocc",
				"energy": 0.04123,
				"method": "rhf"
			},
			{
				"type": "unocc",
				"energy": 0.07769,
				"method": "rhf"
			},
			{
				"type": "unocc",
				"energy": 0.0999,
				"method": "rhf"
			}
		],
		"cosmo_sigma_profile": { 
			"-0.025": 0.0,
			"-0.024": 0.0,
			"-0.023": 0.0,
			"-0.022": 0.0,
			"-0.021": 0.0,
			"-0.02": 0.0,
			"-0.019": 0.0,
			"-0.018": 0.0,
			"-0.017": 0.0,
			"-0.016": 0.0,
			"-0.015": 0.0,
			"-0.014": 0.591206684221,
			"-0.013": 0.871548931004,
			"-0.012": 1.45143663545,
			"-0.011": 0.809391761863,
			"-0.01": 0.964063446032,
			"-0.009": 1.89709601167,
			"-0.008": 2.09721231231,
			"-0.007": 4.10424275093,
			"-0.006": 13.3539890412,
			"-0.005": 28.6009570179,
			"-0.004": 30.3543940581,
			"-0.003": 24.1633119221,
			"-0.002": 16.0602958442,
			"-0.001": 11.1677840692,
			"0.0": 12.3565939795,
			"0.001": 12.7583163284,
			"0.002": 17.1090172714,
			"0.003": 16.4074784079,
			"0.004": 16.2709755322,
			"0.005": 11.658030001,
			"0.006": 8.10752759586,
			"0.007": 7.18495734657,
			"0.008": 5.43548795307,
			"0.009": 4.76526767563,
			"0.01": 3.88124291302,
			"0.011": 3.0797644806,
			"0.012": 4.56848683504,
			"0.013": 3.13654424807,
			"0.014": 0.279907958544,
			"0.015": 0.0,
			"0.016": 0.0,
			"0.017": 0.0,
			"0.018": 0.0,
			"0.019": 0.0,
			"0.02": 0.0,
			"0.021": 0.0,
			"0.022": 0.0,
			"0.023": 0.0,
			"0.024": 0.0,
			"0.025": 0.0
		}
	}
}
