{
	 "smiles": "FC1=CC=C(C=C1)C1SCC(=O)N1C1CC1", 
	 "Tm": 499.15, 
	 "num_atms": 28, 
	 "gaussian": { 
		 "optdone": 1, 
		 "sigma_profile": "yes", 
		 "theory": "DFT", 
		 "functional": "B3LYP", 
		 "basiset": "6-31G**", 
		 "properties": { 
			 "R2extent": 4353.8664, 
			 "electric_dipole_moment_norm": 1.75466835043, 
			 "electric_quadrupole_moment_norm": 12.0815802104, 
			 "total_energy": -1092.47954582, 
			 "HOMO_LUMO_gap": 0.2082, 
			 "cosmo_polarized_energy": -11.46, 
			 "cosmo_cavitation_energy": 32.79, 
			 "cosmo_dispersion_energy": -23.17, 
			 "cosmo_repulsion_energy": 1.75, 
			 "cosmo_total_nonelectrostatic_energy": 11.37, 
			 "SMD_solvation_energy": 5.4 
		},
		"coords": [
			{
				"x": -3.0571452246,
				"y": -1.9023748103,
				"z": 3.3667950392,
				"element": "F" 
			},
			{
				"x": -2.0757061731,
				"y": -1.6822102498,
				"z": 2.4692762746,
				"element": "C" 
			},
			{
				"x": -0.9784684673,
				"y": -0.9108707263,
				"z": 2.847222061,
				"element": "C" 
			},
			{
				"x": 0.0353838204,
				"y": -0.6903738333,
				"z": 1.9201118484,
				"element": "C" 
			},
			{
				"x": -0.0485519154,
				"y": -1.2198168005,
				"z": 0.623640377,
				"element": "C" 
			},
			{
				"x": -1.1624416701,
				"y": -1.9913305829,
				"z": 0.2793610962,
				"element": "C" 
			},
			{
				"x": -2.185569863,
				"y": -2.2315139355,
				"z": 1.1991608367,
				"element": "C" 
			},
			{
				"x": 1.04758117,
				"y": -0.9874444016,
				"z": -0.3945633784,
				"element": "C" 
			},
			{
				"x": 2.6616394997,
				"y": -1.6907034844,
				"z": 0.2180213866,
				"element": "S" 
			},
			{
				"x": 3.6237231859,
				"y": -0.3008572238,
				"z": -0.4638992736,
				"element": "C" 
			},
			{
				"x": 2.6423250844,
				"y": 0.7861334367,
				"z": -0.900672022,
				"element": "C" 
			},
			{
				"x": 3.0128879318,
				"y": 1.842190044,
				"z": -1.3789635438,
				"element": "O" 
			},
			{
				"x": 1.3210531925,
				"y": 0.4216953556,
				"z": -0.6963719976,
				"element": "N" 
			},
			{
				"x": 0.2805445204,
				"y": 1.1815569336,
				"z": -1.3513284415,
				"element": "C" 
			},
			{
				"x": 0.1511671368,
				"y": 2.6520047868,
				"z": -1.0674570073,
				"element": "C" 
			},
			{
				"x": -0.9066606193,
				"y": 1.7047548102,
				"z": -0.5726655148,
				"element": "C" 
			},
			{
				"x": -0.9301653354,
				"y": -0.5065682123,
				"z": 3.8525194694,
				"element": "H" 
			},
			{
				"x": 0.9050970675,
				"y": -0.1046329541,
				"z": 2.200437897,
				"element": "H" 
			},
			{
				"x": -1.237191906,
				"y": -2.4111703285,
				"z": -0.720383866,
				"element": "H" 
			},
			{
				"x": -3.0538312825,
				"y": -2.829212925,
				"z": 0.9444674983,
				"element": "H" 
			},
			{
				"x": 0.7740918746,
				"y": -1.5085476518,
				"z": -1.3220700168,
				"element": "H" 
			},
			{
				"x": 4.3032932839,
				"y": 0.1060384294,
				"z": 0.2880568254,
				"element": "H" 
			},
			{
				"x": 4.2141824819,
				"y": -0.5960967357,
				"z": -1.3357931114,
				"element": "H" 
			},
			{
				"x": 0.0893309518,
				"y": 0.8614757806,
				"z": -2.3764696951,
				"element": "H" 
			},
			{
				"x": -0.0628164675,
				"y": 3.3013251899,
				"z": -1.9099099574,
				"element": "H" 
			},
			{
				"x": 0.8364229842,
				"y": 3.07379158,
				"z": -0.3423626154,
				"element": "H" 
			},
			{
				"x": -0.9431496836,
				"y": 1.4996242128,
				"z": 0.4903160561,
				"element": "H" 
			},
			{
				"x": -1.8718255777,
				"y": 1.6818342962,
				"z": -1.0693762248,
				"element": "H" 
			}
		],
		 "valence_orbital": [ 
			{
				"type": "occ",
				"energy": -0.27195,
				"method": "rhf"
			},
			{
				"type": "occ",
				"energy": -0.26346,
				"method": "rhf"
			},
			{
				"type": "occ",
				"energy": -0.2551,
				"method": "rhf"
			},
			{
				"type": "occ",
				"energy": -0.24715,
				"method": "rhf"
			},
			{
				"type": "occ",
				"energy": -0.23288,
				"method": "rhf"
			},
			{
				"type": "unocc",
				"energy": -0.02468,
				"method": "rhf"
			},
			{
				"type": "unocc",
				"energy": -0.01769,
				"method": "rhf"
			},
			{
				"type": "unocc",
				"energy": 0.00986,
				"method": "rhf"
			},
			{
				"type": "unocc",
				"energy": 0.01537,
				"method": "rhf"
			},
			{
				"type": "unocc",
				"energy": 0.06795,
				"method": "rhf"
			}
		],
		"cosmo_sigma_profile": { 
			"-0.025": 0.0,
			"-0.024": 0.0,
			"-0.023": 0.0,
			"-0.022": 0.0,
			"-0.021": 0.0,
			"-0.02": 0.0,
			"-0.019": 0.0,
			"-0.018": 0.0,
			"-0.017": 0.0,
			"-0.016": 0.0,
			"-0.015": 0.0,
			"-0.014": 0.0,
			"-0.013": 0.0,
			"-0.012": 0.0,
			"-0.011": 0.0,
			"-0.01": 0.0,
			"-0.009": 0.0,
			"-0.008": 1.9916223323,
			"-0.007": 13.2741832992,
			"-0.006": 16.4146475992,
			"-0.005": 21.3995198377,
			"-0.004": 21.3293887125,
			"-0.003": 17.5182825171,
			"-0.002": 17.9668336205,
			"-0.001": 17.5568308919,
			"0.0": 19.6790068518,
			"0.001": 21.7205373247,
			"0.002": 18.0893634355,
			"0.003": 19.5858685725,
			"0.004": 20.4040552335,
			"0.005": 8.17367060453,
			"0.006": 3.80910613789,
			"0.007": 4.31821875008,
			"0.008": 3.16963924323,
			"0.009": 2.81871615093,
			"0.01": 1.82611950791,
			"0.011": 1.88378223511,
			"0.012": 3.11959348891,
			"0.013": 5.38680313898,
			"0.014": 1.24566175206,
			"0.015": 0.0,
			"0.016": 0.0,
			"0.017": 0.0,
			"0.018": 0.0,
			"0.019": 0.0,
			"0.02": 0.0,
			"0.021": 0.0,
			"0.022": 0.0,
			"0.023": 0.0,
			"0.024": 0.0,
			"0.025": 0.0
		}
	}
}
