{
	 "smiles": "CC(C)(C)C1=CC=C(OC2=C(F)C=C(C=C2)C(O)=O)C=C1", 
	 "Tm": 445.15, 
	 "num_atms": 38, 
	 "gaussian": { 
		 "optdone": 1, 
		 "sigma_profile": "yes", 
		 "theory": "DFT", 
		 "functional": "B3LYP", 
		 "basiset": "6-31G**", 
		 "properties": { 
			 "R2extent": 12394.2029, 
			 "electric_dipole_moment_norm": 4.38673926396, 
			 "electric_quadrupole_moment_norm": 31.5571784795, 
			 "total_energy": -983.569391252, 
			 "HOMO_LUMO_gap": 0.16967, 
			 "cosmo_polarized_energy": -15.91, 
			 "cosmo_cavitation_energy": 41.7, 
			 "cosmo_dispersion_energy": -29.14, 
			 "cosmo_repulsion_energy": 2.19, 
			 "cosmo_total_nonelectrostatic_energy": 14.75, 
			 "SMD_solvation_energy": 8.97 
		},
		"coords": [
			{
				"x": -0.1031925095,
				"y": -3.3567940705,
				"z": -0.5104392665,
				"element": "C" 
			},
			{
				"x": 0.5650305831,
				"y": -2.7244598376,
				"z": 0.7251207921,
				"element": "C" 
			},
			{
				"x": 0.3297269114,
				"y": -3.6623912477,
				"z": 1.9331450971,
				"element": "C" 
			},
			{
				"x": 2.0838667867,
				"y": -2.6166423279,
				"z": 0.4493455606,
				"element": "C" 
			},
			{
				"x": 0.0012904489,
				"y": -1.3273930703,
				"z": 1.0419661957,
				"element": "C" 
			},
			{
				"x": 0.4953501851,
				"y": -0.6018404636,
				"z": 2.1411756281,
				"element": "C" 
			},
			{
				"x": 0.0207734965,
				"y": 0.6656353907,
				"z": 2.4613427832,
				"element": "C" 
			},
			{
				"x": -0.977008082,
				"y": 1.2420628528,
				"z": 1.6760588804,
				"element": "C" 
			},
			{
				"x": -1.4461812563,
				"y": 2.4832742557,
				"z": 2.0941192625,
				"element": "O" 
			},
			{
				"x": -2.0396425144,
				"y": 3.3412779759,
				"z": 1.211672999,
				"element": "C" 
			},
			{
				"x": -1.4142086328,
				"y": 3.7572634532,
				"z": 0.0241338058,
				"element": "C" 
			},
			{
				"x": -0.2174704902,
				"y": 3.2357062986,
				"z": -0.2948428778,
				"element": "F" 
			},
			{
				"x": -2.0030646255,
				"y": 4.6856474078,
				"z": -0.814335521,
				"element": "C" 
			},
			{
				"x": -3.2332892357,
				"y": 5.2589925349,
				"z": -0.4619461562,
				"element": "C" 
			},
			{
				"x": -3.8642505409,
				"y": 4.8556305122,
				"z": 0.7228090409,
				"element": "C" 
			},
			{
				"x": -3.2734199216,
				"y": 3.9007031106,
				"z": 1.5481225353,
				"element": "C" 
			},
			{
				"x": -3.8199115745,
				"y": 6.2589769154,
				"z": -1.4111365578,
				"element": "C" 
			},
			{
				"x": -4.7740358634,
				"y": 7.0897916633,
				"z": -0.9122284723,
				"element": "O" 
			},
			{
				"x": -3.4847298101,
				"y": 6.3487858496,
				"z": -2.5686811533,
				"element": "O" 
			},
			{
				"x": -1.4992961163,
				"y": 0.5522026627,
				"z": 0.5871171214,
				"element": "C" 
			},
			{
				"x": -1.0031587359,
				"y": -0.7177647749,
				"z": 0.2797604722,
				"element": "C" 
			},
			{
				"x": -1.1808601208,
				"y": -3.4897129842,
				"z": -0.3683825407,
				"element": "H" 
			},
			{
				"x": 0.3282393415,
				"y": -4.34546776,
				"z": -0.6972435506,
				"element": "H" 
			},
			{
				"x": 0.0523596122,
				"y": -2.7543605778,
				"z": -1.4115063358,
				"element": "H" 
			},
			{
				"x": 0.8175750889,
				"y": -3.2904376492,
				"z": 2.8391320933,
				"element": "H" 
			},
			{
				"x": 0.7315509034,
				"y": -4.6605970525,
				"z": 1.7254708932,
				"element": "H" 
			},
			{
				"x": -0.739192447,
				"y": -3.764220335,
				"z": 2.1476397891,
				"element": "H" 
			},
			{
				"x": 2.6262015932,
				"y": -2.211263642,
				"z": 1.3088150675,
				"element": "H" 
			},
			{
				"x": 2.2808782745,
				"y": -1.9638727846,
				"z": -0.4073018312,
				"element": "H" 
			},
			{
				"x": 2.5028512014,
				"y": -3.6047895161,
				"z": 0.2278500008,
				"element": "H" 
			},
			{
				"x": 1.2741990521,
				"y": -1.0297786103,
				"z": 2.7652093074,
				"element": "H" 
			},
			{
				"x": 0.4119404385,
				"y": 1.2178391172,
				"z": 3.3094783554,
				"element": "H" 
			},
			{
				"x": -1.510181654,
				"y": 4.9811774208,
				"z": -1.7333327821,
				"element": "H" 
			},
			{
				"x": -4.8436225654,
				"y": 5.2405198906,
				"z": 0.9938998079,
				"element": "H" 
			},
			{
				"x": -3.7537439909,
				"y": 3.5684546563,
				"z": 2.4620454578,
				"element": "H" 
			},
			{
				"x": -4.8082113816,
				"y": 7.0207682977,
				"z": 0.0517415213,
				"element": "H" 
			},
			{
				"x": -2.287279316,
				"y": 0.9894952612,
				"z": -0.0171164986,
				"element": "H" 
			},
			{
				"x": -1.4260825328,
				"y": -1.2308188232,
				"z": -0.5760789241,
				"element": "H" 
			}
		],
		 "valence_orbital": [ 
			{
				"type": "occ",
				"energy": -0.28119,
				"method": "rhf"
			},
			{
				"type": "occ",
				"energy": -0.27242,
				"method": "rhf"
			},
			{
				"type": "occ",
				"energy": -0.26239,
				"method": "rhf"
			},
			{
				"type": "occ",
				"energy": -0.25581,
				"method": "rhf"
			},
			{
				"type": "occ",
				"energy": -0.22597,
				"method": "rhf"
			},
			{
				"type": "unocc",
				"energy": -0.0563,
				"method": "rhf"
			},
			{
				"type": "unocc",
				"energy": -0.02718,
				"method": "rhf"
			},
			{
				"type": "unocc",
				"energy": -0.00779,
				"method": "rhf"
			},
			{
				"type": "unocc",
				"energy": 0.00434,
				"method": "rhf"
			},
			{
				"type": "unocc",
				"energy": 0.04492,
				"method": "rhf"
			}
		],
		"cosmo_sigma_profile": { 
			"-0.025": 0.0,
			"-0.024": 0.0,
			"-0.023": 0.0,
			"-0.022": 0.0,
			"-0.021": 0.0,
			"-0.02": 0.0,
			"-0.019": 0.353254139352,
			"-0.018": 0.931370987914,
			"-0.017": 0.955588373587,
			"-0.016": 1.2446433513,
			"-0.015": 1.1607085537,
			"-0.014": 0.603868800896,
			"-0.013": 0.854603890367,
			"-0.012": 1.48548729912,
			"-0.011": 1.19222518413,
			"-0.01": 1.48095080801,
			"-0.009": 1.66789453687,
			"-0.008": 3.2864042464,
			"-0.007": 6.04695100119,
			"-0.006": 9.03394147992,
			"-0.005": 13.5478000559,
			"-0.004": 16.3665334492,
			"-0.003": 25.9306976497,
			"-0.002": 33.3870083845,
			"-0.001": 31.1710350925,
			"0.0": 33.0903403367,
			"0.001": 38.9230373177,
			"0.002": 24.9819378075,
			"0.003": 17.8063539124,
			"0.004": 16.8934646557,
			"0.005": 14.5045309232,
			"0.006": 6.99696098359,
			"0.007": 3.68959048872,
			"0.008": 3.87532470181,
			"0.009": 3.46239685388,
			"0.01": 4.64880284801,
			"0.011": 5.62242816727,
			"0.012": 4.09252212923,
			"0.013": 1.21723133444,
			"0.014": 0.0135260181096,
			"0.015": 0.0,
			"0.016": 0.0,
			"0.017": 0.0,
			"0.018": 0.0,
			"0.019": 0.0,
			"0.02": 0.0,
			"0.021": 0.0,
			"0.022": 0.0,
			"0.023": 0.0,
			"0.024": 0.0,
			"0.025": 0.0
		}
	}
}
