{
	 "smiles": "COC(OC)C(C)=O", 
	 "Tm": 216.15, 
	 "num_atms": 18, 
	 "gaussian": { 
		 "optdone": 1, 
		 "sigma_profile": "yes", 
		 "theory": "DFT", 
		 "functional": "B3LYP", 
		 "basiset": "6-31G**", 
		 "properties": { 
			 "R2extent": 1375.6783, 
			 "electric_dipole_moment_norm": 2.15794340982, 
			 "electric_quadrupole_moment_norm": 7.63602499472, 
			 "total_energy": -422.185746154, 
			 "HOMO_LUMO_gap": 0.20918, 
			 "cosmo_polarized_energy": -9.11, 
			 "cosmo_cavitation_energy": 20.65, 
			 "cosmo_dispersion_energy": -15.08, 
			 "cosmo_repulsion_energy": 1.26, 
			 "cosmo_total_nonelectrostatic_energy": 6.83, 
			 "SMD_solvation_energy": 5.29 
		},
		"coords": [
			{
				"x": -1.2500990039,
				"y": 1.4048955266,
				"z": 2.0726157379,
				"element": "C" 
			},
			{
				"x": -1.8768234764,
				"y": 1.3650418793,
				"z": 0.8004103365,
				"element": "O" 
			},
			{
				"x": -1.0872501415,
				"y": 0.8645833596,
				"z": -0.2657469926,
				"element": "C" 
			},
			{
				"x": -0.5147103786,
				"y": -0.3795384689,
				"z": -0.0113612209,
				"element": "O" 
			},
			{
				"x": 0.8424270509,
				"y": -0.4891989667,
				"z": 0.4299329556,
				"element": "C" 
			},
			{
				"x": -0.1369351363,
				"y": 1.9536225398,
				"z": -0.8367952821,
				"element": "C" 
			},
			{
				"x": -0.6182228157,
				"y": 3.3852269532,
				"z": -0.7208393227,
				"element": "C" 
			},
			{
				"x": 0.8822224772,
				"y": 1.6535031917,
				"z": -1.4257424624,
				"element": "O" 
			},
			{
				"x": -0.9925535786,
				"y": 0.4004420136,
				"z": 2.4262379189,
				"element": "H" 
			},
			{
				"x": -1.9748232118,
				"y": 1.8474928497,
				"z": 2.7594297421,
				"element": "H" 
			},
			{
				"x": -0.3405591958,
				"y": 2.0264189276,
				"z": 2.0761681981,
				"element": "H" 
			},
			{
				"x": -1.8255983394,
				"y": 0.6954520974,
				"z": -1.0636229021,
				"element": "H" 
			},
			{
				"x": 0.9018839374,
				"y": -1.439434638,
				"z": 0.9670681729,
				"element": "H" 
			},
			{
				"x": 1.5311128156,
				"y": -0.4940991428,
				"z": -0.4171728463,
				"element": "H" 
			},
			{
				"x": 1.1355495842,
				"y": 0.3161746056,
				"z": 1.1122371754,
				"element": "H" 
			},
			{
				"x": -0.5896303488,
				"y": 3.7133568911,
				"z": 0.3235599858,
				"element": "H" 
			},
			{
				"x": 0.0227513408,
				"y": 4.0283454599,
				"z": -1.3254807082,
				"element": "H" 
			},
			{
				"x": -1.6609415794,
				"y": 3.4738149214,
				"z": -1.0415984861,
				"element": "H" 
			}
		],
		 "valence_orbital": [ 
			{
				"type": "occ",
				"energy": -0.33804,
				"method": "rhf"
			},
			{
				"type": "occ",
				"energy": -0.32679,
				"method": "rhf"
			},
			{
				"type": "occ",
				"energy": -0.3001,
				"method": "rhf"
			},
			{
				"type": "occ",
				"energy": -0.26876,
				"method": "rhf"
			},
			{
				"type": "occ",
				"energy": -0.23945,
				"method": "rhf"
			},
			{
				"type": "unocc",
				"energy": -0.03027,
				"method": "rhf"
			},
			{
				"type": "unocc",
				"energy": 0.07699,
				"method": "rhf"
			},
			{
				"type": "unocc",
				"energy": 0.11297,
				"method": "rhf"
			},
			{
				"type": "unocc",
				"energy": 0.12468,
				"method": "rhf"
			},
			{
				"type": "unocc",
				"energy": 0.13481,
				"method": "rhf"
			}
		],
		"cosmo_sigma_profile": { 
			"-0.025": 0.0,
			"-0.024": 0.0,
			"-0.023": 0.0,
			"-0.022": 0.0,
			"-0.021": 0.0,
			"-0.02": 0.0,
			"-0.019": 0.0,
			"-0.018": 0.0,
			"-0.017": 0.0,
			"-0.016": 0.0,
			"-0.015": 0.0,
			"-0.014": 0.0,
			"-0.013": 0.0,
			"-0.012": 0.0,
			"-0.011": 0.0,
			"-0.01": 0.0,
			"-0.009": 0.796366814038,
			"-0.008": 3.23740776134,
			"-0.007": 4.96132489204,
			"-0.006": 7.6929370005,
			"-0.005": 13.2321807227,
			"-0.004": 17.1441656571,
			"-0.003": 20.8623569233,
			"-0.002": 21.0087250777,
			"-0.001": 11.8465759782,
			"0.0": 6.0844665299,
			"0.001": 5.25295280227,
			"0.002": 4.31919182056,
			"0.003": 3.89301245477,
			"0.004": 3.23116620343,
			"0.005": 4.8667097313,
			"0.006": 4.74834262514,
			"0.007": 4.14797532469,
			"0.008": 3.78866425138,
			"0.009": 4.73949249862,
			"0.01": 5.35806947601,
			"0.011": 5.58550785759,
			"0.012": 3.90763652074,
			"0.013": 0.690892196649,
			"0.014": 0.0,
			"0.015": 0.0,
			"0.016": 0.0,
			"0.017": 0.0,
			"0.018": 0.0,
			"0.019": 0.0,
			"0.02": 0.0,
			"0.021": 0.0,
			"0.022": 0.0,
			"0.023": 0.0,
			"0.024": 0.0,
			"0.025": 0.0
		}
	}
}
