{
	 "smiles": "CC(=O)C1=CC=C(OCCCCCBr)C=C1O", 
	 "Tm": 337.65, 
	 "num_atms": 34, 
	 "gaussian": { 
		 "optdone": 1, 
		 "sigma_profile": "yes", 
		 "theory": "DFT", 
		 "functional": "B3LYP", 
		 "basiset": "6-31G**", 
		 "properties": { 
			 "R2extent": 12894.9071, 
			 "electric_dipole_moment_norm": 4.14267584298, 
			 "electric_quadrupole_moment_norm": 18.655627117, 
			 "total_energy": -3302.72976488, 
			 "HOMO_LUMO_gap": 0.16959, 
			 "cosmo_polarized_energy": -12.93, 
			 "cosmo_cavitation_energy": 39.21, 
			 "cosmo_dispersion_energy": -28.47, 
			 "cosmo_repulsion_energy": 2.24, 
			 "cosmo_total_nonelectrostatic_energy": 12.99, 
			 "SMD_solvation_energy": 5.96 
		},
		"coords": [
			{
				"x": -5.2604186464,
				"y": -0.3793108478,
				"z": -1.6603769868,
				"element": "C" 
			},
			{
				"x": -4.493893814,
				"y": -0.4327918437,
				"z": -0.353285179,
				"element": "C" 
			},
			{
				"x": -5.1373460611,
				"y": -0.4765205463,
				"z": 0.7121777584,
				"element": "O" 
			},
			{
				"x": -3.0325007047,
				"y": -0.4326071657,
				"z": -0.3543817807,
				"element": "C" 
			},
			{
				"x": -2.2653107144,
				"y": -0.3826566399,
				"z": -1.5416611807,
				"element": "C" 
			},
			{
				"x": -0.8878386005,
				"y": -0.3832639294,
				"z": -1.5206668462,
				"element": "C" 
			},
			{
				"x": -0.214038649,
				"y": -0.4357693691,
				"z": -0.2785529734,
				"element": "C" 
			},
			{
				"x": 1.1399907103,
				"y": -0.4307232006,
				"z": -0.3560732168,
				"element": "O" 
			},
			{
				"x": 1.9094029765,
				"y": -0.4895578023,
				"z": 0.8489696631,
				"element": "C" 
			},
			{
				"x": 3.3832980132,
				"y": -0.4639791549,
				"z": 0.4603141362,
				"element": "C" 
			},
			{
				"x": 3.8350472789,
				"y": -1.6363058944,
				"z": -0.4291692734,
				"element": "C" 
			},
			{
				"x": 3.7605841233,
				"y": -3.0388565136,
				"z": 0.2073718362,
				"element": "C" 
			},
			{
				"x": 4.7370676127,
				"y": -3.2154135304,
				"z": 1.36263137,
				"element": "C" 
			},
			{
				"x": 4.6621421217,
				"y": -5.0512650206,
				"z": 2.1066521607,
				"element": "Br" 
			},
			{
				"x": -0.9296921951,
				"y": -0.4857240477,
				"z": 0.9148317569,
				"element": "C" 
			},
			{
				"x": -2.3339028985,
				"y": -0.4843981113,
				"z": 0.8868917182,
				"element": "C" 
			},
			{
				"x": -2.9781613243,
				"y": -0.5325767888,
				"z": 2.05613389,
				"element": "O" 
			},
			{
				"x": -6.3274539821,
				"y": -0.3884720875,
				"z": -1.4366703751,
				"element": "H" 
			},
			{
				"x": -5.0159477807,
				"y": -1.2371631884,
				"z": -2.2956690796,
				"element": "H" 
			},
			{
				"x": -5.0159682818,
				"y": 0.5275080851,
				"z": -2.223590931,
				"element": "H" 
			},
			{
				"x": -2.7735296516,
				"y": -0.3425750922,
				"z": -2.4996151511,
				"element": "H" 
			},
			{
				"x": -0.3003228815,
				"y": -0.3445781256,
				"z": -2.4307423803,
				"element": "H" 
			},
			{
				"x": 1.6525576293,
				"y": -1.4007145877,
				"z": 1.4056322873,
				"element": "H" 
			},
			{
				"x": 1.667657936,
				"y": 0.3717723043,
				"z": 1.4855038397,
				"element": "H" 
			},
			{
				"x": 3.9697853179,
				"y": -0.4242863495,
				"z": 1.3867076217,
				"element": "H" 
			},
			{
				"x": 3.5797781248,
				"y": 0.4763115167,
				"z": -0.067584844,
				"element": "H" 
			},
			{
				"x": 3.2187149646,
				"y": -1.6388898542,
				"z": -1.3342067131,
				"element": "H" 
			},
			{
				"x": 4.8647645041,
				"y": -1.4465516376,
				"z": -0.7584346655,
				"element": "H" 
			},
			{
				"x": 3.9854992779,
				"y": -3.7867983955,
				"z": -0.5601273776,
				"element": "H" 
			},
			{
				"x": 2.7437114098,
				"y": -3.2541135889,
				"z": 0.5532901447,
				"element": "H" 
			},
			{
				"x": 5.7730156031,
				"y": -3.0732449802,
				"z": 1.0522586006,
				"element": "H" 
			},
			{
				"x": 4.523625136,
				"y": -2.5639304109,
				"z": 2.2095681786,
				"element": "H" 
			},
			{
				"x": -0.4490019116,
				"y": -0.5257190699,
				"z": 1.883407978,
				"element": "H" 
			},
			{
				"x": -3.9508146426,
				"y": -0.5234341312,
				"z": 1.8310660141,
				"element": "H" 
			}
		],
		 "valence_orbital": [ 
			{
				"type": "occ",
				"energy": -0.2722,
				"method": "rhf"
			},
			{
				"type": "occ",
				"energy": -0.27172,
				"method": "rhf"
			},
			{
				"type": "occ",
				"energy": -0.25963,
				"method": "rhf"
			},
			{
				"type": "occ",
				"energy": -0.24398,
				"method": "rhf"
			},
			{
				"type": "occ",
				"energy": -0.22317,
				"method": "rhf"
			},
			{
				"type": "unocc",
				"energy": -0.05358,
				"method": "rhf"
			},
			{
				"type": "unocc",
				"energy": -0.00173,
				"method": "rhf"
			},
			{
				"type": "unocc",
				"energy": 0.00208,
				"method": "rhf"
			},
			{
				"type": "unocc",
				"energy": 0.044,
				"method": "rhf"
			},
			{
				"type": "unocc",
				"energy": 0.07272,
				"method": "rhf"
			}
		],
		"cosmo_sigma_profile": { 
			"-0.025": 0.0,
			"-0.024": 0.0,
			"-0.023": 0.0,
			"-0.022": 0.0,
			"-0.021": 0.0,
			"-0.02": 0.0,
			"-0.019": 0.0,
			"-0.018": 0.0,
			"-0.017": 0.0,
			"-0.016": 0.0,
			"-0.015": 0.0,
			"-0.014": 0.0,
			"-0.013": 0.0,
			"-0.012": 0.0,
			"-0.011": 0.0,
			"-0.01": 0.0,
			"-0.009": 0.0,
			"-0.008": 0.0,
			"-0.007": 4.72251666069,
			"-0.006": 21.4875690423,
			"-0.005": 26.7065546762,
			"-0.004": 26.9153891863,
			"-0.003": 27.2108590574,
			"-0.002": 27.9561078694,
			"-0.001": 31.2532857237,
			"0.0": 21.2687657258,
			"0.001": 14.4142273142,
			"0.002": 17.2015129553,
			"0.003": 23.048415307,
			"0.004": 16.0053699575,
			"0.005": 13.0620135751,
			"0.006": 14.5617086965,
			"0.007": 9.92283105186,
			"0.008": 3.7317852121,
			"0.009": 3.07030921435,
			"0.01": 2.92367353683,
			"0.011": 3.47557772808,
			"0.012": 2.33076447502,
			"0.013": 0.903048986996,
			"0.014": 0.0163562252747,
			"0.015": 0.0,
			"0.016": 0.0,
			"0.017": 0.0,
			"0.018": 0.0,
			"0.019": 0.0,
			"0.02": 0.0,
			"0.021": 0.0,
			"0.022": 0.0,
			"0.023": 0.0,
			"0.024": 0.0,
			"0.025": 0.0
		}
	}
}
