{
	 "smiles": "CC1=CC(=O)OC2=CC(OC3OC(CO)C(O)C(O)C3O)=CC=C12", 
	 "Tm": 521.15, 
	 "num_atms": 42, 
	 "gaussian": { 
		 "optdone": 1, 
		 "sigma_profile": "yes", 
		 "theory": "DFT", 
		 "functional": "B3LYP", 
		 "basiset": "6-31G**", 
		 "properties": { 
			 "R2extent": 9988.5991, 
			 "electric_dipole_moment_norm": 6.71556018438, 
			 "electric_quadrupole_moment_norm": 19.2384576375, 
			 "total_energy": -1222.30900391, 
			 "HOMO_LUMO_gap": 0.16716, 
			 "cosmo_polarized_energy": -26.25, 
			 "cosmo_cavitation_energy": 44.45, 
			 "cosmo_dispersion_energy": -31.21, 
			 "cosmo_repulsion_energy": 2.35, 
			 "cosmo_total_nonelectrostatic_energy": 15.59, 
			 "SMD_solvation_energy": 8.2 
		},
		"coords": [
			{
				"x": 2.8454229182,
				"y": 3.5525181138,
				"z": -3.116045973,
				"element": "C" 
			},
			{
				"x": 1.6222299323,
				"y": 3.3133000392,
				"z": -2.272900241,
				"element": "C" 
			},
			{
				"x": 0.6131671529,
				"y": 4.2207441355,
				"z": -2.223257999,
				"element": "C" 
			},
			{
				"x": -0.5881648433,
				"y": 4.0341005282,
				"z": -1.424999854,
				"element": "C" 
			},
			{
				"x": -1.5196484858,
				"y": 4.7985704502,
				"z": -1.3387978969,
				"element": "O" 
			},
			{
				"x": -0.6556553581,
				"y": 2.8448845365,
				"z": -0.6890030128,
				"element": "O" 
			},
			{
				"x": 0.3393084091,
				"y": 1.9166451509,
				"z": -0.7147329583,
				"element": "C" 
			},
			{
				"x": 0.131863041,
				"y": 0.775219191,
				"z": 0.0641841713,
				"element": "C" 
			},
			{
				"x": 1.1143234188,
				"y": -0.2125456157,
				"z": 0.0816427015,
				"element": "C" 
			},
			{
				"x": 1.0181754684,
				"y": -1.3673845811,
				"z": 0.8141958195,
				"element": "O" 
			},
			{
				"x": 0.059369969,
				"y": -1.445873668,
				"z": 1.8910964175,
				"element": "C" 
			},
			{
				"x": -1.2457005823,
				"y": -1.6138997285,
				"z": 1.4108985109,
				"element": "O" 
			},
			{
				"x": -1.7349721371,
				"y": -2.9667665165,
				"z": 1.2214113961,
				"element": "C" 
			},
			{
				"x": -2.8299286243,
				"y": -2.8640571312,
				"z": 0.1647091598,
				"element": "C" 
			},
			{
				"x": -3.8708548137,
				"y": -2.0007561497,
				"z": 0.5747782511,
				"element": "O" 
			},
			{
				"x": -0.5958623891,
				"y": -3.9114857034,
				"z": 0.8286771549,
				"element": "C" 
			},
			{
				"x": -1.1658766655,
				"y": -5.1971465369,
				"z": 0.6440368437,
				"element": "O" 
			},
			{
				"x": 0.5216594401,
				"y": -3.9132055058,
				"z": 1.8979365889,
				"element": "C" 
			},
			{
				"x": 1.8155069146,
				"y": -4.0796106455,
				"z": 1.3126146643,
				"element": "O" 
			},
			{
				"x": 0.4907478206,
				"y": -2.6278730908,
				"z": 2.7640971328,
				"element": "C" 
			},
			{
				"x": 1.719742072,
				"y": -2.4023239566,
				"z": 3.4028074478,
				"element": "O" 
			},
			{
				"x": 2.285324063,
				"y": -0.066700203,
				"z": -0.6839116946,
				"element": "C" 
			},
			{
				"x": 2.4661884262,
				"y": 1.0677603645,
				"z": -1.4552550656,
				"element": "C" 
			},
			{
				"x": 1.5012522248,
				"y": 2.0945285562,
				"z": -1.4911807364,
				"element": "C" 
			},
			{
				"x": 3.7527779951,
				"y": 3.5570647315,
				"z": -2.5012553184,
				"element": "H" 
			},
			{
				"x": 2.7807893821,
				"y": 4.5100534424,
				"z": -3.6365009425,
				"element": "H" 
			},
			{
				"x": 2.9677420251,
				"y": 2.7625772559,
				"z": -3.8659424204,
				"element": "H" 
			},
			{
				"x": 0.6499593553,
				"y": 5.1468272148,
				"z": -2.7854791795,
				"element": "H" 
			},
			{
				"x": -0.7990431253,
				"y": 0.6756125677,
				"z": 0.6056311474,
				"element": "H" 
			},
			{
				"x": 0.0880378107,
				"y": -0.5009288776,
				"z": 2.4413765661,
				"element": "H" 
			},
			{
				"x": -2.1891966043,
				"y": -3.3113522867,
				"z": 2.1605648268,
				"element": "H" 
			},
			{
				"x": -3.267084527,
				"y": -3.8529140272,
				"z": 0.0104693429,
				"element": "H" 
			},
			{
				"x": -2.3739369149,
				"y": -2.5374319887,
				"z": -0.7846237605,
				"element": "H" 
			},
			{
				"x": -3.4629179543,
				"y": -1.1456781189,
				"z": 0.768646525,
				"element": "H" 
			},
			{
				"x": -0.1612552999,
				"y": -3.5378492132,
				"z": -0.1119524281,
				"element": "H" 
			},
			{
				"x": -0.4620212589,
				"y": -5.7910719928,
				"z": 0.3509212057,
				"element": "H" 
			},
			{
				"x": 0.3775983051,
				"y": -4.7834732542,
				"z": 2.5451200857,
				"element": "H" 
			},
			{
				"x": 1.9271215236,
				"y": -3.3361942584,
				"z": 0.6984991847,
				"element": "H" 
			},
			{
				"x": -0.2822575385,
				"y": -2.7338990074,
				"z": 3.5351526276,
				"element": "H" 
			},
			{
				"x": 2.3809923587,
				"y": -2.8659614392,
				"z": 2.8624647883,
				"element": "H" 
			},
			{
				"x": 3.0393693872,
				"y": -0.8453783743,
				"z": -0.6471628381,
				"element": "H" 
			},
			{
				"x": 3.3754077083,
				"y": 1.1702555928,
				"z": -2.0378302414,
				"element": "H" 
			}
		],
		 "valence_orbital": [ 
			{
				"type": "occ",
				"energy": -0.27536,
				"method": "rhf"
			},
			{
				"type": "occ",
				"energy": -0.27211,
				"method": "rhf"
			},
			{
				"type": "occ",
				"energy": -0.26757,
				"method": "rhf"
			},
			{
				"type": "occ",
				"energy": -0.25945,
				"method": "rhf"
			},
			{
				"type": "occ",
				"energy": -0.23157,
				"method": "rhf"
			},
			{
				"type": "unocc",
				"energy": -0.06441,
				"method": "rhf"
			},
			{
				"type": "unocc",
				"energy": -0.02004,
				"method": "rhf"
			},
			{
				"type": "unocc",
				"energy": 0.00217,
				"method": "rhf"
			},
			{
				"type": "unocc",
				"energy": 0.05043,
				"method": "rhf"
			},
			{
				"type": "unocc",
				"energy": 0.06559,
				"method": "rhf"
			}
		],
		"cosmo_sigma_profile": { 
			"-0.025": 0.0,
			"-0.024": 0.0,
			"-0.023": 0.0,
			"-0.022": 0.0,
			"-0.021": 0.0,
			"-0.02": 0.0,
			"-0.019": 0.0,
			"-0.018": 0.0,
			"-0.017": 0.0274911268564,
			"-0.016": 0.687616582371,
			"-0.015": 0.74516336604,
			"-0.014": 1.05211255895,
			"-0.013": 1.14954444489,
			"-0.012": 1.69657664016,
			"-0.011": 2.37931419384,
			"-0.01": 2.86268334008,
			"-0.009": 3.03027156615,
			"-0.008": 6.61593026617,
			"-0.007": 15.8167732527,
			"-0.006": 27.075951977,
			"-0.005": 26.2270926365,
			"-0.004": 23.4452151834,
			"-0.003": 23.3808590621,
			"-0.002": 24.1746244686,
			"-0.001": 23.8646646948,
			"0.0": 21.9450165243,
			"0.001": 24.8138079541,
			"0.002": 22.1480869965,
			"0.003": 14.4703354506,
			"0.004": 10.3898862852,
			"0.005": 6.59932883375,
			"0.006": 6.00553823193,
			"0.007": 6.50445464927,
			"0.008": 6.9159265711,
			"0.009": 7.40108502621,
			"0.01": 7.47544357454,
			"0.011": 6.24391050903,
			"0.012": 12.4238324852,
			"0.013": 8.62421163857,
			"0.014": 3.43947901362,
			"0.015": 0.141909771554,
			"0.016": 0.0,
			"0.017": 0.0,
			"0.018": 0.0,
			"0.019": 0.0,
			"0.02": 0.0,
			"0.021": 0.0,
			"0.022": 0.0,
			"0.023": 0.0,
			"0.024": 0.0,
			"0.025": 0.0
		}
	}
}
