{
	 "smiles": "C=CCC1(C2CCCC=C2)C(=O)NC(=S)NC1=O", 
	 "Tm": 421.15, 
	 "num_atms": 34, 
	 "gaussian": { 
		 "optdone": 1, 
		 "sigma_profile": "yes", 
		 "theory": "DFT", 
		 "functional": "B3LYP", 
		 "basiset": "6-31G**", 
		 "properties": { 
			 "R2extent": 5762.1093, 
			 "electric_dipole_moment_norm": 2.33734807421, 
			 "electric_quadrupole_moment_norm": 10.2426967489, 
			 "total_energy": -1163.1663983, 
			 "HOMO_LUMO_gap": 0.15912, 
			 "cosmo_polarized_energy": -14.74, 
			 "cosmo_cavitation_energy": 36.82, 
			 "cosmo_dispersion_energy": -25.88, 
			 "cosmo_repulsion_energy": 1.96, 
			 "cosmo_total_nonelectrostatic_energy": 12.9, 
			 "SMD_solvation_energy": 6.16 
		},
		"coords": [
			{
				"x": -2.7867509051,
				"y": 0.9352316434,
				"z": -0.1334060405,
				"element": "C" 
			},
			{
				"x": -2.0287086496,
				"y": 0.0165710145,
				"z": -0.7344124117,
				"element": "C" 
			},
			{
				"x": -0.9321124807,
				"y": -0.7433748476,
				"z": -0.0332336002,
				"element": "C" 
			},
			{
				"x": 0.5071249305,
				"y": -0.7006465558,
				"z": -0.6267180138,
				"element": "C" 
			},
			{
				"x": 1.1251062144,
				"y": 0.7716630862,
				"z": -0.7920382006,
				"element": "C" 
			},
			{
				"x": 0.5985493106,
				"y": 1.5410413535,
				"z": -2.0216419151,
				"element": "C" 
			},
			{
				"x": 1.0755524312,
				"y": 2.9999943177,
				"z": -1.9858316427,
				"element": "C" 
			},
			{
				"x": 0.5402675163,
				"y": 3.7271438248,
				"z": -0.7447453582,
				"element": "C" 
			},
			{
				"x": 0.6967132771,
				"y": 2.8869875818,
				"z": 0.4955033826,
				"element": "C" 
			},
			{
				"x": 0.9614158583,
				"y": 1.5765796423,
				"z": 0.4812248822,
				"element": "C" 
			},
			{
				"x": 0.5656870531,
				"y": -1.3739606566,
				"z": -1.9960888022,
				"element": "C" 
			},
			{
				"x": -0.3431681102,
				"y": -1.385149065,
				"z": -2.8031093387,
				"element": "O" 
			},
			{
				"x": 1.7972372193,
				"y": -1.9417184538,
				"z": -2.3463710757,
				"element": "N" 
			},
			{
				"x": 2.8171154752,
				"y": -2.3044540724,
				"z": -1.4986420294,
				"element": "C" 
			},
			{
				"x": 4.192360458,
				"y": -3.0705243831,
				"z": -2.0166858899,
				"element": "S" 
			},
			{
				"x": 2.5805220533,
				"y": -2.0057489622,
				"z": -0.1777125535,
				"element": "N" 
			},
			{
				"x": 1.4413598535,
				"y": -1.4060823709,
				"z": 0.3671715046,
				"element": "C" 
			},
			{
				"x": 1.2886774623,
				"y": -1.40020368,
				"z": 1.5733703225,
				"element": "O" 
			},
			{
				"x": -3.6083028653,
				"y": 1.4203551562,
				"z": -0.6527294073,
				"element": "H" 
			},
			{
				"x": -2.6159604472,
				"y": 1.2347122338,
				"z": 0.8978319731,
				"element": "H" 
			},
			{
				"x": -2.2256707412,
				"y": -0.262936571,
				"z": -1.765351723,
				"element": "H" 
			},
			{
				"x": -0.8588696164,
				"y": -0.4114790725,
				"z": 1.0039057468,
				"element": "H" 
			},
			{
				"x": -1.2190727457,
				"y": -1.8037248251,
				"z": 0.0056386143,
				"element": "H" 
			},
			{
				"x": 2.2032713897,
				"y": 0.6106142469,
				"z": -0.9503418858,
				"element": "H" 
			},
			{
				"x": 0.9379312971,
				"y": 1.059319599,
				"z": -2.9440919861,
				"element": "H" 
			},
			{
				"x": -0.4942153156,
				"y": 1.5184107162,
				"z": -2.0314600531,
				"element": "H" 
			},
			{
				"x": 2.173332497,
				"y": 3.0263822332,
				"z": -1.9754490085,
				"element": "H" 
			},
			{
				"x": 0.7575394487,
				"y": 3.5159219013,
				"z": -2.898458961,
				"element": "H" 
			},
			{
				"x": 1.0571273453,
				"y": 4.6861218587,
				"z": -0.6107304656,
				"element": "H" 
			},
			{
				"x": -0.5221767889,
				"y": 3.9799777593,
				"z": -0.8805232312,
				"element": "H" 
			},
			{
				"x": 0.5962156413,
				"y": 3.3910562593,
				"z": 1.4554371375,
				"element": "H" 
			},
			{
				"x": 1.0919723933,
				"y": 1.0469412144,
				"z": 1.4209480244,
				"element": "H" 
			},
			{
				"x": 1.8747157473,
				"y": -2.2718682485,
				"z": -3.3017588245,
				"element": "H" 
			},
			{
				"x": 3.2596137932,
				"y": -2.3548538783,
				"z": 0.4889008303,
				"element": "H" 
			}
		],
		 "valence_orbital": [ 
			{
				"type": "occ",
				"energy": -0.28716,
				"method": "rhf"
			},
			{
				"type": "occ",
				"energy": -0.2619,
				"method": "rhf"
			},
			{
				"type": "occ",
				"energy": -0.25717,
				"method": "rhf"
			},
			{
				"type": "occ",
				"energy": -0.24718,
				"method": "rhf"
			},
			{
				"type": "occ",
				"energy": -0.24144,
				"method": "rhf"
			},
			{
				"type": "unocc",
				"energy": -0.08232,
				"method": "rhf"
			},
			{
				"type": "unocc",
				"energy": -0.01365,
				"method": "rhf"
			},
			{
				"type": "unocc",
				"energy": 0.002,
				"method": "rhf"
			},
			{
				"type": "unocc",
				"energy": 0.01324,
				"method": "rhf"
			},
			{
				"type": "unocc",
				"energy": 0.02421,
				"method": "rhf"
			}
		],
		"cosmo_sigma_profile": { 
			"-0.025": 0.0,
			"-0.024": 0.0,
			"-0.023": 0.0,
			"-0.022": 0.0,
			"-0.021": 0.0,
			"-0.02": 0.0,
			"-0.019": 0.0,
			"-0.018": 0.0,
			"-0.017": 0.215490800203,
			"-0.016": 1.50485123792,
			"-0.015": 1.91917010595,
			"-0.014": 1.14797373149,
			"-0.013": 1.25565531756,
			"-0.012": 2.00489930513,
			"-0.011": 2.80013916079,
			"-0.01": 2.08138805235,
			"-0.009": 2.68029976624,
			"-0.008": 2.6410086652,
			"-0.007": 4.670199997,
			"-0.006": 7.55446707143,
			"-0.005": 12.8193737813,
			"-0.004": 18.1022166056,
			"-0.003": 26.0906955624,
			"-0.002": 27.9860397132,
			"-0.001": 31.3842982905,
			"0.0": 25.589736486,
			"0.001": 18.391455088,
			"0.002": 13.5969650839,
			"0.003": 14.8461259304,
			"0.004": 13.3782865989,
			"0.005": 11.9163894383,
			"0.006": 12.0146955819,
			"0.007": 9.95045601829,
			"0.008": 7.02033836265,
			"0.009": 7.88786705182,
			"0.01": 6.42065715801,
			"0.011": 4.67269637001,
			"0.012": 0.167569575497,
			"0.013": 0.0,
			"0.014": 0.0,
			"0.015": 0.0,
			"0.016": 0.0,
			"0.017": 0.0,
			"0.018": 0.0,
			"0.019": 0.0,
			"0.02": 0.0,
			"0.021": 0.0,
			"0.022": 0.0,
			"0.023": 0.0,
			"0.024": 0.0,
			"0.025": 0.0
		}
	}
}
