{
	 "smiles": "CC(C)=CCCC(C)=C/CCC(C)=CCO", 
	 "Tm": 298.15, 
	 "num_atms": 42, 
	 "gaussian": { 
		 "optdone": 1, 
		 "sigma_profile": "yes", 
		 "theory": "DFT", 
		 "functional": "B3LYP", 
		 "basiset": "6-31G**", 
		 "properties": { 
			 "R2extent": 7044.8386, 
			 "electric_dipole_moment_norm": 1.71835520775, 
			 "electric_quadrupole_moment_norm": 10.9108445567, 
			 "total_energy": -662.449059415, 
			 "HOMO_LUMO_gap": 0.23885, 
			 "cosmo_polarized_energy": -8.98, 
			 "cosmo_cavitation_energy": 43.37, 
			 "cosmo_dispersion_energy": -28.58, 
			 "cosmo_repulsion_energy": 2.36, 
			 "cosmo_total_nonelectrostatic_energy": 17.14, 
			 "SMD_solvation_energy": 7.54 
		},
		"coords": [
			{
				"x": 3.5577485706,
				"y": -4.0697115683,
				"z": 1.0582664857,
				"element": "C" 
			},
			{
				"x": 3.4563394834,
				"y": -2.6472856001,
				"z": 1.5535269674,
				"element": "C" 
			},
			{
				"x": 3.192572355,
				"y": -2.5240032726,
				"z": 3.0361021319,
				"element": "C" 
			},
			{
				"x": 3.5886270389,
				"y": -1.5515767935,
				"z": 0.7885031151,
				"element": "C" 
			},
			{
				"x": 3.8484367183,
				"y": -1.4679523921,
				"z": -0.6909076286,
				"element": "C" 
			},
			{
				"x": 2.740906661,
				"y": -0.7031084105,
				"z": -1.4681763083,
				"element": "C" 
			},
			{
				"x": 2.6261511051,
				"y": 0.7684905549,
				"z": -1.1208201008,
				"element": "C" 
			},
			{
				"x": 3.7091296255,
				"y": 1.6518160221,
				"z": -1.6982651763,
				"element": "C" 
			},
			{
				"x": 1.6481376787,
				"y": 1.2969120434,
				"z": -0.3664978714,
				"element": "C" 
			},
			{
				"x": 0.4843149143,
				"y": 0.5980515551,
				"z": 0.2843737501,
				"element": "C" 
			},
			{
				"x": -0.8737506565,
				"y": 1.0241899382,
				"z": -0.3327458995,
				"element": "C" 
			},
			{
				"x": -2.0779607002,
				"y": 0.4094298822,
				"z": 0.3544819552,
				"element": "C" 
			},
			{
				"x": -2.3017168129,
				"y": -1.0584246283,
				"z": 0.077753865,
				"element": "C" 
			},
			{
				"x": -2.862759403,
				"y": 1.1662317144,
				"z": 1.1363451806,
				"element": "C" 
			},
			{
				"x": -4.0936022553,
				"y": 0.7646913137,
				"z": 1.8938004539,
				"element": "C" 
			},
			{
				"x": -3.9891099221,
				"y": 1.3023018473,
				"z": 3.2134269966,
				"element": "O" 
			},
			{
				"x": 2.6417562996,
				"y": -4.6271349431,
				"z": 1.2949207935,
				"element": "H" 
			},
			{
				"x": 3.7266619606,
				"y": -4.1448182227,
				"z": -0.0174249048,
				"element": "H" 
			},
			{
				"x": 4.3778574271,
				"y": -4.5972833768,
				"z": 1.5633811133,
				"element": "H" 
			},
			{
				"x": 2.255655308,
				"y": -3.0250044641,
				"z": 3.3147639371,
				"element": "H" 
			},
			{
				"x": 3.9867945584,
				"y": -3.0075961158,
				"z": 3.620926751,
				"element": "H" 
			},
			{
				"x": 3.1257453106,
				"y": -1.4797951262,
				"z": 3.3533663569,
				"element": "H" 
			},
			{
				"x": 3.490353792,
				"y": -0.5847880615,
				"z": 1.282541283,
				"element": "H" 
			},
			{
				"x": 4.8099799898,
				"y": -0.9620426724,
				"z": -0.8604681365,
				"element": "H" 
			},
			{
				"x": 3.9509964453,
				"y": -2.4638364026,
				"z": -1.1325881278,
				"element": "H" 
			},
			{
				"x": 2.9649442852,
				"y": -0.7875246268,
				"z": -2.5409079503,
				"element": "H" 
			},
			{
				"x": 1.7886522644,
				"y": -1.2173235457,
				"z": -1.3093452325,
				"element": "H" 
			},
			{
				"x": 3.5810716421,
				"y": 2.6964781807,
				"z": -1.4015231639,
				"element": "H" 
			},
			{
				"x": 4.7086485399,
				"y": 1.3332032391,
				"z": -1.3756486289,
				"element": "H" 
			},
			{
				"x": 3.7097577698,
				"y": 1.6070800123,
				"z": -2.7957285259,
				"element": "H" 
			},
			{
				"x": 1.6700262746,
				"y": 2.3768919039,
				"z": -0.2072989221,
				"element": "H" 
			},
			{
				"x": 0.4629763263,
				"y": 0.8528471835,
				"z": 1.3527769969,
				"element": "H" 
			},
			{
				"x": 0.6001428233,
				"y": -0.4880321106,
				"z": 0.2336098721,
				"element": "H" 
			},
			{
				"x": -0.870356046,
				"y": 0.7488371149,
				"z": -1.3967877409,
				"element": "H" 
			},
			{
				"x": -0.9484566781,
				"y": 2.1171089889,
				"z": -0.2945638221,
				"element": "H" 
			},
			{
				"x": -1.3926574629,
				"y": -1.6396813721,
				"z": 0.2716091743,
				"element": "H" 
			},
			{
				"x": -2.5509645143,
				"y": -1.2149067921,
				"z": -0.9802362673,
				"element": "H" 
			},
			{
				"x": -3.1066987012,
				"y": -1.4915123262,
				"z": 0.6745008382,
				"element": "H" 
			},
			{
				"x": -2.6154207667,
				"y": 2.2212702218,
				"z": 1.2528766147,
				"element": "H" 
			},
			{
				"x": -4.983231284,
				"y": 1.1749193182,
				"z": 1.3829969912,
				"element": "H" 
			},
			{
				"x": -4.2160449912,
				"y": -0.3276883905,
				"z": 1.9190931078,
				"element": "H" 
			},
			{
				"x": -4.8373549733,
				"y": 1.1653801799,
				"z": 3.6535896763,
				"element": "H" 
			}
		],
		 "valence_orbital": [ 
			{
				"type": "occ",
				"energy": -0.30454,
				"method": "rhf"
			},
			{
				"type": "occ",
				"energy": -0.26457,
				"method": "rhf"
			},
			{
				"type": "occ",
				"energy": -0.23564,
				"method": "rhf"
			},
			{
				"type": "occ",
				"energy": -0.22879,
				"method": "rhf"
			},
			{
				"type": "occ",
				"energy": -0.2184,
				"method": "rhf"
			},
			{
				"type": "unocc",
				"energy": 0.02045,
				"method": "rhf"
			},
			{
				"type": "unocc",
				"energy": 0.03031,
				"method": "rhf"
			},
			{
				"type": "unocc",
				"energy": 0.03802,
				"method": "rhf"
			},
			{
				"type": "unocc",
				"energy": 0.0895,
				"method": "rhf"
			},
			{
				"type": "unocc",
				"energy": 0.09325,
				"method": "rhf"
			}
		],
		"cosmo_sigma_profile": { 
			"-0.025": 0.0,
			"-0.024": 0.0,
			"-0.023": 0.0,
			"-0.022": 0.0,
			"-0.021": 0.0,
			"-0.02": 0.0,
			"-0.019": 0.0,
			"-0.018": 0.0,
			"-0.017": 0.0,
			"-0.016": 0.176393839701,
			"-0.015": 0.9008777409,
			"-0.014": 1.31341659777,
			"-0.013": 0.767493834656,
			"-0.012": 0.460220175552,
			"-0.011": 1.49242189371,
			"-0.01": 0.571194552188,
			"-0.009": 0.741053071752,
			"-0.008": 0.705685232343,
			"-0.007": 1.07358153175,
			"-0.006": 0.681593685384,
			"-0.005": 3.49292669318,
			"-0.004": 13.4232612466,
			"-0.003": 42.4168685503,
			"-0.002": 48.303756725,
			"-0.001": 49.6820169425,
			"0.0": 46.8470945059,
			"0.001": 43.5085158484,
			"0.002": 20.0557514924,
			"0.003": 16.6644132518,
			"0.004": 10.5393241009,
			"0.005": 9.18290754038,
			"0.006": 6.49315535773,
			"0.007": 3.35673237832,
			"0.008": 2.3685274956,
			"0.009": 1.43983255996,
			"0.01": 1.10315733831,
			"0.011": 1.8992193291,
			"0.012": 1.50844471869,
			"0.013": 1.27846676404,
			"0.014": 2.11775282893,
			"0.015": 1.74599663712,
			"0.016": 0.0204817712931,
			"0.017": 0.0,
			"0.018": 0.0,
			"0.019": 0.0,
			"0.02": 0.0,
			"0.021": 0.0,
			"0.022": 0.0,
			"0.023": 0.0,
			"0.024": 0.0,
			"0.025": 0.0
		}
	}
}
