{
	 "smiles": "CC1=NC(=CS1)C1=CC=C(F)C=C1", 
	 "Tm": 348.15, 
	 "num_atms": 21, 
	 "gaussian": { 
		 "optdone": 1, 
		 "sigma_profile": "yes", 
		 "theory": "DFT", 
		 "functional": "B3LYP", 
		 "basiset": "6-31G**", 
		 "properties": { 
			 "R2extent": 5188.1016, 
			 "electric_dipole_moment_norm": 2.21420637927, 
			 "electric_quadrupole_moment_norm": 9.73034198988, 
			 "total_energy": -938.663474013, 
			 "HOMO_LUMO_gap": 0.17637, 
			 "cosmo_polarized_energy": -6.82, 
			 "cosmo_cavitation_energy": 27.41, 
			 "cosmo_dispersion_energy": -20.7, 
			 "cosmo_repulsion_energy": 1.55, 
			 "cosmo_total_nonelectrostatic_energy": 8.27, 
			 "SMD_solvation_energy": 3.94 
		},
		"coords": [
			{
				"x": -2.7537064588,
				"y": 1.834868532,
				"z": -0.7001147325,
				"element": "C" 
			},
			{
				"x": -2.0644450154,
				"y": 1.3875276795,
				"z": 0.5528066383,
				"element": "C" 
			},
			{
				"x": -1.4795598928,
				"y": 0.237968859,
				"z": 0.6982268323,
				"element": "N" 
			},
			{
				"x": -0.9223392062,
				"y": 0.0810290109,
				"z": 1.9589288033,
				"element": "C" 
			},
			{
				"x": -1.0985017143,
				"y": 1.1587449016,
				"z": 2.7904473283,
				"element": "C" 
			},
			{
				"x": -1.9834727886,
				"y": 2.4111301084,
				"z": 1.9876507993,
				"element": "S" 
			},
			{
				"x": -0.2209622,
				"y": -1.1782515697,
				"z": 2.2755855818,
				"element": "C" 
			},
			{
				"x": -0.1317400678,
				"y": -2.1893360084,
				"z": 1.3035134148,
				"element": "C" 
			},
			{
				"x": 0.5231718959,
				"y": -3.3891763587,
				"z": 1.5711428698,
				"element": "C" 
			},
			{
				"x": 1.0936905491,
				"y": -3.5770505339,
				"z": 2.8242421082,
				"element": "C" 
			},
			{
				"x": 1.7302455802,
				"y": -4.7366767624,
				"z": 3.0922608322,
				"element": "F" 
			},
			{
				"x": 1.0264386282,
				"y": -2.6000579546,
				"z": 3.8123102468,
				"element": "C" 
			},
			{
				"x": 0.368823059,
				"y": -1.4060022969,
				"z": 3.5309066133,
				"element": "C" 
			},
			{
				"x": -3.8159976091,
				"y": 2.034937294,
				"z": -0.5243763728,
				"element": "H" 
			},
			{
				"x": -2.6643083322,
				"y": 1.0432493347,
				"z": -1.4461659481,
				"element": "H" 
			},
			{
				"x": -2.3049267255,
				"y": 2.7497806285,
				"z": -1.1010024596,
				"element": "H" 
			},
			{
				"x": -0.7671037205,
				"y": 1.2906860027,
				"z": 3.8096754678,
				"element": "H" 
			},
			{
				"x": -0.5848154987,
				"y": -2.0185122631,
				"z": 0.334004711,
				"element": "H" 
			},
			{
				"x": 0.5958595583,
				"y": -4.1738793248,
				"z": 0.8257289136,
				"element": "H" 
			},
			{
				"x": 1.4837564358,
				"y": -2.7823560438,
				"z": 4.7787452208,
				"element": "H" 
			},
			{
				"x": 0.3183935234,
				"y": -0.645823235,
				"z": 4.3041831314,
				"element": "H" 
			}
		],
		 "valence_orbital": [ 
			{
				"type": "occ",
				"energy": -0.28865,
				"method": "rhf"
			},
			{
				"type": "occ",
				"energy": -0.27435,
				"method": "rhf"
			},
			{
				"type": "occ",
				"energy": -0.27053,
				"method": "rhf"
			},
			{
				"type": "occ",
				"energy": -0.25831,
				"method": "rhf"
			},
			{
				"type": "occ",
				"energy": -0.21382,
				"method": "rhf"
			},
			{
				"type": "unocc",
				"energy": -0.03745,
				"method": "rhf"
			},
			{
				"type": "unocc",
				"energy": -0.00953,
				"method": "rhf"
			},
			{
				"type": "unocc",
				"energy": -0.00084,
				"method": "rhf"
			},
			{
				"type": "unocc",
				"energy": 0.01545,
				"method": "rhf"
			},
			{
				"type": "unocc",
				"energy": 0.07936,
				"method": "rhf"
			}
		],
		"cosmo_sigma_profile": { 
			"-0.025": 0.0,
			"-0.024": 0.0,
			"-0.023": 0.0,
			"-0.022": 0.0,
			"-0.021": 0.0,
			"-0.02": 0.0,
			"-0.019": 0.0,
			"-0.018": 0.0,
			"-0.017": 0.0,
			"-0.016": 0.0,
			"-0.015": 0.0,
			"-0.014": 0.0,
			"-0.013": 0.0,
			"-0.012": 0.0,
			"-0.011": 0.0,
			"-0.01": 0.638121731239,
			"-0.009": 2.40170566843,
			"-0.008": 2.95780886688,
			"-0.007": 5.35871951305,
			"-0.006": 9.93233557189,
			"-0.005": 14.7000156063,
			"-0.004": 15.8605610141,
			"-0.003": 13.1431949174,
			"-0.002": 15.3404384143,
			"-0.001": 12.640429756,
			"0.0": 15.1596725677,
			"0.001": 20.9891875355,
			"0.002": 21.4993070119,
			"0.003": 29.8789372817,
			"0.004": 26.1046257298,
			"0.005": 7.129755737,
			"0.006": 2.29478883739,
			"0.007": 1.72442903071,
			"0.008": 0.943995426362,
			"0.009": 1.36403301511,
			"0.01": 1.8798107709,
			"0.011": 0.796168682403,
			"0.012": 0.0,
			"0.013": 0.0,
			"0.014": 0.0,
			"0.015": 0.0,
			"0.016": 0.0,
			"0.017": 0.0,
			"0.018": 0.0,
			"0.019": 0.0,
			"0.02": 0.0,
			"0.021": 0.0,
			"0.022": 0.0,
			"0.023": 0.0,
			"0.024": 0.0,
			"0.0": 0.0
		}
	}
}
