{
	 "smiles": "[O-][N+](=O)C1=NN(CCCBr)C=C1", 
	 "Tm": 309.15, 
	 "num_atms": 20, 
	 "gaussian": { 
		 "optdone": 1, 
		 "sigma_profile": "yes", 
		 "theory": "DFT", 
		 "functional": "B3LYP", 
		 "basiset": "6-31G**", 
		 "properties": { 
			 "R2extent": 3936.4674, 
			 "electric_dipole_moment_norm": 7.35457656905, 
			 "electric_quadrupole_moment_norm": 23.1769209152, 
			 "total_energy": -3119.43970766, 
			 "HOMO_LUMO_gap": 0.19686, 
			 "cosmo_polarized_energy": -17.06, 
			 "cosmo_cavitation_energy": 27.14, 
			 "cosmo_dispersion_energy": -19.54, 
			 "cosmo_repulsion_energy": 1.59, 
			 "cosmo_total_nonelectrostatic_energy": 9.18, 
			 "SMD_solvation_energy": 5.37 
		},
		"coords": [
			{
				"x": -1.7058932463,
				"y": 4.5698472957,
				"z": 2.0941867351,
				"element": "O" 
			},
			{
				"x": -0.6731070467,
				"y": 3.9362651322,
				"z": 1.8604124718,
				"element": "N" 
			},
			{
				"x": 0.420707302,
				"y": 4.13342942,
				"z": 2.3794488546,
				"element": "O" 
			},
			{
				"x": -0.7925664964,
				"y": 2.8732234701,
				"z": 0.8835628838,
				"element": "C" 
			},
			{
				"x": 0.2670773894,
				"y": 2.1421722231,
				"z": 0.550491568,
				"element": "N" 
			},
			{
				"x": -0.2148469721,
				"y": 1.2817517225,
				"z": -0.3547999434,
				"element": "N" 
			},
			{
				"x": 0.7013734452,
				"y": 0.3242179862,
				"z": -0.9724928417,
				"element": "C" 
			},
			{
				"x": 1.3261780927,
				"y": -0.6678086566,
				"z": 0.0245913803,
				"element": "C" 
			},
			{
				"x": 0.5808436091,
				"y": -1.9781550993,
				"z": 0.2330936419,
				"element": "C" 
			},
			{
				"x": -1.2124544802,
				"y": -1.7679477859,
				"z": 1.0516207015,
				"element": "Br" 
			},
			{
				"x": -1.5462663911,
				"y": 1.4617445145,
				"z": -0.5998713302,
				"element": "C" 
			},
			{
				"x": -1.9658473897,
				"y": 2.504382758,
				"z": 0.1984261237,
				"element": "C" 
			},
			{
				"x": 0.1444998533,
				"y": -0.1935552515,
				"z": -1.7584586182,
				"element": "H" 
			},
			{
				"x": 1.4941643095,
				"y": 0.9058270236,
				"z": -1.4508527546,
				"element": "H" 
			},
			{
				"x": 1.4910867664,
				"y": -0.1535235533,
				"z": 0.9754293556,
				"element": "H" 
			},
			{
				"x": 2.3180482752,
				"y": -0.9427367565,
				"z": -0.3594313056,
				"element": "H" 
			},
			{
				"x": 1.1227610963,
				"y": -2.6340540632,
				"z": 0.9133970754,
				"element": "H" 
			},
			{
				"x": 0.403054953,
				"y": -2.5042181019,
				"z": -0.7059806021,
				"element": "H" 
			},
			{
				"x": -2.0806420639,
				"y": 0.8343673609,
				"z": -1.2971275888,
				"element": "H" 
			},
			{
				"x": -2.9476710055,
				"y": 2.9380703613,
				"z": 0.2894541928,
				"element": "H" 
			}
		],
		 "valence_orbital": [ 
			{
				"type": "occ",
				"energy": -0.29401,
				"method": "rhf"
			},
			{
				"type": "occ",
				"energy": -0.28542,
				"method": "rhf"
			},
			{
				"type": "occ",
				"energy": -0.28099,
				"method": "rhf"
			},
			{
				"type": "occ",
				"energy": -0.27397,
				"method": "rhf"
			},
			{
				"type": "occ",
				"energy": -0.27134,
				"method": "rhf"
			},
			{
				"type": "unocc",
				"energy": -0.07448,
				"method": "rhf"
			},
			{
				"type": "unocc",
				"energy": -0.0111,
				"method": "rhf"
			},
			{
				"type": "unocc",
				"energy": 0.00047,
				"method": "rhf"
			},
			{
				"type": "unocc",
				"energy": 0.06537,
				"method": "rhf"
			},
			{
				"type": "unocc",
				"energy": 0.07267,
				"method": "rhf"
			}
		],
		"cosmo_sigma_profile": { 
			"-0.025": 0.0,
			"-0.024": 0.0,
			"-0.023": 0.0,
			"-0.022": 0.0,
			"-0.021": 0.0,
			"-0.02": 0.0,
			"-0.019": 0.0,
			"-0.018": 0.0,
			"-0.017": 0.0,
			"-0.016": 0.0,
			"-0.015": 0.0,
			"-0.014": 0.0,
			"-0.013": 0.0,
			"-0.012": 0.0,
			"-0.011": 0.26485916356,
			"-0.01": 2.73523090773,
			"-0.009": 3.50286145806,
			"-0.008": 7.35648248774,
			"-0.007": 14.6010328684,
			"-0.006": 18.6412823685,
			"-0.005": 15.7595694248,
			"-0.004": 14.2973632497,
			"-0.003": 10.5616774692,
			"-0.002": 9.30180664332,
			"-0.001": 9.68044292734,
			"0.0": 11.5195105509,
			"0.001": 11.9667469055,
			"0.002": 11.9087340213,
			"0.003": 11.4901005472,
			"0.004": 8.55447917825,
			"0.005": 9.27106230499,
			"0.006": 11.8836555284,
			"0.007": 8.86126434297,
			"0.008": 11.1095206812,
			"0.009": 6.03332892791,
			"0.01": 5.03899113473,
			"0.011": 1.49239134139,
			"0.012": 1.05654950125,
			"0.013": 1.30779715157,
			"0.014": 0.570276347152,
			"0.015": 0.0,
			"0.016": 0.0,
			"0.017": 0.0,
			"0.018": 0.0,
			"0.019": 0.0,
			"0.02": 0.0,
			"0.021": 0.0,
			"0.022": 0.0,
			"0.023": 0.0,
			"0.024": 0.0,
			"0.025": 0.0
		}
	}
}
