{
	 "smiles": "CC1=CC=C(C#N)C(F)=C1F", 
	 "Tm": 317.15, 
	 "num_atms": 16, 
	 "gaussian": { 
		 "optdone": 1, 
		 "sigma_profile": "yes", 
		 "theory": "DFT", 
		 "functional": "B3LYP", 
		 "basiset": "6-31G**", 
		 "properties": { 
			 "R2extent": 2780.0126, 
			 "electric_dipole_moment_norm": 5.41726321587, 
			 "electric_quadrupole_moment_norm": 21.7230986222, 
			 "total_energy": -562.265530499, 
			 "HOMO_LUMO_gap": 0.20805, 
			 "cosmo_polarized_energy": -8.46, 
			 "cosmo_cavitation_energy": 22.52, 
			 "cosmo_dispersion_energy": -15.65, 
			 "cosmo_repulsion_energy": 1.22, 
			 "cosmo_total_nonelectrostatic_energy": 8.09, 
			 "SMD_solvation_energy": 6.29 
		},
		"coords": [
			{
				"x": 0.9032776415,
				"y": 0.8073504397,
				"z": 0.3348442624,
				"element": "C" 
			},
			{
				"x": -0.3981781505,
				"y": 0.0711028144,
				"z": 0.1568461981,
				"element": "C" 
			},
			{
				"x": -1.4774420529,
				"y": 0.2051667941,
				"z": 1.0427899556,
				"element": "C" 
			},
			{
				"x": -2.6670529976,
				"y": -0.4889072777,
				"z": 0.8507816098,
				"element": "C" 
			},
			{
				"x": -2.8148407355,
				"y": -1.3510469252,
				"z": -0.2500126391,
				"element": "C" 
			},
			{
				"x": -4.0267975368,
				"y": -2.0770026077,
				"z": -0.4718342138,
				"element": "C" 
			},
			{
				"x": -5.0203094922,
				"y": -2.6587559304,
				"z": -0.6351727994,
				"element": "N" 
			},
			{
				"x": -1.7426296931,
				"y": -1.4914637327,
				"z": -1.1400864117,
				"element": "C" 
			},
			{
				"x": -1.8437650203,
				"y": -2.3011927252,
				"z": -2.1982885623,
				"element": "F" 
			},
			{
				"x": -0.5613912746,
				"y": -0.7884080723,
				"z": -0.930258175,
				"element": "C" 
			},
			{
				"x": 0.4445504847,
				"y": -0.9506876397,
				"z": -1.8077106362,
				"element": "F" 
			},
			{
				"x": 1.1173476805,
				"y": 1.4439817039,
				"z": -0.5300622786,
				"element": "H" 
			},
			{
				"x": 1.741325116,
				"y": 0.1089176268,
				"z": 0.4298685544,
				"element": "H" 
			},
			{
				"x": 0.8754709027,
				"y": 1.4360367397,
				"z": 1.2272414369,
				"element": "H" 
			},
			{
				"x": -1.3757071068,
				"y": 0.8676982245,
				"z": 1.8965484491,
				"element": "H" 
			},
			{
				"x": -3.492757765,
				"y": -0.3752894323,
				"z": 1.5439052499,
				"element": "H" 
			}
		],
		 "valence_orbital": [ 
			{
				"type": "occ",
				"energy": -0.36279,
				"method": "rhf"
			},
			{
				"type": "occ",
				"energy": -0.34564,
				"method": "rhf"
			},
			{
				"type": "occ",
				"energy": -0.33833,
				"method": "rhf"
			},
			{
				"type": "occ",
				"energy": -0.26953,
				"method": "rhf"
			},
			{
				"type": "occ",
				"energy": -0.26839,
				"method": "rhf"
			},
			{
				"type": "unocc",
				"energy": -0.06034,
				"method": "rhf"
			},
			{
				"type": "unocc",
				"energy": -0.02551,
				"method": "rhf"
			},
			{
				"type": "unocc",
				"energy": 0.0234,
				"method": "rhf"
			},
			{
				"type": "unocc",
				"energy": 0.06201,
				"method": "rhf"
			},
			{
				"type": "unocc",
				"energy": 0.06788,
				"method": "rhf"
			}
		],
		"cosmo_sigma_profile": { 
			"-0.025": 0.0,
			"-0.024": 0.0,
			"-0.023": 0.0,
			"-0.022": 0.0,
			"-0.021": 0.0,
			"-0.02": 0.0,
			"-0.019": 0.0,
			"-0.018": 0.0,
			"-0.017": 0.0,
			"-0.016": 0.0,
			"-0.015": 0.0,
			"-0.014": 0.0,
			"-0.013": 0.0,
			"-0.012": 0.0,
			"-0.011": 0.0,
			"-0.01": 0.0,
			"-0.009": 0.682444216425,
			"-0.008": 3.22501423515,
			"-0.007": 5.84244395034,
			"-0.006": 7.34953044546,
			"-0.005": 9.57828201071,
			"-0.004": 9.4463219265,
			"-0.003": 17.6604027506,
			"-0.002": 21.8770327044,
			"-0.001": 20.3174985902,
			"0.0": 12.7893004048,
			"0.001": 10.6101950058,
			"0.002": 16.454645919,
			"0.003": 17.9082291939,
			"0.004": 4.78049070324,
			"0.005": 3.22902001219,
			"0.006": 2.17913280032,
			"0.007": 3.21308267366,
			"0.008": 3.24593182111,
			"0.009": 3.32502315187,
			"0.01": 3.00782765921,
			"0.011": 2.52325478874,
			"0.012": 2.27690630812,
			"0.013": 0.682146516254,
			"0.014": 0.0,
			"0.015": 0.0,
			"0.016": 0.0,
			"0.017": 0.0,
			"0.018": 0.0,
			"0.019": 0.0,
			"0.02": 0.0,
			"0.021": 0.0,
			"0.022": 0.0,
			"0.023": 0.0,
			"0.024": 0.0,
			"0.025": 0.0
		}
	}
}
