{
	 "smiles": "CC1(CCC2=C(C1)C=CC=C2)C(O)=O", 
	 "Tm": 379.15, 
	 "num_atms": 28, 
	 "gaussian": { 
		 "optdone": 1, 
		 "sigma_profile": "yes", 
		 "theory": "DFT", 
		 "functional": "B3LYP", 
		 "basiset": "6-31G**", 
		 "properties": { 
			 "R2extent": 2958.27, 
			 "electric_dipole_moment_norm": 1.34143539912, 
			 "electric_quadrupole_moment_norm": 6.67805567437, 
			 "total_energy": -616.19827199, 
			 "HOMO_LUMO_gap": 0.22739, 
			 "cosmo_polarized_energy": -9.33, 
			 "cosmo_cavitation_energy": 29.41, 
			 "cosmo_dispersion_energy": -21.21, 
			 "cosmo_repulsion_energy": 1.66, 
			 "cosmo_total_nonelectrostatic_energy": 9.86, 
			 "SMD_solvation_energy": 5.44 
		},
		"coords": [
			{
				"x": 1.0535042477,
				"y": -2.846985956,
				"z": 1.7634561993,
				"element": "C" 
			},
			{
				"x": 0.8508398598,
				"y": -1.581247246,
				"z": 0.8984880055,
				"element": "C" 
			},
			{
				"x": -0.634545474,
				"y": -1.4197858707,
				"z": 0.5212061453,
				"element": "C" 
			},
			{
				"x": -0.8970851351,
				"y": -0.1784410187,
				"z": -0.3422061926,
				"element": "C" 
			},
			{
				"x": -0.1523945039,
				"y": 1.0625219369,
				"z": 0.1162881054,
				"element": "C" 
			},
			{
				"x": 0.9073748399,
				"y": 0.9853645157,
				"z": 1.0365231744,
				"element": "C" 
			},
			{
				"x": 1.2976742593,
				"y": -0.3304320509,
				"z": 1.6853681245,
				"element": "C" 
			},
			{
				"x": 1.5940316255,
				"y": 2.1563144337,
				"z": 1.3905667113,
				"element": "C" 
			},
			{
				"x": 1.2415013439,
				"y": 3.3919320284,
				"z": 0.8554139963,
				"element": "C" 
			},
			{
				"x": 0.184931582,
				"y": 3.4707760217,
				"z": -0.0557806746,
				"element": "C" 
			},
			{
				"x": -0.4979501568,
				"y": 2.3131770829,
				"z": -0.4176819335,
				"element": "C" 
			},
			{
				"x": 1.6880761503,
				"y": -1.7830631203,
				"z": -0.3678614741,
				"element": "C" 
			},
			{
				"x": 3.0143266933,
				"y": -1.5972820215,
				"z": -0.1520142153,
				"element": "O" 
			},
			{
				"x": 1.2629314013,
				"y": -2.1307564983,
				"z": -1.4496380017,
				"element": "O" 
			},
			{
				"x": 0.7607116622,
				"y": -3.7479146531,
				"z": 1.2147276366,
				"element": "H" 
			},
			{
				"x": 0.4346000332,
				"y": -2.7824466134,
				"z": 2.6643481435,
				"element": "H" 
			},
			{
				"x": 2.0979598663,
				"y": -2.9537950477,
				"z": 2.0704105849,
				"element": "H" 
			},
			{
				"x": -0.9852803909,
				"y": -2.312822989,
				"z": -0.0045624875,
				"element": "H" 
			},
			{
				"x": -1.2009950173,
				"y": -1.3506750603,
				"z": 1.4586834041,
				"element": "H" 
			},
			{
				"x": -1.9738222523,
				"y": 0.0285365807,
				"z": -0.3684360178,
				"element": "H" 
			},
			{
				"x": -0.6057210638,
				"y": -0.4029308807,
				"z": -1.3751444185,
				"element": "H" 
			},
			{
				"x": 0.8317655914,
				"y": -0.3902292811,
				"z": 2.6796577384,
				"element": "H" 
			},
			{
				"x": 2.3783122132,
				"y": -0.3575529499,
				"z": 1.852487792,
				"element": "H" 
			},
			{
				"x": 2.4174320677,
				"y": 2.0902003817,
				"z": 2.0985013575,
				"element": "H" 
			},
			{
				"x": 1.7871173337,
				"y": 4.2861722335,
				"z": 1.1431045726,
				"element": "H" 
			},
			{
				"x": -0.1023916844,
				"y": 4.4281099793,
				"z": -0.4815261814,
				"element": "H" 
			},
			{
				"x": -1.3178050429,
				"y": 2.3716654855,
				"z": -1.1304685945,
				"element": "H" 
			},
			{
				"x": 3.4501999505,
				"y": -1.7882094224,
				"z": -0.9996114999,
				"element": "H" 
			}
		],
		 "valence_orbital": [ 
			{
				"type": "occ",
				"energy": -0.31203,
				"method": "rhf"
			},
			{
				"type": "occ",
				"energy": -0.30781,
				"method": "rhf"
			},
			{
				"type": "occ",
				"energy": -0.2709,
				"method": "rhf"
			},
			{
				"type": "occ",
				"energy": -0.23737,
				"method": "rhf"
			},
			{
				"type": "occ",
				"energy": -0.231,
				"method": "rhf"
			},
			{
				"type": "unocc",
				"energy": -0.00361,
				"method": "rhf"
			},
			{
				"type": "unocc",
				"energy": 0.00773,
				"method": "rhf"
			},
			{
				"type": "unocc",
				"energy": 0.01499,
				"method": "rhf"
			},
			{
				"type": "unocc",
				"energy": 0.07435,
				"method": "rhf"
			},
			{
				"type": "unocc",
				"energy": 0.09546,
				"method": "rhf"
			}
		],
		"cosmo_sigma_profile": { 
			"-0.025": 0.0,
			"-0.024": 0.0,
			"-0.023": 0.0,
			"-0.022": 0.0,
			"-0.021": 0.0,
			"-0.02": 0.0,
			"-0.019": 0.0,
			"-0.018": 0.421321222522,
			"-0.017": 1.19661889972,
			"-0.016": 0.500096466822,
			"-0.015": 1.09973931554,
			"-0.014": 0.580025861923,
			"-0.013": 0.784785180117,
			"-0.012": 0.610788488607,
			"-0.011": 0.742374891094,
			"-0.01": 0.832316662703,
			"-0.009": 0.549967355065,
			"-0.008": 0.41018402071,
			"-0.007": 0.878457678876,
			"-0.006": 1.33280922612,
			"-0.005": 8.47736660923,
			"-0.004": 20.9990668838,
			"-0.003": 28.2969144617,
			"-0.002": 26.9624382068,
			"-0.001": 26.5714095829,
			"0.0": 23.4324831475,
			"0.001": 14.1757124719,
			"0.002": 8.95684629484,
			"0.003": 10.2573952893,
			"0.004": 11.2898744788,
			"0.005": 10.3372139618,
			"0.006": 9.98116794806,
			"0.007": 7.94456240569,
			"0.008": 2.19897587946,
			"0.009": 1.6775217967,
			"0.01": 1.55893489656,
			"0.011": 3.0180117042,
			"0.012": 4.02270163515,
			"0.013": 0.2964352397,
			"0.014": 0.0,
			"0.015": 0.0,
			"0.016": 0.0,
			"0.017": 0.0,
			"0.018": 0.0,
			"0.019": 0.0,
			"0.02": 0.0,
			"0.021": 0.0,
			"0.022": 0.0,
			"0.023": 0.0,
			"0.024": 0.0,
			"0.025": 0.0
		}
	}
}
