{
	 "smiles": "CSC1=CC=CC=C1C(=O)N(NC(=O)C1=CC=CC=C1)C(C)(C)C", 
	 "Tm": 469.15, 
	 "num_atms": 46, 
	 "gaussian": { 
		 "optdone": 1, 
		 "sigma_profile": "yes", 
		 "theory": "DFT", 
		 "functional": "B3LYP", 
		 "basiset": "6-31G**", 
		 "properties": { 
			 "R2extent": 10907.2966, 
			 "electric_dipole_moment_norm": 2.65261612187, 
			 "electric_quadrupole_moment_norm": 24.4019740199, 
			 "total_energy": -1395.41611542, 
			 "HOMO_LUMO_gap": 0.1729, 
			 "cosmo_polarized_energy": -18.14, 
			 "cosmo_cavitation_energy": 49.55, 
			 "cosmo_dispersion_energy": -32.87, 
			 "cosmo_repulsion_energy": 2.44, 
			 "cosmo_total_nonelectrostatic_energy": 19.12, 
			 "SMD_solvation_energy": 9.78 
		},
		"coords": [
			{
				"x": -3.4186840353,
				"y": -3.5452642144,
				"z": 0.2211767965,
				"element": "C" 
			},
			{
				"x": -2.6602213321,
				"y": -1.8855296981,
				"z": 0.1588780907,
				"element": "S" 
			},
			{
				"x": -0.9190461674,
				"y": -2.2536042826,
				"z": 0.3178475115,
				"element": "C" 
			},
			{
				"x": -0.4479207117,
				"y": -3.4592424299,
				"z": 0.855613139,
				"element": "C" 
			},
			{
				"x": 0.9210825429,
				"y": -3.7010097791,
				"z": 0.9813750318,
				"element": "C" 
			},
			{
				"x": 1.8509723758,
				"y": -2.7438103272,
				"z": 0.5775783613,
				"element": "C" 
			},
			{
				"x": 1.3973620532,
				"y": -1.548639177,
				"z": 0.0227543044,
				"element": "C" 
			},
			{
				"x": 0.0262656085,
				"y": -1.3004664351,
				"z": -0.1250341598,
				"element": "C" 
			},
			{
				"x": -0.383170773,
				"y": 0.0547032265,
				"z": -0.6053059461,
				"element": "C" 
			},
			{
				"x": -1.1572253431,
				"y": 0.7446829888,
				"z": 0.0519383501,
				"element": "O" 
			},
			{
				"x": 0.2761507736,
				"y": 0.5874526028,
				"z": -1.7238392308,
				"element": "N" 
			},
			{
				"x": 0.1923225661,
				"y": 1.9912003494,
				"z": -1.7504725224,
				"element": "N" 
			},
			{
				"x": 1.2844516317,
				"y": 2.6793592049,
				"z": -1.2134471808,
				"element": "C" 
			},
			{
				"x": 2.3480391502,
				"y": 2.1363826526,
				"z": -0.9570822569,
				"element": "O" 
			},
			{
				"x": 1.0655856561,
				"y": 4.1507880601,
				"z": -1.0209802421,
				"element": "C" 
			},
			{
				"x": 1.9568567566,
				"y": 4.8262753495,
				"z": -0.175637797,
				"element": "C" 
			},
			{
				"x": 1.8096439496,
				"y": 6.1915259161,
				"z": 0.0547615978,
				"element": "C" 
			},
			{
				"x": 0.7768355267,
				"y": 6.8988536869,
				"z": -0.5667205038,
				"element": "C" 
			},
			{
				"x": -0.1046900844,
				"y": 6.2363843701,
				"z": -1.4229984869,
				"element": "C" 
			},
			{
				"x": 0.0374058437,
				"y": 4.8675803083,
				"z": -1.6510868803,
				"element": "C" 
			},
			{
				"x": 0.3320166849,
				"y": -0.0136224795,
				"z": -3.1106631876,
				"element": "C" 
			},
			{
				"x": 1.604025924,
				"y": 0.5094348033,
				"z": -3.7978823823,
				"element": "C" 
			},
			{
				"x": 0.3713407002,
				"y": -1.5480762438,
				"z": -3.0854963488,
				"element": "C" 
			},
			{
				"x": -0.9242049124,
				"y": 0.4318603956,
				"z": -3.888598533,
				"element": "C" 
			},
			{
				"x": -2.9642323249,
				"y": -4.2232012164,
				"z": -0.5049803151,
				"element": "H" 
			},
			{
				"x": -3.375422179,
				"y": -3.9820911518,
				"z": 1.2215965307,
				"element": "H" 
			},
			{
				"x": -4.4675048566,
				"y": -3.3918375859,
				"z": -0.0427527478,
				"element": "H" 
			},
			{
				"x": -1.1462194222,
				"y": -4.2151141766,
				"z": 1.1948892206,
				"element": "H" 
			},
			{
				"x": 1.2556355653,
				"y": -4.6411301646,
				"z": 1.4111329276,
				"element": "H" 
			},
			{
				"x": 2.9152003653,
				"y": -2.9234171821,
				"z": 0.6931398395,
				"element": "H" 
			},
			{
				"x": 2.0932134121,
				"y": -0.7772503249,
				"z": -0.2934893734,
				"element": "H" 
			},
			{
				"x": -0.718629481,
				"y": 2.3212476032,
				"z": -1.4421166181,
				"element": "H" 
			},
			{
				"x": 2.7557256597,
				"y": 4.257936686,
				"z": 0.2883416389,
				"element": "H" 
			},
			{
				"x": 2.499698555,
				"y": 6.7058891487,
				"z": 0.7172158001,
				"element": "H" 
			},
			{
				"x": 0.663146156,
				"y": 7.9644602208,
				"z": -0.3889910601,
				"element": "H" 
			},
			{
				"x": -0.8990556691,
				"y": 6.7860811798,
				"z": -1.9193033331,
				"element": "H" 
			},
			{
				"x": -0.6351068872,
				"y": 4.3685297128,
				"z": -2.3416430259,
				"element": "H" 
			},
			{
				"x": 1.5800426144,
				"y": 1.5960831938,
				"z": -3.9047213706,
				"element": "H" 
			},
			{
				"x": 1.6872591911,
				"y": 0.0731065772,
				"z": -4.7983713889,
				"element": "H" 
			},
			{
				"x": 2.4925208822,
				"y": 0.2432858382,
				"z": -3.2206298776,
				"element": "H" 
			},
			{
				"x": 1.2571438655,
				"y": -1.933166024,
				"z": -2.5787514227,
				"element": "H" 
			},
			{
				"x": -0.5146022342,
				"y": -1.9816810246,
				"z": -2.615632367,
				"element": "H" 
			},
			{
				"x": 0.398177964,
				"y": -1.8934356228,
				"z": -4.1235758341,
				"element": "H" 
			},
			{
				"x": -0.8881586579,
				"y": 0.0427643688,
				"z": -4.9111607541,
				"element": "H" 
			},
			{
				"x": -1.833842559,
				"y": 0.0519964503,
				"z": -3.411667125,
				"element": "H" 
			},
			{
				"x": -0.9869843439,
				"y": 1.5212246462,
				"z": -3.9456068683,
				"element": "H" 
			}
		],
		 "valence_orbital": [ 
			{
				"type": "occ",
				"energy": -0.25775,
				"method": "rhf"
			},
			{
				"type": "occ",
				"energy": -0.25478,
				"method": "rhf"
			},
			{
				"type": "occ",
				"energy": -0.25017,
				"method": "rhf"
			},
			{
				"type": "occ",
				"energy": -0.24163,
				"method": "rhf"
			},
			{
				"type": "occ",
				"energy": -0.21263,
				"method": "rhf"
			},
			{
				"type": "unocc",
				"energy": -0.03973,
				"method": "rhf"
			},
			{
				"type": "unocc",
				"energy": -0.03627,
				"method": "rhf"
			},
			{
				"type": "unocc",
				"energy": -0.00833,
				"method": "rhf"
			},
			{
				"type": "unocc",
				"energy": -0.00745,
				"method": "rhf"
			},
			{
				"type": "unocc",
				"energy": 0.02646,
				"method": "rhf"
			}
		],
		"cosmo_sigma_profile": { 
			"-0.025": 0.0,
			"-0.024": 0.0,
			"-0.023": 0.0,
			"-0.022": 0.0,
			"-0.021": 0.0,
			"-0.02": 0.0,
			"-0.019": 0.0,
			"-0.018": 0.0,
			"-0.017": 0.0,
			"-0.016": 0.0,
			"-0.015": 0.0,
			"-0.014": 0.0,
			"-0.013": 0.0,
			"-0.012": 0.182589703409,
			"-0.011": 0.562073159589,
			"-0.01": 1.1786938607,
			"-0.009": 0.738424314968,
			"-0.008": 1.46778980681,
			"-0.007": 7.44644589573,
			"-0.006": 20.8467671153,
			"-0.005": 25.8946865561,
			"-0.004": 32.7257646894,
			"-0.003": 33.5675732278,
			"-0.002": 38.6477350558,
			"-0.001": 36.2694405871,
			"0.0": 39.8459850792,
			"0.001": 29.7260090148,
			"0.002": 22.1584150305,
			"0.003": 23.15791338,
			"0.004": 26.4859282588,
			"0.005": 10.5446916608,
			"0.006": 6.49813374731,
			"0.007": 7.37244316675,
			"0.008": 5.86279961818,
			"0.009": 4.78048551991,
			"0.01": 4.15672387714,
			"0.011": 4.80525929145,
			"0.012": 5.6501895057,
			"0.013": 3.18836555738,
			"0.014": 0.110474722306,
			"0.015": 0.0,
			"0.016": 0.0,
			"0.017": 0.0,
			"0.018": 0.0,
			"0.019": 0.0,
			"0.02": 0.0,
			"0.021": 0.0,
			"0.022": 0.0,
			"0.023": 0.0,
			"0.024": 0.0,
			"0.025": 0.0
		}
	}
}
