{
	 "smiles": "O=S1(=O)CCC(CC2=NC3=C(N2)C=CC=C3)C1", 
	 "Tm": 430.15, 
	 "num_atms": 31, 
	 "gaussian": { 
		 "optdone": 1, 
		 "sigma_profile": "yes", 
		 "theory": "DFT", 
		 "functional": "B3LYP", 
		 "basiset": "6-31G**", 
		 "properties": { 
			 "R2extent": 5832.679, 
			 "electric_dipole_moment_norm": 8.20324962743, 
			 "electric_quadrupole_moment_norm": 21.7094124768, 
			 "total_energy": -1123.81243964, 
			 "HOMO_LUMO_gap": 0.20792, 
			 "cosmo_polarized_energy": -23.47, 
			 "cosmo_cavitation_energy": 34.24, 
			 "cosmo_dispersion_energy": -25.55, 
			 "cosmo_repulsion_energy": 1.93, 
			 "cosmo_total_nonelectrostatic_energy": 10.62, 
			 "SMD_solvation_energy": 3.38 
		},
		"coords": [
			{
				"x": 4.0407455268,
				"y": -1.1543472458,
				"z": -1.0761459041,
				"element": "O" 
			},
			{
				"x": 3.0168592671,
				"y": -2.1150228515,
				"z": -0.6394410279,
				"element": "S" 
			},
			{
				"x": 3.411699143,
				"y": -3.4304452329,
				"z": -0.1002536837,
				"element": "O" 
			},
			{
				"x": 1.7324399678,
				"y": -2.3749395999,
				"z": -1.8987722008,
				"element": "C" 
			},
			{
				"x": 0.5080788908,
				"y": -2.8278085123,
				"z": -1.0947361852,
				"element": "C" 
			},
			{
				"x": 0.5450927765,
				"y": -2.1977711199,
				"z": 0.3507909135,
				"element": "C" 
			},
			{
				"x": -0.7307625972,
				"y": -1.4158071638,
				"z": 0.7120404593,
				"element": "C" 
			},
			{
				"x": -1.0265578738,
				"y": -0.2173210405,
				"z": -0.146045649,
				"element": "C" 
			},
			{
				"x": -0.3469165882,
				"y": 0.1784263482,
				"z": -1.1975020326,
				"element": "N" 
			},
			{
				"x": -1.0002567966,
				"y": 1.3170496231,
				"z": -1.6571295873,
				"element": "C" 
			},
			{
				"x": -2.1167390271,
				"y": 1.6025565174,
				"z": -0.8370058661,
				"element": "C" 
			},
			{
				"x": -2.1055256538,
				"y": 0.6016231882,
				"z": 0.122215507,
				"element": "N" 
			},
			{
				"x": -2.9573667215,
				"y": 2.69286488,
				"z": -1.0652927146,
				"element": "C" 
			},
			{
				"x": -2.646065642,
				"y": 3.5043301034,
				"z": -2.154339725,
				"element": "C" 
			},
			{
				"x": -1.5372092344,
				"y": 3.2355721238,
				"z": -2.981180082,
				"element": "C" 
			},
			{
				"x": -0.7042613831,
				"y": 2.1459189124,
				"z": -2.7456022081,
				"element": "C" 
			},
			{
				"x": 1.831895996,
				"y": -1.3640272608,
				"z": 0.5195734519,
				"element": "C" 
			},
			{
				"x": 1.5643617365,
				"y": -1.4070735332,
				"z": -2.3751778462,
				"element": "H" 
			},
			{
				"x": 2.0985278123,
				"y": -3.1067452806,
				"z": -2.6209036249,
				"element": "H" 
			},
			{
				"x": 0.5042636691,
				"y": -3.9169137143,
				"z": -1.0074124417,
				"element": "H" 
			},
			{
				"x": -0.3988030364,
				"y": -2.5264857183,
				"z": -1.6228878778,
				"element": "H" 
			},
			{
				"x": 0.6035021512,
				"y": -3.0270935057,
				"z": 1.0615029002,
				"element": "H" 
			},
			{
				"x": -0.6742302807,
				"y": -1.0938657056,
				"z": 1.7614822904,
				"element": "H" 
			},
			{
				"x": -1.58588605,
				"y": -2.1051096897,
				"z": 0.6591438675,
				"element": "H" 
			},
			{
				"x": -2.7614054643,
				"y": 0.4893947906,
				"z": 0.87980297,
				"element": "H" 
			},
			{
				"x": -3.8122285829,
				"y": 2.9041954638,
				"z": -0.4299735203,
				"element": "H" 
			},
			{
				"x": -3.2728167401,
				"y": 4.3644798218,
				"z": -2.3698375441,
				"element": "H" 
			},
			{
				"x": -1.3309460945,
				"y": 3.8955654946,
				"z": -3.818300999,
				"element": "H" 
			},
			{
				"x": 0.1524273873,
				"y": 1.9357827478,
				"z": -3.3777273641,
				"element": "H" 
			},
			{
				"x": 2.2603576142,
				"y": -1.410641726,
				"z": 1.5225641781,
				"element": "H" 
			},
			{
				"x": 1.7043258277,
				"y": -0.3275411145,
				"z": 0.2033515465,
				"element": "H" 
			}
		],
		 "valence_orbital": [ 
			{
				"type": "occ",
				"energy": -0.28684,
				"method": "rhf"
			},
			{
				"type": "occ",
				"energy": -0.27963,
				"method": "rhf"
			},
			{
				"type": "occ",
				"energy": -0.26694,
				"method": "rhf"
			},
			{
				"type": "occ",
				"energy": -0.23666,
				"method": "rhf"
			},
			{
				"type": "occ",
				"energy": -0.23279,
				"method": "rhf"
			},
			{
				"type": "unocc",
				"energy": -0.02487,
				"method": "rhf"
			},
			{
				"type": "unocc",
				"energy": 0.0126,
				"method": "rhf"
			},
			{
				"type": "unocc",
				"energy": 0.03983,
				"method": "rhf"
			},
			{
				"type": "unocc",
				"energy": 0.05753,
				"method": "rhf"
			},
			{
				"type": "unocc",
				"energy": 0.0711,
				"method": "rhf"
			}
		],
		"cosmo_sigma_profile": { 
			"-0.025": 0.0,
			"-0.024": 0.0,
			"-0.023": 0.0,
			"-0.022": 0.0,
			"-0.021": 0.0,
			"-0.02": 0.0,
			"-0.019": 0.0,
			"-0.018": 0.0,
			"-0.017": 0.102675302353,
			"-0.016": 1.48362262071,
			"-0.015": 1.40903599251,
			"-0.014": 1.34636485599,
			"-0.013": 1.02225298122,
			"-0.012": 1.65156687554,
			"-0.011": 1.17792623481,
			"-0.01": 1.19332247866,
			"-0.009": 1.67786443602,
			"-0.008": 4.89875850638,
			"-0.007": 7.7392814949,
			"-0.006": 15.4254910782,
			"-0.005": 27.9186047817,
			"-0.004": 27.3749429197,
			"-0.003": 23.3696103739,
			"-0.002": 15.9700056062,
			"-0.001": 13.7220808435,
			"0.0": 10.1841838317,
			"0.001": 9.82607173177,
			"0.002": 12.137642681,
			"0.003": 11.3008851245,
			"0.004": 13.1846553707,
			"0.005": 13.0530471508,
			"0.006": 13.6983923238,
			"0.007": 5.57859687833,
			"0.008": 3.77612610898,
			"0.009": 2.81950454868,
			"0.01": 2.8762091263,
			"0.011": 8.21675773364,
			"0.012": 12.4744969834,
			"0.013": 4.50112993617,
			"0.014": 0.00113428581149,
			"0.015": 0.0,
			"0.016": 0.0,
			"0.017": 0.0,
			"0.018": 0.0,
			"0.019": 0.0,
			"0.02": 0.0,
			"0.021": 0.0,
			"0.022": 0.0,
			"0.023": 0.0,
			"0.024": 0.0,
			"0.025": 0.0
		}
	}
}
