{
	 "smiles": "OC(=O)C1=CC(NC(=O)NC2CC2)=CC=C1", 
	 "Tm": 510.15, 
	 "num_atms": 28, 
	 "gaussian": { 
		 "optdone": 1, 
		 "sigma_profile": "yes", 
		 "theory": "DFT", 
		 "functional": "B3LYP", 
		 "basiset": "6-31G**", 
		 "properties": { 
			 "R2extent": 4607.3729, 
			 "electric_dipole_moment_norm": 4.49700994884, 
			 "electric_quadrupole_moment_norm": 22.0317161583, 
			 "total_energy": -761.575770827, 
			 "HOMO_LUMO_gap": 0.17535, 
			 "cosmo_polarized_energy": -22.98, 
			 "cosmo_cavitation_energy": 32.87, 
			 "cosmo_dispersion_energy": -23.26, 
			 "cosmo_repulsion_energy": 1.84, 
			 "cosmo_total_nonelectrostatic_energy": 11.45, 
			 "SMD_solvation_energy": 6.7 
		},
		"coords": [
			{
				"x": 1.8836446261,
				"y": -0.6767409016,
				"z": -4.0370193308,
				"element": "O" 
			},
			{
				"x": 1.5879757513,
				"y": -0.692235916,
				"z": -2.7112506607,
				"element": "C" 
			},
			{
				"x": 1.9648761543,
				"y": -1.606165535,
				"z": -2.015720811,
				"element": "O" 
			},
			{
				"x": 0.7907556264,
				"y": 0.4665303998,
				"z": -2.185538943,
				"element": "C" 
			},
			{
				"x": 0.0857001285,
				"y": 0.2592159958,
				"z": -0.9948987643,
				"element": "C" 
			},
			{
				"x": -0.6624821521,
				"y": 1.2954045417,
				"z": -0.4179592359,
				"element": "C" 
			},
			{
				"x": -1.4000341823,
				"y": 1.1368011766,
				"z": 0.7605204804,
				"element": "N" 
			},
			{
				"x": -1.1958486352,
				"y": 0.3548526488,
				"z": 1.9118557461,
				"element": "C" 
			},
			{
				"x": -2.0770666301,
				"y": 0.2970674443,
				"z": 2.7575687055,
				"element": "O" 
			},
			{
				"x": 0.0167406978,
				"y": -0.2701263775,
				"z": 2.0264865065,
				"element": "N" 
			},
			{
				"x": 0.3035235485,
				"y": -1.1447069098,
				"z": 3.1290542533,
				"element": "C" 
			},
			{
				"x": 0.5331143502,
				"y": -0.5618445485,
				"z": 4.4978606515,
				"element": "C" 
			},
			{
				"x": 1.6951509826,
				"y": -1.1081174502,
				"z": 3.7057385832,
				"element": "C" 
			},
			{
				"x": -0.7138750533,
				"y": 2.5370551378,
				"z": -1.0825276089,
				"element": "C" 
			},
			{
				"x": -0.0193421043,
				"y": 2.7368477755,
				"z": -2.2700508001,
				"element": "C" 
			},
			{
				"x": 0.7475880089,
				"y": 1.7108630293,
				"z": -2.8259646946,
				"element": "C" 
			},
			{
				"x": 1.3810056515,
				"y": 0.020736973,
				"z": -4.4806510477,
				"element": "H" 
			},
			{
				"x": 0.1087009805,
				"y": -0.7314472088,
				"z": -0.5575003903,
				"element": "H" 
			},
			{
				"x": -2.2146471405,
				"y": 1.7231111093,
				"z": 0.8776220035,
				"element": "H" 
			},
			{
				"x": 0.7210910951,
				"y": -0.1486604011,
				"z": 1.3154788961,
				"element": "H" 
			},
			{
				"x": -0.1939658854,
				"y": -2.1114991296,
				"z": 3.0836224588,
				"element": "H" 
			},
			{
				"x": 0.4443381523,
				"y": 0.5146238106,
				"z": 4.593467896,
				"element": "H" 
			},
			{
				"x": 0.1679037698,
				"y": -1.1244994524,
				"z": 5.3507708642,
				"element": "H" 
			},
			{
				"x": 2.3960369123,
				"y": -0.3943137729,
				"z": 3.2820441645,
				"element": "H" 
			},
			{
				"x": 2.143431467,
				"y": -2.0501442057,
				"z": 4.0047717913,
				"element": "H" 
			},
			{
				"x": -1.2919070129,
				"y": 3.3474912135,
				"z": -0.6469843559,
				"element": "H" 
			},
			{
				"x": -0.0579421761,
				"y": 3.7077287631,
				"z": -2.7546043803,
				"element": "H" 
			},
			{
				"x": 1.3323330689,
				"y": 1.9049717897,
				"z": -3.7208919772,
				"element": "H" 
			}
		],
		 "valence_orbital": [ 
			{
				"type": "occ",
				"energy": -0.28557,
				"method": "rhf"
			},
			{
				"type": "occ",
				"energy": -0.27292,
				"method": "rhf"
			},
			{
				"type": "occ",
				"energy": -0.26145,
				"method": "rhf"
			},
			{
				"type": "occ",
				"energy": -0.25029,
				"method": "rhf"
			},
			{
				"type": "occ",
				"energy": -0.23435,
				"method": "rhf"
			},
			{
				"type": "unocc",
				"energy": -0.059,
				"method": "rhf"
			},
			{
				"type": "unocc",
				"energy": -0.02922,
				"method": "rhf"
			},
			{
				"type": "unocc",
				"energy": 0.03423,
				"method": "rhf"
			},
			{
				"type": "unocc",
				"energy": 0.05681,
				"method": "rhf"
			},
			{
				"type": "unocc",
				"energy": 0.06503,
				"method": "rhf"
			}
		],
		"cosmo_sigma_profile": { 
			"-0.025": 0.0,
			"-0.024": 0.0,
			"-0.023": 0.0,
			"-0.022": 0.0,
			"-0.021": 0.0,
			"-0.02": 0.0,
			"-0.019": 0.0749036534949,
			"-0.018": 0.882420585734,
			"-0.017": 1.22421707035,
			"-0.016": 0.651452858791,
			"-0.015": 1.08602719672,
			"-0.014": 1.71282991254,
			"-0.013": 2.02954089023,
			"-0.012": 3.15362008731,
			"-0.011": 1.75609999804,
			"-0.01": 3.81158577108,
			"-0.009": 3.99025829028,
			"-0.008": 5.02036594315,
			"-0.007": 7.97756743091,
			"-0.006": 10.0871093649,
			"-0.005": 18.2508040539,
			"-0.004": 18.7448725387,
			"-0.003": 16.4502441816,
			"-0.002": 16.0197769961,
			"-0.001": 17.3780482928,
			"0.0": 18.5135205266,
			"0.001": 19.7805446111,
			"0.002": 17.409693193,
			"0.003": 15.194698896,
			"0.004": 6.1394295948,
			"0.005": 6.03351155953,
			"0.006": 3.87958504184,
			"0.007": 3.74442115855,
			"0.008": 3.81870514646,
			"0.009": 4.92131444865,
			"0.01": 6.05795657519,
			"0.011": 6.46494051516,
			"0.012": 6.53175330275,
			"0.013": 4.41574922481,
			"0.014": 6.33040591516,
			"0.015": 1.90072130172,
			"0.016": 0.00310420811767,
			"0.017": 0.0,
			"0.018": 0.0,
			"0.019": 0.0,
			"0.02": 0.0,
			"0.021": 0.0,
			"0.022": 0.0,
			"0.023": 0.0,
			"0.024": 0.0,
			"0.025": 0.0
		}
	}
}
