{
	 "smiles": "NC1=CN=C(CC2=CC=C(F)C=C2)N=C1", 
	 "Tm": 397.15, 
	 "num_atms": 25, 
	 "gaussian": { 
		 "optdone": 1, 
		 "sigma_profile": "yes", 
		 "theory": "DFT", 
		 "functional": "B3LYP", 
		 "basiset": "6-31G**", 
		 "properties": { 
			 "R2extent": 4834.0472, 
			 "electric_dipole_moment_norm": 4.17119338559, 
			 "electric_quadrupole_moment_norm": 14.1635040566, 
			 "total_energy": -689.287215835, 
			 "HOMO_LUMO_gap": 0.18497, 
			 "cosmo_polarized_energy": -13.83, 
			 "cosmo_cavitation_energy": 30.46, 
			 "cosmo_dispersion_energy": -21.7, 
			 "cosmo_repulsion_energy": 1.68, 
			 "cosmo_total_nonelectrostatic_energy": 10.45, 
			 "SMD_solvation_energy": 2.93 
		},
		"coords": [
			{
				"x": 3.3786605919,
				"y": 1.4109228418,
				"z": 2.8784549997,
				"element": "N" 
			},
			{
				"x": 2.5586913557,
				"y": 1.6750164537,
				"z": 1.7883679883,
				"element": "C" 
			},
			{
				"x": 1.2068294426,
				"y": 2.0263761421,
				"z": 1.927226302,
				"element": "C" 
			},
			{
				"x": 0.4296228214,
				"y": 2.3352790078,
				"z": 0.8901574979,
				"element": "N" 
			},
			{
				"x": 0.9888309703,
				"y": 2.3034321391,
				"z": -0.3280360811,
				"element": "C" 
			},
			{
				"x": 0.102875788,
				"y": 2.6145312199,
				"z": -1.5174354593,
				"element": "C" 
			},
			{
				"x": -0.499240396,
				"y": 1.3594719846,
				"z": -2.1300648206,
				"element": "C" 
			},
			{
				"x": 0.2600212591,
				"y": 0.5494111991,
				"z": -2.9863164887,
				"element": "C" 
			},
			{
				"x": -0.273347565,
				"y": -0.6152522146,
				"z": -3.5373008636,
				"element": "C" 
			},
			{
				"x": -1.58104759,
				"y": -0.9656512174,
				"z": -3.2199755048,
				"element": "C" 
			},
			{
				"x": -2.1068269387,
				"y": -2.0912793537,
				"z": -3.7533034608,
				"element": "F" 
			},
			{
				"x": -2.362477604,
				"y": -0.1907206987,
				"z": -2.3723233766,
				"element": "C" 
			},
			{
				"x": -1.8107034613,
				"y": 0.9713413451,
				"z": -1.8301559469,
				"element": "C" 
			},
			{
				"x": 2.2675040111,
				"y": 1.9822211245,
				"z": -0.5765599376,
				"element": "N" 
			},
			{
				"x": 3.0346119722,
				"y": 1.6738445068,
				"z": 0.4676054263,
				"element": "C" 
			},
			{
				"x": 2.9042416755,
				"y": 1.107416747,
				"z": 3.7178595375,
				"element": "H" 
			},
			{
				"x": 4.1996652925,
				"y": 0.8547237964,
				"z": 2.6825402185,
				"element": "H" 
			},
			{
				"x": 0.7455955375,
				"y": 2.058610756,
				"z": 2.9152946097,
				"element": "H" 
			},
			{
				"x": 0.7048343764,
				"y": 3.1385835308,
				"z": -2.2659379241,
				"element": "H" 
			},
			{
				"x": -0.6949450571,
				"y": 3.2835717094,
				"z": -1.1855108351,
				"element": "H" 
			},
			{
				"x": 1.2835606365,
				"y": 0.8317398103,
				"z": -3.2151751263,
				"element": "H" 
			},
			{
				"x": 0.3038195992,
				"y": -1.2468042356,
				"z": -4.2043532205,
				"element": "H" 
			},
			{
				"x": -3.3789267722,
				"y": -0.4971661374,
				"z": -2.1493513849,
				"element": "H" 
			},
			{
				"x": -2.4098275804,
				"y": 1.5842246523,
				"z": -1.1624304312,
				"element": "H" 
			},
			{
				"x": 4.0737776347,
				"y": 1.4169548908,
				"z": 0.2574242822,
				"element": "H" 
			}
		],
		 "valence_orbital": [ 
			{
				"type": "occ",
				"energy": -0.30231,
				"method": "rhf"
			},
			{
				"type": "occ",
				"energy": -0.25093,
				"method": "rhf"
			},
			{
				"type": "occ",
				"energy": -0.24301,
				"method": "rhf"
			},
			{
				"type": "occ",
				"energy": -0.23228,
				"method": "rhf"
			},
			{
				"type": "occ",
				"energy": -0.22132,
				"method": "rhf"
			},
			{
				"type": "unocc",
				"energy": -0.03635,
				"method": "rhf"
			},
			{
				"type": "unocc",
				"energy": -0.01147,
				"method": "rhf"
			},
			{
				"type": "unocc",
				"energy": -0.00125,
				"method": "rhf"
			},
			{
				"type": "unocc",
				"energy": 0.01644,
				"method": "rhf"
			},
			{
				"type": "unocc",
				"energy": 0.06499,
				"method": "rhf"
			}
		],
		"cosmo_sigma_profile": { 
			"-0.025": 0.0,
			"-0.024": 0.0,
			"-0.023": 0.0,
			"-0.022": 0.0,
			"-0.021": 0.0,
			"-0.02": 0.0,
			"-0.019": 0.0,
			"-0.018": 0.0,
			"-0.017": 0.0,
			"-0.016": 0.0,
			"-0.015": 0.0,
			"-0.014": 0.220790256704,
			"-0.013": 3.13072031064,
			"-0.012": 2.74835294032,
			"-0.011": 3.7899856357,
			"-0.01": 3.46494018238,
			"-0.009": 3.27621639148,
			"-0.008": 3.83246255552,
			"-0.007": 6.99095558472,
			"-0.006": 10.8366138354,
			"-0.005": 11.5227068271,
			"-0.004": 15.2796760259,
			"-0.003": 12.8373139869,
			"-0.002": 11.9610010265,
			"-0.001": 13.4462442247,
			"0.0": 17.4435848832,
			"0.001": 22.1658509035,
			"0.002": 17.5678250843,
			"0.003": 16.5315289123,
			"0.004": 25.5308231034,
			"0.005": 16.5561162728,
			"0.006": 3.98236763545,
			"0.007": 3.43014069109,
			"0.008": 3.46267646221,
			"0.009": 3.07922645436,
			"0.01": 2.04355148042,
			"0.011": 2.20427857104,
			"0.012": 1.86442311001,
			"0.013": 1.9793412267,
			"0.014": 1.14997919245,
			"0.015": 0.927516518044,
			"0.016": 0.151649154651,
			"0.017": 0.0,
			"0.018": 0.0,
			"0.019": 0.0,
			"0.02": 0.0,
			"0.021": 0.0,
			"0.022": 0.0,
			"0.023": 0.0,
			"0.024": 0.0,
			"0.025": 0.0
		}
	}
}
