{
	 "smiles": "C1=CC=C(C=C1)C#CC1=C2C=CC=CC2=C(C#CC2=CC=CC=C2)C2=C1C=CC=C2", 
	 "Tm": 527.65, 
	 "num_atms": 48, 
	 "gaussian": { 
		 "optdone": 1, 
		 "sigma_profile": "yes", 
		 "theory": "DFT", 
		 "functional": "B3LYP", 
		 "basiset": "6-31G**", 
		 "properties": { 
			 "R2extent": 19752.1881, 
			 "electric_dipole_moment_norm": 0.000141421356237, 
			 "electric_quadrupole_moment_norm": 28.6241744969, 
			 "total_energy": -1153.96136679, 
			 "HOMO_LUMO_gap": 0.09646, 
			 "cosmo_polarized_energy": -10.6, 
			 "cosmo_cavitation_energy": 54.83, 
			 "cosmo_dispersion_energy": -37.95, 
			 "cosmo_repulsion_energy": 2.78, 
			 "cosmo_total_nonelectrostatic_energy": 19.65, 
			 "SMD_solvation_energy": 8.49 
		},
		"coords": [
			{
				"x": 6.9402094283,
				"y": -3.9194588593,
				"z": 4.086958226,
				"element": "C" 
			},
			{
				"x": 5.8062730132,
				"y": -3.5852759976,
				"z": 4.832166323,
				"element": "C" 
			},
			{
				"x": 4.769965409,
				"y": -2.8619463213,
				"z": 4.249296649,
				"element": "C" 
			},
			{
				"x": 4.8518205078,
				"y": -2.4577654718,
				"z": 2.9001146298,
				"element": "C" 
			},
			{
				"x": 6.0013831684,
				"y": -2.8008562676,
				"z": 2.1577126255,
				"element": "C" 
			},
			{
				"x": 7.0323371004,
				"y": -3.5244406644,
				"z": 2.7496863843,
				"element": "C" 
			},
			{
				"x": 3.7947922837,
				"y": -1.7179746916,
				"z": 2.2993770064,
				"element": "C" 
			},
			{
				"x": 2.8892168944,
				"y": -1.0841569719,
				"z": 1.7846772326,
				"element": "C" 
			},
			{
				"x": 1.8359076943,
				"y": -0.3467427569,
				"z": 1.1859727554,
				"element": "C" 
			},
			{
				"x": 0.6834093928,
				"y": -0.0062291889,
				"z": 1.9494635617,
				"element": "C" 
			},
			{
				"x": 0.554450506,
				"y": -0.3900449792,
				"z": 3.3178167074,
				"element": "C" 
			},
			{
				"x": -0.5579488204,
				"y": -0.0590020376,
				"z": 4.0478663374,
				"element": "C" 
			},
			{
				"x": -1.6128224921,
				"y": 0.6798101301,
				"z": 3.4482534686,
				"element": "C" 
			},
			{
				"x": -1.5252269456,
				"y": 1.0664458578,
				"z": 2.1356870649,
				"element": "C" 
			},
			{
				"x": -0.3843309343,
				"y": 0.7414813971,
				"z": 1.3425329297,
				"element": "C" 
			},
			{
				"x": -0.2872776708,
				"y": 1.1399498857,
				"z": -0.0208877047,
				"element": "C" 
			},
			{
				"x": -1.3406160969,
				"y": 1.8772993861,
				"z": -0.6196169694,
				"element": "C" 
			},
			{
				"x": -2.2462192248,
				"y": 2.5110564715,
				"z": -1.1343428246,
				"element": "C" 
			},
			{
				"x": -3.303272591,
				"y": 3.2508016055,
				"z": -1.735084204,
				"element": "C" 
			},
			{
				"x": -4.4527262078,
				"y": 3.5941031923,
				"z": -0.9926075406,
				"element": "C" 
			},
			{
				"x": -5.4837042829,
				"y": 4.3176475616,
				"z": -1.5845850311,
				"element": "C" 
			},
			{
				"x": -5.3917137296,
				"y": 4.712423606,
				"z": -2.9219381553,
				"element": "C" 
			},
			{
				"x": -4.257886944,
				"y": 4.3780339725,
				"z": -3.667221397,
				"element": "C" 
			},
			{
				"x": -3.2215562728,
				"y": 3.6547430443,
				"z": -3.0843479871,
				"element": "C" 
			},
			{
				"x": 0.8651905512,
				"y": 0.7993727453,
				"z": -0.7843976628,
				"element": "C" 
			},
			{
				"x": 1.9329371481,
				"y": 0.0516754709,
				"z": -0.1774624336,
				"element": "C" 
			},
			{
				"x": 3.0737995873,
				"y": -0.2733515352,
				"z": -0.9706388195,
				"element": "C" 
			},
			{
				"x": 3.161358142,
				"y": 0.1132150209,
				"z": -2.2832278378,
				"element": "C" 
			},
			{
				"x": 2.1064686118,
				"y": 0.8519956669,
				"z": -2.882850701,
				"element": "C" 
			},
			{
				"x": 0.9940956013,
				"y": 1.1830900842,
				"z": -2.1527822381,
				"element": "C" 
			},
			{
				"x": 7.7467767179,
				"y": -4.483992811,
				"z": 4.545333841,
				"element": "H" 
			},
			{
				"x": 5.7295079773,
				"y": -3.889778863,
				"z": 5.8719539184,
				"element": "H" 
			},
			{
				"x": 3.8888206871,
				"y": -2.6018214785,
				"z": 4.8269734527,
				"element": "H" 
			},
			{
				"x": 6.0717425363,
				"y": -2.493496044,
				"z": 1.1192670392,
				"element": "H" 
			},
			{
				"x": 7.9114656211,
				"y": -3.7815114707,
				"z": 2.1658860759,
				"element": "H" 
			},
			{
				"x": 1.3630819547,
				"y": -0.953774425,
				"z": 3.7695419671,
				"element": "H" 
			},
			{
				"x": -0.6351451501,
				"y": -0.3614738523,
				"z": 5.0881633736,
				"element": "H" 
			},
			{
				"x": -2.4905752553,
				"y": 0.9380801415,
				"z": 4.0335007006,
				"element": "H" 
			},
			{
				"x": -2.3268888044,
				"y": 1.6305052133,
				"z": 1.6721047559,
				"element": "H" 
			},
			{
				"x": -4.5229807338,
				"y": 3.2869343479,
				"z": 0.0459025399,
				"element": "H" 
			},
			{
				"x": -6.3627434972,
				"y": 4.5748798154,
				"z": -1.0007210474,
				"element": "H" 
			},
			{
				"x": -6.1982984889,
				"y": 5.2769295092,
				"z": -3.3803165521,
				"element": "H" 
			},
			{
				"x": -4.1812245867,
				"y": 4.6823444984,
				"z": -4.707073009,
				"element": "H" 
			},
			{
				"x": -2.3404984906,
				"y": 3.3944574306,
				"z": -3.6620863492,
				"element": "H" 
			},
			{
				"x": 3.8754706289,
				"y": -0.8373915112,
				"z": -0.5070485981,
				"element": "H" 
			},
			{
				"x": 4.0390964799,
				"y": -0.1450829682,
				"z": -2.8684845684,
				"element": "H" 
			},
			{
				"x": 2.1836252049,
				"y": 1.1543938418,
				"z": -3.9231720424,
				"element": "H" 
			},
			{
				"x": 0.1854543721,
				"y": 1.7467992703,
				"z": -2.604515893,
				"element": "H" 
			}
		],
		 "valence_orbital": [ 
			{
				"type": "occ",
				"energy": -0.25493,
				"method": "rhf"
			},
			{
				"type": "occ",
				"energy": -0.24322,
				"method": "rhf"
			},
			{
				"type": "occ",
				"energy": -0.23678,
				"method": "rhf"
			},
			{
				"type": "occ",
				"energy": -0.23461,
				"method": "rhf"
			},
			{
				"type": "occ",
				"energy": -0.18121,
				"method": "rhf"
			},
			{
				"type": "unocc",
				"energy": -0.08475,
				"method": "rhf"
			},
			{
				"type": "unocc",
				"energy": -0.02613,
				"method": "rhf"
			},
			{
				"type": "unocc",
				"energy": -0.02599,
				"method": "rhf"
			},
			{
				"type": "unocc",
				"energy": -0.01366,
				"method": "rhf"
			},
			{
				"type": "unocc",
				"energy": -0.00614,
				"method": "rhf"
			}
		],
		"cosmo_sigma_profile": { 
			"-0.025": 0.0,
			"-0.024": 0.0,
			"-0.023": 0.0,
			"-0.022": 0.0,
			"-0.021": 0.0,
			"-0.02": 0.0,
			"-0.019": 0.0,
			"-0.018": 0.0,
			"-0.017": 0.0,
			"-0.016": 0.0,
			"-0.015": 0.0,
			"-0.014": 0.0,
			"-0.013": 0.0,
			"-0.012": 0.0,
			"-0.011": 0.0,
			"-0.01": 0.0,
			"-0.009": 0.0,
			"-0.008": 0.0,
			"-0.007": 2.54982993129,
			"-0.006": 26.5130296663,
			"-0.005": 34.9732421435,
			"-0.004": 41.3299354353,
			"-0.003": 28.8953374831,
			"-0.002": 28.2936220852,
			"-0.001": 24.8375327272,
			"0.0": 24.7339717951,
			"0.001": 32.7011447614,
			"0.002": 60.3675708828,
			"0.003": 58.5577543749,
			"0.004": 53.2273325163,
			"0.005": 26.6101413985,
			"0.006": 1.18466170423,
			"0.007": 0.0,
			"0.008": 0.0,
			"0.009": 0.0,
			"0.01": 0.0,
			"0.011": 0.0,
			"0.012": 0.0,
			"0.013": 0.0,
			"0.014": 0.0,
			"0.015": 0.0,
			"0.016": 0.0,
			"0.017": 0.0,
			"0.018": 0.0,
			"0.019": 0.0,
			"0.02": 0.0,
			"0.021": 0.0,
			"0.022": 0.0,
			"0.023": 0.0,
			"0.024": 0.0,
			"0.025": 0.0
		}
	}
}
