{
	 "smiles": "COC1=C(NS(=O)(=O)C2=CC(C(O)=O)=C(Cl)C=C2)C=C(C=C1)[N+]([O-])=O", 
	 "Tm": 495.15, 
	 "num_atms": 36, 
	 "gaussian": { 
		 "optdone": 1, 
		 "sigma_profile": "yes", 
		 "theory": "DFT", 
		 "functional": "B3LYP", 
		 "basiset": "6-31G**", 
		 "properties": { 
			 "R2extent": 11087.1191, 
			 "electric_dipole_moment_norm": 6.80884748104, 
			 "electric_quadrupole_moment_norm": 33.2374891567, 
			 "total_energy": -2034.39481377, 
			 "HOMO_LUMO_gap": 0.15553, 
			 "cosmo_polarized_energy": -25.16, 
			 "cosmo_cavitation_energy": 45.71, 
			 "cosmo_dispersion_energy": -31.74, 
			 "cosmo_repulsion_energy": 2.36, 
			 "cosmo_total_nonelectrostatic_energy": 16.33, 
			 "SMD_solvation_energy": 10.89 
		},
		"coords": [
			{
				"x": 2.0411348983,
				"y": 4.5930376713,
				"z": 2.3122716411,
				"element": "C" 
			},
			{
				"x": 1.676895718,
				"y": 3.5142273979,
				"z": 1.4548312729,
				"element": "O" 
			},
			{
				"x": 0.9668442753,
				"y": 2.4754291925,
				"z": 1.9690221998,
				"element": "C" 
			},
			{
				"x": 0.6778292096,
				"y": 1.4407713112,
				"z": 1.0425335123,
				"element": "C" 
			},
			{
				"x": 1.115183582,
				"y": 1.6115516092,
				"z": -0.2889548103,
				"element": "N" 
			},
			{
				"x": 1.8949451853,
				"y": 0.3822111907,
				"z": -1.1821619128,
				"element": "S" 
			},
			{
				"x": 2.4132317587,
				"y": -0.6478503183,
				"z": -0.2840930712,
				"element": "O" 
			},
			{
				"x": 2.752029978,
				"y": 1.1308359888,
				"z": -2.1035303954,
				"element": "O" 
			},
			{
				"x": 0.5608256288,
				"y": -0.3475561838,
				"z": -2.1318934055,
				"element": "C" 
			},
			{
				"x": 0.1087317755,
				"y": -1.6195108091,
				"z": -1.8080673472,
				"element": "C" 
			},
			{
				"x": -0.928284066,
				"y": -2.221028028,
				"z": -2.5432364654,
				"element": "C" 
			},
			{
				"x": -1.4046632786,
				"y": -3.5798277371,
				"z": -2.1302065012,
				"element": "C" 
			},
			{
				"x": -0.5883628091,
				"y": -4.1282265356,
				"z": -1.1977769203,
				"element": "O" 
			},
			{
				"x": -2.3913347192,
				"y": -4.1477666964,
				"z": -2.5412706456,
				"element": "O" 
			},
			{
				"x": -1.4775672396,
				"y": -1.5017630372,
				"z": -3.6234467026,
				"element": "C" 
			},
			{
				"x": -2.7490335478,
				"y": -2.1276930187,
				"z": -4.6363089603,
				"element": "Cl" 
			},
			{
				"x": -0.9973621198,
				"y": -0.2265302205,
				"z": -3.9509862501,
				"element": "C" 
			},
			{
				"x": 0.0205303216,
				"y": 0.3574470106,
				"z": -3.2102561382,
				"element": "C" 
			},
			{
				"x": -0.0555987854,
				"y": 0.338946923,
				"z": 1.4617746974,
				"element": "C" 
			},
			{
				"x": -0.4729063196,
				"y": 0.2643830282,
				"z": 2.7914808028,
				"element": "C" 
			},
			{
				"x": -0.198052821,
				"y": 1.2684137527,
				"z": 3.7119458216,
				"element": "C" 
			},
			{
				"x": 0.5223691537,
				"y": 2.3846794161,
				"z": 3.2905446467,
				"element": "C" 
			},
			{
				"x": -1.2377145474,
				"y": -0.9094839008,
				"z": 3.2207099057,
				"element": "N" 
			},
			{
				"x": -1.5974550617,
				"y": -0.9593799148,
				"z": 4.3974464254,
				"element": "O" 
			},
			{
				"x": -1.4774505205,
				"y": -1.7765908164,
				"z": 2.3787839872,
				"element": "O" 
			},
			{
				"x": 2.6118755229,
				"y": 5.2854402174,
				"z": 1.6934204673,
				"element": "H" 
			},
			{
				"x": 1.1540398176,
				"y": 5.1012525926,
				"z": 2.7072104851,
				"element": "H" 
			},
			{
				"x": 2.6660877375,
				"y": 4.2441037239,
				"z": 3.1420258175,
				"element": "H" 
			},
			{
				"x": 1.6240120439,
				"y": 2.4797034357,
				"z": -0.4362720241,
				"element": "H" 
			},
			{
				"x": 0.559879349,
				"y": -2.1606206827,
				"z": -0.9859305184,
				"element": "H" 
			},
			{
				"x": -0.9902719314,
				"y": -4.9787488598,
				"z": -0.9564657166,
				"element": "H" 
			},
			{
				"x": -1.4310710335,
				"y": 0.295837339,
				"z": -4.795807305,
				"element": "H" 
			},
			{
				"x": 0.3991353254,
				"y": 1.3394623198,
				"z": -3.4716813234,
				"element": "H" 
			},
			{
				"x": -0.3126887394,
				"y": -0.4637431821,
				"z": 0.7855216216,
				"element": "H" 
			},
			{
				"x": -0.5455757782,
				"y": 1.1707814697,
				"z": 4.7320991988,
				"element": "H" 
			},
			{
				"x": 0.7423120371,
				"y": 3.1744043514,
				"z": 3.9980239104,
				"element": "H" 
			}
		],
		 "valence_orbital": [ 
			{
				"type": "occ",
				"energy": -0.28902,
				"method": "rhf"
			},
			{
				"type": "occ",
				"energy": -0.28025,
				"method": "rhf"
			},
			{
				"type": "occ",
				"energy": -0.27779,
				"method": "rhf"
			},
			{
				"type": "occ",
				"energy": -0.27165,
				"method": "rhf"
			},
			{
				"type": "occ",
				"energy": -0.24161,
				"method": "rhf"
			},
			{
				"type": "unocc",
				"energy": -0.08608,
				"method": "rhf"
			},
			{
				"type": "unocc",
				"energy": -0.07738,
				"method": "rhf"
			},
			{
				"type": "unocc",
				"energy": -0.05463,
				"method": "rhf"
			},
			{
				"type": "unocc",
				"energy": -0.03299,
				"method": "rhf"
			},
			{
				"type": "unocc",
				"energy": 0.00522,
				"method": "rhf"
			}
		],
		"cosmo_sigma_profile": { 
			"-0.025": 0.0,
			"-0.024": 0.0,
			"-0.023": 0.0,
			"-0.022": 0.0,
			"-0.021": 0.0,
			"-0.02": 0.0,
			"-0.019": 0.429940527497,
			"-0.018": 1.07451763952,
			"-0.017": 0.72524389553,
			"-0.016": 1.16598937082,
			"-0.015": 0.699739093039,
			"-0.014": 0.312666084176,
			"-0.013": 0.485330785927,
			"-0.012": 0.916521303198,
			"-0.011": 1.86722027044,
			"-0.01": 1.4485856488,
			"-0.009": 4.57181701935,
			"-0.008": 10.3397117971,
			"-0.007": 14.2484570299,
			"-0.006": 19.0772574098,
			"-0.005": 20.0126004928,
			"-0.004": 23.9648411381,
			"-0.003": 23.7669225881,
			"-0.002": 28.6597113626,
			"-0.001": 33.9698346089,
			"0.0": 29.9117067345,
			"0.001": 23.2366362894,
			"0.002": 19.5522183991,
			"0.003": 15.0396533641,
			"0.004": 11.7804816406,
			"0.005": 10.2179347181,
			"0.006": 9.16134732103,
			"0.007": 11.2874233921,
			"0.008": 14.4188719754,
			"0.009": 13.7912224991,
			"0.01": 14.9457751949,
			"0.011": 7.6023050719,
			"0.012": 0.787145676073,
			"0.013": 0.0,
			"0.014": 0.0,
			"0.015": 0.0,
			"0.016": 0.0,
			"0.017": 0.0,
			"0.018": 0.0,
			"0.019": 0.0,
			"0.02": 0.0,
			"0.021": 0.0,
			"0.022": 0.0,
			"0.023": 0.0,
			"0.024": 0.0,
			"0.0": 0.0
		}
	}
}
