{
	 "smiles": "CC1=NC(C(O)=O)=C(C)S1", 
	 "Tm": 446.15, 
	 "num_atms": 17, 
	 "gaussian": { 
		 "optdone": 1, 
		 "sigma_profile": "yes", 
		 "theory": "DFT", 
		 "functional": "B3LYP", 
		 "basiset": "6-31G**", 
		 "properties": { 
			 "R2extent": 1966.4862, 
			 "electric_dipole_moment_norm": 1.88974900714, 
			 "electric_quadrupole_moment_norm": 3.17184355541, 
			 "total_energy": -836.262194242, 
			 "HOMO_LUMO_gap": 0.19995, 
			 "cosmo_polarized_energy": -11.47, 
			 "cosmo_cavitation_energy": 23.08, 
			 "cosmo_dispersion_energy": -17.54, 
			 "cosmo_repulsion_energy": 1.39, 
			 "cosmo_total_nonelectrostatic_energy": 6.94, 
			 "SMD_solvation_energy": 3.7 
		},
		"coords": [
			{
				"x": 1.9237415785,
				"y": 1.1182299779,
				"z": -2.7541082457,
				"element": "C" 
			},
			{
				"x": 1.2591233563,
				"y": 0.7680624942,
				"z": -1.4587323285,
				"element": "C" 
			},
			{
				"x": 1.6512891446,
				"y": 1.1768955678,
				"z": -0.2938202769,
				"element": "N" 
			},
			{
				"x": 0.8440069131,
				"y": 0.6927364968,
				"z": 0.717534602,
				"element": "C" 
			},
			{
				"x": 1.1083167941,
				"y": 1.0340538217,
				"z": 2.1301201997,
				"element": "C" 
			},
			{
				"x": 2.1824464313,
				"y": 1.8356019854,
				"z": 2.2940063036,
				"element": "O" 
			},
			{
				"x": 0.436709949,
				"y": 0.6412354007,
				"z": 3.0693139462,
				"element": "O" 
			},
			{
				"x": -0.2068814175,
				"y": -0.1157414749,
				"z": 0.3348704961,
				"element": "C" 
			},
			{
				"x": -1.2514056671,
				"y": -0.7917649671,
				"z": 1.1712111318,
				"element": "C" 
			},
			{
				"x": -0.1730027179,
				"y": -0.2725855953,
				"z": -1.3957785501,
				"element": "S" 
			},
			{
				"x": 1.2404857172,
				"y": 1.6476747084,
				"z": -3.4266341337,
				"element": "H" 
			},
			{
				"x": 2.2807555529,
				"y": 0.22489633,
				"z": -3.277495206,
				"element": "H" 
			},
			{
				"x": 2.7764951244,
				"y": 1.7643805957,
				"z": -2.5380110382,
				"element": "H" 
			},
			{
				"x": 2.2472713742,
				"y": 1.9830814018,
				"z": 3.2523784328,
				"element": "H" 
			},
			{
				"x": -1.8143003096,
				"y": -0.0537611779,
				"z": 1.74963617,
				"element": "H" 
			},
			{
				"x": -1.9471621312,
				"y": -1.3661212146,
				"z": 0.5553922625,
				"element": "H" 
			},
			{
				"x": -0.7838896923,
				"y": -1.4614743506,
				"z": 1.8985162343,
				"element": "H" 
			}
		],
		 "valence_orbital": [ 
			{
				"type": "occ",
				"energy": -0.31248,
				"method": "rhf"
			},
			{
				"type": "occ",
				"energy": -0.28768,
				"method": "rhf"
			},
			{
				"type": "occ",
				"energy": -0.28054,
				"method": "rhf"
			},
			{
				"type": "occ",
				"energy": -0.26822,
				"method": "rhf"
			},
			{
				"type": "occ",
				"energy": -0.2435,
				"method": "rhf"
			},
			{
				"type": "unocc",
				"energy": -0.04355,
				"method": "rhf"
			},
			{
				"type": "unocc",
				"energy": -0.0037,
				"method": "rhf"
			},
			{
				"type": "unocc",
				"energy": 0.00566,
				"method": "rhf"
			},
			{
				"type": "unocc",
				"energy": 0.08547,
				"method": "rhf"
			},
			{
				"type": "unocc",
				"energy": 0.09137,
				"method": "rhf"
			}
		],
		"cosmo_sigma_profile": { 
			"-0.025": 0.0,
			"-0.024": 0.0,
			"-0.023": 0.0,
			"-0.022": 0.0,
			"-0.021": 0.0,
			"-0.02": 0.0,
			"-0.019": 0.0084025414703,
			"-0.018": 0.783496606975,
			"-0.017": 0.984980291843,
			"-0.016": 0.536328203767,
			"-0.015": 0.85786896786,
			"-0.014": 0.72398656824,
			"-0.013": 0.616193819757,
			"-0.012": 0.677487113087,
			"-0.011": 1.11400356217,
			"-0.01": 0.74560228933,
			"-0.009": 0.27127753978,
			"-0.008": 0.508868432,
			"-0.007": 0.822688767553,
			"-0.006": 8.7860190836,
			"-0.005": 14.1905804399,
			"-0.004": 13.22221382,
			"-0.003": 15.6597155064,
			"-0.002": 20.6479220671,
			"-0.001": 21.2962312454,
			"0.0": 15.6820524041,
			"0.001": 12.2426621911,
			"0.002": 10.2804943995,
			"0.003": 7.03950188481,
			"0.004": 2.91568516338,
			"0.005": 4.30195891093,
			"0.006": 3.39909628091,
			"0.007": 3.53816183362,
			"0.008": 2.37172238505,
			"0.009": 3.47947805023,
			"0.01": 4.07229172322,
			"0.011": 4.11991018908,
			"0.012": 5.17098822226,
			"0.013": 1.59032311984,
			"0.014": 1.08370251306,
			"0.015": 1.1985915413,
			"0.016": 0.673566874572,
			"0.017": 0.0141010599111,
			"0.018": 0.0,
			"0.019": 0.0,
			"0.02": 0.0,
			"0.021": 0.0,
			"0.022": 0.0,
			"0.023": 0.0,
			"0.024": 0.0,
			"0.025": 0.0
		}
	}
}
