{
	 "smiles": "NC1=CC(=NO1)C(F)(F)F", 
	 "Tm": 326.15, 
	 "num_atms": 13, 
	 "gaussian": { 
		 "optdone": 1, 
		 "sigma_profile": "yes", 
		 "theory": "DFT", 
		 "functional": "B3LYP", 
		 "basiset": "6-31G**", 
		 "properties": { 
			 "R2extent": 1634.7908, 
			 "electric_dipole_moment_norm": 5.33067790248, 
			 "electric_quadrupole_moment_norm": 8.47959768326, 
			 "total_energy": -638.424639609, 
			 "HOMO_LUMO_gap": 0.21748, 
			 "cosmo_polarized_energy": -12.31, 
			 "cosmo_cavitation_energy": 19.67, 
			 "cosmo_dispersion_energy": -14.26, 
			 "cosmo_repulsion_energy": 1.12, 
			 "cosmo_total_nonelectrostatic_energy": 6.53, 
			 "SMD_solvation_energy": 4.85 
		},
		"coords": [
			{
				"x": -1.3712333575,
				"y": 1.8688032996,
				"z": -1.9013538359,
				"element": "N" 
			},
			{
				"x": -1.0858669779,
				"y": 0.9288878948,
				"z": -0.9492257968,
				"element": "C" 
			},
			{
				"x": -0.1196135576,
				"y": 0.8272838453,
				"z": 0.0221167122,
				"element": "C" 
			},
			{
				"x": -0.4776370789,
				"y": -0.3708278615,
				"z": 0.6852252653,
				"element": "C" 
			},
			{
				"x": -1.5432694775,
				"y": -0.9570805655,
				"z": 0.1891163137,
				"element": "N" 
			},
			{
				"x": -1.9336170777,
				"y": -0.1134699238,
				"z": -0.8704637589,
				"element": "O" 
			},
			{
				"x": 0.2315909015,
				"y": -0.9962300579,
				"z": 1.8557132982,
				"element": "C" 
			},
			{
				"x": 1.2980170006,
				"y": -0.2425680422,
				"z": 2.2043942461,
				"element": "F" 
			},
			{
				"x": 0.6796839303,
				"y": -2.2313394099,
				"z": 1.5662283404,
				"element": "F" 
			},
			{
				"x": -0.5700223508,
				"y": -1.0953359308,
				"z": 2.931068496,
				"element": "F" 
			},
			{
				"x": -0.5987520496,
				"y": 2.4460107151,
				"z": -2.1983606861,
				"element": "H" 
			},
			{
				"x": -1.9687449328,
				"y": 1.5553959004,
				"z": -2.6539065888,
				"element": "H" 
			},
			{
				"x": 0.7002650278,
				"y": 1.4921701364,
				"z": 0.2361479945,
				"element": "H" 
			}
		],
		 "valence_orbital": [ 
			{
				"type": "occ",
				"energy": -0.37952,
				"method": "rhf"
			},
			{
				"type": "occ",
				"energy": -0.35757,
				"method": "rhf"
			},
			{
				"type": "occ",
				"energy": -0.31775,
				"method": "rhf"
			},
			{
				"type": "occ",
				"energy": -0.31135,
				"method": "rhf"
			},
			{
				"type": "occ",
				"energy": -0.23555,
				"method": "rhf"
			},
			{
				"type": "unocc",
				"energy": -0.01807,
				"method": "rhf"
			},
			{
				"type": "unocc",
				"energy": 0.04034,
				"method": "rhf"
			},
			{
				"type": "unocc",
				"energy": 0.05681,
				"method": "rhf"
			},
			{
				"type": "unocc",
				"energy": 0.09356,
				"method": "rhf"
			},
			{
				"type": "unocc",
				"energy": 0.10557,
				"method": "rhf"
			}
		],
		"cosmo_sigma_profile": { 
			"-0.025": 0.0,
			"-0.024": 0.0,
			"-0.023": 0.0,
			"-0.022": 0.0,
			"-0.021": 0.0,
			"-0.02": 0.0,
			"-0.019": 0.0,
			"-0.018": 0.0,
			"-0.017": 0.0,
			"-0.016": 0.105184169186,
			"-0.015": 2.32047875357,
			"-0.014": 3.22988076851,
			"-0.013": 2.3354090177,
			"-0.012": 2.82106141883,
			"-0.011": 2.99075607962,
			"-0.01": 2.20222626749,
			"-0.009": 2.40200955292,
			"-0.008": 4.12500168098,
			"-0.007": 2.72632886294,
			"-0.006": 2.62516868063,
			"-0.005": 2.69433565218,
			"-0.004": 3.29375932785,
			"-0.003": 4.66231097985,
			"-0.002": 6.39374991519,
			"-0.001": 7.83353726647,
			"0.0": 10.6525077984,
			"0.001": 14.2423776396,
			"0.002": 34.2539047012,
			"0.003": 17.4630610041,
			"0.004": 3.97463695943,
			"0.005": 3.15789700138,
			"0.006": 4.13333621387,
			"0.007": 5.15397242798,
			"0.008": 3.63585110135,
			"0.009": 2.35768158996,
			"0.01": 1.52982712653,
			"0.011": 2.02694652574,
			"0.012": 1.038944202,
			"0.013": 1.15656393439,
			"0.014": 0.280083658123,
			"0.015": 0.0,
			"0.016": 0.0,
			"0.017": 0.0,
			"0.018": 0.0,
			"0.019": 0.0,
			"0.02": 0.0,
			"0.021": 0.0,
			"0.022": 0.0,
			"0.023": 0.0,
			"0.024": 0.0,
			"0.025": 0.0
		}
	}
}
