{
	 "smiles": "NC(=NOC(=O)CCCCl)C1=CC=CS1", 
	 "Tm": 418.15, 
	 "num_atms": 26, 
	 "gaussian": { 
		 "optdone": 1, 
		 "sigma_profile": "yes", 
		 "theory": "DFT", 
		 "functional": "B3LYP", 
		 "basiset": "6-31G**", 
		 "properties": { 
			 "R2extent": 8074.9425, 
			 "electric_dipole_moment_norm": 6.30948308897, 
			 "electric_quadrupole_moment_norm": 17.5647916281, 
			 "total_energy": -1467.87588969, 
			 "HOMO_LUMO_gap": 0.18037, 
			 "cosmo_polarized_energy": -19.09, 
			 "cosmo_cavitation_energy": 34.57, 
			 "cosmo_dispersion_energy": -25.65, 
			 "cosmo_repulsion_energy": 2.02, 
			 "cosmo_total_nonelectrostatic_energy": 10.94, 
			 "SMD_solvation_energy": 5.98 
		},
		"coords": [
			{
				"x": 0.0628061271,
				"y": 0.0105303708,
				"z": 2.4721336022,
				"element": "N" 
			},
			{
				"x": 0.5382105746,
				"y": 0.4259440494,
				"z": 1.2512006582,
				"element": "C" 
			},
			{
				"x": -0.160328616,
				"y": 0.5632409795,
				"z": 0.1645724359,
				"element": "N" 
			},
			{
				"x": -1.4854530338,
				"y": 0.0678233641,
				"z": 0.4247317966,
				"element": "O" 
			},
			{
				"x": -2.304371879,
				"y": 0.1120584088,
				"z": -0.667084044,
				"element": "C" 
			},
			{
				"x": -1.984105593,
				"y": 0.4929095196,
				"z": -1.7638611311,
				"element": "O" 
			},
			{
				"x": -3.6835578881,
				"y": -0.3904320498,
				"z": -0.2640084363,
				"element": "C" 
			},
			{
				"x": -4.6793643752,
				"y": -0.432270471,
				"z": -1.4308526424,
				"element": "C" 
			},
			{
				"x": -4.3223601932,
				"y": -1.4973468955,
				"z": -2.461591362,
				"element": "C" 
			},
			{
				"x": -5.5860053249,
				"y": -1.5984067113,
				"z": -3.7659578813,
				"element": "Cl" 
			},
			{
				"x": 1.9530436416,
				"y": 0.8045303154,
				"z": 1.1573047631,
				"element": "C" 
			},
			{
				"x": 2.7406554727,
				"y": 0.822527747,
				"z": 0.0314725554,
				"element": "C" 
			},
			{
				"x": 4.0727411089,
				"y": 1.2505174581,
				"z": 0.2924812425,
				"element": "C" 
			},
			{
				"x": 4.2860568411,
				"y": 1.5497138817,
				"z": 1.6116419979,
				"element": "C" 
			},
			{
				"x": 2.854475554,
				"y": 1.3330104014,
				"z": 2.56174123,
				"element": "S" 
			},
			{
				"x": 0.7145718717,
				"y": -0.4584801155,
				"z": 3.0832584633,
				"element": "H" 
			},
			{
				"x": -0.876393871,
				"y": -0.3587868069,
				"z": 2.4675218974,
				"element": "H" 
			},
			{
				"x": -3.5724091975,
				"y": -1.3771088084,
				"z": 0.2033037995,
				"element": "H" 
			},
			{
				"x": -4.0597953875,
				"y": 0.2708878276,
				"z": 0.5257416042,
				"element": "H" 
			},
			{
				"x": -4.7105731807,
				"y": 0.5449483633,
				"z": -1.920916889,
				"element": "H" 
			},
			{
				"x": -5.6792402933,
				"y": -0.6343064818,
				"z": -1.0337528647,
				"element": "H" 
			},
			{
				"x": -4.2702869596,
				"y": -2.4929822797,
				"z": -2.0149045728,
				"element": "H" 
			},
			{
				"x": -3.380830451,
				"y": -1.2678426088,
				"z": -2.9582072117,
				"element": "H" 
			},
			{
				"x": 2.3613115059,
				"y": 0.5316222958,
				"z": -0.9401383469,
				"element": "H" 
			},
			{
				"x": 4.8419751746,
				"y": 1.3261694027,
				"z": -0.4672493465,
				"element": "H" 
			},
			{
				"x": 5.1963283715,
				"y": 1.8916288434,
				"z": 2.0844186825,
				"element": "H" 
			}
		],
		 "valence_orbital": [ 
			{
				"type": "occ",
				"energy": -0.28677,
				"method": "rhf"
			},
			{
				"type": "occ",
				"energy": -0.27267,
				"method": "rhf"
			},
			{
				"type": "occ",
				"energy": -0.26663,
				"method": "rhf"
			},
			{
				"type": "occ",
				"energy": -0.26172,
				"method": "rhf"
			},
			{
				"type": "occ",
				"energy": -0.22923,
				"method": "rhf"
			},
			{
				"type": "unocc",
				"energy": -0.04886,
				"method": "rhf"
			},
			{
				"type": "unocc",
				"energy": 0.00702,
				"method": "rhf"
			},
			{
				"type": "unocc",
				"energy": 0.0152,
				"method": "rhf"
			},
			{
				"type": "unocc",
				"energy": 0.02931,
				"method": "rhf"
			},
			{
				"type": "unocc",
				"energy": 0.03363,
				"method": "rhf"
			}
		],
		"cosmo_sigma_profile": { 
			"-0.025": 0.0,
			"-0.024": 0.0,
			"-0.023": 0.0,
			"-0.022": 0.0,
			"-0.021": 0.0,
			"-0.02": 0.0,
			"-0.019": 0.0,
			"-0.018": 0.0,
			"-0.017": 0.0,
			"-0.016": 0.0,
			"-0.015": 0.00449004851049,
			"-0.014": 0.781185698056,
			"-0.013": 2.05039312115,
			"-0.012": 1.89661881256,
			"-0.011": 2.68456846027,
			"-0.01": 2.40954032734,
			"-0.009": 3.38467437647,
			"-0.008": 3.92778862887,
			"-0.007": 11.7013686943,
			"-0.006": 17.1212683023,
			"-0.005": 16.4434204559,
			"-0.004": 21.8344287316,
			"-0.003": 18.6438256793,
			"-0.002": 14.4916215517,
			"-0.001": 14.5256728131,
			"0.0": 15.1534529954,
			"0.001": 18.5504026245,
			"0.002": 20.990095871,
			"0.003": 22.95856718,
			"0.004": 16.451833961,
			"0.005": 9.42510211086,
			"0.006": 11.7867855054,
			"0.007": 10.8663667043,
			"0.008": 3.29018095765,
			"0.009": 1.76928858731,
			"0.01": 3.47422047537,
			"0.011": 3.41593424647,
			"0.012": 2.67173147322,
			"0.013": 1.86662408018,
			"0.014": 1.10851652054,
			"0.015": 1.29397203732,
			"0.016": 1.20268053788,
			"0.017": 0.70253017196,
			"0.018": 0.204083522144,
			"0.019": 0.0,
			"0.02": 0.0,
			"0.021": 0.0,
			"0.022": 0.0,
			"0.023": 0.0,
			"0.024": 0.0,
			"0.025": 0.0
		}
	}
}
