{
	 "smiles": "O=C1N2C3OC4CCC3C4N2C(=O)N1C1=CC=CC=C1", 
	 "Tm": 417.15, 
	 "num_atms": 33, 
	 "gaussian": { 
		 "optdone": 1, 
		 "sigma_profile": "yes", 
		 "theory": "DFT", 
		 "functional": "B3LYP", 
		 "basiset": "6-31G**", 
		 "properties": { 
			 "R2extent": 5911.3796, 
			 "electric_dipole_moment_norm": 3.49649708709, 
			 "electric_quadrupole_moment_norm": 21.420800222, 
			 "total_energy": -931.224688321, 
			 "HOMO_LUMO_gap": 0.22078, 
			 "cosmo_polarized_energy": -15.87, 
			 "cosmo_cavitation_energy": 34.99, 
			 "cosmo_dispersion_energy": -26.17, 
			 "cosmo_repulsion_energy": 1.96, 
			 "cosmo_total_nonelectrostatic_energy": 10.79, 
			 "SMD_solvation_energy": 4.11 
		},
		"coords": [
			{
				"x": -0.3580160047,
				"y": 1.844388,
				"z": -0.5990917461,
				"element": "O" 
			},
			{
				"x": -0.1522912781,
				"y": 0.6769150145,
				"z": -0.3428079537,
				"element": "C" 
			},
			{
				"x": 1.0062678178,
				"y": -0.0433892247,
				"z": -0.6272917268,
				"element": "N" 
			},
			{
				"x": 2.3707123917,
				"y": 0.4011176443,
				"z": -0.2769783188,
				"element": "C" 
			},
			{
				"x": 3.2508694743,
				"y": -0.4441153585,
				"z": -1.0033028858,
				"element": "O" 
			},
			{
				"x": 3.364087047,
				"y": -1.6508122256,
				"z": -0.1827316007,
				"element": "C" 
			},
			{
				"x": 4.5464720447,
				"y": -1.405327981,
				"z": 0.7544024898,
				"element": "C" 
			},
			{
				"x": 4.0260799643,
				"y": -0.1925748754,
				"z": 1.5937203199,
				"element": "C" 
			},
			{
				"x": 2.5447511618,
				"y": -0.0833194963,
				"z": 1.1838143279,
				"element": "C" 
			},
			{
				"x": 2.1406566783,
				"y": -1.5205829349,
				"z": 0.7517709445,
				"element": "C" 
			},
			{
				"x": 0.8993814759,
				"y": -1.3511579365,
				"z": -0.0246679315,
				"element": "N" 
			},
			{
				"x": -0.346659809,
				"y": -1.4295603055,
				"z": 0.6106555616,
				"element": "C" 
			},
			{
				"x": -0.7292561457,
				"y": -2.3490750809,
				"z": 1.3047707254,
				"element": "O" 
			},
			{
				"x": -1.0325475806,
				"y": -0.2506317492,
				"z": 0.2625891873,
				"element": "N" 
			},
			{
				"x": -2.4014549684,
				"y": 0.0282644442,
				"z": 0.5680765978,
				"element": "C" 
			},
			{
				"x": -2.9890004572,
				"y": -0.4916600767,
				"z": 1.7272668412,
				"element": "C" 
			},
			{
				"x": -4.330014896,
				"y": -0.2171049694,
				"z": 1.9956948486,
				"element": "C" 
			},
			{
				"x": -5.0808362333,
				"y": 0.5785928113,
				"z": 1.1300180721,
				"element": "C" 
			},
			{
				"x": -4.4831072758,
				"y": 1.09832758,
				"z": -0.0194458702,
				"element": "C" 
			},
			{
				"x": -3.1484107149,
				"y": 0.8227560985,
				"z": -0.3101838386,
				"element": "C" 
			},
			{
				"x": 2.514745991,
				"y": 1.4497453911,
				"z": -0.5296922086,
				"element": "H" 
			},
			{
				"x": 3.4034115149,
				"y": -2.5219173489,
				"z": -0.8368965806,
				"element": "H" 
			},
			{
				"x": 5.4491207802,
				"y": -1.1746026694,
				"z": 0.1848508286,
				"element": "H" 
			},
			{
				"x": 4.7509650529,
				"y": -2.2802255431,
				"z": 1.3818402879,
				"element": "H" 
			},
			{
				"x": 4.5739574097,
				"y": 0.7279485119,
				"z": 1.3730036008,
				"element": "H" 
			},
			{
				"x": 4.1149938156,
				"y": -0.373363878,
				"z": 2.6684858771,
				"element": "H" 
			},
			{
				"x": 1.8838109114,
				"y": 0.4144156218,
				"z": 1.8966720539,
				"element": "H" 
			},
			{
				"x": 2.0192170293,
				"y": -2.2910889686,
				"z": 1.5111133779,
				"element": "H" 
			},
			{
				"x": -2.4088414569,
				"y": -1.1170751327,
				"z": 2.392221609,
				"element": "H" 
			},
			{
				"x": -4.7849793668,
				"y": -0.6278352283,
				"z": 2.8922367226,
				"element": "H" 
			},
			{
				"x": -6.1228364489,
				"y": 0.7922754358,
				"z": 1.3486441498,
				"element": "H" 
			},
			{
				"x": -5.057122763,
				"y": 1.7192564578,
				"z": -0.700790734,
				"element": "H" 
			},
			{
				"x": -2.6830251614,
				"y": 1.2331179726,
				"z": -1.1972670285,
				"element": "H" 
			}
		],
		 "valence_orbital": [ 
			{
				"type": "occ",
				"energy": -0.28894,
				"method": "rhf"
			},
			{
				"type": "occ",
				"energy": -0.27479,
				"method": "rhf"
			},
			{
				"type": "occ",
				"energy": -0.25183,
				"method": "rhf"
			},
			{
				"type": "occ",
				"energy": -0.23774,
				"method": "rhf"
			},
			{
				"type": "occ",
				"energy": -0.23537,
				"method": "rhf"
			},
			{
				"type": "unocc",
				"energy": -0.01459,
				"method": "rhf"
			},
			{
				"type": "unocc",
				"energy": -0.0037,
				"method": "rhf"
			},
			{
				"type": "unocc",
				"energy": 0.00071,
				"method": "rhf"
			},
			{
				"type": "unocc",
				"energy": 0.047,
				"method": "rhf"
			},
			{
				"type": "unocc",
				"energy": 0.07126,
				"method": "rhf"
			}
		],
		"cosmo_sigma_profile": { 
			"-0.025": 0.0,
			"-0.024": 0.0,
			"-0.023": 0.0,
			"-0.022": 0.0,
			"-0.021": 0.0,
			"-0.02": 0.0,
			"-0.019": 0.0,
			"-0.018": 0.0,
			"-0.017": 0.0,
			"-0.016": 0.0,
			"-0.015": 0.0,
			"-0.014": 0.0,
			"-0.013": 0.0,
			"-0.012": 0.0,
			"-0.011": 0.0627935880397,
			"-0.01": 0.727189926011,
			"-0.009": 2.8002783578,
			"-0.008": 5.75212462377,
			"-0.007": 8.5015589927,
			"-0.006": 16.9628325282,
			"-0.005": 26.5838136622,
			"-0.004": 30.3037378547,
			"-0.003": 23.5501446487,
			"-0.002": 20.5596643507,
			"-0.001": 18.3336100939,
			"0.0": 14.2969427693,
			"0.001": 10.4926652827,
			"0.002": 11.9714296889,
			"0.003": 12.7145359829,
			"0.004": 16.4287778061,
			"0.005": 12.6585550861,
			"0.006": 6.3669321545,
			"0.007": 5.81247301646,
			"0.008": 5.44179866846,
			"0.009": 5.43521564859,
			"0.01": 5.65854909951,
			"0.011": 10.5471445268,
			"0.012": 6.38011890217,
			"0.013": 0.17935773387,
			"0.014": 0.0,
			"0.015": 0.0,
			"0.016": 0.0,
			"0.017": 0.0,
			"0.018": 0.0,
			"0.019": 0.0,
			"0.02": 0.0,
			"0.021": 0.0,
			"0.022": 0.0,
			"0.023": 0.0,
			"0.024": 0.0,
			"0.025": 0.0
		}
	}
}
