{
	 "smiles": "CCOC(=O)CC(=O)OCC", 
	 "Tm": 223.15, 
	 "num_atms": 23, 
	 "gaussian": { 
		 "optdone": 1, 
		 "sigma_profile": "yes", 
		 "theory": "DFT", 
		 "functional": "B3LYP", 
		 "basiset": "6-31G**", 
		 "properties": { 
			 "R2extent": 2818.2719, 
			 "electric_dipole_moment_norm": 1.96612786461, 
			 "electric_quadrupole_moment_norm": 14.7395574923, 
			 "total_energy": -574.900794102, 
			 "HOMO_LUMO_gap": 0.26573, 
			 "cosmo_polarized_energy": -10.69, 
			 "cosmo_cavitation_energy": 27.7, 
			 "cosmo_dispersion_energy": -18.96, 
			 "cosmo_repulsion_energy": 1.63, 
			 "cosmo_total_nonelectrostatic_energy": 10.37, 
			 "SMD_solvation_energy": 7.14 
		},
		"coords": [
			{
				"x": 2.2260415379,
				"y": 2.7567069888,
				"z": 0.0405115209,
				"element": "C" 
			},
			{
				"x": 1.6191262326,
				"y": 2.4634986892,
				"z": -1.3179541133,
				"element": "C" 
			},
			{
				"x": 0.242062812,
				"y": 2.0705943634,
				"z": -1.1035319976,
				"element": "O" 
			},
			{
				"x": -0.4621502942,
				"y": 1.7631722385,
				"z": -2.2113619128,
				"element": "C" 
			},
			{
				"x": -0.0210089868,
				"y": 1.8168747091,
				"z": -3.336766318,
				"element": "O" 
			},
			{
				"x": -1.8891182675,
				"y": 1.3783040346,
				"z": -1.8506794731,
				"element": "C" 
			},
			{
				"x": -1.9765395874,
				"y": 0.3020743101,
				"z": -0.7789816188,
				"element": "C" 
			},
			{
				"x": -2.6552151273,
				"y": 0.3710634225,
				"z": 0.2203494225,
				"element": "O" 
			},
			{
				"x": -1.2163964516,
				"y": -0.7612301673,
				"z": -1.1095608291,
				"element": "O" 
			},
			{
				"x": -1.2235215805,
				"y": -1.8612963107,
				"z": -0.1680421815,
				"element": "C" 
			},
			{
				"x": -0.3109749489,
				"y": -2.9393660989,
				"z": -0.7201094271,
				"element": "C" 
			},
			{
				"x": 1.6886491371,
				"y": 3.5659668993,
				"z": 0.5429288277,
				"element": "H" 
			},
			{
				"x": 2.194094774,
				"y": 1.8720236296,
				"z": 0.6827810563,
				"element": "H" 
			},
			{
				"x": 3.2712263941,
				"y": 3.0587575108,
				"z": -0.0784339818,
				"element": "H" 
			},
			{
				"x": 1.6358419965,
				"y": 3.3384880112,
				"z": -1.9752474979,
				"element": "H" 
			},
			{
				"x": 2.1384215584,
				"y": 1.6517750031,
				"z": -1.8368442557,
				"element": "H" 
			},
			{
				"x": -2.3736912194,
				"y": 1.0266424224,
				"z": -2.7645521657,
				"element": "H" 
			},
			{
				"x": -2.4227429461,
				"y": 2.2554809328,
				"z": -1.4772543086,
				"element": "H" 
			},
			{
				"x": -2.2528691027,
				"y": -2.2133021654,
				"z": -0.0478254727,
				"element": "H" 
			},
			{
				"x": -0.8859935281,
				"y": -1.4917414675,
				"z": 0.8052593479,
				"element": "H" 
			},
			{
				"x": 0.7101021301,
				"y": -2.5655378341,
				"z": -0.8378002223,
				"element": "H" 
			},
			{
				"x": -0.2889065636,
				"y": -3.7923367763,
				"z": -0.0347275514,
				"element": "H" 
			},
			{
				"x": -0.6634379685,
				"y": -3.2894123451,
				"z": -1.6944568481,
				"element": "H" 
			}
		],
		 "valence_orbital": [ 
			{
				"type": "occ",
				"energy": -0.35437,
				"method": "rhf"
			},
			{
				"type": "occ",
				"energy": -0.30615,
				"method": "rhf"
			},
			{
				"type": "occ",
				"energy": -0.30181,
				"method": "rhf"
			},
			{
				"type": "occ",
				"energy": -0.28906,
				"method": "rhf"
			},
			{
				"type": "occ",
				"energy": -0.26422,
				"method": "rhf"
			},
			{
				"type": "unocc",
				"energy": 0.00151,
				"method": "rhf"
			},
			{
				"type": "unocc",
				"energy": 0.01205,
				"method": "rhf"
			},
			{
				"type": "unocc",
				"energy": 0.09369,
				"method": "rhf"
			},
			{
				"type": "unocc",
				"energy": 0.10193,
				"method": "rhf"
			},
			{
				"type": "unocc",
				"energy": 0.10962,
				"method": "rhf"
			}
		],
		"cosmo_sigma_profile": { 
			"-0.025": 0.0,
			"-0.024": 0.0,
			"-0.023": 0.0,
			"-0.022": 0.0,
			"-0.021": 0.0,
			"-0.02": 0.0,
			"-0.019": 0.0,
			"-0.018": 0.0,
			"-0.017": 0.0,
			"-0.016": 0.0,
			"-0.015": 0.0,
			"-0.014": 0.0,
			"-0.013": 0.0,
			"-0.012": 0.0,
			"-0.011": 0.0,
			"-0.01": 0.0,
			"-0.009": 0.371988412906,
			"-0.008": 4.25506776509,
			"-0.007": 3.83482615726,
			"-0.006": 5.56317988447,
			"-0.005": 17.5657945898,
			"-0.004": 28.229525894,
			"-0.003": 27.1803081249,
			"-0.002": 20.5425081276,
			"-0.001": 18.350134018,
			"0.0": 18.8155622458,
			"0.001": 9.2196375101,
			"0.002": 6.50651064362,
			"0.003": 7.91083220926,
			"0.004": 7.36559437687,
			"0.005": 5.56955120206,
			"0.006": 5.35970430359,
			"0.007": 3.9725818964,
			"0.008": 3.2386380052,
			"0.009": 3.30372595078,
			"0.01": 4.2820358,
			"0.011": 8.69341978108,
			"0.012": 6.43582538851,
			"0.013": 0.476994619664,
			"0.014": 0.0,
			"0.015": 0.0,
			"0.016": 0.0,
			"0.017": 0.0,
			"0.018": 0.0,
			"0.019": 0.0,
			"0.02": 0.0,
			"0.021": 0.0,
			"0.022": 0.0,
			"0.023": 0.0,
			"0.024": 0.0,
			"0.025": 0.0
		}
	}
}
