{
	 "smiles": "O=C1N(CCC#N)C=NC2=C1C=CC=C2", 
	 "Tm": 416.15, 
	 "num_atms": 24, 
	 "gaussian": { 
		 "optdone": 1, 
		 "sigma_profile": "yes", 
		 "theory": "DFT", 
		 "functional": "B3LYP", 
		 "basiset": "6-31G**", 
		 "properties": { 
			 "R2extent": 3740.1612, 
			 "electric_dipole_moment_norm": 2.95067342991, 
			 "electric_quadrupole_moment_norm": 23.8475392705, 
			 "total_energy": -664.082754306, 
			 "HOMO_LUMO_gap": 0.1875, 
			 "cosmo_polarized_energy": -16.96, 
			 "cosmo_cavitation_energy": 29.18, 
			 "cosmo_dispersion_energy": -20.57, 
			 "cosmo_repulsion_energy": 1.58, 
			 "cosmo_total_nonelectrostatic_energy": 10.19, 
			 "SMD_solvation_energy": 5.32 
		},
		"coords": [
			{
				"x": -2.7300324871,
				"y": -0.20683539,
				"z": 1.1640621806,
				"element": "O" 
			},
			{
				"x": -1.6792789471,
				"y": 0.0488244717,
				"z": 0.5817249871,
				"element": "C" 
			},
			{
				"x": -1.6440003395,
				"y": 0.1012489705,
				"z": -0.8275167261,
				"element": "N" 
			},
			{
				"x": -2.8907508465,
				"y": -0.1818713905,
				"z": -1.5383654351,
				"element": "C" 
			},
			{
				"x": -3.8910903764,
				"y": 0.9921013256,
				"z": -1.4862756651,
				"element": "C" 
			},
			{
				"x": -3.3999530431,
				"y": 2.1831445596,
				"z": -2.1817735575,
				"element": "C" 
			},
			{
				"x": -2.9862835964,
				"y": 3.1093355768,
				"z": -2.7459442952,
				"element": "N" 
			},
			{
				"x": -0.4840119692,
				"y": 0.4062375261,
				"z": -1.5136307312,
				"element": "C" 
			},
			{
				"x": 0.6622718816,
				"y": 0.6529450034,
				"z": -0.9808793868,
				"element": "N" 
			},
			{
				"x": 0.7362812988,
				"y": 0.615987429,
				"z": 0.4058558369,
				"element": "C" 
			},
			{
				"x": -0.3879941675,
				"y": 0.3218158843,
				"z": 1.2135995347,
				"element": "C" 
			},
			{
				"x": -0.2712626541,
				"y": 0.2937688677,
				"z": 2.6135066805,
				"element": "C" 
			},
			{
				"x": 0.9528062849,
				"y": 0.5548897903,
				"z": 3.2084676749,
				"element": "C" 
			},
			{
				"x": 2.0740878382,
				"y": 0.8488655602,
				"z": 2.4102402357,
				"element": "C" 
			},
			{
				"x": 1.9716644831,
				"y": 0.8801356544,
				"z": 1.0281277817,
				"element": "C" 
			},
			{
				"x": -3.3582402655,
				"y": -1.0454721466,
				"z": -1.0616924809,
				"element": "H" 
			},
			{
				"x": -2.6454757784,
				"y": -0.4334448733,
				"z": -2.5725361603,
				"element": "H" 
			},
			{
				"x": -4.0994657401,
				"y": 1.2319454734,
				"z": -0.4393877135,
				"element": "H" 
			},
			{
				"x": -4.8352092454,
				"y": 0.6780708873,
				"z": -1.9458858375,
				"element": "H" 
			},
			{
				"x": -0.5870323293,
				"y": 0.4292199975,
				"z": -2.596642478,
				"element": "H" 
			},
			{
				"x": -1.1549420672,
				"y": 0.065515128,
				"z": 3.199979609,
				"element": "H" 
			},
			{
				"x": 1.048440784,
				"y": 0.5345146883,
				"z": 4.2896848077,
				"element": "H" 
			},
			{
				"x": 3.030347778,
				"y": 1.0542616383,
				"z": 2.8828154033,
				"element": "H" 
			},
			{
				"x": 2.8242235043,
				"y": 1.1058953682,
				"z": 0.3964657353,
				"element": "H" 
			}
		],
		 "valence_orbital": [ 
			{
				"type": "occ",
				"energy": -0.29758,
				"method": "rhf"
			},
			{
				"type": "occ",
				"energy": -0.28231,
				"method": "rhf"
			},
			{
				"type": "occ",
				"energy": -0.27545,
				"method": "rhf"
			},
			{
				"type": "occ",
				"energy": -0.26709,
				"method": "rhf"
			},
			{
				"type": "occ",
				"energy": -0.23784,
				"method": "rhf"
			},
			{
				"type": "unocc",
				"energy": -0.05034,
				"method": "rhf"
			},
			{
				"type": "unocc",
				"energy": -0.04323,
				"method": "rhf"
			},
			{
				"type": "unocc",
				"energy": 0.01898,
				"method": "rhf"
			},
			{
				"type": "unocc",
				"energy": 0.02319,
				"method": "rhf"
			},
			{
				"type": "unocc",
				"energy": 0.03182,
				"method": "rhf"
			}
		],
		"cosmo_sigma_profile": { 
			"-0.025": 0.0,
			"-0.024": 0.0,
			"-0.023": 0.0,
			"-0.022": 0.0,
			"-0.021": 0.0,
			"-0.02": 0.0,
			"-0.019": 0.0,
			"-0.018": 0.0,
			"-0.017": 0.0,
			"-0.016": 0.0,
			"-0.015": 0.0,
			"-0.014": 0.0,
			"-0.013": 0.0,
			"-0.012": 0.0415373481951,
			"-0.011": 1.47758412354,
			"-0.01": 3.1169401015,
			"-0.009": 7.30523968978,
			"-0.008": 8.61014768497,
			"-0.007": 12.5033012188,
			"-0.006": 16.6624445156,
			"-0.005": 17.8002639803,
			"-0.004": 17.0606764099,
			"-0.003": 11.9722428085,
			"-0.002": 9.93130671289,
			"-0.001": 9.71742646082,
			"0.0": 12.3796283822,
			"0.001": 14.1223422479,
			"0.002": 17.1190970639,
			"0.003": 16.0571839798,
			"0.004": 9.55637851232,
			"0.005": 4.8342336078,
			"0.006": 5.94612948758,
			"0.007": 3.71530368426,
			"0.008": 5.93655747551,
			"0.009": 5.84590280987,
			"0.01": 5.71040883376,
			"0.011": 5.72295375752,
			"0.012": 6.01828408905,
			"0.013": 4.16602244851,
			"0.014": 1.14894690229,
			"0.015": 0.538165076736,
			"0.016": 0.0222698820838,
			"0.017": 0.0,
			"0.018": 0.0,
			"0.019": 0.0,
			"0.02": 0.0,
			"0.021": 0.0,
			"0.022": 0.0,
			"0.023": 0.0,
			"0.024": 0.0,
			"0.025": 0.0
		}
	}
}
