{
	 "smiles": "NC1=CC=CC=C1SC(=O)C1=CC=CC=C1", 
	 "Tm": 378.15, 
	 "num_atms": 27, 
	 "gaussian": { 
		 "optdone": 1, 
		 "sigma_profile": "yes", 
		 "theory": "DFT", 
		 "functional": "B3LYP", 
		 "basiset": "6-31G**", 
		 "properties": { 
			 "R2extent": 5553.8377, 
			 "electric_dipole_moment_norm": 1.56518302444, 
			 "electric_quadrupole_moment_norm": 18.9160409158, 
			 "total_energy": -1030.18559559, 
			 "HOMO_LUMO_gap": 0.14108, 
			 "cosmo_polarized_energy": -10.79, 
			 "cosmo_cavitation_energy": 32.5, 
			 "cosmo_dispersion_energy": -24.33, 
			 "cosmo_repulsion_energy": 1.83, 
			 "cosmo_total_nonelectrostatic_energy": 10.01, 
			 "SMD_solvation_energy": 5.52 
		},
		"coords": [
			{
				"x": -1.9573323912,
				"y": 1.0209664225,
				"z": 0.7516616267,
				"element": "N" 
			},
			{
				"x": -2.7721038339,
				"y": 0.222167293,
				"z": -0.0410353647,
				"element": "C" 
			},
			{
				"x": -4.1484364186,
				"y": 0.1033303026,
				"z": 0.2347504188,
				"element": "C" 
			},
			{
				"x": -4.9907466933,
				"y": -0.6478800761,
				"z": -0.5760581427,
				"element": "C" 
			},
			{
				"x": -4.4848298033,
				"y": -1.326822057,
				"z": -1.6873199033,
				"element": "C" 
			},
			{
				"x": -3.1270507086,
				"y": -1.2246073628,
				"z": -1.9771732602,
				"element": "C" 
			},
			{
				"x": -2.2697037465,
				"y": -0.453807693,
				"z": -1.1799035742,
				"element": "C" 
			},
			{
				"x": -0.6087985454,
				"y": -0.2255602999,
				"z": -1.8070390873,
				"element": "S" 
			},
			{
				"x": 0.4664647229,
				"y": -0.8777030348,
				"z": -0.5089049493,
				"element": "C" 
			},
			{
				"x": 0.0535987258,
				"y": -1.1213566892,
				"z": 0.6137114406,
				"element": "O" 
			},
			{
				"x": 1.9044950524,
				"y": -1.0341529565,
				"z": -0.8829601271,
				"element": "C" 
			},
			{
				"x": 2.809719169,
				"y": -1.3033617509,
				"z": 0.1565951464,
				"element": "C" 
			},
			{
				"x": 4.1650429077,
				"y": -1.4618925698,
				"z": -0.1165369717,
				"element": "C" 
			},
			{
				"x": 4.6301510913,
				"y": -1.3562173986,
				"z": -1.430350834,
				"element": "C" 
			},
			{
				"x": 3.7346224067,
				"y": -1.095302315,
				"z": -2.4699673364,
				"element": "C" 
			},
			{
				"x": 2.3762551475,
				"y": -0.9372545169,
				"z": -2.2010116885,
				"element": "C" 
			},
			{
				"x": -2.4069347642,
				"y": 1.3316365894,
				"z": 1.6030933324,
				"element": "H" 
			},
			{
				"x": -1.0564636885,
				"y": 0.5982882101,
				"z": 0.9476081055,
				"element": "H" 
			},
			{
				"x": -4.5488604666,
				"y": 0.6144781247,
				"z": 1.1072049223,
				"element": "H" 
			},
			{
				"x": -6.0470510369,
				"y": -0.7132486567,
				"z": -0.330399736,
				"element": "H" 
			},
			{
				"x": -5.1346708669,
				"y": -1.9259572053,
				"z": -2.3167387256,
				"element": "H" 
			},
			{
				"x": -2.7134065685,
				"y": -1.7382526678,
				"z": -2.8395442181,
				"element": "H" 
			},
			{
				"x": 2.4264154675,
				"y": -1.3829465726,
				"z": 1.1679683566,
				"element": "H" 
			},
			{
				"x": 4.8597451991,
				"y": -1.6675678074,
				"z": 0.6924594443,
				"element": "H" 
			},
			{
				"x": 5.6879139681,
				"y": -1.4802967443,
				"z": -1.6441152122,
				"element": "H" 
			},
			{
				"x": 4.0932124467,
				"y": -1.0207046616,
				"z": -3.4921159409,
				"element": "H" 
			},
			{
				"x": 1.6859532277,
				"y": -0.7524739058,
				"z": -3.0172777213,
				"element": "H" 
			}
		],
		 "valence_orbital": [ 
			{
				"type": "occ",
				"energy": -0.26815,
				"method": "rhf"
			},
			{
				"type": "occ",
				"energy": -0.26438,
				"method": "rhf"
			},
			{
				"type": "occ",
				"energy": -0.25599,
				"method": "rhf"
			},
			{
				"type": "occ",
				"energy": -0.23747,
				"method": "rhf"
			},
			{
				"type": "occ",
				"energy": -0.20411,
				"method": "rhf"
			},
			{
				"type": "unocc",
				"energy": -0.06303,
				"method": "rhf"
			},
			{
				"type": "unocc",
				"energy": -0.0158,
				"method": "rhf"
			},
			{
				"type": "unocc",
				"energy": -0.00957,
				"method": "rhf"
			},
			{
				"type": "unocc",
				"energy": 0.01162,
				"method": "rhf"
			},
			{
				"type": "unocc",
				"energy": 0.03532,
				"method": "rhf"
			}
		],
		"cosmo_sigma_profile": { 
			"-0.025": 0.0,
			"-0.024": 0.0,
			"-0.023": 0.0,
			"-0.022": 0.0,
			"-0.021": 0.0,
			"-0.02": 0.0,
			"-0.019": 0.0,
			"-0.018": 0.0,
			"-0.017": 0.0,
			"-0.016": 0.0,
			"-0.015": 0.0,
			"-0.014": 0.0,
			"-0.013": 0.218394979525,
			"-0.012": 1.6687726517,
			"-0.011": 1.52024229589,
			"-0.01": 1.50337955468,
			"-0.009": 1.49286893761,
			"-0.008": 2.98906407079,
			"-0.007": 5.64624151816,
			"-0.006": 16.0058847407,
			"-0.005": 19.6728917403,
			"-0.004": 20.2093390418,
			"-0.003": 14.5772237708,
			"-0.002": 16.0468159945,
			"-0.001": 19.2862204535,
			"0.0": 17.1032019861,
			"0.001": 19.9234946008,
			"0.002": 20.0649110177,
			"0.003": 24.4509286399,
			"0.004": 19.3725460505,
			"0.005": 14.3743296623,
			"0.006": 9.30911397496,
			"0.007": 3.1697212284,
			"0.008": 3.75225280799,
			"0.009": 2.88176976854,
			"0.01": 3.38995082936,
			"0.011": 1.75040168411,
			"0.012": 1.05059633269,
			"0.013": 0.602586718059,
			"0.014": 0.473293711312,
			"0.015": 0.200057709435,
			"0.016": 0.0,
			"0.017": 0.0,
			"0.018": 0.0,
			"0.019": 0.0,
			"0.02": 0.0,
			"0.021": 0.0,
			"0.022": 0.0,
			"0.023": 0.0,
			"0.024": 0.0,
			"0.025": 0.0
		}
	}
}
