{
	 "smiles": "OC(=O)CC1=CC(F)=CC=C1", 
	 "Tm": 317.65, 
	 "num_atms": 18, 
	 "gaussian": { 
		 "optdone": 1, 
		 "sigma_profile": "yes", 
		 "theory": "DFT", 
		 "functional": "B3LYP", 
		 "basiset": "6-31G**", 
		 "properties": { 
			 "R2extent": 2282.9187, 
			 "electric_dipole_moment_norm": 0.573805934093, 
			 "electric_quadrupole_moment_norm": 9.23577157091, 
			 "total_energy": -559.368441453, 
			 "HOMO_LUMO_gap": 0.22488, 
			 "cosmo_polarized_energy": -9.55, 
			 "cosmo_cavitation_energy": 23.33, 
			 "cosmo_dispersion_energy": -16.7, 
			 "cosmo_repulsion_energy": 1.33, 
			 "cosmo_total_nonelectrostatic_energy": 7.96, 
			 "SMD_solvation_energy": 5.66 
		},
		"coords": [
			{
				"x": -0.3651712526,
				"y": 1.171325454,
				"z": 3.7085083618,
				"element": "O" 
			},
			{
				"x": 0.2426681373,
				"y": 0.1145278505,
				"z": 3.1225970479,
				"element": "C" 
			},
			{
				"x": 0.2994015248,
				"y": -0.9801602432,
				"z": 3.6384960624,
				"element": "O" 
			},
			{
				"x": 0.8005252195,
				"y": 0.4652202031,
				"z": 1.7543092178,
				"element": "C" 
			},
			{
				"x": -0.1534599224,
				"y": 0.0431371679,
				"z": 0.6460983106,
				"element": "C" 
			},
			{
				"x": -0.6898517064,
				"y": 0.9989385494,
				"z": -0.2220136419,
				"element": "C" 
			},
			{
				"x": -1.5501636126,
				"y": 0.5878440015,
				"z": -1.2347324473,
				"element": "C" 
			},
			{
				"x": -2.05855941,
				"y": 1.5199232965,
				"z": -2.0686753081,
				"element": "F" 
			},
			{
				"x": -1.9022799968,
				"y": -0.7434576522,
				"z": -1.4150729672,
				"element": "C" 
			},
			{
				"x": -1.3662115739,
				"y": -1.6904760621,
				"z": -0.5396657967,
				"element": "C" 
			},
			{
				"x": -0.4994362837,
				"y": -1.3059392798,
				"z": 0.4829623699,
				"element": "C" 
			},
			{
				"x": -0.7198188887,
				"y": 0.8464299217,
				"z": 4.5538068796,
				"element": "H" 
			},
			{
				"x": 0.9947367869,
				"y": 1.5381843238,
				"z": 1.7003275086,
				"element": "H" 
			},
			{
				"x": 1.7502888712,
				"y": -0.0691987857,
				"z": 1.6537567631,
				"element": "H" 
			},
			{
				"x": -0.4497424113,
				"y": 2.0527286418,
				"z": -0.1251126614,
				"element": "H" 
			},
			{
				"x": -2.5763088922,
				"y": -1.0181411909,
				"z": -2.2189585459,
				"element": "H" 
			},
			{
				"x": -1.6283861742,
				"y": -2.7374671663,
				"z": -0.6591998104,
				"element": "H" 
			},
			{
				"x": -0.0956304148,
				"y": -2.0453190301,
				"z": 1.1671686573,
				"element": "H" 
			}
		],
		 "valence_orbital": [ 
			{
				"type": "occ",
				"energy": -0.34647,
				"method": "rhf"
			},
			{
				"type": "occ",
				"energy": -0.32351,
				"method": "rhf"
			},
			{
				"type": "occ",
				"energy": -0.2831,
				"method": "rhf"
			},
			{
				"type": "occ",
				"energy": -0.25777,
				"method": "rhf"
			},
			{
				"type": "occ",
				"energy": -0.24465,
				"method": "rhf"
			},
			{
				"type": "unocc",
				"energy": -0.01977,
				"method": "rhf"
			},
			{
				"type": "unocc",
				"energy": -0.00388,
				"method": "rhf"
			},
			{
				"type": "unocc",
				"energy": 0.01145,
				"method": "rhf"
			},
			{
				"type": "unocc",
				"energy": 0.07442,
				"method": "rhf"
			},
			{
				"type": "unocc",
				"energy": 0.08847,
				"method": "rhf"
			}
		],
		"cosmo_sigma_profile": { 
			"-0.025": 0.0,
			"-0.024": 0.0,
			"-0.023": 0.0,
			"-0.022": 0.0,
			"-0.021": 0.0,
			"-0.02": 0.0,
			"-0.019": 0.116290655496,
			"-0.018": 0.703303478822,
			"-0.017": 0.922118996139,
			"-0.016": 0.952179637498,
			"-0.015": 1.01289092033,
			"-0.014": 1.04864231167,
			"-0.013": 0.165138017046,
			"-0.012": 0.157993405466,
			"-0.011": 1.0167216543,
			"-0.01": 0.722021338993,
			"-0.009": 0.507301579999,
			"-0.008": 1.5542979384,
			"-0.007": 7.60915151407,
			"-0.006": 10.2105762206,
			"-0.005": 11.553342028,
			"-0.004": 13.6977717831,
			"-0.003": 11.0195127876,
			"-0.002": 10.0525876297,
			"-0.001": 8.06387446931,
			"0.0": 10.6115744556,
			"0.001": 15.5963521179,
			"0.002": 14.4064274579,
			"0.003": 15.8702770189,
			"0.004": 20.0558279016,
			"0.005": 8.45142808784,
			"0.006": 2.12495025327,
			"0.007": 2.69303295919,
			"0.008": 2.32949223245,
			"0.009": 3.3949173376,
			"0.01": 2.07211553245,
			"0.011": 3.82471633428,
			"0.012": 3.42036709384,
			"0.013": 0.169886824663,
			"0.014": 0.0,
			"0.015": 0.0,
			"0.016": 0.0,
			"0.017": 0.0,
			"0.018": 0.0,
			"0.019": 0.0,
			"0.02": 0.0,
			"0.021": 0.0,
			"0.022": 0.0,
			"0.023": 0.0,
			"0.024": 0.0,
			"0.025": 0.0
		}
	}
}
