{
	 "smiles": "S1C=CC=C1C1=CC=CC=C1", 
	 "Tm": 308.15, 
	 "num_atms": 19, 
	 "gaussian": { 
		 "optdone": 1, 
		 "sigma_profile": "yes", 
		 "theory": "DFT", 
		 "functional": "B3LYP", 
		 "basiset": "6-31G**", 
		 "properties": { 
			 "R2extent": 2242.5127, 
			 "electric_dipole_moment_norm": 0.60166942751, 
			 "electric_quadrupole_moment_norm": 9.40526178636, 
			 "total_energy": -784.063466111, 
			 "HOMO_LUMO_gap": 0.17538, 
			 "cosmo_polarized_energy": -5.13, 
			 "cosmo_cavitation_energy": 24.26, 
			 "cosmo_dispersion_energy": -18.64, 
			 "cosmo_repulsion_energy": 1.42, 
			 "cosmo_total_nonelectrostatic_energy": 7.04, 
			 "SMD_solvation_energy": 4.04 
		},
		"coords": [
			{
				"x": -1.851283998,
				"y": -1.2978340456,
				"z": 0.2526300188,
				"element": "S" 
			},
			{
				"x": -2.5167654439,
				"y": -0.5861346283,
				"z": 1.686186466,
				"element": "C" 
			},
			{
				"x": -1.6924640278,
				"y": 0.3789642283,
				"z": 2.1960058923,
				"element": "C" 
			},
			{
				"x": -0.5083427904,
				"y": 0.5582132903,
				"z": 1.4236022048,
				"element": "C" 
			},
			{
				"x": -0.4315050893,
				"y": -0.2698543077,
				"z": 0.3263219928,
				"element": "C" 
			},
			{
				"x": 0.6357662926,
				"y": -0.3600847477,
				"z": -0.6790721107,
				"element": "C" 
			},
			{
				"x": 1.958682995,
				"y": -0.0202253587,
				"z": -0.33927712,
				"element": "C" 
			},
			{
				"x": 2.9777410151,
				"y": -0.0828520906,
				"z": -1.2867395304,
				"element": "C" 
			},
			{
				"x": 2.7042133851,
				"y": -0.5006665855,
				"z": -2.5911603474,
				"element": "C" 
			},
			{
				"x": 1.3984667371,
				"y": -0.8512433981,
				"z": -2.9392160471,
				"element": "C" 
			},
			{
				"x": 0.3747733504,
				"y": -0.7773164918,
				"z": -1.9966917961,
				"element": "C" 
			},
			{
				"x": -3.4712366831,
				"y": -0.9252915802,
				"z": 2.0640867863,
				"element": "H" 
			},
			{
				"x": -1.923112394,
				"y": 0.9511559008,
				"z": 3.0875386424,
				"element": "H" 
			},
			{
				"x": 0.2502931837,
				"y": 1.2975976114,
				"z": 1.6536887187,
				"element": "H" 
			},
			{
				"x": 2.1883249788,
				"y": 0.2737565385,
				"z": 0.6802213648,
				"element": "H" 
			},
			{
				"x": 3.9916952207,
				"y": 0.1831918824,
				"z": -1.0015128907,
				"element": "H" 
			},
			{
				"x": 3.5008338299,
				"y": -0.5551151679,
				"z": -3.3272725774,
				"element": "H" 
			},
			{
				"x": 1.1725011621,
				"y": -1.1746169785,
				"z": -3.9513427719,
				"element": "H" 
			},
			{
				"x": -0.6414817239,
				"y": -1.026744071,
				"z": -2.2882968953,
				"element": "H" 
			}
		],
		 "valence_orbital": [ 
			{
				"type": "occ",
				"energy": -0.33176,
				"method": "rhf"
			},
			{
				"type": "occ",
				"energy": -0.27355,
				"method": "rhf"
			},
			{
				"type": "occ",
				"energy": -0.25281,
				"method": "rhf"
			},
			{
				"type": "occ",
				"energy": -0.24895,
				"method": "rhf"
			},
			{
				"type": "occ",
				"energy": -0.21126,
				"method": "rhf"
			},
			{
				"type": "unocc",
				"energy": -0.03588,
				"method": "rhf"
			},
			{
				"type": "unocc",
				"energy": -0.00384,
				"method": "rhf"
			},
			{
				"type": "unocc",
				"energy": 0.02213,
				"method": "rhf"
			},
			{
				"type": "unocc",
				"energy": 0.03716,
				"method": "rhf"
			},
			{
				"type": "unocc",
				"energy": 0.07288,
				"method": "rhf"
			}
		],
		"cosmo_sigma_profile": { 
			"-0.025": 0.0,
			"-0.024": 0.0,
			"-0.023": 0.0,
			"-0.022": 0.0,
			"-0.021": 0.0,
			"-0.02": 0.0,
			"-0.019": 0.0,
			"-0.018": 0.0,
			"-0.017": 0.0,
			"-0.016": 0.0,
			"-0.015": 0.0,
			"-0.014": 0.0,
			"-0.013": 0.0,
			"-0.012": 0.0,
			"-0.011": 0.0,
			"-0.01": 0.0,
			"-0.009": 0.263614255527,
			"-0.008": 1.76621291467,
			"-0.007": 3.30175349273,
			"-0.006": 12.1632857722,
			"-0.005": 14.7659176122,
			"-0.004": 17.1669138022,
			"-0.003": 15.1613473552,
			"-0.002": 12.2988127195,
			"-0.001": 11.9471460218,
			"0.0": 11.2155759003,
			"0.001": 12.4768902571,
			"0.002": 16.5971977087,
			"0.003": 17.6657213051,
			"0.004": 23.0702660003,
			"0.005": 21.0044870917,
			"0.006": 6.54431610879,
			"0.007": 0.0,
			"0.008": 0.0,
			"0.009": 0.0,
			"0.01": 0.0,
			"0.011": 0.0,
			"0.012": 0.0,
			"0.013": 0.0,
			"0.014": 0.0,
			"0.015": 0.0,
			"0.016": 0.0,
			"0.017": 0.0,
			"0.018": 0.0,
			"0.019": 0.0,
			"0.02": 0.0,
			"0.021": 0.0,
			"0.022": 0.0,
			"0.023": 0.0,
			"0.024": 0.0,
			"0.025": 0.0
		}
	}
}
