{
	 "smiles": "NC1CCN(C1=O)C1=C(F)C=CC=C1", 
	 "Tm": 341.15, 
	 "num_atms": 25, 
	 "gaussian": { 
		 "optdone": 1, 
		 "sigma_profile": "yes", 
		 "theory": "DFT", 
		 "functional": "B3LYP", 
		 "basiset": "6-31G**", 
		 "properties": { 
			 "R2extent": 3140.9997, 
			 "electric_dipole_moment_norm": 2.34476757057, 
			 "electric_quadrupole_moment_norm": 11.9410106465, 
			 "total_energy": -672.262742242, 
			 "HOMO_LUMO_gap": 0.20363, 
			 "cosmo_polarized_energy": -11.72, 
			 "cosmo_cavitation_energy": 28.17, 
			 "cosmo_dispersion_energy": -20.71, 
			 "cosmo_repulsion_energy": 1.62, 
			 "cosmo_total_nonelectrostatic_energy": 9.08, 
			 "SMD_solvation_energy": 4.22 
		},
		"coords": [
			{
				"x": -0.1149136698,
				"y": 1.2538746688,
				"z": 2.5727179151,
				"element": "N" 
			},
			{
				"x": 0.858932342,
				"y": 0.3373381723,
				"z": 1.9661893972,
				"element": "C" 
			},
			{
				"x": 1.6122224111,
				"y": 1.0068507257,
				"z": 0.8114420651,
				"element": "C" 
			},
			{
				"x": 0.68718693,
				"y": 0.8021540396,
				"z": -0.3980169121,
				"element": "C" 
			},
			{
				"x": 0.010219128,
				"y": -0.4718418045,
				"z": -0.0861266676,
				"element": "N" 
			},
			{
				"x": 0.0537822921,
				"y": -0.7672648314,
				"z": 1.2647523564,
				"element": "C" 
			},
			{
				"x": -0.4760702279,
				"y": -1.7115199992,
				"z": 1.8279895681,
				"element": "O" 
			},
			{
				"x": -0.6769620217,
				"y": -1.2519262795,
				"z": -1.0443335976,
				"element": "C" 
			},
			{
				"x": -1.2855313774,
				"y": -0.6709388133,
				"z": -2.1669603474,
				"element": "C" 
			},
			{
				"x": -1.2544882163,
				"y": 0.6759667804,
				"z": -2.3248956557,
				"element": "F" 
			},
			{
				"x": -1.9299858105,
				"y": -1.4223227738,
				"z": -3.1399081877,
				"element": "C" 
			},
			{
				"x": -2.0057475695,
				"y": -2.8066308247,
				"z": -2.9964870615,
				"element": "C" 
			},
			{
				"x": -1.4267788546,
				"y": -3.4123995902,
				"z": -1.8800847063,
				"element": "C" 
			},
			{
				"x": -0.7660003733,
				"y": -2.6494619658,
				"z": -0.9198661336,
				"element": "C" 
			},
			{
				"x": -0.7329726606,
				"y": 0.7227525239,
				"z": 3.1827927151,
				"element": "H" 
			},
			{
				"x": 0.3685192394,
				"y": 1.9290284931,
				"z": 3.1603616189,
				"element": "H" 
			},
			{
				"x": 1.5393527525,
				"y": -0.1381131568,
				"z": 2.6886443833,
				"element": "H" 
			},
			{
				"x": 1.816870988,
				"y": 2.0648085983,
				"z": 0.9962636416,
				"element": "H" 
			},
			{
				"x": 2.5663732503,
				"y": 0.4949013727,
				"z": 0.6475784035,
				"element": "H" 
			},
			{
				"x": 1.2287687703,
				"y": 0.7194598352,
				"z": -1.3434498316,
				"element": "H" 
			},
			{
				"x": -0.0420970583,
				"y": 1.6104789811,
				"z": -0.4846581106,
				"element": "H" 
			},
			{
				"x": -2.3722049416,
				"y": -0.9040768684,
				"z": -3.9840367463,
				"element": "H" 
			},
			{
				"x": -2.5152844107,
				"y": -3.401534858,
				"z": -3.7478220655,
				"element": "H" 
			},
			{
				"x": -1.4812601672,
				"y": -4.4892792635,
				"z": -1.7544156714,
				"element": "H" 
			},
			{
				"x": -0.3273307442,
				"y": -3.121003162,
				"z": -0.0512703692,
				"element": "H" 
			}
		],
		 "valence_orbital": [ 
			{
				"type": "occ",
				"energy": -0.29058,
				"method": "rhf"
			},
			{
				"type": "occ",
				"energy": -0.25484,
				"method": "rhf"
			},
			{
				"type": "occ",
				"energy": -0.24741,
				"method": "rhf"
			},
			{
				"type": "occ",
				"energy": -0.24175,
				"method": "rhf"
			},
			{
				"type": "occ",
				"energy": -0.22006,
				"method": "rhf"
			},
			{
				"type": "unocc",
				"energy": -0.01643,
				"method": "rhf"
			},
			{
				"type": "unocc",
				"energy": 0.0019,
				"method": "rhf"
			},
			{
				"type": "unocc",
				"energy": 0.03108,
				"method": "rhf"
			},
			{
				"type": "unocc",
				"energy": 0.07972,
				"method": "rhf"
			},
			{
				"type": "unocc",
				"energy": 0.09032,
				"method": "rhf"
			}
		],
		"cosmo_sigma_profile": { 
			"-0.025": 0.0,
			"-0.024": 0.0,
			"-0.023": 0.0,
			"-0.022": 0.0,
			"-0.021": 0.0,
			"-0.02": 0.0,
			"-0.019": 0.0,
			"-0.018": 0.0,
			"-0.017": 0.0,
			"-0.016": 0.0,
			"-0.015": 0.0,
			"-0.014": 0.0,
			"-0.013": 0.0,
			"-0.012": 0.0,
			"-0.011": 0.365788354954,
			"-0.01": 1.83632590153,
			"-0.009": 3.07541058862,
			"-0.008": 2.78619406167,
			"-0.007": 5.22403103549,
			"-0.006": 8.75048192378,
			"-0.005": 16.6981744146,
			"-0.004": 25.0637515065,
			"-0.003": 20.9086177282,
			"-0.002": 17.3354186991,
			"-0.001": 15.3718358682,
			"0.0": 13.705659742,
			"0.001": 14.8778276623,
			"0.002": 13.0893895333,
			"0.003": 13.788002891,
			"0.004": 16.513372674,
			"0.005": 7.94212540265,
			"0.006": 2.73394309282,
			"0.007": 2.79144018563,
			"0.008": 2.24513837296,
			"0.009": 2.46351027208,
			"0.01": 1.53760024084,
			"0.011": 2.14820923444,
			"0.012": 3.92390884966,
			"0.013": 4.74286760159,
			"0.014": 1.48423049192,
			"0.015": 0.608982405723,
			"0.016": 0.299539999005,
			"0.017": 0.489113653641,
			"0.018": 0.142202676796,
			"0.019": 0.0,
			"0.02": 0.0,
			"0.021": 0.0,
			"0.022": 0.0,
			"0.023": 0.0,
			"0.024": 0.0,
			"0.025": 0.0
		}
	}
}
