{
	 "smiles": "CCOC1=C(C=CC=C1)C(=O)N1CCNCC1", 
	 "Tm": 356.15, 
	 "num_atms": 35, 
	 "gaussian": { 
		 "optdone": 1, 
		 "sigma_profile": "yes", 
		 "theory": "DFT", 
		 "functional": "B3LYP", 
		 "basiset": "6-31G**", 
		 "properties": { 
			 "R2extent": 4709.827, 
			 "electric_dipole_moment_norm": 3.77058150555, 
			 "electric_quadrupole_moment_norm": 13.0174299072, 
			 "total_energy": -766.177755459, 
			 "HOMO_LUMO_gap": 0.20201, 
			 "cosmo_polarized_energy": -13.49, 
			 "cosmo_cavitation_energy": 36.16, 
			 "cosmo_dispersion_energy": -25.51, 
			 "cosmo_repulsion_energy": 2.01, 
			 "cosmo_total_nonelectrostatic_energy": 12.66, 
			 "SMD_solvation_energy": 3.96 
		},
		"coords": [
			{
				"x": -4.1759517465,
				"y": 0.7591927069,
				"z": 2.2977126831,
				"element": "C" 
			},
			{
				"x": -2.8134166563,
				"y": 0.2176939565,
				"z": 1.8997161531,
				"element": "C" 
			},
			{
				"x": -3.0390869705,
				"y": -1.000683468,
				"z": 1.1787706559,
				"element": "O" 
			},
			{
				"x": -2.1171849474,
				"y": -1.5368239834,
				"z": 0.3349568194,
				"element": "C" 
			},
			{
				"x": -0.7332370877,
				"y": -1.2607380543,
				"z": 0.2947676668,
				"element": "C" 
			},
			{
				"x": 0.0480889246,
				"y": -1.9111797814,
				"z": -0.6804604755,
				"element": "C" 
			},
			{
				"x": -0.4962629593,
				"y": -2.8137946037,
				"z": -1.5853462957,
				"element": "C" 
			},
			{
				"x": -1.8670481882,
				"y": -3.0857415305,
				"z": -1.5280656129,
				"element": "C" 
			},
			{
				"x": -2.6625253678,
				"y": -2.4494327619,
				"z": -0.5862027314,
				"element": "C" 
			},
			{
				"x": 0.0000516698,
				"y": -0.4836033249,
				"z": 1.3589236805,
				"element": "C" 
			},
			{
				"x": -0.0420137716,
				"y": -0.8446504235,
				"z": 2.5347621012,
				"element": "O" 
			},
			{
				"x": 0.7827607311,
				"y": 0.5731036104,
				"z": 0.9518932857,
				"element": "N" 
			},
			{
				"x": 1.6080734948,
				"y": 1.2656178604,
				"z": 1.9448591769,
				"element": "C" 
			},
			{
				"x": 2.9791101528,
				"y": 1.5835164427,
				"z": 1.3459263374,
				"element": "C" 
			},
			{
				"x": 2.8030503654,
				"y": 2.3591287754,
				"z": 0.1166050047,
				"element": "N" 
			},
			{
				"x": 2.0452383025,
				"y": 1.6064742222,
				"z": -0.8820681631,
				"element": "C" 
			},
			{
				"x": 0.6575339109,
				"y": 1.2885577245,
				"z": -0.3194860588,
				"element": "C" 
			},
			{
				"x": -4.7097415528,
				"y": 0.0325517651,
				"z": 2.9169270521,
				"element": "H" 
			},
			{
				"x": -4.7867585728,
				"y": 0.975064522,
				"z": 1.4163427923,
				"element": "H" 
			},
			{
				"x": -4.05729563,
				"y": 1.6814077591,
				"z": 2.8754505392,
				"element": "H" 
			},
			{
				"x": -2.2831394803,
				"y": 0.9327274898,
				"z": 1.2550024274,
				"element": "H" 
			},
			{
				"x": -2.1875692928,
				"y": 0.0204930745,
				"z": 2.7736994896,
				"element": "H" 
			},
			{
				"x": 1.1162204281,
				"y": -1.7122780945,
				"z": -0.6940639465,
				"element": "H" 
			},
			{
				"x": 0.1378639459,
				"y": -3.3073125183,
				"z": -2.3150268706,
				"element": "H" 
			},
			{
				"x": -2.3173548113,
				"y": -3.7883156322,
				"z": -2.2235019083,
				"element": "H" 
			},
			{
				"x": -3.730740995,
				"y": -2.632234221,
				"z": -0.5328977305,
				"element": "H" 
			},
			{
				"x": 1.116612616,
				"y": 2.2025367608,
				"z": 2.2443189955,
				"element": "H" 
			},
			{
				"x": 1.6881058649,
				"y": 0.6212312613,
				"z": 2.8200469605,
				"element": "H" 
			},
			{
				"x": 3.5185944666,
				"y": 0.6319484685,
				"z": 1.180481989,
				"element": "H" 
			},
			{
				"x": 3.5580792623,
				"y": 2.1770155301,
				"z": 2.0616270435,
				"element": "H" 
			},
			{
				"x": 3.7069825999,
				"y": 2.6285636879,
				"z": -0.2604084355,
				"element": "H" 
			},
			{
				"x": 1.9377868318,
				"y": 2.2168586652,
				"z": -1.7853495349,
				"element": "H" 
			},
			{
				"x": 2.5338184061,
				"y": 0.6562339474,
				"z": -1.1712627169,
				"element": "H" 
			},
			{
				"x": 0.1234539807,
				"y": 2.235664821,
				"z": -0.1498451449,
				"element": "H" 
			},
			{
				"x": 0.081802076,
				"y": 0.6889053459,
				"z": -1.0232052283,
				"element": "H" 
			}
		],
		 "valence_orbital": [ 
			{
				"type": "occ",
				"energy": -0.25923,
				"method": "rhf"
			},
			{
				"type": "occ",
				"energy": -0.24478,
				"method": "rhf"
			},
			{
				"type": "occ",
				"energy": -0.23831,
				"method": "rhf"
			},
			{
				"type": "occ",
				"energy": -0.22847,
				"method": "rhf"
			},
			{
				"type": "occ",
				"energy": -0.21566,
				"method": "rhf"
			},
			{
				"type": "unocc",
				"energy": -0.01365,
				"method": "rhf"
			},
			{
				"type": "unocc",
				"energy": 0.00637,
				"method": "rhf"
			},
			{
				"type": "unocc",
				"energy": 0.03568,
				"method": "rhf"
			},
			{
				"type": "unocc",
				"energy": 0.0766,
				"method": "rhf"
			},
			{
				"type": "unocc",
				"energy": 0.09062,
				"method": "rhf"
			}
		],
		"cosmo_sigma_profile": { 
			"-0.025": 0.0,
			"-0.024": 0.0,
			"-0.023": 0.0,
			"-0.022": 0.0,
			"-0.021": 0.0,
			"-0.02": 0.0,
			"-0.019": 0.0,
			"-0.018": 0.0,
			"-0.017": 0.0,
			"-0.016": 0.0,
			"-0.015": 0.0,
			"-0.014": 0.0,
			"-0.013": 0.0,
			"-0.012": 0.0,
			"-0.011": 0.215534944218,
			"-0.01": 1.46119302173,
			"-0.009": 1.282642401,
			"-0.008": 1.22404707349,
			"-0.007": 1.50921838246,
			"-0.006": 5.67436090801,
			"-0.005": 12.6875512183,
			"-0.004": 34.9552426206,
			"-0.003": 43.2681592681,
			"-0.002": 39.697609624,
			"-0.001": 26.8797387479,
			"0.0": 19.6175969522,
			"0.001": 14.1816451808,
			"0.002": 8.30875169485,
			"0.003": 12.9067358602,
			"0.004": 12.2450024821,
			"0.005": 13.2402512263,
			"0.006": 6.34225334736,
			"0.007": 4.11763064942,
			"0.008": 3.91641464854,
			"0.009": 2.95843838327,
			"0.01": 3.68697955309,
			"0.011": 1.64132633487,
			"0.012": 2.22798933214,
			"0.013": 3.64195189769,
			"0.014": 3.74742660508,
			"0.015": 1.02635422034,
			"0.016": 0.3846657917,
			"0.017": 0.420160685052,
			"0.018": 0.122194119287,
			"0.019": 0.0,
			"0.02": 0.0,
			"0.021": 0.0,
			"0.022": 0.0,
			"0.023": 0.0,
			"0.024": 0.0,
			"0.025": 0.0
		}
	}
}
