{
	 "smiles": "CCCCCCC(O)CCCCC", 
	 "Tm": 303.15, 
	 "num_atms": 39, 
	 "gaussian": { 
		 "optdone": 1, 
		 "sigma_profile": "yes", 
		 "theory": "DFT", 
		 "functional": "B3LYP", 
		 "basiset": "6-31G**", 
		 "properties": { 
			 "R2extent": 5255.529, 
			 "electric_dipole_moment_norm": 1.44491655468, 
			 "electric_quadrupole_moment_norm": 5.22029734785, 
			 "total_energy": -548.195461719, 
			 "HOMO_LUMO_gap": 0.32597, 
			 "cosmo_polarized_energy": -5.3, 
			 "cosmo_cavitation_energy": 37.78, 
			 "cosmo_dispersion_energy": -26.11, 
			 "cosmo_repulsion_energy": 2.15, 
			 "cosmo_total_nonelectrostatic_energy": 13.81, 
			 "SMD_solvation_energy": 5.32 
		},
		"coords": [
			{
				"x": 0.358255332,
				"y": 4.7883472726,
				"z": -1.7513076448,
				"element": "C" 
			},
			{
				"x": 0.6100765661,
				"y": 3.2796236848,
				"z": -1.8474459174,
				"element": "C" 
			},
			{
				"x": 0.7497752741,
				"y": 2.7933461886,
				"z": -3.296499952,
				"element": "C" 
			},
			{
				"x": 0.9349408589,
				"y": 1.2762943636,
				"z": -3.4782290377,
				"element": "C" 
			},
			{
				"x": 2.241362358,
				"y": 0.6999823911,
				"z": -2.8750589207,
				"element": "C" 
			},
			{
				"x": 2.1168679809,
				"y": 0.0999596996,
				"z": -1.4572509909,
				"element": "C" 
			},
			{
				"x": 1.6687021751,
				"y": -1.3713535464,
				"z": -1.4311240086,
				"element": "C" 
			},
			{
				"x": 0.380625854,
				"y": -1.5676437132,
				"z": -2.0299557276,
				"element": "O" 
			},
			{
				"x": 1.5868160222,
				"y": -1.9725108886,
				"z": -0.021575564,
				"element": "C" 
			},
			{
				"x": 0.5350752819,
				"y": -1.3311633118,
				"z": 0.8960403806,
				"element": "C" 
			},
			{
				"x": 0.3748419417,
				"y": -2.0378184507,
				"z": 2.2542762278,
				"element": "C" 
			},
			{
				"x": -0.1417118469,
				"y": -3.4872690428,
				"z": 2.2040473012,
				"element": "C" 
			},
			{
				"x": -1.5243090228,
				"y": -3.642324679,
				"z": 1.5596021192,
				"element": "C" 
			},
			{
				"x": -0.5631051033,
				"y": 5.070367706,
				"z": -2.2737902898,
				"element": "H" 
			},
			{
				"x": 0.2629458087,
				"y": 5.1138244956,
				"z": -0.7101981881,
				"element": "H" 
			},
			{
				"x": 1.1795030651,
				"y": 5.3566806815,
				"z": -2.2031813082,
				"element": "H" 
			},
			{
				"x": 1.5159782997,
				"y": 3.0300741515,
				"z": -1.2807808864,
				"element": "H" 
			},
			{
				"x": -0.2133690209,
				"y": 2.7388689663,
				"z": -1.3612709226,
				"element": "H" 
			},
			{
				"x": 1.5962304913,
				"y": 3.3137068959,
				"z": -3.7683839755,
				"element": "H" 
			},
			{
				"x": -0.1433563083,
				"y": 3.1037689167,
				"z": -3.8565350842,
				"element": "H" 
			},
			{
				"x": 0.0706970275,
				"y": 0.7554507921,
				"z": -3.0484026045,
				"element": "H" 
			},
			{
				"x": 0.9158774153,
				"y": 1.069322285,
				"z": -4.5561350331,
				"element": "H" 
			},
			{
				"x": 2.6469547701,
				"y": -0.0731636458,
				"z": -3.5439074386,
				"element": "H" 
			},
			{
				"x": 3.0002925496,
				"y": 1.4927129946,
				"z": -2.8660403879,
				"element": "H" 
			},
			{
				"x": 3.0933956183,
				"y": 0.1487814804,
				"z": -0.9571585556,
				"element": "H" 
			},
			{
				"x": 1.426654683,
				"y": 0.7019432509,
				"z": -0.8579038496,
				"element": "H" 
			},
			{
				"x": 2.4193403123,
				"y": -1.9533162337,
				"z": -1.9944438115,
				"element": "H" 
			},
			{
				"x": 0.4579005967,
				"y": -1.3845799045,
				"z": -2.9739279396,
				"element": "H" 
			},
			{
				"x": 2.5795498288,
				"y": -1.9092961632,
				"z": 0.4446112134,
				"element": "H" 
			},
			{
				"x": 1.3658866127,
				"y": -3.0388361523,
				"z": -0.1444867665,
				"element": "H" 
			},
			{
				"x": 0.8049549885,
				"y": -0.2854408391,
				"z": 1.0887736786,
				"element": "H" 
			},
			{
				"x": -0.4239918254,
				"y": -1.3050194548,
				"z": 0.3683933238,
				"element": "H" 
			},
			{
				"x": 1.3396151863,
				"y": -2.0255001807,
				"z": 2.780843039,
				"element": "H" 
			},
			{
				"x": -0.3136922704,
				"y": -1.4452311746,
				"z": 2.8724889645,
				"element": "H" 
			},
			{
				"x": -0.1786017526,
				"y": -3.8722829656,
				"z": 3.2314129982,
				"element": "H" 
			},
			{
				"x": 0.5788424824,
				"y": -4.1241974436,
				"z": 1.6752635717,
				"element": "H" 
			},
			{
				"x": -1.5134385374,
				"y": -3.3626097522,
				"z": 0.50131923,
				"element": "H" 
			},
			{
				"x": -2.2673234161,
				"y": -3.0112573093,
				"z": 2.0617844462,
				"element": "H" 
			},
			{
				"x": -1.873260277,
				"y": -4.6785413649,
				"z": 1.6222383112,
				"element": "H" 
			}
		],
		 "valence_orbital": [ 
			{
				"type": "occ",
				"energy": -0.30911,
				"method": "rhf"
			},
			{
				"type": "occ",
				"energy": -0.30654,
				"method": "rhf"
			},
			{
				"type": "occ",
				"energy": -0.3008,
				"method": "rhf"
			},
			{
				"type": "occ",
				"energy": -0.29567,
				"method": "rhf"
			},
			{
				"type": "occ",
				"energy": -0.25658,
				"method": "rhf"
			},
			{
				"type": "unocc",
				"energy": 0.06939,
				"method": "rhf"
			},
			{
				"type": "unocc",
				"energy": 0.09247,
				"method": "rhf"
			},
			{
				"type": "unocc",
				"energy": 0.09435,
				"method": "rhf"
			},
			{
				"type": "unocc",
				"energy": 0.11238,
				"method": "rhf"
			},
			{
				"type": "unocc",
				"energy": 0.1159,
				"method": "rhf"
			}
		],
		"cosmo_sigma_profile": { 
			"-0.025": 0.0,
			"-0.024": 0.0,
			"-0.023": 0.0,
			"-0.022": 0.0,
			"-0.021": 0.0,
			"-0.02": 0.0,
			"-0.019": 0.0,
			"-0.018": 0.0,
			"-0.017": 0.0,
			"-0.016": 0.0,
			"-0.015": 0.0,
			"-0.014": 0.0823702487157,
			"-0.013": 0.826467513658,
			"-0.012": 0.637257012381,
			"-0.011": 0.425362353501,
			"-0.01": 1.49932409219,
			"-0.009": 1.14115961692,
			"-0.008": 0.883667991834,
			"-0.007": 1.14985976488,
			"-0.006": 1.08407066498,
			"-0.005": 0.943910791065,
			"-0.004": 1.97133477979,
			"-0.003": 8.57978186453,
			"-0.002": 42.2652937379,
			"-0.001": 61.623153665,
			"0.0": 64.6945456854,
			"0.001": 56.7417813902,
			"0.002": 24.5556298254,
			"0.003": 3.29593168478,
			"0.004": 2.04165595972,
			"0.005": 1.33151285721,
			"0.006": 1.5064873418,
			"0.007": 1.52272337338,
			"0.008": 1.64555330736,
			"0.009": 1.76412918539,
			"0.01": 1.17168374482,
			"0.011": 1.22982777708,
			"0.012": 2.04136275073,
			"0.013": 1.41459513096,
			"0.014": 0.473881908441,
			"0.015": 0.0,
			"0.016": 0.0,
			"0.017": 0.0,
			"0.018": 0.0,
			"0.019": 0.0,
			"0.02": 0.0,
			"0.021": 0.0,
			"0.022": 0.0,
			"0.023": 0.0,
			"0.024": 0.0,
			"0.025": 0.0
		}
	}
}
