{
	 "smiles": "FC1=CC=CN=C1C=O", 
	 "Tm": 323.65, 
	 "num_atms": 13, 
	 "gaussian": { 
		 "optdone": 1, 
		 "sigma_profile": "yes", 
		 "theory": "DFT", 
		 "functional": "B3LYP", 
		 "basiset": "6-31G**", 
		 "properties": { 
			 "R2extent": 1786.0487, 
			 "electric_dipole_moment_norm": 4.38591785947, 
			 "electric_quadrupole_moment_norm": 7.84872542455, 
			 "total_energy": -460.833267418, 
			 "HOMO_LUMO_gap": 0.17685, 
			 "cosmo_polarized_energy": -9.18, 
			 "cosmo_cavitation_energy": 18.53, 
			 "cosmo_dispersion_energy": -13.58, 
			 "cosmo_repulsion_energy": 1.09, 
			 "cosmo_total_nonelectrostatic_energy": 6.04, 
			 "SMD_solvation_energy": 3.65 
		},
		"coords": [
			{
				"x": -1.9348496454,
				"y": -0.373390763,
				"z": 0.2886468034,
				"element": "F" 
			},
			{
				"x": -0.8514000011,
				"y": 0.1495071102,
				"z": 0.8691295491,
				"element": "C" 
			},
			{
				"x": 0.400962945,
				"y": -0.3510028439,
				"z": 0.5298035808,
				"element": "C" 
			},
			{
				"x": 1.5146593854,
				"y": 0.2096178886,
				"z": 1.1476971671,
				"element": "C" 
			},
			{
				"x": 1.3240561267,
				"y": 1.2420714571,
				"z": 2.0738468042,
				"element": "C" 
			},
			{
				"x": 0.1215074848,
				"y": 1.7168643987,
				"z": 2.394339318,
				"element": "N" 
			},
			{
				"x": -0.9660225763,
				"y": 1.1866079482,
				"z": 1.8066159214,
				"element": "C" 
			},
			{
				"x": -2.2640980486,
				"y": 1.7867163767,
				"z": 2.2325067512,
				"element": "C" 
			},
			{
				"x": -3.3600091077,
				"y": 1.4596588269,
				"z": 1.8294051203,
				"element": "O" 
			},
			{
				"x": 0.4791253957,
				"y": -1.1531620091,
				"z": -0.1963292119,
				"element": "H" 
			},
			{
				"x": 2.5141800381,
				"y": -0.1453354577,
				"z": 0.9175590308,
				"element": "H" 
			},
			{
				"x": 2.1747665552,
				"y": 1.7001136427,
				"z": 2.5731704539,
				"element": "H" 
			},
			{
				"x": -2.1152785517,
				"y": 2.5913334245,
				"z": 2.9826087116,
				"element": "H" 
			}
		],
		 "valence_orbital": [ 
			{
				"type": "occ",
				"energy": -0.38449,
				"method": "rhf"
			},
			{
				"type": "occ",
				"energy": -0.30911,
				"method": "rhf"
			},
			{
				"type": "occ",
				"energy": -0.28665,
				"method": "rhf"
			},
			{
				"type": "occ",
				"energy": -0.27457,
				"method": "rhf"
			},
			{
				"type": "occ",
				"energy": -0.25623,
				"method": "rhf"
			},
			{
				"type": "unocc",
				"energy": -0.07938,
				"method": "rhf"
			},
			{
				"type": "unocc",
				"energy": -0.03778,
				"method": "rhf"
			},
			{
				"type": "unocc",
				"energy": 0.02387,
				"method": "rhf"
			},
			{
				"type": "unocc",
				"energy": 0.07709,
				"method": "rhf"
			},
			{
				"type": "unocc",
				"energy": 0.12054,
				"method": "rhf"
			}
		],
		"cosmo_sigma_profile": { 
			"-0.025": 0.0,
			"-0.024": 0.0,
			"-0.023": 0.0,
			"-0.022": 0.0,
			"-0.021": 0.0,
			"-0.02": 0.0,
			"-0.019": 0.0,
			"-0.018": 0.0,
			"-0.017": 0.0,
			"-0.016": 0.0,
			"-0.015": 0.0,
			"-0.014": 0.0,
			"-0.013": 0.0,
			"-0.012": 0.0,
			"-0.011": 0.0,
			"-0.01": 0.0643703854245,
			"-0.009": 2.49470616891,
			"-0.008": 5.46858215851,
			"-0.007": 8.30822592471,
			"-0.006": 8.19207142094,
			"-0.005": 7.00507747886,
			"-0.004": 9.80912207595,
			"-0.003": 11.685258827,
			"-0.002": 15.3012373814,
			"-0.001": 11.6673306525,
			"0.0": 13.1180789985,
			"0.001": 7.16837771726,
			"0.002": 5.52345515984,
			"0.003": 9.3871887969,
			"0.004": 5.51426159305,
			"0.005": 2.74555437059,
			"0.006": 3.62039737075,
			"0.007": 3.66163044619,
			"0.008": 2.6887763925,
			"0.009": 3.07974099973,
			"0.01": 5.26879872816,
			"0.011": 4.88660559404,
			"0.012": 2.17273255108,
			"0.013": 0.871067078502,
			"0.014": 0.26967536473,
			"0.015": 0.0,
			"0.016": 0.0,
			"0.017": 0.0,
			"0.018": 0.0,
			"0.019": 0.0,
			"0.02": 0.0,
			"0.021": 0.0,
			"0.022": 0.0,
			"0.023": 0.0,
			"0.024": 0.0,
			"0.025": 0.0
		}
	}
}
