{
	 "smiles": "OC(=O)C1=CN(N=N1)C1=CC(=CC=C1)C(F)(F)F", 
	 "Tm": 423.15, 
	 "num_atms": 24, 
	 "gaussian": { 
		 "optdone": 1, 
		 "sigma_profile": "yes", 
		 "theory": "DFT", 
		 "functional": "B3LYP", 
		 "basiset": "6-31G**", 
		 "properties": { 
			 "R2extent": 6750.6589, 
			 "electric_dipole_moment_norm": 6.68261296874, 
			 "electric_quadrupole_moment_norm": 20.6059200962, 
			 "total_energy": -998.877541432, 
			 "HOMO_LUMO_gap": 0.20102, 
			 "cosmo_polarized_energy": -19.36, 
			 "cosmo_cavitation_energy": 32.1, 
			 "cosmo_dispersion_energy": -22.75, 
			 "cosmo_repulsion_energy": 1.68, 
			 "cosmo_total_nonelectrostatic_energy": 11.03, 
			 "SMD_solvation_energy": 6.81 
		},
		"coords": [
			{
				"x": -2.4542424719,
				"y": -1.6207108449,
				"z": -5.4376839069,
				"element": "O" 
			},
			{
				"x": -2.2367454295,
				"y": -0.3005516491,
				"z": -5.1864628345,
				"element": "C" 
			},
			{
				"x": -2.4704567255,
				"y": 0.5738517166,
				"z": -5.9878141856,
				"element": "O" 
			},
			{
				"x": -1.6901021453,
				"y": -0.1110342399,
				"z": -3.831172802,
				"element": "C" 
			},
			{
				"x": -1.3960162715,
				"y": -1.0626617169,
				"z": -2.8756216055,
				"element": "C" 
			},
			{
				"x": -0.9185856238,
				"y": -0.3508209409,
				"z": -1.8269221438,
				"element": "N" 
			},
			{
				"x": -0.9184999149,
				"y": 0.9904969823,
				"z": -2.1288987747,
				"element": "N" 
			},
			{
				"x": -1.3800985561,
				"y": 1.1241310743,
				"z": -3.3272456001,
				"element": "N" 
			},
			{
				"x": -0.4567188024,
				"y": -0.802286169,
				"z": -0.560055943,
				"element": "C" 
			},
			{
				"x": 0.4607664382,
				"y": -0.0184006369,
				"z": 0.1439662537,
				"element": "C" 
			},
			{
				"x": 0.9111351329,
				"y": -0.4590848329,
				"z": 1.3867127504,
				"element": "C" 
			},
			{
				"x": 0.4640341274,
				"y": -1.6703481409,
				"z": 1.9229676777,
				"element": "C" 
			},
			{
				"x": -0.4520093972,
				"y": -2.4399141758,
				"z": 1.2089611944,
				"element": "C" 
			},
			{
				"x": -0.9233475347,
				"y": -2.008275449,
				"z": -0.0303247751,
				"element": "C" 
			},
			{
				"x": 1.9447901159,
				"y": 0.3461637618,
				"z": 2.133802823,
				"element": "C" 
			},
			{
				"x": 3.1939652677,
				"y": -0.1040731312,
				"z": 1.8781731163,
				"element": "F" 
			},
			{
				"x": 1.7629282694,
				"y": 0.2646497523,
				"z": 3.4697854486,
				"element": "F" 
			},
			{
				"x": 1.9123802282,
				"y": 1.6495573205,
				"z": 1.7924542741,
				"element": "F" 
			},
			{
				"x": -2.8085528649,
				"y": -1.6638629533,
				"z": -6.3412504572,
				"element": "H" 
			},
			{
				"x": -1.4676970131,
				"y": -2.1373256444,
				"z": -2.8900555413,
				"element": "H" 
			},
			{
				"x": 0.7997327296,
				"y": 0.9202243767,
				"z": -0.2749581741,
				"element": "H" 
			},
			{
				"x": 0.82118999,
				"y": -1.9968537841,
				"z": 2.8932410416,
				"element": "H" 
			},
			{
				"x": -0.8157619759,
				"y": -3.3744530757,
				"z": 1.62351268,
				"element": "H" 
			},
			{
				"x": -1.6626875727,
				"y": -2.5941175994,
				"z": -0.565910516,
				"element": "H" 
			}
		],
		 "valence_orbital": [ 
			{
				"type": "occ",
				"energy": -0.29371,
				"method": "rhf"
			},
			{
				"type": "occ",
				"energy": -0.29268,
				"method": "rhf"
			},
			{
				"type": "occ",
				"energy": -0.2868,
				"method": "rhf"
			},
			{
				"type": "occ",
				"energy": -0.28518,
				"method": "rhf"
			},
			{
				"type": "occ",
				"energy": -0.2675,
				"method": "rhf"
			},
			{
				"type": "unocc",
				"energy": -0.06648,
				"method": "rhf"
			},
			{
				"type": "unocc",
				"energy": -0.04772,
				"method": "rhf"
			},
			{
				"type": "unocc",
				"energy": -0.0353,
				"method": "rhf"
			},
			{
				"type": "unocc",
				"energy": -0.00369,
				"method": "rhf"
			},
			{
				"type": "unocc",
				"energy": 0.06543,
				"method": "rhf"
			}
		],
		"cosmo_sigma_profile": { 
			"-0.025": 0.0,
			"-0.024": 0.0,
			"-0.023": 0.0,
			"-0.022": 0.0,
			"-0.021": 0.0,
			"-0.02": 0.0,
			"-0.019": 0.259384206138,
			"-0.018": 1.20794342706,
			"-0.017": 0.785967042238,
			"-0.016": 0.829225155048,
			"-0.015": 0.687741382964,
			"-0.014": 0.503709606996,
			"-0.013": 0.839410972844,
			"-0.012": 2.74036891011,
			"-0.011": 2.65957049892,
			"-0.01": 2.75416457026,
			"-0.009": 3.34988960015,
			"-0.008": 5.86646040379,
			"-0.007": 9.27703562359,
			"-0.006": 9.29839757741,
			"-0.005": 9.3909819649,
			"-0.004": 12.8978331624,
			"-0.003": 16.3549694481,
			"-0.002": 17.1306110089,
			"-0.001": 16.2659014175,
			"0.0": 20.9094527822,
			"0.001": 22.7662481498,
			"0.002": 30.2799416086,
			"0.003": 24.2710238693,
			"0.004": 5.20315328665,
			"0.005": 4.2591792124,
			"0.006": 3.91236371594,
			"0.007": 4.65660601609,
			"0.008": 5.00544251492,
			"0.009": 5.16771430047,
			"0.01": 4.96810582193,
			"0.011": 7.15422038114,
			"0.012": 3.85965320453,
			"0.013": 2.57793157979,
			"0.014": 0.946864247666,
			"0.015": 0.104600803241,
			"0.016": 0.0,
			"0.017": 0.0,
			"0.018": 0.0,
			"0.019": 0.0,
			"0.02": 0.0,
			"0.021": 0.0,
			"0.022": 0.0,
			"0.023": 0.0,
			"0.024": 0.0,
			"0.025": 0.0
		}
	}
}
