{
	 "smiles": "CC(C)C1=NC(O)=CC(C)=N1", 
	 "Tm": 446.15, 
	 "num_atms": 23, 
	 "gaussian": { 
		 "optdone": 1, 
		 "sigma_profile": "yes", 
		 "theory": "DFT", 
		 "functional": "B3LYP", 
		 "basiset": "6-31G**", 
		 "properties": { 
			 "R2extent": 2283.4665, 
			 "electric_dipole_moment_norm": 0.695316359652, 
			 "electric_quadrupole_moment_norm": 6.29557428278, 
			 "total_energy": -496.841637846, 
			 "HOMO_LUMO_gap": 0.22565, 
			 "cosmo_polarized_energy": -7.85, 
			 "cosmo_cavitation_energy": 26.21, 
			 "cosmo_dispersion_energy": -18.96, 
			 "cosmo_repulsion_energy": 1.57, 
			 "cosmo_total_nonelectrostatic_energy": 8.83, 
			 "SMD_solvation_energy": 2.96 
		},
		"coords": [
			{
				"x": 1.7537531734,
				"y": 1.0318608207,
				"z": -0.4189368767,
				"element": "C" 
			},
			{
				"x": 1.2440201423,
				"y": 0.5270480628,
				"z": 0.9429876564,
				"element": "C" 
			},
			{
				"x": 0.8290365475,
				"y": 1.6988061987,
				"z": 1.850827876,
				"element": "C" 
			},
			{
				"x": 0.0961799422,
				"y": -0.4482416736,
				"z": 0.761671785,
				"element": "C" 
			},
			{
				"x": -1.0158837474,
				"y": 0.0223185319,
				"z": 0.1716348495,
				"element": "N" 
			},
			{
				"x": -2.0178816261,
				"y": -0.839538704,
				"z": 0.0155749438,
				"element": "C" 
			},
			{
				"x": -3.1417181674,
				"y": -0.3885125143,
				"z": -0.5734303051,
				"element": "O" 
			},
			{
				"x": -1.9467041599,
				"y": -2.1710720257,
				"z": 0.4333575571,
				"element": "C" 
			},
			{
				"x": -0.7529669708,
				"y": -2.5618418064,
				"z": 1.0332150214,
				"element": "C" 
			},
			{
				"x": -0.546760617,
				"y": -3.9703683145,
				"z": 1.5283139303,
				"element": "C" 
			},
			{
				"x": 0.2725292567,
				"y": -1.7002195036,
				"z": 1.1989647058,
				"element": "N" 
			},
			{
				"x": 2.5955558725,
				"y": 1.7185248451,
				"z": -0.2807721357,
				"element": "H" 
			},
			{
				"x": 0.959976547,
				"y": 1.5626621496,
				"z": -0.9533019442,
				"element": "H" 
			},
			{
				"x": 2.0930666998,
				"y": 0.2033979098,
				"z": -1.0492608505,
				"element": "H" 
			},
			{
				"x": 2.0419139689,
				"y": -0.0387822508,
				"z": 1.4342473584,
				"element": "H" 
			},
			{
				"x": 0.5102024089,
				"y": 1.3453140596,
				"z": 2.8368207217,
				"element": "H" 
			},
			{
				"x": -0.000709571,
				"y": 2.2552306584,
				"z": 1.404436778,
				"element": "H" 
			},
			{
				"x": 1.6688201972,
				"y": 2.3870065409,
				"z": 1.9935105876,
				"element": "H" 
			},
			{
				"x": -2.9781738688,
				"y": 0.5463112573,
				"z": -0.7799418873,
				"element": "H" 
			},
			{
				"x": -2.7815682929,
				"y": -2.8470836441,
				"z": 0.2910144635,
				"element": "H" 
			},
			{
				"x": -1.2920889854,
				"y": -4.2320393126,
				"z": 2.2875168655,
				"element": "H" 
			},
			{
				"x": 0.449519724,
				"y": -4.0660012741,
				"z": 1.9617651019,
				"element": "H" 
			},
			{
				"x": -0.6502184738,
				"y": -4.6922800111,
				"z": 0.7106837975,
				"element": "H" 
			}
		],
		 "valence_orbital": [ 
			{
				"type": "occ",
				"energy": -0.32825,
				"method": "rhf"
			},
			{
				"type": "occ",
				"energy": -0.29371,
				"method": "rhf"
			},
			{
				"type": "occ",
				"energy": -0.28367,
				"method": "rhf"
			},
			{
				"type": "occ",
				"energy": -0.25271,
				"method": "rhf"
			},
			{
				"type": "occ",
				"energy": -0.25053,
				"method": "rhf"
			},
			{
				"type": "unocc",
				"energy": -0.02488,
				"method": "rhf"
			},
			{
				"type": "unocc",
				"energy": -0.0061,
				"method": "rhf"
			},
			{
				"type": "unocc",
				"energy": 0.08544,
				"method": "rhf"
			},
			{
				"type": "unocc",
				"energy": 0.10569,
				"method": "rhf"
			},
			{
				"type": "unocc",
				"energy": 0.11681,
				"method": "rhf"
			}
		],
		"cosmo_sigma_profile": { 
			"-0.025": 0.0,
			"-0.024": 0.0,
			"-0.023": 0.0,
			"-0.022": 0.0,
			"-0.021": 0.0,
			"-0.02": 0.0,
			"-0.019": 0.0,
			"-0.018": 0.146227759571,
			"-0.017": 0.669269828842,
			"-0.016": 0.609124357151,
			"-0.015": 1.12873003549,
			"-0.014": 0.47436259834,
			"-0.013": 0.633711772904,
			"-0.012": 0.194302522754,
			"-0.011": 1.05920909501,
			"-0.01": 0.925870266505,
			"-0.009": 0.604540234732,
			"-0.008": 0.526149598319,
			"-0.007": 2.12755887938,
			"-0.006": 2.93585175774,
			"-0.005": 6.69982231503,
			"-0.004": 9.55938044457,
			"-0.003": 18.2981192643,
			"-0.002": 22.1124082992,
			"-0.001": 28.7607416198,
			"0.0": 28.8055183545,
			"0.001": 27.2843535099,
			"0.002": 12.4385030281,
			"0.003": 6.17884465824,
			"0.004": 4.62545026284,
			"0.005": 5.32565210993,
			"0.006": 5.38166832209,
			"0.007": 3.92716118851,
			"0.008": 2.65808471069,
			"0.009": 3.71714357268,
			"0.01": 4.05316202698,
			"0.011": 0.731792962836,
			"0.012": 0.898389661127,
			"0.013": 0.807118933189,
			"0.014": 0.754295154835,
			"0.015": 0.664106927635,
			"0.016": 0.0740199433183,
			"0.017": 0.0,
			"0.018": 0.0,
			"0.019": 0.0,
			"0.02": 0.0,
			"0.021": 0.0,
			"0.022": 0.0,
			"0.023": 0.0,
			"0.024": 0.0,
			"0.025": 0.0
		}
	}
}
