{
	 "smiles": "CC1=CSC(=N1)C1=CC=C(C=C1)C(O)=O", 
	 "Tm": 482.15, 
	 "num_atms": 24, 
	 "gaussian": { 
		 "optdone": 1, 
		 "sigma_profile": "yes", 
		 "theory": "DFT", 
		 "functional": "B3LYP", 
		 "basiset": "6-31G**", 
		 "properties": { 
			 "R2extent": 5145.0004, 
			 "electric_dipole_moment_norm": 5.72140004632, 
			 "electric_quadrupole_moment_norm": 24.126649949, 
			 "total_energy": -1027.99536695, 
			 "HOMO_LUMO_gap": 0.15504, 
			 "cosmo_polarized_energy": -15.94, 
			 "cosmo_cavitation_energy": 30.53, 
			 "cosmo_dispersion_energy": -23.07, 
			 "cosmo_repulsion_energy": 1.74, 
			 "cosmo_total_nonelectrostatic_energy": 9.2, 
			 "SMD_solvation_energy": 5.08 
		},
		"coords": [
			{
				"x": 3.059648059,
				"y": -2.38724108,
				"z": -2.0607422105,
				"element": "C" 
			},
			{
				"x": 2.5795369109,
				"y": -1.112522438,
				"z": -1.4317669167,
				"element": "C" 
			},
			{
				"x": 3.3321927172,
				"y": 0.0115920396,
				"z": -1.2131764746,
				"element": "C" 
			},
			{
				"x": 2.3807425904,
				"y": 1.2481307028,
				"z": -0.4649227967,
				"element": "S" 
			},
			{
				"x": 0.9981630664,
				"y": 0.1490473911,
				"z": -0.4944242247,
				"element": "C" 
			},
			{
				"x": 1.2702115006,
				"y": -1.0161982377,
				"z": -1.0207149448,
				"element": "N" 
			},
			{
				"x": -0.3237812937,
				"y": 0.5197158525,
				"z": 0.026400143,
				"element": "C" 
			},
			{
				"x": -1.3710576127,
				"y": -0.4194598088,
				"z": -0.0373636868,
				"element": "C" 
			},
			{
				"x": -2.6326749729,
				"y": -0.1014559224,
				"z": 0.4440707634,
				"element": "C" 
			},
			{
				"x": -2.8832372402,
				"y": 1.1528527695,
				"z": 1.0203982854,
				"element": "C" 
			},
			{
				"x": -1.8459634584,
				"y": 2.0950225513,
				"z": 1.0720745401,
				"element": "C" 
			},
			{
				"x": -0.582516074,
				"y": 1.7836635071,
				"z": 0.5802137393,
				"element": "C" 
			},
			{
				"x": -4.2690861811,
				"y": 1.4302574859,
				"z": 1.517633684,
				"element": "C" 
			},
			{
				"x": -4.4070242732,
				"y": 2.4424824499,
				"z": 2.4169661014,
				"element": "O" 
			},
			{
				"x": -5.239571546,
				"y": 0.8053442494,
				"z": 1.159444781,
				"element": "O" 
			},
			{
				"x": 2.9322676488,
				"y": -3.2287784084,
				"z": -1.3717281987,
				"element": "H" 
			},
			{
				"x": 2.4795847417,
				"y": -2.6148330918,
				"z": -2.9612232185,
				"element": "H" 
			},
			{
				"x": 4.114946188,
				"y": -2.3209770363,
				"z": -2.3357331617,
				"element": "H" 
			},
			{
				"x": 4.3743142051,
				"y": 0.1761507738,
				"z": -1.4474802412,
				"element": "H" 
			},
			{
				"x": -1.1687386208,
				"y": -1.3912815473,
				"z": -0.4727672047,
				"element": "H" 
			},
			{
				"x": -3.4478673698,
				"y": -0.8146727137,
				"z": 0.387168829,
				"element": "H" 
			},
			{
				"x": -2.0205164131,
				"y": 3.0962635034,
				"z": 1.4584579007,
				"element": "H" 
			},
			{
				"x": 0.2013523936,
				"y": 2.5342326455,
				"z": 0.622149799,
				"element": "H" 
			},
			{
				"x": -3.5391249658,
				"y": 2.7305643628,
				"z": 2.7314647135,
				"element": "H" 
			}
		],
		 "valence_orbital": [ 
			{
				"type": "occ",
				"energy": -0.28439,
				"method": "rhf"
			},
			{
				"type": "occ",
				"energy": -0.28297,
				"method": "rhf"
			},
			{
				"type": "occ",
				"energy": -0.27497,
				"method": "rhf"
			},
			{
				"type": "occ",
				"energy": -0.27155,
				"method": "rhf"
			},
			{
				"type": "occ",
				"energy": -0.23213,
				"method": "rhf"
			},
			{
				"type": "unocc",
				"energy": -0.07709,
				"method": "rhf"
			},
			{
				"type": "unocc",
				"energy": -0.02625,
				"method": "rhf"
			},
			{
				"type": "unocc",
				"energy": -0.01087,
				"method": "rhf"
			},
			{
				"type": "unocc",
				"energy": 0.01075,
				"method": "rhf"
			},
			{
				"type": "unocc",
				"energy": 0.03422,
				"method": "rhf"
			}
		],
		"cosmo_sigma_profile": { 
			"-0.025": 0.0,
			"-0.024": 0.0,
			"-0.023": 0.0,
			"-0.022": 0.0,
			"-0.021": 0.0,
			"-0.02": 0.0,
			"-0.019": 0.371793033279,
			"-0.018": 0.526100693963,
			"-0.017": 1.20176357973,
			"-0.016": 1.0164594845,
			"-0.015": 1.1947019925,
			"-0.014": 0.922465240705,
			"-0.013": 0.91625858349,
			"-0.012": 1.0733822575,
			"-0.011": 1.32841915712,
			"-0.01": 1.45020400829,
			"-0.009": 2.65831836705,
			"-0.008": 4.46693704044,
			"-0.007": 6.75078179969,
			"-0.006": 9.73693832231,
			"-0.005": 12.4422262182,
			"-0.004": 14.1430797907,
			"-0.003": 14.0724259247,
			"-0.002": 15.828033885,
			"-0.001": 21.1649436367,
			"0.0": 20.4678083496,
			"0.001": 22.6406890667,
			"0.002": 29.3804026221,
			"0.003": 18.174225383,
			"0.004": 5.56148884071,
			"0.005": 4.3871190295,
			"0.006": 4.59807446858,
			"0.007": 3.21675228945,
			"0.008": 4.64205759707,
			"0.009": 4.32018776398,
			"0.01": 6.01055428524,
			"0.011": 6.16700693628,
			"0.012": 4.96930052106,
			"0.013": 1.44064506621,
			"0.014": 0.0479793568122,
			"0.015": 0.0,
			"0.016": 0.0,
			"0.017": 0.0,
			"0.018": 0.0,
			"0.019": 0.0,
			"0.02": 0.0,
			"0.021": 0.0,
			"0.022": 0.0,
			"0.023": 0.0,
			"0.024": 0.0,
			"0.025": 0.0
		}
	}
}
