{
	 "smiles": "CC1(C)CC(=O)C2=C(C1)NC1=C3C=CC=CC3=CC=C1C2C1=CC=C(Cl)C=C1Cl", 
	 "Tm": 495.15, 
	 "num_atms": 50, 
	 "gaussian": { 
		 "optdone": 1, 
		 "sigma_profile": "yes", 
		 "theory": "DFT", 
		 "functional": "B3LYP", 
		 "basiset": "6-31G**", 
		 "properties": { 
			 "R2extent": 13670.5961, 
			 "electric_dipole_moment_norm": 5.43503271563, 
			 "electric_quadrupole_moment_norm": 17.3649974682, 
			 "total_energy": -2015.71566592, 
			 "HOMO_LUMO_gap": 0.14244, 
			 "cosmo_polarized_energy": -18.03, 
			 "cosmo_cavitation_energy": 53.41, 
			 "cosmo_dispersion_energy": -36.32, 
			 "cosmo_repulsion_energy": 2.68, 
			 "cosmo_total_nonelectrostatic_energy": 19.77, 
			 "SMD_solvation_energy": 7.78 
		},
		"coords": [
			{
				"x": -3.5635735033,
				"y": 1.3204525648,
				"z": -1.9011259428,
				"element": "C" 
			},
			{
				"x": -3.8986350076,
				"y": 0.5233824906,
				"z": -0.6241074709,
				"element": "C" 
			},
			{
				"x": -5.3282864693,
				"y": -0.0320981415,
				"z": -0.7421434371,
				"element": "C" 
			},
			{
				"x": -3.7875174063,
				"y": 1.4252872774,
				"z": 0.6225846582,
				"element": "C" 
			},
			{
				"x": -2.3647835383,
				"y": 1.8532225406,
				"z": 0.9786029715,
				"element": "C" 
			},
			{
				"x": -2.1681670499,
				"y": 2.8836268944,
				"z": 1.6233528597,
				"element": "O" 
			},
			{
				"x": -1.269338747,
				"y": 0.9703508489,
				"z": 0.5919289364,
				"element": "C" 
			},
			{
				"x": -1.5276996961,
				"y": -0.2214960579,
				"z": -0.0188805756,
				"element": "C" 
			},
			{
				"x": -2.9107646666,
				"y": -0.6512627391,
				"z": -0.4431715972,
				"element": "C" 
			},
			{
				"x": -0.5328240324,
				"y": -1.1386705921,
				"z": -0.2241855918,
				"element": "N" 
			},
			{
				"x": 0.763064317,
				"y": -0.9877852766,
				"z": 0.2830351392,
				"element": "C" 
			},
			{
				"x": 1.692118953,
				"y": -2.0782896932,
				"z": 0.1930737083,
				"element": "C" 
			},
			{
				"x": 1.3780097414,
				"y": -3.3316226131,
				"z": -0.3994433152,
				"element": "C" 
			},
			{
				"x": 2.3103880914,
				"y": -4.3441715674,
				"z": -0.4699408982,
				"element": "C" 
			},
			{
				"x": 3.6102124329,
				"y": -4.1571184667,
				"z": 0.0529779522,
				"element": "C" 
			},
			{
				"x": 3.944740182,
				"y": -2.9587132081,
				"z": 0.6408835721,
				"element": "C" 
			},
			{
				"x": 3.0082125413,
				"y": -1.8948842563,
				"z": 0.7307627624,
				"element": "C" 
			},
			{
				"x": 3.3439911854,
				"y": -0.6604127345,
				"z": 1.3465078245,
				"element": "C" 
			},
			{
				"x": 2.4200408119,
				"y": 0.3526423579,
				"z": 1.4179944896,
				"element": "C" 
			},
			{
				"x": 1.1178107767,
				"y": 0.2138214081,
				"z": 0.879559714,
				"element": "C" 
			},
			{
				"x": 0.1404340816,
				"y": 1.3822425752,
				"z": 0.9792974872,
				"element": "C" 
			},
			{
				"x": 0.6342042152,
				"y": 2.6415302037,
				"z": 0.2457984066,
				"element": "C" 
			},
			{
				"x": 0.8199401109,
				"y": 3.8148788294,
				"z": 0.9940287374,
				"element": "C" 
			},
			{
				"x": 1.284559899,
				"y": 5.0019842864,
				"z": 0.4362536647,
				"element": "C" 
			},
			{
				"x": 1.5739301558,
				"y": 5.0310865999,
				"z": -0.9257958814,
				"element": "C" 
			},
			{
				"x": 2.1672488757,
				"y": 6.5107181424,
				"z": -1.6644804625,
				"element": "Cl" 
			},
			{
				"x": 1.3941595,
				"y": 3.901806945,
				"z": -1.7176466157,
				"element": "C" 
			},
			{
				"x": 0.9245090585,
				"y": 2.7280539837,
				"z": -1.1239862504,
				"element": "C" 
			},
			{
				"x": 0.706823558,
				"y": 1.3528115791,
				"z": -2.2055126028,
				"element": "Cl" 
			},
			{
				"x": -3.6617458592,
				"y": 0.6872207279,
				"z": -2.7903309575,
				"element": "H" 
			},
			{
				"x": -2.5456060218,
				"y": 1.7179485366,
				"z": -1.8831360302,
				"element": "H" 
			},
			{
				"x": -4.2529032372,
				"y": 2.163671261,
				"z": -2.0160302356,
				"element": "H" 
			},
			{
				"x": -6.0511218356,
				"y": 0.7815660354,
				"z": -0.8641120182,
				"element": "H" 
			},
			{
				"x": -5.4245813349,
				"y": -0.6946014655,
				"z": -1.6103192489,
				"element": "H" 
			},
			{
				"x": -5.6127531393,
				"y": -0.6015732223,
				"z": 0.1499474873,
				"element": "H" 
			},
			{
				"x": -4.3894730204,
				"y": 2.3332637024,
				"z": 0.5155173799,
				"element": "H" 
			},
			{
				"x": -4.1868008717,
				"y": 0.8892845156,
				"z": 1.4966172043,
				"element": "H" 
			},
			{
				"x": -2.839603727,
				"y": -1.2280262378,
				"z": -1.3763007334,
				"element": "H" 
			},
			{
				"x": -3.3037326145,
				"y": -1.3442974204,
				"z": 0.315809517,
				"element": "H" 
			},
			{
				"x": -0.7597653763,
				"y": -1.9772091378,
				"z": -0.7322120971,
				"element": "H" 
			},
			{
				"x": 0.3880496093,
				"y": -3.5232815943,
				"z": -0.8039590461,
				"element": "H" 
			},
			{
				"x": 2.0436813613,
				"y": -5.2920467707,
				"z": -0.9278700616,
				"element": "H" 
			},
			{
				"x": 4.3383844746,
				"y": -4.9603433598,
				"z": -0.0082518085,
				"element": "H" 
			},
			{
				"x": 4.9397471355,
				"y": -2.8054971713,
				"z": 1.0504822186,
				"element": "H" 
			},
			{
				"x": 4.3408362298,
				"y": -0.5306270566,
				"z": 1.7578469917,
				"element": "H" 
			},
			{
				"x": 2.6861453906,
				"y": 1.2985280027,
				"z": 1.8819018036,
				"element": "H" 
			},
			{
				"x": 0.0989713575,
				"y": 1.689962087,
				"z": 2.0321777388,
				"element": "H" 
			},
			{
				"x": 0.5639608558,
				"y": 3.7935140703,
				"z": 2.0482602508,
				"element": "H" 
			},
			{
				"x": 1.4128992769,
				"y": 5.8898855473,
				"z": 1.0446160391,
				"element": "H" 
			},
			{
				"x": 1.6122029759,
				"y": 3.9267847694,
				"z": -2.7780766362,
				"element": "H" 
			}
		],
		 "valence_orbital": [ 
			{
				"type": "occ",
				"energy": -0.24877,
				"method": "rhf"
			},
			{
				"type": "occ",
				"energy": -0.23928,
				"method": "rhf"
			},
			{
				"type": "occ",
				"energy": -0.23545,
				"method": "rhf"
			},
			{
				"type": "occ",
				"energy": -0.22454,
				"method": "rhf"
			},
			{
				"type": "occ",
				"energy": -0.1949,
				"method": "rhf"
			},
			{
				"type": "unocc",
				"energy": -0.05246,
				"method": "rhf"
			},
			{
				"type": "unocc",
				"energy": -0.02366,
				"method": "rhf"
			},
			{
				"type": "unocc",
				"energy": -0.01755,
				"method": "rhf"
			},
			{
				"type": "unocc",
				"energy": -0.01429,
				"method": "rhf"
			},
			{
				"type": "unocc",
				"energy": -0.00862,
				"method": "rhf"
			}
		],
		"cosmo_sigma_profile": { 
			"-0.025": 0.0,
			"-0.024": 0.0,
			"-0.023": 0.0,
			"-0.022": 0.0,
			"-0.021": 0.0,
			"-0.02": 0.0,
			"-0.019": 0.0,
			"-0.018": 0.0,
			"-0.017": 0.0,
			"-0.016": 0.215934557515,
			"-0.015": 1.04647179585,
			"-0.014": 1.53629745237,
			"-0.013": 0.838428841273,
			"-0.012": 1.19586153535,
			"-0.011": 1.24297483582,
			"-0.01": 1.53731612196,
			"-0.009": 1.97698082438,
			"-0.008": 3.0160776408,
			"-0.007": 5.06762596059,
			"-0.006": 15.5777682424,
			"-0.005": 26.2313730309,
			"-0.004": 29.345334508,
			"-0.003": 36.9294654388,
			"-0.002": 32.5312059017,
			"-0.001": 32.7191849745,
			"0.0": 33.2439360191,
			"0.001": 46.1242712379,
			"0.002": 42.7023875449,
			"0.003": 31.9990063313,
			"0.004": 38.0078603779,
			"0.005": 23.8588324526,
			"0.006": 2.9839865513,
			"0.007": 1.45823604036,
			"0.008": 1.77674780009,
			"0.009": 1.81915567992,
			"0.01": 1.8743162864,
			"0.011": 2.28958906911,
			"0.012": 2.01714841563,
			"0.013": 2.43477219654,
			"0.014": 2.33251643161,
			"0.015": 1.82583042962,
			"0.016": 0.16888866456,
			"0.017": 0.0,
			"0.018": 0.0,
			"0.019": 0.0,
			"0.02": 0.0,
			"0.021": 0.0,
			"0.022": 0.0,
			"0.023": 0.0,
			"0.024": 0.0,
			"0.025": 0.0
		}
	}
}
