{
	 "smiles": "NS(=O)(=O)N1CCNCC1", 
	 "Tm": 438.15, 
	 "num_atms": 21, 
	 "gaussian": { 
		 "optdone": 1, 
		 "sigma_profile": "yes", 
		 "theory": "DFT", 
		 "functional": "B3LYP", 
		 "basiset": "6-31G**", 
		 "properties": { 
			 "R2extent": 2689.3415, 
			 "electric_dipole_moment_norm": 2.77875542465, 
			 "electric_quadrupole_moment_norm": 16.8670707676, 
			 "total_energy": -871.853428743, 
			 "HOMO_LUMO_gap": 0.27368, 
			 "cosmo_polarized_energy": -16.32, 
			 "cosmo_cavitation_energy": 23.8, 
			 "cosmo_dispersion_energy": -18.65, 
			 "cosmo_repulsion_energy": 1.47, 
			 "cosmo_total_nonelectrostatic_energy": 6.63, 
			 "SMD_solvation_energy": -0.18 
		},
		"coords": [
			{
				"x": -2.8041789865,
				"y": 2.3713460736,
				"z": -1.3610869557,
				"element": "N" 
			},
			{
				"x": -1.6420237648,
				"y": 1.4708408427,
				"z": -2.1900945032,
				"element": "S" 
			},
			{
				"x": -0.434599101,
				"y": 2.3007504052,
				"z": -2.1484965146,
				"element": "O" 
			},
			{
				"x": -2.1490813997,
				"y": 0.978091403,
				"z": -3.4730645153,
				"element": "O" 
			},
			{
				"x": -1.5656964439,
				"y": 0.1493296507,
				"z": -1.1617192203,
				"element": "N" 
			},
			{
				"x": -1.230205861,
				"y": -1.1601697773,
				"z": -1.7752074849,
				"element": "C" 
			},
			{
				"x": 0.1844980987,
				"y": -1.6050369456,
				"z": -1.411962849,
				"element": "C" 
			},
			{
				"x": 0.3062787742,
				"y": -1.7684208396,
				"z": 0.0485794607,
				"element": "N" 
			},
			{
				"x": -0.6134752524,
				"y": -0.9233288799,
				"z": 0.82041566,
				"element": "C" 
			},
			{
				"x": -0.928975338,
				"y": 0.4191418734,
				"z": 0.1524744697,
				"element": "C" 
			},
			{
				"x": -3.7387038346,
				"y": 2.0349858654,
				"z": -1.579969124,
				"element": "H" 
			},
			{
				"x": -2.696168502,
				"y": 3.3502591354,
				"z": -1.6145126923,
				"element": "H" 
			},
			{
				"x": -1.9571403353,
				"y": -1.8986286067,
				"z": -1.4180904309,
				"element": "H" 
			},
			{
				"x": -1.3513323048,
				"y": -1.0797306792,
				"z": -2.8551788987,
				"element": "H" 
			},
			{
				"x": 0.3970293945,
				"y": -2.5608976468,
				"z": -1.9086294337,
				"element": "H" 
			},
			{
				"x": 0.8928492067,
				"y": -0.8655234844,
				"z": -1.81821734,
				"element": "H" 
			},
			{
				"x": 1.2620565534,
				"y": -1.5800121075,
				"z": 0.3306177902,
				"element": "H" 
			},
			{
				"x": -0.1789348325,
				"y": -0.7375612019,
				"z": 1.8071930229,
				"element": "H" 
			},
			{
				"x": -1.5539699147,
				"y": -1.4628626003,
				"z": 0.9933604104,
				"element": "H" 
			},
			{
				"x": -1.6199855505,
				"y": 1.0123304206,
				"z": 0.759031676,
				"element": "H" 
			},
			{
				"x": -0.0054406059,
				"y": 0.998597099,
				"z": 0.0235574728,
				"element": "H" 
			}
		],
		 "valence_orbital": [ 
			{
				"type": "occ",
				"energy": -0.31725,
				"method": "rhf"
			},
			{
				"type": "occ",
				"energy": -0.30334,
				"method": "rhf"
			},
			{
				"type": "occ",
				"energy": -0.28797,
				"method": "rhf"
			},
			{
				"type": "occ",
				"energy": -0.24878,
				"method": "rhf"
			},
			{
				"type": "occ",
				"energy": -0.22299,
				"method": "rhf"
			},
			{
				"type": "unocc",
				"energy": 0.05069,
				"method": "rhf"
			},
			{
				"type": "unocc",
				"energy": 0.06767,
				"method": "rhf"
			},
			{
				"type": "unocc",
				"energy": 0.09044,
				"method": "rhf"
			},
			{
				"type": "unocc",
				"energy": 0.0944,
				"method": "rhf"
			},
			{
				"type": "unocc",
				"energy": 0.1032,
				"method": "rhf"
			}
		],
		"cosmo_sigma_profile": { 
			"-0.025": 0.0,
			"-0.024": 0.0,
			"-0.023": 0.0,
			"-0.022": 0.0,
			"-0.021": 0.0,
			"-0.02": 0.0,
			"-0.019": 0.0,
			"-0.018": 0.0,
			"-0.017": 0.0,
			"-0.016": 0.00426900069973,
			"-0.015": 1.61066747187,
			"-0.014": 2.39050261458,
			"-0.013": 3.22666231323,
			"-0.012": 2.39016995139,
			"-0.011": 1.78456023493,
			"-0.01": 3.7694819022,
			"-0.009": 3.18747234395,
			"-0.008": 3.44090392725,
			"-0.007": 2.57474171316,
			"-0.006": 4.30388749258,
			"-0.005": 10.0529330485,
			"-0.004": 21.650977093,
			"-0.003": 20.7196889225,
			"-0.002": 16.0475583074,
			"-0.001": 10.3809028725,
			"0.0": 5.29500625038,
			"0.001": 5.20087856629,
			"0.002": 5.51865725912,
			"0.003": 5.33250826238,
			"0.004": 5.9746651945,
			"0.005": 5.06347494425,
			"0.006": 4.86005253148,
			"0.007": 4.17721636776,
			"0.008": 5.07528776854,
			"0.009": 4.19526244065,
			"0.01": 7.14501689122,
			"0.011": 11.0462121972,
			"0.012": 5.60307697946,
			"0.013": 0.535948906959,
			"0.014": 0.774188778912,
			"0.015": 0.323132778715,
			"0.016": 0.69771409548,
			"0.017": 0.370151577082,
			"0.018": 0.431295740105,
			"0.019": 0.00704291582095,
			"0.02": 0.0,
			"0.021": 0.0,
			"0.022": 0.0,
			"0.023": 0.0,
			"0.024": 0.0,
			"0.025": 0.0
		}
	}
}
