{
	 "smiles": "BrCC(CBr)=C(CBr)CBr", 
	 "Tm": 413.15, 
	 "num_atms": 18, 
	 "gaussian": { 
		 "optdone": 1, 
		 "sigma_profile": "yes", 
		 "theory": "DFT", 
		 "functional": "B3LYP", 
		 "basiset": "6-31G**", 
		 "properties": { 
			 "R2extent": 7779.1419, 
			 "electric_dipole_moment_norm": 2.7713678951, 
			 "electric_quadrupole_moment_norm": 5.48278262837, 
			 "total_energy": -10519.0677308, 
			 "HOMO_LUMO_gap": 0.18135, 
			 "cosmo_polarized_energy": -12.14, 
			 "cosmo_cavitation_energy": 29.95, 
			 "cosmo_dispersion_energy": -21.93, 
			 "cosmo_repulsion_energy": 1.8, 
			 "cosmo_total_nonelectrostatic_energy": 9.82, 
			 "SMD_solvation_energy": 0.56 
		},
		"coords": [
			{
				"x": -0.8452057096,
				"y": -1.4300545729,
				"z": -0.6218984852,
				"element": "Br" 
			},
			{
				"x": -0.8651058403,
				"y": 0.5660790775,
				"z": -0.6506036692,
				"element": "C" 
			},
			{
				"x": 0.3112046808,
				"y": 1.1539327936,
				"z": 0.0636624504,
				"element": "C" 
			},
			{
				"x": 0.3148606897,
				"y": 0.9605112183,
				"z": 1.556123034,
				"element": "C" 
			},
			{
				"x": 1.6257934905,
				"y": -0.4038846718,
				"z": 2.2011433838,
				"element": "Br" 
			},
			{
				"x": 1.2659279006,
				"y": 1.8955858445,
				"z": -0.5541810039,
				"element": "C" 
			},
			{
				"x": 2.4295010942,
				"y": 2.4609916524,
				"z": 0.2009486712,
				"element": "C" 
			},
			{
				"x": 2.05325947,
				"y": 4.3489258615,
				"z": 0.7652735675,
				"element": "Br" 
			},
			{
				"x": 1.2548960425,
				"y": 2.249442803,
				"z": -2.0069991424,
				"element": "C" 
			},
			{
				"x": 2.6377244821,
				"y": 1.2150476514,
				"z": -3.0175660237,
				"element": "Br" 
			},
			{
				"x": -1.8041061221,
				"y": 0.8242903152,
				"z": -0.1598153506,
				"element": "H" 
			},
			{
				"x": -0.9253457985,
				"y": 0.8232797657,
				"z": -1.7025871302,
				"element": "H" 
			},
			{
				"x": 0.5836006174,
				"y": 1.8700540256,
				"z": 2.0904344174,
				"element": "H" 
			},
			{
				"x": -0.6446412204,
				"y": 0.593400575,
				"z": 1.9137959873,
				"element": "H" 
			},
			{
				"x": 3.3152808467,
				"y": 2.5349904167,
				"z": -0.4269924845,
				"element": "H" 
			},
			{
				"x": 2.6695465264,
				"y": 1.9272821675,
				"z": 1.1149970326,
				"element": "H" 
			},
			{
				"x": 0.3222375756,
				"y": 2.0505189607,
				"z": -2.5238606362,
				"element": "H" 
			},
			{
				"x": 1.5370712745,
				"y": 3.2918061162,
				"z": -2.1537746184,
				"element": "H" 
			}
		],
		 "valence_orbital": [ 
			{
				"type": "occ",
				"energy": -0.28634,
				"method": "rhf"
			},
			{
				"type": "occ",
				"energy": -0.28306,
				"method": "rhf"
			},
			{
				"type": "occ",
				"energy": -0.28098,
				"method": "rhf"
			},
			{
				"type": "occ",
				"energy": -0.27157,
				"method": "rhf"
			},
			{
				"type": "occ",
				"energy": -0.26757,
				"method": "rhf"
			},
			{
				"type": "unocc",
				"energy": -0.08622,
				"method": "rhf"
			},
			{
				"type": "unocc",
				"energy": -0.02627,
				"method": "rhf"
			},
			{
				"type": "unocc",
				"energy": -0.017,
				"method": "rhf"
			},
			{
				"type": "unocc",
				"energy": 0.00049,
				"method": "rhf"
			},
			{
				"type": "unocc",
				"energy": 0.0473,
				"method": "rhf"
			}
		],
		"cosmo_sigma_profile": { 
			"-0.025": 0.0,
			"-0.024": 0.0,
			"-0.023": 0.0,
			"-0.022": 0.0,
			"-0.021": 0.0,
			"-0.02": 0.0,
			"-0.019": 0.0,
			"-0.018": 0.0,
			"-0.017": 0.0,
			"-0.016": 0.0,
			"-0.015": 0.0,
			"-0.014": 0.0,
			"-0.013": 0.0,
			"-0.012": 0.742175444575,
			"-0.011": 1.70171264491,
			"-0.01": 2.97614213322,
			"-0.009": 5.06307410208,
			"-0.008": 6.96715917155,
			"-0.007": 12.2206867691,
			"-0.006": 13.1052831873,
			"-0.005": 15.1075865819,
			"-0.004": 10.0354541945,
			"-0.003": 11.8392933133,
			"-0.002": 15.3683610322,
			"-0.001": 12.5669992705,
			"0.0": 14.4637577326,
			"0.001": 13.5291415443,
			"0.002": 15.4649099964,
			"0.003": 18.5666852029,
			"0.004": 22.4291614456,
			"0.005": 31.3826198728,
			"0.006": 23.4333749529,
			"0.007": 3.48099342493,
			"0.008": 0.256499385485,
			"0.009": 0.0,
			"0.01": 0.0,
			"0.011": 0.0,
			"0.012": 0.0,
			"0.013": 0.0,
			"0.014": 0.0,
			"0.015": 0.0,
			"0.016": 0.0,
			"0.017": 0.0,
			"0.018": 0.0,
			"0.019": 0.0,
			"0.02": 0.0,
			"0.021": 0.0,
			"0.022": 0.0,
			"0.023": 0.0,
			"0.024": 0.0,
			"0.025": 0.0
		}
	}
}
