{
	 "smiles": "O1C2=C(C=CC=C2)C2=C1C=CC=C2", 
	 "Tm": 359.65, 
	 "num_atms": 21, 
	 "gaussian": { 
		 "optdone": 1, 
		 "sigma_profile": "yes", 
		 "theory": "DFT", 
		 "functional": "B3LYP", 
		 "basiset": "6-31G**", 
		 "properties": { 
			 "R2extent": 2880.8733, 
			 "electric_dipole_moment_norm": 0.700529749547, 
			 "electric_quadrupole_moment_norm": 8.95986354918, 
			 "total_energy": -537.330884743, 
			 "HOMO_LUMO_gap": 0.18656, 
			 "cosmo_polarized_energy": -5.21, 
			 "cosmo_cavitation_energy": 24.93, 
			 "cosmo_dispersion_energy": -18.9, 
			 "cosmo_repulsion_energy": 1.45, 
			 "cosmo_total_nonelectrostatic_energy": 7.48, 
			 "SMD_solvation_energy": 4.19 
		},
		"coords": [
			{
				"x": 0.2707204785,
				"y": -2.3763282465,
				"z": 1.4979465981,
				"element": "O" 
			},
			{
				"x": 1.322390697,
				"y": -1.5747027067,
				"z": 1.1153143281,
				"element": "C" 
			},
			{
				"x": 1.0083480149,
				"y": -0.8172795074,
				"z": -0.0299774887,
				"element": "C" 
			},
			{
				"x": 1.9717754437,
				"y": 0.0533183925,
				"z": -0.5526130062,
				"element": "C" 
			},
			{
				"x": 3.2099337218,
				"y": 0.1382170324,
				"z": 0.082244616,
				"element": "C" 
			},
			{
				"x": 3.4936295606,
				"y": -0.6305283273,
				"z": 1.223684412,
				"element": "C" 
			},
			{
				"x": 2.5483525399,
				"y": -1.5054814112,
				"z": 1.7626732499,
				"element": "C" 
			},
			{
				"x": -0.3523023514,
				"y": -1.1888590911,
				"z": -0.3758234945,
				"element": "C" 
			},
			{
				"x": -0.737539419,
				"y": -2.1372871991,
				"z": 0.5916921578,
				"element": "C" 
			},
			{
				"x": -1.9859831843,
				"y": -2.7438392024,
				"z": 0.6100521611,
				"element": "C" 
			},
			{
				"x": -2.879252707,
				"y": -2.3709445442,
				"z": -0.3962420619,
				"element": "C" 
			},
			{
				"x": -2.5241018558,
				"y": -1.4276717019,
				"z": -1.3752382676,
				"element": "C" 
			},
			{
				"x": -1.2644951083,
				"y": -0.8304516868,
				"z": -1.3751842693,
				"element": "C" 
			},
			{
				"x": 1.7602435995,
				"y": 0.6508774913,
				"z": -1.4344543169,
				"element": "H" 
			},
			{
				"x": 3.9688720835,
				"y": 0.8084900889,
				"z": -0.3097877542,
				"element": "H" 
			},
			{
				"x": 4.46684375,
				"y": -0.5437700547,
				"z": 1.6974225712,
				"element": "H" 
			},
			{
				"x": 2.752705937,
				"y": -2.1051118567,
				"z": 2.6428726687,
				"element": "H" 
			},
			{
				"x": -2.2456803019,
				"y": -3.4702482631,
				"z": 1.372255715,
				"element": "H" 
			},
			{
				"x": -3.8676356882,
				"y": -2.8199180036,
				"z": -0.4211500851,
				"element": "H" 
			},
			{
				"x": -3.2439874469,
				"y": -1.161245951,
				"z": -2.1431736924,
				"element": "H" 
			},
			{
				"x": -0.9976377635,
				"y": -0.1022352514,
				"z": -2.1354140411,
				"element": "H" 
			}
		],
		 "valence_orbital": [ 
			{
				"type": "occ",
				"energy": -0.33473,
				"method": "rhf"
			},
			{
				"type": "occ",
				"energy": -0.28617,
				"method": "rhf"
			},
			{
				"type": "occ",
				"energy": -0.25869,
				"method": "rhf"
			},
			{
				"type": "occ",
				"energy": -0.22572,
				"method": "rhf"
			},
			{
				"type": "occ",
				"energy": -0.22103,
				"method": "rhf"
			},
			{
				"type": "unocc",
				"energy": -0.03447,
				"method": "rhf"
			},
			{
				"type": "unocc",
				"energy": 0.00155,
				"method": "rhf"
			},
			{
				"type": "unocc",
				"energy": 0.01413,
				"method": "rhf"
			},
			{
				"type": "unocc",
				"energy": 0.03668,
				"method": "rhf"
			},
			{
				"type": "unocc",
				"energy": 0.0935,
				"method": "rhf"
			}
		],
		"cosmo_sigma_profile": { 
			"-0.025": 0.0,
			"-0.024": 0.0,
			"-0.023": 0.0,
			"-0.022": 0.0,
			"-0.021": 0.0,
			"-0.02": 0.0,
			"-0.019": 0.0,
			"-0.018": 0.0,
			"-0.017": 0.0,
			"-0.016": 0.0,
			"-0.015": 0.0,
			"-0.014": 0.0,
			"-0.013": 0.0,
			"-0.012": 0.0,
			"-0.011": 0.0,
			"-0.01": 0.0,
			"-0.009": 0.0,
			"-0.008": 0.044834055597,
			"-0.007": 3.39597518672,
			"-0.006": 13.7847962426,
			"-0.005": 17.0902265381,
			"-0.004": 17.9769839433,
			"-0.003": 13.9981680899,
			"-0.002": 10.4522038262,
			"-0.001": 10.9780020282,
			"0.0": 12.0740724167,
			"0.001": 16.0924793668,
			"0.002": 19.0617999495,
			"0.003": 21.1571839843,
			"0.004": 20.869157243,
			"0.005": 17.2211098171,
			"0.006": 3.46583433111,
			"0.007": 1.28592820978,
			"0.008": 1.76811221486,
			"0.009": 0.636714879399,
			"0.01": 0.0,
			"0.011": 0.0,
			"0.012": 0.0,
			"0.013": 0.0,
			"0.014": 0.0,
			"0.015": 0.0,
			"0.016": 0.0,
			"0.017": 0.0,
			"0.018": 0.0,
			"0.019": 0.0,
			"0.02": 0.0,
			"0.021": 0.0,
			"0.022": 0.0,
			"0.023": 0.0,
			"0.024": 0.0,
			"0.025": 0.0
		}
	}
}
