{
	 "smiles": "NC1=NC(=CS1)C1=CC=CC=C1", 
	 "Tm": 423.15, 
	 "num_atms": 20, 
	 "gaussian": { 
		 "optdone": 1, 
		 "sigma_profile": "yes", 
		 "theory": "DFT", 
		 "functional": "B3LYP", 
		 "basiset": "6-31G**", 
		 "properties": { 
			 "R2extent": 3041.9407, 
			 "electric_dipole_moment_norm": 1.84423818418, 
			 "electric_quadrupole_moment_norm": 14.2454177963, 
			 "total_energy": -855.470531272, 
			 "HOMO_LUMO_gap": 0.17212, 
			 "cosmo_polarized_energy": -11.24, 
			 "cosmo_cavitation_energy": 25.76, 
			 "cosmo_dispersion_energy": -19.94, 
			 "cosmo_repulsion_energy": 1.53, 
			 "cosmo_total_nonelectrostatic_energy": 7.35, 
			 "SMD_solvation_energy": 3.03 
		},
		"coords": [
			{
				"x": -2.6208381854,
				"y": 0.881609215,
				"z": 3.1366742584,
				"element": "N" 
			},
			{
				"x": -2.3675574969,
				"y": 0.4342128251,
				"z": 1.8588651784,
				"element": "C" 
			},
			{
				"x": -1.1835599725,
				"y": 0.1533469987,
				"z": 1.4074108072,
				"element": "N" 
			},
			{
				"x": -1.2371840063,
				"y": -0.3508105622,
				"z": 0.1131919542,
				"element": "C" 
			},
			{
				"x": -2.4953840798,
				"y": -0.4397570726,
				"z": -0.4188773361,
				"element": "C" 
			},
			{
				"x": -3.6904639729,
				"y": 0.1030986101,
				"z": 0.7301617727,
				"element": "S" 
			},
			{
				"x": 0.0252942274,
				"y": -0.7232336122,
				"z": -0.5553478756,
				"element": "C" 
			},
			{
				"x": 0.0504815789,
				"y": -1.2305561438,
				"z": -1.8660718865,
				"element": "C" 
			},
			{
				"x": 1.254686753,
				"y": -1.5747703587,
				"z": -2.4742252885,
				"element": "C" 
			},
			{
				"x": 2.461620584,
				"y": -1.4201970641,
				"z": -1.786921094,
				"element": "C" 
			},
			{
				"x": 2.4488388453,
				"y": -0.9177608452,
				"z": -0.4849668643,
				"element": "C" 
			},
			{
				"x": 1.2444246026,
				"y": -0.5722639436,
				"z": 0.1260231164,
				"element": "C" 
			},
			{
				"x": -3.4204503758,
				"y": 1.4869877605,
				"z": 3.2566690407,
				"element": "H" 
			},
			{
				"x": -1.7875093303,
				"y": 1.2080229386,
				"z": 3.6087633881,
				"element": "H" 
			},
			{
				"x": -2.8024697657,
				"y": -0.7777403466,
				"z": -1.3966640575,
				"element": "H" 
			},
			{
				"x": -0.8758439738,
				"y": -1.3595231544,
				"z": -2.4178433124,
				"element": "H" 
			},
			{
				"x": 1.2513408294,
				"y": -1.9653295948,
				"z": -3.4880379528,
				"element": "H" 
			},
			{
				"x": 3.4002844198,
				"y": -1.6894063698,
				"z": -2.2626152709,
				"element": "H" 
			},
			{
				"x": 3.3809170826,
				"y": -0.7937628434,
				"z": 0.0595334083,
				"element": "H" 
			},
			{
				"x": 1.2275722363,
				"y": -0.1819664369,
				"z": 1.1370780144,
				"element": "H" 
			}
		],
		 "valence_orbital": [ 
			{
				"type": "occ",
				"energy": -0.28298,
				"method": "rhf"
			},
			{
				"type": "occ",
				"energy": -0.27214,
				"method": "rhf"
			},
			{
				"type": "occ",
				"energy": -0.24787,
				"method": "rhf"
			},
			{
				"type": "occ",
				"energy": -0.24251,
				"method": "rhf"
			},
			{
				"type": "occ",
				"energy": -0.19941,
				"method": "rhf"
			},
			{
				"type": "unocc",
				"energy": -0.02729,
				"method": "rhf"
			},
			{
				"type": "unocc",
				"energy": 0.00475,
				"method": "rhf"
			},
			{
				"type": "unocc",
				"energy": 0.01027,
				"method": "rhf"
			},
			{
				"type": "unocc",
				"energy": 0.01957,
				"method": "rhf"
			},
			{
				"type": "unocc",
				"energy": 0.07007,
				"method": "rhf"
			}
		],
		"cosmo_sigma_profile": { 
			"-0.025": 0.0,
			"-0.024": 0.0,
			"-0.023": 0.0,
			"-0.022": 0.0,
			"-0.021": 0.0,
			"-0.02": 0.0,
			"-0.019": 0.0,
			"-0.018": 0.0,
			"-0.017": 0.0,
			"-0.016": 0.0,
			"-0.015": 0.236821032076,
			"-0.014": 1.79683203544,
			"-0.013": 2.60617957518,
			"-0.012": 2.95594888909,
			"-0.011": 3.17831552537,
			"-0.01": 2.19178409133,
			"-0.009": 2.63118406163,
			"-0.008": 4.29332041604,
			"-0.007": 4.05002382327,
			"-0.006": 6.83304633787,
			"-0.005": 11.4241862977,
			"-0.004": 11.8499852307,
			"-0.003": 13.4697999017,
			"-0.002": 9.68141692057,
			"-0.001": 10.529637528,
			"0.0": 10.835077089,
			"0.001": 12.1648184675,
			"0.002": 15.4259276838,
			"0.003": 18.676366328,
			"0.004": 24.194198256,
			"0.005": 17.1664086453,
			"0.006": 10.8024790076,
			"0.007": 2.69799635916,
			"0.008": 2.40973527063,
			"0.009": 2.25676405836,
			"0.01": 1.92107926695,
			"0.011": 2.13348267758,
			"0.012": 0.477342854328,
			"0.013": 0.0,
			"0.014": 0.0,
			"0.015": 0.0,
			"0.016": 0.0,
			"0.017": 0.0,
			"0.018": 0.0,
			"0.019": 0.0,
			"0.02": 0.0,
			"0.021": 0.0,
			"0.022": 0.0,
			"0.023": 0.0,
			"0.024": 0.0,
			"0.025": 0.0
		}
	}
}
