{
	 "smiles": "CC1=CC=C(C=C1[N+]([O-])=O)N=C=O", 
	 "Tm": 324.15, 
	 "num_atms": 19, 
	 "gaussian": { 
		 "optdone": 1, 
		 "sigma_profile": "yes", 
		 "theory": "DFT", 
		 "functional": "B3LYP", 
		 "basiset": "6-31G**", 
		 "properties": { 
			 "R2extent": 2912.661, 
			 "electric_dipole_moment_norm": 3.76681649407, 
			 "electric_quadrupole_moment_norm": 12.4716600082, 
			 "total_energy": -643.542462354, 
			 "HOMO_LUMO_gap": 0.16054, 
			 "cosmo_polarized_energy": -9.19, 
			 "cosmo_cavitation_energy": 25.4, 
			 "cosmo_dispersion_energy": -18.3, 
			 "cosmo_repulsion_energy": 1.44, 
			 "cosmo_total_nonelectrostatic_energy": 8.54, 
			 "SMD_solvation_energy": 8.83 
		},
		"coords": [
			{
				"x": -3.015301664,
				"y": -0.9104172304,
				"z": 0.1298116486,
				"element": "C" 
			},
			{
				"x": -1.5950958012,
				"y": -0.4079067879,
				"z": 0.2109043796,
				"element": "C" 
			},
			{
				"x": -0.7334169663,
				"y": -0.9732172174,
				"z": 1.1660303241,
				"element": "C" 
			},
			{
				"x": 0.5895759309,
				"y": -0.5787106242,
				"z": 1.320238652,
				"element": "C" 
			},
			{
				"x": 1.1155522245,
				"y": 0.4340297287,
				"z": 0.5043817971,
				"element": "C" 
			},
			{
				"x": 0.293110747,
				"y": 1.0283911079,
				"z": -0.450332848,
				"element": "C" 
			},
			{
				"x": -1.0292517413,
				"y": 0.6058870736,
				"z": -0.5878907168,
				"element": "C" 
			},
			{
				"x": -1.8095367103,
				"y": 1.2964797784,
				"z": -1.6361375813,
				"element": "N" 
			},
			{
				"x": -1.3007690567,
				"y": 2.2801135634,
				"z": -2.1721280274,
				"element": "O" 
			},
			{
				"x": -2.9209913216,
				"y": 0.8519636862,
				"z": -1.9229267788,
				"element": "O" 
			},
			{
				"x": 2.4338695692,
				"y": 0.8748101729,
				"z": 0.6107729798,
				"element": "N" 
			},
			{
				"x": 3.4338669562,
				"y": 0.6469115628,
				"z": 1.2546876113,
				"element": "C" 
			},
			{
				"x": 4.4667353414,
				"y": 0.5265523157,
				"z": 1.8057045225,
				"element": "O" 
			},
			{
				"x": -3.1931225074,
				"y": -1.6336290066,
				"z": 0.9299328334,
				"element": "H" 
			},
			{
				"x": -3.2161014147,
				"y": -1.3901816468,
				"z": -0.8313854657,
				"element": "H" 
			},
			{
				"x": -3.7401143403,
				"y": -0.0978246806,
				"z": 0.2202296402,
				"element": "H" 
			},
			{
				"x": -1.1243452708,
				"y": -1.7545378399,
				"z": 1.8108314837,
				"element": "H" 
			},
			{
				"x": 1.216611361,
				"y": -1.0497550497,
				"z": 2.0712162839,
				"element": "H" 
			},
			{
				"x": 0.6687246644,
				"y": 1.8166410939,
				"z": -1.0882407381,
				"element": "H" 
			}
		],
		 "valence_orbital": [ 
			{
				"type": "occ",
				"energy": -0.31382,
				"method": "rhf"
			},
			{
				"type": "occ",
				"energy": -0.31073,
				"method": "rhf"
			},
			{
				"type": "occ",
				"energy": -0.29591,
				"method": "rhf"
			},
			{
				"type": "occ",
				"energy": -0.28869,
				"method": "rhf"
			},
			{
				"type": "occ",
				"energy": -0.25485,
				"method": "rhf"
			},
			{
				"type": "unocc",
				"energy": -0.09431,
				"method": "rhf"
			},
			{
				"type": "unocc",
				"energy": -0.04118,
				"method": "rhf"
			},
			{
				"type": "unocc",
				"energy": -0.01508,
				"method": "rhf"
			},
			{
				"type": "unocc",
				"energy": -0.00355,
				"method": "rhf"
			},
			{
				"type": "unocc",
				"energy": 0.06256,
				"method": "rhf"
			}
		],
		"cosmo_sigma_profile": { 
			"-0.025": 0.0,
			"-0.024": 0.0,
			"-0.023": 0.0,
			"-0.022": 0.0,
			"-0.021": 0.0,
			"-0.02": 0.0,
			"-0.019": 0.0,
			"-0.018": 0.0,
			"-0.017": 0.0,
			"-0.016": 0.0,
			"-0.015": 0.0,
			"-0.014": 0.0,
			"-0.013": 0.0,
			"-0.012": 0.0,
			"-0.011": 0.0,
			"-0.01": 0.19288247269,
			"-0.009": 2.46805738647,
			"-0.008": 3.63677005108,
			"-0.007": 7.64400533154,
			"-0.006": 8.55358595169,
			"-0.005": 11.3085924749,
			"-0.004": 13.7580495881,
			"-0.003": 17.4892084931,
			"-0.002": 15.5861756855,
			"-0.001": 21.5697344628,
			"0.0": 23.3887204772,
			"0.001": 16.3669997843,
			"0.002": 9.993441826,
			"0.003": 5.49123961351,
			"0.004": 5.99177129385,
			"0.005": 6.60578932962,
			"0.006": 6.73941195793,
			"0.007": 13.7722265094,
			"0.008": 6.86753681969,
			"0.009": 4.61600463126,
			"0.01": 2.79561015831,
			"0.011": 0.208126640987,
			"0.012": 0.0,
			"0.013": 0.0,
			"0.014": 0.0,
			"0.015": 0.0,
			"0.016": 0.0,
			"0.017": 0.0,
			"0.018": 0.0,
			"0.019": 0.0,
			"0.02": 0.0,
			"0.021": 0.0,
			"0.022": 0.0,
			"0.023": 0.0,
			"0.024": 0.0,
			"0.025": 0.0
		}
	}
}
