{
	 "smiles": "C1=CN=C(C=C1)C1=NC(C2=CC=CC=N2)=C(N=N1)C1=CC=CC=N1", 
	 "Tm": 460.15, 
	 "num_atms": 36, 
	 "gaussian": { 
		 "optdone": 1, 
		 "sigma_profile": "yes", 
		 "theory": "DFT", 
		 "functional": "B3LYP", 
		 "basiset": "6-31G**", 
		 "properties": { 
			 "R2extent": 9246.541, 
			 "electric_dipole_moment_norm": 4.38939273476, 
			 "electric_quadrupole_moment_norm": 23.7581389237, 
			 "total_energy": -1021.60448349, 
			 "HOMO_LUMO_gap": 0.14806, 
			 "cosmo_polarized_energy": -20.16, 
			 "cosmo_cavitation_energy": 42.29, 
			 "cosmo_dispersion_energy": -29.86, 
			 "cosmo_repulsion_energy": 2.25, 
			 "cosmo_total_nonelectrostatic_energy": 14.69, 
			 "SMD_solvation_energy": 1.74 
		},
		"coords": [
			{
				"x": 3.7517721928,
				"y": 1.1684912875,
				"z": 5.3108757105,
				"element": "C" 
			},
			{
				"x": 3.9295585548,
				"y": -0.1445951842,
				"z": 4.8657643286,
				"element": "C" 
			},
			{
				"x": 3.3528790168,
				"y": -0.6415430828,
				"z": 3.7705302395,
				"element": "N" 
			},
			{
				"x": 2.5586115243,
				"y": 0.1736398663,
				"z": 3.0577659159,
				"element": "C" 
			},
			{
				"x": 2.3128146474,
				"y": 1.5061861851,
				"z": 3.4217052245,
				"element": "C" 
			},
			{
				"x": 2.9224377737,
				"y": 2.0075852245,
				"z": 4.5686796533,
				"element": "C" 
			},
			{
				"x": 1.921871385,
				"y": -0.3933395738,
				"z": 1.8358468564,
				"element": "C" 
			},
			{
				"x": 0.9454499328,
				"y": 0.3222646843,
				"z": 1.2557087535,
				"element": "N" 
			},
			{
				"x": 0.332307794,
				"y": -0.2062792735,
				"z": 0.2004590099,
				"element": "C" 
			},
			{
				"x": -0.5775458343,
				"y": 0.6908534361,
				"z": -0.5617082321,
				"element": "C" 
			},
			{
				"x": -1.3414894596,
				"y": 1.6550363194,
				"z": 0.1077103574,
				"element": "C" 
			},
			{
				"x": -2.1468905932,
				"y": 2.5043552795,
				"z": -0.6468122315,
				"element": "C" 
			},
			{
				"x": -2.1466423871,
				"y": 2.3730373155,
				"z": -2.0347188644,
				"element": "C" 
			},
			{
				"x": -1.3328927387,
				"y": 1.391835008,
				"z": -2.6072746988,
				"element": "C" 
			},
			{
				"x": -0.56532156,
				"y": 0.5622377776,
				"z": -1.8977985839,
				"element": "N" 
			},
			{
				"x": 0.645147437,
				"y": -1.5415835014,
				"z": -0.1667377807,
				"element": "C" 
			},
			{
				"x": 1.7136784432,
				"y": -2.1365017147,
				"z": 0.3808427203,
				"element": "N" 
			},
			{
				"x": 2.3981282787,
				"y": -1.5541904911,
				"z": 1.3528826714,
				"element": "N" 
			},
			{
				"x": -0.1549271776,
				"y": -2.3839513802,
				"z": -1.0902037831,
				"element": "C" 
			},
			{
				"x": 0.465395774,
				"y": -3.3706465911,
				"z": -1.8685881561,
				"element": "C" 
			},
			{
				"x": -0.3312586232,
				"y": -4.1706535864,
				"z": -2.682898683,
				"element": "C" 
			},
			{
				"x": -1.7110122018,
				"y": -3.9679242954,
				"z": -2.6843746301,
				"element": "C" 
			},
			{
				"x": -2.2333062999,
				"y": -2.9694386814,
				"z": -1.8590228923,
				"element": "C" 
			},
			{
				"x": -1.4840014992,
				"y": -2.1898365355,
				"z": -1.0762737139,
				"element": "N" 
			},
			{
				"x": 4.2485103991,
				"y": 1.5153744389,
				"z": 6.2115693397,
				"element": "H" 
			},
			{
				"x": 4.5655817163,
				"y": -0.8311804686,
				"z": 5.4223115777,
				"element": "H" 
			},
			{
				"x": 1.6624681913,
				"y": 2.1166792575,
				"z": 2.8072965982,
				"element": "H" 
			},
			{
				"x": 2.7547699661,
				"y": 3.036213723,
				"z": 4.8748007814,
				"element": "H" 
			},
			{
				"x": -1.2960951211,
				"y": 1.7219608962,
				"z": 1.1884000864,
				"element": "H" 
			},
			{
				"x": -2.7623498464,
				"y": 3.2554287368,
				"z": -0.1601271388,
				"element": "H" 
			},
			{
				"x": -2.7562328147,
				"y": 3.0146782173,
				"z": -2.6630460801,
				"element": "H" 
			},
			{
				"x": -1.2956518575,
				"y": 1.2702053183,
				"z": -3.6884402619,
				"element": "H" 
			},
			{
				"x": 1.5404483451,
				"y": -3.4949650694,
				"z": -1.8185759967,
				"element": "H" 
			},
			{
				"x": 0.1175985713,
				"y": -4.939529412,
				"z": -3.305108603,
				"element": "H" 
			},
			{
				"x": -2.3702818722,
				"y": -4.5690440481,
				"z": -3.3025889558,
				"element": "H" 
			},
			{
				"x": -3.3069300569,
				"y": -2.792160082,
				"z": -1.8221505383,
				"element": "H" 
			}
		],
		 "valence_orbital": [ 
			{
				"type": "occ",
				"energy": -0.26222,
				"method": "rhf"
			},
			{
				"type": "occ",
				"energy": -0.25526,
				"method": "rhf"
			},
			{
				"type": "occ",
				"energy": -0.25358,
				"method": "rhf"
			},
			{
				"type": "occ",
				"energy": -0.23681,
				"method": "rhf"
			},
			{
				"type": "occ",
				"energy": -0.22287,
				"method": "rhf"
			},
			{
				"type": "unocc",
				"energy": -0.07481,
				"method": "rhf"
			},
			{
				"type": "unocc",
				"energy": -0.06919,
				"method": "rhf"
			},
			{
				"type": "unocc",
				"energy": -0.02787,
				"method": "rhf"
			},
			{
				"type": "unocc",
				"energy": -0.02459,
				"method": "rhf"
			},
			{
				"type": "unocc",
				"energy": -0.02001,
				"method": "rhf"
			}
		],
		"cosmo_sigma_profile": { 
			"-0.025": 0.0,
			"-0.024": 0.0,
			"-0.023": 0.0,
			"-0.022": 0.0,
			"-0.021": 0.0,
			"-0.02": 0.0,
			"-0.019": 0.0,
			"-0.018": 0.0,
			"-0.017": 0.0,
			"-0.016": 0.0,
			"-0.015": 0.0,
			"-0.014": 0.0,
			"-0.013": 0.0,
			"-0.012": 0.0,
			"-0.011": 0.0,
			"-0.01": 0.0,
			"-0.009": 0.0,
			"-0.008": 2.70688550863,
			"-0.007": 19.2737531109,
			"-0.006": 28.7638145773,
			"-0.005": 28.655243783,
			"-0.004": 20.5294587297,
			"-0.003": 20.4937741659,
			"-0.002": 21.3330092013,
			"-0.001": 22.917383559,
			"0.0": 24.4113175297,
			"0.001": 37.2906207808,
			"0.002": 39.0773248216,
			"0.003": 16.2054627301,
			"0.004": 9.71798626403,
			"0.005": 6.87526754002,
			"0.006": 5.74273950715,
			"0.007": 5.81253369739,
			"0.008": 6.50598794277,
			"0.009": 3.88085565145,
			"0.01": 4.46958366238,
			"0.011": 4.39112656464,
			"0.012": 4.61760080353,
			"0.013": 3.17549734385,
			"0.014": 0.820427070694,
			"0.015": 1.26597564387,
			"0.016": 1.43905476949,
			"0.017": 0.862873015043,
			"0.018": 0.972702991555,
			"0.019": 0.661379464435,
			"0.02": 0.0891943967771,
			"0.021": 0.0,
			"0.022": 0.0,
			"0.023": 0.0,
			"0.024": 0.0,
			"0.025": 0.0
		}
	}
}
