{
	 "smiles": "OC(=O)C1=CC=CN2CCS(=O)(=O)N=C12", 
	 "Tm": 587.15, 
	 "num_atms": 23, 
	 "gaussian": { 
		 "optdone": 1, 
		 "sigma_profile": "yes", 
		 "theory": "DFT", 
		 "functional": "B3LYP", 
		 "basiset": "6-31G**", 
		 "properties": { 
			 "R2extent": 4169.6498, 
			 "electric_dipole_moment_norm": 9.73075591411, 
			 "electric_quadrupole_moment_norm": 29.0183662402, 
			 "total_energy": -1118.17817639, 
			 "HOMO_LUMO_gap": 0.14951, 
			 "cosmo_polarized_energy": -36.13, 
			 "cosmo_cavitation_energy": 28.34, 
			 "cosmo_dispersion_energy": -21.73, 
			 "cosmo_repulsion_energy": 1.64, 
			 "cosmo_total_nonelectrostatic_energy": 8.25, 
			 "SMD_solvation_energy": 4.4 
		},
		"coords": [
			{
				"x": -0.8743873242,
				"y": 4.161430183,
				"z": 1.1517446922,
				"element": "O" 
			},
			{
				"x": -1.0661263401,
				"y": 3.3006663842,
				"z": 0.1120385751,
				"element": "C" 
			},
			{
				"x": -1.6431559334,
				"y": 3.6260423278,
				"z": -0.8971908466,
				"element": "O" 
			},
			{
				"x": -0.5342226359,
				"y": 1.9415813555,
				"z": 0.4374282423,
				"element": "C" 
			},
			{
				"x": -0.5436808068,
				"y": 1.5174375896,
				"z": 1.7419773146,
				"element": "C" 
			},
			{
				"x": -0.1590164531,
				"y": 0.1991577852,
				"z": 2.0905283039,
				"element": "C" 
			},
			{
				"x": 0.2215626812,
				"y": -0.6373530613,
				"z": 1.0869727097,
				"element": "C" 
			},
			{
				"x": 0.2654145694,
				"y": -0.2429811018,
				"z": -0.2241791491,
				"element": "N" 
			},
			{
				"x": 0.7818815145,
				"y": -1.225864503,
				"z": -1.2046158721,
				"element": "C" 
			},
			{
				"x": 0.1504522441,
				"y": -1.0444138491,
				"z": -2.5743364132,
				"element": "C" 
			},
			{
				"x": 0.5775455309,
				"y": 0.6281055685,
				"z": -3.1242349404,
				"element": "S" 
			},
			{
				"x": 2.0456540728,
				"y": 0.6844705682,
				"z": -3.1862128867,
				"element": "O" 
			},
			{
				"x": -0.2217414601,
				"y": 0.9615356104,
				"z": -4.2994308052,
				"element": "O" 
			},
			{
				"x": 0.0354866105,
				"y": 1.5340093492,
				"z": -1.8495386787,
				"element": "N" 
			},
			{
				"x": -0.0621775074,
				"y": 1.0700671801,
				"z": -0.6339311384,
				"element": "C" 
			},
			{
				"x": -1.3023390431,
				"y": 4.9906989383,
				"z": 0.8807212226,
				"element": "H" 
			},
			{
				"x": -0.8713549047,
				"y": 2.207444522,
				"z": 2.5110279468,
				"element": "H" 
			},
			{
				"x": -0.1794610862,
				"y": -0.1497031056,
				"z": 3.1148169383,
				"element": "H" 
			},
			{
				"x": 0.5153741138,
				"y": -1.6655232608,
				"z": 1.2663084024,
				"element": "H" 
			},
			{
				"x": 1.866957511,
				"y": -1.103744453,
				"z": -1.2904669849,
				"element": "H" 
			},
			{
				"x": 0.5706979292,
				"y": -2.2242468084,
				"z": -0.8142408441,
				"element": "H" 
			},
			{
				"x": 0.5688680078,
				"y": -1.7541064801,
				"z": -3.2908932372,
				"element": "H" 
			},
			{
				"x": -0.9386312903,
				"y": -1.1317107391,
				"z": -2.558692551,
				"element": "H" 
			}
		],
		 "valence_orbital": [ 
			{
				"type": "occ",
				"energy": -0.30071,
				"method": "rhf"
			},
			{
				"type": "occ",
				"energy": -0.28895,
				"method": "rhf"
			},
			{
				"type": "occ",
				"energy": -0.28498,
				"method": "rhf"
			},
			{
				"type": "occ",
				"energy": -0.26378,
				"method": "rhf"
			},
			{
				"type": "occ",
				"energy": -0.23177,
				"method": "rhf"
			},
			{
				"type": "unocc",
				"energy": -0.08226,
				"method": "rhf"
			},
			{
				"type": "unocc",
				"energy": -0.03371,
				"method": "rhf"
			},
			{
				"type": "unocc",
				"energy": 0.01896,
				"method": "rhf"
			},
			{
				"type": "unocc",
				"energy": 0.04814,
				"method": "rhf"
			},
			{
				"type": "unocc",
				"energy": 0.06713,
				"method": "rhf"
			}
		],
		"cosmo_sigma_profile": { 
			"-0.025": 0.0,
			"-0.024": 0.0,
			"-0.023": 0.0,
			"-0.022": 0.0,
			"-0.021": 0.0,
			"-0.02": 0.0,
			"-0.019": 0.140749200249,
			"-0.018": 0.57696238428,
			"-0.017": 1.03172538449,
			"-0.016": 0.871101602304,
			"-0.015": 0.626300894603,
			"-0.014": 0.917678781137,
			"-0.013": 0.944107507424,
			"-0.012": 2.21523541147,
			"-0.011": 3.99003886014,
			"-0.01": 5.07303250003,
			"-0.009": 11.079451717,
			"-0.008": 16.4082871938,
			"-0.007": 16.6365489754,
			"-0.006": 11.3298293208,
			"-0.005": 10.9059472124,
			"-0.004": 9.23386923475,
			"-0.003": 10.6776136775,
			"-0.002": 10.5743828456,
			"-0.001": 10.842607957,
			"0.0": 10.0331114085,
			"0.001": 7.64427355685,
			"0.002": 4.92003702008,
			"0.003": 5.22266726296,
			"0.004": 4.42534717934,
			"0.005": 3.0153507116,
			"0.006": 4.71063783944,
			"0.007": 5.5908274405,
			"0.008": 5.20321926129,
			"0.009": 6.25828503177,
			"0.01": 6.26865591301,
			"0.011": 14.6888232874,
			"0.012": 14.7040591456,
			"0.013": 4.89830993305,
			"0.014": 1.67619750872,
			"0.015": 1.49017673067,
			"0.016": 1.01329097215,
			"0.017": 0.739538133337,
			"0.018": 0.0234785143454,
			"0.019": 0.0,
			"0.02": 0.0,
			"0.021": 0.0,
			"0.022": 0.0,
			"0.023": 0.0,
			"0.024": 0.0,
			"0.025": 0.0
		}
	}
}
