{
	 "smiles": "COCCSC1=C(C=C(C=C1)[N+]([O-])=O)C(O)=O", 
	 "Tm": 433.15, 
	 "num_atms": 28, 
	 "gaussian": { 
		 "optdone": 1, 
		 "sigma_profile": "yes", 
		 "theory": "DFT", 
		 "functional": "B3LYP", 
		 "basiset": "6-31G**", 
		 "properties": { 
			 "R2extent": 6353.5953, 
			 "electric_dipole_moment_norm": 8.43602692563, 
			 "electric_quadrupole_moment_norm": 29.7459428092, 
			 "total_energy": -1216.6392048, 
			 "HOMO_LUMO_gap": 0.15029, 
			 "cosmo_polarized_energy": -18.43, 
			 "cosmo_cavitation_energy": 33.96, 
			 "cosmo_dispersion_energy": -23.73, 
			 "cosmo_repulsion_energy": 1.82, 
			 "cosmo_total_nonelectrostatic_energy": 12.04, 
			 "SMD_solvation_energy": 9.32 
		},
		"coords": [
			{
				"x": -3.6866577272,
				"y": -2.2017649702,
				"z": -0.0253270134,
				"element": "C" 
			},
			{
				"x": -2.9865692836,
				"y": -1.3574847603,
				"z": -0.9291874468,
				"element": "O" 
			},
			{
				"x": -3.3566620192,
				"y": 0.0155308624,
				"z": -0.8427432631,
				"element": "C" 
			},
			{
				"x": -2.5527446946,
				"y": 0.8072768176,
				"z": -1.8607594335,
				"element": "C" 
			},
			{
				"x": -0.7742293317,
				"y": 1.0931044155,
				"z": -1.4568693532,
				"element": "S" 
			},
			{
				"x": -0.0225368037,
				"y": -0.4726295524,
				"z": -0.9882312361,
				"element": "C" 
			},
			{
				"x": 0.1549935177,
				"y": -1.5875147084,
				"z": -1.8381976889,
				"element": "C" 
			},
			{
				"x": 0.9463042027,
				"y": -2.6576156738,
				"z": -1.4154439426,
				"element": "C" 
			},
			{
				"x": 1.5325302829,
				"y": -2.6279069619,
				"z": -0.1541356087,
				"element": "C" 
			},
			{
				"x": 1.3761041997,
				"y": -1.541993204,
				"z": 0.7008925875,
				"element": "C" 
			},
			{
				"x": 0.6004105054,
				"y": -0.4700845245,
				"z": 0.2718637441,
				"element": "C" 
			},
			{
				"x": 2.3470955638,
				"y": -3.7727283503,
				"z": 0.2825486874,
				"element": "N" 
			},
			{
				"x": 2.4516194828,
				"y": -4.7252797324,
				"z": -0.4882018521,
				"element": "O" 
			},
			{
				"x": 2.8689044059,
				"y": -3.7058358075,
				"z": 1.395174502,
				"element": "O" 
			},
			{
				"x": -0.413431231,
				"y": -1.7031333265,
				"z": -3.2359142602,
				"element": "C" 
			},
			{
				"x": -1.7536681803,
				"y": -1.7840948424,
				"z": -3.3262898022,
				"element": "O" 
			},
			{
				"x": 0.2942689037,
				"y": -1.7806443411,
				"z": -4.2103994592,
				"element": "O" 
			},
			{
				"x": -4.7688963055,
				"y": -2.1731551842,
				"z": -0.2122748026,
				"element": "H" 
			},
			{
				"x": -3.3205277929,
				"y": -3.217438135,
				"z": -0.1837499826,
				"element": "H" 
			},
			{
				"x": -3.4949423616,
				"y": -1.9063708533,
				"z": 1.0146555911,
				"element": "H" 
			},
			{
				"x": -3.1808446619,
				"y": 0.3881961731,
				"z": 0.1764424251,
				"element": "H" 
			},
			{
				"x": -4.4302474905,
				"y": 0.1240714914,
				"z": -1.0676212089,
				"element": "H" 
			},
			{
				"x": -2.9412820793,
				"y": 1.8295539867,
				"z": -1.9022601993,
				"element": "H" 
			},
			{
				"x": -2.6515958399,
				"y": 0.3693674936,
				"z": -2.8547719726,
				"element": "H" 
			},
			{
				"x": 1.1192940666,
				"y": -3.5056279906,
				"z": -2.0665952254,
				"element": "H" 
			},
			{
				"x": 1.8521231417,
				"y": -1.5494146861,
				"z": 1.6733266722,
				"element": "H" 
			},
			{
				"x": 0.4714270239,
				"y": 0.391795028,
				"z": 0.917336683,
				"element": "H" 
			},
			{
				"x": -2.1782394938,
				"y": -1.7739786636,
				"z": -2.4382671413,
				"element": "H" 
			}
		],
		 "valence_orbital": [ 
			{
				"type": "occ",
				"energy": -0.29764,
				"method": "rhf"
			},
			{
				"type": "occ",
				"energy": -0.29472,
				"method": "rhf"
			},
			{
				"type": "occ",
				"energy": -0.2917,
				"method": "rhf"
			},
			{
				"type": "occ",
				"energy": -0.26733,
				"method": "rhf"
			},
			{
				"type": "occ",
				"energy": -0.24839,
				"method": "rhf"
			},
			{
				"type": "unocc",
				"energy": -0.0981,
				"method": "rhf"
			},
			{
				"type": "unocc",
				"energy": -0.04688,
				"method": "rhf"
			},
			{
				"type": "unocc",
				"energy": -0.02124,
				"method": "rhf"
			},
			{
				"type": "unocc",
				"energy": 0.01238,
				"method": "rhf"
			},
			{
				"type": "unocc",
				"energy": 0.0347,
				"method": "rhf"
			}
		],
		"cosmo_sigma_profile": { 
			"-0.025": 0.0,
			"-0.024": 0.0,
			"-0.023": 0.0,
			"-0.022": 0.0,
			"-0.021": 0.0,
			"-0.02": 0.0,
			"-0.019": 0.0,
			"-0.018": 0.0,
			"-0.017": 0.0,
			"-0.016": 0.0,
			"-0.015": 0.0,
			"-0.014": 0.0,
			"-0.013": 0.0,
			"-0.012": 0.0,
			"-0.011": 0.0,
			"-0.01": 0.0,
			"-0.009": 0.707324209005,
			"-0.008": 6.80792448933,
			"-0.007": 10.9944970795,
			"-0.006": 16.6680290367,
			"-0.005": 28.5572100787,
			"-0.004": 24.1833043546,
			"-0.003": 24.2294605681,
			"-0.002": 19.923215964,
			"-0.001": 20.3056073252,
			"0.0": 16.9753198945,
			"0.001": 12.1151322761,
			"0.002": 8.58510520065,
			"0.003": 9.25277552305,
			"0.004": 8.80722817307,
			"0.005": 8.415970685,
			"0.006": 8.60919052972,
			"0.007": 12.8156524129,
			"0.008": 9.44907289408,
			"0.009": 7.72457911605,
			"0.01": 6.36251001041,
			"0.011": 6.42654325161,
			"0.012": 3.76539480206,
			"0.013": 0.631842104642,
			"0.014": 0.0,
			"0.015": 0.0,
			"0.016": 0.0,
			"0.017": 0.0,
			"0.018": 0.0,
			"0.019": 0.0,
			"0.02": 0.0,
			"0.021": 0.0,
			"0.022": 0.0,
			"0.023": 0.0,
			"0.024": 0.0,
			"0.025": 0.0
		}
	}
}
