{
	 "smiles": "C(OC1=CC2=C(C=C1)N=CC=C2)C1=CC=CC=C1", 
	 "Tm": 347.15, 
	 "num_atms": 31, 
	 "gaussian": { 
		 "optdone": 1, 
		 "sigma_profile": "yes", 
		 "theory": "DFT", 
		 "functional": "B3LYP", 
		 "basiset": "6-31G**", 
		 "properties": { 
			 "R2extent": 7321.062, 
			 "electric_dipole_moment_norm": 3.11314158689, 
			 "electric_quadrupole_moment_norm": 12.6468810096, 
			 "total_energy": -747.511209983, 
			 "HOMO_LUMO_gap": 0.17178, 
			 "cosmo_polarized_energy": -10.69, 
			 "cosmo_cavitation_energy": 35.32, 
			 "cosmo_dispersion_energy": -25.92, 
			 "cosmo_repulsion_energy": 1.96, 
			 "cosmo_total_nonelectrostatic_energy": 11.36, 
			 "SMD_solvation_energy": 4.36 
		},
		"coords": [
			{
				"x": 1.2688436245,
				"y": -0.4101556647,
				"z": -2.0768282074,
				"element": "C" 
			},
			{
				"x": 1.3704559189,
				"y": -0.6162733976,
				"z": -0.6685458121,
				"element": "O" 
			},
			{
				"x": 0.2208804524,
				"y": -0.6709311762,
				"z": 0.0618671588,
				"element": "C" 
			},
			{
				"x": -1.057893529,
				"y": -0.5793343996,
				"z": -0.4524860771,
				"element": "C" 
			},
			{
				"x": -2.1782031889,
				"y": -0.651629714,
				"z": 0.4200541955,
				"element": "C" 
			},
			{
				"x": -1.9794738793,
				"y": -0.8208021194,
				"z": 1.8266829941,
				"element": "C" 
			},
			{
				"x": -0.6460834866,
				"y": -0.913902614,
				"z": 2.3168009606,
				"element": "C" 
			},
			{
				"x": 0.4222660759,
				"y": -0.8414314016,
				"z": 1.4618513455,
				"element": "C" 
			},
			{
				"x": -3.0084752317,
				"y": -0.8975282572,
				"z": 2.7166384826,
				"element": "N" 
			},
			{
				"x": -4.2374961557,
				"y": -0.8106648946,
				"z": 2.2443207424,
				"element": "C" 
			},
			{
				"x": -4.5477882589,
				"y": -0.6433437487,
				"z": 0.8725876604,
				"element": "C" 
			},
			{
				"x": -3.5178719048,
				"y": -0.5641978651,
				"z": -0.0365855972,
				"element": "C" 
			},
			{
				"x": 2.6562454278,
				"y": -0.3080211034,
				"z": -2.6627021365,
				"element": "C" 
			},
			{
				"x": 2.9378005977,
				"y": -0.8909380604,
				"z": -3.9025356909,
				"element": "C" 
			},
			{
				"x": 4.20141952,
				"y": -0.755024039,
				"z": -4.4807290744,
				"element": "C" 
			},
			{
				"x": 5.1999858631,
				"y": -0.0423366486,
				"z": -3.8163238571,
				"element": "C" 
			},
			{
				"x": 4.9278061073,
				"y": 0.5347562738,
				"z": -2.5733509197,
				"element": "C" 
			},
			{
				"x": 3.6626352777,
				"y": 0.4071142268,
				"z": -2.0013224519,
				"element": "C" 
			},
			{
				"x": 0.7154912882,
				"y": -1.2376784821,
				"z": -2.5418492909,
				"element": "H" 
			},
			{
				"x": 0.7008391888,
				"y": 0.5140091794,
				"z": -2.2655305014,
				"element": "H" 
			},
			{
				"x": -1.2357235028,
				"y": -0.4553228548,
				"z": -1.5146360223,
				"element": "H" 
			},
			{
				"x": -0.5093299917,
				"y": -1.0432528889,
				"z": 3.385366969,
				"element": "H" 
			},
			{
				"x": 1.4441019972,
				"y": -0.9113392825,
				"z": 1.8205013747,
				"element": "H" 
			},
			{
				"x": -5.0432450066,
				"y": -0.8745517153,
				"z": 2.9748577763,
				"element": "H" 
			},
			{
				"x": -5.5844585487,
				"y": -0.5799146457,
				"z": 0.5565291521,
				"element": "H" 
			},
			{
				"x": -3.7150600245,
				"y": -0.4356657678,
				"z": -1.0981675493,
				"element": "H" 
			},
			{
				"x": 2.1663560187,
				"y": -1.4577668794,
				"z": -4.4184863945,
				"element": "H" 
			},
			{
				"x": 4.4066210994,
				"y": -1.2139746358,
				"z": -5.4436387953,
				"element": "H" 
			},
			{
				"x": 6.1857500501,
				"y": 0.0594177636,
				"z": -4.261016365,
				"element": "H" 
			},
			{
				"x": 5.7028548829,
				"y": 1.0864491852,
				"z": -2.04883105,
				"element": "H" 
			},
			{
				"x": 3.4518493186,
				"y": 0.8482356278,
				"z": -1.032393019,
				"element": "H" 
			}
		],
		 "valence_orbital": [ 
			{
				"type": "occ",
				"energy": -0.25383,
				"method": "rhf"
			},
			{
				"type": "occ",
				"energy": -0.24993,
				"method": "rhf"
			},
			{
				"type": "occ",
				"energy": -0.24887,
				"method": "rhf"
			},
			{
				"type": "occ",
				"energy": -0.23911,
				"method": "rhf"
			},
			{
				"type": "occ",
				"energy": -0.21821,
				"method": "rhf"
			},
			{
				"type": "unocc",
				"energy": -0.04643,
				"method": "rhf"
			},
			{
				"type": "unocc",
				"energy": -0.01111,
				"method": "rhf"
			},
			{
				"type": "unocc",
				"energy": -0.0064,
				"method": "rhf"
			},
			{
				"type": "unocc",
				"energy": -0.00451,
				"method": "rhf"
			},
			{
				"type": "unocc",
				"energy": 0.02514,
				"method": "rhf"
			}
		],
		"cosmo_sigma_profile": { 
			"-0.025": 0.0,
			"-0.024": 0.0,
			"-0.023": 0.0,
			"-0.022": 0.0,
			"-0.021": 0.0,
			"-0.02": 0.0,
			"-0.019": 0.0,
			"-0.018": 0.0,
			"-0.017": 0.0,
			"-0.016": 0.0,
			"-0.015": 0.0,
			"-0.014": 0.0,
			"-0.013": 0.0,
			"-0.012": 0.0,
			"-0.011": 0.0,
			"-0.01": 0.0,
			"-0.009": 0.0,
			"-0.008": 0.0859632653876,
			"-0.007": 7.07675170258,
			"-0.006": 22.3629883973,
			"-0.005": 26.2657448637,
			"-0.004": 24.1556174124,
			"-0.003": 20.8638964464,
			"-0.002": 15.7368097686,
			"-0.001": 16.5260759296,
			"0.0": 13.954640466,
			"0.001": 18.1061233592,
			"0.002": 28.3418578088,
			"0.003": 32.8736169362,
			"0.004": 18.760989543,
			"0.005": 14.1786327093,
			"0.006": 10.2196809842,
			"0.007": 2.93598990682,
			"0.008": 2.75994787798,
			"0.009": 1.64268238746,
			"0.01": 1.44140699394,
			"0.011": 1.02330107024,
			"0.012": 0.444560795892,
			"0.013": 1.23109957802,
			"0.014": 0.75286570397,
			"0.015": 0.723345267897,
			"0.016": 0.807462841393,
			"0.017": 0.16614697791,
			"0.018": 0.0,
			"0.019": 0.0,
			"0.02": 0.0,
			"0.021": 0.0,
			"0.022": 0.0,
			"0.023": 0.0,
			"0.024": 0.0,
			"0.025": 0.0
		}
	}
}
