{
	 "smiles": "O=C1NC(=O)C2(CCNCC2)N1", 
	 "Tm": 518.15, 
	 "num_atms": 23, 
	 "gaussian": { 
		 "optdone": 1, 
		 "sigma_profile": "yes", 
		 "theory": "DFT", 
		 "functional": "B3LYP", 
		 "basiset": "6-31G**", 
		 "properties": { 
			 "R2extent": 2920.0842, 
			 "electric_dipole_moment_norm": 2.90337355502, 
			 "electric_quadrupole_moment_norm": 17.1412167652, 
			 "total_energy": -588.105753993, 
			 "HOMO_LUMO_gap": 0.21008, 
			 "cosmo_polarized_energy": -18.46, 
			 "cosmo_cavitation_energy": 25.15, 
			 "cosmo_dispersion_energy": -18.71, 
			 "cosmo_repulsion_energy": 1.5, 
			 "cosmo_total_nonelectrostatic_energy": 7.94, 
			 "SMD_solvation_energy": 2.63 
		},
		"coords": [
			{
				"x": -1.1252155757,
				"y": 0.2815707606,
				"z": -1.565148206,
				"element": "O" 
			},
			{
				"x": -0.4405448774,
				"y": 0.0424303006,
				"z": -0.5925975519,
				"element": "C" 
			},
			{
				"x": 0.9540584643,
				"y": -0.1824458343,
				"z": -0.5944157432,
				"element": "N" 
			},
			{
				"x": 1.4588245749,
				"y": -0.4833623581,
				"z": 0.6505877965,
				"element": "C" 
			},
			{
				"x": 2.6175730881,
				"y": -0.7050758786,
				"z": 0.9387850834,
				"element": "O" 
			},
			{
				"x": 0.2543615949,
				"y": -0.496145675,
				"z": 1.6169021817,
				"element": "C" 
			},
			{
				"x": 0.5130738997,
				"y": 0.4789762307,
				"z": 2.7973094196,
				"element": "C" 
			},
			{
				"x": -0.219401416,
				"y": 0.0429930096,
				"z": 4.066456143,
				"element": "C" 
			},
			{
				"x": 0.3273420223,
				"y": -1.235145845,
				"z": 4.5458702398,
				"element": "N" 
			},
			{
				"x": 0.7664612497,
				"y": -2.1492294162,
				"z": 3.4764790064,
				"element": "C" 
			},
			{
				"x": 0.0124698255,
				"y": -1.9372448796,
				"z": 2.1567585467,
				"element": "C" 
			},
			{
				"x": -0.8194084797,
				"y": -0.0629058987,
				"z": 0.7219234034,
				"element": "N" 
			},
			{
				"x": 1.5094043538,
				"y": -0.1188515063,
				"z": -1.4354556445,
				"element": "H" 
			},
			{
				"x": 1.5894408747,
				"y": 0.4962883108,
				"z": 2.998468944,
				"element": "H" 
			},
			{
				"x": 0.2119391251,
				"y": 1.4874354054,
				"z": 2.4999689518,
				"element": "H" 
			},
			{
				"x": -0.0908144769,
				"y": 0.804266768,
				"z": 4.8454749052,
				"element": "H" 
			},
			{
				"x": -1.3043000787,
				"y": -0.0016657453,
				"z": 3.8546138145,
				"element": "H" 
			},
			{
				"x": -0.3564146635,
				"y": -1.6967815668,
				"z": 5.1356870716,
				"element": "H" 
			},
			{
				"x": 1.8385484921,
				"y": -2.0134224076,
				"z": 3.2890292321,
				"element": "H" 
			},
			{
				"x": 0.6385187644,
				"y": -3.1790788644,
				"z": 3.8238454927,
				"element": "H" 
			},
			{
				"x": 0.3051865002,
				"y": -2.67972973,
				"z": 1.4065230509,
				"element": "H" 
			},
			{
				"x": -1.0648764355,
				"y": -2.0636794114,
				"z": 2.3247323634,
				"element": "H" 
			},
			{
				"x": -1.8000268263,
				"y": -0.1310957682,
				"z": 0.9477014989,
				"element": "H" 
			}
		],
		 "valence_orbital": [ 
			{
				"type": "occ",
				"energy": -0.28993,
				"method": "rhf"
			},
			{
				"type": "occ",
				"energy": -0.28904,
				"method": "rhf"
			},
			{
				"type": "occ",
				"energy": -0.26742,
				"method": "rhf"
			},
			{
				"type": "occ",
				"energy": -0.26068,
				"method": "rhf"
			},
			{
				"type": "occ",
				"energy": -0.22081,
				"method": "rhf"
			},
			{
				"type": "unocc",
				"energy": -0.01073,
				"method": "rhf"
			},
			{
				"type": "unocc",
				"energy": 0.05584,
				"method": "rhf"
			},
			{
				"type": "unocc",
				"energy": 0.0613,
				"method": "rhf"
			},
			{
				"type": "unocc",
				"energy": 0.08091,
				"method": "rhf"
			},
			{
				"type": "unocc",
				"energy": 0.09409,
				"method": "rhf"
			}
		],
		"cosmo_sigma_profile": { 
			"-0.025": 0.0,
			"-0.024": 0.0,
			"-0.023": 0.0,
			"-0.022": 0.0,
			"-0.021": 0.0,
			"-0.02": 0.0,
			"-0.019": 0.0,
			"-0.018": 0.0,
			"-0.017": 0.283198201613,
			"-0.016": 1.23937572379,
			"-0.015": 1.87436751504,
			"-0.014": 2.07878915939,
			"-0.013": 1.76539724434,
			"-0.012": 1.49303222791,
			"-0.011": 1.99217680464,
			"-0.01": 3.0117463393,
			"-0.009": 3.71679407177,
			"-0.008": 4.30586237695,
			"-0.007": 3.69709532679,
			"-0.006": 5.62149639594,
			"-0.005": 10.6588376288,
			"-0.004": 15.4523555663,
			"-0.003": 19.6083056881,
			"-0.002": 20.7513700062,
			"-0.001": 21.1384726167,
			"0.0": 9.70132290002,
			"0.001": 5.27305336177,
			"0.002": 5.78880388977,
			"0.003": 4.91789315722,
			"0.004": 5.0087565321,
			"0.005": 3.64176255542,
			"0.006": 3.6853232146,
			"0.007": 2.99269388284,
			"0.008": 2.01219161597,
			"0.009": 3.60801094408,
			"0.01": 4.44391661045,
			"0.011": 5.2736467947,
			"0.012": 8.79589772044,
			"0.013": 8.03865315664,
			"0.014": 1.87566024395,
			"0.015": 0.729269282242,
			"0.016": 0.455987304538,
			"0.017": 0.546430971729,
			"0.018": 0.354553216332,
			"0.019": 0.219506133604,
			"0.02": 0.0,
			"0.021": 0.0,
			"0.022": 0.0,
			"0.023": 0.0,
			"0.024": 0.0,
			"0.025": 0.0
		}
	}
}
