{
	 "smiles": "OCCNC(=O)C1=CC(=CC=C1)S(=O)(=O)N1CCCCC1", 
	 "Tm": 339.65, 
	 "num_atms": 41, 
	 "gaussian": { 
		 "optdone": 1, 
		 "sigma_profile": "yes", 
		 "theory": "DFT", 
		 "functional": "B3LYP", 
		 "basiset": "6-31G**", 
		 "properties": { 
			 "R2extent": 8732.0146, 
			 "electric_dipole_moment_norm": 6.07918492727, 
			 "electric_quadrupole_moment_norm": 15.889862709, 
			 "total_energy": -1354.06847087, 
			 "HOMO_LUMO_gap": 0.1914, 
			 "cosmo_polarized_energy": -24.67, 
			 "cosmo_cavitation_energy": 44.01, 
			 "cosmo_dispersion_energy": -30.64, 
			 "cosmo_repulsion_energy": 2.35, 
			 "cosmo_total_nonelectrostatic_energy": 15.72, 
			 "SMD_solvation_energy": 5.4 
		},
		"coords": [
			{
				"x": -0.5411244274,
				"y": -4.8957735051,
				"z": -1.5228207234,
				"element": "O" 
			},
			{
				"x": -0.5757788736,
				"y": -5.1688753905,
				"z": -0.1312399835,
				"element": "C" 
			},
			{
				"x": -1.1235745986,
				"y": -3.9902240473,
				"z": 0.6775572339,
				"element": "C" 
			},
			{
				"x": -0.2989718068,
				"y": -2.7905253819,
				"z": 0.5275590752,
				"element": "N" 
			},
			{
				"x": 0.7659698973,
				"y": -2.5606932453,
				"z": 1.3576209179,
				"element": "C" 
			},
			{
				"x": 1.1195902747,
				"y": -3.3789773514,
				"z": 2.2021872339,
				"element": "O" 
			},
			{
				"x": 1.4928397121,
				"y": -1.2510481394,
				"z": 1.1867878438,
				"element": "C" 
			},
			{
				"x": 1.3459642353,
				"y": -0.4193627887,
				"z": 0.0701143986,
				"element": "C" 
			},
			{
				"x": 2.0758643697,
				"y": 0.7684819335,
				"z": -0.0079123151,
				"element": "C" 
			},
			{
				"x": 2.9720232151,
				"y": 1.1333592562,
				"z": 1.000581507,
				"element": "C" 
			},
			{
				"x": 3.1205210539,
				"y": 0.2975439116,
				"z": 2.1090914904,
				"element": "C" 
			},
			{
				"x": 2.3877676973,
				"y": -0.8836050105,
				"z": 2.2014676283,
				"element": "C" 
			},
			{
				"x": 1.8429361534,
				"y": 1.8488639779,
				"z": -1.4327068534,
				"element": "S" 
			},
			{
				"x": 1.2371526551,
				"y": 1.0283636827,
				"z": -2.4857508945,
				"element": "O" 
			},
			{
				"x": 3.1004684788,
				"y": 2.5738555435,
				"z": -1.6235938917,
				"element": "O" 
			},
			{
				"x": 0.7022832334,
				"y": 2.9899623907,
				"z": -1.0002099851,
				"element": "N" 
			},
			{
				"x": -0.7322236695,
				"y": 2.6252290431,
				"z": -1.0265368356,
				"element": "C" 
			},
			{
				"x": -1.3935271101,
				"y": 2.9077366471,
				"z": 0.3254015221,
				"element": "C" 
			},
			{
				"x": -1.2850301128,
				"y": 4.403570621,
				"z": 0.7054529048,
				"element": "C" 
			},
			{
				"x": -0.0278456609,
				"y": 5.0577815669,
				"z": 0.0874351079,
				"element": "C" 
			},
			{
				"x": 1.1194554787,
				"y": 4.0567696783,
				"z": -0.0661353569,
				"element": "C" 
			},
			{
				"x": 0.1291360957,
				"y": -4.2132141681,
				"z": -1.6592510293,
				"element": "H" 
			},
			{
				"x": 0.4152559727,
				"y": -5.4420097732,
				"z": 0.2574508081,
				"element": "H" 
			},
			{
				"x": -1.2373975425,
				"y": -6.0314954103,
				"z": 0.0008343408,
				"element": "H" 
			},
			{
				"x": -2.1318710323,
				"y": -3.7473158344,
				"z": 0.3300305723,
				"element": "H" 
			},
			{
				"x": -1.1653543771,
				"y": -4.2555330869,
				"z": 1.7388850697,
				"element": "H" 
			},
			{
				"x": -0.6699191491,
				"y": -2.0257163601,
				"z": -0.0132997435,
				"element": "H" 
			},
			{
				"x": 0.7247032345,
				"y": -0.6935565874,
				"z": -0.7758943275,
				"element": "H" 
			},
			{
				"x": 3.5645971591,
				"y": 2.0352642206,
				"z": 0.8944680388,
				"element": "H" 
			},
			{
				"x": 3.8214840415,
				"y": 0.5636383474,
				"z": 2.8943721188,
				"element": "H" 
			},
			{
				"x": 2.5013553115,
				"y": -1.5552074205,
				"z": 3.0453875546,
				"element": "H" 
			},
			{
				"x": -0.8225515222,
				"y": 1.574319771,
				"z": -1.3064251268,
				"element": "H" 
			},
			{
				"x": -1.2258651243,
				"y": 3.1996079808,
				"z": -1.8210418533,
				"element": "H" 
			},
			{
				"x": -0.9067210103,
				"y": 2.2874813294,
				"z": 1.0873167793,
				"element": "H" 
			},
			{
				"x": -2.442057673,
				"y": 2.5927754686,
				"z": 0.2892880743,
				"element": "H" 
			},
			{
				"x": -1.2618852458,
				"y": 4.4987597453,
				"z": 1.7966437803,
				"element": "H" 
			},
			{
				"x": -2.1753258189,
				"y": 4.9447927214,
				"z": 0.367165864,
				"element": "H" 
			},
			{
				"x": -0.259045214,
				"y": 5.4679982834,
				"z": -0.902074662,
				"element": "H" 
			},
			{
				"x": 0.31381317,
				"y": 5.8970637582,
				"z": 0.7017218202,
				"element": "H" 
			},
			{
				"x": 2.0092440477,
				"y": 4.5371372887,
				"z": -0.4763225608,
				"element": "H" 
			},
			{
				"x": 1.3834444815,
				"y": 3.6428763336,
				"z": 0.9208944575,
				"element": "H" 
			}
		],
		 "valence_orbital": [ 
			{
				"type": "occ",
				"energy": -0.28424,
				"method": "rhf"
			},
			{
				"type": "occ",
				"energy": -0.27976,
				"method": "rhf"
			},
			{
				"type": "occ",
				"energy": -0.2642,
				"method": "rhf"
			},
			{
				"type": "occ",
				"energy": -0.25684,
				"method": "rhf"
			},
			{
				"type": "occ",
				"energy": -0.24933,
				"method": "rhf"
			},
			{
				"type": "unocc",
				"energy": -0.05793,
				"method": "rhf"
			},
			{
				"type": "unocc",
				"energy": -0.04232,
				"method": "rhf"
			},
			{
				"type": "unocc",
				"energy": 0.03637,
				"method": "rhf"
			},
			{
				"type": "unocc",
				"energy": 0.04308,
				"method": "rhf"
			},
			{
				"type": "unocc",
				"energy": 0.06452,
				"method": "rhf"
			}
		],
		"cosmo_sigma_profile": { 
			"-0.025": 0.0,
			"-0.024": 0.0,
			"-0.023": 0.0,
			"-0.022": 0.0,
			"-0.021": 0.0,
			"-0.02": 0.0,
			"-0.019": 0.0,
			"-0.018": 0.0,
			"-0.017": 0.0,
			"-0.016": 0.0221472139588,
			"-0.015": 1.00882672098,
			"-0.014": 1.93288789589,
			"-0.013": 2.37021950851,
			"-0.012": 1.56010946327,
			"-0.011": 2.2705723623,
			"-0.01": 2.21164365281,
			"-0.009": 2.85167596778,
			"-0.008": 2.44187179903,
			"-0.007": 8.3840983756,
			"-0.006": 10.5873132974,
			"-0.005": 15.7043649097,
			"-0.004": 32.1925508949,
			"-0.003": 44.7027688943,
			"-0.002": 43.6079469012,
			"-0.001": 27.5251357565,
			"0.0": 26.4736096549,
			"0.001": 17.827922269,
			"0.002": 16.5781532157,
			"0.003": 8.46953358569,
			"0.004": 6.02094917637,
			"0.005": 8.13855557881,
			"0.006": 6.65184210825,
			"0.007": 6.89851146607,
			"0.008": 6.07316132694,
			"0.009": 5.36104446121,
			"0.01": 8.7160538047,
			"0.011": 11.3263988787,
			"0.012": 7.30246815032,
			"0.013": 5.7644675338,
			"0.014": 4.09338447342,
			"0.015": 0.608220209066,
			"0.016": 0.0,
			"0.017": 0.0,
			"0.018": 0.0,
			"0.019": 0.0,
			"0.02": 0.0,
			"0.021": 0.0,
			"0.022": 0.0,
			"0.023": 0.0,
			"0.024": 0.0,
			"0.025": 0.0
		}
	}
}
