{
	 "smiles": "OC(=O)C1=C2OCCOC2=C(Br)S1", 
	 "Tm": 423.15, 
	 "num_atms": 18, 
	 "gaussian": { 
		 "optdone": 1, 
		 "sigma_profile": "yes", 
		 "theory": "DFT", 
		 "functional": "B3LYP", 
		 "basiset": "6-31G**", 
		 "properties": { 
			 "R2extent": 4726.1883, 
			 "electric_dipole_moment_norm": 7.16118398311, 
			 "electric_quadrupole_moment_norm": 12.7482643266, 
			 "total_energy": -3540.20646075, 
			 "HOMO_LUMO_gap": 0.17476, 
			 "cosmo_polarized_energy": -15.94, 
			 "cosmo_cavitation_energy": 26.18, 
			 "cosmo_dispersion_energy": -20.83, 
			 "cosmo_repulsion_energy": 1.62, 
			 "cosmo_total_nonelectrostatic_energy": 6.97, 
			 "SMD_solvation_energy": 4.64 
		},
		"coords": [
			{
				"x": -1.2043689956,
				"y": -0.7501147644,
				"z": 2.6792875472,
				"element": "O" 
			},
			{
				"x": -2.097845851,
				"y": -0.7984645942,
				"z": 1.6626952007,
				"element": "C" 
			},
			{
				"x": -3.2794831945,
				"y": -0.9675639214,
				"z": 1.8708777492,
				"element": "O" 
			},
			{
				"x": -1.5452478392,
				"y": -0.6293205964,
				"z": 0.3068202992,
				"element": "C" 
			},
			{
				"x": -0.2471440736,
				"y": -0.4302929805,
				"z": -0.1029979427,
				"element": "C" 
			},
			{
				"x": 0.8198501416,
				"y": -0.377884066,
				"z": 0.752349855,
				"element": "O" 
			},
			{
				"x": 2.0017972158,
				"y": 0.1824406857,
				"z": 0.1429084348,
				"element": "C" 
			},
			{
				"x": 2.2080942868,
				"y": -0.4031266831,
				"z": -1.2469067981,
				"element": "C" 
			},
			{
				"x": 1.1104461441,
				"y": -0.0775200588,
				"z": -2.1107129665,
				"element": "O" 
			},
			{
				"x": -0.0952460126,
				"y": -0.2931337985,
				"z": -1.5149411578,
				"element": "C" 
			},
			{
				"x": -1.3012826332,
				"y": -0.3899580855,
				"z": -2.1611127052,
				"element": "C" 
			},
			{
				"x": -1.5624323529,
				"y": -0.2673723715,
				"z": -4.0139329909,
				"element": "Br" 
			},
			{
				"x": -2.627227239,
				"y": -0.6498460315,
				"z": -1.0654574639,
				"element": "S" 
			},
			{
				"x": -0.3047935241,
				"y": -0.5984858158,
				"z": 2.3416008665,
				"element": "H" 
			},
			{
				"x": 1.8967443791,
				"y": 1.2726067374,
				"z": 0.0895723921,
				"element": "H" 
			},
			{
				"x": 2.8322856969,
				"y": -0.0717305099,
				"z": 0.8041761915,
				"element": "H" 
			},
			{
				"x": 3.0996392776,
				"y": 0.021588963,
				"z": -1.7130265535,
				"element": "H" 
			},
			{
				"x": 2.3194145739,
				"y": -1.4934221084,
				"z": -1.1835999577,
				"element": "H" 
			}
		],
		 "valence_orbital": [ 
			{
				"type": "occ",
				"energy": -0.3061,
				"method": "rhf"
			},
			{
				"type": "occ",
				"energy": -0.30538,
				"method": "rhf"
			},
			{
				"type": "occ",
				"energy": -0.27355,
				"method": "rhf"
			},
			{
				"type": "occ",
				"energy": -0.2476,
				"method": "rhf"
			},
			{
				"type": "occ",
				"energy": -0.23526,
				"method": "rhf"
			},
			{
				"type": "unocc",
				"energy": -0.0605,
				"method": "rhf"
			},
			{
				"type": "unocc",
				"energy": -0.01349,
				"method": "rhf"
			},
			{
				"type": "unocc",
				"energy": 0.00912,
				"method": "rhf"
			},
			{
				"type": "unocc",
				"energy": 0.02966,
				"method": "rhf"
			},
			{
				"type": "unocc",
				"energy": 0.03853,
				"method": "rhf"
			}
		],
		"cosmo_sigma_profile": { 
			"-0.025": 0.0,
			"-0.024": 0.0,
			"-0.023": 0.0,
			"-0.022": 0.0,
			"-0.021": 0.0,
			"-0.02": 0.0,
			"-0.019": 0.0,
			"-0.018": 0.0,
			"-0.017": 0.0,
			"-0.016": 0.0,
			"-0.015": 0.0,
			"-0.014": 0.0,
			"-0.013": 0.0,
			"-0.012": 0.0,
			"-0.011": 0.47303513596,
			"-0.01": 0.935906227969,
			"-0.009": 2.51570761902,
			"-0.008": 10.9681444146,
			"-0.007": 16.1613213438,
			"-0.006": 12.3072380144,
			"-0.005": 10.637958792,
			"-0.004": 8.28009717022,
			"-0.003": 9.48318661007,
			"-0.002": 14.1002253393,
			"-0.001": 14.2771673234,
			"0.0": 19.4752830838,
			"0.001": 18.022011154,
			"0.002": 16.8907943892,
			"0.003": 16.3400329494,
			"0.004": 5.85999944721,
			"0.005": 4.60170853023,
			"0.006": 4.94098030589,
			"0.007": 4.05499985764,
			"0.008": 4.02237841215,
			"0.009": 4.30023091299,
			"0.01": 4.77919503638,
			"0.011": 5.3911802915,
			"0.012": 4.91366235718,
			"0.013": 1.72070954627,
			"0.014": 0.114081900454,
			"0.015": 0.0,
			"0.016": 0.0,
			"0.017": 0.0,
			"0.018": 0.0,
			"0.019": 0.0,
			"0.02": 0.0,
			"0.021": 0.0,
			"0.022": 0.0,
			"0.023": 0.0,
			"0.024": 0.0,
			"0.025": 0.0
		}
	}
}
