{
	 "smiles": "COC1=C(N)C=C(C=C1)S(=O)(=O)N1CCN(C)CC1", 
	 "Tm": 381.15, 
	 "num_atms": 38, 
	 "gaussian": { 
		 "optdone": 1, 
		 "sigma_profile": "yes", 
		 "theory": "DFT", 
		 "functional": "B3LYP", 
		 "basiset": "6-31G**", 
		 "properties": { 
			 "R2extent": 7344.6468, 
			 "electric_dipole_moment_norm": 6.48420328799, 
			 "electric_quadrupole_moment_norm": 25.5316139323, 
			 "total_energy": -1256.74143026, 
			 "HOMO_LUMO_gap": 0.1877, 
			 "cosmo_polarized_energy": -19.43, 
			 "cosmo_cavitation_energy": 40.38, 
			 "cosmo_dispersion_energy": -29.25, 
			 "cosmo_repulsion_energy": 2.22, 
			 "cosmo_total_nonelectrostatic_energy": 13.35, 
			 "SMD_solvation_energy": 2.99 
		},
		"coords": [
			{
				"x": 1.6807865055,
				"y": -5.7598756676,
				"z": 0.1354038711,
				"element": "C" 
			},
			{
				"x": 0.5405535479,
				"y": -4.9419542652,
				"z": -0.0821068036,
				"element": "O" 
			},
			{
				"x": 0.730577318,
				"y": -3.6029669421,
				"z": -0.2862731748,
				"element": "C" 
			},
			{
				"x": -0.4707883109,
				"y": -2.8753103479,
				"z": -0.5065519576,
				"element": "C" 
			},
			{
				"x": -1.6736082751,
				"y": -3.5659012734,
				"z": -0.5709597206,
				"element": "N" 
			},
			{
				"x": -0.3831266702,
				"y": -1.4983407603,
				"z": -0.706057959,
				"element": "C" 
			},
			{
				"x": 0.8655666727,
				"y": -0.8662212797,
				"z": -0.6928999168,
				"element": "C" 
			},
			{
				"x": 2.0424775926,
				"y": -1.5773431195,
				"z": -0.4923090787,
				"element": "C" 
			},
			{
				"x": 1.9650669798,
				"y": -2.9601952884,
				"z": -0.2840396792,
				"element": "C" 
			},
			{
				"x": 0.9388802849,
				"y": 0.8999628351,
				"z": -0.9657006272,
				"element": "S" 
			},
			{
				"x": -0.070771745,
				"y": 1.2708951619,
				"z": -1.9656551748,
				"element": "O" 
			},
			{
				"x": 2.3521586715,
				"y": 1.2549087943,
				"z": -1.1695175889,
				"element": "O" 
			},
			{
				"x": 0.3784357765,
				"y": 1.508549623,
				"z": 0.517953993,
				"element": "N" 
			},
			{
				"x": -0.4604210796,
				"y": 2.7311072994,
				"z": 0.4735595312,
				"element": "C" 
			},
			{
				"x": 0.2725075246,
				"y": 3.9104674461,
				"z": 1.1206643558,
				"element": "C" 
			},
			{
				"x": 0.6536901614,
				"y": 3.6530029452,
				"z": 2.522730157,
				"element": "N" 
			},
			{
				"x": -0.1989211439,
				"y": 4.3033195445,
				"z": 3.5041872537,
				"element": "C" 
			},
			{
				"x": 0.8148280737,
				"y": 2.2265372886,
				"z": 2.8146589105,
				"element": "C" 
			},
			{
				"x": 1.3779729541,
				"y": 1.4813762165,
				"z": 1.6090997551,
				"element": "C" 
			},
			{
				"x": 2.2277161458,
				"y": -5.4556105176,
				"z": 1.036710946,
				"element": "H" 
			},
			{
				"x": 1.3041378523,
				"y": -6.7751295523,
				"z": 0.2672888589,
				"element": "H" 
			},
			{
				"x": 2.3607040698,
				"y": -5.7344795515,
				"z": -0.7249058062,
				"element": "H" 
			},
			{
				"x": -1.6620626172,
				"y": -4.4749330728,
				"z": -0.1313990704,
				"element": "H" 
			},
			{
				"x": -2.5021456382,
				"y": -3.0249882687,
				"z": -0.3714109649,
				"element": "H" 
			},
			{
				"x": -1.2815352987,
				"y": -0.9188992742,
				"z": -0.8929518384,
				"element": "H" 
			},
			{
				"x": 2.9974307555,
				"y": -1.0664292769,
				"z": -0.5124217018,
				"element": "H" 
			},
			{
				"x": 2.876189612,
				"y": -3.5242286176,
				"z": -0.1239659196,
				"element": "H" 
			},
			{
				"x": -0.7176400202,
				"y": 2.9466016939,
				"z": -0.5646138305,
				"element": "H" 
			},
			{
				"x": -1.3975815359,
				"y": 2.5261276533,
				"z": 1.006727697,
				"element": "H" 
			},
			{
				"x": 1.170093556,
				"y": 4.1343713062,
				"z": 0.5290489155,
				"element": "H" 
			},
			{
				"x": -0.3641452745,
				"y": 4.8004019451,
				"z": 1.08022325,
				"element": "H" 
			},
			{
				"x": -0.2236892465,
				"y": 5.3823039093,
				"z": 3.3236430456,
				"element": "H" 
			},
			{
				"x": 0.2133814573,
				"y": 4.1449563226,
				"z": 4.5071249114,
				"element": "H" 
			},
			{
				"x": -1.2423573327,
				"y": 3.9300089219,
				"z": 3.513007606,
				"element": "H" 
			},
			{
				"x": 1.5019547975,
				"y": 2.107307946,
				"z": 3.6620564802,
				"element": "H" 
			},
			{
				"x": -0.1399854269,
				"y": 1.7487634606,
				"z": 3.109346347,
				"element": "H" 
			},
			{
				"x": 2.3246001887,
				"y": 1.9408783,
				"z": 1.2979187896,
				"element": "H" 
			},
			{
				"x": 1.5797691173,
				"y": 0.4388584621,
				"z": 1.8759861384,
				"element": "H" 
			}
		],
		 "valence_orbital": [ 
			{
				"type": "occ",
				"energy": -0.28594,
				"method": "rhf"
			},
			{
				"type": "occ",
				"energy": -0.25157,
				"method": "rhf"
			},
			{
				"type": "occ",
				"energy": -0.23283,
				"method": "rhf"
			},
			{
				"type": "occ",
				"energy": -0.20577,
				"method": "rhf"
			},
			{
				"type": "occ",
				"energy": -0.2045,
				"method": "rhf"
			},
			{
				"type": "unocc",
				"energy": -0.0168,
				"method": "rhf"
			},
			{
				"type": "unocc",
				"energy": 0.00239,
				"method": "rhf"
			},
			{
				"type": "unocc",
				"energy": 0.06879,
				"method": "rhf"
			},
			{
				"type": "unocc",
				"energy": 0.0761,
				"method": "rhf"
			},
			{
				"type": "unocc",
				"energy": 0.08073,
				"method": "rhf"
			}
		],
		"cosmo_sigma_profile": { 
			"-0.025": 0.0,
			"-0.024": 0.0,
			"-0.023": 0.0,
			"-0.022": 0.0,
			"-0.021": 0.0,
			"-0.02": 0.0,
			"-0.019": 0.0,
			"-0.018": 0.0,
			"-0.017": 0.0,
			"-0.016": 0.0,
			"-0.015": 0.0,
			"-0.014": 0.00987243791807,
			"-0.013": 0.940939590056,
			"-0.012": 1.81520033433,
			"-0.011": 1.62678953553,
			"-0.01": 2.92465318939,
			"-0.009": 3.00427084567,
			"-0.008": 2.76924460733,
			"-0.007": 4.80023104828,
			"-0.006": 10.8451701633,
			"-0.005": 19.1521207779,
			"-0.004": 33.6928922686,
			"-0.003": 38.0478236204,
			"-0.002": 33.4716046882,
			"-0.001": 25.0479419224,
			"0.0": 19.6989796133,
			"0.001": 13.4164314613,
			"0.002": 14.9294338732,
			"0.003": 16.6431986225,
			"0.004": 16.6946193384,
			"0.005": 8.72609880994,
			"0.006": 6.47983131073,
			"0.007": 6.30680586971,
			"0.008": 5.11345177185,
			"0.009": 4.49959599142,
			"0.01": 6.51241658957,
			"0.011": 8.96997970808,
			"0.012": 7.96168757861,
			"0.013": 1.32439849375,
			"0.014": 0.576386397268,
			"0.015": 0.458738884138,
			"0.016": 0.273058357762,
			"0.017": 0.0678718732139,
			"0.018": 0.0,
			"0.019": 0.0,
			"0.02": 0.0,
			"0.021": 0.0,
			"0.022": 0.0,
			"0.023": 0.0,
			"0.024": 0.0,
			"0.025": 0.0
		}
	}
}
