{
	 "smiles": "FC(F)(F)COC(=O)NC1=CC(=CC=C1)C#N", 
	 "Tm": 407.15, 
	 "num_atms": 24, 
	 "gaussian": { 
		 "optdone": 1, 
		 "sigma_profile": "yes", 
		 "theory": "DFT", 
		 "functional": "B3LYP", 
		 "basiset": "6-31G**", 
		 "properties": { 
			 "R2extent": 5582.937, 
			 "electric_dipole_moment_norm": 4.86760505177, 
			 "electric_quadrupole_moment_norm": 28.5378974791, 
			 "total_energy": -944.761115422, 
			 "HOMO_LUMO_gap": 0.19138, 
			 "cosmo_polarized_energy": -16.24, 
			 "cosmo_cavitation_energy": 32.23, 
			 "cosmo_dispersion_energy": -21.52, 
			 "cosmo_repulsion_energy": 1.61, 
			 "cosmo_total_nonelectrostatic_energy": 12.32, 
			 "SMD_solvation_energy": 9.18 
		},
		"coords": [
			{
				"x": -1.7949914089,
				"y": 0.7720706998,
				"z": 3.9457012364,
				"element": "F" 
			},
			{
				"x": -2.7027550251,
				"y": 0.7116696501,
				"z": 2.9544340376,
				"element": "C" 
			},
			{
				"x": -2.6422931281,
				"y": 1.8745962117,
				"z": 2.2739058463,
				"element": "F" 
			},
			{
				"x": -3.9285766155,
				"y": 0.6094215416,
				"z": 3.5030273554,
				"element": "F" 
			},
			{
				"x": -2.4494095392,
				"y": -0.4767186108,
				"z": 2.042381719,
				"element": "C" 
			},
			{
				"x": -1.1779055471,
				"y": -0.312257623,
				"z": 1.4211401574,
				"element": "O" 
			},
			{
				"x": -0.1615759451,
				"y": -1.073514634,
				"z": 1.914810953,
				"element": "C" 
			},
			{
				"x": -0.2960122649,
				"y": -1.9795380168,
				"z": 2.7103493947,
				"element": "O" 
			},
			{
				"x": 1.0527807797,
				"y": -0.7208802439,
				"z": 1.3787735543,
				"element": "N" 
			},
			{
				"x": 1.4431816434,
				"y": 0.2968715835,
				"z": 0.4822919362,
				"element": "C" 
			},
			{
				"x": 0.7007738379,
				"y": 1.4612259954,
				"z": 0.2506352899,
				"element": "C" 
			},
			{
				"x": 1.1948123913,
				"y": 2.4243103653,
				"z": -0.6427028764,
				"element": "C" 
			},
			{
				"x": 2.4256138945,
				"y": 2.2521150714,
				"z": -1.2943862458,
				"element": "C" 
			},
			{
				"x": 3.161204556,
				"y": 1.0973818502,
				"z": -1.0423756976,
				"element": "C" 
			},
			{
				"x": 2.6766645247,
				"y": 0.1278095423,
				"z": -0.1690532455,
				"element": "C" 
			},
			{
				"x": 0.4252561272,
				"y": 3.6122977196,
				"z": -0.8842154317,
				"element": "C" 
			},
			{
				"x": -0.192702356,
				"y": 4.5764355278,
				"z": -1.0870692452,
				"element": "N" 
			},
			{
				"x": -3.20494292,
				"y": -0.4894133863,
				"z": 1.2550366958,
				"element": "H" 
			},
			{
				"x": -2.4793514154,
				"y": -1.3991044276,
				"z": 2.6240873903,
				"element": "H" 
			},
			{
				"x": 1.7789148473,
				"y": -1.3585695536,
				"z": 1.6739334723,
				"element": "H" 
			},
			{
				"x": -0.2429029423,
				"y": 1.6283862671,
				"z": 0.7484618859,
				"element": "H" 
			},
			{
				"x": 2.7885100565,
				"y": 3.010840477,
				"z": -1.978225531,
				"element": "H" 
			},
			{
				"x": 4.1166812261,
				"y": 0.9447084672,
				"z": -1.5340131454,
				"element": "H" 
			},
			{
				"x": 3.2545252231,
				"y": -0.775344474,
				"z": 0.0094704941,
				"element": "H" 
			}
		],
		 "valence_orbital": [ 
			{
				"type": "occ",
				"energy": -0.33196,
				"method": "rhf"
			},
			{
				"type": "occ",
				"energy": -0.32289,
				"method": "rhf"
			},
			{
				"type": "occ",
				"energy": -0.30675,
				"method": "rhf"
			},
			{
				"type": "occ",
				"energy": -0.27524,
				"method": "rhf"
			},
			{
				"type": "occ",
				"energy": -0.24897,
				"method": "rhf"
			},
			{
				"type": "unocc",
				"energy": -0.05759,
				"method": "rhf"
			},
			{
				"type": "unocc",
				"energy": -0.0336,
				"method": "rhf"
			},
			{
				"type": "unocc",
				"energy": 0.03001,
				"method": "rhf"
			},
			{
				"type": "unocc",
				"energy": 0.0351,
				"method": "rhf"
			},
			{
				"type": "unocc",
				"energy": 0.05492,
				"method": "rhf"
			}
		],
		"cosmo_sigma_profile": { 
			"-0.025": 0.0,
			"-0.024": 0.0,
			"-0.023": 0.0,
			"-0.022": 0.0,
			"-0.021": 0.0,
			"-0.02": 0.0,
			"-0.019": 0.0,
			"-0.018": 0.0,
			"-0.017": 0.0,
			"-0.016": 0.723958899238,
			"-0.015": 1.52770548566,
			"-0.014": 1.29353294306,
			"-0.013": 0.749104669254,
			"-0.012": 1.35611962184,
			"-0.011": 1.32224058346,
			"-0.01": 2.4533775645,
			"-0.009": 4.95430091579,
			"-0.008": 7.24322638319,
			"-0.007": 10.5402659175,
			"-0.006": 11.3274333816,
			"-0.005": 10.7901050439,
			"-0.004": 10.7927862189,
			"-0.003": 12.717626098,
			"-0.002": 15.6913300135,
			"-0.001": 19.0352009968,
			"0.0": 19.4564507693,
			"0.001": 23.7976550767,
			"0.002": 39.7526377959,
			"0.003": 20.5364821209,
			"0.004": 3.77687551893,
			"0.005": 4.45913416103,
			"0.006": 3.71186051219,
			"0.007": 4.12131613683,
			"0.008": 4.59024619125,
			"0.009": 4.53505761164,
			"0.01": 5.13629181042,
			"0.011": 6.50927854381,
			"0.012": 5.72176476506,
			"0.013": 1.38048351779,
			"0.014": 0.0332889889015,
			"0.015": 0.0,
			"0.016": 0.0,
			"0.017": 0.0,
			"0.018": 0.0,
			"0.019": 0.0,
			"0.02": 0.0,
			"0.021": 0.0,
			"0.022": 0.0,
			"0.023": 0.0,
			"0.024": 0.0,
			"0.025": 0.0
		}
	}
}
