{
	 "smiles": "NC(CC(O)=O)C1CC1", 
	 "Tm": 483.15, 
	 "num_atms": 20, 
	 "gaussian": { 
		 "optdone": 1, 
		 "sigma_profile": "yes", 
		 "theory": "DFT", 
		 "functional": "B3LYP", 
		 "basiset": "6-31G**", 
		 "properties": { 
			 "R2extent": 1564.7293, 
			 "electric_dipole_moment_norm": 3.32543160958, 
			 "electric_quadrupole_moment_norm": 11.7544848483, 
			 "total_energy": -440.44310717, 
			 "HOMO_LUMO_gap": 0.24123, 
			 "cosmo_polarized_energy": -14.9, 
			 "cosmo_cavitation_energy": 22.58, 
			 "cosmo_dispersion_energy": -16.61, 
			 "cosmo_repulsion_energy": 1.38, 
			 "cosmo_total_nonelectrostatic_energy": 7.35, 
			 "SMD_solvation_energy": 3.74 
		},
		"coords": [
			{
				"x": -1.1315836209,
				"y": 0.773607654,
				"z": -0.1169736838,
				"element": "N" 
			},
			{
				"x": 0.2363582989,
				"y": 0.2680002821,
				"z": -0.2642283278,
				"element": "C" 
			},
			{
				"x": 0.3732754616,
				"y": -1.0378439494,
				"z": 0.5367065804,
				"element": "C" 
			},
			{
				"x": -0.4624916731,
				"y": -2.1925169524,
				"z": 0.0028805691,
				"element": "C" 
			},
			{
				"x": -0.2296316534,
				"y": -3.3983675734,
				"z": 0.5850832992,
				"element": "O" 
			},
			{
				"x": -1.2977823594,
				"y": -2.1032930404,
				"z": -0.8662748508,
				"element": "O" 
			},
			{
				"x": 1.2627620994,
				"y": 1.2763173163,
				"z": 0.2461123968,
				"element": "C" 
			},
			{
				"x": 1.0260844508,
				"y": 2.7666720192,
				"z": 0.233950619,
				"element": "C" 
			},
			{
				"x": 1.0576146268,
				"y": 2.0179116513,
				"z": 1.5448530584,
				"element": "C" 
			},
			{
				"x": -1.2681817662,
				"y": 1.5530559621,
				"z": -0.7557320136,
				"element": "H" 
			},
			{
				"x": -1.7658543396,
				"y": 0.0427052179,
				"z": -0.4325562476,
				"element": "H" 
			},
			{
				"x": 0.4893770115,
				"y": 0.0327862282,
				"z": -1.3135020546,
				"element": "H" 
			},
			{
				"x": 0.074105339,
				"y": -0.848693775,
				"z": 1.5764810762,
				"element": "H" 
			},
			{
				"x": 1.4259907013,
				"y": -1.3499285234,
				"z": 0.5596916553,
				"element": "H" 
			},
			{
				"x": 0.4604006683,
				"y": -3.3157366524,
				"z": 1.2587088991,
				"element": "H" 
			},
			{
				"x": 2.2868239429,
				"y": 0.9730672521,
				"z": 0.0315397842,
				"element": "H" 
			},
			{
				"x": 1.8630322627,
				"y": 3.4096112446,
				"z": -0.021716403,
				"element": "H" 
			},
			{
				"x": 0.0627312087,
				"y": 3.1447283698,
				"z": -0.093181494,
				"element": "H" 
			},
			{
				"x": 1.9080967897,
				"y": 2.1565364063,
				"z": 2.2058813028,
				"element": "H" 
			},
			{
				"x": 0.1029725511,
				"y": 1.8773808624,
				"z": 2.0415758347,
				"element": "H" 
			}
		],
		 "valence_orbital": [ 
			{
				"type": "occ",
				"energy": -0.32037,
				"method": "rhf"
			},
			{
				"type": "occ",
				"energy": -0.29127,
				"method": "rhf"
			},
			{
				"type": "occ",
				"energy": -0.28899,
				"method": "rhf"
			},
			{
				"type": "occ",
				"energy": -0.27317,
				"method": "rhf"
			},
			{
				"type": "occ",
				"energy": -0.23616,
				"method": "rhf"
			},
			{
				"type": "unocc",
				"energy": 0.00507,
				"method": "rhf"
			},
			{
				"type": "unocc",
				"energy": 0.0532,
				"method": "rhf"
			},
			{
				"type": "unocc",
				"energy": 0.08446,
				"method": "rhf"
			},
			{
				"type": "unocc",
				"energy": 0.09721,
				"method": "rhf"
			},
			{
				"type": "unocc",
				"energy": 0.11983,
				"method": "rhf"
			}
		],
		"cosmo_sigma_profile": { 
			"-0.025": 0.0,
			"-0.024": 0.0,
			"-0.023": 0.0,
			"-0.022": 0.0,
			"-0.021": 0.0,
			"-0.02": 0.0,
			"-0.019": 0.75170850839,
			"-0.018": 0.928501293492,
			"-0.017": 0.80978856894,
			"-0.016": 1.48879024751,
			"-0.015": 1.24683873934,
			"-0.014": 0.587378920439,
			"-0.013": 0.852834230842,
			"-0.012": 1.45260554829,
			"-0.011": 1.65834047743,
			"-0.01": 1.06721117419,
			"-0.009": 2.2847921004,
			"-0.008": 3.871089359,
			"-0.007": 4.83174143306,
			"-0.006": 5.93747475651,
			"-0.005": 8.11921718283,
			"-0.004": 11.570961199,
			"-0.003": 13.4001877302,
			"-0.002": 15.7539164723,
			"-0.001": 13.1732352228,
			"0.0": 11.6515068698,
			"0.001": 9.59413340785,
			"0.002": 9.90841066335,
			"0.003": 8.48153123099,
			"0.004": 6.17880432821,
			"0.005": 5.71757752551,
			"0.006": 4.53075988494,
			"0.007": 3.83454663494,
			"0.008": 3.17054965606,
			"0.009": 3.67115187305,
			"0.01": 5.28444113907,
			"0.011": 5.88712680894,
			"0.012": 3.60448397849,
			"0.013": 2.52944219391,
			"0.014": 0.566552862507,
			"0.015": 0.493778257957,
			"0.016": 0.354071403123,
			"0.017": 0.382657378735,
			"0.018": 0.131564503656,
			"0.019": 0.0,
			"0.02": 0.0,
			"0.021": 0.0,
			"0.022": 0.0,
			"0.023": 0.0,
			"0.024": 0.0,
			"0.025": 0.0
		}
	}
}
