{
	 "smiles": "OC(=O)CC1CCC=C1", 
	 "Tm": 292.15, 
	 "num_atms": 19, 
	 "gaussian": { 
		 "optdone": 1, 
		 "sigma_profile": "yes", 
		 "theory": "DFT", 
		 "functional": "B3LYP", 
		 "basiset": "6-31G**", 
		 "properties": { 
			 "R2extent": 1759.4447, 
			 "electric_dipole_moment_norm": 1.33007662185, 
			 "electric_quadrupole_moment_norm": 7.82369418178, 
			 "total_energy": -423.218447123, 
			 "HOMO_LUMO_gap": 0.25087, 
			 "cosmo_polarized_energy": -8.33, 
			 "cosmo_cavitation_energy": 22.0, 
			 "cosmo_dispersion_energy": -16.14, 
			 "cosmo_repulsion_energy": 1.36, 
			 "cosmo_total_nonelectrostatic_energy": 7.21, 
			 "SMD_solvation_energy": 4.57 
		},
		"coords": [
			{
				"x": -3.4862991533,
				"y": -0.2357993287,
				"z": 0.4580510288,
				"element": "O" 
			},
			{
				"x": -2.5832703352,
				"y": -0.6920004716,
				"z": -0.4459424026,
				"element": "C" 
			},
			{
				"x": -2.6448057916,
				"y": -1.8074173507,
				"z": -0.9159338402,
				"element": "O" 
			},
			{
				"x": -1.5460982489,
				"y": 0.3607752573,
				"z": -0.7738576425,
				"element": "C" 
			},
			{
				"x": -0.4181538724,
				"y": -0.1588357241,
				"z": -1.6824436781,
				"element": "C" 
			},
			{
				"x": 0.5625023394,
				"y": -1.1398731731,
				"z": -0.9722413229,
				"element": "C" 
			},
			{
				"x": 1.8465409522,
				"y": -0.322367091,
				"z": -0.664844318,
				"element": "C" 
			},
			{
				"x": 1.7099065348,
				"y": 0.8851487758,
				"z": -1.5628835333,
				"element": "C" 
			},
			{
				"x": 0.4981839649,
				"y": 0.9673700905,
				"z": -2.1170475832,
				"element": "C" 
			},
			{
				"x": -4.1165161365,
				"y": -0.9627189033,
				"z": 0.5974495422,
				"element": "H" 
			},
			{
				"x": -2.0762425644,
				"y": 1.1989590565,
				"z": -1.2458076041,
				"element": "H" 
			},
			{
				"x": -1.1478075019,
				"y": 0.7602890788,
				"z": 0.1666441231,
				"element": "H" 
			},
			{
				"x": -0.8941750645,
				"y": -0.6491392853,
				"z": -2.5397331063,
				"element": "H" 
			},
			{
				"x": 0.1228328354,
				"y": -1.5937917557,
				"z": -0.0800132437,
				"element": "H" 
			},
			{
				"x": 0.8034200239,
				"y": -1.9601365869,
				"z": -1.6543792845,
				"element": "H" 
			},
			{
				"x": 2.7595084766,
				"y": -0.8962386383,
				"z": -0.865414672,
				"element": "H" 
			},
			{
				"x": 1.9072523648,
				"y": -0.0172080084,
				"z": 0.3900527612,
				"element": "H" 
			},
			{
				"x": 2.5113447947,
				"y": 1.6041015521,
				"z": -1.7082783249,
				"element": "H" 
			},
			{
				"x": 0.165376382,
				"y": 1.7652825062,
				"z": -2.7758768989,
				"element": "H" 
			}
		],
		 "valence_orbital": [ 
			{
				"type": "occ",
				"energy": -0.3368,
				"method": "rhf"
			},
			{
				"type": "occ",
				"energy": -0.32551,
				"method": "rhf"
			},
			{
				"type": "occ",
				"energy": -0.31695,
				"method": "rhf"
			},
			{
				"type": "occ",
				"energy": -0.2751,
				"method": "rhf"
			},
			{
				"type": "occ",
				"energy": -0.23981,
				"method": "rhf"
			},
			{
				"type": "unocc",
				"energy": 0.01106,
				"method": "rhf"
			},
			{
				"type": "unocc",
				"energy": 0.02404,
				"method": "rhf"
			},
			{
				"type": "unocc",
				"energy": 0.08194,
				"method": "rhf"
			},
			{
				"type": "unocc",
				"energy": 0.09039,
				"method": "rhf"
			},
			{
				"type": "unocc",
				"energy": 0.12111,
				"method": "rhf"
			}
		],
		"cosmo_sigma_profile": { 
			"-0.025": 0.0,
			"-0.024": 0.0,
			"-0.023": 0.0,
			"-0.022": 0.0,
			"-0.021": 0.0,
			"-0.02": 0.0,
			"-0.019": 0.0,
			"-0.018": 0.518050010074,
			"-0.017": 0.777452042155,
			"-0.016": 0.978363783159,
			"-0.015": 0.611029142474,
			"-0.014": 0.567370429954,
			"-0.013": 0.987097007152,
			"-0.012": 0.836229215824,
			"-0.011": 0.685566845013,
			"-0.01": 0.756616157623,
			"-0.009": 0.333738645642,
			"-0.008": 0.447308595228,
			"-0.007": 0.942672511373,
			"-0.006": 4.05278476325,
			"-0.005": 8.54296851308,
			"-0.004": 11.3952397202,
			"-0.003": 17.149651363,
			"-0.002": 21.8623363918,
			"-0.001": 19.9425605521,
			"0.0": 16.6762088383,
			"0.001": 12.8360803263,
			"0.002": 7.31029535053,
			"0.003": 6.6647988488,
			"0.004": 5.87674590409,
			"0.005": 4.65703280595,
			"0.006": 4.971073475,
			"0.007": 3.71805851219,
			"0.008": 2.95550282968,
			"0.009": 3.49337965809,
			"0.01": 3.0730467412,
			"0.011": 3.03714834274,
			"0.012": 4.78281262446,
			"0.013": 0.554327897645,
			"0.014": 0.0,
			"0.015": 0.0,
			"0.016": 0.0,
			"0.017": 0.0,
			"0.018": 0.0,
			"0.019": 0.0,
			"0.02": 0.0,
			"0.021": 0.0,
			"0.022": 0.0,
			"0.023": 0.0,
			"0.024": 0.0,
			"0.025": 0.0
		}
	}
}
