{
	 "smiles": "NC1=NC2=C(CC(CC2)C2=CC=CC=C2)S1", 
	 "Tm": 455.15, 
	 "num_atms": 30, 
	 "gaussian": { 
		 "optdone": 1, 
		 "sigma_profile": "yes", 
		 "theory": "DFT", 
		 "functional": "B3LYP", 
		 "basiset": "6-31G**", 
		 "properties": { 
			 "R2extent": 4710.8815, 
			 "electric_dipole_moment_norm": 1.07469743184, 
			 "electric_quadrupole_moment_norm": 16.0262092814, 
			 "total_energy": -1011.52345413, 
			 "HOMO_LUMO_gap": 0.19674, 
			 "cosmo_polarized_energy": -11.31, 
			 "cosmo_cavitation_energy": 33.22, 
			 "cosmo_dispersion_energy": -24.62, 
			 "cosmo_repulsion_energy": 1.88, 
			 "cosmo_total_nonelectrostatic_energy": 10.48, 
			 "SMD_solvation_energy": 2.69 
		},
		"coords": [
			{
				"x": 4.044522803,
				"y": -3.2197288082,
				"z": 1.6209167535,
				"element": "N" 
			},
			{
				"x": 3.0450594864,
				"y": -2.509292638,
				"z": 0.9892580768,
				"element": "C" 
			},
			{
				"x": 1.8331307963,
				"y": -2.3966252234,
				"z": 1.4444071061,
				"element": "N" 
			},
			{
				"x": 1.0382753473,
				"y": -1.6978204011,
				"z": 0.5495205913,
				"element": "C" 
			},
			{
				"x": 1.6382815571,
				"y": -1.2536483064,
				"z": -0.5910397855,
				"element": "C" 
			},
			{
				"x": 0.9849670603,
				"y": -0.4709313679,
				"z": -1.6940162307,
				"element": "C" 
			},
			{
				"x": -0.4177016058,
				"y": 0.0428821134,
				"z": -1.2715491128,
				"element": "C" 
			},
			{
				"x": -1.1587927897,
				"y": -1.0392389129,
				"z": -0.4404753263,
				"element": "C" 
			},
			{
				"x": -0.4097210836,
				"y": -1.4249752008,
				"z": 0.8444663369,
				"element": "C" 
			},
			{
				"x": -0.4124666935,
				"y": 1.3933336981,
				"z": -0.5623267174,
				"element": "C" 
			},
			{
				"x": 0.6526498683,
				"y": 1.8433134928,
				"z": 0.2308630533,
				"element": "C" 
			},
			{
				"x": 0.5937106889,
				"y": 3.0816204735,
				"z": 0.8752424385,
				"element": "C" 
			},
			{
				"x": -0.5310667627,
				"y": 3.8953728847,
				"z": 0.7410422755,
				"element": "C" 
			},
			{
				"x": -1.5993739517,
				"y": 3.4614021143,
				"z": -0.0466016947,
				"element": "C" 
			},
			{
				"x": -1.5357906285,
				"y": 2.2256541241,
				"z": -0.6892644194,
				"element": "C" 
			},
			{
				"x": 3.326853618,
				"y": -1.760394222,
				"z": -0.5935837181,
				"element": "S" 
			},
			{
				"x": 3.8174154733,
				"y": -3.4296178508,
				"z": 2.5847240373,
				"element": "H" 
			},
			{
				"x": 4.9883405145,
				"y": -2.8829032466,
				"z": 1.4921479432,
				"element": "H" 
			},
			{
				"x": 1.6090302873,
				"y": 0.3774514299,
				"z": -2.0009698287,
				"element": "H" 
			},
			{
				"x": 0.8746641281,
				"y": -1.1046128554,
				"z": -2.5852825337,
				"element": "H" 
			},
			{
				"x": -0.9937624312,
				"y": 0.1817446895,
				"z": -2.1947812463,
				"element": "H" 
			},
			{
				"x": -2.1659454788,
				"y": -0.6848843596,
				"z": -0.1964444133,
				"element": "H" 
			},
			{
				"x": -1.2756768424,
				"y": -1.9322851321,
				"z": -1.0678674421,
				"element": "H" 
			},
			{
				"x": -0.8625056676,
				"y": -2.3124322648,
				"z": 1.3007032771,
				"element": "H" 
			},
			{
				"x": -0.4893897476,
				"y": -0.6210769999,
				"z": 1.5890641092,
				"element": "H" 
			},
			{
				"x": 1.5348041865,
				"y": 1.2225982463,
				"z": 0.3510690894,
				"element": "H" 
			},
			{
				"x": 1.432597891,
				"y": 3.4088488648,
				"z": 1.4835280766,
				"element": "H" 
			},
			{
				"x": -0.5742181652,
				"y": 4.8588635961,
				"z": 1.2408562856,
				"element": "H" 
			},
			{
				"x": -2.4790599363,
				"y": 4.0878883257,
				"z": -0.1666651076,
				"element": "H" 
			},
			{
				"x": -2.3697319217,
				"y": 1.9006937368,
				"z": -1.3080418734,
				"element": "H" 
			}
		],
		 "valence_orbital": [ 
			{
				"type": "occ",
				"energy": -0.26413,
				"method": "rhf"
			},
			{
				"type": "occ",
				"energy": -0.26225,
				"method": "rhf"
			},
			{
				"type": "occ",
				"energy": -0.24419,
				"method": "rhf"
			},
			{
				"type": "occ",
				"energy": -0.23658,
				"method": "rhf"
			},
			{
				"type": "occ",
				"energy": -0.19722,
				"method": "rhf"
			},
			{
				"type": "unocc",
				"energy": -0.00048,
				"method": "rhf"
			},
			{
				"type": "unocc",
				"energy": 0.00401,
				"method": "rhf"
			},
			{
				"type": "unocc",
				"energy": 0.0073,
				"method": "rhf"
			},
			{
				"type": "unocc",
				"energy": 0.01536,
				"method": "rhf"
			},
			{
				"type": "unocc",
				"energy": 0.06937,
				"method": "rhf"
			}
		],
		"cosmo_sigma_profile": { 
			"-0.025": 0.0,
			"-0.024": 0.0,
			"-0.023": 0.0,
			"-0.022": 0.0,
			"-0.021": 0.0,
			"-0.02": 0.0,
			"-0.019": 0.0,
			"-0.018": 0.0,
			"-0.017": 0.0,
			"-0.016": 0.0,
			"-0.015": 0.0949243353496,
			"-0.014": 1.25363198466,
			"-0.013": 2.56319377984,
			"-0.012": 2.50982842804,
			"-0.011": 2.92848663768,
			"-0.01": 2.24828785134,
			"-0.009": 2.2490279977,
			"-0.008": 1.36635231295,
			"-0.007": 1.84086217754,
			"-0.006": 3.04508442032,
			"-0.005": 9.73624597315,
			"-0.004": 17.8445423443,
			"-0.003": 30.4108395538,
			"-0.002": 28.8041302812,
			"-0.001": 26.6743161115,
			"0.0": 20.0172208766,
			"0.001": 16.2516977263,
			"0.002": 17.1146991479,
			"0.003": 16.1924562823,
			"0.004": 16.2240171408,
			"0.005": 15.2375896554,
			"0.006": 11.4545056258,
			"0.007": 5.92389149069,
			"0.008": 2.14857393979,
			"0.009": 1.59254704591,
			"0.01": 2.01701485499,
			"0.011": 2.00902915814,
			"0.012": 1.6151204021,
			"0.013": 0.551521152352,
			"0.014": 1.23886133781,
			"0.015": 0.996402962006,
			"0.016": 0.463348212869,
			"0.017": 0.0,
			"0.018": 0.0,
			"0.019": 0.0,
			"0.02": 0.0,
			"0.021": 0.0,
			"0.022": 0.0,
			"0.023": 0.0,
			"0.024": 0.0,
			"0.025": 0.0
		}
	}
}
