{
	 "smiles": "NC1=CC(Cl)=C(Cl)C=C1Cl", 
	 "Tm": 368.35, 
	 "num_atms": 14, 
	 "gaussian": { 
		 "optdone": 1, 
		 "sigma_profile": "yes", 
		 "theory": "DFT", 
		 "functional": "B3LYP", 
		 "basiset": "6-31G**", 
		 "properties": { 
			 "R2extent": 3085.8011, 
			 "electric_dipole_moment_norm": 3.39160416028, 
			 "electric_quadrupole_moment_norm": 10.1386505355, 
			 "total_energy": -1666.37795046, 
			 "HOMO_LUMO_gap": 0.19138, 
			 "cosmo_polarized_energy": -8.13, 
			 "cosmo_cavitation_energy": 23.49, 
			 "cosmo_dispersion_energy": -18.07, 
			 "cosmo_repulsion_energy": 1.47, 
			 "cosmo_total_nonelectrostatic_energy": 6.9, 
			 "SMD_solvation_energy": 3.17 
		},
		"coords": [
			{
				"x": -1.715440359,
				"y": -1.1273869332,
				"z": 0.7450277977,
				"element": "N" 
			},
			{
				"x": -0.8066019742,
				"y": -0.5983855132,
				"z": -0.1502974584,
				"element": "C" 
			},
			{
				"x": -0.1703929528,
				"y": -1.4134394145,
				"z": -1.1023028591,
				"element": "C" 
			},
			{
				"x": 0.7887709644,
				"y": -0.9057469464,
				"z": -1.9737112198,
				"element": "C" 
			},
			{
				"x": 1.5229318337,
				"y": -1.9971859027,
				"z": -3.1233404805,
				"element": "Cl" 
			},
			{
				"x": 1.146810845,
				"y": 0.447783193,
				"z": -1.9232780431,
				"element": "C" 
			},
			{
				"x": 2.3431688166,
				"y": 1.1339744037,
				"z": -2.9945328813,
				"element": "Cl" 
			},
			{
				"x": 0.5247271746,
				"y": 1.2743474305,
				"z": -0.9872063657,
				"element": "C" 
			},
			{
				"x": -0.4314769261,
				"y": 0.7598976808,
				"z": -0.1215088443,
				"element": "C" 
			},
			{
				"x": -1.2009121076,
				"y": 1.8389847466,
				"z": 1.0365187129,
				"element": "Cl" 
			},
			{
				"x": -2.3317533992,
				"y": -0.4687336318,
				"z": 1.1990994586,
				"element": "H" 
			},
			{
				"x": -2.1623307021,
				"y": -1.9902081172,
				"z": 0.4730585447,
				"element": "H" 
			},
			{
				"x": -0.4250680687,
				"y": -2.4665580988,
				"z": -1.1571928681,
				"element": "H" 
			},
			{
				"x": 0.7871668552,
				"y": 2.3241571033,
				"z": -0.9384334937,
				"element": "H" 
			}
		],
		 "valence_orbital": [ 
			{
				"type": "occ",
				"energy": -0.32724,
				"method": "rhf"
			},
			{
				"type": "occ",
				"energy": -0.3106,
				"method": "rhf"
			},
			{
				"type": "occ",
				"energy": -0.30069,
				"method": "rhf"
			},
			{
				"type": "occ",
				"energy": -0.25744,
				"method": "rhf"
			},
			{
				"type": "occ",
				"energy": -0.22103,
				"method": "rhf"
			},
			{
				"type": "unocc",
				"energy": -0.02965,
				"method": "rhf"
			},
			{
				"type": "unocc",
				"energy": -0.01282,
				"method": "rhf"
			},
			{
				"type": "unocc",
				"energy": -0.00733,
				"method": "rhf"
			},
			{
				"type": "unocc",
				"energy": 0.02875,
				"method": "rhf"
			},
			{
				"type": "unocc",
				"energy": 0.06294,
				"method": "rhf"
			}
		],
		"cosmo_sigma_profile": { 
			"-0.025": 0.0,
			"-0.024": 0.0,
			"-0.023": 0.0,
			"-0.022": 0.0,
			"-0.021": 0.0,
			"-0.02": 0.0,
			"-0.019": 0.0,
			"-0.018": 0.0,
			"-0.017": 0.0,
			"-0.016": 0.0,
			"-0.015": 0.0,
			"-0.014": 0.984001900345,
			"-0.013": 2.00583741995,
			"-0.012": 2.03266115226,
			"-0.011": 3.20414591918,
			"-0.01": 2.81464394261,
			"-0.009": 3.47064689613,
			"-0.008": 3.85097721224,
			"-0.007": 4.12570708035,
			"-0.006": 4.52903034797,
			"-0.005": 3.77374058926,
			"-0.004": 4.89979480674,
			"-0.003": 6.88417594057,
			"-0.002": 10.1866296543,
			"-0.001": 11.2288006382,
			"0.0": 14.6764692525,
			"0.001": 29.355459644,
			"0.002": 27.8875618749,
			"0.003": 20.7071963092,
			"0.004": 23.4960155987,
			"0.005": 9.86569314131,
			"0.006": 1.73956152457,
			"0.007": 0.658808408484,
			"0.008": 0.520869220141,
			"0.009": 0.625979890799,
			"0.01": 0.822423328512,
			"0.011": 0.484891129631,
			"0.012": 0.311595980167,
			"0.013": 0.0,
			"0.014": 0.0,
			"0.015": 0.0,
			"0.016": 0.0,
			"0.017": 0.0,
			"0.018": 0.0,
			"0.019": 0.0,
			"0.02": 0.0,
			"0.021": 0.0,
			"0.022": 0.0,
			"0.023": 0.0,
			"0.024": 0.0,
			"0.025": 0.0
		}
	}
}
