{
	 "smiles": "NC1=CC=C(CN2C(=O)CCC2=O)C=C1", 
	 "Tm": 415.15, 
	 "num_atms": 27, 
	 "gaussian": { 
		 "optdone": 1, 
		 "sigma_profile": "yes", 
		 "theory": "DFT", 
		 "functional": "B3LYP", 
		 "basiset": "6-31G**", 
		 "properties": { 
			 "R2extent": 3807.8502, 
			 "electric_dipole_moment_norm": 1.28850231665, 
			 "electric_quadrupole_moment_norm": 23.6517809993, 
			 "total_energy": -686.39678451, 
			 "HOMO_LUMO_gap": 0.18508, 
			 "cosmo_polarized_energy": -16.86, 
			 "cosmo_cavitation_energy": 30.94, 
			 "cosmo_dispersion_energy": -22.15, 
			 "cosmo_repulsion_energy": 1.75, 
			 "cosmo_total_nonelectrostatic_energy": 10.54, 
			 "SMD_solvation_energy": 6.03 
		},
		"coords": [
			{
				"x": 3.9937906622,
				"y": -0.476632723,
				"z": 1.6724180293,
				"element": "N" 
			},
			{
				"x": 2.7380108451,
				"y": -0.6605407469,
				"z": 1.0912650205,
				"element": "C" 
			},
			{
				"x": 2.3936530505,
				"y": -0.0000693809,
				"z": -0.1012275913,
				"element": "C" 
			},
			{
				"x": 1.1228921824,
				"y": -0.1450720886,
				"z": -0.6491820735,
				"element": "C" 
			},
			{
				"x": 0.1569131845,
				"y": -0.9509277016,
				"z": -0.0326370575,
				"element": "C" 
			},
			{
				"x": -1.2268183886,
				"y": -1.095617618,
				"z": -0.6262839139,
				"element": "C" 
			},
			{
				"x": -2.1761145606,
				"y": -0.0838640998,
				"z": -0.1401460788,
				"element": "N" 
			},
			{
				"x": -2.9575940081,
				"y": -0.2620248701,
				"z": 0.998970661,
				"element": "C" 
			},
			{
				"x": -2.9618786613,
				"y": -1.2645222108,
				"z": 1.6846431893,
				"element": "O" 
			},
			{
				"x": -3.7853952286,
				"y": 1.0051149412,
				"z": 1.2015227024,
				"element": "C" 
			},
			{
				"x": -3.386231135,
				"y": 1.9352925836,
				"z": 0.0451070643,
				"element": "C" 
			},
			{
				"x": -2.3508424842,
				"y": 1.1518188083,
				"z": -0.7586453719,
				"element": "C" 
			},
			{
				"x": -1.771173563,
				"y": 1.5098434741,
				"z": -1.7641318921,
				"element": "O" 
			},
			{
				"x": 0.4997662418,
				"y": -1.6034546732,
				"z": 1.1586907458,
				"element": "C" 
			},
			{
				"x": 1.7678046237,
				"y": -1.4648821143,
				"z": 1.7145933038,
				"element": "C" 
			},
			{
				"x": 4.7269886225,
				"y": -0.2008367895,
				"z": 1.0337523981,
				"element": "H" 
			},
			{
				"x": 4.2930906057,
				"y": -1.2163437407,
				"z": 2.292726174,
				"element": "H" 
			},
			{
				"x": 3.1288237579,
				"y": 0.630517486,
				"z": -0.5956554776,
				"element": "H" 
			},
			{
				"x": 0.8706111044,
				"y": 0.3805894462,
				"z": -1.5661089381,
				"element": "H" 
			},
			{
				"x": -1.659064225,
				"y": -2.0662512519,
				"z": -0.3727446392,
				"element": "H" 
			},
			{
				"x": -1.1968705796,
				"y": -0.9886142247,
				"z": -1.7129874084,
				"element": "H" 
			},
			{
				"x": -4.8455765152,
				"y": 0.7364704795,
				"z": 1.2015451701,
				"element": "H" 
			},
			{
				"x": -3.5596641418,
				"y": 1.4152617651,
				"z": 2.1899626273,
				"element": "H" 
			},
			{
				"x": -4.218879578,
				"y": 2.1967664837,
				"z": -0.6140500411,
				"element": "H" 
			},
			{
				"x": -2.9336026882,
				"y": 2.8743327594,
				"z": 0.3760345143,
				"element": "H" 
			},
			{
				"x": -0.2410018741,
				"y": -2.2211395958,
				"z": 1.6591508552,
				"element": "H" 
			},
			{
				"x": 2.0134627506,
				"y": -1.9799143973,
				"z": 2.6403180278,
				"element": "H" 
			}
		],
		 "valence_orbital": [ 
			{
				"type": "occ",
				"energy": -0.28076,
				"method": "rhf"
			},
			{
				"type": "occ",
				"energy": -0.27096,
				"method": "rhf"
			},
			{
				"type": "occ",
				"energy": -0.25471,
				"method": "rhf"
			},
			{
				"type": "occ",
				"energy": -0.24402,
				"method": "rhf"
			},
			{
				"type": "occ",
				"energy": -0.20023,
				"method": "rhf"
			},
			{
				"type": "unocc",
				"energy": -0.01515,
				"method": "rhf"
			},
			{
				"type": "unocc",
				"energy": 0.00447,
				"method": "rhf"
			},
			{
				"type": "unocc",
				"energy": 0.01133,
				"method": "rhf"
			},
			{
				"type": "unocc",
				"energy": 0.03148,
				"method": "rhf"
			},
			{
				"type": "unocc",
				"energy": 0.08139,
				"method": "rhf"
			}
		],
		"cosmo_sigma_profile": { 
			"-0.025": 0.0,
			"-0.024": 0.0,
			"-0.023": 0.0,
			"-0.022": 0.0,
			"-0.021": 0.0,
			"-0.02": 0.0,
			"-0.019": 0.0,
			"-0.018": 0.0,
			"-0.017": 0.0,
			"-0.016": 0.0,
			"-0.015": 0.0,
			"-0.014": 0.0,
			"-0.013": 0.268839838002,
			"-0.012": 2.41537201007,
			"-0.011": 3.02916627995,
			"-0.01": 2.28730624545,
			"-0.009": 3.513453435,
			"-0.008": 2.72179273888,
			"-0.007": 14.4971485609,
			"-0.006": 20.6935567276,
			"-0.005": 15.6420944464,
			"-0.004": 18.6139356942,
			"-0.003": 21.6186326808,
			"-0.002": 16.1243934488,
			"-0.001": 11.1305739296,
			"0.0": 9.25434192688,
			"0.001": 7.89235076007,
			"0.002": 9.26684826348,
			"0.003": 11.9223400053,
			"0.004": 11.3927279756,
			"0.005": 11.3383080051,
			"0.006": 13.6360905627,
			"0.007": 7.7350159362,
			"0.008": 3.13745227683,
			"0.009": 3.69825819592,
			"0.01": 4.66575413514,
			"0.011": 5.89029772932,
			"0.012": 8.0927495008,
			"0.013": 3.55899459616,
			"0.014": 0.813337126935,
			"0.015": 0.15127368403,
			"0.016": 0.0,
			"0.017": 0.0,
			"0.018": 0.0,
			"0.019": 0.0,
			"0.02": 0.0,
			"0.021": 0.0,
			"0.022": 0.0,
			"0.023": 0.0,
			"0.024": 0.0,
			"0.025": 0.0
		}
	}
}
