{
	 "smiles": "CC(Cl)C(=O)NC1=C(Cl)C(Cl)=CC=C1", 
	 "Tm": 370.15, 
	 "num_atms": 22, 
	 "gaussian": { 
		 "optdone": 1, 
		 "sigma_profile": "yes", 
		 "theory": "DFT", 
		 "functional": "B3LYP", 
		 "basiset": "6-31G**", 
		 "properties": { 
			 "R2extent": 5011.8726, 
			 "electric_dipole_moment_norm": 1.53637950064, 
			 "electric_quadrupole_moment_norm": 9.80552037936, 
			 "total_energy": -1858.35483598, 
			 "HOMO_LUMO_gap": 0.20248, 
			 "cosmo_polarized_energy": -7.67, 
			 "cosmo_cavitation_energy": 31.09, 
			 "cosmo_dispersion_energy": -22.87, 
			 "cosmo_repulsion_energy": 1.79, 
			 "cosmo_total_nonelectrostatic_energy": 10.01, 
			 "SMD_solvation_energy": 4.86 
		},
		"coords": [
			{
				"x": -2.4223155012,
				"y": -3.0859065512,
				"z": 0.2324517754,
				"element": "C" 
			},
			{
				"x": -1.1057452971,
				"y": -2.8970188805,
				"z": -0.5174445334,
				"element": "C" 
			},
			{
				"x": 0.2703171914,
				"y": -3.6450226852,
				"z": 0.4350241172,
				"element": "Cl" 
			},
			{
				"x": -0.8976897362,
				"y": -1.4167760129,
				"z": -0.8911718377,
				"element": "C" 
			},
			{
				"x": -1.7167938269,
				"y": -0.9243076976,
				"z": -1.6557909065,
				"element": "O" 
			},
			{
				"x": 0.1629777907,
				"y": -0.7682305533,
				"z": -0.325887244,
				"element": "N" 
			},
			{
				"x": 0.5443878271,
				"y": 0.573881466,
				"z": -0.4932832643,
				"element": "C" 
			},
			{
				"x": 1.6914343444,
				"y": 1.0342347317,
				"z": 0.1929654593,
				"element": "C" 
			},
			{
				"x": 2.5859012771,
				"y": -0.0730591023,
				"z": 1.214603832,
				"element": "Cl" 
			},
			{
				"x": 2.1059881755,
				"y": 2.3637859932,
				"z": 0.0559380165,
				"element": "C" 
			},
			{
				"x": 3.5204632547,
				"y": 2.9548791056,
				"z": 0.895145824,
				"element": "Cl" 
			},
			{
				"x": 1.394715831,
				"y": 3.246462323,
				"z": -0.7567431651,
				"element": "C" 
			},
			{
				"x": 0.2661789119,
				"y": 2.7885925326,
				"z": -1.4303022348,
				"element": "C" 
			},
			{
				"x": -0.1638203498,
				"y": 1.4706563657,
				"z": -1.3079508281,
				"element": "C" 
			},
			{
				"x": -3.2256516007,
				"y": -2.6495020971,
				"z": -0.3664756194,
				"element": "H" 
			},
			{
				"x": -2.6250034764,
				"y": -4.1473468068,
				"z": 0.388486309,
				"element": "H" 
			},
			{
				"x": -2.3933655679,
				"y": -2.5864127731,
				"z": 1.2045962585,
				"element": "H" 
			},
			{
				"x": -1.1208105106,
				"y": -3.4469791391,
				"z": -1.459860904,
				"element": "H" 
			},
			{
				"x": 0.758124016,
				"y": -1.3259694945,
				"z": 0.2759354744,
				"element": "H" 
			},
			{
				"x": 1.7318987368,
				"y": 4.2720458679,
				"z": -0.8501600843,
				"element": "H" 
			},
			{
				"x": -0.2913174036,
				"y": 3.470794335,
				"z": -2.064251118,
				"element": "H" 
			},
			{
				"x": -1.0391740862,
				"y": 1.113399073,
				"z": -1.8301253266,
				"element": "H" 
			}
		],
		 "valence_orbital": [ 
			{
				"type": "occ",
				"energy": -0.31637,
				"method": "rhf"
			},
			{
				"type": "occ",
				"energy": -0.31168,
				"method": "rhf"
			},
			{
				"type": "occ",
				"energy": -0.27358,
				"method": "rhf"
			},
			{
				"type": "occ",
				"energy": -0.25599,
				"method": "rhf"
			},
			{
				"type": "occ",
				"energy": -0.24171,
				"method": "rhf"
			},
			{
				"type": "unocc",
				"energy": -0.03923,
				"method": "rhf"
			},
			{
				"type": "unocc",
				"energy": -0.02646,
				"method": "rhf"
			},
			{
				"type": "unocc",
				"energy": -0.00749,
				"method": "rhf"
			},
			{
				"type": "unocc",
				"energy": 0.00397,
				"method": "rhf"
			},
			{
				"type": "unocc",
				"energy": 0.0233,
				"method": "rhf"
			}
		],
		"cosmo_sigma_profile": { 
			"-0.025": 0.0,
			"-0.024": 0.0,
			"-0.023": 0.0,
			"-0.022": 0.0,
			"-0.021": 0.0,
			"-0.02": 0.0,
			"-0.019": 0.0,
			"-0.018": 0.0,
			"-0.017": 0.0,
			"-0.016": 0.0,
			"-0.015": 0.0,
			"-0.014": 0.0,
			"-0.013": 0.0,
			"-0.012": 0.0,
			"-0.011": 0.0,
			"-0.01": 0.0,
			"-0.009": 1.38523838188,
			"-0.008": 3.42714215813,
			"-0.007": 6.85224500704,
			"-0.006": 10.4748524035,
			"-0.005": 15.3648358416,
			"-0.004": 15.252301435,
			"-0.003": 16.8883496468,
			"-0.002": 18.6206121744,
			"-0.001": 25.3774608823,
			"0.0": 24.7135772793,
			"0.001": 25.251977245,
			"0.002": 23.6939870699,
			"0.003": 24.8028333163,
			"0.004": 19.166341369,
			"0.005": 10.4541105945,
			"0.006": 2.61845875268,
			"0.007": 1.43652345047,
			"0.008": 1.91375451176,
			"0.009": 1.21853340863,
			"0.01": 2.07400488483,
			"0.011": 2.39427717101,
			"0.012": 1.90911756356,
			"0.013": 0.221758817252,
			"0.014": 0.0,
			"0.015": 0.0,
			"0.016": 0.0,
			"0.017": 0.0,
			"0.018": 0.0,
			"0.019": 0.0,
			"0.02": 0.0,
			"0.021": 0.0,
			"0.022": 0.0,
			"0.023": 0.0,
			"0.024": 0.0,
			"0.025": 0.0
		}
	}
}
