{
	 "smiles": "NC1=NC=C(N=C1)C#N", 
	 "Tm": 460.15, 
	 "num_atms": 13, 
	 "gaussian": { 
		 "optdone": 1, 
		 "sigma_profile": "yes", 
		 "theory": "DFT", 
		 "functional": "B3LYP", 
		 "basiset": "6-31G**", 
		 "properties": { 
			 "R2extent": 1268.3668, 
			 "electric_dipole_moment_norm": 6.96882795167, 
			 "electric_quadrupole_moment_norm": 9.62828824298, 
			 "total_energy": -411.922118352, 
			 "HOMO_LUMO_gap": 0.17931, 
			 "cosmo_polarized_energy": -16.29, 
			 "cosmo_cavitation_energy": 19.09, 
			 "cosmo_dispersion_energy": -13.84, 
			 "cosmo_repulsion_energy": 1.15, 
			 "cosmo_total_nonelectrostatic_energy": 6.4, 
			 "SMD_solvation_energy": 2.09 
		},
		"coords": [
			{
				"x": -0.8969937421,
				"y": 0.8076289061,
				"z": 3.052504982,
				"element": "N" 
			},
			{
				"x": -0.6313650458,
				"y": 0.6389157319,
				"z": 1.7278636224,
				"element": "C" 
			},
			{
				"x": 0.3062440641,
				"y": -0.2634820985,
				"z": 1.3961576084,
				"element": "N" 
			},
			{
				"x": 0.5804044189,
				"y": -0.3936276343,
				"z": 0.098891926,
				"element": "C" 
			},
			{
				"x": -0.0722150994,
				"y": 0.3610696838,
				"z": -0.8838892638,
				"element": "C" 
			},
			{
				"x": -1.0204451869,
				"y": 1.2662062438,
				"z": -0.5532649082,
				"element": "N" 
			},
			{
				"x": -1.2944323883,
				"y": 1.4041795076,
				"z": 0.7290333999,
				"element": "C" 
			},
			{
				"x": 0.2493518939,
				"y": 0.1879990546,
				"z": -2.2722061227,
				"element": "C" 
			},
			{
				"x": 0.5369717381,
				"y": 0.0191784172,
				"z": -3.3864680887,
				"element": "N" 
			},
			{
				"x": -0.4962535257,
				"y": 0.138009584,
				"z": 3.6915760418,
				"element": "H" 
			},
			{
				"x": -1.7181258637,
				"y": 1.3096594128,
				"z": 3.3478113979,
				"element": "H" 
			},
			{
				"x": 1.3394967243,
				"y": -1.1223163582,
				"z": -0.1760830402,
				"element": "H" 
			},
			{
				"x": -2.0553379875,
				"y": 2.1337795491,
				"z": 1.0026724452,
				"element": "H" 
			}
		],
		 "valence_orbital": [ 
			{
				"type": "occ",
				"energy": -0.33802,
				"method": "rhf"
			},
			{
				"type": "occ",
				"energy": -0.32863,
				"method": "rhf"
			},
			{
				"type": "occ",
				"energy": -0.32232,
				"method": "rhf"
			},
			{
				"type": "occ",
				"energy": -0.27194,
				"method": "rhf"
			},
			{
				"type": "occ",
				"energy": -0.24357,
				"method": "rhf"
			},
			{
				"type": "unocc",
				"energy": -0.06426,
				"method": "rhf"
			},
			{
				"type": "unocc",
				"energy": -0.04624,
				"method": "rhf"
			},
			{
				"type": "unocc",
				"energy": 0.03329,
				"method": "rhf"
			},
			{
				"type": "unocc",
				"energy": 0.05566,
				"method": "rhf"
			},
			{
				"type": "unocc",
				"energy": 0.07365,
				"method": "rhf"
			}
		],
		"cosmo_sigma_profile": { 
			"-0.025": 0.0,
			"-0.024": 0.0,
			"-0.023": 0.0,
			"-0.022": 0.0,
			"-0.021": 0.0,
			"-0.02": 0.0,
			"-0.019": 0.0,
			"-0.018": 0.0,
			"-0.017": 0.0,
			"-0.016": 0.255156030426,
			"-0.015": 1.87928007628,
			"-0.014": 3.14693174992,
			"-0.013": 2.39236055082,
			"-0.012": 2.23858590035,
			"-0.011": 3.2128174677,
			"-0.01": 2.28459184591,
			"-0.009": 4.72131828855,
			"-0.008": 5.23926456584,
			"-0.007": 4.44005181594,
			"-0.006": 5.11927899354,
			"-0.005": 4.40245155845,
			"-0.004": 4.96999375177,
			"-0.003": 9.07542206536,
			"-0.002": 12.0951857344,
			"-0.001": 10.4831812482,
			"0.0": 8.26269206551,
			"0.001": 7.10649754466,
			"0.002": 7.31321837761,
			"0.003": 6.14270879612,
			"0.004": 5.77043198489,
			"0.005": 5.97396282763,
			"0.006": 6.35115343107,
			"0.007": 5.05949168577,
			"0.008": 5.66562409338,
			"0.009": 5.75027444021,
			"0.01": 4.18737559981,
			"0.011": 3.89152986378,
			"0.012": 4.48442365999,
			"0.013": 2.53580830977,
			"0.014": 0.262595142256,
			"0.015": 0.0,
			"0.016": 0.0,
			"0.017": 0.0,
			"0.018": 0.0,
			"0.019": 0.0,
			"0.02": 0.0,
			"0.021": 0.0,
			"0.022": 0.0,
			"0.023": 0.0,
			"0.024": 0.0,
			"0.025": 0.0
		}
	}
}
