{
	 "smiles": "NCC(=O)NC1=C(C=CC=C1)[N+]([O-])=O", 
	 "Tm": 355.15, 
	 "num_atms": 23, 
	 "gaussian": { 
		 "optdone": 1, 
		 "sigma_profile": "yes", 
		 "theory": "DFT", 
		 "functional": "B3LYP", 
		 "basiset": "6-31G**", 
		 "properties": { 
			 "R2extent": 3783.6115, 
			 "electric_dipole_moment_norm": 6.91538790524, 
			 "electric_quadrupole_moment_norm": 16.253194343, 
			 "total_energy": -700.097554249, 
			 "HOMO_LUMO_gap": 0.14549, 
			 "cosmo_polarized_energy": -17.55, 
			 "cosmo_cavitation_energy": 27.27, 
			 "cosmo_dispersion_energy": -19.98, 
			 "cosmo_repulsion_energy": 1.58, 
			 "cosmo_total_nonelectrostatic_energy": 8.88, 
			 "SMD_solvation_energy": 6.17 
		},
		"coords": [
			{
				"x": -2.2891515506,
				"y": -1.7314488663,
				"z": -2.7817986088,
				"element": "N" 
			},
			{
				"x": -1.622250787,
				"y": -0.5568905852,
				"z": -3.3420177621,
				"element": "C" 
			},
			{
				"x": -0.098119345,
				"y": -0.6037212636,
				"z": -3.1909669071,
				"element": "C" 
			},
			{
				"x": 0.6292909692,
				"y": -0.4319880216,
				"z": -4.1531672996,
				"element": "O" 
			},
			{
				"x": 0.4924775625,
				"y": -0.901936741,
				"z": -1.9596068797,
				"element": "N" 
			},
			{
				"x": -0.0241952058,
				"y": -1.0004231582,
				"z": -0.6771029139,
				"element": "C" 
			},
			{
				"x": 0.543525463,
				"y": -1.8601598724,
				"z": 0.3023978757,
				"element": "C" 
			},
			{
				"x": 0.0141254015,
				"y": -1.9493649888,
				"z": 1.5950438405,
				"element": "C" 
			},
			{
				"x": -1.0796273015,
				"y": -1.1831777887,
				"z": 1.9646883871,
				"element": "C" 
			},
			{
				"x": -1.6366226334,
				"y": -0.305850687,
				"z": 1.0277561176,
				"element": "C" 
			},
			{
				"x": -1.1156470275,
				"y": -0.2100302112,
				"z": -0.2557879217,
				"element": "C" 
			},
			{
				"x": 1.7122179762,
				"y": -2.6976720441,
				"z": 0.0293696228,
				"element": "N" 
			},
			{
				"x": 1.962666433,
				"y": -3.6106161451,
				"z": 0.8125132879,
				"element": "O" 
			},
			{
				"x": 2.4098608799,
				"y": -2.4431773832,
				"z": -0.9639146134,
				"element": "O" 
			},
			{
				"x": -2.4919265335,
				"y": -1.6124852935,
				"z": -1.7943935834,
				"element": "H" 
			},
			{
				"x": -3.1739674501,
				"y": -1.8806841961,
				"z": -3.2558620823,
				"element": "H" 
			},
			{
				"x": -1.7675820639,
				"y": -0.55052733,
				"z": -4.4236407066,
				"element": "H" 
			},
			{
				"x": -1.9921709182,
				"y": 0.4178464698,
				"z": -2.9770518381,
				"element": "H" 
			},
			{
				"x": 1.454338899,
				"y": -1.2175068582,
				"z": -2.0512064971,
				"element": "H" 
			},
			{
				"x": 0.4883391077,
				"y": -2.6327703759,
				"z": 2.2878641953,
				"element": "H" 
			},
			{
				"x": -1.4805277743,
				"y": -1.251776247,
				"z": 2.9698883668,
				"element": "H" 
			},
			{
				"x": -2.472101867,
				"y": 0.3297774733,
				"z": 1.3061741796,
				"element": "H" 
			},
			{
				"x": -1.5239522341,
				"y": 0.5201841141,
				"z": -0.9432782593,
				"element": "H" 
			}
		],
		 "valence_orbital": [ 
			{
				"type": "occ",
				"energy": -0.30431,
				"method": "rhf"
			},
			{
				"type": "occ",
				"energy": -0.28882,
				"method": "rhf"
			},
			{
				"type": "occ",
				"energy": -0.27915,
				"method": "rhf"
			},
			{
				"type": "occ",
				"energy": -0.24634,
				"method": "rhf"
			},
			{
				"type": "occ",
				"energy": -0.24326,
				"method": "rhf"
			},
			{
				"type": "unocc",
				"energy": -0.09777,
				"method": "rhf"
			},
			{
				"type": "unocc",
				"energy": -0.04104,
				"method": "rhf"
			},
			{
				"type": "unocc",
				"energy": -0.01335,
				"method": "rhf"
			},
			{
				"type": "unocc",
				"energy": 0.01807,
				"method": "rhf"
			},
			{
				"type": "unocc",
				"energy": 0.06149,
				"method": "rhf"
			}
		],
		"cosmo_sigma_profile": { 
			"-0.025": 0.0,
			"-0.024": 0.0,
			"-0.023": 0.0,
			"-0.022": 0.0,
			"-0.021": 0.0,
			"-0.02": 0.0,
			"-0.019": 0.0,
			"-0.018": 0.0,
			"-0.017": 0.0,
			"-0.016": 0.0,
			"-0.015": 0.0,
			"-0.014": 0.0,
			"-0.013": 0.0,
			"-0.012": 0.0,
			"-0.011": 0.912583346088,
			"-0.01": 2.22480408231,
			"-0.009": 3.72434225628,
			"-0.008": 7.27876839489,
			"-0.007": 13.8695242226,
			"-0.006": 17.7915349871,
			"-0.005": 15.759041588,
			"-0.004": 13.9574791763,
			"-0.003": 14.8021763481,
			"-0.002": 12.2795438759,
			"-0.001": 11.991993669,
			"0.0": 14.0373421845,
			"0.001": 12.7258094413,
			"0.002": 12.8447696883,
			"0.003": 7.31959170415,
			"0.004": 4.15751636903,
			"0.005": 5.3065997304,
			"0.006": 5.75117080701,
			"0.007": 7.9424400398,
			"0.008": 7.06675375884,
			"0.009": 6.71188574595,
			"0.01": 4.47686216221,
			"0.011": 3.23231812966,
			"0.012": 5.29075555954,
			"0.013": 3.1624475246,
			"0.014": 0.929927378667,
			"0.015": 1.03963773135,
			"0.016": 0.204348564901,
			"0.017": 0.543516274972,
			"0.018": 0.165249513225,
			"0.019": 0.0,
			"0.02": 0.0,
			"0.021": 0.0,
			"0.022": 0.0,
			"0.023": 0.0,
			"0.024": 0.0,
			"0.025": 0.0
		}
	}
}
