{
	 "smiles": "CCCNC1=C(C=CC(F)=C1)[N+]([O-])=O", 
	 "Tm": 335.15, 
	 "num_atms": 25, 
	 "gaussian": { 
		 "optdone": 1, 
		 "sigma_profile": "yes", 
		 "theory": "DFT", 
		 "functional": "B3LYP", 
		 "basiset": "6-31G**", 
		 "properties": { 
			 "R2extent": 3808.3242, 
			 "electric_dipole_moment_norm": 3.67155608836, 
			 "electric_quadrupole_moment_norm": 8.35007940801, 
			 "total_energy": -709.270195768, 
			 "HOMO_LUMO_gap": 0.14707, 
			 "cosmo_polarized_energy": -11.23, 
			 "cosmo_cavitation_energy": 29.0, 
			 "cosmo_dispersion_energy": -20.97, 
			 "cosmo_repulsion_energy": 1.63, 
			 "cosmo_total_nonelectrostatic_energy": 9.67, 
			 "SMD_solvation_energy": 6.84 
		},
		"coords": [
			{
				"x": -0.7887808886,
				"y": 2.9206055805,
				"z": 1.3240968652,
				"element": "C" 
			},
			{
				"x": 0.2427473196,
				"y": 1.7975745269,
				"z": 1.4776549516,
				"element": "C" 
			},
			{
				"x": 0.4884231291,
				"y": 1.0010700626,
				"z": 0.1930212044,
				"element": "C" 
			},
			{
				"x": -0.729177799,
				"y": 0.3340138602,
				"z": -0.2920942457,
				"element": "N" 
			},
			{
				"x": -0.8048079542,
				"y": -0.9067997195,
				"z": -0.8845800431,
				"element": "C" 
			},
			{
				"x": -0.1484548272,
				"y": -2.1024334314,
				"z": -0.4667677329,
				"element": "C" 
			},
			{
				"x": -0.2737865198,
				"y": -3.2934738118,
				"z": -1.200616776,
				"element": "C" 
			},
			{
				"x": -1.0799366894,
				"y": -3.3801207458,
				"z": -2.3198985436,
				"element": "C" 
			},
			{
				"x": -1.7703252399,
				"y": -2.226080123,
				"z": -2.6950701937,
				"element": "C" 
			},
			{
				"x": -2.5719100439,
				"y": -2.2704665492,
				"z": -3.7732885948,
				"element": "F" 
			},
			{
				"x": -1.6386089649,
				"y": -1.0281782482,
				"z": -2.0230311643,
				"element": "C" 
			},
			{
				"x": 0.5809450107,
				"y": -2.2253549877,
				"z": 0.7915127655,
				"element": "N" 
			},
			{
				"x": 1.3254490476,
				"y": -3.1991437391,
				"z": 0.9351092855,
				"element": "O" 
			},
			{
				"x": 0.3863761266,
				"y": -1.3810715018,
				"z": 1.6715374059,
				"element": "O" 
			},
			{
				"x": -0.4986059515,
				"y": 3.6313439056,
				"z": 0.540341184,
				"element": "H" 
			},
			{
				"x": -0.8954742864,
				"y": 3.4842332033,
				"z": 2.2558976954,
				"element": "H" 
			},
			{
				"x": -1.7795576325,
				"y": 2.5244768663,
				"z": 1.0744437799,
				"element": "H" 
			},
			{
				"x": -0.0714013813,
				"y": 1.0990510735,
				"z": 2.2584482922,
				"element": "H" 
			},
			{
				"x": 1.2036641653,
				"y": 2.2238775905,
				"z": 1.7924340259,
				"element": "H" 
			},
			{
				"x": 0.8564384198,
				"y": 1.6738193069,
				"z": -0.5979865373,
				"element": "H" 
			},
			{
				"x": 1.2619570926,
				"y": 0.2569427212,
				"z": 0.3640912838,
				"element": "H" 
			},
			{
				"x": -1.3626295838,
				"y": 0.9884086297,
				"z": -0.7313139967,
				"element": "H" 
			},
			{
				"x": 0.2658780425,
				"y": -4.1577795751,
				"z": -0.8357995769,
				"element": "H" 
			},
			{
				"x": -1.1964917032,
				"y": -4.2998597474,
				"z": -2.8796311,
				"element": "H" 
			},
			{
				"x": -2.1621288884,
				"y": -0.1571551474,
				"z": -2.4040102343,
				"element": "H" 
			}
		],
		 "valence_orbital": [ 
			{
				"type": "occ",
				"energy": -0.30007,
				"method": "rhf"
			},
			{
				"type": "occ",
				"energy": -0.29717,
				"method": "rhf"
			},
			{
				"type": "occ",
				"energy": -0.28377,
				"method": "rhf"
			},
			{
				"type": "occ",
				"energy": -0.2665,
				"method": "rhf"
			},
			{
				"type": "occ",
				"energy": -0.22562,
				"method": "rhf"
			},
			{
				"type": "unocc",
				"energy": -0.07855,
				"method": "rhf"
			},
			{
				"type": "unocc",
				"energy": -0.01975,
				"method": "rhf"
			},
			{
				"type": "unocc",
				"energy": 0.00733,
				"method": "rhf"
			},
			{
				"type": "unocc",
				"energy": 0.06128,
				"method": "rhf"
			},
			{
				"type": "unocc",
				"energy": 0.08102,
				"method": "rhf"
			}
		],
		"cosmo_sigma_profile": { 
			"-0.025": 0.0,
			"-0.024": 0.0,
			"-0.023": 0.0,
			"-0.022": 0.0,
			"-0.021": 0.0,
			"-0.02": 0.0,
			"-0.019": 0.0,
			"-0.018": 0.0,
			"-0.017": 0.0,
			"-0.016": 0.0,
			"-0.015": 0.0,
			"-0.014": 0.399008089992,
			"-0.013": 1.39241334308,
			"-0.012": 1.56690762758,
			"-0.011": 1.28744150112,
			"-0.01": 1.51681677587,
			"-0.009": 2.03985136225,
			"-0.008": 3.45538573811,
			"-0.007": 6.1828351729,
			"-0.006": 8.08722463606,
			"-0.005": 6.45331183174,
			"-0.004": 11.2812567462,
			"-0.003": 18.1183607034,
			"-0.002": 21.805482078,
			"-0.001": 21.5178032994,
			"0.0": 26.5318366445,
			"0.001": 27.5438768326,
			"0.002": 15.6516732333,
			"0.003": 11.8757564222,
			"0.004": 10.1909064543,
			"0.005": 3.300793056,
			"0.006": 3.63964505839,
			"0.007": 4.56937373887,
			"0.008": 6.90048866112,
			"0.009": 6.37216873873,
			"0.01": 4.9062572035,
			"0.011": 3.17826402337,
			"0.012": 0.120921316468,
			"0.013": 0.0,
			"0.014": 0.0,
			"0.015": 0.0,
			"0.016": 0.0,
			"0.017": 0.0,
			"0.018": 0.0,
			"0.019": 0.0,
			"0.02": 0.0,
			"0.021": 0.0,
			"0.022": 0.0,
			"0.023": 0.0,
			"0.024": 0.0,
			"0.025": 0.0
		}
	}
}
