{
	 "smiles": "CC12CCC3C(CCC4CC(O)CCC34C)C1(O)CC(O)C2C1=CC(=O)OC1", 
	 "Tm": 507.15, 
	 "num_atms": 62, 
	 "gaussian": { 
		 "optdone": 1, 
		 "sigma_profile": "yes", 
		 "theory": "DFT", 
		 "functional": "B3LYP", 
		 "basiset": "6-31G**", 
		 "properties": { 
			 "R2extent": 14191.8288, 
			 "electric_dipole_moment_norm": 7.37672205387, 
			 "electric_quadrupole_moment_norm": 75.2999378459, 
			 "total_energy": -1273.04095842, 
			 "HOMO_LUMO_gap": 0.22142, 
			 "cosmo_polarized_energy": -25.15, 
			 "cosmo_cavitation_energy": 53.16, 
			 "cosmo_dispersion_energy": -36.93, 
			 "cosmo_repulsion_energy": 2.7, 
			 "cosmo_total_nonelectrostatic_energy": 18.93, 
			 "SMD_solvation_energy": 8.6 
		},
		"coords": [
			{
				"x": -1.1064031268,
				"y": 1.179401283,
				"z": 2.2479420148,
				"element": "C" 
			},
			{
				"x": 0.2506060865,
				"y": 0.4719493123,
				"z": 2.1002498831,
				"element": "C" 
			},
			{
				"x": 1.2587157725,
				"y": 1.4088948677,
				"z": 1.3431018355,
				"element": "C" 
			},
			{
				"x": 1.4685548412,
				"y": 1.1274485201,
				"z": -0.1635930655,
				"element": "C" 
			},
			{
				"x": 0.237252604,
				"y": 0.5016477514,
				"z": -0.825348334,
				"element": "C" 
			},
			{
				"x": -0.1188780889,
				"y": -0.8528576588,
				"z": -0.1670277861,
				"element": "C" 
			},
			{
				"x": -1.5819476068,
				"y": -1.2116873633,
				"z": -0.5380996616,
				"element": "C" 
			},
			{
				"x": -1.9494685784,
				"y": -0.7303416335,
				"z": -1.9617552841,
				"element": "C" 
			},
			{
				"x": -0.7118775109,
				"y": -0.7130479518,
				"z": -2.8759192772,
				"element": "C" 
			},
			{
				"x": -1.0515892107,
				"y": -0.615797436,
				"z": -4.3791299959,
				"element": "C" 
			},
			{
				"x": -1.4287364711,
				"y": 0.7845639499,
				"z": -4.8536933333,
				"element": "C" 
			},
			{
				"x": -1.6542267872,
				"y": 0.6928246838,
				"z": -6.2584484786,
				"element": "O" 
			},
			{
				"x": -0.309350746,
				"y": 1.7675039218,
				"z": -4.504221178,
				"element": "C" 
			},
			{
				"x": -0.0520942646,
				"y": 1.7660274625,
				"z": -2.9918551473,
				"element": "C" 
			},
			{
				"x": 0.3134411945,
				"y": 0.377215808,
				"z": -2.3946881209,
				"element": "C" 
			},
			{
				"x": 1.7241008345,
				"y": -0.0413554498,
				"z": -2.8596593399,
				"element": "C" 
			},
			{
				"x": 0.1703495012,
				"y": -0.9036765467,
				"z": 1.3710114672,
				"element": "C" 
			},
			{
				"x": -0.8477953173,
				"y": -1.652236181,
				"z": 2.0656850916,
				"element": "O" 
			},
			{
				"x": 1.5245528207,
				"y": -1.5422561191,
				"z": 1.7345874123,
				"element": "C" 
			},
			{
				"x": 1.771345689,
				"y": -1.1697722754,
				"z": 3.2143904632,
				"element": "C" 
			},
			{
				"x": 3.1292060177,
				"y": -0.8320269902,
				"z": 3.4894526533,
				"element": "O" 
			},
			{
				"x": 0.9042786322,
				"y": 0.1002444702,
				"z": 3.4930786294,
				"element": "C" 
			},
			{
				"x": -0.00344788,
				"y": -0.0404151231,
				"z": 4.6873344188,
				"element": "C" 
			},
			{
				"x": -0.0284651255,
				"y": 0.7759865252,
				"z": 5.7524446731,
				"element": "C" 
			},
			{
				"x": -1.0068684689,
				"y": 0.2863414178,
				"z": 6.7446481845,
				"element": "C" 
			},
			{
				"x": -1.3180776971,
				"y": 0.736172377,
				"z": 7.8202922093,
				"element": "O" 
			},
			{
				"x": -1.5664728118,
				"y": -0.8648054742,
				"z": 6.2339353561,
				"element": "O" 
			},
			{
				"x": -1.010679329,
				"y": -1.1398973271,
				"z": 4.9443622838,
				"element": "C" 
			},
			{
				"x": -1.4730525335,
				"y": 1.5419839735,
				"z": 1.2838481748,
				"element": "H" 
			},
			{
				"x": -1.8692939156,
				"y": 0.5219366245,
				"z": 2.667260013,
				"element": "H" 
			},
			{
				"x": -1.0073575055,
				"y": 2.0486932492,
				"z": 2.9063840889,
				"element": "H" 
			},
			{
				"x": 2.2374090522,
				"y": 1.3664104018,
				"z": 1.8302157746,
				"element": "H" 
			},
			{
				"x": 0.9037569604,
				"y": 2.4374412993,
				"z": 1.4740150393,
				"element": "H" 
			},
			{
				"x": 2.3297788566,
				"y": 0.4636540633,
				"z": -0.2979694698,
				"element": "H" 
			},
			{
				"x": 1.7388811464,
				"y": 2.0655754455,
				"z": -0.6610507564,
				"element": "H" 
			},
			{
				"x": -0.603397971,
				"y": 1.1768972069,
				"z": -0.6186518525,
				"element": "H" 
			},
			{
				"x": 0.5345148516,
				"y": -1.6132227301,
				"z": -0.6188858546,
				"element": "H" 
			},
			{
				"x": -2.2699060228,
				"y": -0.7814287345,
				"z": 0.1945433222,
				"element": "H" 
			},
			{
				"x": -1.7196330117,
				"y": -2.2991066455,
				"z": -0.4813744358,
				"element": "H" 
			},
			{
				"x": -2.7208227603,
				"y": -1.3843030916,
				"z": -2.3842970669,
				"element": "H" 
			},
			{
				"x": -2.3982689763,
				"y": 0.2694311994,
				"z": -1.9169120974,
				"element": "H" 
			},
			{
				"x": -0.225210077,
				"y": -1.690645219,
				"z": -2.7493189949,
				"element": "H" 
			},
			{
				"x": -0.1913243244,
				"y": -0.9335420351,
				"z": -4.9812628057,
				"element": "H" 
			},
			{
				"x": -1.8640787598,
				"y": -1.3115880774,
				"z": -4.6183732925,
				"element": "H" 
			},
			{
				"x": -2.3536380672,
				"y": 1.1088667119,
				"z": -4.3445155763,
				"element": "H" 
			},
			{
				"x": -1.8815568936,
				"y": 1.5751756008,
				"z": -6.579648775,
				"element": "H" 
			},
			{
				"x": -0.5790828141,
				"y": 2.7816015964,
				"z": -4.830541126,
				"element": "H" 
			},
			{
				"x": 0.5892414547,
				"y": 1.4849359555,
				"z": -5.0662828051,
				"element": "H" 
			},
			{
				"x": 0.7375008989,
				"y": 2.4862153525,
				"z": -2.7462163875,
				"element": "H" 
			},
			{
				"x": -0.9597872568,
				"y": 2.135697265,
				"z": -2.4953609422,
				"element": "H" 
			},
			{
				"x": 2.0531345603,
				"y": -0.9568606444,
				"z": -2.3548050243,
				"element": "H" 
			},
			{
				"x": 2.4689281114,
				"y": 0.7354221768,
				"z": -2.6620081208,
				"element": "H" 
			},
			{
				"x": 1.744291026,
				"y": -0.2440400819,
				"z": -3.9339930403,
				"element": "H" 
			},
			{
				"x": -0.8804027359,
				"y": -2.5386392087,
				"z": 1.6828179528,
				"element": "H" 
			},
			{
				"x": 2.3347424323,
				"y": -1.1237600142,
				"z": 1.1307469321,
				"element": "H" 
			},
			{
				"x": 1.5129342846,
				"y": -2.6255974398,
				"z": 1.5592094815,
				"element": "H" 
			},
			{
				"x": 1.4562726197,
				"y": -1.9929945346,
				"z": 3.868150827,
				"element": "H" 
			},
			{
				"x": 3.6644518587,
				"y": -1.6297775105,
				"z": 3.386031123,
				"element": "H" 
			},
			{
				"x": 1.6046054549,
				"y": 0.8963626671,
				"z": 3.7594881994,
				"element": "H" 
			},
			{
				"x": 0.5682989389,
				"y": 1.6625716366,
				"z": 5.9226454421,
				"element": "H" 
			},
			{
				"x": -0.5511739606,
				"y": -2.135611644,
				"z": 4.9623812259,
				"element": "H" 
			},
			{
				"x": -1.811379894,
				"y": -1.1639036356,
				"z": 4.2019532537,
				"element": "H" 
			}
		],
		 "valence_orbital": [ 
			{
				"type": "occ",
				"energy": -0.28058,
				"method": "rhf"
			},
			{
				"type": "occ",
				"energy": -0.26651,
				"method": "rhf"
			},
			{
				"type": "occ",
				"energy": -0.26414,
				"method": "rhf"
			},
			{
				"type": "occ",
				"energy": -0.25903,
				"method": "rhf"
			},
			{
				"type": "occ",
				"energy": -0.25223,
				"method": "rhf"
			},
			{
				"type": "unocc",
				"energy": -0.03081,
				"method": "rhf"
			},
			{
				"type": "unocc",
				"energy": 0.04686,
				"method": "rhf"
			},
			{
				"type": "unocc",
				"energy": 0.05877,
				"method": "rhf"
			},
			{
				"type": "unocc",
				"energy": 0.06118,
				"method": "rhf"
			},
			{
				"type": "unocc",
				"energy": 0.06957,
				"method": "rhf"
			}
		],
		"cosmo_sigma_profile": { 
			"-0.025": 0.0,
			"-0.024": 0.0,
			"-0.023": 0.0,
			"-0.022": 0.0,
			"-0.021": 0.0,
			"-0.02": 0.0,
			"-0.019": 0.0,
			"-0.018": 0.0,
			"-0.017": 0.0,
			"-0.016": 0.323774891793,
			"-0.015": 1.36229618277,
			"-0.014": 3.29354036399,
			"-0.013": 1.95296080785,
			"-0.012": 2.92193241669,
			"-0.011": 3.01653380866,
			"-0.01": 2.55152871386,
			"-0.009": 2.59903932782,
			"-0.008": 3.84863300692,
			"-0.007": 8.02251407232,
			"-0.006": 8.26361904636,
			"-0.005": 10.9557354644,
			"-0.004": 14.1201622781,
			"-0.003": 34.5407008576,
			"-0.002": 64.439820249,
			"-0.001": 56.4488052536,
			"0.0": 51.3626759461,
			"0.001": 40.248415517,
			"0.002": 19.6370589125,
			"0.003": 7.05816201498,
			"0.004": 7.10013131742,
			"0.005": 6.32661515694,
			"0.006": 5.19289336999,
			"0.007": 6.00872995498,
			"0.008": 5.61643452627,
			"0.009": 5.56271516688,
			"0.01": 6.69077370577,
			"0.011": 6.761602558,
			"0.012": 8.32966293283,
			"0.013": 8.55284569312,
			"0.014": 3.39039171782,
			"0.015": 1.51225179061,
			"0.016": 0.0,
			"0.017": 0.0,
			"0.018": 0.0,
			"0.019": 0.0,
			"0.02": 0.0,
			"0.021": 0.0,
			"0.022": 0.0,
			"0.023": 0.0,
			"0.024": 0.0,
			"0.025": 0.0
		}
	}
}
