{
	 "smiles": "CNC(C)C1CCC(N)C(OC2C(N)CC(N)C(OC3OCC(C)(O)C(NC)C3O)C2O)O1", 
	 "Tm": 378.15, 
	 "num_atms": 76, 
	 "gaussian": { 
		 "optdone": 1, 
		 "sigma_profile": "yes", 
		 "theory": "DFT", 
		 "functional": "B3LYP", 
		 "basiset": "6-31G**", 
		 "properties": { 
			 "R2extent": 16857.9871, 
			 "electric_dipole_moment_norm": 4.40704970927, 
			 "electric_quadrupole_moment_norm": 23.0988785613, 
			 "total_energy": -1626.40224321, 
			 "HOMO_LUMO_gap": 0.25849, 
			 "cosmo_polarized_energy": -34.42, 
			 "cosmo_cavitation_energy": 67.12, 
			 "cosmo_dispersion_energy": -42.0, 
			 "cosmo_repulsion_energy": 3.13, 
			 "cosmo_total_nonelectrostatic_energy": 28.25, 
			 "SMD_solvation_energy": 6.04 
		},
		"coords": [
			{
				"x": 0.2345291688,
				"y": 1.4428187012,
				"z": 3.3333636567,
				"element": "C" 
			},
			{
				"x": 1.4606716897,
				"y": 1.6387483443,
				"z": 2.5509533472,
				"element": "N" 
			},
			{
				"x": 2.3638473341,
				"y": 0.4674764793,
				"z": 2.4949635905,
				"element": "C" 
			},
			{
				"x": 3.2755464482,
				"y": 0.3666497268,
				"z": 3.7252493955,
				"element": "C" 
			},
			{
				"x": 3.1343323622,
				"y": 0.531431291,
				"z": 1.1660521962,
				"element": "C" 
			},
			{
				"x": 4.2576089463,
				"y": -0.4896004987,
				"z": 0.9511826145,
				"element": "C" 
			},
			{
				"x": 4.8188301851,
				"y": -0.3459801164,
				"z": -0.4756871567,
				"element": "C" 
			},
			{
				"x": 3.7186381569,
				"y": -0.3481489273,
				"z": -1.5498543124,
				"element": "C" 
			},
			{
				"x": 4.297895331,
				"y": -0.1212552415,
				"z": -2.8728246245,
				"element": "N" 
			},
			{
				"x": 2.6217298236,
				"y": 0.6523072046,
				"z": -1.1511639869,
				"element": "C" 
			},
			{
				"x": 1.5606371808,
				"y": 0.5377049845,
				"z": -2.0438830951,
				"element": "O" 
			},
			{
				"x": 0.626262775,
				"y": 1.6355778638,
				"z": -2.1157850017,
				"element": "C" 
			},
			{
				"x": -0.2653828732,
				"y": 1.333704135,
				"z": -3.3244363437,
				"element": "C" 
			},
			{
				"x": -0.8729850678,
				"y": 0.0079874268,
				"z": -3.1426286166,
				"element": "N" 
			},
			{
				"x": -1.3652285899,
				"y": 2.415963467,
				"z": -3.5024303873,
				"element": "C" 
			},
			{
				"x": -1.6123497401,
				"y": 3.342874604,
				"z": -2.284780094,
				"element": "C" 
			},
			{
				"x": -0.7129263672,
				"y": 4.5029721104,
				"z": -2.1767636052,
				"element": "N" 
			},
			{
				"x": -1.5249708088,
				"y": 2.5513790969,
				"z": -0.9756790885,
				"element": "C" 
			},
			{
				"x": -2.6218464259,
				"y": 1.6331911782,
				"z": -0.9624406396,
				"element": "O" 
			},
			{
				"x": -3.1420466123,
				"y": 1.2925101827,
				"z": 0.2916385866,
				"element": "C" 
			},
			{
				"x": -2.3230375882,
				"y": 0.3251243585,
				"z": 0.9421686842,
				"element": "O" 
			},
			{
				"x": -2.9315564868,
				"y": -0.9290065074,
				"z": 1.2713431539,
				"element": "C" 
			},
			{
				"x": -3.649641175,
				"y": -1.5961125323,
				"z": 0.0824310168,
				"element": "C" 
			},
			{
				"x": -2.644086568,
				"y": -2.1775887262,
				"z": -0.9165059027,
				"element": "C" 
			},
			{
				"x": -4.4777193054,
				"y": -2.6449447177,
				"z": 0.5985132751,
				"element": "O" 
			},
			{
				"x": -4.5737620722,
				"y": -0.5417841437,
				"z": -0.6536016926,
				"element": "C" 
			},
			{
				"x": -5.9000243683,
				"y": -0.9805022753,
				"z": -1.0787833623,
				"element": "N" 
			},
			{
				"x": -6.9619284438,
				"y": -1.1812140035,
				"z": -0.082850286,
				"element": "C" 
			},
			{
				"x": -4.5883156467,
				"y": 0.8099753922,
				"z": 0.0705084151,
				"element": "C" 
			},
			{
				"x": -5.2658459793,
				"y": 0.7186175462,
				"z": 1.3243682538,
				"element": "O" 
			},
			{
				"x": -0.1318629584,
				"y": 1.8765154797,
				"z": -0.788510064,
				"element": "C" 
			},
			{
				"x": 0.6660984149,
				"y": 2.7501363161,
				"z": 0.010974724,
				"element": "O" 
			},
			{
				"x": 2.1515433666,
				"y": 0.3389412864,
				"z": 0.1539974547,
				"element": "O" 
			},
			{
				"x": 0.4035442869,
				"y": 1.0303574296,
				"z": 4.3409392,
				"element": "H" 
			},
			{
				"x": -0.2700188511,
				"y": 2.4069412226,
				"z": 3.4432201704,
				"element": "H" 
			},
			{
				"x": -0.4434009583,
				"y": 0.7804413518,
				"z": 2.7877215252,
				"element": "H" 
			},
			{
				"x": 1.9796611394,
				"y": 2.4266735912,
				"z": 2.934986243,
				"element": "H" 
			},
			{
				"x": 1.7243429512,
				"y": -0.4220431154,
				"z": 2.4423630808,
				"element": "H" 
			},
			{
				"x": 2.6839356423,
				"y": 0.4025166814,
				"z": 4.6452890797,
				"element": "H" 
			},
			{
				"x": 3.8462002401,
				"y": -0.5664657853,
				"z": 3.7372434443,
				"element": "H" 
			},
			{
				"x": 3.9914632749,
				"y": 1.1978159503,
				"z": 3.7537033851,
				"element": "H" 
			},
			{
				"x": 3.5613635282,
				"y": 1.5484764127,
				"z": 1.0735802346,
				"element": "H" 
			},
			{
				"x": 5.0620066714,
				"y": -0.3495349806,
				"z": 1.6817421084,
				"element": "H" 
			},
			{
				"x": 3.8496731758,
				"y": -1.4981058926,
				"z": 1.0976456711,
				"element": "H" 
			},
			{
				"x": 5.5397251605,
				"y": -1.1384548234,
				"z": -0.6990699323,
				"element": "H" 
			},
			{
				"x": 5.3705493333,
				"y": 0.6043077853,
				"z": -0.5456653334,
				"element": "H" 
			},
			{
				"x": 3.2313306807,
				"y": -1.3323062348,
				"z": -1.5614406091,
				"element": "H" 
			},
			{
				"x": 4.7667999697,
				"y": 0.783816109,
				"z": -2.8898396551,
				"element": "H" 
			},
			{
				"x": 3.5397182228,
				"y": -0.0589168499,
				"z": -3.549130488,
				"element": "H" 
			},
			{
				"x": 3.016776988,
				"y": 1.6866405555,
				"z": -1.1512671652,
				"element": "H" 
			},
			{
				"x": 1.194214728,
				"y": 2.5512867117,
				"z": -2.3274584678,
				"element": "H" 
			},
			{
				"x": 0.397660488,
				"y": 1.3584713606,
				"z": -4.2073762651,
				"element": "H" 
			},
			{
				"x": -1.3823025896,
				"y": -0.2545743633,
				"z": -3.982627045,
				"element": "H" 
			},
			{
				"x": -0.1286845504,
				"y": -0.6726962394,
				"z": -3.0143223281,
				"element": "H" 
			},
			{
				"x": -2.3034002188,
				"y": 1.9001355928,
				"z": -3.7319130642,
				"element": "H" 
			},
			{
				"x": -1.135620665,
				"y": 3.0459021041,
				"z": -4.3710383612,
				"element": "H" 
			},
			{
				"x": -2.6414326238,
				"y": 3.7165317502,
				"z": -2.373197681,
				"element": "H" 
			},
			{
				"x": 0.0606674947,
				"y": 4.327008239,
				"z": -1.5420162545,
				"element": "H" 
			},
			{
				"x": -0.3329111957,
				"y": 4.7640535071,
				"z": -3.0808547734,
				"element": "H" 
			},
			{
				"x": -1.6311013713,
				"y": 3.249443269,
				"z": -0.133785431,
				"element": "H" 
			},
			{
				"x": -3.1472944196,
				"y": 2.1882879144,
				"z": 0.9385312316,
				"element": "H" 
			},
			{
				"x": -2.1062493626,
				"y": -1.5613928663,
				"z": 1.6193951294,
				"element": "H" 
			},
			{
				"x": -3.6550933313,
				"y": -0.8077905396,
				"z": 2.0821107339,
				"element": "H" 
			},
			{
				"x": -3.1733523322,
				"y": -2.6627112704,
				"z": -1.7448818443,
				"element": "H" 
			},
			{
				"x": -2.0096574744,
				"y": -2.9329079488,
				"z": -0.4322287096,
				"element": "H" 
			},
			{
				"x": -2.0003872239,
				"y": -1.3950211277,
				"z": -1.3300799703,
				"element": "H" 
			},
			{
				"x": -3.8929390848,
				"y": -3.369576273,
				"z": 0.8573467516,
				"element": "H" 
			},
			{
				"x": -4.0402532746,
				"y": -0.3048524772,
				"z": -1.5813092415,
				"element": "H" 
			},
			{
				"x": -5.7820711588,
				"y": -1.8438456316,
				"z": -1.5999941156,
				"element": "H" 
			},
			{
				"x": -6.6801138704,
				"y": -1.8177681792,
				"z": 0.7633264145,
				"element": "H" 
			},
			{
				"x": -7.2918615255,
				"y": -0.2179299342,
				"z": 0.3096013967,
				"element": "H" 
			},
			{
				"x": -7.8114712438,
				"y": -1.6401509357,
				"z": -0.6006441085,
				"element": "H" 
			},
			{
				"x": -5.0839068742,
				"y": 1.5366294322,
				"z": -0.5860753473,
				"element": "H" 
			},
			{
				"x": -5.339200702,
				"y": 1.6116805373,
				"z": 1.6858670858,
				"element": "H" 
			},
			{
				"x": -0.2899211378,
				"y": 0.9172053673,
				"z": -0.2960241379,
				"element": "H" 
			},
			{
				"x": 0.9408579579,
				"y": 2.2790531077,
				"z": 0.8319273384,
				"element": "H" 
			}
		],
		 "valence_orbital": [ 
			{
				"type": "occ",
				"energy": -0.22822,
				"method": "rhf"
			},
			{
				"type": "occ",
				"energy": -0.22529,
				"method": "rhf"
			},
			{
				"type": "occ",
				"energy": -0.22343,
				"method": "rhf"
			},
			{
				"type": "occ",
				"energy": -0.21185,
				"method": "rhf"
			},
			{
				"type": "occ",
				"energy": -0.19458,
				"method": "rhf"
			},
			{
				"type": "unocc",
				"energy": 0.06391,
				"method": "rhf"
			},
			{
				"type": "unocc",
				"energy": 0.06751,
				"method": "rhf"
			},
			{
				"type": "unocc",
				"energy": 0.07668,
				"method": "rhf"
			},
			{
				"type": "unocc",
				"energy": 0.08008,
				"method": "rhf"
			},
			{
				"type": "unocc",
				"energy": 0.08562,
				"method": "rhf"
			}
		],
		"cosmo_sigma_profile": { 
			"-0.025": 0.0,
			"-0.024": 0.0,
			"-0.023": 0.0,
			"-0.022": 0.0,
			"-0.021": 0.0,
			"-0.02": 0.0,
			"-0.019": 0.0,
			"-0.018": 0.0,
			"-0.017": 0.0,
			"-0.016": 0.703475463689,
			"-0.015": 1.67395815093,
			"-0.014": 2.09191347287,
			"-0.013": 2.51317624773,
			"-0.012": 1.77108890615,
			"-0.011": 2.06115236111,
			"-0.01": 3.9528719544,
			"-0.009": 8.73846325892,
			"-0.008": 10.3690824747,
			"-0.007": 11.9439898669,
			"-0.006": 16.051814447,
			"-0.005": 21.7866568608,
			"-0.004": 32.6839426413,
			"-0.003": 52.007833398,
			"-0.002": 58.2248894845,
			"-0.001": 48.2258923546,
			"0.0": 44.469956169,
			"0.001": 33.6458313582,
			"0.002": 22.9636760716,
			"0.003": 19.8214368398,
			"0.004": 18.2291563982,
			"0.005": 17.2950682582,
			"0.006": 15.0972687418,
			"0.007": 11.3859660016,
			"0.008": 10.0789905204,
			"0.009": 8.05335108625,
			"0.01": 8.7622509766,
			"0.011": 8.43876933433,
			"0.012": 5.61795994302,
			"0.013": 3.57696835892,
			"0.014": 2.0588306025,
			"0.015": 2.43109932854,
			"0.016": 1.88189219077,
			"0.017": 1.24182059437,
			"0.018": 1.66267879029,
			"0.019": 1.28501132521,
			"0.02": 0.358484046846,
			"0.021": 0.0,
			"0.022": 0.0,
			"0.023": 0.0,
			"0.024": 0.0,
			"0.025": 0.0
		}
	}
}
