{
	 "smiles": "FC1=C(C=O)C(F)=C(Cl)C=C1", 
	 "Tm": 318.15, 
	 "num_atms": 14, 
	 "gaussian": { 
		 "optdone": 1, 
		 "sigma_profile": "yes", 
		 "theory": "DFT", 
		 "functional": "B3LYP", 
		 "basiset": "6-31G**", 
		 "properties": { 
			 "R2extent": 2081.4941, 
			 "electric_dipole_moment_norm": 2.99394274327, 
			 "electric_quadrupole_moment_norm": 12.0133830843, 
			 "total_energy": -1003.61440165, 
			 "HOMO_LUMO_gap": 0.1803, 
			 "cosmo_polarized_energy": -7.89, 
			 "cosmo_cavitation_energy": 21.87, 
			 "cosmo_dispersion_energy": -16.02, 
			 "cosmo_repulsion_energy": 1.24, 
			 "cosmo_total_nonelectrostatic_energy": 7.09, 
			 "SMD_solvation_energy": 5.51 
		},
		"coords": [
			{
				"x": 1.5768627608,
				"y": 1.0471091334,
				"z": -2.5024337841,
				"element": "F" 
			},
			{
				"x": 0.8116532437,
				"y": 0.6404605601,
				"z": -1.4880859767,
				"element": "C" 
			},
			{
				"x": 1.3217426225,
				"y": -0.2842003843,
				"z": -0.5595734915,
				"element": "C" 
			},
			{
				"x": 2.6932753584,
				"y": -0.8545631924,
				"z": -0.6341849034,
				"element": "C" 
			},
			{
				"x": 3.5084049643,
				"y": -0.5864545868,
				"z": -1.4930326394,
				"element": "O" 
			},
			{
				"x": 0.4630755746,
				"y": -0.6690748433,
				"z": 0.4827861519,
				"element": "C" 
			},
			{
				"x": 0.9084974332,
				"y": -1.5488119775,
				"z": 1.3905701132,
				"element": "F" 
			},
			{
				"x": -0.8321004032,
				"y": -0.1693896094,
				"z": 0.6053653275,
				"element": "C" 
			},
			{
				"x": -1.8444189253,
				"y": -0.6907054287,
				"z": 1.9247531884,
				"element": "Cl" 
			},
			{
				"x": -1.2961230361,
				"y": 0.7465042582,
				"z": -0.3395403593,
				"element": "C" 
			},
			{
				"x": -0.4756398246,
				"y": 1.1544642256,
				"z": -1.3894846524,
				"element": "C" 
			},
			{
				"x": 2.9284645763,
				"y": -1.5673505928,
				"z": 0.1783204388,
				"element": "H" 
			},
			{
				"x": -2.3033781498,
				"y": 1.1369676099,
				"z": -0.246661317,
				"element": "H" 
			},
			{
				"x": -0.8206161948,
				"y": 1.8649448279,
				"z": -2.1315980961,
				"element": "H" 
			}
		],
		 "valence_orbital": [ 
			{
				"type": "occ",
				"energy": -0.34638,
				"method": "rhf"
			},
			{
				"type": "occ",
				"energy": -0.33518,
				"method": "rhf"
			},
			{
				"type": "occ",
				"energy": -0.28798,
				"method": "rhf"
			},
			{
				"type": "occ",
				"energy": -0.26437,
				"method": "rhf"
			},
			{
				"type": "occ",
				"energy": -0.2629,
				"method": "rhf"
			},
			{
				"type": "unocc",
				"energy": -0.0826,
				"method": "rhf"
			},
			{
				"type": "unocc",
				"energy": -0.02969,
				"method": "rhf"
			},
			{
				"type": "unocc",
				"energy": 0.0038,
				"method": "rhf"
			},
			{
				"type": "unocc",
				"energy": 0.01389,
				"method": "rhf"
			},
			{
				"type": "unocc",
				"energy": 0.08105,
				"method": "rhf"
			}
		],
		"cosmo_sigma_profile": { 
			"-0.025": 0.0,
			"-0.024": 0.0,
			"-0.023": 0.0,
			"-0.022": 0.0,
			"-0.021": 0.0,
			"-0.02": 0.0,
			"-0.019": 0.0,
			"-0.018": 0.0,
			"-0.017": 0.0,
			"-0.016": 0.0,
			"-0.015": 0.0,
			"-0.014": 0.0,
			"-0.013": 0.0,
			"-0.012": 0.0,
			"-0.011": 0.0,
			"-0.01": 0.209201312532,
			"-0.009": 2.94132137375,
			"-0.008": 4.71610281422,
			"-0.007": 5.82849031094,
			"-0.006": 8.14834311232,
			"-0.005": 7.62864581395,
			"-0.004": 8.24343661341,
			"-0.003": 14.8416425375,
			"-0.002": 19.2624038963,
			"-0.001": 16.5877383645,
			"0.0": 13.4724472604,
			"0.001": 13.0788034546,
			"0.002": 13.1935396492,
			"0.003": 19.1432581894,
			"0.004": 11.7317259328,
			"0.005": 1.38751977736,
			"0.006": 2.29288210185,
			"0.007": 2.36129298047,
			"0.008": 2.27874434332,
			"0.009": 2.2727086627,
			"0.01": 4.20398463961,
			"0.011": 4.32332444214,
			"0.012": 1.38474265796,
			"0.013": 0.0729592787633,
			"0.014": 0.0,
			"0.015": 0.0,
			"0.016": 0.0,
			"0.017": 0.0,
			"0.018": 0.0,
			"0.019": 0.0,
			"0.02": 0.0,
			"0.021": 0.0,
			"0.022": 0.0,
			"0.023": 0.0,
			"0.024": 0.0,
			"0.025": 0.0
		}
	}
}
