{
	 "smiles": "C[C@]12CC[C@H]3[C@@H](CC(=O)C4=CC(=O)CC[C@]34C)[C@@H]1CCC21OCCO1", 
	 "Tm": 435.0, 
	 "num_atms": 53, 
	 "gaussian": { 
		 "optdone": 1, 
		 "sigma_profile": "yes", 
		 "theory": "DFT", 
		 "functional": "B3LYP", 
		 "basiset": "6-31G**", 
		 "properties": { 
			 "R2extent": 9927.1483, 
			 "electric_dipole_moment_norm": 6.6865710981, 
			 "electric_quadrupole_moment_norm": 25.7523202452, 
			 "total_energy": -1117.98577493, 
			 "HOMO_LUMO_gap": 0.16559, 
			 "cosmo_polarized_energy": -17.37, 
			 "cosmo_cavitation_energy": 47.43, 
			 "cosmo_dispersion_energy": -32.8, 
			 "cosmo_repulsion_energy": 2.4, 
			 "cosmo_total_nonelectrostatic_energy": 17.03, 
			 "SMD_solvation_energy": 8.07 
		},
		"coords": [
			{
				"x": -1.4789838215,
				"y": 1.2587169806,
				"z": 2.5297211486,
				"element": "C" 
			},
			{
				"x": -1.2610277857,
				"y": 1.4587021161,
				"z": 1.0133214307,
				"element": "C" 
			},
			{
				"x": -1.5268629948,
				"y": 0.1510764697,
				"z": 0.2555119581,
				"element": "C" 
			},
			{
				"x": -0.4289842485,
				"y": -0.8981443446,
				"z": 0.5350199971,
				"element": "C" 
			},
			{
				"x": 1.0002245309,
				"y": -0.3747563522,
				"z": 0.2586743984,
				"element": "C" 
			},
			{
				"x": 1.2665686262,
				"y": 0.9654571379,
				"z": 1.0101943184,
				"element": "C" 
			},
			{
				"x": 2.6635451209,
				"y": 1.5416448165,
				"z": 0.6982652055,
				"element": "C" 
			},
			{
				"x": 3.8044552695,
				"y": 0.5318927865,
				"z": 0.7085990048,
				"element": "C" 
			},
			{
				"x": 4.9257662722,
				"y": 0.8038935059,
				"z": 1.0961953801,
				"element": "O" 
			},
			{
				"x": 3.443675447,
				"y": -0.7804997216,
				"z": 0.0725118662,
				"element": "C" 
			},
			{
				"x": 4.2096581875,
				"y": -1.2308035304,
				"z": -0.9414634319,
				"element": "C" 
			},
			{
				"x": 3.7745807812,
				"y": -2.3099924949,
				"z": -1.8566243756,
				"element": "C" 
			},
			{
				"x": 4.505986541,
				"y": -2.7501827377,
				"z": -2.7302266472,
				"element": "O" 
			},
			{
				"x": 2.3308064422,
				"y": -2.7565354353,
				"z": -1.6814776281,
				"element": "C" 
			},
			{
				"x": 1.9478603952,
				"y": -2.778606816,
				"z": -0.1976330702,
				"element": "C" 
			},
			{
				"x": 2.1426823279,
				"y": -1.4248624708,
				"z": 0.5359720795,
				"element": "C" 
			},
			{
				"x": 2.2744539933,
				"y": -1.7402453463,
				"z": 2.0496230015,
				"element": "C" 
			},
			{
				"x": 0.15823425,
				"y": 1.9617842583,
				"z": 0.6493671754,
				"element": "C" 
			},
			{
				"x": 0.203979491,
				"y": 3.3990681057,
				"z": 1.2087086748,
				"element": "C" 
			},
			{
				"x": -1.2502285694,
				"y": 3.916500035,
				"z": 1.0161848276,
				"element": "C" 
			},
			{
				"x": -2.0942720085,
				"y": 2.6914484452,
				"z": 0.5581873434,
				"element": "C" 
			},
			{
				"x": -3.4138010043,
				"y": 2.6644493176,
				"z": 1.0872335755,
				"element": "O" 
			},
			{
				"x": -4.3144899819,
				"y": 3.0521317368,
				"z": 0.0544012403,
				"element": "C" 
			},
			{
				"x": -3.6067970033,
				"y": 2.5413282523,
				"z": -1.1958315312,
				"element": "C" 
			},
			{
				"x": -2.2339881317,
				"y": 2.7424328124,
				"z": -0.8705623672,
				"element": "O" 
			},
			{
				"x": -0.8519358857,
				"y": 0.4593313179,
				"z": 2.9317233093,
				"element": "H" 
			},
			{
				"x": -2.5233328514,
				"y": 0.9951764156,
				"z": 2.7142818917,
				"element": "H" 
			},
			{
				"x": -1.2656610124,
				"y": 2.1615425792,
				"z": 3.1081531803,
				"element": "H" 
			},
			{
				"x": -2.5050973984,
				"y": -0.2653952806,
				"z": 0.525854775,
				"element": "H" 
			},
			{
				"x": -1.5527642352,
				"y": 0.3681932637,
				"z": -0.8185595369,
				"element": "H" 
			},
			{
				"x": -0.6286906622,
				"y": -1.7738043806,
				"z": -0.0906695046,
				"element": "H" 
			},
			{
				"x": -0.5038878022,
				"y": -1.243722028,
				"z": 1.5726521292,
				"element": "H" 
			},
			{
				"x": 1.0490845356,
				"y": -0.1405019328,
				"z": -0.8165895,
				"element": "H" 
			},
			{
				"x": 1.2194162719,
				"y": 0.775710584,
				"z": 2.0895210689,
				"element": "H" 
			},
			{
				"x": 2.6529244958,
				"y": 1.950513559,
				"z": -0.3250400664,
				"element": "H" 
			},
			{
				"x": 2.9272508428,
				"y": 2.3660396273,
				"z": 1.3666816463,
				"element": "H" 
			},
			{
				"x": 5.1483180303,
				"y": -0.7378934646,
				"z": -1.1815010219,
				"element": "H" 
			},
			{
				"x": 1.6964778812,
				"y": -2.0541658033,
				"z": -2.2408642857,
				"element": "H" 
			},
			{
				"x": 2.208770974,
				"y": -3.7379235512,
				"z": -2.1478204496,
				"element": "H" 
			},
			{
				"x": 2.5855958764,
				"y": -3.5192157309,
				"z": 0.3005866759,
				"element": "H" 
			},
			{
				"x": 0.9226100115,
				"y": -3.1360468672,
				"z": -0.0695521742,
				"element": "H" 
			},
			{
				"x": 2.4443598785,
				"y": -0.8499560221,
				"z": 2.6602265735,
				"element": "H" 
			},
			{
				"x": 3.1198711027,
				"y": -2.4137510932,
				"z": 2.2181363755,
				"element": "H" 
			},
			{
				"x": 1.3726961184,
				"y": -2.2370573361,
				"z": 2.4214251529,
				"element": "H" 
			},
			{
				"x": 0.1657856943,
				"y": 2.0555756694,
				"z": -0.4477036568,
				"element": "H" 
			},
			{
				"x": 0.9357393976,
				"y": 4.0223476143,
				"z": 0.6873877445,
				"element": "H" 
			},
			{
				"x": 0.4833727025,
				"y": 3.399407469,
				"z": 2.2683099813,
				"element": "H" 
			},
			{
				"x": -1.3150806041,
				"y": 4.6981107738,
				"z": 0.2560834629,
				"element": "H" 
			},
			{
				"x": -1.6723807345,
				"y": 4.3130426129,
				"z": 1.9429029235,
				"element": "H" 
			},
			{
				"x": -4.4400914208,
				"y": 4.1443677925,
				"z": 0.0267830619,
				"element": "H" 
			},
			{
				"x": -5.28335418,
				"y": 2.5832612061,
				"z": 0.2450549576,
				"element": "H" 
			},
			{
				"x": -3.8361384629,
				"y": 3.1078252879,
				"z": -2.1026212249,
				"element": "H" 
			},
			{
				"x": -3.8221006901,
				"y": 1.4772901911,
				"z": -1.3695170638,
				"element": "H" 
			}
		],
		 "valence_orbital": [ 
			{
				"type": "occ",
				"energy": -0.27456,
				"method": "rhf"
			},
			{
				"type": "occ",
				"energy": -0.27022,
				"method": "rhf"
			},
			{
				"type": "occ",
				"energy": -0.25394,
				"method": "rhf"
			},
			{
				"type": "occ",
				"energy": -0.24806,
				"method": "rhf"
			},
			{
				"type": "occ",
				"energy": -0.23471,
				"method": "rhf"
			},
			{
				"type": "unocc",
				"energy": -0.06912,
				"method": "rhf"
			},
			{
				"type": "unocc",
				"energy": -0.00613,
				"method": "rhf"
			},
			{
				"type": "unocc",
				"energy": 0.05243,
				"method": "rhf"
			},
			{
				"type": "unocc",
				"energy": 0.07134,
				"method": "rhf"
			},
			{
				"type": "unocc",
				"energy": 0.07652,
				"method": "rhf"
			}
		],
		"cosmo_sigma_profile": { 
			"-0.025": 0.0,
			"-0.024": 0.0,
			"-0.023": 0.0,
			"-0.022": 0.0,
			"-0.021": 0.0,
			"-0.02": 0.0,
			"-0.019": 0.0,
			"-0.018": 0.0,
			"-0.017": 0.0,
			"-0.016": 0.0,
			"-0.015": 0.0,
			"-0.014": 0.0,
			"-0.013": 0.0,
			"-0.012": 0.0,
			"-0.011": 0.0,
			"-0.01": 0.0,
			"-0.009": 0.0,
			"-0.008": 0.0,
			"-0.007": 0.471093102017,
			"-0.006": 9.08900000308,
			"-0.005": 22.399525864,
			"-0.004": 44.1045480894,
			"-0.003": 52.6705517255,
			"-0.002": 51.8992874288,
			"-0.001": 42.4877101252,
			"0.0": 35.0624362858,
			"0.001": 22.3583781154,
			"0.002": 11.4681928533,
			"0.003": 7.96604966498,
			"0.004": 7.29257701712,
			"0.005": 5.7669559031,
			"0.006": 6.10088465269,
			"0.007": 6.4120265642,
			"0.008": 5.19227952423,
			"0.009": 5.44910182349,
			"0.01": 6.9316357346,
			"0.011": 8.1250029679,
			"0.012": 10.3835056737,
			"0.013": 4.65359323124,
			"0.014": 0.679413008204,
			"0.015": 0.0,
			"0.016": 0.0,
			"0.017": 0.0,
			"0.018": 0.0,
			"0.019": 0.0,
			"0.02": 0.0,
			"0.021": 0.0,
			"0.022": 0.0,
			"0.023": 0.0,
			"0.024": 0.0,
			"0.025": 0.0
		}
	}
}
