{
	 "smiles": "CC(C)CCCC(C)O", 
	 "Tm": 168.15, 
	 "num_atms": 27, 
	 "gaussian": { 
		 "optdone": 1, 
		 "sigma_profile": "yes", 
		 "theory": "DFT", 
		 "functional": "B3LYP", 
		 "basiset": "6-31G**", 
		 "properties": { 
			 "R2extent": 2539.1105, 
			 "electric_dipole_moment_norm": 1.51480413255, 
			 "electric_quadrupole_moment_norm": 6.50197576357, 
			 "total_energy": -390.938533209, 
			 "HOMO_LUMO_gap": 0.33227, 
			 "cosmo_polarized_energy": -5.77, 
			 "cosmo_cavitation_energy": 27.4, 
			 "cosmo_dispersion_energy": -19.38, 
			 "cosmo_repulsion_energy": 1.62, 
			 "cosmo_total_nonelectrostatic_energy": 9.64, 
			 "SMD_solvation_energy": 4.44 
		},
		"coords": [
			{
				"x": 0.3722003496,
				"y": 0.3252339866,
				"z": -3.9491412957,
				"element": "C" 
			},
			{
				"x": 0.8273610329,
				"y": -0.5432117216,
				"z": -2.7653857256,
				"element": "C" 
			},
			{
				"x": 2.3079592444,
				"y": -0.2910087972,
				"z": -2.4421024805,
				"element": "C" 
			},
			{
				"x": -0.1142021307,
				"y": -0.4065126461,
				"z": -1.5439587339,
				"element": "C" 
			},
			{
				"x": -0.1654477256,
				"y": 0.9586246292,
				"z": -0.8222964533,
				"element": "C" 
			},
			{
				"x": 0.8386127631,
				"y": 1.1316424809,
				"z": 0.3272435345,
				"element": "C" 
			},
			{
				"x": 0.6439898001,
				"y": 2.4382955451,
				"z": 1.1112179806,
				"element": "C" 
			},
			{
				"x": 1.691117534,
				"y": 2.620530254,
				"z": 2.2120404778,
				"element": "C" 
			},
			{
				"x": -0.679404317,
				"y": 2.5410625961,
				"z": 1.6457174726,
				"element": "O" 
			},
			{
				"x": -0.6683804319,
				"y": 0.1156375045,
				"z": -4.2206830954,
				"element": "H" 
			},
			{
				"x": 0.992622009,
				"y": 0.1383960524,
				"z": -4.8326224613,
				"element": "H" 
			},
			{
				"x": 0.4469157303,
				"y": 1.3943789016,
				"z": -3.7201345245,
				"element": "H" 
			},
			{
				"x": 0.7429577761,
				"y": -1.5917786964,
				"z": -3.087110662,
				"element": "H" 
			},
			{
				"x": 2.9397369326,
				"y": -0.5360045965,
				"z": -3.3032592186,
				"element": "H" 
			},
			{
				"x": 2.6464603316,
				"y": -0.8999699465,
				"z": -1.5965184028,
				"element": "H" 
			},
			{
				"x": 2.4926356689,
				"y": 0.7603449122,
				"z": -2.194816181,
				"element": "H" 
			},
			{
				"x": -1.1258239104,
				"y": -0.6537671035,
				"z": -1.8915596169,
				"element": "H" 
			},
			{
				"x": 0.1452425674,
				"y": -1.1847783894,
				"z": -0.8123417421,
				"element": "H" 
			},
			{
				"x": -0.032576595,
				"y": 1.7757733129,
				"z": -1.543783298,
				"element": "H" 
			},
			{
				"x": -1.1655242679,
				"y": 1.1040834217,
				"z": -0.4003865591,
				"element": "H" 
			},
			{
				"x": 0.7386623965,
				"y": 0.28812925,
				"z": 1.0293034028,
				"element": "H" 
			},
			{
				"x": 1.8702187705,
				"y": 1.0942394436,
				"z": -0.0411663053,
				"element": "H" 
			},
			{
				"x": 0.7142160092,
				"y": 3.2817990871,
				"z": 0.4120217659,
				"element": "H" 
			},
			{
				"x": 1.6509769038,
				"y": 1.7887876399,
				"z": 2.9275435335,
				"element": "H" 
			},
			{
				"x": 2.7049890829,
				"y": 2.6524309056,
				"z": 1.7988445863,
				"element": "H" 
			},
			{
				"x": 1.5092060579,
				"y": 3.5494796461,
				"z": 2.759727256,
				"element": "H" 
			},
			{
				"x": -0.7868215826,
				"y": 1.8223623277,
				"z": 2.284506746,
				"element": "H" 
			}
		],
		 "valence_orbital": [ 
			{
				"type": "occ",
				"energy": -0.31556,
				"method": "rhf"
			},
			{
				"type": "occ",
				"energy": -0.31292,
				"method": "rhf"
			},
			{
				"type": "occ",
				"energy": -0.3071,
				"method": "rhf"
			},
			{
				"type": "occ",
				"energy": -0.29676,
				"method": "rhf"
			},
			{
				"type": "occ",
				"energy": -0.26009,
				"method": "rhf"
			},
			{
				"type": "unocc",
				"energy": 0.07218,
				"method": "rhf"
			},
			{
				"type": "unocc",
				"energy": 0.08638,
				"method": "rhf"
			},
			{
				"type": "unocc",
				"energy": 0.10445,
				"method": "rhf"
			},
			{
				"type": "unocc",
				"energy": 0.12469,
				"method": "rhf"
			},
			{
				"type": "unocc",
				"energy": 0.13044,
				"method": "rhf"
			}
		],
		"cosmo_sigma_profile": { 
			"-0.025": 0.0,
			"-0.024": 0.0,
			"-0.023": 0.0,
			"-0.022": 0.0,
			"-0.021": 0.0,
			"-0.02": 0.0,
			"-0.019": 0.0,
			"-0.018": 0.0,
			"-0.017": 0.0,
			"-0.016": 0.0,
			"-0.015": 0.190594800215,
			"-0.014": 0.920065348746,
			"-0.013": 0.715916666856,
			"-0.012": 1.28444452381,
			"-0.011": 0.345235694254,
			"-0.01": 0.682796551116,
			"-0.009": 1.09572950048,
			"-0.008": 0.895131801799,
			"-0.007": 1.04757155612,
			"-0.006": 1.3606076606,
			"-0.005": 2.01042872482,
			"-0.004": 2.62398050007,
			"-0.003": 11.5617317395,
			"-0.002": 31.4216458695,
			"-0.001": 39.5919634719,
			"0.0": 39.5923097293,
			"0.001": 34.8761854957,
			"0.002": 19.845678996,
			"0.003": 2.29606592508,
			"0.004": 1.87756854159,
			"0.005": 1.87767886357,
			"0.006": 1.20407129139,
			"0.007": 1.10232731224,
			"0.008": 1.4061682694,
			"0.009": 1.62479202996,
			"0.01": 0.953366526384,
			"0.011": 0.720535888324,
			"0.012": 1.62841674947,
			"0.013": 1.26296360406,
			"0.014": 1.64459137361,
			"0.015": 1.76271542293,
			"0.016": 0.027593495177,
			"0.017": 0.0,
			"0.018": 0.0,
			"0.019": 0.0,
			"0.02": 0.0,
			"0.021": 0.0,
			"0.022": 0.0,
			"0.023": 0.0,
			"0.024": 0.0,
			"0.025": 0.0
		}
	}
}
