{
	 "smiles": "CC1=C(C)C(C#N)=C(N)N1", 
	 "Tm": 423.15, 
	 "num_atms": 19, 
	 "gaussian": { 
		 "optdone": 1, 
		 "sigma_profile": "yes", 
		 "theory": "DFT", 
		 "functional": "B3LYP", 
		 "basiset": "6-31G**", 
		 "properties": { 
			 "R2extent": 2171.5613, 
			 "electric_dipole_moment_norm": 5.99388758153, 
			 "electric_quadrupole_moment_norm": 19.0637177568, 
			 "total_energy": -436.416816564, 
			 "HOMO_LUMO_gap": 0.20431, 
			 "cosmo_polarized_energy": -17.09, 
			 "cosmo_cavitation_energy": 23.61, 
			 "cosmo_dispersion_energy": -16.72, 
			 "cosmo_repulsion_energy": 1.39, 
			 "cosmo_total_nonelectrostatic_energy": 8.29, 
			 "SMD_solvation_energy": 5.38 
		},
		"coords": [
			{
				"x": -2.1625228718,
				"y": 0.7352595453,
				"z": -0.9197228434,
				"element": "C" 
			},
			{
				"x": -1.1017347997,
				"y": -0.3129652222,
				"z": -1.0085772302,
				"element": "C" 
			},
			{
				"x": 0.0600796029,
				"y": -0.5058932261,
				"z": -0.302746647,
				"element": "C" 
			},
			{
				"x": 0.6158526946,
				"y": 0.3218897993,
				"z": 0.8156811156,
				"element": "C" 
			},
			{
				"x": 0.6750086211,
				"y": -1.7090608893,
				"z": -0.825773118,
				"element": "C" 
			},
			{
				"x": 1.8662517425,
				"y": -2.3379945605,
				"z": -0.3978443136,
				"element": "C" 
			},
			{
				"x": 2.8440530505,
				"y": -2.8811403295,
				"z": -0.0645250418,
				"element": "N" 
			},
			{
				"x": -0.140453302,
				"y": -2.1938377697,
				"z": -1.844098106,
				"element": "C" 
			},
			{
				"x": 0.0300567172,
				"y": -3.2647946685,
				"z": -2.7177836189,
				"element": "N" 
			},
			{
				"x": -1.209272,
				"y": -1.352743658,
				"z": -1.9396448232,
				"element": "N" 
			},
			{
				"x": -3.1390569562,
				"y": 0.3125658961,
				"z": -0.649700431,
				"element": "H" 
			},
			{
				"x": -1.9035919204,
				"y": 1.4724190605,
				"z": -0.1570896754,
				"element": "H" 
			},
			{
				"x": -2.2894657889,
				"y": 1.2763930696,
				"z": -1.8666146526,
				"element": "H" 
			},
			{
				"x": 0.7100683278,
				"y": -0.2621007171,
				"z": 1.7386690129,
				"element": "H" 
			},
			{
				"x": 1.6167552822,
				"y": 0.6974588935,
				"z": 0.5736608417,
				"element": "H" 
			},
			{
				"x": -0.019306829,
				"y": 1.1847272377,
				"z": 1.0325163105,
				"element": "H" 
			},
			{
				"x": 0.8946195927,
				"y": -3.7602395467,
				"z": -2.5304915207,
				"element": "H" 
			},
			{
				"x": -0.7457692079,
				"y": -3.9197855859,
				"z": -2.7213396938,
				"element": "H" 
			},
			{
				"x": -1.8931719554,
				"y": -1.3957573283,
				"z": -2.6791755652,
				"element": "H" 
			}
		],
		 "valence_orbital": [ 
			{
				"type": "occ",
				"energy": -0.33705,
				"method": "rhf"
			},
			{
				"type": "occ",
				"energy": -0.31278,
				"method": "rhf"
			},
			{
				"type": "occ",
				"energy": -0.30429,
				"method": "rhf"
			},
			{
				"type": "occ",
				"energy": -0.23907,
				"method": "rhf"
			},
			{
				"type": "occ",
				"energy": -0.19343,
				"method": "rhf"
			},
			{
				"type": "unocc",
				"energy": 0.01088,
				"method": "rhf"
			},
			{
				"type": "unocc",
				"energy": 0.0409,
				"method": "rhf"
			},
			{
				"type": "unocc",
				"energy": 0.04341,
				"method": "rhf"
			},
			{
				"type": "unocc",
				"energy": 0.06254,
				"method": "rhf"
			},
			{
				"type": "unocc",
				"energy": 0.09102,
				"method": "rhf"
			}
		],
		"cosmo_sigma_profile": { 
			"-0.025": 0.0,
			"-0.024": 0.0,
			"-0.023": 0.0,
			"-0.022": 0.0,
			"-0.021": 0.0,
			"-0.02": 0.0,
			"-0.019": 0.0,
			"-0.018": 0.0,
			"-0.017": 0.0,
			"-0.016": 0.493057959044,
			"-0.015": 1.17912662666,
			"-0.014": 1.79142994321,
			"-0.013": 2.97766196284,
			"-0.012": 4.55914685673,
			"-0.011": 3.96124404077,
			"-0.01": 3.80206797512,
			"-0.009": 2.98058127812,
			"-0.008": 2.9559550326,
			"-0.007": 2.27596325848,
			"-0.006": 4.30248587037,
			"-0.005": 6.49080330234,
			"-0.004": 11.6597160243,
			"-0.003": 12.0293357275,
			"-0.002": 14.6564746131,
			"-0.001": 14.9220404695,
			"0.0": 17.725186656,
			"0.001": 10.1385631395,
			"0.002": 7.49998512277,
			"0.003": 9.72168058842,
			"0.004": 8.43141738844,
			"0.005": 7.99536172801,
			"0.006": 6.1910890365,
			"0.007": 2.71417774583,
			"0.008": 3.39399913567,
			"0.009": 3.35081016351,
			"0.01": 3.71969816925,
			"0.011": 4.34269970584,
			"0.012": 3.79490123298,
			"0.013": 3.65716481674,
			"0.014": 2.98842237645,
			"0.015": 0.67997712252,
			"0.016": 0.0,
			"0.017": 0.0,
			"0.018": 0.0,
			"0.019": 0.0,
			"0.02": 0.0,
			"0.021": 0.0,
			"0.022": 0.0,
			"0.023": 0.0,
			"0.024": 0.0,
			"0.025": 0.0
		}
	}
}
