{
	 "smiles": "COC1=CC(C=O)=CC=C1F", 
	 "Tm": 335.15, 
	 "num_atms": 18, 
	 "gaussian": { 
		 "optdone": 1, 
		 "sigma_profile": "yes", 
		 "theory": "DFT", 
		 "functional": "B3LYP", 
		 "basiset": "6-31G**", 
		 "properties": { 
			 "R2extent": 2667.5095, 
			 "electric_dipole_moment_norm": 3.56476406232, 
			 "electric_quadrupole_moment_norm": 14.254174914, 
			 "total_energy": -559.323244699, 
			 "HOMO_LUMO_gap": 0.17323, 
			 "cosmo_polarized_energy": -7.88, 
			 "cosmo_cavitation_energy": 23.06, 
			 "cosmo_dispersion_energy": -16.86, 
			 "cosmo_repulsion_energy": 1.32, 
			 "cosmo_total_nonelectrostatic_energy": 7.53, 
			 "SMD_solvation_energy": 6.31 
		},
		"coords": [
			{
				"x": -0.4579192838,
				"y": 0.938043756,
				"z": 2.3875218929,
				"element": "C" 
			},
			{
				"x": -1.130108078,
				"y": 1.4093353794,
				"z": 1.2172305258,
				"element": "O" 
			},
			{
				"x": -0.649622146,
				"y": 1.1626623588,
				"z": -0.0289810607,
				"element": "C" 
			},
			{
				"x": -1.4073350293,
				"y": 1.6828264184,
				"z": -1.0864082033,
				"element": "C" 
			},
			{
				"x": -1.0271310075,
				"y": 1.502697493,
				"z": -2.4179791461,
				"element": "C" 
			},
			{
				"x": -1.8639984304,
				"y": 2.0733247505,
				"z": -3.4969331601,
				"element": "C" 
			},
			{
				"x": -1.6207404859,
				"y": 1.9727511288,
				"z": -4.6843722062,
				"element": "O" 
			},
			{
				"x": 0.1393333649,
				"y": 0.78613446,
				"z": -2.7286081618,
				"element": "C" 
			},
			{
				"x": 0.9035633945,
				"y": 0.2629644341,
				"z": -1.6964335868,
				"element": "C" 
			},
			{
				"x": 0.5121509857,
				"y": 0.4503578652,
				"z": -0.3712597997,
				"element": "C" 
			},
			{
				"x": 1.2987066893,
				"y": -0.0838713357,
				"z": 0.5931566534,
				"element": "F" 
			},
			{
				"x": -1.0693777786,
				"y": 1.2841967775,
				"z": 3.2220849518,
				"element": "H" 
			},
			{
				"x": -0.3969642475,
				"y": -0.1536819075,
				"z": 2.4063897023,
				"element": "H" 
			},
			{
				"x": 0.5483686477,
				"y": 1.3577989732,
				"z": 2.4721277588,
				"element": "H" 
			},
			{
				"x": -2.3082373693,
				"y": 2.2357761856,
				"z": -0.8347650568,
				"element": "H" 
			},
			{
				"x": -2.7652470116,
				"y": 2.6218111075,
				"z": -3.1422728608,
				"element": "H" 
			},
			{
				"x": 0.4190566808,
				"y": 0.6562139905,
				"z": -3.7680511387,
				"element": "H" 
			},
			{
				"x": 1.813501105,
				"y": -0.2985418353,
				"z": -1.8812471042,
				"element": "H" 
			}
		],
		 "valence_orbital": [ 
			{
				"type": "occ",
				"energy": -0.33816,
				"method": "rhf"
			},
			{
				"type": "occ",
				"energy": -0.33054,
				"method": "rhf"
			},
			{
				"type": "occ",
				"energy": -0.26544,
				"method": "rhf"
			},
			{
				"type": "occ",
				"energy": -0.25588,
				"method": "rhf"
			},
			{
				"type": "occ",
				"energy": -0.23418,
				"method": "rhf"
			},
			{
				"type": "unocc",
				"energy": -0.06095,
				"method": "rhf"
			},
			{
				"type": "unocc",
				"energy": -0.01535,
				"method": "rhf"
			},
			{
				"type": "unocc",
				"energy": 0.04481,
				"method": "rhf"
			},
			{
				"type": "unocc",
				"energy": 0.06814,
				"method": "rhf"
			},
			{
				"type": "unocc",
				"energy": 0.11281,
				"method": "rhf"
			}
		],
		"cosmo_sigma_profile": { 
			"-0.025": 0.0,
			"-0.024": 0.0,
			"-0.023": 0.0,
			"-0.022": 0.0,
			"-0.021": 0.0,
			"-0.02": 0.0,
			"-0.019": 0.0,
			"-0.018": 0.0,
			"-0.017": 0.0,
			"-0.016": 0.0,
			"-0.015": 0.0,
			"-0.014": 0.0,
			"-0.013": 0.0,
			"-0.012": 0.0,
			"-0.011": 0.0,
			"-0.01": 0.0,
			"-0.009": 9.83580877579e-06,
			"-0.008": 3.27205712928,
			"-0.007": 6.01141629574,
			"-0.006": 11.0612512997,
			"-0.005": 14.2853146473,
			"-0.004": 15.1652969665,
			"-0.003": 15.2648225797,
			"-0.002": 12.1044422227,
			"-0.001": 12.9071450968,
			"0.0": 14.4755540473,
			"0.001": 15.3023319377,
			"0.002": 17.6852957022,
			"0.003": 13.5544062555,
			"0.004": 7.78407202157,
			"0.005": 3.65756416824,
			"0.006": 2.2226929392,
			"0.007": 1.8476877171,
			"0.008": 3.72863758107,
			"0.009": 4.1373264162,
			"0.01": 2.64665427806,
			"0.011": 4.25822454201,
			"0.012": 2.82690104814,
			"0.013": 0.597407582233,
			"0.014": 0.0,
			"0.015": 0.0,
			"0.016": 0.0,
			"0.017": 0.0,
			"0.018": 0.0,
			"0.019": 0.0,
			"0.02": 0.0,
			"0.021": 0.0,
			"0.022": 0.0,
			"0.023": 0.0,
			"0.024": 0.0,
			"0.025": 0.0
		}
	}
}
