{
	 "smiles": "NC1=C(I)C(C(=O)N(CCC(O)=O)C2=CC=CC=C2)=C(I)C=C1I", 
	 "Tm": 407.15, 
	 "num_atms": 37, 
	 "gaussian": { 
		 "optdone": 1, 
		 "sigma_profile": "no", 
		 "theory": "DFT", 
		 "functional": "B3LYP", 
		 "basiset": "6-31G**", 
		 "properties": { 
			 "R2extent": 8366.5041, 
			 "electric_dipole_moment_norm": 3.5346728901, 
			 "electric_quadrupole_moment_norm": 14.7522219398, 
			 "total_energy": -986.885563539, 
			 "HOMO_LUMO_gap": 0.14405, 
			 "cosmo_polarized_energy": -243177.96, 
			 "cosmo_cavitation_energy": 48.63, 
			 "cosmo_dispersion_energy": -35.44, 
			 "cosmo_repulsion_energy": 2.64, 
			 "cosmo_total_nonelectrostatic_energy": 15.83, 
			 "SMD_solvation_energy": 6.98 
		},
		"coords": [
			{
				"x": 1.7753768407,
				"y": -2.1382803415,
				"z": -3.5109357702,
				"element": "N" 
			},
			{
				"x": 0.7478403961,
				"y": -1.565977176,
				"z": -2.8068304521,
				"element": "C" 
			},
			{
				"x": 0.9663763123,
				"y": -0.8054760499,
				"z": -1.6284827518,
				"element": "C" 
			},
			{
				"x": 2.9878751317,
				"y": -0.547460111,
				"z": -1.0005757387,
				"element": "I" 
			},
			{
				"x": -0.0688115552,
				"y": -0.1865920093,
				"z": -0.9146137874,
				"element": "C" 
			},
			{
				"x": 0.2089210691,
				"y": 0.6849072553,
				"z": 0.299892661,
				"element": "C" 
			},
			{
				"x": 0.165967949,
				"y": 1.9046277254,
				"z": 0.1774662257,
				"element": "O" 
			},
			{
				"x": 0.5227000215,
				"y": 0.0768836555,
				"z": 1.4912839705,
				"element": "N" 
			},
			{
				"x": 0.7807904976,
				"y": 0.9745249656,
				"z": 2.6403082133,
				"element": "C" 
			},
			{
				"x": 1.983578131,
				"y": 1.9116763474,
				"z": 2.4893753793,
				"element": "C" 
			},
			{
				"x": 3.3362441402,
				"y": 1.2669038372,
				"z": 2.6740728561,
				"element": "C" 
			},
			{
				"x": 4.3316377502,
				"y": 2.1027643588,
				"z": 2.297693112,
				"element": "O" 
			},
			{
				"x": 3.5608710231,
				"y": 0.1643549145,
				"z": 3.131132732,
				"element": "O" 
			},
			{
				"x": 0.3510208788,
				"y": -1.3308840699,
				"z": 1.747053733,
				"element": "C" 
			},
			{
				"x": 1.4289212705,
				"y": -2.0846325392,
				"z": 2.2285525781,
				"element": "C" 
			},
			{
				"x": 1.2569176693,
				"y": -3.4409167159,
				"z": 2.5057101315,
				"element": "C" 
			},
			{
				"x": 0.0207136976,
				"y": -4.0563576296,
				"z": 2.2988894348,
				"element": "C" 
			},
			{
				"x": -1.0554324223,
				"y": -3.3004683106,
				"z": 1.8324841359,
				"element": "C" 
			},
			{
				"x": -0.89754978,
				"y": -1.9390409348,
				"z": 1.5702399431,
				"element": "C" 
			},
			{
				"x": -1.3701831643,
				"y": -0.2683849099,
				"z": -1.4362574429,
				"element": "C" 
			},
			{
				"x": -3.0287314984,
				"y": 0.7088920963,
				"z": -0.5376584528,
				"element": "I" 
			},
			{
				"x": -1.6304994042,
				"y": -1.0092446027,
				"z": -2.5866160455,
				"element": "C" 
			},
			{
				"x": -0.5929409746,
				"y": -1.6546484341,
				"z": -3.2461799672,
				"element": "C" 
			},
			{
				"x": -1.0815664153,
				"y": -2.7794004199,
				"z": -4.9814001709,
				"element": "I" 
			},
			{
				"x": 2.6552862906,
				"y": -2.2698207964,
				"z": -3.0349324763,
				"element": "H" 
			},
			{
				"x": 1.5344144396,
				"y": -2.8418801364,
				"z": -4.1930216932,
				"element": "H" 
			},
			{
				"x": 0.9099754467,
				"y": 0.3373884954,
				"z": 3.5154885636,
				"element": "H" 
			},
			{
				"x": -0.1101416892,
				"y": 1.5943359502,
				"z": 2.7891941128,
				"element": "H" 
			},
			{
				"x": 1.951481429,
				"y": 2.4339358879,
				"z": 1.5322011019,
				"element": "H" 
			},
			{
				"x": 1.9079694924,
				"y": 2.6939259695,
				"z": 3.2567504532,
				"element": "H" 
			},
			{
				"x": 5.164008861,
				"y": 1.6390221873,
				"z": 2.4905062868,
				"element": "H" 
			},
			{
				"x": 2.3832078129,
				"y": -1.6006354719,
				"z": 2.3982411307,
				"element": "H" 
			},
			{
				"x": 2.0972412719,
				"y": -4.0180020352,
				"z": 2.8807439359,
				"element": "H" 
			},
			{
				"x": -0.1059355101,
				"y": -5.1140927949,
				"z": 2.5105984881,
				"element": "H" 
			},
			{
				"x": -2.0272127438,
				"y": -3.7629736668,
				"z": 1.6861935757,
				"element": "H" 
			},
			{
				"x": -1.7443844582,
				"y": -1.3470728391,
				"z": 1.2430788207,
				"element": "H" 
			},
			{
				"x": -2.6404482073,
				"y": -1.0839016516,
				"z": -2.9684468267,
				"element": "H" 
			}
		],
		 "valence_orbital": [ 
			{
				"type": "occ",
				"energy": -0.26384,
				"method": "rhf"
			},
			{
				"type": "occ",
				"energy": -0.25452,
				"method": "rhf"
			},
			{
				"type": "occ",
				"energy": -0.24551,
				"method": "rhf"
			},
			{
				"type": "occ",
				"energy": -0.23512,
				"method": "rhf"
			},
			{
				"type": "occ",
				"energy": -0.21819,
				"method": "rhf"
			},
			{
				"type": "unocc",
				"energy": -0.07414,
				"method": "rhf"
			},
			{
				"type": "unocc",
				"energy": -0.04094,
				"method": "rhf"
			},
			{
				"type": "unocc",
				"energy": -0.03421,
				"method": "rhf"
			},
			{
				"type": "unocc",
				"energy": -0.02995,
				"method": "rhf"
			},
			{
				"type": "unocc",
				"energy": -0.02335,
				"method": "rhf"
			}
		],
		"cosmo_sigma_profile": { 
			"0.0": 0.0,
			"0.0": 0.0,
			"0.0": 0.0,
			"0.0": 0.0,
			"0.0": 0.0,
			"0.0": 0.0,
			"0.0": 0.0,
			"0.0": 0.0,
			"0.0": 0.0,
			"0.0": 0.0,
			"0.0": 0.0,
			"0.0": 0.0,
			"0.0": 0.0,
			"0.0": 0.0,
			"0.0": 0.0,
			"0.0": 0.0,
			"0.0": 0.0,
			"0.0": 0.0,
			"0.0": 0.0,
			"0.0": 0.0,
			"0.0": 0.0,
			"0.0": 0.0,
			"0.0": 0.0,
			"0.0": 0.0,
			"0.0": 0.0,
			"0.0": 0.0,
			"0.0": 0.0,
			"0.0": 0.0,
			"0.0": 0.0,
			"0.0": 0.0,
			"0.0": 0.0,
			"0.0": 0.0,
			"0.0": 0.0,
			"0.0": 0.0,
			"0.0": 0.0,
			"0.0": 0.0,
			"0.0": 0.0,
			"0.0": 0.0,
			"0.0": 0.0,
			"0.0": 0.0,
			"0.0": 0.0,
			"0.0": 0.0,
			"0.0": 0.0,
			"0.0": 0.0,
			"0.0": 0.0,
			"0.0": 0.0,
			"0.0": 0.0,
			"0.0": 0.0,
			"0.0": 0.0,
			"0.0": 0.0,
			"0.0": 0.0
		}
	}
}
