{
	 "smiles": "O=C1N(CC2=CC=CC=C2)C2=C(C=CC=C2)C1=O", 
	 "Tm": 366.15, 
	 "num_atms": 29, 
	 "gaussian": { 
		 "optdone": 1, 
		 "sigma_profile": "yes", 
		 "theory": "DFT", 
		 "functional": "B3LYP", 
		 "basiset": "6-31G**", 
		 "properties": { 
			 "R2extent": 5347.3424, 
			 "electric_dipole_moment_norm": 5.90308166384, 
			 "electric_quadrupole_moment_norm": 20.8944590739, 
			 "total_energy": -783.430284489, 
			 "HOMO_LUMO_gap": 0.13789, 
			 "cosmo_polarized_energy": -14.24, 
			 "cosmo_cavitation_energy": 33.94, 
			 "cosmo_dispersion_energy": -23.64, 
			 "cosmo_repulsion_energy": 1.8, 
			 "cosmo_total_nonelectrostatic_energy": 12.1, 
			 "SMD_solvation_energy": 6.83 
		},
		"coords": [
			{
				"x": -2.308488439,
				"y": -3.4551530994,
				"z": 1.2874719699,
				"element": "O" 
			},
			{
				"x": -2.1751422207,
				"y": -2.2510096977,
				"z": 1.3512513034,
				"element": "C" 
			},
			{
				"x": -1.0541764647,
				"y": -1.523882948,
				"z": 0.9730470632,
				"element": "N" 
			},
			{
				"x": 0.166509487,
				"y": -2.1477214605,
				"z": 0.4752552008,
				"element": "C" 
			},
			{
				"x": 0.4367161218,
				"y": -1.8993649562,
				"z": -0.9984948103,
				"element": "C" 
			},
			{
				"x": -0.5345438704,
				"y": -2.2076941505,
				"z": -1.96058475,
				"element": "C" 
			},
			{
				"x": -0.2759274895,
				"y": -2.0039228944,
				"z": -3.3149978056,
				"element": "C" 
			},
			{
				"x": 0.9587483927,
				"y": -1.4940169772,
				"z": -3.7266441486,
				"element": "C" 
			},
			{
				"x": 1.9330387486,
				"y": -1.1906058728,
				"z": -2.7760186295,
				"element": "C" 
			},
			{
				"x": 1.6703684122,
				"y": -1.3915588509,
				"z": -1.4186175512,
				"element": "C" 
			},
			{
				"x": -1.2539736747,
				"y": -0.1457732912,
				"z": 1.1816848227,
				"element": "C" 
			},
			{
				"x": -2.5332430591,
				"y": 0.0977247745,
				"z": 1.7234074703,
				"element": "C" 
			},
			{
				"x": -2.9528457742,
				"y": 1.3897713121,
				"z": 2.0235818634,
				"element": "C" 
			},
			{
				"x": -2.0781670794,
				"y": 2.4513446276,
				"z": 1.7779473062,
				"element": "C" 
			},
			{
				"x": -0.8118269286,
				"y": 2.1999996787,
				"z": 1.2370202648,
				"element": "C" 
			},
			{
				"x": -0.3771289152,
				"y": 0.903007147,
				"z": 0.9283056048,
				"element": "C" 
			},
			{
				"x": -3.2118959441,
				"y": -1.1974080324,
				"z": 1.8684862472,
				"element": "C" 
			},
			{
				"x": -4.3174455686,
				"y": -1.4686660252,
				"z": 2.2844998117,
				"element": "O" 
			},
			{
				"x": 1.0149742251,
				"y": -1.802804404,
				"z": 1.0776407871,
				"element": "H" 
			},
			{
				"x": 0.0347640871,
				"y": -3.217727793,
				"z": 0.6656316044,
				"element": "H" 
			},
			{
				"x": -1.4917758858,
				"y": -2.6138686879,
				"z": -1.6449893057,
				"element": "H" 
			},
			{
				"x": -1.0365340259,
				"y": -2.2473338719,
				"z": -4.0512508991,
				"element": "H" 
			},
			{
				"x": 1.1587018733,
				"y": -1.3364994016,
				"z": -4.7824865774,
				"element": "H" 
			},
			{
				"x": 2.8956782231,
				"y": -0.7951707605,
				"z": -3.0872898589,
				"element": "H" 
			},
			{
				"x": 2.4341373619,
				"y": -1.1564216125,
				"z": -0.6803769074,
				"element": "H" 
			},
			{
				"x": -3.942293345,
				"y": 1.5509376912,
				"z": 2.4407466548,
				"element": "H" 
			},
			{
				"x": -2.3774558098,
				"y": 3.4699662291,
				"z": 2.001974674,
				"element": "H" 
			},
			{
				"x": -0.1416398644,
				"y": 3.0331157258,
				"z": 1.0449019602,
				"element": "H" 
			},
			{
				"x": 0.6005674262,
				"y": 0.7342376016,
				"z": 0.4923966347,
				"element": "H" 
			}
		],
		 "valence_orbital": [ 
			{
				"type": "occ",
				"energy": -0.27521,
				"method": "rhf"
			},
			{
				"type": "occ",
				"energy": -0.26053,
				"method": "rhf"
			},
			{
				"type": "occ",
				"energy": -0.25743,
				"method": "rhf"
			},
			{
				"type": "occ",
				"energy": -0.2437,
				"method": "rhf"
			},
			{
				"type": "occ",
				"energy": -0.23288,
				"method": "rhf"
			},
			{
				"type": "unocc",
				"energy": -0.09499,
				"method": "rhf"
			},
			{
				"type": "unocc",
				"energy": -0.01947,
				"method": "rhf"
			},
			{
				"type": "unocc",
				"energy": -0.01523,
				"method": "rhf"
			},
			{
				"type": "unocc",
				"energy": -0.01169,
				"method": "rhf"
			},
			{
				"type": "unocc",
				"energy": 0.00754,
				"method": "rhf"
			}
		],
		"cosmo_sigma_profile": { 
			"-0.025": 0.0,
			"-0.024": 0.0,
			"-0.023": 0.0,
			"-0.022": 0.0,
			"-0.021": 0.0,
			"-0.02": 0.0,
			"-0.019": 0.0,
			"-0.018": 0.0,
			"-0.017": 0.0,
			"-0.016": 0.0,
			"-0.015": 0.0,
			"-0.014": 0.0,
			"-0.013": 0.0,
			"-0.012": 0.0,
			"-0.011": 0.0,
			"-0.01": 0.0,
			"-0.009": 0.0,
			"-0.008": 1.59193616358,
			"-0.007": 10.937784623,
			"-0.006": 20.5026275506,
			"-0.005": 24.5021656291,
			"-0.004": 24.6564468013,
			"-0.003": 22.8280443852,
			"-0.002": 16.712516514,
			"-0.001": 18.0423338524,
			"0.0": 16.2099439582,
			"0.001": 18.5279406433,
			"0.002": 20.1835900518,
			"0.003": 19.3610446785,
			"0.004": 11.2884495322,
			"0.005": 11.28131632,
			"0.006": 6.00886020125,
			"0.007": 3.15962481475,
			"0.008": 3.22127159019,
			"0.009": 4.70778839733,
			"0.01": 7.31827143828,
			"0.011": 8.1361875568,
			"0.012": 3.45788433276,
			"0.013": 0.3725235926,
			"0.014": 0.0,
			"0.015": 0.0,
			"0.016": 0.0,
			"0.017": 0.0,
			"0.018": 0.0,
			"0.019": 0.0,
			"0.02": 0.0,
			"0.021": 0.0,
			"0.022": 0.0,
			"0.023": 0.0,
			"0.024": 0.0,
			"0.0": 0.0
		}
	}
}
