{
	 "smiles": "NC1=NN=C(S1)C1=CC(Br)=CC=C1", 
	 "Tm": 490.15, 
	 "num_atms": 19, 
	 "gaussian": { 
		 "optdone": 1, 
		 "sigma_profile": "yes", 
		 "theory": "DFT", 
		 "functional": "B3LYP", 
		 "basiset": "6-31G**", 
		 "properties": { 
			 "R2extent": 5188.6144, 
			 "electric_dipole_moment_norm": 2.52733977336, 
			 "electric_quadrupole_moment_norm": 21.8317892755, 
			 "total_energy": -3442.28945355, 
			 "HOMO_LUMO_gap": 0.1659, 
			 "cosmo_polarized_energy": -14.29, 
			 "cosmo_cavitation_energy": 27.95, 
			 "cosmo_dispersion_energy": -21.77, 
			 "cosmo_repulsion_energy": 1.68, 
			 "cosmo_total_nonelectrostatic_energy": 7.85, 
			 "SMD_solvation_energy": 1.54 
		},
		"coords": [
			{
				"x": -1.770354559,
				"y": -4.7059881566,
				"z": 0.4150737014,
				"element": "N" 
			},
			{
				"x": -1.0334242586,
				"y": -3.5733322846,
				"z": 0.1854819696,
				"element": "C" 
			},
			{
				"x": 0.2561705146,
				"y": -3.591061536,
				"z": -0.0401789307,
				"element": "N" 
			},
			{
				"x": 0.7535370013,
				"y": -2.3559057745,
				"z": -0.3230428303,
				"element": "N" 
			},
			{
				"x": -0.1251574866,
				"y": -1.3958617034,
				"z": -0.3040987816,
				"element": "C" 
			},
			{
				"x": -1.7648920843,
				"y": -1.978133133,
				"z": 0.0691993307,
				"element": "S" 
			},
			{
				"x": 0.196103352,
				"y": 0.0132085584,
				"z": -0.5568559346,
				"element": "C" 
			},
			{
				"x": -0.7926197073,
				"y": 1.0087875856,
				"z": -0.5296349651,
				"element": "C" 
			},
			{
				"x": -0.441621973,
				"y": 2.3331732433,
				"z": -0.7747673058,
				"element": "C" 
			},
			{
				"x": -1.8015522201,
				"y": 3.6766616522,
				"z": -0.7329505757,
				"element": "Br" 
			},
			{
				"x": 0.8736592519,
				"y": 2.699814255,
				"z": -1.0495195212,
				"element": "C" 
			},
			{
				"x": 1.8537347409,
				"y": 1.7034760762,
				"z": -1.0760364424,
				"element": "C" 
			},
			{
				"x": 1.5274779428,
				"y": 0.3737886053,
				"z": -0.8332796136,
				"element": "C" 
			},
			{
				"x": -1.1974760561,
				"y": -5.5199926271,
				"z": 0.5982603582,
				"element": "H" 
			},
			{
				"x": -2.5809212883,
				"y": -4.6229671661,
				"z": 1.0108995058,
				"element": "H" 
			},
			{
				"x": -1.8276193886,
				"y": 0.761625135,
				"z": -0.3208464405,
				"element": "H" 
			},
			{
				"x": 1.1253547526,
				"y": 3.7369343435,
				"z": -1.2381307618,
				"element": "H" 
			},
			{
				"x": 2.8833799944,
				"y": 1.974872602,
				"z": -1.2890151574,
				"element": "H" 
			},
			{
				"x": 2.2841214713,
				"y": -0.4017996754,
				"z": -0.8524576052,
				"element": "H" 
			}
		],
		 "valence_orbital": [ 
			{
				"type": "occ",
				"energy": -0.29035,
				"method": "rhf"
			},
			{
				"type": "occ",
				"energy": -0.27554,
				"method": "rhf"
			},
			{
				"type": "occ",
				"energy": -0.26293,
				"method": "rhf"
			},
			{
				"type": "occ",
				"energy": -0.25084,
				"method": "rhf"
			},
			{
				"type": "occ",
				"energy": -0.22381,
				"method": "rhf"
			},
			{
				"type": "unocc",
				"energy": -0.05791,
				"method": "rhf"
			},
			{
				"type": "unocc",
				"energy": -0.01861,
				"method": "rhf"
			},
			{
				"type": "unocc",
				"energy": -0.00959,
				"method": "rhf"
			},
			{
				"type": "unocc",
				"energy": 0.00563,
				"method": "rhf"
			},
			{
				"type": "unocc",
				"energy": 0.01144,
				"method": "rhf"
			}
		],
		"cosmo_sigma_profile": { 
			"-0.025": 0.0,
			"-0.024": 0.0,
			"-0.023": 0.0,
			"-0.022": 0.0,
			"-0.021": 0.0,
			"-0.02": 0.0,
			"-0.019": 0.0,
			"-0.018": 0.0,
			"-0.017": 0.0,
			"-0.016": 0.146472497722,
			"-0.015": 1.73971929104,
			"-0.014": 2.84404979108,
			"-0.013": 2.79131297347,
			"-0.012": 2.33498026715,
			"-0.011": 3.15959493555,
			"-0.01": 1.7467960395,
			"-0.009": 2.00269010472,
			"-0.008": 2.88156589628,
			"-0.007": 7.0091748907,
			"-0.006": 8.30186238861,
			"-0.005": 9.92449800467,
			"-0.004": 9.99546786738,
			"-0.003": 11.3771160675,
			"-0.002": 10.9018566625,
			"-0.001": 15.8953431559,
			"0.0": 19.9098964677,
			"0.001": 21.8098399063,
			"0.002": 27.5554919975,
			"0.003": 21.3771364152,
			"0.004": 14.9911007283,
			"0.005": 7.44260385905,
			"0.006": 2.87823558007,
			"0.007": 3.04909356805,
			"0.008": 2.06019961343,
			"0.009": 3.05134159884,
			"0.01": 2.64951181757,
			"0.011": 2.67744118759,
			"0.012": 3.64826990131,
			"0.013": 2.12997494357,
			"0.014": 1.39497489015,
			"0.015": 0.723272996583,
			"0.016": 0.101394522085,
			"0.017": 0.0,
			"0.018": 0.0,
			"0.019": 0.0,
			"0.02": 0.0,
			"0.021": 0.0,
			"0.022": 0.0,
			"0.023": 0.0,
			"0.024": 0.0,
			"0.025": 0.0
		}
	}
}
