{
	 "smiles": "CN(C)C1=CC=C(C=C1)[N+]([O-])=O", 
	 "Tm": 437.15, 
	 "num_atms": 22, 
	 "gaussian": { 
		 "optdone": 1, 
		 "sigma_profile": "yes", 
		 "theory": "DFT", 
		 "functional": "B3LYP", 
		 "basiset": "6-31G**", 
		 "properties": { 
			 "R2extent": 3562.1715, 
			 "electric_dipole_moment_norm": 8.03844915578, 
			 "electric_quadrupole_moment_norm": 21.0563259091, 
			 "total_energy": -570.726729613, 
			 "HOMO_LUMO_gap": 0.14696, 
			 "cosmo_polarized_energy": -12.94, 
			 "cosmo_cavitation_energy": 25.71, 
			 "cosmo_dispersion_energy": -19.04, 
			 "cosmo_repulsion_energy": 1.49, 
			 "cosmo_total_nonelectrostatic_energy": 8.16, 
			 "SMD_solvation_energy": 6.61 
		},
		"coords": [
			{
				"x": -1.3108504892,
				"y": -1.6337121679,
				"z": -0.4706674139,
				"element": "C" 
			},
			{
				"x": -1.255349068,
				"y": -1.0314173636,
				"z": 0.8527130682,
				"element": "N" 
			},
			{
				"x": -2.113689325,
				"y": -1.54291213,
				"z": 1.9104418905,
				"element": "C" 
			},
			{
				"x": -0.3992911867,
				"y": 0.0150794622,
				"z": 1.1013559021,
				"element": "C" 
			},
			{
				"x": -0.3295867482,
				"y": 0.6185902268,
				"z": 2.3852947125,
				"element": "C" 
			},
			{
				"x": 0.5339233325,
				"y": 1.6721225351,
				"z": 2.6330142257,
				"element": "C" 
			},
			{
				"x": 1.352459708,
				"y": 2.1550475745,
				"z": 1.6099571734,
				"element": "C" 
			},
			{
				"x": 1.3081549574,
				"y": 1.5841748706,
				"z": 0.3363741744,
				"element": "C" 
			},
			{
				"x": 0.4464999108,
				"y": 0.5304232055,
				"z": 0.0832069904,
				"element": "C" 
			},
			{
				"x": 2.2579523934,
				"y": 3.2609036167,
				"z": 1.8728711097,
				"element": "N" 
			},
			{
				"x": 2.2699969604,
				"y": 3.7404755887,
				"z": 3.010985103,
				"element": "O" 
			},
			{
				"x": 2.9665916236,
				"y": 3.6615079845,
				"z": 0.9440086741,
				"element": "O" 
			},
			{
				"x": -1.6132449914,
				"y": -0.9078754858,
				"z": -1.2369243594,
				"element": "H" 
			},
			{
				"x": -2.0430272256,
				"y": -2.441279483,
				"z": -0.4662020418,
				"element": "H" 
			},
			{
				"x": -0.3423354702,
				"y": -2.0576771316,
				"z": -0.7665878754,
				"element": "H" 
			},
			{
				"x": -2.7123596996,
				"y": -2.3656914015,
				"z": 1.5194122979,
				"element": "H" 
			},
			{
				"x": -1.5313884186,
				"y": -1.92307031,
				"z": 2.7599936188,
				"element": "H" 
			},
			{
				"x": -2.8012388062,
				"y": -0.7736354748,
				"z": 2.2858276245,
				"element": "H" 
			},
			{
				"x": -0.9549142583,
				"y": 0.2603850915,
				"z": 3.1927841241,
				"element": "H" 
			},
			{
				"x": 0.5870988065,
				"y": 2.1321753154,
				"z": 3.6120565375,
				"element": "H" 
			},
			{
				"x": 1.9531096216,
				"y": 1.9770114369,
				"z": -0.4399715031,
				"element": "H" 
			},
			{
				"x": 0.4285883727,
				"y": 0.1031740397,
				"z": -0.9110440331,
				"element": "H" 
			}
		],
		 "valence_orbital": [ 
			{
				"type": "occ",
				"energy": -0.28856,
				"method": "rhf"
			},
			{
				"type": "occ",
				"energy": -0.28751,
				"method": "rhf"
			},
			{
				"type": "occ",
				"energy": -0.26899,
				"method": "rhf"
			},
			{
				"type": "occ",
				"energy": -0.26712,
				"method": "rhf"
			},
			{
				"type": "occ",
				"energy": -0.21384,
				"method": "rhf"
			},
			{
				"type": "unocc",
				"energy": -0.06688,
				"method": "rhf"
			},
			{
				"type": "unocc",
				"energy": -0.0146,
				"method": "rhf"
			},
			{
				"type": "unocc",
				"energy": 0.02626,
				"method": "rhf"
			},
			{
				"type": "unocc",
				"energy": 0.06899,
				"method": "rhf"
			},
			{
				"type": "unocc",
				"energy": 0.08824,
				"method": "rhf"
			}
		],
		"cosmo_sigma_profile": { 
			"-0.025": 0.0,
			"-0.024": 0.0,
			"-0.023": 0.0,
			"-0.022": 0.0,
			"-0.021": 0.0,
			"-0.02": 0.0,
			"-0.019": 0.0,
			"-0.018": 0.0,
			"-0.017": 0.0,
			"-0.016": 0.0,
			"-0.015": 0.0,
			"-0.014": 0.0,
			"-0.013": 0.0,
			"-0.012": 0.0,
			"-0.011": 0.0,
			"-0.01": 0.0,
			"-0.009": 0.0,
			"-0.008": 0.87252361885,
			"-0.007": 5.44387287023,
			"-0.006": 12.3288764362,
			"-0.005": 20.6755692592,
			"-0.004": 18.653366164,
			"-0.003": 20.7856253175,
			"-0.002": 19.15295895,
			"-0.001": 12.258034231,
			"0.0": 11.2031375279,
			"0.001": 13.6948871903,
			"0.002": 13.0010676852,
			"0.003": 14.0954579457,
			"0.004": 7.72591333421,
			"0.005": 2.71213003346,
			"0.006": 2.35720736014,
			"0.007": 3.88879432333,
			"0.008": 5.12012744066,
			"0.009": 10.2456603391,
			"0.01": 5.19902475979,
			"0.011": 3.77834587042,
			"0.012": 1.13393574783,
			"0.013": 0.0,
			"0.014": 0.0,
			"0.015": 0.0,
			"0.016": 0.0,
			"0.017": 0.0,
			"0.018": 0.0,
			"0.019": 0.0,
			"0.02": 0.0,
			"0.021": 0.0,
			"0.022": 0.0,
			"0.023": 0.0,
			"0.024": 0.0,
			"0.025": 0.0
		}
	}
}
