{
	 "smiles": "OC(=O)C1=CC2=C(C=C1)C=C(C=C2)C#N", 
	 "Tm": 553.15, 
	 "num_atms": 22, 
	 "gaussian": { 
		 "optdone": 1, 
		 "sigma_profile": "yes", 
		 "theory": "DFT", 
		 "functional": "B3LYP", 
		 "basiset": "6-31G**", 
		 "properties": { 
			 "R2extent": 4130.89, 
			 "electric_dipole_moment_norm": 2.38473293473, 
			 "electric_quadrupole_moment_norm": 35.9887812614, 
			 "total_energy": -666.697006686, 
			 "HOMO_LUMO_gap": 0.16122, 
			 "cosmo_polarized_energy": -19.67, 
			 "cosmo_cavitation_energy": 28.35, 
			 "cosmo_dispersion_energy": -20.26, 
			 "cosmo_repulsion_energy": 1.55, 
			 "cosmo_total_nonelectrostatic_energy": 9.64, 
			 "SMD_solvation_energy": 7.14 
		},
		"coords": [
			{
				"x": -1.6800494502,
				"y": -3.250217826,
				"z": 0.5525045434,
				"element": "O" 
			},
			{
				"x": -2.1175509948,
				"y": -1.9669970087,
				"z": 0.6440379526,
				"element": "C" 
			},
			{
				"x": -3.2424374096,
				"y": -1.7330398568,
				"z": 1.0168850387,
				"element": "O" 
			},
			{
				"x": -1.1462943844,
				"y": -0.8890744591,
				"z": 0.2591698568,
				"element": "C" 
			},
			{
				"x": -0.0737973535,
				"y": -1.1118473007,
				"z": -0.5847989789,
				"element": "C" 
			},
			{
				"x": 0.8029741371,
				"y": -0.0575944007,
				"z": -0.9475584959,
				"element": "C" 
			},
			{
				"x": 0.5622801157,
				"y": 1.252656654,
				"z": -0.4201955467,
				"element": "C" 
			},
			{
				"x": -0.5575301017,
				"y": 1.4572785868,
				"z": 0.4340371192,
				"element": "C" 
			},
			{
				"x": -1.3955973119,
				"y": 0.4194764412,
				"z": 0.7565180096,
				"element": "C" 
			},
			{
				"x": 1.4396941153,
				"y": 2.3067906176,
				"z": -0.7719239276,
				"element": "C" 
			},
			{
				"x": 2.5141947443,
				"y": 2.076841896,
				"z": -1.6166482054,
				"element": "C" 
			},
			{
				"x": 2.7499444793,
				"y": 0.774260678,
				"z": -2.1459182773,
				"element": "C" 
			},
			{
				"x": 1.9103345892,
				"y": -0.2605851172,
				"z": -1.8161289954,
				"element": "C" 
			},
			{
				"x": 3.397470458,
				"y": 3.1513795075,
				"z": -1.9657505449,
				"element": "C" 
			},
			{
				"x": 4.1188232475,
				"y": 4.0176007215,
				"z": -2.2528683522,
				"element": "N" 
			},
			{
				"x": -0.722552933,
				"y": -3.2689321603,
				"z": 0.417252537,
				"element": "H" 
			},
			{
				"x": 0.10192181,
				"y": -2.091765458,
				"z": -1.0233930079,
				"element": "H" 
			},
			{
				"x": -0.7434729253,
				"y": 2.4539528108,
				"z": 0.824169008,
				"element": "H" 
			},
			{
				"x": -2.2613713363,
				"y": 0.5663450662,
				"z": 1.392397642,
				"element": "H" 
			},
			{
				"x": 1.2650157361,
				"y": 3.3021200145,
				"z": -0.3757964224,
				"element": "H" 
			},
			{
				"x": 3.5952494612,
				"y": 0.6170201933,
				"z": -2.8067910303,
				"element": "H" 
			},
			{
				"x": 2.0880513069,
				"y": -1.2537696,
				"z": -2.2189999222,
				"element": "H" 
			}
		],
		 "valence_orbital": [ 
			{
				"type": "occ",
				"energy": -0.32708,
				"method": "rhf"
			},
			{
				"type": "occ",
				"energy": -0.31924,
				"method": "rhf"
			},
			{
				"type": "occ",
				"energy": -0.28777,
				"method": "rhf"
			},
			{
				"type": "occ",
				"energy": -0.27398,
				"method": "rhf"
			},
			{
				"type": "occ",
				"energy": -0.25382,
				"method": "rhf"
			},
			{
				"type": "unocc",
				"energy": -0.0926,
				"method": "rhf"
			},
			{
				"type": "unocc",
				"energy": -0.05902,
				"method": "rhf"
			},
			{
				"type": "unocc",
				"energy": -0.02475,
				"method": "rhf"
			},
			{
				"type": "unocc",
				"energy": 0.01056,
				"method": "rhf"
			},
			{
				"type": "unocc",
				"energy": 0.02636,
				"method": "rhf"
			}
		],
		"cosmo_sigma_profile": { 
			"-0.025": 0.0,
			"-0.024": 0.0,
			"-0.023": 0.0,
			"-0.022": 0.0,
			"-0.021": 0.0,
			"-0.02": 0.0041345232151,
			"-0.019": 0.439485136573,
			"-0.018": 1.01750820856,
			"-0.017": 1.10421186181,
			"-0.016": 0.879273358444,
			"-0.015": 0.911615518165,
			"-0.014": 0.534312357004,
			"-0.013": 1.63945501104,
			"-0.012": 1.06111410365,
			"-0.011": 1.20255774413,
			"-0.01": 1.28044113861,
			"-0.009": 4.05541740316,
			"-0.008": 9.56055839568,
			"-0.007": 11.6379598967,
			"-0.006": 10.7462599333,
			"-0.005": 10.9698409792,
			"-0.004": 10.7343315874,
			"-0.003": 10.5149472074,
			"-0.002": 13.2501408631,
			"-0.001": 13.3795679642,
			"0.0": 21.7469812909,
			"0.001": 25.3431984259,
			"0.002": 14.4179368935,
			"0.003": 7.06996676424,
			"0.004": 2.88438793843,
			"0.005": 5.7193559266,
			"0.006": 4.73306638132,
			"0.007": 5.2864030615,
			"0.008": 6.16132175031,
			"0.009": 7.05728012161,
			"0.01": 8.15050139465,
			"0.011": 8.25528431629,
			"0.012": 5.9041502212,
			"0.013": 2.07571406638,
			"0.014": 6.41399235898e-05,
			"0.015": 0.0,
			"0.016": 0.0,
			"0.017": 0.0,
			"0.018": 0.0,
			"0.019": 0.0,
			"0.02": 0.0,
			"0.021": 0.0,
			"0.022": 0.0,
			"0.023": 0.0,
			"0.024": 0.0,
			"0.025": 0.0
		}
	}
}
