{
	 "smiles": "OC1=C(Cl)C(O)=C(Cl)C(O)=C1Cl", 
	 "Tm": 409.15, 
	 "num_atms": 15, 
	 "gaussian": { 
		 "optdone": 1, 
		 "sigma_profile": "yes", 
		 "theory": "DFT", 
		 "functional": "B3LYP", 
		 "basiset": "6-31G**", 
		 "properties": { 
			 "R2extent": 4331.5366, 
			 "electric_dipole_moment_norm": 2.77201183439, 
			 "electric_quadrupole_moment_norm": 13.0454209372, 
			 "total_energy": -1836.67443316, 
			 "HOMO_LUMO_gap": 0.20291, 
			 "cosmo_polarized_energy": -12.54, 
			 "cosmo_cavitation_energy": 24.59, 
			 "cosmo_dispersion_energy": -19.39, 
			 "cosmo_repulsion_energy": 1.54, 
			 "cosmo_total_nonelectrostatic_energy": 6.74, 
			 "SMD_solvation_energy": 4.61 
		},
		"coords": [
			{
				"x": 0.9216788174,
				"y": -0.5868913125,
				"z": 0.9645070481,
				"element": "O" 
			},
			{
				"x": -0.2666301594,
				"y": -0.7312768477,
				"z": 0.342630921,
				"element": "C" 
			},
			{
				"x": -1.0713108667,
				"y": -1.8245330796,
				"z": 0.6790533853,
				"element": "C" 
			},
			{
				"x": -0.5241262304,
				"y": -2.9691725616,
				"z": 1.8870864686,
				"element": "Cl" 
			},
			{
				"x": -2.3186738905,
				"y": -2.029466809,
				"z": 0.0669417265,
				"element": "C" 
			},
			{
				"x": -3.1076181279,
				"y": -3.0752481206,
				"z": 0.3770336965,
				"element": "O" 
			},
			{
				"x": -2.7685002745,
				"y": -1.1198541835,
				"z": -0.9022890648,
				"element": "C" 
			},
			{
				"x": -4.3111444241,
				"y": -1.3632139061,
				"z": -1.667027693,
				"element": "Cl" 
			},
			{
				"x": -1.9822699557,
				"y": -0.0159627497,
				"z": -1.2581707534,
				"element": "C" 
			},
			{
				"x": -2.4529955177,
				"y": 0.83280055,
				"z": -2.1939243119,
				"element": "O" 
			},
			{
				"x": -0.7406762387,
				"y": 0.1606421596,
				"z": -0.6279891454,
				"element": "C" 
			},
			{
				"x": 0.2560336913,
				"y": 1.5478225182,
				"z": -1.0696928913,
				"element": "Cl" 
			},
			{
				"x": 1.3620938336,
				"y": 0.2087407278,
				"z": 0.630182473,
				"element": "H" 
			},
			{
				"x": -2.6644293996,
				"y": -3.6085367083,
				"z": 1.0559144759,
				"element": "H" 
			},
			{
				"x": -1.8086312572,
				"y": 1.541950323,
				"z": -2.3366563351,
				"element": "H" 
			}
		],
		 "valence_orbital": [ 
			{
				"type": "occ",
				"energy": -0.34026,
				"method": "rhf"
			},
			{
				"type": "occ",
				"energy": -0.31106,
				"method": "rhf"
			},
			{
				"type": "occ",
				"energy": -0.30067,
				"method": "rhf"
			},
			{
				"type": "occ",
				"energy": -0.23708,
				"method": "rhf"
			},
			{
				"type": "occ",
				"energy": -0.23025,
				"method": "rhf"
			},
			{
				"type": "unocc",
				"energy": -0.02734,
				"method": "rhf"
			},
			{
				"type": "unocc",
				"energy": -0.01299,
				"method": "rhf"
			},
			{
				"type": "unocc",
				"energy": -0.01284,
				"method": "rhf"
			},
			{
				"type": "unocc",
				"energy": 0.02976,
				"method": "rhf"
			},
			{
				"type": "unocc",
				"energy": 0.04648,
				"method": "rhf"
			}
		],
		"cosmo_sigma_profile": { 
			"-0.025": 0.0,
			"-0.024": 0.0,
			"-0.023": 0.0,
			"-0.022": 0.0,
			"-0.021": 0.0,
			"-0.02": 0.0,
			"-0.019": 0.0,
			"-0.018": 0.0,
			"-0.017": 0.70662471768,
			"-0.016": 1.42157680095,
			"-0.015": 1.36101428218,
			"-0.014": 1.90434400241,
			"-0.013": 3.06561149195,
			"-0.012": 2.91131060913,
			"-0.011": 2.58451046689,
			"-0.01": 2.921576951,
			"-0.009": 2.62459887246,
			"-0.008": 3.87139345911,
			"-0.007": 3.95834954482,
			"-0.006": 2.66027949743,
			"-0.005": 3.11391700542,
			"-0.004": 5.89245192685,
			"-0.003": 8.97314850419,
			"-0.002": 13.0166771441,
			"-0.001": 16.5165712058,
			"0.0": 25.9909610124,
			"0.001": 18.1340742831,
			"0.002": 15.3785364056,
			"0.003": 14.0265820202,
			"0.004": 15.4563194428,
			"0.005": 10.3382889747,
			"0.006": 6.19639890363,
			"0.007": 5.40160685305,
			"0.008": 5.94603859374,
			"0.009": 6.70610241976,
			"0.01": 3.10858766099,
			"0.011": 0.0200552736781,
			"0.012": 0.0,
			"0.013": 0.0,
			"0.014": 0.0,
			"0.015": 0.0,
			"0.016": 0.0,
			"0.017": 0.0,
			"0.018": 0.0,
			"0.019": 0.0,
			"0.02": 0.0,
			"0.021": 0.0,
			"0.022": 0.0,
			"0.023": 0.0,
			"0.024": 0.0,
			"0.025": 0.0
		}
	}
}
