{
	 "smiles": "CC1=CC(C)=C(N=C=O)C(C)=C1", 
	 "Tm": 317.65, 
	 "num_atms": 23, 
	 "gaussian": { 
		 "optdone": 1, 
		 "sigma_profile": "yes", 
		 "theory": "DFT", 
		 "functional": "B3LYP", 
		 "basiset": "6-31G**", 
		 "properties": { 
			 "R2extent": 2885.9222, 
			 "electric_dipole_moment_norm": 2.64775432017, 
			 "electric_quadrupole_moment_norm": 7.56731201617, 
			 "total_energy": -517.692634109, 
			 "HOMO_LUMO_gap": 0.20501, 
			 "cosmo_polarized_energy": -4.76, 
			 "cosmo_cavitation_energy": 27.12, 
			 "cosmo_dispersion_energy": -19.23, 
			 "cosmo_repulsion_energy": 1.54, 
			 "cosmo_total_nonelectrostatic_energy": 9.42, 
			 "SMD_solvation_energy": 6.94 
		},
		"coords": [
			{
				"x": 3.0173032609,
				"y": -2.9571795315,
				"z": -2.6008026564,
				"element": "C" 
			},
			{
				"x": 1.9823298992,
				"y": -2.0673303167,
				"z": -1.9537369813,
				"element": "C" 
			},
			{
				"x": 1.7250351215,
				"y": -2.1429745309,
				"z": -0.5806112961,
				"element": "C" 
			},
			{
				"x": 0.7527460567,
				"y": -1.3534170003,
				"z": 0.0362401488,
				"element": "C" 
			},
			{
				"x": 0.4901553289,
				"y": -1.4469132318,
				"z": 1.5179413001,
				"element": "C" 
			},
			{
				"x": 0.0182522689,
				"y": -0.4562823878,
				"z": -0.7622148167,
				"element": "C" 
			},
			{
				"x": -0.9482627767,
				"y": 0.3271028043,
				"z": -0.123884971,
				"element": "N" 
			},
			{
				"x": -1.7906136209,
				"y": 1.175785075,
				"z": -0.2750876869,
				"element": "C" 
			},
			{
				"x": -2.6397844535,
				"y": 1.9975268821,
				"z": -0.2844139588,
				"element": "O" 
			},
			{
				"x": 0.250873945,
				"y": -0.3474779098,
				"z": -2.1483126033,
				"element": "C" 
			},
			{
				"x": -0.534588337,
				"y": 0.6201517721,
				"z": -2.9958179953,
				"element": "C" 
			},
			{
				"x": 1.2358057017,
				"y": -1.1614901787,
				"z": -2.713986201,
				"element": "C" 
			},
			{
				"x": 3.450074549,
				"y": -2.4878215402,
				"z": -3.4894164127,
				"element": "H" 
			},
			{
				"x": 2.5785587452,
				"y": -3.9116652112,
				"z": -2.9184028792,
				"element": "H" 
			},
			{
				"x": 3.8331416481,
				"y": -3.1901937947,
				"z": -1.9097811243,
				"element": "H" 
			},
			{
				"x": 2.2981131898,
				"y": -2.8358621329,
				"z": 0.0312898872,
				"element": "H" 
			},
			{
				"x": -0.5481162109,
				"y": -1.7313055733,
				"z": 1.721430877,
				"element": "H" 
			},
			{
				"x": 1.1453428257,
				"y": -2.1870147591,
				"z": 1.9842157916,
				"element": "H" 
			},
			{
				"x": 0.6533814405,
				"y": -0.4835120471,
				"z": 2.0134331526,
				"element": "H" 
			},
			{
				"x": -0.4022180479,
				"y": 1.6562403274,
				"z": -2.6609897613,
				"element": "H" 
			},
			{
				"x": -0.2177450881,
				"y": 0.5670254851,
				"z": -4.0400436613,
				"element": "H" 
			},
			{
				"x": -1.6105395731,
				"y": 0.4093573481,
				"z": -2.9644107665,
				"element": "H" 
			},
			{
				"x": 1.4237541268,
				"y": -1.0816495484,
				"z": -3.7823373853,
				"element": "H" 
			}
		],
		 "valence_orbital": [ 
			{
				"type": "occ",
				"energy": -0.34489,
				"method": "rhf"
			},
			{
				"type": "occ",
				"energy": -0.31176,
				"method": "rhf"
			},
			{
				"type": "occ",
				"energy": -0.2973,
				"method": "rhf"
			},
			{
				"type": "occ",
				"energy": -0.24276,
				"method": "rhf"
			},
			{
				"type": "occ",
				"energy": -0.22113,
				"method": "rhf"
			},
			{
				"type": "unocc",
				"energy": -0.01612,
				"method": "rhf"
			},
			{
				"type": "unocc",
				"energy": -0.00057,
				"method": "rhf"
			},
			{
				"type": "unocc",
				"energy": 0.02812,
				"method": "rhf"
			},
			{
				"type": "unocc",
				"energy": 0.0821,
				"method": "rhf"
			},
			{
				"type": "unocc",
				"energy": 0.09787,
				"method": "rhf"
			}
		],
		"cosmo_sigma_profile": { 
			"-0.025": 0.0,
			"-0.024": 0.0,
			"-0.023": 0.0,
			"-0.022": 0.0,
			"-0.021": 0.0,
			"-0.02": 0.0,
			"-0.019": 0.0,
			"-0.018": 0.0,
			"-0.017": 0.0,
			"-0.016": 0.0,
			"-0.015": 0.0,
			"-0.014": 0.0,
			"-0.013": 0.0,
			"-0.012": 0.0,
			"-0.011": 0.0,
			"-0.01": 0.0,
			"-0.009": 0.0,
			"-0.008": 0.0,
			"-0.007": 0.0,
			"-0.006": 1.49377426323,
			"-0.005": 11.837912872,
			"-0.004": 22.3200422494,
			"-0.003": 20.6324503756,
			"-0.002": 24.0933667343,
			"-0.001": 25.5364516382,
			"0.0": 30.235270375,
			"0.001": 17.3819702842,
			"0.002": 13.6853683489,
			"0.003": 12.0996775166,
			"0.004": 9.25920291773,
			"0.005": 9.44533390164,
			"0.006": 5.40107072356,
			"0.007": 2.79040317778,
			"0.008": 8.08794019566,
			"0.009": 1.07436443514,
			"0.01": 0.0,
			"0.011": 0.0,
			"0.012": 0.0,
			"0.013": 0.0,
			"0.014": 0.0,
			"0.015": 0.0,
			"0.016": 0.0,
			"0.017": 0.0,
			"0.018": 0.0,
			"0.019": 0.0,
			"0.02": 0.0,
			"0.021": 0.0,
			"0.022": 0.0,
			"0.023": 0.0,
			"0.024": 0.0,
			"0.025": 0.0
		}
	}
}
