{
	 "smiles": "CCOP(=S)(NC(C)C)OC1=C(C=CC=C1)C(=O)OC(C)C", 
	 "Tm": 261.15, 
	 "num_atms": 46, 
	 "gaussian": { 
		 "optdone": 1, 
		 "sigma_profile": "yes", 
		 "theory": "DFT", 
		 "functional": "B3LYP", 
		 "basiset": "6-31G**", 
		 "properties": { 
			 "R2extent": 8499.0875, 
			 "electric_dipole_moment_norm": 5.29733216251, 
			 "electric_quadrupole_moment_norm": 25.4662995237, 
			 "total_energy": -1681.34171213, 
			 "HOMO_LUMO_gap": 0.18163, 
			 "cosmo_polarized_energy": -17.32, 
			 "cosmo_cavitation_energy": 50.28, 
			 "cosmo_dispersion_energy": -31.35, 
			 "cosmo_repulsion_energy": 2.35, 
			 "cosmo_total_nonelectrostatic_energy": 21.28, 
			 "SMD_solvation_energy": 8.55 
		},
		"coords": [
			{
				"x": -2.9467830938,
				"y": 0.9504570949,
				"z": 3.3575706303,
				"element": "C" 
			},
			{
				"x": -2.1043859595,
				"y": -0.1971449884,
				"z": 2.8311263916,
				"element": "C" 
			},
			{
				"x": -0.7472946827,
				"y": 0.0062410593,
				"z": 3.2948869353,
				"element": "O" 
			},
			{
				"x": 0.5062161018,
				"y": -0.8787972702,
				"z": 2.7794351967,
				"element": "P" 
			},
			{
				"x": 1.9005448741,
				"y": -0.9549512619,
				"z": 4.1274686032,
				"element": "S" 
			},
			{
				"x": -0.0487765014,
				"y": -2.363745383,
				"z": 2.2564164415,
				"element": "N" 
			},
			{
				"x": -0.3175592509,
				"y": -2.7819012754,
				"z": 0.8615942964,
				"element": "C" 
			},
			{
				"x": 0.9444992522,
				"y": -3.33222033,
				"z": 0.1853168926,
				"element": "C" 
			},
			{
				"x": -1.4609430533,
				"y": -3.8020377749,
				"z": 0.8571842323,
				"element": "C" 
			},
			{
				"x": 0.8543345948,
				"y": -0.1957157286,
				"z": 1.3085984242,
				"element": "O" 
			},
			{
				"x": 1.3517039333,
				"y": 1.0966599068,
				"z": 1.1945362766,
				"element": "C" 
			},
			{
				"x": 0.54018857,
				"y": 2.1453419025,
				"z": 0.7277126554,
				"element": "C" 
			},
			{
				"x": 1.0906215692,
				"y": 3.4372772871,
				"z": 0.6731543959,
				"element": "C" 
			},
			{
				"x": 2.4147049108,
				"y": 3.6760973212,
				"z": 1.0233653532,
				"element": "C" 
			},
			{
				"x": 3.2157412565,
				"y": 2.6144711692,
				"z": 1.4474889042,
				"element": "C" 
			},
			{
				"x": 2.6845608732,
				"y": 1.3300374108,
				"z": 1.5395031347,
				"element": "C" 
			},
			{
				"x": -0.8704322354,
				"y": 2.0354437954,
				"z": 0.2428909936,
				"element": "C" 
			},
			{
				"x": -1.6814811619,
				"y": 2.933621629,
				"z": 0.377623569,
				"element": "O" 
			},
			{
				"x": -1.1322824188,
				"y": 0.8961498505,
				"z": -0.4382018523,
				"element": "O" 
			},
			{
				"x": -2.4143900478,
				"y": 0.851554158,
				"z": -1.1445986102,
				"element": "C" 
			},
			{
				"x": -2.3081851518,
				"y": 1.6617343432,
				"z": -2.4336033137,
				"element": "C" 
			},
			{
				"x": -2.7219105503,
				"y": -0.6177827343,
				"z": -1.3920215769,
				"element": "C" 
			},
			{
				"x": -2.6116824781,
				"y": 1.9023198198,
				"z": 2.9378964796,
				"element": "H" 
			},
			{
				"x": -3.9944403109,
				"y": 0.7982515085,
				"z": 3.0770444495,
				"element": "H" 
			},
			{
				"x": -2.8839407185,
				"y": 1.0035944042,
				"z": 4.4478032292,
				"element": "H" 
			},
			{
				"x": -2.1186271827,
				"y": -0.2224217731,
				"z": 1.7370357691,
				"element": "H" 
			},
			{
				"x": -2.4546555647,
				"y": -1.1646189503,
				"z": 3.2054997289,
				"element": "H" 
			},
			{
				"x": 0.3141434637,
				"y": -3.1071133624,
				"z": 2.8433994968,
				"element": "H" 
			},
			{
				"x": -0.6340092116,
				"y": -1.8854063054,
				"z": 0.3244853419,
				"element": "H" 
			},
			{
				"x": 1.7365350633,
				"y": -2.5797792868,
				"z": 0.1786760416,
				"element": "H" 
			},
			{
				"x": 1.3141447472,
				"y": -4.2198290463,
				"z": 0.7127960416,
				"element": "H" 
			},
			{
				"x": 0.7345167908,
				"y": -3.6221540088,
				"z": -0.8499070471,
				"element": "H" 
			},
			{
				"x": -1.7022323175,
				"y": -4.1059191944,
				"z": -0.1665562219,
				"element": "H" 
			},
			{
				"x": -2.3613311704,
				"y": -3.3878115231,
				"z": 1.3197991038,
				"element": "H" 
			},
			{
				"x": -1.1813137525,
				"y": -4.7049264936,
				"z": 1.4132491138,
				"element": "H" 
			},
			{
				"x": 0.4487378507,
				"y": 4.2455806541,
				"z": 0.3404901701,
				"element": "H" 
			},
			{
				"x": 2.8196960483,
				"y": 4.681212499,
				"z": 0.9614012691,
				"element": "H" 
			},
			{
				"x": 4.2533712066,
				"y": 2.7834030101,
				"z": 1.7192180279,
				"element": "H" 
			},
			{
				"x": 3.2818499921,
				"y": 0.4999608922,
				"z": 1.8958941818,
				"element": "H" 
			},
			{
				"x": -3.1656883541,
				"y": 1.3008237017,
				"z": -0.4894123393,
				"element": "H" 
			},
			{
				"x": -2.0942920322,
				"y": 2.7098083562,
				"z": -2.215107434,
				"element": "H" 
			},
			{
				"x": -3.254208847,
				"y": 1.6147718002,
				"z": -2.9825567707,
				"element": "H" 
			},
			{
				"x": -1.5170754059,
				"y": 1.2605281381,
				"z": -3.0752007632,
				"element": "H" 
			},
			{
				"x": -2.8121060969,
				"y": -1.1711836539,
				"z": -0.4534082786,
				"element": "H" 
			},
			{
				"x": -3.6693143027,
				"y": -0.7105903626,
				"z": -1.9318924959,
				"element": "H" 
			},
			{
				"x": -1.9369692451,
				"y": -1.0831910046,
				"z": -1.9965950676,
				"element": "H" 
			}
		],
		 "valence_orbital": [ 
			{
				"type": "occ",
				"energy": -0.27391,
				"method": "rhf"
			},
			{
				"type": "occ",
				"energy": -0.25958,
				"method": "rhf"
			},
			{
				"type": "occ",
				"energy": -0.24969,
				"method": "rhf"
			},
			{
				"type": "occ",
				"energy": -0.23263,
				"method": "rhf"
			},
			{
				"type": "occ",
				"energy": -0.22424,
				"method": "rhf"
			},
			{
				"type": "unocc",
				"energy": -0.04261,
				"method": "rhf"
			},
			{
				"type": "unocc",
				"energy": -0.00878,
				"method": "rhf"
			},
			{
				"type": "unocc",
				"energy": 0.03626,
				"method": "rhf"
			},
			{
				"type": "unocc",
				"energy": 0.04278,
				"method": "rhf"
			},
			{
				"type": "unocc",
				"energy": 0.04971,
				"method": "rhf"
			}
		],
		"cosmo_sigma_profile": { 
			"-0.025": 0.0,
			"-0.024": 0.0,
			"-0.023": 0.0,
			"-0.022": 0.0,
			"-0.021": 0.0,
			"-0.02": 0.0,
			"-0.019": 0.0,
			"-0.018": 0.0,
			"-0.017": 0.0,
			"-0.016": 0.0,
			"-0.015": 0.0,
			"-0.014": 0.0,
			"-0.013": 0.411530992802,
			"-0.012": 0.795017611115,
			"-0.011": 1.33268892639,
			"-0.01": 0.457430127702,
			"-0.009": 1.18578233224,
			"-0.008": 1.18731262484,
			"-0.007": 4.71750473594,
			"-0.006": 8.86076870206,
			"-0.005": 17.6234860354,
			"-0.004": 38.8482640342,
			"-0.003": 43.6332087079,
			"-0.002": 42.8818051171,
			"-0.001": 41.4091276512,
			"0.0": 46.9311383773,
			"0.001": 33.5985013187,
			"0.002": 20.2462402532,
			"0.003": 20.8476621853,
			"0.004": 13.2091646253,
			"0.005": 9.35532606981,
			"0.006": 8.6655095928,
			"0.007": 8.19335406876,
			"0.008": 8.23682033828,
			"0.009": 7.75509394718,
			"0.01": 8.17438447689,
			"0.011": 5.12286940587,
			"0.012": 2.31455246948,
			"0.013": 0.114782926276,
			"0.014": 0.0,
			"0.015": 0.0,
			"0.016": 0.0,
			"0.017": 0.0,
			"0.018": 0.0,
			"0.019": 0.0,
			"0.02": 0.0,
			"0.021": 0.0,
			"0.022": 0.0,
			"0.023": 0.0,
			"0.024": 0.0,
			"0.025": 0.0
		}
	}
}
