{
	 "smiles": "NC1=C(C=CC=C1)C(=O)N1CCOCC1", 
	 "Tm": 348.15, 
	 "num_atms": 29, 
	 "gaussian": { 
		 "optdone": 1, 
		 "sigma_profile": "yes", 
		 "theory": "DFT", 
		 "functional": "B3LYP", 
		 "basiset": "6-31G**", 
		 "properties": { 
			 "R2extent": 3496.5403, 
			 "electric_dipole_moment_norm": 3.61894545552, 
			 "electric_quadrupole_moment_norm": 11.408305986, 
			 "total_energy": -687.558069451, 
			 "HOMO_LUMO_gap": 0.18142, 
			 "cosmo_polarized_energy": -15.65, 
			 "cosmo_cavitation_energy": 31.36, 
			 "cosmo_dispersion_energy": -22.31, 
			 "cosmo_repulsion_energy": 1.74, 
			 "cosmo_total_nonelectrostatic_energy": 10.78, 
			 "SMD_solvation_energy": 5.43 
		},
		"coords": [
			{
				"x": 1.5777610735,
				"y": 0.2240492819,
				"z": -1.8154246266,
				"element": "N" 
			},
			{
				"x": 0.6754600649,
				"y": 1.1872808989,
				"z": -1.3957482819,
				"element": "C" 
			},
			{
				"x": 0.3607353268,
				"y": 1.3707646066,
				"z": -0.0252303109,
				"element": "C" 
			},
			{
				"x": -0.4543039432,
				"y": 2.4457851771,
				"z": 0.3567576402,
				"element": "C" 
			},
			{
				"x": -1.0214483552,
				"y": 3.3006117559,
				"z": -0.5817828189,
				"element": "C" 
			},
			{
				"x": -0.7401402522,
				"y": 3.0950517016,
				"z": -1.936461038,
				"element": "C" 
			},
			{
				"x": 0.1002504649,
				"y": 2.0637381404,
				"z": -2.3371721703,
				"element": "C" 
			},
			{
				"x": 0.9444800215,
				"y": 0.5347022781,
				"z": 1.0764353272,
				"element": "C" 
			},
			{
				"x": 1.4653495392,
				"y": 1.047316506,
				"z": 2.0599726948,
				"element": "O" 
			},
			{
				"x": 0.9014526791,
				"y": -0.8550486056,
				"z": 0.9287915532,
				"element": "N" 
			},
			{
				"x": -0.2441916106,
				"y": -1.5260109204,
				"z": 0.2943823661,
				"element": "C" 
			},
			{
				"x": 0.1674836616,
				"y": -2.929521315,
				"z": -0.1478343321,
				"element": "C" 
			},
			{
				"x": 0.6904787165,
				"y": -3.6849152858,
				"z": 0.9323619441,
				"element": "O" 
			},
			{
				"x": 1.8216594253,
				"y": -3.0411892612,
				"z": 1.5081197813,
				"element": "C" 
			},
			{
				"x": 1.4764523875,
				"y": -1.6469880929,
				"z": 2.0232844384,
				"element": "C" 
			},
			{
				"x": 1.8280772818,
				"y": -0.5019225649,
				"z": -1.1608252634,
				"element": "H" 
			},
			{
				"x": 1.561339899,
				"y": -0.0421195096,
				"z": -2.7871134366,
				"element": "H" 
			},
			{
				"x": -0.6370455688,
				"y": 2.5901813006,
				"z": 1.4171157884,
				"element": "H" 
			},
			{
				"x": -1.6644840137,
				"y": 4.11575112,
				"z": -0.2666440128,
				"element": "H" 
			},
			{
				"x": -1.1700533947,
				"y": 3.7511186829,
				"z": -2.68845385,
				"element": "H" 
			},
			{
				"x": 0.3391392416,
				"y": 1.9330918699,
				"z": -3.3899495479,
				"element": "H" 
			},
			{
				"x": -0.5934289868,
				"y": -0.9433875505,
				"z": -0.5588158449,
				"element": "H" 
			},
			{
				"x": -1.073164741,
				"y": -1.6069444974,
				"z": 1.0143199091,
				"element": "H" 
			},
			{
				"x": 0.9122406915,
				"y": -2.8572782487,
				"z": -0.959753811,
				"element": "H" 
			},
			{
				"x": -0.7004390281,
				"y": -3.4783672682,
				"z": -0.5247582149,
				"element": "H" 
			},
			{
				"x": 2.6348864059,
				"y": -2.9712898663,
				"z": 0.7660217525,
				"element": "H" 
			},
			{
				"x": 2.157163066,
				"y": -3.6795557826,
				"z": 2.3300934255,
				"element": "H" 
			},
			{
				"x": 2.361758994,
				"y": -1.1300340194,
				"z": 2.3963912771,
				"element": "H" 
			},
			{
				"x": 0.7603309535,
				"y": -1.7237705316,
				"z": 2.8549196622,
				"element": "H" 
			}
		],
		 "valence_orbital": [ 
			{
				"type": "occ",
				"energy": -0.27462,
				"method": "rhf"
			},
			{
				"type": "occ",
				"energy": -0.26437,
				"method": "rhf"
			},
			{
				"type": "occ",
				"energy": -0.24674,
				"method": "rhf"
			},
			{
				"type": "occ",
				"energy": -0.23791,
				"method": "rhf"
			},
			{
				"type": "occ",
				"energy": -0.20471,
				"method": "rhf"
			},
			{
				"type": "unocc",
				"energy": -0.02329,
				"method": "rhf"
			},
			{
				"type": "unocc",
				"energy": 0.01007,
				"method": "rhf"
			},
			{
				"type": "unocc",
				"energy": 0.04014,
				"method": "rhf"
			},
			{
				"type": "unocc",
				"energy": 0.07014,
				"method": "rhf"
			},
			{
				"type": "unocc",
				"energy": 0.09643,
				"method": "rhf"
			}
		],
		"cosmo_sigma_profile": { 
			"-0.025": 0.0,
			"-0.024": 0.0,
			"-0.023": 0.0,
			"-0.022": 0.0,
			"-0.021": 0.0,
			"-0.02": 0.0,
			"-0.019": 0.0,
			"-0.018": 0.0,
			"-0.017": 0.0,
			"-0.016": 0.0,
			"-0.015": 0.0,
			"-0.014": 0.00586005872327,
			"-0.013": 0.782201263451,
			"-0.012": 1.22695039021,
			"-0.011": 1.55486461158,
			"-0.01": 1.21830238305,
			"-0.009": 1.04845617619,
			"-0.008": 1.44350805665,
			"-0.007": 2.11354791226,
			"-0.006": 8.74137974598,
			"-0.005": 24.069956192,
			"-0.004": 37.5578401808,
			"-0.003": 31.813852317,
			"-0.002": 19.3774763349,
			"-0.001": 12.9898674177,
			"0.0": 10.7528166582,
			"0.001": 9.5550565803,
			"0.002": 7.73307464183,
			"0.003": 8.90260393622,
			"0.004": 10.6031252018,
			"0.005": 11.1395236534,
			"0.006": 12.2889367875,
			"0.007": 3.45202122503,
			"0.008": 3.97358367671,
			"0.009": 3.30085840144,
			"0.01": 3.42049446242,
			"0.011": 4.44809185762,
			"0.012": 4.00423223367,
			"0.013": 6.62746816777,
			"0.014": 2.04406709027,
			"0.015": 0.220776847406,
			"0.016": 0.0,
			"0.017": 0.0,
			"0.018": 0.0,
			"0.019": 0.0,
			"0.02": 0.0,
			"0.021": 0.0,
			"0.022": 0.0,
			"0.023": 0.0,
			"0.024": 0.0,
			"0.025": 0.0
		}
	}
}
