{
	 "smiles": "CCC(NC1=C(C(C)=NN1C)[N+]([O-])=O)C(O)=O", 
	 "Tm": 403.15, 
	 "num_atms": 31, 
	 "gaussian": { 
		 "optdone": 1, 
		 "sigma_profile": "yes", 
		 "theory": "DFT", 
		 "functional": "B3LYP", 
		 "basiset": "6-31G**", 
		 "properties": { 
			 "R2extent": 4602.2733, 
			 "electric_dipole_moment_norm": 5.1818225838, 
			 "electric_quadrupole_moment_norm": 14.6400846613, 
			 "total_energy": -871.203101606, 
			 "HOMO_LUMO_gap": 0.16233, 
			 "cosmo_polarized_energy": -17.74, 
			 "cosmo_cavitation_energy": 34.54, 
			 "cosmo_dispersion_energy": -24.07, 
			 "cosmo_repulsion_energy": 1.88, 
			 "cosmo_total_nonelectrostatic_energy": 12.36, 
			 "SMD_solvation_energy": 7.14 
		},
		"coords": [
			{
				"x": -1.0033366126,
				"y": -0.1395212606,
				"z": -3.6656394057,
				"element": "C" 
			},
			{
				"x": -0.2434691909,
				"y": -0.0347851275,
				"z": -2.341026381,
				"element": "C" 
			},
			{
				"x": -0.9137497895,
				"y": 0.8870285991,
				"z": -1.2855667123,
				"element": "C" 
			},
			{
				"x": -0.3629108614,
				"y": 0.7135558557,
				"z": 0.059342829,
				"element": "N" 
			},
			{
				"x": -0.1947418294,
				"y": -0.4531481313,
				"z": 0.7443826666,
				"element": "C" 
			},
			{
				"x": -0.8862282441,
				"y": -1.6859061111,
				"z": 0.8348421951,
				"element": "C" 
			},
			{
				"x": -0.1803427021,
				"y": -2.4678788494,
				"z": 1.8059145395,
				"element": "C" 
			},
			{
				"x": -0.4638669081,
				"y": -3.8501898513,
				"z": 2.299051044,
				"element": "C" 
			},
			{
				"x": 0.8404600557,
				"y": -1.7873016673,
				"z": 2.2860783601,
				"element": "N" 
			},
			{
				"x": 0.8308913471,
				"y": -0.5775835972,
				"z": 1.6267420832,
				"element": "N" 
			},
			{
				"x": 1.841606306,
				"y": 0.4107493157,
				"z": 1.9440585491,
				"element": "C" 
			},
			{
				"x": -2.083515189,
				"y": -2.0648054192,
				"z": 0.1901238339,
				"element": "N" 
			},
			{
				"x": -2.5088742419,
				"y": -3.2109015149,
				"z": 0.3836115235,
				"element": "O" 
			},
			{
				"x": -2.6688934407,
				"y": -1.2351965012,
				"z": -0.5296552723,
				"element": "O" 
			},
			{
				"x": -0.6840426754,
				"y": 2.3547327666,
				"z": -1.6156606317,
				"element": "C" 
			},
			{
				"x": -1.4598011994,
				"y": 2.7843930876,
				"z": -2.6252728541,
				"element": "O" 
			},
			{
				"x": 0.1227987519,
				"y": 3.0682611567,
				"z": -1.0514544258,
				"element": "O" 
			},
			{
				"x": -2.0196802646,
				"y": -0.5078391482,
				"z": -3.4944204621,
				"element": "H" 
			},
			{
				"x": -0.4992490436,
				"y": -0.8451820425,
				"z": -4.332969243,
				"element": "H" 
			},
			{
				"x": -1.0725443053,
				"y": 0.8223058639,
				"z": -4.1795541765,
				"element": "H" 
			},
			{
				"x": -0.184454221,
				"y": -1.0285596197,
				"z": -1.886704988,
				"element": "H" 
			},
			{
				"x": 0.7899134744,
				"y": 0.298502199,
				"z": -2.5019316608,
				"element": "H" 
			},
			{
				"x": -1.9846070006,
				"y": 0.6850703104,
				"z": -1.2782667935,
				"element": "H" 
			},
			{
				"x": 0.2936845836,
				"y": 1.4531014609,
				"z": 0.2847040497,
				"element": "H" 
			},
			{
				"x": 0.2787368829,
				"y": -4.1147166841,
				"z": 3.0548369094,
				"element": "H" 
			},
			{
				"x": -1.466340869,
				"y": -3.9168905422,
				"z": 2.7303386525,
				"element": "H" 
			},
			{
				"x": -0.4290340306,
				"y": -4.5753155109,
				"z": 1.4814223466,
				"element": "H" 
			},
			{
				"x": 1.413101703,
				"y": 1.2748718164,
				"z": 2.4649720796,
				"element": "H" 
			},
			{
				"x": 2.5629746389,
				"y": -0.0766835406,
				"z": 2.5982653881,
				"element": "H" 
			},
			{
				"x": 2.3515958084,
				"y": 0.7532290617,
				"z": 1.0370704068,
				"element": "H" 
			},
			{
				"x": -1.2201809326,
				"y": 3.7133036253,
				"z": -2.7866344497,
				"element": "H" 
			}
		],
		 "valence_orbital": [ 
			{
				"type": "occ",
				"energy": -0.28953,
				"method": "rhf"
			},
			{
				"type": "occ",
				"energy": -0.28716,
				"method": "rhf"
			},
			{
				"type": "occ",
				"energy": -0.26796,
				"method": "rhf"
			},
			{
				"type": "occ",
				"energy": -0.25961,
				"method": "rhf"
			},
			{
				"type": "occ",
				"energy": -0.22238,
				"method": "rhf"
			},
			{
				"type": "unocc",
				"energy": -0.06005,
				"method": "rhf"
			},
			{
				"type": "unocc",
				"energy": -0.0154,
				"method": "rhf"
			},
			{
				"type": "unocc",
				"energy": 0.01926,
				"method": "rhf"
			},
			{
				"type": "unocc",
				"energy": 0.05554,
				"method": "rhf"
			},
			{
				"type": "unocc",
				"energy": 0.07193,
				"method": "rhf"
			}
		],
		"cosmo_sigma_profile": { 
			"-0.025": 0.0,
			"-0.024": 0.0,
			"-0.023": 0.0,
			"-0.022": 0.0,
			"-0.021": 0.0,
			"-0.02": 0.0217495611193,
			"-0.019": 0.666169602797,
			"-0.018": 1.00411582468,
			"-0.017": 0.911668502135,
			"-0.016": 1.01032637184,
			"-0.015": 0.813969005425,
			"-0.014": 0.371112089033,
			"-0.013": 0.743233842985,
			"-0.012": 0.506240146421,
			"-0.011": 0.992572292252,
			"-0.01": 1.18390279788,
			"-0.009": 3.1152282289,
			"-0.008": 4.39276967827,
			"-0.007": 7.64457667138,
			"-0.006": 7.9057861005,
			"-0.005": 13.264728534,
			"-0.004": 22.1877237141,
			"-0.003": 24.9838295985,
			"-0.002": 25.3030205032,
			"-0.001": 27.1571658315,
			"0.0": 24.5683310608,
			"0.001": 17.2895865341,
			"0.002": 11.6173423073,
			"0.003": 9.57582604692,
			"0.004": 7.59030573404,
			"0.005": 7.85889386937,
			"0.006": 6.60162897989,
			"0.007": 6.24976507237,
			"0.008": 7.76639998939,
			"0.009": 8.5852628129,
			"0.01": 7.46855922116,
			"0.011": 7.82356840687,
			"0.012": 3.45591704974,
			"0.013": 0.777084320263,
			"0.014": 0.804774028368,
			"0.015": 0.0876108536933,
			"0.016": 0.0,
			"0.017": 0.0,
			"0.018": 0.0,
			"0.019": 0.0,
			"0.02": 0.0,
			"0.021": 0.0,
			"0.022": 0.0,
			"0.023": 0.0,
			"0.024": 0.0,
			"0.025": 0.0
		}
	}
}
