{
	 "smiles": "FC(F)C(F)(F)F", 
	 "Tm": 170.15, 
	 "num_atms": 8, 
	 "gaussian": { 
		 "optdone": 1, 
		 "sigma_profile": "yes", 
		 "theory": "DFT", 
		 "functional": "B3LYP", 
		 "basiset": "6-31G**", 
		 "properties": { 
			 "R2extent": 1320.7641, 
			 "electric_dipole_moment_norm": 1.36272712235, 
			 "electric_quadrupole_moment_norm": 4.03783556872, 
			 "total_energy": -576.003285927, 
			 "HOMO_LUMO_gap": 0.43826, 
			 "cosmo_polarized_energy": -3.1, 
			 "cosmo_cavitation_energy": 14.53, 
			 "cosmo_dispersion_energy": -10.07, 
			 "cosmo_repulsion_energy": 0.78, 
			 "cosmo_total_nonelectrostatic_energy": 5.24, 
			 "SMD_solvation_energy": 4.83 
		},
		"coords": [
			{
				"x": 3.134759999,
				"y": -1.2559148581,
				"z": -1.0859886848,
				"element": "F" 
			},
			{
				"x": 2.5487469938,
				"y": -0.1550784662,
				"z": -0.5572281888,
				"element": "C" 
			},
			{
				"x": 3.3262072089,
				"y": 0.3266428931,
				"z": 0.4419334287,
				"element": "F" 
			},
			{
				"x": 1.1910111165,
				"y": -0.5573119267,
				"z": 0.029535249,
				"element": "C" 
			},
			{
				"x": 0.5943234114,
				"y": 0.5220740453,
				"z": 0.5627989151,
				"element": "F" 
			},
			{
				"x": 0.4051608874,
				"y": -1.0417596538,
				"z": -0.9468064222,
				"element": "F" 
			},
			{
				"x": 1.3277535391,
				"y": -1.4896958781,
				"z": 0.9782958875,
				"element": "F" 
			},
			{
				"x": 2.4271368438,
				"y": 0.6086438446,
				"z": -1.3330401845,
				"element": "H" 
			}
		],
		 "valence_orbital": [ 
			{
				"type": "occ",
				"energy": -0.43482,
				"method": "rhf"
			},
			{
				"type": "occ",
				"energy": -0.42022,
				"method": "rhf"
			},
			{
				"type": "occ",
				"energy": -0.42017,
				"method": "rhf"
			},
			{
				"type": "occ",
				"energy": -0.41521,
				"method": "rhf"
			},
			{
				"type": "occ",
				"energy": -0.35887,
				"method": "rhf"
			},
			{
				"type": "unocc",
				"energy": 0.07939,
				"method": "rhf"
			},
			{
				"type": "unocc",
				"energy": 0.08417,
				"method": "rhf"
			},
			{
				"type": "unocc",
				"energy": 0.12321,
				"method": "rhf"
			},
			{
				"type": "unocc",
				"energy": 0.1919,
				"method": "rhf"
			},
			{
				"type": "unocc",
				"energy": 0.21934,
				"method": "rhf"
			}
		],
		"cosmo_sigma_profile": { 
			"-0.025": 0.0,
			"-0.024": 0.0,
			"-0.023": 0.0,
			"-0.022": 0.0,
			"-0.021": 0.0,
			"-0.02": 0.0,
			"-0.019": 0.0,
			"-0.018": 0.0,
			"-0.017": 0.0,
			"-0.016": 0.0,
			"-0.015": 0.0,
			"-0.014": 0.0,
			"-0.013": 0.00955515555605,
			"-0.012": 1.8086215366,
			"-0.011": 2.91977230679,
			"-0.01": 2.31150236176,
			"-0.009": 1.13480899193,
			"-0.008": 1.82910340353,
			"-0.007": 0.908977004657,
			"-0.006": 1.47818400377,
			"-0.005": 1.66496249422,
			"-0.004": 1.32147813447,
			"-0.003": 2.46120978135,
			"-0.002": 3.57423880482,
			"-0.001": 6.40738274736,
			"0.0": 10.7251437489,
			"0.001": 25.8267294873,
			"0.002": 34.3943009541,
			"0.003": 16.6025371587,
			"0.004": 1.19007807816,
			"0.005": 0.0,
			"0.006": 0.0,
			"0.007": 0.0,
			"0.008": 0.0,
			"0.009": 0.0,
			"0.01": 0.0,
			"0.011": 0.0,
			"0.012": 0.0,
			"0.013": 0.0,
			"0.014": 0.0,
			"0.015": 0.0,
			"0.016": 0.0,
			"0.017": 0.0,
			"0.018": 0.0,
			"0.019": 0.0,
			"0.02": 0.0,
			"0.021": 0.0,
			"0.022": 0.0,
			"0.023": 0.0,
			"0.024": 0.0,
			"0.025": 0.0
		}
	}
}
