{
	 "smiles": "ClC1=CC(Br)=C(OCCBr)C=C1", 
	 "Tm": 304.15, 
	 "num_atms": 19, 
	 "gaussian": { 
		 "optdone": 1, 
		 "sigma_profile": "yes", 
		 "theory": "DFT", 
		 "functional": "B3LYP", 
		 "basiset": "6-31G**", 
		 "properties": { 
			 "R2extent": 8142.4571, 
			 "electric_dipole_moment_norm": 3.6780357883, 
			 "electric_quadrupole_moment_norm": 11.6568431468, 
			 "total_energy": -5987.28332034, 
			 "HOMO_LUMO_gap": 0.20261, 
			 "cosmo_polarized_energy": -10.69, 
			 "cosmo_cavitation_energy": 29.84, 
			 "cosmo_dispersion_energy": -22.25, 
			 "cosmo_repulsion_energy": 1.8, 
			 "cosmo_total_nonelectrostatic_energy": 9.39, 
			 "SMD_solvation_energy": 2.67 
		},
		"coords": [
			{
				"x": -0.1600159157,
				"y": -3.3964536369,
				"z": -0.9210755616,
				"element": "Cl" 
			},
			{
				"x": 0.1346678994,
				"y": -1.8201843541,
				"z": -0.2049368636,
				"element": "C" 
			},
			{
				"x": 1.2161908111,
				"y": -1.6548517545,
				"z": 0.6616518788,
				"element": "C" 
			},
			{
				"x": 1.4502641066,
				"y": -0.4077983416,
				"z": 1.2289678612,
				"element": "C" 
			},
			{
				"x": 2.9237577915,
				"y": -0.1920911855,
				"z": 2.4123256192,
				"element": "Br" 
			},
			{
				"x": 0.6154425342,
				"y": 0.6892362807,
				"z": 0.9429666201,
				"element": "C" 
			},
			{
				"x": 0.9184555199,
				"y": 1.8695931709,
				"z": 1.5427525411,
				"element": "O" 
			},
			{
				"x": 0.0988876431,
				"y": 2.9996771523,
				"z": 1.2846956431,
				"element": "C" 
			},
			{
				"x": 0.6631297787,
				"y": 4.1775614511,
				"z": 2.0487309264,
				"element": "C" 
			},
			{
				"x": 2.3844682368,
				"y": 4.7953604026,
				"z": 1.3117014256,
				"element": "Br" 
			},
			{
				"x": -0.4638936719,
				"y": 0.4952083532,
				"z": 0.0723400051,
				"element": "C" 
			},
			{
				"x": -0.7062966128,
				"y": -0.7538285775,
				"z": -0.5024072971,
				"element": "C" 
			},
			{
				"x": 1.8699479508,
				"y": -2.4862737087,
				"z": 0.8935475583,
				"element": "H" 
			},
			{
				"x": 0.0587520148,
				"y": 3.2182287788,
				"z": 0.2103426764,
				"element": "H" 
			},
			{
				"x": -0.9266213759,
				"y": 2.8128167042,
				"z": 1.6411920652,
				"element": "H" 
			},
			{
				"x": 0.8522263741,
				"y": 3.9175226165,
				"z": 3.0894519683,
				"element": "H" 
			},
			{
				"x": -0.0138870907,
				"y": 5.0293233664,
				"z": 1.9907126992,
				"element": "H" 
			},
			{
				"x": -1.1276032745,
				"y": 1.3168525314,
				"z": -0.1678887576,
				"element": "H" 
			},
			{
				"x": -1.5448727196,
				"y": -0.8899992492,
				"z": -1.1756710082,
				"element": "H" 
			}
		],
		 "valence_orbital": [ 
			{
				"type": "occ",
				"energy": -0.28717,
				"method": "rhf"
			},
			{
				"type": "occ",
				"energy": -0.28101,
				"method": "rhf"
			},
			{
				"type": "occ",
				"energy": -0.27803,
				"method": "rhf"
			},
			{
				"type": "occ",
				"energy": -0.25942,
				"method": "rhf"
			},
			{
				"type": "occ",
				"energy": -0.23116,
				"method": "rhf"
			},
			{
				"type": "unocc",
				"energy": -0.02855,
				"method": "rhf"
			},
			{
				"type": "unocc",
				"energy": -0.01322,
				"method": "rhf"
			},
			{
				"type": "unocc",
				"energy": -0.00656,
				"method": "rhf"
			},
			{
				"type": "unocc",
				"energy": -0.00567,
				"method": "rhf"
			},
			{
				"type": "unocc",
				"energy": 0.04063,
				"method": "rhf"
			}
		],
		"cosmo_sigma_profile": { 
			"-0.025": 0.0,
			"-0.024": 0.0,
			"-0.023": 0.0,
			"-0.022": 0.0,
			"-0.021": 0.0,
			"-0.02": 0.0,
			"-0.019": 0.0,
			"-0.018": 0.0,
			"-0.017": 0.0,
			"-0.016": 0.0,
			"-0.015": 0.0,
			"-0.014": 0.0,
			"-0.013": 0.0,
			"-0.012": 0.0,
			"-0.011": 0.0,
			"-0.01": 0.0,
			"-0.009": 1.1417317382,
			"-0.008": 11.8767900627,
			"-0.007": 17.5418249924,
			"-0.006": 13.8061919882,
			"-0.005": 10.2127852111,
			"-0.004": 9.88416343127,
			"-0.003": 8.79501526596,
			"-0.002": 11.2600986784,
			"-0.001": 13.1707739164,
			"0.0": 15.3265926134,
			"0.001": 24.0580777119,
			"0.002": 27.1661048385,
			"0.003": 21.5925809351,
			"0.004": 23.5958239955,
			"0.005": 17.3140489923,
			"0.006": 11.8567485685,
			"0.007": 4.3836019076,
			"0.008": 2.95495753223,
			"0.009": 1.4402683814,
			"0.01": 0.0,
			"0.011": 0.0,
			"0.012": 0.0,
			"0.013": 0.0,
			"0.014": 0.0,
			"0.015": 0.0,
			"0.016": 0.0,
			"0.017": 0.0,
			"0.018": 0.0,
			"0.019": 0.0,
			"0.02": 0.0,
			"0.021": 0.0,
			"0.022": 0.0,
			"0.023": 0.0,
			"0.024": 0.0,
			"0.025": 0.0
		}
	}
}
