{
	 "smiles": "COC1=CC(Cl)=CC=C1O", 
	 "Tm": 289.95, 
	 "num_atms": 17, 
	 "gaussian": { 
		 "optdone": 1, 
		 "sigma_profile": "yes", 
		 "theory": "DFT", 
		 "functional": "B3LYP", 
		 "basiset": "6-31G**", 
		 "properties": { 
			 "R2extent": 2255.8062, 
			 "electric_dipole_moment_norm": 2.97522665355, 
			 "electric_quadrupole_moment_norm": 12.5847042683, 
			 "total_energy": -881.5881, 
			 "HOMO_LUMO_gap": 0.20661, 
			 "cosmo_polarized_energy": -7.56, 
			 "cosmo_cavitation_energy": 22.7, 
			 "cosmo_dispersion_energy": -17.22, 
			 "cosmo_repulsion_energy": 1.4, 
			 "cosmo_total_nonelectrostatic_energy": 6.88, 
			 "SMD_solvation_energy": 4.74 
		},
		"coords": [
			{
				"x": 0.1600148172,
				"y": 1.1676415471,
				"z": -2.6988005662,
				"element": "C" 
			},
			{
				"x": 0.5479067204,
				"y": 0.3333197075,
				"z": -1.6161185788,
				"element": "O" 
			},
			{
				"x": -0.2370781318,
				"y": 0.3204908523,
				"z": -0.4909747446,
				"element": "C" 
			},
			{
				"x": -1.4005044365,
				"y": 1.0613341496,
				"z": -0.3041356561,
				"element": "C" 
			},
			{
				"x": -2.089752783,
				"y": 0.9353148263,
				"z": 0.9072940988,
				"element": "C" 
			},
			{
				"x": -3.5621556285,
				"y": 1.8735554089,
				"z": 1.1425432848,
				"element": "Cl" 
			},
			{
				"x": -1.6390805799,
				"y": 0.0932914588,
				"z": 1.9163627317,
				"element": "C" 
			},
			{
				"x": -0.4684209596,
				"y": -0.6455174947,
				"z": 1.7153611041,
				"element": "C" 
			},
			{
				"x": 0.2365951354,
				"y": -0.5401332817,
				"z": 0.5220676127,
				"element": "C" 
			},
			{
				"x": 1.3747101462,
				"y": -1.2604447912,
				"z": 0.3305977874,
				"element": "O" 
			},
			{
				"x": 0.139458746,
				"y": 2.2230060456,
				"z": -2.4004296574,
				"element": "H" 
			},
			{
				"x": -0.8248725276,
				"y": 0.8820431012,
				"z": -3.0882347519,
				"element": "H" 
			},
			{
				"x": 0.9116677054,
				"y": 1.0258830751,
				"z": -3.4762541287,
				"element": "H" 
			},
			{
				"x": -1.7764969863,
				"y": 1.7255490536,
				"z": -1.0714767608,
				"element": "H" 
			},
			{
				"x": -2.1888196091,
				"y": 0.0112166809,
				"z": 2.8466555998,
				"element": "H" 
			},
			{
				"x": -0.0911354199,
				"y": -1.311459703,
				"z": 2.4841500191,
				"element": "H" 
			},
			{
				"x": 1.7047637914,
				"y": -1.0433906362,
				"z": -0.5549073938,
				"element": "H" 
			}
		],
		 "valence_orbital": [ 
			{
				"type": "occ",
				"energy": -0.34767,
				"method": "rhf"
			},
			{
				"type": "occ",
				"energy": -0.30813,
				"method": "rhf"
			},
			{
				"type": "occ",
				"energy": -0.30144,
				"method": "rhf"
			},
			{
				"type": "occ",
				"energy": -0.24746,
				"method": "rhf"
			},
			{
				"type": "occ",
				"energy": -0.2104,
				"method": "rhf"
			},
			{
				"type": "unocc",
				"energy": -0.00379,
				"method": "rhf"
			},
			{
				"type": "unocc",
				"energy": 0.00614,
				"method": "rhf"
			},
			{
				"type": "unocc",
				"energy": 0.03104,
				"method": "rhf"
			},
			{
				"type": "unocc",
				"energy": 0.07668,
				"method": "rhf"
			},
			{
				"type": "unocc",
				"energy": 0.09193,
				"method": "rhf"
			}
		],
		"cosmo_sigma_profile": { 
			"-0.025": 0.0,
			"-0.024": 0.0,
			"-0.023": 0.0,
			"-0.022": 0.0,
			"-0.021": 0.0,
			"-0.02": 0.0,
			"-0.019": 0.0,
			"-0.018": 0.0,
			"-0.017": 0.0,
			"-0.016": 0.0,
			"-0.015": 0.179569618894,
			"-0.014": 0.610902630825,
			"-0.013": 0.32548869276,
			"-0.012": 0.614249856585,
			"-0.011": 0.617529829515,
			"-0.01": 0.511882230677,
			"-0.009": 1.02563503027,
			"-0.008": 1.45210675794,
			"-0.007": 5.46239760406,
			"-0.006": 12.3300228954,
			"-0.005": 14.0735833074,
			"-0.004": 13.7617127352,
			"-0.003": 10.5625256444,
			"-0.002": 9.21718741469,
			"-0.001": 7.90743488554,
			"0.0": 10.4455224956,
			"0.001": 13.4850858072,
			"0.002": 15.2271692334,
			"0.003": 21.4395959601,
			"0.004": 18.8290211095,
			"0.005": 14.7434377848,
			"0.006": 2.37908684474,
			"0.007": 0.976035389836,
			"0.008": 1.52708149618,
			"0.009": 1.52737492738,
			"0.01": 1.88516232946,
			"0.011": 1.7035097304,
			"0.012": 0.543299967371,
			"0.013": 0.0,
			"0.014": 0.0,
			"0.015": 0.0,
			"0.016": 0.0,
			"0.017": 0.0,
			"0.018": 0.0,
			"0.019": 0.0,
			"0.02": 0.0,
			"0.021": 0.0,
			"0.022": 0.0,
			"0.023": 0.0,
			"0.024": 0.0,
			"0.025": 0.0
		}
	}
}
