{
	 "smiles": "COC1=CC=C(C=C1)C1(C)CCC2=C(C3=C1C=C(C)O3)C1=C(O2)C=CC=C1", 
	 "Tm": 418.15, 
	 "num_atms": 49, 
	 "gaussian": { 
		 "optdone": 1, 
		 "sigma_profile": "yes", 
		 "theory": "DFT", 
		 "functional": "B3LYP", 
		 "basiset": "6-31G**", 
		 "properties": { 
			 "R2extent": 12422.9341, 
			 "electric_dipole_moment_norm": 2.06588525819, 
			 "electric_quadrupole_moment_norm": 9.50665682298, 
			 "total_energy": -1153.47239759, 
			 "HOMO_LUMO_gap": 0.16293, 
			 "cosmo_polarized_energy": -10.18, 
			 "cosmo_cavitation_energy": 49.91, 
			 "cosmo_dispersion_energy": -35.07, 
			 "cosmo_repulsion_energy": 2.61, 
			 "cosmo_total_nonelectrostatic_energy": 17.45, 
			 "SMD_solvation_energy": 9.17 
		},
		"coords": [
			{
				"x": -4.3583795979,
				"y": 1.5625678428,
				"z": 5.0374185272,
				"element": "C" 
			},
			{
				"x": -3.1591487137,
				"y": 0.8448503693,
				"z": 5.2759862792,
				"element": "O" 
			},
			{
				"x": -2.4164448472,
				"y": 0.4542100588,
				"z": 4.1977255909,
				"element": "C" 
			},
			{
				"x": -2.7455504776,
				"y": 0.7163272699,
				"z": 2.8624603314,
				"element": "C" 
			},
			{
				"x": -1.9036112091,
				"y": 0.2673347839,
				"z": 1.8436530263,
				"element": "C" 
			},
			{
				"x": -0.7262815938,
				"y": -0.4458533995,
				"z": 2.1059734358,
				"element": "C" 
			},
			{
				"x": -0.4190419472,
				"y": -0.6956895257,
				"z": 3.4525788112,
				"element": "C" 
			},
			{
				"x": -1.2438670943,
				"y": -0.254672877,
				"z": 4.4834007938,
				"element": "C" 
			},
			{
				"x": 0.1293836938,
				"y": -0.9727303966,
				"z": 0.9342616619,
				"element": "C" 
			},
			{
				"x": 1.4950392944,
				"y": -1.5146849451,
				"z": 1.419968015,
				"element": "C" 
			},
			{
				"x": -0.698301169,
				"y": -2.1365231827,
				"z": 0.2940598474,
				"element": "C" 
			},
			{
				"x": -0.0355543072,
				"y": -3.0118482427,
				"z": -0.7854320588,
				"element": "C" 
			},
			{
				"x": 0.254678268,
				"y": -2.3100247229,
				"z": -2.0664679088,
				"element": "C" 
			},
			{
				"x": 0.5022566819,
				"y": -0.9964157878,
				"z": -2.3643868745,
				"element": "C" 
			},
			{
				"x": 0.5610568348,
				"y": 0.0873145242,
				"z": -1.4107710572,
				"element": "C" 
			},
			{
				"x": 0.4029022988,
				"y": 0.1610855693,
				"z": -0.0460649466,
				"element": "C" 
			},
			{
				"x": 0.6490542849,
				"y": 1.5366303672,
				"z": 0.2942805995,
				"element": "C" 
			},
			{
				"x": 0.925272192,
				"y": 2.2032422681,
				"z": -0.8607529426,
				"element": "C" 
			},
			{
				"x": 1.2474497147,
				"y": 3.6197091796,
				"z": -1.1823888292,
				"element": "C" 
			},
			{
				"x": 0.8729750684,
				"y": 1.3292063961,
				"z": -1.9127335152,
				"element": "O" 
			},
			{
				"x": 0.7157027236,
				"y": -0.9447783792,
				"z": -3.8018684606,
				"element": "C" 
			},
			{
				"x": 0.5734691827,
				"y": -2.2707204938,
				"z": -4.2471227807,
				"element": "C" 
			},
			{
				"x": 0.2920969683,
				"y": -3.1006136803,
				"z": -3.194065027,
				"element": "O" 
			},
			{
				"x": 0.7013376416,
				"y": -2.6589275689,
				"z": -5.5745376662,
				"element": "C" 
			},
			{
				"x": 0.9890994554,
				"y": -1.649079533,
				"z": -6.4927560226,
				"element": "C" 
			},
			{
				"x": 1.1383986942,
				"y": -0.3127033219,
				"z": -6.0796915953,
				"element": "C" 
			},
			{
				"x": 1.0052552226,
				"y": 0.0552116118,
				"z": -4.7425939628,
				"element": "C" 
			},
			{
				"x": -4.7882945208,
				"y": 1.7679500873,
				"z": 6.0191679161,
				"element": "H" 
			},
			{
				"x": -5.0736584304,
				"y": 0.9747376608,
				"z": 4.4473168028,
				"element": "H" 
			},
			{
				"x": -4.1679105271,
				"y": 2.513297245,
				"z": 4.5223083777,
				"element": "H" 
			},
			{
				"x": -3.6426655833,
				"y": 1.2668627021,
				"z": 2.6043048345,
				"element": "H" 
			},
			{
				"x": -2.169694849,
				"y": 0.4945220242,
				"z": 0.8152494757,
				"element": "H" 
			},
			{
				"x": 0.4793248033,
				"y": -1.2419020944,
				"z": 3.7176247246,
				"element": "H" 
			},
			{
				"x": -0.9952422686,
				"y": -0.4496160002,
				"z": 5.5217129053,
				"element": "H" 
			},
			{
				"x": 2.0372196562,
				"y": -0.7555099532,
				"z": 1.990789135,
				"element": "H" 
			},
			{
				"x": 1.3777395067,
				"y": -2.4044925025,
				"z": 2.0493429743,
				"element": "H" 
			},
			{
				"x": 2.1191903376,
				"y": -1.7862008454,
				"z": 0.565447122,
				"element": "H" 
			},
			{
				"x": -1.6289694214,
				"y": -1.7232213112,
				"z": -0.108610401,
				"element": "H" 
			},
			{
				"x": -0.9883707722,
				"y": -2.8019038474,
				"z": 1.1144587902,
				"element": "H" 
			},
			{
				"x": -0.7114453834,
				"y": -3.845788952,
				"z": -1.0107196746,
				"element": "H" 
			},
			{
				"x": 0.8803447906,
				"y": -3.4773611594,
				"z": -0.3948778383,
				"element": "H" 
			},
			{
				"x": 0.6056929464,
				"y": 1.9687067039,
				"z": 1.2835700799,
				"element": "H" 
			},
			{
				"x": 1.2640806797,
				"y": 4.2132092057,
				"z": -0.265371012,
				"element": "H" 
			},
			{
				"x": 2.2270720556,
				"y": 3.7100984228,
				"z": -1.6666862346,
				"element": "H" 
			},
			{
				"x": 0.5056139265,
				"y": 4.0583342174,
				"z": -1.8605322438,
				"element": "H" 
			},
			{
				"x": 0.5823805483,
				"y": -3.6952808267,
				"z": -5.8716200739,
				"element": "H" 
			},
			{
				"x": 1.0995904662,
				"y": -1.9003189125,
				"z": -7.5434041444,
				"element": "H" 
			},
			{
				"x": 1.3628587572,
				"y": 0.4484246585,
				"z": -6.8213502857,
				"element": "H" 
			},
			{
				"x": 1.1220960191,
				"y": 1.085829293,
				"z": -4.4297545013,
				"element": "H" 
			}
		],
		 "valence_orbital": [ 
			{
				"type": "occ",
				"energy": -0.24743,
				"method": "rhf"
			},
			{
				"type": "occ",
				"energy": -0.23574,
				"method": "rhf"
			},
			{
				"type": "occ",
				"energy": -0.22622,
				"method": "rhf"
			},
			{
				"type": "occ",
				"energy": -0.21268,
				"method": "rhf"
			},
			{
				"type": "occ",
				"energy": -0.18155,
				"method": "rhf"
			},
			{
				"type": "unocc",
				"energy": -0.01862,
				"method": "rhf"
			},
			{
				"type": "unocc",
				"energy": -0.00147,
				"method": "rhf"
			},
			{
				"type": "unocc",
				"energy": 0.01053,
				"method": "rhf"
			},
			{
				"type": "unocc",
				"energy": 0.01451,
				"method": "rhf"
			},
			{
				"type": "unocc",
				"energy": 0.02069,
				"method": "rhf"
			}
		],
		"cosmo_sigma_profile": { 
			"-0.025": 0.0,
			"-0.024": 0.0,
			"-0.023": 0.0,
			"-0.022": 0.0,
			"-0.021": 0.0,
			"-0.02": 0.0,
			"-0.019": 0.0,
			"-0.018": 0.0,
			"-0.017": 0.0,
			"-0.016": 0.0,
			"-0.015": 0.0,
			"-0.014": 0.0,
			"-0.013": 0.0,
			"-0.012": 0.0,
			"-0.011": 0.0,
			"-0.01": 0.0,
			"-0.009": 0.0,
			"-0.008": 0.0,
			"-0.007": 1.01306108817,
			"-0.006": 8.71139869316,
			"-0.005": 27.6806374725,
			"-0.004": 40.5952918157,
			"-0.003": 49.2618788416,
			"-0.002": 37.6318765667,
			"-0.001": 33.4640665738,
			"0.0": 27.9351443436,
			"0.001": 26.3314385722,
			"0.002": 25.3883573548,
			"0.003": 35.1238409944,
			"0.004": 32.3867905491,
			"0.005": 23.9686084969,
			"0.006": 16.9788851936,
			"0.007": 3.03451986015,
			"0.008": 2.10358486839,
			"0.009": 1.98376295231,
			"0.01": 1.72060316967,
			"0.011": 0.792467702205,
			"0.012": 0.0,
			"0.013": 0.0,
			"0.014": 0.0,
			"0.015": 0.0,
			"0.016": 0.0,
			"0.017": 0.0,
			"0.018": 0.0,
			"0.019": 0.0,
			"0.02": 0.0,
			"0.021": 0.0,
			"0.022": 0.0,
			"0.023": 0.0,
			"0.024": 0.0,
			"0.025": 0.0
		}
	}
}
