{
	 "smiles": "CC(C)CC1=NN(C)C(N)=C1", 
	 "Tm": 364.15, 
	 "num_atms": 26, 
	 "gaussian": { 
		 "optdone": 1, 
		 "sigma_profile": "yes", 
		 "theory": "DFT", 
		 "functional": "B3LYP", 
		 "basiset": "6-31G**", 
		 "properties": { 
			 "R2extent": 2682.4534, 
			 "electric_dipole_moment_norm": 3.138266547, 
			 "electric_quadrupole_moment_norm": 10.9832667235, 
			 "total_energy": -478.141000515, 
			 "HOMO_LUMO_gap": 0.23958, 
			 "cosmo_polarized_energy": -11.42, 
			 "cosmo_cavitation_energy": 28.32, 
			 "cosmo_dispersion_energy": -20.16, 
			 "cosmo_repulsion_energy": 1.66, 
			 "cosmo_total_nonelectrostatic_energy": 9.82, 
			 "SMD_solvation_energy": 4.04 
		},
		"coords": [
			{
				"x": -0.6065269092,
				"y": -1.9654303266,
				"z": -1.2649886989,
				"element": "C" 
			},
			{
				"x": 0.505656086,
				"y": -1.0510494472,
				"z": -1.7956741553,
				"element": "C" 
			},
			{
				"x": 0.9837472424,
				"y": -1.5138658222,
				"z": -3.1788302735,
				"element": "C" 
			},
			{
				"x": 1.7001129512,
				"y": -0.957996966,
				"z": -0.8142143354,
				"element": "C" 
			},
			{
				"x": 1.3705283621,
				"y": -0.3262700845,
				"z": 0.5099126407,
				"element": "C" 
			},
			{
				"x": 1.2794728014,
				"y": 1.0008330295,
				"z": 0.6129215308,
				"element": "N" 
			},
			{
				"x": 0.9676223682,
				"y": 1.2326785226,
				"z": 1.918820375,
				"element": "N" 
			},
			{
				"x": 0.8093995426,
				"y": 2.5864927624,
				"z": 2.4029563723,
				"element": "C" 
			},
			{
				"x": 0.8330879377,
				"y": 0.0778728201,
				"z": 2.6286275192,
				"element": "C" 
			},
			{
				"x": 0.5652170076,
				"y": 0.1070825638,
				"z": 4.006507645,
				"element": "N" 
			},
			{
				"x": 1.0943930664,
				"y": -0.9602022597,
				"z": 1.7467662315,
				"element": "C" 
			},
			{
				"x": -0.2472103988,
				"y": -2.9976541388,
				"z": -1.1620793189,
				"element": "H" 
			},
			{
				"x": -0.9618189368,
				"y": -1.6362849188,
				"z": -0.2839579476,
				"element": "H" 
			},
			{
				"x": -1.4629551157,
				"y": -1.9808627254,
				"z": -1.9482005366,
				"element": "H" 
			},
			{
				"x": 0.0969405826,
				"y": -0.036186679,
				"z": -1.8935275199,
				"element": "H" 
			},
			{
				"x": 1.4208088553,
				"y": -2.5191352923,
				"z": -3.1274260528,
				"element": "H" 
			},
			{
				"x": 0.1540520207,
				"y": -1.5512993222,
				"z": -3.8933424566,
				"element": "H" 
			},
			{
				"x": 1.7463776735,
				"y": -0.8403635991,
				"z": -3.585242179,
				"element": "H" 
			},
			{
				"x": 2.4946449886,
				"y": -0.3708084427,
				"z": -1.2893260034,
				"element": "H" 
			},
			{
				"x": 2.1058386087,
				"y": -1.9641978373,
				"z": -0.6451566068,
				"element": "H" 
			},
			{
				"x": 1.452771436,
				"y": 3.2357658284,
				"z": 1.8081898264,
				"element": "H" 
			},
			{
				"x": -0.2261234031,
				"y": 2.9374666502,
				"z": 2.3103862268,
				"element": "H" 
			},
			{
				"x": 1.1103390522,
				"y": 2.6281263934,
				"z": 3.4527660421,
				"element": "H" 
			},
			{
				"x": 0.6180891042,
				"y": -0.8209443147,
				"z": 4.4085135921,
				"element": "H" 
			},
			{
				"x": -0.3401439609,
				"y": 0.5099290297,
				"z": 4.2302956705,
				"element": "H" 
			},
			{
				"x": 1.0848790371,
				"y": -2.0183954239,
				"z": 1.9653024124,
				"element": "H" 
			}
		],
		 "valence_orbital": [ 
			{
				"type": "occ",
				"energy": -0.31049,
				"method": "rhf"
			},
			{
				"type": "occ",
				"energy": -0.30287,
				"method": "rhf"
			},
			{
				"type": "occ",
				"energy": -0.26524,
				"method": "rhf"
			},
			{
				"type": "occ",
				"energy": -0.22439,
				"method": "rhf"
			},
			{
				"type": "occ",
				"energy": -0.20309,
				"method": "rhf"
			},
			{
				"type": "unocc",
				"energy": 0.03649,
				"method": "rhf"
			},
			{
				"type": "unocc",
				"energy": 0.07027,
				"method": "rhf"
			},
			{
				"type": "unocc",
				"energy": 0.08537,
				"method": "rhf"
			},
			{
				"type": "unocc",
				"energy": 0.10372,
				"method": "rhf"
			},
			{
				"type": "unocc",
				"energy": 0.11886,
				"method": "rhf"
			}
		],
		"cosmo_sigma_profile": { 
			"-0.025": 0.0,
			"-0.024": 0.0,
			"-0.023": 0.0,
			"-0.022": 0.0,
			"-0.021": 0.0,
			"-0.02": 0.0,
			"-0.019": 0.0,
			"-0.018": 0.0,
			"-0.017": 0.0,
			"-0.016": 0.0,
			"-0.015": 0.0,
			"-0.014": 0.0,
			"-0.013": 0.998537228126,
			"-0.012": 2.73124473716,
			"-0.011": 2.75308540523,
			"-0.01": 2.71932814257,
			"-0.009": 2.88555213956,
			"-0.008": 2.32777648246,
			"-0.007": 3.07821212488,
			"-0.006": 3.48047140509,
			"-0.005": 10.2253863815,
			"-0.004": 9.21183582197,
			"-0.003": 15.2604430405,
			"-0.002": 27.3688168689,
			"-0.001": 24.5006378648,
			"0.0": 22.0012096324,
			"0.001": 24.3022346497,
			"0.002": 18.0606444912,
			"0.003": 7.22265404429,
			"0.004": 6.60554846796,
			"0.005": 6.56524297251,
			"0.006": 6.54659914396,
			"0.007": 4.89072858736,
			"0.008": 3.2005984082,
			"0.009": 2.23026001449,
			"0.01": 2.38598156311,
			"0.011": 1.59178691374,
			"0.012": 1.69643051587,
			"0.013": 0.904070023344,
			"0.014": 1.85905429116,
			"0.015": 0.843720112693,
			"0.016": 1.0316972233,
			"0.017": 0.559943504481,
			"0.018": 0.238593564547,
			"0.019": 0.0,
			"0.02": 0.0,
			"0.021": 0.0,
			"0.022": 0.0,
			"0.023": 0.0,
			"0.024": 0.0,
			"0.025": 0.0
		}
	}
}
