{
	 "smiles": "NC1(CCOCC1)C1=CC=C(Cl)C=C1", 
	 "Tm": 324.15, 
	 "num_atms": 28, 
	 "gaussian": { 
		 "optdone": 1, 
		 "sigma_profile": "yes", 
		 "theory": "DFT", 
		 "functional": "B3LYP", 
		 "basiset": "6-31G**", 
		 "properties": { 
			 "R2extent": 5690.4012, 
			 "electric_dipole_moment_norm": 1.2565798184, 
			 "electric_quadrupole_moment_norm": 17.3736737275, 
			 "total_energy": -1017.75518309, 
			 "HOMO_LUMO_gap": 0.21168, 
			 "cosmo_polarized_energy": -10.74, 
			 "cosmo_cavitation_energy": 30.77, 
			 "cosmo_dispersion_energy": -22.73, 
			 "cosmo_repulsion_energy": 1.78, 
			 "cosmo_total_nonelectrostatic_energy": 9.82, 
			 "SMD_solvation_energy": 3.99 
		},
		"coords": [
			{
				"x": -1.3680651554,
				"y": 0.6404181164,
				"z": -2.130920441,
				"element": "N" 
			},
			{
				"x": -0.364658209,
				"y": -0.0483151258,
				"z": -1.2829051372,
				"element": "C" 
			},
			{
				"x": -0.847574536,
				"y": -1.514060309,
				"z": -1.1284762098,
				"element": "C" 
			},
			{
				"x": -1.9517389274,
				"y": -1.6084515293,
				"z": -0.0800096972,
				"element": "C" 
			},
			{
				"x": -1.4702855478,
				"y": -1.3028053942,
				"z": 1.2320910004,
				"element": "O" 
			},
			{
				"x": -0.3679232943,
				"y": -0.40174293,
				"z": 1.2581186367,
				"element": "C" 
			},
			{
				"x": -0.4238738005,
				"y": 0.6238814621,
				"z": 0.1276144874,
				"element": "C" 
			},
			{
				"x": 1.0414404961,
				"y": 0.0518632667,
				"z": -1.9134333961,
				"element": "C" 
			},
			{
				"x": 1.7013626978,
				"y": -1.0393898276,
				"z": -2.4942790864,
				"element": "C" 
			},
			{
				"x": 2.9408514984,
				"y": -0.8999799589,
				"z": -3.1250895548,
				"element": "C" 
			},
			{
				"x": 3.5388924238,
				"y": 0.3540969152,
				"z": -3.1837540962,
				"element": "C" 
			},
			{
				"x": 5.100119949,
				"y": 0.5428497744,
				"z": -3.9699694367,
				"element": "Cl" 
			},
			{
				"x": 2.9084599094,
				"y": 1.4670132292,
				"z": -2.6262404681,
				"element": "C" 
			},
			{
				"x": 1.6737863372,
				"y": 1.3048023846,
				"z": -2.0045924328,
				"element": "C" 
			},
			{
				"x": -1.273920863,
				"y": 0.3172799788,
				"z": -3.0928490368,
				"element": "H" 
			},
			{
				"x": -1.1735156023,
				"y": 1.639743759,
				"z": -2.1534433156,
				"element": "H" 
			},
			{
				"x": -0.0242075995,
				"y": -2.1629326881,
				"z": -0.8140768812,
				"element": "H" 
			},
			{
				"x": -1.2117380487,
				"y": -1.89221417,
				"z": -2.0908178716,
				"element": "H" 
			},
			{
				"x": -2.3546596194,
				"y": -2.6256438023,
				"z": -0.0309037132,
				"element": "H" 
			},
			{
				"x": -2.7721222016,
				"y": -0.9302171169,
				"z": -0.35424121,
				"element": "H" 
			},
			{
				"x": -0.4033422038,
				"y": 0.1004809661,
				"z": 2.2306356462,
				"element": "H" 
			},
			{
				"x": 0.5849965768,
				"y": -0.9551498789,
				"z": 1.2142531777,
				"element": "H" 
			},
			{
				"x": -1.3734986206,
				"y": 1.165183802,
				"z": 0.2010501241,
				"element": "H" 
			},
			{
				"x": 0.3820721374,
				"y": 1.3507675269,
				"z": 0.2624307222,
				"element": "H" 
			},
			{
				"x": 1.2558382304,
				"y": -2.0272469879,
				"z": -2.4687419068,
				"element": "H" 
			},
			{
				"x": 3.4343145769,
				"y": -1.7599195594,
				"z": -3.5647711621,
				"element": "H" 
			},
			{
				"x": 3.3787402866,
				"y": 2.4428768307,
				"z": -2.6795697372,
				"element": "H" 
			},
			{
				"x": 1.1942491095,
				"y": 2.1853112664,
				"z": -1.584909004,
				"element": "H" 
			}
		],
		 "valence_orbital": [ 
			{
				"type": "occ",
				"energy": -0.29309,
				"method": "rhf"
			},
			{
				"type": "occ",
				"energy": -0.26713,
				"method": "rhf"
			},
			{
				"type": "occ",
				"energy": -0.26237,
				"method": "rhf"
			},
			{
				"type": "occ",
				"energy": -0.23945,
				"method": "rhf"
			},
			{
				"type": "occ",
				"energy": -0.23247,
				"method": "rhf"
			},
			{
				"type": "unocc",
				"energy": -0.02079,
				"method": "rhf"
			},
			{
				"type": "unocc",
				"energy": -0.01627,
				"method": "rhf"
			},
			{
				"type": "unocc",
				"energy": 0.02773,
				"method": "rhf"
			},
			{
				"type": "unocc",
				"energy": 0.07837,
				"method": "rhf"
			},
			{
				"type": "unocc",
				"energy": 0.10031,
				"method": "rhf"
			}
		],
		"cosmo_sigma_profile": { 
			"-0.025": 0.0,
			"-0.024": 0.0,
			"-0.023": 0.0,
			"-0.022": 0.0,
			"-0.021": 0.0,
			"-0.02": 0.0,
			"-0.019": 0.0,
			"-0.018": 0.0,
			"-0.017": 0.0,
			"-0.016": 0.0,
			"-0.015": 0.0,
			"-0.014": 0.0,
			"-0.013": 0.0,
			"-0.012": 0.0,
			"-0.011": 0.0,
			"-0.01": 0.945750285453,
			"-0.009": 2.95673817081,
			"-0.008": 3.45878314684,
			"-0.007": 6.42256857735,
			"-0.006": 11.0274213987,
			"-0.005": 13.7388389261,
			"-0.004": 19.2752931637,
			"-0.003": 24.2918743778,
			"-0.002": 24.6709537135,
			"-0.001": 19.7925130456,
			"0.0": 15.939662462,
			"0.001": 13.1717520157,
			"0.002": 16.7685308402,
			"0.003": 16.0634603569,
			"0.004": 20.7582117115,
			"0.005": 13.8419102088,
			"0.006": 2.81232148557,
			"0.007": 1.70504238066,
			"0.008": 2.18346023528,
			"0.009": 2.39706228636,
			"0.01": 1.7490112254,
			"0.011": 1.7392658532,
			"0.012": 1.59934503473,
			"0.013": 2.46459859469,
			"0.014": 2.38352011027,
			"0.015": 0.798443936206,
			"0.016": 0.544765146771,
			"0.017": 0.249289929928,
			"0.018": 0.0,
			"0.019": 0.0,
			"0.02": 0.0,
			"0.021": 0.0,
			"0.022": 0.0,
			"0.023": 0.0,
			"0.024": 0.0,
			"0.025": 0.0
		}
	}
}
