{
	 "smiles": "[O-][N+](=O)C1=CC(=C(NC2=CC3=C(OCCOCCOCCOCCO3)C=C2)C(=C1)[N+]([O-])=O)C(F)(F)F", 
	 "Tm": 444.15, 
	 "num_atms": 58, 
	 "gaussian": { 
		 "optdone": 1, 
		 "sigma_profile": "yes", 
		 "theory": "DFT", 
		 "functional": "B3LYP", 
		 "basiset": "6-31G**", 
		 "properties": { 
			 "R2extent": 24302.0623, 
			 "electric_dipole_moment_norm": 5.76768565804, 
			 "electric_quadrupole_moment_norm": 27.6095966988, 
			 "total_energy": -1954.00828308, 
			 "HOMO_LUMO_gap": 0.10348, 
			 "cosmo_polarized_energy": -23.14, 
			 "cosmo_cavitation_energy": 61.76, 
			 "cosmo_dispersion_energy": -41.37, 
			 "cosmo_repulsion_energy": 3.01, 
			 "cosmo_total_nonelectrostatic_energy": 23.4, 
			 "SMD_solvation_energy": 15.04 
		},
		"coords": [
			{
				"x": 3.8995332594,
				"y": 6.9565173524,
				"z": 0.8037755969,
				"element": "O" 
			},
			{
				"x": 3.2059258154,
				"y": 6.0911989206,
				"z": 1.3377277246,
				"element": "N" 
			},
			{
				"x": 2.3144993234,
				"y": 6.3064320767,
				"z": 2.1606047189,
				"element": "O" 
			},
			{
				"x": 3.4527299692,
				"y": 4.7012991432,
				"z": 0.9643231241,
				"element": "C" 
			},
			{
				"x": 2.7308906969,
				"y": 3.6814382289,
				"z": 1.5852253247,
				"element": "C" 
			},
			{
				"x": 2.9335188502,
				"y": 2.3535798707,
				"z": 1.2476266403,
				"element": "C" 
			},
			{
				"x": 3.8733412928,
				"y": 1.98913967,
				"z": 0.2172506921,
				"element": "C" 
			},
			{
				"x": 4.0773896747,
				"y": 0.7271153493,
				"z": -0.2340996429,
				"element": "N" 
			},
			{
				"x": 3.1478466162,
				"y": -0.3433762841,
				"z": -0.3872779318,
				"element": "C" 
			},
			{
				"x": 1.8684155072,
				"y": -0.1125641562,
				"z": -0.9030954779,
				"element": "C" 
			},
			{
				"x": 0.9918998097,
				"y": -1.1756563713,
				"z": -1.1280170742,
				"element": "C" 
			},
			{
				"x": 1.4043226486,
				"y": -2.4972726138,
				"z": -0.8347662862,
				"element": "C" 
			},
			{
				"x": 0.6312249811,
				"y": -3.5992278312,
				"z": -1.0342522907,
				"element": "O" 
			},
			{
				"x": -0.7648581697,
				"y": -3.5704929172,
				"z": -0.6763646805,
				"element": "C" 
			},
			{
				"x": -1.1086714946,
				"y": -4.958127163,
				"z": -0.1378564814,
				"element": "C" 
			},
			{
				"x": -2.5107376261,
				"y": -5.0694753224,
				"z": 0.0647002978,
				"element": "O" 
			},
			{
				"x": -3.2387574549,
				"y": -5.5188478364,
				"z": -1.0703909137,
				"element": "C" 
			},
			{
				"x": -4.5957435055,
				"y": -4.8360418847,
				"z": -1.1115307932,
				"element": "C" 
			},
			{
				"x": -4.4682453387,
				"y": -3.4591444738,
				"z": -1.4356513033,
				"element": "O" 
			},
			{
				"x": -4.6714615047,
				"y": -2.5614396884,
				"z": -0.3552604408,
				"element": "C" 
			},
			{
				"x": -4.3146454432,
				"y": -1.1642254129,
				"z": -0.8269578916,
				"element": "C" 
			},
			{
				"x": -2.9042375456,
				"y": -1.0043272174,
				"z": -0.8007099368,
				"element": "O" 
			},
			{
				"x": -2.4197880934,
				"y": -0.0147597878,
				"z": -1.6818131328,
				"element": "C" 
			},
			{
				"x": -0.9448759893,
				"y": 0.2063587225,
				"z": -1.4096635003,
				"element": "C" 
			},
			{
				"x": -0.2494048044,
				"y": -1.0126908754,
				"z": -1.673374714,
				"element": "O" 
			},
			{
				"x": 2.7033208535,
				"y": -2.7079506902,
				"z": -0.3639295869,
				"element": "C" 
			},
			{
				"x": 3.5763646499,
				"y": -1.6479369366,
				"z": -0.1382524195,
				"element": "C" 
			},
			{
				"x": 4.6532332898,
				"y": 3.0797467145,
				"z": -0.3195584697,
				"element": "C" 
			},
			{
				"x": 4.4326581861,
				"y": 4.4050425734,
				"z": 0.0372514526,
				"element": "C" 
			},
			{
				"x": 5.708595004,
				"y": 2.8768324351,
				"z": -1.31045646,
				"element": "N" 
			},
			{
				"x": 6.1207288944,
				"y": 1.7211647411,
				"z": -1.5253897496,
				"element": "O" 
			},
			{
				"x": 6.1618969628,
				"y": 3.8607979628,
				"z": -1.8867550557,
				"element": "O" 
			},
			{
				"x": 2.2010221328,
				"y": 1.347853409,
				"z": 2.1180647231,
				"element": "C" 
			},
			{
				"x": 1.9354751294,
				"y": 1.8857280748,
				"z": 3.3302963271,
				"element": "F" 
			},
			{
				"x": 1.0032199126,
				"y": 0.9762426065,
				"z": 1.6078838819,
				"element": "F" 
			},
			{
				"x": 2.9221464212,
				"y": 0.2348789608,
				"z": 2.3353304791,
				"element": "F" 
			},
			{
				"x": 2.0357972978,
				"y": 3.944796689,
				"z": 2.3712124752,
				"element": "H" 
			},
			{
				"x": 4.9306400035,
				"y": 0.6528118954,
				"z": -0.7878464282,
				"element": "H" 
			},
			{
				"x": 1.5651347763,
				"y": 0.8968141604,
				"z": -1.153560006,
				"element": "H" 
			},
			{
				"x": -0.9598652754,
				"y": -2.8104741372,
				"z": 0.0837156795,
				"element": "H" 
			},
			{
				"x": -1.3761343045,
				"y": -3.3239987454,
				"z": -1.5474955627,
				"element": "H" 
			},
			{
				"x": -0.6264945964,
				"y": -5.119755516,
				"z": 0.8316983969,
				"element": "H" 
			},
			{
				"x": -0.7359773169,
				"y": -5.7297453585,
				"z": -0.8263371729,
				"element": "H" 
			},
			{
				"x": -3.3736762011,
				"y": -6.6125880418,
				"z": -1.0261748985,
				"element": "H" 
			},
			{
				"x": -2.7062067596,
				"y": -5.2832302795,
				"z": -2.0015671349,
				"element": "H" 
			},
			{
				"x": -5.1120768496,
				"y": -4.9748814125,
				"z": -0.1519467517,
				"element": "H" 
			},
			{
				"x": -5.2059464981,
				"y": -5.3113621865,
				"z": -1.8914238753,
				"element": "H" 
			},
			{
				"x": -5.7275839437,
				"y": -2.5736672536,
				"z": -0.0375124537,
				"element": "H" 
			},
			{
				"x": -4.0488050248,
				"y": -2.8301041601,
				"z": 0.5078174935,
				"element": "H" 
			},
			{
				"x": -4.7931209798,
				"y": -0.4141527167,
				"z": -0.1762886064,
				"element": "H" 
			},
			{
				"x": -4.7081980628,
				"y": -1.0305456759,
				"z": -1.8452475029,
				"element": "H" 
			},
			{
				"x": -2.5701321219,
				"y": -0.3185016488,
				"z": -2.7299370075,
				"element": "H" 
			},
			{
				"x": -2.9367521199,
				"y": 0.9489342329,
				"z": -1.5347538006,
				"element": "H" 
			},
			{
				"x": -0.5792860628,
				"y": 1.0120069109,
				"z": -2.0627059752,
				"element": "H" 
			},
			{
				"x": -0.7917832286,
				"y": 0.503360653,
				"z": -0.3653877095,
				"element": "H" 
			},
			{
				"x": 3.0016068749,
				"y": -3.7295215174,
				"z": -0.1540202726,
				"element": "H" 
			},
			{
				"x": 4.5705060135,
				"y": -1.8258116359,
				"z": 0.2582767081,
				"element": "H" 
			},
			{
				"x": 5.0209814688,
				"y": 5.1898063947,
				"z": -0.4180523443,
				"element": "H" 
			}
		],
		 "valence_orbital": [ 
			{
				"type": "occ",
				"energy": -0.26792,
				"method": "rhf"
			},
			{
				"type": "occ",
				"energy": -0.26274,
				"method": "rhf"
			},
			{
				"type": "occ",
				"energy": -0.24874,
				"method": "rhf"
			},
			{
				"type": "occ",
				"energy": -0.24728,
				"method": "rhf"
			},
			{
				"type": "occ",
				"energy": -0.21634,
				"method": "rhf"
			},
			{
				"type": "unocc",
				"energy": -0.11286,
				"method": "rhf"
			},
			{
				"type": "unocc",
				"energy": -0.09936,
				"method": "rhf"
			},
			{
				"type": "unocc",
				"energy": -0.04884,
				"method": "rhf"
			},
			{
				"type": "unocc",
				"energy": -0.01579,
				"method": "rhf"
			},
			{
				"type": "unocc",
				"energy": -0.01125,
				"method": "rhf"
			}
		],
		"cosmo_sigma_profile": { 
			"-0.025": 0.0,
			"-0.024": 0.0,
			"-0.023": 0.0,
			"-0.022": 0.0,
			"-0.021": 0.0,
			"-0.02": 0.0,
			"-0.019": 0.0,
			"-0.018": 0.0,
			"-0.017": 0.0,
			"-0.016": 0.0,
			"-0.015": 0.0,
			"-0.014": 0.0,
			"-0.013": 0.0,
			"-0.012": 0.0,
			"-0.011": 0.0,
			"-0.01": 0.39781837057,
			"-0.009": 1.68366928875,
			"-0.008": 4.97674505967,
			"-0.007": 11.7612899866,
			"-0.006": 17.9647117877,
			"-0.005": 39.7931624408,
			"-0.004": 66.4964721971,
			"-0.003": 56.1146527064,
			"-0.002": 38.6568192986,
			"-0.001": 25.3245503131,
			"0.0": 20.9070947843,
			"0.001": 21.2772735155,
			"0.002": 36.2429241982,
			"0.003": 31.5818985608,
			"0.004": 20.5972287176,
			"0.005": 15.4231863831,
			"0.006": 17.2432485446,
			"0.007": 21.8663192333,
			"0.008": 16.6721674169,
			"0.009": 12.3249939511,
			"0.01": 6.27965375979,
			"0.011": 2.745670696,
			"0.012": 1.76780308264,
			"0.013": 1.17715456152,
			"0.014": 0.0106763084698,
			"0.015": 0.0,
			"0.016": 0.0,
			"0.017": 0.0,
			"0.018": 0.0,
			"0.019": 0.0,
			"0.02": 0.0,
			"0.021": 0.0,
			"0.022": 0.0,
			"0.023": 0.0,
			"0.024": 0.0,
			"0.025": 0.0
		}
	}
}
