{
	 "smiles": "CCC(=O)NC1=CC(C(O)=O)=C(O)C=C1", 
	 "Tm": 491.15, 
	 "num_atms": 26, 
	 "gaussian": { 
		 "optdone": 1, 
		 "sigma_profile": "yes", 
		 "theory": "DFT", 
		 "functional": "B3LYP", 
		 "basiset": "6-31G**", 
		 "properties": { 
			 "R2extent": 4331.1874, 
			 "electric_dipole_moment_norm": 3.48890146321, 
			 "electric_quadrupole_moment_norm": 16.2940651941, 
			 "total_energy": -743.392257614, 
			 "HOMO_LUMO_gap": 0.15555, 
			 "cosmo_polarized_energy": -17.9, 
			 "cosmo_cavitation_energy": 30.4, 
			 "cosmo_dispersion_energy": -22.6, 
			 "cosmo_repulsion_energy": 1.77, 
			 "cosmo_total_nonelectrostatic_energy": 9.57, 
			 "SMD_solvation_energy": 7.18 
		},
		"coords": [
			{
				"x": -4.0358352361,
				"y": 1.5337011783,
				"z": -3.2871136384,
				"element": "C" 
			},
			{
				"x": -3.6577078663,
				"y": 1.6436725401,
				"z": -1.8117417132,
				"element": "C" 
			},
			{
				"x": -2.238880881,
				"y": 1.1395831398,
				"z": -1.5335138933,
				"element": "C" 
			},
			{
				"x": -1.5082116081,
				"y": 0.7028148471,
				"z": -2.4120271131,
				"element": "O" 
			},
			{
				"x": -1.873873827,
				"y": 1.2272130655,
				"z": -0.2073890621,
				"element": "N" 
			},
			{
				"x": -0.6531654913,
				"y": 0.8572816026,
				"z": 0.4009802926,
				"element": "C" 
			},
			{
				"x": 0.4253494539,
				"y": 0.3172955699,
				"z": -0.2953420673,
				"element": "C" 
			},
			{
				"x": 1.6081296978,
				"y": -0.0249417841,
				"z": 0.3882489651,
				"element": "C" 
			},
			{
				"x": 2.7562881927,
				"y": -0.5951442686,
				"z": -0.325297501,
				"element": "C" 
			},
			{
				"x": 2.5820888971,
				"y": -0.7559943182,
				"z": -1.6489948955,
				"element": "O" 
			},
			{
				"x": 3.8190585116,
				"y": -0.9152163217,
				"z": 0.2140981933,
				"element": "O" 
			},
			{
				"x": 1.7197118445,
				"y": 0.1732580528,
				"z": 1.7868915995,
				"element": "C" 
			},
			{
				"x": 2.8219236965,
				"y": -0.1342196372,
				"z": 2.4903679774,
				"element": "O" 
			},
			{
				"x": 0.623395326,
				"y": 0.7186193111,
				"z": 2.4739924078,
				"element": "C" 
			},
			{
				"x": -0.5341140343,
				"y": 1.0513629191,
				"z": 1.7926196159,
				"element": "C" 
			},
			{
				"x": -5.053046998,
				"y": 1.901736451,
				"z": -3.4496549096,
				"element": "H" 
			},
			{
				"x": -3.351026267,
				"y": 2.1153566657,
				"z": -3.9088610897,
				"element": "H" 
			},
			{
				"x": -3.9818829823,
				"y": 0.4965118328,
				"z": -3.6265143764,
				"element": "H" 
			},
			{
				"x": -4.3595491574,
				"y": 1.0717135806,
				"z": -1.1893202914,
				"element": "H" 
			},
			{
				"x": -3.7308640028,
				"y": 2.685546042,
				"z": -1.4707501684,
				"element": "H" 
			},
			{
				"x": -2.5677704362,
				"y": 1.6061871383,
				"z": 0.4213046898,
				"element": "H" 
			},
			{
				"x": 0.3520647994,
				"y": 0.1616257878,
				"z": -1.3615116867,
				"element": "H" 
			},
			{
				"x": 3.4095329139,
				"y": -1.1363465857,
				"z": -1.987284541,
				"element": "H" 
			},
			{
				"x": 3.477567488,
				"y": -0.5001713291,
				"z": 1.8496113072,
				"element": "H" 
			},
			{
				"x": 0.7083678486,
				"y": 0.8704600218,
				"z": 3.5443453075,
				"element": "H" 
			},
			{
				"x": -1.3703498822,
				"y": 1.4725944984,
				"z": 2.3472565912,
				"element": "H" 
			}
		],
		 "valence_orbital": [ 
			{
				"type": "occ",
				"energy": -0.29127,
				"method": "rhf"
			},
			{
				"type": "occ",
				"energy": -0.28855,
				"method": "rhf"
			},
			{
				"type": "occ",
				"energy": -0.26653,
				"method": "rhf"
			},
			{
				"type": "occ",
				"energy": -0.25621,
				"method": "rhf"
			},
			{
				"type": "occ",
				"energy": -0.20809,
				"method": "rhf"
			},
			{
				"type": "unocc",
				"energy": -0.05254,
				"method": "rhf"
			},
			{
				"type": "unocc",
				"energy": -0.00722,
				"method": "rhf"
			},
			{
				"type": "unocc",
				"energy": 0.03123,
				"method": "rhf"
			},
			{
				"type": "unocc",
				"energy": 0.06186,
				"method": "rhf"
			},
			{
				"type": "unocc",
				"energy": 0.06311,
				"method": "rhf"
			}
		],
		"cosmo_sigma_profile": { 
			"-0.025": 0.0,
			"-0.024": 0.0,
			"-0.023": 0.0,
			"-0.022": 0.0,
			"-0.021": 0.0,
			"-0.02": 0.0,
			"-0.019": 0.385562137672,
			"-0.018": 0.867548793777,
			"-0.017": 0.834086906237,
			"-0.016": 1.39187755784,
			"-0.015": 2.13748500374,
			"-0.014": 1.70683108619,
			"-0.013": 1.31056108871,
			"-0.012": 2.87375121913,
			"-0.011": 2.69238065505,
			"-0.01": 2.05188440771,
			"-0.009": 1.74613381274,
			"-0.008": 3.37469809619,
			"-0.007": 6.05243312512,
			"-0.006": 8.25576399649,
			"-0.005": 9.6673884017,
			"-0.004": 9.87980321095,
			"-0.003": 17.6017578744,
			"-0.002": 20.2432361616,
			"-0.001": 16.8867196919,
			"0.0": 15.9624761751,
			"0.001": 19.4777485709,
			"0.002": 21.4926735975,
			"0.003": 20.6393727175,
			"0.004": 9.38395778382,
			"0.005": 5.1567468787,
			"0.006": 6.90556411037,
			"0.007": 6.88065847632,
			"0.008": 3.15311973053,
			"0.009": 5.33344102524,
			"0.01": 4.77319081828,
			"0.011": 5.85574853503,
			"0.012": 2.74338098443,
			"0.013": 2.74103374821,
			"0.014": 0.971616316221,
			"0.015": 0.00324476279094,
			"0.016": 0.0,
			"0.017": 0.0,
			"0.018": 0.0,
			"0.019": 0.0,
			"0.02": 0.0,
			"0.021": 0.0,
			"0.022": 0.0,
			"0.023": 0.0,
			"0.024": 0.0,
			"0.025": 0.0
		}
	}
}
