{
	 "smiles": "CC1=NC=CN1C1=C(C=CC=C1)C(O)=O", 
	 "Tm": 506.15, 
	 "num_atms": 25, 
	 "gaussian": { 
		 "optdone": 1, 
		 "sigma_profile": "yes", 
		 "theory": "DFT", 
		 "functional": "B3LYP", 
		 "basiset": "6-31G**", 
		 "properties": { 
			 "R2extent": 2901.2489, 
			 "electric_dipole_moment_norm": 5.32454134175, 
			 "electric_quadrupole_moment_norm": 13.4057307891, 
			 "total_energy": -685.153169003, 
			 "HOMO_LUMO_gap": 0.17326, 
			 "cosmo_polarized_energy": -15.99, 
			 "cosmo_cavitation_energy": 29.11, 
			 "cosmo_dispersion_energy": -20.41, 
			 "cosmo_repulsion_energy": 1.57, 
			 "cosmo_total_nonelectrostatic_energy": 10.27, 
			 "SMD_solvation_energy": 5.11 
		},
		"coords": [
			{
				"x": -1.4886002288,
				"y": -0.4762433205,
				"z": -1.7033842711,
				"element": "C" 
			},
			{
				"x": -0.3407881349,
				"y": -1.3479603522,
				"z": -1.3130409741,
				"element": "C" 
			},
			{
				"x": -0.005983751,
				"y": -2.4822964186,
				"z": -1.8855819814,
				"element": "N" 
			},
			{
				"x": 1.1075428631,
				"y": -2.9425580519,
				"z": -1.2147648987,
				"element": "C" 
			},
			{
				"x": 1.4622251861,
				"y": -2.0816621184,
				"z": -0.2138921898,
				"element": "C" 
			},
			{
				"x": 0.545831413,
				"y": -1.0282014431,
				"z": -0.2867332819,
				"element": "N" 
			},
			{
				"x": 0.3979532872,
				"y": 0.0071201225,
				"z": 0.6978920623,
				"element": "C" 
			},
			{
				"x": 0.7399838136,
				"y": 1.3491140237,
				"z": 0.4357072172,
				"element": "C" 
			},
			{
				"x": 0.5332321649,
				"y": 2.2954355788,
				"z": 1.4515116435,
				"element": "C" 
			},
			{
				"x": 0.0284285046,
				"y": 1.9279286596,
				"z": 2.694195857,
				"element": "C" 
			},
			{
				"x": -0.2921120366,
				"y": 0.5924228501,
				"z": 2.9461276085,
				"element": "C" 
			},
			{
				"x": -0.1129437709,
				"y": -0.3612023243,
				"z": 1.946853241,
				"element": "C" 
			},
			{
				"x": 1.328361179,
				"y": 1.8980179581,
				"z": -0.8465000259,
				"element": "C" 
			},
			{
				"x": 1.7834005807,
				"y": 1.0293674181,
				"z": -1.7711950122,
				"element": "O" 
			},
			{
				"x": 1.410173333,
				"y": 3.0894577059,
				"z": -1.0422991723,
				"element": "O" 
			},
			{
				"x": -1.1483174583,
				"y": 0.461870714,
				"z": -2.1559383606,
				"element": "H" 
			},
			{
				"x": -2.0873344995,
				"y": -1.0144573368,
				"z": -2.4388892278,
				"element": "H" 
			},
			{
				"x": -2.1206992751,
				"y": -0.2234764318,
				"z": -0.8456921538,
				"element": "H" 
			},
			{
				"x": 1.5917661227,
				"y": -3.8673237208,
				"z": -1.4961866501,
				"element": "H" 
			},
			{
				"x": 2.2539036274,
				"y": -2.0851490479,
				"z": 0.5193610981,
				"element": "H" 
			},
			{
				"x": 0.7884789533,
				"y": 3.3254908276,
				"z": 1.2299580294,
				"element": "H" 
			},
			{
				"x": -0.114468028,
				"y": 2.679850279,
				"z": 3.4639966599,
				"element": "H" 
			},
			{
				"x": -0.6874978387,
				"y": 0.2934387249,
				"z": 3.9121157574,
				"element": "H" 
			},
			{
				"x": -0.3726101225,
				"y": -1.4014433764,
				"z": 2.1154447152,
				"element": "H" 
			},
			{
				"x": 1.6744741157,
				"y": 0.1123590805,
				"z": -1.4700656898,
				"element": "H" 
			}
		],
		 "valence_orbital": [ 
			{
				"type": "occ",
				"energy": -0.287,
				"method": "rhf"
			},
			{
				"type": "occ",
				"energy": -0.28334,
				"method": "rhf"
			},
			{
				"type": "occ",
				"energy": -0.27638,
				"method": "rhf"
			},
			{
				"type": "occ",
				"energy": -0.2684,
				"method": "rhf"
			},
			{
				"type": "occ",
				"energy": -0.23768,
				"method": "rhf"
			},
			{
				"type": "unocc",
				"energy": -0.06442,
				"method": "rhf"
			},
			{
				"type": "unocc",
				"energy": -0.03599,
				"method": "rhf"
			},
			{
				"type": "unocc",
				"energy": 0.00643,
				"method": "rhf"
			},
			{
				"type": "unocc",
				"energy": 0.04038,
				"method": "rhf"
			},
			{
				"type": "unocc",
				"energy": 0.05922,
				"method": "rhf"
			}
		],
		"cosmo_sigma_profile": { 
			"-0.025": 0.0,
			"-0.024": 0.0,
			"-0.023": 0.0,
			"-0.022": 0.0,
			"-0.021": 0.0,
			"-0.02": 0.0,
			"-0.019": 0.0,
			"-0.018": 0.0,
			"-0.017": 0.0,
			"-0.016": 0.0,
			"-0.015": 0.0,
			"-0.014": 0.0,
			"-0.013": 0.141348331376,
			"-0.012": 0.363855688386,
			"-0.011": 0.35331951819,
			"-0.01": 0.774321707196,
			"-0.009": 3.15951668884,
			"-0.008": 5.12616746289,
			"-0.007": 10.5572068072,
			"-0.006": 14.6860063831,
			"-0.005": 19.0404927388,
			"-0.004": 18.5947051128,
			"-0.003": 20.4668303883,
			"-0.002": 18.3562709656,
			"-0.001": 17.8264340289,
			"0.0": 13.248513391,
			"0.001": 14.314049475,
			"0.002": 15.4819425044,
			"0.003": 10.4925942335,
			"0.004": 4.51972279332,
			"0.005": 6.00154865764,
			"0.006": 4.06468692049,
			"0.007": 3.45600278953,
			"0.008": 4.410268812,
			"0.009": 4.65777754858,
			"0.01": 5.62494639973,
			"0.011": 6.37317008326,
			"0.012": 5.36426460452,
			"0.013": 2.05228310416,
			"0.014": 0.973722854654,
			"0.015": 1.0320844368,
			"0.016": 0.983577842793,
			"0.017": 0.869066403886,
			"0.018": 0.184258889312,
			"0.019": 0.0,
			"0.02": 0.0,
			"0.021": 0.0,
			"0.022": 0.0,
			"0.023": 0.0,
			"0.024": 0.0,
			"0.025": 0.0
		}
	}
}
