{
	 "smiles": "CC(Cl)C1=NN=C(O1)C1=CC(C)=C(C)C=C1", 
	 "Tm": 360.15, 
	 "num_atms": 29, 
	 "gaussian": { 
		 "optdone": 1, 
		 "sigma_profile": "yes", 
		 "theory": "DFT", 
		 "functional": "B3LYP", 
		 "basiset": "6-31G**", 
		 "properties": { 
			 "R2extent": 6019.518, 
			 "electric_dipole_moment_norm": 4.1176011973, 
			 "electric_quadrupole_moment_norm": 19.1305136784, 
			 "total_energy": -1110.03116505, 
			 "HOMO_LUMO_gap": 0.18055, 
			 "cosmo_polarized_energy": -11.44, 
			 "cosmo_cavitation_energy": 34.99, 
			 "cosmo_dispersion_energy": -24.98, 
			 "cosmo_repulsion_energy": 1.96, 
			 "cosmo_total_nonelectrostatic_energy": 11.97, 
			 "SMD_solvation_energy": 3.92 
		},
		"coords": [
			{
				"x": 0.4012428576,
				"y": -4.2917422133,
				"z": 0.8862807936,
				"element": "C" 
			},
			{
				"x": 0.8345063304,
				"y": -3.9448945136,
				"z": -0.5344065615,
				"element": "C" 
			},
			{
				"x": -0.4294281054,
				"y": -4.5540088535,
				"z": -1.7279921134,
				"element": "Cl" 
			},
			{
				"x": 1.0679230878,
				"y": -2.4954041973,
				"z": -0.7540798715,
				"element": "C" 
			},
			{
				"x": 2.1312066057,
				"y": -1.9329048322,
				"z": -1.2368594112,
				"element": "N" 
			},
			{
				"x": 1.8905674817,
				"y": -0.5634108477,
				"z": -1.2266508144,
				"element": "N" 
			},
			{
				"x": 0.6929458144,
				"y": -0.3978743669,
				"z": -0.7387739803,
				"element": "C" 
			},
			{
				"x": 0.1094911628,
				"y": -1.5911303143,
				"z": -0.4094161802,
				"element": "O" 
			},
			{
				"x": -0.0388626243,
				"y": 0.8422621409,
				"z": -0.5214765597,
				"element": "C" 
			},
			{
				"x": 0.5757341279,
				"y": 2.0637246451,
				"z": -0.8409949214,
				"element": "C" 
			},
			{
				"x": -0.0822559466,
				"y": 3.2779416055,
				"z": -0.6524356053,
				"element": "C" 
			},
			{
				"x": 0.6074565004,
				"y": 4.5736835218,
				"z": -1.0069524736,
				"element": "C" 
			},
			{
				"x": -1.3962245038,
				"y": 3.276119717,
				"z": -0.1279667794,
				"element": "C" 
			},
			{
				"x": -2.1425190154,
				"y": 4.5689784132,
				"z": 0.0905683636,
				"element": "C" 
			},
			{
				"x": -1.9991333135,
				"y": 2.0526513043,
				"z": 0.1865035606,
				"element": "C" 
			},
			{
				"x": -1.3393229995,
				"y": 0.8416118352,
				"z": -0.0033398791,
				"element": "C" 
			},
			{
				"x": 0.254849305,
				"y": -5.3692476384,
				"z": 0.9841606735,
				"element": "H" 
			},
			{
				"x": -0.5306936905,
				"y": -3.7839376898,
				"z": 1.1440977838,
				"element": "H" 
			},
			{
				"x": 1.1792494264,
				"y": -3.9774279833,
				"z": 1.5903831809,
				"element": "H" 
			},
			{
				"x": 1.7554097373,
				"y": -4.4574904882,
				"z": -0.8121451537,
				"element": "H" 
			},
			{
				"x": 1.5840378996,
				"y": 2.0482870002,
				"z": -1.2427836979,
				"element": "H" 
			},
			{
				"x": 0.7015535265,
				"y": 5.2326924382,
				"z": -0.1354661829,
				"element": "H" 
			},
			{
				"x": 0.0490492181,
				"y": 5.1333320758,
				"z": -1.766898209,
				"element": "H" 
			},
			{
				"x": 1.6113496695,
				"y": 4.3906489333,
				"z": -1.397461479,
				"element": "H" 
			},
			{
				"x": -3.1388663084,
				"y": 4.3859908317,
				"z": 0.5006333797,
				"element": "H" 
			},
			{
				"x": -1.609727298,
				"y": 5.2298987986,
				"z": 0.7849542195,
				"element": "H" 
			},
			{
				"x": -2.2622666861,
				"y": 5.1284135738,
				"z": -0.8451304765,
				"element": "H" 
			},
			{
				"x": -3.0090495084,
				"y": 2.0497109629,
				"z": 0.5879323457,
				"element": "H" 
			},
			{
				"x": -1.8276227513,
				"y": -0.0946738592,
				"z": 0.2444160489,
				"element": "H" 
			}
		],
		 "valence_orbital": [ 
			{
				"type": "occ",
				"energy": -0.30336,
				"method": "rhf"
			},
			{
				"type": "occ",
				"energy": -0.29489,
				"method": "rhf"
			},
			{
				"type": "occ",
				"energy": -0.27909,
				"method": "rhf"
			},
			{
				"type": "occ",
				"energy": -0.25473,
				"method": "rhf"
			},
			{
				"type": "occ",
				"energy": -0.23508,
				"method": "rhf"
			},
			{
				"type": "unocc",
				"energy": -0.05453,
				"method": "rhf"
			},
			{
				"type": "unocc",
				"energy": -0.01861,
				"method": "rhf"
			},
			{
				"type": "unocc",
				"energy": -0.00769,
				"method": "rhf"
			},
			{
				"type": "unocc",
				"energy": 0.04424,
				"method": "rhf"
			},
			{
				"type": "unocc",
				"energy": 0.05932,
				"method": "rhf"
			}
		],
		"cosmo_sigma_profile": { 
			"-0.025": 0.0,
			"-0.024": 0.0,
			"-0.023": 0.0,
			"-0.022": 0.0,
			"-0.021": 0.0,
			"-0.02": 0.0,
			"-0.019": 0.0,
			"-0.018": 0.0,
			"-0.017": 0.0,
			"-0.016": 0.0,
			"-0.015": 0.0,
			"-0.014": 0.0,
			"-0.013": 0.0,
			"-0.012": 0.0,
			"-0.011": 0.0,
			"-0.01": 0.15717533988,
			"-0.009": 1.76420170356,
			"-0.008": 1.73234779561,
			"-0.007": 3.55490286504,
			"-0.006": 10.1007426488,
			"-0.005": 19.3321347134,
			"-0.004": 27.7605317658,
			"-0.003": 23.8523490818,
			"-0.002": 27.3401077165,
			"-0.001": 29.7886847078,
			"0.0": 26.5252147038,
			"0.001": 20.0694046364,
			"0.002": 16.0366923115,
			"0.003": 16.1749837986,
			"0.004": 17.8202264747,
			"0.005": 12.235264413,
			"0.006": 6.4918150059,
			"0.007": 1.83055156954,
			"0.008": 2.59923690399,
			"0.009": 1.88400262992,
			"0.01": 2.90451255407,
			"0.011": 2.97621923482,
			"0.012": 2.8194406361,
			"0.013": 2.37920401417,
			"0.014": 1.83635250604,
			"0.015": 0.211146907156,
			"0.016": 0.0,
			"0.017": 0.0,
			"0.018": 0.0,
			"0.019": 0.0,
			"0.02": 0.0,
			"0.021": 0.0,
			"0.022": 0.0,
			"0.023": 0.0,
			"0.024": 0.0,
			"0.025": 0.0
		}
	}
}
