{
	 "smiles": "CCOC(=O)C1=NNC(=C1)C1CC1", 
	 "Tm": 372.15, 
	 "num_atms": 25, 
	 "gaussian": { 
		 "optdone": 1, 
		 "sigma_profile": "yes", 
		 "theory": "DFT", 
		 "functional": "B3LYP", 
		 "basiset": "6-31G**", 
		 "properties": { 
			 "R2extent": 3833.0775, 
			 "electric_dipole_moment_norm": 4.50023735596, 
			 "electric_quadrupole_moment_norm": 16.4336853648, 
			 "total_energy": -610.105300151, 
			 "HOMO_LUMO_gap": 0.22323, 
			 "cosmo_polarized_energy": -15.56, 
			 "cosmo_cavitation_energy": 29.5, 
			 "cosmo_dispersion_energy": -21.21, 
			 "cosmo_repulsion_energy": 1.73, 
			 "cosmo_total_nonelectrostatic_energy": 10.02, 
			 "SMD_solvation_energy": 4.86 
		},
		"coords": [
			{
				"x": 4.4294243133,
				"y": -1.9725542027,
				"z": -1.1566497834,
				"element": "C" 
			},
			{
				"x": 3.8291290993,
				"y": -1.0706999543,
				"z": -2.2255617147,
				"element": "C" 
			},
			{
				"x": 2.5471211764,
				"y": -0.5459624153,
				"z": -1.8141122094,
				"element": "O" 
			},
			{
				"x": 2.5772685193,
				"y": 0.5818171437,
				"z": -1.0565461936,
				"element": "C" 
			},
			{
				"x": 3.5950298292,
				"y": 1.1511940558,
				"z": -0.7249649542,
				"element": "O" 
			},
			{
				"x": 1.2003808967,
				"y": 1.0010365788,
				"z": -0.7102961147,
				"element": "C" 
			},
			{
				"x": 1.0067507752,
				"y": 2.0906312122,
				"z": 0.0426011176,
				"element": "N" 
			},
			{
				"x": -0.3250830714,
				"y": 2.1698691863,
				"z": 0.1544798167,
				"element": "N" 
			},
			{
				"x": -1.0066359399,
				"y": 1.1740898746,
				"z": -0.4955123017,
				"element": "C" 
			},
			{
				"x": -0.0266633939,
				"y": 0.3906469662,
				"z": -1.0748557177,
				"element": "C" 
			},
			{
				"x": -2.4863050465,
				"y": 1.1064010561,
				"z": -0.5025720101,
				"element": "C" 
			},
			{
				"x": -3.2419447562,
				"y": 0.5910938038,
				"z": 0.7126508332,
				"element": "C" 
			},
			{
				"x": -3.181426994,
				"y": -0.2327572517,
				"z": -0.5448637243,
				"element": "C" 
			},
			{
				"x": 5.3617406572,
				"y": -2.4153098844,
				"z": -1.5232642765,
				"element": "H" 
			},
			{
				"x": 4.6536446025,
				"y": -1.3982824735,
				"z": -0.2546052257,
				"element": "H" 
			},
			{
				"x": 3.7416007843,
				"y": -2.7836274858,
				"z": -0.8993129965,
				"element": "H" 
			},
			{
				"x": 3.6156250921,
				"y": -1.6250301891,
				"z": -3.143032516,
				"element": "H" 
			},
			{
				"x": 4.4961398099,
				"y": -0.2354712664,
				"z": -2.4526370817,
				"element": "H" 
			},
			{
				"x": -0.7240590594,
				"y": 2.9179408405,
				"z": 0.7023585637,
				"element": "H" 
			},
			{
				"x": -0.1653768388,
				"y": -0.4893313036,
				"z": -1.6822679257,
				"element": "H" 
			},
			{
				"x": -2.976559341,
				"y": 1.9099845875,
				"z": -1.0507089858,
				"element": "H" 
			},
			{
				"x": -2.6557876963,
				"y": 0.2579836469,
				"z": 1.5634472222,
				"element": "H" 
			},
			{
				"x": -4.1768478237,
				"y": 1.0789239099,
				"z": 0.9705576966,
				"element": "H" 
			},
			{
				"x": -2.5588026568,
				"y": -1.1215154569,
				"z": -0.534627754,
				"element": "H" 
			},
			{
				"x": -4.0753629372,
				"y": -0.3179709788,
				"z": -1.1541037643,
				"element": "H" 
			}
		],
		 "valence_orbital": [ 
			{
				"type": "occ",
				"energy": -0.28776,
				"method": "rhf"
			},
			{
				"type": "occ",
				"energy": -0.28759,
				"method": "rhf"
			},
			{
				"type": "occ",
				"energy": -0.26114,
				"method": "rhf"
			},
			{
				"type": "occ",
				"energy": -0.2607,
				"method": "rhf"
			},
			{
				"type": "occ",
				"energy": -0.24321,
				"method": "rhf"
			},
			{
				"type": "unocc",
				"energy": -0.01998,
				"method": "rhf"
			},
			{
				"type": "unocc",
				"energy": 0.02312,
				"method": "rhf"
			},
			{
				"type": "unocc",
				"energy": 0.07851,
				"method": "rhf"
			},
			{
				"type": "unocc",
				"energy": 0.09368,
				"method": "rhf"
			},
			{
				"type": "unocc",
				"energy": 0.10541,
				"method": "rhf"
			}
		],
		"cosmo_sigma_profile": { 
			"-0.025": 0.0,
			"-0.024": 0.0,
			"-0.023": 0.0,
			"-0.022": 0.0,
			"-0.021": 0.0,
			"-0.02": 0.0,
			"-0.019": 0.0,
			"-0.018": 0.0,
			"-0.017": 0.643730241592,
			"-0.016": 1.46544497529,
			"-0.015": 1.18029277623,
			"-0.014": 0.537805505638,
			"-0.013": 0.668318777073,
			"-0.012": 1.04147165161,
			"-0.011": 1.28158408923,
			"-0.01": 1.16207427041,
			"-0.009": 0.732177744351,
			"-0.008": 0.923031102089,
			"-0.007": 1.47157473812,
			"-0.006": 5.86043022495,
			"-0.005": 16.0301885431,
			"-0.004": 22.8880685565,
			"-0.003": 22.7847358237,
			"-0.002": 23.7496187272,
			"-0.001": 19.7479317178,
			"0.0": 22.4764041548,
			"0.001": 13.9831761208,
			"0.002": 14.4899985192,
			"0.003": 13.9534878095,
			"0.004": 9.6537004737,
			"0.005": 4.80891425764,
			"0.006": 5.00731592718,
			"0.007": 2.44364096079,
			"0.008": 2.76189642723,
			"0.009": 2.31891649453,
			"0.01": 2.71268008565,
			"0.011": 3.91233868007,
			"0.012": 4.97057086702,
			"0.013": 2.41167775588,
			"0.014": 2.38760919694,
			"0.015": 2.17283550464,
			"0.016": 0.605500876727,
			"0.017": 0.0,
			"0.018": 0.0,
			"0.019": 0.0,
			"0.02": 0.0,
			"0.021": 0.0,
			"0.022": 0.0,
			"0.023": 0.0,
			"0.024": 0.0,
			"0.025": 0.0
		}
	}
}
