{
	 "smiles": "OC(=O)C1=CC(Br)=CC=C1", 
	 "Tm": 429.15, 
	 "num_atms": 15, 
	 "gaussian": { 
		 "optdone": 1, 
		 "sigma_profile": "yes", 
		 "theory": "DFT", 
		 "functional": "B3LYP", 
		 "basiset": "6-31G**", 
		 "properties": { 
			 "R2extent": 2786.4625, 
			 "electric_dipole_moment_norm": 4.81193524582, 
			 "electric_quadrupole_moment_norm": 11.3241145769, 
			 "total_energy": -2991.61589157, 
			 "HOMO_LUMO_gap": 0.19852, 
			 "cosmo_polarized_energy": -13.81, 
			 "cosmo_cavitation_energy": 22.19, 
			 "cosmo_dispersion_energy": -16.9, 
			 "cosmo_repulsion_energy": 1.37, 
			 "cosmo_total_nonelectrostatic_energy": 6.65, 
			 "SMD_solvation_energy": 3.88 
		},
		"coords": [
			{
				"x": -1.7376299502,
				"y": 2.566746546,
				"z": -0.9309088235,
				"element": "O" 
			},
			{
				"x": -0.5189091881,
				"y": 1.9829244785,
				"z": -0.7832929658,
				"element": "C" 
			},
			{
				"x": 0.4723708827,
				"y": 2.5349516182,
				"z": -1.1962503578,
				"element": "O" 
			},
			{
				"x": -0.4898810166,
				"y": 0.647982953,
				"z": -0.0945701238,
				"element": "C" 
			},
			{
				"x": 0.7350767572,
				"y": 0.2387723249,
				"z": 0.4488558744,
				"element": "C" 
			},
			{
				"x": 0.8178250986,
				"y": -0.9892813488,
				"z": 1.0947493978,
				"element": "C" 
			},
			{
				"x": 2.4790610104,
				"y": -1.5403793832,
				"z": 1.8556371162,
				"element": "Br" 
			},
			{
				"x": -0.291522448,
				"y": -1.8312026777,
				"z": 1.1957013577,
				"element": "C" 
			},
			{
				"x": -1.5022611615,
				"y": -1.4289062859,
				"z": 0.6319954206,
				"element": "C" 
			},
			{
				"x": -1.6061860057,
				"y": -0.1949843526,
				"z": -0.00990027,
				"element": "C" 
			},
			{
				"x": -2.4014438838,
				"y": 2.0975554468,
				"z": -0.4069412301,
				"element": "H" 
			},
			{
				"x": 1.5961460988,
				"y": 0.889233376,
				"z": 0.3547723145,
				"element": "H" 
			},
			{
				"x": -0.2052309623,
				"y": -2.7868410243,
				"z": 1.6999920163,
				"element": "H" 
			},
			{
				"x": -2.3643371179,
				"y": -2.0861739894,
				"z": 0.6893404735,
				"element": "H" 
			},
			{
				"x": -2.5489781137,
				"y": 0.0799023184,
				"z": -0.4755801999,
				"element": "H" 
			}
		],
		 "valence_orbital": [ 
			{
				"type": "occ",
				"energy": -0.32301,
				"method": "rhf"
			},
			{
				"type": "occ",
				"energy": -0.29857,
				"method": "rhf"
			},
			{
				"type": "occ",
				"energy": -0.28797,
				"method": "rhf"
			},
			{
				"type": "occ",
				"energy": -0.27615,
				"method": "rhf"
			},
			{
				"type": "occ",
				"energy": -0.26142,
				"method": "rhf"
			},
			{
				"type": "unocc",
				"energy": -0.0629,
				"method": "rhf"
			},
			{
				"type": "unocc",
				"energy": -0.03582,
				"method": "rhf"
			},
			{
				"type": "unocc",
				"energy": -0.00493,
				"method": "rhf"
			},
			{
				"type": "unocc",
				"energy": 0.03677,
				"method": "rhf"
			},
			{
				"type": "unocc",
				"energy": 0.05522,
				"method": "rhf"
			}
		],
		"cosmo_sigma_profile": { 
			"-0.025": 0.0,
			"-0.024": 0.0,
			"-0.023": 0.0,
			"-0.022": 0.0,
			"-0.021": 0.0,
			"-0.02": 0.0,
			"-0.019": 0.513567091347,
			"-0.018": 0.830594798479,
			"-0.017": 1.05255084667,
			"-0.016": 0.789752856645,
			"-0.015": 0.937887054946,
			"-0.014": 0.709176108399,
			"-0.013": 1.66752518335,
			"-0.012": 1.37239196726,
			"-0.011": 1.06842268829,
			"-0.01": 1.04078709468,
			"-0.009": 1.47552572759,
			"-0.008": 4.07635228367,
			"-0.007": 8.37999068904,
			"-0.006": 7.96918792598,
			"-0.005": 6.88863994056,
			"-0.004": 8.52052924853,
			"-0.003": 9.14254544753,
			"-0.002": 9.46668364233,
			"-0.001": 10.5419623571,
			"0.0": 13.0180200858,
			"0.001": 20.9730833694,
			"0.002": 17.6753395125,
			"0.003": 10.3937695791,
			"0.004": 12.5567535982,
			"0.005": 4.60771758807,
			"0.006": 1.87139258923,
			"0.007": 2.48599305007,
			"0.008": 3.33510520611,
			"0.009": 3.77019127645,
			"0.01": 4.73037165701,
			"0.011": 5.21884798032,
			"0.012": 3.81540576138,
			"0.013": 0.930221133954,
			"0.014": 0.0,
			"0.015": 0.0,
			"0.016": 0.0,
			"0.017": 0.0,
			"0.018": 0.0,
			"0.019": 0.0,
			"0.02": 0.0,
			"0.021": 0.0,
			"0.022": 0.0,
			"0.023": 0.0,
			"0.024": 0.0,
			"0.025": 0.0
		}
	}
}
