{
	 "smiles": "NC(=O)OCC(O)C1=CC=CC=C1", 
	 "Tm": 385.15, 
	 "num_atms": 24, 
	 "gaussian": { 
		 "optdone": 1, 
		 "sigma_profile": "yes", 
		 "theory": "DFT", 
		 "functional": "B3LYP", 
		 "basiset": "6-31G**", 
		 "properties": { 
			 "R2extent": 2480.761, 
			 "electric_dipole_moment_norm": 4.10336404064, 
			 "electric_quadrupole_moment_norm": 10.6632138682, 
			 "total_energy": -630.03027456, 
			 "HOMO_LUMO_gap": 0.23762, 
			 "cosmo_polarized_energy": -14.64, 
			 "cosmo_cavitation_energy": 27.52, 
			 "cosmo_dispersion_energy": -19.78, 
			 "cosmo_repulsion_energy": 1.6, 
			 "cosmo_total_nonelectrostatic_energy": 9.34, 
			 "SMD_solvation_energy": 5.52 
		},
		"coords": [
			{
				"x": 2.7177269536,
				"y": -0.6390545402,
				"z": -1.0553280526,
				"element": "N" 
			},
			{
				"x": 1.8701554191,
				"y": -0.9739271177,
				"z": -0.0473487683,
				"element": "C" 
			},
			{
				"x": 2.1606729331,
				"y": -0.915194127,
				"z": 1.142171201,
				"element": "O" 
			},
			{
				"x": 0.6898140722,
				"y": -1.4013784386,
				"z": -0.5406812138,
				"element": "O" 
			},
			{
				"x": -0.262290873,
				"y": -1.9730153575,
				"z": 0.386581757,
				"element": "C" 
			},
			{
				"x": -0.9765280753,
				"y": -0.9609095735,
				"z": 1.3060731128,
				"element": "C" 
			},
			{
				"x": -0.2327885063,
				"y": -0.6743266141,
				"z": 2.469515979,
				"element": "O" 
			},
			{
				"x": -1.4152979118,
				"y": 0.2901894631,
				"z": 0.5435170188,
				"element": "C" 
			},
			{
				"x": -2.3679031862,
				"y": 0.2032231999,
				"z": -0.4808453053,
				"element": "C" 
			},
			{
				"x": -2.7638044764,
				"y": 1.3404308478,
				"z": -1.1837349104,
				"element": "C" 
			},
			{
				"x": -2.212851366,
				"y": 2.5854060492,
				"z": -0.8686435892,
				"element": "C" 
			},
			{
				"x": -1.2717736928,
				"y": 2.680936825,
				"z": 0.1567235224,
				"element": "C" 
			},
			{
				"x": -0.8775890425,
				"y": 1.5401154011,
				"z": 0.8602678182,
				"element": "C" 
			},
			{
				"x": 3.5538478535,
				"y": -0.1378835465,
				"z": -0.8044472072,
				"element": "H" 
			},
			{
				"x": 2.3674356259,
				"y": -0.5730144918,
				"z": -1.9973856118,
				"element": "H" 
			},
			{
				"x": -0.9835030903,
				"y": -2.4632133586,
				"z": -0.2697705085,
				"element": "H" 
			},
			{
				"x": 0.2364733319,
				"y": -2.726487179,
				"z": 1.0039444743,
				"element": "H" 
			},
			{
				"x": -1.8846801409,
				"y": -1.4825033338,
				"z": 1.6458705184,
				"element": "H" 
			},
			{
				"x": 0.7109356364,
				"y": -0.6876273603,
				"z": 2.2189121213,
				"element": "H" 
			},
			{
				"x": -2.8118243077,
				"y": -0.7589423518,
				"z": -0.7288156338,
				"element": "H" 
			},
			{
				"x": -3.5059094903,
				"y": 1.2567738267,
				"z": -1.9730906549,
				"element": "H" 
			},
			{
				"x": -2.5228567395,
				"y": 3.4731029408,
				"z": -1.4128231231,
				"element": "H" 
			},
			{
				"x": -0.8471028457,
				"y": 3.6468859017,
				"z": 0.4168218515,
				"element": "H" 
			},
			{
				"x": -0.1657580809,
				"y": 1.6078129352,
				"z": 1.675615204,
				"element": "H" 
			}
		],
		 "valence_orbital": [ 
			{
				"type": "occ",
				"energy": -0.28975,
				"method": "rhf"
			},
			{
				"type": "occ",
				"energy": -0.28199,
				"method": "rhf"
			},
			{
				"type": "occ",
				"energy": -0.25756,
				"method": "rhf"
			},
			{
				"type": "occ",
				"energy": -0.24398,
				"method": "rhf"
			},
			{
				"type": "occ",
				"energy": -0.23635,
				"method": "rhf"
			},
			{
				"type": "unocc",
				"energy": 0.00127,
				"method": "rhf"
			},
			{
				"type": "unocc",
				"energy": 0.00652,
				"method": "rhf"
			},
			{
				"type": "unocc",
				"energy": 0.03632,
				"method": "rhf"
			},
			{
				"type": "unocc",
				"energy": 0.07054,
				"method": "rhf"
			},
			{
				"type": "unocc",
				"energy": 0.08923,
				"method": "rhf"
			}
		],
		"cosmo_sigma_profile": { 
			"-0.025": 0.0,
			"-0.024": 0.0,
			"-0.023": 0.0,
			"-0.022": 0.0,
			"-0.021": 0.0,
			"-0.02": 0.0,
			"-0.019": 0.0,
			"-0.018": 0.0,
			"-0.017": 0.0,
			"-0.016": 0.0162300079123,
			"-0.015": 1.40023456925,
			"-0.014": 2.2935541984,
			"-0.013": 2.6544894722,
			"-0.012": 1.62154089067,
			"-0.011": 2.16374154462,
			"-0.01": 1.80605889274,
			"-0.009": 1.5723343675,
			"-0.008": 2.78137250858,
			"-0.007": 5.04702980551,
			"-0.006": 11.376359184,
			"-0.005": 16.3995990765,
			"-0.004": 15.838632328,
			"-0.003": 16.1113192241,
			"-0.002": 12.3724308522,
			"-0.001": 13.4899409281,
			"0.0": 12.8448099471,
			"0.001": 11.1932150442,
			"0.002": 12.1756719069,
			"0.003": 10.7124477189,
			"0.004": 11.6402146392,
			"0.005": 12.6095961955,
			"0.006": 12.5695254434,
			"0.007": 7.38934159329,
			"0.008": 3.50394881764,
			"0.009": 2.32654067066,
			"0.01": 2.38665541446,
			"0.011": 2.66052549682,
			"0.012": 3.76894146458,
			"0.013": 1.72301913502,
			"0.014": 1.87927423172,
			"0.015": 1.21720034625,
			"0.016": 0.0,
			"0.017": 0.0,
			"0.018": 0.0,
			"0.019": 0.0,
			"0.02": 0.0,
			"0.021": 0.0,
			"0.022": 0.0,
			"0.023": 0.0,
			"0.024": 0.0,
			"0.025": 0.0
		}
	}
}
