{
	 "smiles": "ClCC(=O)NN1C(=O)NC2(CCCCC2)C1=O", 
	 "Tm": 379.15, 
	 "num_atms": 31, 
	 "gaussian": { 
		 "optdone": 1, 
		 "sigma_profile": "yes", 
		 "theory": "DFT", 
		 "functional": "B3LYP", 
		 "basiset": "6-31G**", 
		 "properties": { 
			 "R2extent": 5409.133, 
			 "electric_dipole_moment_norm": 5.76925140811, 
			 "electric_quadrupole_moment_norm": 18.7526559879, 
			 "total_energy": -1239.64919035, 
			 "HOMO_LUMO_gap": 0.23259, 
			 "cosmo_polarized_energy": -19.55, 
			 "cosmo_cavitation_energy": 34.67, 
			 "cosmo_dispersion_energy": -24.15, 
			 "cosmo_repulsion_energy": 1.88, 
			 "cosmo_total_nonelectrostatic_energy": 12.41, 
			 "SMD_solvation_energy": 7.04 
		},
		"coords": [
			{
				"x": -2.4439006781,
				"y": -1.5662868916,
				"z": -2.8080042369,
				"element": "Cl" 
			},
			{
				"x": -0.7604170599,
				"y": -0.9627453689,
				"z": -3.1150935252,
				"element": "C" 
			},
			{
				"x": 0.307200132,
				"y": -2.0217053502,
				"z": -2.8634000273,
				"element": "C" 
			},
			{
				"x": 0.9880020329,
				"y": -2.4744647806,
				"z": -3.7631294779,
				"element": "O" 
			},
			{
				"x": 0.5607189764,
				"y": -2.3799049914,
				"z": -1.5517123695,
				"element": "N" 
			},
			{
				"x": -0.22518591,
				"y": -2.0578648324,
				"z": -0.474793875,
				"element": "N" 
			},
			{
				"x": -1.057197836,
				"y": -3.0316667292,
				"z": 0.1683477309,
				"element": "C" 
			},
			{
				"x": -1.1701232071,
				"y": -4.1839192876,
				"z": -0.1822588103,
				"element": "O" 
			},
			{
				"x": -1.6027213653,
				"y": -2.3695769119,
				"z": 1.2245939366,
				"element": "N" 
			},
			{
				"x": -1.2184801187,
				"y": -0.9604032415,
				"z": 1.3403238904,
				"element": "C" 
			},
			{
				"x": -2.4434149853,
				"y": -0.027692997,
				"z": 1.1648144968,
				"element": "C" 
			},
			{
				"x": -2.1098046956,
				"y": 1.4543986074,
				"z": 1.3939036407,
				"element": "C" 
			},
			{
				"x": -1.4418758247,
				"y": 1.6759716881,
				"z": 2.7585367165,
				"element": "C" 
			},
			{
				"x": -0.1887222256,
				"y": 0.801836719,
				"z": 2.9094519928,
				"element": "C" 
			},
			{
				"x": -0.5108746342,
				"y": -0.6844241154,
				"z": 2.6901898118,
				"element": "C" 
			},
			{
				"x": -0.2399650006,
				"y": -0.8239634685,
				"z": 0.1588271957,
				"element": "C" 
			},
			{
				"x": 0.3718428942,
				"y": 0.1652136404,
				"z": -0.1950438778,
				"element": "O" 
			},
			{
				"x": -0.7023866526,
				"y": -0.6986694533,
				"z": -4.1684255367,
				"element": "H" 
			},
			{
				"x": -0.6026952181,
				"y": -0.0861611624,
				"z": -2.4852263295,
				"element": "H" 
			},
			{
				"x": 1.2172943418,
				"y": -3.139414016,
				"z": -1.4166552935,
				"element": "H" 
			},
			{
				"x": -2.2586543522,
				"y": -2.8293376573,
				"z": 1.8370131762,
				"element": "H" 
			},
			{
				"x": -2.8815605183,
				"y": -0.1901464525,
				"z": 0.1740723731,
				"element": "H" 
			},
			{
				"x": -3.1939804031,
				"y": -0.3513191723,
				"z": 1.8999040473,
				"element": "H" 
			},
			{
				"x": -1.4400872431,
				"y": 1.8017948339,
				"z": 0.6000191277,
				"element": "H" 
			},
			{
				"x": -3.0314893341,
				"y": 2.0423478073,
				"z": 1.3168928809,
				"element": "H" 
			},
			{
				"x": -1.179686761,
				"y": 2.7326670295,
				"z": 2.8819842644,
				"element": "H" 
			},
			{
				"x": -2.1558709697,
				"y": 1.4346444694,
				"z": 3.5595830556,
				"element": "H" 
			},
			{
				"x": 0.5671915715,
				"y": 1.118934613,
				"z": 2.1833003588,
				"element": "H" 
			},
			{
				"x": 0.2495818158,
				"y": 0.9273777641,
				"z": 3.9061342287,
				"element": "H" 
			},
			{
				"x": -1.1906904445,
				"y": -1.0326567345,
				"z": 3.4806059564,
				"element": "H" 
			},
			{
				"x": 0.3925536733,
				"y": -1.3007635577,
				"z": 2.7597444784,
				"element": "H" 
			}
		],
		 "valence_orbital": [ 
			{
				"type": "occ",
				"energy": -0.30119,
				"method": "rhf"
			},
			{
				"type": "occ",
				"energy": -0.28622,
				"method": "rhf"
			},
			{
				"type": "occ",
				"energy": -0.27617,
				"method": "rhf"
			},
			{
				"type": "occ",
				"energy": -0.27409,
				"method": "rhf"
			},
			{
				"type": "occ",
				"energy": -0.2629,
				"method": "rhf"
			},
			{
				"type": "unocc",
				"energy": -0.03031,
				"method": "rhf"
			},
			{
				"type": "unocc",
				"energy": -0.02437,
				"method": "rhf"
			},
			{
				"type": "unocc",
				"energy": 0.03951,
				"method": "rhf"
			},
			{
				"type": "unocc",
				"energy": 0.04717,
				"method": "rhf"
			},
			{
				"type": "unocc",
				"energy": 0.06394,
				"method": "rhf"
			}
		],
		"cosmo_sigma_profile": { 
			"-0.025": 0.0,
			"-0.024": 0.0,
			"-0.023": 0.0,
			"-0.022": 0.0,
			"-0.021": 0.0,
			"-0.02": 0.0,
			"-0.019": 0.0,
			"-0.018": 0.0,
			"-0.017": 0.0519001784912,
			"-0.016": 1.32024436995,
			"-0.015": 2.5680375793,
			"-0.014": 2.19668405938,
			"-0.013": 1.67874941707,
			"-0.012": 1.91014003379,
			"-0.011": 2.18576273058,
			"-0.01": 2.40532824728,
			"-0.009": 3.3857852865,
			"-0.008": 3.76834998849,
			"-0.007": 6.64770180239,
			"-0.006": 10.6160705715,
			"-0.005": 9.70775732059,
			"-0.004": 12.708562842,
			"-0.003": 19.884396028,
			"-0.002": 25.7197827045,
			"-0.001": 34.9219836877,
			"0.0": 30.0222722107,
			"0.001": 18.2868546052,
			"0.002": 9.88165728037,
			"0.003": 8.20048143877,
			"0.004": 8.74806602385,
			"0.005": 11.0989575342,
			"0.006": 5.00798122548,
			"0.007": 4.0624093158,
			"0.008": 3.54278170249,
			"0.009": 5.43279766532,
			"0.01": 5.26695017497,
			"0.011": 9.9451424936,
			"0.012": 10.619257943,
			"0.013": 1.93260672888,
			"0.014": 0.0,
			"0.015": 0.0,
			"0.016": 0.0,
			"0.017": 0.0,
			"0.018": 0.0,
			"0.019": 0.0,
			"0.02": 0.0,
			"0.021": 0.0,
			"0.022": 0.0,
			"0.023": 0.0,
			"0.024": 0.0,
			"0.025": 0.0
		}
	}
}
