{
	 "smiles": "OC(=O)C1=C(N(N=N1)C1=CC=C(F)C=C1)C(F)(F)F", 
	 "Tm": 420.15, 
	 "num_atms": 24, 
	 "gaussian": { 
		 "optdone": 1, 
		 "sigma_profile": "yes", 
		 "theory": "DFT", 
		 "functional": "B3LYP", 
		 "basiset": "6-31G**", 
		 "properties": { 
			 "R2extent": 5608.8142, 
			 "electric_dipole_moment_norm": 1.7956061762, 
			 "electric_quadrupole_moment_norm": 9.67120994861, 
			 "total_energy": -1098.09685857, 
			 "HOMO_LUMO_gap": 0.19582, 
			 "cosmo_polarized_energy": -14.35, 
			 "cosmo_cavitation_energy": 31.88, 
			 "cosmo_dispersion_energy": -22.34, 
			 "cosmo_repulsion_energy": 1.63, 
			 "cosmo_total_nonelectrostatic_energy": 11.17, 
			 "SMD_solvation_energy": 6.88 
		},
		"coords": [
			{
				"x": -4.3437321783,
				"y": -0.8874408463,
				"z": -2.9902348907,
				"element": "O" 
			},
			{
				"x": -3.0190326898,
				"y": -0.6543642799,
				"z": -2.9227964205,
				"element": "C" 
			},
			{
				"x": -2.2935123901,
				"y": -0.6116208957,
				"z": -3.8936002416,
				"element": "O" 
			},
			{
				"x": -2.5661923244,
				"y": -0.4334318516,
				"z": -1.5291363977,
				"element": "C" 
			},
			{
				"x": -1.2767500875,
				"y": -0.4435515658,
				"z": -1.012840998,
				"element": "C" 
			},
			{
				"x": -1.4359549685,
				"y": -0.080438583,
				"z": 0.2911887334,
				"element": "N" 
			},
			{
				"x": -2.7592436719,
				"y": 0.124198486,
				"z": 0.5590942164,
				"element": "N" 
			},
			{
				"x": -3.4276447476,
				"y": -0.0965577071,
				"z": -0.5267088623,
				"element": "N" 
			},
			{
				"x": -0.489482005,
				"y": 0.1394163247,
				"z": 1.3426930732,
				"element": "C" 
			},
			{
				"x": 0.6525826417,
				"y": 0.9126137153,
				"z": 1.1193426302,
				"element": "C" 
			},
			{
				"x": 1.5373838049,
				"y": 1.1452682874,
				"z": 2.1687941785,
				"element": "C" 
			},
			{
				"x": 1.2485202338,
				"y": 0.6160218653,
				"z": 3.4228190922,
				"element": "C" 
			},
			{
				"x": 2.1003240542,
				"y": 0.8460715629,
				"z": 4.4373372863,
				"element": "F" 
			},
			{
				"x": 0.1056194959,
				"y": -0.1408966166,
				"z": 3.6611473777,
				"element": "C" 
			},
			{
				"x": -0.7712873771,
				"y": -0.3832757602,
				"z": 2.6073419031,
				"element": "C" 
			},
			{
				"x": 0.0438098654,
				"y": -0.817780034,
				"z": -1.6276012515,
				"element": "C" 
			},
			{
				"x": 0.6972316904,
				"y": 0.2735418518,
				"z": -2.0871252242,
				"element": "F" 
			},
			{
				"x": 0.8459045628,
				"y": -1.4104895454,
				"z": -0.7153908302,
				"element": "F" 
			},
			{
				"x": -0.1099661429,
				"y": -1.6708998685,
				"z": -2.6414991962,
				"element": "F" 
			},
			{
				"x": -4.5491627445,
				"y": -0.9791293787,
				"z": -3.9358152289,
				"element": "H" 
			},
			{
				"x": 0.8502664509,
				"y": 1.327259715,
				"z": 0.1379937119,
				"element": "H" 
			},
			{
				"x": 2.4345317683,
				"y": 1.7374517508,
				"z": 2.0291608257,
				"element": "H" 
			},
			{
				"x": -0.0823949566,
				"y": -0.5324353153,
				"z": 4.6543707447,
				"element": "H" 
			},
			{
				"x": -1.672218284,
				"y": -0.9663313109,
				"z": 2.7571657685,
				"element": "H" 
			}
		],
		 "valence_orbital": [ 
			{
				"type": "occ",
				"energy": -0.29908,
				"method": "rhf"
			},
			{
				"type": "occ",
				"energy": -0.29721,
				"method": "rhf"
			},
			{
				"type": "occ",
				"energy": -0.28896,
				"method": "rhf"
			},
			{
				"type": "occ",
				"energy": -0.28619,
				"method": "rhf"
			},
			{
				"type": "occ",
				"energy": -0.26339,
				"method": "rhf"
			},
			{
				"type": "unocc",
				"energy": -0.06757,
				"method": "rhf"
			},
			{
				"type": "unocc",
				"energy": -0.03825,
				"method": "rhf"
			},
			{
				"type": "unocc",
				"energy": -0.03632,
				"method": "rhf"
			},
			{
				"type": "unocc",
				"energy": -0.01237,
				"method": "rhf"
			},
			{
				"type": "unocc",
				"energy": 0.06654,
				"method": "rhf"
			}
		],
		"cosmo_sigma_profile": { 
			"-0.025": 0.0,
			"-0.024": 0.0,
			"-0.023": 0.0,
			"-0.022": 0.0,
			"-0.021": 0.0,
			"-0.02": 0.0915836499816,
			"-0.019": 0.600556705927,
			"-0.018": 0.923758977438,
			"-0.017": 1.23186402063,
			"-0.016": 0.809322651628,
			"-0.015": 0.572223323361,
			"-0.014": 0.581557817872,
			"-0.013": 0.41876126273,
			"-0.012": 0.756835414381,
			"-0.011": 0.711527071988,
			"-0.01": 0.637698034462,
			"-0.009": 2.14404017088,
			"-0.008": 7.65830000444,
			"-0.007": 10.4051476901,
			"-0.006": 13.3095607589,
			"-0.005": 11.7652317051,
			"-0.004": 13.1844465175,
			"-0.003": 12.2592245228,
			"-0.002": 13.0857139735,
			"-0.001": 16.5051268989,
			"0.0": 21.7850957676,
			"0.001": 32.5095511046,
			"0.002": 30.2198686178,
			"0.003": 11.8909789023,
			"0.004": 12.5136522426,
			"0.005": 3.35074843731,
			"0.006": 5.73533270247,
			"0.007": 4.74213261468,
			"0.008": 6.3784090538,
			"0.009": 5.3079383138,
			"0.01": 6.95386061517,
			"0.011": 5.44547441176,
			"0.012": 1.65837372555,
			"0.013": 1.32387234334,
			"0.014": 0.336526101676,
			"0.015": 0.0,
			"0.016": 0.0,
			"0.017": 0.0,
			"0.018": 0.0,
			"0.019": 0.0,
			"0.02": 0.0,
			"0.021": 0.0,
			"0.022": 0.0,
			"0.023": 0.0,
			"0.024": 0.0,
			"0.025": 0.0
		}
	}
}
