{
	 "smiles": "CC1=CC=C(C=C1)C1=NN(C=C1C(O)=O)C1=CC=CC=C1", 
	 "Tm": 503.15, 
	 "num_atms": 35, 
	 "gaussian": { 
		 "optdone": 1, 
		 "sigma_profile": "yes", 
		 "theory": "DFT", 
		 "functional": "B3LYP", 
		 "basiset": "6-31G**", 
		 "properties": { 
			 "R2extent": 8422.7849, 
			 "electric_dipole_moment_norm": 4.60954415751, 
			 "electric_quadrupole_moment_norm": 32.1191980305, 
			 "total_energy": -916.204700428, 
			 "HOMO_LUMO_gap": 0.18756, 
			 "cosmo_polarized_energy": -15.29, 
			 "cosmo_cavitation_energy": 39.77, 
			 "cosmo_dispersion_energy": -28.49, 
			 "cosmo_repulsion_energy": 2.16, 
			 "cosmo_total_nonelectrostatic_energy": 13.44, 
			 "SMD_solvation_energy": 7.17 
		},
		"coords": [
			{
				"x": 4.1219821198,
				"y": -3.1695096768,
				"z": 0.0145052941,
				"element": "C" 
			},
			{
				"x": 3.0191846397,
				"y": -2.1385534042,
				"z": -0.0021517797,
				"element": "C" 
			},
			{
				"x": 1.9050446418,
				"y": -2.2893395347,
				"z": -0.8430141484,
				"element": "C" 
			},
			{
				"x": 0.8994607622,
				"y": -1.3301335318,
				"z": -0.8900632489,
				"element": "C" 
			},
			{
				"x": 0.97070361,
				"y": -0.1778037931,
				"z": -0.0883935435,
				"element": "C" 
			},
			{
				"x": 2.0721205165,
				"y": -0.0321113178,
				"z": 0.7716348944,
				"element": "C" 
			},
			{
				"x": 3.080039341,
				"y": -0.9975719863,
				"z": 0.8054486195,
				"element": "C" 
			},
			{
				"x": -0.1199006386,
				"y": 0.8185543506,
				"z": -0.130522021,
				"element": "C" 
			},
			{
				"x": -1.3833593286,
				"y": 0.3959033104,
				"z": -0.1653852336,
				"element": "N" 
			},
			{
				"x": -2.1476572858,
				"y": 1.5212453276,
				"z": -0.2014691184,
				"element": "N" 
			},
			{
				"x": -1.3921871545,
				"y": 2.6450562551,
				"z": -0.1805720013,
				"element": "C" 
			},
			{
				"x": -0.0652928345,
				"y": 2.2512337561,
				"z": -0.1490737025,
				"element": "C" 
			},
			{
				"x": 1.0314095136,
				"y": 3.245333478,
				"z": -0.2099783893,
				"element": "C" 
			},
			{
				"x": 2.2856558164,
				"y": 2.7876950449,
				"z": -0.4457030473,
				"element": "O" 
			},
			{
				"x": 0.8348117453,
				"y": 4.4343472611,
				"z": -0.0822147112,
				"element": "O" 
			},
			{
				"x": -3.5671365191,
				"y": 1.415306253,
				"z": -0.2282732958,
				"element": "C" 
			},
			{
				"x": -4.1728716783,
				"y": 0.2326225362,
				"z": 0.2078096284,
				"element": "C" 
			},
			{
				"x": -5.5623528307,
				"y": 0.1302146748,
				"z": 0.1890536395,
				"element": "C" 
			},
			{
				"x": -6.3485285194,
				"y": 1.1965532431,
				"z": -0.2527838131,
				"element": "C" 
			},
			{
				"x": -5.7333437337,
				"y": 2.370767953,
				"z": -0.6896636521,
				"element": "C" 
			},
			{
				"x": -4.3436906194,
				"y": 2.4840913022,
				"z": -0.6877922113,
				"element": "C" 
			},
			{
				"x": 3.7200527386,
				"y": -4.1858082332,
				"z": -0.0469605537,
				"element": "H" 
			},
			{
				"x": 4.7245405602,
				"y": -3.0967455135,
				"z": 0.9241519129,
				"element": "H" 
			},
			{
				"x": 4.798522001,
				"y": -3.0375872002,
				"z": -0.8390530956,
				"element": "H" 
			},
			{
				"x": 1.8286025009,
				"y": -3.1720857736,
				"z": -1.4732342834,
				"element": "H" 
			},
			{
				"x": 0.0443399223,
				"y": -1.4612057141,
				"z": -1.5448779116,
				"element": "H" 
			},
			{
				"x": 2.1284706336,
				"y": 0.8210700649,
				"z": 1.441377252,
				"element": "H" 
			},
			{
				"x": 3.91887863,
				"y": -0.8651919502,
				"z": 1.4837660965,
				"element": "H" 
			},
			{
				"x": -1.8044287934,
				"y": 3.6412340298,
				"z": -0.181994128,
				"element": "H" 
			},
			{
				"x": 2.2894632855,
				"y": 1.8238123417,
				"z": -0.561453927,
				"element": "H" 
			},
			{
				"x": -3.5488651354,
				"y": -0.5832059894,
				"z": 0.5507766318,
				"element": "H" 
			},
			{
				"x": -6.0315395342,
				"y": -0.7883231406,
				"z": 0.5287016614,
				"element": "H" 
			},
			{
				"x": -7.4307886106,
				"y": 1.1118280843,
				"z": -0.2610999918,
				"element": "H" 
			},
			{
				"x": -6.3334964841,
				"y": 3.2021058567,
				"z": -1.0468694694,
				"element": "H" 
			},
			{
				"x": -3.8739432782,
				"y": 3.3883016361,
				"z": -1.0594283528,
				"element": "H" 
			}
		],
		 "valence_orbital": [ 
			{
				"type": "occ",
				"energy": -0.26589,
				"method": "rhf"
			},
			{
				"type": "occ",
				"energy": -0.26394,
				"method": "rhf"
			},
			{
				"type": "occ",
				"energy": -0.26025,
				"method": "rhf"
			},
			{
				"type": "occ",
				"energy": -0.25325,
				"method": "rhf"
			},
			{
				"type": "occ",
				"energy": -0.23005,
				"method": "rhf"
			},
			{
				"type": "unocc",
				"energy": -0.04249,
				"method": "rhf"
			},
			{
				"type": "unocc",
				"energy": -0.0352,
				"method": "rhf"
			},
			{
				"type": "unocc",
				"energy": -0.01728,
				"method": "rhf"
			},
			{
				"type": "unocc",
				"energy": -0.01541,
				"method": "rhf"
			},
			{
				"type": "unocc",
				"energy": 0.00594,
				"method": "rhf"
			}
		],
		"cosmo_sigma_profile": { 
			"-0.025": 0.0,
			"-0.024": 0.0,
			"-0.023": 0.0,
			"-0.022": 0.0,
			"-0.021": 0.0,
			"-0.02": 0.0,
			"-0.019": 0.0,
			"-0.018": 0.0,
			"-0.017": 0.0,
			"-0.016": 0.0,
			"-0.015": 0.0,
			"-0.014": 0.0,
			"-0.013": 0.076553352201,
			"-0.012": 0.792020755241,
			"-0.011": 1.75615889095,
			"-0.01": 2.65489841601,
			"-0.009": 3.00742695172,
			"-0.008": 2.92503149499,
			"-0.007": 5.97017246617,
			"-0.006": 16.9206022212,
			"-0.005": 22.5995201356,
			"-0.004": 28.0586747909,
			"-0.003": 22.3566189179,
			"-0.002": 23.6485874415,
			"-0.001": 26.3213699889,
			"0.0": 27.8076892659,
			"0.001": 23.8841918312,
			"0.002": 18.5573639606,
			"0.003": 21.6948258826,
			"0.004": 23.4403070038,
			"0.005": 11.4266401795,
			"0.006": 4.64721327473,
			"0.007": 3.58570131156,
			"0.008": 3.870704985,
			"0.009": 4.409279788,
			"0.01": 5.23708743529,
			"0.011": 5.15951121138,
			"0.012": 5.65387623216,
			"0.013": 2.32033771972,
			"0.014": 0.448093959387,
			"0.015": 0.0,
			"0.016": 0.0,
			"0.017": 0.0,
			"0.018": 0.0,
			"0.019": 0.0,
			"0.02": 0.0,
			"0.021": 0.0,
			"0.022": 0.0,
			"0.023": 0.0,
			"0.024": 0.0,
			"0.0": 0.0
		}
	}
}
