{
	 "smiles": "CC(C)CN1N=CC2=C1N=CC(=C2)C(O)=O", 
	 "Tm": 449.15, 
	 "num_atms": 29, 
	 "gaussian": { 
		 "optdone": 1, 
		 "sigma_profile": "yes", 
		 "theory": "DFT", 
		 "functional": "B3LYP", 
		 "basiset": "6-31G**", 
		 "properties": { 
			 "R2extent": 7280.5366, 
			 "electric_dipole_moment_norm": 3.97651672447, 
			 "electric_quadrupole_moment_norm": 23.0351002637, 
			 "total_energy": -741.713469715, 
			 "HOMO_LUMO_gap": 0.17967, 
			 "cosmo_polarized_energy": -15.95, 
			 "cosmo_cavitation_energy": 32.58, 
			 "cosmo_dispersion_energy": -23.19, 
			 "cosmo_repulsion_energy": 1.79, 
			 "cosmo_total_nonelectrostatic_energy": 11.18, 
			 "SMD_solvation_energy": 4.86 
		},
		"coords": [
			{
				"x": -2.9999100413,
				"y": -0.8075061064,
				"z": -0.9705203114,
				"element": "C" 
			},
			{
				"x": -2.2401991865,
				"y": -0.8269005864,
				"z": -2.30429435,
				"element": "C" 
			},
			{
				"x": -2.8594753546,
				"y": -1.8216284483,
				"z": -3.2961658487,
				"element": "C" 
			},
			{
				"x": -0.7257676409,
				"y": -1.0520745256,
				"z": -2.1051114259,
				"element": "C" 
			},
			{
				"x": -0.3703317597,
				"y": -2.280299042,
				"z": -1.4010457932,
				"element": "N" 
			},
			{
				"x": -0.3590075475,
				"y": -3.4864055617,
				"z": -2.0397796144,
				"element": "N" 
			},
			{
				"x": 0.0050957194,
				"y": -4.3950402391,
				"z": -1.1518881458,
				"element": "C" 
			},
			{
				"x": 0.2562764692,
				"y": -3.7974867791,
				"z": 0.1188640045,
				"element": "C" 
			},
			{
				"x": -0.0010279449,
				"y": -2.4144434309,
				"z": -0.095835142,
				"element": "C" 
			},
			{
				"x": 0.0998584381,
				"y": -1.4336113999,
				"z": 0.8112868556,
				"element": "N" 
			},
			{
				"x": 0.4969434136,
				"y": -1.8410376511,
				"z": 2.0119459752,
				"element": "C" 
			},
			{
				"x": 0.7998420652,
				"y": -3.1839132793,
				"z": 2.3596270383,
				"element": "C" 
			},
			{
				"x": 0.6592480931,
				"y": -4.1856719461,
				"z": 1.3967814373,
				"element": "C" 
			},
			{
				"x": 1.2272731816,
				"y": -3.5952558625,
				"z": 3.7327614576,
				"element": "C" 
			},
			{
				"x": 1.7026237146,
				"y": -2.6198058095,
				"z": 4.5534873198,
				"element": "O" 
			},
			{
				"x": 1.1682124124,
				"y": -4.7365107303,
				"z": 4.1273220659,
				"element": "O" 
			},
			{
				"x": -4.0446039108,
				"y": -0.5212909176,
				"z": -1.1286860616,
				"element": "H" 
			},
			{
				"x": -2.5557085516,
				"y": -0.1017909698,
				"z": -0.2613993217,
				"element": "H" 
			},
			{
				"x": -2.9978899807,
				"y": -1.7971610267,
				"z": -0.5008504413,
				"element": "H" 
			},
			{
				"x": -2.309035018,
				"y": 0.1776595114,
				"z": -2.7472098173,
				"element": "H" 
			},
			{
				"x": -2.793831784,
				"y": -2.8476575449,
				"z": -2.9230309763,
				"element": "H" 
			},
			{
				"x": -2.3487876911,
				"y": -1.7912503624,
				"z": -4.2645467774,
				"element": "H" 
			},
			{
				"x": -3.9156883511,
				"y": -1.586218072,
				"z": -3.4642260454,
				"element": "H" 
			},
			{
				"x": -0.3038825765,
				"y": -0.2377973047,
				"z": -1.5101866124,
				"element": "H" 
			},
			{
				"x": -0.2153235835,
				"y": -1.0769979965,
				"z": -3.0724277485,
				"element": "H" 
			},
			{
				"x": 0.0839500203,
				"y": -5.4335928883,
				"z": -1.4437864952,
				"element": "H" 
			},
			{
				"x": 0.5484842829,
				"y": -1.0567659021,
				"z": 2.7674149479,
				"element": "H" 
			},
			{
				"x": 0.866456074,
				"y": -5.2156276672,
				"z": 1.6685357464,
				"element": "H" 
			},
			{
				"x": 1.8532070381,
				"y": -1.8013174608,
				"z": 4.0612640798,
				"element": "H" 
			}
		],
		 "valence_orbital": [ 
			{
				"type": "occ",
				"energy": -0.3089,
				"method": "rhf"
			},
			{
				"type": "occ",
				"energy": -0.29075,
				"method": "rhf"
			},
			{
				"type": "occ",
				"energy": -0.27513,
				"method": "rhf"
			},
			{
				"type": "occ",
				"energy": -0.26864,
				"method": "rhf"
			},
			{
				"type": "occ",
				"energy": -0.24691,
				"method": "rhf"
			},
			{
				"type": "unocc",
				"energy": -0.06724,
				"method": "rhf"
			},
			{
				"type": "unocc",
				"energy": -0.04287,
				"method": "rhf"
			},
			{
				"type": "unocc",
				"energy": 0.02445,
				"method": "rhf"
			},
			{
				"type": "unocc",
				"energy": 0.05561,
				"method": "rhf"
			},
			{
				"type": "unocc",
				"energy": 0.0613,
				"method": "rhf"
			}
		],
		"cosmo_sigma_profile": { 
			"-0.025": 0.0,
			"-0.024": 0.0,
			"-0.023": 0.0,
			"-0.022": 0.0,
			"-0.021": 0.0,
			"-0.02": 0.0286157151827,
			"-0.019": 0.799525026827,
			"-0.018": 1.16649126093,
			"-0.017": 0.749707869407,
			"-0.016": 1.21748770626,
			"-0.015": 0.755580550293,
			"-0.014": 0.821676919352,
			"-0.013": 1.33514427842,
			"-0.012": 1.4098577785,
			"-0.011": 0.874960020905,
			"-0.01": 1.32361978447,
			"-0.009": 1.93483843365,
			"-0.008": 4.75814166644,
			"-0.007": 4.9662354428,
			"-0.006": 6.7881813837,
			"-0.005": 9.58204448074,
			"-0.004": 12.0911256849,
			"-0.003": 22.2954989788,
			"-0.002": 27.6581304642,
			"-0.001": 29.8337516299,
			"0.0": 26.2126555079,
			"0.001": 26.9528816047,
			"0.002": 12.6021646736,
			"0.003": 7.48385213746,
			"0.004": 6.0756373727,
			"0.005": 6.08792344917,
			"0.006": 6.06588476986,
			"0.007": 5.14941228418,
			"0.008": 4.09863874012,
			"0.009": 5.47062783481,
			"0.01": 6.11770914105,
			"0.011": 7.21160914621,
			"0.012": 5.89832238141,
			"0.013": 2.07218071892,
			"0.014": 0.388056649277,
			"0.015": 0.0,
			"0.016": 0.0,
			"0.017": 0.0,
			"0.018": 0.0,
			"0.019": 0.0,
			"0.02": 0.0,
			"0.021": 0.0,
			"0.022": 0.0,
			"0.023": 0.0,
			"0.024": 0.0,
			"0.025": 0.0
		}
	}
}
