{
	 "smiles": "OC(=O)C1CC1C1CC1", 
	 "Tm": 303.15, 
	 "num_atms": 19, 
	 "gaussian": { 
		 "optdone": 1, 
		 "sigma_profile": "yes", 
		 "theory": "DFT", 
		 "functional": "B3LYP", 
		 "basiset": "6-31G**", 
		 "properties": { 
			 "R2extent": 1780.5769, 
			 "electric_dipole_moment_norm": 1.33608946557, 
			 "electric_quadrupole_moment_norm": 4.71219033041, 
			 "total_energy": -423.177944402, 
			 "HOMO_LUMO_gap": 0.26687, 
			 "cosmo_polarized_energy": -8.48, 
			 "cosmo_cavitation_energy": 22.24, 
			 "cosmo_dispersion_energy": -16.08, 
			 "cosmo_repulsion_energy": 1.36, 
			 "cosmo_total_nonelectrostatic_energy": 7.51, 
			 "SMD_solvation_energy": 4.29 
		},
		"coords": [
			{
				"x": 1.3226612305,
				"y": 0.936240773,
				"z": -1.9649347387,
				"element": "O" 
			},
			{
				"x": 0.3731273773,
				"y": 1.1374870364,
				"z": -1.0167946933,
				"element": "C" 
			},
			{
				"x": -0.3113067827,
				"y": 2.1433074536,
				"z": -0.9939954841,
				"element": "O" 
			},
			{
				"x": 0.3023370264,
				"y": 0.0040963382,
				"z": -0.0644763929,
				"element": "C" 
			},
			{
				"x": -1.0058479707,
				"y": -0.2238787335,
				"z": 0.6752621144,
				"element": "C" 
			},
			{
				"x": 0.172381618,
				"y": 0.2796180303,
				"z": 1.443377292,
				"element": "C" 
			},
			{
				"x": 0.2204246649,
				"y": 1.662056108,
				"z": 2.0179523472,
				"element": "C" 
			},
			{
				"x": 1.4513730899,
				"y": 2.1234413127,
				"z": 2.7631089868,
				"element": "C" 
			},
			{
				"x": 0.1763868341,
				"y": 1.8371922048,
				"z": 3.5187693481,
				"element": "C" 
			},
			{
				"x": 1.2965502414,
				"y": 1.7227512207,
				"z": -2.535408865,
				"element": "H" 
			},
			{
				"x": 0.8909883265,
				"y": -0.8604140408,
				"z": -0.3508952571,
				"element": "H" 
			},
			{
				"x": -1.3318116189,
				"y": -1.2509300413,
				"z": 0.8069248755,
				"element": "H" 
			},
			{
				"x": -1.7942035458,
				"y": 0.4887977625,
				"z": 0.4524592655,
				"element": "H" 
			},
			{
				"x": 0.694907665,
				"y": -0.4625930783,
				"z": 2.0455127022,
				"element": "H" 
			},
			{
				"x": -0.2929533284,
				"y": 2.4115407899,
				"z": 1.424478803,
				"element": "H" 
			},
			{
				"x": 2.2736256631,
				"y": 1.4211167936,
				"z": 2.872697059,
				"element": "H" 
			},
			{
				"x": 1.7649345802,
				"y": 3.156315336,
				"z": 2.6454864391,
				"element": "H" 
			},
			{
				"x": 0.1421593175,
				"y": 0.942870292,
				"z": 4.1354026179,
				"element": "H" 
			},
			{
				"x": -0.3889343884,
				"y": 2.6724844422,
				"z": 3.9209735806,
				"element": "H" 
			}
		],
		 "valence_orbital": [ 
			{
				"type": "occ",
				"energy": -0.32269,
				"method": "rhf"
			},
			{
				"type": "occ",
				"energy": -0.30298,
				"method": "rhf"
			},
			{
				"type": "occ",
				"energy": -0.28382,
				"method": "rhf"
			},
			{
				"type": "occ",
				"energy": -0.2705,
				"method": "rhf"
			},
			{
				"type": "occ",
				"energy": -0.25813,
				"method": "rhf"
			},
			{
				"type": "unocc",
				"energy": 0.00874,
				"method": "rhf"
			},
			{
				"type": "unocc",
				"energy": 0.08012,
				"method": "rhf"
			},
			{
				"type": "unocc",
				"energy": 0.08669,
				"method": "rhf"
			},
			{
				"type": "unocc",
				"energy": 0.10923,
				"method": "rhf"
			},
			{
				"type": "unocc",
				"energy": 0.11822,
				"method": "rhf"
			}
		],
		"cosmo_sigma_profile": { 
			"-0.025": 0.0,
			"-0.024": 0.0,
			"-0.023": 0.0,
			"-0.022": 0.0,
			"-0.021": 0.0,
			"-0.02": 0.0,
			"-0.019": 0.0,
			"-0.018": 0.326467535608,
			"-0.017": 1.03519938724,
			"-0.016": 0.921225551574,
			"-0.015": 0.722289590438,
			"-0.014": 0.66874451392,
			"-0.013": 1.03737735218,
			"-0.012": 0.463700094982,
			"-0.011": 0.229114000692,
			"-0.01": 0.999588162413,
			"-0.009": 0.532970254454,
			"-0.008": 1.00798470147,
			"-0.007": 0.827971718935,
			"-0.006": 4.07025084813,
			"-0.005": 12.3657775076,
			"-0.004": 14.6805023867,
			"-0.003": 15.8292606529,
			"-0.002": 14.6304799481,
			"-0.001": 14.6473143145,
			"0.0": 14.7487572506,
			"0.001": 13.1627424914,
			"0.002": 12.9585205388,
			"0.003": 10.5535934306,
			"0.004": 8.60371952168,
			"0.005": 6.83071712982,
			"0.006": 4.40797622502,
			"0.007": 2.22457242883,
			"0.008": 3.22875719819,
			"0.009": 3.27040661841,
			"0.01": 2.30748900123,
			"0.011": 2.03334392415,
			"0.012": 4.28249150171,
			"0.013": 0.892286739649,
			"0.014": 0.0,
			"0.015": 0.0,
			"0.016": 0.0,
			"0.017": 0.0,
			"0.018": 0.0,
			"0.019": 0.0,
			"0.02": 0.0,
			"0.021": 0.0,
			"0.022": 0.0,
			"0.023": 0.0,
			"0.024": 0.0,
			"0.025": 0.0
		}
	}
}
