{
	 "smiles": "CN1CCN(CCCN2C3=CC=CC=C3SC3=CC=CC=C23)CC1", 
	 "Tm": 325.65, 
	 "num_atms": 49, 
	 "gaussian": { 
		 "optdone": 1, 
		 "sigma_profile": "yes", 
		 "theory": "DFT", 
		 "functional": "B3LYP", 
		 "basiset": "6-31G**", 
		 "properties": { 
			 "R2extent": 11187.4586, 
			 "electric_dipole_moment_norm": 2.31234344551, 
			 "electric_quadrupole_moment_norm": 9.7563107674, 
			 "total_energy": -1339.60922574, 
			 "HOMO_LUMO_gap": 0.17481, 
			 "cosmo_polarized_energy": -10.15, 
			 "cosmo_cavitation_energy": 49.28, 
			 "cosmo_dispersion_energy": -33.86, 
			 "cosmo_repulsion_energy": 2.51, 
			 "cosmo_total_nonelectrostatic_energy": 17.92, 
			 "SMD_solvation_energy": 3.65 
		},
		"coords": [
			{
				"x": -1.7248714709,
				"y": -2.3681727359,
				"z": 2.8484456258,
				"element": "C" 
			},
			{
				"x": -2.9018571788,
				"y": -2.1487094862,
				"z": 2.0132919707,
				"element": "N" 
			},
			{
				"x": -3.0757168096,
				"y": -3.15225387,
				"z": 0.9725427288,
				"element": "C" 
			},
			{
				"x": -2.0042454062,
				"y": -3.0816824444,
				"z": -0.1493156683,
				"element": "C" 
			},
			{
				"x": -1.4628350295,
				"y": -1.7199148436,
				"z": -0.2620574936,
				"element": "N" 
			},
			{
				"x": -0.7232830039,
				"y": -1.5416401685,
				"z": -1.5113967983,
				"element": "C" 
			},
			{
				"x": 0.2244611155,
				"y": -0.3351530997,
				"z": -1.5123854293,
				"element": "C" 
			},
			{
				"x": 1.2718310783,
				"y": -0.4225406248,
				"z": -0.3933436686,
				"element": "C" 
			},
			{
				"x": 2.1347668765,
				"y": 0.7584051222,
				"z": -0.3320483432,
				"element": "N" 
			},
			{
				"x": 2.4692815252,
				"y": 1.3082410643,
				"z": 0.9302697183,
				"element": "C" 
			},
			{
				"x": 2.432847778,
				"y": 0.5556030829,
				"z": 2.1149212281,
				"element": "C" 
			},
			{
				"x": 2.7324543325,
				"y": 1.1448279077,
				"z": 3.3443230176,
				"element": "C" 
			},
			{
				"x": 3.1159816084,
				"y": 2.4829893969,
				"z": 3.4144524778,
				"element": "C" 
			},
			{
				"x": 3.200922877,
				"y": 3.2314931412,
				"z": 2.2394394065,
				"element": "C" 
			},
			{
				"x": 2.8650658321,
				"y": 2.6584655633,
				"z": 1.0125871732,
				"element": "C" 
			},
			{
				"x": 2.8615405263,
				"y": 3.6461693943,
				"z": -0.4717018431,
				"element": "S" 
			},
			{
				"x": 3.4242636071,
				"y": 2.3919130975,
				"z": -1.6066486509,
				"element": "C" 
			},
			{
				"x": 4.2584140212,
				"y": 2.7263598877,
				"z": -2.6737569272,
				"element": "C" 
			},
			{
				"x": 4.6212592456,
				"y": 1.7612680313,
				"z": -3.6147044724,
				"element": "C" 
			},
			{
				"x": 4.172059886,
				"y": 0.4511814209,
				"z": -3.4568102294,
				"element": "C" 
			},
			{
				"x": 3.3682063038,
				"y": 0.103177062,
				"z": -2.3700860003,
				"element": "C" 
			},
			{
				"x": 2.9667509439,
				"y": 1.0702309421,
				"z": -1.4350950501,
				"element": "C" 
			},
			{
				"x": -2.5172195293,
				"y": -0.7316430995,
				"z": -0.0411430526,
				"element": "C" 
			},
			{
				"x": -2.9927070011,
				"y": -0.8003723226,
				"z": 1.4325848471,
				"element": "C" 
			},
			{
				"x": -1.7255945816,
				"y": -1.6462589234,
				"z": 3.6718442876,
				"element": "H" 
			},
			{
				"x": -0.7639039073,
				"y": -2.2790731493,
				"z": 2.3156473141,
				"element": "H" 
			},
			{
				"x": -1.7828730479,
				"y": -3.3692737184,
				"z": 3.2909153232,
				"element": "H" 
			},
			{
				"x": -3.0775113617,
				"y": -4.1503368975,
				"z": 1.4237874018,
				"element": "H" 
			},
			{
				"x": -4.0712207049,
				"y": -3.0065394522,
				"z": 0.534826035,
				"element": "H" 
			},
			{
				"x": -2.4637715988,
				"y": -3.4188404171,
				"z": -1.0994987975,
				"element": "H" 
			},
			{
				"x": -1.1698823375,
				"y": -3.7630572628,
				"z": 0.0586205113,
				"element": "H" 
			},
			{
				"x": -1.4058147482,
				"y": -1.4696618362,
				"z": -2.3807886152,
				"element": "H" 
			},
			{
				"x": -0.1305995597,
				"y": -2.4530254344,
				"z": -1.6659742961,
				"element": "H" 
			},
			{
				"x": -0.3290145249,
				"y": 0.6029397651,
				"z": -1.3953302345,
				"element": "H" 
			},
			{
				"x": 0.7052448479,
				"y": -0.2821248027,
				"z": -2.4943438566,
				"element": "H" 
			},
			{
				"x": 0.7343623367,
				"y": -0.4889516258,
				"z": 0.5515222507,
				"element": "H" 
			},
			{
				"x": 1.852324364,
				"y": -1.3549334773,
				"z": -0.4852155247,
				"element": "H" 
			},
			{
				"x": 2.1754949706,
				"y": -0.4969153886,
				"z": 2.0806937104,
				"element": "H" 
			},
			{
				"x": 2.6815869347,
				"y": 0.5426248489,
				"z": 4.2467710246,
				"element": "H" 
			},
			{
				"x": 3.3580283311,
				"y": 2.9399064763,
				"z": 4.3688884902,
				"element": "H" 
			},
			{
				"x": 3.5154538359,
				"y": 4.2704845391,
				"z": 2.2688670248,
				"element": "H" 
			},
			{
				"x": 4.6095614078,
				"y": 3.7494725291,
				"z": -2.7696277307,
				"element": "H" 
			},
			{
				"x": 5.2523807689,
				"y": 2.0318948314,
				"z": -4.4553963844,
				"element": "H" 
			},
			{
				"x": 4.4563520009,
				"y": -0.3142512529,
				"z": -4.1730327023,
				"element": "H" 
			},
			{
				"x": 3.052083545,
				"y": -0.9270023937,
				"z": -2.2518088457,
				"element": "H" 
			},
			{
				"x": -3.3690904396,
				"y": -0.889650316,
				"z": -0.7326834815,
				"element": "H" 
			},
			{
				"x": -2.1325270178,
				"y": 0.2698707025,
				"z": -0.2520180155,
				"element": "H" 
			},
			{
				"x": -4.032468492,
				"y": -0.445492077,
				"z": 1.4840226745,
				"element": "H" 
			},
			{
				"x": -2.3922731496,
				"y": -0.1219476863,
				"z": 2.0458478698,
				"element": "H" 
			}
		],
		 "valence_orbital": [ 
			{
				"type": "occ",
				"energy": -0.24746,
				"method": "rhf"
			},
			{
				"type": "occ",
				"energy": -0.22081,
				"method": "rhf"
			},
			{
				"type": "occ",
				"energy": -0.21605,
				"method": "rhf"
			},
			{
				"type": "occ",
				"energy": -0.19826,
				"method": "rhf"
			},
			{
				"type": "occ",
				"energy": -0.18452,
				"method": "rhf"
			},
			{
				"type": "unocc",
				"energy": -0.00971,
				"method": "rhf"
			},
			{
				"type": "unocc",
				"energy": -0.00566,
				"method": "rhf"
			},
			{
				"type": "unocc",
				"energy": 0.00074,
				"method": "rhf"
			},
			{
				"type": "unocc",
				"energy": 0.01381,
				"method": "rhf"
			},
			{
				"type": "unocc",
				"energy": 0.04218,
				"method": "rhf"
			}
		],
		"cosmo_sigma_profile": { 
			"-0.025": 0.0,
			"-0.024": 0.0,
			"-0.023": 0.0,
			"-0.022": 0.0,
			"-0.021": 0.0,
			"-0.02": 0.0,
			"-0.019": 0.0,
			"-0.018": 0.0,
			"-0.017": 0.0,
			"-0.016": 0.0,
			"-0.015": 0.0,
			"-0.014": 0.0,
			"-0.013": 0.0,
			"-0.012": 0.0,
			"-0.011": 0.0,
			"-0.01": 0.0,
			"-0.009": 0.0,
			"-0.008": 0.0,
			"-0.007": 0.803252411323,
			"-0.006": 11.6945911661,
			"-0.005": 19.4033785438,
			"-0.004": 28.2701435918,
			"-0.003": 44.2813009298,
			"-0.002": 48.3882233463,
			"-0.001": 53.4864053888,
			"0.0": 38.1115760977,
			"0.001": 25.7800722516,
			"0.002": 20.6980127707,
			"0.003": 22.1298851334,
			"0.004": 24.9700626935,
			"0.005": 24.6166414378,
			"0.006": 12.3820842005,
			"0.007": 4.85996788711,
			"0.008": 3.52616102557,
			"0.009": 1.51314800426,
			"0.01": 0.764405925187,
			"0.011": 0.469490462018,
			"0.012": 0.924718584358,
			"0.013": 0.438529234616,
			"0.014": 0.493179693143,
			"0.015": 0.500183421774,
			"0.016": 0.464038376938,
			"0.017": 0.366850657062,
			"0.018": 0.0,
			"0.019": 0.0,
			"0.02": 0.0,
			"0.021": 0.0,
			"0.022": 0.0,
			"0.023": 0.0,
			"0.024": 0.0,
			"0.025": 0.0
		}
	}
}
