{
	 "smiles": "CC(=O)OC1=CC=C(C=C1)[N+]([O-])=O", 
	 "Tm": 350.65, 
	 "num_atms": 20, 
	 "gaussian": { 
		 "optdone": 1, 
		 "sigma_profile": "yes", 
		 "theory": "DFT", 
		 "functional": "B3LYP", 
		 "basiset": "6-31G**", 
		 "properties": { 
			 "R2extent": 4032.3219, 
			 "electric_dipole_moment_norm": 5.48305432948, 
			 "electric_quadrupole_moment_norm": 15.8540461596, 
			 "total_energy": -664.623749846, 
			 "HOMO_LUMO_gap": 0.1878, 
			 "cosmo_polarized_energy": -12.12, 
			 "cosmo_cavitation_energy": 26.28, 
			 "cosmo_dispersion_energy": -18.79, 
			 "cosmo_repulsion_energy": 1.51, 
			 "cosmo_total_nonelectrostatic_energy": 9.0, 
			 "SMD_solvation_energy": 8.2 
		},
		"coords": [
			{
				"x": 2.6571259387,
				"y": -0.1705086863,
				"z": 2.7850075322,
				"element": "C" 
			},
			{
				"x": 1.232723575,
				"y": -0.5238920882,
				"z": 2.4458445263,
				"element": "C" 
			},
			{
				"x": 0.3522193975,
				"y": -0.8016675356,
				"z": 3.2172014054,
				"element": "O" 
			},
			{
				"x": 1.0553154408,
				"y": -0.4876963068,
				"z": 1.0762328653,
				"element": "O" 
			},
			{
				"x": -0.207231794,
				"y": -0.7890439007,
				"z": 0.5758614167,
				"element": "C" 
			},
			{
				"x": -1.1220562129,
				"y": 0.2435961791,
				"z": 0.3686062627,
				"element": "C" 
			},
			{
				"x": -2.3579263605,
				"y": -0.0430344105,
				"z": -0.2022833419,
				"element": "C" 
			},
			{
				"x": -2.646650937,
				"y": -1.3615975713,
				"z": -0.551236232,
				"element": "C" 
			},
			{
				"x": -1.7382181375,
				"y": -2.3992005083,
				"z": -0.3466312664,
				"element": "C" 
			},
			{
				"x": -0.5040477169,
				"y": -2.1061471858,
				"z": 0.2246777486,
				"element": "C" 
			},
			{
				"x": -3.9507655317,
				"y": -1.6674371873,
				"z": -1.15817442,
				"element": "N" 
			},
			{
				"x": -4.1796777614,
				"y": -2.8385977885,
				"z": -1.4586433801,
				"element": "O" 
			},
			{
				"x": -4.7333458049,
				"y": -0.7334115586,
				"z": -1.3298194877,
				"element": "O" 
			},
			{
				"x": 2.8956921718,
				"y": 0.8273682544,
				"z": 2.4056612376,
				"element": "H" 
			},
			{
				"x": 3.3422171247,
				"y": -0.8740454483,
				"z": 2.3030685086,
				"element": "H" 
			},
			{
				"x": 2.7884836097,
				"y": -0.2012140588,
				"z": 3.8658095434,
				"element": "H" 
			},
			{
				"x": -0.858940559,
				"y": 1.2571079937,
				"z": 0.6501079566,
				"element": "H" 
			},
			{
				"x": -3.0957385189,
				"y": 0.7287877126,
				"z": -0.3806989557,
				"element": "H" 
			},
			{
				"x": -2.0078646469,
				"y": -3.4074436846,
				"z": -0.6341093493,
				"element": "H" 
			},
			{
				"x": 0.2304867235,
				"y": -2.8850222201,
				"z": 0.3964174296,
				"element": "H" 
			}
		],
		 "valence_orbital": [ 
			{
				"type": "occ",
				"energy": -0.30911,
				"method": "rhf"
			},
			{
				"type": "occ",
				"energy": -0.29565,
				"method": "rhf"
			},
			{
				"type": "occ",
				"energy": -0.29224,
				"method": "rhf"
			},
			{
				"type": "occ",
				"energy": -0.28545,
				"method": "rhf"
			},
			{
				"type": "occ",
				"energy": -0.27855,
				"method": "rhf"
			},
			{
				"type": "unocc",
				"energy": -0.09075,
				"method": "rhf"
			},
			{
				"type": "unocc",
				"energy": -0.03469,
				"method": "rhf"
			},
			{
				"type": "unocc",
				"energy": -0.00956,
				"method": "rhf"
			},
			{
				"type": "unocc",
				"energy": -0.00202,
				"method": "rhf"
			},
			{
				"type": "unocc",
				"energy": 0.07196,
				"method": "rhf"
			}
		],
		"cosmo_sigma_profile": { 
			"-0.025": 0.0,
			"-0.024": 0.0,
			"-0.023": 0.0,
			"-0.022": 0.0,
			"-0.021": 0.0,
			"-0.02": 0.0,
			"-0.019": 0.0,
			"-0.018": 0.0,
			"-0.017": 0.0,
			"-0.016": 0.0,
			"-0.015": 0.0,
			"-0.014": 0.0,
			"-0.013": 0.0,
			"-0.012": 0.0,
			"-0.011": 0.0,
			"-0.01": 0.0,
			"-0.009": 1.09698856714,
			"-0.008": 6.77931438963,
			"-0.007": 12.0599934146,
			"-0.006": 15.8339848293,
			"-0.005": 14.1409528325,
			"-0.004": 14.3983889994,
			"-0.003": 15.5935548563,
			"-0.002": 15.7294282293,
			"-0.001": 14.7910991278,
			"0.0": 18.5076909613,
			"0.001": 13.4815273602,
			"0.002": 6.41615764972,
			"0.003": 5.09352541188,
			"0.004": 5.92169435391,
			"0.005": 6.23384628955,
			"0.006": 7.20021364893,
			"0.007": 10.6495252842,
			"0.008": 9.0374924742,
			"0.009": 6.29585538239,
			"0.01": 5.8981871951,
			"0.011": 4.53807138921,
			"0.012": 1.11041565043,
			"0.013": 0.0,
			"0.014": 0.0,
			"0.015": 0.0,
			"0.016": 0.0,
			"0.017": 0.0,
			"0.018": 0.0,
			"0.019": 0.0,
			"0.02": 0.0,
			"0.021": 0.0,
			"0.022": 0.0,
			"0.023": 0.0,
			"0.024": 0.0,
			"0.025": 0.0
		}
	}
}
