{
	 "smiles": "OCC1=C(Cl)C(Cl)=CC=N1", 
	 "Tm": 333.15, 
	 "num_atms": 15, 
	 "gaussian": { 
		 "optdone": 1, 
		 "sigma_profile": "yes", 
		 "theory": "DFT", 
		 "functional": "B3LYP", 
		 "basiset": "6-31G**", 
		 "properties": { 
			 "R2extent": 1957.7872, 
			 "electric_dipole_moment_norm": 1.97624001073, 
			 "electric_quadrupole_moment_norm": 11.7207185411, 
			 "total_energy": -1281.98849087, 
			 "HOMO_LUMO_gap": 0.21621, 
			 "cosmo_polarized_energy": -8.41, 
			 "cosmo_cavitation_energy": 22.49, 
			 "cosmo_dispersion_energy": -17.17, 
			 "cosmo_repulsion_energy": 1.39, 
			 "cosmo_total_nonelectrostatic_energy": 6.72, 
			 "SMD_solvation_energy": 2.08 
		},
		"coords": [
			{
				"x": -2.9513973727,
				"y": 0.1081706258,
				"z": 1.9044243717,
				"element": "O" 
			},
			{
				"x": -2.6085066702,
				"y": -0.7858421268,
				"z": 0.8580936126,
				"element": "C" 
			},
			{
				"x": -1.475378382,
				"y": -0.2816134494,
				"z": -0.0230950106,
				"element": "C" 
			},
			{
				"x": -0.1599925892,
				"y": -0.1359056712,
				"z": 0.4560205891,
				"element": "C" 
			},
			{
				"x": 0.2242572574,
				"y": -0.5713332883,
				"z": 2.1095881969,
				"element": "Cl" 
			},
			{
				"x": 0.8324172226,
				"y": 0.3468979562,
				"z": -0.4030010646,
				"element": "C" 
			},
			{
				"x": 2.4807990606,
				"y": 0.5524084194,
				"z": 0.116979718,
				"element": "Cl" 
			},
			{
				"x": 0.4833843211,
				"y": 0.6656466123,
				"z": -1.715089308,
				"element": "C" 
			},
			{
				"x": -0.8395207492,
				"y": 0.4787408627,
				"z": -2.1034578345,
				"element": "C" 
			},
			{
				"x": -1.7944910473,
				"y": 0.0211467083,
				"z": -1.2879119675,
				"element": "N" 
			},
			{
				"x": -2.2620351374,
				"y": 0.0542562139,
				"z": 2.5791712324,
				"element": "H" 
			},
			{
				"x": -2.358698181,
				"y": -1.7859676272,
				"z": 1.2431478479,
				"element": "H" 
			},
			{
				"x": -3.4871942394,
				"y": -0.8744037149,
				"z": 0.2171723241,
				"element": "H" 
			},
			{
				"x": 1.2285303433,
				"y": 1.0439301004,
				"z": -2.4051088756,
				"element": "H" 
			},
			{
				"x": -1.1449738365,
				"y": 0.7105683788,
				"z": -3.121433832,
				"element": "H" 
			}
		],
		 "valence_orbital": [ 
			{
				"type": "occ",
				"energy": -0.3308,
				"method": "rhf"
			},
			{
				"type": "occ",
				"energy": -0.29121,
				"method": "rhf"
			},
			{
				"type": "occ",
				"energy": -0.28643,
				"method": "rhf"
			},
			{
				"type": "occ",
				"energy": -0.27245,
				"method": "rhf"
			},
			{
				"type": "occ",
				"energy": -0.26538,
				"method": "rhf"
			},
			{
				"type": "unocc",
				"energy": -0.04917,
				"method": "rhf"
			},
			{
				"type": "unocc",
				"energy": -0.0409,
				"method": "rhf"
			},
			{
				"type": "unocc",
				"energy": -0.01297,
				"method": "rhf"
			},
			{
				"type": "unocc",
				"energy": 0.04595,
				"method": "rhf"
			},
			{
				"type": "unocc",
				"energy": 0.08628,
				"method": "rhf"
			}
		],
		"cosmo_sigma_profile": { 
			"-0.025": 0.0,
			"-0.024": 0.0,
			"-0.023": 0.0,
			"-0.022": 0.0,
			"-0.021": 0.0,
			"-0.02": 0.0,
			"-0.019": 0.0,
			"-0.018": 0.0,
			"-0.017": 0.0,
			"-0.016": 0.0,
			"-0.015": 0.0,
			"-0.014": 0.0,
			"-0.013": 0.296575877544,
			"-0.012": 0.805980070432,
			"-0.011": 0.75058997862,
			"-0.01": 0.68775320585,
			"-0.009": 1.93203495212,
			"-0.008": 4.84920240783,
			"-0.007": 6.4556279961,
			"-0.006": 5.90719735568,
			"-0.005": 9.20878722135,
			"-0.004": 10.7387084161,
			"-0.003": 12.3594210399,
			"-0.002": 17.7277581271,
			"-0.001": 20.8856394739,
			"0.0": 16.6179991543,
			"0.001": 13.0598018476,
			"0.002": 12.2137005415,
			"0.003": 17.2320305263,
			"0.004": 8.1481202626,
			"0.005": 3.7199378759,
			"0.006": 3.62688673947,
			"0.007": 1.70737359824,
			"0.008": 1.76876724245,
			"0.009": 2.42189657341,
			"0.01": 1.9495583322,
			"0.011": 2.16022604693,
			"0.012": 2.65181754617,
			"0.013": 2.57033572274,
			"0.014": 1.87502283936,
			"0.015": 0.0891463852258,
			"0.016": 0.0,
			"0.017": 0.0,
			"0.018": 0.0,
			"0.019": 0.0,
			"0.02": 0.0,
			"0.021": 0.0,
			"0.022": 0.0,
			"0.023": 0.0,
			"0.024": 0.0,
			"0.025": 0.0
		}
	}
}
