{
	 "smiles": "CC1C2CCCC(C2=NNC(N)=S)C2(O)CCCCC12", 
	 "Tm": 468.15, 
	 "num_atms": 45, 
	 "gaussian": { 
		 "optdone": 1, 
		 "sigma_profile": "yes", 
		 "theory": "DFT", 
		 "functional": "B3LYP", 
		 "basiset": "6-31G**", 
		 "properties": { 
			 "R2extent": 6806.8392, 
			 "electric_dipole_moment_norm": 7.71734883817, 
			 "electric_quadrupole_moment_norm": 29.3366387205, 
			 "total_energy": -1224.30704292, 
			 "HOMO_LUMO_gap": 0.17229, 
			 "cosmo_polarized_energy": -32.14, 
			 "cosmo_cavitation_energy": 42.29, 
			 "cosmo_dispersion_energy": -30.25, 
			 "cosmo_repulsion_energy": 2.29, 
			 "cosmo_total_nonelectrostatic_energy": 14.33, 
			 "SMD_solvation_energy": 4.33 
		},
		"coords": [
			{
				"x": -0.5656592049,
				"y": -1.7932420792,
				"z": 2.581735012,
				"element": "C" 
			},
			{
				"x": -0.3939748289,
				"y": -0.2721543651,
				"z": 2.4072015817,
				"element": "C" 
			},
			{
				"x": 0.8379885859,
				"y": 0.0028039583,
				"z": 1.4885217551,
				"element": "C" 
			},
			{
				"x": 1.4839059408,
				"y": 1.4193960703,
				"z": 1.5619960551,
				"element": "C" 
			},
			{
				"x": 0.7018685337,
				"y": 2.5552928503,
				"z": 0.870715214,
				"element": "C" 
			},
			{
				"x": 0.0392371888,
				"y": 2.1335093063,
				"z": -0.4520061047,
				"element": "C" 
			},
			{
				"x": -0.5937311692,
				"y": 0.7206456977,
				"z": -0.4311035625,
				"element": "C" 
			},
			{
				"x": 0.4720681248,
				"y": -0.2376459091,
				"z": 0.0396913299,
				"element": "C" 
			},
			{
				"x": 0.9881650062,
				"y": -1.0348494122,
				"z": -0.8226398633,
				"element": "N" 
			},
			{
				"x": 1.9930945625,
				"y": -1.8741530048,
				"z": -0.4317036964,
				"element": "N" 
			},
			{
				"x": 2.5382591993,
				"y": -2.7955180301,
				"z": -1.2917529832,
				"element": "C" 
			},
			{
				"x": 3.5053038468,
				"y": -3.5594496535,
				"z": -0.670275511,
				"element": "N" 
			},
			{
				"x": 2.1072430453,
				"y": -3.0357614681,
				"z": -2.881518204,
				"element": "S" 
			},
			{
				"x": -1.9015667851,
				"y": 0.469390653,
				"z": 0.386845103,
				"element": "C" 
			},
			{
				"x": -2.2332811985,
				"y": -0.858452717,
				"z": -0.0772428698,
				"element": "O" 
			},
			{
				"x": -3.0577310676,
				"y": 1.4137837347,
				"z": -0.0276753562,
				"element": "C" 
			},
			{
				"x": -3.1955132271,
				"y": 2.7157126911,
				"z": 0.7730363681,
				"element": "C" 
			},
			{
				"x": -3.3005663879,
				"y": 2.4107314645,
				"z": 2.270514367,
				"element": "C" 
			},
			{
				"x": -2.0531152977,
				"y": 1.6685201485,
				"z": 2.760599142,
				"element": "C" 
			},
			{
				"x": -1.7347139854,
				"y": 0.3903551787,
				"z": 1.9464117019,
				"element": "C" 
			},
			{
				"x": -1.3678761896,
				"y": -2.0134860675,
				"z": 3.2943070578,
				"element": "H" 
			},
			{
				"x": -0.8237998364,
				"y": -2.2657707554,
				"z": 1.6296332821,
				"element": "H" 
			},
			{
				"x": 0.3497113599,
				"y": -2.2576173886,
				"z": 2.9673409868,
				"element": "H" 
			},
			{
				"x": -0.1472584935,
				"y": 0.1462770288,
				"z": 3.3933257968,
				"element": "H" 
			},
			{
				"x": 1.6170225563,
				"y": -0.6885923967,
				"z": 1.834007858,
				"element": "H" 
			},
			{
				"x": 2.4670275458,
				"y": 1.3334753339,
				"z": 1.0819410649,
				"element": "H" 
			},
			{
				"x": 1.6752780116,
				"y": 1.6781536848,
				"z": 2.6111884307,
				"element": "H" 
			},
			{
				"x": 1.388593012,
				"y": 3.3890242543,
				"z": 0.6817225128,
				"element": "H" 
			},
			{
				"x": -0.0547327337,
				"y": 2.9533524213,
				"z": 1.548051428,
				"element": "H" 
			},
			{
				"x": 0.8010953856,
				"y": 2.101532958,
				"z": -1.2403619443,
				"element": "H" 
			},
			{
				"x": -0.6905084804,
				"y": 2.8867951686,
				"z": -0.768348767,
				"element": "H" 
			},
			{
				"x": -0.853719977,
				"y": 0.450975763,
				"z": -1.4582971583,
				"element": "H" 
			},
			{
				"x": 2.1891521438,
				"y": -1.9877172272,
				"z": 0.5587207141,
				"element": "H" 
			},
			{
				"x": 4.0626007586,
				"y": -3.1324642171,
				"z": 0.0600645298,
				"element": "H" 
			},
			{
				"x": 4.0214227272,
				"y": -4.1471604703,
				"z": -1.3086413012,
				"element": "H" 
			},
			{
				"x": -3.0664288683,
				"y": -1.116955624,
				"z": 0.3392852555,
				"element": "H" 
			},
			{
				"x": -2.9818225156,
				"y": 1.6104330759,
				"z": -1.1033510911,
				"element": "H" 
			},
			{
				"x": -3.9920115571,
				"y": 0.8491714383,
				"z": 0.1062551586,
				"element": "H" 
			},
			{
				"x": -2.3418239326,
				"y": 3.3804128863,
				"z": 0.5938727791,
				"element": "H" 
			},
			{
				"x": -4.0835739145,
				"y": 3.2579135106,
				"z": 0.4273533573,
				"element": "H" 
			},
			{
				"x": -4.1940462634,
				"y": 1.7955962154,
				"z": 2.4508231238,
				"element": "H" 
			},
			{
				"x": -3.4366863348,
				"y": 3.3330887505,
				"z": 2.8473160975,
				"element": "H" 
			},
			{
				"x": -1.2058106324,
				"y": 2.35880135,
				"z": 2.7648026842,
				"element": "H" 
			},
			{
				"x": -2.1841644388,
				"y": 1.3644598821,
				"z": 3.8070625722,
				"element": "H" 
			},
			{
				"x": -2.5332202148,
				"y": -0.3070146897,
				"z": 2.2405760931,
				"element": "H" 
			}
		],
		 "valence_orbital": [ 
			{
				"type": "occ",
				"energy": -0.26578,
				"method": "rhf"
			},
			{
				"type": "occ",
				"energy": -0.2576,
				"method": "rhf"
			},
			{
				"type": "occ",
				"energy": -0.23804,
				"method": "rhf"
			},
			{
				"type": "occ",
				"energy": -0.20282,
				"method": "rhf"
			},
			{
				"type": "occ",
				"energy": -0.18723,
				"method": "rhf"
			},
			{
				"type": "unocc",
				"energy": -0.01494,
				"method": "rhf"
			},
			{
				"type": "unocc",
				"energy": 0.03071,
				"method": "rhf"
			},
			{
				"type": "unocc",
				"energy": 0.04345,
				"method": "rhf"
			},
			{
				"type": "unocc",
				"energy": 0.06385,
				"method": "rhf"
			},
			{
				"type": "unocc",
				"energy": 0.07466,
				"method": "rhf"
			}
		],
		"cosmo_sigma_profile": { 
			"-0.025": 0.0,
			"-0.024": 0.0,
			"-0.023": 0.0,
			"-0.022": 0.0,
			"-0.021": 0.0,
			"-0.02": 0.0,
			"-0.019": 0.0,
			"-0.018": 0.0421214415749,
			"-0.017": 0.711992739349,
			"-0.016": 1.29551486886,
			"-0.015": 2.59818420094,
			"-0.014": 2.9209392368,
			"-0.013": 3.68245111574,
			"-0.012": 3.73081505403,
			"-0.011": 5.22467287727,
			"-0.01": 3.710899537,
			"-0.009": 3.12678976508,
			"-0.008": 4.08493814779,
			"-0.007": 3.93755864249,
			"-0.006": 4.06110931037,
			"-0.005": 5.34318462466,
			"-0.004": 8.45496534167,
			"-0.003": 32.4946014295,
			"-0.002": 52.4132265059,
			"-0.001": 43.4725080915,
			"0.0": 38.5773791814,
			"0.001": 24.3984104154,
			"0.002": 9.44390602737,
			"0.003": 5.17686164316,
			"0.004": 5.96182125298,
			"0.005": 4.67145209202,
			"0.006": 6.35269393898,
			"0.007": 6.50477835086,
			"0.008": 6.0119549423,
			"0.009": 6.66044318988,
			"0.01": 7.73265032674,
			"0.011": 8.0163880917,
			"0.012": 4.96444377507,
			"0.013": 4.45499872283,
			"0.014": 3.62650129232,
			"0.015": 1.58132518646,
			"0.016": 1.06852971109,
			"0.017": 1.34258795603,
			"0.018": 0.712685835935,
			"0.019": 0.534696372185,
			"0.02": 0.00965163078482,
			"0.021": 0.0,
			"0.022": 0.0,
			"0.023": 0.0,
			"0.024": 0.0,
			"0.025": 0.0
		}
	}
}
