{
	 "smiles": "COC1=CC=C(C=C1)C(N)C(O)=O", 
	 "Tm": 506.15, 
	 "num_atms": 24, 
	 "gaussian": { 
		 "optdone": 1, 
		 "sigma_profile": "yes", 
		 "theory": "DFT", 
		 "functional": "B3LYP", 
		 "basiset": "6-31G**", 
		 "properties": { 
			 "R2extent": 3734.8916, 
			 "electric_dipole_moment_norm": 1.1288322196, 
			 "electric_quadrupole_moment_norm": 21.2928576166, 
			 "total_energy": -630.00397094, 
			 "HOMO_LUMO_gap": 0.21026, 
			 "cosmo_polarized_energy": -15.37, 
			 "cosmo_cavitation_energy": 28.19, 
			 "cosmo_dispersion_energy": -20.31, 
			 "cosmo_repulsion_energy": 1.63, 
			 "cosmo_total_nonelectrostatic_energy": 9.52, 
			 "SMD_solvation_energy": 5.59 
		},
		"coords": [
			{
				"x": 1.6138793439,
				"y": 1.8363574274,
				"z": 3.4010849894,
				"element": "C" 
			},
			{
				"x": 1.8462851033,
				"y": 2.313753444,
				"z": 2.0854145392,
				"element": "O" 
			},
			{
				"x": 1.4647039452,
				"y": 1.5288853578,
				"z": 1.0369031714,
				"element": "C" 
			},
			{
				"x": 0.8562348004,
				"y": 0.2743686715,
				"z": 1.1594886085,
				"element": "C" 
			},
			{
				"x": 0.508492724,
				"y": -0.4376157309,
				"z": 0.0090805693,
				"element": "C" 
			},
			{
				"x": 0.7521891593,
				"y": 0.0711601405,
				"z": -1.2674336229,
				"element": "C" 
			},
			{
				"x": 1.360528126,
				"y": 1.3330700344,
				"z": -1.372873577,
				"element": "C" 
			},
			{
				"x": 1.7146230803,
				"y": 2.0537140457,
				"z": -0.2398600831,
				"element": "C" 
			},
			{
				"x": 0.4030188973,
				"y": -0.7507081862,
				"z": -2.5023100752,
				"element": "C" 
			},
			{
				"x": 1.6064804213,
				"y": -1.3642175155,
				"z": -3.068032611,
				"element": "N" 
			},
			{
				"x": -0.4313411234,
				"y": 0.0973855452,
				"z": -3.4728236888,
				"element": "C" 
			},
			{
				"x": 0.3359324326,
				"y": 0.7531447906,
				"z": -4.3863163605,
				"element": "O" 
			},
			{
				"x": -1.6373967786,
				"y": 0.1942255468,
				"z": -3.4540442217,
				"element": "O" 
			},
			{
				"x": 2.1527895228,
				"y": 0.8996630232,
				"z": 3.5936992024,
				"element": "H" 
			},
			{
				"x": 0.5444292117,
				"y": 1.679888995,
				"z": 3.5926032608,
				"element": "H" 
			},
			{
				"x": 1.9887139403,
				"y": 2.6098723007,
				"z": 4.0731239322,
				"element": "H" 
			},
			{
				"x": 0.649507483,
				"y": -0.1548094002,
				"z": 2.1326059425,
				"element": "H" 
			},
			{
				"x": 0.0410482725,
				"y": -1.4128159824,
				"z": 0.1153621662,
				"element": "H" 
			},
			{
				"x": 1.5528013347,
				"y": 1.7604422513,
				"z": -2.3529558054,
				"element": "H" 
			},
			{
				"x": 2.1824801662,
				"y": 3.0298279366,
				"z": -0.3158548941,
				"element": "H" 
			},
			{
				"x": -0.2755396645,
				"y": -1.5519507207,
				"z": -2.1930857048,
				"element": "H" 
			},
			{
				"x": 1.3756557441,
				"y": -1.8599059984,
				"z": -3.9267005018,
				"element": "H" 
			},
			{
				"x": 2.2701260723,
				"y": -0.6377967651,
				"z": -3.3252177047,
				"element": "H" 
			},
			{
				"x": -0.2826422146,
				"y": 1.2759607885,
				"z": -4.9243575312,
				"element": "H" 
			}
		],
		 "valence_orbital": [ 
			{
				"type": "occ",
				"energy": -0.31602,
				"method": "rhf"
			},
			{
				"type": "occ",
				"energy": -0.29259,
				"method": "rhf"
			},
			{
				"type": "occ",
				"energy": -0.25296,
				"method": "rhf"
			},
			{
				"type": "occ",
				"energy": -0.2356,
				"method": "rhf"
			},
			{
				"type": "occ",
				"energy": -0.21911,
				"method": "rhf"
			},
			{
				"type": "unocc",
				"energy": -0.00885,
				"method": "rhf"
			},
			{
				"type": "unocc",
				"energy": -0.0007,
				"method": "rhf"
			},
			{
				"type": "unocc",
				"energy": 0.02288,
				"method": "rhf"
			},
			{
				"type": "unocc",
				"energy": 0.06818,
				"method": "rhf"
			},
			{
				"type": "unocc",
				"energy": 0.09436,
				"method": "rhf"
			}
		],
		"cosmo_sigma_profile": { 
			"-0.025": 0.0,
			"-0.024": 0.0,
			"-0.023": 0.0,
			"-0.022": 0.0,
			"-0.021": 0.0,
			"-0.02": 0.0,
			"-0.019": 0.0,
			"-0.018": 0.535727685199,
			"-0.017": 1.35086257229,
			"-0.016": 0.804705364404,
			"-0.015": 0.691956815193,
			"-0.014": 0.2116900814,
			"-0.013": 0.418358652073,
			"-0.012": 0.963966680575,
			"-0.011": 2.3115348232,
			"-0.01": 2.55567488531,
			"-0.009": 3.14582138595,
			"-0.008": 3.13938434672,
			"-0.007": 4.53603269467,
			"-0.006": 14.5634788528,
			"-0.005": 19.5620642411,
			"-0.004": 19.6836754027,
			"-0.003": 16.6390162551,
			"-0.002": 14.1556242309,
			"-0.001": 11.5496543391,
			"0.0": 8.11377753951,
			"0.001": 9.66032658445,
			"0.002": 9.40344670248,
			"0.003": 12.4088049049,
			"0.004": 13.5169746828,
			"0.005": 13.9874965155,
			"0.006": 5.878928973,
			"0.007": 4.92502983707,
			"0.008": 5.1284125449,
			"0.009": 3.87112571336,
			"0.01": 4.06470764013,
			"0.011": 5.02758637145,
			"0.012": 4.86455872004,
			"0.013": 1.47968653294,
			"0.014": 0.920173403339,
			"0.015": 0.445400415006,
			"0.016": 0.846994876505,
			"0.017": 0.392242900326,
			"0.018": 0.630098954226,
			"0.019": 0.148917973313,
			"0.02": 0.0,
			"0.021": 0.0,
			"0.022": 0.0,
			"0.023": 0.0,
			"0.024": 0.0,
			"0.025": 0.0
		}
	}
}
