{
	 "smiles": "OCCSCCO", 
	 "Tm": 262.95, 
	 "num_atms": 17, 
	 "gaussian": { 
		 "optdone": 1, 
		 "sigma_profile": "yes", 
		 "theory": "DFT", 
		 "functional": "B3LYP", 
		 "basiset": "6-31G**", 
		 "properties": { 
			 "R2extent": 1293.7751, 
			 "electric_dipole_moment_norm": 2.09964555104, 
			 "electric_quadrupole_moment_norm": 13.4379867491, 
			 "total_energy": -707.062640108, 
			 "HOMO_LUMO_gap": 0.26228, 
			 "cosmo_polarized_energy": -12.57, 
			 "cosmo_cavitation_energy": 21.2, 
			 "cosmo_dispersion_energy": -16.2, 
			 "cosmo_repulsion_energy": 1.37, 
			 "cosmo_total_nonelectrostatic_energy": 6.37, 
			 "SMD_solvation_energy": 3.45 
		},
		"coords": [
			{
				"x": -1.1633416294,
				"y": -0.0620540017,
				"z": 2.1736371392,
				"element": "O" 
			},
			{
				"x": -0.1520463032,
				"y": -0.9889450249,
				"z": 2.5496402383,
				"element": "C" 
			},
			{
				"x": 0.4250650711,
				"y": -1.6218293704,
				"z": 1.290516617,
				"element": "C" 
			},
			{
				"x": 1.4841329883,
				"y": -0.5189547903,
				"z": 0.2703895223,
				"element": "S" 
			},
			{
				"x": 0.2491412013,
				"y": 0.4667858719,
				"z": -0.6648994588,
				"element": "C" 
			},
			{
				"x": -0.2708736605,
				"y": -0.2525605979,
				"z": -1.9038799913,
				"element": "C" 
			},
			{
				"x": -1.1883698433,
				"y": 0.6275071161,
				"z": -2.5439208041,
				"element": "O" 
			},
			{
				"x": -1.3999233115,
				"y": 0.4626741324,
				"z": 2.9476467711,
				"element": "H" 
			},
			{
				"x": -0.5714325781,
				"y": -1.7904100615,
				"z": 3.1825522112,
				"element": "H" 
			},
			{
				"x": 0.654333397,
				"y": -0.5001420927,
				"z": 3.1149462944,
				"element": "H" 
			},
			{
				"x": -0.3831002124,
				"y": -2.0303694755,
				"z": 0.6762480944,
				"element": "H" 
			},
			{
				"x": 1.0760610231,
				"y": -2.4550046958,
				"z": 1.5733877251,
				"element": "H" 
			},
			{
				"x": -0.5678981067,
				"y": 0.7344734672,
				"z": 0.0060853632,
				"element": "H" 
			},
			{
				"x": 0.7645237087,
				"y": 1.3844181978,
				"z": -0.9631805741,
				"element": "H" 
			},
			{
				"x": 0.5737706524,
				"y": -0.5096080565,
				"z": -2.5611451132,
				"element": "H" 
			},
			{
				"x": -0.757912779,
				"y": -1.1964405177,
				"z": -1.6111444507,
				"element": "H" 
			},
			{
				"x": -1.524529618,
				"y": 0.1863598995,
				"z": -3.3337795839,
				"element": "H" 
			}
		],
		 "valence_orbital": [ 
			{
				"type": "occ",
				"energy": -0.32919,
				"method": "rhf"
			},
			{
				"type": "occ",
				"energy": -0.29825,
				"method": "rhf"
			},
			{
				"type": "occ",
				"energy": -0.27256,
				"method": "rhf"
			},
			{
				"type": "occ",
				"energy": -0.26237,
				"method": "rhf"
			},
			{
				"type": "occ",
				"energy": -0.21639,
				"method": "rhf"
			},
			{
				"type": "unocc",
				"energy": 0.04589,
				"method": "rhf"
			},
			{
				"type": "unocc",
				"energy": 0.06674,
				"method": "rhf"
			},
			{
				"type": "unocc",
				"energy": 0.07415,
				"method": "rhf"
			},
			{
				"type": "unocc",
				"energy": 0.09613,
				"method": "rhf"
			},
			{
				"type": "unocc",
				"energy": 0.10733,
				"method": "rhf"
			}
		],
		"cosmo_sigma_profile": { 
			"-0.025": 0.0,
			"-0.024": 0.0,
			"-0.023": 0.0,
			"-0.022": 0.0,
			"-0.021": 0.0,
			"-0.02": 0.0,
			"-0.019": 0.0,
			"-0.018": 0.0,
			"-0.017": 0.0,
			"-0.016": 0.990530100038,
			"-0.015": 2.25421810198,
			"-0.014": 2.33495952277,
			"-0.013": 1.26456777055,
			"-0.012": 1.50435820071,
			"-0.011": 2.26673665006,
			"-0.01": 1.16036535774,
			"-0.009": 1.9400489264,
			"-0.008": 2.12843168172,
			"-0.007": 1.85547200689,
			"-0.006": 4.60267553082,
			"-0.005": 9.71454126599,
			"-0.004": 16.6317969439,
			"-0.003": 18.0941157596,
			"-0.002": 15.4094879032,
			"-0.001": 9.22306981296,
			"0.0": 8.3538229178,
			"0.001": 5.15471943597,
			"0.002": 5.6686295207,
			"0.003": 5.37885572949,
			"0.004": 5.44831612161,
			"0.005": 6.5896244848,
			"0.006": 6.64117062274,
			"0.007": 6.59963356963,
			"0.008": 5.30987616333,
			"0.009": 4.36622391344,
			"0.01": 4.4861291999,
			"0.011": 3.05966702163,
			"0.012": 2.66572156832,
			"0.013": 2.04848857114,
			"0.014": 2.72807285474,
			"0.015": 0.293829925472,
			"0.016": 0.0,
			"0.017": 0.0,
			"0.018": 0.0,
			"0.019": 0.0,
			"0.02": 0.0,
			"0.021": 0.0,
			"0.022": 0.0,
			"0.023": 0.0,
			"0.024": 0.0,
			"0.025": 0.0
		}
	}
}
