{
	 "smiles": "CC(=O)NC1=CC=C(CC#N)C=C1", 
	 "Tm": 355.65, 
	 "num_atms": 23, 
	 "gaussian": { 
		 "optdone": 1, 
		 "sigma_profile": "yes", 
		 "theory": "DFT", 
		 "functional": "B3LYP", 
		 "basiset": "6-31G**", 
		 "properties": { 
			 "R2extent": 3666.0903, 
			 "electric_dipole_moment_norm": 3.19863043348, 
			 "electric_quadrupole_moment_norm": 27.1033088415, 
			 "total_energy": -571.817178231, 
			 "HOMO_LUMO_gap": 0.20563, 
			 "cosmo_polarized_energy": -17.57, 
			 "cosmo_cavitation_energy": 28.25, 
			 "cosmo_dispersion_energy": -19.89, 
			 "cosmo_repulsion_energy": 1.58, 
			 "cosmo_total_nonelectrostatic_energy": 9.94, 
			 "SMD_solvation_energy": 6.97 
		},
		"coords": [
			{
				"x": 0.2956434407,
				"y": 3.1870011193,
				"z": -1.9236395648,
				"element": "C" 
			},
			{
				"x": -1.1429358817,
				"y": 2.9545664604,
				"z": -2.3419659373,
				"element": "C" 
			},
			{
				"x": -1.6829620426,
				"y": 3.6269470615,
				"z": -3.2074552503,
				"element": "O" 
			},
			{
				"x": -1.8632894456,
				"y": 1.9336354639,
				"z": -1.7356827096,
				"element": "N" 
			},
			{
				"x": -1.5202379052,
				"y": 0.986195604,
				"z": -0.749735524,
				"element": "C" 
			},
			{
				"x": -2.0314623384,
				"y": -0.3168452546,
				"z": -0.8699072239,
				"element": "C" 
			},
			{
				"x": -1.7513639105,
				"y": -1.279451559,
				"z": 0.0932256446,
				"element": "C" 
			},
			{
				"x": -0.9461415457,
				"y": -0.9780288631,
				"z": 1.1983912202,
				"element": "C" 
			},
			{
				"x": -0.6909336977,
				"y": -2.0548563193,
				"z": 2.2466875825,
				"element": "C" 
			},
			{
				"x": 0.4903290564,
				"y": -1.8180122166,
				"z": 3.0808214031,
				"element": "C" 
			},
			{
				"x": 1.4207343682,
				"y": -1.6193511415,
				"z": 3.7452798096,
				"element": "N" 
			},
			{
				"x": -0.4430370854,
				"y": 0.3191425905,
				"z": 1.3199884004,
				"element": "C" 
			},
			{
				"x": -0.7359835567,
				"y": 1.2969485193,
				"z": 0.3695276258,
				"element": "C" 
			},
			{
				"x": 0.7986405994,
				"y": 3.6753648262,
				"z": -2.7588316134,
				"element": "H" 
			},
			{
				"x": 0.8183617243,
				"y": 2.2662624425,
				"z": -1.6555768185,
				"element": "H" 
			},
			{
				"x": 0.3365446913,
				"y": 3.8656990058,
				"z": -1.0650007775,
				"element": "H" 
			},
			{
				"x": -2.7600963147,
				"y": 1.8065025235,
				"z": -2.1894491621,
				"element": "H" 
			},
			{
				"x": -2.6379003641,
				"y": -0.5743831205,
				"z": -1.733912853,
				"element": "H" 
			},
			{
				"x": -2.155877755,
				"y": -2.2816486594,
				"z": -0.0257575054,
				"element": "H" 
			},
			{
				"x": -1.5566060065,
				"y": -2.1482903359,
				"z": 2.9170484324,
				"element": "H" 
			},
			{
				"x": -0.5743141097,
				"y": -3.0315213937,
				"z": 1.76226208,
				"element": "H" 
			},
			{
				"x": 0.1775352875,
				"y": 0.5799245296,
				"z": 2.1721506192,
				"element": "H" 
			},
			{
				"x": -0.3694472082,
				"y": 2.3053987171,
				"z": 0.516332122,
				"element": "H" 
			}
		],
		 "valence_orbital": [ 
			{
				"type": "occ",
				"energy": -0.33248,
				"method": "rhf"
			},
			{
				"type": "occ",
				"energy": -0.30502,
				"method": "rhf"
			},
			{
				"type": "occ",
				"energy": -0.27307,
				"method": "rhf"
			},
			{
				"type": "occ",
				"energy": -0.25853,
				"method": "rhf"
			},
			{
				"type": "occ",
				"energy": -0.23383,
				"method": "rhf"
			},
			{
				"type": "unocc",
				"energy": -0.0282,
				"method": "rhf"
			},
			{
				"type": "unocc",
				"energy": -0.02614,
				"method": "rhf"
			},
			{
				"type": "unocc",
				"energy": 0.02473,
				"method": "rhf"
			},
			{
				"type": "unocc",
				"energy": 0.0255,
				"method": "rhf"
			},
			{
				"type": "unocc",
				"energy": 0.03561,
				"method": "rhf"
			}
		],
		"cosmo_sigma_profile": { 
			"-0.025": 0.0,
			"-0.024": 0.0,
			"-0.023": 0.0,
			"-0.022": 0.0,
			"-0.021": 0.0,
			"-0.02": 0.0,
			"-0.019": 0.0,
			"-0.018": 0.0,
			"-0.017": 0.0,
			"-0.016": 0.0,
			"-0.015": 0.0,
			"-0.014": 0.550074787227,
			"-0.013": 1.3931321428,
			"-0.012": 0.575492970017,
			"-0.011": 1.46790146503,
			"-0.01": 1.22690884381,
			"-0.009": 4.31017127586,
			"-0.008": 9.67921024297,
			"-0.007": 11.6815381504,
			"-0.006": 14.8990449541,
			"-0.005": 15.6636407821,
			"-0.004": 15.7084373145,
			"-0.003": 14.3330798941,
			"-0.002": 15.9778049134,
			"-0.001": 12.517376626,
			"0.0": 12.3047231454,
			"0.001": 12.0525444597,
			"0.002": 10.6978884572,
			"0.003": 10.8183174091,
			"0.004": 12.5865863052,
			"0.005": 6.29743150632,
			"0.006": 3.50707014403,
			"0.007": 4.0576558324,
			"0.008": 4.21308665498,
			"0.009": 4.43844586866,
			"0.01": 4.13473714156,
			"0.011": 4.70072887814,
			"0.012": 4.57475453536,
			"0.013": 7.10777735898,
			"0.014": 3.9011747491,
			"0.015": 0.480402038636,
			"0.016": 0.0,
			"0.017": 0.0,
			"0.018": 0.0,
			"0.019": 0.0,
			"0.02": 0.0,
			"0.021": 0.0,
			"0.022": 0.0,
			"0.023": 0.0,
			"0.024": 0.0,
			"0.025": 0.0
		}
	}
}
