{
	 "smiles": "CN(CC(O)=O)C(=O)COC(=O)C1=CC=CC=C1", 
	 "Tm": 379.15, 
	 "num_atms": 31, 
	 "gaussian": { 
		 "optdone": 1, 
		 "sigma_profile": "yes", 
		 "theory": "DFT", 
		 "functional": "B3LYP", 
		 "basiset": "6-31G**", 
		 "properties": { 
			 "R2extent": 5053.663, 
			 "electric_dipole_moment_norm": 4.94837047623, 
			 "electric_quadrupole_moment_norm": 19.8395483371, 
			 "total_energy": -896.001947051, 
			 "HOMO_LUMO_gap": 0.20134, 
			 "cosmo_polarized_energy": -25.54, 
			 "cosmo_cavitation_energy": 35.65, 
			 "cosmo_dispersion_energy": -24.3, 
			 "cosmo_repulsion_energy": 1.87, 
			 "cosmo_total_nonelectrostatic_energy": 13.22, 
			 "SMD_solvation_energy": 8.57 
		},
		"coords": [
			{
				"x": 3.8123755259,
				"y": -0.900168753,
				"z": 0.280307852,
				"element": "C" 
			},
			{
				"x": 2.588386587,
				"y": -0.4020166984,
				"z": -0.3448799998,
				"element": "N" 
			},
			{
				"x": 1.9519680082,
				"y": 0.7217474282,
				"z": 0.2950947498,
				"element": "C" 
			},
			{
				"x": 1.1809709913,
				"y": 0.3524279912,
				"z": 1.5729586278,
				"element": "C" 
			},
			{
				"x": 0.5506555462,
				"y": 1.393888197,
				"z": 2.1722851341,
				"element": "O" 
			},
			{
				"x": 1.1317667004,
				"y": -0.7515990185,
				"z": 2.0483300022,
				"element": "O" 
			},
			{
				"x": 2.0602917695,
				"y": -1.092330812,
				"z": -1.4129404408,
				"element": "C" 
			},
			{
				"x": 2.635281477,
				"y": -2.0393259618,
				"z": -1.9326505198,
				"element": "O" 
			},
			{
				"x": 0.736697604,
				"y": -0.6097800683,
				"z": -2.0096984732,
				"element": "C" 
			},
			{
				"x": -0.282878591,
				"y": -0.6011898903,
				"z": -0.9942191044,
				"element": "O" 
			},
			{
				"x": -1.5066175025,
				"y": -0.1628319757,
				"z": -1.4072251731,
				"element": "C" 
			},
			{
				"x": -1.6960235157,
				"y": 0.2688182154,
				"z": -2.5269675124,
				"element": "O" 
			},
			{
				"x": -2.5410199415,
				"y": -0.2701612319,
				"z": -0.3448464123,
				"element": "C" 
			},
			{
				"x": -2.2734056918,
				"y": -0.8250502551,
				"z": 0.9158364877,
				"element": "C" 
			},
			{
				"x": -3.2908958936,
				"y": -0.8968021198,
				"z": 1.8664520683,
				"element": "C" 
			},
			{
				"x": -4.5695797592,
				"y": -0.4217560812,
				"z": 1.5661029012,
				"element": "C" 
			},
			{
				"x": -4.8373707532,
				"y": 0.1286244369,
				"z": 0.3090544515,
				"element": "C" 
			},
			{
				"x": -3.8267841321,
				"y": 0.2043640625,
				"z": -0.6449393715,
				"element": "C" 
			},
			{
				"x": 4.5715485855,
				"y": -0.1091200511,
				"z": 0.3040210659,
				"element": "H" 
			},
			{
				"x": 4.1771941135,
				"y": -1.7343222396,
				"z": -0.3158300717,
				"element": "H" 
			},
			{
				"x": 3.6063627482,
				"y": -1.2379766729,
				"z": 1.3000728452,
				"element": "H" 
			},
			{
				"x": 2.7199134582,
				"y": 1.461311959,
				"z": 0.5660043948,
				"element": "H" 
			},
			{
				"x": 1.2631710477,
				"y": 1.2234020334,
				"z": -0.3888628519,
				"element": "H" 
			},
			{
				"x": 0.6555899997,
				"y": 2.2078871583,
				"z": 1.6580754581,
				"element": "H" 
			},
			{
				"x": 0.8273144773,
				"y": 0.3869602402,
				"z": -2.4578001025,
				"element": "H" 
			},
			{
				"x": 0.4729637803,
				"y": -1.3122400675,
				"z": -2.8006615225,
				"element": "H" 
			},
			{
				"x": -1.2822740471,
				"y": -1.1958408271,
				"z": 1.149864225,
				"element": "H" 
			},
			{
				"x": -3.0829659567,
				"y": -1.3241899973,
				"z": 2.8425747598,
				"element": "H" 
			},
			{
				"x": -5.3584004887,
				"y": -0.4811337915,
				"z": 2.3107648823,
				"element": "H" 
			},
			{
				"x": -5.8322583199,
				"y": 0.4957903759,
				"z": 0.0751954103,
				"element": "H" 
			},
			{
				"x": -4.0094778271,
				"y": 0.6244144151,
				"z": -1.6282737601,
				"element": "H" 
			}
		],
		 "valence_orbital": [ 
			{
				"type": "occ",
				"energy": -0.28427,
				"method": "rhf"
			},
			{
				"type": "occ",
				"energy": -0.26309,
				"method": "rhf"
			},
			{
				"type": "occ",
				"energy": -0.26013,
				"method": "rhf"
			},
			{
				"type": "occ",
				"energy": -0.25992,
				"method": "rhf"
			},
			{
				"type": "occ",
				"energy": -0.25295,
				"method": "rhf"
			},
			{
				"type": "unocc",
				"energy": -0.05161,
				"method": "rhf"
			},
			{
				"type": "unocc",
				"energy": -0.01038,
				"method": "rhf"
			},
			{
				"type": "unocc",
				"energy": -0.0073,
				"method": "rhf"
			},
			{
				"type": "unocc",
				"energy": 0.00354,
				"method": "rhf"
			},
			{
				"type": "unocc",
				"energy": 0.03563,
				"method": "rhf"
			}
		],
		"cosmo_sigma_profile": { 
			"-0.025": 0.0,
			"-0.024": 0.0,
			"-0.023": 0.0,
			"-0.022": 0.0,
			"-0.021": 0.0,
			"-0.02": 0.460152356154,
			"-0.019": 1.24969214875,
			"-0.018": 1.69619932965,
			"-0.017": 1.07647154344,
			"-0.016": 1.63775592542,
			"-0.015": 1.12637058124,
			"-0.014": 0.667069863685,
			"-0.013": 0.680410736099,
			"-0.012": 2.02002291025,
			"-0.011": 2.32796273467,
			"-0.01": 3.6455177313,
			"-0.009": 4.78509853477,
			"-0.008": 5.95365766838,
			"-0.007": 8.71338990273,
			"-0.006": 14.6889762936,
			"-0.005": 18.1801937488,
			"-0.004": 18.5061890466,
			"-0.003": 16.81823347,
			"-0.002": 19.7205546356,
			"-0.001": 13.3894436584,
			"0.0": 14.9117229141,
			"0.001": 17.200382035,
			"0.002": 15.580227175,
			"0.003": 18.3352414179,
			"0.004": 18.5355102456,
			"0.005": 6.98744124013,
			"0.006": 6.84170477962,
			"0.007": 6.08022789667,
			"0.008": 4.91651751472,
			"0.009": 6.48003796192,
			"0.01": 8.59305801866,
			"0.011": 9.2781457032,
			"0.012": 6.77311682065,
			"0.013": 4.84921502479,
			"0.014": 0.909174909572,
			"0.015": 0.0,
			"0.016": 0.0,
			"0.017": 0.0,
			"0.018": 0.0,
			"0.019": 0.0,
			"0.02": 0.0,
			"0.021": 0.0,
			"0.022": 0.0,
			"0.023": 0.0,
			"0.024": 0.0,
			"0.025": 0.0
		}
	}
}
