{
	 "smiles": "OC1=C(C=C(C=C1)C#N)C(F)(F)F", 
	 "Tm": 446.15, 
	 "num_atms": 17, 
	 "gaussian": { 
		 "optdone": 1, 
		 "sigma_profile": "yes", 
		 "theory": "DFT", 
		 "functional": "B3LYP", 
		 "basiset": "6-31G**", 
		 "properties": { 
			 "R2extent": 2973.7586, 
			 "electric_dipole_moment_norm": 5.18853072266, 
			 "electric_quadrupole_moment_norm": 21.7632984308, 
			 "total_energy": -736.741241337, 
			 "HOMO_LUMO_gap": 0.2009, 
			 "cosmo_polarized_energy": -15.08, 
			 "cosmo_cavitation_energy": 24.41, 
			 "cosmo_dispersion_energy": -16.93, 
			 "cosmo_repulsion_energy": 1.28, 
			 "cosmo_total_nonelectrostatic_energy": 8.75, 
			 "SMD_solvation_energy": 7.2 
		},
		"coords": [
			{
				"x": -1.1593746169,
				"y": 1.8599212535,
				"z": 1.8826319879,
				"element": "O" 
			},
			{
				"x": -0.961233813,
				"y": 0.6406185472,
				"z": 1.3312676364,
				"element": "C" 
			},
			{
				"x": 0.3062800417,
				"y": 0.0455403085,
				"z": 1.4917246589,
				"element": "C" 
			},
			{
				"x": 0.5509219654,
				"y": -1.2066751106,
				"z": 0.9406199149,
				"element": "C" 
			},
			{
				"x": -0.4495688742,
				"y": -1.8851458448,
				"z": 0.226286995,
				"element": "C" 
			},
			{
				"x": -1.7099259241,
				"y": -1.2858188949,
				"z": 0.0706541138,
				"element": "C" 
			},
			{
				"x": -1.9602007032,
				"y": -0.0350821998,
				"z": 0.6189672586,
				"element": "C" 
			},
			{
				"x": -0.1870249819,
				"y": -3.1748616768,
				"z": -0.3376279429,
				"element": "C" 
			},
			{
				"x": 0.021139531,
				"y": -4.2229500093,
				"z": -0.7978571275,
				"element": "N" 
			},
			{
				"x": 1.3875851587,
				"y": 0.7676148205,
				"z": 2.2579414783,
				"element": "C" 
			},
			{
				"x": 1.6926120801,
				"y": 1.9528565808,
				"z": 1.6921727015,
				"element": "F" 
			},
			{
				"x": 2.5255938619,
				"y": 0.0393214462,
				"z": 2.3032960024,
				"element": "F" 
			},
			{
				"x": 1.0175248898,
				"y": 1.0124604185,
				"z": 3.5311375271,
				"element": "F" 
			},
			{
				"x": -2.0610439988,
				"y": 2.159443189,
				"z": 1.7051585037,
				"element": "H" 
			},
			{
				"x": 1.5262335475,
				"y": -1.6605013262,
				"z": 1.0661944401,
				"element": "H" 
			},
			{
				"x": -2.4876403409,
				"y": -1.8040675904,
				"z": -0.4799196594,
				"element": "H" 
			},
			{
				"x": -2.9368778232,
				"y": 0.4265260887,
				"z": 0.496951511,
				"element": "H" 
			}
		],
		 "valence_orbital": [ 
			{
				"type": "occ",
				"energy": -0.36201,
				"method": "rhf"
			},
			{
				"type": "occ",
				"energy": -0.3397,
				"method": "rhf"
			},
			{
				"type": "occ",
				"energy": -0.33596,
				"method": "rhf"
			},
			{
				"type": "occ",
				"energy": -0.29665,
				"method": "rhf"
			},
			{
				"type": "occ",
				"energy": -0.25765,
				"method": "rhf"
			},
			{
				"type": "unocc",
				"energy": -0.05675,
				"method": "rhf"
			},
			{
				"type": "unocc",
				"energy": -0.04695,
				"method": "rhf"
			},
			{
				"type": "unocc",
				"energy": 0.02901,
				"method": "rhf"
			},
			{
				"type": "unocc",
				"energy": 0.04074,
				"method": "rhf"
			},
			{
				"type": "unocc",
				"energy": 0.06151,
				"method": "rhf"
			}
		],
		"cosmo_sigma_profile": { 
			"-0.025": 0.0,
			"-0.024": 0.0,
			"-0.023": 0.0,
			"-0.022": 0.0,
			"-0.021": 0.0,
			"-0.02": 0.433115636677,
			"-0.019": 1.30400045051,
			"-0.018": 1.16608749932,
			"-0.017": 1.21862953001,
			"-0.016": 1.02871839615,
			"-0.015": 0.370046503339,
			"-0.014": 1.21095056518,
			"-0.013": 1.31718398824,
			"-0.012": 1.23659311876,
			"-0.011": 0.781274015543,
			"-0.01": 1.35217491308,
			"-0.009": 3.28935746343,
			"-0.008": 6.21167141808,
			"-0.007": 6.55120073776,
			"-0.006": 6.07048784621,
			"-0.005": 5.37142972317,
			"-0.004": 5.65242747209,
			"-0.003": 8.48715421183,
			"-0.002": 9.04243302194,
			"-0.001": 16.6181155952,
			"0.0": 18.8757889345,
			"0.001": 15.6925503961,
			"0.002": 20.8512439037,
			"0.003": 22.6003420553,
			"0.004": 5.54965182416,
			"0.005": 5.16919422963,
			"0.006": 4.34733084572,
			"0.007": 5.79755371812,
			"0.008": 6.14335095916,
			"0.009": 3.69797120312,
			"0.01": 3.07762006571,
			"0.011": 2.92401004412,
			"0.012": 2.46856484946,
			"0.013": 1.58793674762,
			"0.014": 0.0799437651633,
			"0.015": 0.0,
			"0.016": 0.0,
			"0.017": 0.0,
			"0.018": 0.0,
			"0.019": 0.0,
			"0.02": 0.0,
			"0.021": 0.0,
			"0.022": 0.0,
			"0.023": 0.0,
			"0.024": 0.0,
			"0.025": 0.0
		}
	}
}
