{
	 "smiles": "[O-][N+](=O)C1=CC(=CC=C1OC1=C(Br)C=CC=C1)C(F)(F)F", 
	 "Tm": 333.15, 
	 "num_atms": 28, 
	 "gaussian": { 
		 "optdone": 1, 
		 "sigma_profile": "yes", 
		 "theory": "DFT", 
		 "functional": "B3LYP", 
		 "basiset": "6-31G**", 
		 "properties": { 
			 "R2extent": 9173.16, 
			 "electric_dipole_moment_norm": 6.31971066822, 
			 "electric_quadrupole_moment_norm": 18.6470417469, 
			 "total_energy": -3650.83250961, 
			 "HOMO_LUMO_gap": 0.1714, 
			 "cosmo_polarized_energy": -12.01, 
			 "cosmo_cavitation_energy": 38.09, 
			 "cosmo_dispersion_energy": -26.06, 
			 "cosmo_repulsion_energy": 1.95, 
			 "cosmo_total_nonelectrostatic_energy": 13.98, 
			 "SMD_solvation_energy": 9.02 
		},
		"coords": [
			{
				"x": -0.8535847946,
				"y": -2.393434922,
				"z": 4.3012067569,
				"element": "O" 
			},
			{
				"x": -1.0688648554,
				"y": -2.5358911521,
				"z": 3.0965013701,
				"element": "N" 
			},
			{
				"x": -1.1277838584,
				"y": -3.6141856045,
				"z": 2.5143617521,
				"element": "O" 
			},
			{
				"x": -1.3069849014,
				"y": -1.3109364687,
				"z": 2.3179505942,
				"element": "C" 
			},
			{
				"x": -1.8103463017,
				"y": -0.2134302646,
				"z": 3.0127932905,
				"element": "C" 
			},
			{
				"x": -2.1056497334,
				"y": 0.9650782112,
				"z": 2.3379408565,
				"element": "C" 
			},
			{
				"x": -1.8756103967,
				"y": 1.044188175,
				"z": 0.9603534788,
				"element": "C" 
			},
			{
				"x": -1.3522721787,
				"y": -0.0392919422,
				"z": 0.2675722918,
				"element": "C" 
			},
			{
				"x": -1.0570992044,
				"y": -1.2386849456,
				"z": 0.9317285989,
				"element": "C" 
			},
			{
				"x": -0.5197454091,
				"y": -2.3177246051,
				"z": 0.3069685126,
				"element": "O" 
			},
			{
				"x": -0.2344683348,
				"y": -2.2736864414,
				"z": -1.048426268,
				"element": "C" 
			},
			{
				"x": 1.0192299094,
				"y": -1.8531171754,
				"z": -1.5060335695,
				"element": "C" 
			},
			{
				"x": 2.3226883642,
				"y": -1.2111514486,
				"z": -0.2798168917,
				"element": "Br" 
			},
			{
				"x": 1.3158750151,
				"y": -1.9107941326,
				"z": -2.8682829,
				"element": "C" 
			},
			{
				"x": 0.3630270202,
				"y": -2.3886868411,
				"z": -3.7680761834,
				"element": "C" 
			},
			{
				"x": -0.8856349756,
				"y": -2.813450469,
				"z": -3.3102446705,
				"element": "C" 
			},
			{
				"x": -1.1830490162,
				"y": -2.757440609,
				"z": -1.9494896728,
				"element": "C" 
			},
			{
				"x": -2.6187912684,
				"y": 2.1657186354,
				"z": 3.0846614622,
				"element": "C" 
			},
			{
				"x": -3.2089812366,
				"y": 1.8206378466,
				"z": 4.2473317624,
				"element": "F" 
			},
			{
				"x": -3.5231918797,
				"y": 2.8521590427,
				"z": 2.3501351115,
				"element": "F" 
			},
			{
				"x": -1.6227435749,
				"y": 3.0301502482,
				"z": 3.3832293117,
				"element": "F" 
			},
			{
				"x": -1.9705243485,
				"y": -0.3093714099,
				"z": 4.0788943524,
				"element": "H" 
			},
			{
				"x": -2.1093979088,
				"y": 1.9587203538,
				"z": 0.4257159289,
				"element": "H" 
			},
			{
				"x": -1.1651629695,
				"y": 0.0343674606,
				"z": -0.7965956451,
				"element": "H" 
			},
			{
				"x": 2.2906308049,
				"y": -1.5853126902,
				"z": -3.2133347466,
				"element": "H" 
			},
			{
				"x": 0.6031216308,
				"y": -2.4331227175,
				"z": -4.8256686428,
				"element": "H" 
			},
			{
				"x": -1.6254082045,
				"y": -3.193212096,
				"z": -4.0075679196,
				"element": "H" 
			},
			{
				"x": -2.1385773934,
				"y": -3.095894038,
				"z": -1.5626083216,
				"element": "H" 
			}
		],
		 "valence_orbital": [ 
			{
				"type": "occ",
				"energy": -0.30167,
				"method": "rhf"
			},
			{
				"type": "occ",
				"energy": -0.28518,
				"method": "rhf"
			},
			{
				"type": "occ",
				"energy": -0.2765,
				"method": "rhf"
			},
			{
				"type": "occ",
				"energy": -0.26596,
				"method": "rhf"
			},
			{
				"type": "occ",
				"energy": -0.26082,
				"method": "rhf"
			},
			{
				"type": "unocc",
				"energy": -0.08942,
				"method": "rhf"
			},
			{
				"type": "unocc",
				"energy": -0.03915,
				"method": "rhf"
			},
			{
				"type": "unocc",
				"energy": -0.03677,
				"method": "rhf"
			},
			{
				"type": "unocc",
				"energy": -0.03283,
				"method": "rhf"
			},
			{
				"type": "unocc",
				"energy": -0.01709,
				"method": "rhf"
			}
		],
		"cosmo_sigma_profile": { 
			"-0.025": 0.0,
			"-0.024": 0.0,
			"-0.023": 0.0,
			"-0.022": 0.0,
			"-0.021": 0.0,
			"-0.02": 0.0,
			"-0.019": 0.0,
			"-0.018": 0.0,
			"-0.017": 0.0,
			"-0.016": 0.0,
			"-0.015": 0.0,
			"-0.014": 0.0,
			"-0.013": 0.0,
			"-0.012": 0.0,
			"-0.011": 0.0,
			"-0.01": 0.0,
			"-0.009": 1.27600454587,
			"-0.008": 6.22794441249,
			"-0.007": 13.5910919423,
			"-0.006": 16.7769059772,
			"-0.005": 16.3431200239,
			"-0.004": 15.684603932,
			"-0.003": 17.8749013784,
			"-0.002": 19.8653670222,
			"-0.001": 24.8661739205,
			"0.0": 27.1243397976,
			"0.001": 28.7294173738,
			"0.002": 39.6188903813,
			"0.003": 37.4144036009,
			"0.004": 11.0930570522,
			"0.005": 3.94644841034,
			"0.006": 4.18318114226,
			"0.007": 8.4273672446,
			"0.008": 9.07023887526,
			"0.009": 5.63268953291,
			"0.01": 2.80915906463,
			"0.011": 0.0322525373551,
			"0.012": 0.0,
			"0.013": 0.0,
			"0.014": 0.0,
			"0.015": 0.0,
			"0.016": 0.0,
			"0.017": 0.0,
			"0.018": 0.0,
			"0.019": 0.0,
			"0.02": 0.0,
			"0.021": 0.0,
			"0.022": 0.0,
			"0.023": 0.0,
			"0.024": 0.0,
			"0.025": 0.0
		}
	}
}
