{
	 "smiles": "CC(C)(C)OC(=O)NC(C1CCCCC1)C(O)=O", 
	 "Tm": 437.15, 
	 "num_atms": 41, 
	 "gaussian": { 
		 "optdone": 1, 
		 "sigma_profile": "yes", 
		 "theory": "DFT", 
		 "functional": "B3LYP", 
		 "basiset": "6-31G**", 
		 "properties": { 
			 "R2extent": 6321.5655, 
			 "electric_dipole_moment_norm": 6.24394303225, 
			 "electric_quadrupole_moment_norm": 19.9309347382, 
			 "total_energy": -864.954114657, 
			 "HOMO_LUMO_gap": 0.26404, 
			 "cosmo_polarized_energy": -14.71, 
			 "cosmo_cavitation_energy": 39.65, 
			 "cosmo_dispersion_energy": -27.81, 
			 "cosmo_repulsion_energy": 2.17, 
			 "cosmo_total_nonelectrostatic_energy": 14.01, 
			 "SMD_solvation_energy": 7.1 
		},
		"coords": [
			{
				"x": -3.3130965484,
				"y": -1.4183378537,
				"z": -2.9927471155,
				"element": "C" 
			},
			{
				"x": -3.3613394975,
				"y": -1.0417595139,
				"z": -1.5093370282,
				"element": "C" 
			},
			{
				"x": -3.5914313903,
				"y": 0.4560895592,
				"z": -1.28977227,
				"element": "C" 
			},
			{
				"x": -4.4130038499,
				"y": -1.8709112118,
				"z": -0.7688130128,
				"element": "C" 
			},
			{
				"x": -2.1074092839,
				"y": -1.459045276,
				"z": -0.8410886538,
				"element": "O" 
			},
			{
				"x": -0.9104318531,
				"y": -0.989208783,
				"z": -1.2265439542,
				"element": "C" 
			},
			{
				"x": -0.7334316589,
				"y": -0.1186702135,
				"z": -2.0873708274,
				"element": "O" 
			},
			{
				"x": 0.0814720477,
				"y": -1.622764698,
				"z": -0.5504170158,
				"element": "N" 
			},
			{
				"x": 1.5160430344,
				"y": -1.2836180297,
				"z": -0.4674067929,
				"element": "C" 
			},
			{
				"x": 1.8170054159,
				"y": -0.0614754951,
				"z": 0.4560750504,
				"element": "C" 
			},
			{
				"x": 3.3224573553,
				"y": -0.0242364055,
				"z": 0.87610946,
				"element": "C" 
			},
			{
				"x": 4.0941130505,
				"y": 1.1279951357,
				"z": 0.2178608679,
				"element": "C" 
			},
			{
				"x": 3.4982430956,
				"y": 2.5026970681,
				"z": 0.5899880022,
				"element": "C" 
			},
			{
				"x": 1.955654988,
				"y": 2.4486631603,
				"z": 0.7233942576,
				"element": "C" 
			},
			{
				"x": 1.3581460475,
				"y": 1.3038070526,
				"z": -0.1073764199,
				"element": "C" 
			},
			{
				"x": 2.281037689,
				"y": -1.2157184018,
				"z": -1.8119593787,
				"element": "C" 
			},
			{
				"x": 1.7034677021,
				"y": -0.6259871374,
				"z": -2.8569229798,
				"element": "O" 
			},
			{
				"x": 3.4120638357,
				"y": -1.6513620777,
				"z": -1.8668212244,
				"element": "O" 
			},
			{
				"x": -2.5576712218,
				"y": -0.8399417813,
				"z": -3.5251081078,
				"element": "H" 
			},
			{
				"x": -3.0936823218,
				"y": -2.4842077647,
				"z": -3.1092465709,
				"element": "H" 
			},
			{
				"x": -4.2887653956,
				"y": -1.2221885589,
				"z": -3.4484212138,
				"element": "H" 
			},
			{
				"x": -4.5780479708,
				"y": 0.7325223361,
				"z": -1.6750409748,
				"element": "H" 
			},
			{
				"x": -2.8357647343,
				"y": 1.0512553696,
				"z": -1.8027146726,
				"element": "H" 
			},
			{
				"x": -3.5670659143,
				"y": 0.6925264055,
				"z": -0.2213983155,
				"element": "H" 
			},
			{
				"x": -4.4088590102,
				"y": -1.6366806137,
				"z": 0.2995466657,
				"element": "H" 
			},
			{
				"x": -4.2192478037,
				"y": -2.9404889981,
				"z": -0.8900095663,
				"element": "H" 
			},
			{
				"x": -5.4077822369,
				"y": -1.6519854274,
				"z": -1.1672185992,
				"element": "H" 
			},
			{
				"x": -0.2442099201,
				"y": -2.3134198482,
				"z": 0.1102310783,
				"element": "H" 
			},
			{
				"x": 1.9597165913,
				"y": -2.1542073299,
				"z": 0.019702061,
				"element": "H" 
			},
			{
				"x": 1.2232882385,
				"y": -0.2539977512,
				"z": 1.3604449411,
				"element": "H" 
			},
			{
				"x": 3.8072943986,
				"y": -0.9731292168,
				"z": 0.6294660411,
				"element": "H" 
			},
			{
				"x": 3.3795732493,
				"y": 0.086536083,
				"z": 1.9662150331,
				"element": "H" 
			},
			{
				"x": 5.149129247,
				"y": 1.0813313535,
				"z": 0.5096853466,
				"element": "H" 
			},
			{
				"x": 4.0789383783,
				"y": 0.9897166342,
				"z": -0.8686860126,
				"element": "H" 
			},
			{
				"x": 3.783316711,
				"y": 3.236957739,
				"z": -0.1724660266,
				"element": "H" 
			},
			{
				"x": 3.9330757069,
				"y": 2.8559393472,
				"z": 1.5327931367,
				"element": "H" 
			},
			{
				"x": 1.5124305552,
				"y": 3.4043328176,
				"z": 0.4230486169,
				"element": "H" 
			},
			{
				"x": 1.6748110355,
				"y": 2.3016690915,
				"z": 1.7751405322,
				"element": "H" 
			},
			{
				"x": 1.6732008123,
				"y": 1.411692606,
				"z": -1.1515742788,
				"element": "H" 
			},
			{
				"x": 0.266067026,
				"y": 1.3633582325,
				"z": -0.11268266,
				"element": "H" 
			},
			{
				"x": 0.7776943999,
				"y": -0.3276476042,
				"z": -2.6428574183,
				"element": "H" 
			}
		],
		 "valence_orbital": [ 
			{
				"type": "occ",
				"energy": -0.29511,
				"method": "rhf"
			},
			{
				"type": "occ",
				"energy": -0.29086,
				"method": "rhf"
			},
			{
				"type": "occ",
				"energy": -0.28978,
				"method": "rhf"
			},
			{
				"type": "occ",
				"energy": -0.28057,
				"method": "rhf"
			},
			{
				"type": "occ",
				"energy": -0.24552,
				"method": "rhf"
			},
			{
				"type": "unocc",
				"energy": 0.01852,
				"method": "rhf"
			},
			{
				"type": "unocc",
				"energy": 0.02524,
				"method": "rhf"
			},
			{
				"type": "unocc",
				"energy": 0.05874,
				"method": "rhf"
			},
			{
				"type": "unocc",
				"energy": 0.07687,
				"method": "rhf"
			},
			{
				"type": "unocc",
				"energy": 0.08196,
				"method": "rhf"
			}
		],
		"cosmo_sigma_profile": { 
			"-0.025": 0.0,
			"-0.024": 0.0,
			"-0.023": 0.0,
			"-0.022": 0.0,
			"-0.021": 0.0,
			"-0.02": 0.0,
			"-0.019": 0.0,
			"-0.018": 0.0,
			"-0.017": 0.0,
			"-0.016": 0.00787325723103,
			"-0.015": 1.24698551375,
			"-0.014": 0.676589576287,
			"-0.013": 1.4045014429,
			"-0.012": 0.845836904227,
			"-0.011": 1.65272007844,
			"-0.01": 1.16579519301,
			"-0.009": 1.32739856299,
			"-0.008": 1.48693381732,
			"-0.007": 1.42727790282,
			"-0.006": 2.70479655142,
			"-0.005": 5.42774400391,
			"-0.004": 17.1900904958,
			"-0.003": 27.9298803166,
			"-0.002": 46.0617104451,
			"-0.001": 49.0109213403,
			"0.0": 50.836474021,
			"0.001": 32.9925677579,
			"0.002": 9.46208491688,
			"0.003": 7.46335255705,
			"0.004": 6.04125052113,
			"0.005": 5.37886203006,
			"0.006": 5.55017857695,
			"0.007": 3.75277275832,
			"0.008": 3.55336565496,
			"0.009": 4.29327856136,
			"0.01": 3.43389779508,
			"0.011": 4.61915641452,
			"0.012": 5.62367357798,
			"0.013": 3.06109067298,
			"0.014": 1.01898185982,
			"0.015": 0.0,
			"0.016": 0.0,
			"0.017": 0.0,
			"0.018": 0.0,
			"0.019": 0.0,
			"0.02": 0.0,
			"0.021": 0.0,
			"0.022": 0.0,
			"0.023": 0.0,
			"0.024": 0.0,
			"0.025": 0.0
		}
	}
}
