{
	 "smiles": "OC(=O)C1=CN(C2CCCCC2)C2=CC=CC=C2C1=O", 
	 "Tm": 511.15, 
	 "num_atms": 37, 
	 "gaussian": { 
		 "optdone": 1, 
		 "sigma_profile": "yes", 
		 "theory": "DFT", 
		 "functional": "B3LYP", 
		 "basiset": "6-31G**", 
		 "properties": { 
			 "R2extent": 6637.3924, 
			 "electric_dipole_moment_norm": 8.69701896054, 
			 "electric_quadrupole_moment_norm": 38.7827504659, 
			 "total_energy": -900.398981695, 
			 "HOMO_LUMO_gap": 0.17176, 
			 "cosmo_polarized_energy": -24.26, 
			 "cosmo_cavitation_energy": 38.07, 
			 "cosmo_dispersion_energy": -27.39, 
			 "cosmo_repulsion_energy": 2.07, 
			 "cosmo_total_nonelectrostatic_energy": 12.75, 
			 "SMD_solvation_energy": 6.99 
		},
		"coords": [
			{
				"x": -2.2419687651,
				"y": -0.157607085,
				"z": -3.5732916476,
				"element": "O" 
			},
			{
				"x": -3.2537647865,
				"y": -0.1861654693,
				"z": -2.6409231116,
				"element": "C" 
			},
			{
				"x": -4.4133321989,
				"y": -0.1287209986,
				"z": -2.984590419,
				"element": "O" 
			},
			{
				"x": -2.7381707621,
				"y": -0.2866185066,
				"z": -1.259830961,
				"element": "C" 
			},
			{
				"x": -1.3796185851,
				"y": -0.3252178133,
				"z": -1.0620140417,
				"element": "C" 
			},
			{
				"x": -0.7569286644,
				"y": -0.4170339027,
				"z": 0.1391273285,
				"element": "N" 
			},
			{
				"x": 0.7307906278,
				"y": -0.419037478,
				"z": 0.1907304068,
				"element": "C" 
			},
			{
				"x": 1.3956962935,
				"y": -1.2329471088,
				"z": -0.9583894275,
				"element": "C" 
			},
			{
				"x": 2.0548757405,
				"y": -0.3459161786,
				"z": -2.0254067698,
				"element": "C" 
			},
			{
				"x": 3.1536739404,
				"y": 0.5518373873,
				"z": -1.4128402465,
				"element": "C" 
			},
			{
				"x": 2.795727568,
				"y": 1.0292984103,
				"z": 0.0185981942,
				"element": "C" 
			},
			{
				"x": 1.2795155662,
				"y": 1.0229202756,
				"z": 0.2557224133,
				"element": "C" 
			},
			{
				"x": -1.528026468,
				"y": -0.4056418702,
				"z": 1.3178942211,
				"element": "C" 
			},
			{
				"x": -0.9430049588,
				"y": -0.4002025814,
				"z": 2.6010124736,
				"element": "C" 
			},
			{
				"x": -1.7443554076,
				"y": -0.4117032059,
				"z": 3.7351196883,
				"element": "C" 
			},
			{
				"x": -3.1410389559,
				"y": -0.4227234325,
				"z": 3.6290065819,
				"element": "C" 
			},
			{
				"x": -3.7212971427,
				"y": -0.4095483021,
				"z": 2.3708590535,
				"element": "C" 
			},
			{
				"x": -2.9377539734,
				"y": -0.3949602447,
				"z": 1.2069637097,
				"element": "C" 
			},
			{
				"x": -3.6442294913,
				"y": -0.3528654373,
				"z": -0.1077430782,
				"element": "C" 
			},
			{
				"x": -4.8704799611,
				"y": -0.3654413322,
				"z": -0.1667105515,
				"element": "O" 
			},
			{
				"x": -2.6996267702,
				"y": -0.0883982978,
				"z": -4.42630314,
				"element": "H" 
			},
			{
				"x": -0.7267552254,
				"y": -0.2872526188,
				"z": -1.9219220198,
				"element": "H" 
			},
			{
				"x": 0.9853673907,
				"y": -0.9328724951,
				"z": 1.1176664072,
				"element": "H" 
			},
			{
				"x": 2.1708851003,
				"y": -1.8647127851,
				"z": -0.5092899218,
				"element": "H" 
			},
			{
				"x": 0.6733167984,
				"y": -1.923900261,
				"z": -1.4029640111,
				"element": "H" 
			},
			{
				"x": 1.2975251545,
				"y": 0.2797625795,
				"z": -2.5130745241,
				"element": "H" 
			},
			{
				"x": 2.4776886289,
				"y": -0.9739587203,
				"z": -2.8165680015,
				"element": "H" 
			},
			{
				"x": 3.3152890656,
				"y": 1.4156857229,
				"z": -2.0670152694,
				"element": "H" 
			},
			{
				"x": 4.1038561307,
				"y": 0.0063083339,
				"z": -1.3860097731,
				"element": "H" 
			},
			{
				"x": 3.1991029342,
				"y": 2.0308003053,
				"z": 0.1987757434,
				"element": "H" 
			},
			{
				"x": 3.2704265369,
				"y": 0.3753502456,
				"z": 0.762172008,
				"element": "H" 
			},
			{
				"x": 0.7788748815,
				"y": 1.6309393764,
				"z": -0.5079906943,
				"element": "H" 
			},
			{
				"x": 1.0268298902,
				"y": 1.471228734,
				"z": 1.2222482539,
				"element": "H" 
			},
			{
				"x": 0.1314791284,
				"y": -0.3719617587,
				"z": 2.7275877586,
				"element": "H" 
			},
			{
				"x": -1.2717432447,
				"y": -0.4066061634,
				"z": 4.7130992258,
				"element": "H" 
			},
			{
				"x": -3.7584619784,
				"y": -0.43286395,
				"z": 4.5217547476,
				"element": "H" 
			},
			{
				"x": -4.7972640371,
				"y": -0.4058533731,
				"z": 2.2309393941,
				"element": "H" 
			}
		],
		 "valence_orbital": [ 
			{
				"type": "occ",
				"energy": -0.27061,
				"method": "rhf"
			},
			{
				"type": "occ",
				"energy": -0.26424,
				"method": "rhf"
			},
			{
				"type": "occ",
				"energy": -0.25773,
				"method": "rhf"
			},
			{
				"type": "occ",
				"energy": -0.22074,
				"method": "rhf"
			},
			{
				"type": "occ",
				"energy": -0.21838,
				"method": "rhf"
			},
			{
				"type": "unocc",
				"energy": -0.04662,
				"method": "rhf"
			},
			{
				"type": "unocc",
				"energy": -0.03734,
				"method": "rhf"
			},
			{
				"type": "unocc",
				"energy": 0.00742,
				"method": "rhf"
			},
			{
				"type": "unocc",
				"energy": 0.03961,
				"method": "rhf"
			},
			{
				"type": "unocc",
				"energy": 0.05316,
				"method": "rhf"
			}
		],
		"cosmo_sigma_profile": { 
			"-0.025": 0.0,
			"-0.024": 0.0,
			"-0.023": 0.0,
			"-0.022": 0.0,
			"-0.021": 0.0,
			"-0.02": 0.0,
			"-0.019": 0.0,
			"-0.018": 0.26087814883,
			"-0.017": 0.890624351344,
			"-0.016": 0.664489954066,
			"-0.015": 0.645499512052,
			"-0.014": 1.1376721887,
			"-0.013": 0.280492179012,
			"-0.012": 0.208302024688,
			"-0.011": 0.943337345219,
			"-0.01": 1.00867720959,
			"-0.009": 2.07639885247,
			"-0.008": 2.43011244699,
			"-0.007": 6.10381909905,
			"-0.006": 12.4905156977,
			"-0.005": 15.5855257233,
			"-0.004": 20.680630087,
			"-0.003": 27.6330217605,
			"-0.002": 37.9744701451,
			"-0.001": 40.5344055157,
			"0.0": 28.6099498369,
			"0.001": 19.4347434771,
			"0.002": 12.1930377281,
			"0.003": 14.9636518558,
			"0.004": 10.9614792621,
			"0.005": 3.44681574764,
			"0.006": 3.50894369776,
			"0.007": 3.7024930933,
			"0.008": 3.22285013712,
			"0.009": 1.6624681532,
			"0.01": 2.91124451106,
			"0.011": 3.05512724084,
			"0.012": 6.54527709146,
			"0.013": 4.54352139525,
			"0.014": 3.95770111334,
			"0.015": 2.24313626031,
			"0.016": 1.45544196078,
			"0.017": 1.36941754051,
			"0.018": 1.02462173416,
			"0.019": 0.384012058947,
			"0.02": 0.0,
			"0.021": 0.0,
			"0.022": 0.0,
			"0.023": 0.0,
			"0.024": 0.0,
			"0.025": 0.0
		}
	}
}
