{
	 "smiles": "CC(C)OC1=C(C=C(N)C=C1)C#N", 
	 "Tm": 313.15, 
	 "num_atms": 25, 
	 "gaussian": { 
		 "optdone": 1, 
		 "sigma_profile": "yes", 
		 "theory": "DFT", 
		 "functional": "B3LYP", 
		 "basiset": "6-31G**", 
		 "properties": { 
			 "R2extent": 3265.3208, 
			 "electric_dipole_moment_norm": 5.8971547258, 
			 "electric_quadrupole_moment_norm": 25.1327478428, 
			 "total_energy": -573.005223407, 
			 "HOMO_LUMO_gap": 0.16951, 
			 "cosmo_polarized_energy": -15.28, 
			 "cosmo_cavitation_energy": 28.88, 
			 "cosmo_dispersion_energy": -20.07, 
			 "cosmo_repulsion_energy": 1.6, 
			 "cosmo_total_nonelectrostatic_energy": 10.42, 
			 "SMD_solvation_energy": 6.23 
		},
		"coords": [
			{
				"x": 0.3532063746,
				"y": -1.0228822784,
				"z": 2.9780443373,
				"element": "C" 
			},
			{
				"x": -0.8768304105,
				"y": -0.588416741,
				"z": 2.1850235355,
				"element": "C" 
			},
			{
				"x": -1.4016897206,
				"y": -1.6854084032,
				"z": 1.2588657379,
				"element": "C" 
			},
			{
				"x": -0.6656047139,
				"y": 0.6685615326,
				"z": 1.478349934,
				"element": "O" 
			},
			{
				"x": 0.4050794687,
				"y": 0.8143472158,
				"z": 0.6367618644,
				"element": "C" 
			},
			{
				"x": 1.5076697224,
				"y": 1.5938433837,
				"z": 1.0461987489,
				"element": "C" 
			},
			{
				"x": 2.5789701173,
				"y": 1.8403000057,
				"z": 0.173335098,
				"element": "C" 
			},
			{
				"x": 2.5802063799,
				"y": 1.315874467,
				"z": -1.1250032616,
				"element": "C" 
			},
			{
				"x": 3.6167402865,
				"y": 1.6025598093,
				"z": -2.0137205091,
				"element": "N" 
			},
			{
				"x": 1.4707155688,
				"y": 0.5522675195,
				"z": -1.5321224263,
				"element": "C" 
			},
			{
				"x": 0.4050818776,
				"y": 0.3141301201,
				"z": -0.6699466431,
				"element": "C" 
			},
			{
				"x": 1.5393147861,
				"y": 2.1561274374,
				"z": 2.3641762543,
				"element": "C" 
			},
			{
				"x": 1.5982990642,
				"y": 2.6166333865,
				"z": 3.4310500748,
				"element": "N" 
			},
			{
				"x": 0.1088217644,
				"y": -1.9027776828,
				"z": 3.5819949114,
				"element": "H" 
			},
			{
				"x": 1.180395735,
				"y": -1.2935940676,
				"z": 2.3134389567,
				"element": "H" 
			},
			{
				"x": 0.6886787981,
				"y": -0.2271981709,
				"z": 3.6470730144,
				"element": "H" 
			},
			{
				"x": -1.6716328604,
				"y": -0.3136941828,
				"z": 2.8856846987,
				"element": "H" 
			},
			{
				"x": -1.7317581769,
				"y": -2.5440869908,
				"z": 1.8530539028,
				"element": "H" 
			},
			{
				"x": -2.2548869807,
				"y": -1.3247096195,
				"z": 0.6770106483,
				"element": "H" 
			},
			{
				"x": -0.6274275407,
				"y": -2.0373665737,
				"z": 0.5700138453,
				"element": "H" 
			},
			{
				"x": 3.408013825,
				"y": 2.4516853024,
				"z": 0.5164145748,
				"element": "H" 
			},
			{
				"x": 3.7397628191,
				"y": 0.9364373417,
				"z": -2.7634153464,
				"element": "H" 
			},
			{
				"x": 4.4963062371,
				"y": 1.8568029325,
				"z": -1.5862010119,
				"element": "H" 
			},
			{
				"x": 1.4381063264,
				"y": 0.1572019385,
				"z": -2.5443965886,
				"element": "H" 
			},
			{
				"x": -0.4541387477,
				"y": -0.2483376818,
				"z": -1.0163843503,
				"element": "H" 
			}
		],
		 "valence_orbital": [ 
			{
				"type": "occ",
				"energy": -0.31986,
				"method": "rhf"
			},
			{
				"type": "occ",
				"energy": -0.29765,
				"method": "rhf"
			},
			{
				"type": "occ",
				"energy": -0.27469,
				"method": "rhf"
			},
			{
				"type": "occ",
				"energy": -0.26003,
				"method": "rhf"
			},
			{
				"type": "occ",
				"energy": -0.21142,
				"method": "rhf"
			},
			{
				"type": "unocc",
				"energy": -0.04191,
				"method": "rhf"
			},
			{
				"type": "unocc",
				"energy": -0.00101,
				"method": "rhf"
			},
			{
				"type": "unocc",
				"energy": 0.04637,
				"method": "rhf"
			},
			{
				"type": "unocc",
				"energy": 0.06718,
				"method": "rhf"
			},
			{
				"type": "unocc",
				"energy": 0.0853,
				"method": "rhf"
			}
		],
		"cosmo_sigma_profile": { 
			"-0.025": 0.0,
			"-0.024": 0.0,
			"-0.023": 0.0,
			"-0.022": 0.0,
			"-0.021": 0.0,
			"-0.02": 0.0,
			"-0.019": 0.0,
			"-0.018": 0.0,
			"-0.017": 0.0,
			"-0.016": 0.0,
			"-0.015": 0.0,
			"-0.014": 0.0,
			"-0.013": 1.60464270922,
			"-0.012": 3.03408075727,
			"-0.011": 3.60459198525,
			"-0.01": 2.64440568902,
			"-0.009": 3.43606386388,
			"-0.008": 4.76114211092,
			"-0.007": 4.73751971853,
			"-0.006": 6.51016242381,
			"-0.005": 8.38810766149,
			"-0.004": 17.3451409057,
			"-0.003": 18.9165973528,
			"-0.002": 19.1401872933,
			"-0.001": 19.0563346277,
			"0.0": 23.3143545493,
			"0.001": 15.3172897964,
			"0.002": 11.4211549421,
			"0.003": 14.5058058785,
			"0.004": 9.22740261378,
			"0.005": 4.21980418473,
			"0.006": 5.6266244851,
			"0.007": 5.09717588275,
			"0.008": 5.02273164773,
			"0.009": 4.74789141329,
			"0.01": 4.98489869052,
			"0.011": 5.14481304107,
			"0.012": 3.49585675702,
			"0.013": 2.70849999976,
			"0.014": 0.621542853808,
			"0.015": 0.0314001171588,
			"0.016": 0.0,
			"0.017": 0.0,
			"0.018": 0.0,
			"0.019": 0.0,
			"0.02": 0.0,
			"0.021": 0.0,
			"0.022": 0.0,
			"0.023": 0.0,
			"0.024": 0.0,
			"0.025": 0.0
		}
	}
}
