{
	 "smiles": "OCC1OC(OCC2OC(OC(C#N)C3=CC=CC=C3)C(O)C(O)C2O)C(O)C(O)C1O", 
	 "Tm": 497.15, 
	 "num_atms": 59, 
	 "gaussian": { 
		 "optdone": 1, 
		 "sigma_profile": "yes", 
		 "theory": "DFT", 
		 "functional": "B3LYP", 
		 "basiset": "6-31G**", 
		 "properties": { 
			 "R2extent": 13506.946, 
			 "electric_dipole_moment_norm": 8.54930645257, 
			 "electric_quadrupole_moment_norm": 29.0669616931, 
			 "total_energy": -1660.51114906, 
			 "HOMO_LUMO_gap": 0.21198, 
			 "cosmo_polarized_energy": -37.95, 
			 "cosmo_cavitation_energy": 58.57, 
			 "cosmo_dispersion_energy": -37.16, 
			 "cosmo_repulsion_energy": 2.78, 
			 "cosmo_total_nonelectrostatic_energy": 24.18, 
			 "SMD_solvation_energy": 9.43 
		},
		"coords": [
			{
				"x": -3.1503456842,
				"y": 1.0076130023,
				"z": -2.9020194505,
				"element": "O" 
			},
			{
				"x": -2.5080640501,
				"y": 2.1555373311,
				"z": -2.3643792409,
				"element": "C" 
			},
			{
				"x": -1.8981606682,
				"y": 1.8645757947,
				"z": -0.9987093334,
				"element": "C" 
			},
			{
				"x": -3.0116752437,
				"y": 1.3623359864,
				"z": -0.1940916364,
				"element": "O" 
			},
			{
				"x": -2.6742890411,
				"y": 0.9979342741,
				"z": 1.113420983,
				"element": "C" 
			},
			{
				"x": -1.7217980044,
				"y": -0.0509745134,
				"z": 1.1801426884,
				"element": "O" 
			},
			{
				"x": -2.0691143035,
				"y": -1.2818981634,
				"z": 0.5425523808,
				"element": "C" 
			},
			{
				"x": -0.7683779259,
				"y": -1.953905259,
				"z": 0.1434141159,
				"element": "C" 
			},
			{
				"x": -0.2951864396,
				"y": -1.2565485916,
				"z": -1.0192043435,
				"element": "O" 
			},
			{
				"x": 1.0217319977,
				"y": -1.5663453238,
				"z": -1.3955005665,
				"element": "C" 
			},
			{
				"x": 1.9326116037,
				"y": -1.1056598986,
				"z": -0.4037482276,
				"element": "O" 
			},
			{
				"x": 2.9913852576,
				"y": -0.2668415212,
				"z": -0.87767883,
				"element": "C" 
			},
			{
				"x": 2.4457804082,
				"y": 0.9696452246,
				"z": -1.4931906781,
				"element": "C" 
			},
			{
				"x": 2.0016499424,
				"y": 1.9096536585,
				"z": -2.0094810554,
				"element": "N" 
			},
			{
				"x": 3.9212856234,
				"y": 0.0367591365,
				"z": 0.2801930154,
				"element": "C" 
			},
			{
				"x": 3.5223475412,
				"y": 0.900503697,
				"z": 1.3086121697,
				"element": "C" 
			},
			{
				"x": 4.3792372134,
				"y": 1.1340229638,
				"z": 2.3835810407,
				"element": "C" 
			},
			{
				"x": 5.6306930496,
				"y": 0.5145707207,
				"z": 2.4380725771,
				"element": "C" 
			},
			{
				"x": 6.0282053334,
				"y": -0.3445462271,
				"z": 1.4128115744,
				"element": "C" 
			},
			{
				"x": 5.1733004883,
				"y": -0.5831005841,
				"z": 0.3357433224,
				"element": "C" 
			},
			{
				"x": 1.1989253719,
				"y": -3.0831929578,
				"z": -1.6481397836,
				"element": "C" 
			},
			{
				"x": 2.5651676024,
				"y": -3.4121086633,
				"z": -1.7819600706,
				"element": "O" 
			},
			{
				"x": 0.520455749,
				"y": -3.9612003989,
				"z": -0.5839712409,
				"element": "C" 
			},
			{
				"x": 1.3668224045,
				"y": -3.9550324221,
				"z": 0.5577841434,
				"element": "O" 
			},
			{
				"x": -0.875751874,
				"y": -3.4433445653,
				"z": -0.2041533022,
				"element": "C" 
			},
			{
				"x": -1.2897425587,
				"y": -4.2175796104,
				"z": 0.9255372211,
				"element": "O" 
			},
			{
				"x": -2.0501990812,
				"y": 2.1678140415,
				"z": 1.9009227171,
				"element": "C" 
			},
			{
				"x": -3.0034031919,
				"y": 3.2201668375,
				"z": 2.056124165,
				"element": "O" 
			},
			{
				"x": -0.8479396928,
				"y": 2.7550307084,
				"z": 1.1304505594,
				"element": "C" 
			},
			{
				"x": 0.271594874,
				"y": 1.8887954171,
				"z": 1.2149759985,
				"element": "O" 
			},
			{
				"x": -1.2485410099,
				"y": 3.0829771232,
				"z": -0.3307531926,
				"element": "C" 
			},
			{
				"x": -2.0755849606,
				"y": 4.2376749122,
				"z": -0.3772210867,
				"element": "O" 
			},
			{
				"x": -3.7982291399,
				"y": 0.7415803872,
				"z": -2.2356625739,
				"element": "H" 
			},
			{
				"x": -1.709497967,
				"y": 2.4342143419,
				"z": -3.0585438338,
				"element": "H" 
			},
			{
				"x": -3.195511104,
				"y": 3.0067129311,
				"z": -2.2766843929,
				"element": "H" 
			},
			{
				"x": -1.1620002544,
				"y": 1.0607938596,
				"z": -1.1012481382,
				"element": "H" 
			},
			{
				"x": -3.624294535,
				"y": 0.677234063,
				"z": 1.5733880641,
				"element": "H" 
			},
			{
				"x": -2.6788823982,
				"y": -1.093111362,
				"z": -0.3477408183,
				"element": "H" 
			},
			{
				"x": -2.6235938658,
				"y": -1.9159303737,
				"z": 1.2481596686,
				"element": "H" 
			},
			{
				"x": -0.0529521228,
				"y": -1.8474963384,
				"z": 0.9667777688,
				"element": "H" 
			},
			{
				"x": 1.1842462885,
				"y": -1.0241212172,
				"z": -2.3325534594,
				"element": "H" 
			},
			{
				"x": 3.5495680211,
				"y": -0.7958014606,
				"z": -1.6615864841,
				"element": "H" 
			},
			{
				"x": 2.5519659906,
				"y": 1.388757099,
				"z": 1.2675997023,
				"element": "H" 
			},
			{
				"x": 4.0695440702,
				"y": 1.8054941591,
				"z": 3.1790272128,
				"element": "H" 
			},
			{
				"x": 6.2953996027,
				"y": 0.7041607911,
				"z": 3.2761358693,
				"element": "H" 
			},
			{
				"x": 7.0008083095,
				"y": -0.8264853868,
				"z": 1.4486035936,
				"element": "H" 
			},
			{
				"x": 5.4809356188,
				"y": -1.2522185345,
				"z": -0.4640853725,
				"element": "H" 
			},
			{
				"x": 0.7193308428,
				"y": -3.2955985322,
				"z": -2.6107995247,
				"element": "H" 
			},
			{
				"x": 2.8986004113,
				"y": -3.4727751084,
				"z": -0.872480091,
				"element": "H" 
			},
			{
				"x": 0.4260301527,
				"y": -4.9847146488,
				"z": -0.9772448652,
				"element": "H" 
			},
			{
				"x": 0.9104582212,
				"y": -4.4545196388,
				"z": 1.2497573574,
				"element": "H" 
			},
			{
				"x": -1.5587566568,
				"y": -3.5738622833,
				"z": -1.0552189853,
				"element": "H" 
			},
			{
				"x": -2.2414407642,
				"y": -4.3615357657,
				"z": 0.8856399604,
				"element": "H" 
			},
			{
				"x": -1.7053566767,
				"y": 1.7954650372,
				"z": 2.874554984,
				"element": "H" 
			},
			{
				"x": -3.8130116654,
				"y": 2.8612044469,
				"z": 2.4428787541,
				"element": "H" 
			},
			{
				"x": -0.5619922914,
				"y": 3.6952400061,
				"z": 1.6116916661,
				"element": "H" 
			},
			{
				"x": -0.028123411,
				"y": 0.99104146,
				"z": 1.0010432941,
				"element": "H" 
			},
			{
				"x": -0.3324414493,
				"y": 3.319939931,
				"z": -0.8822044459,
				"element": "H" 
			},
			{
				"x": -2.7610239585,
				"y": 4.1141000071,
				"z": 0.2989584558,
				"element": "H" 
			}
		],
		 "valence_orbital": [ 
			{
				"type": "occ",
				"energy": -0.26269,
				"method": "rhf"
			},
			{
				"type": "occ",
				"energy": -0.25674,
				"method": "rhf"
			},
			{
				"type": "occ",
				"energy": -0.25493,
				"method": "rhf"
			},
			{
				"type": "occ",
				"energy": -0.2519,
				"method": "rhf"
			},
			{
				"type": "occ",
				"energy": -0.23392,
				"method": "rhf"
			},
			{
				"type": "unocc",
				"energy": -0.02194,
				"method": "rhf"
			},
			{
				"type": "unocc",
				"energy": -0.00577,
				"method": "rhf"
			},
			{
				"type": "unocc",
				"energy": 0.02602,
				"method": "rhf"
			},
			{
				"type": "unocc",
				"energy": 0.03023,
				"method": "rhf"
			},
			{
				"type": "unocc",
				"energy": 0.03648,
				"method": "rhf"
			}
		],
		"cosmo_sigma_profile": { 
			"-0.025": 0.0,
			"-0.024": 0.0,
			"-0.023": 0.0,
			"-0.022": 0.0,
			"-0.021": 0.0,
			"-0.02": 0.0,
			"-0.019": 0.0,
			"-0.018": 0.000387528250831,
			"-0.017": 1.97256309968,
			"-0.016": 1.52853582126,
			"-0.015": 2.47932454112,
			"-0.014": 2.81466227782,
			"-0.013": 2.98803073586,
			"-0.012": 3.6495406998,
			"-0.011": 2.92827076171,
			"-0.01": 4.14979942594,
			"-0.009": 8.17861909996,
			"-0.008": 9.24395229979,
			"-0.007": 16.2853386525,
			"-0.006": 27.3764582665,
			"-0.005": 29.6583844643,
			"-0.004": 28.4811803351,
			"-0.003": 26.9165161218,
			"-0.002": 26.3106792242,
			"-0.001": 28.3218829314,
			"0.0": 25.9355450125,
			"0.001": 28.0136635822,
			"0.002": 25.0647715426,
			"0.003": 24.6694457049,
			"0.004": 24.4727495769,
			"0.005": 20.3972124185,
			"0.006": 14.5414204679,
			"0.007": 14.5863232396,
			"0.008": 13.0746108361,
			"0.009": 11.5312277229,
			"0.01": 7.82321873061,
			"0.011": 7.0130172651,
			"0.012": 6.72093984413,
			"0.013": 5.21154946113,
			"0.014": 4.92386757397,
			"0.015": 0.970796559063,
			"0.016": 0.0,
			"0.017": 0.0,
			"0.018": 0.0,
			"0.019": 0.0,
			"0.02": 0.0,
			"0.021": 0.0,
			"0.022": 0.0,
			"0.023": 0.0,
			"0.024": 0.0,
			"0.025": 0.0
		}
	}
}
