{
	 "smiles": "COC1=C(NC(=O)CCl)C=C(C=C1)S(=O)(=O)N1CCCCCC1", 
	 "Tm": 379.15, 
	 "num_atms": 44, 
	 "gaussian": { 
		 "optdone": 1, 
		 "sigma_profile": "yes", 
		 "theory": "DFT", 
		 "functional": "B3LYP", 
		 "basiset": "6-31G**", 
		 "properties": { 
			 "R2extent": 11406.4895, 
			 "electric_dipole_moment_norm": 4.76546229132, 
			 "electric_quadrupole_moment_norm": 29.0688634804, 
			 "total_energy": -1852.9633703, 
			 "HOMO_LUMO_gap": 0.20039, 
			 "cosmo_polarized_energy": -22.32, 
			 "cosmo_cavitation_energy": 48.06, 
			 "cosmo_dispersion_energy": -33.62, 
			 "cosmo_repulsion_energy": 2.58, 
			 "cosmo_total_nonelectrostatic_energy": 17.02, 
			 "SMD_solvation_energy": 7.52 
		},
		"coords": [
			{
				"x": 3.9434865544,
				"y": 0.7900942902,
				"z": 3.0940895723,
				"element": "C" 
			},
			{
				"x": 3.7393341968,
				"y": 0.6350165159,
				"z": 1.6952088289,
				"element": "O" 
			},
			{
				"x": 2.6097702023,
				"y": 0.0325912714,
				"z": 1.2648058363,
				"element": "C" 
			},
			{
				"x": 2.4154821431,
				"y": -0.0053035676,
				"z": -0.1369803741,
				"element": "C" 
			},
			{
				"x": 3.3688802422,
				"y": 0.5858248497,
				"z": -1.0079935663,
				"element": "N" 
			},
			{
				"x": 3.6672257457,
				"y": 1.9167830347,
				"z": -1.0008902302,
				"element": "C" 
			},
			{
				"x": 3.1617287444,
				"y": 2.7477545238,
				"z": -0.2649890053,
				"element": "O" 
			},
			{
				"x": 4.7382685417,
				"y": 2.4023387515,
				"z": -1.9823480618,
				"element": "C" 
			},
			{
				"x": 5.3503569223,
				"y": 1.198175437,
				"z": -3.1980859122,
				"element": "Cl" 
			},
			{
				"x": 1.3113221924,
				"y": -0.6659549756,
				"z": -0.6645340015,
				"element": "C" 
			},
			{
				"x": 0.3863586059,
				"y": -1.2811197051,
				"z": 0.1848558105,
				"element": "C" 
			},
			{
				"x": 0.5588217658,
				"y": -1.2297913634,
				"z": 1.5675239231,
				"element": "C" 
			},
			{
				"x": 1.6640633936,
				"y": -0.5721980075,
				"z": 2.1046168715,
				"element": "C" 
			},
			{
				"x": -1.0558091928,
				"y": -2.0897994546,
				"z": -0.5127292425,
				"element": "S" 
			},
			{
				"x": -0.7092747086,
				"y": -2.4656745793,
				"z": -1.8862560726,
				"element": "O" 
			},
			{
				"x": -1.5144141547,
				"y": -3.0753547756,
				"z": 0.470611612,
				"element": "O" 
			},
			{
				"x": -2.2670495853,
				"y": -0.9303941098,
				"z": -0.636311761,
				"element": "N" 
			},
			{
				"x": -2.981131598,
				"y": -0.5374468867,
				"z": 0.5887736675,
				"element": "C" 
			},
			{
				"x": -4.5314226277,
				"y": -0.4998257181,
				"z": 0.3941564555,
				"element": "C" 
			},
			{
				"x": -4.9967928646,
				"y": -0.8355628944,
				"z": -1.0303937524,
				"element": "C" 
			},
			{
				"x": -4.6499040437,
				"y": 0.2412365446,
				"z": -2.0832762651,
				"element": "C" 
			},
			{
				"x": -3.3249325638,
				"y": 0.9807015327,
				"z": -1.8365389995,
				"element": "C" 
			},
			{
				"x": -2.0856927375,
				"y": 0.0923539004,
				"z": -1.6866077159,
				"element": "C" 
			},
			{
				"x": 4.0330473574,
				"y": -0.1799742537,
				"z": 3.5984432597,
				"element": "H" 
			},
			{
				"x": 4.8806225283,
				"y": 1.3375673952,
				"z": 3.1976480729,
				"element": "H" 
			},
			{
				"x": 3.1330626914,
				"y": 1.3682341805,
				"z": 3.5529625731,
				"element": "H" 
			},
			{
				"x": 3.7843606237,
				"y": 0.0115459971,
				"z": -1.7297026669,
				"element": "H" 
			},
			{
				"x": 4.3311630563,
				"y": 3.2454319155,
				"z": -2.5394381254,
				"element": "H" 
			},
			{
				"x": 5.6016372897,
				"y": 2.7409038694,
				"z": -1.4081485408,
				"element": "H" 
			},
			{
				"x": 1.1791091426,
				"y": -0.7189365391,
				"z": -1.7397721767,
				"element": "H" 
			},
			{
				"x": -0.1491040727,
				"y": -1.7303599523,
				"z": 2.2186454656,
				"element": "H" 
			},
			{
				"x": 1.8003487721,
				"y": -0.5580057447,
				"z": 3.1789093344,
				"element": "H" 
			},
			{
				"x": -2.6095939821,
				"y": 0.4337717696,
				"z": 0.944177239,
				"element": "H" 
			},
			{
				"x": -2.7368965766,
				"y": -1.2782205297,
				"z": 1.3495649703,
				"element": "H" 
			},
			{
				"x": -4.9089920062,
				"y": 0.4871567553,
				"z": 0.6888496575,
				"element": "H" 
			},
			{
				"x": -4.9848775059,
				"y": -1.2189691886,
				"z": 1.0846838723,
				"element": "H" 
			},
			{
				"x": -4.5532091872,
				"y": -1.7921656226,
				"z": -1.3203228019,
				"element": "H" 
			},
			{
				"x": -6.0827675645,
				"y": -0.9862617213,
				"z": -1.0195016275,
				"element": "H" 
			},
			{
				"x": -5.4451124999,
				"y": 0.9972759733,
				"z": -2.1087821527,
				"element": "H" 
			},
			{
				"x": -4.6363148934,
				"y": -0.2203042076,
				"z": -3.0783350194,
				"element": "H" 
			},
			{
				"x": -3.4230535984,
				"y": 1.6168958089,
				"z": -0.9488007931,
				"element": "H" 
			},
			{
				"x": -3.12788511,
				"y": 1.6676903316,
				"z": -2.6684176173,
				"element": "H" 
			},
			{
				"x": -1.8792753219,
				"y": -0.4349486994,
				"z": -2.6203815906,
				"element": "H" 
			},
			{
				"x": -1.2189443167,
				"y": 0.7356278486,
				"z": -1.4612889496,
				"element": "H" 
			}
		],
		 "valence_orbital": [ 
			{
				"type": "occ",
				"energy": -0.29204,
				"method": "rhf"
			},
			{
				"type": "occ",
				"energy": -0.26537,
				"method": "rhf"
			},
			{
				"type": "occ",
				"energy": -0.2635,
				"method": "rhf"
			},
			{
				"type": "occ",
				"energy": -0.2519,
				"method": "rhf"
			},
			{
				"type": "occ",
				"energy": -0.23263,
				"method": "rhf"
			},
			{
				"type": "unocc",
				"energy": -0.03224,
				"method": "rhf"
			},
			{
				"type": "unocc",
				"energy": -0.02638,
				"method": "rhf"
			},
			{
				"type": "unocc",
				"energy": 0.00898,
				"method": "rhf"
			},
			{
				"type": "unocc",
				"energy": 0.01766,
				"method": "rhf"
			},
			{
				"type": "unocc",
				"energy": 0.05704,
				"method": "rhf"
			}
		],
		"cosmo_sigma_profile": { 
			"-0.025": 0.0,
			"-0.024": 0.0,
			"-0.023": 0.0,
			"-0.022": 0.0,
			"-0.021": 0.0,
			"-0.02": 0.0,
			"-0.019": 0.0,
			"-0.018": 0.0,
			"-0.017": 0.0,
			"-0.016": 0.0,
			"-0.015": 0.0,
			"-0.014": 0.438836826489,
			"-0.013": 0.594339551821,
			"-0.012": 1.04295816486,
			"-0.011": 0.499851776517,
			"-0.01": 1.3512019446,
			"-0.009": 5.23239018205,
			"-0.008": 6.5197919232,
			"-0.007": 12.1430309214,
			"-0.006": 16.4026153625,
			"-0.005": 20.2927144875,
			"-0.004": 32.0618591187,
			"-0.003": 37.831649737,
			"-0.002": 38.0804233718,
			"-0.001": 34.7114648061,
			"0.0": 31.4040871317,
			"0.001": 24.6120836631,
			"0.002": 20.1205717767,
			"0.003": 14.5297686286,
			"0.004": 10.1556131285,
			"0.005": 13.1535676984,
			"0.006": 8.56664213002,
			"0.007": 6.54716508595,
			"0.008": 5.1413478595,
			"0.009": 5.53572055297,
			"0.01": 7.39144772738,
			"0.011": 10.4174676445,
			"0.012": 9.64029762158,
			"0.013": 5.33744968338,
			"0.014": 0.494774990206,
			"0.015": 0.0,
			"0.016": 0.0,
			"0.017": 0.0,
			"0.018": 0.0,
			"0.019": 0.0,
			"0.02": 0.0,
			"0.021": 0.0,
			"0.022": 0.0,
			"0.023": 0.0,
			"0.024": 0.0,
			"0.025": 0.0
		}
	}
}
