{
	 "smiles": "CCCCCCCC(=O)OCC(COC(=O)CCCCCCC)OC(=O)CCCCCCC", 
	 "Tm": 283.15, 
	 "num_atms": 83, 
	 "gaussian": { 
		 "optdone": 1, 
		 "sigma_profile": "yes", 
		 "theory": "DFT", 
		 "functional": "B3LYP", 
		 "basiset": "6-31G**", 
		 "properties": { 
			 "R2extent": 24119.0999, 
			 "electric_dipole_moment_norm": 2.06818247502, 
			 "electric_quadrupole_moment_norm": 17.9916003438, 
			 "total_energy": -1510.44836259, 
			 "HOMO_LUMO_gap": 0.27069, 
			 "cosmo_polarized_energy": -13.75, 
			 "cosmo_cavitation_energy": 79.73, 
			 "cosmo_dispersion_energy": -48.65, 
			 "cosmo_repulsion_energy": 3.87, 
			 "cosmo_total_nonelectrostatic_energy": 34.95, 
			 "SMD_solvation_energy": 12.61 
		},
		"coords": [
			{
				"x": -6.3705203011,
				"y": -5.5612770793,
				"z": -0.6070254867,
				"element": "C" 
			},
			{
				"x": -4.8459546923,
				"y": -5.4073568189,
				"z": -0.6393471757,
				"element": "C" 
			},
			{
				"x": -4.1552029293,
				"y": -6.1572875879,
				"z": 0.5087972978,
				"element": "C" 
			},
			{
				"x": -2.6392355966,
				"y": -5.9317260099,
				"z": 0.6592149112,
				"element": "C" 
			},
			{
				"x": -1.7698835822,
				"y": -6.3984935473,
				"z": -0.5301765624,
				"element": "C" 
			},
			{
				"x": -1.5032163694,
				"y": -5.3853192627,
				"z": -1.6621764866,
				"element": "C" 
			},
			{
				"x": -0.5553606022,
				"y": -4.2333259169,
				"z": -1.2904470159,
				"element": "C" 
			},
			{
				"x": -1.2195247655,
				"y": -3.0366969831,
				"z": -0.6421463613,
				"element": "C" 
			},
			{
				"x": -2.3928145417,
				"y": -2.7364679906,
				"z": -0.7248008109,
				"element": "O" 
			},
			{
				"x": -0.3013009542,
				"y": -2.2824069537,
				"z": 0.0157725682,
				"element": "O" 
			},
			{
				"x": -0.7592745624,
				"y": -1.0737364272,
				"z": 0.6460532428,
				"element": "C" 
			},
			{
				"x": -0.4852743239,
				"y": 0.1380425789,
				"z": -0.2495138102,
				"element": "C" 
			},
			{
				"x": -1.463085724,
				"y": 0.2746736397,
				"z": -1.4125686698,
				"element": "C" 
			},
			{
				"x": -1.1255085442,
				"y": 1.4127456307,
				"z": -2.2241427263,
				"element": "O" 
			},
			{
				"x": -0.1889756066,
				"y": 1.2029732929,
				"z": -3.1891030663,
				"element": "C" 
			},
			{
				"x": 0.3042390005,
				"y": 0.1173839295,
				"z": -3.4076901986,
				"element": "O" 
			},
			{
				"x": 0.09273843,
				"y": 2.4883727229,
				"z": -3.9393489903,
				"element": "C" 
			},
			{
				"x": 1.1825819379,
				"y": 2.37007188,
				"z": -5.0169364775,
				"element": "C" 
			},
			{
				"x": 2.6124217354,
				"y": 2.6845529954,
				"z": -4.5438816557,
				"element": "C" 
			},
			{
				"x": 3.1744931166,
				"y": 1.7665255898,
				"z": -3.4488802879,
				"element": "C" 
			},
			{
				"x": 4.6583300168,
				"y": 2.0420985532,
				"z": -3.1627882929,
				"element": "C" 
			},
			{
				"x": 5.2742808206,
				"y": 1.1547032494,
				"z": -2.0677751222,
				"element": "C" 
			},
			{
				"x": 4.7804975871,
				"y": 1.4658507479,
				"z": -0.649372371,
				"element": "C" 
			},
			{
				"x": -0.6321147332,
				"y": 1.2931608738,
				"z": 0.6111884578,
				"element": "O" 
			},
			{
				"x": 0.2537255413,
				"y": 2.3127904871,
				"z": 0.4661474488,
				"element": "C" 
			},
			{
				"x": 1.2022680067,
				"y": 2.2869341585,
				"z": -0.288755235,
				"element": "O" 
			},
			{
				"x": -0.1261917231,
				"y": 3.4802232932,
				"z": 1.3553153822,
				"element": "C" 
			},
			{
				"x": 1.0648830526,
				"y": 4.3901068341,
				"z": 1.6881338422,
				"element": "C" 
			},
			{
				"x": 2.1516295792,
				"y": 3.7731934465,
				"z": 2.5940831108,
				"element": "C" 
			},
			{
				"x": 1.9228565565,
				"y": 3.8848298455,
				"z": 4.1140929472,
				"element": "C" 
			},
			{
				"x": 0.7487860601,
				"y": 3.0955351031,
				"z": 4.7233831811,
				"element": "C" 
			},
			{
				"x": 0.7899548567,
				"y": 1.5690307261,
				"z": 4.5312804895,
				"element": "C" 
			},
			{
				"x": 2.0118552524,
				"y": 0.8864717949,
				"z": 5.1576890329,
				"element": "C" 
			},
			{
				"x": -6.6663987982,
				"y": -6.6151587645,
				"z": -0.6714462485,
				"element": "H" 
			},
			{
				"x": -6.789451259,
				"y": -5.1593484698,
				"z": 0.3229519912,
				"element": "H" 
			},
			{
				"x": -6.8447631236,
				"y": -5.0322083243,
				"z": -1.4403120005,
				"element": "H" 
			},
			{
				"x": -4.4719382412,
				"y": -5.7788170806,
				"z": -1.6018616719,
				"element": "H" 
			},
			{
				"x": -4.5753234329,
				"y": -4.3455905892,
				"z": -0.5974054067,
				"element": "H" 
			},
			{
				"x": -4.6360108833,
				"y": -5.8667456157,
				"z": 1.4536645734,
				"element": "H" 
			},
			{
				"x": -4.3442453833,
				"y": -7.2354306381,
				"z": 0.3974598673,
				"element": "H" 
			},
			{
				"x": -2.4541746153,
				"y": -4.8731220441,
				"z": 0.874642469,
				"element": "H" 
			},
			{
				"x": -2.3152369364,
				"y": -6.4790297682,
				"z": 1.5536160305,
				"element": "H" 
			},
			{
				"x": -2.2297447902,
				"y": -7.2943255513,
				"z": -0.9692224063,
				"element": "H" 
			},
			{
				"x": -0.7939272875,
				"y": -6.7285975629,
				"z": -0.1484397923,
				"element": "H" 
			},
			{
				"x": -1.0464255539,
				"y": -5.9301786908,
				"z": -2.4966501071,
				"element": "H" 
			},
			{
				"x": -2.4368943476,
				"y": -4.9606503156,
				"z": -2.0407733669,
				"element": "H" 
			},
			{
				"x": 0.2674934926,
				"y": -4.5689762181,
				"z": -0.6503675713,
				"element": "H" 
			},
			{
				"x": -0.0797204812,
				"y": -3.8332934609,
				"z": -2.1967394547,
				"element": "H" 
			},
			{
				"x": -1.8197438004,
				"y": -1.1602127403,
				"z": 0.8936821242,
				"element": "H" 
			},
			{
				"x": -0.1732617161,
				"y": -0.973598475,
				"z": 1.5616726042,
				"element": "H" 
			},
			{
				"x": 0.53918521,
				"y": 0.0977421113,
				"z": -0.6248385557,
				"element": "H" 
			},
			{
				"x": -2.4709716658,
				"y": 0.4664941679,
				"z": -1.0387316611,
				"element": "H" 
			},
			{
				"x": -1.4635509071,
				"y": -0.6300146877,
				"z": -2.0206344343,
				"element": "H" 
			},
			{
				"x": -0.8628430169,
				"y": 2.7995841144,
				"z": -4.3802270255,
				"element": "H" 
			},
			{
				"x": 0.3360588985,
				"y": 3.2569332895,
				"z": -3.1957293866,
				"element": "H" 
			},
			{
				"x": 1.146896085,
				"y": 1.3596799347,
				"z": -5.4391135508,
				"element": "H" 
			},
			{
				"x": 0.9338542108,
				"y": 3.0603616473,
				"z": -5.8315581605,
				"element": "H" 
			},
			{
				"x": 2.6515343073,
				"y": 3.7268139393,
				"z": -4.1938761415,
				"element": "H" 
			},
			{
				"x": 3.2734544525,
				"y": 2.639271085,
				"z": -5.4206384392,
				"element": "H" 
			},
			{
				"x": 2.5903844845,
				"y": 1.8872641659,
				"z": -2.5296779111,
				"element": "H" 
			},
			{
				"x": 3.0510659769,
				"y": 0.7190731603,
				"z": -3.7533806246,
				"element": "H" 
			},
			{
				"x": 5.2261400052,
				"y": 1.9030815927,
				"z": -4.0935603273,
				"element": "H" 
			},
			{
				"x": 4.7889338845,
				"y": 3.0986265606,
				"z": -2.8850543376,
				"element": "H" 
			},
			{
				"x": 6.3662521875,
				"y": 1.2662697463,
				"z": -2.0952743585,
				"element": "H" 
			},
			{
				"x": 5.0723703459,
				"y": 0.1009035338,
				"z": -2.3050887886,
				"element": "H" 
			},
			{
				"x": 5.2556230651,
				"y": 0.8062473921,
				"z": 0.0853552223,
				"element": "H" 
			},
			{
				"x": 3.6971621092,
				"y": 1.349128676,
				"z": -0.5537188926,
				"element": "H" 
			},
			{
				"x": 5.022056143,
				"y": 2.4987132477,
				"z": -0.3710372739,
				"element": "H" 
			},
			{
				"x": -0.8850767501,
				"y": 4.0475017078,
				"z": 0.7983341578,
				"element": "H" 
			},
			{
				"x": -0.6323595025,
				"y": 3.0948331774,
				"z": 2.2429996171,
				"element": "H" 
			},
			{
				"x": 0.6835727256,
				"y": 5.3106212168,
				"z": 2.1479643658,
				"element": "H" 
			},
			{
				"x": 1.5240952574,
				"y": 4.6816707736,
				"z": 0.7381713373,
				"element": "H" 
			},
			{
				"x": 3.0959414763,
				"y": 4.2861002791,
				"z": 2.3750095694,
				"element": "H" 
			},
			{
				"x": 2.3208409117,
				"y": 2.7287708687,
				"z": 2.3041222303,
				"element": "H" 
			},
			{
				"x": 1.7879352973,
				"y": 4.9458865144,
				"z": 4.3658574086,
				"element": "H" 
			},
			{
				"x": 2.8496678877,
				"y": 3.5807557319,
				"z": 4.6171128444,
				"element": "H" 
			},
			{
				"x": 0.7240757416,
				"y": 3.3079474233,
				"z": 5.801291675,
				"element": "H" 
			},
			{
				"x": -0.2004709413,
				"y": 3.4805976512,
				"z": 4.3295591349,
				"element": "H" 
			},
			{
				"x": -0.1211105352,
				"y": 1.1438458189,
				"z": 4.9718492909,
				"element": "H" 
			},
			{
				"x": 0.744359025,
				"y": 1.3228455026,
				"z": 3.4623544669,
				"element": "H" 
			},
			{
				"x": 2.0858001601,
				"y": 1.114787098,
				"z": 6.22744217,
				"element": "H" 
			},
			{
				"x": 1.9508679033,
				"y": -0.201981446,
				"z": 5.054892505,
				"element": "H" 
			},
			{
				"x": 2.9465207259,
				"y": 1.2071515189,
				"z": 4.686377131,
				"element": "H" 
			}
		],
		 "valence_orbital": [ 
			{
				"type": "occ",
				"energy": -0.2928,
				"method": "rhf"
			},
			{
				"type": "occ",
				"energy": -0.29018,
				"method": "rhf"
			},
			{
				"type": "occ",
				"energy": -0.28206,
				"method": "rhf"
			},
			{
				"type": "occ",
				"energy": -0.2783,
				"method": "rhf"
			},
			{
				"type": "occ",
				"energy": -0.27053,
				"method": "rhf"
			},
			{
				"type": "unocc",
				"energy": 0.00016,
				"method": "rhf"
			},
			{
				"type": "unocc",
				"energy": 0.00315,
				"method": "rhf"
			},
			{
				"type": "unocc",
				"energy": 0.01546,
				"method": "rhf"
			},
			{
				"type": "unocc",
				"energy": 0.06597,
				"method": "rhf"
			},
			{
				"type": "unocc",
				"energy": 0.07869,
				"method": "rhf"
			}
		],
		"cosmo_sigma_profile": { 
			"-0.025": 0.0,
			"-0.024": 0.0,
			"-0.023": 0.0,
			"-0.022": 0.0,
			"-0.021": 0.0,
			"-0.02": 0.0,
			"-0.019": 0.0,
			"-0.018": 0.0,
			"-0.017": 0.0,
			"-0.016": 0.0,
			"-0.015": 0.0,
			"-0.014": 0.0,
			"-0.013": 0.0,
			"-0.012": 0.0,
			"-0.011": 0.0,
			"-0.01": 0.0,
			"-0.009": 0.0,
			"-0.008": 0.00252181357385,
			"-0.007": 2.91273551644,
			"-0.006": 13.2421615658,
			"-0.005": 17.8775440552,
			"-0.004": 24.0828811287,
			"-0.003": 39.3368519016,
			"-0.002": 84.7436238568,
			"-0.001": 104.548747681,
			"0.0": 103.185524186,
			"0.001": 92.6033078669,
			"0.002": 47.5872760805,
			"0.003": 18.6788988253,
			"0.004": 14.2238561479,
			"0.005": 10.2626004172,
			"0.006": 9.27404563478,
			"0.007": 9.51941514002,
			"0.008": 6.97171487425,
			"0.009": 5.05306610582,
			"0.01": 4.64553121533,
			"0.011": 3.79304663386,
			"0.012": 1.78551435951,
			"0.013": 0.0567933182116,
			"0.014": 0.0,
			"0.015": 0.0,
			"0.016": 0.0,
			"0.017": 0.0,
			"0.018": 0.0,
			"0.019": 0.0,
			"0.02": 0.0,
			"0.021": 0.0,
			"0.022": 0.0,
			"0.023": 0.0,
			"0.024": 0.0,
			"0.025": 0.0
		}
	}
}
