{
	 "smiles": "NC1=C(N=NS1)C1=CC=CC=C1", 
	 "Tm": 419.15, 
	 "num_atms": 19, 
	 "gaussian": { 
		 "optdone": 1, 
		 "sigma_profile": "yes", 
		 "theory": "DFT", 
		 "functional": "B3LYP", 
		 "basiset": "6-31G**", 
		 "properties": { 
			 "R2extent": 3510.3738, 
			 "electric_dipole_moment_norm": 4.83642711927, 
			 "electric_quadrupole_moment_norm": 18.6835508558, 
			 "total_energy": -871.472053225, 
			 "HOMO_LUMO_gap": 0.17626, 
			 "cosmo_polarized_energy": -13.91, 
			 "cosmo_cavitation_energy": 24.89, 
			 "cosmo_dispersion_energy": -19.21, 
			 "cosmo_repulsion_energy": 1.47, 
			 "cosmo_total_nonelectrostatic_energy": 7.15, 
			 "SMD_solvation_energy": 2.26 
		},
		"coords": [
			{
				"x": -1.9651241386,
				"y": -2.5784265171,
				"z": 0.1940115036,
				"element": "N" 
			},
			{
				"x": -1.0408480215,
				"y": -2.6843246988,
				"z": 1.2052863109,
				"element": "C" 
			},
			{
				"x": 0.0945561817,
				"y": -1.8943433281,
				"z": 1.4027524129,
				"element": "C" 
			},
			{
				"x": 0.8099975611,
				"y": -2.2749794953,
				"z": 2.5093074977,
				"element": "N" 
			},
			{
				"x": 0.3741170162,
				"y": -3.2328953455,
				"z": 3.2029417902,
				"element": "N" 
			},
			{
				"x": -1.1529618039,
				"y": -3.8508731621,
				"z": 2.4689898776,
				"element": "S" 
			},
			{
				"x": 0.5804715187,
				"y": -0.7938319008,
				"z": 0.5521237134,
				"element": "C" 
			},
			{
				"x": 1.9637570949,
				"y": -0.5689927287,
				"z": 0.4272533306,
				"element": "C" 
			},
			{
				"x": 2.4450770202,
				"y": 0.4614709915,
				"z": -0.3752686863,
				"element": "C" 
			},
			{
				"x": 1.5599768899,
				"y": 1.2873747873,
				"z": -1.0746347238,
				"element": "C" 
			},
			{
				"x": 0.1862268964,
				"y": 1.0835934457,
				"z": -0.9480474002,
				"element": "C" 
			},
			{
				"x": -0.3021442518,
				"y": 0.057590852,
				"z": -0.1368489413,
				"element": "C" 
			},
			{
				"x": -1.6400624603,
				"y": -2.096481159,
				"z": -0.6349445802,
				"element": "H" 
			},
			{
				"x": -2.5169057883,
				"y": -3.3998509774,
				"z": -0.0068768008,
				"element": "H" 
			},
			{
				"x": 2.6500436346,
				"y": -1.2101606594,
				"z": 0.9703026859,
				"element": "H" 
			},
			{
				"x": 3.5166406743,
				"y": 0.6188897803,
				"z": -0.4594247498,
				"element": "H" 
			},
			{
				"x": 1.9390440047,
				"y": 2.0870614468,
				"z": -1.7040873378,
				"element": "H" 
			},
			{
				"x": -0.5119572108,
				"y": 1.733980704,
				"z": -1.4674448345,
				"element": "H" 
			},
			{
				"x": -1.3745048176,
				"y": -0.0490020355,
				"z": -0.002291068,
				"element": "H" 
			}
		],
		 "valence_orbital": [ 
			{
				"type": "occ",
				"energy": -0.28879,
				"method": "rhf"
			},
			{
				"type": "occ",
				"energy": -0.2668,
				"method": "rhf"
			},
			{
				"type": "occ",
				"energy": -0.25693,
				"method": "rhf"
			},
			{
				"type": "occ",
				"energy": -0.25116,
				"method": "rhf"
			},
			{
				"type": "occ",
				"energy": -0.21679,
				"method": "rhf"
			},
			{
				"type": "unocc",
				"energy": -0.04053,
				"method": "rhf"
			},
			{
				"type": "unocc",
				"energy": -0.026,
				"method": "rhf"
			},
			{
				"type": "unocc",
				"energy": -0.01736,
				"method": "rhf"
			},
			{
				"type": "unocc",
				"energy": -0.00722,
				"method": "rhf"
			},
			{
				"type": "unocc",
				"energy": 0.06586,
				"method": "rhf"
			}
		],
		"cosmo_sigma_profile": { 
			"-0.025": 0.0,
			"-0.024": 0.0,
			"-0.023": 0.0,
			"-0.022": 0.0,
			"-0.021": 0.0,
			"-0.02": 0.0,
			"-0.019": 0.0,
			"-0.018": 0.0,
			"-0.017": 0.0,
			"-0.016": 0.29595487059,
			"-0.015": 1.36423222378,
			"-0.014": 2.28334752834,
			"-0.013": 1.97194575877,
			"-0.012": 2.7957341228,
			"-0.011": 2.41599511828,
			"-0.01": 2.44417266017,
			"-0.009": 2.25447332018,
			"-0.008": 2.42143491871,
			"-0.007": 2.49107711255,
			"-0.006": 7.2264005428,
			"-0.005": 9.40210868542,
			"-0.004": 14.0483512863,
			"-0.003": 12.391259161,
			"-0.002": 10.2711721016,
			"-0.001": 12.6911125651,
			"0.0": 16.3325222087,
			"0.001": 17.2848766677,
			"0.002": 15.0249197495,
			"0.003": 15.3137369592,
			"0.004": 12.7198982355,
			"0.005": 13.2205408544,
			"0.006": 5.41316901003,
			"0.007": 3.34060644976,
			"0.008": 2.67000621855,
			"0.009": 4.02178141132,
			"0.01": 4.2361938659,
			"0.011": 2.81099377625,
			"0.012": 2.1803638923,
			"0.013": 1.16333653347,
			"0.014": 0.0356868980649,
			"0.015": 0.0,
			"0.016": 0.0,
			"0.017": 0.0,
			"0.018": 0.0,
			"0.019": 0.0,
			"0.02": 0.0,
			"0.021": 0.0,
			"0.022": 0.0,
			"0.023": 0.0,
			"0.024": 0.0,
			"0.025": 0.0
		}
	}
}
