{
	 "smiles": "ClC1=C(C=CC=N1)C(=O)N1CCCCC1", 
	 "Tm": 341.15, 
	 "num_atms": 28, 
	 "gaussian": { 
		 "optdone": 1, 
		 "sigma_profile": "yes", 
		 "theory": "DFT", 
		 "functional": "B3LYP", 
		 "basiset": "6-31G**", 
		 "properties": { 
			 "R2extent": 4546.355, 
			 "electric_dipole_moment_norm": 4.49546151357, 
			 "electric_quadrupole_moment_norm": 22.4085084557, 
			 "total_energy": -1071.93157562, 
			 "HOMO_LUMO_gap": 0.19789, 
			 "cosmo_polarized_energy": -13.11, 
			 "cosmo_cavitation_energy": 31.87, 
			 "cosmo_dispersion_energy": -22.79, 
			 "cosmo_repulsion_energy": 1.79, 
			 "cosmo_total_nonelectrostatic_energy": 10.87, 
			 "SMD_solvation_energy": 3.15 
		},
		"coords": [
			{
				"x": 0.4337220479,
				"y": 0.1006818191,
				"z": -2.6674156488,
				"element": "Cl" 
			},
			{
				"x": 2.0490713637,
				"y": -0.3859033323,
				"z": -2.1412853955,
				"element": "C" 
			},
			{
				"x": 2.1783933668,
				"y": -1.3242849058,
				"z": -1.1051136997,
				"element": "C" 
			},
			{
				"x": 3.485745052,
				"y": -1.6901277425,
				"z": -0.7692822751,
				"element": "C" 
			},
			{
				"x": 4.5645383929,
				"y": -1.1026623719,
				"z": -1.4268117937,
				"element": "C" 
			},
			{
				"x": 4.2971838011,
				"y": -0.1695553106,
				"z": -2.4259044802,
				"element": "C" 
			},
			{
				"x": 3.0540760932,
				"y": 0.1801712589,
				"z": -2.7825116161,
				"element": "N" 
			},
			{
				"x": 1.0224824449,
				"y": -2.0689600503,
				"z": -0.4689771599,
				"element": "C" 
			},
			{
				"x": 0.8219694507,
				"y": -3.2362476806,
				"z": -0.7979759817,
				"element": "O" 
			},
			{
				"x": 0.2788475119,
				"y": -1.4350300832,
				"z": 0.4798343463,
				"element": "N" 
			},
			{
				"x": 0.4906431489,
				"y": -0.060450835,
				"z": 0.9479992382,
				"element": "C" 
			},
			{
				"x": -0.8556300517,
				"y": 0.6498877065,
				"z": 1.1260122828,
				"element": "C" 
			},
			{
				"x": -1.7661737556,
				"y": -0.0854408464,
				"z": 2.1441684855,
				"element": "C" 
			},
			{
				"x": -1.3086395391,
				"y": -1.5409479191,
				"z": 2.3681812308,
				"element": "C" 
			},
			{
				"x": -0.8324788068,
				"y": -2.2011957835,
				"z": 1.0744442369,
				"element": "C" 
			},
			{
				"x": 3.643812526,
				"y": -2.439933678,
				"z": 0.0000728296,
				"element": "H" 
			},
			{
				"x": 5.5865568388,
				"y": -1.3672583624,
				"z": -1.1772472915,
				"element": "H" 
			},
			{
				"x": 5.1029328995,
				"y": 0.3170719314,
				"z": -2.9706669874,
				"element": "H" 
			},
			{
				"x": 1.1054355645,
				"y": 0.4709418995,
				"z": 0.2221761096,
				"element": "H" 
			},
			{
				"x": 1.0456078392,
				"y": -0.0650668987,
				"z": 1.8978821309,
				"element": "H" 
			},
			{
				"x": -1.340278732,
				"y": 0.6964807863,
				"z": 0.1451665237,
				"element": "H" 
			},
			{
				"x": -0.6752832927,
				"y": 1.6840760128,
				"z": 1.4376372542,
				"element": "H" 
			},
			{
				"x": -1.7731630199,
				"y": 0.4413347796,
				"z": 3.1046222643,
				"element": "H" 
			},
			{
				"x": -2.7994694902,
				"y": -0.0751953657,
				"z": 1.7800518358,
				"element": "H" 
			},
			{
				"x": -0.4939779588,
				"y": -1.5697874298,
				"z": 3.1021254438,
				"element": "H" 
			},
			{
				"x": -2.1227412883,
				"y": -2.1386446947,
				"z": 2.7911302488,
				"element": "H" 
			},
			{
				"x": -0.486487408,
				"y": -3.2236564114,
				"z": 1.2464840727,
				"element": "H" 
			},
			{
				"x": -1.6554949989,
				"y": -2.2683964923,
				"z": 0.3493037956,
				"element": "H" 
			}
		],
		 "valence_orbital": [ 
			{
				"type": "occ",
				"energy": -0.30341,
				"method": "rhf"
			},
			{
				"type": "occ",
				"energy": -0.28148,
				"method": "rhf"
			},
			{
				"type": "occ",
				"energy": -0.26662,
				"method": "rhf"
			},
			{
				"type": "occ",
				"energy": -0.24418,
				"method": "rhf"
			},
			{
				"type": "occ",
				"energy": -0.23802,
				"method": "rhf"
			},
			{
				"type": "unocc",
				"energy": -0.04013,
				"method": "rhf"
			},
			{
				"type": "unocc",
				"energy": -0.0295,
				"method": "rhf"
			},
			{
				"type": "unocc",
				"energy": 0.01927,
				"method": "rhf"
			},
			{
				"type": "unocc",
				"energy": 0.03572,
				"method": "rhf"
			},
			{
				"type": "unocc",
				"energy": 0.07065,
				"method": "rhf"
			}
		],
		"cosmo_sigma_profile": { 
			"-0.025": 0.0,
			"-0.024": 0.0,
			"-0.023": 0.0,
			"-0.022": 0.0,
			"-0.021": 0.0,
			"-0.02": 0.0,
			"-0.019": 0.0,
			"-0.018": 0.0,
			"-0.017": 0.0,
			"-0.016": 0.0,
			"-0.015": 0.0,
			"-0.014": 0.0,
			"-0.013": 0.0,
			"-0.012": 0.0,
			"-0.011": 0.0,
			"-0.01": 0.0,
			"-0.009": 0.573233085991,
			"-0.008": 4.6176870003,
			"-0.007": 6.81396515287,
			"-0.006": 7.78454147376,
			"-0.005": 7.85098720852,
			"-0.004": 20.1223945112,
			"-0.003": 31.861877668,
			"-0.002": 36.3351478237,
			"-0.001": 25.3944225904,
			"0.0": 26.8169005854,
			"0.001": 21.1642641639,
			"0.002": 9.47881304928,
			"0.003": 9.86394288964,
			"0.004": 9.02613411973,
			"0.005": 5.36249422256,
			"0.006": 3.93432067942,
			"0.007": 3.37304288217,
			"0.008": 2.6364236496,
			"0.009": 2.37016716711,
			"0.01": 2.91994355112,
			"0.011": 2.60679792629,
			"0.012": 2.67293533684,
			"0.013": 5.17331019171,
			"0.014": 4.52329519775,
			"0.015": 0.534049682704,
			"0.016": 0.0,
			"0.017": 0.0,
			"0.018": 0.0,
			"0.019": 0.0,
			"0.02": 0.0,
			"0.021": 0.0,
			"0.022": 0.0,
			"0.023": 0.0,
			"0.024": 0.0,
			"0.025": 0.0
		}
	}
}
