{
	 "smiles": "CCOC(=O)C1=C(N)N(N=C1NS(=O)(=O)C1=CC=C(Cl)C=C1)C1=CC=C(C=C1)[N+]([O-])=O", 
	 "Tm": 473.15, 
	 "num_atms": 47, 
	 "gaussian": { 
		 "optdone": 1, 
		 "sigma_profile": "yes", 
		 "theory": "DFT", 
		 "functional": "B3LYP", 
		 "basiset": "6-31G**", 
		 "properties": { 
			 "R2extent": 19930.9432, 
			 "electric_dipole_moment_norm": 5.82736778143, 
			 "electric_quadrupole_moment_norm": 30.311759895, 
			 "total_energy": -2278.88285331, 
			 "HOMO_LUMO_gap": 0.13576, 
			 "cosmo_polarized_energy": -25.01, 
			 "cosmo_cavitation_energy": 56.58, 
			 "cosmo_dispersion_energy": -38.91, 
			 "cosmo_repulsion_energy": 2.9, 
			 "cosmo_total_nonelectrostatic_energy": 20.57, 
			 "SMD_solvation_energy": 11.03 
		},
		"coords": [
			{
				"x": 0.365716386,
				"y": 2.0812520104,
				"z": 4.9137820519,
				"element": "C" 
			},
			{
				"x": -0.8666573597,
				"y": 1.8998723163,
				"z": 4.0423294948,
				"element": "C" 
			},
			{
				"x": -0.5111260647,
				"y": 1.3985541785,
				"z": 2.7258368131,
				"element": "O" 
			},
			{
				"x": -0.1576601235,
				"y": 2.3186013299,
				"z": 1.7906858083,
				"element": "C" 
			},
			{
				"x": -0.1537407713,
				"y": 3.5269884818,
				"z": 2.0056602809,
				"element": "O" 
			},
			{
				"x": 0.1971116155,
				"y": 1.7189226176,
				"z": 0.5236155872,
				"element": "C" 
			},
			{
				"x": 0.5729812754,
				"y": 2.4590592255,
				"z": -0.6040233619,
				"element": "C" 
			},
			{
				"x": 0.7275583507,
				"y": 3.8107102171,
				"z": -0.691773993,
				"element": "N" 
			},
			{
				"x": 0.7934459317,
				"y": 1.5595321622,
				"z": -1.6098954093,
				"element": "N" 
			},
			{
				"x": 0.5300149333,
				"y": 0.253340076,
				"z": -1.2006726022,
				"element": "N" 
			},
			{
				"x": 0.2002169298,
				"y": 0.3613924194,
				"z": 0.0684090631,
				"element": "C" 
			},
			{
				"x": -0.1515424354,
				"y": -0.7377226071,
				"z": 0.843213701,
				"element": "N" 
			},
			{
				"x": 0.5442003294,
				"y": -2.2880019083,
				"z": 0.6854999839,
				"element": "S" 
			},
			{
				"x": 1.9421163657,
				"y": -2.1846486808,
				"z": 0.2766087787,
				"element": "O" 
			},
			{
				"x": 0.1477412536,
				"y": -2.9383350762,
				"z": 1.9364496579,
				"element": "O" 
			},
			{
				"x": -0.3713810631,
				"y": -3.0304319446,
				"z": -0.660901453,
				"element": "C" 
			},
			{
				"x": 0.1549066815,
				"y": -2.9879947924,
				"z": -1.9524673304,
				"element": "C" 
			},
			{
				"x": -0.5504775008,
				"y": -3.588746448,
				"z": -2.9937215993,
				"element": "C" 
			},
			{
				"x": -1.765710623,
				"y": -4.2193894765,
				"z": -2.7196404484,
				"element": "C" 
			},
			{
				"x": -2.6530358615,
				"y": -4.9735074365,
				"z": -4.0295284781,
				"element": "Cl" 
			},
			{
				"x": -2.288013255,
				"y": -4.2693277827,
				"z": -1.4254602954,
				"element": "C" 
			},
			{
				"x": -1.5810353966,
				"y": -3.6699862902,
				"z": -0.3853762959,
				"element": "C" 
			},
			{
				"x": 1.1615345561,
				"y": 1.7869801046,
				"z": -2.9509595688,
				"element": "C" 
			},
			{
				"x": 1.992347988,
				"y": 2.8651765024,
				"z": -3.2995727211,
				"element": "C" 
			},
			{
				"x": 2.3330098379,
				"y": 3.0725739048,
				"z": -4.631913412,
				"element": "C" 
			},
			{
				"x": 1.8555292485,
				"y": 2.1924655778,
				"z": -5.6000903017,
				"element": "C" 
			},
			{
				"x": 1.0526253113,
				"y": 1.1013320936,
				"z": -5.2658467039,
				"element": "C" 
			},
			{
				"x": 0.7034943228,
				"y": 0.8986093228,
				"z": -3.9380613066,
				"element": "C" 
			},
			{
				"x": 2.2147630308,
				"y": 2.413561861,
				"z": -7.0056442085,
				"element": "N" 
			},
			{
				"x": 2.9092995515,
				"y": 3.395458846,
				"z": -7.2692366742,
				"element": "O" 
			},
			{
				"x": 1.7979735875,
				"y": 1.6046991884,
				"z": -7.8346934884,
				"element": "O" 
			},
			{
				"x": 1.0179171313,
				"y": 2.8553386871,
				"z": 4.5022781546,
				"element": "H" 
			},
			{
				"x": 0.0626231689,
				"y": 2.3873962639,
				"z": 5.9204851554,
				"element": "H" 
			},
			{
				"x": 0.9291117653,
				"y": 1.1472212054,
				"z": 4.9945068209,
				"element": "H" 
			},
			{
				"x": -1.4107177589,
				"y": 2.838354415,
				"z": 3.91926247,
				"element": "H" 
			},
			{
				"x": -1.538558178,
				"y": 1.1391715942,
				"z": 4.4457678056,
				"element": "H" 
			},
			{
				"x": 0.5276672821,
				"y": 4.2532133491,
				"z": -1.5778432651,
				"element": "H" 
			},
			{
				"x": 0.3802617375,
				"y": 4.2822832376,
				"z": 0.1402764262,
				"element": "H" 
			},
			{
				"x": -0.3423769971,
				"y": -0.5216220553,
				"z": 1.8185863183,
				"element": "H" 
			},
			{
				"x": 1.1005024743,
				"y": -2.4907489546,
				"z": -2.1324490397,
				"element": "H" 
			},
			{
				"x": -0.1610828648,
				"y": -3.5764557366,
				"z": -4.0054546289,
				"element": "H" 
			},
			{
				"x": -3.2280589873,
				"y": -4.7752007325,
				"z": -1.2371262407,
				"element": "H" 
			},
			{
				"x": -1.9538202479,
				"y": -3.7107370111,
				"z": 0.6320635093,
				"element": "H" 
			},
			{
				"x": 2.4010199456,
				"y": 3.511252713,
				"z": -2.5320069742,
				"element": "H" 
			},
			{
				"x": 2.9766142281,
				"y": 3.8913056877,
				"z": -4.9281245541,
				"element": "H" 
			},
			{
				"x": 0.707260136,
				"y": 0.4374962389,
				"z": -6.0484516056,
				"element": "H" 
			},
			{
				"x": 0.0824301325,
				"y": 0.0622411054,
				"z": -3.6436819205,
				"element": "H" 
			}
		],
		 "valence_orbital": [ 
			{
				"type": "occ",
				"energy": -0.29049,
				"method": "rhf"
			},
			{
				"type": "occ",
				"energy": -0.28376,
				"method": "rhf"
			},
			{
				"type": "occ",
				"energy": -0.26898,
				"method": "rhf"
			},
			{
				"type": "occ",
				"energy": -0.24995,
				"method": "rhf"
			},
			{
				"type": "occ",
				"energy": -0.23303,
				"method": "rhf"
			},
			{
				"type": "unocc",
				"energy": -0.09727,
				"method": "rhf"
			},
			{
				"type": "unocc",
				"energy": -0.05197,
				"method": "rhf"
			},
			{
				"type": "unocc",
				"energy": -0.04214,
				"method": "rhf"
			},
			{
				"type": "unocc",
				"energy": -0.03546,
				"method": "rhf"
			},
			{
				"type": "unocc",
				"energy": -0.03355,
				"method": "rhf"
			}
		],
		"cosmo_sigma_profile": { 
			"-0.025": 0.0,
			"-0.024": 0.0,
			"-0.023": 0.0,
			"-0.022": 0.0,
			"-0.021": 0.0,
			"-0.02": 0.0,
			"-0.019": 0.0,
			"-0.018": 0.0,
			"-0.017": 0.0,
			"-0.016": 0.0,
			"-0.015": 0.32162637749,
			"-0.014": 1.03585079169,
			"-0.013": 1.33427082287,
			"-0.012": 1.81762980193,
			"-0.011": 2.54724171835,
			"-0.01": 2.19857008268,
			"-0.009": 3.3221652373,
			"-0.008": 11.4458871009,
			"-0.007": 16.0003863975,
			"-0.006": 19.1181419328,
			"-0.005": 19.8997930829,
			"-0.004": 29.4444922214,
			"-0.003": 31.5955795548,
			"-0.002": 37.108621246,
			"-0.001": 42.4962242581,
			"0.0": 50.7603321511,
			"0.001": 42.6909258144,
			"0.002": 23.307545739,
			"0.003": 18.7617218057,
			"0.004": 18.6761970611,
			"0.005": 10.1390088452,
			"0.006": 10.9037499139,
			"0.007": 12.1135586622,
			"0.008": 14.2869098253,
			"0.009": 12.060146749,
			"0.01": 14.5791266863,
			"0.011": 7.51192729728,
			"0.012": 0.982962330307,
			"0.013": 0.00840044941688,
			"0.014": 0.0,
			"0.015": 0.0,
			"0.016": 0.0,
			"0.017": 0.0,
			"0.018": 0.0,
			"0.019": 0.0,
			"0.02": 0.0,
			"0.021": 0.0,
			"0.022": 0.0,
			"0.023": 0.0,
			"0.024": 0.0,
			"0.025": 0.0
		}
	}
}
