{
	 "smiles": "OC(=O)C1CCCN(C1)S(=O)(=O)C1=CC=C(C=C1)[N+]([O-])=O", 
	 "Tm": 495.15, 
	 "num_atms": 35, 
	 "gaussian": { 
		 "optdone": 1, 
		 "sigma_profile": "yes", 
		 "theory": "DFT", 
		 "functional": "B3LYP", 
		 "basiset": "6-31G**", 
		 "properties": { 
			 "R2extent": 7414.6075, 
			 "electric_dipole_moment_norm": 4.14095650424, 
			 "electric_quadrupole_moment_norm": 18.4022643107, 
			 "total_energy": -1424.59552613, 
			 "HOMO_LUMO_gap": 0.15857, 
			 "cosmo_polarized_energy": -21.16, 
			 "cosmo_cavitation_energy": 40.15, 
			 "cosmo_dispersion_energy": -27.74, 
			 "cosmo_repulsion_energy": 2.06, 
			 "cosmo_total_nonelectrostatic_energy": 14.48, 
			 "SMD_solvation_energy": 8.63 
		},
		"coords": [
			{
				"x": 0.3425524903,
				"y": -0.3768035557,
				"z": -3.2220899929,
				"element": "O" 
			},
			{
				"x": 0.063857843,
				"y": 0.9303334251,
				"z": -2.9896061997,
				"element": "C" 
			},
			{
				"x": 0.9337126196,
				"y": 1.770318698,
				"z": -2.9204778036,
				"element": "O" 
			},
			{
				"x": -1.4349277309,
				"y": 1.1961889295,
				"z": -2.8911867014,
				"element": "C" 
			},
			{
				"x": -1.7168691714,
				"y": 2.6043100286,
				"z": -2.3399348147,
				"element": "C" 
			},
			{
				"x": -1.4066508268,
				"y": 2.6829526055,
				"z": -0.8382028793,
				"element": "C" 
			},
			{
				"x": -2.1089509677,
				"y": 1.5702077204,
				"z": -0.0533937154,
				"element": "C" 
			},
			{
				"x": -1.7694242677,
				"y": 0.2615767841,
				"z": -0.6523054759,
				"element": "N" 
			},
			{
				"x": -2.1722534659,
				"y": 0.1286138612,
				"z": -2.0653414583,
				"element": "C" 
			},
			{
				"x": -2.0586011762,
				"y": -1.0834854246,
				"z": 0.3367055938,
				"element": "S" 
			},
			{
				"x": -2.0579695533,
				"y": -2.2596444386,
				"z": -0.5367382252,
				"element": "O" 
			},
			{
				"x": -3.1709121961,
				"y": -0.8296394633,
				"z": 1.2606397282,
				"element": "O" 
			},
			{
				"x": -0.5507581597,
				"y": -1.1177736979,
				"z": 1.324205568,
				"element": "C" 
			},
			{
				"x": 0.6795669741,
				"y": -1.2861406915,
				"z": 0.6804296479,
				"element": "C" 
			},
			{
				"x": 1.8388506137,
				"y": -1.3650599223,
				"z": 1.443742717,
				"element": "C" 
			},
			{
				"x": 1.7321698619,
				"y": -1.2775296361,
				"z": 2.8325146369,
				"element": "C" 
			},
			{
				"x": 0.5123980357,
				"y": -1.1155385496,
				"z": 3.4825497698,
				"element": "C" 
			},
			{
				"x": -0.6483512081,
				"y": -1.0363689565,
				"z": 2.7131147502,
				"element": "C" 
			},
			{
				"x": 2.9631061683,
				"y": -1.3590493332,
				"z": 3.6434460754,
				"element": "N" 
			},
			{
				"x": 4.027100918,
				"y": -1.5061338521,
				"z": 3.045349774,
				"element": "O" 
			},
			{
				"x": 2.8452913469,
				"y": -1.2740345244,
				"z": 4.863983445,
				"element": "O" 
			},
			{
				"x": 1.3073229547,
				"y": -0.430996457,
				"z": -3.3294281966,
				"element": "H" 
			},
			{
				"x": -1.8121679916,
				"y": 1.1205084432,
				"z": -3.9210855392,
				"element": "H" 
			},
			{
				"x": -1.1257166178,
				"y": 3.3432875038,
				"z": -2.8861367597,
				"element": "H" 
			},
			{
				"x": -2.77588347,
				"y": 2.8333593658,
				"z": -2.5133110715,
				"element": "H" 
			},
			{
				"x": -0.3254302082,
				"y": 2.6043539063,
				"z": -0.6874302414,
				"element": "H" 
			},
			{
				"x": -1.7232992173,
				"y": 3.6516969688,
				"z": -0.4363208953,
				"element": "H" 
			},
			{
				"x": -1.7792477393,
				"y": 1.5751543513,
				"z": 0.9887364296,
				"element": "H" 
			},
			{
				"x": -3.1993050535,
				"y": 1.7165563379,
				"z": -0.053426121,
				"element": "H" 
			},
			{
				"x": -1.9267981216,
				"y": -0.8756713178,
				"z": -2.404803734,
				"element": "H" 
			},
			{
				"x": -3.2566350046,
				"y": 0.278474194,
				"z": -2.1809018841,
				"element": "H" 
			},
			{
				"x": 0.7225454458,
				"y": -1.3458708164,
				"z": -0.40149288,
				"element": "H" 
			},
			{
				"x": 2.8142427682,
				"y": -1.4920278633,
				"z": 0.9916066069,
				"element": "H" 
			},
			{
				"x": 0.4859214092,
				"y": -1.0554593843,
				"z": 4.5631926208,
				"element": "H" 
			},
			{
				"x": -1.621487302,
				"y": -0.9155652391,
				"z": 3.1752972256,
				"element": "H" 
			}
		],
		 "valence_orbital": [ 
			{
				"type": "occ",
				"energy": -0.3039,
				"method": "rhf"
			},
			{
				"type": "occ",
				"energy": -0.30212,
				"method": "rhf"
			},
			{
				"type": "occ",
				"energy": -0.29564,
				"method": "rhf"
			},
			{
				"type": "occ",
				"energy": -0.29104,
				"method": "rhf"
			},
			{
				"type": "occ",
				"energy": -0.26505,
				"method": "rhf"
			},
			{
				"type": "unocc",
				"energy": -0.10648,
				"method": "rhf"
			},
			{
				"type": "unocc",
				"energy": -0.045,
				"method": "rhf"
			},
			{
				"type": "unocc",
				"energy": -0.02924,
				"method": "rhf"
			},
			{
				"type": "unocc",
				"energy": -0.00992,
				"method": "rhf"
			},
			{
				"type": "unocc",
				"energy": 0.03903,
				"method": "rhf"
			}
		],
		"cosmo_sigma_profile": { 
			"-0.025": 0.0,
			"-0.024": 0.0,
			"-0.023": 0.0,
			"-0.022": 0.0,
			"-0.021": 0.0,
			"-0.02": 0.0,
			"-0.019": 0.0928649691502,
			"-0.018": 0.725997462535,
			"-0.017": 0.889130202638,
			"-0.016": 0.941889934587,
			"-0.015": 0.720374324476,
			"-0.014": 0.812812439108,
			"-0.013": 0.361651751803,
			"-0.012": 0.706810716327,
			"-0.011": 0.768910781627,
			"-0.01": 0.826638271965,
			"-0.009": 1.82593505346,
			"-0.008": 6.53914057537,
			"-0.007": 12.1145732277,
			"-0.006": 14.1376861074,
			"-0.005": 23.7008730513,
			"-0.004": 26.261069653,
			"-0.003": 29.5505589072,
			"-0.002": 28.5560211728,
			"-0.001": 29.5644254201,
			"0.0": 21.7804219038,
			"0.001": 12.3559273177,
			"0.002": 9.86706919035,
			"0.003": 7.82920824303,
			"0.004": 8.14794634665,
			"0.005": 8.09632856267,
			"0.006": 10.3929200091,
			"0.007": 15.0772229871,
			"0.008": 11.0501058398,
			"0.009": 9.84026664048,
			"0.01": 10.8954346897,
			"0.011": 10.187270116,
			"0.012": 3.40022201466,
			"0.013": 0.0026314404445,
			"0.014": 0.0,
			"0.015": 0.0,
			"0.016": 0.0,
			"0.017": 0.0,
			"0.018": 0.0,
			"0.019": 0.0,
			"0.02": 0.0,
			"0.021": 0.0,
			"0.022": 0.0,
			"0.023": 0.0,
			"0.024": 0.0,
			"0.025": 0.0
		}
	}
}
