{
	 "smiles": "OC(=O)COC1=CC(F)=CC=C1", 
	 "Tm": 389.15, 
	 "num_atms": 19, 
	 "gaussian": { 
		 "optdone": 1, 
		 "sigma_profile": "yes", 
		 "theory": "DFT", 
		 "functional": "B3LYP", 
		 "basiset": "6-31G**", 
		 "properties": { 
			 "R2extent": 2513.3821, 
			 "electric_dipole_moment_norm": 3.50687476252, 
			 "electric_quadrupole_moment_norm": 8.92850923055, 
			 "total_energy": -634.570797577, 
			 "HOMO_LUMO_gap": 0.21915, 
			 "cosmo_polarized_energy": -12.93, 
			 "cosmo_cavitation_energy": 24.5, 
			 "cosmo_dispersion_energy": -17.75, 
			 "cosmo_repulsion_energy": 1.41, 
			 "cosmo_total_nonelectrostatic_energy": 8.17, 
			 "SMD_solvation_energy": 6.23 
		},
		"coords": [
			{
				"x": 3.1697698537,
				"y": 0.168078563,
				"z": 2.0837958207,
				"element": "O" 
			},
			{
				"x": 2.0256548437,
				"y": -0.4280977196,
				"z": 1.6706796781,
				"element": "C" 
			},
			{
				"x": 1.945687323,
				"y": -1.5890671525,
				"z": 1.3563309511,
				"element": "O" 
			},
			{
				"x": 0.8822574938,
				"y": 0.5815512095,
				"z": 1.69012677,
				"element": "C" 
			},
			{
				"x": -0.3353170651,
				"y": 0.0372200268,
				"z": 1.2493494304,
				"element": "O" 
			},
			{
				"x": -0.5544095698,
				"y": -0.1202864687,
				"z": -0.0950267333,
				"element": "C" 
			},
			{
				"x": -1.8255640235,
				"y": -0.6042099207,
				"z": -0.427935028,
				"element": "C" 
			},
			{
				"x": -2.1417350017,
				"y": -0.7738418301,
				"z": -1.7660279825,
				"element": "C" 
			},
			{
				"x": -3.3678290139,
				"y": -1.2394414511,
				"z": -2.0829306231,
				"element": "F" 
			},
			{
				"x": -1.2480593807,
				"y": -0.4791144262,
				"z": -2.7926832129,
				"element": "C" 
			},
			{
				"x": 0.0107907085,
				"y": -0.0011386588,
				"z": -2.4376357498,
				"element": "C" 
			},
			{
				"x": 0.3719476369,
				"y": 0.1820490427,
				"z": -1.0995483028,
				"element": "C" 
			},
			{
				"x": 3.8570432197,
				"y": -0.5194221198,
				"z": 2.079101447,
				"element": "H" 
			},
			{
				"x": 0.7242494621,
				"y": 0.8896974846,
				"z": 2.7284783255,
				"element": "H" 
			},
			{
				"x": 1.1752008603,
				"y": 1.4769074041,
				"z": 1.1268507412,
				"element": "H" 
			},
			{
				"x": -2.5426815785,
				"y": -0.8393854115,
				"z": 0.3491777354,
				"element": "H" 
			},
			{
				"x": -1.5404397746,
				"y": -0.6283399679,
				"z": -3.8254882172,
				"element": "H" 
			},
			{
				"x": 0.7327833372,
				"y": 0.2307009533,
				"z": -3.2148213846,
				"element": "H" 
			},
			{
				"x": 1.366650669,
				"y": 0.5390404429,
				"z": -0.863393665,
				"element": "H" 
			}
		],
		 "valence_orbital": [ 
			{
				"type": "occ",
				"energy": -0.33468,
				"method": "rhf"
			},
			{
				"type": "occ",
				"energy": -0.32793,
				"method": "rhf"
			},
			{
				"type": "occ",
				"energy": -0.29071,
				"method": "rhf"
			},
			{
				"type": "occ",
				"energy": -0.24764,
				"method": "rhf"
			},
			{
				"type": "occ",
				"energy": -0.22854,
				"method": "rhf"
			},
			{
				"type": "unocc",
				"energy": -0.00939,
				"method": "rhf"
			},
			{
				"type": "unocc",
				"energy": 0.00027,
				"method": "rhf"
			},
			{
				"type": "unocc",
				"energy": 0.01006,
				"method": "rhf"
			},
			{
				"type": "unocc",
				"energy": 0.06154,
				"method": "rhf"
			},
			{
				"type": "unocc",
				"energy": 0.08478,
				"method": "rhf"
			}
		],
		"cosmo_sigma_profile": { 
			"-0.025": 0.0,
			"-0.024": 0.0,
			"-0.023": 0.0,
			"-0.022": 0.0,
			"-0.021": 0.0,
			"-0.02": 0.0,
			"-0.019": 0.336484105355,
			"-0.018": 0.88727660281,
			"-0.017": 0.978355420193,
			"-0.016": 1.50668139281,
			"-0.015": 0.344837929241,
			"-0.014": 0.23790989883,
			"-0.013": 0.307289892541,
			"-0.012": 1.13490754451,
			"-0.011": 1.25979738951,
			"-0.01": 1.17835877209,
			"-0.009": 4.56983161773,
			"-0.008": 6.00720973708,
			"-0.007": 8.90123973261,
			"-0.006": 12.0096611618,
			"-0.005": 9.62390298307,
			"-0.004": 11.2137740548,
			"-0.003": 6.91048216933,
			"-0.002": 8.92617901012,
			"-0.001": 7.28003612103,
			"0.0": 8.75822348018,
			"0.001": 13.9210838221,
			"0.002": 13.0075576001,
			"0.003": 16.8034853211,
			"0.004": 19.9647925904,
			"0.005": 11.2402728999,
			"0.006": 4.38639033548,
			"0.007": 4.44362946048,
			"0.008": 4.61492630541,
			"0.009": 4.83027018492,
			"0.01": 3.37863450755,
			"0.011": 5.66467157671,
			"0.012": 1.16112528922,
			"0.013": 0.0,
			"0.014": 0.0,
			"0.015": 0.0,
			"0.016": 0.0,
			"0.017": 0.0,
			"0.018": 0.0,
			"0.019": 0.0,
			"0.02": 0.0,
			"0.021": 0.0,
			"0.022": 0.0,
			"0.023": 0.0,
			"0.024": 0.0,
			"0.0": 0.0
		}
	}
}
