{
	 "smiles": "OC(=O)CC1=COC(=N1)C1=CC(F)=C(F)C=C1", 
	 "Tm": 418.15, 
	 "num_atms": 24, 
	 "gaussian": { 
		 "optdone": 1, 
		 "sigma_profile": "yes", 
		 "theory": "DFT", 
		 "functional": "B3LYP", 
		 "basiset": "6-31G**", 
		 "properties": { 
			 "R2extent": 6745.287, 
			 "electric_dipole_moment_norm": 2.6177750801, 
			 "electric_quadrupole_moment_norm": 12.1082704099, 
			 "total_energy": -903.482632733, 
			 "HOMO_LUMO_gap": 0.17656, 
			 "cosmo_polarized_energy": -11.04, 
			 "cosmo_cavitation_energy": 31.26, 
			 "cosmo_dispersion_energy": -22.76, 
			 "cosmo_repulsion_energy": 1.71, 
			 "cosmo_total_nonelectrostatic_energy": 10.2, 
			 "SMD_solvation_energy": 6.69 
		},
		"coords": [
			{
				"x": -0.83594319,
				"y": -1.7419310551,
				"z": -4.8085268419,
				"element": "O" 
			},
			{
				"x": -0.8271196777,
				"y": -0.8242591246,
				"z": -3.8145162029,
				"element": "C" 
			},
			{
				"x": -1.027165544,
				"y": 0.354231371,
				"z": -4.015616612,
				"element": "O" 
			},
			{
				"x": -0.5410818502,
				"y": -1.4832374967,
				"z": -2.4839403857,
				"element": "C" 
			},
			{
				"x": -0.5054464368,
				"y": -0.5650214803,
				"z": -1.3031385179,
				"element": "C" 
			},
			{
				"x": -0.6849836792,
				"y": 0.779245481,
				"z": -1.1966671429,
				"element": "C" 
			},
			{
				"x": -0.545019402,
				"y": 1.1162256842,
				"z": 0.1258339159,
				"element": "O" 
			},
			{
				"x": -0.2839921065,
				"y": -0.0587351415,
				"z": 0.7618275208,
				"element": "C" 
			},
			{
				"x": -0.2498073589,
				"y": -1.0855745755,
				"z": -0.0406682483,
				"element": "N" 
			},
			{
				"x": -0.0806545806,
				"y": -0.04010066,
				"z": 2.206640103,
				"element": "C" 
			},
			{
				"x": 0.1885522512,
				"y": -1.2511313111,
				"z": 2.8674406766,
				"element": "C" 
			},
			{
				"x": 0.3831848472,
				"y": -1.2485547269,
				"z": 4.2366273684,
				"element": "C" 
			},
			{
				"x": 0.6418253732,
				"y": -2.3929518701,
				"z": 4.8908098412,
				"element": "F" 
			},
			{
				"x": 0.3146338731,
				"y": -0.057750956,
				"z": 4.964274137,
				"element": "C" 
			},
			{
				"x": 0.5087821979,
				"y": -0.093332944,
				"z": 6.2920149862,
				"element": "F" 
			},
			{
				"x": 0.0493511053,
				"y": 1.1429608216,
				"z": 4.3198590419,
				"element": "C" 
			},
			{
				"x": -0.1487891666,
				"y": 1.1540356237,
				"z": 2.9399012232,
				"element": "C" 
			},
			{
				"x": -1.0241144687,
				"y": -1.2543190099,
				"z": -5.6280581811,
				"element": "H" 
			},
			{
				"x": -1.291515453,
				"y": -2.2688899424,
				"z": -2.3287309388,
				"element": "H" 
			},
			{
				"x": 0.4110582756,
				"y": -2.0218352894,
				"z": -2.5724007976,
				"element": "H" 
			},
			{
				"x": -0.8990248593,
				"y": 1.5701234026,
				"z": -1.8925977793,
				"element": "H" 
			},
			{
				"x": 0.243856645,
				"y": -2.1804784503,
				"z": 2.3127523212,
				"element": "H" 
			},
			{
				"x": 0.001465468,
				"y": 2.0533253757,
				"z": 4.9073582409,
				"element": "H" 
			},
			{
				"x": -0.356352263,
				"y": 2.087456274,
				"z": 2.429922272,
				"element": "H" 
			}
		],
		 "valence_orbital": [ 
			{
				"type": "occ",
				"energy": -0.29571,
				"method": "rhf"
			},
			{
				"type": "occ",
				"energy": -0.29017,
				"method": "rhf"
			},
			{
				"type": "occ",
				"energy": -0.28089,
				"method": "rhf"
			},
			{
				"type": "occ",
				"energy": -0.26271,
				"method": "rhf"
			},
			{
				"type": "occ",
				"energy": -0.22446,
				"method": "rhf"
			},
			{
				"type": "unocc",
				"energy": -0.0479,
				"method": "rhf"
			},
			{
				"type": "unocc",
				"energy": -0.01652,
				"method": "rhf"
			},
			{
				"type": "unocc",
				"energy": -0.00347,
				"method": "rhf"
			},
			{
				"type": "unocc",
				"energy": 0.03081,
				"method": "rhf"
			},
			{
				"type": "unocc",
				"energy": 0.06587,
				"method": "rhf"
			}
		],
		"cosmo_sigma_profile": { 
			"-0.025": 0.0,
			"-0.024": 0.0,
			"-0.023": 0.0,
			"-0.022": 0.0,
			"-0.021": 0.0,
			"-0.02": 0.0,
			"-0.019": 0.131487360484,
			"-0.018": 0.780612125076,
			"-0.017": 0.825732506795,
			"-0.016": 1.05557565542,
			"-0.015": 1.274759984,
			"-0.014": 0.199678645245,
			"-0.013": 0.308240671359,
			"-0.012": 0.929295402554,
			"-0.011": 1.41236089079,
			"-0.01": 0.457715855556,
			"-0.009": 0.968042025417,
			"-0.008": 6.38522091258,
			"-0.007": 10.8762096517,
			"-0.006": 10.0252207601,
			"-0.005": 9.89250644216,
			"-0.004": 10.1203830642,
			"-0.003": 10.5320406891,
			"-0.002": 13.7600337901,
			"-0.001": 23.2625639288,
			"0.0": 24.8122203678,
			"0.001": 27.1357682021,
			"0.002": 23.2129710249,
			"0.003": 23.6818867617,
			"0.004": 18.6303424429,
			"0.005": 5.78165511895,
			"0.006": 4.27136268524,
			"0.007": 3.72673342106,
			"0.008": 3.37391078281,
			"0.009": 4.70359206623,
			"0.01": 3.55733474335,
			"0.011": 3.4041355695,
			"0.012": 1.68488932856,
			"0.013": 0.597050390199,
			"0.014": 0.0713282103337,
			"0.015": 0.0,
			"0.016": 0.0,
			"0.017": 0.0,
			"0.018": 0.0,
			"0.019": 0.0,
			"0.02": 0.0,
			"0.021": 0.0,
			"0.022": 0.0,
			"0.023": 0.0,
			"0.024": 0.0,
			"0.025": 0.0
		}
	}
}
