{
	 "smiles": "CNS(=O)(=O)C1=CC(=CC=C1)C(C)=O", 
	 "Tm": 370.15, 
	 "num_atms": 25, 
	 "gaussian": { 
		 "optdone": 1, 
		 "sigma_profile": "yes", 
		 "theory": "DFT", 
		 "functional": "B3LYP", 
		 "basiset": "6-31G**", 
		 "properties": { 
			 "R2extent": 4396.049, 
			 "electric_dipole_moment_norm": 6.77401811114, 
			 "electric_quadrupole_moment_norm": 20.142083921, 
			 "total_energy": -1028.12738435, 
			 "HOMO_LUMO_gap": 0.18865, 
			 "cosmo_polarized_energy": -20.25, 
			 "cosmo_cavitation_energy": 30.58, 
			 "cosmo_dispersion_energy": -22.12, 
			 "cosmo_repulsion_energy": 1.7, 
			 "cosmo_total_nonelectrostatic_energy": 10.16, 
			 "SMD_solvation_energy": 4.92 
		},
		"coords": [
			{
				"x": 3.0873089813,
				"y": 2.5653611586,
				"z": 1.5855826381,
				"element": "C" 
			},
			{
				"x": 2.2221198484,
				"y": 3.3347823213,
				"z": 0.6914216492,
				"element": "N" 
			},
			{
				"x": 2.0151500276,
				"y": 2.8268605964,
				"z": -0.8928571219,
				"element": "S" 
			},
			{
				"x": 1.0867379363,
				"y": 3.7859378722,
				"z": -1.4887076095,
				"element": "O" 
			},
			{
				"x": 3.3542149314,
				"y": 2.5734288388,
				"z": -1.4265572353,
				"element": "O" 
			},
			{
				"x": 1.1745569099,
				"y": 1.231555108,
				"z": -0.8209412635,
				"element": "C" 
			},
			{
				"x": -0.2082650663,
				"y": 1.1940749485,
				"z": -0.6662273897,
				"element": "C" 
			},
			{
				"x": -0.8644155485,
				"y": -0.0422240254,
				"z": -0.5885577427,
				"element": "C" 
			},
			{
				"x": -0.1126586848,
				"y": -1.223978335,
				"z": -0.675308292,
				"element": "C" 
			},
			{
				"x": 1.2722584303,
				"y": -1.1746013528,
				"z": -0.836968071,
				"element": "C" 
			},
			{
				"x": 1.9263007303,
				"y": 0.0555591795,
				"z": -0.9107753227,
				"element": "C" 
			},
			{
				"x": -2.3587326825,
				"y": -0.0320577887,
				"z": -0.4152993034,
				"element": "C" 
			},
			{
				"x": -3.1027563166,
				"y": -1.3548282674,
				"z": -0.3915943838,
				"element": "C" 
			},
			{
				"x": -2.9554387661,
				"y": 1.0254701794,
				"z": -0.2946769439,
				"element": "O" 
			},
			{
				"x": 2.6788047902,
				"y": 1.5822419366,
				"z": 1.8589129415,
				"element": "H" 
			},
			{
				"x": 4.0543408486,
				"y": 2.4297114243,
				"z": 1.0989373575,
				"element": "H" 
			},
			{
				"x": 3.2402833706,
				"y": 3.1496164887,
				"z": 2.4961075215,
				"element": "H" 
			},
			{
				"x": 1.338904548,
				"y": 3.6445749728,
				"z": 1.0849362634,
				"element": "H" 
			},
			{
				"x": -0.7982038777,
				"y": 2.1035416134,
				"z": -0.6250029251,
				"element": "H" 
			},
			{
				"x": -0.6055426308,
				"y": -2.189093635,
				"z": -0.6215608842,
				"element": "H" 
			},
			{
				"x": 1.8431845481,
				"y": -2.0948983226,
				"z": -0.9125438592,
				"element": "H" 
			},
			{
				"x": 2.9986834327,
				"y": 0.1168203545,
				"z": -1.060109985,
				"element": "H" 
			},
			{
				"x": -2.938721451,
				"y": -1.9147880745,
				"z": -1.3188864688,
				"element": "H" 
			},
			{
				"x": -4.1675386709,
				"y": -1.1536656603,
				"z": -0.2727597113,
				"element": "H" 
			},
			{
				"x": -2.7587756385,
				"y": -1.9849015312,
				"z": 0.4363361418,
				"element": "H" 
			}
		],
		 "valence_orbital": [ 
			{
				"type": "occ",
				"energy": -0.30479,
				"method": "rhf"
			},
			{
				"type": "occ",
				"energy": -0.29301,
				"method": "rhf"
			},
			{
				"type": "occ",
				"energy": -0.28005,
				"method": "rhf"
			},
			{
				"type": "occ",
				"energy": -0.27021,
				"method": "rhf"
			},
			{
				"type": "occ",
				"energy": -0.26246,
				"method": "rhf"
			},
			{
				"type": "unocc",
				"energy": -0.07381,
				"method": "rhf"
			},
			{
				"type": "unocc",
				"energy": -0.04488,
				"method": "rhf"
			},
			{
				"type": "unocc",
				"energy": 0.01518,
				"method": "rhf"
			},
			{
				"type": "unocc",
				"energy": 0.05602,
				"method": "rhf"
			},
			{
				"type": "unocc",
				"energy": 0.0752,
				"method": "rhf"
			}
		],
		"cosmo_sigma_profile": { 
			"-0.025": 0.0,
			"-0.024": 0.0,
			"-0.023": 0.0,
			"-0.022": 0.0,
			"-0.021": 0.0,
			"-0.02": 0.0,
			"-0.019": 0.0,
			"-0.018": 0.0,
			"-0.017": 0.0,
			"-0.016": 0.0710023900282,
			"-0.015": 0.890590152697,
			"-0.014": 1.4637391553,
			"-0.013": 0.799007047161,
			"-0.012": 1.05578792266,
			"-0.011": 1.45479014744,
			"-0.01": 1.71003650553,
			"-0.009": 1.03952959555,
			"-0.008": 3.41321558928,
			"-0.007": 12.3854166704,
			"-0.006": 18.1636752972,
			"-0.005": 15.7758859419,
			"-0.004": 18.2092438336,
			"-0.003": 20.6299011114,
			"-0.002": 21.0746277928,
			"-0.001": 15.134172765,
			"0.0": 14.8882973459,
			"0.001": 16.142497985,
			"0.002": 11.4434207467,
			"0.003": 4.87907606493,
			"0.004": 5.00752108189,
			"0.005": 5.10887877699,
			"0.006": 5.55279970214,
			"0.007": 5.51345920058,
			"0.008": 5.77469579387,
			"0.009": 6.33164981813,
			"0.01": 10.0427815977,
			"0.011": 12.5604166194,
			"0.012": 6.07016466692,
			"0.013": 0.659414275828,
			"0.014": 0.0,
			"0.015": 0.0,
			"0.016": 0.0,
			"0.017": 0.0,
			"0.018": 0.0,
			"0.019": 0.0,
			"0.02": 0.0,
			"0.021": 0.0,
			"0.022": 0.0,
			"0.023": 0.0,
			"0.024": 0.0,
			"0.025": 0.0
		}
	}
}
