{
	 "smiles": "CC1=NN(C(C)=C1C(O)=O)C1=CC=CC=C1", 
	 "Tm": 473.15, 
	 "num_atms": 28, 
	 "gaussian": { 
		 "optdone": 1, 
		 "sigma_profile": "yes", 
		 "theory": "DFT", 
		 "functional": "B3LYP", 
		 "basiset": "6-31G**", 
		 "properties": { 
			 "R2extent": 4704.8786, 
			 "electric_dipole_moment_norm": 4.28175692678, 
			 "electric_quadrupole_moment_norm": 14.2707730432, 
			 "total_energy": -724.466706895, 
			 "HOMO_LUMO_gap": 0.20565, 
			 "cosmo_polarized_energy": -15.53, 
			 "cosmo_cavitation_energy": 31.58, 
			 "cosmo_dispersion_energy": -23.03, 
			 "cosmo_repulsion_energy": 1.77, 
			 "cosmo_total_nonelectrostatic_energy": 10.33, 
			 "SMD_solvation_energy": 5.6 
		},
		"coords": [
			{
				"x": 2.7442282875,
				"y": 2.1147620217,
				"z": 0.8295478082,
				"element": "C" 
			},
			{
				"x": 1.799020236,
				"y": 1.0659892424,
				"z": 0.3194948367,
				"element": "C" 
			},
			{
				"x": 2.301834282,
				"y": -0.0222485241,
				"z": -0.2415592925,
				"element": "N" 
			},
			{
				"x": 1.2218169586,
				"y": -0.7870504638,
				"z": -0.5897826958,
				"element": "N" 
			},
			{
				"x": 0.0362436441,
				"y": -0.1923175961,
				"z": -0.272614911,
				"element": "C" 
			},
			{
				"x": -1.3070258438,
				"y": -0.76085046,
				"z": -0.5987132752,
				"element": "C" 
			},
			{
				"x": 0.3695093918,
				"y": 1.0222892634,
				"z": 0.336106149,
				"element": "C" 
			},
			{
				"x": -0.622417898,
				"y": 1.9925289466,
				"z": 0.8357541076,
				"element": "C" 
			},
			{
				"x": -0.1446283746,
				"y": 3.1489205675,
				"z": 1.3749519721,
				"element": "O" 
			},
			{
				"x": -1.8234836454,
				"y": 1.8214973538,
				"z": 0.794351905,
				"element": "O" 
			},
			{
				"x": 1.4626970161,
				"y": -2.0286001091,
				"z": -1.2493002065,
				"element": "C" 
			},
			{
				"x": 2.4532919169,
				"y": -2.0844029151,
				"z": -2.2356737132,
				"element": "C" 
			},
			{
				"x": 2.7130981436,
				"y": -3.2916181675,
				"z": -2.880257002,
				"element": "C" 
			},
			{
				"x": 1.9871939104,
				"y": -4.4394991716,
				"z": -2.551991731,
				"element": "C" 
			},
			{
				"x": 1.0071873452,
				"y": -4.3780652152,
				"z": -1.5608691847,
				"element": "C" 
			},
			{
				"x": 0.7476029271,
				"y": -3.1774907936,
				"z": -0.8983905167,
				"element": "C" 
			},
			{
				"x": 3.7704976729,
				"y": 1.7862643584,
				"z": 0.6543888566,
				"element": "H" 
			},
			{
				"x": 2.6310132489,
				"y": 2.2825736897,
				"z": 1.9082213468,
				"element": "H" 
			},
			{
				"x": 2.6142105869,
				"y": 3.0747603594,
				"z": 0.3127176148,
				"element": "H" 
			},
			{
				"x": -1.2706711021,
				"y": -1.3695058665,
				"z": -1.5054805549,
				"element": "H" 
			},
			{
				"x": -1.6846322323,
				"y": -1.3888198526,
				"z": 0.2167831018,
				"element": "H" 
			},
			{
				"x": -2.0170561203,
				"y": 0.056880714,
				"z": -0.717254426,
				"element": "H" 
			},
			{
				"x": 0.8205832455,
				"y": 3.1743322248,
				"z": 1.3486760385,
				"element": "H" 
			},
			{
				"x": 3.0092303753,
				"y": -1.1856463468,
				"z": -2.4750981536,
				"element": "H" 
			},
			{
				"x": 3.4820110533,
				"y": -3.3335667351,
				"z": -3.6458714802,
				"element": "H" 
			},
			{
				"x": 2.1895465815,
				"y": -5.3770183324,
				"z": -3.0608823827,
				"element": "H" 
			},
			{
				"x": 0.4500348473,
				"y": -5.2690008975,
				"z": -1.2873308204,
				"element": "H" 
			},
			{
				"x": 0.0132635457,
				"y": -3.1401972946,
				"z": -0.1021233907,
				"element": "H" 
			}
		],
		 "valence_orbital": [ 
			{
				"type": "occ",
				"energy": -0.28862,
				"method": "rhf"
			},
			{
				"type": "occ",
				"energy": -0.26738,
				"method": "rhf"
			},
			{
				"type": "occ",
				"energy": -0.26147,
				"method": "rhf"
			},
			{
				"type": "occ",
				"energy": -0.25186,
				"method": "rhf"
			},
			{
				"type": "occ",
				"energy": -0.24078,
				"method": "rhf"
			},
			{
				"type": "unocc",
				"energy": -0.03513,
				"method": "rhf"
			},
			{
				"type": "unocc",
				"energy": -0.01702,
				"method": "rhf"
			},
			{
				"type": "unocc",
				"energy": -0.00806,
				"method": "rhf"
			},
			{
				"type": "unocc",
				"energy": 0.02192,
				"method": "rhf"
			},
			{
				"type": "unocc",
				"energy": 0.07003,
				"method": "rhf"
			}
		],
		"cosmo_sigma_profile": { 
			"-0.025": 0.0,
			"-0.024": 0.0,
			"-0.023": 0.0,
			"-0.022": 0.0,
			"-0.021": 0.0,
			"-0.02": 0.0,
			"-0.019": 0.0,
			"-0.018": 0.0,
			"-0.017": 0.0,
			"-0.016": 0.0,
			"-0.015": 0.0511708162346,
			"-0.014": 0.933541387265,
			"-0.013": 1.50183291224,
			"-0.012": 1.30783077296,
			"-0.011": 1.81799430576,
			"-0.01": 1.85432689713,
			"-0.009": 1.65290046122,
			"-0.008": 2.51402831969,
			"-0.007": 6.79995818766,
			"-0.006": 15.5015777631,
			"-0.005": 17.9470933139,
			"-0.004": 19.2969271639,
			"-0.003": 17.7141348191,
			"-0.002": 21.8088416874,
			"-0.001": 23.1582659012,
			"0.0": 14.7342992379,
			"0.001": 15.8273638325,
			"0.002": 14.1982955519,
			"0.003": 13.1779882904,
			"0.004": 15.9477557503,
			"0.005": 7.32314816696,
			"0.006": 4.68965597359,
			"0.007": 3.17815880837,
			"0.008": 4.11251404276,
			"0.009": 4.49339993657,
			"0.01": 4.46405774352,
			"0.011": 6.06260173868,
			"0.012": 4.84045280477,
			"0.013": 3.67936892875,
			"0.014": 1.61871418629,
			"0.015": 0.0255534319721,
			"0.016": 0.0,
			"0.017": 0.0,
			"0.018": 0.0,
			"0.019": 0.0,
			"0.02": 0.0,
			"0.021": 0.0,
			"0.022": 0.0,
			"0.023": 0.0,
			"0.024": 0.0,
			"0.025": 0.0
		}
	}
}
