{
	 "smiles": "COC1=CC2=C(C=C1OCC1=CC=CC=C1)C(C)N(C)CC2", 
	 "Tm": 355.15, 
	 "num_atms": 45, 
	 "gaussian": { 
		 "optdone": 1, 
		 "sigma_profile": "yes", 
		 "theory": "DFT", 
		 "functional": "B3LYP", 
		 "basiset": "6-31G**", 
		 "properties": { 
			 "R2extent": 8495.6528, 
			 "electric_dipole_moment_norm": 1.81076615277, 
			 "electric_quadrupole_moment_norm": 7.71327206703, 
			 "total_energy": -943.056278815, 
			 "HOMO_LUMO_gap": 0.19561, 
			 "cosmo_polarized_energy": -10.42, 
			 "cosmo_cavitation_energy": 45.57, 
			 "cosmo_dispersion_energy": -31.07, 
			 "cosmo_repulsion_energy": 2.41, 
			 "cosmo_total_nonelectrostatic_energy": 16.91, 
			 "SMD_solvation_energy": 6.35 
		},
		"coords": [
			{
				"x": 2.316672954,
				"y": -2.8161835819,
				"z": -1.6417216462,
				"element": "C" 
			},
			{
				"x": 2.3262041386,
				"y": -2.0863404526,
				"z": -0.414102376,
				"element": "O" 
			},
			{
				"x": 1.3532497771,
				"y": -1.1219503318,
				"z": -0.2887313417,
				"element": "C" 
			},
			{
				"x": 1.7269344435,
				"y": 0.214357628,
				"z": -0.2504022743,
				"element": "C" 
			},
			{
				"x": 0.7912531964,
				"y": 1.2403239726,
				"z": -0.0569000681,
				"element": "C" 
			},
			{
				"x": -0.5588577157,
				"y": 0.9086966636,
				"z": 0.091016924,
				"element": "C" 
			},
			{
				"x": -0.9404994551,
				"y": -0.4444384015,
				"z": 0.0783056299,
				"element": "C" 
			},
			{
				"x": -0.0068806491,
				"y": -1.4604352598,
				"z": -0.112505666,
				"element": "C" 
			},
			{
				"x": -0.2951070972,
				"y": -2.8027796814,
				"z": -0.1344238064,
				"element": "O" 
			},
			{
				"x": -1.6520565387,
				"y": -3.2249346197,
				"z": -0.0379860578,
				"element": "C" 
			},
			{
				"x": -2.2181094019,
				"y": -3.1806517966,
				"z": 1.3690688661,
				"element": "C" 
			},
			{
				"x": -1.3868450301,
				"y": -3.3618794487,
				"z": 2.4803404266,
				"element": "C" 
			},
			{
				"x": -1.9251131852,
				"y": -3.3744388762,
				"z": 3.7673152445,
				"element": "C" 
			},
			{
				"x": -3.2995440786,
				"y": -3.2147031103,
				"z": 3.9577970334,
				"element": "C" 
			},
			{
				"x": -4.1340185824,
				"y": -3.0361551544,
				"z": 2.8531896297,
				"element": "C" 
			},
			{
				"x": -3.5938561809,
				"y": -3.0149331507,
				"z": 1.5661384822,
				"element": "C" 
			},
			{
				"x": -1.6452068547,
				"y": 1.9664087009,
				"z": 0.2818644425,
				"element": "C" 
			},
			{
				"x": -2.6712930312,
				"y": 1.8864806037,
				"z": -0.8676370475,
				"element": "C" 
			},
			{
				"x": -1.1152089406,
				"y": 3.342441828,
				"z": 0.3564020713,
				"element": "N" 
			},
			{
				"x": -2.0395280179,
				"y": 4.2413273859,
				"z": 1.033732136,
				"element": "C" 
			},
			{
				"x": 0.2276094396,
				"y": 3.4484474634,
				"z": 0.9214373472,
				"element": "C" 
			},
			{
				"x": 1.218310192,
				"y": 2.6838791927,
				"z": 0.0495013999,
				"element": "C" 
			},
			{
				"x": 1.3913769867,
				"y": -3.3876171974,
				"z": -1.7633271659,
				"element": "H" 
			},
			{
				"x": 3.1645888962,
				"y": -3.5032386825,
				"z": -1.5951450399,
				"element": "H" 
			},
			{
				"x": 2.445663556,
				"y": -2.1431824583,
				"z": -2.4999233461,
				"element": "H" 
			},
			{
				"x": 2.7832718241,
				"y": 0.4455251928,
				"z": -0.3574455036,
				"element": "H" 
			},
			{
				"x": -1.978401771,
				"y": -0.6986744472,
				"z": 0.2580613465,
				"element": "H" 
			},
			{
				"x": -1.6320399582,
				"y": -4.2598621693,
				"z": -0.3976571639,
				"element": "H" 
			},
			{
				"x": -2.2855197807,
				"y": -2.6518138014,
				"z": -0.7284661817,
				"element": "H" 
			},
			{
				"x": -0.3186942028,
				"y": -3.4815242646,
				"z": 2.328463013,
				"element": "H" 
			},
			{
				"x": -1.2698324932,
				"y": -3.5094500653,
				"z": 4.6232565339,
				"element": "H" 
			},
			{
				"x": -3.7167545699,
				"y": -3.2251958797,
				"z": 4.96063381,
				"element": "H" 
			},
			{
				"x": -5.2034303293,
				"y": -2.9050166877,
				"z": 2.9925124661,
				"element": "H" 
			},
			{
				"x": -4.2476466353,
				"y": -2.8674353377,
				"z": 0.7089385993,
				"element": "H" 
			},
			{
				"x": -2.1695269024,
				"y": 1.7179414057,
				"z": 1.2270062073,
				"element": "H" 
			},
			{
				"x": -3.1335310956,
				"y": 0.8968064809,
				"z": -0.9179809179,
				"element": "H" 
			},
			{
				"x": -3.4744009616,
				"y": 2.6176719218,
				"z": -0.7399309125,
				"element": "H" 
			},
			{
				"x": -2.1728579956,
				"y": 2.087730372,
				"z": -1.8198112076,
				"element": "H" 
			},
			{
				"x": -1.6621947958,
				"y": 5.267313302,
				"z": 0.9748465237,
				"element": "H" 
			},
			{
				"x": -3.0208789101,
				"y": 4.2240111237,
				"z": 0.5531702431,
				"element": "H" 
			},
			{
				"x": -2.1837755967,
				"y": 3.9913829422,
				"z": 2.1032065559,
				"element": "H" 
			},
			{
				"x": 0.2805579649,
				"y": 3.072689051,
				"z": 1.9630342526,
				"element": "H" 
			},
			{
				"x": 0.49310701,
				"y": 4.5112544489,
				"z": 0.9523984619,
				"element": "H" 
			},
			{
				"x": 2.2264689771,
				"y": 2.749743313,
				"z": 0.4747401454,
				"element": "H" 
			},
			{
				"x": 1.2527414014,
				"y": 3.1569018641,
				"z": -0.9409800689,
				"element": "H" 
			}
		],
		 "valence_orbital": [ 
			{
				"type": "occ",
				"energy": -0.25154,
				"method": "rhf"
			},
			{
				"type": "occ",
				"energy": -0.24583,
				"method": "rhf"
			},
			{
				"type": "occ",
				"energy": -0.23024,
				"method": "rhf"
			},
			{
				"type": "occ",
				"energy": -0.20647,
				"method": "rhf"
			},
			{
				"type": "occ",
				"energy": -0.20239,
				"method": "rhf"
			},
			{
				"type": "unocc",
				"energy": -0.00678,
				"method": "rhf"
			},
			{
				"type": "unocc",
				"energy": -0.00407,
				"method": "rhf"
			},
			{
				"type": "unocc",
				"energy": 0.00708,
				"method": "rhf"
			},
			{
				"type": "unocc",
				"energy": 0.01926,
				"method": "rhf"
			},
			{
				"type": "unocc",
				"energy": 0.08622,
				"method": "rhf"
			}
		],
		"cosmo_sigma_profile": { 
			"-0.025": 0.0,
			"-0.024": 0.0,
			"-0.023": 0.0,
			"-0.022": 0.0,
			"-0.021": 0.0,
			"-0.02": 0.0,
			"-0.019": 0.0,
			"-0.018": 0.0,
			"-0.017": 0.0,
			"-0.016": 0.0,
			"-0.015": 0.0,
			"-0.014": 0.0,
			"-0.013": 0.0,
			"-0.012": 0.0,
			"-0.011": 0.0,
			"-0.01": 0.0,
			"-0.009": 0.0,
			"-0.008": 0.0,
			"-0.007": 0.845855445143,
			"-0.006": 11.0153028692,
			"-0.005": 21.2615718046,
			"-0.004": 31.7726330174,
			"-0.003": 38.0623915575,
			"-0.002": 38.9418796632,
			"-0.001": 46.1002102199,
			"0.0": 37.8696357948,
			"0.001": 25.8222472544,
			"0.002": 20.0209565792,
			"0.003": 17.9400889272,
			"0.004": 18.0686546037,
			"0.005": 19.9102912647,
			"0.006": 13.4041424338,
			"0.007": 3.24875234424,
			"0.008": 2.60740420573,
			"0.009": 2.33167615625,
			"0.01": 2.67103767744,
			"0.011": 2.72451674024,
			"0.012": 2.19919669463,
			"0.013": 0.894503596142,
			"0.014": 0.413938030544,
			"0.015": 0.253010435868,
			"0.016": 0.145287396234,
			"0.017": 0.0,
			"0.018": 0.0,
			"0.019": 0.0,
			"0.02": 0.0,
			"0.021": 0.0,
			"0.022": 0.0,
			"0.023": 0.0,
			"0.024": 0.0,
			"0.025": 0.0
		}
	}
}
