{
	 "smiles": "NC1=C(C#N)C(C2=C(NN=C2C(F)(F)F)O1)C1=CC=C(Cl)C=C1", 
	 "Tm": 294.15, 
	 "num_atms": 31, 
	 "gaussian": { 
		 "optdone": 1, 
		 "sigma_profile": "yes", 
		 "theory": "DFT", 
		 "functional": "B3LYP", 
		 "basiset": "6-31G**", 
		 "properties": { 
			 "R2extent": 7864.7505, 
			 "electric_dipole_moment_norm": 6.78418274371, 
			 "electric_quadrupole_moment_norm": 26.6106009015, 
			 "total_energy": -1592.20002792, 
			 "HOMO_LUMO_gap": 0.19794, 
			 "cosmo_polarized_energy": -23.3, 
			 "cosmo_cavitation_energy": 40.18, 
			 "cosmo_dispersion_energy": -26.89, 
			 "cosmo_repulsion_energy": 2.02, 
			 "cosmo_total_nonelectrostatic_energy": 15.32, 
			 "SMD_solvation_energy": 8.11 
		},
		"coords": [
			{
				"x": 1.5949715445,
				"y": 1.0768366687,
				"z": 3.5300392643,
				"element": "N" 
			},
			{
				"x": 1.507080162,
				"y": 0.5628937144,
				"z": 2.2699657767,
				"element": "C" 
			},
			{
				"x": 0.4371547484,
				"y": -0.1033922897,
				"z": 1.7363761235,
				"element": "C" 
			},
			{
				"x": -0.7102223679,
				"y": -0.2100893417,
				"z": 2.5658757562,
				"element": "C" 
			},
			{
				"x": -1.6300190192,
				"y": -0.2775335457,
				"z": 3.2808306962,
				"element": "N" 
			},
			{
				"x": 0.3974862274,
				"y": -0.737785384,
				"z": 0.3388839907,
				"element": "C" 
			},
			{
				"x": 1.7583551611,
				"y": -0.5291704909,
				"z": -0.2691154821,
				"element": "C" 
			},
			{
				"x": 2.7385054811,
				"y": 0.1809512422,
				"z": 0.3742716459,
				"element": "C" 
			},
			{
				"x": 3.8459596291,
				"y": 0.204473,
				"z": -0.401680616,
				"element": "N" 
			},
			{
				"x": 3.6525351366,
				"y": -0.4758669925,
				"z": -1.556331997,
				"element": "N" 
			},
			{
				"x": 2.3999862366,
				"y": -0.9168394905,
				"z": -1.4743621449,
				"element": "C" 
			},
			{
				"x": 1.8019805063,
				"y": -1.7006065589,
				"z": -2.602335502,
				"element": "C" 
			},
			{
				"x": 2.7373927796,
				"y": -2.2678401657,
				"z": -3.3768110059,
				"element": "F" 
			},
			{
				"x": 1.0070074686,
				"y": -2.6859994765,
				"z": -2.1123994616,
				"element": "F" 
			},
			{
				"x": 1.0255222449,
				"y": -0.9278710967,
				"z": -3.3904739369,
				"element": "F" 
			},
			{
				"x": 2.6933748148,
				"y": 0.7635335091,
				"z": 1.5996570912,
				"element": "O" 
			},
			{
				"x": -0.7360841327,
				"y": -0.1759800345,
				"z": -0.5246569704,
				"element": "C" 
			},
			{
				"x": -1.6759097453,
				"y": -1.0356216699,
				"z": -1.0991633892,
				"element": "C" 
			},
			{
				"x": -2.7103983831,
				"y": -0.543094805,
				"z": -1.8963522763,
				"element": "C" 
			},
			{
				"x": -2.7985174449,
				"y": 0.8288059678,
				"z": -2.1179840688,
				"element": "C" 
			},
			{
				"x": -4.0964232233,
				"y": 1.4643939387,
				"z": -3.1185209047,
				"element": "Cl" 
			},
			{
				"x": -1.8725415848,
				"y": 1.7094220039,
				"z": -1.5565459417,
				"element": "C" 
			},
			{
				"x": -0.8481608445,
				"y": 1.1990645432,
				"z": -0.7634760001,
				"element": "C" 
			},
			{
				"x": 0.7343100417,
				"y": 1.1454052131,
				"z": 4.0545325407,
				"element": "H" 
			},
			{
				"x": 2.2685461629,
				"y": 1.8148881201,
				"z": 3.6724096642,
				"element": "H" 
			},
			{
				"x": 0.2128694142,
				"y": -1.8140950151,
				"z": 0.4484285354,
				"element": "H" 
			},
			{
				"x": 4.7414731582,
				"y": 0.6256024391,
				"z": -0.2069433126,
				"element": "H" 
			},
			{
				"x": -1.6013015106,
				"y": -2.1058750739,
				"z": -0.9295951905,
				"element": "H" 
			},
			{
				"x": -3.4375488895,
				"y": -1.2149380174,
				"z": -2.3383996496,
				"element": "H" 
			},
			{
				"x": -1.9568085666,
				"y": 2.7751017651,
				"z": -1.7383967456,
				"element": "H" 
			},
			{
				"x": -0.1290752058,
				"y": 1.8831273237,
				"z": -0.3213264888,
				"element": "H" 
			}
		],
		 "valence_orbital": [ 
			{
				"type": "occ",
				"energy": -0.29113,
				"method": "rhf"
			},
			{
				"type": "occ",
				"energy": -0.26673,
				"method": "rhf"
			},
			{
				"type": "occ",
				"energy": -0.26192,
				"method": "rhf"
			},
			{
				"type": "occ",
				"energy": -0.24423,
				"method": "rhf"
			},
			{
				"type": "occ",
				"energy": -0.23323,
				"method": "rhf"
			},
			{
				"type": "unocc",
				"energy": -0.03529,
				"method": "rhf"
			},
			{
				"type": "unocc",
				"energy": -0.01828,
				"method": "rhf"
			},
			{
				"type": "unocc",
				"energy": -0.0129,
				"method": "rhf"
			},
			{
				"type": "unocc",
				"energy": -0.0062,
				"method": "rhf"
			},
			{
				"type": "unocc",
				"energy": 0.02022,
				"method": "rhf"
			}
		],
		"cosmo_sigma_profile": { 
			"-0.025": 0.0,
			"-0.024": 0.0,
			"-0.023": 0.0,
			"-0.022": 0.0,
			"-0.021": 0.0,
			"-0.02": 0.0,
			"-0.019": 0.182007420258,
			"-0.018": 1.70589562882,
			"-0.017": 1.46011515818,
			"-0.016": 1.87377577738,
			"-0.015": 2.59573714319,
			"-0.014": 2.23056643075,
			"-0.013": 3.5190305653,
			"-0.012": 3.14656177609,
			"-0.011": 2.70520772246,
			"-0.01": 2.31944761671,
			"-0.009": 2.37766758553,
			"-0.008": 3.71412518248,
			"-0.007": 9.90190129951,
			"-0.006": 12.761672722,
			"-0.005": 13.6871139589,
			"-0.004": 13.3999093141,
			"-0.003": 14.67045506,
			"-0.002": 17.5988112017,
			"-0.001": 17.9309337098,
			"0.0": 22.456789639,
			"0.001": 26.9896344941,
			"0.002": 37.6920316693,
			"0.003": 43.319695265,
			"0.004": 22.0046642847,
			"0.005": 11.0574036327,
			"0.006": 3.92781341938,
			"0.007": 4.56986482064,
			"0.008": 4.00024785305,
			"0.009": 4.1612593665,
			"0.01": 4.63240499188,
			"0.011": 4.32616575002,
			"0.012": 3.79757749978,
			"0.013": 3.49675851883,
			"0.014": 1.53062701187,
			"0.015": 0.0,
			"0.016": 0.0,
			"0.017": 0.0,
			"0.018": 0.0,
			"0.019": 0.0,
			"0.02": 0.0,
			"0.021": 0.0,
			"0.022": 0.0,
			"0.023": 0.0,
			"0.024": 0.0,
			"0.025": 0.0
		}
	}
}
