{
	 "smiles": "ClC1=C(Cl)C2(Cl)C3C(C4C(C5=C3C=CC=C5)C3(Cl)C(Cl)=C(Cl)C4(Cl)C3(Cl)Cl)C1(Cl)C2(Cl)Cl", 
	 "Tm": 491.15, 
	 "num_atms": 40, 
	 "gaussian": { 
		 "optdone": 1, 
		 "sigma_profile": "yes", 
		 "theory": "DFT", 
		 "functional": "B3LYP", 
		 "basiset": "6-31G**", 
		 "properties": { 
			 "R2extent": 21899.7119, 
			 "electric_dipole_moment_norm": 2.3108551534, 
			 "electric_quadrupole_moment_norm": 12.4568108583, 
			 "total_energy": -6289.10784592, 
			 "HOMO_LUMO_gap": 0.20411, 
			 "cosmo_polarized_energy": -9.92, 
			 "cosmo_cavitation_energy": 56.71, 
			 "cosmo_dispersion_energy": -37.35, 
			 "cosmo_repulsion_energy": 2.71, 
			 "cosmo_total_nonelectrostatic_energy": 22.07, 
			 "SMD_solvation_energy": 5.65 
		},
		"coords": [
			{
				"x": 4.1971054961,
				"y": 0.3994582419,
				"z": -3.4293697185,
				"element": "Cl" 
			},
			{
				"x": 3.073832144,
				"y": 1.3605222412,
				"z": -2.5680343898,
				"element": "C" 
			},
			{
				"x": 1.9219783747,
				"y": 1.8860546069,
				"z": -3.0121690791,
				"element": "C" 
			},
			{
				"x": 1.273424133,
				"y": 1.7917855187,
				"z": -4.5960858125,
				"element": "Cl" 
			},
			{
				"x": 1.2339277164,
				"y": 2.572532407,
				"z": -1.8264108438,
				"element": "C" 
			},
			{
				"x": 0.0461330725,
				"y": 3.8350834879,
				"z": -2.2262509808,
				"element": "Cl" 
			},
			{
				"x": 0.7438249857,
				"y": 1.5163382452,
				"z": -0.8008167608,
				"element": "C" 
			},
			{
				"x": 2.0319837663,
				"y": 0.6815139937,
				"z": -0.4795434837,
				"element": "C" 
			},
			{
				"x": 1.8738798991,
				"y": 0.2357435082,
				"z": 0.9772706125,
				"element": "C" 
			},
			{
				"x": 0.3370608143,
				"y": -0.2134966652,
				"z": 1.2877164113,
				"element": "C" 
			},
			{
				"x": -0.5835987852,
				"y": -0.3497005794,
				"z": 0.0484901022,
				"element": "C" 
			},
			{
				"x": -0.4000725422,
				"y": 0.5735975618,
				"z": -1.0093325649,
				"element": "C" 
			},
			{
				"x": -1.2375873496,
				"y": 0.5696760483,
				"z": -2.1248622883,
				"element": "C" 
			},
			{
				"x": -2.2866790432,
				"y": -0.3436568797,
				"z": -2.2141596986,
				"element": "C" 
			},
			{
				"x": -2.490960198,
				"y": -1.2470359071,
				"z": -1.176403395,
				"element": "C" 
			},
			{
				"x": -1.6532556467,
				"y": -1.2471461812,
				"z": -0.0595221204,
				"element": "C" 
			},
			{
				"x": 0.5918230433,
				"y": -1.4384484027,
				"z": 2.2583096227,
				"element": "C" 
			},
			{
				"x": -0.7853556404,
				"y": -2.4451961346,
				"z": 2.7899156148,
				"element": "Cl" 
			},
			{
				"x": 1.3580379178,
				"y": -0.8750496979,
				"z": 3.4694931513,
				"element": "C" 
			},
			{
				"x": 0.6216521763,
				"y": -0.4815190722,
				"z": 4.9672938548,
				"element": "Cl" 
			},
			{
				"x": 2.6251478012,
				"y": -0.6528526889,
				"z": 3.1015883259,
				"element": "C" 
			},
			{
				"x": 3.8840409797,
				"y": 0.0728368175,
				"z": 4.0037153344,
				"element": "Cl" 
			},
			{
				"x": 2.7113461054,
				"y": -0.9666023874,
				"z": 1.6064123098,
				"element": "C" 
			},
			{
				"x": 4.3303477252,
				"y": -1.3075592644,
				"z": 0.9763865088,
				"element": "Cl" 
			},
			{
				"x": 1.7579048443,
				"y": -2.20247376,
				"z": 1.5570976495,
				"element": "C" 
			},
			{
				"x": 1.4163077503,
				"y": -2.7769844955,
				"z": -0.1039537191,
				"element": "Cl" 
			},
			{
				"x": 2.3628843486,
				"y": -3.6104756352,
				"z": 2.4918663456,
				"element": "Cl" 
			},
			{
				"x": 3.1693096407,
				"y": 1.6498834479,
				"z": -1.0606914662,
				"element": "C" 
			},
			{
				"x": 4.80328044,
				"y": 1.6318742374,
				"z": -0.3773089494,
				"element": "Cl" 
			},
			{
				"x": 2.5201555584,
				"y": 3.076144711,
				"z": -1.0702215086,
				"element": "C" 
			},
			{
				"x": 3.4536592583,
				"y": 4.3027208717,
				"z": -1.9826120586,
				"element": "Cl" 
			},
			{
				"x": 2.2395823843,
				"y": 3.7589908781,
				"z": 0.5729621884,
				"element": "Cl" 
			},
			{
				"x": 0.5030750359,
				"y": 2.1050869968,
				"z": 0.0895549864,
				"element": "H" 
			},
			{
				"x": 2.0486551441,
				"y": -0.2036090029,
				"z": -1.1161784011,
				"element": "H" 
			},
			{
				"x": 2.0907946938,
				"y": 1.1023685686,
				"z": 1.6025892045,
				"element": "H" 
			},
			{
				"x": -0.1032173921,
				"y": 0.5745705448,
				"z": 1.9091570106,
				"element": "H" 
			},
			{
				"x": -1.0783414594,
				"y": 1.2870543197,
				"z": -2.9209425176,
				"element": "H" 
			},
			{
				"x": -2.9365276999,
				"y": -0.3416356798,
				"z": -3.0839134345,
				"element": "H" 
			},
			{
				"x": -3.3062722209,
				"y": -1.9626843349,
				"z": -1.2244440504,
				"element": "H" 
			},
			{
				"x": -1.8466872722,
				"y": -1.9666104853,
				"z": 0.7190080081,
				"element": "H" 
			}
		],
		 "valence_orbital": [ 
			{
				"type": "occ",
				"energy": -0.30287,
				"method": "rhf"
			},
			{
				"type": "occ",
				"energy": -0.26932,
				"method": "rhf"
			},
			{
				"type": "occ",
				"energy": -0.26767,
				"method": "rhf"
			},
			{
				"type": "occ",
				"energy": -0.26111,
				"method": "rhf"
			},
			{
				"type": "occ",
				"energy": -0.25636,
				"method": "rhf"
			},
			{
				"type": "unocc",
				"energy": -0.05225,
				"method": "rhf"
			},
			{
				"type": "unocc",
				"energy": -0.05141,
				"method": "rhf"
			},
			{
				"type": "unocc",
				"energy": -0.04558,
				"method": "rhf"
			},
			{
				"type": "unocc",
				"energy": -0.04338,
				"method": "rhf"
			},
			{
				"type": "unocc",
				"energy": -0.02456,
				"method": "rhf"
			}
		],
		"cosmo_sigma_profile": { 
			"-0.025": 0.0,
			"-0.024": 0.0,
			"-0.023": 0.0,
			"-0.022": 0.0,
			"-0.021": 0.0,
			"-0.02": 0.0,
			"-0.019": 0.0,
			"-0.018": 0.0,
			"-0.017": 0.0,
			"-0.016": 0.0,
			"-0.015": 0.0,
			"-0.014": 0.0,
			"-0.013": 0.0,
			"-0.012": 0.00220734015431,
			"-0.011": 0.676399937681,
			"-0.01": 1.88107494275,
			"-0.009": 3.05924170187,
			"-0.008": 4.39865853661,
			"-0.007": 5.89291669426,
			"-0.006": 9.6346952116,
			"-0.005": 16.4897354654,
			"-0.004": 26.8269577808,
			"-0.003": 32.1834330982,
			"-0.002": 33.2655860284,
			"-0.001": 41.4719915204,
			"0.0": 50.6919638126,
			"0.001": 57.6372202949,
			"0.002": 82.8388046733,
			"0.003": 74.832866262,
			"0.004": 31.0644302972,
			"0.005": 5.55746785426,
			"0.006": 0.00629971457937,
			"0.007": 0.0,
			"0.008": 0.0,
			"0.009": 0.0,
			"0.01": 0.0,
			"0.011": 0.0,
			"0.012": 0.0,
			"0.013": 0.0,
			"0.014": 0.0,
			"0.015": 0.0,
			"0.016": 0.0,
			"0.017": 0.0,
			"0.018": 0.0,
			"0.019": 0.0,
			"0.02": 0.0,
			"0.021": 0.0,
			"0.022": 0.0,
			"0.023": 0.0,
			"0.024": 0.0,
			"0.025": 0.0
		}
	}
}
