{
	 "smiles": "FC1=C(F)C=C(C=C1)C1=NC(CCl)=CO1", 
	 "Tm": 333.15, 
	 "num_atms": 21, 
	 "gaussian": { 
		 "optdone": 1, 
		 "sigma_profile": "yes", 
		 "theory": "DFT", 
		 "functional": "B3LYP", 
		 "basiset": "6-31G**", 
		 "properties": { 
			 "R2extent": 5601.5318, 
			 "electric_dipole_moment_norm": 2.32807333647, 
			 "electric_quadrupole_moment_norm": 17.2559635729, 
			 "total_energy": -1174.50290899, 
			 "HOMO_LUMO_gap": 0.17836, 
			 "cosmo_polarized_energy": -9.36, 
			 "cosmo_cavitation_energy": 29.54, 
			 "cosmo_dispersion_energy": -21.41, 
			 "cosmo_repulsion_energy": 1.64, 
			 "cosmo_total_nonelectrostatic_energy": 9.77, 
			 "SMD_solvation_energy": 4.97 
		},
		"coords": [
			{
				"x": 3.4669388326,
				"y": 3.065063531,
				"z": 3.3005078292,
				"element": "F" 
			},
			{
				"x": 2.5916677341,
				"y": 2.2587349259,
				"z": 2.6815609368,
				"element": "C" 
			},
			{
				"x": 1.603192268,
				"y": 1.6250920715,
				"z": 3.4365440696,
				"element": "C" 
			},
			{
				"x": 1.5577806803,
				"y": 1.8420073811,
				"z": 4.7610672546,
				"element": "F" 
			},
			{
				"x": 0.6819751421,
				"y": 0.7858221297,
				"z": 2.8327700444,
				"element": "C" 
			},
			{
				"x": 0.7496740595,
				"y": 0.5752427884,
				"z": 1.4456872276,
				"element": "C" 
			},
			{
				"x": 1.7453798038,
				"y": 1.2132160849,
				"z": 0.6892321937,
				"element": "C" 
			},
			{
				"x": 2.6652683589,
				"y": 2.0547399895,
				"z": 1.3088505959,
				"element": "C" 
			},
			{
				"x": -0.2030315263,
				"y": -0.3018046748,
				"z": 0.7739107971,
				"element": "C" 
			},
			{
				"x": -0.283087373,
				"y": -0.583293746,
				"z": -0.4948911589,
				"element": "N" 
			},
			{
				"x": -1.3566303184,
				"y": -1.455776616,
				"z": -0.6031170831,
				"element": "C" 
			},
			{
				"x": -1.7903918795,
				"y": -2.0187201719,
				"z": -1.9053136969,
				"element": "C" 
			},
			{
				"x": -0.7725127188,
				"y": -3.4511095593,
				"z": -2.4262727622,
				"element": "Cl" 
			},
			{
				"x": -1.8833315131,
				"y": -1.6599188446,
				"z": 0.6355456778,
				"element": "C" 
			},
			{
				"x": -1.1564895062,
				"y": -0.9269611473,
				"z": 1.5295529536,
				"element": "O" 
			},
			{
				"x": -0.0751417695,
				"y": 0.3059406386,
				"z": 3.4414897165,
				"element": "H" 
			},
			{
				"x": 1.7870508246,
				"y": 1.0395673341,
				"z": -0.3797604154,
				"element": "H" 
			},
			{
				"x": 3.4436425253,
				"y": 2.5579283072,
				"z": 0.7457205609,
				"element": "H" 
			},
			{
				"x": -1.6854195662,
				"y": -1.2805764064,
				"z": -2.6997828958,
				"element": "H" 
			},
			{
				"x": -2.8177978355,
				"y": -2.379641865,
				"z": -1.8663305694,
				"element": "H" 
			},
			{
				"x": -2.6991362228,
				"y": -2.2438521507,
				"z": 1.0300287241,
				"element": "H" 
			}
		],
		 "valence_orbital": [ 
			{
				"type": "occ",
				"energy": -0.30082,
				"method": "rhf"
			},
			{
				"type": "occ",
				"energy": -0.29618,
				"method": "rhf"
			},
			{
				"type": "occ",
				"energy": -0.28885,
				"method": "rhf"
			},
			{
				"type": "occ",
				"energy": -0.26877,
				"method": "rhf"
			},
			{
				"type": "occ",
				"energy": -0.23441,
				"method": "rhf"
			},
			{
				"type": "unocc",
				"energy": -0.05605,
				"method": "rhf"
			},
			{
				"type": "unocc",
				"energy": -0.02201,
				"method": "rhf"
			},
			{
				"type": "unocc",
				"energy": -0.01661,
				"method": "rhf"
			},
			{
				"type": "unocc",
				"energy": 0.04366,
				"method": "rhf"
			},
			{
				"type": "unocc",
				"energy": 0.0656,
				"method": "rhf"
			}
		],
		"cosmo_sigma_profile": { 
			"-0.025": 0.0,
			"-0.024": 0.0,
			"-0.023": 0.0,
			"-0.022": 0.0,
			"-0.021": 0.0,
			"-0.02": 0.0,
			"-0.019": 0.0,
			"-0.018": 0.0,
			"-0.017": 0.0,
			"-0.016": 0.0,
			"-0.015": 0.0,
			"-0.014": 0.0,
			"-0.013": 0.0,
			"-0.012": 0.0,
			"-0.011": 1.01933283359,
			"-0.01": 1.96725640137,
			"-0.009": 4.06407651229,
			"-0.008": 8.77377667234,
			"-0.007": 9.43242094545,
			"-0.006": 8.73283567792,
			"-0.005": 9.83791429254,
			"-0.004": 7.86059746777,
			"-0.003": 9.43067925043,
			"-0.002": 16.0102183264,
			"-0.001": 22.1551508226,
			"0.0": 26.3889205286,
			"0.001": 22.5330227419,
			"0.002": 17.4194236325,
			"0.003": 25.3675277134,
			"0.004": 18.6428991067,
			"0.005": 7.53319079506,
			"0.006": 12.3455432692,
			"0.007": 5.87405210992,
			"0.008": 1.46153012874,
			"0.009": 0.992084805067,
			"0.01": 0.907402719459,
			"0.011": 0.748470384141,
			"0.012": 0.950861132866,
			"0.013": 0.55722598946,
			"0.014": 0.00285159714175,
			"0.015": 0.0,
			"0.016": 0.0,
			"0.017": 0.0,
			"0.018": 0.0,
			"0.019": 0.0,
			"0.02": 0.0,
			"0.021": 0.0,
			"0.022": 0.0,
			"0.023": 0.0,
			"0.024": 0.0,
			"0.025": 0.0
		}
	}
}
