{
	 "smiles": "COC(=O)C1=CC(=C(C)C(C)=C1)S(Cl)(=O)=O", 
	 "Tm": 335.15, 
	 "num_atms": 27, 
	 "gaussian": { 
		 "optdone": 1, 
		 "sigma_profile": "yes", 
		 "theory": "DFT", 
		 "functional": "B3LYP", 
		 "basiset": "6-31G**", 
		 "properties": { 
			 "R2extent": 6029.7174, 
			 "electric_dipole_moment_norm": 7.00455776905, 
			 "electric_quadrupole_moment_norm": 12.309167361, 
			 "total_energy": -1546.92190698, 
			 "HOMO_LUMO_gap": 0.1832, 
			 "cosmo_polarized_energy": -12.19, 
			 "cosmo_cavitation_energy": 34.05, 
			 "cosmo_dispersion_energy": -24.99, 
			 "cosmo_repulsion_energy": 1.9, 
			 "cosmo_total_nonelectrostatic_energy": 10.96, 
			 "SMD_solvation_energy": 6.22 
		},
		"coords": [
			{
				"x": -2.6791377185,
				"y": -0.0394507539,
				"z": -3.7826505225,
				"element": "C" 
			},
			{
				"x": -1.7778444119,
				"y": 0.303520728,
				"z": -2.7158046972,
				"element": "O" 
			},
			{
				"x": -2.0480770443,
				"y": -0.2769343298,
				"z": -1.5270737737,
				"element": "C" 
			},
			{
				"x": -2.9775916477,
				"y": -1.0368076469,
				"z": -1.3461154663,
				"element": "O" 
			},
			{
				"x": -1.075688014,
				"y": 0.1237026369,
				"z": -0.4678725042,
				"element": "C" 
			},
			{
				"x": -1.2484629836,
				"y": -0.4107780232,
				"z": 0.8082521233,
				"element": "C" 
			},
			{
				"x": -0.3509126552,
				"y": -0.0519372094,
				"z": 1.8100958551,
				"element": "C" 
			},
			{
				"x": 0.724542948,
				"y": 0.8395343459,
				"z": 1.610983146,
				"element": "C" 
			},
			{
				"x": 1.680646778,
				"y": 1.2278373421,
				"z": 2.7132272409,
				"element": "C" 
			},
			{
				"x": 0.8863717682,
				"y": 1.3597034857,
				"z": 0.3053005125,
				"element": "C" 
			},
			{
				"x": 2.0199237129,
				"y": 2.3044028943,
				"z": -0.0283561635,
				"element": "C" 
			},
			{
				"x": -0.0105071165,
				"y": 0.9966705299,
				"z": -0.7045174754,
				"element": "C" 
			},
			{
				"x": -0.6306237356,
				"y": -0.8640296664,
				"z": 3.3918725233,
				"element": "S" 
			},
			{
				"x": -1.4526130263,
				"y": 0.7355148024,
				"z": 4.5611917721,
				"element": "Cl" 
			},
			{
				"x": -1.7018882225,
				"y": -1.8404689555,
				"z": 3.2488512875,
				"element": "O" 
			},
			{
				"x": 0.6390699522,
				"y": -1.213697481,
				"z": 4.0180268894,
				"element": "O" 
			},
			{
				"x": -2.6616286251,
				"y": -1.1162048406,
				"z": -3.9671747952,
				"element": "H" 
			},
			{
				"x": -3.6997960057,
				"y": 0.2594268524,
				"z": -3.5322659204,
				"element": "H" 
			},
			{
				"x": -2.3215765263,
				"y": 0.5063507436,
				"z": -4.6553449365,
				"element": "H" 
			},
			{
				"x": -2.0653896447,
				"y": -1.0951928111,
				"z": 1.0016659831,
				"element": "H" 
			},
			{
				"x": 2.4365035266,
				"y": 0.4489663183,
				"z": 2.8608592437,
				"element": "H" 
			},
			{
				"x": 1.1740975289,
				"y": 1.3578259995,
				"z": 3.6703331019,
				"element": "H" 
			},
			{
				"x": 2.1940111352,
				"y": 2.159018276,
				"z": 2.4741349953,
				"element": "H" 
			},
			{
				"x": 2.0169419049,
				"y": 2.5433964144,
				"z": -1.0942819841,
				"element": "H" 
			},
			{
				"x": 2.9959682781,
				"y": 1.8711866007,
				"z": 0.21383695,
				"element": "H" 
			},
			{
				"x": 1.9389080906,
				"y": 3.2487636281,
				"z": 0.5219124622,
				"element": "H" 
			},
			{
				"x": 0.1205517542,
				"y": 1.4025801195,
				"z": -1.7014858474,
				"element": "H" 
			}
		],
		 "valence_orbital": [ 
			{
				"type": "occ",
				"energy": -0.31559,
				"method": "rhf"
			},
			{
				"type": "occ",
				"energy": -0.31254,
				"method": "rhf"
			},
			{
				"type": "occ",
				"energy": -0.28855,
				"method": "rhf"
			},
			{
				"type": "occ",
				"energy": -0.28661,
				"method": "rhf"
			},
			{
				"type": "occ",
				"energy": -0.2726,
				"method": "rhf"
			},
			{
				"type": "unocc",
				"energy": -0.0894,
				"method": "rhf"
			},
			{
				"type": "unocc",
				"energy": -0.06688,
				"method": "rhf"
			},
			{
				"type": "unocc",
				"energy": -0.04023,
				"method": "rhf"
			},
			{
				"type": "unocc",
				"energy": 0.0218,
				"method": "rhf"
			},
			{
				"type": "unocc",
				"energy": 0.0604,
				"method": "rhf"
			}
		],
		"cosmo_sigma_profile": { 
			"-0.025": 0.0,
			"-0.024": 0.0,
			"-0.023": 0.0,
			"-0.022": 0.0,
			"-0.021": 0.0,
			"-0.02": 0.0,
			"-0.019": 0.0,
			"-0.018": 0.0,
			"-0.017": 0.0,
			"-0.016": 0.0,
			"-0.015": 0.0,
			"-0.014": 0.0,
			"-0.013": 0.0,
			"-0.012": 0.0,
			"-0.011": 0.0,
			"-0.01": 0.0,
			"-0.009": 0.0,
			"-0.008": 0.300530333576,
			"-0.007": 3.45413471684,
			"-0.006": 11.5046305171,
			"-0.005": 19.3567626893,
			"-0.004": 25.4827584271,
			"-0.003": 27.9820573617,
			"-0.002": 28.523147786,
			"-0.001": 32.8741246811,
			"0.0": 25.2210454252,
			"0.001": 16.4953290204,
			"0.002": 13.4216204457,
			"0.003": 14.5257818134,
			"0.004": 12.6776367368,
			"0.005": 6.16629705711,
			"0.006": 4.89608028664,
			"0.007": 7.43760188783,
			"0.008": 10.0251468644,
			"0.009": 5.26745008746,
			"0.01": 2.25176583972,
			"0.011": 4.05276130269,
			"0.012": 1.90483809489,
			"0.013": 0.0,
			"0.014": 0.0,
			"0.015": 0.0,
			"0.016": 0.0,
			"0.017": 0.0,
			"0.018": 0.0,
			"0.019": 0.0,
			"0.02": 0.0,
			"0.021": 0.0,
			"0.022": 0.0,
			"0.023": 0.0,
			"0.024": 0.0,
			"0.025": 0.0
		}
	}
}
