{
	 "smiles": "NC1=CC=C(OC2=CC=C(C=C2)C#N)C=C1", 
	 "Tm": 384.15, 
	 "num_atms": 26, 
	 "gaussian": { 
		 "optdone": 1, 
		 "sigma_profile": "yes", 
		 "theory": "DFT", 
		 "functional": "B3LYP", 
		 "basiset": "6-31G**", 
		 "properties": { 
			 "R2extent": 5827.0586, 
			 "electric_dipole_moment_norm": 7.82286898523, 
			 "electric_quadrupole_moment_norm": 24.2047083787, 
			 "total_energy": -686.115306153, 
			 "HOMO_LUMO_gap": 0.17841, 
			 "cosmo_polarized_energy": -15.0, 
			 "cosmo_cavitation_energy": 32.22, 
			 "cosmo_dispersion_energy": -22.64, 
			 "cosmo_repulsion_energy": 1.77, 
			 "cosmo_total_nonelectrostatic_energy": 11.35, 
			 "SMD_solvation_energy": 7.04 
		},
		"coords": [
			{
				"x": -3.4770652295,
				"y": -2.0415271601,
				"z": 0.8238318315,
				"element": "N" 
			},
			{
				"x": -2.2504217964,
				"y": -1.4391428516,
				"z": 1.1030763193,
				"element": "C" 
			},
			{
				"x": -1.1144299922,
				"y": -2.2186672008,
				"z": 1.3869202202,
				"element": "C" 
			},
			{
				"x": 0.1231600089,
				"y": -1.6203649402,
				"z": 1.6086702102,
				"element": "C" 
			},
			{
				"x": 0.2435004855,
				"y": -0.233097537,
				"z": 1.5490577102,
				"element": "C" 
			},
			{
				"x": 1.4653000723,
				"y": 0.3706693534,
				"z": 1.8518752364,
				"element": "O" 
			},
			{
				"x": 2.3619639354,
				"y": 0.6276458308,
				"z": 0.8523482283,
				"element": "C" 
			},
			{
				"x": 2.1432507811,
				"y": 0.3204641288,
				"z": -0.4966441718,
				"element": "C" 
			},
			{
				"x": 3.1236461812,
				"y": 0.6247671689,
				"z": -1.4356891566,
				"element": "C" 
			},
			{
				"x": 4.3265283236,
				"y": 1.2350472092,
				"z": -1.0448484517,
				"element": "C" 
			},
			{
				"x": 4.5337420488,
				"y": 1.5385771278,
				"z": 0.314487204,
				"element": "C" 
			},
			{
				"x": 3.5600802025,
				"y": 1.2374242201,
				"z": 1.2540118535,
				"element": "C" 
			},
			{
				"x": 5.3306042577,
				"y": 1.5450672194,
				"z": -2.0170803918,
				"element": "C" 
			},
			{
				"x": 6.1473897293,
				"y": 1.7974030529,
				"z": -2.8071125517,
				"element": "N" 
			},
			{
				"x": -0.8704567541,
				"y": 0.5580814445,
				"z": 1.2738254235,
				"element": "C" 
			},
			{
				"x": -2.1078146596,
				"y": -0.040643705,
				"z": 1.0520398264,
				"element": "C" 
			},
			{
				"x": -4.289537698,
				"y": -1.4597433889,
				"z": 0.9740005186,
				"element": "H" 
			},
			{
				"x": -3.6008746287,
				"y": -2.9690942955,
				"z": 1.2051769252,
				"element": "H" 
			},
			{
				"x": -1.2045088073,
				"y": -3.3008590235,
				"z": 1.4329169053,
				"element": "H" 
			},
			{
				"x": 0.9959709873,
				"y": -2.2231952128,
				"z": 1.838420669,
				"element": "H" 
			},
			{
				"x": 1.2176980664,
				"y": -0.1502876538,
				"z": -0.8049941309,
				"element": "H" 
			},
			{
				"x": 2.9595808649,
				"y": 0.3890168897,
				"z": -2.4820267356,
				"element": "H" 
			},
			{
				"x": 5.4608631246,
				"y": 2.010072716,
				"z": 0.6229156252,
				"element": "H" 
			},
			{
				"x": 3.7022388653,
				"y": 1.4638684426,
				"z": 2.3051522641,
				"element": "H" 
			},
			{
				"x": -0.7651989194,
				"y": 1.637933507,
				"z": 1.2449611805,
				"element": "H" 
			},
			{
				"x": -2.9742094493,
				"y": 0.5791846579,
				"z": 0.8363074388,
				"element": "H" 
			}
		],
		 "valence_orbital": [ 
			{
				"type": "occ",
				"energy": -0.31341,
				"method": "rhf"
			},
			{
				"type": "occ",
				"energy": -0.27169,
				"method": "rhf"
			},
			{
				"type": "occ",
				"energy": -0.26424,
				"method": "rhf"
			},
			{
				"type": "occ",
				"energy": -0.23434,
				"method": "rhf"
			},
			{
				"type": "occ",
				"energy": -0.21346,
				"method": "rhf"
			},
			{
				"type": "unocc",
				"energy": -0.03505,
				"method": "rhf"
			},
			{
				"type": "unocc",
				"energy": -0.02255,
				"method": "rhf"
			},
			{
				"type": "unocc",
				"energy": -0.01036,
				"method": "rhf"
			},
			{
				"type": "unocc",
				"energy": 0.00387,
				"method": "rhf"
			},
			{
				"type": "unocc",
				"energy": 0.04629,
				"method": "rhf"
			}
		],
		"cosmo_sigma_profile": { 
			"-0.025": 0.0,
			"-0.024": 0.0,
			"-0.023": 0.0,
			"-0.022": 0.0,
			"-0.021": 0.0,
			"-0.02": 0.0,
			"-0.019": 0.0,
			"-0.018": 0.0,
			"-0.017": 0.0,
			"-0.016": 0.0,
			"-0.015": 0.0,
			"-0.014": 0.0,
			"-0.013": 0.512986685166,
			"-0.012": 2.93163971559,
			"-0.011": 2.31734721223,
			"-0.01": 2.95512183403,
			"-0.009": 4.02249970637,
			"-0.008": 6.39448222765,
			"-0.007": 10.7209692571,
			"-0.006": 16.0266678042,
			"-0.005": 14.984144672,
			"-0.004": 14.4052891599,
			"-0.003": 14.0216604602,
			"-0.002": 13.581918615,
			"-0.001": 16.8838034681,
			"0.0": 17.3369601192,
			"0.001": 19.5662408262,
			"0.002": 21.9597851127,
			"0.003": 17.5628178592,
			"0.004": 12.5665267319,
			"0.005": 13.3416979314,
			"0.006": 7.77128778156,
			"0.007": 3.40560032383,
			"0.008": 6.02838609168,
			"0.009": 5.03206231536,
			"0.01": 4.2624079207,
			"0.011": 3.79261952591,
			"0.012": 2.89488389209,
			"0.013": 2.91486432538,
			"0.014": 1.02212538069,
			"0.015": 0.100079101516,
			"0.016": 0.0,
			"0.017": 0.0,
			"0.018": 0.0,
			"0.019": 0.0,
			"0.02": 0.0,
			"0.021": 0.0,
			"0.022": 0.0,
			"0.023": 0.0,
			"0.024": 0.0,
			"0.025": 0.0
		}
	}
}
