{
	 "smiles": "CC1=CC(Br)=C(N)C=C1", 
	 "Tm": 299.15, 
	 "num_atms": 17, 
	 "gaussian": { 
		 "optdone": 1, 
		 "sigma_profile": "yes", 
		 "theory": "DFT", 
		 "functional": "B3LYP", 
		 "basiset": "6-31G**", 
		 "properties": { 
			 "R2extent": 2179.1354, 
			 "electric_dipole_moment_norm": 1.90929144973, 
			 "electric_quadrupole_moment_norm": 10.9419750968, 
			 "total_energy": -2897.73360979, 
			 "HOMO_LUMO_gap": 0.19657, 
			 "cosmo_polarized_energy": -6.97, 
			 "cosmo_cavitation_energy": 22.5, 
			 "cosmo_dispersion_energy": -17.3, 
			 "cosmo_repulsion_energy": 1.42, 
			 "cosmo_total_nonelectrostatic_energy": 6.62, 
			 "SMD_solvation_energy": 2.76 
		},
		"coords": [
			{
				"x": 2.3552555784,
				"y": 0.0534447039,
				"z": -1.8815852312,
				"element": "C" 
			},
			{
				"x": 1.0735263754,
				"y": 0.2002206529,
				"z": -1.0954067185,
				"element": "C" 
			},
			{
				"x": 1.0491467017,
				"y": 0.0237641764,
				"z": 0.2904746688,
				"element": "C" 
			},
			{
				"x": -0.1318976813,
				"y": 0.1776804468,
				"z": 1.0123765953,
				"element": "C" 
			},
			{
				"x": -0.0910566796,
				"y": -0.1002152112,
				"z": 2.9131359304,
				"element": "Br" 
			},
			{
				"x": -1.3470345059,
				"y": 0.5185071432,
				"z": 0.3949175864,
				"element": "C" 
			},
			{
				"x": -2.5179912747,
				"y": 0.7300642874,
				"z": 1.1095996091,
				"element": "N" 
			},
			{
				"x": -1.3114925096,
				"y": 0.6882049356,
				"z": -1.0032156092,
				"element": "C" 
			},
			{
				"x": -0.1352373031,
				"y": 0.5325632084,
				"z": -1.7247608174,
				"element": "C" 
			},
			{
				"x": 2.2104985863,
				"y": -0.5676566889,
				"z": -2.7724193406,
				"element": "H" 
			},
			{
				"x": 2.7313022034,
				"y": 1.0254948719,
				"z": -2.2242626123,
				"element": "H" 
			},
			{
				"x": 3.1422410319,
				"y": -0.4077134057,
				"z": -1.278127533,
				"element": "H" 
			},
			{
				"x": 1.9572337046,
				"y": -0.2425398498,
				"z": 0.8215206017,
				"element": "H" 
			},
			{
				"x": -3.3722279857,
				"y": 0.5967558002,
				"z": 0.5879557806,
				"element": "H" 
			},
			{
				"x": -2.542040058,
				"y": 0.3161052598,
				"z": 2.0315762548,
				"element": "H" 
			},
			{
				"x": -2.2323199041,
				"y": 0.952282643,
				"z": -1.5176659526,
				"element": "H" 
			},
			{
				"x": -0.1570062797,
				"y": 0.6716370261,
				"z": -2.8029132123,
				"element": "H" 
			}
		],
		 "valence_orbital": [ 
			{
				"type": "occ",
				"energy": -0.31082,
				"method": "rhf"
			},
			{
				"type": "occ",
				"energy": -0.3006,
				"method": "rhf"
			},
			{
				"type": "occ",
				"energy": -0.2872,
				"method": "rhf"
			},
			{
				"type": "occ",
				"energy": -0.24004,
				"method": "rhf"
			},
			{
				"type": "occ",
				"energy": -0.20117,
				"method": "rhf"
			},
			{
				"type": "unocc",
				"energy": -0.0046,
				"method": "rhf"
			},
			{
				"type": "unocc",
				"energy": 0.01107,
				"method": "rhf"
			},
			{
				"type": "unocc",
				"energy": 0.01384,
				"method": "rhf"
			},
			{
				"type": "unocc",
				"energy": 0.08722,
				"method": "rhf"
			},
			{
				"type": "unocc",
				"energy": 0.10904,
				"method": "rhf"
			}
		],
		"cosmo_sigma_profile": { 
			"-0.025": 0.0,
			"-0.024": 0.0,
			"-0.023": 0.0,
			"-0.022": 0.0,
			"-0.021": 0.0,
			"-0.02": 0.0,
			"-0.019": 0.0,
			"-0.018": 0.0,
			"-0.017": 0.0,
			"-0.016": 0.0,
			"-0.015": 0.0,
			"-0.014": 0.00549322291167,
			"-0.013": 0.731171468209,
			"-0.012": 1.60432745787,
			"-0.011": 1.24956267004,
			"-0.01": 2.73440063393,
			"-0.009": 3.03154282499,
			"-0.008": 2.56933059762,
			"-0.007": 2.26902658073,
			"-0.006": 4.50630024299,
			"-0.005": 7.81319846813,
			"-0.004": 12.655285951,
			"-0.003": 14.3847103566,
			"-0.002": 13.7716416741,
			"-0.001": 13.0223313505,
			"0.0": 14.7323366638,
			"0.001": 14.0523139753,
			"0.002": 11.5769168281,
			"0.003": 13.7880780051,
			"0.004": 17.298749026,
			"0.005": 18.4915917934,
			"0.006": 6.07812872138,
			"0.007": 0.7264425729,
			"0.008": 0.885966650292,
			"0.009": 0.824442614598,
			"0.01": 0.878886562416,
			"0.011": 0.547275954053,
			"0.012": 0.466203277035,
			"0.013": 0.833681893282,
			"0.014": 0.201718499643,
			"0.015": 0.0,
			"0.016": 0.0,
			"0.017": 0.0,
			"0.018": 0.0,
			"0.019": 0.0,
			"0.02": 0.0,
			"0.021": 0.0,
			"0.022": 0.0,
			"0.023": 0.0,
			"0.024": 0.0,
			"0.025": 0.0
		}
	}
}
