{
	 "smiles": "CCC1=C(C=NN1C1=CC=CC=C1)C(O)=O", 
	 "Tm": 433.15, 
	 "num_atms": 28, 
	 "gaussian": { 
		 "optdone": 1, 
		 "sigma_profile": "yes", 
		 "theory": "DFT", 
		 "functional": "B3LYP", 
		 "basiset": "6-31G**", 
		 "properties": { 
			 "R2extent": 5403.7376, 
			 "electric_dipole_moment_norm": 6.9446239243, 
			 "electric_quadrupole_moment_norm": 25.5473829444, 
			 "total_energy": -724.453608698, 
			 "HOMO_LUMO_gap": 0.20758, 
			 "cosmo_polarized_energy": -17.99, 
			 "cosmo_cavitation_energy": 31.58, 
			 "cosmo_dispersion_energy": -22.65, 
			 "cosmo_repulsion_energy": 1.75, 
			 "cosmo_total_nonelectrostatic_energy": 10.67, 
			 "SMD_solvation_energy": 5.72 
		},
		"coords": [
			{
				"x": 0.4874728083,
				"y": 1.7017625394,
				"z": -2.2488803905,
				"element": "C" 
			},
			{
				"x": 1.3899785263,
				"y": 1.0200111175,
				"z": -1.20167517,
				"element": "C" 
			},
			{
				"x": 1.7452560884,
				"y": -0.405405319,
				"z": -1.5296339284,
				"element": "C" 
			},
			{
				"x": 2.5894648244,
				"y": -0.9428232586,
				"z": -2.5076969965,
				"element": "C" 
			},
			{
				"x": 2.545726966,
				"y": -2.3437474818,
				"z": -2.2961240141,
				"element": "C" 
			},
			{
				"x": 1.7629634018,
				"y": -2.6716048812,
				"z": -1.2852228492,
				"element": "N" 
			},
			{
				"x": 1.2634777339,
				"y": -1.4812558689,
				"z": -0.8311483431,
				"element": "N" 
			},
			{
				"x": 0.3827010935,
				"y": -1.513242775,
				"z": 0.29253791,
				"element": "C" 
			},
			{
				"x": -0.8361960707,
				"y": -0.8291668785,
				"z": 0.2709886736,
				"element": "C" 
			},
			{
				"x": -1.6763288184,
				"y": -0.8841485602,
				"z": 1.384410838,
				"element": "C" 
			},
			{
				"x": -1.314423435,
				"y": -1.635934953,
				"z": 2.5025720313,
				"element": "C" 
			},
			{
				"x": -0.1064009356,
				"y": -2.3383508659,
				"z": 2.5054357201,
				"element": "C" 
			},
			{
				"x": 0.7466480151,
				"y": -2.277874947,
				"z": 1.4057314866,
				"element": "C" 
			},
			{
				"x": 3.3911572787,
				"y": -0.3334818157,
				"z": -3.5873556582,
				"element": "C" 
			},
			{
				"x": 3.5338997713,
				"y": 1.0255043972,
				"z": -3.5914536359,
				"element": "O" 
			},
			{
				"x": 3.9161176607,
				"y": -0.9858051008,
				"z": -4.4603206022,
				"element": "O" 
			},
			{
				"x": -0.4631213993,
				"y": 1.1708791465,
				"z": -2.3536199297,
				"element": "H" 
			},
			{
				"x": 0.9626514287,
				"y": 1.7210757687,
				"z": -3.2333835717,
				"element": "H" 
			},
			{
				"x": 0.2713277991,
				"y": 2.7325251441,
				"z": -1.9524161571,
				"element": "H" 
			},
			{
				"x": 2.3155168897,
				"y": 1.6011406125,
				"z": -1.0741899289,
				"element": "H" 
			},
			{
				"x": 0.9075819946,
				"y": 1.0524593317,
				"z": -0.2216872575,
				"element": "H" 
			},
			{
				"x": 3.0702308878,
				"y": -3.1006369686,
				"z": -2.8621054478,
				"element": "H" 
			},
			{
				"x": -1.1376073685,
				"y": -0.2841266624,
				"z": -0.6168077909,
				"element": "H" 
			},
			{
				"x": -2.622614265,
				"y": -0.3520108372,
				"z": 1.3664278026,
				"element": "H" 
			},
			{
				"x": -1.9738310703,
				"y": -1.6824645581,
				"z": 3.3638658624,
				"element": "H" 
			},
			{
				"x": 0.1760156148,
				"y": -2.9329231816,
				"z": 3.368966643,
				"element": "H" 
			},
			{
				"x": 1.6848943545,
				"y": -2.8202028007,
				"z": 1.3883210684,
				"element": "H" 
			},
			{
				"x": 3.1769402251,
				"y": 1.4079496567,
				"z": -2.7795363645,
				"element": "H" 
			}
		],
		 "valence_orbital": [ 
			{
				"type": "occ",
				"energy": -0.29116,
				"method": "rhf"
			},
			{
				"type": "occ",
				"energy": -0.27151,
				"method": "rhf"
			},
			{
				"type": "occ",
				"energy": -0.26831,
				"method": "rhf"
			},
			{
				"type": "occ",
				"energy": -0.25884,
				"method": "rhf"
			},
			{
				"type": "occ",
				"energy": -0.24704,
				"method": "rhf"
			},
			{
				"type": "unocc",
				"energy": -0.03946,
				"method": "rhf"
			},
			{
				"type": "unocc",
				"energy": -0.02293,
				"method": "rhf"
			},
			{
				"type": "unocc",
				"energy": -0.01278,
				"method": "rhf"
			},
			{
				"type": "unocc",
				"energy": 0.01709,
				"method": "rhf"
			},
			{
				"type": "unocc",
				"energy": 0.04567,
				"method": "rhf"
			}
		],
		"cosmo_sigma_profile": { 
			"-0.025": 0.0,
			"-0.024": 0.0,
			"-0.023": 0.0,
			"-0.022": 0.0,
			"-0.021": 0.0,
			"-0.02": 0.0,
			"-0.019": 0.0,
			"-0.018": 0.0,
			"-0.017": 0.183250999314,
			"-0.016": 1.05456925177,
			"-0.015": 0.814131050876,
			"-0.014": 1.41291118707,
			"-0.013": 0.761869773423,
			"-0.012": 0.69608706711,
			"-0.011": 1.38558682873,
			"-0.01": 0.514305602469,
			"-0.009": 1.2115254974,
			"-0.008": 3.32055799578,
			"-0.007": 7.01794420522,
			"-0.006": 14.4106200291,
			"-0.005": 17.3978748879,
			"-0.004": 22.6900139431,
			"-0.003": 22.7147025532,
			"-0.002": 18.714147554,
			"-0.001": 17.1701877596,
			"0.0": 17.8276010089,
			"0.001": 14.1445444027,
			"0.002": 15.2119319684,
			"0.003": 14.1062167617,
			"0.004": 14.4399012408,
			"0.005": 5.65467899691,
			"0.006": 5.11091113788,
			"0.007": 3.75936044611,
			"0.008": 3.29213743346,
			"0.009": 4.51417547187,
			"0.01": 5.26536688016,
			"0.011": 5.9275655711,
			"0.012": 7.22073504527,
			"0.013": 3.42410393667,
			"0.014": 1.00539914419,
			"0.015": 0.146083726768,
			"0.016": 0.0,
			"0.017": 0.0,
			"0.018": 0.0,
			"0.019": 0.0,
			"0.02": 0.0,
			"0.021": 0.0,
			"0.022": 0.0,
			"0.023": 0.0,
			"0.024": 0.0,
			"0.025": 0.0
		}
	}
}
