{
	 "smiles": "CC(=O)NC1=C2CCCNC2=CC=C1", 
	 "Tm": 418.15, 
	 "num_atms": 28, 
	 "gaussian": { 
		 "optdone": 1, 
		 "sigma_profile": "yes", 
		 "theory": "DFT", 
		 "functional": "B3LYP", 
		 "basiset": "6-31G**", 
		 "properties": { 
			 "R2extent": 3140.5256, 
			 "electric_dipole_moment_norm": 1.95904607654, 
			 "electric_quadrupole_moment_norm": 16.0267765739, 
			 "total_energy": -612.363833831, 
			 "HOMO_LUMO_gap": 0.18828, 
			 "cosmo_polarized_energy": -14.81, 
			 "cosmo_cavitation_energy": 29.74, 
			 "cosmo_dispersion_energy": -22.0, 
			 "cosmo_repulsion_energy": 1.74, 
			 "cosmo_total_nonelectrostatic_energy": 9.49, 
			 "SMD_solvation_energy": 4.43 
		},
		"coords": [
			{
				"x": 1.4201949858,
				"y": 4.1874470526,
				"z": -1.6522892484,
				"element": "C" 
			},
			{
				"x": 0.6172439427,
				"y": 2.9422508911,
				"z": -1.2961384279,
				"element": "C" 
			},
			{
				"x": -0.3521291207,
				"y": 2.9935425467,
				"z": -0.5542561348,
				"element": "O" 
			},
			{
				"x": 1.098203621,
				"y": 1.772402938,
				"z": -1.8462555482,
				"element": "N" 
			},
			{
				"x": 0.4653345184,
				"y": 0.4933680866,
				"z": -1.7657511263,
				"element": "C" 
			},
			{
				"x": 0.2660254702,
				"y": -0.1350739851,
				"z": -0.5258600856,
				"element": "C" 
			},
			{
				"x": 0.7049471681,
				"y": 0.5009983429,
				"z": 0.7775945003,
				"element": "C" 
			},
			{
				"x": 0.7990931968,
				"y": -0.5146369013,
				"z": 1.92361406,
				"element": "C" 
			},
			{
				"x": -0.4494276535,
				"y": -1.3957694906,
				"z": 1.9453182412,
				"element": "C" 
			},
			{
				"x": -0.542528286,
				"y": -2.099074616,
				"z": 0.6742910683,
				"element": "N" 
			},
			{
				"x": -0.3505242164,
				"y": -1.4105160392,
				"z": -0.5213936926,
				"element": "C" 
			},
			{
				"x": -0.7138157368,
				"y": -2.0237738991,
				"z": -1.73339881,
				"element": "C" 
			},
			{
				"x": -0.4783178131,
				"y": -1.386788022,
				"z": -2.9454632976,
				"element": "C" 
			},
			{
				"x": 0.1073492132,
				"y": -0.1237428579,
				"z": -2.9706817696,
				"element": "C" 
			},
			{
				"x": 2.158172349,
				"y": 4.0331137886,
				"z": -2.4446618041,
				"element": "H" 
			},
			{
				"x": 0.7251388575,
				"y": 4.9742216792,
				"z": -1.9541619917,
				"element": "H" 
			},
			{
				"x": 1.9413553535,
				"y": 4.5383525775,
				"z": -0.7562584772,
				"element": "H" 
			},
			{
				"x": 1.7770908426,
				"y": 1.872331167,
				"z": -2.5874106366,
				"element": "H" 
			},
			{
				"x": 0.0013685299,
				"y": 1.3004519135,
				"z": 1.0359491928,
				"element": "H" 
			},
			{
				"x": 1.6721713767,
				"y": 0.9967359011,
				"z": 0.6313086458,
				"element": "H" 
			},
			{
				"x": 1.6776833779,
				"y": -1.1581816123,
				"z": 1.7966988831,
				"element": "H" 
			},
			{
				"x": 0.9070014035,
				"y": 0.0059599151,
				"z": 2.8809716162,
				"element": "H" 
			},
			{
				"x": -0.3890140895,
				"y": -2.1408371587,
				"z": 2.7459527845,
				"element": "H" 
			},
			{
				"x": -1.3371623547,
				"y": -0.7698478632,
				"z": 2.1419297768,
				"element": "H" 
			},
			{
				"x": -1.2381639465,
				"y": -2.8299958238,
				"z": 0.6293955539,
				"element": "H" 
			},
			{
				"x": -1.172227754,
				"y": -3.0096424331,
				"z": -1.7115138319,
				"element": "H" 
			},
			{
				"x": -0.7647171138,
				"y": -1.8715227796,
				"z": -3.8743554698,
				"element": "H" 
			},
			{
				"x": 0.2676538781,
				"y": 0.3976266819,
				"z": -3.9097739706,
				"element": "H" 
			}
		],
		 "valence_orbital": [ 
			{
				"type": "occ",
				"energy": -0.29509,
				"method": "rhf"
			},
			{
				"type": "occ",
				"energy": -0.26408,
				"method": "rhf"
			},
			{
				"type": "occ",
				"energy": -0.24476,
				"method": "rhf"
			},
			{
				"type": "occ",
				"energy": -0.22211,
				"method": "rhf"
			},
			{
				"type": "occ",
				"energy": -0.18608,
				"method": "rhf"
			},
			{
				"type": "unocc",
				"energy": 0.0022,
				"method": "rhf"
			},
			{
				"type": "unocc",
				"energy": 0.01823,
				"method": "rhf"
			},
			{
				"type": "unocc",
				"energy": 0.04054,
				"method": "rhf"
			},
			{
				"type": "unocc",
				"energy": 0.07698,
				"method": "rhf"
			},
			{
				"type": "unocc",
				"energy": 0.08979,
				"method": "rhf"
			}
		],
		"cosmo_sigma_profile": { 
			"-0.025": 0.0,
			"-0.024": 0.0,
			"-0.023": 0.0,
			"-0.022": 0.0,
			"-0.021": 0.0,
			"-0.02": 0.0,
			"-0.019": 0.0,
			"-0.018": 0.0,
			"-0.017": 0.0,
			"-0.016": 0.0,
			"-0.015": 0.0182472523143,
			"-0.014": 1.21668574621,
			"-0.013": 0.919827540851,
			"-0.012": 2.56583912074,
			"-0.011": 2.80817341723,
			"-0.01": 2.82675463151,
			"-0.009": 2.88106270056,
			"-0.008": 2.9646739536,
			"-0.007": 3.27446878431,
			"-0.006": 6.46653589852,
			"-0.005": 12.3691201202,
			"-0.004": 13.8186191379,
			"-0.003": 21.7313801679,
			"-0.002": 28.842389807,
			"-0.001": 28.3489234536,
			"0.0": 17.3590091491,
			"0.001": 11.8858068188,
			"0.002": 8.48172507691,
			"0.003": 8.44503966281,
			"0.004": 7.51401989923,
			"0.005": 8.16035368695,
			"0.006": 9.85943820316,
			"0.007": 9.26629409382,
			"0.008": 3.76071148169,
			"0.009": 2.28327610884,
			"0.01": 2.19978578959,
			"0.011": 2.42239270638,
			"0.012": 2.35230670125,
			"0.013": 3.32206740861,
			"0.014": 3.99722612758,
			"0.015": 1.34866258638,
			"0.016": 0.0223775615596,
			"0.017": 0.0,
			"0.018": 0.0,
			"0.019": 0.0,
			"0.02": 0.0,
			"0.021": 0.0,
			"0.022": 0.0,
			"0.023": 0.0,
			"0.024": 0.0,
			"0.025": 0.0
		}
	}
}
