{
	 "smiles": "NC1=C(C#N)C(F)=CC=C1", 
	 "Tm": 400.15, 
	 "num_atms": 15, 
	 "gaussian": { 
		 "optdone": 1, 
		 "sigma_profile": "yes", 
		 "theory": "DFT", 
		 "functional": "B3LYP", 
		 "basiset": "6-31G**", 
		 "properties": { 
			 "R2extent": 1756.5694, 
			 "electric_dipole_moment_norm": 5.13679945199, 
			 "electric_quadrupole_moment_norm": 13.8650474417, 
			 "total_energy": -479.08374001, 
			 "HOMO_LUMO_gap": 0.18122, 
			 "cosmo_polarized_energy": -11.73, 
			 "cosmo_cavitation_energy": 20.72, 
			 "cosmo_dispersion_energy": -14.83, 
			 "cosmo_repulsion_energy": 1.19, 
			 "cosmo_total_nonelectrostatic_energy": 7.08, 
			 "SMD_solvation_energy": 5.26 
		},
		"coords": [
			{
				"x": -1.8833584641,
				"y": 0.6720414211,
				"z": -0.8337472119,
				"element": "N" 
			},
			{
				"x": -0.8346691149,
				"y": 0.3289674614,
				"z": -0.0183176397,
				"element": "C" 
			},
			{
				"x": -0.7391854062,
				"y": 0.8671745607,
				"z": 1.2945249107,
				"element": "C" 
			},
			{
				"x": -1.7023885385,
				"y": 1.8154104068,
				"z": 1.7440996836,
				"element": "C" 
			},
			{
				"x": -2.5224587911,
				"y": 2.5905838832,
				"z": 2.0331220163,
				"element": "N" 
			},
			{
				"x": 0.3165390111,
				"y": 0.4607297765,
				"z": 2.1247818634,
				"element": "C" 
			},
			{
				"x": 0.3774059074,
				"y": 0.9874623698,
				"z": 3.3581482988,
				"element": "F" 
			},
			{
				"x": 1.2809291558,
				"y": -0.4429190138,
				"z": 1.7179089205,
				"element": "C" 
			},
			{
				"x": 1.1787573535,
				"y": -0.9596491496,
				"z": 0.4204722564,
				"element": "C" 
			},
			{
				"x": 0.1492758043,
				"y": -0.5888872272,
				"z": -0.4350807543,
				"element": "C" 
			},
			{
				"x": -1.7949910561,
				"y": 0.4953877191,
				"z": -1.8215966123,
				"element": "H" 
			},
			{
				"x": -2.4499065771,
				"y": 1.4678246171,
				"z": -0.578361112,
				"element": "H" 
			},
			{
				"x": 2.0776120872,
				"y": -0.7248454756,
				"z": 2.395192588,
				"element": "H" 
			},
			{
				"x": 1.9235581056,
				"y": -1.6696003111,
				"z": 0.07358199,
				"element": "H" 
			},
			{
				"x": 0.0892805231,
				"y": -1.0106810385,
				"z": -1.4338291972,
				"element": "H" 
			}
		],
		 "valence_orbital": [ 
			{
				"type": "occ",
				"energy": -0.3519,
				"method": "rhf"
			},
			{
				"type": "occ",
				"energy": -0.33376,
				"method": "rhf"
			},
			{
				"type": "occ",
				"energy": -0.32869,
				"method": "rhf"
			},
			{
				"type": "occ",
				"energy": -0.26,
				"method": "rhf"
			},
			{
				"type": "occ",
				"energy": -0.22622,
				"method": "rhf"
			},
			{
				"type": "unocc",
				"energy": -0.045,
				"method": "rhf"
			},
			{
				"type": "unocc",
				"energy": -0.00328,
				"method": "rhf"
			},
			{
				"type": "unocc",
				"energy": 0.02852,
				"method": "rhf"
			},
			{
				"type": "unocc",
				"energy": 0.06919,
				"method": "rhf"
			},
			{
				"type": "unocc",
				"energy": 0.07701,
				"method": "rhf"
			}
		],
		"cosmo_sigma_profile": { 
			"-0.025": 0.0,
			"-0.024": 0.0,
			"-0.023": 0.0,
			"-0.022": 0.0,
			"-0.021": 0.0,
			"-0.02": 0.0,
			"-0.019": 0.0,
			"-0.018": 0.0,
			"-0.017": 0.0,
			"-0.016": 0.0,
			"-0.015": 0.167507584134,
			"-0.014": 1.27380942901,
			"-0.013": 1.97446112811,
			"-0.012": 2.22502838776,
			"-0.011": 3.07563377153,
			"-0.01": 2.60703059965,
			"-0.009": 1.87662627043,
			"-0.008": 3.47238017523,
			"-0.007": 6.95331534576,
			"-0.006": 7.25732006477,
			"-0.005": 7.89350333582,
			"-0.004": 6.33022232728,
			"-0.003": 5.91532386617,
			"-0.002": 6.99114948324,
			"-0.001": 11.3485742755,
			"0.0": 14.1173573808,
			"0.001": 13.9782837915,
			"0.002": 12.7557423642,
			"0.003": 20.1869921838,
			"0.004": 10.5832562235,
			"0.005": 2.54406731665,
			"0.006": 3.52175712904,
			"0.007": 3.09096274918,
			"0.008": 3.44657187654,
			"0.009": 3.35564525143,
			"0.01": 3.67080601632,
			"0.011": 2.62521043845,
			"0.012": 2.55202616427,
			"0.013": 1.51068212447,
			"0.014": 0.0871339363856,
			"0.015": 0.0,
			"0.016": 0.0,
			"0.017": 0.0,
			"0.018": 0.0,
			"0.019": 0.0,
			"0.02": 0.0,
			"0.021": 0.0,
			"0.022": 0.0,
			"0.023": 0.0,
			"0.024": 0.0,
			"0.025": 0.0
		}
	}
}
