{
	 "smiles": "BrC(=CC1=CC=CC=C1)C1=CC=C(Br)C2=C1C=CC=C2Br", 
	 "Tm": 444.15, 
	 "num_atms": 32, 
	 "gaussian": { 
		 "optdone": 1, 
		 "sigma_profile": "yes", 
		 "theory": "DFT", 
		 "functional": "B3LYP", 
		 "basiset": "6-31G**", 
		 "properties": { 
			 "R2extent": 16173.4821, 
			 "electric_dipole_moment_norm": 3.32478713003, 
			 "electric_quadrupole_moment_norm": 6.65549818346, 
			 "total_energy": -8406.73462396, 
			 "HOMO_LUMO_gap": 0.1524, 
			 "cosmo_polarized_energy": -7.82, 
			 "cosmo_cavitation_energy": 42.45, 
			 "cosmo_dispersion_energy": -31.37, 
			 "cosmo_repulsion_energy": 2.37, 
			 "cosmo_total_nonelectrostatic_energy": 13.45, 
			 "SMD_solvation_energy": 3.75 
		},
		"coords": [
			{
				"x": -1.4086023046,
				"y": 1.1782253857,
				"z": 1.5781053883,
				"element": "Br" 
			},
			{
				"x": -0.0417484859,
				"y": 0.3995468385,
				"z": 0.4506632952,
				"element": "C" 
			},
			{
				"x": 1.2533680115,
				"y": 0.292098045,
				"z": 0.7961120893,
				"element": "C" 
			},
			{
				"x": 2.0567178775,
				"y": 0.6575308926,
				"z": 1.9696922035,
				"element": "C" 
			},
			{
				"x": 1.6406178981,
				"y": 1.489745038,
				"z": 3.0273983466,
				"element": "C" 
			},
			{
				"x": 2.5007763839,
				"y": 1.7738331801,
				"z": 4.0862560682,
				"element": "C" 
			},
			{
				"x": 3.7901760223,
				"y": 1.2393188192,
				"z": 4.1226053262,
				"element": "C" 
			},
			{
				"x": 4.2217112301,
				"y": 0.4178683699,
				"z": 3.0794640973,
				"element": "C" 
			},
			{
				"x": 3.3670990229,
				"y": 0.1376459865,
				"z": 2.0176038154,
				"element": "C" 
			},
			{
				"x": -0.5546195881,
				"y": -0.0235892175,
				"z": -0.8789591986,
				"element": "C" 
			},
			{
				"x": -0.2462451665,
				"y": 0.7495763731,
				"z": -1.9759640581,
				"element": "C" 
			},
			{
				"x": -0.7131576828,
				"y": 0.3912339554,
				"z": -3.2500033466,
				"element": "C" 
			},
			{
				"x": -1.4945704877,
				"y": -0.7279869408,
				"z": -3.4441004241,
				"element": "C" 
			},
			{
				"x": -1.9953507477,
				"y": -0.9618231166,
				"z": -5.2805535896,
				"element": "Br" 
			},
			{
				"x": -1.8555795127,
				"y": -1.5933400802,
				"z": -2.354861949,
				"element": "C" 
			},
			{
				"x": -1.3449221327,
				"y": -1.2099443736,
				"z": -1.0455085142,
				"element": "C" 
			},
			{
				"x": -1.6020132315,
				"y": -2.0175579916,
				"z": 0.0921221039,
				"element": "C" 
			},
			{
				"x": -2.3500600089,
				"y": -3.1622385502,
				"z": -0.0010706967,
				"element": "C" 
			},
			{
				"x": -2.8761969001,
				"y": -3.5430991268,
				"z": -1.2461267256,
				"element": "C" 
			},
			{
				"x": -2.6426999643,
				"y": -2.7952141926,
				"z": -2.3826941143,
				"element": "C" 
			},
			{
				"x": -3.483079842,
				"y": -3.5481366716,
				"z": -3.9363839029,
				"element": "Br" 
			},
			{
				"x": 1.838985707,
				"y": -0.2052955685,
				"z": 0.0224634533,
				"element": "H" 
			},
			{
				"x": 0.6497314064,
				"y": 1.9217325654,
				"z": 3.018761789,
				"element": "H" 
			},
			{
				"x": 2.1591636128,
				"y": 2.4213193586,
				"z": 4.8888146254,
				"element": "H" 
			},
			{
				"x": 4.4532105333,
				"y": 1.4644547196,
				"z": 4.9528613032,
				"element": "H" 
			},
			{
				"x": 5.2237213359,
				"y": -0.0010671044,
				"z": 3.0906980327,
				"element": "H" 
			},
			{
				"x": 3.7118583392,
				"y": -0.4991424629,
				"z": 1.2067992456,
				"element": "H" 
			},
			{
				"x": 0.3491991218,
				"y": 1.6486121753,
				"z": -1.8561386945,
				"element": "H" 
			},
			{
				"x": -0.4632388277,
				"y": 1.0098568116,
				"z": -4.1032354056,
				"element": "H" 
			},
			{
				"x": -1.1881347252,
				"y": -1.7129533989,
				"z": 1.0451031698,
				"element": "H" 
			},
			{
				"x": -2.5410822838,
				"y": -3.7751062979,
				"z": 0.8741384446,
				"element": "H" 
			},
			{
				"x": -3.4757346106,
				"y": -4.4416034203,
				"z": -1.3272621777,
				"element": "H" 
			}
		],
		 "valence_orbital": [ 
			{
				"type": "occ",
				"energy": -0.26282,
				"method": "rhf"
			},
			{
				"type": "occ",
				"energy": -0.258,
				"method": "rhf"
			},
			{
				"type": "occ",
				"energy": -0.25421,
				"method": "rhf"
			},
			{
				"type": "occ",
				"energy": -0.23095,
				"method": "rhf"
			},
			{
				"type": "occ",
				"energy": -0.21954,
				"method": "rhf"
			},
			{
				"type": "unocc",
				"energy": -0.06714,
				"method": "rhf"
			},
			{
				"type": "unocc",
				"energy": -0.04757,
				"method": "rhf"
			},
			{
				"type": "unocc",
				"energy": -0.03118,
				"method": "rhf"
			},
			{
				"type": "unocc",
				"energy": -0.0077,
				"method": "rhf"
			},
			{
				"type": "unocc",
				"energy": -0.00689,
				"method": "rhf"
			}
		],
		"cosmo_sigma_profile": { 
			"-0.025": 0.0,
			"-0.024": 0.0,
			"-0.023": 0.0,
			"-0.022": 0.0,
			"-0.021": 0.0,
			"-0.02": 0.0,
			"-0.019": 0.0,
			"-0.018": 0.0,
			"-0.017": 0.0,
			"-0.016": 0.0,
			"-0.015": 0.0,
			"-0.014": 0.0,
			"-0.013": 0.0,
			"-0.012": 0.0,
			"-0.011": 0.0,
			"-0.01": 0.0,
			"-0.009": 0.0,
			"-0.008": 1.49884174672,
			"-0.007": 10.1981097048,
			"-0.006": 17.5081504943,
			"-0.005": 19.4958354003,
			"-0.004": 21.9553369429,
			"-0.003": 22.6042741347,
			"-0.002": 18.8005102681,
			"-0.001": 25.2697834774,
			"0.0": 30.4425570821,
			"0.001": 42.2160811942,
			"0.002": 45.8728196304,
			"0.003": 37.6963421979,
			"0.004": 33.1700260358,
			"0.005": 22.6701049098,
			"0.006": 2.00455061372,
			"0.007": 0.0,
			"0.008": 0.0,
			"0.009": 0.0,
			"0.01": 0.0,
			"0.011": 0.0,
			"0.012": 0.0,
			"0.013": 0.0,
			"0.014": 0.0,
			"0.015": 0.0,
			"0.016": 0.0,
			"0.017": 0.0,
			"0.018": 0.0,
			"0.019": 0.0,
			"0.02": 0.0,
			"0.021": 0.0,
			"0.022": 0.0,
			"0.023": 0.0,
			"0.024": 0.0,
			"0.025": 0.0
		}
	}
}
