{
	 "smiles": "CC1=CC=C(C=C1)S(=O)(=O)OCC1CCCO1", 
	 "Tm": 317.15, 
	 "num_atms": 33, 
	 "gaussian": { 
		 "optdone": 1, 
		 "sigma_profile": "yes", 
		 "theory": "DFT", 
		 "functional": "B3LYP", 
		 "basiset": "6-31G**", 
		 "properties": { 
			 "R2extent": 6672.2467, 
			 "electric_dipole_moment_norm": 4.76509467482, 
			 "electric_quadrupole_moment_norm": 26.9657205251, 
			 "total_energy": -1165.92905743, 
			 "HOMO_LUMO_gap": 0.20338, 
			 "cosmo_polarized_energy": -13.14, 
			 "cosmo_cavitation_energy": 37.12, 
			 "cosmo_dispersion_energy": -26.96, 
			 "cosmo_repulsion_energy": 2.06, 
			 "cosmo_total_nonelectrostatic_energy": 12.22, 
			 "SMD_solvation_energy": 5.02 
		},
		"coords": [
			{
				"x": 6.2490632124,
				"y": 0.1606492824,
				"z": 1.7437858325,
				"element": "C" 
			},
			{
				"x": 4.9365334466,
				"y": 0.384569587,
				"z": 1.0327259969,
				"element": "C" 
			},
			{
				"x": 4.6409631116,
				"y": -0.3008815123,
				"z": -0.1556808354,
				"element": "C" 
			},
			{
				"x": 3.4229132037,
				"y": -0.1233469452,
				"z": -0.8061221495,
				"element": "C" 
			},
			{
				"x": 2.4874039529,
				"y": 0.7553361563,
				"z": -0.2569114477,
				"element": "C" 
			},
			{
				"x": 2.755441493,
				"y": 1.461478961,
				"z": 0.9158221199,
				"element": "C" 
			},
			{
				"x": 3.9799193747,
				"y": 1.2683735894,
				"z": 1.5521989032,
				"element": "C" 
			},
			{
				"x": 0.9307682872,
				"y": 1.0008764513,
				"z": -1.0866043778,
				"element": "S" 
			},
			{
				"x": 0.3631389429,
				"y": 2.2855810288,
				"z": -0.6753146295,
				"element": "O" 
			},
			{
				"x": 1.0618487061,
				"y": 0.6750186715,
				"z": -2.5077221523,
				"element": "O" 
			},
			{
				"x": 0.0867057252,
				"y": -0.2064415496,
				"z": -0.3541500285,
				"element": "O" 
			},
			{
				"x": -1.0978371472,
				"y": -0.6980312776,
				"z": -1.0415162161,
				"element": "C" 
			},
			{
				"x": -2.2895154412,
				"y": 0.2478575728,
				"z": -0.8992461159,
				"element": "C" 
			},
			{
				"x": -2.6929741082,
				"y": 0.5701435103,
				"z": 0.5474833908,
				"element": "C" 
			},
			{
				"x": -4.2217531528,
				"y": 0.6729667013,
				"z": 0.4381864885,
				"element": "C" 
			},
			{
				"x": -4.5281850482,
				"y": -0.408960732,
				"z": -0.6007671661,
				"element": "C" 
			},
			{
				"x": -3.413425186,
				"y": -0.414785326,
				"z": -1.5014502355,
				"element": "O" 
			},
			{
				"x": 7.0598751861,
				"y": -0.0336812497,
				"z": 1.035600106,
				"element": "H" 
			},
			{
				"x": 6.5272728137,
				"y": 1.0246809874,
				"z": 2.3535420937,
				"element": "H" 
			},
			{
				"x": 6.1869983428,
				"y": -0.7064437562,
				"z": 2.4130761383,
				"element": "H" 
			},
			{
				"x": 5.3778352409,
				"y": -0.9773279337,
				"z": -0.580336977,
				"element": "H" 
			},
			{
				"x": 3.2015003224,
				"y": -0.6410824115,
				"z": -1.7329520293,
				"element": "H" 
			},
			{
				"x": 2.0220866655,
				"y": 2.1574974369,
				"z": 1.3075290005,
				"element": "H" 
			},
			{
				"x": 4.1989913446,
				"y": 1.818515323,
				"z": 2.4632803812,
				"element": "H" 
			},
			{
				"x": -1.3169330749,
				"y": -1.649336362,
				"z": -0.5508449089,
				"element": "H" 
			},
			{
				"x": -0.8616285097,
				"y": -0.8814606786,
				"z": -2.0928109445,
				"element": "H" 
			},
			{
				"x": -2.0905502148,
				"y": 1.174958849,
				"z": -1.4539840561,
				"element": "H" 
			},
			{
				"x": -2.4112432783,
				"y": -0.2540149548,
				"z": 1.2143717179,
				"element": "H" 
			},
			{
				"x": -2.2120912864,
				"y": 1.4789315098,
				"z": 0.9143892131,
				"element": "H" 
			},
			{
				"x": -4.7376141067,
				"y": 0.5098055901,
				"z": 1.3887513648,
				"element": "H" 
			},
			{
				"x": -4.5127804445,
				"y": 1.658444793,
				"z": 0.0581250793,
				"element": "H" 
			},
			{
				"x": -5.4367220998,
				"y": -0.2158834045,
				"z": -1.1809185362,
				"element": "H" 
			},
			{
				"x": -4.6317062737,
				"y": -1.3962079075,
				"z": -0.1243350202,
				"element": "H" 
			}
		],
		 "valence_orbital": [ 
			{
				"type": "occ",
				"energy": -0.3126,
				"method": "rhf"
			},
			{
				"type": "occ",
				"energy": -0.289,
				"method": "rhf"
			},
			{
				"type": "occ",
				"energy": -0.2713,
				"method": "rhf"
			},
			{
				"type": "occ",
				"energy": -0.26595,
				"method": "rhf"
			},
			{
				"type": "occ",
				"energy": -0.24413,
				"method": "rhf"
			},
			{
				"type": "unocc",
				"energy": -0.04075,
				"method": "rhf"
			},
			{
				"type": "unocc",
				"energy": -0.02166,
				"method": "rhf"
			},
			{
				"type": "unocc",
				"energy": 0.0499,
				"method": "rhf"
			},
			{
				"type": "unocc",
				"energy": 0.07097,
				"method": "rhf"
			},
			{
				"type": "unocc",
				"energy": 0.08569,
				"method": "rhf"
			}
		],
		"cosmo_sigma_profile": { 
			"-0.025": 0.0,
			"-0.024": 0.0,
			"-0.023": 0.0,
			"-0.022": 0.0,
			"-0.021": 0.0,
			"-0.02": 0.0,
			"-0.019": 0.0,
			"-0.018": 0.0,
			"-0.017": 0.0,
			"-0.016": 0.0,
			"-0.015": 0.0,
			"-0.014": 0.0,
			"-0.013": 0.0,
			"-0.012": 0.0,
			"-0.011": 0.0,
			"-0.01": 0.0,
			"-0.009": 0.0,
			"-0.008": 0.393497621692,
			"-0.007": 5.5825248097,
			"-0.006": 12.482624338,
			"-0.005": 19.0996485182,
			"-0.004": 27.4025833261,
			"-0.003": 36.6817754468,
			"-0.002": 32.8730498107,
			"-0.001": 27.650942376,
			"0.0": 24.3626733288,
			"0.001": 16.4740069184,
			"0.002": 16.5405432372,
			"0.003": 18.6160133249,
			"0.004": 8.64824150866,
			"0.005": 5.19063393814,
			"0.006": 4.97264346386,
			"0.007": 6.93586488068,
			"0.008": 5.79264309742,
			"0.009": 6.75650971798,
			"0.01": 8.29635081438,
			"0.011": 4.49837781615,
			"0.012": 1.37520158198,
			"0.013": 1.59501038899,
			"0.014": 0.444855594161,
			"0.015": 0.0,
			"0.016": 0.0,
			"0.017": 0.0,
			"0.018": 0.0,
			"0.019": 0.0,
			"0.02": 0.0,
			"0.021": 0.0,
			"0.022": 0.0,
			"0.023": 0.0,
			"0.024": 0.0,
			"0.025": 0.0
		}
	}
}
