{
	 "smiles": "O=C1CC2(CCCCC2)CC(=O)O1", 
	 "Tm": 485.15, 
	 "num_atms": 27, 
	 "gaussian": { 
		 "optdone": 1, 
		 "sigma_profile": "yes", 
		 "theory": "DFT", 
		 "functional": "B3LYP", 
		 "basiset": "6-31G**", 
		 "properties": { 
			 "R2extent": 2458.562, 
			 "electric_dipole_moment_norm": 5.67838563414, 
			 "electric_quadrupole_moment_norm": 10.2793340986, 
			 "total_energy": -615.197423383, 
			 "HOMO_LUMO_gap": 0.24205, 
			 "cosmo_polarized_energy": -13.61, 
			 "cosmo_cavitation_energy": 27.78, 
			 "cosmo_dispersion_energy": -20.3, 
			 "cosmo_repulsion_energy": 1.6, 
			 "cosmo_total_nonelectrostatic_energy": 9.08, 
			 "SMD_solvation_energy": 5.63 
		},
		"coords": [
			{
				"x": -2.349402365,
				"y": 1.7100760221,
				"z": -1.5471161301,
				"element": "O" 
			},
			{
				"x": -1.7278186685,
				"y": 1.0224358454,
				"z": -0.7842507321,
				"element": "C" 
			},
			{
				"x": -0.6521470465,
				"y": 0.0388115873,
				"z": -1.2032794048,
				"element": "C" 
			},
			{
				"x": 0.3669937584,
				"y": -0.31465819,
				"z": -0.1069204007,
				"element": "C" 
			},
			{
				"x": 1.2386191612,
				"y": -1.5135969888,
				"z": -0.5781572643,
				"element": "C" 
			},
			{
				"x": 2.6243892494,
				"y": -1.5184935465,
				"z": 0.0797171232,
				"element": "C" 
			},
			{
				"x": 3.4471896454,
				"y": -0.2820040588,
				"z": -0.3534486421,
				"element": "C" 
			},
			{
				"x": 2.5413425413,
				"y": 0.9369537307,
				"z": -0.6473589489,
				"element": "C" 
			},
			{
				"x": 1.2775728529,
				"y": 0.9094417239,
				"z": 0.2223465228,
				"element": "C" 
			},
			{
				"x": -0.4625542195,
				"y": -0.7050907459,
				"z": 1.1310468131,
				"element": "C" 
			},
			{
				"x": -1.4132490588,
				"y": 0.3840920634,
				"z": 1.5735784581,
				"element": "C" 
			},
			{
				"x": -1.6989521543,
				"y": 0.6376311533,
				"z": 2.7112678086,
				"element": "O" 
			},
			{
				"x": -2.0270939511,
				"y": 1.1241042163,
				"z": 0.5687404552,
				"element": "O" 
			},
			{
				"x": -1.172351994,
				"y": -0.8713226376,
				"z": -1.5346931131,
				"element": "H" 
			},
			{
				"x": -0.1755710097,
				"y": 0.4604841149,
				"z": -2.0926771429,
				"element": "H" 
			},
			{
				"x": 1.3664446731,
				"y": -1.4594586296,
				"z": -1.6674907981,
				"element": "H" 
			},
			{
				"x": 0.7078641603,
				"y": -2.4531951361,
				"z": -0.3820126272,
				"element": "H" 
			},
			{
				"x": 2.506183476,
				"y": -1.5278474615,
				"z": 1.1707100875,
				"element": "H" 
			},
			{
				"x": 3.1593778936,
				"y": -2.4401828826,
				"z": -0.1721974034,
				"element": "H" 
			},
			{
				"x": 4.0369182302,
				"y": -0.5202803957,
				"z": -1.2460993578,
				"element": "H" 
			},
			{
				"x": 4.167873849,
				"y": -0.0311785803,
				"z": 0.4331900503,
				"element": "H" 
			},
			{
				"x": 2.2510058956,
				"y": 0.9430209594,
				"z": -1.7058663869,
				"element": "H" 
			},
			{
				"x": 3.0910647322,
				"y": 1.8694202947,
				"z": -0.482796617,
				"element": "H" 
			},
			{
				"x": 1.5760165878,
				"y": 0.8659164112,
				"z": 1.2776766666,
				"element": "H" 
			},
			{
				"x": 0.7137753176,
				"y": 1.8430481011,
				"z": 0.1093619294,
				"element": "H" 
			},
			{
				"x": -1.0732061978,
				"y": -1.5903359346,
				"z": 0.9019745518,
				"element": "H" 
			},
			{
				"x": 0.1594146411,
				"y": -0.9566910356,
				"z": 1.9930545028,
				"element": "H" 
			}
		],
		 "valence_orbital": [ 
			{
				"type": "occ",
				"energy": -0.32384,
				"method": "rhf"
			},
			{
				"type": "occ",
				"energy": -0.3213,
				"method": "rhf"
			},
			{
				"type": "occ",
				"energy": -0.31563,
				"method": "rhf"
			},
			{
				"type": "occ",
				"energy": -0.29313,
				"method": "rhf"
			},
			{
				"type": "occ",
				"energy": -0.27449,
				"method": "rhf"
			},
			{
				"type": "unocc",
				"energy": -0.03244,
				"method": "rhf"
			},
			{
				"type": "unocc",
				"energy": 0.00679,
				"method": "rhf"
			},
			{
				"type": "unocc",
				"energy": 0.05214,
				"method": "rhf"
			},
			{
				"type": "unocc",
				"energy": 0.08012,
				"method": "rhf"
			},
			{
				"type": "unocc",
				"energy": 0.09423,
				"method": "rhf"
			}
		],
		"cosmo_sigma_profile": { 
			"-0.025": 0.0,
			"-0.024": 0.0,
			"-0.023": 0.0,
			"-0.022": 0.0,
			"-0.021": 0.0,
			"-0.02": 0.0,
			"-0.019": 0.0,
			"-0.018": 0.0,
			"-0.017": 0.0,
			"-0.016": 0.0,
			"-0.015": 0.0,
			"-0.014": 0.0,
			"-0.013": 0.0,
			"-0.012": 0.00164045096281,
			"-0.011": 0.443417653622,
			"-0.01": 1.11816634417,
			"-0.009": 2.24804760068,
			"-0.008": 3.79928348639,
			"-0.007": 5.22255175938,
			"-0.006": 9.77336694393,
			"-0.005": 14.6816034814,
			"-0.004": 16.7575893278,
			"-0.003": 21.4650186648,
			"-0.002": 23.5766436445,
			"-0.001": 27.4424609903,
			"0.0": 20.5857615217,
			"0.001": 14.9281016163,
			"0.002": 3.27795389936,
			"0.003": 3.00086669576,
			"0.004": 2.99344063514,
			"0.005": 2.72311826378,
			"0.006": 3.57357775179,
			"0.007": 4.26247713813,
			"0.008": 4.47455524902,
			"0.009": 8.38386199211,
			"0.01": 9.87263888839,
			"0.011": 9.30891836515,
			"0.012": 1.73263086133,
			"0.013": 0.0,
			"0.014": 0.0,
			"0.015": 0.0,
			"0.016": 0.0,
			"0.017": 0.0,
			"0.018": 0.0,
			"0.019": 0.0,
			"0.02": 0.0,
			"0.021": 0.0,
			"0.022": 0.0,
			"0.023": 0.0,
			"0.024": 0.0,
			"0.025": 0.0
		}
	}
}
