{
	 "smiles": "CCOC(=O)C1=C(NC(=O)C2=CC=C(Cl)C=C2)SC=C1C1=CC=CC=C1", 
	 "Tm": 445.15, 
	 "num_atms": 42, 
	 "gaussian": { 
		 "optdone": 1, 
		 "sigma_profile": "yes", 
		 "theory": "DFT", 
		 "functional": "B3LYP", 
		 "basiset": "6-31G**", 
		 "properties": { 
			 "R2extent": 15894.7672, 
			 "electric_dipole_moment_norm": 2.57984245255, 
			 "electric_quadrupole_moment_norm": 10.5751341632, 
			 "total_energy": -1910.60530511, 
			 "HOMO_LUMO_gap": 0.14507, 
			 "cosmo_polarized_energy": -16.53, 
			 "cosmo_cavitation_energy": 50.18, 
			 "cosmo_dispersion_energy": -35.12, 
			 "cosmo_repulsion_energy": 2.6, 
			 "cosmo_total_nonelectrostatic_energy": 17.66, 
			 "SMD_solvation_energy": 9.04 
		},
		"coords": [
			{
				"x": -2.9666871891,
				"y": 0.4263207031,
				"z": -2.1312910174,
				"element": "C" 
			},
			{
				"x": -2.1133002451,
				"y": -0.8252145191,
				"z": -2.2672405409,
				"element": "C" 
			},
			{
				"x": -0.9101439071,
				"y": -0.7446389035,
				"z": -1.4603084128,
				"element": "O" 
			},
			{
				"x": -1.0419357584,
				"y": -1.106224727,
				"z": -0.1350992815,
				"element": "C" 
			},
			{
				"x": -2.1092453693,
				"y": -1.4709187219,
				"z": 0.3126044686,
				"element": "O" 
			},
			{
				"x": 0.2176519373,
				"y": -0.9960531743,
				"z": 0.620562838,
				"element": "C" 
			},
			{
				"x": 1.3978218289,
				"y": -0.4210897335,
				"z": 0.1418313474,
				"element": "C" 
			},
			{
				"x": 1.6026103871,
				"y": 0.0789100924,
				"z": -1.1312707623,
				"element": "N" 
			},
			{
				"x": 2.7743686214,
				"y": 0.6410860497,
				"z": -1.59039658,
				"element": "C" 
			},
			{
				"x": 3.7758113231,
				"y": 0.7163231277,
				"z": -0.8842971741,
				"element": "O" 
			},
			{
				"x": 2.753954537,
				"y": 1.1396632918,
				"z": -3.0011596116,
				"element": "C" 
			},
			{
				"x": 3.9932369993,
				"y": 1.3481408126,
				"z": -3.6224103424,
				"element": "C" 
			},
			{
				"x": 4.0651941337,
				"y": 1.8131341606,
				"z": -4.9314992393,
				"element": "C" 
			},
			{
				"x": 2.8820603926,
				"y": 2.0850212856,
				"z": -5.6211056127,
				"element": "C" 
			},
			{
				"x": 2.9604707497,
				"y": 2.6737146379,
				"z": -7.2708578623,
				"element": "Cl" 
			},
			{
				"x": 1.6368244126,
				"y": 1.9048188309,
				"z": -5.018116439,
				"element": "C" 
			},
			{
				"x": 1.5790413398,
				"y": 1.4320055695,
				"z": -3.7087536461,
				"element": "C" 
			},
			{
				"x": 2.6409654059,
				"y": -0.3482025847,
				"z": 1.358790007,
				"element": "S" 
			},
			{
				"x": 1.5749799798,
				"y": -1.0900960952,
				"z": 2.5131423749,
				"element": "C" 
			},
			{
				"x": 0.3393671072,
				"y": -1.3920815571,
				"z": 2.0146414009,
				"element": "C" 
			},
			{
				"x": -0.6715841152,
				"y": -2.072857968,
				"z": 2.8662667186,
				"element": "C" 
			},
			{
				"x": -0.9807419342,
				"y": -1.5428095096,
				"z": 4.1280375417,
				"element": "C" 
			},
			{
				"x": -1.8585856574,
				"y": -2.2062194548,
				"z": 4.9869929227,
				"element": "C" 
			},
			{
				"x": -2.4383934372,
				"y": -3.4134062808,
				"z": 4.5982145663,
				"element": "C" 
			},
			{
				"x": -2.135936763,
				"y": -3.9512808941,
				"z": 3.3442340954,
				"element": "C" 
			},
			{
				"x": -1.2625601446,
				"y": -3.2881408132,
				"z": 2.4861640768,
				"element": "C" 
			},
			{
				"x": -3.8293536143,
				"y": 0.3592191107,
				"z": -2.8025236134,
				"element": "H" 
			},
			{
				"x": -3.3348280069,
				"y": 0.5286654417,
				"z": -1.108208886,
				"element": "H" 
			},
			{
				"x": -2.3988068252,
				"y": 1.3241728267,
				"z": -2.3950581393,
				"element": "H" 
			},
			{
				"x": -1.7445433886,
				"y": -0.9549745905,
				"z": -3.2879205584,
				"element": "H" 
			},
			{
				"x": -2.6698686603,
				"y": -1.7150410306,
				"z": -1.9674777169,
				"element": "H" 
			},
			{
				"x": 0.8194870231,
				"y": -0.0736299264,
				"z": -1.7571051139,
				"element": "H" 
			},
			{
				"x": 4.8952363679,
				"y": 1.1390395459,
				"z": -3.0577618967,
				"element": "H" 
			},
			{
				"x": 5.0234093001,
				"y": 1.966320559,
				"z": -5.4150806179,
				"element": "H" 
			},
			{
				"x": 0.7298760174,
				"y": 2.1401537196,
				"z": -5.5634489139,
				"element": "H" 
			},
			{
				"x": 0.6051826313,
				"y": 1.328916042,
				"z": -3.2391878753,
				"element": "H" 
			},
			{
				"x": 1.9408121884,
				"y": -1.3113090715,
				"z": 3.5061570594,
				"element": "H" 
			},
			{
				"x": -0.53838696,
				"y": -0.5970454232,
				"z": 4.4272966385,
				"element": "H" 
			},
			{
				"x": -2.0903219354,
				"y": -1.7758824829,
				"z": 5.9572823542,
				"element": "H" 
			},
			{
				"x": -3.1223088725,
				"y": -3.9317196373,
				"z": 5.2643003116,
				"element": "H" 
			},
			{
				"x": -2.5812871269,
				"y": -4.8925196954,
				"z": 3.0344291319,
				"element": "H" 
			},
			{
				"x": -1.032742773,
				"y": -3.713969013,
				"z": 1.5153320002,
				"element": "H" 
			}
		],
		 "valence_orbital": [ 
			{
				"type": "occ",
				"energy": -0.26604,
				"method": "rhf"
			},
			{
				"type": "occ",
				"energy": -0.26073,
				"method": "rhf"
			},
			{
				"type": "occ",
				"energy": -0.2423,
				"method": "rhf"
			},
			{
				"type": "occ",
				"energy": -0.23635,
				"method": "rhf"
			},
			{
				"type": "occ",
				"energy": -0.21286,
				"method": "rhf"
			},
			{
				"type": "unocc",
				"energy": -0.06779,
				"method": "rhf"
			},
			{
				"type": "unocc",
				"energy": -0.03327,
				"method": "rhf"
			},
			{
				"type": "unocc",
				"energy": -0.02835,
				"method": "rhf"
			},
			{
				"type": "unocc",
				"energy": -0.01336,
				"method": "rhf"
			},
			{
				"type": "unocc",
				"energy": 0.00708,
				"method": "rhf"
			}
		],
		"cosmo_sigma_profile": { 
			"-0.025": 0.0,
			"-0.024": 0.0,
			"-0.023": 0.0,
			"-0.022": 0.0,
			"-0.021": 0.0,
			"-0.02": 0.0,
			"-0.019": 0.0,
			"-0.018": 0.0,
			"-0.017": 0.0,
			"-0.016": 0.0,
			"-0.015": 0.0,
			"-0.014": 0.0,
			"-0.013": 0.0,
			"-0.012": 0.0,
			"-0.011": 0.0,
			"-0.01": 0.19900681925,
			"-0.009": 1.55574465896,
			"-0.008": 5.56378408555,
			"-0.007": 10.3565473588,
			"-0.006": 16.5334873927,
			"-0.005": 24.9928442822,
			"-0.004": 31.8395287634,
			"-0.003": 36.2120622956,
			"-0.002": 32.6797621892,
			"-0.001": 34.3071816373,
			"0.0": 37.1651164003,
			"0.001": 34.8417001477,
			"0.002": 37.5124613717,
			"0.003": 26.7315520948,
			"0.004": 25.7593365218,
			"0.005": 12.2834507105,
			"0.006": 8.71562847851,
			"0.007": 5.85901727685,
			"0.008": 4.28683543146,
			"0.009": 3.76574903831,
			"0.01": 4.00789869764,
			"0.011": 5.65860773643,
			"0.012": 5.52993100191,
			"0.013": 0.528114111198,
			"0.014": 0.0,
			"0.015": 0.0,
			"0.016": 0.0,
			"0.017": 0.0,
			"0.018": 0.0,
			"0.019": 0.0,
			"0.02": 0.0,
			"0.021": 0.0,
			"0.022": 0.0,
			"0.023": 0.0,
			"0.024": 0.0,
			"0.025": 0.0
		}
	}
}
