{
	 "smiles": "OC1=C(C=C(F)C=C1)[N+]([O-])=O", 
	 "Tm": 347.15, 
	 "num_atms": 15, 
	 "gaussian": { 
		 "optdone": 1, 
		 "sigma_profile": "yes", 
		 "theory": "DFT", 
		 "functional": "B3LYP", 
		 "basiset": "6-31G**", 
		 "properties": { 
			 "R2extent": 2077.2729, 
			 "electric_dipole_moment_norm": 2.84668152592, 
			 "electric_quadrupole_moment_norm": 4.00858288676, 
			 "total_energy": -611.205724948, 
			 "HOMO_LUMO_gap": 0.14109, 
			 "cosmo_polarized_energy": -7.22, 
			 "cosmo_cavitation_energy": 20.53, 
			 "cosmo_dispersion_energy": -15.5, 
			 "cosmo_repulsion_energy": 1.2, 
			 "cosmo_total_nonelectrostatic_energy": 6.23, 
			 "SMD_solvation_energy": 6.57 
		},
		"coords": [
			{
				"x": 0.8657903875,
				"y": 0.5651600383,
				"z": -1.1673201526,
				"element": "O" 
			},
			{
				"x": 0.2935883505,
				"y": -0.271135511,
				"z": -0.2966145752,
				"element": "C" 
			},
			{
				"x": 0.7919215927,
				"y": -0.5371300864,
				"z": 1.0023054138,
				"element": "C" 
			},
			{
				"x": 0.144509506,
				"y": -1.4282998774,
				"z": 1.8736604302,
				"element": "C" 
			},
			{
				"x": -1.0034662912,
				"y": -2.0521129959,
				"z": 1.4400115234,
				"element": "C" 
			},
			{
				"x": -1.6436633861,
				"y": -2.911425037,
				"z": 2.2563090585,
				"element": "F" 
			},
			{
				"x": -1.5277915162,
				"y": -1.8154304052,
				"z": 0.1627801986,
				"element": "C" 
			},
			{
				"x": -0.8842902413,
				"y": -0.9359454164,
				"z": -0.6903719667,
				"element": "C" 
			},
			{
				"x": 1.9974695992,
				"y": 0.1089207469,
				"z": 1.4763998265,
				"element": "N" 
			},
			{
				"x": 2.5816898949,
				"y": 0.905397824,
				"z": 0.7053083645,
				"element": "O" 
			},
			{
				"x": 2.4046039912,
				"y": -0.1402764647,
				"z": 2.6044258732,
				"element": "O" 
			},
			{
				"x": 1.6656185208,
				"y": 0.9285986739,
				"z": -0.7173186332,
				"element": "H" 
			},
			{
				"x": 0.551497113,
				"y": -1.6094395098,
				"z": 2.8596720606,
				"element": "H" 
			},
			{
				"x": -2.4348239151,
				"y": -2.3273358584,
				"z": -0.1404542511,
				"element": "H" 
			},
			{
				"x": -1.2671536059,
				"y": -0.733446121,
				"z": -1.6843931705,
				"element": "H" 
			}
		],
		 "valence_orbital": [ 
			{
				"type": "occ",
				"energy": -0.32875,
				"method": "rhf"
			},
			{
				"type": "occ",
				"energy": -0.32599,
				"method": "rhf"
			},
			{
				"type": "occ",
				"energy": -0.31228,
				"method": "rhf"
			},
			{
				"type": "occ",
				"energy": -0.29747,
				"method": "rhf"
			},
			{
				"type": "occ",
				"energy": -0.2483,
				"method": "rhf"
			},
			{
				"type": "unocc",
				"energy": -0.10721,
				"method": "rhf"
			},
			{
				"type": "unocc",
				"energy": -0.02491,
				"method": "rhf"
			},
			{
				"type": "unocc",
				"energy": -0.00471,
				"method": "rhf"
			},
			{
				"type": "unocc",
				"energy": 0.06672,
				"method": "rhf"
			},
			{
				"type": "unocc",
				"energy": 0.11929,
				"method": "rhf"
			}
		],
		"cosmo_sigma_profile": { 
			"-0.025": 0.0,
			"-0.024": 0.0,
			"-0.023": 0.0,
			"-0.022": 0.0,
			"-0.021": 0.0,
			"-0.02": 0.0,
			"-0.019": 0.0,
			"-0.018": 0.0,
			"-0.017": 0.0,
			"-0.016": 0.0,
			"-0.015": 0.0,
			"-0.014": 0.0,
			"-0.013": 0.0,
			"-0.012": 0.0,
			"-0.011": 0.0428790226862,
			"-0.01": 0.508113390536,
			"-0.009": 2.89604335886,
			"-0.008": 5.60019225226,
			"-0.007": 8.93036310988,
			"-0.006": 8.87807445083,
			"-0.005": 7.23830223704,
			"-0.004": 7.3629642415,
			"-0.003": 7.3052241761,
			"-0.002": 12.5549502716,
			"-0.001": 18.4304536722,
			"0.0": 16.8389763861,
			"0.001": 11.4150973593,
			"0.002": 5.98424209457,
			"0.003": 8.84558226048,
			"0.004": 12.2684105874,
			"0.005": 4.27791771699,
			"0.006": 6.09487148171,
			"0.007": 7.59254480814,
			"0.008": 5.03137978012,
			"0.009": 5.83357038123,
			"0.01": 1.84185745253,
			"0.011": 0.0,
			"0.012": 0.0,
			"0.013": 0.0,
			"0.014": 0.0,
			"0.015": 0.0,
			"0.016": 0.0,
			"0.017": 0.0,
			"0.018": 0.0,
			"0.019": 0.0,
			"0.02": 0.0,
			"0.021": 0.0,
			"0.022": 0.0,
			"0.023": 0.0,
			"0.024": 0.0,
			"0.025": 0.0
		}
	}
}
