{
	 "smiles": "OC1=CC=C(Cl)C=C1SC1=CC(Cl)=CC=C1O", 
	 "Tm": 447.15, 
	 "num_atms": 25, 
	 "gaussian": { 
		 "optdone": 1, 
		 "sigma_profile": "yes", 
		 "theory": "DFT", 
		 "functional": "B3LYP", 
		 "basiset": "6-31G**", 
		 "properties": { 
			 "R2extent": 6912.6423, 
			 "electric_dipole_moment_norm": 2.01608389458, 
			 "electric_quadrupole_moment_norm": 7.11010661453, 
			 "total_energy": -1931.11306109, 
			 "HOMO_LUMO_gap": 0.18251, 
			 "cosmo_polarized_energy": -9.44, 
			 "cosmo_cavitation_energy": 34.65, 
			 "cosmo_dispersion_energy": -25.51, 
			 "cosmo_repulsion_energy": 1.94, 
			 "cosmo_total_nonelectrostatic_energy": 11.08, 
			 "SMD_solvation_energy": 5.27 
		},
		"coords": [
			{
				"x": 0.7197231142,
				"y": -0.4379420626,
				"z": 2.1454332723,
				"element": "O" 
			},
			{
				"x": -0.1112107877,
				"y": -0.7586333226,
				"z": 1.1287136704,
				"element": "C" 
			},
			{
				"x": -0.0876618091,
				"y": -2.0999783894,
				"z": 0.7160337311,
				"element": "C" 
			},
			{
				"x": -0.90317099,
				"y": -2.5531851338,
				"z": -0.3122048855,
				"element": "C" 
			},
			{
				"x": -1.7616848552,
				"y": -1.6577322766,
				"z": -0.953166702,
				"element": "C" 
			},
			{
				"x": -2.7990119914,
				"y": -2.2193336214,
				"z": -2.2563172821,
				"element": "Cl" 
			},
			{
				"x": -1.7984358427,
				"y": -0.3218103375,
				"z": -0.5723405568,
				"element": "C" 
			},
			{
				"x": -0.9781722519,
				"y": 0.1381397096,
				"z": 0.4685602399,
				"element": "C" 
			},
			{
				"x": -1.1702603361,
				"y": 1.8591223968,
				"z": 0.9587757045,
				"element": "S" 
			},
			{
				"x": 0.4198523665,
				"y": 2.5914009376,
				"z": 0.5440397009,
				"element": "C" 
			},
			{
				"x": 0.7506579945,
				"y": 2.9450163553,
				"z": -0.7685617177,
				"element": "C" 
			},
			{
				"x": 1.9932597651,
				"y": 3.5144318914,
				"z": -1.0304403072,
				"element": "C" 
			},
			{
				"x": 2.414496924,
				"y": 3.9525700558,
				"z": -2.6782856385,
				"element": "Cl" 
			},
			{
				"x": 2.9077224207,
				"y": 3.7473391852,
				"z": 0.0002917638,
				"element": "C" 
			},
			{
				"x": 2.5734983238,
				"y": 3.4117083853,
				"z": 1.3086210372,
				"element": "C" 
			},
			{
				"x": 1.3302483162,
				"y": 2.8389571237,
				"z": 1.5863752245,
				"element": "C" 
			},
			{
				"x": 1.0507395647,
				"y": 2.4891400326,
				"z": 2.8815648997,
				"element": "O" 
			},
			{
				"x": 0.6882625945,
				"y": 0.5037104232,
				"z": 2.3762919032,
				"element": "H" 
			},
			{
				"x": 0.5863814936,
				"y": -2.7765497646,
				"z": 1.2304966271,
				"element": "H" 
			},
			{
				"x": -0.8752435195,
				"y": -3.5935225195,
				"z": -0.6166334232,
				"element": "H" 
			},
			{
				"x": -2.4630863831,
				"y": 0.3716865978,
				"z": -1.0744690174,
				"element": "H" 
			},
			{
				"x": 0.0458646269,
				"y": 2.76688776,
				"z": -1.5724476739,
				"element": "H" 
			},
			{
				"x": 3.8703400566,
				"y": 4.1943380982,
				"z": -0.2213636399,
				"element": "H" 
			},
			{
				"x": 3.2648267024,
				"y": 3.5877947858,
				"z": 2.1255487403,
				"element": "H" 
			},
			{
				"x": 0.082964503,
				"y": 2.4040436899,
				"z": 2.9611843294,
				"element": "H" 
			}
		],
		 "valence_orbital": [ 
			{
				"type": "occ",
				"energy": -0.28923,
				"method": "rhf"
			},
			{
				"type": "occ",
				"energy": -0.28067,
				"method": "rhf"
			},
			{
				"type": "occ",
				"energy": -0.26187,
				"method": "rhf"
			},
			{
				"type": "occ",
				"energy": -0.24465,
				"method": "rhf"
			},
			{
				"type": "occ",
				"energy": -0.22971,
				"method": "rhf"
			},
			{
				"type": "unocc",
				"energy": -0.0472,
				"method": "rhf"
			},
			{
				"type": "unocc",
				"energy": -0.03426,
				"method": "rhf"
			},
			{
				"type": "unocc",
				"energy": -0.02057,
				"method": "rhf"
			},
			{
				"type": "unocc",
				"energy": -0.01297,
				"method": "rhf"
			},
			{
				"type": "unocc",
				"energy": 0.01438,
				"method": "rhf"
			}
		],
		"cosmo_sigma_profile": { 
			"-0.025": 0.0,
			"-0.024": 0.0,
			"-0.023": 0.0,
			"-0.022": 0.0,
			"-0.021": 0.0,
			"-0.02": 0.0,
			"-0.019": 0.0,
			"-0.018": 0.0,
			"-0.017": 0.0,
			"-0.016": 0.0,
			"-0.015": 0.421424423928,
			"-0.014": 1.54023316386,
			"-0.013": 1.11173576105,
			"-0.012": 1.16100335674,
			"-0.011": 1.31752227623,
			"-0.01": 0.849245411912,
			"-0.009": 1.42257000015,
			"-0.008": 5.23239273739,
			"-0.007": 10.8974407943,
			"-0.006": 10.9916255982,
			"-0.005": 12.0848701775,
			"-0.004": 10.9441085751,
			"-0.003": 12.9588221546,
			"-0.002": 17.5975845232,
			"-0.001": 19.9874117157,
			"0.0": 24.8820796454,
			"0.001": 33.6715933124,
			"0.002": 40.2354136286,
			"0.003": 26.4415288506,
			"0.004": 23.0388016889,
			"0.005": 15.1878328141,
			"0.006": 3.26013893322,
			"0.007": 2.48863320601,
			"0.008": 1.851056881,
			"0.009": 3.14175887691,
			"0.01": 2.40713352904,
			"0.011": 0.263192765016,
			"0.012": 0.0,
			"0.013": 0.0,
			"0.014": 0.0,
			"0.015": 0.0,
			"0.016": 0.0,
			"0.017": 0.0,
			"0.018": 0.0,
			"0.019": 0.0,
			"0.02": 0.0,
			"0.021": 0.0,
			"0.022": 0.0,
			"0.023": 0.0,
			"0.024": 0.0,
			"0.025": 0.0
		}
	}
}
