{
	 "smiles": "CC(=O)N1N=C2C(CCC3=C2C=CC=C3)C1C1=CC=C(Cl)C=C1", 
	 "Tm": 455.15, 
	 "num_atms": 40, 
	 "gaussian": { 
		 "optdone": 1, 
		 "sigma_profile": "yes", 
		 "theory": "DFT", 
		 "functional": "B3LYP", 
		 "basiset": "6-31G**", 
		 "properties": { 
			 "R2extent": 9752.0438, 
			 "electric_dipole_moment_norm": 5.08460675176, 
			 "electric_quadrupole_moment_norm": 11.5513654937, 
			 "total_energy": -1379.19555959, 
			 "HOMO_LUMO_gap": 0.16263, 
			 "cosmo_polarized_energy": -14.53, 
			 "cosmo_cavitation_energy": 44.67, 
			 "cosmo_dispersion_energy": -30.94, 
			 "cosmo_repulsion_energy": 2.36, 
			 "cosmo_total_nonelectrostatic_energy": 16.08, 
			 "SMD_solvation_energy": 6.41 
		},
		"coords": [
			{
				"x": 2.1386840573,
				"y": 2.1474501243,
				"z": 2.7120894378,
				"element": "C" 
			},
			{
				"x": 2.0377610487,
				"y": 0.9548228299,
				"z": 1.7845457554,
				"element": "C" 
			},
			{
				"x": 2.8816296821,
				"y": 0.0726662281,
				"z": 1.7135438014,
				"element": "O" 
			},
			{
				"x": 0.8989987361,
				"y": 0.8858693106,
				"z": 0.9960816123,
				"element": "N" 
			},
			{
				"x": 0.1219625392,
				"y": 2.0163222924,
				"z": 0.7809436696,
				"element": "N" 
			},
			{
				"x": -0.6394452784,
				"y": 1.7931724076,
				"z": -0.2358038832,
				"element": "C" 
			},
			{
				"x": -0.4936869664,
				"y": 0.4084381444,
				"z": -0.8242096076,
				"element": "C" 
			},
			{
				"x": -0.4881921087,
				"y": 0.4819967874,
				"z": -2.3530383573,
				"element": "C" 
			},
			{
				"x": -1.787854343,
				"y": 1.1608134362,
				"z": -2.8207851018,
				"element": "C" 
			},
			{
				"x": -2.086135211,
				"y": 2.4746325152,
				"z": -2.1126180121,
				"element": "C" 
			},
			{
				"x": -1.5393855397,
				"y": 2.7701496836,
				"z": -0.8426850149,
				"element": "C" 
			},
			{
				"x": -1.8368965204,
				"y": 3.9920743758,
				"z": -0.2136503808,
				"element": "C" 
			},
			{
				"x": -2.6779595089,
				"y": 4.9125924418,
				"z": -0.8253864683,
				"element": "C" 
			},
			{
				"x": -3.2263031118,
				"y": 4.6250850166,
				"z": -2.0804622978,
				"element": "C" 
			},
			{
				"x": -2.9263661022,
				"y": 3.4200568013,
				"z": -2.7127235926,
				"element": "C" 
			},
			{
				"x": 0.770321884,
				"y": -0.1178282383,
				"z": -0.0944937403,
				"element": "C" 
			},
			{
				"x": 0.6495146852,
				"y": -1.5447980437,
				"z": 0.3983941805,
				"element": "C" 
			},
			{
				"x": -0.2254877379,
				"y": -1.8792491003,
				"z": 1.439693696,
				"element": "C" 
			},
			{
				"x": -0.3798924808,
				"y": -3.2015111568,
				"z": 1.8509839029,
				"element": "C" 
			},
			{
				"x": 0.3465683919,
				"y": -4.2027180173,
				"z": 1.2060196098,
				"element": "C" 
			},
			{
				"x": 0.1533535256,
				"y": -5.8756084552,
				"z": 1.7145282294,
				"element": "Cl" 
			},
			{
				"x": 1.2259205667,
				"y": -3.8969521119,
				"z": 0.1697697755,
				"element": "C" 
			},
			{
				"x": 1.3727860146,
				"y": -2.5664758138,
				"z": -0.223473147,
				"element": "C" 
			},
			{
				"x": 2.9993588888,
				"y": 1.9946390632,
				"z": 3.3632649879,
				"element": "H" 
			},
			{
				"x": 1.2287900919,
				"y": 2.2689744731,
				"z": 3.3053082872,
				"element": "H" 
			},
			{
				"x": 2.2689452621,
				"y": 3.068510969,
				"z": 2.1361749394,
				"element": "H" 
			},
			{
				"x": -1.3623501274,
				"y": -0.1915582402,
				"z": -0.5145077713,
				"element": "H" 
			},
			{
				"x": -0.4031576995,
				"y": -0.5169165673,
				"z": -2.7947397489,
				"element": "H" 
			},
			{
				"x": 0.3805423701,
				"y": 1.0628256349,
				"z": -2.6879651457,
				"element": "H" 
			},
			{
				"x": -2.6267301536,
				"y": 0.4693990811,
				"z": -2.651316127,
				"element": "H" 
			},
			{
				"x": -1.7550407688,
				"y": 1.3311977705,
				"z": -3.9024848882,
				"element": "H" 
			},
			{
				"x": -1.3983297455,
				"y": 4.1970151624,
				"z": 0.7576422265,
				"element": "H" 
			},
			{
				"x": -2.9070564737,
				"y": 5.8519864601,
				"z": -0.3310387959,
				"element": "H" 
			},
			{
				"x": -3.8808303953,
				"y": 5.342596246,
				"z": -2.56687248,
				"element": "H" 
			},
			{
				"x": -3.3465464931,
				"y": 3.2074162159,
				"z": -3.6928807555,
				"element": "H" 
			},
			{
				"x": 1.6561557738,
				"y": -0.0408391175,
				"z": -0.7389700266,
				"element": "H" 
			},
			{
				"x": -0.7811759194,
				"y": -1.096339958,
				"z": 1.9480998652,
				"element": "H" 
			},
			{
				"x": -1.0527640497,
				"y": -3.4551827894,
				"z": 2.6626926706,
				"element": "H" 
			},
			{
				"x": 1.7923612461,
				"y": -4.6844589963,
				"z": -0.3147100496,
				"element": "H" 
			},
			{
				"x": 2.0714319711,
				"y": -2.3230668652,
				"z": -1.0192612553,
				"element": "H" 
			}
		],
		 "valence_orbital": [ 
			{
				"type": "occ",
				"energy": -0.26229,
				"method": "rhf"
			},
			{
				"type": "occ",
				"energy": -0.25516,
				"method": "rhf"
			},
			{
				"type": "occ",
				"energy": -0.25411,
				"method": "rhf"
			},
			{
				"type": "occ",
				"energy": -0.23642,
				"method": "rhf"
			},
			{
				"type": "occ",
				"energy": -0.2142,
				"method": "rhf"
			},
			{
				"type": "unocc",
				"energy": -0.05157,
				"method": "rhf"
			},
			{
				"type": "unocc",
				"energy": -0.01587,
				"method": "rhf"
			},
			{
				"type": "unocc",
				"energy": -0.01216,
				"method": "rhf"
			},
			{
				"type": "unocc",
				"energy": -0.01138,
				"method": "rhf"
			},
			{
				"type": "unocc",
				"energy": 0.02301,
				"method": "rhf"
			}
		],
		"cosmo_sigma_profile": { 
			"-0.025": 0.0,
			"-0.024": 0.0,
			"-0.023": 0.0,
			"-0.022": 0.0,
			"-0.021": 0.0,
			"-0.02": 0.0,
			"-0.019": 0.0,
			"-0.018": 0.0,
			"-0.017": 0.0,
			"-0.016": 0.0,
			"-0.015": 0.0,
			"-0.014": 0.0,
			"-0.013": 0.0,
			"-0.012": 0.0,
			"-0.011": 0.0,
			"-0.01": 0.0,
			"-0.009": 0.0,
			"-0.008": 0.213276079546,
			"-0.007": 5.31769815381,
			"-0.006": 17.7740772504,
			"-0.005": 31.5491361254,
			"-0.004": 34.5462239677,
			"-0.003": 35.3349626623,
			"-0.002": 30.2884203541,
			"-0.001": 30.3605054032,
			"0.0": 22.4278855719,
			"0.001": 20.9845305541,
			"0.002": 25.0125289244,
			"0.003": 26.5166792824,
			"0.004": 27.452043638,
			"0.005": 21.018231078,
			"0.006": 4.96066811076,
			"0.007": 4.10995959016,
			"0.008": 3.01029576777,
			"0.009": 2.8373398142,
			"0.01": 1.90569769142,
			"0.011": 2.80069405521,
			"0.012": 2.71432037542,
			"0.013": 4.16554345109,
			"0.014": 1.85261782905,
			"0.015": 0.278214168774,
			"0.016": 0.0,
			"0.017": 0.0,
			"0.018": 0.0,
			"0.019": 0.0,
			"0.02": 0.0,
			"0.021": 0.0,
			"0.022": 0.0,
			"0.023": 0.0,
			"0.024": 0.0,
			"0.025": 0.0
		}
	}
}
