{
	 "smiles": "CC(=O)C1=CC=C(C=C1)C1=CC=C(Br)C=C1", 
	 "Tm": 399.15, 
	 "num_atms": 27, 
	 "gaussian": { 
		 "optdone": 1, 
		 "sigma_profile": "yes", 
		 "theory": "DFT", 
		 "functional": "B3LYP", 
		 "basiset": "6-31G**", 
		 "properties": { 
			 "R2extent": 14487.0619, 
			 "electric_dipole_moment_norm": 2.25921209274, 
			 "electric_quadrupole_moment_norm": 13.4084504634, 
			 "total_energy": -3186.76115287, 
			 "HOMO_LUMO_gap": 0.16643, 
			 "cosmo_polarized_energy": -10.23, 
			 "cosmo_cavitation_energy": 33.84, 
			 "cosmo_dispersion_energy": -24.95, 
			 "cosmo_repulsion_energy": 1.92, 
			 "cosmo_total_nonelectrostatic_energy": 10.81, 
			 "SMD_solvation_energy": 5.04 
		},
		"coords": [
			{
				"x": 2.631296269,
				"y": 1.069723317,
				"z": -0.9481377165,
				"element": "C" 
			},
			{
				"x": 1.2635420511,
				"y": 1.6349446883,
				"z": -1.2934387435,
				"element": "C" 
			},
			{
				"x": 1.1600524248,
				"y": 2.6058392672,
				"z": -2.0285285009,
				"element": "O" 
			},
			{
				"x": 0.0439564501,
				"y": 0.9815624681,
				"z": -0.7176955187,
				"element": "C" 
			},
			{
				"x": -1.2134934957,
				"y": 1.5131826809,
				"z": -1.0445664092,
				"element": "C" 
			},
			{
				"x": -2.3765796349,
				"y": 0.9482634062,
				"z": -0.5392527032,
				"element": "C" 
			},
			{
				"x": -2.32680686,
				"y": -0.1719199083,
				"z": 0.3123344036,
				"element": "C" 
			},
			{
				"x": -1.0657437319,
				"y": -0.7009808109,
				"z": 0.6364021777,
				"element": "C" 
			},
			{
				"x": 0.1008007242,
				"y": -0.1337070833,
				"z": 0.1309527712,
				"element": "C" 
			},
			{
				"x": -3.569165575,
				"y": -0.7770238476,
				"z": 0.8512311573,
				"element": "C" 
			},
			{
				"x": -3.6173596307,
				"y": -1.2912294339,
				"z": 2.1581765659,
				"element": "C" 
			},
			{
				"x": -4.7810177995,
				"y": -1.8607875941,
				"z": 2.6706713857,
				"element": "C" 
			},
			{
				"x": -5.9192899053,
				"y": -1.9221964983,
				"z": 1.8685024783,
				"element": "C" 
			},
			{
				"x": -7.5194209696,
				"y": -2.7022143409,
				"z": 2.5610579796,
				"element": "Br" 
			},
			{
				"x": -5.9052174808,
				"y": -1.4216380509,
				"z": 0.5676846695,
				"element": "C" 
			},
			{
				"x": -4.7346083332,
				"y": -0.8534583851,
				"z": 0.0697054838,
				"element": "C" 
			},
			{
				"x": 3.3921883487,
				"y": 1.667625838,
				"z": -1.4503280387,
				"element": "H" 
			},
			{
				"x": 2.8057343497,
				"y": 1.0931966651,
				"z": 0.1332636632,
				"element": "H" 
			},
			{
				"x": 2.718393919,
				"y": 0.0260738985,
				"z": -1.2702142832,
				"element": "H" 
			},
			{
				"x": -1.2479552564,
				"y": 2.3814303084,
				"z": -1.6941579493,
				"element": "H" 
			},
			{
				"x": -3.337198631,
				"y": 1.3925515019,
				"z": -0.781918122,
				"element": "H" 
			},
			{
				"x": -1.0010052867,
				"y": -1.5817098363,
				"z": 1.2680034005,
				"element": "H" 
			},
			{
				"x": 1.0569147337,
				"y": -0.57386421,
				"z": 0.3954771616,
				"element": "H" 
			},
			{
				"x": -2.7412417513,
				"y": -1.2213786904,
				"z": 2.7955451509,
				"element": "H" 
			},
			{
				"x": -4.8064554743,
				"y": -2.2443699572,
				"z": 3.6842839202,
				"element": "H" 
			},
			{
				"x": -6.7938341076,
				"y": -1.4827576909,
				"z": -0.0502037373,
				"element": "H" 
			},
			{
				"x": -4.7207853465,
				"y": -0.4882577016,
				"z": -0.9525506468,
				"element": "H" 
			}
		],
		 "valence_orbital": [ 
			{
				"type": "occ",
				"energy": -0.27393,
				"method": "rhf"
			},
			{
				"type": "occ",
				"energy": -0.27071,
				"method": "rhf"
			},
			{
				"type": "occ",
				"energy": -0.26554,
				"method": "rhf"
			},
			{
				"type": "occ",
				"energy": -0.24987,
				"method": "rhf"
			},
			{
				"type": "occ",
				"energy": -0.23364,
				"method": "rhf"
			},
			{
				"type": "unocc",
				"energy": -0.06721,
				"method": "rhf"
			},
			{
				"type": "unocc",
				"energy": -0.0225,
				"method": "rhf"
			},
			{
				"type": "unocc",
				"energy": -0.01669,
				"method": "rhf"
			},
			{
				"type": "unocc",
				"energy": -0.01498,
				"method": "rhf"
			},
			{
				"type": "unocc",
				"energy": 0.00414,
				"method": "rhf"
			}
		],
		"cosmo_sigma_profile": { 
			"-0.025": 0.0,
			"-0.024": 0.0,
			"-0.023": 0.0,
			"-0.022": 0.0,
			"-0.021": 0.0,
			"-0.02": 0.0,
			"-0.019": 0.0,
			"-0.018": 0.0,
			"-0.017": 0.0,
			"-0.016": 0.0,
			"-0.015": 0.0,
			"-0.014": 0.0,
			"-0.013": 0.0,
			"-0.012": 0.0,
			"-0.011": 0.0,
			"-0.01": 0.0,
			"-0.009": 0.0,
			"-0.008": 0.129375585941,
			"-0.007": 7.21772489481,
			"-0.006": 22.7630827723,
			"-0.005": 21.3606434974,
			"-0.004": 20.2253427532,
			"-0.003": 17.7979209836,
			"-0.002": 17.4012950292,
			"-0.001": 19.9152966368,
			"0.0": 17.2340488977,
			"0.001": 21.4325786988,
			"0.002": 28.1941326989,
			"0.003": 33.1436289295,
			"0.004": 23.1167486347,
			"0.005": 7.18996191761,
			"0.006": 1.78060168601,
			"0.007": 2.36637251381,
			"0.008": 0.980045187788,
			"0.009": 1.6689759016,
			"0.01": 1.74484974426,
			"0.011": 2.96149171006,
			"0.012": 4.13726038657,
			"0.013": 1.66037224209,
			"0.014": 0.258806232346,
			"0.015": 0.0,
			"0.016": 0.0,
			"0.017": 0.0,
			"0.018": 0.0,
			"0.019": 0.0,
			"0.02": 0.0,
			"0.021": 0.0,
			"0.022": 0.0,
			"0.023": 0.0,
			"0.024": 0.0,
			"0.025": 0.0
		}
	}
}
