{
	 "smiles": "CC1=C(C2=C(S1)C=CC(Cl)=C2)S(Cl)(=O)=O", 
	 "Tm": 422.15, 
	 "num_atms": 21, 
	 "gaussian": { 
		 "optdone": 1, 
		 "sigma_profile": "yes", 
		 "theory": "DFT", 
		 "functional": "B3LYP", 
		 "basiset": "6-31G**", 
		 "properties": { 
			 "R2extent": 5225.6664, 
			 "electric_dipole_moment_norm": 5.40606248669, 
			 "electric_quadrupole_moment_norm": 7.25322919051, 
			 "total_energy": -2213.71749268, 
			 "HOMO_LUMO_gap": 0.15866, 
			 "cosmo_polarized_energy": -9.61, 
			 "cosmo_cavitation_energy": 31.73, 
			 "cosmo_dispersion_energy": -23.99, 
			 "cosmo_repulsion_energy": 1.78, 
			 "cosmo_total_nonelectrostatic_energy": 9.52, 
			 "SMD_solvation_energy": 3.36 
		},
		"coords": [
			{
				"x": 2.9422668721,
				"y": -0.394045574,
				"z": -1.7877436603,
				"element": "C" 
			},
			{
				"x": 1.7247456052,
				"y": 0.3265140556,
				"z": -1.2873941638,
				"element": "C" 
			},
			{
				"x": 1.2682128401,
				"y": 0.5426262958,
				"z": -0.0081526894,
				"element": "C" 
			},
			{
				"x": 0.0163386053,
				"y": 1.2721070884,
				"z": 0.0850266375,
				"element": "C" 
			},
			{
				"x": -0.4458417345,
				"y": 1.6207844121,
				"z": -1.2051428379,
				"element": "C" 
			},
			{
				"x": 0.6455699262,
				"y": 1.0483046137,
				"z": -2.4529234795,
				"element": "S" 
			},
			{
				"x": -1.6311264361,
				"y": 2.3360500226,
				"z": -1.3951226026,
				"element": "C" 
			},
			{
				"x": -2.3721162768,
				"y": 2.7040276531,
				"z": -0.2803996364,
				"element": "C" 
			},
			{
				"x": -1.9158541357,
				"y": 2.3580305271,
				"z": 1.0024175932,
				"element": "C" 
			},
			{
				"x": -2.873530314,
				"y": 2.8410756836,
				"z": 2.3912824157,
				"element": "Cl" 
			},
			{
				"x": -0.7378461078,
				"y": 1.655391662,
				"z": 1.2090557794,
				"element": "C" 
			},
			{
				"x": 2.1132928731,
				"y": -0.0858515381,
				"z": 1.4105508202,
				"element": "S" 
			},
			{
				"x": 1.0463470758,
				"y": -1.9059550515,
				"z": 1.7747493821,
				"element": "Cl" 
			},
			{
				"x": 1.8447150469,
				"y": 0.7664620605,
				"z": 2.5624885,
				"element": "O" 
			},
			{
				"x": 3.4695612157,
				"y": -0.4828129453,
				"z": 1.0523610224,
				"element": "O" 
			},
			{
				"x": 3.8529274159,
				"y": 0.1002773173,
				"z": -1.4398545568,
				"element": "H" 
			},
			{
				"x": 2.9726622542,
				"y": -1.4190919636,
				"z": -1.4089483304,
				"element": "H" 
			},
			{
				"x": 2.9512877909,
				"y": -0.4238212889,
				"z": -2.8794862112,
				"element": "H" 
			},
			{
				"x": -1.9714505837,
				"y": 2.5996889961,
				"z": -2.3912633645,
				"element": "H" 
			},
			{
				"x": -3.2977819833,
				"y": 3.2567743318,
				"z": -0.391276486,
				"element": "H" 
			},
			{
				"x": -0.4041799495,
				"y": 1.4173636418,
				"z": 2.2102758682,
				"element": "H" 
			}
		],
		 "valence_orbital": [ 
			{
				"type": "occ",
				"energy": -0.32207,
				"method": "rhf"
			},
			{
				"type": "occ",
				"energy": -0.3162,
				"method": "rhf"
			},
			{
				"type": "occ",
				"energy": -0.31086,
				"method": "rhf"
			},
			{
				"type": "occ",
				"energy": -0.25911,
				"method": "rhf"
			},
			{
				"type": "occ",
				"energy": -0.25196,
				"method": "rhf"
			},
			{
				"type": "unocc",
				"energy": -0.0933,
				"method": "rhf"
			},
			{
				"type": "unocc",
				"energy": -0.06039,
				"method": "rhf"
			},
			{
				"type": "unocc",
				"energy": -0.03206,
				"method": "rhf"
			},
			{
				"type": "unocc",
				"energy": -0.0217,
				"method": "rhf"
			},
			{
				"type": "unocc",
				"energy": -0.00732,
				"method": "rhf"
			}
		],
		"cosmo_sigma_profile": { 
			"-0.025": 0.0,
			"-0.024": 0.0,
			"-0.023": 0.0,
			"-0.022": 0.0,
			"-0.021": 0.0,
			"-0.02": 0.0,
			"-0.019": 0.0,
			"-0.018": 0.0,
			"-0.017": 0.0,
			"-0.016": 0.0,
			"-0.015": 0.0,
			"-0.014": 0.0,
			"-0.013": 0.0,
			"-0.012": 0.0,
			"-0.011": 0.0,
			"-0.01": 0.0893728587842,
			"-0.009": 2.12291050234,
			"-0.008": 4.68069354819,
			"-0.007": 7.79266854942,
			"-0.006": 10.7628332424,
			"-0.005": 13.1981956461,
			"-0.004": 13.9793532425,
			"-0.003": 18.9540273675,
			"-0.002": 20.0050896963,
			"-0.001": 20.2545187246,
			"0.0": 25.1346513321,
			"0.001": 30.8942220129,
			"0.002": 25.7232228351,
			"0.003": 22.3542531065,
			"0.004": 19.7076225863,
			"0.005": 7.50755670941,
			"0.006": 3.30307251485,
			"0.007": 5.29080593403,
			"0.008": 7.0279519773,
			"0.009": 3.76473163841,
			"0.01": 0.0,
			"0.011": 0.0,
			"0.012": 0.0,
			"0.013": 0.0,
			"0.014": 0.0,
			"0.015": 0.0,
			"0.016": 0.0,
			"0.017": 0.0,
			"0.018": 0.0,
			"0.019": 0.0,
			"0.02": 0.0,
			"0.021": 0.0,
			"0.022": 0.0,
			"0.023": 0.0,
			"0.024": 0.0,
			"0.025": 0.0
		}
	}
}
