{
	 "smiles": "OC(=O)C1=C(N=CC=N1)C(=O)NC1=CC=C(F)C=C1", 
	 "Tm": 451.15, 
	 "num_atms": 27, 
	 "gaussian": { 
		 "optdone": 1, 
		 "sigma_profile": "yes", 
		 "theory": "DFT", 
		 "functional": "B3LYP", 
		 "basiset": "6-31G**", 
		 "properties": { 
			 "R2extent": 4758.1586, 
			 "electric_dipole_moment_norm": 4.61003246192, 
			 "electric_quadrupole_moment_norm": 23.3237368104, 
			 "total_energy": -951.859744499, 
			 "HOMO_LUMO_gap": 0.14931, 
			 "cosmo_polarized_energy": -19.82, 
			 "cosmo_cavitation_energy": 33.63, 
			 "cosmo_dispersion_energy": -22.99, 
			 "cosmo_repulsion_energy": 1.76, 
			 "cosmo_total_nonelectrostatic_energy": 12.4, 
			 "SMD_solvation_energy": 6.19 
		},
		"coords": [
			{
				"x": 2.2776382814,
				"y": -0.1833482611,
				"z": -3.2154240117,
				"element": "O" 
			},
			{
				"x": 1.9892713601,
				"y": 0.4173765294,
				"z": -2.0539487452,
				"element": "C" 
			},
			{
				"x": 1.4678017237,
				"y": 1.5074541854,
				"z": -1.9840129371,
				"element": "O" 
			},
			{
				"x": 2.3582846656,
				"y": -0.3999100402,
				"z": -0.8399602119,
				"element": "C" 
			},
			{
				"x": 2.183126071,
				"y": 0.0608905483,
				"z": 0.4763072987,
				"element": "C" 
			},
			{
				"x": 2.4703563148,
				"y": -0.7304267438,
				"z": 1.520226312,
				"element": "N" 
			},
			{
				"x": 2.9419257203,
				"y": -1.9506316632,
				"z": 1.2533147289,
				"element": "C" 
			},
			{
				"x": 3.1461254807,
				"y": -2.3989998041,
				"z": -0.0542609407,
				"element": "C" 
			},
			{
				"x": 2.8444087526,
				"y": -1.6219990838,
				"z": -1.0948014729,
				"element": "N" 
			},
			{
				"x": 1.8501930501,
				"y": 1.5064965164,
				"z": 0.8126766279,
				"element": "C" 
			},
			{
				"x": 2.7710712498,
				"y": 2.2931813147,
				"z": 0.9546942461,
				"element": "O" 
			},
			{
				"x": 0.5377421773,
				"y": 1.8352284561,
				"z": 1.0029349588,
				"element": "N" 
			},
			{
				"x": -0.5968784034,
				"y": 1.0146900792,
				"z": 0.7293207673,
				"element": "C" 
			},
			{
				"x": -0.8829673992,
				"y": -0.0872027865,
				"z": 1.5440862007,
				"element": "C" 
			},
			{
				"x": -2.0019008123,
				"y": -0.8790316423,
				"z": 1.2872676145,
				"element": "C" 
			},
			{
				"x": -2.8368119115,
				"y": -0.5351381417,
				"z": 0.230022979,
				"element": "C" 
			},
			{
				"x": -3.9275624045,
				"y": -1.2895233016,
				"z": -0.0130760435,
				"element": "F" 
			},
			{
				"x": -2.5811595886,
				"y": 0.5629469123,
				"z": -0.58530171,
				"element": "C" 
			},
			{
				"x": -1.4472211715,
				"y": 1.3338346211,
				"z": -0.3372057633,
				"element": "C" 
			},
			{
				"x": 2.6677940113,
				"y": -1.0541755342,
				"z": -2.9948696878,
				"element": "H" 
			},
			{
				"x": 3.1661647431,
				"y": -2.590128722,
				"z": 2.103823088,
				"element": "H" 
			},
			{
				"x": 3.5474277702,
				"y": -3.3871836978,
				"z": -0.262328701,
				"element": "H" 
			},
			{
				"x": 0.3926915132,
				"y": 2.8329242734,
				"z": 1.1057078383,
				"element": "H" 
			},
			{
				"x": -0.2246824192,
				"y": -0.3171056202,
				"z": 2.3750926534,
				"element": "H" 
			},
			{
				"x": -2.2420785779,
				"y": -1.7390663656,
				"z": 1.9027105393,
				"element": "H" 
			},
			{
				"x": -3.2540856632,
				"y": 0.7912562552,
				"z": -1.40445184,
				"element": "H" 
			},
			{
				"x": -1.2016745342,
				"y": 2.1718917167,
				"z": -0.9807437878,
				"element": "H" 
			}
		],
		 "valence_orbital": [ 
			{
				"type": "occ",
				"energy": -0.285,
				"method": "rhf"
			},
			{
				"type": "occ",
				"energy": -0.27951,
				"method": "rhf"
			},
			{
				"type": "occ",
				"energy": -0.27216,
				"method": "rhf"
			},
			{
				"type": "occ",
				"energy": -0.26014,
				"method": "rhf"
			},
			{
				"type": "occ",
				"energy": -0.24111,
				"method": "rhf"
			},
			{
				"type": "unocc",
				"energy": -0.0918,
				"method": "rhf"
			},
			{
				"type": "unocc",
				"energy": -0.06881,
				"method": "rhf"
			},
			{
				"type": "unocc",
				"energy": -0.02361,
				"method": "rhf"
			},
			{
				"type": "unocc",
				"energy": -0.01559,
				"method": "rhf"
			},
			{
				"type": "unocc",
				"energy": 0.0161,
				"method": "rhf"
			}
		],
		"cosmo_sigma_profile": { 
			"-0.025": 0.0,
			"-0.024": 0.0,
			"-0.023": 0.0,
			"-0.022": 0.0,
			"-0.021": 0.0,
			"-0.02": 0.0,
			"-0.019": 0.0,
			"-0.018": 0.0,
			"-0.017": 0.0,
			"-0.016": 0.00373559556044,
			"-0.015": 0.796997202084,
			"-0.014": 1.73520793708,
			"-0.013": 1.267350556,
			"-0.012": 1.30754966413,
			"-0.011": 1.95926327068,
			"-0.01": 2.70750805299,
			"-0.009": 7.78996917783,
			"-0.008": 7.08400639034,
			"-0.007": 12.3057821153,
			"-0.006": 14.6407660444,
			"-0.005": 14.6648231859,
			"-0.004": 15.2538706471,
			"-0.003": 16.0922305309,
			"-0.002": 15.9010707494,
			"-0.001": 14.2838524132,
			"0.0": 18.07589147,
			"0.001": 19.4989036252,
			"0.002": 20.2462482301,
			"0.003": 16.820702077,
			"0.004": 14.8631012274,
			"0.005": 7.77446046298,
			"0.006": 4.91711402299,
			"0.007": 4.58502029198,
			"0.008": 6.21555683022,
			"0.009": 7.84305959066,
			"0.01": 5.55196095948,
			"0.011": 5.81854148135,
			"0.012": 7.8574639572,
			"0.013": 3.10914285879,
			"0.014": 0.0433285836888,
			"0.015": 0.0,
			"0.016": 0.0,
			"0.017": 0.0,
			"0.018": 0.0,
			"0.019": 0.0,
			"0.02": 0.0,
			"0.021": 0.0,
			"0.022": 0.0,
			"0.023": 0.0,
			"0.024": 0.0,
			"0.025": 0.0
		}
	}
}
