{
	 "smiles": "CCCCS(=O)CCCC", 
	 "Tm": 305.95, 
	 "num_atms": 28, 
	 "gaussian": { 
		 "optdone": 1, 
		 "sigma_profile": "yes", 
		 "theory": "DFT", 
		 "functional": "B3LYP", 
		 "basiset": "6-31G**", 
		 "properties": { 
			 "R2extent": 3033.9123, 
			 "electric_dipole_moment_norm": 3.97710423047, 
			 "electric_quadrupole_moment_norm": 15.5588894427, 
			 "total_energy": -789.085392191, 
			 "HOMO_LUMO_gap": 0.25314, 
			 "cosmo_polarized_energy": -12.15, 
			 "cosmo_cavitation_energy": 30.6, 
			 "cosmo_dispersion_energy": -21.96, 
			 "cosmo_repulsion_energy": 1.8, 
			 "cosmo_total_nonelectrostatic_energy": 10.45, 
			 "SMD_solvation_energy": 4.33 
		},
		"coords": [
			{
				"x": -3.0480051806,
				"y": -2.2338319383,
				"z": 0.0725807156,
				"element": "C" 
			},
			{
				"x": -2.5453847901,
				"y": -0.810845635,
				"z": 0.3329884079,
				"element": "C" 
			},
			{
				"x": -1.2982574267,
				"y": -0.7760988423,
				"z": 1.2289756742,
				"element": "C" 
			},
			{
				"x": -0.7824158887,
				"y": 0.6328753092,
				"z": 1.5397324173,
				"element": "C" 
			},
			{
				"x": -0.1025151842,
				"y": 1.5486581209,
				"z": 0.0789127681,
				"element": "S" 
			},
			{
				"x": 0.1629731009,
				"y": 2.9691585216,
				"z": 0.5399650852,
				"element": "O" 
			},
			{
				"x": 1.5435791965,
				"y": 0.7040316506,
				"z": 0.0357265391,
				"element": "C" 
			},
			{
				"x": 2.4459480061,
				"y": 1.3260133917,
				"z": -1.0329140625,
				"element": "C" 
			},
			{
				"x": 2.0281386679,
				"y": 1.0188733438,
				"z": -2.477508884,
				"element": "C" 
			},
			{
				"x": 2.9673743274,
				"y": 1.649914828,
				"z": -3.5098042034,
				"element": "C" 
			},
			{
				"x": -3.3047250255,
				"y": -2.742148661,
				"z": 1.009070964,
				"element": "H" 
			},
			{
				"x": -2.286195642,
				"y": -2.8382937372,
				"z": -0.4329674946,
				"element": "H" 
			},
			{
				"x": -3.9414574265,
				"y": -2.230284257,
				"z": -0.5595421199,
				"element": "H" 
			},
			{
				"x": -3.34034131,
				"y": -0.2197091909,
				"z": 0.8068351349,
				"element": "H" 
			},
			{
				"x": -2.3278665124,
				"y": -0.3160332639,
				"z": -0.6212823299,
				"element": "H" 
			},
			{
				"x": -0.5016007819,
				"y": -1.3816717953,
				"z": 0.7763264573,
				"element": "H" 
			},
			{
				"x": -1.5297651079,
				"y": -1.2638404778,
				"z": 2.1853805308,
				"element": "H" 
			},
			{
				"x": -0.0065387499,
				"y": 0.6363039019,
				"z": 2.3125505148,
				"element": "H" 
			},
			{
				"x": -1.593580127,
				"y": 1.2843828954,
				"z": 1.8813141446,
				"element": "H" 
			},
			{
				"x": 1.3707028005,
				"y": -0.3631048989,
				"z": -0.1461278271,
				"element": "H" 
			},
			{
				"x": 1.9742339114,
				"y": 0.832641756,
				"z": 1.034835762,
				"element": "H" 
			},
			{
				"x": 3.4682717607,
				"y": 0.9620787056,
				"z": -0.8654737698,
				"element": "H" 
			},
			{
				"x": 2.4731550377,
				"y": 2.4104727083,
				"z": -0.8696893438,
				"element": "H" 
			},
			{
				"x": 1.9998445707,
				"y": -0.070230466,
				"z": -2.6218051447,
				"element": "H" 
			},
			{
				"x": 1.0048449714,
				"y": 1.3753468387,
				"z": -2.6501336294,
				"element": "H" 
			},
			{
				"x": 2.9867464272,
				"y": 2.7407427839,
				"z": -3.4102806568,
				"element": "H" 
			},
			{
				"x": 3.9945203736,
				"y": 1.2880157215,
				"z": -3.3853607943,
				"element": "H" 
			},
			{
				"x": 2.6530160014,
				"y": 1.4141826867,
				"z": -4.5315048553,
				"element": "H" 
			}
		],
		 "valence_orbital": [ 
			{
				"type": "occ",
				"energy": -0.33442,
				"method": "rhf"
			},
			{
				"type": "occ",
				"energy": -0.32878,
				"method": "rhf"
			},
			{
				"type": "occ",
				"energy": -0.32584,
				"method": "rhf"
			},
			{
				"type": "occ",
				"energy": -0.24972,
				"method": "rhf"
			},
			{
				"type": "occ",
				"energy": -0.21259,
				"method": "rhf"
			},
			{
				"type": "unocc",
				"energy": 0.04055,
				"method": "rhf"
			},
			{
				"type": "unocc",
				"energy": 0.04877,
				"method": "rhf"
			},
			{
				"type": "unocc",
				"energy": 0.07449,
				"method": "rhf"
			},
			{
				"type": "unocc",
				"energy": 0.09013,
				"method": "rhf"
			},
			{
				"type": "unocc",
				"energy": 0.1003,
				"method": "rhf"
			}
		],
		"cosmo_sigma_profile": { 
			"-0.025": 0.0,
			"-0.024": 0.0,
			"-0.023": 0.0,
			"-0.022": 0.0,
			"-0.021": 0.0,
			"-0.02": 0.0,
			"-0.019": 0.0,
			"-0.018": 0.0,
			"-0.017": 0.0,
			"-0.016": 0.0,
			"-0.015": 0.0,
			"-0.014": 0.0,
			"-0.013": 0.0,
			"-0.012": 0.0,
			"-0.011": 0.0,
			"-0.01": 0.0,
			"-0.009": 0.0,
			"-0.008": 0.0667697344282,
			"-0.007": 2.13585127927,
			"-0.006": 7.10597430986,
			"-0.005": 9.08409109537,
			"-0.004": 12.9438445716,
			"-0.003": 27.3828322818,
			"-0.002": 42.2367820777,
			"-0.001": 37.3274711196,
			"0.0": 34.2322535175,
			"0.001": 25.5253573591,
			"0.002": 9.47976095236,
			"0.003": 3.08772569777,
			"0.004": 2.23163464224,
			"0.005": 1.7273109691,
			"0.006": 1.2712297162,
			"0.007": 1.40156067958,
			"0.008": 1.27125304941,
			"0.009": 1.34186209147,
			"0.01": 0.861774869103,
			"0.011": 0.88879552343,
			"0.012": 0.990205857172,
			"0.013": 1.59065990546,
			"0.014": 2.19123373062,
			"0.015": 4.68033166417,
			"0.016": 4.4217334475,
			"0.017": 1.49077267227,
			"0.018": 0.0,
			"0.019": 0.0,
			"0.02": 0.0,
			"0.021": 0.0,
			"0.022": 0.0,
			"0.023": 0.0,
			"0.024": 0.0,
			"0.025": 0.0
		}
	}
}
