{
	 "smiles": "CC1=CC(C(O)=O)=C(C)S1", 
	 "Tm": 388.15, 
	 "num_atms": 18, 
	 "gaussian": { 
		 "optdone": 1, 
		 "sigma_profile": "yes", 
		 "theory": "DFT", 
		 "functional": "B3LYP", 
		 "basiset": "6-31G**", 
		 "properties": { 
			 "R2extent": 2197.2453, 
			 "electric_dipole_moment_norm": 4.57885839484, 
			 "electric_quadrupole_moment_norm": 15.8120700134, 
			 "total_energy": -820.208726266, 
			 "HOMO_LUMO_gap": 0.19561, 
			 "cosmo_polarized_energy": -12.83, 
			 "cosmo_cavitation_energy": 23.4, 
			 "cosmo_dispersion_energy": -17.77, 
			 "cosmo_repulsion_energy": 1.4, 
			 "cosmo_total_nonelectrostatic_energy": 7.02, 
			 "SMD_solvation_energy": 4.95 
		},
		"coords": [
			{
				"x": 0.0692451438,
				"y": 0.1943426193,
				"z": -2.6027124239,
				"element": "C" 
			},
			{
				"x": 0.2550337851,
				"y": -0.2043212438,
				"z": -1.1696508406,
				"element": "C" 
			},
			{
				"x": 0.3804573008,
				"y": -1.4558566262,
				"z": -0.6405960732,
				"element": "C" 
			},
			{
				"x": 0.5257349959,
				"y": -1.479149673,
				"z": 0.7912276773,
				"element": "C" 
			},
			{
				"x": 0.6852535838,
				"y": -2.7038143299,
				"z": 1.6151291519,
				"element": "C" 
			},
			{
				"x": 1.0742462078,
				"y": -3.8287303925,
				"z": 0.9486843743,
				"element": "O" 
			},
			{
				"x": 0.4967291048,
				"y": -2.7555177573,
				"z": 2.8104900274,
				"element": "O" 
			},
			{
				"x": 0.503200988,
				"y": -0.217501518,
				"z": 1.352732267,
				"element": "C" 
			},
			{
				"x": 0.5974068362,
				"y": 0.1847345933,
				"z": 2.7939037174,
				"element": "C" 
			},
			{
				"x": 0.3210888205,
				"y": 0.9871795106,
				"z": 0.1106101286,
				"element": "S" 
			},
			{
				"x": -0.8738685824,
				"y": 0.7297153768,
				"z": -2.7594247531,
				"element": "H" 
			},
			{
				"x": 0.8784179368,
				"y": 0.8445486504,
				"z": -2.9538924385,
				"element": "H" 
			},
			{
				"x": 0.0572743931,
				"y": -0.6970251979,
				"z": -3.2360127179,
				"element": "H" 
			},
			{
				"x": 0.3221289101,
				"y": -2.3441288575,
				"z": -1.2633949489,
				"element": "H" 
			},
			{
				"x": 1.3335716617,
				"y": -3.6069191188,
				"z": 0.0440731448,
				"element": "H" 
			},
			{
				"x": 0.879067551,
				"y": 1.2362417811,
				"z": 2.8961032671,
				"element": "H" 
			},
			{
				"x": 1.3248613434,
				"y": -0.4382434455,
				"z": 3.3179722118,
				"element": "H" 
			},
			{
				"x": -0.3624499804,
				"y": 0.033945629,
				"z": 3.2997582286,
				"element": "H" 
			}
		],
		 "valence_orbital": [ 
			{
				"type": "occ",
				"energy": -0.34687,
				"method": "rhf"
			},
			{
				"type": "occ",
				"energy": -0.31015,
				"method": "rhf"
			},
			{
				"type": "occ",
				"energy": -0.26965,
				"method": "rhf"
			},
			{
				"type": "occ",
				"energy": -0.26339,
				"method": "rhf"
			},
			{
				"type": "occ",
				"energy": -0.2349,
				"method": "rhf"
			},
			{
				"type": "unocc",
				"energy": -0.03929,
				"method": "rhf"
			},
			{
				"type": "unocc",
				"energy": 0.00143,
				"method": "rhf"
			},
			{
				"type": "unocc",
				"energy": 0.01214,
				"method": "rhf"
			},
			{
				"type": "unocc",
				"energy": 0.0658,
				"method": "rhf"
			},
			{
				"type": "unocc",
				"energy": 0.08684,
				"method": "rhf"
			}
		],
		"cosmo_sigma_profile": { 
			"-0.025": 0.0,
			"-0.024": 0.0,
			"-0.023": 0.0,
			"-0.022": 0.0,
			"-0.021": 0.0,
			"-0.02": 0.0,
			"-0.019": 0.0,
			"-0.018": 0.555126762457,
			"-0.017": 0.887245374758,
			"-0.016": 1.33920961936,
			"-0.015": 0.775969443281,
			"-0.014": 0.627634852526,
			"-0.013": 0.820743146735,
			"-0.012": 1.17128632002,
			"-0.011": 1.3616556451,
			"-0.01": 1.25674384506,
			"-0.009": 1.32098355286,
			"-0.008": 0.880534197569,
			"-0.007": 2.05540245097,
			"-0.006": 4.85355616247,
			"-0.005": 12.3211419686,
			"-0.004": 13.8148007692,
			"-0.003": 15.6740085333,
			"-0.002": 19.8595548229,
			"-0.001": 19.4579649087,
			"0.0": 12.2463277049,
			"0.001": 11.0187865533,
			"0.002": 12.4912573731,
			"0.003": 13.9952865007,
			"0.004": 8.86394854188,
			"0.005": 2.88573835424,
			"0.006": 2.10053335446,
			"0.007": 2.93503583567,
			"0.008": 2.32322513479,
			"0.009": 3.36731916521,
			"0.01": 3.82516189877,
			"0.011": 4.86540330756,
			"0.012": 4.91143678901,
			"0.013": 2.43149867661,
			"0.014": 0.605058034912,
			"0.015": 0.0,
			"0.016": 0.0,
			"0.017": 0.0,
			"0.018": 0.0,
			"0.019": 0.0,
			"0.02": 0.0,
			"0.021": 0.0,
			"0.022": 0.0,
			"0.023": 0.0,
			"0.024": 0.0,
			"0.025": 0.0
		}
	}
}
