{
	 "smiles": "CCCC(=O)CC(=O)OCC", 
	 "Tm": 229.15, 
	 "num_atms": 25, 
	 "gaussian": { 
		 "optdone": 1, 
		 "sigma_profile": "yes", 
		 "theory": "DFT", 
		 "functional": "B3LYP", 
		 "basiset": "6-31G**", 
		 "properties": { 
			 "R2extent": 3264.7423, 
			 "electric_dipole_moment_norm": 2.19854368617, 
			 "electric_quadrupole_moment_norm": 13.4142449471, 
			 "total_energy": -538.982762298, 
			 "HOMO_LUMO_gap": 0.22656, 
			 "cosmo_polarized_energy": -9.67, 
			 "cosmo_cavitation_energy": 28.58, 
			 "cosmo_dispersion_energy": -20.11, 
			 "cosmo_repulsion_energy": 1.7, 
			 "cosmo_total_nonelectrostatic_energy": 10.16, 
			 "SMD_solvation_energy": 6.55 
		},
		"coords": [
			{
				"x": -1.9688078486,
				"y": -2.8509640837,
				"z": 0.1139800099,
				"element": "C" 
			},
			{
				"x": -0.7548686029,
				"y": -2.2695548467,
				"z": -0.6164488264,
				"element": "C" 
			},
			{
				"x": 0.3094170448,
				"y": -1.7389706006,
				"z": 0.3447273199,
				"element": "C" 
			},
			{
				"x": 1.5390366563,
				"y": -1.1792039621,
				"z": -0.3421562911,
				"element": "C" 
			},
			{
				"x": 1.7100137179,
				"y": -1.2232090658,
				"z": -1.544077544,
				"element": "O" 
			},
			{
				"x": 2.6055824629,
				"y": -0.5333975087,
				"z": 0.561957983,
				"element": "C" 
			},
			{
				"x": 2.1746632301,
				"y": 0.8437095416,
				"z": 1.0451915881,
				"element": "C" 
			},
			{
				"x": 1.1190150053,
				"y": 1.0831365056,
				"z": 1.5966654409,
				"element": "O" 
			},
			{
				"x": 3.1236296725,
				"y": 1.7627842259,
				"z": 0.7900625931,
				"element": "O" 
			},
			{
				"x": 2.8373343683,
				"y": 3.1250368594,
				"z": 1.2028249352,
				"element": "C" 
			},
			{
				"x": 2.0430452495,
				"y": 3.8659320293,
				"z": 0.1385739188,
				"element": "C" 
			},
			{
				"x": -1.683390483,
				"y": -3.6899605101,
				"z": 0.7593997185,
				"element": "H" 
			},
			{
				"x": -2.7171275992,
				"y": -3.2189764206,
				"z": -0.5951683179,
				"element": "H" 
			},
			{
				"x": -2.4524652617,
				"y": -2.0984284141,
				"z": 0.7471564609,
				"element": "H" 
			},
			{
				"x": -1.0702555461,
				"y": -1.4573796692,
				"z": -1.2813206844,
				"element": "H" 
			},
			{
				"x": -0.3052630199,
				"y": -3.0275853974,
				"z": -1.2672814429,
				"element": "H" 
			},
			{
				"x": -0.0846628137,
				"y": -0.9505935099,
				"z": 1.000288309,
				"element": "H" 
			},
			{
				"x": 0.6505356206,
				"y": -2.5322775862,
				"z": 1.0286011282,
				"element": "H" 
			},
			{
				"x": 2.753552793,
				"y": -1.1522481139,
				"z": 1.4550776181,
				"element": "H" 
			},
			{
				"x": 3.540338685,
				"y": -0.4621428965,
				"z": 0.0063608457,
				"element": "H" 
			},
			{
				"x": 3.8229654679,
				"y": 3.5711849083,
				"z": 1.3532729935,
				"element": "H" 
			},
			{
				"x": 2.299472592,
				"y": 3.0982585623,
				"z": 2.1532812313,
				"element": "H" 
			},
			{
				"x": 1.0546822963,
				"y": 3.4172005637,
				"z": 0.0133844101,
				"element": "H" 
			},
			{
				"x": 1.9098559758,
				"y": 4.9109649952,
				"z": 0.4373983739,
				"element": "H" 
			},
			{
				"x": 2.5658003368,
				"y": 3.8465843944,
				"z": -0.8219517715,
				"element": "H" 
			}
		],
		 "valence_orbital": [ 
			{
				"type": "occ",
				"energy": -0.3369,
				"method": "rhf"
			},
			{
				"type": "occ",
				"energy": -0.32867,
				"method": "rhf"
			},
			{
				"type": "occ",
				"energy": -0.30698,
				"method": "rhf"
			},
			{
				"type": "occ",
				"energy": -0.28033,
				"method": "rhf"
			},
			{
				"type": "occ",
				"energy": -0.24903,
				"method": "rhf"
			},
			{
				"type": "unocc",
				"energy": -0.02247,
				"method": "rhf"
			},
			{
				"type": "unocc",
				"energy": 0.00958,
				"method": "rhf"
			},
			{
				"type": "unocc",
				"energy": 0.09197,
				"method": "rhf"
			},
			{
				"type": "unocc",
				"energy": 0.10473,
				"method": "rhf"
			},
			{
				"type": "unocc",
				"energy": 0.11265,
				"method": "rhf"
			}
		],
		"cosmo_sigma_profile": { 
			"-0.025": 0.0,
			"-0.024": 0.0,
			"-0.023": 0.0,
			"-0.022": 0.0,
			"-0.021": 0.0,
			"-0.02": 0.0,
			"-0.019": 0.0,
			"-0.018": 0.0,
			"-0.017": 0.0,
			"-0.016": 0.0,
			"-0.015": 0.0,
			"-0.014": 0.0,
			"-0.013": 0.0,
			"-0.012": 0.0,
			"-0.011": 0.0,
			"-0.01": 0.0,
			"-0.009": 0.143686387823,
			"-0.008": 3.76663493818,
			"-0.007": 4.03773808664,
			"-0.006": 7.01684153687,
			"-0.005": 11.0587285262,
			"-0.004": 17.745774885,
			"-0.003": 27.2441891739,
			"-0.002": 29.1030990211,
			"-0.001": 25.06782552,
			"0.0": 24.2314449268,
			"0.001": 18.4753297419,
			"0.002": 8.04211525685,
			"0.003": 5.78082203504,
			"0.004": 4.34099614111,
			"0.005": 4.16177089921,
			"0.006": 5.1611947222,
			"0.007": 3.83300027969,
			"0.008": 3.45611409816,
			"0.009": 3.69414580716,
			"0.01": 4.18465452375,
			"0.011": 7.06463804087,
			"0.012": 4.76467201437,
			"0.013": 0.608431618199,
			"0.014": 0.0,
			"0.015": 0.0,
			"0.016": 0.0,
			"0.017": 0.0,
			"0.018": 0.0,
			"0.019": 0.0,
			"0.02": 0.0,
			"0.021": 0.0,
			"0.022": 0.0,
			"0.023": 0.0,
			"0.024": 0.0,
			"0.025": 0.0
		}
	}
}
