{
	 "smiles": "NC(=O)C(CC1=CC=C(C=C1)[N+]([O-])=O)C1=CC=CC=C1", 
	 "Tm": 449.15, 
	 "num_atms": 34, 
	 "gaussian": { 
		 "optdone": 1, 
		 "sigma_profile": "yes", 
		 "theory": "DFT", 
		 "functional": "B3LYP", 
		 "basiset": "6-31G**", 
		 "properties": { 
			 "R2extent": 7246.5961, 
			 "electric_dipole_moment_norm": 6.31582813968, 
			 "electric_quadrupole_moment_norm": 27.2755480926, 
			 "total_energy": -915.136187373, 
			 "HOMO_LUMO_gap": 0.16358, 
			 "cosmo_polarized_energy": -18.02, 
			 "cosmo_cavitation_energy": 39.11, 
			 "cosmo_dispersion_energy": -26.29, 
			 "cosmo_repulsion_energy": 2.05, 
			 "cosmo_total_nonelectrostatic_energy": 14.87, 
			 "SMD_solvation_energy": 9.33 
		},
		"coords": [
			{
				"x": 3.1460369316,
				"y": -2.7023614577,
				"z": 0.8349923529,
				"element": "N" 
			},
			{
				"x": 2.3154251167,
				"y": -2.5968688059,
				"z": -0.2415004997,
				"element": "C" 
			},
			{
				"x": 2.171990812,
				"y": -3.5030322888,
				"z": -1.0501461711,
				"element": "O" 
			},
			{
				"x": 1.6405757555,
				"y": -1.2126676585,
				"z": -0.4202547784,
				"element": "C" 
			},
			{
				"x": 0.4582278327,
				"y": -1.3404319997,
				"z": -1.4170329691,
				"element": "C" 
			},
			{
				"x": 0.0067186646,
				"y": -0.0111571542,
				"z": -1.9742711483,
				"element": "C" 
			},
			{
				"x": -1.0461469739,
				"y": 0.7069454635,
				"z": -1.3862221975,
				"element": "C" 
			},
			{
				"x": -1.4466446495,
				"y": 1.9410753032,
				"z": -1.8902963976,
				"element": "C" 
			},
			{
				"x": -0.7791249816,
				"y": 2.4596051021,
				"z": -2.9979903291,
				"element": "C" 
			},
			{
				"x": 0.2694236216,
				"y": 1.7750153079,
				"z": -3.6108916061,
				"element": "C" 
			},
			{
				"x": 0.6525060991,
				"y": 0.5423360239,
				"z": -3.0924173381,
				"element": "C" 
			},
			{
				"x": -1.1937305649,
				"y": 3.7618003627,
				"z": -3.5372691918,
				"element": "N" 
			},
			{
				"x": -0.5837305369,
				"y": 4.1972695329,
				"z": -4.5143176923,
				"element": "O" 
			},
			{
				"x": -2.1254131777,
				"y": 4.3424124833,
				"z": -2.9795096734,
				"element": "O" 
			},
			{
				"x": 1.2549611287,
				"y": -0.5447439779,
				"z": 0.890110188,
				"element": "C" 
			},
			{
				"x": 0.3513039963,
				"y": -1.1605232953,
				"z": 1.7727774638,
				"element": "C" 
			},
			{
				"x": -0.014285721,
				"y": -0.5422085415,
				"z": 2.9677640662,
				"element": "C" 
			},
			{
				"x": 0.518105549,
				"y": 0.7052970841,
				"z": 3.3051636522,
				"element": "C" 
			},
			{
				"x": 1.4183983188,
				"y": 1.3263236127,
				"z": 2.4398581463,
				"element": "C" 
			},
			{
				"x": 1.7826780533,
				"y": 0.704250234,
				"z": 1.2429679162,
				"element": "C" 
			},
			{
				"x": 3.1401671293,
				"y": -2.0166475317,
				"z": 1.5730887476,
				"element": "H" 
			},
			{
				"x": 3.5841690448,
				"y": -3.5962271221,
				"z": 0.9989048965,
				"element": "H" 
			},
			{
				"x": 2.4089075602,
				"y": -0.5889091609,
				"z": -0.8980491071,
				"element": "H" 
			},
			{
				"x": 0.7873563487,
				"y": -2.0029011992,
				"z": -2.2215101536,
				"element": "H" 
			},
			{
				"x": -0.3770481853,
				"y": -1.8434326387,
				"z": -0.9190931766,
				"element": "H" 
			},
			{
				"x": -1.5571247755,
				"y": 0.2936052453,
				"z": -0.5220021431,
				"element": "H" 
			},
			{
				"x": -2.2585386245,
				"y": 2.5036671796,
				"z": -1.4467279895,
				"element": "H" 
			},
			{
				"x": 0.7563789013,
				"y": 2.2095600472,
				"z": -4.4749120139,
				"element": "H" 
			},
			{
				"x": 1.4614436449,
				"y": -0.0065080413,
				"z": -3.567315889,
				"element": "H" 
			},
			{
				"x": -0.0637986508,
				"y": -2.1344646915,
				"z": 1.5246066773,
				"element": "H" 
			},
			{
				"x": -0.7135953993,
				"y": -1.0348415426,
				"z": 3.6373481238,
				"element": "H" 
			},
			{
				"x": 0.2324791965,
				"y": 1.1871427008,
				"z": 4.2355492852,
				"element": "H" 
			},
			{
				"x": 1.8366009205,
				"y": 2.296674586,
				"z": 2.6914271008,
				"element": "H" 
			},
			{
				"x": 2.4790276146,
				"y": 1.1983468382,
				"z": 0.5700718486,
				"element": "H" 
			}
		],
		 "valence_orbital": [ 
			{
				"type": "occ",
				"energy": -0.27435,
				"method": "rhf"
			},
			{
				"type": "occ",
				"energy": -0.27228,
				"method": "rhf"
			},
			{
				"type": "occ",
				"energy": -0.26875,
				"method": "rhf"
			},
			{
				"type": "occ",
				"energy": -0.26606,
				"method": "rhf"
			},
			{
				"type": "occ",
				"energy": -0.2469,
				"method": "rhf"
			},
			{
				"type": "unocc",
				"energy": -0.08332,
				"method": "rhf"
			},
			{
				"type": "unocc",
				"energy": -0.02598,
				"method": "rhf"
			},
			{
				"type": "unocc",
				"energy": -0.02074,
				"method": "rhf"
			},
			{
				"type": "unocc",
				"energy": -0.01749,
				"method": "rhf"
			},
			{
				"type": "unocc",
				"energy": 0.00539,
				"method": "rhf"
			}
		],
		"cosmo_sigma_profile": { 
			"-0.025": 0.0,
			"-0.024": 0.0,
			"-0.023": 0.0,
			"-0.022": 0.0,
			"-0.021": 0.0,
			"-0.02": 0.0,
			"-0.019": 0.0,
			"-0.018": 0.0,
			"-0.017": 0.0,
			"-0.016": 0.0,
			"-0.015": 0.0,
			"-0.014": 0.560418040911,
			"-0.013": 1.62648913993,
			"-0.012": 2.12934160621,
			"-0.011": 1.44532706638,
			"-0.01": 1.90554672753,
			"-0.009": 2.56037867729,
			"-0.008": 1.11716987876,
			"-0.007": 7.41364005776,
			"-0.006": 22.8256808156,
			"-0.005": 26.2428335506,
			"-0.004": 25.6033747751,
			"-0.003": 22.5663303598,
			"-0.002": 18.9187461378,
			"-0.001": 22.0062210157,
			"0.0": 19.6488250838,
			"0.001": 21.2200326542,
			"0.002": 24.3529682219,
			"0.003": 16.2290451876,
			"0.004": 13.918697207,
			"0.005": 10.3198979208,
			"0.006": 7.00037609476,
			"0.007": 7.89944470003,
			"0.008": 10.3889135032,
			"0.009": 5.99842418925,
			"0.01": 4.95132201194,
			"0.011": 2.14097297835,
			"0.012": 1.60241842644,
			"0.013": 4.83781440703,
			"0.014": 3.55922774211,
			"0.015": 0.322641957249,
			"0.016": 0.0,
			"0.017": 0.0,
			"0.018": 0.0,
			"0.019": 0.0,
			"0.02": 0.0,
			"0.021": 0.0,
			"0.022": 0.0,
			"0.023": 0.0,
			"0.024": 0.0,
			"0.025": 0.0
		}
	}
}
