{
	 "smiles": "CC1=C(C)N=C2C(C=C(F)C=C2C(O)=O)=N1", 
	 "Tm": 500.15, 
	 "num_atms": 25, 
	 "gaussian": { 
		 "optdone": 1, 
		 "sigma_profile": "yes", 
		 "theory": "DFT", 
		 "functional": "B3LYP", 
		 "basiset": "6-31G**", 
		 "properties": { 
			 "R2extent": 5010.7515, 
			 "electric_dipole_moment_norm": 3.58634729495, 
			 "electric_quadrupole_moment_norm": 7.78766077073, 
			 "total_energy": -784.406053139, 
			 "HOMO_LUMO_gap": 0.16685, 
			 "cosmo_polarized_energy": -12.85, 
			 "cosmo_cavitation_energy": 30.36, 
			 "cosmo_dispersion_energy": -21.95, 
			 "cosmo_repulsion_energy": 1.67, 
			 "cosmo_total_nonelectrostatic_energy": 10.08, 
			 "SMD_solvation_energy": 4.61 
		},
		"coords": [
			{
				"x": 1.9587845766,
				"y": -0.1643997665,
				"z": 2.308611243,
				"element": "C" 
			},
			{
				"x": 0.7462617386,
				"y": -0.4889918339,
				"z": 1.4773270501,
				"element": "C" 
			},
			{
				"x": 0.7868942033,
				"y": -1.5183328665,
				"z": 0.4678859445,
				"element": "C" 
			},
			{
				"x": 2.0525467524,
				"y": -2.2866743434,
				"z": 0.192262913,
				"element": "C" 
			},
			{
				"x": -0.274575087,
				"y": -1.8188930522,
				"z": -0.2500027267,
				"element": "N" 
			},
			{
				"x": -1.4277507691,
				"y": -1.1325112476,
				"z": -0.0226666941,
				"element": "C" 
			},
			{
				"x": -1.4550820232,
				"y": -0.0886604721,
				"z": 0.9541823051,
				"element": "C" 
			},
			{
				"x": -2.629506965,
				"y": 0.6708897067,
				"z": 1.1693509243,
				"element": "C" 
			},
			{
				"x": -3.7374541063,
				"y": 0.3892158159,
				"z": 0.4105754915,
				"element": "C" 
			},
			{
				"x": -4.8668447314,
				"y": 1.1004474303,
				"z": 0.5865621878,
				"element": "F" 
			},
			{
				"x": -3.7466234151,
				"y": -0.6295136836,
				"z": -0.5559027829,
				"element": "C" 
			},
			{
				"x": -2.6188579711,
				"y": -1.4044521982,
				"z": -0.7711818288,
				"element": "C" 
			},
			{
				"x": -2.7765411566,
				"y": -2.4745208935,
				"z": -1.8086991153,
				"element": "C" 
			},
			{
				"x": -1.9083251122,
				"y": -3.4978685209,
				"z": -1.7114760173,
				"element": "O" 
			},
			{
				"x": -3.654305064,
				"y": -2.4498694042,
				"z": -2.6515232014,
				"element": "O" 
			},
			{
				"x": -0.3497268617,
				"y": 0.2052933277,
				"z": 1.6986469199,
				"element": "N" 
			},
			{
				"x": 1.7141303768,
				"y": 0.6377125155,
				"z": 3.0060410148,
				"element": "H" 
			},
			{
				"x": 2.2991892147,
				"y": -1.0382999789,
				"z": 2.8763962716,
				"element": "H" 
			},
			{
				"x": 2.7997238049,
				"y": 0.1541685338,
				"z": 1.6814681025,
				"element": "H" 
			},
			{
				"x": 2.3971316878,
				"y": -2.8230387711,
				"z": 1.0843421638,
				"element": "H" 
			},
			{
				"x": 1.8673784594,
				"y": -3.0081321244,
				"z": -0.6043089234,
				"element": "H" 
			},
			{
				"x": 2.8680501683,
				"y": -1.6201717857,
				"z": -0.1126707545,
				"element": "H" 
			},
			{
				"x": -2.631999576,
				"y": 1.4562265864,
				"z": 1.916063375,
				"element": "H" 
			},
			{
				"x": -4.6426359932,
				"y": -0.8150563548,
				"z": -1.1364623387,
				"element": "H" 
			},
			{
				"x": -2.154362151,
				"y": -4.1072666189,
				"z": -2.4285215239,
				"element": "H" 
			}
		],
		 "valence_orbital": [ 
			{
				"type": "occ",
				"energy": -0.30387,
				"method": "rhf"
			},
			{
				"type": "occ",
				"energy": -0.28027,
				"method": "rhf"
			},
			{
				"type": "occ",
				"energy": -0.25871,
				"method": "rhf"
			},
			{
				"type": "occ",
				"energy": -0.24929,
				"method": "rhf"
			},
			{
				"type": "occ",
				"energy": -0.24765,
				"method": "rhf"
			},
			{
				"type": "unocc",
				"energy": -0.0808,
				"method": "rhf"
			},
			{
				"type": "unocc",
				"energy": -0.02964,
				"method": "rhf"
			},
			{
				"type": "unocc",
				"energy": -0.02682,
				"method": "rhf"
			},
			{
				"type": "unocc",
				"energy": 0.05017,
				"method": "rhf"
			},
			{
				"type": "unocc",
				"energy": 0.07597,
				"method": "rhf"
			}
		],
		"cosmo_sigma_profile": { 
			"-0.025": 0.0,
			"-0.024": 0.0,
			"-0.023": 0.0,
			"-0.022": 0.0,
			"-0.021": 0.0,
			"-0.02": 0.0,
			"-0.019": 0.0,
			"-0.018": 0.755269812791,
			"-0.017": 0.815912813939,
			"-0.016": 0.869440477935,
			"-0.015": 1.08901888105,
			"-0.014": 0.696789781069,
			"-0.013": 0.419874947089,
			"-0.012": 0.518430781658,
			"-0.011": 0.965253147769,
			"-0.01": 0.941189208228,
			"-0.009": 0.445064356673,
			"-0.008": 2.56163955596,
			"-0.007": 3.3959352164,
			"-0.006": 10.7262473935,
			"-0.005": 13.5292435367,
			"-0.004": 13.2371632032,
			"-0.003": 19.6342552952,
			"-0.002": 25.8443947253,
			"-0.001": 33.673912681,
			"0.0": 25.5186173934,
			"0.001": 13.8811256378,
			"0.002": 9.68359783949,
			"0.003": 11.0829007518,
			"0.004": 13.3778211155,
			"0.005": 5.19196225241,
			"0.006": 3.12722461646,
			"0.007": 3.81722874345,
			"0.008": 4.35897419261,
			"0.009": 4.31977437726,
			"0.01": 3.78911006617,
			"0.011": 6.14471713665,
			"0.012": 4.7697108598,
			"0.013": 1.63167724102,
			"0.014": 1.52367015585,
			"0.015": 0.44806623452,
			"0.016": 0.0602968034018,
			"0.017": 0.0,
			"0.018": 0.0,
			"0.019": 0.0,
			"0.02": 0.0,
			"0.021": 0.0,
			"0.022": 0.0,
			"0.023": 0.0,
			"0.024": 0.0,
			"0.025": 0.0
		}
	}
}
