{
	 "smiles": "FC(F)(F)COC(=O)NC1=CC(CN2C=CC=NC2=O)=CC=C1", 
	 "Tm": 447.15, 
	 "num_atms": 35, 
	 "gaussian": { 
		 "optdone": 1, 
		 "sigma_profile": "yes", 
		 "theory": "DFT", 
		 "functional": "B3LYP", 
		 "basiset": "6-31G**", 
		 "properties": { 
			 "R2extent": 8136.4641, 
			 "electric_dipole_moment_norm": 4.62490248762, 
			 "electric_quadrupole_moment_norm": 32.2454139066, 
			 "total_energy": -1230.194847, 
			 "HOMO_LUMO_gap": 0.17588, 
			 "cosmo_polarized_energy": -23.46, 
			 "cosmo_cavitation_energy": 41.56, 
			 "cosmo_dispersion_energy": -27.69, 
			 "cosmo_repulsion_energy": 2.01, 
			 "cosmo_total_nonelectrostatic_energy": 15.88, 
			 "SMD_solvation_energy": 8.32 
		},
		"coords": [
			{
				"x": 2.294179693,
				"y": 0.2574653369,
				"z": -0.8554493032,
				"element": "F" 
			},
			{
				"x": 3.182409482,
				"y": -0.0272679502,
				"z": 0.1319707532,
				"element": "C" 
			},
			{
				"x": 4.394622435,
				"y": -0.1608742784,
				"z": -0.4349463341,
				"element": "F" 
			},
			{
				"x": 2.824035918,
				"y": -1.208759559,
				"z": 0.6623778994,
				"element": "F" 
			},
			{
				"x": 3.2134059966,
				"y": 1.0715725042,
				"z": 1.1795708194,
				"element": "C" 
			},
			{
				"x": 1.8975236515,
				"y": 1.2272702372,
				"z": 1.6917696738,
				"element": "O" 
			},
			{
				"x": 1.7005730784,
				"y": 0.8683222456,
				"z": 2.9965706464,
				"element": "C" 
			},
			{
				"x": 2.5971419099,
				"y": 0.6591372012,
				"z": 3.7890159728,
				"element": "O" 
			},
			{
				"x": 0.3725683637,
				"y": 0.8098044098,
				"z": 3.3214702942,
				"element": "N" 
			},
			{
				"x": -0.8160143722,
				"y": 0.8043944475,
				"z": 2.5504664799,
				"element": "C" 
			},
			{
				"x": -0.8538601431,
				"y": 0.8567559508,
				"z": 1.1506114884,
				"element": "C" 
			},
			{
				"x": -2.0765963855,
				"y": 0.7985476482,
				"z": 0.4746053941,
				"element": "C" 
			},
			{
				"x": -2.0723339402,
				"y": 0.8149467188,
				"z": -1.0418444431,
				"element": "C" 
			},
			{
				"x": -2.1341711619,
				"y": -0.5395762849,
				"z": -1.6318492115,
				"element": "N" 
			},
			{
				"x": -1.0023148211,
				"y": -1.2581109738,
				"z": -1.8359659773,
				"element": "C" 
			},
			{
				"x": -1.0662554527,
				"y": -2.5149937261,
				"z": -2.3705650129,
				"element": "C" 
			},
			{
				"x": -2.3630915251,
				"y": -2.9928906981,
				"z": -2.6920620896,
				"element": "C" 
			},
			{
				"x": -3.4766409046,
				"y": -2.3308424768,
				"z": -2.4994243243,
				"element": "N" 
			},
			{
				"x": -3.433071277,
				"y": -1.071944946,
				"z": -1.9266581758,
				"element": "C" 
			},
			{
				"x": -4.4235624161,
				"y": -0.4016767099,
				"z": -1.6702108926,
				"element": "O" 
			},
			{
				"x": -3.2766887853,
				"y": 0.6977430626,
				"z": 1.1870359373,
				"element": "C" 
			},
			{
				"x": -3.2372909412,
				"y": 0.659032546,
				"z": 2.5806849461,
				"element": "C" 
			},
			{
				"x": -2.0230738757,
				"y": 0.7121108761,
				"z": 3.2602818094,
				"element": "C" 
			},
			{
				"x": 3.5174641819,
				"y": 2.0071093473,
				"z": 0.7049060396,
				"element": "H" 
			},
			{
				"x": 3.9107475266,
				"y": 0.8057517516,
				"z": 1.9760919341,
				"element": "H" 
			},
			{
				"x": 0.2530108591,
				"y": 0.6154890492,
				"z": 4.3061000687,
				"element": "H" 
			},
			{
				"x": 0.0628395241,
				"y": 0.9382845029,
				"z": 0.5862126813,
				"element": "H" 
			},
			{
				"x": -2.9403282894,
				"y": 1.3497967406,
				"z": -1.4272586196,
				"element": "H" 
			},
			{
				"x": -1.1617876941,
				"y": 1.2916534976,
				"z": -1.4147915959,
				"element": "H" 
			},
			{
				"x": -0.0680249632,
				"y": -0.7818473375,
				"z": -1.553968931,
				"element": "H" 
			},
			{
				"x": -0.1741594071,
				"y": -3.1015106128,
				"z": -2.5460776324,
				"element": "H" 
			},
			{
				"x": -2.4679011746,
				"y": -3.9833178401,
				"z": -3.1387798063,
				"element": "H" 
			},
			{
				"x": -4.2156506455,
				"y": 0.6340034209,
				"z": 0.6481157587,
				"element": "H" 
			},
			{
				"x": -4.1605464495,
				"y": 0.5847922465,
				"z": 3.1474636158,
				"element": "H" 
			},
			{
				"x": -2.0073579952,
				"y": 0.6792296522,
				"z": 4.3471301371,
				"element": "H" 
			}
		],
		 "valence_orbital": [ 
			{
				"type": "occ",
				"energy": -0.26833,
				"method": "rhf"
			},
			{
				"type": "occ",
				"energy": -0.26623,
				"method": "rhf"
			},
			{
				"type": "occ",
				"energy": -0.25382,
				"method": "rhf"
			},
			{
				"type": "occ",
				"energy": -0.23376,
				"method": "rhf"
			},
			{
				"type": "occ",
				"energy": -0.23193,
				"method": "rhf"
			},
			{
				"type": "unocc",
				"energy": -0.05605,
				"method": "rhf"
			},
			{
				"type": "unocc",
				"energy": -0.02159,
				"method": "rhf"
			},
			{
				"type": "unocc",
				"energy": -0.01727,
				"method": "rhf"
			},
			{
				"type": "unocc",
				"energy": 0.00764,
				"method": "rhf"
			},
			{
				"type": "unocc",
				"energy": 0.03978,
				"method": "rhf"
			}
		],
		"cosmo_sigma_profile": { 
			"-0.025": 0.0,
			"-0.024": 0.0,
			"-0.023": 0.0,
			"-0.022": 0.0,
			"-0.021": 0.0,
			"-0.02": 0.0,
			"-0.019": 0.0,
			"-0.018": 0.0,
			"-0.017": 0.0,
			"-0.016": 0.377277602672,
			"-0.015": 0.915390129198,
			"-0.014": 1.17200223022,
			"-0.013": 0.872891620056,
			"-0.012": 1.34482774161,
			"-0.011": 1.1666079728,
			"-0.01": 2.04541576158,
			"-0.009": 5.27505523902,
			"-0.008": 10.0380738496,
			"-0.007": 15.9292388699,
			"-0.006": 14.9671850721,
			"-0.005": 18.9888458619,
			"-0.004": 20.176442494,
			"-0.003": 20.4478149196,
			"-0.002": 24.1227630991,
			"-0.001": 23.5333549289,
			"0.0": 24.936438549,
			"0.001": 24.9518428823,
			"0.002": 34.4088624484,
			"0.003": 22.5282404577,
			"0.004": 13.1992335567,
			"0.005": 9.59557019458,
			"0.006": 3.26307854617,
			"0.007": 3.93573256641,
			"0.008": 3.06279452045,
			"0.009": 2.78918872827,
			"0.01": 3.76480288616,
			"0.011": 5.92245731337,
			"0.012": 6.78172390354,
			"0.013": 3.92982526852,
			"0.014": 3.47264674551,
			"0.015": 3.3690582941,
			"0.016": 1.99406101439,
			"0.017": 0.325935037219,
			"0.018": 0.0,
			"0.019": 0.0,
			"0.02": 0.0,
			"0.021": 0.0,
			"0.022": 0.0,
			"0.023": 0.0,
			"0.024": 0.0,
			"0.025": 0.0
		}
	}
}
