{
	 "smiles": "OC(=O)C1=CC=C(NC(=O)CCl)C=C1", 
	 "Tm": 504.15, 
	 "num_atms": 22, 
	 "gaussian": { 
		 "optdone": 1, 
		 "sigma_profile": "yes", 
		 "theory": "DFT", 
		 "functional": "B3LYP", 
		 "basiset": "6-31G**", 
		 "properties": { 
			 "R2extent": 5261.9929, 
			 "electric_dipole_moment_norm": 3.6289094078, 
			 "electric_quadrupole_moment_norm": 40.1544903625, 
			 "total_energy": -1088.40887173, 
			 "HOMO_LUMO_gap": 0.18666, 
			 "cosmo_polarized_energy": -25.46, 
			 "cosmo_cavitation_energy": 29.02, 
			 "cosmo_dispersion_energy": -21.36, 
			 "cosmo_repulsion_energy": 1.69, 
			 "cosmo_total_nonelectrostatic_energy": 9.36, 
			 "SMD_solvation_energy": 6.49 
		},
		"coords": [
			{
				"x": -3.1320748072,
				"y": -1.1225959451,
				"z": -2.1497697051,
				"element": "O" 
			},
			{
				"x": -2.7551535261,
				"y": -0.4257799712,
				"z": -1.0441207555,
				"element": "C" 
			},
			{
				"x": -3.5934960772,
				"y": 0.0185772532,
				"z": -0.2955307817,
				"element": "O" 
			},
			{
				"x": -1.2849189105,
				"y": -0.249164612,
				"z": -0.8213437688,
				"element": "C" 
			},
			{
				"x": -0.3222537986,
				"y": -0.3879436461,
				"z": -1.8319800626,
				"element": "C" 
			},
			{
				"x": 1.0251754539,
				"y": -0.1816097966,
				"z": -1.5621441038,
				"element": "C" 
			},
			{
				"x": 1.4495239881,
				"y": 0.158122881,
				"z": -0.2663385666,
				"element": "C" 
			},
			{
				"x": 2.8306604532,
				"y": 0.3132153565,
				"z": -0.0422167209,
				"element": "N" 
			},
			{
				"x": 3.5710175072,
				"y": 1.1931937498,
				"z": 0.7389867585,
				"element": "C" 
			},
			{
				"x": 4.784356695,
				"y": 1.1387607793,
				"z": 0.7201008259,
				"element": "O" 
			},
			{
				"x": 2.7874749848,
				"y": 2.2010777194,
				"z": 1.5841939528,
				"element": "C" 
			},
			{
				"x": 3.7783404712,
				"y": 3.6368333001,
				"z": 1.9889319099,
				"element": "Cl" 
			},
			{
				"x": 0.4891677923,
				"y": 0.2788192541,
				"z": 0.7521876671,
				"element": "C" 
			},
			{
				"x": -0.8591609369,
				"y": 0.100719396,
				"z": 0.4663409449,
				"element": "C" 
			},
			{
				"x": -2.3691267823,
				"y": -1.561472576,
				"z": -2.54989503,
				"element": "H" 
			},
			{
				"x": -0.6143314625,
				"y": -0.6093725815,
				"z": -2.8556044564,
				"element": "H" 
			},
			{
				"x": 1.757933055,
				"y": -0.2601362194,
				"z": -2.3600395632,
				"element": "H" 
			},
			{
				"x": 3.4450600788,
				"y": -0.2260553019,
				"z": -0.6414163216,
				"element": "H" 
			},
			{
				"x": 1.8891967274,
				"y": 2.5460509997,
				"z": 1.0714619081,
				"element": "H" 
			},
			{
				"x": 2.4944869112,
				"y": 1.7383241769,
				"z": 2.5296401993,
				"element": "H" 
			},
			{
				"x": 0.7935994346,
				"y": 0.4805079321,
				"z": 1.7720261965,
				"element": "H" 
			},
			{
				"x": -1.6069772515,
				"y": 0.2073278517,
				"z": 1.2446294732,
				"element": "H" 
			}
		],
		 "valence_orbital": [ 
			{
				"type": "occ",
				"energy": -0.30636,
				"method": "rhf"
			},
			{
				"type": "occ",
				"energy": -0.29099,
				"method": "rhf"
			},
			{
				"type": "occ",
				"energy": -0.28461,
				"method": "rhf"
			},
			{
				"type": "occ",
				"energy": -0.28239,
				"method": "rhf"
			},
			{
				"type": "occ",
				"energy": -0.25454,
				"method": "rhf"
			},
			{
				"type": "unocc",
				"energy": -0.06788,
				"method": "rhf"
			},
			{
				"type": "unocc",
				"energy": -0.04347,
				"method": "rhf"
			},
			{
				"type": "unocc",
				"energy": -0.0108,
				"method": "rhf"
			},
			{
				"type": "unocc",
				"energy": 0.01946,
				"method": "rhf"
			},
			{
				"type": "unocc",
				"energy": 0.03963,
				"method": "rhf"
			}
		],
		"cosmo_sigma_profile": { 
			"-0.025": 0.0,
			"-0.024": 0.0,
			"-0.023": 0.0,
			"-0.022": 0.0,
			"-0.021": 0.0,
			"-0.02": 0.0,
			"-0.019": 0.205848206937,
			"-0.018": 1.08336875379,
			"-0.017": 0.900324613972,
			"-0.016": 1.31249469676,
			"-0.015": 1.47823316836,
			"-0.014": 2.46446196212,
			"-0.013": 2.0739133241,
			"-0.012": 2.71219154736,
			"-0.011": 4.46759974641,
			"-0.01": 5.91096205559,
			"-0.009": 5.15045080196,
			"-0.008": 8.46357001795,
			"-0.007": 10.9276553754,
			"-0.006": 11.8001594122,
			"-0.005": 8.65052853334,
			"-0.004": 8.33318701306,
			"-0.003": 10.0446671206,
			"-0.002": 11.2428446157,
			"-0.001": 10.5840881983,
			"0.0": 13.2844977598,
			"0.001": 13.4045793777,
			"0.002": 17.4127742325,
			"0.003": 11.2299541951,
			"0.004": 7.08248193475,
			"0.005": 11.1530286512,
			"0.006": 8.60083265304,
			"0.007": 3.57643365055,
			"0.008": 4.98710828659,
			"0.009": 5.1171484896,
			"0.01": 6.94582210424,
			"0.011": 8.40541189319,
			"0.012": 10.770973185,
			"0.013": 4.21343613678,
			"0.014": 0.381320043141,
			"0.015": 0.0,
			"0.016": 0.0,
			"0.017": 0.0,
			"0.018": 0.0,
			"0.019": 0.0,
			"0.02": 0.0,
			"0.021": 0.0,
			"0.022": 0.0,
			"0.023": 0.0,
			"0.024": 0.0,
			"0.0": 0.0
		}
	}
}
