{
	 "smiles": "COC1=CC=C(C=C1)C1=NN=C(S)N1CC(O)=O", 
	 "Tm": 290.15, 
	 "num_atms": 29, 
	 "gaussian": { 
		 "optdone": 1, 
		 "sigma_profile": "yes", 
		 "theory": "DFT", 
		 "functional": "B3LYP", 
		 "basiset": "6-31G**", 
		 "properties": { 
			 "R2extent": 6842.0737, 
			 "electric_dipole_moment_norm": 6.87986484315, 
			 "electric_quadrupole_moment_norm": 25.3471330079, 
			 "total_energy": -1213.87508117, 
			 "HOMO_LUMO_gap": 0.18887, 
			 "cosmo_polarized_energy": -30.29, 
			 "cosmo_cavitation_energy": 35.74, 
			 "cosmo_dispersion_energy": -25.72, 
			 "cosmo_repulsion_energy": 1.95, 
			 "cosmo_total_nonelectrostatic_energy": 11.98, 
			 "SMD_solvation_energy": 5.59 
		},
		"coords": [
			{
				"x": -3.568625952,
				"y": -0.8944674697,
				"z": -3.1444746637,
				"element": "C" 
			},
			{
				"x": -3.5801474197,
				"y": -0.9511854091,
				"z": -1.7254504023,
				"element": "O" 
			},
			{
				"x": -2.4684598278,
				"y": -0.5475095276,
				"z": -1.0519317004,
				"element": "C" 
			},
			{
				"x": -2.5327505319,
				"y": -0.6540012442,
				"z": 0.3479567536,
				"element": "C" 
			},
			{
				"x": -1.4578603905,
				"y": -0.2613630405,
				"z": 1.1281804068,
				"element": "C" 
			},
			{
				"x": -0.2868319566,
				"y": 0.2502154909,
				"z": 0.5356498476,
				"element": "C" 
			},
			{
				"x": -0.2232560061,
				"y": 0.3315840445,
				"z": -0.862004345,
				"element": "C" 
			},
			{
				"x": -1.3049686741,
				"y": -0.0555740611,
				"z": -1.6559773457,
				"element": "C" 
			},
			{
				"x": 0.8415168421,
				"y": 0.6222967806,
				"z": 1.3964861872,
				"element": "C" 
			},
			{
				"x": 1.2353448728,
				"y": -0.0442960122,
				"z": 2.4589883869,
				"element": "N" 
			},
			{
				"x": 2.3189912446,
				"y": 0.6124255474,
				"z": 3.0091971525,
				"element": "N" 
			},
			{
				"x": 2.543653565,
				"y": 1.6668772589,
				"z": 2.2671566524,
				"element": "C" 
			},
			{
				"x": 3.8095119982,
				"y": 2.8755804034,
				"z": 2.5167971199,
				"element": "S" 
			},
			{
				"x": 1.6442673961,
				"y": 1.7453415673,
				"z": 1.2276356738,
				"element": "N" 
			},
			{
				"x": 1.4479490025,
				"y": 2.8729413011,
				"z": 0.3475259814,
				"element": "C" 
			},
			{
				"x": 2.3354197861,
				"y": 2.8410881528,
				"z": -0.9058954516,
				"element": "C" 
			},
			{
				"x": 2.3780527785,
				"y": 4.0078359221,
				"z": -1.5925600523,
				"element": "O" 
			},
			{
				"x": 2.9178176299,
				"y": 1.8656067308,
				"z": -1.2975450364,
				"element": "O" 
			},
			{
				"x": -3.4329123958,
				"y": 0.132511996,
				"z": -3.5070187323,
				"element": "H" 
			},
			{
				"x": -2.7823618374,
				"y": -1.5320288653,
				"z": -3.56775273,
				"element": "H" 
			},
			{
				"x": -4.5429930543,
				"y": -1.2632341906,
				"z": -3.4677538116,
				"element": "H" 
			},
			{
				"x": -3.4396322942,
				"y": -1.0470852888,
				"z": 0.7953367894,
				"element": "H" 
			},
			{
				"x": -1.5037218392,
				"y": -0.3486999135,
				"z": 2.2084677062,
				"element": "H" 
			},
			{
				"x": 0.6947267515,
				"y": 0.6537923025,
				"z": -1.343486501,
				"element": "H" 
			},
			{
				"x": -1.2190861438,
				"y": 0.0102228014,
				"z": -2.7338985582,
				"element": "H" 
			},
			{
				"x": 4.0031535271,
				"y": 2.5207838166,
				"z": 3.8005886781,
				"element": "H" 
			},
			{
				"x": 1.6259781378,
				"y": 3.7965648909,
				"z": 0.9118198909,
				"element": "H" 
			},
			{
				"x": 0.4026894698,
				"y": 2.8788655422,
				"z": 0.0192884665,
				"element": "H" 
			},
			{
				"x": 1.8929353214,
				"y": 4.7073104733,
				"z": -1.1306263626,
				"element": "H" 
			}
		],
		 "valence_orbital": [ 
			{
				"type": "occ",
				"energy": -0.28976,
				"method": "rhf"
			},
			{
				"type": "occ",
				"energy": -0.26272,
				"method": "rhf"
			},
			{
				"type": "occ",
				"energy": -0.25544,
				"method": "rhf"
			},
			{
				"type": "occ",
				"energy": -0.25026,
				"method": "rhf"
			},
			{
				"type": "occ",
				"energy": -0.21524,
				"method": "rhf"
			},
			{
				"type": "unocc",
				"energy": -0.02637,
				"method": "rhf"
			},
			{
				"type": "unocc",
				"energy": -0.02036,
				"method": "rhf"
			},
			{
				"type": "unocc",
				"energy": -0.01304,
				"method": "rhf"
			},
			{
				"type": "unocc",
				"energy": 0.00337,
				"method": "rhf"
			},
			{
				"type": "unocc",
				"energy": 0.02005,
				"method": "rhf"
			}
		],
		"cosmo_sigma_profile": { 
			"-0.025": 0.0,
			"-0.024": 0.0,
			"-0.023": 0.0,
			"-0.022": 0.0,
			"-0.021": 0.284165019822,
			"-0.02": 1.54541585041,
			"-0.019": 1.8187361807,
			"-0.018": 1.48848263976,
			"-0.017": 0.646982356398,
			"-0.016": 0.596931287575,
			"-0.015": 1.46981436482,
			"-0.014": 1.39020368534,
			"-0.013": 2.40989461062,
			"-0.012": 3.1108582458,
			"-0.011": 3.25682814493,
			"-0.01": 3.04130071819,
			"-0.009": 4.54366494494,
			"-0.008": 5.0779392101,
			"-0.007": 7.55509378521,
			"-0.006": 15.7076274073,
			"-0.005": 19.9855875243,
			"-0.004": 19.5887489913,
			"-0.003": 17.136707033,
			"-0.002": 12.1127643998,
			"-0.001": 12.6813908011,
			"0.0": 15.5695241829,
			"0.001": 16.8560893365,
			"0.002": 17.2182866148,
			"0.003": 18.2776706811,
			"0.004": 19.1821920259,
			"0.005": 8.52166030514,
			"0.006": 7.55106262605,
			"0.007": 6.99846060722,
			"0.008": 5.96310712488,
			"0.009": 8.44682443984,
			"0.01": 7.58690630587,
			"0.011": 6.03211398341,
			"0.012": 3.78528922962,
			"0.013": 3.48839206811,
			"0.014": 3.02173528947,
			"0.015": 2.4170563841,
			"0.016": 1.56583057009,
			"0.017": 0.301012470599,
			"0.018": 0.0,
			"0.019": 0.0,
			"0.02": 0.0,
			"0.021": 0.0,
			"0.022": 0.0,
			"0.023": 0.0,
			"0.024": 0.0,
			"0.025": 0.0
		}
	}
}
