{
	 "smiles": "NC1=CC(=CC=C1)N1C(=O)CC2(CCCC2)C1=O", 
	 "Tm": 410.15, 
	 "num_atms": 34, 
	 "gaussian": { 
		 "optdone": 1, 
		 "sigma_profile": "yes", 
		 "theory": "DFT", 
		 "functional": "B3LYP", 
		 "basiset": "6-31G**", 
		 "properties": { 
			 "R2extent": 5379.8641, 
			 "electric_dipole_moment_norm": 1.37317802924, 
			 "electric_quadrupole_moment_norm": 22.5159473056, 
			 "total_energy": -803.125355844, 
			 "HOMO_LUMO_gap": 0.18417, 
			 "cosmo_polarized_energy": -16.61, 
			 "cosmo_cavitation_energy": 35.77, 
			 "cosmo_dispersion_energy": -25.78, 
			 "cosmo_repulsion_energy": 1.99, 
			 "cosmo_total_nonelectrostatic_energy": 11.98, 
			 "SMD_solvation_energy": 6.43 
		},
		"coords": [
			{
				"x": 1.1519130604,
				"y": 1.7969486475,
				"z": -4.3827317609,
				"element": "N" 
			},
			{
				"x": 0.5495382569,
				"y": 0.867258837,
				"z": -3.5321376642,
				"element": "C" 
			},
			{
				"x": 0.8060640301,
				"y": 0.9046873331,
				"z": -2.1528189234,
				"element": "C" 
			},
			{
				"x": 0.2375465965,
				"y": -0.0494505881,
				"z": -1.3081231856,
				"element": "C" 
			},
			{
				"x": -0.5841172148,
				"y": -1.0623872758,
				"z": -1.8140451919,
				"element": "C" 
			},
			{
				"x": -0.8218637128,
				"y": -1.1010484755,
				"z": -3.1871026666,
				"element": "C" 
			},
			{
				"x": -0.2700738595,
				"y": -0.1526240296,
				"z": -4.0437572035,
				"element": "C" 
			},
			{
				"x": 0.4975871694,
				"y": 0.0192689016,
				"z": 0.1004164071,
				"element": "N" 
			},
			{
				"x": 0.5381618639,
				"y": 1.2179603394,
				"z": 0.8380272728,
				"element": "C" 
			},
			{
				"x": 0.336183439,
				"y": 2.3268357811,
				"z": 0.3919447424,
				"element": "O" 
			},
			{
				"x": 0.9116666093,
				"y": 0.868536483,
				"z": 2.2699245793,
				"element": "C" 
			},
			{
				"x": 0.841543034,
				"y": -0.6636834212,
				"z": 2.3724996509,
				"element": "C" 
			},
			{
				"x": -0.4350137392,
				"y": -1.1873257085,
				"z": 3.1151036857,
				"element": "C" 
			},
			{
				"x": -0.0125455046,
				"y": -2.5336060564,
				"z": 3.7152769811,
				"element": "C" 
			},
			{
				"x": 1.4120602242,
				"y": -2.2475422592,
				"z": 4.2126224707,
				"element": "C" 
			},
			{
				"x": 2.0314454503,
				"y": -1.380977589,
				"z": 3.0931007967,
				"element": "C" 
			},
			{
				"x": 0.7463832434,
				"y": -1.1071173281,
				"z": 0.9077487936,
				"element": "C" 
			},
			{
				"x": 0.8332386036,
				"y": -2.24786242,
				"z": 0.5020833622,
				"element": "O" 
			},
			{
				"x": 1.4041457692,
				"y": 2.6730403281,
				"z": -3.9459198726,
				"element": "H" 
			},
			{
				"x": 0.6749324417,
				"y": 1.9414797726,
				"z": -5.2620365973,
				"element": "H" 
			},
			{
				"x": 1.428433589,
				"y": 1.689655356,
				"z": -1.7410106829,
				"element": "H" 
			},
			{
				"x": -1.0080320767,
				"y": -1.8073291098,
				"z": -1.1544139,
				"element": "H" 
			},
			{
				"x": -1.4542890083,
				"y": -1.8838424376,
				"z": -3.595720639,
				"element": "H" 
			},
			{
				"x": -0.4684014927,
				"y": -0.1977607123,
				"z": -5.1115818234,
				"element": "H" 
			},
			{
				"x": 1.9240207959,
				"y": 1.2498323164,
				"z": 2.4474400753,
				"element": "H" 
			},
			{
				"x": 0.245653566,
				"y": 1.3976913603,
				"z": 2.9568499666,
				"element": "H" 
			},
			{
				"x": -1.3102805557,
				"y": -1.2514965224,
				"z": 2.4603874256,
				"element": "H" 
			},
			{
				"x": -0.6813196515,
				"y": -0.4817203066,
				"z": 3.918375915,
				"element": "H" 
			},
			{
				"x": -0.6894005341,
				"y": -2.8756224577,
				"z": 4.5047947926,
				"element": "H" 
			},
			{
				"x": 0.0094708805,
				"y": -3.2971136161,
				"z": 2.9304201241,
				"element": "H" 
			},
			{
				"x": 1.3687494036,
				"y": -1.6812041235,
				"z": 5.1515420275,
				"element": "H" 
			},
			{
				"x": 1.9925407215,
				"y": -3.1543119565,
				"z": 4.4068522137,
				"element": "H" 
			},
			{
				"x": 2.756250765,
				"y": -0.6579247177,
				"z": 3.4790008679,
				"element": "H" 
			},
			{
				"x": 2.5527078366,
				"y": -2.0196443444,
				"z": 2.3743879605,
				"element": "H" 
			}
		],
		 "valence_orbital": [ 
			{
				"type": "occ",
				"energy": -0.28555,
				"method": "rhf"
			},
			{
				"type": "occ",
				"energy": -0.27493,
				"method": "rhf"
			},
			{
				"type": "occ",
				"energy": -0.25361,
				"method": "rhf"
			},
			{
				"type": "occ",
				"energy": -0.23566,
				"method": "rhf"
			},
			{
				"type": "occ",
				"energy": -0.20179,
				"method": "rhf"
			},
			{
				"type": "unocc",
				"energy": -0.01762,
				"method": "rhf"
			},
			{
				"type": "unocc",
				"energy": -0.0116,
				"method": "rhf"
			},
			{
				"type": "unocc",
				"energy": 0.01565,
				"method": "rhf"
			},
			{
				"type": "unocc",
				"energy": 0.04595,
				"method": "rhf"
			},
			{
				"type": "unocc",
				"energy": 0.08095,
				"method": "rhf"
			}
		],
		"cosmo_sigma_profile": { 
			"-0.025": 0.0,
			"-0.024": 0.0,
			"-0.023": 0.0,
			"-0.022": 0.0,
			"-0.021": 0.0,
			"-0.02": 0.0,
			"-0.019": 0.0,
			"-0.018": 0.0,
			"-0.017": 0.0,
			"-0.016": 0.0,
			"-0.015": 0.0,
			"-0.014": 0.0,
			"-0.013": 0.43792699147,
			"-0.012": 2.8156413188,
			"-0.011": 2.58648041218,
			"-0.01": 3.29943428773,
			"-0.009": 3.27525096129,
			"-0.008": 3.235388222,
			"-0.007": 6.85584445318,
			"-0.006": 13.9816380454,
			"-0.005": 17.4632333869,
			"-0.004": 20.4711520076,
			"-0.003": 27.7531848579,
			"-0.002": 25.363605163,
			"-0.001": 24.2835178623,
			"0.0": 22.2900212032,
			"0.001": 16.6392135098,
			"0.002": 9.40187534165,
			"0.003": 9.98808876696,
			"0.004": 8.96968739856,
			"0.005": 13.7105567998,
			"0.006": 12.1402356266,
			"0.007": 3.76747453185,
			"0.008": 4.45082135172,
			"0.009": 5.12760301066,
			"0.01": 5.29243340695,
			"0.011": 7.179846966,
			"0.012": 8.24796022818,
			"0.013": 1.64231886359,
			"0.014": 0.788719372717,
			"0.015": 0.0564685790283,
			"0.016": 0.0,
			"0.017": 0.0,
			"0.018": 0.0,
			"0.019": 0.0,
			"0.02": 0.0,
			"0.021": 0.0,
			"0.022": 0.0,
			"0.023": 0.0,
			"0.024": 0.0,
			"0.025": 0.0
		}
	}
}
