{
	 "smiles": "CC(C)(C)N1C=C(C=N1)C(O)=O", 
	 "Tm": 429.15, 
	 "num_atms": 24, 
	 "gaussian": { 
		 "optdone": 1, 
		 "sigma_profile": "yes", 
		 "theory": "DFT", 
		 "functional": "B3LYP", 
		 "basiset": "6-31G**", 
		 "properties": { 
			 "R2extent": 2731.6499, 
			 "electric_dipole_moment_norm": 6.78136514723, 
			 "electric_quadrupole_moment_norm": 8.76798638001, 
			 "total_energy": -572.032328275, 
			 "HOMO_LUMO_gap": 0.23528, 
			 "cosmo_polarized_energy": -19.25, 
			 "cosmo_cavitation_energy": 27.34, 
			 "cosmo_dispersion_energy": -19.3, 
			 "cosmo_repulsion_energy": 1.53, 
			 "cosmo_total_nonelectrostatic_energy": 9.57, 
			 "SMD_solvation_energy": 5.69 
		},
		"coords": [
			{
				"x": -2.6859357025,
				"y": 1.6733295366,
				"z": -0.4692109921,
				"element": "C" 
			},
			{
				"x": -2.3679953287,
				"y": 0.6599449445,
				"z": 0.6458386755,
				"element": "C" 
			},
			{
				"x": -3.6451247021,
				"y": -0.0789284118,
				"z": 1.0643554747,
				"element": "C" 
			},
			{
				"x": -1.7430896486,
				"y": 1.3650668321,
				"z": 1.8638992281,
				"element": "C" 
			},
			{
				"x": -1.384285536,
				"y": -0.3294596282,
				"z": 0.1176271198,
				"element": "N" 
			},
			{
				"x": -0.140858627,
				"y": -0.0684313707,
				"z": -0.3522870526,
				"element": "C" 
			},
			{
				"x": 0.4174579519,
				"y": -1.2838305437,
				"z": -0.7368354467,
				"element": "C" 
			},
			{
				"x": -0.5969828914,
				"y": -2.2290150428,
				"z": -0.4487818155,
				"element": "C" 
			},
			{
				"x": -1.6764832038,
				"y": -1.6547560364,
				"z": 0.0634759765,
				"element": "N" 
			},
			{
				"x": 1.7329156413,
				"y": -1.6171068707,
				"z": -1.3133874136,
				"element": "C" 
			},
			{
				"x": 2.5992027475,
				"y": -0.5842959498,
				"z": -1.5306734396,
				"element": "O" 
			},
			{
				"x": 2.0662462875,
				"y": -2.7448380976,
				"z": -1.5954012586,
				"element": "O" 
			},
			{
				"x": -1.7952286007,
				"y": 2.2278866205,
				"z": -0.7809706436,
				"element": "H" 
			},
			{
				"x": -3.4216852616,
				"y": 2.4001839463,
				"z": -0.1123957525,
				"element": "H" 
			},
			{
				"x": -3.0991729118,
				"y": 1.1661251472,
				"z": -1.3456249542,
				"element": "H" 
			},
			{
				"x": -4.0979538612,
				"y": -0.6016618806,
				"z": 0.2198781024,
				"element": "H" 
			},
			{
				"x": -4.359380921,
				"y": 0.6546828484,
				"z": 1.4499023183,
				"element": "H" 
			},
			{
				"x": -3.4417995252,
				"y": -0.8160389344,
				"z": 1.8432937499,
				"element": "H" 
			},
			{
				"x": -1.4887907634,
				"y": 0.6394664659,
				"z": 2.641694803,
				"element": "H" 
			},
			{
				"x": -0.8346907335,
				"y": 1.9131263043,
				"z": 1.5946447214,
				"element": "H" 
			},
			{
				"x": -2.4533891156,
				"y": 2.0844666084,
				"z": 2.282128952,
				"element": "H" 
			},
			{
				"x": 0.2453843454,
				"y": 0.9409556506,
				"z": -0.3771679945,
				"element": "H" 
			},
			{
				"x": -0.5566528495,
				"y": -3.297735273,
				"z": -0.6043276588,
				"element": "H" 
			},
			{
				"x": 2.20469321,
				"y": 0.2557631351,
				"z": -1.2616746994,
				"element": "H" 
			}
		],
		 "valence_orbital": [ 
			{
				"type": "occ",
				"energy": -0.31009,
				"method": "rhf"
			},
			{
				"type": "occ",
				"energy": -0.29686,
				"method": "rhf"
			},
			{
				"type": "occ",
				"energy": -0.26724,
				"method": "rhf"
			},
			{
				"type": "occ",
				"energy": -0.26665,
				"method": "rhf"
			},
			{
				"type": "occ",
				"energy": -0.26049,
				"method": "rhf"
			},
			{
				"type": "unocc",
				"energy": -0.02521,
				"method": "rhf"
			},
			{
				"type": "unocc",
				"energy": 0.01361,
				"method": "rhf"
			},
			{
				"type": "unocc",
				"energy": 0.04593,
				"method": "rhf"
			},
			{
				"type": "unocc",
				"energy": 0.06366,
				"method": "rhf"
			},
			{
				"type": "unocc",
				"energy": 0.09674,
				"method": "rhf"
			}
		],
		"cosmo_sigma_profile": { 
			"-0.025": 0.0,
			"-0.024": 0.0,
			"-0.023": 0.0,
			"-0.022": 0.0,
			"-0.021": 0.0,
			"-0.02": 0.0314995263566,
			"-0.019": 1.11952238712,
			"-0.018": 0.685487160213,
			"-0.017": 1.36836503559,
			"-0.016": 1.29349118834,
			"-0.015": 1.01423603505,
			"-0.014": 0.43846833235,
			"-0.013": 0.698532662177,
			"-0.012": 2.02464503229,
			"-0.011": 1.537962889,
			"-0.01": 2.09949255695,
			"-0.009": 2.22046186645,
			"-0.008": 2.91018291134,
			"-0.007": 3.55859482855,
			"-0.006": 3.9581859409,
			"-0.005": 6.96789675733,
			"-0.004": 17.7971517435,
			"-0.003": 18.9812147928,
			"-0.002": 19.9961411988,
			"-0.001": 22.6362591954,
			"0.0": 25.3550696565,
			"0.001": 12.3667073622,
			"0.002": 9.50945351457,
			"0.003": 6.97442029752,
			"0.004": 4.90893250277,
			"0.005": 4.40966846133,
			"0.006": 4.60470172554,
			"0.007": 3.38397849863,
			"0.008": 4.52455927473,
			"0.009": 4.21502170407,
			"0.01": 5.34592621678,
			"0.011": 5.89292132511,
			"0.012": 7.39679032691,
			"0.013": 3.9322085734,
			"0.014": 0.716107346417,
			"0.015": 0.0,
			"0.016": 0.0,
			"0.017": 0.0,
			"0.018": 0.0,
			"0.019": 0.0,
			"0.02": 0.0,
			"0.021": 0.0,
			"0.022": 0.0,
			"0.023": 0.0,
			"0.024": 0.0,
			"0.025": 0.0
		}
	}
}
