{
	 "smiles": "COC1=CC(=CC(OC)=C1)C(N)=O", 
	 "Tm": 417.15, 
	 "num_atms": 24, 
	 "gaussian": { 
		 "optdone": 1, 
		 "sigma_profile": "yes", 
		 "theory": "DFT", 
		 "functional": "B3LYP", 
		 "basiset": "6-31G**", 
		 "properties": { 
			 "R2extent": 2959.933, 
			 "electric_dipole_moment_norm": 5.20383841505, 
			 "electric_quadrupole_moment_norm": 17.7630048823, 
			 "total_energy": -630.003410548, 
			 "HOMO_LUMO_gap": 0.18425, 
			 "cosmo_polarized_energy": -17.2, 
			 "cosmo_cavitation_energy": 28.19, 
			 "cosmo_dispersion_energy": -20.61, 
			 "cosmo_repulsion_energy": 1.65, 
			 "cosmo_total_nonelectrostatic_energy": 9.23, 
			 "SMD_solvation_energy": 7.18 
		},
		"coords": [
			{
				"x": -1.3646409696,
				"y": 1.081545506,
				"z": -3.1500177225,
				"element": "C" 
			},
			{
				"x": -0.245506661,
				"y": 0.4245069295,
				"z": -2.5789575657,
				"element": "O" 
			},
			{
				"x": -0.1120586401,
				"y": 0.4196984947,
				"z": -1.2195567778,
				"element": "C" 
			},
			{
				"x": 1.0288400546,
				"y": -0.2223305625,
				"z": -0.7283797484,
				"element": "C" 
			},
			{
				"x": 1.2521164186,
				"y": -0.2693901324,
				"z": 0.6520308545,
				"element": "C" 
			},
			{
				"x": 0.3542833113,
				"y": 0.3300749534,
				"z": 1.5361397095,
				"element": "C" 
			},
			{
				"x": -0.7867245003,
				"y": 0.9632877329,
				"z": 1.0374416806,
				"element": "C" 
			},
			{
				"x": -1.6156338112,
				"y": 1.5113454722,
				"z": 1.972268077,
				"element": "O" 
			},
			{
				"x": -2.7860391679,
				"y": 2.1817729289,
				"z": 1.5367887121,
				"element": "C" 
			},
			{
				"x": -1.0319978483,
				"y": 1.0120478535,
				"z": -0.3433804629,
				"element": "C" 
			},
			{
				"x": 2.4566417757,
				"y": -0.9423345542,
				"z": 1.2547018872,
				"element": "C" 
			},
			{
				"x": 3.1101910731,
				"y": -1.8442078191,
				"z": 0.4486733624,
				"element": "N" 
			},
			{
				"x": 2.844045368,
				"y": -0.692672337,
				"z": 2.3890640514,
				"element": "O" 
			},
			{
				"x": -1.3805054017,
				"y": 2.1499919367,
				"z": -2.8983446384,
				"element": "H" 
			},
			{
				"x": -2.3109462038,
				"y": 0.6239472799,
				"z": -2.8328153258,
				"element": "H" 
			},
			{
				"x": -1.2599279516,
				"y": 0.9706732379,
				"z": -4.230427084,
				"element": "H" 
			},
			{
				"x": 1.7346429624,
				"y": -0.6288604082,
				"z": -1.4436285019,
				"element": "H" 
			},
			{
				"x": 0.5449619045,
				"y": 0.3051298698,
				"z": 2.6018702324,
				"element": "H" 
			},
			{
				"x": -3.2832559545,
				"y": 2.5368183555,
				"z": 2.4407322385,
				"element": "H" 
			},
			{
				"x": -2.5483118393,
				"y": 3.0416838619,
				"z": 0.896792298,
				"element": "H" 
			},
			{
				"x": -3.4638414611,
				"y": 1.5081975684,
				"z": 0.9957805801,
				"element": "H" 
			},
			{
				"x": -1.9138611625,
				"y": 1.5048117223,
				"z": -0.7268664385,
				"element": "H" 
			},
			{
				"x": 2.6296121493,
				"y": -2.2782043121,
				"z": -0.3236277189,
				"element": "H" 
			},
			{
				"x": 3.8368165554,
				"y": -2.380633578,
				"z": 0.9000183011,
				"element": "H" 
			}
		],
		 "valence_orbital": [ 
			{
				"type": "occ",
				"energy": -0.29749,
				"method": "rhf"
			},
			{
				"type": "occ",
				"energy": -0.26571,
				"method": "rhf"
			},
			{
				"type": "occ",
				"energy": -0.2463,
				"method": "rhf"
			},
			{
				"type": "occ",
				"energy": -0.23972,
				"method": "rhf"
			},
			{
				"type": "occ",
				"energy": -0.21163,
				"method": "rhf"
			},
			{
				"type": "unocc",
				"energy": -0.02738,
				"method": "rhf"
			},
			{
				"type": "unocc",
				"energy": 0.01162,
				"method": "rhf"
			},
			{
				"type": "unocc",
				"energy": 0.06949,
				"method": "rhf"
			},
			{
				"type": "unocc",
				"energy": 0.0811,
				"method": "rhf"
			},
			{
				"type": "unocc",
				"energy": 0.09094,
				"method": "rhf"
			}
		],
		"cosmo_sigma_profile": { 
			"-0.025": 0.0,
			"-0.024": 0.0,
			"-0.023": 0.0,
			"-0.022": 0.0,
			"-0.021": 0.0,
			"-0.02": 0.0,
			"-0.019": 0.0,
			"-0.018": 0.0,
			"-0.017": 0.0,
			"-0.016": 0.0,
			"-0.015": 0.012796606757,
			"-0.014": 1.05392628356,
			"-0.013": 2.8573766077,
			"-0.012": 1.8673117048,
			"-0.011": 2.40269453009,
			"-0.01": 2.49737247067,
			"-0.009": 2.30216254468,
			"-0.008": 2.64299797245,
			"-0.007": 4.09893226048,
			"-0.006": 13.1939953851,
			"-0.005": 21.3127048673,
			"-0.004": 19.444392082,
			"-0.003": 19.0023872858,
			"-0.002": 11.1567869252,
			"-0.001": 9.68918654231,
			"0.0": 9.82945901667,
			"0.001": 10.243854879,
			"0.002": 11.9335316326,
			"0.003": 15.7965236298,
			"0.004": 17.607915893,
			"0.005": 7.53513455459,
			"0.006": 5.82962023476,
			"0.007": 4.07351958019,
			"0.008": 5.44065501209,
			"0.009": 4.56136186624,
			"0.01": 3.75860513094,
			"0.011": 2.20966630536,
			"0.012": 2.13123992353,
			"0.013": 4.28997918497,
			"0.014": 4.30062619378,
			"0.015": 0.250155442617,
			"0.016": 0.0,
			"0.017": 0.0,
			"0.018": 0.0,
			"0.019": 0.0,
			"0.02": 0.0,
			"0.021": 0.0,
			"0.022": 0.0,
			"0.023": 0.0,
			"0.024": 0.0,
			"0.025": 0.0
		}
	}
}
