{
	 "smiles": "CC(Cl)C(Cl)(Cl)Cl", 
	 "Tm": 208.65, 
	 "num_atms": 11, 
	 "gaussian": { 
		 "optdone": 1, 
		 "sigma_profile": "yes", 
		 "theory": "DFT", 
		 "functional": "B3LYP", 
		 "basiset": "6-31G**", 
		 "properties": { 
			 "R2extent": 2340.4162, 
			 "electric_dipole_moment_norm": 2.06622895634, 
			 "electric_quadrupole_moment_norm": 4.00195759473, 
			 "total_energy": -1957.48857058, 
			 "HOMO_LUMO_gap": 0.25715, 
			 "cosmo_polarized_energy": -4.35, 
			 "cosmo_cavitation_energy": 20.78, 
			 "cosmo_dispersion_energy": -15.73, 
			 "cosmo_repulsion_energy": 1.3, 
			 "cosmo_total_nonelectrostatic_energy": 6.36, 
			 "SMD_solvation_energy": 2.41 
		},
		"coords": [
			{
				"x": 0.3769517645,
				"y": 0.0977814702,
				"z": -1.7415522661,
				"element": "C" 
			},
			{
				"x": 0.3825620021,
				"y": -0.6771403161,
				"z": -0.4276545837,
				"element": "C" 
			},
			{
				"x": -0.4086699979,
				"y": 0.3313482137,
				"z": 0.8578308022,
				"element": "Cl" 
			},
			{
				"x": 1.7844796823,
				"y": -1.1532181397,
				"z": 0.0414810693,
				"element": "C" 
			},
			{
				"x": 2.9218565575,
				"y": 0.2164445188,
				"z": 0.2638921738,
				"element": "Cl" 
			},
			{
				"x": 2.4411458315,
				"y": -2.2657861055,
				"z": -1.2308132166,
				"element": "Cl" 
			},
			{
				"x": 1.6632111977,
				"y": -2.0852403673,
				"z": 1.5737680385,
				"element": "Cl" 
			},
			{
				"x": 0.7950289029,
				"y": -0.5092852703,
				"z": -2.5471584899,
				"element": "H" 
			},
			{
				"x": 0.951705154,
				"y": 1.0213920597,
				"z": -1.6526581458,
				"element": "H" 
			},
			{
				"x": -0.6540693247,
				"y": 0.351711992,
				"z": -1.9952985989,
				"element": "H" 
			},
			{
				"x": -0.2255017699,
				"y": -1.5807080555,
				"z": -0.5033367827,
				"element": "H" 
			}
		],
		 "valence_orbital": [ 
			{
				"type": "occ",
				"energy": -0.33162,
				"method": "rhf"
			},
			{
				"type": "occ",
				"energy": -0.32802,
				"method": "rhf"
			},
			{
				"type": "occ",
				"energy": -0.31633,
				"method": "rhf"
			},
			{
				"type": "occ",
				"energy": -0.3133,
				"method": "rhf"
			},
			{
				"type": "occ",
				"energy": -0.30599,
				"method": "rhf"
			},
			{
				"type": "unocc",
				"energy": -0.04884,
				"method": "rhf"
			},
			{
				"type": "unocc",
				"energy": -0.0298,
				"method": "rhf"
			},
			{
				"type": "unocc",
				"energy": -0.0036,
				"method": "rhf"
			},
			{
				"type": "unocc",
				"energy": 0.02928,
				"method": "rhf"
			},
			{
				"type": "unocc",
				"energy": 0.09666,
				"method": "rhf"
			}
		],
		"cosmo_sigma_profile": { 
			"-0.025": 0.0,
			"-0.024": 0.0,
			"-0.023": 0.0,
			"-0.022": 0.0,
			"-0.021": 0.0,
			"-0.02": 0.0,
			"-0.019": 0.0,
			"-0.018": 0.0,
			"-0.017": 0.0,
			"-0.016": 0.0,
			"-0.015": 0.0,
			"-0.014": 0.0,
			"-0.013": 0.0,
			"-0.012": 0.0,
			"-0.011": 0.0,
			"-0.01": 0.942867730518,
			"-0.009": 2.19409210741,
			"-0.008": 2.29532692213,
			"-0.007": 1.95775565382,
			"-0.006": 4.14571701968,
			"-0.005": 6.06391034572,
			"-0.004": 10.860320383,
			"-0.003": 12.0813583431,
			"-0.002": 16.6485654018,
			"-0.001": 14.7723613612,
			"0.0": 13.0120621381,
			"0.001": 16.1397658482,
			"0.002": 21.3216918695,
			"0.003": 29.3483067431,
			"0.004": 10.1565558635,
			"0.005": 9.9230256392,
			"0.006": 1.32447816905,
			"0.007": 0.0,
			"0.008": 0.0,
			"0.009": 0.0,
			"0.01": 0.0,
			"0.011": 0.0,
			"0.012": 0.0,
			"0.013": 0.0,
			"0.014": 0.0,
			"0.015": 0.0,
			"0.016": 0.0,
			"0.017": 0.0,
			"0.018": 0.0,
			"0.019": 0.0,
			"0.02": 0.0,
			"0.021": 0.0,
			"0.022": 0.0,
			"0.023": 0.0,
			"0.024": 0.0,
			"0.025": 0.0
		}
	}
}
