{
	 "smiles": "FC(F)(F)C1=CC(CCl)=C(C=C1)N1CCOCC1", 
	 "Tm": 326.15, 
	 "num_atms": 31, 
	 "gaussian": { 
		 "optdone": 1, 
		 "sigma_profile": "yes", 
		 "theory": "DFT", 
		 "functional": "B3LYP", 
		 "basiset": "6-31G**", 
		 "properties": { 
			 "R2extent": 6226.9029, 
			 "electric_dipole_moment_norm": 3.38232675092, 
			 "electric_quadrupole_moment_norm": 13.5616390145, 
			 "total_energy": -1354.78896507, 
			 "HOMO_LUMO_gap": 0.17065, 
			 "cosmo_polarized_energy": -9.64, 
			 "cosmo_cavitation_energy": 35.55, 
			 "cosmo_dispersion_energy": -25.17, 
			 "cosmo_repulsion_energy": 1.88, 
			 "cosmo_total_nonelectrostatic_energy": 12.27, 
			 "SMD_solvation_energy": 5.91 
		},
		"coords": [
			{
				"x": -0.3803819591,
				"y": 1.4979673905,
				"z": 4.7549958381,
				"element": "F" 
			},
			{
				"x": 0.2445963972,
				"y": 0.3774864763,
				"z": 4.3277153649,
				"element": "C" 
			},
			{
				"x": 1.5612120935,
				"y": 0.5353536719,
				"z": 4.6037811978,
				"element": "F" 
			},
			{
				"x": -0.1905063614,
				"y": -0.6493044161,
				"z": 5.0943070171,
				"element": "F" 
			},
			{
				"x": 0.0037725741,
				"y": 0.121575829,
				"z": 2.8685634959,
				"element": "C" 
			},
			{
				"x": -0.2586852804,
				"y": 1.1752342385,
				"z": 1.9969181083,
				"element": "C" 
			},
			{
				"x": -0.4452031347,
				"y": 0.9697517344,
				"z": 0.6267520838,
				"element": "C" 
			},
			{
				"x": -0.886559933,
				"y": 2.135006312,
				"z": -0.2036025266,
				"element": "C" 
			},
			{
				"x": 0.488268538,
				"y": 3.2697700352,
				"z": -0.6949157346,
				"element": "Cl" 
			},
			{
				"x": -0.3244744366,
				"y": -0.3446136848,
				"z": 0.0918258747,
				"element": "C" 
			},
			{
				"x": -0.0851704331,
				"y": -1.4005606328,
				"z": 0.9973757658,
				"element": "C" 
			},
			{
				"x": 0.0731177821,
				"y": -1.1769833928,
				"z": 2.3581868287,
				"element": "C" 
			},
			{
				"x": -0.5215921586,
				"y": -0.5850951036,
				"z": -1.2778380138,
				"element": "N" 
			},
			{
				"x": 0.3471168225,
				"y": 0.0568154103,
				"z": -2.2805346504,
				"element": "C" 
			},
			{
				"x": 1.4563943507,
				"y": -0.8965704277,
				"z": -2.7352603482,
				"element": "C" 
			},
			{
				"x": 0.9192449124,
				"y": -2.1152469691,
				"z": -3.2360510793,
				"element": "O" 
			},
			{
				"x": 0.1585102089,
				"y": -2.7870919215,
				"z": -2.2416101566,
				"element": "C" 
			},
			{
				"x": -0.9855608108,
				"y": -1.8955844873,
				"z": -1.7439857516,
				"element": "C" 
			},
			{
				"x": -0.3541229639,
				"y": 2.1815749813,
				"z": 2.392893347,
				"element": "H" 
			},
			{
				"x": -1.5669225781,
				"y": 2.7766226785,
				"z": 0.3550385727,
				"element": "H" 
			},
			{
				"x": -1.3607357888,
				"y": 1.8205249006,
				"z": -1.1313543616,
				"element": "H" 
			},
			{
				"x": 0.0041281996,
				"y": -2.4139386845,
				"z": 0.6250418362,
				"element": "H" 
			},
			{
				"x": 0.2612187518,
				"y": -2.0124000374,
				"z": 3.0244528048,
				"element": "H" 
			},
			{
				"x": 0.7883489409,
				"y": 0.9665061994,
				"z": -1.8733183056,
				"element": "H" 
			},
			{
				"x": -0.2637024957,
				"y": 0.3315059688,
				"z": -3.1511769476,
				"element": "H" 
			},
			{
				"x": 2.1415823433,
				"y": -1.0985363704,
				"z": -1.8948776513,
				"element": "H" 
			},
			{
				"x": 2.0323008483,
				"y": -0.4509236839,
				"z": -3.5520283877,
				"element": "H" 
			},
			{
				"x": 0.8123789975,
				"y": -3.0858709261,
				"z": -1.4055181858,
				"element": "H" 
			},
			{
				"x": -0.2369501429,
				"y": -3.6942900238,
				"z": -2.7092355451,
				"element": "H" 
			},
			{
				"x": -1.5614243337,
				"y": -2.3864476516,
				"z": -0.9555357947,
				"element": "H" 
			},
			{
				"x": -1.6664989498,
				"y": -1.7197374132,
				"z": -2.5883046953,
				"element": "H" 
			}
		],
		 "valence_orbital": [ 
			{
				"type": "occ",
				"energy": -0.30076,
				"method": "rhf"
			},
			{
				"type": "occ",
				"energy": -0.29579,
				"method": "rhf"
			},
			{
				"type": "occ",
				"energy": -0.27056,
				"method": "rhf"
			},
			{
				"type": "occ",
				"energy": -0.26685,
				"method": "rhf"
			},
			{
				"type": "occ",
				"energy": -0.21208,
				"method": "rhf"
			},
			{
				"type": "unocc",
				"energy": -0.04143,
				"method": "rhf"
			},
			{
				"type": "unocc",
				"energy": -0.02452,
				"method": "rhf"
			},
			{
				"type": "unocc",
				"energy": 0.02814,
				"method": "rhf"
			},
			{
				"type": "unocc",
				"energy": 0.07911,
				"method": "rhf"
			},
			{
				"type": "unocc",
				"energy": 0.08804,
				"method": "rhf"
			}
		],
		"cosmo_sigma_profile": { 
			"-0.025": 0.0,
			"-0.024": 0.0,
			"-0.023": 0.0,
			"-0.022": 0.0,
			"-0.021": 0.0,
			"-0.02": 0.0,
			"-0.019": 0.0,
			"-0.018": 0.0,
			"-0.017": 0.0,
			"-0.016": 0.0,
			"-0.015": 0.0,
			"-0.014": 0.0,
			"-0.013": 0.0,
			"-0.012": 0.0,
			"-0.011": 0.0,
			"-0.01": 0.0,
			"-0.009": 0.0,
			"-0.008": 1.93818520712,
			"-0.007": 8.25284526759,
			"-0.006": 11.6260133757,
			"-0.005": 19.0803005985,
			"-0.004": 30.7248952764,
			"-0.003": 26.1708943184,
			"-0.002": 18.7108318592,
			"-0.001": 15.5675839642,
			"0.0": 15.1807305462,
			"0.001": 18.7590801712,
			"0.002": 25.3422403878,
			"0.003": 46.440641499,
			"0.004": 16.5463695964,
			"0.005": 7.55013311886,
			"0.006": 8.69442132958,
			"0.007": 4.67185721666,
			"0.008": 1.45354289749,
			"0.009": 1.62556363021,
			"0.01": 0.79857642338,
			"0.011": 0.90691496579,
			"0.012": 1.22717641983,
			"0.013": 2.21372450626,
			"0.014": 0.318772831319,
			"0.015": 0.0,
			"0.016": 0.0,
			"0.017": 0.0,
			"0.018": 0.0,
			"0.019": 0.0,
			"0.02": 0.0,
			"0.021": 0.0,
			"0.022": 0.0,
			"0.023": 0.0,
			"0.024": 0.0,
			"0.025": 0.0
		}
	}
}
