{
	 "smiles": "CC(=C)C1(O)C2OC(=O)C1C1(O)C3OC3C3(CO3)C1(C)C2O", 
	 "Tm": 498.15, 
	 "num_atms": 40, 
	 "gaussian": { 
		 "optdone": 1, 
		 "sigma_profile": "yes", 
		 "theory": "DFT", 
		 "functional": "B3LYP", 
		 "basiset": "6-31G**", 
		 "properties": { 
			 "R2extent": 5232.7567, 
			 "electric_dipole_moment_norm": 3.97541624613, 
			 "electric_quadrupole_moment_norm": 20.0722329129, 
			 "total_energy": -1108.86629132, 
			 "HOMO_LUMO_gap": 0.25217, 
			 "cosmo_polarized_energy": -25.18, 
			 "cosmo_cavitation_energy": 37.2, 
			 "cosmo_dispersion_energy": -26.42, 
			 "cosmo_repulsion_energy": 1.91, 
			 "cosmo_total_nonelectrostatic_energy": 12.69, 
			 "SMD_solvation_energy": 7.16 
		},
		"coords": [
			{
				"x": 1.2744176662,
				"y": 1.0061802613,
				"z": 2.3620762541,
				"element": "C" 
			},
			{
				"x": 0.9118076785,
				"y": -0.3369639383,
				"z": 1.7826181291,
				"element": "C" 
			},
			{
				"x": 0.6159153971,
				"y": -1.3960480395,
				"z": 2.5468886829,
				"element": "C" 
			},
			{
				"x": 1.0980880062,
				"y": -0.4919905498,
				"z": 0.2827494249,
				"element": "C" 
			},
			{
				"x": 2.5133552661,
				"y": -0.676909376,
				"z": 0.0852468685,
				"element": "O" 
			},
			{
				"x": 0.3059786629,
				"y": -1.5976806493,
				"z": -0.4557760486,
				"element": "C" 
			},
			{
				"x": 0.7364890893,
				"y": -1.4203451176,
				"z": -1.8314221931,
				"element": "O" 
			},
			{
				"x": 1.1022475439,
				"y": -0.114458339,
				"z": -2.0102805231,
				"element": "C" 
			},
			{
				"x": 1.5727506958,
				"y": 0.3075159483,
				"z": -3.0293531513,
				"element": "O" 
			},
			{
				"x": 0.7669366272,
				"y": 0.6400570995,
				"z": -0.7150449608,
				"element": "C" 
			},
			{
				"x": -0.7229207387,
				"y": 1.112488086,
				"z": -0.7427780368,
				"element": "C" 
			},
			{
				"x": -0.8832139063,
				"y": 2.2697362753,
				"z": 0.0795807812,
				"element": "O" 
			},
			{
				"x": -1.1775007348,
				"y": 1.489476559,
				"z": -2.1611465838,
				"element": "C" 
			},
			{
				"x": -1.4099356143,
				"y": 0.3646833083,
				"z": -3.025010155,
				"element": "O" 
			},
			{
				"x": -2.5391176568,
				"y": 1.0116929826,
				"z": -2.4021895161,
				"element": "C" 
			},
			{
				"x": -3.0120032808,
				"y": 0.2692976067,
				"z": -1.1947400272,
				"element": "C" 
			},
			{
				"x": -4.2317876879,
				"y": -0.5373051773,
				"z": -1.1940837301,
				"element": "C" 
			},
			{
				"x": -4.231718919,
				"y": 0.7865141538,
				"z": -0.6370632429,
				"element": "O" 
			},
			{
				"x": -1.7886701803,
				"y": 0.0325226552,
				"z": -0.260093039,
				"element": "C" 
			},
			{
				"x": -2.2642294811,
				"y": 0.2753778119,
				"z": 1.1871571999,
				"element": "C" 
			},
			{
				"x": -1.2433339014,
				"y": -1.4559020103,
				"z": -0.3968652921,
				"element": "C" 
			},
			{
				"x": -1.7896095719,
				"y": -2.1786049067,
				"z": -1.4803401127,
				"element": "O" 
			},
			{
				"x": 1.2767290035,
				"y": 0.9791515431,
				"z": 3.4545744958,
				"element": "H" 
			},
			{
				"x": 2.2709174619,
				"y": 1.3074299954,
				"z": 2.0196278594,
				"element": "H" 
			},
			{
				"x": 0.5649704858,
				"y": 1.7712653042,
				"z": 2.0293176385,
				"element": "H" 
			},
			{
				"x": 0.5985485915,
				"y": -1.3190865164,
				"z": 3.630104626,
				"element": "H" 
			},
			{
				"x": 0.3704249178,
				"y": -2.3697754851,
				"z": 2.1331169303,
				"element": "H" 
			},
			{
				"x": 2.7873587492,
				"y": -1.4246849027,
				"z": 0.634563182,
				"element": "H" 
			},
			{
				"x": 0.5901083395,
				"y": -2.615892003,
				"z": -0.1808504561,
				"element": "H" 
			},
			{
				"x": 1.4311315536,
				"y": 1.5008762389,
				"z": -0.6173027691,
				"element": "H" 
			},
			{
				"x": -0.3201532353,
				"y": 2.971200165,
				"z": -0.2764087022,
				"element": "H" 
			},
			{
				"x": -0.7502517413,
				"y": 2.3662225342,
				"z": -2.6448556456,
				"element": "H" 
			},
			{
				"x": -3.2496307009,
				"y": 1.4961479338,
				"z": -3.0667674221,
				"element": "H" 
			},
			{
				"x": -4.7997462398,
				"y": -0.6650790508,
				"z": -2.1156932788,
				"element": "H" 
			},
			{
				"x": -4.329275786,
				"y": -1.3489570159,
				"z": -0.4753961836,
				"element": "H" 
			},
			{
				"x": -3.0650191368,
				"y": -0.433723711,
				"z": 1.4191335077,
				"element": "H" 
			},
			{
				"x": -2.6641358883,
				"y": 1.2803749084,
				"z": 1.3019293646,
				"element": "H" 
			},
			{
				"x": -1.4662104679,
				"y": 0.1229046674,
				"z": 1.9088884894,
				"element": "H" 
			},
			{
				"x": -1.5807575523,
				"y": -1.9874072519,
				"z": 0.4979712425,
				"element": "H" 
			},
			{
				"x": -1.4138533141,
				"y": -1.7914019977,
				"z": -2.2881836066,
				"element": "H" 
			}
		],
		 "valence_orbital": [ 
			{
				"type": "occ",
				"energy": -0.28534,
				"method": "rhf"
			},
			{
				"type": "occ",
				"energy": -0.27352,
				"method": "rhf"
			},
			{
				"type": "occ",
				"energy": -0.26938,
				"method": "rhf"
			},
			{
				"type": "occ",
				"energy": -0.26492,
				"method": "rhf"
			},
			{
				"type": "occ",
				"energy": -0.26319,
				"method": "rhf"
			},
			{
				"type": "unocc",
				"energy": -0.01102,
				"method": "rhf"
			},
			{
				"type": "unocc",
				"energy": 0.00923,
				"method": "rhf"
			},
			{
				"type": "unocc",
				"energy": 0.04261,
				"method": "rhf"
			},
			{
				"type": "unocc",
				"energy": 0.06034,
				"method": "rhf"
			},
			{
				"type": "unocc",
				"energy": 0.06211,
				"method": "rhf"
			}
		],
		"cosmo_sigma_profile": { 
			"-0.025": 0.0,
			"-0.024": 0.0,
			"-0.023": 0.0,
			"-0.022": 0.0,
			"-0.021": 0.0,
			"-0.02": 0.0,
			"-0.019": 0.0,
			"-0.018": 0.0235002877445,
			"-0.017": 1.09124192769,
			"-0.016": 1.65230894443,
			"-0.015": 2.34993519053,
			"-0.014": 2.02572071181,
			"-0.013": 2.21083514345,
			"-0.012": 1.64179678618,
			"-0.011": 2.23691608191,
			"-0.01": 3.1056916884,
			"-0.009": 4.96181685138,
			"-0.008": 9.93986421571,
			"-0.007": 10.4259677345,
			"-0.006": 16.092261551,
			"-0.005": 15.7855257304,
			"-0.004": 17.4117209052,
			"-0.003": 17.4988962539,
			"-0.002": 17.0772851591,
			"-0.001": 17.9623284227,
			"0.0": 22.9008533547,
			"0.001": 18.5835191444,
			"0.002": 11.6792520691,
			"0.003": 8.26859634254,
			"0.004": 8.74693638175,
			"0.005": 7.41590405939,
			"0.006": 9.43154408013,
			"0.007": 9.75630058639,
			"0.008": 10.0987663047,
			"0.009": 10.1366198525,
			"0.01": 10.3913799732,
			"0.011": 12.5133994264,
			"0.012": 5.02024769547,
			"0.013": 1.29734732414,
			"0.014": 0.418661655981,
			"0.015": 0.0,
			"0.016": 0.0,
			"0.017": 0.0,
			"0.018": 0.0,
			"0.019": 0.0,
			"0.02": 0.0,
			"0.021": 0.0,
			"0.022": 0.0,
			"0.023": 0.0,
			"0.024": 0.0,
			"0.025": 0.0
		}
	}
}
