{
	 "smiles": "CC(CC(C)C(O)=O)C(O)=O", 
	 "Tm": 379.15, 
	 "num_atms": 23, 
	 "gaussian": { 
		 "optdone": 1, 
		 "sigma_profile": "yes", 
		 "theory": "DFT", 
		 "functional": "B3LYP", 
		 "basiset": "6-31G**", 
		 "properties": { 
			 "R2extent": 2368.9638, 
			 "electric_dipole_moment_norm": 3.50463048409, 
			 "electric_quadrupole_moment_norm": 19.2629964707, 
			 "total_energy": -574.904257717, 
			 "HOMO_LUMO_gap": 0.26676, 
			 "cosmo_polarized_energy": -20.03, 
			 "cosmo_cavitation_energy": 26.36, 
			 "cosmo_dispersion_energy": -18.26, 
			 "cosmo_repulsion_energy": 1.5, 
			 "cosmo_total_nonelectrostatic_energy": 9.6, 
			 "SMD_solvation_energy": 6.65 
		},
		"coords": [
			{
				"x": 0.5688780206,
				"y": -0.1476266231,
				"z": -2.3144942313,
				"element": "C" 
			},
			{
				"x": 1.6132914162,
				"y": 0.2270688171,
				"z": -1.2580399631,
				"element": "C" 
			},
			{
				"x": 1.1369609896,
				"y": 0.0373266336,
				"z": 0.2072076221,
				"element": "C" 
			},
			{
				"x": -0.0044523428,
				"y": 0.9692130359,
				"z": 0.6693909424,
				"element": "C" 
			},
			{
				"x": -0.1108420324,
				"y": 0.9771409805,
				"z": 2.2097737888,
				"element": "C" 
			},
			{
				"x": -1.3646681667,
				"y": 0.60918497,
				"z": 0.0918330628,
				"element": "C" 
			},
			{
				"x": -1.6832877363,
				"y": -0.6918884355,
				"z": 0.3030370262,
				"element": "O" 
			},
			{
				"x": -2.119615889,
				"y": 1.3802083004,
				"z": -0.4597302128,
				"element": "O" 
			},
			{
				"x": 2.8847117395,
				"y": -0.6060581282,
				"z": -1.4588344364,
				"element": "C" 
			},
			{
				"x": 4.0136062034,
				"y": -0.1118984796,
				"z": -0.8741273144,
				"element": "O" 
			},
			{
				"x": 2.9294271669,
				"y": -1.6526908386,
				"z": -2.0541732899,
				"element": "O" 
			},
			{
				"x": 0.995453649,
				"y": -0.0685967626,
				"z": -3.3176774625,
				"element": "H" 
			},
			{
				"x": 0.240175897,
				"y": -1.1809213281,
				"z": -2.1784071192,
				"element": "H" 
			},
			{
				"x": -0.2985607032,
				"y": 0.5140376164,
				"z": -2.2634672455,
				"element": "H" 
			},
			{
				"x": 1.8865418201,
				"y": 1.286179318,
				"z": -1.3881946656,
				"element": "H" 
			},
			{
				"x": 0.8391781876,
				"y": -1.0063022643,
				"z": 0.3557169086,
				"element": "H" 
			},
			{
				"x": 1.9878899472,
				"y": 0.2114457084,
				"z": 0.8778747543,
				"element": "H" 
			},
			{
				"x": 0.1908577429,
				"y": 1.9902319389,
				"z": 0.3240652505,
				"element": "H" 
			},
			{
				"x": -0.922776361,
				"y": 1.6290802314,
				"z": 2.5456119094,
				"element": "H" 
			},
			{
				"x": 0.8214878176,
				"y": 1.3440611623,
				"z": 2.6498627759,
				"element": "H" 
			},
			{
				"x": -0.2990421637,
				"y": -0.0301311533,
				"z": 2.5921514,
				"element": "H" 
			},
			{
				"x": -2.5719592552,
				"y": -0.8177582721,
				"z": -0.0702358841,
				"element": "H" 
			},
			{
				"x": 3.8335440528,
				"y": 0.7513935725,
				"z": -0.4762436162,
				"element": "H" 
			}
		],
		 "valence_orbital": [ 
			{
				"type": "occ",
				"energy": -0.34353,
				"method": "rhf"
			},
			{
				"type": "occ",
				"energy": -0.32564,
				"method": "rhf"
			},
			{
				"type": "occ",
				"energy": -0.31578,
				"method": "rhf"
			},
			{
				"type": "occ",
				"energy": -0.2797,
				"method": "rhf"
			},
			{
				"type": "occ",
				"energy": -0.26905,
				"method": "rhf"
			},
			{
				"type": "unocc",
				"energy": -0.00229,
				"method": "rhf"
			},
			{
				"type": "unocc",
				"energy": 0.00803,
				"method": "rhf"
			},
			{
				"type": "unocc",
				"energy": 0.04268,
				"method": "rhf"
			},
			{
				"type": "unocc",
				"energy": 0.06495,
				"method": "rhf"
			},
			{
				"type": "unocc",
				"energy": 0.10078,
				"method": "rhf"
			}
		],
		"cosmo_sigma_profile": { 
			"-0.025": 0.0,
			"-0.024": 0.0,
			"-0.023": 0.0,
			"-0.022": 0.0,
			"-0.021": 0.0,
			"-0.02": 0.0,
			"-0.019": 0.366294470234,
			"-0.018": 1.38718887057,
			"-0.017": 1.95652927839,
			"-0.016": 2.21065977056,
			"-0.015": 1.72497331592,
			"-0.014": 1.37952426456,
			"-0.013": 1.77890408625,
			"-0.012": 2.12251000356,
			"-0.011": 2.46397459901,
			"-0.01": 1.4349250701,
			"-0.009": 1.67826225293,
			"-0.008": 1.91224764354,
			"-0.007": 2.9964963947,
			"-0.006": 6.12420620243,
			"-0.005": 9.93004881678,
			"-0.004": 16.2910686314,
			"-0.003": 18.0712072577,
			"-0.002": 19.4748508664,
			"-0.001": 17.314971797,
			"0.0": 16.1766030366,
			"0.001": 9.73467053245,
			"0.002": 6.46463335638,
			"0.003": 4.83163991534,
			"0.004": 4.70184453444,
			"0.005": 5.79791715777,
			"0.006": 2.97918536897,
			"0.007": 4.11509155471,
			"0.008": 5.68895542959,
			"0.009": 5.54581384875,
			"0.01": 5.74202826733,
			"0.011": 8.55694359141,
			"0.012": 10.5485291821,
			"0.013": 3.21222664133,
			"0.014": 0.0946548059091,
			"0.015": 0.0,
			"0.016": 0.0,
			"0.017": 0.0,
			"0.018": 0.0,
			"0.019": 0.0,
			"0.02": 0.0,
			"0.021": 0.0,
			"0.022": 0.0,
			"0.023": 0.0,
			"0.024": 0.0,
			"0.025": 0.0
		}
	}
}
