{
	 "smiles": "CC1=CC(=CC(C)=C1)N1N=NN=C1S", 
	 "Tm": 438.15, 
	 "num_atms": 24, 
	 "gaussian": { 
		 "optdone": 1, 
		 "sigma_profile": "yes", 
		 "theory": "DFT", 
		 "functional": "B3LYP", 
		 "basiset": "6-31G**", 
		 "properties": { 
			 "R2extent": 6457.4331, 
			 "electric_dipole_moment_norm": 5.67318034792, 
			 "electric_quadrupole_moment_norm": 26.8025794443, 
			 "total_energy": -966.12779908, 
			 "HOMO_LUMO_gap": 0.21086, 
			 "cosmo_polarized_energy": -12.46, 
			 "cosmo_cavitation_energy": 30.12, 
			 "cosmo_dispersion_energy": -22.06, 
			 "cosmo_repulsion_energy": 1.7, 
			 "cosmo_total_nonelectrostatic_energy": 9.77, 
			 "SMD_solvation_energy": 3.15 
		},
		"coords": [
			{
				"x": -3.0114158207,
				"y": -1.0377253551,
				"z": -0.1890747204,
				"element": "C" 
			},
			{
				"x": -1.6170384547,
				"y": -0.9399536361,
				"z": 0.383927827,
				"element": "C" 
			},
			{
				"x": -1.1849664424,
				"y": -1.8486262097,
				"z": 1.3572834962,
				"element": "C" 
			},
			{
				"x": 0.1163429118,
				"y": -1.7608801762,
				"z": 1.8527726297,
				"element": "C" 
			},
			{
				"x": 1.0105508404,
				"y": -0.7973166679,
				"z": 1.3845347641,
				"element": "C" 
			},
			{
				"x": 0.5969274995,
				"y": 0.1099379732,
				"z": 0.405057533,
				"element": "C" 
			},
			{
				"x": 1.5382374052,
				"y": 1.1810454879,
				"z": -0.0933825757,
				"element": "C" 
			},
			{
				"x": -0.7166150926,
				"y": 0.0273554035,
				"z": -0.0759478789,
				"element": "C" 
			},
			{
				"x": 0.5627050361,
				"y": -2.6792930356,
				"z": 2.8500806072,
				"element": "N" 
			},
			{
				"x": 1.8062284379,
				"y": -3.2505192547,
				"z": 2.7823299276,
				"element": "N" 
			},
			{
				"x": 1.9265444463,
				"y": -3.9927827964,
				"z": 3.8266356137,
				"element": "N" 
			},
			{
				"x": 0.8119334925,
				"y": -3.9503846742,
				"z": 4.6046086243,
				"element": "N" 
			},
			{
				"x": -0.0218652456,
				"y": -3.1297364171,
				"z": 3.9887829751,
				"element": "C" 
			},
			{
				"x": -1.6099834164,
				"y": -2.6524198808,
				"z": 4.5758464965,
				"element": "S" 
			},
			{
				"x": -3.0399731143,
				"y": -1.7322111231,
				"z": -1.037690662,
				"element": "H" 
			},
			{
				"x": -3.7257566583,
				"y": -1.4027872728,
				"z": 0.5545667546,
				"element": "H" 
			},
			{
				"x": -3.3622571047,
				"y": -0.0668593071,
				"z": -0.5501429591,
				"element": "H" 
			},
			{
				"x": -1.8504875237,
				"y": -2.6326471278,
				"z": 1.7046251862,
				"element": "H" 
			},
			{
				"x": 2.0174977283,
				"y": -0.7669250432,
				"z": 1.7860170008,
				"element": "H" 
			},
			{
				"x": 2.5780073334,
				"y": 0.8431734989,
				"z": -0.0653836573,
				"element": "H" 
			},
			{
				"x": 1.301818971,
				"y": 1.4730457138,
				"z": -1.1205516146,
				"element": "H" 
			},
			{
				"x": 1.4707461279,
				"y": 2.0832236682,
				"z": 0.5270036451,
				"element": "H" 
			},
			{
				"x": -1.0452045271,
				"y": 0.7340931901,
				"z": -0.8346870056,
				"element": "H" 
			},
			{
				"x": -1.4509768295,
				"y": -3.3285069578,
				"z": 5.7302879925,
				"element": "H" 
			}
		],
		 "valence_orbital": [ 
			{
				"type": "occ",
				"energy": -0.29546,
				"method": "rhf"
			},
			{
				"type": "occ",
				"energy": -0.28783,
				"method": "rhf"
			},
			{
				"type": "occ",
				"energy": -0.2625,
				"method": "rhf"
			},
			{
				"type": "occ",
				"energy": -0.25746,
				"method": "rhf"
			},
			{
				"type": "occ",
				"energy": -0.2514,
				"method": "rhf"
			},
			{
				"type": "unocc",
				"energy": -0.04054,
				"method": "rhf"
			},
			{
				"type": "unocc",
				"energy": -0.02436,
				"method": "rhf"
			},
			{
				"type": "unocc",
				"energy": 0.00163,
				"method": "rhf"
			},
			{
				"type": "unocc",
				"energy": 0.00412,
				"method": "rhf"
			},
			{
				"type": "unocc",
				"energy": 0.0238,
				"method": "rhf"
			}
		],
		"cosmo_sigma_profile": { 
			"-0.025": 0.0,
			"-0.024": 0.0,
			"-0.023": 0.0,
			"-0.022": 0.0,
			"-0.021": 0.0,
			"-0.02": 0.0,
			"-0.019": 0.0,
			"-0.018": 0.0,
			"-0.017": 0.0,
			"-0.016": 0.0,
			"-0.015": 0.0,
			"-0.014": 0.0383256252265,
			"-0.013": 1.4314647767,
			"-0.012": 1.34072237208,
			"-0.011": 1.43098310443,
			"-0.01": 1.08908033028,
			"-0.009": 1.4195287071,
			"-0.008": 1.22550192731,
			"-0.007": 3.10632511936,
			"-0.006": 6.66500315874,
			"-0.005": 16.3052064994,
			"-0.004": 24.396264146,
			"-0.003": 20.498858142,
			"-0.002": 22.0758347603,
			"-0.001": 25.7610469664,
			"0.0": 24.4797745963,
			"0.001": 15.5151320896,
			"0.002": 12.9681039823,
			"0.003": 15.4505273383,
			"0.004": 10.8967937256,
			"0.005": 5.47278419319,
			"0.006": 2.61774598845,
			"0.007": 4.90698344984,
			"0.008": 4.80666413463,
			"0.009": 4.73325136729,
			"0.01": 4.90126622434,
			"0.011": 3.58777967213,
			"0.012": 2.68660694392,
			"0.013": 2.08200264521,
			"0.014": 1.02214781637,
			"0.015": 0.020641411282,
			"0.016": 0.0,
			"0.017": 0.0,
			"0.018": 0.0,
			"0.019": 0.0,
			"0.02": 0.0,
			"0.021": 0.0,
			"0.022": 0.0,
			"0.023": 0.0,
			"0.024": 0.0,
			"0.025": 0.0
		}
	}
}
