{
	 "smiles": "O=C(CC#N)OCC1=CC=CC=C1", 
	 "Tm": 301.15, 
	 "num_atms": 22, 
	 "gaussian": { 
		 "optdone": 1, 
		 "sigma_profile": "yes", 
		 "theory": "DFT", 
		 "functional": "B3LYP", 
		 "basiset": "6-31G**", 
		 "properties": { 
			 "R2extent": 3299.5422, 
			 "electric_dipole_moment_norm": 5.45721205928, 
			 "electric_quadrupole_moment_norm": 18.985834313, 
			 "total_energy": -591.673548329, 
			 "HOMO_LUMO_gap": 0.23625, 
			 "cosmo_polarized_energy": -14.48, 
			 "cosmo_cavitation_energy": 27.99, 
			 "cosmo_dispersion_energy": -19.48, 
			 "cosmo_repulsion_energy": 1.57, 
			 "cosmo_total_nonelectrostatic_energy": 10.09, 
			 "SMD_solvation_energy": 7.26 
		},
		"coords": [
			{
				"x": -1.3943087037,
				"y": 0.2692631719,
				"z": -0.6677528986,
				"element": "O" 
			},
			{
				"x": -0.8033408389,
				"y": 1.3223133207,
				"z": -0.6505674351,
				"element": "C" 
			},
			{
				"x": -0.5434049098,
				"y": 2.2114873962,
				"z": -1.8698168405,
				"element": "C" 
			},
			{
				"x": -1.1785410351,
				"y": 1.7189550149,
				"z": -3.0893598721,
				"element": "C" 
			},
			{
				"x": -1.6698005257,
				"y": 1.3589165253,
				"z": -4.075764353,
				"element": "N" 
			},
			{
				"x": -0.262918957,
				"y": 1.9072224057,
				"z": 0.4316688764,
				"element": "O" 
			},
			{
				"x": -0.3775412725,
				"y": 1.1799798341,
				"z": 1.6971801517,
				"element": "C" 
			},
			{
				"x": 0.8018479669,
				"y": 0.2703331716,
				"z": 1.9235135902,
				"element": "C" 
			},
			{
				"x": 0.7772150159,
				"y": -1.0556126355,
				"z": 1.4685171675,
				"element": "C" 
			},
			{
				"x": 1.8774873996,
				"y": -1.8892106348,
				"z": 1.6700854996,
				"element": "C" 
			},
			{
				"x": 3.0115997153,
				"y": -1.407452444,
				"z": 2.3276609773,
				"element": "C" 
			},
			{
				"x": 3.0435772747,
				"y": -0.0882277592,
				"z": 2.7842944038,
				"element": "C" 
			},
			{
				"x": 1.9431717435,
				"y": 0.7450736202,
				"z": 2.5823913214,
				"element": "C" 
			},
			{
				"x": 0.5404524549,
				"y": 2.2824089376,
				"z": -2.0188962968,
				"element": "H" 
			},
			{
				"x": -0.8908361192,
				"y": 3.226980163,
				"z": -1.6503668446,
				"element": "H" 
			},
			{
				"x": -0.4205454303,
				"y": 1.9708633068,
				"z": 2.4480087198,
				"element": "H" 
			},
			{
				"x": -1.3181076076,
				"y": 0.626990481,
				"z": 1.6873743344,
				"element": "H" 
			},
			{
				"x": -0.1029689994,
				"y": -1.4231733136,
				"z": 0.9499710415,
				"element": "H" 
			},
			{
				"x": 1.8483857347,
				"y": -2.9155955406,
				"z": 1.3160271214,
				"element": "H" 
			},
			{
				"x": 3.8663070355,
				"y": -2.0587094881,
				"z": 2.4866262395,
				"element": "H" 
			},
			{
				"x": 3.921901826,
				"y": 0.2895183534,
				"z": 3.2996610894,
				"element": "H" 
			},
			{
				"x": 1.9674682324,
				"y": 1.7711761134,
				"z": 2.9414440066,
				"element": "H" 
			}
		],
		 "valence_orbital": [ 
			{
				"type": "occ",
				"energy": -0.32986,
				"method": "rhf"
			},
			{
				"type": "occ",
				"energy": -0.31723,
				"method": "rhf"
			},
			{
				"type": "occ",
				"energy": -0.29628,
				"method": "rhf"
			},
			{
				"type": "occ",
				"energy": -0.26083,
				"method": "rhf"
			},
			{
				"type": "occ",
				"energy": -0.25947,
				"method": "rhf"
			},
			{
				"type": "unocc",
				"energy": -0.02322,
				"method": "rhf"
			},
			{
				"type": "unocc",
				"energy": -0.0121,
				"method": "rhf"
			},
			{
				"type": "unocc",
				"energy": -0.00856,
				"method": "rhf"
			},
			{
				"type": "unocc",
				"energy": 0.02778,
				"method": "rhf"
			},
			{
				"type": "unocc",
				"energy": 0.03519,
				"method": "rhf"
			}
		],
		"cosmo_sigma_profile": { 
			"-0.025": 0.0,
			"-0.024": 0.0,
			"-0.023": 0.0,
			"-0.022": 0.0,
			"-0.021": 0.0,
			"-0.02": 0.0,
			"-0.019": 0.0,
			"-0.018": 0.0,
			"-0.017": 0.0,
			"-0.016": 0.0,
			"-0.015": 0.0,
			"-0.014": 0.0,
			"-0.013": 0.0,
			"-0.012": 0.101745757355,
			"-0.011": 3.62499969172,
			"-0.01": 5.63893402832,
			"-0.009": 3.94009018834,
			"-0.008": 4.54613707061,
			"-0.007": 8.1930108691,
			"-0.006": 13.0170058181,
			"-0.005": 16.2637592329,
			"-0.004": 18.3396727452,
			"-0.003": 14.7735613801,
			"-0.002": 13.1039492132,
			"-0.001": 9.64636532013,
			"0.0": 10.4224513429,
			"0.001": 10.5173756055,
			"0.002": 12.1289023399,
			"0.003": 13.6162450907,
			"0.004": 12.6178124439,
			"0.005": 15.4568097723,
			"0.006": 7.66365487698,
			"0.007": 5.4312732397,
			"0.008": 6.54776969181,
			"0.009": 5.16669454012,
			"0.01": 5.68265049661,
			"0.011": 5.00739231888,
			"0.012": 2.3675727083,
			"0.013": 0.952938660547,
			"0.014": 0.0,
			"0.015": 0.0,
			"0.016": 0.0,
			"0.017": 0.0,
			"0.018": 0.0,
			"0.019": 0.0,
			"0.02": 0.0,
			"0.021": 0.0,
			"0.022": 0.0,
			"0.023": 0.0,
			"0.024": 0.0,
			"0.025": 0.0
		}
	}
}
