{
	 "smiles": "OC(=O)CNC(=O)C1=C(Cl)C=CC=C1", 
	 "Tm": 456.15, 
	 "num_atms": 22, 
	 "gaussian": { 
		 "optdone": 1, 
		 "sigma_profile": "yes", 
		 "theory": "DFT", 
		 "functional": "B3LYP", 
		 "basiset": "6-31G**", 
		 "properties": { 
			 "R2extent": 4102.2625, 
			 "electric_dipole_moment_norm": 5.07393385156, 
			 "electric_quadrupole_moment_norm": 20.8984667344, 
			 "total_energy": -1088.41415115, 
			 "HOMO_LUMO_gap": 0.21297, 
			 "cosmo_polarized_energy": -16.81, 
			 "cosmo_cavitation_energy": 28.94, 
			 "cosmo_dispersion_energy": -20.71, 
			 "cosmo_repulsion_energy": 1.66, 
			 "cosmo_total_nonelectrostatic_energy": 9.9, 
			 "SMD_solvation_energy": 6.02 
		},
		"coords": [
			{
				"x": -0.5132923851,
				"y": 2.0411766116,
				"z": -1.9904159344,
				"element": "O" 
			},
			{
				"x": -0.9555271005,
				"y": 0.7760830429,
				"z": -2.1272169164,
				"element": "C" 
			},
			{
				"x": -1.6517277288,
				"y": 0.4013579269,
				"z": -3.0441934894,
				"element": "O" 
			},
			{
				"x": -0.4479015449,
				"y": -0.1045863222,
				"z": -1.0017603003,
				"element": "C" 
			},
			{
				"x": -1.0063913991,
				"y": -1.4288046494,
				"z": -1.147644027,
				"element": "N" 
			},
			{
				"x": -1.1424023689,
				"y": -2.3905222895,
				"z": -0.1875958168,
				"element": "C" 
			},
			{
				"x": -1.802541579,
				"y": -3.40454849,
				"z": -0.372446101,
				"element": "O" 
			},
			{
				"x": -0.4929814248,
				"y": -2.135114411,
				"z": 1.1554904446,
				"element": "C" 
			},
			{
				"x": 0.8880755074,
				"y": -2.0678138573,
				"z": 1.3793664537,
				"element": "C" 
			},
			{
				"x": 2.0282115817,
				"y": -2.2516251692,
				"z": 0.0471157797,
				"element": "Cl" 
			},
			{
				"x": 1.4107975685,
				"y": -1.8976022532,
				"z": 2.6625373022,
				"element": "C" 
			},
			{
				"x": 0.5440786268,
				"y": -1.7903131763,
				"z": 3.7485829423,
				"element": "C" 
			},
			{
				"x": -0.8360981295,
				"y": -1.8732844208,
				"z": 3.5535299071,
				"element": "C" 
			},
			{
				"x": -1.3424176233,
				"y": -2.0578353186,
				"z": 2.2699927533,
				"element": "C" 
			},
			{
				"x": -0.8566373134,
				"y": 2.5412094953,
				"z": -2.7501182943,
				"element": "H" 
			},
			{
				"x": -0.7244687747,
				"y": 0.3565912019,
				"z": -0.0465844483,
				"element": "H" 
			},
			{
				"x": 0.6497941753,
				"y": -0.0993912364,
				"z": -1.0476798275,
				"element": "H" 
			},
			{
				"x": -1.5030548407,
				"y": -1.6060337958,
				"z": -2.0143758845,
				"element": "H" 
			},
			{
				"x": 2.4856197549,
				"y": -1.8600308359,
				"z": 2.8010481918,
				"element": "H" 
			},
			{
				"x": 0.9512246685,
				"y": -1.6540856825,
				"z": 4.7459044724,
				"element": "H" 
			},
			{
				"x": -1.5138504366,
				"y": -1.8054593107,
				"z": 4.3987305519,
				"element": "H" 
			},
			{
				"x": -2.4115092338,
				"y": -2.1525670597,
				"z": 2.107832241,
				"element": "H" 
			}
		],
		 "valence_orbital": [ 
			{
				"type": "occ",
				"energy": -0.30344,
				"method": "rhf"
			},
			{
				"type": "occ",
				"energy": -0.27798,
				"method": "rhf"
			},
			{
				"type": "occ",
				"energy": -0.25959,
				"method": "rhf"
			},
			{
				"type": "occ",
				"energy": -0.25635,
				"method": "rhf"
			},
			{
				"type": "occ",
				"energy": -0.24578,
				"method": "rhf"
			},
			{
				"type": "unocc",
				"energy": -0.03281,
				"method": "rhf"
			},
			{
				"type": "unocc",
				"energy": -0.02255,
				"method": "rhf"
			},
			{
				"type": "unocc",
				"energy": -0.00996,
				"method": "rhf"
			},
			{
				"type": "unocc",
				"energy": 0.01885,
				"method": "rhf"
			},
			{
				"type": "unocc",
				"energy": 0.03157,
				"method": "rhf"
			}
		],
		"cosmo_sigma_profile": { 
			"-0.025": 0.0,
			"-0.024": 0.0,
			"-0.023": 0.0,
			"-0.022": 0.0,
			"-0.021": 0.0,
			"-0.02": 0.0,
			"-0.019": 0.613577953221,
			"-0.018": 1.03937688392,
			"-0.017": 0.87407332698,
			"-0.016": 0.768708750861,
			"-0.015": 0.623017343327,
			"-0.014": 1.06253014091,
			"-0.013": 0.983418767509,
			"-0.012": 0.471884701253,
			"-0.011": 0.708418489231,
			"-0.01": 1.29897948546,
			"-0.009": 1.43999749669,
			"-0.008": 4.08956093646,
			"-0.007": 11.8780587518,
			"-0.006": 14.9617672957,
			"-0.005": 16.3613193733,
			"-0.004": 13.0894752255,
			"-0.003": 14.1681228103,
			"-0.002": 12.1388532298,
			"-0.001": 12.9853657817,
			"0.0": 15.9038957064,
			"0.001": 16.5268968938,
			"0.002": 16.3145754663,
			"0.003": 20.518463161,
			"0.004": 13.3571310414,
			"0.005": 4.90002419455,
			"0.006": 2.64157738807,
			"0.007": 4.93971354708,
			"0.008": 4.19109340487,
			"0.009": 3.63405759403,
			"0.01": 5.04294288585,
			"0.011": 4.09594587194,
			"0.012": 2.96845825711,
			"0.013": 5.57973615221,
			"0.014": 2.82943166675,
			"0.015": 0.0736530587314,
			"0.016": 0.0,
			"0.017": 0.0,
			"0.018": 0.0,
			"0.019": 0.0,
			"0.02": 0.0,
			"0.021": 0.0,
			"0.022": 0.0,
			"0.023": 0.0,
			"0.024": 0.0,
			"0.0": 0.0
		}
	}
}
