{
	 "smiles": "CC1=C(Cl)C=C(N)C(N)=C1", 
	 "Tm": 411.15, 
	 "num_atms": 19, 
	 "gaussian": { 
		 "optdone": 1, 
		 "sigma_profile": "yes", 
		 "theory": "DFT", 
		 "functional": "B3LYP", 
		 "basiset": "6-31G**", 
		 "properties": { 
			 "R2extent": 2147.2411, 
			 "electric_dipole_moment_norm": 3.6338999257, 
			 "electric_quadrupole_moment_norm": 10.7370505624, 
			 "total_energy": -841.873945863, 
			 "HOMO_LUMO_gap": 0.19357, 
			 "cosmo_polarized_energy": -11.57, 
			 "cosmo_cavitation_energy": 23.93, 
			 "cosmo_dispersion_energy": -18.0, 
			 "cosmo_repulsion_energy": 1.47, 
			 "cosmo_total_nonelectrostatic_energy": 7.39, 
			 "SMD_solvation_energy": 3.87 
		},
		"coords": [
			{
				"x": -1.2385710045,
				"y": 1.1956800809,
				"z": 3.0291162636,
				"element": "C" 
			},
			{
				"x": -0.7481677864,
				"y": 0.8301986432,
				"z": 1.65100706,
				"element": "C" 
			},
			{
				"x": -0.3640556722,
				"y": 1.7941347118,
				"z": 0.7122076625,
				"element": "C" 
			},
			{
				"x": -0.4463495915,
				"y": 3.5128958384,
				"z": 1.1186843132,
				"element": "Cl" 
			},
			{
				"x": 0.0694813645,
				"y": 1.4404805893,
				"z": -0.5651896143,
				"element": "C" 
			},
			{
				"x": 0.1600122475,
				"y": 0.1011981748,
				"z": -0.9401948505,
				"element": "C" 
			},
			{
				"x": 0.6134828585,
				"y": -0.3089467572,
				"z": -2.2270390308,
				"element": "N" 
			},
			{
				"x": -0.1785935875,
				"y": -0.9014274924,
				"z": -0.0009553638,
				"element": "C" 
			},
			{
				"x": -0.0032073199,
				"y": -2.2381864736,
				"z": -0.326345812,
				"element": "N" 
			},
			{
				"x": -0.6417148335,
				"y": -0.5108439099,
				"z": 1.2619052327,
				"element": "C" 
			},
			{
				"x": -1.4803035484,
				"y": 0.298749535,
				"z": 3.6051810076,
				"element": "H" 
			},
			{
				"x": -0.4848429819,
				"y": 1.7651496866,
				"z": 3.5836557423,
				"element": "H" 
			},
			{
				"x": -2.1351642054,
				"y": 1.8233933176,
				"z": 2.9814872866,
				"element": "H" 
			},
			{
				"x": 0.3237191451,
				"y": 2.218579073,
				"z": -1.2786733507,
				"element": "H" 
			},
			{
				"x": 0.9797920897,
				"y": 0.4714154685,
				"z": -2.7611864508,
				"element": "H" 
			},
			{
				"x": -0.1351345279,
				"y": -0.7343066455,
				"z": -2.7707446564,
				"element": "H" 
			},
			{
				"x": 0.314900215,
				"y": -2.4446207265,
				"z": -1.2590861101,
				"element": "H" 
			},
			{
				"x": -0.5987298182,
				"y": -2.92434007,
				"z": 0.1070292113,
				"element": "H" 
			},
			{
				"x": -0.9002530429,
				"y": -1.2837030441,
				"z": 1.9820414597,
				"element": "H" 
			}
		],
		 "valence_orbital": [ 
			{
				"type": "occ",
				"energy": -0.30225,
				"method": "rhf"
			},
			{
				"type": "occ",
				"energy": -0.2949,
				"method": "rhf"
			},
			{
				"type": "occ",
				"energy": -0.27591,
				"method": "rhf"
			},
			{
				"type": "occ",
				"energy": -0.22516,
				"method": "rhf"
			},
			{
				"type": "occ",
				"energy": -0.18589,
				"method": "rhf"
			},
			{
				"type": "unocc",
				"energy": 0.00768,
				"method": "rhf"
			},
			{
				"type": "unocc",
				"energy": 0.01789,
				"method": "rhf"
			},
			{
				"type": "unocc",
				"energy": 0.04474,
				"method": "rhf"
			},
			{
				"type": "unocc",
				"energy": 0.06825,
				"method": "rhf"
			},
			{
				"type": "unocc",
				"energy": 0.10016,
				"method": "rhf"
			}
		],
		"cosmo_sigma_profile": { 
			"-0.025": 0.0,
			"-0.024": 0.0,
			"-0.023": 0.0,
			"-0.022": 0.0,
			"-0.021": 0.0,
			"-0.02": 0.0,
			"-0.019": 0.0,
			"-0.018": 0.0,
			"-0.017": 0.0,
			"-0.016": 0.0,
			"-0.015": 0.0,
			"-0.014": 0.0,
			"-0.013": 0.432000366417,
			"-0.012": 1.96059500675,
			"-0.011": 5.00544645156,
			"-0.01": 5.52358329464,
			"-0.009": 5.64233803166,
			"-0.008": 5.77422754759,
			"-0.007": 6.31352172749,
			"-0.006": 4.65136143965,
			"-0.005": 7.16078733906,
			"-0.004": 8.90390757769,
			"-0.003": 9.35887747295,
			"-0.002": 9.41485401958,
			"-0.001": 11.2028007808,
			"0.0": 14.3177038659,
			"0.001": 11.1572605424,
			"0.002": 11.1071285252,
			"0.003": 12.442980545,
			"0.004": 13.4816487076,
			"0.005": 18.3336695734,
			"0.006": 15.4110727396,
			"0.007": 3.71198831738,
			"0.008": 2.12108443295,
			"0.009": 1.04454146135,
			"0.01": 1.91129609963,
			"0.011": 1.40468714671,
			"0.012": 1.14266105542,
			"0.013": 0.784156683133,
			"0.014": 0.587810451537,
			"0.015": 0.414296616097,
			"0.016": 0.0,
			"0.017": 0.0,
			"0.018": 0.0,
			"0.019": 0.0,
			"0.02": 0.0,
			"0.021": 0.0,
			"0.022": 0.0,
			"0.023": 0.0,
			"0.024": 0.0,
			"0.025": 0.0
		}
	}
}
