{
	 "smiles": "CCCCC1=NC2=C(N1)C=CC(NC(C)=O)=C2", 
	 "Tm": 466.15, 
	 "num_atms": 34, 
	 "gaussian": { 
		 "optdone": 1, 
		 "sigma_profile": "yes", 
		 "theory": "DFT", 
		 "functional": "B3LYP", 
		 "basiset": "6-31G**", 
		 "properties": { 
			 "R2extent": 7035.7469, 
			 "electric_dipole_moment_norm": 6.75163651051, 
			 "electric_quadrupole_moment_norm": 26.6181051012, 
			 "total_energy": -745.155182298, 
			 "HOMO_LUMO_gap": 0.19062, 
			 "cosmo_polarized_energy": -19.7, 
			 "cosmo_cavitation_energy": 37.32, 
			 "cosmo_dispersion_energy": -26.7, 
			 "cosmo_repulsion_energy": 2.12, 
			 "cosmo_total_nonelectrostatic_energy": 12.74, 
			 "SMD_solvation_energy": 5.01 
		},
		"coords": [
			{
				"x": -2.7496172046,
				"y": 1.2636790739,
				"z": 3.9234839092,
				"element": "C" 
			},
			{
				"x": -1.3558406073,
				"y": 1.1950281164,
				"z": 3.2918081664,
				"element": "C" 
			},
			{
				"x": -1.0039306131,
				"y": 2.4577340904,
				"z": 2.4956230641,
				"element": "C" 
			},
			{
				"x": 0.3962190759,
				"y": 2.4260081454,
				"z": 1.8625714095,
				"element": "C" 
			},
			{
				"x": 0.529956791,
				"y": 1.4289051788,
				"z": 0.747589681,
				"element": "C" 
			},
			{
				"x": -0.4403993066,
				"y": 1.0188051335,
				"z": -0.035919764,
				"element": "N" 
			},
			{
				"x": 0.1570228025,
				"y": 0.1477926283,
				"z": -0.9360016545,
				"element": "C" 
			},
			{
				"x": 1.5438672739,
				"y": 0.0398805564,
				"z": -0.6720049609,
				"element": "C" 
			},
			{
				"x": 1.7509282536,
				"y": 0.8731859375,
				"z": 0.4144560909,
				"element": "N" 
			},
			{
				"x": 2.3816163387,
				"y": -0.7802487359,
				"z": -1.4261593356,
				"element": "C" 
			},
			{
				"x": 1.7973592939,
				"y": -1.5045220135,
				"z": -2.4620508072,
				"element": "C" 
			},
			{
				"x": 0.4208695068,
				"y": -1.3878545045,
				"z": -2.7634208659,
				"element": "C" 
			},
			{
				"x": -0.1544781623,
				"y": -2.1546493627,
				"z": -3.8129620621,
				"element": "N" 
			},
			{
				"x": 0.2026650284,
				"y": -2.2654549602,
				"z": -5.143560428,
				"element": "C" 
			},
			{
				"x": 1.4178195569,
				"y": -1.4932689188,
				"z": -5.6270483748,
				"element": "C" 
			},
			{
				"x": -0.458258556,
				"y": -2.9688104229,
				"z": -5.8955970813,
				"element": "O" 
			},
			{
				"x": -0.4083003144,
				"y": -0.5633824424,
				"z": -1.9985436905,
				"element": "C" 
			},
			{
				"x": -2.8342554374,
				"y": 2.1120427454,
				"z": 4.6126909695,
				"element": "H" 
			},
			{
				"x": -3.5235991574,
				"y": 1.3816003554,
				"z": 3.1570031492,
				"element": "H" 
			},
			{
				"x": -2.9770551602,
				"y": 0.3535006227,
				"z": 4.4878067698,
				"element": "H" 
			},
			{
				"x": -1.2981490836,
				"y": 0.3255395939,
				"z": 2.6269292155,
				"element": "H" 
			},
			{
				"x": -0.6038903858,
				"y": 1.0395913852,
				"z": 4.0785987273,
				"element": "H" 
			},
			{
				"x": -1.0630431993,
				"y": 3.3339916683,
				"z": 3.1537742283,
				"element": "H" 
			},
			{
				"x": -1.7415389003,
				"y": 2.6044391283,
				"z": 1.6992565067,
				"element": "H" 
			},
			{
				"x": 0.6385934668,
				"y": 3.4216679216,
				"z": 1.4648601711,
				"element": "H" 
			},
			{
				"x": 1.154106813,
				"y": 2.2129006257,
				"z": 2.6289250259,
				"element": "H" 
			},
			{
				"x": 2.6247606087,
				"y": 1.0388634225,
				"z": 0.8890956331,
				"element": "H" 
			},
			{
				"x": 3.4415290943,
				"y": -0.8772566823,
				"z": -1.2115646891,
				"element": "H" 
			},
			{
				"x": 2.4041424934,
				"y": -2.1903653916,
				"z": -3.0423112691,
				"element": "H" 
			},
			{
				"x": -1.0337824466,
				"y": -2.6181254571,
				"z": -3.6190195891,
				"element": "H" 
			},
			{
				"x": 1.5698175165,
				"y": -0.5535617006,
				"z": -5.0920321075,
				"element": "H" 
			},
			{
				"x": 2.3216296384,
				"y": -2.1006248453,
				"z": -5.5100764969,
				"element": "H" 
			},
			{
				"x": 1.2792568504,
				"y": -1.3039657623,
				"z": -6.6922318614,
				"element": "H" 
			},
			{
				"x": -1.4649218682,
				"y": -0.4670651292,
				"z": -2.2267676795,
				"element": "H" 
			}
		],
		 "valence_orbital": [ 
			{
				"type": "occ",
				"energy": -0.2742,
				"method": "rhf"
			},
			{
				"type": "occ",
				"energy": -0.27178,
				"method": "rhf"
			},
			{
				"type": "occ",
				"energy": -0.24168,
				"method": "rhf"
			},
			{
				"type": "occ",
				"energy": -0.2297,
				"method": "rhf"
			},
			{
				"type": "occ",
				"energy": -0.21414,
				"method": "rhf"
			},
			{
				"type": "unocc",
				"energy": -0.02352,
				"method": "rhf"
			},
			{
				"type": "unocc",
				"energy": 0.00583,
				"method": "rhf"
			},
			{
				"type": "unocc",
				"energy": 0.04295,
				"method": "rhf"
			},
			{
				"type": "unocc",
				"energy": 0.04799,
				"method": "rhf"
			},
			{
				"type": "unocc",
				"energy": 0.06633,
				"method": "rhf"
			}
		],
		"cosmo_sigma_profile": { 
			"-0.025": 0.0,
			"-0.024": 0.0,
			"-0.023": 0.0,
			"-0.022": 0.0,
			"-0.021": 0.0,
			"-0.02": 0.0,
			"-0.019": 0.0,
			"-0.018": 0.0,
			"-0.017": 0.0791760558346,
			"-0.016": 1.16467157387,
			"-0.015": 1.7072627534,
			"-0.014": 1.33880341517,
			"-0.013": 2.5335963487,
			"-0.012": 1.57162006343,
			"-0.011": 2.44265574308,
			"-0.01": 2.29576652066,
			"-0.009": 3.08911825289,
			"-0.008": 2.05730722249,
			"-0.007": 6.6369184171,
			"-0.006": 10.7367847765,
			"-0.005": 12.7421860762,
			"-0.004": 15.3019813583,
			"-0.003": 20.6034974459,
			"-0.002": 29.7347355805,
			"-0.001": 33.4893429111,
			"0.0": 27.5792704286,
			"0.001": 27.058264591,
			"0.002": 19.2695866119,
			"0.003": 13.4118750391,
			"0.004": 14.1163556434,
			"0.005": 8.91960919332,
			"0.006": 3.90489897276,
			"0.007": 2.78995668603,
			"0.008": 3.67029015395,
			"0.009": 2.36297465936,
			"0.01": 2.51449462809,
			"0.011": 2.68592052131,
			"0.012": 2.52145036457,
			"0.013": 4.78197615382,
			"0.014": 6.91583347855,
			"0.015": 2.15860034969,
			"0.016": 1.06699554409,
			"0.017": 0.266080079499,
			"0.018": 0.0,
			"0.019": 0.0,
			"0.02": 0.0,
			"0.021": 0.0,
			"0.022": 0.0,
			"0.023": 0.0,
			"0.024": 0.0,
			"0.025": 0.0
		}
	}
}
