{
	 "smiles": "NC1=C2C=NC=CC2=C(OC2=CC(F)=CC=C2)C=C1", 
	 "Tm": 411.15, 
	 "num_atms": 30, 
	 "gaussian": { 
		 "optdone": 1, 
		 "sigma_profile": "yes", 
		 "theory": "DFT", 
		 "functional": "B3LYP", 
		 "basiset": "6-31G**", 
		 "properties": { 
			 "R2extent": 5811.5684, 
			 "electric_dipole_moment_norm": 2.67429713009, 
			 "electric_quadrupole_moment_norm": 24.4924159507, 
			 "total_energy": -862.781617111, 
			 "HOMO_LUMO_gap": 0.15466, 
			 "cosmo_polarized_energy": -13.56, 
			 "cosmo_cavitation_energy": 35.04, 
			 "cosmo_dispersion_energy": -24.98, 
			 "cosmo_repulsion_energy": 1.88, 
			 "cosmo_total_nonelectrostatic_energy": 11.94, 
			 "SMD_solvation_energy": 4.89 
		},
		"coords": [
			{
				"x": 1.3555237665,
				"y": 0.896077945,
				"z": 3.3911695613,
				"element": "N" 
			},
			{
				"x": 0.714115447,
				"y": 0.7610986474,
				"z": 2.1627834548,
				"element": "C" 
			},
			{
				"x": 1.4463186975,
				"y": 0.3238325567,
				"z": 1.0069598036,
				"element": "C" 
			},
			{
				"x": 2.8321940237,
				"y": 0.0129724225,
				"z": 1.0378567374,
				"element": "C" 
			},
			{
				"x": 3.5343233143,
				"y": -0.4122781717,
				"z": 0.005500191,
				"element": "N" 
			},
			{
				"x": 2.8783064716,
				"y": -0.5527067961,
				"z": -1.1775374424,
				"element": "C" 
			},
			{
				"x": 1.5466504407,
				"y": -0.2587683627,
				"z": -1.3563810198,
				"element": "C" 
			},
			{
				"x": 0.7817665923,
				"y": 0.1985712554,
				"z": -0.2539558803,
				"element": "C" 
			},
			{
				"x": -0.5912347573,
				"y": 0.5488062685,
				"z": -0.3470728975,
				"element": "C" 
			},
			{
				"x": -1.2071846708,
				"y": 0.5055306027,
				"z": -1.5917872049,
				"element": "O" 
			},
			{
				"x": -2.0543744218,
				"y": -0.5338000186,
				"z": -1.9063663935,
				"element": "C" 
			},
			{
				"x": -2.2487726617,
				"y": -1.6467379106,
				"z": -1.0846020649,
				"element": "C" 
			},
			{
				"x": -3.1214711712,
				"y": -2.6367654697,
				"z": -1.5251098239,
				"element": "C" 
			},
			{
				"x": -3.3102650938,
				"y": -3.712969489,
				"z": -0.7317461659,
				"element": "F" 
			},
			{
				"x": -3.7989535972,
				"y": -2.5656615968,
				"z": -2.7351707618,
				"element": "C" 
			},
			{
				"x": -3.5826102107,
				"y": -1.4411798925,
				"z": -3.5366302256,
				"element": "C" 
			},
			{
				"x": -2.7186912411,
				"y": -0.4261132932,
				"z": -3.1345149952,
				"element": "C" 
			},
			{
				"x": -1.267051147,
				"y": 1.0062093227,
				"z": 0.7613292345,
				"element": "C" 
			},
			{
				"x": -0.6235910239,
				"y": 1.1012304018,
				"z": 2.011423377,
				"element": "C" 
			},
			{
				"x": 0.7340307876,
				"y": 1.0213901533,
				"z": 4.1782403845,
				"element": "H" 
			},
			{
				"x": 2.0792513789,
				"y": 0.2205445722,
				"z": 3.591338208,
				"element": "H" 
			},
			{
				"x": 3.393335316,
				"y": 0.1482621549,
				"z": 1.961784012,
				"element": "H" 
			},
			{
				"x": 3.4810600303,
				"y": -0.9105403766,
				"z": -2.0090987611,
				"element": "H" 
			},
			{
				"x": 1.0774829299,
				"y": -0.3633774357,
				"z": -2.3278820762,
				"element": "H" 
			},
			{
				"x": -1.7457448938,
				"y": -1.7531395602,
				"z": -0.132154539,
				"element": "H" 
			},
			{
				"x": -4.4686222108,
				"y": -3.3655068816,
				"z": -3.0289398195,
				"element": "H" 
			},
			{
				"x": -4.0982312432,
				"y": -1.3563183716,
				"z": -4.4884564101,
				"element": "H" 
			},
			{
				"x": -2.5458361204,
				"y": 0.4509465491,
				"z": -3.7482567174,
				"element": "H" 
			},
			{
				"x": -2.3121700919,
				"y": 1.2840714161,
				"z": 0.6679457045,
				"element": "H" 
			},
			{
				"x": -1.1895546395,
				"y": 1.445119358,
				"z": 2.8730325302,
				"element": "H" 
			}
		],
		 "valence_orbital": [ 
			{
				"type": "occ",
				"energy": -0.26265,
				"method": "rhf"
			},
			{
				"type": "occ",
				"energy": -0.25427,
				"method": "rhf"
			},
			{
				"type": "occ",
				"energy": -0.25062,
				"method": "rhf"
			},
			{
				"type": "occ",
				"energy": -0.22913,
				"method": "rhf"
			},
			{
				"type": "occ",
				"energy": -0.20417,
				"method": "rhf"
			},
			{
				"type": "unocc",
				"energy": -0.04951,
				"method": "rhf"
			},
			{
				"type": "unocc",
				"energy": -0.0261,
				"method": "rhf"
			},
			{
				"type": "unocc",
				"energy": -0.00422,
				"method": "rhf"
			},
			{
				"type": "unocc",
				"energy": 0.00848,
				"method": "rhf"
			},
			{
				"type": "unocc",
				"energy": 0.03305,
				"method": "rhf"
			}
		],
		"cosmo_sigma_profile": { 
			"-0.025": 0.0,
			"-0.024": 0.0,
			"-0.023": 0.0,
			"-0.022": 0.0,
			"-0.021": 0.0,
			"-0.02": 0.0,
			"-0.019": 0.0,
			"-0.018": 0.0,
			"-0.017": 0.0,
			"-0.016": 0.0,
			"-0.015": 0.0,
			"-0.014": 0.210241918684,
			"-0.013": 2.31839354396,
			"-0.012": 2.96166358432,
			"-0.011": 3.46841842369,
			"-0.01": 3.23008871322,
			"-0.009": 2.63902235919,
			"-0.008": 3.46077439683,
			"-0.007": 8.01912816709,
			"-0.006": 14.9903971292,
			"-0.005": 14.8580684711,
			"-0.004": 17.3592856445,
			"-0.003": 12.9882756206,
			"-0.002": 13.9431150874,
			"-0.001": 14.9013569528,
			"0.0": 17.516118707,
			"0.001": 25.3166041686,
			"0.002": 34.2799819369,
			"0.003": 29.8557066697,
			"0.004": 25.6108050439,
			"0.005": 12.220716311,
			"0.006": 2.86142954787,
			"0.007": 3.72222878711,
			"0.008": 3.12770111318,
			"0.009": 2.86031336289,
			"0.01": 1.31486416236,
			"0.011": 1.6753217225,
			"0.012": 1.42043683389,
			"0.013": 1.70181900695,
			"0.014": 0.87313713211,
			"0.015": 0.786884208814,
			"0.016": 0.92729604029,
			"0.017": 0.420966039448,
			"0.018": 0.0,
			"0.019": 0.0,
			"0.02": 0.0,
			"0.021": 0.0,
			"0.022": 0.0,
			"0.023": 0.0,
			"0.024": 0.0,
			"0.025": 0.0
		}
	}
}
