{
	 "smiles": "COC1=CC(C=NO)=C(OC)C=C1", 
	 "Tm": 368.15, 
	 "num_atms": 24, 
	 "gaussian": { 
		 "optdone": 1, 
		 "sigma_profile": "yes", 
		 "theory": "DFT", 
		 "functional": "B3LYP", 
		 "basiset": "6-31G**", 
		 "properties": { 
			 "R2extent": 2996.943, 
			 "electric_dipole_moment_norm": 1.66913089361, 
			 "electric_quadrupole_moment_norm": 10.6195393765, 
			 "total_energy": -629.914816737, 
			 "HOMO_LUMO_gap": 0.17025, 
			 "cosmo_polarized_energy": -11.99, 
			 "cosmo_cavitation_energy": 28.27, 
			 "cosmo_dispersion_energy": -20.5, 
			 "cosmo_repulsion_energy": 1.65, 
			 "cosmo_total_nonelectrostatic_energy": 9.41, 
			 "SMD_solvation_energy": 7.11 
		},
		"coords": [
			{
				"x": 3.2123318546,
				"y": 2.1976427782,
				"z": 1.069911311,
				"element": "C" 
			},
			{
				"x": 3.2807547346,
				"y": 0.8063924402,
				"z": 0.8052910138,
				"element": "O" 
			},
			{
				"x": 2.1099451913,
				"y": 0.1197043763,
				"z": 0.6488079317,
				"element": "C" 
			},
			{
				"x": 0.8386180457,
				"y": 0.6872808744,
				"z": 0.727378214,
				"element": "C" 
			},
			{
				"x": -0.3260676913,
				"y": -0.0896009809,
				"z": 0.5466946133,
				"element": "C" 
			},
			{
				"x": -1.6012813001,
				"y": 0.6193829574,
				"z": 0.6843410217,
				"element": "C" 
			},
			{
				"x": -2.7492254596,
				"y": 0.1121062823,
				"z": 0.4174203148,
				"element": "N" 
			},
			{
				"x": -3.759276073,
				"y": 1.0560840076,
				"z": 0.661405288,
				"element": "O" 
			},
			{
				"x": -0.1843383747,
				"y": -1.4701408184,
				"z": 0.2940576493,
				"element": "C" 
			},
			{
				"x": -1.265375648,
				"y": -2.31034673,
				"z": 0.1764249549,
				"element": "O" 
			},
			{
				"x": -1.8021545541,
				"y": -2.4296416317,
				"z": -1.1413275803,
				"element": "C" 
			},
			{
				"x": 1.0966397928,
				"y": -2.0294601619,
				"z": 0.2288806281,
				"element": "C" 
			},
			{
				"x": 2.2356744236,
				"y": -1.2545746023,
				"z": 0.4005450019,
				"element": "C" 
			},
			{
				"x": 2.7198119851,
				"y": 2.7427006306,
				"z": 0.2538565632,
				"element": "H" 
			},
			{
				"x": 4.244839911,
				"y": 2.5397913819,
				"z": 1.1562356269,
				"element": "H" 
			},
			{
				"x": 2.6843517388,
				"y": 2.4070387172,
				"z": 2.0095247482,
				"element": "H" 
			},
			{
				"x": 0.7202451287,
				"y": 1.745411167,
				"z": 0.9310676805,
				"element": "H" 
			},
			{
				"x": -1.5496565632,
				"y": 1.6539305195,
				"z": 1.0357012154,
				"element": "H" 
			},
			{
				"x": -4.5607932272,
				"y": 0.5598787758,
				"z": 0.4486325738,
				"element": "H" 
			},
			{
				"x": -2.216447324,
				"y": -1.4778589032,
				"z": -1.4887444033,
				"element": "H" 
			},
			{
				"x": -2.6052625577,
				"y": -3.1671570757,
				"z": -1.0793414512,
				"element": "H" 
			},
			{
				"x": -1.0388379968,
				"y": -2.78384952,
				"z": -1.8468751441,
				"element": "H" 
			},
			{
				"x": 1.1766213785,
				"y": -3.0976616599,
				"z": 0.0531403197,
				"element": "H" 
			},
			{
				"x": 3.228682585,
				"y": -1.6889528244,
				"z": 0.3522719089,
				"element": "H" 
			}
		],
		 "valence_orbital": [ 
			{
				"type": "occ",
				"energy": -0.2832,
				"method": "rhf"
			},
			{
				"type": "occ",
				"energy": -0.27683,
				"method": "rhf"
			},
			{
				"type": "occ",
				"energy": -0.25883,
				"method": "rhf"
			},
			{
				"type": "occ",
				"energy": -0.23527,
				"method": "rhf"
			},
			{
				"type": "occ",
				"energy": -0.20993,
				"method": "rhf"
			},
			{
				"type": "unocc",
				"energy": -0.03968,
				"method": "rhf"
			},
			{
				"type": "unocc",
				"energy": 0.00813,
				"method": "rhf"
			},
			{
				"type": "unocc",
				"energy": 0.05555,
				"method": "rhf"
			},
			{
				"type": "unocc",
				"energy": 0.07415,
				"method": "rhf"
			},
			{
				"type": "unocc",
				"energy": 0.09522,
				"method": "rhf"
			}
		],
		"cosmo_sigma_profile": { 
			"-0.025": 0.0,
			"-0.024": 0.0,
			"-0.023": 0.0,
			"-0.022": 0.0,
			"-0.021": 0.0,
			"-0.02": 0.0,
			"-0.019": 0.0,
			"-0.018": 0.0401633528915,
			"-0.017": 0.774883577395,
			"-0.016": 1.27848430132,
			"-0.015": 0.515402294417,
			"-0.014": 1.07066662985,
			"-0.013": 1.07043556724,
			"-0.012": 0.454209430016,
			"-0.011": 0.26047371001,
			"-0.01": 1.00678229612,
			"-0.009": 0.628458328685,
			"-0.008": 2.22002381828,
			"-0.007": 5.07975111086,
			"-0.006": 11.0666515614,
			"-0.005": 17.6458690636,
			"-0.004": 17.9660568016,
			"-0.003": 21.3432499769,
			"-0.002": 18.5671209647,
			"-0.001": 12.3043201484,
			"0.0": 11.1904543543,
			"0.001": 11.8173249865,
			"0.002": 12.9601313165,
			"0.003": 18.1219756849,
			"0.004": 15.8339851148,
			"0.005": 7.86916450362,
			"0.006": 6.04320760085,
			"0.007": 4.27839493011,
			"0.008": 4.2399114705,
			"0.009": 5.29898268024,
			"0.01": 5.76182230557,
			"0.011": 3.20381059493,
			"0.012": 2.23422235006,
			"0.013": 1.10715739386,
			"0.014": 0.761415395841,
			"0.015": 0.0114382538462,
			"0.016": 0.0,
			"0.017": 0.0,
			"0.018": 0.0,
			"0.019": 0.0,
			"0.02": 0.0,
			"0.021": 0.0,
			"0.022": 0.0,
			"0.023": 0.0,
			"0.024": 0.0,
			"0.025": 0.0
		}
	}
}
