{
	 "smiles": "BrC1=CC2=C(NC(=O)S2)C=C1", 
	 "Tm": 503.15, 
	 "num_atms": 15, 
	 "gaussian": { 
		 "optdone": 1, 
		 "sigma_profile": "yes", 
		 "theory": "DFT", 
		 "functional": "B3LYP", 
		 "basiset": "6-31G**", 
		 "properties": { 
			 "R2extent": 3648.8986, 
			 "electric_dipole_moment_norm": 2.95244437035, 
			 "electric_quadrupole_moment_norm": 15.5981761331, 
			 "total_energy": -3368.74426202, 
			 "HOMO_LUMO_gap": 0.19647, 
			 "cosmo_polarized_energy": -11.44, 
			 "cosmo_cavitation_energy": 23.75, 
			 "cosmo_dispersion_energy": -18.85, 
			 "cosmo_repulsion_energy": 1.45, 
			 "cosmo_total_nonelectrostatic_energy": 6.35, 
			 "SMD_solvation_energy": 3.3 
		},
		"coords": [
			{
				"x": 2.2912750503,
				"y": -2.751626239,
				"z": 1.5363694184,
				"element": "Br" 
			},
			{
				"x": 1.3242701659,
				"y": -1.1680337494,
				"z": 1.0812126995,
				"element": "C" 
			},
			{
				"x": 0.1492594018,
				"y": -1.2837087792,
				"z": 0.3372884228,
				"element": "C" 
			},
			{
				"x": -0.5393818805,
				"y": -0.1174116637,
				"z": 0.016432774,
				"element": "C" 
			},
			{
				"x": -0.0596164119,
				"y": 1.1388078126,
				"z": 0.4330025792,
				"element": "C" 
			},
			{
				"x": -0.8799068173,
				"y": 2.181061149,
				"z": 0.0182781693,
				"element": "N" 
			},
			{
				"x": -2.0068031739,
				"y": 1.8583907051,
				"z": -0.715160267,
				"element": "C" 
			},
			{
				"x": -2.8274368413,
				"y": 2.6262419095,
				"z": -1.1557852421,
				"element": "O" 
			},
			{
				"x": -2.0378498141,
				"y": 0.0424010601,
				"z": -0.9038190351,
				"element": "S" 
			},
			{
				"x": 1.1154770817,
				"y": 1.2384231478,
				"z": 1.1755719516,
				"element": "C" 
			},
			{
				"x": 1.8100669714,
				"y": 0.0721575784,
				"z": 1.5001248238,
				"element": "C" 
			},
			{
				"x": -0.2116176069,
				"y": -2.2552112082,
				"z": 0.0214273892,
				"element": "H" 
			},
			{
				"x": -0.7019380871,
				"y": 3.1551943225,
				"z": 0.2201226282,
				"element": "H" 
			},
			{
				"x": 1.4884164764,
				"y": 2.205541914,
				"z": 1.4985193257,
				"element": "H" 
			},
			{
				"x": 2.7256854856,
				"y": 0.1278720403,
				"z": 2.0766143624,
				"element": "H" 
			}
		],
		 "valence_orbital": [ 
			{
				"type": "occ",
				"energy": -0.29703,
				"method": "rhf"
			},
			{
				"type": "occ",
				"energy": -0.29549,
				"method": "rhf"
			},
			{
				"type": "occ",
				"energy": -0.28483,
				"method": "rhf"
			},
			{
				"type": "occ",
				"energy": -0.25506,
				"method": "rhf"
			},
			{
				"type": "occ",
				"energy": -0.22963,
				"method": "rhf"
			},
			{
				"type": "unocc",
				"energy": -0.03316,
				"method": "rhf"
			},
			{
				"type": "unocc",
				"energy": -0.02384,
				"method": "rhf"
			},
			{
				"type": "unocc",
				"energy": -0.01402,
				"method": "rhf"
			},
			{
				"type": "unocc",
				"energy": 0.00627,
				"method": "rhf"
			},
			{
				"type": "unocc",
				"energy": 0.01852,
				"method": "rhf"
			}
		],
		"cosmo_sigma_profile": { 
			"-0.025": 0.0,
			"-0.024": 0.0,
			"-0.023": 0.0,
			"-0.022": 0.0,
			"-0.021": 0.0,
			"-0.02": 0.0,
			"-0.019": 0.0,
			"-0.018": 0.0366386449311,
			"-0.017": 1.08591104076,
			"-0.016": 1.30947798395,
			"-0.015": 1.54672260143,
			"-0.014": 1.39307275597,
			"-0.013": 1.18215626324,
			"-0.012": 0.659650218881,
			"-0.011": 1.24802532511,
			"-0.01": 1.01584365943,
			"-0.009": 2.59020244193,
			"-0.008": 5.56386300268,
			"-0.007": 6.03226840171,
			"-0.006": 6.07076327447,
			"-0.005": 6.02471212352,
			"-0.004": 6.71384972873,
			"-0.003": 9.13655710291,
			"-0.002": 12.386234537,
			"-0.001": 13.1540709186,
			"0.0": 16.5663643368,
			"0.001": 21.5918220351,
			"0.002": 23.9974258284,
			"0.003": 17.828735036,
			"0.004": 15.1255476222,
			"0.005": 7.76782383197,
			"0.006": 1.130280227,
			"0.007": 1.55460362692,
			"0.008": 1.29809799027,
			"0.009": 1.28526472654,
			"0.01": 2.49081274235,
			"0.011": 5.52700371426,
			"0.012": 3.78793695478,
			"0.013": 0.0836700113649,
			"0.014": 0.0,
			"0.015": 0.0,
			"0.016": 0.0,
			"0.017": 0.0,
			"0.018": 0.0,
			"0.019": 0.0,
			"0.02": 0.0,
			"0.021": 0.0,
			"0.022": 0.0,
			"0.023": 0.0,
			"0.024": 0.0,
			"0.025": 0.0
		}
	}
}
