{
	 "smiles": "COCCN1C(=O)CC(=O)NC1=S", 
	 "Tm": 422.15, 
	 "num_atms": 23, 
	 "gaussian": { 
		 "optdone": 1, 
		 "sigma_profile": "yes", 
		 "theory": "DFT", 
		 "functional": "B3LYP", 
		 "basiset": "6-31G**", 
		 "properties": { 
			 "R2extent": 2877.5414, 
			 "electric_dipole_moment_norm": 2.27800802676, 
			 "electric_quadrupole_moment_norm": 9.15684948331, 
			 "total_energy": -1006.15113571, 
			 "HOMO_LUMO_gap": 0.15938, 
			 "cosmo_polarized_energy": -15.7, 
			 "cosmo_cavitation_energy": 28.49, 
			 "cosmo_dispersion_energy": -20.77, 
			 "cosmo_repulsion_energy": 1.63, 
			 "cosmo_total_nonelectrostatic_energy": 9.35, 
			 "SMD_solvation_energy": 5.9 
		},
		"coords": [
			{
				"x": -1.1582529046,
				"y": -3.490067149,
				"z": 0.3761896415,
				"element": "C" 
			},
			{
				"x": -0.8840088525,
				"y": -2.2069463423,
				"z": 0.9004989247,
				"element": "O" 
			},
			{
				"x": 0.4519779324,
				"y": -2.0686230338,
				"z": 1.3397489546,
				"element": "C" 
			},
			{
				"x": 0.6483995348,
				"y": -0.6495502427,
				"z": 1.8602875775,
				"element": "C" 
			},
			{
				"x": 0.3594311003,
				"y": 0.3635695546,
				"z": 0.823702366,
				"element": "N" 
			},
			{
				"x": -0.9212103739,
				"y": 0.9688187259,
				"z": 0.8750813457,
				"element": "C" 
			},
			{
				"x": -1.6519344209,
				"y": 0.8291198388,
				"z": 1.8311733337,
				"element": "O" 
			},
			{
				"x": -1.3528963225,
				"y": 1.7505496832,
				"z": -0.3466315506,
				"element": "C" 
			},
			{
				"x": -0.2492701903,
				"y": 2.2899478566,
				"z": -1.220799959,
				"element": "C" 
			},
			{
				"x": -0.3952633564,
				"y": 3.1615778019,
				"z": -2.052507807,
				"element": "O" 
			},
			{
				"x": 0.9786731762,
				"y": 1.6690054543,
				"z": -1.0296760318,
				"element": "N" 
			},
			{
				"x": 1.3304604289,
				"y": 0.7107722606,
				"z": -0.0954257905,
				"element": "C" 
			},
			{
				"x": 2.8774416206,
				"y": 0.0903393836,
				"z": -0.1243974872,
				"element": "S" 
			},
			{
				"x": -0.5188635338,
				"y": -3.7236611663,
				"z": -0.4895411812,
				"element": "H" 
			},
			{
				"x": -1.0159019313,
				"y": -4.2782992643,
				"z": 1.1317529146,
				"element": "H" 
			},
			{
				"x": -2.2031253677,
				"y": -3.4932891693,
				"z": 0.0573749504,
				"element": "H" 
			},
			{
				"x": 0.6763305735,
				"y": -2.7698884615,
				"z": 2.1616870686,
				"element": "H" 
			},
			{
				"x": 1.1581654643,
				"y": -2.2784498504,
				"z": 0.5227855111,
				"element": "H" 
			},
			{
				"x": 1.6755002859,
				"y": -0.5154667216,
				"z": 2.2001513315,
				"element": "H" 
			},
			{
				"x": -0.0456550394,
				"y": -0.4508375599,
				"z": 2.6755061606,
				"element": "H" 
			},
			{
				"x": -1.9597060832,
				"y": 1.0708784801,
				"z": -0.9612626037,
				"element": "H" 
			},
			{
				"x": -2.0120453167,
				"y": 2.5630298464,
				"z": -0.0367815316,
				"element": "H" 
			},
			{
				"x": 1.7282535762,
				"y": 1.9596700753,
				"z": -1.6470161378,
				"element": "H" 
			}
		],
		 "valence_orbital": [ 
			{
				"type": "occ",
				"energy": -0.29772,
				"method": "rhf"
			},
			{
				"type": "occ",
				"energy": -0.28595,
				"method": "rhf"
			},
			{
				"type": "occ",
				"energy": -0.26887,
				"method": "rhf"
			},
			{
				"type": "occ",
				"energy": -0.25245,
				"method": "rhf"
			},
			{
				"type": "occ",
				"energy": -0.23655,
				"method": "rhf"
			},
			{
				"type": "unocc",
				"energy": -0.07717,
				"method": "rhf"
			},
			{
				"type": "unocc",
				"energy": -0.01193,
				"method": "rhf"
			},
			{
				"type": "unocc",
				"energy": 0.01708,
				"method": "rhf"
			},
			{
				"type": "unocc",
				"energy": 0.05922,
				"method": "rhf"
			},
			{
				"type": "unocc",
				"energy": 0.08648,
				"method": "rhf"
			}
		],
		"cosmo_sigma_profile": { 
			"-0.025": 0.0,
			"-0.024": 0.0,
			"-0.023": 0.0,
			"-0.022": 0.0,
			"-0.021": 0.0,
			"-0.02": 0.0,
			"-0.019": 0.0,
			"-0.018": 0.0,
			"-0.017": 0.0,
			"-0.016": 0.363649458099,
			"-0.015": 0.829040177486,
			"-0.014": 0.579459268185,
			"-0.013": 0.666262828056,
			"-0.012": 0.990999865074,
			"-0.011": 3.64522843787,
			"-0.01": 4.47203300884,
			"-0.009": 5.89138376464,
			"-0.008": 5.39301191708,
			"-0.007": 4.82199036089,
			"-0.006": 7.9463063288,
			"-0.005": 14.7691840258,
			"-0.004": 22.0430768467,
			"-0.003": 24.3522712461,
			"-0.002": 19.0353492852,
			"-0.001": 10.1827608115,
			"0.0": 7.14476081784,
			"0.001": 8.00707796042,
			"0.002": 7.55914602936,
			"0.003": 8.73897713546,
			"0.004": 8.0080338343,
			"0.005": 7.29335017899,
			"0.006": 10.2101213943,
			"0.007": 11.2812732988,
			"0.008": 6.16340109734,
			"0.009": 6.74482741234,
			"0.01": 8.53359667337,
			"0.011": 9.46847038322,
			"0.012": 2.88177338146,
			"0.013": 0.0595889854206,
			"0.014": 0.0,
			"0.015": 0.0,
			"0.016": 0.0,
			"0.017": 0.0,
			"0.018": 0.0,
			"0.019": 0.0,
			"0.02": 0.0,
			"0.021": 0.0,
			"0.022": 0.0,
			"0.023": 0.0,
			"0.024": 0.0,
			"0.025": 0.0
		}
	}
}
