{
	 "smiles": "CC1(C)S[C@@H]2[C@H](N=CN3CCCCCC3)C(=O)N2[C@H]1C(O)=O", 
	 "Tm": 429.15, 
	 "num_atms": 45, 
	 "gaussian": { 
		 "optdone": 1, 
		 "sigma_profile": "yes", 
		 "theory": "DFT", 
		 "functional": "B3LYP", 
		 "basiset": "6-31G**", 
		 "properties": { 
			 "R2extent": 9565.0315, 
			 "electric_dipole_moment_norm": 5.51131818987, 
			 "electric_quadrupole_moment_norm": 26.6775428657, 
			 "total_energy": -1373.55793783, 
			 "HOMO_LUMO_gap": 0.1949, 
			 "cosmo_polarized_energy": -15.67, 
			 "cosmo_cavitation_energy": 45.24, 
			 "cosmo_dispersion_energy": -31.12, 
			 "cosmo_repulsion_energy": 2.33, 
			 "cosmo_total_nonelectrostatic_energy": 16.45, 
			 "SMD_solvation_energy": 4.49 
		},
		"coords": [
			{
				"x": -3.0649774324,
				"y": -4.5202956028,
				"z": -0.343968419,
				"element": "C" 
			},
			{
				"x": -1.7529023928,
				"y": -3.7227558053,
				"z": -0.3362808797,
				"element": "C" 
			},
			{
				"x": -0.7533911885,
				"y": -4.3035547489,
				"z": -1.3396507295,
				"element": "C" 
			},
			{
				"x": -2.0746761605,
				"y": -1.9060285663,
				"z": -0.7618812274,
				"element": "S" 
			},
			{
				"x": -2.710741179,
				"y": -1.6442234134,
				"z": 0.9332123176,
				"element": "C" 
			},
			{
				"x": -2.1870708012,
				"y": -0.4470389493,
				"z": 1.8118437776,
				"element": "C" 
			},
			{
				"x": -1.592691732,
				"y": 0.6555795269,
				"z": 1.1247404638,
				"element": "N" 
			},
			{
				"x": -0.4199983973,
				"y": 1.0558318683,
				"z": 1.480664139,
				"element": "C" 
			},
			{
				"x": 0.2035627494,
				"y": 2.1182483204,
				"z": 0.9069214079,
				"element": "N" 
			},
			{
				"x": -0.428870215,
				"y": 2.8499309826,
				"z": -0.187499017,
				"element": "C" 
			},
			{
				"x": 0.0433828576,
				"y": 2.3937837852,
				"z": -1.6066467454,
				"element": "C" 
			},
			{
				"x": 1.1416589192,
				"y": 1.3192128355,
				"z": -1.5825050356,
				"element": "C" 
			},
			{
				"x": 2.5101892637,
				"y": 1.7886093635,
				"z": -1.0330939274,
				"element": "C" 
			},
			{
				"x": 2.4489997165,
				"y": 2.8395131786,
				"z": 0.0889201174,
				"element": "C" 
			},
			{
				"x": 1.5679824714,
				"y": 2.4786014933,
				"z": 1.2930055722,
				"element": "C" 
			},
			{
				"x": -1.309190052,
				"y": -1.5493998244,
				"z": 2.4790977205,
				"element": "C" 
			},
			{
				"x": -0.3462227617,
				"y": -1.6307905435,
				"z": 3.2253034669,
				"element": "O" 
			},
			{
				"x": -1.9234887764,
				"y": -2.571195185,
				"z": 1.7814155991,
				"element": "N" 
			},
			{
				"x": -1.1260315509,
				"y": -3.5921926032,
				"z": 1.0738808388,
				"element": "C" 
			},
			{
				"x": -0.9462766366,
				"y": -4.8542303428,
				"z": 1.9304587051,
				"element": "C" 
			},
			{
				"x": -0.4834768256,
				"y": -4.6001194649,
				"z": 3.1672377006,
				"element": "O" 
			},
			{
				"x": -1.1282700731,
				"y": -5.984814757,
				"z": 1.5433219917,
				"element": "O" 
			},
			{
				"x": -2.8618342641,
				"y": -5.5605948003,
				"z": -0.0790355958,
				"element": "H" 
			},
			{
				"x": -3.5170089216,
				"y": -4.4824687689,
				"z": -1.338297668,
				"element": "H" 
			},
			{
				"x": -3.7902710099,
				"y": -4.1260439894,
				"z": 0.3734558349,
				"element": "H" 
			},
			{
				"x": -1.1853920123,
				"y": -4.3286627781,
				"z": -2.3442069984,
				"element": "H" 
			},
			{
				"x": -0.5082031792,
				"y": -5.3292312783,
				"z": -1.0482212103,
				"element": "H" 
			},
			{
				"x": 0.1691780867,
				"y": -3.7163246323,
				"z": -1.3765198711,
				"element": "H" 
			},
			{
				"x": -3.7875476418,
				"y": -1.8197418846,
				"z": 0.9792458711,
				"element": "H" 
			},
			{
				"x": -2.9858496846,
				"y": -0.1031320852,
				"z": 2.4848151071,
				"element": "H" 
			},
			{
				"x": 0.1665730545,
				"y": 0.5762292112,
				"z": 2.27082783,
				"element": "H" 
			},
			{
				"x": -1.5033644227,
				"y": 2.6978662421,
				"z": -0.0814279566,
				"element": "H" 
			},
			{
				"x": -0.2267722393,
				"y": 3.916274313,
				"z": -0.0384127379,
				"element": "H" 
			},
			{
				"x": 0.3873783171,
				"y": 3.2684546539,
				"z": -2.1728249496,
				"element": "H" 
			},
			{
				"x": -0.8165378161,
				"y": 1.9924525553,
				"z": -2.1526976335,
				"element": "H" 
			},
			{
				"x": 1.2849900391,
				"y": 0.9431909424,
				"z": -2.6024543345,
				"element": "H" 
			},
			{
				"x": 0.7743572397,
				"y": 0.4670545472,
				"z": -1.0018089755,
				"element": "H" 
			},
			{
				"x": 3.0748278858,
				"y": 0.9127699174,
				"z": -0.6883585312,
				"element": "H" 
			},
			{
				"x": 3.0994970191,
				"y": 2.2227485078,
				"z": -1.8506027511,
				"element": "H" 
			},
			{
				"x": 3.4604473832,
				"y": 3.0356815848,
				"z": 0.4652565855,
				"element": "H" 
			},
			{
				"x": 2.1032419611,
				"y": 3.7926275219,
				"z": -0.3289669159,
				"element": "H" 
			},
			{
				"x": 1.9996731375,
				"y": 1.6313985267,
				"z": 1.836830674,
				"element": "H" 
			},
			{
				"x": 1.5546822958,
				"y": 3.3332299612,
				"z": 1.9872795329,
				"element": "H" 
			},
			{
				"x": -0.1078730231,
				"y": -3.1914525363,
				"z": 0.9480033528,
				"element": "H" 
			},
			{
				"x": -0.3348920077,
				"y": -3.6414972793,
				"z": 3.316523504,
				"element": "H" 
			}
		],
		 "valence_orbital": [ 
			{
				"type": "occ",
				"energy": -0.28579,
				"method": "rhf"
			},
			{
				"type": "occ",
				"energy": -0.26189,
				"method": "rhf"
			},
			{
				"type": "occ",
				"energy": -0.24731,
				"method": "rhf"
			},
			{
				"type": "occ",
				"energy": -0.23762,
				"method": "rhf"
			},
			{
				"type": "occ",
				"energy": -0.21732,
				"method": "rhf"
			},
			{
				"type": "unocc",
				"energy": -0.02242,
				"method": "rhf"
			},
			{
				"type": "unocc",
				"energy": 0.00326,
				"method": "rhf"
			},
			{
				"type": "unocc",
				"energy": 0.00533,
				"method": "rhf"
			},
			{
				"type": "unocc",
				"energy": 0.02081,
				"method": "rhf"
			},
			{
				"type": "unocc",
				"energy": 0.05401,
				"method": "rhf"
			}
		],
		"cosmo_sigma_profile": { 
			"-0.025": 0.0,
			"-0.024": 0.0,
			"-0.023": 0.0,
			"-0.022": 0.0,
			"-0.021": 0.0,
			"-0.02": 0.0,
			"-0.019": 0.0,
			"-0.018": 0.0,
			"-0.017": 0.0,
			"-0.016": 0.0,
			"-0.015": 0.0,
			"-0.014": 0.0,
			"-0.013": 0.0,
			"-0.012": 0.0,
			"-0.011": 0.0822225348537,
			"-0.01": 0.987678938141,
			"-0.009": 1.65907393757,
			"-0.008": 2.45336870593,
			"-0.007": 9.9599183835,
			"-0.006": 12.6819522041,
			"-0.005": 15.0949511506,
			"-0.004": 24.0343362473,
			"-0.003": 37.0641825451,
			"-0.002": 48.3264242823,
			"-0.001": 47.0365987305,
			"0.0": 37.410681352,
			"0.001": 22.0952035881,
			"0.002": 11.3699788219,
			"0.003": 11.1885287158,
			"0.004": 12.6849772745,
			"0.005": 11.2194229279,
			"0.006": 8.75178948246,
			"0.007": 6.90065193509,
			"0.008": 6.93380580674,
			"0.009": 8.53066895137,
			"0.01": 7.74052845457,
			"0.011": 6.50261648356,
			"0.012": 3.03795894915,
			"0.013": 1.11987313405,
			"0.014": 0.0,
			"0.015": 0.0,
			"0.016": 0.0,
			"0.017": 0.0,
			"0.018": 0.0,
			"0.019": 0.0,
			"0.02": 0.0,
			"0.021": 0.0,
			"0.022": 0.0,
			"0.023": 0.0,
			"0.024": 0.0,
			"0.025": 0.0
		}
	}
}
