{
	 "smiles": "NS(=O)(=O)C1CCCC1", 
	 "Tm": 350.15, 
	 "num_atms": 20, 
	 "gaussian": { 
		 "optdone": 1, 
		 "sigma_profile": "yes", 
		 "theory": "DFT", 
		 "functional": "B3LYP", 
		 "basiset": "6-31G**", 
		 "properties": { 
			 "R2extent": 1866.0306, 
			 "electric_dipole_moment_norm": 3.80049242862, 
			 "electric_quadrupole_moment_norm": 12.2875759607, 
			 "total_energy": -800.493726731, 
			 "HOMO_LUMO_gap": 0.32728, 
			 "cosmo_polarized_energy": -14.06, 
			 "cosmo_cavitation_energy": 22.86, 
			 "cosmo_dispersion_energy": -17.64, 
			 "cosmo_repulsion_energy": 1.41, 
			 "cosmo_total_nonelectrostatic_energy": 6.64, 
			 "SMD_solvation_energy": 2.86 
		},
		"coords": [
			{
				"x": -0.7708003273,
				"y": -2.8413703999,
				"z": 0.5776713998,
				"element": "N" 
			},
			{
				"x": 0.6889985949,
				"y": -2.0335103042,
				"z": 0.2314209274,
				"element": "S" 
			},
			{
				"x": 0.8540733505,
				"y": -2.0381933682,
				"z": -1.2271668726,
				"element": "O" 
			},
			{
				"x": 1.7154742475,
				"y": -2.5857448631,
				"z": 1.1233710269,
				"element": "O" 
			},
			{
				"x": 0.349574761,
				"y": -0.3297178723,
				"z": 0.7556055586,
				"element": "C" 
			},
			{
				"x": 0.0645027399,
				"y": -0.2134626068,
				"z": 2.2729990974,
				"element": "C" 
			},
			{
				"x": -0.9951174028,
				"y": 0.8994367262,
				"z": 2.3670728653,
				"element": "C" 
			},
			{
				"x": -1.8727246438,
				"y": 0.6558403217,
				"z": 1.1287655327,
				"element": "C" 
			},
			{
				"x": -0.8587372209,
				"y": 0.3155666426,
				"z": 0.0178062597,
				"element": "C" 
			},
			{
				"x": -1.1476908629,
				"y": -3.2176880465,
				"z": -0.2884322671,
				"element": "H" 
			},
			{
				"x": -0.5800284846,
				"y": -3.5896516576,
				"z": 1.239141877,
				"element": "H" 
			},
			{
				"x": 1.2863410785,
				"y": 0.1689322596,
				"z": 0.4879936777,
				"element": "H" 
			},
			{
				"x": 0.9724973169,
				"y": -0.0156102093,
				"z": 2.846352056,
				"element": "H" 
			},
			{
				"x": -0.3624684619,
				"y": -1.1500308482,
				"z": 2.6463896209,
				"element": "H" 
			},
			{
				"x": -0.5168067297,
				"y": 1.8851303264,
				"z": 2.3027849468,
				"element": "H" 
			},
			{
				"x": -1.5528479116,
				"y": 0.8671546955,
				"z": 3.308020166,
				"element": "H" 
			},
			{
				"x": -2.505707875,
				"y": 1.5101260699,
				"z": 0.8706417933,
				"element": "H" 
			},
			{
				"x": -2.5291905145,
				"y": -0.203295509,
				"z": 1.3072125841,
				"element": "H" 
			},
			{
				"x": -0.5163979297,
				"y": 1.2252746137,
				"z": -0.4852840802,
				"element": "H" 
			},
			{
				"x": -1.2732437244,
				"y": -0.3322859707,
				"z": -0.7581661699,
				"element": "H" 
			}
		],
		 "valence_orbital": [ 
			{
				"type": "occ",
				"energy": -0.33639,
				"method": "rhf"
			},
			{
				"type": "occ",
				"energy": -0.31075,
				"method": "rhf"
			},
			{
				"type": "occ",
				"energy": -0.30609,
				"method": "rhf"
			},
			{
				"type": "occ",
				"energy": -0.29491,
				"method": "rhf"
			},
			{
				"type": "occ",
				"energy": -0.28462,
				"method": "rhf"
			},
			{
				"type": "unocc",
				"energy": 0.04266,
				"method": "rhf"
			},
			{
				"type": "unocc",
				"energy": 0.06928,
				"method": "rhf"
			},
			{
				"type": "unocc",
				"energy": 0.08678,
				"method": "rhf"
			},
			{
				"type": "unocc",
				"energy": 0.08885,
				"method": "rhf"
			},
			{
				"type": "unocc",
				"energy": 0.09983,
				"method": "rhf"
			}
		],
		"cosmo_sigma_profile": { 
			"-0.025": 0.0,
			"-0.024": 0.0,
			"-0.023": 0.0,
			"-0.022": 0.0,
			"-0.021": 0.0,
			"-0.02": 0.0,
			"-0.019": 0.0,
			"-0.018": 0.0,
			"-0.017": 0.0,
			"-0.016": 0.0,
			"-0.015": 0.274787600845,
			"-0.014": 2.25655746827,
			"-0.013": 2.28814409183,
			"-0.012": 3.17016344547,
			"-0.011": 1.75561073562,
			"-0.01": 1.83006780393,
			"-0.009": 1.85352461214,
			"-0.008": 3.07486223217,
			"-0.007": 3.37417944378,
			"-0.006": 4.11704458719,
			"-0.005": 6.54818004345,
			"-0.004": 13.4711065049,
			"-0.003": 17.9305439236,
			"-0.002": 20.0429104769,
			"-0.001": 18.6048273125,
			"0.0": 16.7523224442,
			"0.001": 8.87023136661,
			"0.002": 2.66673442117,
			"0.003": 3.5111491597,
			"0.004": 4.33452922852,
			"0.005": 3.4010032485,
			"0.006": 3.474665738,
			"0.007": 2.49384153777,
			"0.008": 3.34497853106,
			"0.009": 4.1022899799,
			"0.01": 4.11129998588,
			"0.011": 9.77660043584,
			"0.012": 9.37964903061,
			"0.013": 0.815112524643,
			"0.014": 0.0,
			"0.015": 0.0,
			"0.016": 0.0,
			"0.017": 0.0,
			"0.018": 0.0,
			"0.019": 0.0,
			"0.02": 0.0,
			"0.021": 0.0,
			"0.022": 0.0,
			"0.023": 0.0,
			"0.024": 0.0,
			"0.025": 0.0
		}
	}
}
