{
	 "smiles": "COC1=CC(CO)=CC=C1O", 
	 "Tm": 387.15, 
	 "num_atms": 21, 
	 "gaussian": { 
		 "optdone": 1, 
		 "sigma_profile": "yes", 
		 "theory": "DFT", 
		 "functional": "B3LYP", 
		 "basiset": "6-31G**", 
		 "properties": { 
			 "R2extent": 2156.7673, 
			 "electric_dipole_moment_norm": 1.74867981346, 
			 "electric_quadrupole_moment_norm": 11.9219604361, 
			 "total_energy": -536.524568701, 
			 "HOMO_LUMO_gap": 0.20956, 
			 "cosmo_polarized_energy": -10.56, 
			 "cosmo_cavitation_energy": 24.53, 
			 "cosmo_dispersion_energy": -18.22, 
			 "cosmo_repulsion_energy": 1.49, 
			 "cosmo_total_nonelectrostatic_energy": 7.79, 
			 "SMD_solvation_energy": 5.32 
		},
		"coords": [
			{
				"x": -1.5214982203,
				"y": 2.7876288559,
				"z": 0.6436649521,
				"element": "C" 
			},
			{
				"x": -0.3082784881,
				"y": 2.7955688393,
				"z": -0.0933867985,
				"element": "O" 
			},
			{
				"x": 0.2892981046,
				"y": 1.5881578623,
				"z": -0.3703436484,
				"element": "C" 
			},
			{
				"x": -0.1747583457,
				"y": 0.3378969769,
				"z": 0.0190603895,
				"element": "C" 
			},
			{
				"x": 0.5415691071,
				"y": -0.8204922528,
				"z": -0.3313096161,
				"element": "C" 
			},
			{
				"x": 0.0036722006,
				"y": -2.1784571078,
				"z": 0.0708091192,
				"element": "C" 
			},
			{
				"x": -0.5997650447,
				"y": -2.1908584164,
				"z": 1.360965545,
				"element": "O" 
			},
			{
				"x": 1.7216126089,
				"y": -0.6943157887,
				"z": -1.0640606461,
				"element": "C" 
			},
			{
				"x": 2.1883688787,
				"y": 0.5626932031,
				"z": -1.4630419336,
				"element": "C" 
			},
			{
				"x": 1.4790283395,
				"y": 1.7077346527,
				"z": -1.1206503277,
				"element": "C" 
			},
			{
				"x": 1.929066279,
				"y": 2.9366752558,
				"z": -1.497093784,
				"element": "O" 
			},
			{
				"x": -2.3047370195,
				"y": 2.22855598,
				"z": 0.1170315337,
				"element": "H" 
			},
			{
				"x": -1.3801096676,
				"y": 2.3535002906,
				"z": 1.6412079435,
				"element": "H" 
			},
			{
				"x": -1.8252061741,
				"y": 3.8307835412,
				"z": 0.7431226957,
				"element": "H" 
			},
			{
				"x": -1.0814053115,
				"y": 0.2314787986,
				"z": 0.6036022971,
				"element": "H" 
			},
			{
				"x": 0.8059005721,
				"y": -2.9290175673,
				"z": -0.0075862866,
				"element": "H" 
			},
			{
				"x": -0.7937973408,
				"y": -2.4950775268,
				"z": -0.6126297603,
				"element": "H" 
			},
			{
				"x": 0.0608030734,
				"y": -1.8631929985,
				"z": 1.9862403711,
				"element": "H" 
			},
			{
				"x": 2.2888899246,
				"y": -1.5824261497,
				"z": -1.3305886377,
				"element": "H" 
			},
			{
				"x": 3.1061195048,
				"y": 0.6714171696,
				"z": -2.0316887285,
				"element": "H" 
			},
			{
				"x": 1.2937270191,
				"y": 3.585646382,
				"z": -1.1575246792,
				"element": "H" 
			}
		],
		 "valence_orbital": [ 
			{
				"type": "occ",
				"energy": -0.32426,
				"method": "rhf"
			},
			{
				"type": "occ",
				"energy": -0.31504,
				"method": "rhf"
			},
			{
				"type": "occ",
				"energy": -0.27181,
				"method": "rhf"
			},
			{
				"type": "occ",
				"energy": -0.23597,
				"method": "rhf"
			},
			{
				"type": "occ",
				"energy": -0.20407,
				"method": "rhf"
			},
			{
				"type": "unocc",
				"energy": 0.00549,
				"method": "rhf"
			},
			{
				"type": "unocc",
				"energy": 0.01354,
				"method": "rhf"
			},
			{
				"type": "unocc",
				"energy": 0.07996,
				"method": "rhf"
			},
			{
				"type": "unocc",
				"energy": 0.08934,
				"method": "rhf"
			},
			{
				"type": "unocc",
				"energy": 0.10004,
				"method": "rhf"
			}
		],
		"cosmo_sigma_profile": { 
			"-0.025": 0.0,
			"-0.024": 0.0,
			"-0.023": 0.0,
			"-0.022": 0.0,
			"-0.021": 0.0,
			"-0.02": 0.0,
			"-0.019": 0.0,
			"-0.018": 0.0,
			"-0.017": 0.0,
			"-0.016": 0.0459782531269,
			"-0.015": 0.62004886788,
			"-0.014": 1.32220748594,
			"-0.013": 1.64390091563,
			"-0.012": 1.1233625458,
			"-0.011": 0.944648807567,
			"-0.01": 1.92687377922,
			"-0.009": 1.1012848366,
			"-0.008": 1.55665926356,
			"-0.007": 2.24527379683,
			"-0.006": 6.23212729759,
			"-0.005": 18.4509621445,
			"-0.004": 19.1743216232,
			"-0.003": 19.9757710826,
			"-0.002": 13.0968554861,
			"-0.001": 10.0807330984,
			"0.0": 9.58585256309,
			"0.001": 10.8843431418,
			"0.002": 9.96889418365,
			"0.003": 11.3056493363,
			"0.004": 12.0961608725,
			"0.005": 11.5876139107,
			"0.006": 8.44392144068,
			"0.007": 2.48844276489,
			"0.008": 2.62529359912,
			"0.009": 2.23754792183,
			"0.01": 3.08485405644,
			"0.011": 3.28274594626,
			"0.012": 2.2587618592,
			"0.013": 1.7146298461,
			"0.014": 2.10276664674,
			"0.015": 0.308038639193,
			"0.016": 0.0,
			"0.017": 0.0,
			"0.018": 0.0,
			"0.019": 0.0,
			"0.02": 0.0,
			"0.021": 0.0,
			"0.022": 0.0,
			"0.023": 0.0,
			"0.024": 0.0,
			"0.025": 0.0
		}
	}
}
