{
	 "smiles": "OC(=O)C1=CC(Cl)=C(OCC(F)(F)F)N=C1", 
	 "Tm": 436.15, 
	 "num_atms": 21, 
	 "gaussian": { 
		 "optdone": 1, 
		 "sigma_profile": "yes", 
		 "theory": "DFT", 
		 "functional": "B3LYP", 
		 "basiset": "6-31G**", 
		 "properties": { 
			 "R2extent": 5820.1347, 
			 "electric_dipole_moment_norm": 2.51262705151, 
			 "electric_quadrupole_moment_norm": 21.9421917937, 
			 "total_energy": -1347.99992492, 
			 "HOMO_LUMO_gap": 0.19427, 
			 "cosmo_polarized_energy": -16.37, 
			 "cosmo_cavitation_energy": 30.18, 
			 "cosmo_dispersion_energy": -21.27, 
			 "cosmo_repulsion_energy": 1.62, 
			 "cosmo_total_nonelectrostatic_energy": 10.52, 
			 "SMD_solvation_energy": 6.91 
		},
		"coords": [
			{
				"x": -1.001747533,
				"y": -3.4293859621,
				"z": -3.9675662301,
				"element": "O" 
			},
			{
				"x": -1.5377671137,
				"y": -3.0866721671,
				"z": -2.7662740858,
				"element": "C" 
			},
			{
				"x": -2.7254158757,
				"y": -3.1985433674,
				"z": -2.5770522457,
				"element": "O" 
			},
			{
				"x": -0.5941746756,
				"y": -2.5806642123,
				"z": -1.7218847753,
				"element": "C" 
			},
			{
				"x": 0.7908784742,
				"y": -2.8146154652,
				"z": -1.7267416743,
				"element": "C" 
			},
			{
				"x": 1.5714366201,
				"y": -2.3139098576,
				"z": -0.6984653484,
				"element": "C" 
			},
			{
				"x": 3.2893417374,
				"y": -2.5984911896,
				"z": -0.660309662,
				"element": "Cl" 
			},
			{
				"x": 0.9367373908,
				"y": -1.5756948516,
				"z": 0.3249380181,
				"element": "C" 
			},
			{
				"x": 1.7168462879,
				"y": -1.1066078439,
				"z": 1.3207545659,
				"element": "O" 
			},
			{
				"x": 1.1255845319,
				"y": -0.2892256567,
				"z": 2.3277746124,
				"element": "C" 
			},
			{
				"x": 1.3713949939,
				"y": 1.1786765201,
				"z": 2.0137453458,
				"element": "C" 
			},
			{
				"x": 0.7909910282,
				"y": 1.9370785635,
				"z": 2.9670826496,
				"element": "F" 
			},
			{
				"x": 2.6837836412,
				"y": 1.4711992842,
				"z": 1.9897348465,
				"element": "F" 
			},
			{
				"x": 0.8513941136,
				"y": 1.5252558582,
				"z": 0.8219018185,
				"element": "F" 
			},
			{
				"x": -0.3722236538,
				"y": -1.3653405763,
				"z": 0.3412684618,
				"element": "N" 
			},
			{
				"x": -1.1212981734,
				"y": -1.8611343384,
				"z": -0.6466637995,
				"element": "C" 
			},
			{
				"x": -0.0900492687,
				"y": -3.1158360941,
				"z": -4.0415828538,
				"element": "H" 
			},
			{
				"x": 1.2708334936,
				"y": -3.4088281216,
				"z": -2.4987002898,
				"element": "H" 
			},
			{
				"x": 0.0519642823,
				"y": -0.4624732861,
				"z": 2.4027820937,
				"element": "H" 
			},
			{
				"x": 1.6254072716,
				"y": -0.5338623127,
				"z": 3.2664417718,
				"element": "H" 
			},
			{
				"x": -2.1910175727,
				"y": -1.681424923,
				"z": -0.5968832193,
				"element": "H" 
			}
		],
		 "valence_orbital": [ 
			{
				"type": "occ",
				"energy": -0.32993,
				"method": "rhf"
			},
			{
				"type": "occ",
				"energy": -0.31099,
				"method": "rhf"
			},
			{
				"type": "occ",
				"energy": -0.30517,
				"method": "rhf"
			},
			{
				"type": "occ",
				"energy": -0.28536,
				"method": "rhf"
			},
			{
				"type": "occ",
				"energy": -0.26233,
				"method": "rhf"
			},
			{
				"type": "unocc",
				"energy": -0.06806,
				"method": "rhf"
			},
			{
				"type": "unocc",
				"energy": -0.05891,
				"method": "rhf"
			},
			{
				"type": "unocc",
				"energy": 0.00663,
				"method": "rhf"
			},
			{
				"type": "unocc",
				"energy": 0.02943,
				"method": "rhf"
			},
			{
				"type": "unocc",
				"energy": 0.05216,
				"method": "rhf"
			}
		],
		"cosmo_sigma_profile": { 
			"-0.025": 0.0,
			"-0.024": 0.0,
			"-0.023": 0.0,
			"-0.022": 0.0,
			"-0.021": 0.0,
			"-0.02": 0.608529669969,
			"-0.019": 1.11519314214,
			"-0.018": 0.88398376339,
			"-0.017": 0.907119295065,
			"-0.016": 0.909292058473,
			"-0.015": 1.14112458445,
			"-0.014": 1.43944640281,
			"-0.013": 1.32744092045,
			"-0.012": 1.00499636104,
			"-0.011": 1.65726042422,
			"-0.01": 2.48387070047,
			"-0.009": 4.34852271369,
			"-0.008": 5.84776705594,
			"-0.007": 6.78688808491,
			"-0.006": 7.49231198558,
			"-0.005": 6.95155277587,
			"-0.004": 8.12794248646,
			"-0.003": 15.5646381331,
			"-0.002": 17.6426445364,
			"-0.001": 17.8224292081,
			"0.0": 12.8542712883,
			"0.001": 16.7740755566,
			"0.002": 32.7415562048,
			"0.003": 29.090840529,
			"0.004": 11.2837326294,
			"0.005": 5.84568027173,
			"0.006": 4.93847378281,
			"0.007": 6.14630911752,
			"0.008": 3.03104636821,
			"0.009": 3.93345390386,
			"0.01": 5.33695743013,
			"0.011": 5.43784370437,
			"0.012": 2.87289485281,
			"0.013": 0.637346841826,
			"0.014": 0.0,
			"0.015": 0.0,
			"0.016": 0.0,
			"0.017": 0.0,
			"0.018": 0.0,
			"0.019": 0.0,
			"0.02": 0.0,
			"0.021": 0.0,
			"0.022": 0.0,
			"0.023": 0.0,
			"0.024": 0.0,
			"0.025": 0.0
		}
	}
}
