{
	 "smiles": "FC1=C(C=CC(C=O)=C1)N1C=NC=N1", 
	 "Tm": 401.15, 
	 "num_atms": 20, 
	 "gaussian": { 
		 "optdone": 1, 
		 "sigma_profile": "yes", 
		 "theory": "DFT", 
		 "functional": "B3LYP", 
		 "basiset": "6-31G**", 
		 "properties": { 
			 "R2extent": 3186.2037, 
			 "electric_dipole_moment_norm": 1.82127226685, 
			 "electric_quadrupole_moment_norm": 13.340899771, 
			 "total_energy": -685.8544828, 
			 "HOMO_LUMO_gap": 0.17178, 
			 "cosmo_polarized_energy": -11.29, 
			 "cosmo_cavitation_energy": 25.9, 
			 "cosmo_dispersion_energy": -19.04, 
			 "cosmo_repulsion_energy": 1.42, 
			 "cosmo_total_nonelectrostatic_energy": 8.28, 
			 "SMD_solvation_energy": 4.25 
		},
		"coords": [
			{
				"x": -1.4034943937,
				"y": -0.0315679122,
				"z": 1.4177207489,
				"element": "F" 
			},
			{
				"x": -0.3296357704,
				"y": 0.1460162565,
				"z": 0.6144336998,
				"element": "C" 
			},
			{
				"x": -0.3019048035,
				"y": -0.4616442005,
				"z": -0.6531878483,
				"element": "C" 
			},
			{
				"x": 0.8257218379,
				"y": -0.2580864832,
				"z": -1.4617048173,
				"element": "C" 
			},
			{
				"x": 1.8803245641,
				"y": 0.5259930775,
				"z": -1.0088236427,
				"element": "C" 
			},
			{
				"x": 1.8346807182,
				"y": 1.1231580546,
				"z": 0.2567882733,
				"element": "C" 
			},
			{
				"x": 2.9583466813,
				"y": 1.9583197318,
				"z": 0.738638329,
				"element": "C" 
			},
			{
				"x": 2.9882340424,
				"y": 2.506860284,
				"z": 1.8232298907,
				"element": "O" 
			},
			{
				"x": 0.7128497583,
				"y": 0.9261356889,
				"z": 1.0724062767,
				"element": "C" 
			},
			{
				"x": -1.3652888972,
				"y": -1.2614128511,
				"z": -1.1286405185,
				"element": "N" 
			},
			{
				"x": -2.5605912224,
				"y": -1.6187629138,
				"z": -0.5615682829,
				"element": "C" 
			},
			{
				"x": -3.2458048723,
				"y": -2.3862864866,
				"z": -1.3812697227,
				"element": "N" 
			},
			{
				"x": -2.4224384272,
				"y": -2.4815997116,
				"z": -2.4667911811,
				"element": "C" 
			},
			{
				"x": -1.281073563,
				"y": -1.8279171063,
				"z": -2.3724817327,
				"element": "N" 
			},
			{
				"x": 0.8440180922,
				"y": -0.7271302156,
				"z": -2.4368185458,
				"element": "H" 
			},
			{
				"x": 2.7484795115,
				"y": 0.6761304304,
				"z": -1.6448188697,
				"element": "H" 
			},
			{
				"x": 3.8025913408,
				"y": 2.0560151945,
				"z": 0.0216327053,
				"element": "H" 
			},
			{
				"x": 0.6641831011,
				"y": 1.3826219773,
				"z": 2.0548979422,
				"element": "H" 
			},
			{
				"x": -2.8646182612,
				"y": -1.298005242,
				"z": 0.420133804,
				"element": "H" 
			},
			{
				"x": -2.6742794369,
				"y": -3.0503375726,
				"z": -3.3512765082,
				"element": "H" 
			}
		],
		 "valence_orbital": [ 
			{
				"type": "occ",
				"energy": -0.29196,
				"method": "rhf"
			},
			{
				"type": "occ",
				"energy": -0.2909,
				"method": "rhf"
			},
			{
				"type": "occ",
				"energy": -0.28137,
				"method": "rhf"
			},
			{
				"type": "occ",
				"energy": -0.26933,
				"method": "rhf"
			},
			{
				"type": "occ",
				"energy": -0.25778,
				"method": "rhf"
			},
			{
				"type": "unocc",
				"energy": -0.086,
				"method": "rhf"
			},
			{
				"type": "unocc",
				"energy": -0.03088,
				"method": "rhf"
			},
			{
				"type": "unocc",
				"energy": -0.01768,
				"method": "rhf"
			},
			{
				"type": "unocc",
				"energy": 0.03941,
				"method": "rhf"
			},
			{
				"type": "unocc",
				"energy": 0.04399,
				"method": "rhf"
			}
		],
		"cosmo_sigma_profile": { 
			"-0.025": 0.0,
			"-0.024": 0.0,
			"-0.023": 0.0,
			"-0.022": 0.0,
			"-0.021": 0.0,
			"-0.02": 0.0,
			"-0.019": 0.0,
			"-0.018": 0.0,
			"-0.017": 0.0,
			"-0.016": 0.0,
			"-0.015": 0.0,
			"-0.014": 0.0,
			"-0.013": 0.0,
			"-0.012": 0.0,
			"-0.011": 0.0,
			"-0.01": 0.847192821894,
			"-0.009": 3.8044062756,
			"-0.008": 7.5828772906,
			"-0.007": 10.5036492446,
			"-0.006": 11.326056937,
			"-0.005": 11.1281467254,
			"-0.004": 12.9035135723,
			"-0.003": 12.3882547485,
			"-0.002": 16.2218715555,
			"-0.001": 19.8838575864,
			"0.0": 22.2757120658,
			"0.001": 17.2598668292,
			"0.002": 10.6401638453,
			"0.003": 9.3476599332,
			"0.004": 4.51680864895,
			"0.005": 5.2331226412,
			"0.006": 4.13492461958,
			"0.007": 4.50728918511,
			"0.008": 3.50316146245,
			"0.009": 4.96977974342,
			"0.01": 5.13017038306,
			"0.011": 5.61872774903,
			"0.012": 2.50176617875,
			"0.013": 1.52806931406,
			"0.014": 1.13728141351,
			"0.015": 1.03640908768,
			"0.016": 0.383308792851,
			"0.017": 0.0,
			"0.018": 0.0,
			"0.019": 0.0,
			"0.02": 0.0,
			"0.021": 0.0,
			"0.022": 0.0,
			"0.023": 0.0,
			"0.024": 0.0,
			"0.025": 0.0
		}
	}
}
