{
	 "smiles": "CCN1N=C(C(O)=O)C(=O)C2=C1C=CC=C2", 
	 "Tm": 484.15, 
	 "num_atms": 26, 
	 "gaussian": { 
		 "optdone": 1, 
		 "sigma_profile": "yes", 
		 "theory": "DFT", 
		 "functional": "B3LYP", 
		 "basiset": "6-31G**", 
		 "properties": { 
			 "R2extent": 3676.2059, 
			 "electric_dipole_moment_norm": 7.11464294888, 
			 "electric_quadrupole_moment_norm": 13.2221033784, 
			 "total_energy": -760.36127102, 
			 "HOMO_LUMO_gap": 0.15683, 
			 "cosmo_polarized_energy": -22.79, 
			 "cosmo_cavitation_energy": 30.51, 
			 "cosmo_dispersion_energy": -22.2, 
			 "cosmo_repulsion_energy": 1.71, 
			 "cosmo_total_nonelectrostatic_energy": 10.03, 
			 "SMD_solvation_energy": 6.11 
		},
		"coords": [
			{
				"x": 0.0663155112,
				"y": 2.9636710418,
				"z": 2.7234910797,
				"element": "C" 
			},
			{
				"x": -0.3681903896,
				"y": 2.7646328988,
				"z": 1.2786248572,
				"element": "C" 
			},
			{
				"x": -0.0297606547,
				"y": 1.4293555844,
				"z": 0.7370728128,
				"element": "N" 
			},
			{
				"x": 0.6027183779,
				"y": 0.610680055,
				"z": 1.5567546931,
				"element": "N" 
			},
			{
				"x": 0.9589153639,
				"y": -0.5973786149,
				"z": 1.1891493976,
				"element": "C" 
			},
			{
				"x": 1.7007144925,
				"y": -1.3888928713,
				"z": 2.2170780878,
				"element": "C" 
			},
			{
				"x": 1.6132059939,
				"y": -0.8452550521,
				"z": 3.4597394069,
				"element": "O" 
			},
			{
				"x": 2.3262349369,
				"y": -2.4022436319,
				"z": 1.9978284881,
				"element": "O" 
			},
			{
				"x": 0.6704576883,
				"y": -1.1641491766,
				"z": -0.1456966119,
				"element": "C" 
			},
			{
				"x": 0.9474437254,
				"y": -2.3037396802,
				"z": -0.5039906013,
				"element": "O" 
			},
			{
				"x": -0.0232174797,
				"y": -0.2039305358,
				"z": -1.0327649651,
				"element": "C" 
			},
			{
				"x": -0.3644716877,
				"y": 1.0850676948,
				"z": -0.5734601542,
				"element": "C" 
			},
			{
				"x": -1.0280080541,
				"y": 1.9835575368,
				"z": -1.4353044713,
				"element": "C" 
			},
			{
				"x": -1.3366486121,
				"y": 1.5858868703,
				"z": -2.7280060463,
				"element": "C" 
			},
			{
				"x": -0.999839231,
				"y": 0.3034321216,
				"z": -3.1915252023,
				"element": "C" 
			},
			{
				"x": -0.3491449583,
				"y": -0.5792912958,
				"z": -2.3453259602,
				"element": "C" 
			},
			{
				"x": -0.23343997,
				"y": 3.9699738145,
				"z": 3.0322773247,
				"element": "H" 
			},
			{
				"x": -0.4022125479,
				"y": 2.236596992,
				"z": 3.3889088951,
				"element": "H" 
			},
			{
				"x": 1.1477006875,
				"y": 2.869199012,
				"z": 2.8356847371,
				"element": "H" 
			},
			{
				"x": 0.1038391445,
				"y": 3.5155817741,
				"z": 0.6339533013,
				"element": "H" 
			},
			{
				"x": -1.4531866038,
				"y": 2.8937974151,
				"z": 1.1881972486,
				"element": "H" 
			},
			{
				"x": 2.1461809357,
				"y": -1.4330092466,
				"z": 4.0204758891,
				"element": "H" 
			},
			{
				"x": -1.2986680289,
				"y": 2.9774887558,
				"z": -1.1023872038,
				"element": "H" 
			},
			{
				"x": -1.847074024,
				"y": 2.2824234698,
				"z": -3.3866303336,
				"element": "H" 
			},
			{
				"x": -1.2498632039,
				"y": 0.0096528753,
				"z": -4.2060705556,
				"element": "H" 
			},
			{
				"x": -0.070201412,
				"y": -1.5805078071,
				"z": -2.6566741135,
				"element": "H" 
			}
		],
		 "valence_orbital": [ 
			{
				"type": "occ",
				"energy": -0.29424,
				"method": "rhf"
			},
			{
				"type": "occ",
				"energy": -0.27438,
				"method": "rhf"
			},
			{
				"type": "occ",
				"energy": -0.27009,
				"method": "rhf"
			},
			{
				"type": "occ",
				"energy": -0.23152,
				"method": "rhf"
			},
			{
				"type": "occ",
				"energy": -0.22791,
				"method": "rhf"
			},
			{
				"type": "unocc",
				"energy": -0.07108,
				"method": "rhf"
			},
			{
				"type": "unocc",
				"energy": -0.04828,
				"method": "rhf"
			},
			{
				"type": "unocc",
				"energy": -0.00197,
				"method": "rhf"
			},
			{
				"type": "unocc",
				"energy": 0.03049,
				"method": "rhf"
			},
			{
				"type": "unocc",
				"energy": 0.07314,
				"method": "rhf"
			}
		],
		"cosmo_sigma_profile": { 
			"-0.025": 0.0,
			"-0.024": 0.0,
			"-0.023": 0.0,
			"-0.022": 0.0,
			"-0.021": 0.0,
			"-0.02": 0.0,
			"-0.019": 0.0,
			"-0.018": 0.567932530124,
			"-0.017": 0.857870549744,
			"-0.016": 0.868910833843,
			"-0.015": 1.25356265956,
			"-0.014": 0.387112674947,
			"-0.013": 0.0815945036802,
			"-0.012": 0.474686038863,
			"-0.011": 1.58127384401,
			"-0.01": 0.896392484125,
			"-0.009": 0.595826996012,
			"-0.008": 4.05491612294,
			"-0.007": 12.2272822938,
			"-0.006": 15.5085993912,
			"-0.005": 16.2352715597,
			"-0.004": 20.8008914585,
			"-0.003": 20.3064050913,
			"-0.002": 18.8457574785,
			"-0.001": 16.6775966535,
			"0.0": 16.5346365263,
			"0.001": 16.0239357554,
			"0.002": 14.5609158582,
			"0.003": 10.9460928824,
			"0.004": 3.93503502285,
			"0.005": 4.98256264933,
			"0.006": 3.81753000274,
			"0.007": 3.05286781673,
			"0.008": 3.75839206826,
			"0.009": 4.12075003904,
			"0.01": 4.48140272405,
			"0.011": 6.54541346785,
			"0.012": 6.87924335765,
			"0.013": 5.12422032324,
			"0.014": 2.17926767703,
			"0.015": 1.62591665245,
			"0.016": 1.36378198147,
			"0.017": 1.25892429563,
			"0.018": 0.145512541063,
			"0.019": 0.0,
			"0.02": 0.0,
			"0.021": 0.0,
			"0.022": 0.0,
			"0.023": 0.0,
			"0.024": 0.0,
			"0.025": 0.0
		}
	}
}
