{
	 "smiles": "CC1=CC(Cl)=C2NC(=O)C(=O)C2=C1", 
	 "Tm": 447.15, 
	 "num_atms": 19, 
	 "gaussian": { 
		 "optdone": 1, 
		 "sigma_profile": "yes", 
		 "theory": "DFT", 
		 "functional": "B3LYP", 
		 "basiset": "6-31G**", 
		 "properties": { 
			 "R2extent": 4252.5656, 
			 "electric_dipole_moment_norm": 5.27634423631, 
			 "electric_quadrupole_moment_norm": 25.260520978, 
			 "total_energy": -1011.97203045, 
			 "HOMO_LUMO_gap": 0.13681, 
			 "cosmo_polarized_energy": -13.16, 
			 "cosmo_cavitation_energy": 26.13, 
			 "cosmo_dispersion_energy": -19.2, 
			 "cosmo_repulsion_energy": 1.52, 
			 "cosmo_total_nonelectrostatic_energy": 8.45, 
			 "SMD_solvation_energy": 5.57 
		},
		"coords": [
			{
				"x": 1.0413792535,
				"y": 0.1768551527,
				"z": 1.5565740377,
				"element": "C" 
			},
			{
				"x": 0.333103374,
				"y": 0.0231939834,
				"z": 0.2305604826,
				"element": "C" 
			},
			{
				"x": -1.0602695019,
				"y": -0.1478687224,
				"z": 0.1857588809,
				"element": "C" 
			},
			{
				"x": -1.7549459648,
				"y": -0.2648800544,
				"z": -1.0228825052,
				"element": "C" 
			},
			{
				"x": -3.4953689975,
				"y": -0.4820801189,
				"z": -1.0433135902,
				"element": "Cl" 
			},
			{
				"x": -1.046815374,
				"y": -0.2126048842,
				"z": -2.2155329482,
				"element": "C" 
			},
			{
				"x": -1.510931684,
				"y": -0.3101582085,
				"z": -3.5290943988,
				"element": "N" 
			},
			{
				"x": -0.475302013,
				"y": -0.2158979509,
				"z": -4.4491142647,
				"element": "C" 
			},
			{
				"x": -0.5597820118,
				"y": -0.2649664215,
				"z": -5.6538415682,
				"element": "O" 
			},
			{
				"x": 0.8213694321,
				"y": -0.0345698908,
				"z": -3.5795109812,
				"element": "C" 
			},
			{
				"x": 1.9396529403,
				"y": 0.0818769196,
				"z": -4.0280109995,
				"element": "O" 
			},
			{
				"x": 0.3503152453,
				"y": -0.0447623156,
				"z": -2.1815540807,
				"element": "C" 
			},
			{
				"x": 1.0396166817,
				"y": 0.071030849,
				"z": -0.9799686769,
				"element": "C" 
			},
			{
				"x": 0.5414884819,
				"y": -0.3910608893,
				"z": 2.3465793583,
				"element": "H" 
			},
			{
				"x": 2.0764516356,
				"y": -0.1703839902,
				"z": 1.4944739052,
				"element": "H" 
			},
			{
				"x": 1.0666885738,
				"y": 1.2265491414,
				"z": 1.8737433976,
				"element": "H" 
			},
			{
				"x": -1.6260794264,
				"y": -0.1937355957,
				"z": 1.1112734587,
				"element": "H" 
			},
			{
				"x": -2.4798643255,
				"y": -0.4354640227,
				"z": -3.784797709,
				"element": "H" 
			},
			{
				"x": 2.1185936806,
				"y": 0.1956270191,
				"z": -0.9933417983,
				"element": "H" 
			}
		],
		 "valence_orbital": [ 
			{
				"type": "occ",
				"energy": -0.32826,
				"method": "rhf"
			},
			{
				"type": "occ",
				"energy": -0.31601,
				"method": "rhf"
			},
			{
				"type": "occ",
				"energy": -0.27579,
				"method": "rhf"
			},
			{
				"type": "occ",
				"energy": -0.25275,
				"method": "rhf"
			},
			{
				"type": "occ",
				"energy": -0.24086,
				"method": "rhf"
			},
			{
				"type": "unocc",
				"energy": -0.10405,
				"method": "rhf"
			},
			{
				"type": "unocc",
				"energy": -0.03058,
				"method": "rhf"
			},
			{
				"type": "unocc",
				"energy": -0.00241,
				"method": "rhf"
			},
			{
				"type": "unocc",
				"energy": 0.00932,
				"method": "rhf"
			},
			{
				"type": "unocc",
				"energy": 0.07875,
				"method": "rhf"
			}
		],
		"cosmo_sigma_profile": { 
			"-0.025": 0.0,
			"-0.024": 0.0,
			"-0.023": 0.0,
			"-0.022": 0.0,
			"-0.021": 0.0,
			"-0.02": 0.0,
			"-0.019": 0.0,
			"-0.018": 0.0,
			"-0.017": 0.0233510184046,
			"-0.016": 0.753277155868,
			"-0.015": 0.697897798687,
			"-0.014": 1.07643624009,
			"-0.013": 0.946069923093,
			"-0.012": 0.570317110057,
			"-0.011": 1.05916176682,
			"-0.01": 0.757488767587,
			"-0.009": 1.10457340189,
			"-0.008": 4.02276601273,
			"-0.007": 7.16004613327,
			"-0.006": 8.31870166749,
			"-0.005": 11.1134936942,
			"-0.004": 13.4569196071,
			"-0.003": 14.8213644894,
			"-0.002": 20.2166990711,
			"-0.001": 21.8003787783,
			"0.0": 20.5196553797,
			"0.001": 18.6461121652,
			"0.002": 12.4741109445,
			"0.003": 8.19868912441,
			"0.004": 8.73888629772,
			"0.005": 2.0962847752,
			"0.006": 2.43656989513,
			"0.007": 2.79808501396,
			"0.008": 3.68831709943,
			"0.009": 5.70452623466,
			"0.01": 9.05835353755,
			"0.011": 7.57410980679,
			"0.012": 2.3685980601,
			"0.013": 0.0267883216551,
			"0.014": 0.0,
			"0.015": 0.0,
			"0.016": 0.0,
			"0.017": 0.0,
			"0.018": 0.0,
			"0.019": 0.0,
			"0.02": 0.0,
			"0.021": 0.0,
			"0.022": 0.0,
			"0.023": 0.0,
			"0.024": 0.0,
			"0.025": 0.0
		}
	}
}
