{
	 "smiles": "NC1=CC(F)=C(C=C1)N1C=CN=C1", 
	 "Tm": 572.15, 
	 "num_atms": 21, 
	 "gaussian": { 
		 "optdone": 1, 
		 "sigma_profile": "yes", 
		 "theory": "DFT", 
		 "functional": "B3LYP", 
		 "basiset": "6-31G**", 
		 "properties": { 
			 "R2extent": 3031.6251, 
			 "electric_dipole_moment_norm": 6.36736894329, 
			 "electric_quadrupole_moment_norm": 18.3002639385, 
			 "total_energy": -611.855801912, 
			 "HOMO_LUMO_gap": 0.19229, 
			 "cosmo_polarized_energy": -14.97, 
			 "cosmo_cavitation_energy": 25.83, 
			 "cosmo_dispersion_energy": -18.95, 
			 "cosmo_repulsion_energy": 1.46, 
			 "cosmo_total_nonelectrostatic_energy": 8.34, 
			 "SMD_solvation_energy": 3.93 
		},
		"coords": [
			{
				"x": -1.1796411897,
				"y": 2.1421237996,
				"z": 2.3730814024,
				"element": "N" 
			},
			{
				"x": -0.8655487859,
				"y": 1.0063702105,
				"z": 1.6354324983,
				"element": "C" 
			},
			{
				"x": 0.4175935307,
				"y": 0.8411685409,
				"z": 1.0873689652,
				"element": "C" 
			},
			{
				"x": 0.6946696226,
				"y": -0.2659075662,
				"z": 0.3019265656,
				"element": "C" 
			},
			{
				"x": 1.9345927366,
				"y": -0.3866111626,
				"z": -0.2160985931,
				"element": "F" 
			},
			{
				"x": -0.25561212,
				"y": -1.2577818734,
				"z": 0.0362804111,
				"element": "C" 
			},
			{
				"x": -1.5267095659,
				"y": -1.0896212407,
				"z": 0.5984502097,
				"element": "C" 
			},
			{
				"x": -1.8357416469,
				"y": 0.0209668831,
				"z": 1.3747827373,
				"element": "C" 
			},
			{
				"x": 0.0490366711,
				"y": -2.3768175957,
				"z": -0.7793523899,
				"element": "N" 
			},
			{
				"x": -0.7811170818,
				"y": -2.9445437988,
				"z": -1.7371074179,
				"element": "C" 
			},
			{
				"x": -0.094077,
				"y": -4.0234301411,
				"z": -2.2279115975,
				"element": "C" 
			},
			{
				"x": 1.1311213585,
				"y": -4.1470072566,
				"z": -1.6081781135,
				"element": "N" 
			},
			{
				"x": 1.1865034514,
				"y": -3.1527639536,
				"z": -0.7527874129,
				"element": "C" 
			},
			{
				"x": -1.968910001,
				"y": 2.0557712885,
				"z": 2.9973632249,
				"element": "H" 
			},
			{
				"x": -0.4004188141,
				"y": 2.6236957083,
				"z": 2.7984310491,
				"element": "H" 
			},
			{
				"x": 1.2024160698,
				"y": 1.5726219,
				"z": 1.2502144417,
				"element": "H" 
			},
			{
				"x": -2.2770582664,
				"y": -1.8548635378,
				"z": 0.4283165694,
				"element": "H" 
			},
			{
				"x": -2.8332147458,
				"y": 0.1248610424,
				"z": 1.7919514163,
				"element": "H" 
			},
			{
				"x": -1.7378311241,
				"y": -2.510941856,
				"z": -1.9823057268,
				"element": "H" 
			},
			{
				"x": -0.4087554055,
				"y": -4.7147485928,
				"z": -2.9975571172,
				"element": "H" 
			},
			{
				"x": 2.0064023066,
				"y": -2.930840798,
				"z": -0.0860011221,
				"element": "H" 
			}
		],
		 "valence_orbital": [ 
			{
				"type": "occ",
				"energy": -0.27421,
				"method": "rhf"
			},
			{
				"type": "occ",
				"energy": -0.2604,
				"method": "rhf"
			},
			{
				"type": "occ",
				"energy": -0.25745,
				"method": "rhf"
			},
			{
				"type": "occ",
				"energy": -0.22424,
				"method": "rhf"
			},
			{
				"type": "occ",
				"energy": -0.20891,
				"method": "rhf"
			},
			{
				"type": "unocc",
				"energy": -0.01662,
				"method": "rhf"
			},
			{
				"type": "unocc",
				"energy": -0.00664,
				"method": "rhf"
			},
			{
				"type": "unocc",
				"energy": 0.04374,
				"method": "rhf"
			},
			{
				"type": "unocc",
				"energy": 0.06599,
				"method": "rhf"
			},
			{
				"type": "unocc",
				"energy": 0.07603,
				"method": "rhf"
			}
		],
		"cosmo_sigma_profile": { 
			"-0.025": 0.0,
			"-0.024": 0.0,
			"-0.023": 0.0,
			"-0.022": 0.0,
			"-0.021": 0.0,
			"-0.02": 0.0,
			"-0.019": 0.0,
			"-0.018": 0.0,
			"-0.017": 0.0,
			"-0.016": 0.0,
			"-0.015": 0.0,
			"-0.014": 0.0,
			"-0.013": 2.09407273768,
			"-0.012": 2.60225238865,
			"-0.011": 3.26088513455,
			"-0.01": 3.52110671131,
			"-0.009": 4.11404349121,
			"-0.008": 6.15020676078,
			"-0.007": 8.9636658242,
			"-0.006": 11.0003990214,
			"-0.005": 11.371011602,
			"-0.004": 10.2870475383,
			"-0.003": 9.30547153633,
			"-0.002": 8.64663312698,
			"-0.001": 9.7019202544,
			"0.0": 11.1862789538,
			"0.001": 16.2915418448,
			"0.002": 14.7917033174,
			"0.003": 19.2966851166,
			"0.004": 19.814871353,
			"0.005": 8.50684341855,
			"0.006": 4.98806249173,
			"0.007": 3.40201181545,
			"0.008": 2.34233259174,
			"0.009": 2.72334219029,
			"0.01": 2.22519738654,
			"0.011": 1.54068792516,
			"0.012": 1.90426968303,
			"0.013": 1.93685564946,
			"0.014": 1.16111527363,
			"0.015": 1.08236476705,
			"0.016": 1.13858751863,
			"0.017": 1.15355395273,
			"0.018": 0.700425022051,
			"0.019": 0.0604705155995,
			"0.02": 0.0,
			"0.021": 0.0,
			"0.022": 0.0,
			"0.023": 0.0,
			"0.024": 0.0,
			"0.025": 0.0
		}
	}
}
