{
	 "smiles": "CC1=CC(=CC(Cl)=C1N)C(O)=O", 
	 "Tm": 549.15, 
	 "num_atms": 20, 
	 "gaussian": { 
		 "optdone": 1, 
		 "sigma_profile": "yes", 
		 "theory": "DFT", 
		 "functional": "B3LYP", 
		 "basiset": "6-31G**", 
		 "properties": { 
			 "R2extent": 3123.6457, 
			 "electric_dipole_moment_norm": 7.07604260374, 
			 "electric_quadrupole_moment_norm": 16.5740806967, 
			 "total_energy": -975.087484082, 
			 "HOMO_LUMO_gap": 0.18433, 
			 "cosmo_polarized_energy": -18.26, 
			 "cosmo_cavitation_energy": 25.72, 
			 "cosmo_dispersion_energy": -19.29, 
			 "cosmo_repulsion_energy": 1.53, 
			 "cosmo_total_nonelectrostatic_energy": 7.96, 
			 "SMD_solvation_energy": 5.17 
		},
		"coords": [
			{
				"x": -1.5016864244,
				"y": 1.4789814572,
				"z": 0.4514815244,
				"element": "C" 
			},
			{
				"x": -0.6183763231,
				"y": 0.3926134216,
				"z": -0.1094761777,
				"element": "C" 
			},
			{
				"x": -1.1495055208,
				"y": -0.8155790508,
				"z": -0.5502850582,
				"element": "C" 
			},
			{
				"x": -0.3490960446,
				"y": -1.8289244211,
				"z": -1.0986507411,
				"element": "C" 
			},
			{
				"x": 1.0265378823,
				"y": -1.6016258138,
				"z": -1.2238286841,
				"element": "C" 
			},
			{
				"x": 1.5711113719,
				"y": -0.4105852804,
				"z": -0.7779634669,
				"element": "C" 
			},
			{
				"x": 3.3107808837,
				"y": -0.1569626726,
				"z": -0.9172402819,
				"element": "Cl" 
			},
			{
				"x": 0.7798272094,
				"y": 0.6129042549,
				"z": -0.2107662762,
				"element": "C" 
			},
			{
				"x": 1.3320498769,
				"y": 1.8109846022,
				"z": 0.1808340355,
				"element": "N" 
			},
			{
				"x": -0.8789496411,
				"y": -3.1313793307,
				"z": -1.5976913512,
				"element": "C" 
			},
			{
				"x": -2.124824915,
				"y": -3.4907340735,
				"z": -1.1764034099,
				"element": "O" 
			},
			{
				"x": -0.2640971695,
				"y": -3.8631021698,
				"z": -2.3394379403,
				"element": "O" 
			},
			{
				"x": -1.2639705451,
				"y": 1.7012274653,
				"z": 1.501330782,
				"element": "H" 
			},
			{
				"x": -1.3937449819,
				"y": 2.4145698521,
				"z": -0.1110138927,
				"element": "H" 
			},
			{
				"x": -2.5537611468,
				"y": 1.1870305433,
				"z": 0.4149089649,
				"element": "H" 
			},
			{
				"x": -2.2295227222,
				"y": -0.9358178356,
				"z": -0.4957770958,
				"element": "H" 
			},
			{
				"x": 1.6510499294,
				"y": -2.3690596339,
				"z": -1.6655609181,
				"element": "H" 
			},
			{
				"x": 0.8236921952,
				"y": 2.3638959729,
				"z": 0.8524051752,
				"element": "H" 
			},
			{
				"x": 2.3366015523,
				"y": 1.8418063062,
				"z": 0.2736868704,
				"element": "H" 
			},
			{
				"x": -2.4134154668,
				"y": -2.9102435932,
				"z": -0.4592520582,
				"element": "H" 
			}
		],
		 "valence_orbital": [ 
			{
				"type": "occ",
				"energy": -0.32676,
				"method": "rhf"
			},
			{
				"type": "occ",
				"energy": -0.30711,
				"method": "rhf"
			},
			{
				"type": "occ",
				"energy": -0.26774,
				"method": "rhf"
			},
			{
				"type": "occ",
				"energy": -0.25821,
				"method": "rhf"
			},
			{
				"type": "occ",
				"energy": -0.22455,
				"method": "rhf"
			},
			{
				"type": "unocc",
				"energy": -0.04022,
				"method": "rhf"
			},
			{
				"type": "unocc",
				"energy": -0.0216,
				"method": "rhf"
			},
			{
				"type": "unocc",
				"energy": 0.02179,
				"method": "rhf"
			},
			{
				"type": "unocc",
				"energy": 0.05448,
				"method": "rhf"
			},
			{
				"type": "unocc",
				"energy": 0.05958,
				"method": "rhf"
			}
		],
		"cosmo_sigma_profile": { 
			"-0.025": 0.0,
			"-0.024": 0.0,
			"-0.023": 0.0,
			"-0.022": 0.0,
			"-0.021": 0.0,
			"-0.02": 0.0,
			"-0.019": 0.00343287263674,
			"-0.018": 0.509130842619,
			"-0.017": 0.911893619974,
			"-0.016": 1.12093816809,
			"-0.015": 0.907816058974,
			"-0.014": 1.22763635144,
			"-0.013": 2.17631486845,
			"-0.012": 2.70824274026,
			"-0.011": 3.97554036247,
			"-0.01": 3.82059415169,
			"-0.009": 3.48597583881,
			"-0.008": 4.08209899128,
			"-0.007": 3.18208220617,
			"-0.006": 7.13257902105,
			"-0.005": 8.54957622113,
			"-0.004": 10.4532777695,
			"-0.003": 9.81388638918,
			"-0.002": 12.6085348154,
			"-0.001": 15.1889637051,
			"0.0": 16.1576427845,
			"0.001": 13.5352744592,
			"0.002": 17.7977998153,
			"0.003": 18.7987616814,
			"0.004": 10.3256503596,
			"0.005": 6.85438350361,
			"0.006": 3.04985928327,
			"0.007": 3.07198584379,
			"0.008": 3.04553896012,
			"0.009": 3.6686083388,
			"0.01": 4.06509704466,
			"0.011": 5.57004048257,
			"0.012": 5.66878562649,
			"0.013": 2.94196106735,
			"0.014": 0.532851854175,
			"0.015": 0.0,
			"0.016": 0.0,
			"0.017": 0.0,
			"0.018": 0.0,
			"0.019": 0.0,
			"0.02": 0.0,
			"0.021": 0.0,
			"0.022": 0.0,
			"0.023": 0.0,
			"0.024": 0.0,
			"0.025": 0.0
		}
	}
}
