{
	 "smiles": "FC1=CC=C(F)C=C1", 
	 "Tm": 260.15, 
	 "num_atms": 12, 
	 "gaussian": { 
		 "optdone": 1, 
		 "sigma_profile": "yes", 
		 "theory": "DFT", 
		 "functional": "B3LYP", 
		 "basiset": "6-31G**", 
		 "properties": { 
			 "R2extent": 1184.4418, 
			 "electric_dipole_moment_norm": 0.0, 
			 "electric_quadrupole_moment_norm": 6.85808802947, 
			 "total_energy": -430.713851053, 
			 "HOMO_LUMO_gap": 0.21955, 
			 "cosmo_polarized_energy": -3.29, 
			 "cosmo_cavitation_energy": 17.14, 
			 "cosmo_dispersion_energy": -12.57, 
			 "cosmo_repulsion_energy": 1.0, 
			 "cosmo_total_nonelectrostatic_energy": 5.57, 
			 "SMD_solvation_energy": 4.1 
		},
		"coords": [
			{
				"x": 1.0743662815,
				"y": 1.3572993115,
				"z": -1.2708087475,
				"element": "F" 
			},
			{
				"x": 0.0329523638,
				"y": 0.592356643,
				"z": -0.879272595,
				"element": "C" 
			},
			{
				"x": -0.0937184923,
				"y": -0.6915250737,
				"z": -1.3993293562,
				"element": "C" 
			},
			{
				"x": -1.1700375046,
				"y": -1.4820837084,
				"z": -0.9946777433,
				"element": "C" 
			},
			{
				"x": -2.0835188028,
				"y": -0.962205747,
				"z": -0.0835606097,
				"element": "C" 
			},
			{
				"x": -3.1249359703,
				"y": -1.727140048,
				"z": 0.307979153,
				"element": "F" 
			},
			{
				"x": -1.9568450376,
				"y": 0.3216805502,
				"z": 0.4364969223,
				"element": "C" 
			},
			{
				"x": -0.8805319802,
				"y": 1.112231118,
				"z": 0.0318458417,
				"element": "C" 
			},
			{
				"x": 0.6410006997,
				"y": -1.0580952258,
				"z": -2.1076131224,
				"element": "H" 
			},
			{
				"x": -1.3060203237,
				"y": -2.4882041015,
				"z": -1.3755741716,
				"element": "H" 
			},
			{
				"x": -2.6915756278,
				"y": 0.6882307592,
				"z": 1.1447818069,
				"element": "H" 
			},
			{
				"x": -0.7445356056,
				"y": 2.1183555226,
				"z": 0.4127326217,
				"element": "H" 
			}
		],
		 "valence_orbital": [ 
			{
				"type": "occ",
				"energy": -0.37608,
				"method": "rhf"
			},
			{
				"type": "occ",
				"energy": -0.35482,
				"method": "rhf"
			},
			{
				"type": "occ",
				"energy": -0.35145,
				"method": "rhf"
			},
			{
				"type": "occ",
				"energy": -0.27131,
				"method": "rhf"
			},
			{
				"type": "occ",
				"energy": -0.24131,
				"method": "rhf"
			},
			{
				"type": "unocc",
				"energy": -0.02176,
				"method": "rhf"
			},
			{
				"type": "unocc",
				"energy": 0.00317,
				"method": "rhf"
			},
			{
				"type": "unocc",
				"energy": 0.0765,
				"method": "rhf"
			},
			{
				"type": "unocc",
				"energy": 0.1316,
				"method": "rhf"
			},
			{
				"type": "unocc",
				"energy": 0.1435,
				"method": "rhf"
			}
		],
		"cosmo_sigma_profile": { 
			"-0.025": 0.0,
			"-0.024": 0.0,
			"-0.023": 0.0,
			"-0.022": 0.0,
			"-0.021": 0.0,
			"-0.02": 0.0,
			"-0.019": 0.0,
			"-0.018": 0.0,
			"-0.017": 0.0,
			"-0.016": 0.0,
			"-0.015": 0.0,
			"-0.014": 0.0,
			"-0.013": 0.0,
			"-0.012": 0.0,
			"-0.011": 0.0,
			"-0.01": 0.0,
			"-0.009": 0.0,
			"-0.008": 2.73014263382,
			"-0.007": 8.01686931565,
			"-0.006": 6.88633350044,
			"-0.005": 7.68373902353,
			"-0.004": 6.15451439318,
			"-0.003": 5.52570601464,
			"-0.002": 5.31228971376,
			"-0.001": 6.6975142227,
			"0.0": 11.2069565865,
			"0.001": 17.7637634412,
			"0.002": 18.046555881,
			"0.003": 15.4044352183,
			"0.004": 19.6298415666,
			"0.005": 7.33111812072,
			"0.006": 0.0,
			"0.007": 0.0,
			"0.008": 0.0,
			"0.009": 0.0,
			"0.01": 0.0,
			"0.011": 0.0,
			"0.012": 0.0,
			"0.013": 0.0,
			"0.014": 0.0,
			"0.015": 0.0,
			"0.016": 0.0,
			"0.017": 0.0,
			"0.018": 0.0,
			"0.019": 0.0,
			"0.02": 0.0,
			"0.021": 0.0,
			"0.022": 0.0,
			"0.023": 0.0,
			"0.024": 0.0,
			"0.025": 0.0
		}
	}
}
