{
	 "smiles": "CNC1=CC(=O)NN=C1", 
	 "Tm": 553.15, 
	 "num_atms": 16, 
	 "gaussian": { 
		 "optdone": 1, 
		 "sigma_profile": "yes", 
		 "theory": "DFT", 
		 "functional": "B3LYP", 
		 "basiset": "6-31G**", 
		 "properties": { 
			 "R2extent": 1948.213, 
			 "electric_dipole_moment_norm": 5.55725688537, 
			 "electric_quadrupole_moment_norm": 24.3750758304, 
			 "total_energy": -434.203542992, 
			 "HOMO_LUMO_gap": 0.17118, 
			 "cosmo_polarized_energy": -16.72, 
			 "cosmo_cavitation_energy": 20.13, 
			 "cosmo_dispersion_energy": -15.27, 
			 "cosmo_repulsion_energy": 1.26, 
			 "cosmo_total_nonelectrostatic_energy": 6.11, 
			 "SMD_solvation_energy": 3.21 
		},
		"coords": [
			{
				"x": -3.7218736391,
				"y": -1.8242343589,
				"z": 0.9792935783,
				"element": "C" 
			},
			{
				"x": -3.4633351904,
				"y": -0.7908106962,
				"z": -0.0061347146,
				"element": "N" 
			},
			{
				"x": -2.2201941061,
				"y": -0.415445146,
				"z": -0.4415033155,
				"element": "C" 
			},
			{
				"x": -2.0379305421,
				"y": 0.4502184684,
				"z": -1.500506952,
				"element": "C" 
			},
			{
				"x": -0.7217585777,
				"y": 0.8499551542,
				"z": -1.9224015483,
				"element": "C" 
			},
			{
				"x": -0.420913363,
				"y": 1.6080544838,
				"z": -2.8403403567,
				"element": "O" 
			},
			{
				"x": 0.3023451879,
				"y": 0.2595098311,
				"z": -1.1445065479,
				"element": "N" 
			},
			{
				"x": 0.1720904342,
				"y": -0.5834679415,
				"z": -0.1210845103,
				"element": "N" 
			},
			{
				"x": -1.0396241623,
				"y": -0.9165519792,
				"z": 0.2270147277,
				"element": "C" 
			},
			{
				"x": -3.3295308135,
				"y": -2.8064396013,
				"z": 0.6813496763,
				"element": "H" 
			},
			{
				"x": -3.2961092171,
				"y": -1.5637202977,
				"z": 1.9549669104,
				"element": "H" 
			},
			{
				"x": -4.8019556202,
				"y": -1.9160853099,
				"z": 1.1072486563,
				"element": "H" 
			},
			{
				"x": -4.2395920586,
				"y": -0.4994380704,
				"z": -0.5793765856,
				"element": "H" 
			},
			{
				"x": -2.8758701591,
				"y": 0.8643202072,
				"z": -2.0516215313,
				"element": "H" 
			},
			{
				"x": 1.2527729557,
				"y": 0.5026743124,
				"z": -1.3967998127,
				"element": "H" 
			},
			{
				"x": -1.1100211286,
				"y": -1.603439056,
				"z": 1.0623023262,
				"element": "H" 
			}
		],
		 "valence_orbital": [ 
			{
				"type": "occ",
				"energy": -0.35012,
				"method": "rhf"
			},
			{
				"type": "occ",
				"energy": -0.30537,
				"method": "rhf"
			},
			{
				"type": "occ",
				"energy": -0.245,
				"method": "rhf"
			},
			{
				"type": "occ",
				"energy": -0.23602,
				"method": "rhf"
			},
			{
				"type": "occ",
				"energy": -0.21524,
				"method": "rhf"
			},
			{
				"type": "unocc",
				"energy": -0.04406,
				"method": "rhf"
			},
			{
				"type": "unocc",
				"energy": 0.021,
				"method": "rhf"
			},
			{
				"type": "unocc",
				"energy": 0.0632,
				"method": "rhf"
			},
			{
				"type": "unocc",
				"energy": 0.0891,
				"method": "rhf"
			},
			{
				"type": "unocc",
				"energy": 0.10255,
				"method": "rhf"
			}
		],
		"cosmo_sigma_profile": { 
			"-0.025": 0.0,
			"-0.024": 0.0,
			"-0.023": 0.0,
			"-0.022": 0.0,
			"-0.021": 0.0,
			"-0.02": 0.0,
			"-0.019": 0.0,
			"-0.018": 0.0,
			"-0.017": 0.0,
			"-0.016": 0.0493940858824,
			"-0.015": 1.16218698523,
			"-0.014": 1.79751351808,
			"-0.013": 2.93625211571,
			"-0.012": 1.89221714003,
			"-0.011": 2.54804428327,
			"-0.01": 2.18023393434,
			"-0.009": 2.52998815848,
			"-0.008": 3.5512468877,
			"-0.007": 5.23348997262,
			"-0.006": 7.62258271047,
			"-0.005": 11.7494349389,
			"-0.004": 9.45237782191,
			"-0.003": 10.5521704105,
			"-0.002": 10.1887593975,
			"-0.001": 8.96237013175,
			"0.0": 11.267807556,
			"0.001": 9.61889290744,
			"0.002": 9.15998575529,
			"0.003": 8.0105758048,
			"0.004": 5.12408679902,
			"0.005": 3.33072613924,
			"0.006": 3.61506071188,
			"0.007": 1.85327038155,
			"0.008": 1.86572753837,
			"0.009": 2.53140976116,
			"0.01": 2.77755185736,
			"0.011": 1.80050961528,
			"0.012": 1.86285472601,
			"0.013": 2.64234669016,
			"0.014": 3.8145481934,
			"0.015": 6.34982779621,
			"0.016": 1.65119903898,
			"0.017": 0.0410508374885,
			"0.018": 0.0,
			"0.019": 0.0,
			"0.02": 0.0,
			"0.021": 0.0,
			"0.022": 0.0,
			"0.023": 0.0,
			"0.024": 0.0,
			"0.025": 0.0
		}
	}
}
