{
	 "smiles": "CN1C(C)=NC(=C1N)C1=CC=CC=C1", 
	 "Tm": 419.15, 
	 "num_atms": 27, 
	 "gaussian": { 
		 "optdone": 1, 
		 "sigma_profile": "yes", 
		 "theory": "DFT", 
		 "functional": "B3LYP", 
		 "basiset": "6-31G**", 
		 "properties": { 
			 "R2extent": 3449.9865, 
			 "electric_dipole_moment_norm": 4.28755843342, 
			 "electric_quadrupole_moment_norm": 7.8873847345, 
			 "total_energy": -591.271032902, 
			 "HOMO_LUMO_gap": 0.17977, 
			 "cosmo_polarized_energy": -15.48, 
			 "cosmo_cavitation_energy": 29.95, 
			 "cosmo_dispersion_energy": -22.02, 
			 "cosmo_repulsion_energy": 1.73, 
			 "cosmo_total_nonelectrostatic_energy": 9.67, 
			 "SMD_solvation_energy": 3.54 
		},
		"coords": [
			{
				"x": -1.6617172117,
				"y": 0.1834064458,
				"z": -2.507209527,
				"element": "C" 
			},
			{
				"x": -1.0684908184,
				"y": -0.0596387471,
				"z": -1.2058249725,
				"element": "N" 
			},
			{
				"x": -1.5635952487,
				"y": -0.842601929,
				"z": -0.1773639853,
				"element": "C" 
			},
			{
				"x": -2.8388813505,
				"y": -1.6140149106,
				"z": -0.2744435851,
				"element": "C" 
			},
			{
				"x": -0.7745486737,
				"y": -0.8055316246,
				"z": 0.8689392005,
				"element": "N" 
			},
			{
				"x": 0.2895585753,
				"y": 0.0229227826,
				"z": 0.5396395634,
				"element": "C" 
			},
			{
				"x": 0.12442241,
				"y": 0.4787596146,
				"z": -0.7580864361,
				"element": "C" 
			},
			{
				"x": 0.8728491213,
				"y": 1.3198680055,
				"z": -1.5966033298,
				"element": "N" 
			},
			{
				"x": 1.38719971,
				"y": 0.2788542367,
				"z": 1.476602297,
				"element": "C" 
			},
			{
				"x": 1.7206496379,
				"y": -0.6909195471,
				"z": 2.4410513149,
				"element": "C" 
			},
			{
				"x": 2.7749868111,
				"y": -0.4843144692,
				"z": 3.3259448399,
				"element": "C" 
			},
			{
				"x": 3.5273034557,
				"y": 0.6934462861,
				"z": 3.2722370568,
				"element": "C" 
			},
			{
				"x": 3.1951226731,
				"y": 1.6731958477,
				"z": 2.336457255,
				"element": "C" 
			},
			{
				"x": 2.1302939778,
				"y": 1.4741500676,
				"z": 1.4562148191,
				"element": "C" 
			},
			{
				"x": -1.313571325,
				"y": -0.5352539967,
				"z": -3.2599836821,
				"element": "H" 
			},
			{
				"x": -1.3991935918,
				"y": 1.1924697423,
				"z": -2.8343300049,
				"element": "H" 
			},
			{
				"x": -2.7483357754,
				"y": 0.1078801143,
				"z": -2.4363056066,
				"element": "H" 
			},
			{
				"x": -3.7107970715,
				"y": -0.9654269305,
				"z": -0.4282162323,
				"element": "H" 
			},
			{
				"x": -2.8242477288,
				"y": -2.3450025868,
				"z": -1.0924409488,
				"element": "H" 
			},
			{
				"x": -2.9782164118,
				"y": -2.1512388207,
				"z": 0.6647260109,
				"element": "H" 
			},
			{
				"x": 1.724323093,
				"y": 1.6160057221,
				"z": -1.1340857943,
				"element": "H" 
			},
			{
				"x": 1.1294008571,
				"y": 0.8656929428,
				"z": -2.4705044555,
				"element": "H" 
			},
			{
				"x": 1.134468795,
				"y": -1.6030702595,
				"z": 2.4784045176,
				"element": "H" 
			},
			{
				"x": 3.016036064,
				"y": -1.2482237931,
				"z": 4.0605418926,
				"element": "H" 
			},
			{
				"x": 4.3527322477,
				"y": 0.8498104676,
				"z": 3.9607675351,
				"element": "H" 
			},
			{
				"x": 3.7514281558,
				"y": 2.6062574983,
				"z": 2.3032219118,
				"element": "H" 
			},
			{
				"x": 1.8380196223,
				"y": 2.2829178409,
				"z": 0.7911503454,
				"element": "H" 
			}
		],
		 "valence_orbital": [ 
			{
				"type": "occ",
				"energy": -0.26961,
				"method": "rhf"
			},
			{
				"type": "occ",
				"energy": -0.25412,
				"method": "rhf"
			},
			{
				"type": "occ",
				"energy": -0.23685,
				"method": "rhf"
			},
			{
				"type": "occ",
				"energy": -0.23293,
				"method": "rhf"
			},
			{
				"type": "occ",
				"energy": -0.17812,
				"method": "rhf"
			},
			{
				"type": "unocc",
				"energy": 0.00165,
				"method": "rhf"
			},
			{
				"type": "unocc",
				"energy": 0.01092,
				"method": "rhf"
			},
			{
				"type": "unocc",
				"energy": 0.04113,
				"method": "rhf"
			},
			{
				"type": "unocc",
				"energy": 0.06716,
				"method": "rhf"
			},
			{
				"type": "unocc",
				"energy": 0.09795,
				"method": "rhf"
			}
		],
		"cosmo_sigma_profile": { 
			"-0.025": 0.0,
			"-0.024": 0.0,
			"-0.023": 0.0,
			"-0.022": 0.0,
			"-0.021": 0.0,
			"-0.02": 0.0,
			"-0.019": 0.0,
			"-0.018": 0.0,
			"-0.017": 0.0,
			"-0.016": 0.0,
			"-0.015": 0.0,
			"-0.014": 0.0,
			"-0.013": 0.383784841589,
			"-0.012": 1.52933797672,
			"-0.011": 2.36777677888,
			"-0.01": 3.09647314132,
			"-0.009": 3.05553977401,
			"-0.008": 2.72523706497,
			"-0.007": 3.28037321451,
			"-0.006": 8.89508175348,
			"-0.005": 20.0823644606,
			"-0.004": 23.8935159015,
			"-0.003": 25.6241929688,
			"-0.002": 17.318195132,
			"-0.001": 15.6416563057,
			"0.0": 13.1661146012,
			"0.001": 9.45223342535,
			"0.002": 10.0360645424,
			"0.003": 10.6841541817,
			"0.004": 11.5533027198,
			"0.005": 14.8117762321,
			"0.006": 14.8338831923,
			"0.007": 8.26677941656,
			"0.008": 2.69510333821,
			"0.009": 2.03945283309,
			"0.01": 2.32335684815,
			"0.011": 2.47489063674,
			"0.012": 1.90095381097,
			"0.013": 1.67826089307,
			"0.014": 1.24756512404,
			"0.015": 0.868545521102,
			"0.016": 0.907634181494,
			"0.017": 0.681066242236,
			"0.018": 0.353566765433,
			"0.019": 0.0,
			"0.02": 0.0,
			"0.021": 0.0,
			"0.022": 0.0,
			"0.023": 0.0,
			"0.024": 0.0,
			"0.025": 0.0
		}
	}
}
