{
	 "smiles": "CS(=O)(=O)NC1=NC(CC(O)=O)=CS1", 
	 "Tm": 453.15, 
	 "num_atms": 22, 
	 "gaussian": { 
		 "optdone": 1, 
		 "sigma_profile": "yes", 
		 "theory": "DFT", 
		 "functional": "B3LYP", 
		 "basiset": "6-31G**", 
		 "properties": { 
			 "R2extent": 4645.3341, 
			 "electric_dipole_moment_norm": 3.55324533349, 
			 "electric_quadrupole_moment_norm": 15.5884290379, 
			 "total_energy": -1440.17071804, 
			 "HOMO_LUMO_gap": 0.20338, 
			 "cosmo_polarized_energy": -22.6, 
			 "cosmo_cavitation_energy": 30.59, 
			 "cosmo_dispersion_energy": -22.47, 
			 "cosmo_repulsion_energy": 1.73, 
			 "cosmo_total_nonelectrostatic_energy": 9.84, 
			 "SMD_solvation_energy": 5.3 
		},
		"coords": [
			{
				"x": -1.8676400029,
				"y": -0.4916956076,
				"z": 0.4773812034,
				"element": "C" 
			},
			{
				"x": -1.0064585578,
				"y": -1.6699280141,
				"z": -0.5652551507,
				"element": "S" 
			},
			{
				"x": 0.1741237432,
				"y": -2.1493767636,
				"z": 0.1467662726,
				"element": "O" 
			},
			{
				"x": -1.9537545524,
				"y": -2.6007301994,
				"z": -1.1795121173,
				"element": "O" 
			},
			{
				"x": -0.5531168481,
				"y": -0.6638852475,
				"z": -1.8957570476,
				"element": "N" 
			},
			{
				"x": 0.5194191336,
				"y": 0.21595772,
				"z": -1.8236882562,
				"element": "C" 
			},
			{
				"x": 0.8138152421,
				"y": 0.9030760731,
				"z": -0.7619930572,
				"element": "N" 
			},
			{
				"x": 1.9133689492,
				"y": 1.71064371,
				"z": -0.9850829087,
				"element": "C" 
			},
			{
				"x": 2.4103427072,
				"y": 2.5746369039,
				"z": 0.1344766583,
				"element": "C" 
			},
			{
				"x": 1.4745664146,
				"y": 3.7274607521,
				"z": 0.4687376291,
				"element": "C" 
			},
			{
				"x": 1.8325638149,
				"y": 4.303401931,
				"z": 1.6424418997,
				"element": "O" 
			},
			{
				"x": 0.5481812112,
				"y": 4.1194975707,
				"z": -0.2007543303,
				"element": "O" 
			},
			{
				"x": 2.4512261244,
				"y": 1.6416583522,
				"z": -2.2350805521,
				"element": "C" 
			},
			{
				"x": 1.5752153895,
				"y": 0.4924522587,
				"z": -3.2092285574,
				"element": "S" 
			},
			{
				"x": -2.747052213,
				"y": -0.1344047036,
				"z": -0.058103002,
				"element": "H" 
			},
			{
				"x": -1.1711686341,
				"y": 0.3196544543,
				"z": 0.6928025213,
				"element": "H" 
			},
			{
				"x": -2.1505500539,
				"y": -1.026739419,
				"z": 1.385732909,
				"element": "H" 
			},
			{
				"x": -0.7054391795,
				"y": -1.1622651055,
				"z": -2.7658927308,
				"element": "H" 
			},
			{
				"x": 2.5546092704,
				"y": 1.9795581523,
				"z": 1.0426842935,
				"element": "H" 
			},
			{
				"x": 3.3868976063,
				"y": 3.0061680916,
				"z": -0.1117002032,
				"element": "H" 
			},
			{
				"x": 1.2165253134,
				"y": 5.042589063,
				"z": 1.780043127,
				"element": "H" 
			},
			{
				"x": 3.2807251216,
				"y": 2.1978700276,
				"z": -2.6467186003,
				"element": "H" 
			}
		],
		 "valence_orbital": [ 
			{
				"type": "occ",
				"energy": -0.30613,
				"method": "rhf"
			},
			{
				"type": "occ",
				"energy": -0.29382,
				"method": "rhf"
			},
			{
				"type": "occ",
				"energy": -0.29125,
				"method": "rhf"
			},
			{
				"type": "occ",
				"energy": -0.28321,
				"method": "rhf"
			},
			{
				"type": "occ",
				"energy": -0.2339,
				"method": "rhf"
			},
			{
				"type": "unocc",
				"energy": -0.03052,
				"method": "rhf"
			},
			{
				"type": "unocc",
				"energy": -0.00879,
				"method": "rhf"
			},
			{
				"type": "unocc",
				"energy": 0.00362,
				"method": "rhf"
			},
			{
				"type": "unocc",
				"energy": 0.02527,
				"method": "rhf"
			},
			{
				"type": "unocc",
				"energy": 0.04737,
				"method": "rhf"
			}
		],
		"cosmo_sigma_profile": { 
			"-0.025": 0.0,
			"-0.024": 0.0,
			"-0.023": 0.0,
			"-0.022": 0.0,
			"-0.021": 0.0,
			"-0.02": 0.0,
			"-0.019": 0.0752230299971,
			"-0.018": 0.884576560239,
			"-0.017": 1.86015418354,
			"-0.016": 1.69142017156,
			"-0.015": 2.00630099472,
			"-0.014": 2.10550579355,
			"-0.013": 1.4875307121,
			"-0.012": 1.63538082688,
			"-0.011": 1.82741289857,
			"-0.01": 3.20163445993,
			"-0.009": 7.5044127473,
			"-0.008": 10.1171628779,
			"-0.007": 11.8778259065,
			"-0.006": 12.0783018262,
			"-0.005": 13.6319817145,
			"-0.004": 12.7354707099,
			"-0.003": 12.095950989,
			"-0.002": 9.12282404884,
			"-0.001": 11.4113076419,
			"0.0": 12.3259484819,
			"0.001": 13.2597236576,
			"0.002": 15.7860858061,
			"0.003": 12.7083426021,
			"0.004": 5.61585617729,
			"0.005": 6.11955725129,
			"0.006": 7.30840928988,
			"0.007": 6.86543615692,
			"0.008": 6.87418816486,
			"0.009": 8.6165360418,
			"0.01": 16.6923124453,
			"0.011": 12.3822396048,
			"0.012": 4.0109436499,
			"0.013": 0.171595157099,
			"0.014": 0.0,
			"0.015": 0.0,
			"0.016": 0.0,
			"0.017": 0.0,
			"0.018": 0.0,
			"0.019": 0.0,
			"0.02": 0.0,
			"0.021": 0.0,
			"0.022": 0.0,
			"0.023": 0.0,
			"0.024": 0.0,
			"0.025": 0.0
		}
	}
}
