{
	 "smiles": "CC(C)N1N=NC2=C1C=CC(=C2)C(Cl)=O", 
	 "Tm": 415.15, 
	 "num_atms": 25, 
	 "gaussian": { 
		 "optdone": 1, 
		 "sigma_profile": "yes", 
		 "theory": "DFT", 
		 "functional": "B3LYP", 
		 "basiset": "6-31G**", 
		 "properties": { 
			 "R2extent": 7180.6504, 
			 "electric_dipole_moment_norm": 6.4942473567, 
			 "electric_quadrupole_moment_norm": 17.1064992117, 
			 "total_energy": -1086.74882598, 
			 "HOMO_LUMO_gap": 0.17839, 
			 "cosmo_polarized_energy": -12.62, 
			 "cosmo_cavitation_energy": 31.27, 
			 "cosmo_dispersion_energy": -22.47, 
			 "cosmo_repulsion_energy": 1.75, 
			 "cosmo_total_nonelectrostatic_energy": 10.55, 
			 "SMD_solvation_energy": 4.33 
		},
		"coords": [
			{
				"x": 0.5961053557,
				"y": -0.6451521602,
				"z": 2.3306014779,
				"element": "C" 
			},
			{
				"x": 0.2530562814,
				"y": -1.027525622,
				"z": 0.8866160612,
				"element": "C" 
			},
			{
				"x": 0.0629471946,
				"y": -2.5367788904,
				"z": 0.69947759,
				"element": "C" 
			},
			{
				"x": 1.2893577764,
				"y": -0.5269327514,
				"z": -0.0326462641,
				"element": "N" 
			},
			{
				"x": 2.5767243988,
				"y": -0.9827210096,
				"z": 0.0752364687,
				"element": "N" 
			},
			{
				"x": 3.3143858241,
				"y": -0.4185478941,
				"z": -0.8201263319,
				"element": "N" 
			},
			{
				"x": 2.5195961542,
				"y": 0.4388628817,
				"z": -1.5548622202,
				"element": "C" 
			},
			{
				"x": 1.2017759725,
				"y": 0.3741568807,
				"z": -1.0490879366,
				"element": "C" 
			},
			{
				"x": 0.1597420743,
				"y": 1.1415539282,
				"z": -1.5985863789,
				"element": "C" 
			},
			{
				"x": 0.4826949623,
				"y": 1.9658172776,
				"z": -2.6602106959,
				"element": "C" 
			},
			{
				"x": 1.8061253388,
				"y": 2.0397384244,
				"z": -3.1785770515,
				"element": "C" 
			},
			{
				"x": 2.8372556206,
				"y": 1.2737587826,
				"z": -2.6271438862,
				"element": "C" 
			},
			{
				"x": 2.1907231776,
				"y": 2.9093499568,
				"z": -4.3130602175,
				"element": "C" 
			},
			{
				"x": 0.829949647,
				"y": 3.9127379535,
				"z": -5.0303780501,
				"element": "Cl" 
			},
			{
				"x": 3.2818279845,
				"y": 3.0108839886,
				"z": -4.7876864147,
				"element": "O" 
			},
			{
				"x": 1.5328552744,
				"y": -1.1176184355,
				"z": 2.6368462244,
				"element": "H" 
			},
			{
				"x": 0.7046268038,
				"y": 0.4380807955,
				"z": 2.4353208435,
				"element": "H" 
			},
			{
				"x": -0.1995332565,
				"y": -0.9793527764,
				"z": 3.0029538032,
				"element": "H" 
			},
			{
				"x": -0.6639369988,
				"y": -0.5098407593,
				"z": 0.5859538597,
				"element": "H" 
			},
			{
				"x": -0.2008950764,
				"y": -2.77458067,
				"z": -0.3349187371,
				"element": "H" 
			},
			{
				"x": 0.9824776796,
				"y": -3.0703096241,
				"z": 0.9530921758,
				"element": "H" 
			},
			{
				"x": -0.7392789654,
				"y": -2.8943465152,
				"z": 1.3516802874,
				"element": "H" 
			},
			{
				"x": -0.8544880072,
				"y": 1.0980493113,
				"z": -1.2166118235,
				"element": "H" 
			},
			{
				"x": -0.2882171238,
				"y": 2.5750010327,
				"z": -3.1147706528,
				"element": "H" 
			},
			{
				"x": 3.8441219074,
				"y": 1.3318158948,
				"z": -3.0236121308,
				"element": "H" 
			}
		],
		 "valence_orbital": [ 
			{
				"type": "occ",
				"energy": -0.31915,
				"method": "rhf"
			},
			{
				"type": "occ",
				"energy": -0.29369,
				"method": "rhf"
			},
			{
				"type": "occ",
				"energy": -0.2815,
				"method": "rhf"
			},
			{
				"type": "occ",
				"energy": -0.27409,
				"method": "rhf"
			},
			{
				"type": "occ",
				"energy": -0.25755,
				"method": "rhf"
			},
			{
				"type": "unocc",
				"energy": -0.07916,
				"method": "rhf"
			},
			{
				"type": "unocc",
				"energy": -0.0523,
				"method": "rhf"
			},
			{
				"type": "unocc",
				"energy": 0.0141,
				"method": "rhf"
			},
			{
				"type": "unocc",
				"energy": 0.0178,
				"method": "rhf"
			},
			{
				"type": "unocc",
				"energy": 0.03908,
				"method": "rhf"
			}
		],
		"cosmo_sigma_profile": { 
			"-0.025": 0.0,
			"-0.024": 0.0,
			"-0.023": 0.0,
			"-0.022": 0.0,
			"-0.021": 0.0,
			"-0.02": 0.0,
			"-0.019": 0.0,
			"-0.018": 0.0,
			"-0.017": 0.0,
			"-0.016": 0.0,
			"-0.015": 0.0,
			"-0.014": 0.0,
			"-0.013": 0.0,
			"-0.012": 0.0,
			"-0.011": 0.0,
			"-0.01": 0.0311835590246,
			"-0.009": 1.91781832123,
			"-0.008": 5.22821831985,
			"-0.007": 7.26957665972,
			"-0.006": 6.75207862519,
			"-0.005": 12.3654282515,
			"-0.004": 21.3926606055,
			"-0.003": 21.6451997984,
			"-0.002": 24.2699357035,
			"-0.001": 30.5854769563,
			"0.0": 29.8827126332,
			"0.001": 17.5852286445,
			"0.002": 11.9508439766,
			"0.003": 9.20330723297,
			"0.004": 11.6673319596,
			"0.005": 7.94887959647,
			"0.006": 4.86279643385,
			"0.007": 5.04027821532,
			"0.008": 6.34788189742,
			"0.009": 5.55563039519,
			"0.01": 4.26879752614,
			"0.011": 2.17088118878,
			"0.012": 1.61235877712,
			"0.013": 1.06129680666,
			"0.014": 1.14168968535,
			"0.015": 0.342302446856,
			"0.016": 0.0,
			"0.017": 0.0,
			"0.018": 0.0,
			"0.019": 0.0,
			"0.02": 0.0,
			"0.021": 0.0,
			"0.022": 0.0,
			"0.023": 0.0,
			"0.024": 0.0,
			"0.025": 0.0
		}
	}
}
