{
	 "smiles": "CSC1=NC2=C(N1)C=CC(NCC1=CC=CC=C1)=C2", 
	 "Tm": 439.15, 
	 "num_atms": 34, 
	 "gaussian": { 
		 "optdone": 1, 
		 "sigma_profile": "yes", 
		 "theory": "DFT", 
		 "functional": "B3LYP", 
		 "basiset": "6-31G**", 
		 "properties": { 
			 "R2extent": 8497.6468, 
			 "electric_dipole_moment_norm": 1.53554099261, 
			 "electric_quadrupole_moment_norm": 13.0171967685, 
			 "total_energy": -1143.08766589, 
			 "HOMO_LUMO_gap": 0.17139, 
			 "cosmo_polarized_energy": -16.4, 
			 "cosmo_cavitation_energy": 39.38, 
			 "cosmo_dispersion_energy": -28.73, 
			 "cosmo_repulsion_energy": 2.18, 
			 "cosmo_total_nonelectrostatic_energy": 12.82, 
			 "SMD_solvation_energy": 3.47 
		},
		"coords": [
			{
				"x": -2.3155781636,
				"y": -1.0099197458,
				"z": -4.5073966846,
				"element": "C" 
			},
			{
				"x": -1.2046348094,
				"y": -2.4343766258,
				"z": -4.2419761641,
				"element": "S" 
			},
			{
				"x": -1.0189254274,
				"y": -2.3211041918,
				"z": -2.491549663,
				"element": "C" 
			},
			{
				"x": -1.5623547742,
				"y": -1.4166587566,
				"z": -1.7123854891,
				"element": "N" 
			},
			{
				"x": -1.1256200749,
				"y": -1.7447661509,
				"z": -0.431886105,
				"element": "C" 
			},
			{
				"x": -0.2948305429,
				"y": -2.88621313,
				"z": -0.4719628427,
				"element": "C" 
			},
			{
				"x": -0.2425739082,
				"y": -3.2373631967,
				"z": -1.8182364085,
				"element": "N" 
			},
			{
				"x": 0.2717718891,
				"y": -3.4177810283,
				"z": 0.6832460791,
				"element": "C" 
			},
			{
				"x": -0.0080382752,
				"y": -2.7729976598,
				"z": 1.8842804684,
				"element": "C" 
			},
			{
				"x": -0.8443341105,
				"y": -1.6286839512,
				"z": 1.9578200515,
				"element": "C" 
			},
			{
				"x": -1.1336962776,
				"y": -1.1004700132,
				"z": 3.2276613587,
				"element": "N" 
			},
			{
				"x": -1.3706737943,
				"y": 0.3298423843,
				"z": 3.4483717759,
				"element": "C" 
			},
			{
				"x": -0.110597889,
				"y": 1.1755099634,
				"z": 3.5428452822,
				"element": "C" 
			},
			{
				"x": 0.6022982322,
				"y": 1.5537052058,
				"z": 2.3946022474,
				"element": "C" 
			},
			{
				"x": 1.7804498771,
				"y": 2.2924978601,
				"z": 2.5012042931,
				"element": "C" 
			},
			{
				"x": 2.2645823766,
				"y": 2.6695736127,
				"z": 3.7565306788,
				"element": "C" 
			},
			{
				"x": 1.5623804511,
				"y": 2.3031557198,
				"z": 4.9051229049,
				"element": "C" 
			},
			{
				"x": 0.384236978,
				"y": 1.5615525456,
				"z": 4.7952095427,
				"element": "C" 
			},
			{
				"x": -1.409245474,
				"y": -1.1117478461,
				"z": 0.7827295692,
				"element": "C" 
			},
			{
				"x": -2.5057233621,
				"y": -0.9754483512,
				"z": -5.5816998119,
				"element": "H" 
			},
			{
				"x": -1.8329902931,
				"y": -0.0909103952,
				"z": -4.1757125247,
				"element": "H" 
			},
			{
				"x": -3.2467396348,
				"y": -1.1531482502,
				"z": -3.9596807167,
				"element": "H" 
			},
			{
				"x": 0.2581826003,
				"y": -4.0105898817,
				"z": -2.2265751601,
				"element": "H" 
			},
			{
				"x": 0.9147712242,
				"y": -4.2926387079,
				"z": 0.6630563008,
				"element": "H" 
			},
			{
				"x": 0.4253627665,
				"y": -3.1602785914,
				"z": 2.8030926528,
				"element": "H" 
			},
			{
				"x": -0.5287934439,
				"y": -1.4872511834,
				"z": 3.9418920135,
				"element": "H" 
			},
			{
				"x": -2.0231215804,
				"y": 0.6982298916,
				"z": 2.6534610799,
				"element": "H" 
			},
			{
				"x": -1.9395761679,
				"y": 0.4268181591,
				"z": 4.3800992345,
				"element": "H" 
			},
			{
				"x": 0.2334862649,
				"y": 1.2640306245,
				"z": 1.4150584398,
				"element": "H" 
			},
			{
				"x": 2.3193408757,
				"y": 2.5792220396,
				"z": 1.6023637818,
				"element": "H" 
			},
			{
				"x": 3.1800526619,
				"y": 3.2488120775,
				"z": 3.8372325605,
				"element": "H" 
			},
			{
				"x": 1.9276886137,
				"y": 2.5969305882,
				"z": 5.8853583411,
				"element": "H" 
			},
			{
				"x": -0.1627971933,
				"y": 1.2836130756,
				"z": 5.693868031,
				"element": "H" 
			},
			{
				"x": -2.0677596142,
				"y": -0.2512460905,
				"z": 0.7888548827,
				"element": "H" 
			}
		],
		 "valence_orbital": [ 
			{
				"type": "occ",
				"energy": -0.2529,
				"method": "rhf"
			},
			{
				"type": "occ",
				"energy": -0.24711,
				"method": "rhf"
			},
			{
				"type": "occ",
				"energy": -0.24189,
				"method": "rhf"
			},
			{
				"type": "occ",
				"energy": -0.20841,
				"method": "rhf"
			},
			{
				"type": "occ",
				"energy": -0.17886,
				"method": "rhf"
			},
			{
				"type": "unocc",
				"energy": -0.00747,
				"method": "rhf"
			},
			{
				"type": "unocc",
				"energy": -0.00197,
				"method": "rhf"
			},
			{
				"type": "unocc",
				"energy": 0.0022,
				"method": "rhf"
			},
			{
				"type": "unocc",
				"energy": 0.01995,
				"method": "rhf"
			},
			{
				"type": "unocc",
				"energy": 0.04056,
				"method": "rhf"
			}
		],
		"cosmo_sigma_profile": { 
			"-0.025": 0.0,
			"-0.024": 0.0,
			"-0.023": 0.0,
			"-0.022": 0.0,
			"-0.021": 0.0,
			"-0.02": 0.0,
			"-0.019": 0.0,
			"-0.018": 0.0,
			"-0.017": 0.322093716327,
			"-0.016": 1.66907517362,
			"-0.015": 1.06148252967,
			"-0.014": 1.5098279303,
			"-0.013": 1.12851698514,
			"-0.012": 1.23644777169,
			"-0.011": 2.73105156474,
			"-0.01": 2.38697191872,
			"-0.009": 2.25868495842,
			"-0.008": 2.75365257135,
			"-0.007": 7.22781753489,
			"-0.006": 13.4904556857,
			"-0.005": 23.2896623719,
			"-0.004": 24.7803434557,
			"-0.003": 26.5236350662,
			"-0.002": 21.9311165158,
			"-0.001": 19.9088014323,
			"0.0": 14.4644985182,
			"0.001": 15.72222968,
			"0.002": 19.2109768978,
			"0.003": 21.4072956726,
			"0.004": 21.3821552231,
			"0.005": 21.4787761835,
			"0.006": 23.2463715077,
			"0.007": 9.65952152008,
			"0.008": 3.96053677462,
			"0.009": 1.9412255604,
			"0.01": 2.23411482946,
			"0.011": 1.93956634578,
			"0.012": 1.55392081912,
			"0.013": 1.58197921655,
			"0.014": 1.22577272052,
			"0.015": 0.64561355694,
			"0.016": 0.214311625066,
			"0.017": 0.0,
			"0.018": 0.0,
			"0.019": 0.0,
			"0.02": 0.0,
			"0.021": 0.0,
			"0.022": 0.0,
			"0.023": 0.0,
			"0.024": 0.0,
			"0.025": 0.0
		}
	}
}
