{
	 "smiles": "NC1=NC=CC(=C1)C(O)=O", 
	 "Tm": 574.15, 
	 "num_atms": 16, 
	 "gaussian": { 
		 "optdone": 1, 
		 "sigma_profile": "yes", 
		 "theory": "DFT", 
		 "functional": "B3LYP", 
		 "basiset": "6-31G**", 
		 "properties": { 
			 "R2extent": 1679.3761, 
			 "electric_dipole_moment_norm": 2.26785959001, 
			 "electric_quadrupole_moment_norm": 13.2479960066, 
			 "total_energy": -492.207085242, 
			 "HOMO_LUMO_gap": 0.18703, 
			 "cosmo_polarized_energy": -16.04, 
			 "cosmo_cavitation_energy": 21.09, 
			 "cosmo_dispersion_energy": -15.72, 
			 "cosmo_repulsion_energy": 1.29, 
			 "cosmo_total_nonelectrostatic_energy": 6.66, 
			 "SMD_solvation_energy": 3.48 
		},
		"coords": [
			{
				"x": -2.2866937461,
				"y": 1.5551828331,
				"z": 0.4875786425,
				"element": "N" 
			},
			{
				"x": -1.0426875689,
				"y": 1.1219983958,
				"z": -0.0850089859,
				"element": "C" 
			},
			{
				"x": -0.1157911381,
				"y": 2.0715462764,
				"z": -0.2587799365,
				"element": "N" 
			},
			{
				"x": 1.0612287244,
				"y": 1.717563864,
				"z": -0.7893740587,
				"element": "C" 
			},
			{
				"x": 1.3852219668,
				"y": 0.4178218686,
				"z": -1.1743205554,
				"element": "C" 
			},
			{
				"x": 0.4162441268,
				"y": -0.5737143643,
				"z": -0.9924479663,
				"element": "C" 
			},
			{
				"x": -0.8141407156,
				"y": -0.2148015451,
				"z": -0.4400167607,
				"element": "C" 
			},
			{
				"x": 0.6372265785,
				"y": -2.0023512536,
				"z": -1.3627163217,
				"element": "C" 
			},
			{
				"x": 1.865250552,
				"y": -2.2247381039,
				"z": -1.8865230457,
				"element": "O" 
			},
			{
				"x": -0.1820379819,
				"y": -2.8860601039,
				"z": -1.2175218573,
				"element": "O" 
			},
			{
				"x": -2.4718089045,
				"y": 1.0440173289,
				"z": 1.3476062071,
				"element": "H" 
			},
			{
				"x": -3.0550659247,
				"y": 1.340623786,
				"z": -0.1439105268,
				"element": "H" 
			},
			{
				"x": 1.7871016107,
				"y": 2.519124017,
				"z": -0.9139617795,
				"element": "H" 
			},
			{
				"x": 2.3535488097,
				"y": 0.1831702585,
				"z": -1.5995836946,
				"element": "H" 
			},
			{
				"x": -1.5737908456,
				"y": -0.9756352462,
				"z": -0.2941461988,
				"element": "H" 
			},
			{
				"x": 1.9030944565,
				"y": -3.1740480112,
				"z": -2.0895731616,
				"element": "H" 
			}
		],
		 "valence_orbital": [ 
			{
				"type": "occ",
				"energy": -0.29586,
				"method": "rhf"
			},
			{
				"type": "occ",
				"energy": -0.29187,
				"method": "rhf"
			},
			{
				"type": "occ",
				"energy": -0.26726,
				"method": "rhf"
			},
			{
				"type": "occ",
				"energy": -0.26584,
				"method": "rhf"
			},
			{
				"type": "occ",
				"energy": -0.25449,
				"method": "rhf"
			},
			{
				"type": "unocc",
				"energy": -0.06746,
				"method": "rhf"
			},
			{
				"type": "unocc",
				"energy": -0.02177,
				"method": "rhf"
			},
			{
				"type": "unocc",
				"energy": 0.04335,
				"method": "rhf"
			},
			{
				"type": "unocc",
				"energy": 0.06802,
				"method": "rhf"
			},
			{
				"type": "unocc",
				"energy": 0.08554,
				"method": "rhf"
			}
		],
		"cosmo_sigma_profile": { 
			"-0.025": 0.0,
			"-0.024": 0.0,
			"-0.023": 0.0,
			"-0.022": 0.0,
			"-0.021": 0.0,
			"-0.02": 0.0,
			"-0.019": 0.386212471758,
			"-0.018": 0.842020944053,
			"-0.017": 0.93832925331,
			"-0.016": 0.862201808844,
			"-0.015": 0.794543177895,
			"-0.014": 0.842351277946,
			"-0.013": 0.290147931808,
			"-0.012": 1.87689036645,
			"-0.011": 4.28722123164,
			"-0.01": 3.11623077203,
			"-0.009": 3.61408479935,
			"-0.008": 4.11934304379,
			"-0.007": 8.63054400141,
			"-0.006": 8.84461029827,
			"-0.005": 7.2282569057,
			"-0.004": 6.99297247921,
			"-0.003": 8.17968719168,
			"-0.002": 7.79280759377,
			"-0.001": 11.9384844503,
			"0.0": 15.6602423655,
			"0.001": 13.8669293983,
			"0.002": 7.19016170898,
			"0.003": 4.4995410433,
			"0.004": 5.132147513,
			"0.005": 4.64532345474,
			"0.006": 3.44948715653,
			"0.007": 3.9852861001,
			"0.008": 3.39934130146,
			"0.009": 3.66371670651,
			"0.01": 3.2645456616,
			"0.011": 5.92397882181,
			"0.012": 2.19370076853,
			"0.013": 1.31413508314,
			"0.014": 1.5253814198,
			"0.015": 1.62262145542,
			"0.016": 1.24750613062,
			"0.017": 1.00551020265,
			"0.018": 1.7185970945,
			"0.019": 1.02437283571,
			"0.02": 0.315159666606,
			"0.021": 0.0,
			"0.022": 0.0,
			"0.023": 0.0,
			"0.024": 0.0,
			"0.025": 0.0
		}
	}
}
