{
	 "smiles": "COC1=C(C=CC=C1)C1=CC(N)=CC=C1", 
	 "Tm": 340.15, 
	 "num_atms": 28, 
	 "gaussian": { 
		 "optdone": 1, 
		 "sigma_profile": "yes", 
		 "theory": "DFT", 
		 "functional": "B3LYP", 
		 "basiset": "6-31G**", 
		 "properties": { 
			 "R2extent": 4068.5392, 
			 "electric_dipole_moment_norm": 2.23525992672, 
			 "electric_quadrupole_moment_norm": 8.90764065227, 
			 "total_energy": -633.185892548, 
			 "HOMO_LUMO_gap": 0.17863, 
			 "cosmo_polarized_energy": -10.75, 
			 "cosmo_cavitation_energy": 31.24, 
			 "cosmo_dispersion_energy": -22.33, 
			 "cosmo_repulsion_energy": 1.76, 
			 "cosmo_total_nonelectrostatic_energy": 10.67, 
			 "SMD_solvation_energy": 5.8 
		},
		"coords": [
			{
				"x": -2.8696091792,
				"y": -1.9997606198,
				"z": -1.0467994514,
				"element": "C" 
			},
			{
				"x": -1.9742214961,
				"y": -2.105536842,
				"z": -2.154352534,
				"element": "O" 
			},
			{
				"x": -1.5733371536,
				"y": -0.897128517,
				"z": -2.6910188021,
				"element": "C" 
			},
			{
				"x": -0.5594924642,
				"y": -0.1211648881,
				"z": -2.088524656,
				"element": "C" 
			},
			{
				"x": -0.2038678579,
				"y": 1.0807546957,
				"z": -2.7250059248,
				"element": "C" 
			},
			{
				"x": -0.8160640507,
				"y": 1.4999187403,
				"z": -3.9050717232,
				"element": "C" 
			},
			{
				"x": -1.8104379014,
				"y": 0.7131528494,
				"z": -4.4871285967,
				"element": "C" 
			},
			{
				"x": -2.1877478996,
				"y": -0.48074198,
				"z": -3.8739855649,
				"element": "C" 
			},
			{
				"x": 0.1377751097,
				"y": -0.5337275808,
				"z": -0.838909497,
				"element": "C" 
			},
			{
				"x": 0.3811259452,
				"y": 0.4174046606,
				"z": 0.1625464076,
				"element": "C" 
			},
			{
				"x": 1.0754466872,
				"y": 0.0852894485,
				"z": 1.3365863584,
				"element": "C" 
			},
			{
				"x": 1.249400269,
				"y": 1.0332741797,
				"z": 2.3502582459,
				"element": "N" 
			},
			{
				"x": 1.5329577533,
				"y": -1.2324856499,
				"z": 1.4992949529,
				"element": "C" 
			},
			{
				"x": 1.2901815609,
				"y": -2.1808836337,
				"z": 0.5080287892,
				"element": "C" 
			},
			{
				"x": 0.5979658814,
				"y": -1.8492950216,
				"z": -0.6555764953,
				"element": "C" 
			},
			{
				"x": -3.7967305058,
				"y": -1.4892454518,
				"z": -1.3395059642,
				"element": "H" 
			},
			{
				"x": -2.4121341374,
				"y": -1.4641677439,
				"z": -0.2071858836,
				"element": "H" 
			},
			{
				"x": -3.1019392707,
				"y": -3.0210359212,
				"z": -0.7375629919,
				"element": "H" 
			},
			{
				"x": 0.5922420349,
				"y": 1.6789567765,
				"z": -2.2914426375,
				"element": "H" 
			},
			{
				"x": -0.5062664636,
				"y": 2.4291892684,
				"z": -4.3741412783,
				"element": "H" 
			},
			{
				"x": -2.2891387495,
				"y": 1.0239314743,
				"z": -5.4112806711,
				"element": "H" 
			},
			{
				"x": -2.9586973003,
				"y": -1.1156694014,
				"z": -4.2995054531,
				"element": "H" 
			},
			{
				"x": 0.0049544624,
				"y": 1.43007696,
				"z": 0.0392341189,
				"element": "H" 
			},
			{
				"x": 1.2349062411,
				"y": 1.995411465,
				"z": 2.040281049,
				"element": "H" 
			},
			{
				"x": 2.0278683255,
				"y": 0.8541179718,
				"z": 2.9698438079,
				"element": "H" 
			},
			{
				"x": 2.0685042347,
				"y": -1.508498889,
				"z": 2.4044772159,
				"element": "H" 
			},
			{
				"x": 1.6544784382,
				"y": -3.1956428915,
				"z": 0.6441604467,
				"element": "H" 
			},
			{
				"x": 0.4151774862,
				"y": -2.5948934586,
				"z": -1.4194132672,
				"element": "H" 
			}
		],
		 "valence_orbital": [ 
			{
				"type": "occ",
				"energy": -0.26804,
				"method": "rhf"
			},
			{
				"type": "occ",
				"energy": -0.25726,
				"method": "rhf"
			},
			{
				"type": "occ",
				"energy": -0.23734,
				"method": "rhf"
			},
			{
				"type": "occ",
				"energy": -0.22139,
				"method": "rhf"
			},
			{
				"type": "occ",
				"energy": -0.19766,
				"method": "rhf"
			},
			{
				"type": "unocc",
				"energy": -0.01903,
				"method": "rhf"
			},
			{
				"type": "unocc",
				"energy": 0.00575,
				"method": "rhf"
			},
			{
				"type": "unocc",
				"energy": 0.01677,
				"method": "rhf"
			},
			{
				"type": "unocc",
				"energy": 0.0351,
				"method": "rhf"
			},
			{
				"type": "unocc",
				"energy": 0.08298,
				"method": "rhf"
			}
		],
		"cosmo_sigma_profile": { 
			"-0.025": 0.0,
			"-0.024": 0.0,
			"-0.023": 0.0,
			"-0.022": 0.0,
			"-0.021": 0.0,
			"-0.02": 0.0,
			"-0.019": 0.0,
			"-0.018": 0.0,
			"-0.017": 0.0,
			"-0.016": 0.0,
			"-0.015": 0.0,
			"-0.014": 0.0,
			"-0.013": 0.0674649512137,
			"-0.012": 2.05138813074,
			"-0.011": 2.68066936464,
			"-0.01": 3.24309526415,
			"-0.009": 2.99800767951,
			"-0.008": 2.93086917436,
			"-0.007": 2.65825626826,
			"-0.006": 8.47905845429,
			"-0.005": 15.2717121296,
			"-0.004": 20.6069614288,
			"-0.003": 24.6304103732,
			"-0.002": 20.8038965855,
			"-0.001": 16.0490263028,
			"0.0": 13.9948015347,
			"0.001": 13.645017973,
			"0.002": 13.7135457726,
			"0.003": 16.9295598748,
			"0.004": 18.1797547678,
			"0.005": 18.8221206154,
			"0.006": 13.8359883704,
			"0.007": 7.00651404324,
			"0.008": 1.29937237331,
			"0.009": 1.38348457808,
			"0.01": 1.87471843548,
			"0.011": 2.06489011126,
			"0.012": 1.45152806686,
			"0.013": 0.461515762297,
			"0.014": 0.695654671289,
			"0.015": 0.480691531397,
			"0.016": 0.0,
			"0.017": 0.0,
			"0.018": 0.0,
			"0.019": 0.0,
			"0.02": 0.0,
			"0.021": 0.0,
			"0.022": 0.0,
			"0.023": 0.0,
			"0.024": 0.0,
			"0.025": 0.0
		}
	}
}
