{
	 "smiles": "NC1=C(CC2=C(Cl)C=CC=C2)C(N)=NN1", 
	 "Tm": 393.15, 
	 "num_atms": 26, 
	 "gaussian": { 
		 "optdone": 1, 
		 "sigma_profile": "yes", 
		 "theory": "DFT", 
		 "functional": "B3LYP", 
		 "basiset": "6-31G**", 
		 "properties": { 
			 "R2extent": 4203.0699, 
			 "electric_dipole_moment_norm": 2.39153904003, 
			 "electric_quadrupole_moment_norm": 14.3062477803, 
			 "total_energy": -1066.87705281, 
			 "HOMO_LUMO_gap": 0.1837, 
			 "cosmo_polarized_energy": -17.8, 
			 "cosmo_cavitation_energy": 31.8, 
			 "cosmo_dispersion_energy": -22.68, 
			 "cosmo_repulsion_energy": 1.82, 
			 "cosmo_total_nonelectrostatic_energy": 10.94, 
			 "SMD_solvation_energy": 3.65 
		},
		"coords": [
			{
				"x": -1.3231390535,
				"y": -1.8654641161,
				"z": -3.1706915044,
				"element": "N" 
			},
			{
				"x": -1.1572954316,
				"y": -0.5857716038,
				"z": -2.6292572467,
				"element": "C" 
			},
			{
				"x": -1.0364035699,
				"y": -0.1419661871,
				"z": -1.3194933715,
				"element": "C" 
			},
			{
				"x": -1.2114667224,
				"y": -0.9154495918,
				"z": -0.0496375082,
				"element": "C" 
			},
			{
				"x": 0.0629687462,
				"y": -1.3211461756,
				"z": 0.6862162962,
				"element": "C" 
			},
			{
				"x": 0.011265826,
				"y": -1.9788831596,
				"z": 1.9256679923,
				"element": "C" 
			},
			{
				"x": -1.5534613823,
				"y": -2.3625952606,
				"z": 2.6516206128,
				"element": "Cl" 
			},
			{
				"x": 1.1589972439,
				"y": -2.3552975097,
				"z": 2.6207944705,
				"element": "C" 
			},
			{
				"x": 2.4122088189,
				"y": -2.0743984722,
				"z": 2.0759858733,
				"element": "C" 
			},
			{
				"x": 2.499529912,
				"y": -1.425531851,
				"z": 0.8452969832,
				"element": "C" 
			},
			{
				"x": 1.3371989672,
				"y": -1.0582948435,
				"z": 0.1657853164,
				"element": "C" 
			},
			{
				"x": -0.8229788893,
				"y": 1.2637905317,
				"z": -1.4599384869,
				"element": "C" 
			},
			{
				"x": -0.7239110479,
				"y": 2.1779411197,
				"z": -0.4071375641,
				"element": "N" 
			},
			{
				"x": -0.8145671291,
				"y": 1.6621272654,
				"z": -2.7248432848,
				"element": "N" 
			},
			{
				"x": -1.0523499271,
				"y": 0.505552272,
				"z": -3.4302182294,
				"element": "N" 
			},
			{
				"x": -2.1404425819,
				"y": -1.9457432247,
				"z": -3.7673727722,
				"element": "H" 
			},
			{
				"x": -1.3581174858,
				"y": -2.5782307409,
				"z": -2.4521445333,
				"element": "H" 
			},
			{
				"x": -1.8015826111,
				"y": -1.8225829578,
				"z": -0.243377876,
				"element": "H" 
			},
			{
				"x": -1.8296034955,
				"y": -0.3269954894,
				"z": 0.6412990811,
				"element": "H" 
			},
			{
				"x": 1.0654704697,
				"y": -2.8614441301,
				"z": 3.5754258989,
				"element": "H" 
			},
			{
				"x": 3.3096075673,
				"y": -2.3646458055,
				"z": 2.6140803473,
				"element": "H" 
			},
			{
				"x": 3.4700155296,
				"y": -1.205428052,
				"z": 0.4103904989,
				"element": "H" 
			},
			{
				"x": 1.4026012094,
				"y": -0.5597219771,
				"z": -0.7963991815,
				"element": "H" 
			},
			{
				"x": -0.4744486886,
				"y": 3.1006373193,
				"z": -0.7447791547,
				"element": "H" 
			},
			{
				"x": -0.0840574673,
				"y": 1.8790290688,
				"z": 0.3199177338,
				"element": "H" 
			},
			{
				"x": -0.9232388068,
				"y": 0.5086135717,
				"z": -4.4286903909,
				"element": "H" 
			}
		],
		 "valence_orbital": [ 
			{
				"type": "occ",
				"energy": -0.27427,
				"method": "rhf"
			},
			{
				"type": "occ",
				"energy": -0.25372,
				"method": "rhf"
			},
			{
				"type": "occ",
				"energy": -0.24198,
				"method": "rhf"
			},
			{
				"type": "occ",
				"energy": -0.21073,
				"method": "rhf"
			},
			{
				"type": "occ",
				"energy": -0.19518,
				"method": "rhf"
			},
			{
				"type": "unocc",
				"energy": -0.01148,
				"method": "rhf"
			},
			{
				"type": "unocc",
				"energy": -0.00732,
				"method": "rhf"
			},
			{
				"type": "unocc",
				"energy": 0.0315,
				"method": "rhf"
			},
			{
				"type": "unocc",
				"energy": 0.04211,
				"method": "rhf"
			},
			{
				"type": "unocc",
				"energy": 0.0635,
				"method": "rhf"
			}
		],
		"cosmo_sigma_profile": { 
			"-0.025": 0.0,
			"-0.024": 0.0,
			"-0.023": 0.0,
			"-0.022": 0.0,
			"-0.021": 0.0,
			"-0.02": 0.0,
			"-0.019": 0.0,
			"-0.018": 0.0,
			"-0.017": 0.0,
			"-0.016": 0.0759863508173,
			"-0.015": 1.20414529292,
			"-0.014": 0.918214135189,
			"-0.013": 1.98766815232,
			"-0.012": 4.24814427584,
			"-0.011": 5.45399629787,
			"-0.01": 6.19010884775,
			"-0.009": 6.05283913107,
			"-0.008": 6.42151572533,
			"-0.007": 5.24241125364,
			"-0.006": 11.7087351887,
			"-0.005": 11.8066781209,
			"-0.004": 13.7746155611,
			"-0.003": 12.7286915987,
			"-0.002": 13.8955591305,
			"-0.001": 13.3347025514,
			"0.0": 15.0991071554,
			"0.001": 14.8957117045,
			"0.002": 18.2388630095,
			"0.003": 18.8266480094,
			"0.004": 20.5579173038,
			"0.005": 15.9229650612,
			"0.006": 5.93773118024,
			"0.007": 4.96802541128,
			"0.008": 4.04724047884,
			"0.009": 3.03209148329,
			"0.01": 2.72826589414,
			"0.011": 2.59688270541,
			"0.012": 2.52409020961,
			"0.013": 2.39518464116,
			"0.014": 2.45397958949,
			"0.015": 2.05318228245,
			"0.016": 1.87620315938,
			"0.017": 0.816485340265,
			"0.018": 0.266586424618,
			"0.019": 0.0,
			"0.02": 0.0,
			"0.021": 0.0,
			"0.022": 0.0,
			"0.023": 0.0,
			"0.024": 0.0,
			"0.025": 0.0
		}
	}
}
