{
	 "smiles": "NC(=NO)C1=CN=C(C=C1)N1C=NC2=C1C=CC=C2", 
	 "Tm": 488.15, 
	 "num_atms": 30, 
	 "gaussian": { 
		 "optdone": 1, 
		 "sigma_profile": "yes", 
		 "theory": "DFT", 
		 "functional": "B3LYP", 
		 "basiset": "6-31G**", 
		 "properties": { 
			 "R2extent": 6775.985, 
			 "electric_dipole_moment_norm": 3.55796842032, 
			 "electric_quadrupole_moment_norm": 17.8110822041, 
			 "total_energy": -850.939755833, 
			 "HOMO_LUMO_gap": 0.16204, 
			 "cosmo_polarized_energy": -18.76, 
			 "cosmo_cavitation_energy": 34.82, 
			 "cosmo_dispersion_energy": -25.8, 
			 "cosmo_repulsion_energy": 1.96, 
			 "cosmo_total_nonelectrostatic_energy": 10.97, 
			 "SMD_solvation_energy": 3.0 
		},
		"coords": [
			{
				"x": 3.4571290151,
				"y": -2.5386829576,
				"z": -2.7110979373,
				"element": "N" 
			},
			{
				"x": 3.2594242344,
				"y": -2.2846132962,
				"z": -1.3574444165,
				"element": "C" 
			},
			{
				"x": 4.2103223899,
				"y": -2.63572207,
				"z": -0.5579885085,
				"element": "N" 
			},
			{
				"x": 3.8832944381,
				"y": -2.4091480673,
				"z": 0.8028843657,
				"element": "O" 
			},
			{
				"x": 1.950233439,
				"y": -1.6881283803,
				"z": -0.9805384755,
				"element": "C" 
			},
			{
				"x": 1.4216094214,
				"y": -0.6075127128,
				"z": -1.6980378685,
				"element": "C" 
			},
			{
				"x": 0.2607284099,
				"y": -0.0123088863,
				"z": -1.4199302239,
				"element": "N" 
			},
			{
				"x": -0.4565534631,
				"y": -0.4894033971,
				"z": -0.3980670512,
				"element": "C" 
			},
			{
				"x": -0.0462452061,
				"y": -1.5862434067,
				"z": 0.3739484964,
				"element": "C" 
			},
			{
				"x": 1.1765993662,
				"y": -2.1750006815,
				"z": 0.0842019302,
				"element": "C" 
			},
			{
				"x": -1.68329355,
				"y": 0.16377207,
				"z": -0.1655159039,
				"element": "N" 
			},
			{
				"x": -2.4049693267,
				"y": 0.8391584882,
				"z": -1.1487783776,
				"element": "C" 
			},
			{
				"x": -3.5364843619,
				"y": 1.3285241878,
				"z": -0.7339086388,
				"element": "N" 
			},
			{
				"x": -3.5987196994,
				"y": 0.9922919872,
				"z": 0.6155027949,
				"element": "C" 
			},
			{
				"x": -2.4484523194,
				"y": 0.2623634835,
				"z": 1.0034813459,
				"element": "C" 
			},
			{
				"x": -2.2465603729,
				"y": -0.1383663384,
				"z": 2.3273539926,
				"element": "C" 
			},
			{
				"x": -3.2468382695,
				"y": 0.1778138656,
				"z": 3.2459133536,
				"element": "C" 
			},
			{
				"x": -4.4063798248,
				"y": 0.8771371191,
				"z": 2.865194578,
				"element": "C" 
			},
			{
				"x": -4.591429572,
				"y": 1.2973714069,
				"z": 1.5515509725,
				"element": "C" 
			},
			{
				"x": 4.423772806,
				"y": -2.6952877076,
				"z": -2.9650350382,
				"element": "H" 
			},
			{
				"x": 2.9474142115,
				"y": -1.9596871095,
				"z": -3.3604627657,
				"element": "H" 
			},
			{
				"x": 4.7017501822,
				"y": -2.67611798,
				"z": 1.2396078462,
				"element": "H" 
			},
			{
				"x": 1.9758636743,
				"y": -0.1733634381,
				"z": -2.5292823198,
				"element": "H" 
			},
			{
				"x": -0.6808772185,
				"y": -1.9867304618,
				"z": 1.1533914267,
				"element": "H" 
			},
			{
				"x": 1.5317826567,
				"y": -3.0150792937,
				"z": 0.6673384086,
				"element": "H" 
			},
			{
				"x": -2.0084339143,
				"y": 0.9064490001,
				"z": -2.1511684719,
				"element": "H" 
			},
			{
				"x": -1.3475946131,
				"y": -0.6492047474,
				"z": 2.6507475826,
				"element": "H" 
			},
			{
				"x": -3.1207189547,
				"y": -0.1200460288,
				"z": 4.2825530412,
				"element": "H" 
			},
			{
				"x": -5.1611896107,
				"y": 1.1004119452,
				"z": 3.6131670646,
				"element": "H" 
			},
			{
				"x": -5.4704839673,
				"y": 1.8552534074,
				"z": 1.2461187977,
				"element": "H" 
			}
		],
		 "valence_orbital": [ 
			{
				"type": "occ",
				"energy": -0.27464,
				"method": "rhf"
			},
			{
				"type": "occ",
				"energy": -0.26601,
				"method": "rhf"
			},
			{
				"type": "occ",
				"energy": -0.23016,
				"method": "rhf"
			},
			{
				"type": "occ",
				"energy": -0.22682,
				"method": "rhf"
			},
			{
				"type": "occ",
				"energy": -0.21296,
				"method": "rhf"
			},
			{
				"type": "unocc",
				"energy": -0.05092,
				"method": "rhf"
			},
			{
				"type": "unocc",
				"energy": -0.03893,
				"method": "rhf"
			},
			{
				"type": "unocc",
				"energy": -0.01624,
				"method": "rhf"
			},
			{
				"type": "unocc",
				"energy": 0.01655,
				"method": "rhf"
			},
			{
				"type": "unocc",
				"energy": 0.03754,
				"method": "rhf"
			}
		],
		"cosmo_sigma_profile": { 
			"-0.025": 0.0,
			"-0.024": 0.0,
			"-0.023": 0.0,
			"-0.022": 0.0,
			"-0.021": 0.0,
			"-0.02": 0.0,
			"-0.019": 0.0,
			"-0.018": 0.0,
			"-0.017": 0.26231214125,
			"-0.016": 0.976728913922,
			"-0.015": 1.04557700536,
			"-0.014": 0.991583580723,
			"-0.013": 3.19024830063,
			"-0.012": 3.11050718034,
			"-0.011": 3.12024197187,
			"-0.01": 3.83576013333,
			"-0.009": 4.40206084329,
			"-0.008": 6.71986843965,
			"-0.007": 9.28317371813,
			"-0.006": 13.8548124446,
			"-0.005": 13.6595037997,
			"-0.004": 16.8322176136,
			"-0.003": 15.0290008526,
			"-0.002": 15.8068376246,
			"-0.001": 19.2999903524,
			"0.0": 20.8196310106,
			"0.001": 18.0327033322,
			"0.002": 15.1069881167,
			"0.003": 15.5024750906,
			"0.004": 16.3831918849,
			"0.005": 14.6368592279,
			"0.006": 9.36873716236,
			"0.007": 7.98424672796,
			"0.008": 6.31039903797,
			"0.009": 5.36454001457,
			"0.01": 5.40225645301,
			"0.011": 5.07646865159,
			"0.012": 1.80274791572,
			"0.013": 2.14188334109,
			"0.014": 1.99908944072,
			"0.015": 1.20310578931,
			"0.016": 0.758724596776,
			"0.017": 0.509172527933,
			"0.018": 0.0,
			"0.019": 0.0,
			"0.02": 0.0,
			"0.021": 0.0,
			"0.022": 0.0,
			"0.023": 0.0,
			"0.024": 0.0,
			"0.025": 0.0
		}
	}
}
