{
	 "smiles": "CCCCCCCCCCCCCCCCS(Cl)(=O)=O", 
	 "Tm": 330.15, 
	 "num_atms": 53, 
	 "gaussian": { 
		 "optdone": 1, 
		 "sigma_profile": "yes", 
		 "theory": "DFT", 
		 "functional": "B3LYP", 
		 "basiset": "6-31G**", 
		 "properties": { 
			 "R2extent": 10726.3587, 
			 "electric_dipole_moment_norm": 4.35666067763, 
			 "electric_quadrupole_moment_norm": 15.6094200168, 
			 "total_energy": -1638.39767343, 
			 "HOMO_LUMO_gap": 0.21065, 
			 "cosmo_polarized_energy": -10.08, 
			 "cosmo_cavitation_energy": 53.97, 
			 "cosmo_dispersion_energy": -34.33, 
			 "cosmo_repulsion_energy": 2.67, 
			 "cosmo_total_nonelectrostatic_energy": 22.32, 
			 "SMD_solvation_energy": 5.71 
		},
		"coords": [
			{
				"x": 0.241138372,
				"y": 4.871793375,
				"z": 0.4200471121,
				"element": "C" 
			},
			{
				"x": -0.7196854598,
				"y": 4.546572338,
				"z": 1.5700460014,
				"element": "C" 
			},
			{
				"x": -1.4182664442,
				"y": 3.1807687634,
				"z": 1.4454030264,
				"element": "C" 
			},
			{
				"x": -0.5000681406,
				"y": 1.9454236261,
				"z": 1.4892012006,
				"element": "C" 
			},
			{
				"x": 0.1927164377,
				"y": 1.7199961692,
				"z": 2.8408106814,
				"element": "C" 
			},
			{
				"x": 1.1447026088,
				"y": 0.5112081023,
				"z": 2.9097477723,
				"element": "C" 
			},
			{
				"x": 0.4785955991,
				"y": -0.8677234412,
				"z": 2.6877285868,
				"element": "C" 
			},
			{
				"x": 0.5733034802,
				"y": -1.427313334,
				"z": 1.253213103,
				"element": "C" 
			},
			{
				"x": 1.9726098551,
				"y": -1.9576722756,
				"z": 0.8979083857,
				"element": "C" 
			},
			{
				"x": 2.2236363276,
				"y": -2.3204096632,
				"z": -0.579055302,
				"element": "C" 
			},
			{
				"x": 1.6178688533,
				"y": -3.6412050233,
				"z": -1.0988005633,
				"element": "C" 
			},
			{
				"x": 0.107809151,
				"y": -3.6785228426,
				"z": -1.4036774791,
				"element": "C" 
			},
			{
				"x": -0.342568416,
				"y": -2.6825342719,
				"z": -2.482909743,
				"element": "C" 
			},
			{
				"x": -1.7905873322,
				"y": -2.8652853831,
				"z": -2.9685854749,
				"element": "C" 
			},
			{
				"x": -2.8841760474,
				"y": -2.750490193,
				"z": -1.8902935475,
				"element": "C" 
			},
			{
				"x": -2.8890064419,
				"y": -1.4834269653,
				"z": -1.033174454,
				"element": "C" 
			},
			{
				"x": -3.281500141,
				"y": 0.0806547132,
				"z": -1.8819769413,
				"element": "S" 
			},
			{
				"x": -5.297650271,
				"y": -0.3068266886,
				"z": -2.4925909624,
				"element": "Cl" 
			},
			{
				"x": -3.3431873009,
				"y": 1.1402403097,
				"z": -0.8809366831,
				"element": "O" 
			},
			{
				"x": -2.4941663118,
				"y": 0.2320910324,
				"z": -3.1006068642,
				"element": "O" 
			},
			{
				"x": -0.2719353945,
				"y": 4.8227104763,
				"z": -0.5474131656,
				"element": "H" 
			},
			{
				"x": 0.6564217738,
				"y": 5.8796831734,
				"z": 0.5257694435,
				"element": "H" 
			},
			{
				"x": 1.0846545176,
				"y": 4.1743393628,
				"z": 0.3807805438,
				"element": "H" 
			},
			{
				"x": -0.1814076816,
				"y": 4.6100264387,
				"z": 2.5247813945,
				"element": "H" 
			},
			{
				"x": -1.4943616431,
				"y": 5.3228427549,
				"z": 1.6149697292,
				"element": "H" 
			},
			{
				"x": -2.1629110391,
				"y": 3.0907430582,
				"z": 2.2485533414,
				"element": "H" 
			},
			{
				"x": -1.9848268767,
				"y": 3.1560960002,
				"z": 0.5061443124,
				"element": "H" 
			},
			{
				"x": 0.258314297,
				"y": 2.015442074,
				"z": 0.6971354796,
				"element": "H" 
			},
			{
				"x": -1.1130078455,
				"y": 1.0699282914,
				"z": 1.2416933291,
				"element": "H" 
			},
			{
				"x": -0.5765633486,
				"y": 1.610468094,
				"z": 3.6194556459,
				"element": "H" 
			},
			{
				"x": 0.7652560232,
				"y": 2.6168971925,
				"z": 3.1098430066,
				"element": "H" 
			},
			{
				"x": 1.6243380326,
				"y": 0.5216521086,
				"z": 3.8961341037,
				"element": "H" 
			},
			{
				"x": 1.9592815268,
				"y": 0.6523718797,
				"z": 2.1861105319,
				"element": "H" 
			},
			{
				"x": 0.9282891808,
				"y": -1.6048717917,
				"z": 3.3660265237,
				"element": "H" 
			},
			{
				"x": -0.5771519715,
				"y": -0.8026226728,
				"z": 2.9828708584,
				"element": "H" 
			},
			{
				"x": 0.2919141168,
				"y": -0.6464369985,
				"z": 0.5339738618,
				"element": "H" 
			},
			{
				"x": -0.1624220593,
				"y": -2.2336563531,
				"z": 1.1458692276,
				"element": "H" 
			},
			{
				"x": 2.1950941382,
				"y": -2.8306341263,
				"z": 1.5286009584,
				"element": "H" 
			},
			{
				"x": 2.7099412531,
				"y": -1.1944551117,
				"z": 1.1789293887,
				"element": "H" 
			},
			{
				"x": 1.9117436721,
				"y": -1.4831667644,
				"z": -1.2177014771,
				"element": "H" 
			},
			{
				"x": 3.3101619969,
				"y": -2.3972460246,
				"z": -0.713444222,
				"element": "H" 
			},
			{
				"x": 1.8520338252,
				"y": -4.4389089082,
				"z": -0.3805279465,
				"element": "H" 
			},
			{
				"x": 2.146402611,
				"y": -3.9096087591,
				"z": -2.023941317,
				"element": "H" 
			},
			{
				"x": -0.1419953325,
				"y": -4.6948157059,
				"z": -1.7403794328,
				"element": "H" 
			},
			{
				"x": -0.4650650888,
				"y": -3.5244476709,
				"z": -0.4815629387,
				"element": "H" 
			},
			{
				"x": 0.3166961868,
				"y": -2.7843504385,
				"z": -3.3551142349,
				"element": "H" 
			},
			{
				"x": -0.2009321978,
				"y": -1.6517828027,
				"z": -2.1348558851,
				"element": "H" 
			},
			{
				"x": -1.8943156779,
				"y": -3.8598362258,
				"z": -3.4213691596,
				"element": "H" 
			},
			{
				"x": -1.9893519086,
				"y": -2.140002806,
				"z": -3.7627042106,
				"element": "H" 
			},
			{
				"x": -2.78453176,
				"y": -3.5738455177,
				"z": -1.1718813957,
				"element": "H" 
			},
			{
				"x": -3.8703410137,
				"y": -2.874168342,
				"z": -2.3502952898,
				"element": "H" 
			},
			{
				"x": -3.6267441255,
				"y": -1.5312986141,
				"z": -0.2286721562,
				"element": "H" 
			},
			{
				"x": -1.9113965653,
				"y": -1.2645836183,
				"z": -0.5908767037,
				"element": "H" 
			}
		],
		 "valence_orbital": [ 
			{
				"type": "occ",
				"energy": -0.3089,
				"method": "rhf"
			},
			{
				"type": "occ",
				"energy": -0.30844,
				"method": "rhf"
			},
			{
				"type": "occ",
				"energy": -0.30559,
				"method": "rhf"
			},
			{
				"type": "occ",
				"energy": -0.29744,
				"method": "rhf"
			},
			{
				"type": "occ",
				"energy": -0.29371,
				"method": "rhf"
			},
			{
				"type": "unocc",
				"energy": -0.08306,
				"method": "rhf"
			},
			{
				"type": "unocc",
				"energy": 0.04038,
				"method": "rhf"
			},
			{
				"type": "unocc",
				"energy": 0.05011,
				"method": "rhf"
			},
			{
				"type": "unocc",
				"energy": 0.06209,
				"method": "rhf"
			},
			{
				"type": "unocc",
				"energy": 0.06584,
				"method": "rhf"
			}
		],
		"cosmo_sigma_profile": { 
			"-0.025": 0.0,
			"-0.024": 0.0,
			"-0.023": 0.0,
			"-0.022": 0.0,
			"-0.021": 0.0,
			"-0.02": 0.0,
			"-0.019": 0.0,
			"-0.018": 0.0,
			"-0.017": 0.0,
			"-0.016": 0.0,
			"-0.015": 0.0,
			"-0.014": 0.0,
			"-0.013": 0.0,
			"-0.012": 0.0,
			"-0.011": 0.0,
			"-0.01": 0.768332715434,
			"-0.009": 3.09179995383,
			"-0.008": 2.58659555934,
			"-0.007": 3.0062562837,
			"-0.006": 5.47532850558,
			"-0.005": 10.8823257545,
			"-0.004": 11.2997933722,
			"-0.003": 16.3988377139,
			"-0.002": 50.2938265494,
			"-0.001": 75.2546110613,
			"0.0": 81.2291941504,
			"0.001": 66.077724533,
			"0.002": 33.4354112181,
			"0.003": 15.0909976037,
			"0.004": 14.9480390165,
			"0.005": 7.61947559267,
			"0.006": 4.58103419513,
			"0.007": 3.78148140829,
			"0.008": 6.07652590046,
			"0.009": 5.9038823606,
			"0.01": 0.448873937135,
			"0.011": 0.0,
			"0.012": 0.0,
			"0.013": 0.0,
			"0.014": 0.0,
			"0.015": 0.0,
			"0.016": 0.0,
			"0.017": 0.0,
			"0.018": 0.0,
			"0.019": 0.0,
			"0.02": 0.0,
			"0.021": 0.0,
			"0.022": 0.0,
			"0.023": 0.0,
			"0.024": 0.0,
			"0.025": 0.0
		}
	}
}
