{
	 "smiles": "CN1C(N)=C(C=O)C(=O)N(C)C1=O", 
	 "Tm": 473.15, 
	 "num_atms": 22, 
	 "gaussian": { 
		 "optdone": 1, 
		 "sigma_profile": "yes", 
		 "theory": "DFT", 
		 "functional": "B3LYP", 
		 "basiset": "6-31G**", 
		 "properties": { 
			 "R2extent": 3512.2151, 
			 "electric_dipole_moment_norm": 4.95459810378, 
			 "electric_quadrupole_moment_norm": 17.0889265254, 
			 "total_energy": -662.144907289, 
			 "HOMO_LUMO_gap": 0.19127, 
			 "cosmo_polarized_energy": -18.08, 
			 "cosmo_cavitation_energy": 25.37, 
			 "cosmo_dispersion_energy": -19.23, 
			 "cosmo_repulsion_energy": 1.48, 
			 "cosmo_total_nonelectrostatic_energy": 7.61, 
			 "SMD_solvation_energy": 6.65 
		},
		"coords": [
			{
				"x": 0.0447647806,
				"y": 0.8756678115,
				"z": 0.6665920088,
				"element": "C" 
			},
			{
				"x": 0.3573156717,
				"y": 0.0250221351,
				"z": -0.4825485288,
				"element": "N" 
			},
			{
				"x": 0.983980706,
				"y": -1.1852834247,
				"z": -0.3122200477,
				"element": "C" 
			},
			{
				"x": 1.309510239,
				"y": -1.5838968451,
				"z": 0.9238730381,
				"element": "N" 
			},
			{
				"x": 1.2807726537,
				"y": -1.9970775353,
				"z": -1.4205045719,
				"element": "C" 
			},
			{
				"x": 1.9379437649,
				"y": -3.2689497259,
				"z": -1.2512416394,
				"element": "C" 
			},
			{
				"x": 2.2924792812,
				"y": -3.7555855599,
				"z": -0.1653032059,
				"element": "O" 
			},
			{
				"x": 0.929166672,
				"y": -1.5666903834,
				"z": -2.7576739521,
				"element": "C" 
			},
			{
				"x": 1.1475794971,
				"y": -2.2057394158,
				"z": -3.7796635806,
				"element": "O" 
			},
			{
				"x": 0.2835880108,
				"y": -0.2994584476,
				"z": -2.8360715852,
				"element": "N" 
			},
			{
				"x": -0.1067378121,
				"y": 0.2121839416,
				"z": -4.1547860469,
				"element": "C" 
			},
			{
				"x": -0.0152891534,
				"y": 0.5090558652,
				"z": -1.7620806893,
				"element": "C" 
			},
			{
				"x": -0.5713797983,
				"y": 1.5893529038,
				"z": -1.8836318694,
				"element": "O" 
			},
			{
				"x": -0.6340173902,
				"y": 0.3611184025,
				"z": 1.3547497845,
				"element": "H" 
			},
			{
				"x": -0.4435872067,
				"y": 1.767298543,
				"z": 0.280780199,
				"element": "H" 
			},
			{
				"x": 0.9601079659,
				"y": 1.1645984523,
				"z": 1.193620959,
				"element": "H" 
			},
			{
				"x": 1.1152164496,
				"y": -1.0339482049,
				"z": 1.7421514076,
				"element": "H" 
			},
			{
				"x": 1.7752698051,
				"y": -2.5021357047,
				"z": 0.9597231434,
				"element": "H" 
			},
			{
				"x": 2.1189331268,
				"y": -3.8168923468,
				"z": -2.1895701502,
				"element": "H" 
			},
			{
				"x": 0.1951385583,
				"y": -0.533310648,
				"z": -4.8866023948,
				"element": "H" 
			},
			{
				"x": 0.3902481828,
				"y": 1.1650851029,
				"z": -4.3484565461,
				"element": "H" 
			},
			{
				"x": -1.1866040049,
				"y": 0.3708850841,
				"z": -4.1899357321,
				"element": "H" 
			}
		],
		 "valence_orbital": [ 
			{
				"type": "occ",
				"energy": -0.29824,
				"method": "rhf"
			},
			{
				"type": "occ",
				"energy": -0.27416,
				"method": "rhf"
			},
			{
				"type": "occ",
				"energy": -0.27016,
				"method": "rhf"
			},
			{
				"type": "occ",
				"energy": -0.24975,
				"method": "rhf"
			},
			{
				"type": "occ",
				"energy": -0.23629,
				"method": "rhf"
			},
			{
				"type": "unocc",
				"energy": -0.04502,
				"method": "rhf"
			},
			{
				"type": "unocc",
				"energy": -0.0088,
				"method": "rhf"
			},
			{
				"type": "unocc",
				"energy": 0.02809,
				"method": "rhf"
			},
			{
				"type": "unocc",
				"energy": 0.05441,
				"method": "rhf"
			},
			{
				"type": "unocc",
				"energy": 0.11019,
				"method": "rhf"
			}
		],
		"cosmo_sigma_profile": { 
			"-0.025": 0.0,
			"-0.024": 0.0,
			"-0.023": 0.0,
			"-0.022": 0.0,
			"-0.021": 0.0,
			"-0.02": 0.0,
			"-0.019": 0.0,
			"-0.018": 0.0,
			"-0.017": 0.0,
			"-0.016": 0.651506013602,
			"-0.015": 0.997091015531,
			"-0.014": 1.34676371352,
			"-0.013": 1.42513220492,
			"-0.012": 1.44464437201,
			"-0.011": 1.56813241573,
			"-0.01": 2.58301136938,
			"-0.009": 2.62510408955,
			"-0.008": 3.0390378933,
			"-0.007": 5.68996776975,
			"-0.006": 8.58951819935,
			"-0.005": 14.8319159557,
			"-0.004": 19.1763469462,
			"-0.003": 19.1039987525,
			"-0.002": 17.5861166673,
			"-0.001": 12.6404732391,
			"0.0": 15.5687054464,
			"0.001": 9.1186264636,
			"0.002": 6.91659084138,
			"0.003": 4.59887184845,
			"0.004": 4.40910563601,
			"0.005": 4.58001777944,
			"0.006": 3.80084324822,
			"0.007": 4.40699905669,
			"0.008": 4.43010742137,
			"0.009": 3.97466865313,
			"0.01": 5.0684107471,
			"0.011": 6.55117486406,
			"0.012": 9.25838408033,
			"0.013": 5.36262256552,
			"0.014": 0.839055839815,
			"0.015": 0.0,
			"0.016": 0.0,
			"0.017": 0.0,
			"0.018": 0.0,
			"0.019": 0.0,
			"0.02": 0.0,
			"0.021": 0.0,
			"0.022": 0.0,
			"0.023": 0.0,
			"0.024": 0.0,
			"0.025": 0.0
		}
	}
}
