{
	 "smiles": "CCC=CC=CC=O", 
	 "Tm": 357.65, 
	 "num_atms": 18, 
	 "gaussian": { 
		 "optdone": 1, 
		 "sigma_profile": "yes", 
		 "theory": "DFT", 
		 "functional": "B3LYP", 
		 "basiset": "6-31G**", 
		 "properties": { 
			 "R2extent": 2517.2595, 
			 "electric_dipole_moment_norm": 3.89024287288, 
			 "electric_quadrupole_moment_norm": 14.3837277001, 
			 "total_energy": -347.959930422, 
			 "HOMO_LUMO_gap": 0.16387, 
			 "cosmo_polarized_energy": -7.75, 
			 "cosmo_cavitation_energy": 22.63, 
			 "cosmo_dispersion_energy": -16.03, 
			 "cosmo_repulsion_energy": 1.37, 
			 "cosmo_total_nonelectrostatic_energy": 7.97, 
			 "SMD_solvation_energy": 5.33 
		},
		"coords": [
			{
				"x": 2.2108819945,
				"y": 0.3157596555,
				"z": 2.0319976477,
				"element": "C" 
			},
			{
				"x": 2.1759415273,
				"y": -0.5768566929,
				"z": 0.7775235247,
				"element": "C" 
			},
			{
				"x": 0.7887102187,
				"y": -0.7699076754,
				"z": 0.2433524601,
				"element": "C" 
			},
			{
				"x": 0.1637509339,
				"y": -1.9548833484,
				"z": 0.099907975,
				"element": "C" 
			},
			{
				"x": -1.1799496904,
				"y": -2.0845195165,
				"z": -0.4147441543,
				"element": "C" 
			},
			{
				"x": -1.8449763507,
				"y": -3.2509608916,
				"z": -0.5783372667,
				"element": "C" 
			},
			{
				"x": -3.2153706087,
				"y": -3.2829076656,
				"z": -1.1111271408,
				"element": "C" 
			},
			{
				"x": -3.8576567677,
				"y": -2.2984500249,
				"z": -1.4425958962,
				"element": "O" 
			},
			{
				"x": 1.7781511455,
				"y": 1.3011410034,
				"z": 1.8285323431,
				"element": "H" 
			},
			{
				"x": 3.2399899594,
				"y": 0.4658378347,
				"z": 2.3727029206,
				"element": "H" 
			},
			{
				"x": 1.642517573,
				"y": -0.1359302903,
				"z": 2.8507861739,
				"element": "H" 
			},
			{
				"x": 2.7956475649,
				"y": -0.1098902151,
				"z": -0.0020400076,
				"element": "H" 
			},
			{
				"x": 2.6291876991,
				"y": -1.5506850247,
				"z": 0.9962679286,
				"element": "H" 
			},
			{
				"x": 0.2506050043,
				"y": 0.1371447413,
				"z": -0.0380939376,
				"element": "H" 
			},
			{
				"x": 0.6840306932,
				"y": -2.8712495253,
				"z": 0.3793929661,
				"element": "H" 
			},
			{
				"x": -1.7051570501,
				"y": -1.1718236031,
				"z": -0.6955070402,
				"element": "H" 
			},
			{
				"x": -1.3840668161,
				"y": -4.20252809,
				"z": -0.3200188315,
				"element": "H" 
			},
			{
				"x": -3.6591370301,
				"y": -4.2984906713,
				"z": -1.2013996649,
				"element": "H" 
			}
		],
		 "valence_orbital": [ 
			{
				"type": "occ",
				"energy": -0.35409,
				"method": "rhf"
			},
			{
				"type": "occ",
				"energy": -0.35149,
				"method": "rhf"
			},
			{
				"type": "occ",
				"energy": -0.32194,
				"method": "rhf"
			},
			{
				"type": "occ",
				"energy": -0.24434,
				"method": "rhf"
			},
			{
				"type": "occ",
				"energy": -0.23631,
				"method": "rhf"
			},
			{
				"type": "unocc",
				"energy": -0.07244,
				"method": "rhf"
			},
			{
				"type": "unocc",
				"energy": 0.02645,
				"method": "rhf"
			},
			{
				"type": "unocc",
				"energy": 0.09369,
				"method": "rhf"
			},
			{
				"type": "unocc",
				"energy": 0.09499,
				"method": "rhf"
			},
			{
				"type": "unocc",
				"energy": 0.09925,
				"method": "rhf"
			}
		],
		"cosmo_sigma_profile": { 
			"-0.025": 0.0,
			"-0.024": 0.0,
			"-0.023": 0.0,
			"-0.022": 0.0,
			"-0.021": 0.0,
			"-0.02": 0.0,
			"-0.019": 0.0,
			"-0.018": 0.0,
			"-0.017": 0.0,
			"-0.016": 0.0,
			"-0.015": 0.0,
			"-0.014": 0.0,
			"-0.013": 0.0,
			"-0.012": 0.0,
			"-0.011": 0.0,
			"-0.01": 0.0,
			"-0.009": 0.0,
			"-0.008": 0.0,
			"-0.007": 0.366438882353,
			"-0.006": 9.47021306069,
			"-0.005": 13.6010370422,
			"-0.004": 15.4415146615,
			"-0.003": 19.880884523,
			"-0.002": 18.5756008261,
			"-0.001": 19.4737042317,
			"0.0": 17.8857770136,
			"0.001": 15.2905708718,
			"0.002": 9.77469338721,
			"0.003": 10.0020559818,
			"0.004": 7.43458482339,
			"0.005": 2.16282828589,
			"0.006": 1.19721240771,
			"0.007": 1.69603903947,
			"0.008": 1.90353390015,
			"0.009": 1.82861930905,
			"0.01": 1.76746241091,
			"0.011": 2.76497562712,
			"0.012": 4.7684325161,
			"0.013": 2.66276871904,
			"0.014": 0.620619816117,
			"0.015": 0.0,
			"0.016": 0.0,
			"0.017": 0.0,
			"0.018": 0.0,
			"0.019": 0.0,
			"0.02": 0.0,
			"0.021": 0.0,
			"0.022": 0.0,
			"0.023": 0.0,
			"0.024": 0.0,
			"0.025": 0.0
		}
	}
}
