{
	 "smiles": "[O-][N+](=O)C1=CC=C(C=C1)C(C(=O)CC1=CC=CC=C1)=C(C#N)C#N", 
	 "Tm": 606.15, 
	 "num_atms": 35, 
	 "gaussian": { 
		 "optdone": 1, 
		 "sigma_profile": "yes", 
		 "theory": "DFT", 
		 "functional": "B3LYP", 
		 "basiset": "6-31G**", 
		 "properties": { 
			 "R2extent": 8781.2862, 
			 "electric_dipole_moment_norm": 4.42988067108, 
			 "electric_quadrupole_moment_norm": 24.7706307479, 
			 "total_energy": -1082.29728635, 
			 "HOMO_LUMO_gap": 0.13318, 
			 "cosmo_polarized_energy": -20.54, 
			 "cosmo_cavitation_energy": 43.88, 
			 "cosmo_dispersion_energy": -27.19, 
			 "cosmo_repulsion_energy": 2.08, 
			 "cosmo_total_nonelectrostatic_energy": 18.77, 
			 "SMD_solvation_energy": 12.31 
		},
		"coords": [
			{
				"x": -3.4005832023,
				"y": -3.3696401761,
				"z": 3.2028488357,
				"element": "O" 
			},
			{
				"x": -2.4889694527,
				"y": -3.9854862643,
				"z": 2.6552273307,
				"element": "N" 
			},
			{
				"x": -2.4154074417,
				"y": -5.2091094301,
				"z": 2.5636838795,
				"element": "O" 
			},
			{
				"x": -1.3970303756,
				"y": -3.19334206,
				"z": 2.057281396,
				"element": "C" 
			},
			{
				"x": -0.3531341948,
				"y": -3.8607796457,
				"z": 1.4205382739,
				"element": "C" 
			},
			{
				"x": 0.66543021,
				"y": -3.1081927854,
				"z": 0.8473497438,
				"element": "C" 
			},
			{
				"x": 0.6520574894,
				"y": -1.7014620041,
				"z": 0.9271866696,
				"element": "C" 
			},
			{
				"x": -0.4195907865,
				"y": -1.059476131,
				"z": 1.5743278792,
				"element": "C" 
			},
			{
				"x": -1.4486855435,
				"y": -1.8042165678,
				"z": 2.1411329882,
				"element": "C" 
			},
			{
				"x": 1.7560236272,
				"y": -0.9446793811,
				"z": 0.3018179308,
				"element": "C" 
			},
			{
				"x": 2.2334257936,
				"y": -1.4373412724,
				"z": -1.0644897808,
				"element": "C" 
			},
			{
				"x": 3.3692056398,
				"y": -1.8443839465,
				"z": -1.1894161726,
				"element": "O" 
			},
			{
				"x": 1.2247764512,
				"y": -1.3964420602,
				"z": -2.2064477978,
				"element": "C" 
			},
			{
				"x": 0.6339267233,
				"y": -0.0112653205,
				"z": -2.4070864898,
				"element": "C" 
			},
			{
				"x": -0.7230912489,
				"y": 0.2365663589,
				"z": -2.166345282,
				"element": "C" 
			},
			{
				"x": -1.2546869893,
				"y": 1.5150394359,
				"z": -2.3468783442,
				"element": "C" 
			},
			{
				"x": -0.4319171987,
				"y": 2.5618594304,
				"z": -2.7647340585,
				"element": "C" 
			},
			{
				"x": 0.9235077722,
				"y": 2.3244389819,
				"z": -3.0049983844,
				"element": "C" 
			},
			{
				"x": 1.4533396618,
				"y": 1.0465009555,
				"z": -2.8285480629,
				"element": "C" 
			},
			{
				"x": 2.3939193924,
				"y": 0.1076088215,
				"z": 0.8887095153,
				"element": "C" 
			},
			{
				"x": 2.0794432073,
				"y": 0.5780013936,
				"z": 2.2085893055,
				"element": "C" 
			},
			{
				"x": 1.8461386075,
				"y": 0.9809497656,
				"z": 3.2742684292,
				"element": "N" 
			},
			{
				"x": 3.4385402402,
				"y": 0.8365163231,
				"z": 0.2240915125,
				"element": "C" 
			},
			{
				"x": 4.2735122374,
				"y": 1.4623365313,
				"z": -0.288403254,
				"element": "N" 
			},
			{
				"x": -0.3535036543,
				"y": -4.9427990179,
				"z": 1.3836617402,
				"element": "H" 
			},
			{
				"x": 1.4923490433,
				"y": -3.6132576916,
				"z": 0.3575159465,
				"element": "H" 
			},
			{
				"x": -0.45810916,
				"y": 0.0223690405,
				"z": 1.6195780784,
				"element": "H" 
			},
			{
				"x": -2.2846297914,
				"y": -1.3297879897,
				"z": 2.6394496575,
				"element": "H" 
			},
			{
				"x": 1.7524286219,
				"y": -1.7489239354,
				"z": -3.0975492338,
				"element": "H" 
			},
			{
				"x": 0.4242101894,
				"y": -2.111744756,
				"z": -1.9847089237,
				"element": "H" 
			},
			{
				"x": -1.3696720574,
				"y": -0.5761921528,
				"z": -1.8450167963,
				"element": "H" 
			},
			{
				"x": -2.3107488295,
				"y": 1.6906639297,
				"z": -2.1635063527,
				"element": "H" 
			},
			{
				"x": -0.8439803447,
				"y": 3.5567830141,
				"z": -2.9045662133,
				"element": "H" 
			},
			{
				"x": 1.5702352205,
				"y": 3.1338748214,
				"z": -3.3298910764,
				"element": "H" 
			},
			{
				"x": 2.5090701429,
				"y": 0.8702137852,
				"z": -3.0171728895,
				"element": "H" 
			}
		],
		 "valence_orbital": [ 
			{
				"type": "occ",
				"energy": -0.30542,
				"method": "rhf"
			},
			{
				"type": "occ",
				"energy": -0.29466,
				"method": "rhf"
			},
			{
				"type": "occ",
				"energy": -0.28829,
				"method": "rhf"
			},
			{
				"type": "occ",
				"energy": -0.27065,
				"method": "rhf"
			},
			{
				"type": "occ",
				"energy": -0.26399,
				"method": "rhf"
			},
			{
				"type": "unocc",
				"energy": -0.13081,
				"method": "rhf"
			},
			{
				"type": "unocc",
				"energy": -0.10008,
				"method": "rhf"
			},
			{
				"type": "unocc",
				"energy": -0.06055,
				"method": "rhf"
			},
			{
				"type": "unocc",
				"energy": -0.05481,
				"method": "rhf"
			},
			{
				"type": "unocc",
				"energy": -0.02707,
				"method": "rhf"
			}
		],
		"cosmo_sigma_profile": { 
			"-0.025": 0.0,
			"-0.024": 0.0,
			"-0.023": 0.0,
			"-0.022": 0.0,
			"-0.021": 0.0,
			"-0.02": 0.0,
			"-0.019": 0.0,
			"-0.018": 0.0,
			"-0.017": 0.0,
			"-0.016": 0.0,
			"-0.015": 0.0,
			"-0.014": 0.0,
			"-0.013": 0.0,
			"-0.012": 0.0,
			"-0.011": 0.0,
			"-0.01": 0.137782997192,
			"-0.009": 5.53290518077,
			"-0.008": 10.8909748268,
			"-0.007": 14.4079697995,
			"-0.006": 24.3005942802,
			"-0.005": 27.2256149575,
			"-0.004": 27.0555565881,
			"-0.003": 24.7260806297,
			"-0.002": 26.4912700378,
			"-0.001": 26.1628128639,
			"0.0": 19.9696325125,
			"0.001": 15.7368868016,
			"0.002": 15.5996154521,
			"0.003": 15.4556578527,
			"0.004": 15.6674066569,
			"0.005": 18.3485091476,
			"0.006": 12.9247864416,
			"0.007": 16.6443682617,
			"0.008": 12.797278067,
			"0.009": 12.6873117541,
			"0.01": 7.61608564849,
			"0.011": 4.05441384702,
			"0.012": 0.522715455304,
			"0.013": 0.0,
			"0.014": 0.0,
			"0.015": 0.0,
			"0.016": 0.0,
			"0.017": 0.0,
			"0.018": 0.0,
			"0.019": 0.0,
			"0.02": 0.0,
			"0.021": 0.0,
			"0.022": 0.0,
			"0.023": 0.0,
			"0.024": 0.0,
			"0.025": 0.0
		}
	}
}
