{
	 "smiles": "NCC1(CO)CCOCC1", 
	 "Tm": 328.15, 
	 "num_atms": 25, 
	 "gaussian": { 
		 "optdone": 1, 
		 "sigma_profile": "yes", 
		 "theory": "DFT", 
		 "functional": "B3LYP", 
		 "basiset": "6-31G**", 
		 "properties": { 
			 "R2extent": 1827.5744, 
			 "electric_dipole_moment_norm": 1.51430544145, 
			 "electric_quadrupole_moment_norm": 7.00305033396, 
			 "total_energy": -480.950953352, 
			 "HOMO_LUMO_gap": 0.30229, 
			 "cosmo_polarized_energy": -10.85, 
			 "cosmo_cavitation_energy": 24.6, 
			 "cosmo_dispersion_energy": -18.59, 
			 "cosmo_repulsion_energy": 1.52, 
			 "cosmo_total_nonelectrostatic_energy": 7.53, 
			 "SMD_solvation_energy": 3.25 
		},
		"coords": [
			{
				"x": -1.173967833,
				"y": 0.9533481892,
				"z": -0.9477306605,
				"element": "N" 
			},
			{
				"x": -0.5986505915,
				"y": 0.6717367567,
				"z": 0.3777156402,
				"element": "C" 
			},
			{
				"x": 0.4975635243,
				"y": -0.4216657836,
				"z": 0.3345732359,
				"element": "C" 
			},
			{
				"x": 0.9864104229,
				"y": -0.6670196542,
				"z": 1.7757243998,
				"element": "C" 
			},
			{
				"x": 1.4830573498,
				"y": 0.5546694477,
				"z": 2.3229588976,
				"element": "O" 
			},
			{
				"x": -0.0936647692,
				"y": -1.731643265,
				"z": -0.2309584861,
				"element": "C" 
			},
			{
				"x": 0.9605589159,
				"y": -2.8517079882,
				"z": -0.3743857255,
				"element": "C" 
			},
			{
				"x": 2.2936138323,
				"y": -2.3559700857,
				"z": -0.4883012306,
				"element": "O" 
			},
			{
				"x": 2.3460326351,
				"y": -1.1772573193,
				"z": -1.2815172014,
				"element": "C" 
			},
			{
				"x": 1.6975862847,
				"y": 0.0175429065,
				"z": -0.5569763799,
				"element": "C" 
			},
			{
				"x": -2.0893668531,
				"y": 1.3798969486,
				"z": -0.8369712276,
				"element": "H" 
			},
			{
				"x": -0.6069179706,
				"y": 1.6405604272,
				"z": -1.4368204439,
				"element": "H" 
			},
			{
				"x": -1.4108986688,
				"y": 0.3046913293,
				"z": 1.0184869644,
				"element": "H" 
			},
			{
				"x": -0.1836362324,
				"y": 1.5596111257,
				"z": 0.8742238087,
				"element": "H" 
			},
			{
				"x": 0.1438411459,
				"y": -1.0461877509,
				"z": 2.3794730749,
				"element": "H" 
			},
			{
				"x": 1.7712282472,
				"y": -1.4331343394,
				"z": 1.7623452245,
				"element": "H" 
			},
			{
				"x": 1.9583589749,
				"y": 0.3454322377,
				"z": 3.135415554,
				"element": "H" 
			},
			{
				"x": -0.5433138373,
				"y": -1.4905723205,
				"z": -1.1980766967,
				"element": "H" 
			},
			{
				"x": -0.9134964796,
				"y": -2.0839139864,
				"z": 0.4084573193,
				"element": "H" 
			},
			{
				"x": 0.7221428281,
				"y": -3.480334139,
				"z": -1.2482694589,
				"element": "H" 
			},
			{
				"x": 0.9692596853,
				"y": -3.504563227,
				"z": 0.5047417868,
				"element": "H" 
			},
			{
				"x": 3.4047869498,
				"y": -0.9888795032,
				"z": -1.483565643,
				"element": "H" 
			},
			{
				"x": 1.8537504905,
				"y": -1.3567212811,
				"z": -2.2516305312,
				"element": "H" 
			},
			{
				"x": 1.3741886842,
				"y": 0.7390996343,
				"z": -1.316032099,
				"element": "H" 
			},
			{
				"x": 2.427633265,
				"y": 0.5302816406,
				"z": 0.0762198783,
				"element": "H" 
			}
		],
		 "valence_orbital": [ 
			{
				"type": "occ",
				"energy": -0.30014,
				"method": "rhf"
			},
			{
				"type": "occ",
				"energy": -0.28332,
				"method": "rhf"
			},
			{
				"type": "occ",
				"energy": -0.26427,
				"method": "rhf"
			},
			{
				"type": "occ",
				"energy": -0.23919,
				"method": "rhf"
			},
			{
				"type": "occ",
				"energy": -0.2259,
				"method": "rhf"
			},
			{
				"type": "unocc",
				"energy": 0.07639,
				"method": "rhf"
			},
			{
				"type": "unocc",
				"energy": 0.07822,
				"method": "rhf"
			},
			{
				"type": "unocc",
				"energy": 0.09347,
				"method": "rhf"
			},
			{
				"type": "unocc",
				"energy": 0.11656,
				"method": "rhf"
			},
			{
				"type": "unocc",
				"energy": 0.1324,
				"method": "rhf"
			}
		],
		"cosmo_sigma_profile": { 
			"-0.025": 0.0,
			"-0.024": 0.0,
			"-0.023": 0.0,
			"-0.022": 0.0,
			"-0.021": 0.0,
			"-0.02": 0.0,
			"-0.019": 0.0,
			"-0.018": 0.0,
			"-0.017": 0.0,
			"-0.016": 0.198860636914,
			"-0.015": 1.05708485764,
			"-0.014": 1.17524590101,
			"-0.013": 0.679537895336,
			"-0.012": 0.807659958352,
			"-0.011": 1.03160716795,
			"-0.01": 1.24493230111,
			"-0.009": 3.45943977555,
			"-0.008": 4.00715358383,
			"-0.007": 3.913111883,
			"-0.006": 3.64671091646,
			"-0.005": 4.36371130194,
			"-0.004": 7.52830459253,
			"-0.003": 24.7616792348,
			"-0.002": 30.8577907745,
			"-0.001": 22.4253799353,
			"0.0": 14.6127585042,
			"0.001": 8.52830010386,
			"0.002": 6.79346863747,
			"0.003": 5.65306196187,
			"0.004": 4.4910068067,
			"0.005": 4.68245860824,
			"0.006": 4.49446913175,
			"0.007": 3.89005240999,
			"0.008": 3.24215910962,
			"0.009": 2.81346233088,
			"0.01": 4.09862560106,
			"0.011": 3.64432987567,
			"0.012": 3.35819883078,
			"0.013": 3.16806073926,
			"0.014": 1.9795732433,
			"0.015": 0.84812185268,
			"0.016": 0.659852500817,
			"0.017": 0.176596754544,
			"0.018": 0.0,
			"0.019": 0.0,
			"0.02": 0.0,
			"0.021": 0.0,
			"0.022": 0.0,
			"0.023": 0.0,
			"0.024": 0.0,
			"0.025": 0.0
		}
	}
}
