{
	 "smiles": "N#CC(=NNC1=CC=CC=C1)C1=NC(=CS1)C1=CC=CC=C1", 
	 "Tm": 448.15, 
	 "num_atms": 34, 
	 "gaussian": { 
		 "optdone": 1, 
		 "sigma_profile": "yes", 
		 "theory": "DFT", 
		 "functional": "B3LYP", 
		 "basiset": "6-31G**", 
		 "properties": { 
			 "R2extent": 9203.4583, 
			 "electric_dipole_moment_norm": 6.04838915415, 
			 "electric_quadrupole_moment_norm": 23.8868947557, 
			 "total_energy": -1272.18896288, 
			 "HOMO_LUMO_gap": 0.12739, 
			 "cosmo_polarized_energy": -13.16, 
			 "cosmo_cavitation_energy": 42.32, 
			 "cosmo_dispersion_energy": -29.67, 
			 "cosmo_repulsion_energy": 2.18, 
			 "cosmo_total_nonelectrostatic_energy": 14.84, 
			 "SMD_solvation_energy": 6.93 
		},
		"coords": [
			{
				"x": -1.3543176272,
				"y": -2.7724352066,
				"z": 4.2930874071,
				"element": "N" 
			},
			{
				"x": -1.2843008482,
				"y": -2.0952317154,
				"z": 3.3488035127,
				"element": "C" 
			},
			{
				"x": -1.1457937086,
				"y": -1.2320077686,
				"z": 2.2131654379,
				"element": "C" 
			},
			{
				"x": -2.0533302443,
				"y": -1.3803544678,
				"z": 1.2689646769,
				"element": "N" 
			},
			{
				"x": -2.0134515744,
				"y": -0.6293335934,
				"z": 0.1945673806,
				"element": "N" 
			},
			{
				"x": -2.9771095201,
				"y": -0.7604680065,
				"z": -0.8185566236,
				"element": "C" 
			},
			{
				"x": -2.8916800247,
				"y": 0.1045325661,
				"z": -1.9184119584,
				"element": "C" 
			},
			{
				"x": -3.8244823422,
				"y": 0.0067222754,
				"z": -2.9485091495,
				"element": "C" 
			},
			{
				"x": -4.84292541,
				"y": -0.9465439938,
				"z": -2.8906981515,
				"element": "C" 
			},
			{
				"x": -4.9205521792,
				"y": -1.8038985732,
				"z": -1.7890772551,
				"element": "C" 
			},
			{
				"x": -3.996313028,
				"y": -1.7202343325,
				"z": -0.7511984894,
				"element": "C" 
			},
			{
				"x": -0.0430649371,
				"y": -0.2808064233,
				"z": 2.2051124825,
				"element": "C" 
			},
			{
				"x": 0.2128225336,
				"y": 0.5383349457,
				"z": 1.2067520347,
				"element": "N" 
			},
			{
				"x": 1.2980244337,
				"y": 1.352463834,
				"z": 1.4613630806,
				"element": "C" 
			},
			{
				"x": 1.8815687865,
				"y": 1.1359041265,
				"z": 2.6871370306,
				"element": "C" 
			},
			{
				"x": 1.0636486924,
				"y": -0.107482999,
				"z": 3.563608247,
				"element": "S" 
			},
			{
				"x": 1.740263344,
				"y": 2.3283609733,
				"z": 0.44654339,
				"element": "C" 
			},
			{
				"x": 2.4648490966,
				"y": 3.4749184272,
				"z": 0.8111098384,
				"element": "C" 
			},
			{
				"x": 2.8943720386,
				"y": 4.380799585,
				"z": -0.1563864056,
				"element": "C" 
			},
			{
				"x": 2.6022656423,
				"y": 4.1614282568,
				"z": -1.5044169496,
				"element": "C" 
			},
			{
				"x": 1.8766208387,
				"y": 3.0281351309,
				"z": -1.8768015222,
				"element": "C" 
			},
			{
				"x": 1.4484338175,
				"y": 2.119114506,
				"z": -0.9110643862,
				"element": "C" 
			},
			{
				"x": -1.2638734767,
				"y": 0.0695941901,
				"z": 0.116808161,
				"element": "H" 
			},
			{
				"x": -2.1018062544,
				"y": 0.8501580409,
				"z": -1.9601764512,
				"element": "H" 
			},
			{
				"x": -3.7537143789,
				"y": 0.6802218563,
				"z": -3.7974619112,
				"element": "H" 
			},
			{
				"x": -5.5689590465,
				"y": -1.0208245562,
				"z": -3.694195819,
				"element": "H" 
			},
			{
				"x": -5.7097525413,
				"y": -2.5482083141,
				"z": -1.7358704668,
				"element": "H" 
			},
			{
				"x": -4.0485724628,
				"y": -2.3807507227,
				"z": 0.1057655629,
				"element": "H" 
			},
			{
				"x": 2.7586429089,
				"y": 1.6120922346,
				"z": 3.0997845676,
				"element": "H" 
			},
			{
				"x": 2.6721827563,
				"y": 3.6708931531,
				"z": 1.8590129633,
				"element": "H" 
			},
			{
				"x": 3.4490670409,
				"y": 5.2649061277,
				"z": 0.1441162581,
				"element": "H" 
			},
			{
				"x": 2.9344438492,
				"y": 4.8698574801,
				"z": -2.2574720972,
				"element": "H" 
			},
			{
				"x": 1.6477539799,
				"y": 2.8480386587,
				"z": -2.9232774769,
				"element": "H" 
			},
			{
				"x": 0.9001398457,
				"y": 1.2296043047,
				"z": -1.2029269187,
				"element": "H" 
			}
		],
		 "valence_orbital": [ 
			{
				"type": "occ",
				"energy": -0.27908,
				"method": "rhf"
			},
			{
				"type": "occ",
				"energy": -0.26349,
				"method": "rhf"
			},
			{
				"type": "occ",
				"energy": -0.26152,
				"method": "rhf"
			},
			{
				"type": "occ",
				"energy": -0.24236,
				"method": "rhf"
			},
			{
				"type": "occ",
				"energy": -0.21055,
				"method": "rhf"
			},
			{
				"type": "unocc",
				"energy": -0.08316,
				"method": "rhf"
			},
			{
				"type": "unocc",
				"energy": -0.04297,
				"method": "rhf"
			},
			{
				"type": "unocc",
				"energy": -0.01533,
				"method": "rhf"
			},
			{
				"type": "unocc",
				"energy": -0.01146,
				"method": "rhf"
			},
			{
				"type": "unocc",
				"energy": -0.00598,
				"method": "rhf"
			}
		],
		"cosmo_sigma_profile": { 
			"-0.025": 0.0,
			"-0.024": 0.0,
			"-0.023": 0.0,
			"-0.022": 0.0,
			"-0.021": 0.0,
			"-0.02": 0.0,
			"-0.019": 0.0,
			"-0.018": 0.0,
			"-0.017": 0.0,
			"-0.016": 0.0,
			"-0.015": 0.0,
			"-0.014": 0.0,
			"-0.013": 0.0,
			"-0.012": 0.0,
			"-0.011": 0.0558743467563,
			"-0.01": 1.78179090999,
			"-0.009": 3.18100267091,
			"-0.008": 3.8738674569,
			"-0.007": 5.41982691742,
			"-0.006": 18.2694556064,
			"-0.005": 22.4121444376,
			"-0.004": 26.1283585828,
			"-0.003": 25.1117486549,
			"-0.002": 24.3519839924,
			"-0.001": 24.1777874816,
			"0.0": 30.7351258804,
			"0.001": 33.9948610387,
			"0.002": 29.1662345136,
			"0.003": 25.1225989504,
			"0.004": 24.9573581521,
			"0.005": 23.486303394,
			"0.006": 5.10875251848,
			"0.007": 2.78891946037,
			"0.008": 2.86672457101,
			"0.009": 3.24716884289,
			"0.01": 3.08605716075,
			"0.011": 2.5012940484,
			"0.012": 2.40820687566,
			"0.013": 0.845486119527,
			"0.014": 0.0,
			"0.015": 0.0,
			"0.016": 0.0,
			"0.017": 0.0,
			"0.018": 0.0,
			"0.019": 0.0,
			"0.02": 0.0,
			"0.021": 0.0,
			"0.022": 0.0,
			"0.023": 0.0,
			"0.024": 0.0,
			"0.025": 0.0
		}
	}
}
