{
	 "smiles": "CC1(O)CCC2C3CCC4=CC(=O)C(C=O)=CC4(C)C3C(O)CC12C", 
	 "Tm": 483.15, 
	 "num_atms": 53, 
	 "gaussian": { 
		 "optdone": 1, 
		 "sigma_profile": "yes", 
		 "theory": "DFT", 
		 "functional": "B3LYP", 
		 "basiset": "6-31G**", 
		 "properties": { 
			 "R2extent": 9177.3358, 
			 "electric_dipole_moment_norm": 7.7234523686, 
			 "electric_quadrupole_moment_norm": 44.6045636443, 
			 "total_energy": -1117.96553643, 
			 "HOMO_LUMO_gap": 0.15543, 
			 "cosmo_polarized_energy": -29.46, 
			 "cosmo_cavitation_energy": 47.73, 
			 "cosmo_dispersion_energy": -32.39, 
			 "cosmo_repulsion_energy": 2.37, 
			 "cosmo_total_nonelectrostatic_energy": 17.72, 
			 "SMD_solvation_energy": 8.88 
		},
		"coords": [
			{
				"x": 2.7122288749,
				"y": 0.4333954401,
				"z": -4.6435362967,
				"element": "C" 
			},
			{
				"x": 2.1749902428,
				"y": 1.3953792135,
				"z": -3.5810237388,
				"element": "C" 
			},
			{
				"x": 3.0271997953,
				"y": 2.5534911468,
				"z": -3.5271909279,
				"element": "O" 
			},
			{
				"x": 0.7811097474,
				"y": 1.9628634484,
				"z": -3.9101196493,
				"element": "C" 
			},
			{
				"x": 0.1636905911,
				"y": 2.4050794547,
				"z": -2.559845649,
				"element": "C" 
			},
			{
				"x": 1.1233596848,
				"y": 1.8839762181,
				"z": -1.4501596614,
				"element": "C" 
			},
			{
				"x": 0.4609472335,
				"y": 1.4082961463,
				"z": -0.1427829933,
				"element": "C" 
			},
			{
				"x": -0.3682200967,
				"y": 2.4968095262,
				"z": 0.5491002115,
				"element": "C" 
			},
			{
				"x": -0.7692907994,
				"y": 2.0439434884,
				"z": 1.9741591595,
				"element": "C" 
			},
			{
				"x": -0.7959392013,
				"y": 0.5372072016,
				"z": 2.1251853091,
				"element": "C" 
			},
			{
				"x": -0.4371998729,
				"y": -0.0622074476,
				"z": 3.2744522242,
				"element": "C" 
			},
			{
				"x": -0.4695156733,
				"y": -1.5198523116,
				"z": 3.5008327151,
				"element": "C" 
			},
			{
				"x": -0.1194880451,
				"y": -2.0077148646,
				"z": 4.567353745,
				"element": "O" 
			},
			{
				"x": -0.9635436334,
				"y": -2.3339273064,
				"z": 2.34827953,
				"element": "C" 
			},
			{
				"x": -1.1195180747,
				"y": -3.8107630584,
				"z": 2.4089578794,
				"element": "C" 
			},
			{
				"x": -0.8882164484,
				"y": -4.5357741548,
				"z": 3.3504806256,
				"element": "O" 
			},
			{
				"x": -1.2816025354,
				"y": -1.7315243539,
				"z": 1.1851705999,
				"element": "C" 
			},
			{
				"x": -1.2613052989,
				"y": -0.2545593671,
				"z": 0.9167437036,
				"element": "C" 
			},
			{
				"x": -2.7467466642,
				"y": 0.1267732907,
				"z": 0.6140569757,
				"element": "C" 
			},
			{
				"x": -0.3721390937,
				"y": 0.1220590732,
				"z": -0.3592517393,
				"element": "C" 
			},
			{
				"x": 0.5611996789,
				"y": -0.9886492465,
				"z": -0.8698744098,
				"element": "C" 
			},
			{
				"x": 1.4770318522,
				"y": -1.2948277092,
				"z": 0.1814170392,
				"element": "O" 
			},
			{
				"x": 1.2517982765,
				"y": -0.5572661347,
				"z": -2.1806010956,
				"element": "C" 
			},
			{
				"x": 2.0089345839,
				"y": 0.7976077679,
				"z": -2.1344942168,
				"element": "C" 
			},
			{
				"x": 3.3637178099,
				"y": 0.6217967571,
				"z": -1.4258175336,
				"element": "C" 
			},
			{
				"x": 2.0636784576,
				"y": -0.4349761429,
				"z": -4.7881853228,
				"element": "H" 
			},
			{
				"x": 2.7976439689,
				"y": 0.9591154156,
				"z": -5.599246692,
				"element": "H" 
			},
			{
				"x": 3.7097641181,
				"y": 0.0630878095,
				"z": -4.3764801672,
				"element": "H" 
			},
			{
				"x": 3.9293861416,
				"y": 2.2513691435,
				"z": -3.3596579556,
				"element": "H" 
			},
			{
				"x": 0.1663188,
				"y": 1.1971880284,
				"z": -4.3939570341,
				"element": "H" 
			},
			{
				"x": 0.8883048399,
				"y": 2.7861685825,
				"z": -4.6207945484,
				"element": "H" 
			},
			{
				"x": 0.0670743876,
				"y": 3.4924989218,
				"z": -2.5008248922,
				"element": "H" 
			},
			{
				"x": -0.8486819367,
				"y": 2.0016094478,
				"z": -2.4502540551,
				"element": "H" 
			},
			{
				"x": 1.792659344,
				"y": 2.7116670174,
				"z": -1.1896960425,
				"element": "H" 
			},
			{
				"x": 1.2715006611,
				"y": 1.1407706407,
				"z": 0.5475716971,
				"element": "H" 
			},
			{
				"x": -1.2558729813,
				"y": 2.7289829363,
				"z": -0.0517576957,
				"element": "H" 
			},
			{
				"x": 0.2085733833,
				"y": 3.4266972163,
				"z": 0.6073937941,
				"element": "H" 
			},
			{
				"x": -0.0725402084,
				"y": 2.4507321997,
				"z": 2.7138766548,
				"element": "H" 
			},
			{
				"x": -1.755968181,
				"y": 2.4519604332,
				"z": 2.2331668531,
				"element": "H" 
			},
			{
				"x": -0.092508722,
				"y": 0.5200238328,
				"z": 4.1257663673,
				"element": "H" 
			},
			{
				"x": -1.4977847458,
				"y": -4.2346138112,
				"z": 1.44509734,
				"element": "H" 
			},
			{
				"x": -1.6466717264,
				"y": -2.3559144205,
				"z": 0.3676680718,
				"element": "H" 
			},
			{
				"x": -3.1208715395,
				"y": -0.4509400745,
				"z": -0.2377185705,
				"element": "H" 
			},
			{
				"x": -2.8413565721,
				"y": 1.1864591368,
				"z": 0.3652264396,
				"element": "H" 
			},
			{
				"x": -3.3835790177,
				"y": -0.0832493008,
				"z": 1.4781027244,
				"element": "H" 
			},
			{
				"x": -1.082050265,
				"y": 0.3066634328,
				"z": -1.1749346906,
				"element": "H" 
			},
			{
				"x": -0.0345815992,
				"y": -1.884278831,
				"z": -1.1060270878,
				"element": "H" 
			},
			{
				"x": 2.0106886801,
				"y": -2.053276654,
				"z": -0.0879602323,
				"element": "H" 
			},
			{
				"x": 0.4677809015,
				"y": -0.5265809914,
				"z": -2.9474054694,
				"element": "H" 
			},
			{
				"x": 1.9375514449,
				"y": -1.3576378302,
				"z": -2.4901189413,
				"element": "H" 
			},
			{
				"x": 3.2299346747,
				"y": 0.2034080294,
				"z": -0.4270132948,
				"element": "H" 
			},
			{
				"x": 3.8839174877,
				"y": 1.5792027159,
				"z": -1.3240821585,
				"element": "H" 
			},
			{
				"x": 4.0151072701,
				"y": -0.0664491019,
				"z": -1.9798468978,
				"element": "H" 
			}
		],
		 "valence_orbital": [ 
			{
				"type": "occ",
				"energy": -0.27161,
				"method": "rhf"
			},
			{
				"type": "occ",
				"energy": -0.26313,
				"method": "rhf"
			},
			{
				"type": "occ",
				"energy": -0.25699,
				"method": "rhf"
			},
			{
				"type": "occ",
				"energy": -0.25171,
				"method": "rhf"
			},
			{
				"type": "occ",
				"energy": -0.22094,
				"method": "rhf"
			},
			{
				"type": "unocc",
				"energy": -0.06551,
				"method": "rhf"
			},
			{
				"type": "unocc",
				"energy": -0.03793,
				"method": "rhf"
			},
			{
				"type": "unocc",
				"energy": 0.03395,
				"method": "rhf"
			},
			{
				"type": "unocc",
				"energy": 0.04462,
				"method": "rhf"
			},
			{
				"type": "unocc",
				"energy": 0.06587,
				"method": "rhf"
			}
		],
		"cosmo_sigma_profile": { 
			"-0.025": 0.0,
			"-0.024": 0.0,
			"-0.023": 0.0,
			"-0.022": 0.0,
			"-0.021": 0.0,
			"-0.02": 0.0,
			"-0.019": 0.0,
			"-0.018": 0.0,
			"-0.017": 0.0,
			"-0.016": 0.0695122161003,
			"-0.015": 0.822153467114,
			"-0.014": 1.50962952303,
			"-0.013": 1.04636348292,
			"-0.012": 1.68500810749,
			"-0.011": 1.49321941596,
			"-0.01": 1.71674841517,
			"-0.009": 3.22299614381,
			"-0.008": 6.62100458432,
			"-0.007": 6.37983306807,
			"-0.006": 8.41312656547,
			"-0.005": 18.9770877755,
			"-0.004": 32.9626563598,
			"-0.003": 37.6718019999,
			"-0.002": 45.3342425912,
			"-0.001": 43.4344910228,
			"0.0": 35.7628154175,
			"0.001": 27.3706881485,
			"0.002": 16.5597948112,
			"0.003": 7.03432447297,
			"0.004": 5.13421661668,
			"0.005": 5.93624947372,
			"0.006": 5.68324881503,
			"0.007": 6.55951850298,
			"0.008": 5.33188462115,
			"0.009": 5.91926642196,
			"0.01": 5.38869603215,
			"0.011": 7.1930106409,
			"0.012": 7.26648395813,
			"0.013": 6.95480395934,
			"0.014": 5.1479940155,
			"0.015": 2.19315790831,
			"0.016": 0.837927927652,
			"0.017": 1.20022841286,
			"0.018": 0.131701279786,
			"0.019": 0.0,
			"0.02": 0.0,
			"0.021": 0.0,
			"0.022": 0.0,
			"0.023": 0.0,
			"0.024": 0.0,
			"0.025": 0.0
		}
	}
}
