{
	 "smiles": "CC1=C(C(C)=NO1)S(=O)(=O)NCCC(O)=O", 
	 "Tm": 385.15, 
	 "num_atms": 28, 
	 "gaussian": { 
		 "optdone": 1, 
		 "sigma_profile": "yes", 
		 "theory": "DFT", 
		 "functional": "B3LYP", 
		 "basiset": "6-31G**", 
		 "properties": { 
			 "R2extent": 4884.4874, 
			 "electric_dipole_moment_norm": 4.6471341771, 
			 "electric_quadrupole_moment_norm": 18.6656454509, 
			 "total_energy": -1195.79537726, 
			 "HOMO_LUMO_gap": 0.23611, 
			 "cosmo_polarized_energy": -23.21, 
			 "cosmo_cavitation_energy": 33.94, 
			 "cosmo_dispersion_energy": -24.14, 
			 "cosmo_repulsion_energy": 1.87, 
			 "cosmo_total_nonelectrostatic_energy": 11.66, 
			 "SMD_solvation_energy": 5.91 
		},
		"coords": [
			{
				"x": 1.0699965293,
				"y": -2.8603823013,
				"z": -2.5263257648,
				"element": "C" 
			},
			{
				"x": 0.0468365954,
				"y": -2.617216931,
				"z": -1.4727593046,
				"element": "C" 
			},
			{
				"x": 0.056906989,
				"y": -2.0270015341,
				"z": -0.2317862396,
				"element": "C" 
			},
			{
				"x": -1.2930770305,
				"y": -2.1593080786,
				"z": 0.2502411425,
				"element": "C" 
			},
			{
				"x": -1.8932177901,
				"y": -1.7357895511,
				"z": 1.5542775396,
				"element": "C" 
			},
			{
				"x": -2.0390469059,
				"y": -2.772595243,
				"z": -0.6369241283,
				"element": "N" 
			},
			{
				"x": -1.1931061636,
				"y": -3.0590573611,
				"z": -1.7254375568,
				"element": "O" 
			},
			{
				"x": 1.4425890631,
				"y": -1.2964898094,
				"z": 0.5962127221,
				"element": "S" 
			},
			{
				"x": 2.6583824801,
				"y": -1.8350489058,
				"z": -0.0158160611,
				"element": "O" 
			},
			{
				"x": 1.1733280275,
				"y": -1.3892025628,
				"z": 2.0296646566,
				"element": "O" 
			},
			{
				"x": 1.4672229831,
				"y": 0.3398166377,
				"z": 0.2221254215,
				"element": "N" 
			},
			{
				"x": 0.3595603268,
				"y": 1.2009781068,
				"z": 0.6466865848,
				"element": "C" 
			},
			{
				"x": 0.8153058279,
				"y": 2.6594386353,
				"z": 0.6655274986,
				"element": "C" 
			},
			{
				"x": -0.2853416018,
				"y": 3.5741561829,
				"z": 1.1574277856,
				"element": "C" 
			},
			{
				"x": 0.0823823494,
				"y": 4.8732740944,
				"z": 1.093065395,
				"element": "O" 
			},
			{
				"x": -1.3666569316,
				"y": 3.2127760977,
				"z": 1.5676069809,
				"element": "O" 
			},
			{
				"x": 0.8806670622,
				"y": -2.2247101183,
				"z": -3.3987890647,
				"element": "H" 
			},
			{
				"x": 1.0163563605,
				"y": -3.9006253914,
				"z": -2.8603845642,
				"element": "H" 
			},
			{
				"x": 2.0657605776,
				"y": -2.6553464882,
				"z": -2.1348285617,
				"element": "H" 
			},
			{
				"x": -2.9123970775,
				"y": -2.120320581,
				"z": 1.6225802529,
				"element": "H" 
			},
			{
				"x": -1.9267066973,
				"y": -0.6452278928,
				"z": 1.6396387326,
				"element": "H" 
			},
			{
				"x": -1.2958666368,
				"y": -2.1112613747,
				"z": 2.3878122402,
				"element": "H" 
			},
			{
				"x": 1.7925505561,
				"y": 0.4772905974,
				"z": -0.7307818324,
				"element": "H" 
			},
			{
				"x": -0.5269264753,
				"y": 1.0922442521,
				"z": 0.0072162562,
				"element": "H" 
			},
			{
				"x": 0.0782592862,
				"y": 0.8984207936,
				"z": 1.656732165,
				"element": "H" 
			},
			{
				"x": 1.6885547222,
				"y": 2.7776776094,
				"z": 1.3167785236,
				"element": "H" 
			},
			{
				"x": 1.1287176476,
				"y": 3.0022488999,
				"z": -0.3282659596,
				"element": "H" 
			},
			{
				"x": -0.6672340737,
				"y": 5.3882622175,
				"z": 1.4369051399,
				"element": "H" 
			}
		],
		 "valence_orbital": [ 
			{
				"type": "occ",
				"energy": -0.31163,
				"method": "rhf"
			},
			{
				"type": "occ",
				"energy": -0.30498,
				"method": "rhf"
			},
			{
				"type": "occ",
				"energy": -0.29529,
				"method": "rhf"
			},
			{
				"type": "occ",
				"energy": -0.2902,
				"method": "rhf"
			},
			{
				"type": "occ",
				"energy": -0.26845,
				"method": "rhf"
			},
			{
				"type": "unocc",
				"energy": -0.03234,
				"method": "rhf"
			},
			{
				"type": "unocc",
				"energy": -0.00694,
				"method": "rhf"
			},
			{
				"type": "unocc",
				"energy": 0.00991,
				"method": "rhf"
			},
			{
				"type": "unocc",
				"energy": 0.05389,
				"method": "rhf"
			},
			{
				"type": "unocc",
				"energy": 0.06249,
				"method": "rhf"
			}
		],
		"cosmo_sigma_profile": { 
			"-0.025": 0.0,
			"-0.024": 0.0,
			"-0.023": 0.0,
			"-0.022": 0.0,
			"-0.021": 0.0,
			"-0.02": 0.0,
			"-0.019": 0.0318528446994,
			"-0.018": 0.643136270109,
			"-0.017": 1.37844603942,
			"-0.016": 0.632833974262,
			"-0.015": 2.02162682317,
			"-0.014": 2.13462848615,
			"-0.013": 1.96672897071,
			"-0.012": 2.46833427648,
			"-0.011": 2.18056905128,
			"-0.01": 2.15941563998,
			"-0.009": 1.95161293402,
			"-0.008": 3.84424125463,
			"-0.007": 9.69942177415,
			"-0.006": 15.1680100947,
			"-0.005": 21.3860353918,
			"-0.004": 21.5041700559,
			"-0.003": 20.7368629805,
			"-0.002": 23.4821041877,
			"-0.001": 17.082645315,
			"0.0": 9.1709613114,
			"0.001": 7.95911297887,
			"0.002": 9.00966336002,
			"0.003": 7.62096141485,
			"0.004": 7.97086909819,
			"0.005": 7.59268558547,
			"0.006": 8.43664590915,
			"0.007": 13.4843857304,
			"0.008": 9.14804614009,
			"0.009": 8.65165320177,
			"0.01": 9.31288033764,
			"0.011": 12.9624220586,
			"0.012": 5.32564506381,
			"0.013": 1.01583661619,
			"0.014": 0.239160036907,
			"0.015": 0.0,
			"0.016": 0.0,
			"0.017": 0.0,
			"0.018": 0.0,
			"0.019": 0.0,
			"0.02": 0.0,
			"0.021": 0.0,
			"0.022": 0.0,
			"0.023": 0.0,
			"0.024": 0.0,
			"0.025": 0.0
		}
	}
}
