{
	 "smiles": "CCC1=CC(CC(O)=O)=CC=C1", 
	 "Tm": 332.15, 
	 "num_atms": 24, 
	 "gaussian": { 
		 "optdone": 1, 
		 "sigma_profile": "yes", 
		 "theory": "DFT", 
		 "functional": "B3LYP", 
		 "basiset": "6-31G**", 
		 "properties": { 
			 "R2extent": 2754.7037, 
			 "electric_dipole_moment_norm": 1.20115781644, 
			 "electric_quadrupole_moment_norm": 5.53236452071, 
			 "total_energy": -538.772957852, 
			 "HOMO_LUMO_gap": 0.22846, 
			 "cosmo_polarized_energy": -9.48, 
			 "cosmo_cavitation_energy": 28.0, 
			 "cosmo_dispersion_energy": -19.56, 
			 "cosmo_repulsion_energy": 1.6, 
			 "cosmo_total_nonelectrostatic_energy": 10.04, 
			 "SMD_solvation_energy": 5.82 
		},
		"coords": [
			{
				"x": 2.2857126826,
				"y": 1.6238607774,
				"z": -0.4350065704,
				"element": "C" 
			},
			{
				"x": 2.2006399022,
				"y": 0.3931873878,
				"z": -1.3559175169,
				"element": "C" 
			},
			{
				"x": 0.7822229629,
				"y": -0.1050610464,
				"z": -1.5394905084,
				"element": "C" 
			},
			{
				"x": 0.2384566038,
				"y": -1.0501574717,
				"z": -0.6623395376,
				"element": "C" 
			},
			{
				"x": -1.0834733238,
				"y": -1.4940165523,
				"z": -0.7940139997,
				"element": "C" 
			},
			{
				"x": -1.6411075477,
				"y": -2.5318388035,
				"z": 0.1705894904,
				"element": "C" 
			},
			{
				"x": -1.6583826623,
				"y": -2.0025690319,
				"z": 1.5927656544,
				"element": "C" 
			},
			{
				"x": -2.8587741534,
				"y": -1.4710985449,
				"z": 1.9231642605,
				"element": "O" 
			},
			{
				"x": -0.7160105308,
				"y": -2.0140084965,
				"z": 2.3546378197,
				"element": "O" 
			},
			{
				"x": -1.8768677548,
				"y": -0.9756033092,
				"z": -1.8219840744,
				"element": "C" 
			},
			{
				"x": -1.347264683,
				"y": -0.0353764649,
				"z": -2.7076050726,
				"element": "C" 
			},
			{
				"x": -0.0290501785,
				"y": 0.3956661081,
				"z": -2.5678421957,
				"element": "C" 
			},
			{
				"x": 1.7000899918,
				"y": 2.4566228403,
				"z": -0.8380780592,
				"element": "H" 
			},
			{
				"x": 1.894197428,
				"y": 1.39438233,
				"z": 0.5611947374,
				"element": "H" 
			},
			{
				"x": 3.3222426495,
				"y": 1.959425713,
				"z": -0.3242193746,
				"element": "H" 
			},
			{
				"x": 2.8195040436,
				"y": -0.4107232139,
				"z": -0.9403077533,
				"element": "H" 
			},
			{
				"x": 2.6293498382,
				"y": 0.6435377674,
				"z": -2.3337934094,
				"element": "H" 
			},
			{
				"x": 0.8493701976,
				"y": -1.4472220548,
				"z": 0.1449848055,
				"element": "H" 
			},
			{
				"x": -2.6523539078,
				"y": -2.8187626305,
				"z": -0.1258323694,
				"element": "H" 
			},
			{
				"x": -1.0085170412,
				"y": -3.4247536217,
				"z": 0.172933656,
				"element": "H" 
			},
			{
				"x": -2.7606931655,
				"y": -1.12460081,
				"z": 2.826450443,
				"element": "H" 
			},
			{
				"x": -2.9043427886,
				"y": -1.3114742892,
				"z": -1.9338861573,
				"element": "H" 
			},
			{
				"x": -1.9648227967,
				"y": 0.3582407456,
				"z": -3.5101808871,
				"element": "H" 
			},
			{
				"x": 0.3787742339,
				"y": 1.1242426718,
				"z": -3.2646233809,
				"element": "H" 
			}
		],
		 "valence_orbital": [ 
			{
				"type": "occ",
				"energy": -0.32704,
				"method": "rhf"
			},
			{
				"type": "occ",
				"energy": -0.31782,
				"method": "rhf"
			},
			{
				"type": "occ",
				"energy": -0.27622,
				"method": "rhf"
			},
			{
				"type": "occ",
				"energy": -0.24379,
				"method": "rhf"
			},
			{
				"type": "occ",
				"energy": -0.23833,
				"method": "rhf"
			},
			{
				"type": "unocc",
				"energy": -0.00987,
				"method": "rhf"
			},
			{
				"type": "unocc",
				"energy": -0.00076,
				"method": "rhf"
			},
			{
				"type": "unocc",
				"energy": 0.01924,
				"method": "rhf"
			},
			{
				"type": "unocc",
				"energy": 0.07891,
				"method": "rhf"
			},
			{
				"type": "unocc",
				"energy": 0.09507,
				"method": "rhf"
			}
		],
		"cosmo_sigma_profile": { 
			"-0.025": 0.0,
			"-0.024": 0.0,
			"-0.023": 0.0,
			"-0.022": 0.0,
			"-0.021": 0.0,
			"-0.02": 0.0,
			"-0.019": 0.00782574113646,
			"-0.018": 0.594711211374,
			"-0.017": 1.11799645281,
			"-0.016": 0.902615365751,
			"-0.015": 0.363087376933,
			"-0.014": 0.770464113462,
			"-0.013": 0.976103787959,
			"-0.012": 0.567661299069,
			"-0.011": 0.784640839576,
			"-0.01": 1.15799075413,
			"-0.009": 0.330827004965,
			"-0.008": 0.2606203006,
			"-0.007": 1.61396588557,
			"-0.006": 7.41528773462,
			"-0.005": 11.2254667714,
			"-0.004": 15.5268909908,
			"-0.003": 23.778681703,
			"-0.002": 21.1303798659,
			"-0.001": 21.1376226794,
			"0.0": 20.0194082263,
			"0.001": 18.7126448287,
			"0.002": 12.3519739487,
			"0.003": 10.6457582548,
			"0.004": 10.3749595966,
			"0.005": 9.98466969772,
			"0.006": 9.6223882029,
			"0.007": 3.07605352958,
			"0.008": 2.40600496783,
			"0.009": 3.12693913644,
			"0.01": 2.55610844478,
			"0.011": 2.99352639014,
			"0.012": 4.58319818389,
			"0.013": 0.384909429091,
			"0.014": 0.0,
			"0.015": 0.0,
			"0.016": 0.0,
			"0.017": 0.0,
			"0.018": 0.0,
			"0.019": 0.0,
			"0.02": 0.0,
			"0.021": 0.0,
			"0.022": 0.0,
			"0.023": 0.0,
			"0.024": 0.0,
			"0.025": 0.0
		}
	}
}
