{
	 "smiles": "CC(=O)N1C=C(C(C)=O)C2=C1C=CC=C2", 
	 "Tm": 418.65, 
	 "num_atms": 26, 
	 "gaussian": { 
		 "optdone": 1, 
		 "sigma_profile": "yes", 
		 "theory": "DFT", 
		 "functional": "B3LYP", 
		 "basiset": "6-31G**", 
		 "properties": { 
			 "R2extent": 3331.0586, 
			 "electric_dipole_moment_norm": 3.1273736889, 
			 "electric_quadrupole_moment_norm": 12.4346483324, 
			 "total_energy": -669.125714185, 
			 "HOMO_LUMO_gap": 0.1682, 
			 "cosmo_polarized_energy": -12.85, 
			 "cosmo_cavitation_energy": 29.86, 
			 "cosmo_dispersion_energy": -21.66, 
			 "cosmo_repulsion_energy": 1.65, 
			 "cosmo_total_nonelectrostatic_energy": 9.85, 
			 "SMD_solvation_energy": 6.65 
		},
		"coords": [
			{
				"x": 2.6452116474,
				"y": -1.7996289799,
				"z": -0.3754326116,
				"element": "C" 
			},
			{
				"x": 1.4066353251,
				"y": -1.6930702994,
				"z": 0.4800665884,
				"element": "C" 
			},
			{
				"x": 1.1551632162,
				"y": -2.4880290928,
				"z": 1.3652319951,
				"element": "O" 
			},
			{
				"x": 0.5110888408,
				"y": -0.6229057107,
				"z": 0.2330182121,
				"element": "N" 
			},
			{
				"x": -0.6400963821,
				"y": -0.4976218147,
				"z": 1.0048804571,
				"element": "C" 
			},
			{
				"x": -1.367201431,
				"y": 0.5915387227,
				"z": 0.612281207,
				"element": "C" 
			},
			{
				"x": -2.6438511645,
				"y": 1.0519176775,
				"z": 1.1881742447,
				"element": "C" 
			},
			{
				"x": -3.238896271,
				"y": 0.2557333307,
				"z": 2.3391647191,
				"element": "C" 
			},
			{
				"x": -3.2095188845,
				"y": 2.0480898636,
				"z": 0.7536363242,
				"element": "O" 
			},
			{
				"x": -0.6398976996,
				"y": 1.2104082651,
				"z": -0.4835207875,
				"element": "C" 
			},
			{
				"x": 0.5289915261,
				"y": 0.4404035805,
				"z": -0.7071315211,
				"element": "C" 
			},
			{
				"x": 1.4407785639,
				"y": 0.788935818,
				"z": -1.7085756735,
				"element": "C" 
			},
			{
				"x": 1.1609056269,
				"y": 1.9179202012,
				"z": -2.4780841563,
				"element": "C" 
			},
			{
				"x": 0.0064822791,
				"y": 2.6855516732,
				"z": -2.2635003497,
				"element": "C" 
			},
			{
				"x": -0.9017288422,
				"y": 2.3404776744,
				"z": -1.2678232681,
				"element": "C" 
			},
			{
				"x": 3.2003129471,
				"y": -2.6743977179,
				"z": -0.0384599966,
				"element": "H" 
			},
			{
				"x": 2.3872580089,
				"y": -1.9170238394,
				"z": -1.4321216288,
				"element": "H" 
			},
			{
				"x": 3.2730541632,
				"y": -0.9093051963,
				"z": -0.2752103765,
				"element": "H" 
			},
			{
				"x": -0.8160079751,
				"y": -1.2295009434,
				"z": 1.7771396365,
				"element": "H" 
			},
			{
				"x": -4.1738328783,
				"y": 0.7258873176,
				"z": 2.6455557382,
				"element": "H" 
			},
			{
				"x": -2.5504487872,
				"y": 0.2258719414,
				"z": 3.1908824582,
				"element": "H" 
			},
			{
				"x": -3.433685648,
				"y": -0.7796649811,
				"z": 2.0387107346,
				"element": "H" 
			},
			{
				"x": 2.3404963906,
				"y": 0.2232933837,
				"z": -1.9042644707,
				"element": "H" 
			},
			{
				"x": 1.8579572831,
				"y": 2.2034504193,
				"z": -3.2603100975,
				"element": "H" 
			},
			{
				"x": -0.1781782312,
				"y": 3.5582826354,
				"z": -2.8826263689,
				"element": "H" 
			},
			{
				"x": -1.7998916239,
				"y": 2.9164860714,
				"z": -1.0824810084,
				"element": "H" 
			}
		],
		 "valence_orbital": [ 
			{
				"type": "occ",
				"energy": -0.28858,
				"method": "rhf"
			},
			{
				"type": "occ",
				"energy": -0.28465,
				"method": "rhf"
			},
			{
				"type": "occ",
				"energy": -0.24635,
				"method": "rhf"
			},
			{
				"type": "occ",
				"energy": -0.24206,
				"method": "rhf"
			},
			{
				"type": "occ",
				"energy": -0.22888,
				"method": "rhf"
			},
			{
				"type": "unocc",
				"energy": -0.06068,
				"method": "rhf"
			},
			{
				"type": "unocc",
				"energy": -0.02044,
				"method": "rhf"
			},
			{
				"type": "unocc",
				"energy": -0.01146,
				"method": "rhf"
			},
			{
				"type": "unocc",
				"energy": 0.03208,
				"method": "rhf"
			},
			{
				"type": "unocc",
				"energy": 0.08434,
				"method": "rhf"
			}
		],
		"cosmo_sigma_profile": { 
			"-0.025": 0.0,
			"-0.024": 0.0,
			"-0.023": 0.0,
			"-0.022": 0.0,
			"-0.021": 0.0,
			"-0.02": 0.0,
			"-0.019": 0.0,
			"-0.018": 0.0,
			"-0.017": 0.0,
			"-0.016": 0.0,
			"-0.015": 0.0,
			"-0.014": 0.0,
			"-0.013": 0.0,
			"-0.012": 0.0,
			"-0.011": 0.0,
			"-0.01": 0.0,
			"-0.009": 0.0381960165366,
			"-0.008": 4.02141453054,
			"-0.007": 12.5434880716,
			"-0.006": 15.6327498962,
			"-0.005": 17.6732350776,
			"-0.004": 20.2651805241,
			"-0.003": 20.2176159476,
			"-0.002": 18.9970157078,
			"-0.001": 18.5323112642,
			"0.0": 14.336230949,
			"0.001": 12.5197435406,
			"0.002": 13.7197895623,
			"0.003": 12.6787181427,
			"0.004": 13.2507522327,
			"0.005": 12.0428196114,
			"0.006": 4.39036541861,
			"0.007": 3.25133195161,
			"0.008": 3.22038762466,
			"0.009": 3.52955309219,
			"0.01": 4.68642127594,
			"0.011": 6.41205379329,
			"0.012": 4.56401189369,
			"0.013": 1.79918844968,
			"0.014": 0.479921142461,
			"0.015": 0.0,
			"0.016": 0.0,
			"0.017": 0.0,
			"0.018": 0.0,
			"0.019": 0.0,
			"0.02": 0.0,
			"0.021": 0.0,
			"0.022": 0.0,
			"0.023": 0.0,
			"0.024": 0.0,
			"0.025": 0.0
		}
	}
}
