{
	 "smiles": "NC(=O)C1=C(O)C=CC(=C1)S(=O)(=O)N1CCCC1", 
	 "Tm": 530.15, 
	 "num_atms": 32, 
	 "gaussian": { 
		 "optdone": 1, 
		 "sigma_profile": "yes", 
		 "theory": "DFT", 
		 "functional": "B3LYP", 
		 "basiset": "6-31G**", 
		 "properties": { 
			 "R2extent": 7077.3381, 
			 "electric_dipole_moment_norm": 3.90133165214, 
			 "electric_quadrupole_moment_norm": 37.6314291578, 
			 "total_energy": -1236.14072818, 
			 "HOMO_LUMO_gap": 0.17877, 
			 "cosmo_polarized_energy": -21.8, 
			 "cosmo_cavitation_energy": 36.25, 
			 "cosmo_dispersion_energy": -26.4, 
			 "cosmo_repulsion_energy": 2.02, 
			 "cosmo_total_nonelectrostatic_energy": 11.86, 
			 "SMD_solvation_energy": 5.35 
		},
		"coords": [
			{
				"x": -4.8288661301,
				"y": 0.6732987357,
				"z": -1.8443180914,
				"element": "N" 
			},
			{
				"x": -3.7895681369,
				"y": -0.2741530293,
				"z": -1.8997971564,
				"element": "C" 
			},
			{
				"x": -3.7420591327,
				"y": -1.1095057703,
				"z": -2.7852285971,
				"element": "O" 
			},
			{
				"x": -2.7401673644,
				"y": -0.1337586735,
				"z": -0.8470712651,
				"element": "C" 
			},
			{
				"x": -2.4110232784,
				"y": 1.0973120433,
				"z": -0.2323389979,
				"element": "C" 
			},
			{
				"x": -3.0141883742,
				"y": 2.2716721227,
				"z": -0.5294544843,
				"element": "O" 
			},
			{
				"x": -1.3934425871,
				"y": 1.1419355498,
				"z": 0.7365949242,
				"element": "C" 
			},
			{
				"x": -0.7040392776,
				"y": -0.0075142262,
				"z": 1.0845061313,
				"element": "C" 
			},
			{
				"x": -1.0120892624,
				"y": -1.2221307209,
				"z": 0.4532139574,
				"element": "C" 
			},
			{
				"x": -2.0128665355,
				"y": -1.2839101492,
				"z": -0.5053251015,
				"element": "C" 
			},
			{
				"x": -0.1029179454,
				"y": -2.6993971232,
				"z": 0.8981128888,
				"element": "S" 
			},
			{
				"x": 0.3133930955,
				"y": -2.5696175653,
				"z": 2.2995786159,
				"element": "O" 
			},
			{
				"x": -0.9060124025,
				"y": -3.8446683474,
				"z": 0.4479129547,
				"element": "O" 
			},
			{
				"x": 1.2936718239,
				"y": -2.5726602157,
				"z": -0.023914162,
				"element": "N" 
			},
			{
				"x": 1.2490868593,
				"y": -3.0621626285,
				"z": -1.42198399,
				"element": "C" 
			},
			{
				"x": 2.733643095,
				"y": -3.197870745,
				"z": -1.7807982509,
				"element": "C" 
			},
			{
				"x": 3.364867224,
				"y": -3.6616986274,
				"z": -0.4580505907,
				"element": "C" 
			},
			{
				"x": 2.6173475701,
				"y": -2.8421661346,
				"z": 0.6053628156,
				"element": "C" 
			},
			{
				"x": -5.5441459862,
				"y": 0.4824244809,
				"z": -2.5385595936,
				"element": "H" 
			},
			{
				"x": -5.2158391536,
				"y": 0.8425330492,
				"z": -0.9206688796,
				"element": "H" 
			},
			{
				"x": -3.6412080254,
				"y": 2.1319073718,
				"z": -1.2650021086,
				"element": "H" 
			},
			{
				"x": -1.1671872379,
				"y": 2.0973823433,
				"z": 1.1973685114,
				"element": "H" 
			},
			{
				"x": 0.0660431505,
				"y": 0.0204606392,
				"z": 1.8479314626,
				"element": "H" 
			},
			{
				"x": -2.2613178623,
				"y": -2.2228975937,
				"z": -0.9872032829,
				"element": "H" 
			},
			{
				"x": 0.7340058672,
				"y": -4.0283698542,
				"z": -1.4810506908,
				"element": "H" 
			},
			{
				"x": 0.7171354667,
				"y": -2.3486211577,
				"z": -2.0597855345,
				"element": "H" 
			},
			{
				"x": 3.1412897419,
				"y": -2.224729325,
				"z": -2.0768675383,
				"element": "H" 
			},
			{
				"x": 2.8929546062,
				"y": -3.8964216295,
				"z": -2.6066749048,
				"element": "H" 
			},
			{
				"x": 3.1747175545,
				"y": -4.7304280139,
				"z": -0.3085244416,
				"element": "H" 
			},
			{
				"x": 4.446095772,
				"y": -3.5034554357,
				"z": -0.4159217812,
				"element": "H" 
			},
			{
				"x": 2.5055261137,
				"y": -3.3652611652,
				"z": 1.5560789279,
				"element": "H" 
			},
			{
				"x": 3.1211607525,
				"y": -1.8886282046,
				"z": 0.8041782531,
				"element": "H" 
			}
		],
		 "valence_orbital": [ 
			{
				"type": "occ",
				"energy": -0.29205,
				"method": "rhf"
			},
			{
				"type": "occ",
				"energy": -0.28183,
				"method": "rhf"
			},
			{
				"type": "occ",
				"energy": -0.26944,
				"method": "rhf"
			},
			{
				"type": "occ",
				"energy": -0.25644,
				"method": "rhf"
			},
			{
				"type": "occ",
				"energy": -0.23411,
				"method": "rhf"
			},
			{
				"type": "unocc",
				"energy": -0.05534,
				"method": "rhf"
			},
			{
				"type": "unocc",
				"energy": -0.02574,
				"method": "rhf"
			},
			{
				"type": "unocc",
				"energy": 0.02108,
				"method": "rhf"
			},
			{
				"type": "unocc",
				"energy": 0.06363,
				"method": "rhf"
			},
			{
				"type": "unocc",
				"energy": 0.0658,
				"method": "rhf"
			}
		],
		"cosmo_sigma_profile": { 
			"-0.025": 0.0,
			"-0.024": 0.0,
			"-0.023": 0.0,
			"-0.022": 0.0,
			"-0.021": 0.0,
			"-0.02": 0.0,
			"-0.019": 0.0,
			"-0.018": 0.0,
			"-0.017": 0.0,
			"-0.016": 0.0277037700694,
			"-0.015": 0.884111651866,
			"-0.014": 2.4146887302,
			"-0.013": 2.9412899623,
			"-0.012": 3.08276854158,
			"-0.011": 2.89977597421,
			"-0.01": 3.57742823588,
			"-0.009": 4.05644980139,
			"-0.008": 3.53860908356,
			"-0.007": 6.55746829897,
			"-0.006": 5.88690178334,
			"-0.005": 9.11688084682,
			"-0.004": 27.3788228,
			"-0.003": 34.4964622326,
			"-0.002": 27.3125776784,
			"-0.001": 21.0204573458,
			"0.0": 20.2031072472,
			"0.001": 19.0634590189,
			"0.002": 13.5319804188,
			"0.003": 9.62943982092,
			"0.004": 6.32099438437,
			"0.005": 6.55317596815,
			"0.006": 6.42618252392,
			"0.007": 5.74684464963,
			"0.008": 5.76998711219,
			"0.009": 6.27147974644,
			"0.01": 9.43691375784,
			"0.011": 10.467630521,
			"0.012": 10.0336709437,
			"0.013": 1.94578665594,
			"0.014": 0.0,
			"0.015": 0.0,
			"0.016": 0.0,
			"0.017": 0.0,
			"0.018": 0.0,
			"0.019": 0.0,
			"0.02": 0.0,
			"0.021": 0.0,
			"0.022": 0.0,
			"0.023": 0.0,
			"0.024": 0.0,
			"0.025": 0.0
		}
	}
}
