{
	 "smiles": "CC1=C(SC2=C1C(=S)N=CN2)C(O)=O", 
	 "Tm": 583.15, 
	 "num_atms": 20, 
	 "gaussian": { 
		 "optdone": 1, 
		 "sigma_profile": "yes", 
		 "theory": "DFT", 
		 "functional": "B3LYP", 
		 "basiset": "6-31G**", 
		 "properties": { 
			 "R2extent": 3724.6109, 
			 "electric_dipole_moment_norm": 8.25812545436, 
			 "electric_quadrupole_moment_norm": 23.8542826689, 
			 "total_energy": -1364.77859624, 
			 "HOMO_LUMO_gap": 0.12453, 
			 "cosmo_polarized_energy": -34.03, 
			 "cosmo_cavitation_energy": 27.58, 
			 "cosmo_dispersion_energy": -21.64, 
			 "cosmo_repulsion_energy": 1.58, 
			 "cosmo_total_nonelectrostatic_energy": 7.52, 
			 "SMD_solvation_energy": 3.45 
		},
		"coords": [
			{
				"x": 0.4835313072,
				"y": 1.5229507311,
				"z": -2.4650126673,
				"element": "C" 
			},
			{
				"x": 0.1875810664,
				"y": 0.6145393254,
				"z": -1.3082052978,
				"element": "C" 
			},
			{
				"x": 1.0998070038,
				"y": -0.2891889588,
				"z": -0.8059381352,
				"element": "C" 
			},
			{
				"x": 0.4637154258,
				"y": -1.2165073182,
				"z": 0.5672210449,
				"element": "S" 
			},
			{
				"x": -1.0420526642,
				"y": -0.3873818259,
				"z": 0.4209339988,
				"element": "C" 
			},
			{
				"x": -1.0808838341,
				"y": 0.5580540327,
				"z": -0.5996952334,
				"element": "C" 
			},
			{
				"x": -2.3268280812,
				"y": 1.3122485393,
				"z": -0.7911145729,
				"element": "C" 
			},
			{
				"x": -2.6078673251,
				"y": 2.4303830123,
				"z": -1.9875994843,
				"element": "S" 
			},
			{
				"x": -3.3611634912,
				"y": 1.0493234824,
				"z": 0.1201295401,
				"element": "N" 
			},
			{
				"x": -3.2351337836,
				"y": 0.1650273286,
				"z": 1.0453526168,
				"element": "C" 
			},
			{
				"x": -2.1109283728,
				"y": -0.5996599305,
				"z": 1.2497447765,
				"element": "N" 
			},
			{
				"x": 2.4913381377,
				"y": -0.5482571178,
				"z": -1.2491373946,
				"element": "C" 
			},
			{
				"x": 2.9961061748,
				"y": -1.7794886441,
				"z": -0.9407160941,
				"element": "O" 
			},
			{
				"x": 3.1877993324,
				"y": 0.25329743,
				"z": -1.8256772757,
				"element": "O" 
			},
			{
				"x": 0.3488161215,
				"y": 2.5660071864,
				"z": -2.164883905,
				"element": "H" 
			},
			{
				"x": 1.5033551437,
				"y": 1.3790265492,
				"z": -2.8152091741,
				"element": "H" 
			},
			{
				"x": -0.231724011,
				"y": 1.353528895,
				"z": -3.2737129866,
				"element": "H" 
			},
			{
				"x": -4.0544337028,
				"y": -0.0237962371,
				"z": 1.7365095412,
				"element": "H" 
			},
			{
				"x": -2.0782129829,
				"y": -1.2844940601,
				"z": 1.992189552,
				"element": "H" 
			},
			{
				"x": 2.2881785356,
				"y": -2.4061124196,
				"z": -0.7312788492,
				"element": "H" 
			}
		],
		 "valence_orbital": [ 
			{
				"type": "occ",
				"energy": -0.28899,
				"method": "rhf"
			},
			{
				"type": "occ",
				"energy": -0.28639,
				"method": "rhf"
			},
			{
				"type": "occ",
				"energy": -0.27048,
				"method": "rhf"
			},
			{
				"type": "occ",
				"energy": -0.22664,
				"method": "rhf"
			},
			{
				"type": "occ",
				"energy": -0.20693,
				"method": "rhf"
			},
			{
				"type": "unocc",
				"energy": -0.0824,
				"method": "rhf"
			},
			{
				"type": "unocc",
				"energy": -0.0691,
				"method": "rhf"
			},
			{
				"type": "unocc",
				"energy": -0.0389,
				"method": "rhf"
			},
			{
				"type": "unocc",
				"energy": -0.02245,
				"method": "rhf"
			},
			{
				"type": "unocc",
				"energy": 0.03397,
				"method": "rhf"
			}
		],
		"cosmo_sigma_profile": { 
			"-0.025": 0.0,
			"-0.024": 0.0,
			"-0.023": 0.0,
			"-0.022": 0.0,
			"-0.021": 0.0,
			"-0.02": 0.413258087199,
			"-0.019": 2.98563373583,
			"-0.018": 3.02555107229,
			"-0.017": 2.23274230068,
			"-0.016": 2.22439108584,
			"-0.015": 2.41010371557,
			"-0.014": 2.51196274139,
			"-0.013": 1.95151962806,
			"-0.012": 3.32585844152,
			"-0.011": 4.2031363153,
			"-0.01": 2.85562927179,
			"-0.009": 3.28337127886,
			"-0.008": 2.94012783747,
			"-0.007": 3.34124614613,
			"-0.006": 4.79508382857,
			"-0.005": 7.91944911745,
			"-0.004": 12.7251121862,
			"-0.003": 14.7016037121,
			"-0.002": 15.4447193536,
			"-0.001": 20.1837012932,
			"0.0": 14.6081847913,
			"0.001": 9.44076644135,
			"0.002": 6.6453459268,
			"0.003": 5.29512560732,
			"0.004": 7.12338816634,
			"0.005": 8.27708871188,
			"0.006": 7.42611093537,
			"0.007": 9.49983213453,
			"0.008": 10.511445144,
			"0.009": 6.97959662186,
			"0.01": 8.0134886763,
			"0.011": 7.52893372636,
			"0.012": 4.12438553257,
			"0.013": 1.94928862902,
			"0.014": 2.21951541396,
			"0.015": 1.59780039376,
			"0.016": 1.34731579285,
			"0.017": 0.609175003404,
			"0.018": 0.0,
			"0.019": 0.0,
			"0.02": 0.0,
			"0.021": 0.0,
			"0.022": 0.0,
			"0.023": 0.0,
			"0.024": 0.0,
			"0.025": 0.0
		}
	}
}
