{
	 "smiles": "C[Si](C)(C)C=C[Si](C)(C)C", 
	 "Tm": 254.65, 
	 "num_atms": 30, 
	 "gaussian": { 
		 "optdone": 1, 
		 "sigma_profile": "yes", 
		 "theory": "DFT", 
		 "functional": "B3LYP", 
		 "basiset": "6-31G**", 
		 "properties": { 
			 "R2extent": 3306.166, 
			 "electric_dipole_moment_norm": 0.0, 
			 "electric_quadrupole_moment_norm": 2.03142640034, 
			 "total_energy": -895.967403955, 
			 "HOMO_LUMO_gap": 0.2439, 
			 "cosmo_polarized_energy": -2.23, 
			 "cosmo_cavitation_energy": 34.93, 
			 "cosmo_dispersion_energy": -19.58, 
			 "cosmo_repulsion_energy": 1.88, 
			 "cosmo_total_nonelectrostatic_energy": 17.23, 
			 "SMD_solvation_energy": 9.5 
		},
		"coords": [
			{
				"x": -1.1550416524,
				"y": -2.9259571545,
				"z": 0.7294474415,
				"element": "C" 
			},
			{
				"x": 0.300539893,
				"y": -1.8993789893,
				"z": 1.3678818611,
				"element": "Si" 
			},
			{
				"x": 0.1739517239,
				"y": -1.7075532061,
				"z": 3.2494386872,
				"element": "C" 
			},
			{
				"x": 1.9314278124,
				"y": -2.7682400705,
				"z": 0.9454502444,
				"element": "C" 
			},
			{
				"x": 0.2890625134,
				"y": -0.1899890836,
				"z": 0.5723884054,
				"element": "C" 
			},
			{
				"x": -0.609564068,
				"y": 0.2664576926,
				"z": -0.323559874,
				"element": "C" 
			},
			{
				"x": -0.6210673049,
				"y": 1.9758741351,
				"z": -1.1189969586,
				"element": "Si" 
			},
			{
				"x": -2.2511245616,
				"y": 2.8455075853,
				"z": -0.6949359654,
				"element": "C" 
			},
			{
				"x": 0.8356212051,
				"y": 3.0017678096,
				"z": -0.4819882999,
				"element": "C" 
			},
			{
				"x": -0.4964524276,
				"y": 1.783993044,
				"z": -3.0006770134,
				"element": "C" 
			},
			{
				"x": -1.1072718865,
				"y": -3.0652775426,
				"z": -0.3559058713,
				"element": "H" 
			},
			{
				"x": -2.1162425826,
				"y": -2.4561051367,
				"z": 0.9639810771,
				"element": "H" 
			},
			{
				"x": -1.1544356663,
				"y": -3.9207414401,
				"z": 1.1889817091,
				"element": "H" 
			},
			{
				"x": -0.7676131362,
				"y": -1.228336849,
				"z": 3.5382120259,
				"element": "H" 
			},
			{
				"x": 0.9920602226,
				"y": -1.0950230302,
				"z": 3.6445542769,
				"element": "H" 
			},
			{
				"x": 0.220058378,
				"y": -2.6816793379,
				"z": 3.7497693666,
				"element": "H" 
			},
			{
				"x": 2.0349300964,
				"y": -2.9164690666,
				"z": -0.1347757713,
				"element": "H" 
			},
			{
				"x": 1.9903871718,
				"y": -3.7521045816,
				"z": 1.4248585432,
				"element": "H" 
			},
			{
				"x": 2.7947197748,
				"y": -2.1843587314,
				"z": 1.2837468994,
				"element": "H" 
			},
			{
				"x": 1.0920232118,
				"y": 0.4928124496,
				"z": 0.8707821281,
				"element": "H" 
			},
			{
				"x": -1.4124927382,
				"y": -0.4163643932,
				"z": -0.6219911074,
				"element": "H" 
			},
			{
				"x": -2.3533873758,
				"y": 2.9939407441,
				"z": 0.3853800805,
				"element": "H" 
			},
			{
				"x": -3.1150379437,
				"y": 2.2619557337,
				"z": -1.0322093002,
				"element": "H" 
			},
			{
				"x": -2.3101660912,
				"y": 3.8293285919,
				"z": -1.1744257949,
				"element": "H" 
			},
			{
				"x": 0.7891052705,
				"y": 3.1409325607,
				"z": 0.603439582,
				"element": "H" 
			},
			{
				"x": 0.8349070439,
				"y": 3.9966298298,
				"z": -0.9413533152,
				"element": "H" 
			},
			{
				"x": 1.7963679412,
				"y": 2.5315572127,
				"z": -0.7176580594,
				"element": "H" 
			},
			{
				"x": -0.542538799,
				"y": 2.7581439051,
				"z": -3.500959257,
				"element": "H" 
			},
			{
				"x": -1.3152888267,
				"y": 1.1719061485,
				"z": -3.3949738412,
				"element": "H" 
			},
			{
				"x": 0.4445628018,
				"y": 1.3042711709,
				"z": -3.290401899,
				"element": "H" 
			}
		],
		 "valence_orbital": [ 
			{
				"type": "occ",
				"energy": -0.29451,
				"method": "rhf"
			},
			{
				"type": "occ",
				"energy": -0.29286,
				"method": "rhf"
			},
			{
				"type": "occ",
				"energy": -0.29225,
				"method": "rhf"
			},
			{
				"type": "occ",
				"energy": -0.26061,
				"method": "rhf"
			},
			{
				"type": "occ",
				"energy": -0.25211,
				"method": "rhf"
			},
			{
				"type": "unocc",
				"energy": -0.00821,
				"method": "rhf"
			},
			{
				"type": "unocc",
				"energy": 0.07462,
				"method": "rhf"
			},
			{
				"type": "unocc",
				"energy": 0.0836,
				"method": "rhf"
			},
			{
				"type": "unocc",
				"energy": 0.09107,
				"method": "rhf"
			},
			{
				"type": "unocc",
				"energy": 0.09263,
				"method": "rhf"
			}
		],
		"cosmo_sigma_profile": { 
			"-0.025": 0.0,
			"-0.024": 0.0,
			"-0.023": 0.0,
			"-0.022": 0.0,
			"-0.021": 0.0,
			"-0.02": 0.0,
			"-0.019": 0.0,
			"-0.018": 0.0,
			"-0.017": 0.0,
			"-0.016": 0.0,
			"-0.015": 0.0,
			"-0.014": 0.0,
			"-0.013": 0.0,
			"-0.012": 0.0,
			"-0.011": 0.0,
			"-0.01": 0.0,
			"-0.009": 0.0,
			"-0.008": 0.0,
			"-0.007": 0.0,
			"-0.006": 0.0,
			"-0.005": 0.0,
			"-0.004": 3.37751166369,
			"-0.003": 30.4085764121,
			"-0.002": 41.1250229959,
			"-0.001": 44.3281190798,
			"0.0": 38.4216125986,
			"0.001": 38.6012739616,
			"0.002": 38.0123435529,
			"0.003": 17.2513150954,
			"0.004": 5.77950859788,
			"0.005": 2.99221353929,
			"0.006": 2.06770821491,
			"0.007": 2.25446865419,
			"0.008": 0.108168061669,
			"0.009": 0.0,
			"0.01": 0.0,
			"0.011": 0.0,
			"0.012": 0.0,
			"0.013": 0.0,
			"0.014": 0.0,
			"0.015": 0.0,
			"0.016": 0.0,
			"0.017": 0.0,
			"0.018": 0.0,
			"0.019": 0.0,
			"0.02": 0.0,
			"0.021": 0.0,
			"0.022": 0.0,
			"0.023": 0.0,
			"0.024": 0.0,
			"0.025": 0.0
		}
	}
}
