{
	 "smiles": "ClC1=CC=CC2=CC=CC(=C12)N(=O)=O", 
	 "Tm": 368.95, 
	 "num_atms": 20, 
	 "gaussian": { 
		 "optdone": 1, 
		 "sigma_profile": "yes", 
		 "theory": "DFT", 
		 "functional": "B3LYP", 
		 "basiset": "6-31G**", 
		 "properties": { 
			 "R2extent": 3509.9665, 
			 "electric_dipole_moment_norm": 5.36413255709, 
			 "electric_quadrupole_moment_norm": 17.1677433252, 
			 "total_energy": -1049.9605579, 
			 "HOMO_LUMO_gap": 0.1654, 
			 "cosmo_polarized_energy": -10.36, 
			 "cosmo_cavitation_energy": 26.58, 
			 "cosmo_dispersion_energy": -19.42, 
			 "cosmo_repulsion_energy": 1.49, 
			 "cosmo_total_nonelectrostatic_energy": 8.64, 
			 "SMD_solvation_energy": 6.61 
		},
		"coords": [
			{
				"x": 1.389923927,
				"y": -2.2381048258,
				"z": -1.8736613078,
				"element": "Cl" 
			},
			{
				"x": 1.3047272693,
				"y": -0.5259245856,
				"z": -1.5036109262,
				"element": "C" 
			},
			{
				"x": 1.1393485109,
				"y": 0.3250267336,
				"z": -2.5755582419,
				"element": "C" 
			},
			{
				"x": 1.0589966135,
				"y": 1.7199295256,
				"z": -2.386604589,
				"element": "C" 
			},
			{
				"x": 1.1458750811,
				"y": 2.2441727467,
				"z": -1.1209951874,
				"element": "C" 
			},
			{
				"x": 1.316234391,
				"y": 1.4003950259,
				"z": 0.0072596904,
				"element": "C" 
			},
			{
				"x": 1.4028766181,
				"y": 1.971420145,
				"z": 1.3050819683,
				"element": "C" 
			},
			{
				"x": 1.5676061287,
				"y": 1.1888107791,
				"z": 2.4207875996,
				"element": "C" 
			},
			{
				"x": 1.6529264692,
				"y": -0.2109719408,
				"z": 2.2787289969,
				"element": "C" 
			},
			{
				"x": 1.5718314859,
				"y": -0.7878023399,
				"z": 1.0331460973,
				"element": "C" 
			},
			{
				"x": 1.4009844143,
				"y": -0.0316784205,
				"z": -0.1637251315,
				"element": "C" 
			},
			{
				"x": 1.6782193897,
				"y": -2.2662499149,
				"z": 1.0491615106,
				"element": "N" 
			},
			{
				"x": 0.635963303,
				"y": -2.8944734309,
				"z": 1.1972662303,
				"element": "O" 
			},
			{
				"x": 2.8067986629,
				"y": -2.7405749469,
				"z": 0.9842221642,
				"element": "O" 
			},
			{
				"x": 1.0714971059,
				"y": -0.0958442048,
				"z": -3.572280239,
				"element": "H" 
			},
			{
				"x": 0.9287058389,
				"y": 2.3673664378,
				"z": -3.2478764568,
				"element": "H" 
			},
			{
				"x": 1.0857906878,
				"y": 3.3162524759,
				"z": -0.9586837725,
				"element": "H" 
			},
			{
				"x": 1.335017707,
				"y": 3.051769474,
				"z": 1.3941262699,
				"element": "H" 
			},
			{
				"x": 1.6328413451,
				"y": 1.6330825479,
				"z": 3.4084397962,
				"element": "H" 
			},
			{
				"x": 1.7831350507,
				"y": -0.8459012813,
				"z": 3.1486755286,
				"element": "H" 
			}
		],
		 "valence_orbital": [ 
			{
				"type": "occ",
				"energy": -0.30846,
				"method": "rhf"
			},
			{
				"type": "occ",
				"energy": -0.30121,
				"method": "rhf"
			},
			{
				"type": "occ",
				"energy": -0.28335,
				"method": "rhf"
			},
			{
				"type": "occ",
				"energy": -0.27299,
				"method": "rhf"
			},
			{
				"type": "occ",
				"energy": -0.23495,
				"method": "rhf"
			},
			{
				"type": "unocc",
				"energy": -0.06955,
				"method": "rhf"
			},
			{
				"type": "unocc",
				"energy": -0.06891,
				"method": "rhf"
			},
			{
				"type": "unocc",
				"energy": -0.03891,
				"method": "rhf"
			},
			{
				"type": "unocc",
				"energy": 0.00501,
				"method": "rhf"
			},
			{
				"type": "unocc",
				"energy": 0.0235,
				"method": "rhf"
			}
		],
		"cosmo_sigma_profile": { 
			"-0.025": 0.0,
			"-0.024": 0.0,
			"-0.023": 0.0,
			"-0.022": 0.0,
			"-0.021": 0.0,
			"-0.02": 0.0,
			"-0.019": 0.0,
			"-0.018": 0.0,
			"-0.017": 0.0,
			"-0.016": 0.0,
			"-0.015": 0.0,
			"-0.014": 0.0,
			"-0.013": 0.0,
			"-0.012": 0.0,
			"-0.011": 0.018908800995,
			"-0.01": 0.723421773134,
			"-0.009": 2.17201287409,
			"-0.008": 6.81407700833,
			"-0.007": 13.7718938189,
			"-0.006": 12.6529894727,
			"-0.005": 10.6704507515,
			"-0.004": 8.1719191879,
			"-0.003": 9.16547008572,
			"-0.002": 9.87327076457,
			"-0.001": 12.3962798274,
			"0.0": 20.2427549334,
			"0.001": 26.8630055916,
			"0.002": 23.427939299,
			"0.003": 14.7344866112,
			"0.004": 10.0429359258,
			"0.005": 5.93718031447,
			"0.006": 5.38247707018,
			"0.007": 12.2651727791,
			"0.008": 7.10321065226,
			"0.009": 3.5889936397,
			"0.01": 0.34903040499,
			"0.011": 0.0,
			"0.012": 0.0,
			"0.013": 0.0,
			"0.014": 0.0,
			"0.015": 0.0,
			"0.016": 0.0,
			"0.017": 0.0,
			"0.018": 0.0,
			"0.019": 0.0,
			"0.02": 0.0,
			"0.021": 0.0,
			"0.022": 0.0,
			"0.023": 0.0,
			"0.024": 0.0,
			"0.025": 0.0
		}
	}
}
