{
	 "smiles": "OC(=O)C1=CSC(=N1)C1=CC=C(Cl)S1", 
	 "Tm": 521.15, 
	 "num_atms": 18, 
	 "gaussian": { 
		 "optdone": 1, 
		 "sigma_profile": "yes", 
		 "theory": "DFT", 
		 "functional": "B3LYP", 
		 "basiset": "6-31G**", 
		 "properties": { 
			 "R2extent": 6350.3903, 
			 "electric_dipole_moment_norm": 5.67795108644, 
			 "electric_quadrupole_moment_norm": 9.19095871713, 
			 "total_energy": -1769.01657491, 
			 "HOMO_LUMO_gap": 0.1489, 
			 "cosmo_polarized_energy": -12.34, 
			 "cosmo_cavitation_energy": 29.01, 
			 "cosmo_dispersion_energy": -22.45, 
			 "cosmo_repulsion_energy": 1.67, 
			 "cosmo_total_nonelectrostatic_energy": 8.23, 
			 "SMD_solvation_energy": 4.72 
		},
		"coords": [
			{
				"x": -0.8522401019,
				"y": 0.0279952454,
				"z": 2.6593790057,
				"element": "O" 
			},
			{
				"x": -1.7880637031,
				"y": 0.0126336493,
				"z": 1.689958755,
				"element": "C" 
			},
			{
				"x": -2.9366820332,
				"y": -0.3048229943,
				"z": 1.8937369467,
				"element": "O" 
			},
			{
				"x": -1.2749788718,
				"y": 0.4217017904,
				"z": 0.3480957469,
				"element": "C" 
			},
			{
				"x": -2.0340849802,
				"y": 0.4835727068,
				"z": -0.7873131973,
				"element": "C" 
			},
			{
				"x": -1.0599822723,
				"y": 0.9998884918,
				"z": -2.1162703441,
				"element": "S" 
			},
			{
				"x": 0.3325189309,
				"y": 1.0989924454,
				"z": -1.0284133988,
				"element": "C" 
			},
			{
				"x": 0.0483219329,
				"y": 0.767212988,
				"z": 0.2066134725,
				"element": "N" 
			},
			{
				"x": 1.6430304725,
				"y": 1.5079119463,
				"z": -1.4805381332,
				"element": "C" 
			},
			{
				"x": 2.0600066215,
				"y": 1.8769538679,
				"z": -2.741310283,
				"element": "C" 
			},
			{
				"x": 3.4368549389,
				"y": 2.2190024226,
				"z": -2.8066510469,
				"element": "C" 
			},
			{
				"x": 4.0476830883,
				"y": 2.1033654333,
				"z": -1.5855668086,
				"element": "C" 
			},
			{
				"x": 5.7064515493,
				"y": 2.4222772269,
				"z": -1.2287916735,
				"element": "Cl" 
			},
			{
				"x": 2.9637246073,
				"y": 1.576520186,
				"z": -0.3298716624,
				"element": "S" 
			},
			{
				"x": -0.0101868489,
				"y": 0.3141262427,
				"z": 2.259365871,
				"element": "H" 
			},
			{
				"x": -3.0847137126,
				"y": 0.2550684621,
				"z": -0.8893371476,
				"element": "H" 
			},
			{
				"x": 1.3999926861,
				"y": 1.903680295,
				"z": -3.6014544755,
				"element": "H" 
			},
			{
				"x": 3.9518476964,
				"y": 2.5339195946,
				"z": -3.7052316267,
				"element": "H" 
			}
		],
		 "valence_orbital": [ 
			{
				"type": "occ",
				"energy": -0.3139,
				"method": "rhf"
			},
			{
				"type": "occ",
				"energy": -0.29335,
				"method": "rhf"
			},
			{
				"type": "occ",
				"energy": -0.28415,
				"method": "rhf"
			},
			{
				"type": "occ",
				"energy": -0.27526,
				"method": "rhf"
			},
			{
				"type": "occ",
				"energy": -0.23603,
				"method": "rhf"
			},
			{
				"type": "unocc",
				"energy": -0.08713,
				"method": "rhf"
			},
			{
				"type": "unocc",
				"energy": -0.04645,
				"method": "rhf"
			},
			{
				"type": "unocc",
				"energy": -0.01264,
				"method": "rhf"
			},
			{
				"type": "unocc",
				"energy": -0.00398,
				"method": "rhf"
			},
			{
				"type": "unocc",
				"energy": 0.00073,
				"method": "rhf"
			}
		],
		"cosmo_sigma_profile": { 
			"-0.025": 0.0,
			"-0.024": 0.0,
			"-0.023": 0.0,
			"-0.022": 0.0,
			"-0.021": 0.0,
			"-0.02": 0.0,
			"-0.019": 0.0,
			"-0.018": 0.0,
			"-0.017": 0.0,
			"-0.016": 0.0,
			"-0.015": 0.0890520626992,
			"-0.014": 0.314673500763,
			"-0.013": 0.318860703359,
			"-0.012": 0.766556597779,
			"-0.011": 1.7645328631,
			"-0.01": 2.68686100208,
			"-0.009": 4.19057393317,
			"-0.008": 6.48408204399,
			"-0.007": 7.10173236197,
			"-0.006": 8.03641076306,
			"-0.005": 6.56962383373,
			"-0.004": 9.90340498846,
			"-0.003": 12.1152714551,
			"-0.002": 19.3460659823,
			"-0.001": 24.5938244095,
			"0.0": 30.9917879743,
			"0.001": 30.5945053905,
			"0.002": 25.713385945,
			"0.003": 15.797257792,
			"0.004": 4.80033333858,
			"0.005": 2.87024821211,
			"0.006": 1.28158087565,
			"0.007": 3.02878074852,
			"0.008": 2.86832590039,
			"0.009": 3.49340241894,
			"0.01": 5.22053713584,
			"0.011": 4.94148535729,
			"0.012": 4.22364842641,
			"0.013": 1.36154736919,
			"0.014": 0.0326464822343,
			"0.015": 0.0,
			"0.016": 0.0,
			"0.017": 0.0,
			"0.018": 0.0,
			"0.019": 0.0,
			"0.02": 0.0,
			"0.021": 0.0,
			"0.022": 0.0,
			"0.023": 0.0,
			"0.024": 0.0,
			"0.025": 0.0
		}
	}
}
