{
	 "smiles": "CCCOC1=CC2=C(C=C1)[C@@H]([C@H]([C@@H]2C1=C(OCC(O)=O)C=C(OC)C=C1)C(O)=O)C1=CC2=C(OCO2)C=C1", 
	 "Tm": 527.15, 
	 "num_atms": 66, 
	 "gaussian": { 
		 "optdone": 1, 
		 "sigma_profile": "yes", 
		 "theory": "DFT", 
		 "functional": "B3LYP", 
		 "basiset": "6-31G**", 
		 "properties": { 
			 "R2extent": 22760.3157, 
			 "electric_dipole_moment_norm": 3.83187974107, 
			 "electric_quadrupole_moment_norm": 43.7365201825, 
			 "total_energy": -1798.96172047, 
			 "HOMO_LUMO_gap": 0.18951, 
			 "cosmo_polarized_energy": -27.68, 
			 "cosmo_cavitation_energy": 68.63, 
			 "cosmo_dispersion_energy": -44.5, 
			 "cosmo_repulsion_energy": 3.36, 
			 "cosmo_total_nonelectrostatic_energy": 27.5, 
			 "SMD_solvation_energy": 14.87 
		},
		"coords": [
			{
				"x": 0.1777528774,
				"y": 5.5501111598,
				"z": -3.2555280374,
				"element": "C" 
			},
			{
				"x": -0.6774712394,
				"y": 4.2808545244,
				"z": -3.3159401156,
				"element": "C" 
			},
			{
				"x": -1.8674752534,
				"y": 4.3136664964,
				"z": -2.3544308685,
				"element": "C" 
			},
			{
				"x": -1.481293388,
				"y": 4.4758090364,
				"z": -0.9863608887,
				"element": "O" 
			},
			{
				"x": -1.075171788,
				"y": 3.3951558888,
				"z": -0.2556366229,
				"element": "C" 
			},
			{
				"x": -1.0021996821,
				"y": 2.0799263693,
				"z": -0.7357170373,
				"element": "C" 
			},
			{
				"x": -0.5741147646,
				"y": 1.0740892506,
				"z": 0.1330116822,
				"element": "C" 
			},
			{
				"x": -0.2305289481,
				"y": 1.3503694081,
				"z": 1.4561475499,
				"element": "C" 
			},
			{
				"x": -0.3068923031,
				"y": 2.6620092318,
				"z": 1.9311921813,
				"element": "C" 
			},
			{
				"x": -0.7219333746,
				"y": 3.6776761705,
				"z": 1.0764029612,
				"element": "C" 
			},
			{
				"x": 0.1168153111,
				"y": 0.0803191006,
				"z": 2.2149534235,
				"element": "C" 
			},
			{
				"x": 0.4021027994,
				"y": -0.9195259953,
				"z": 1.0402439913,
				"element": "C" 
			},
			{
				"x": -0.4855696151,
				"y": -0.4183859918,
				"z": -0.1515416029,
				"element": "C" 
			},
			{
				"x": 0.035852726,
				"y": -0.8244587049,
				"z": -1.5159967846,
				"element": "C" 
			},
			{
				"x": -0.4525930093,
				"y": -1.9670138114,
				"z": -2.1725481735,
				"element": "C" 
			},
			{
				"x": -1.4305916532,
				"y": -2.6778005654,
				"z": -1.5079089984,
				"element": "O" 
			},
			{
				"x": -1.9594316856,
				"y": -3.8596105496,
				"z": -2.0871257578,
				"element": "C" 
			},
			{
				"x": -2.9361485996,
				"y": -4.5180414683,
				"z": -1.1117451761,
				"element": "C" 
			},
			{
				"x": -3.00959022,
				"y": -3.9807174101,
				"z": 0.1149404932,
				"element": "O" 
			},
			{
				"x": -3.5807914238,
				"y": -5.4816696661,
				"z": -1.4436602354,
				"element": "O" 
			},
			{
				"x": 0.0285425796,
				"y": -2.3616047719,
				"z": -3.4268505455,
				"element": "C" 
			},
			{
				"x": 1.0397839674,
				"y": -1.6114276205,
				"z": -4.0408310391,
				"element": "C" 
			},
			{
				"x": 1.5775391586,
				"y": -1.9089308667,
				"z": -5.2566686612,
				"element": "O" 
			},
			{
				"x": 1.1063836709,
				"y": -3.0546600289,
				"z": -5.9488953899,
				"element": "C" 
			},
			{
				"x": 1.5571909361,
				"y": -0.479729522,
				"z": -3.4003101653,
				"element": "C" 
			},
			{
				"x": 1.0525739967,
				"y": -0.1072059084,
				"z": -2.1609269228,
				"element": "C" 
			},
			{
				"x": 0.1974419674,
				"y": -2.3683895959,
				"z": 1.4119709217,
				"element": "C" 
			},
			{
				"x": -1.0937080418,
				"y": -2.634682191,
				"z": 1.7877816126,
				"element": "O" 
			},
			{
				"x": 1.043920549,
				"y": -3.2311263889,
				"z": 1.4081386936,
				"element": "O" 
			},
			{
				"x": 1.2394260861,
				"y": 0.1663453314,
				"z": 3.2332361559,
				"element": "C" 
			},
			{
				"x": 1.0914187575,
				"y": -0.4844912434,
				"z": 4.4778037794,
				"element": "C" 
			},
			{
				"x": 2.1513541445,
				"y": -0.4274301635,
				"z": 5.3602176455,
				"element": "C" 
			},
			{
				"x": 3.3301169615,
				"y": 0.2479236301,
				"z": 5.0559771231,
				"element": "C" 
			},
			{
				"x": 4.1968190664,
				"y": 0.1701181154,
				"z": 6.1205475211,
				"element": "O" 
			},
			{
				"x": 3.5861636891,
				"y": -0.7351096751,
				"z": 7.0474161325,
				"element": "C" 
			},
			{
				"x": 2.2344260119,
				"y": -0.9547441106,
				"z": 6.6271800145,
				"element": "O" 
			},
			{
				"x": 3.4997440798,
				"y": 0.899914051,
				"z": 3.8503984907,
				"element": "C" 
			},
			{
				"x": 2.4291522581,
				"y": 0.8445717716,
				"z": 2.9410506535,
				"element": "C" 
			},
			{
				"x": 1.0233740576,
				"y": 5.4882236886,
				"z": -3.9473302965,
				"element": "H" 
			},
			{
				"x": -0.4097286558,
				"y": 6.435873372,
				"z": -3.5231298659,
				"element": "H" 
			},
			{
				"x": 0.5733745955,
				"y": 5.7059209053,
				"z": -2.2480012679,
				"element": "H" 
			},
			{
				"x": -1.0777955715,
				"y": 4.1418324686,
				"z": -4.3290136974,
				"element": "H" 
			},
			{
				"x": -0.0571865291,
				"y": 3.4019256624,
				"z": -3.106179049,
				"element": "H" 
			},
			{
				"x": -2.4990432874,
				"y": 3.4235981479,
				"z": -2.4682096642,
				"element": "H" 
			},
			{
				"x": -2.491326129,
				"y": 5.1888951653,
				"z": -2.5635519102,
				"element": "H" 
			},
			{
				"x": -1.2530040546,
				"y": 1.8344230933,
				"z": -1.7604828627,
				"element": "H" 
			},
			{
				"x": -0.0354505397,
				"y": 2.8935582455,
				"z": 2.9571371181,
				"element": "H" 
			},
			{
				"x": -0.7850057495,
				"y": 4.7069847204,
				"z": 1.4139147427,
				"element": "H" 
			},
			{
				"x": -0.7841997597,
				"y": -0.2675590406,
				"z": 2.7386067204,
				"element": "H" 
			},
			{
				"x": 1.4527305726,
				"y": -0.8283115941,
				"z": 0.7535542626,
				"element": "H" 
			},
			{
				"x": -1.490151569,
				"y": -0.8390011758,
				"z": -0.0296766387,
				"element": "H" 
			},
			{
				"x": -1.1665417907,
				"y": -4.586820287,
				"z": -2.3049670791,
				"element": "H" 
			},
			{
				"x": -2.4993234949,
				"y": -3.6489774219,
				"z": -3.0179284818,
				"element": "H" 
			},
			{
				"x": -2.4125404174,
				"y": -3.212011594,
				"z": 0.1840720104,
				"element": "H" 
			},
			{
				"x": -0.3731716904,
				"y": -3.2375630115,
				"z": -3.9151409558,
				"element": "H" 
			},
			{
				"x": 0.0373064274,
				"y": -2.9748566806,
				"z": -6.1851282122,
				"element": "H" 
			},
			{
				"x": 1.2815403444,
				"y": -3.9744869637,
				"z": -5.3762141323,
				"element": "H" 
			},
			{
				"x": 1.6748902145,
				"y": -3.099091514,
				"z": -6.8788217605,
				"element": "H" 
			},
			{
				"x": 2.3435659558,
				"y": 0.085699211,
				"z": -3.8876607744,
				"element": "H" 
			},
			{
				"x": 1.4522186591,
				"y": 0.7762062881,
				"z": -1.6721262524,
				"element": "H" 
			},
			{
				"x": -1.1120929471,
				"y": -3.5717130748,
				"z": 2.0497586058,
				"element": "H" 
			},
			{
				"x": 0.1781608547,
				"y": -1.0113507519,
				"z": 4.7342671287,
				"element": "H" 
			},
			{
				"x": 3.5892473598,
				"y": -0.290313403,
				"z": 8.047161011,
				"element": "H" 
			},
			{
				"x": 4.1317844366,
				"y": -1.6899277828,
				"z": 7.0422876876,
				"element": "H" 
			},
			{
				"x": 4.4161770795,
				"y": 1.4316736379,
				"z": 3.6205695738,
				"element": "H" 
			},
			{
				"x": 2.5273750239,
				"y": 1.3500664029,
				"z": 1.9853460359,
				"element": "H" 
			}
		],
		 "valence_orbital": [ 
			{
				"type": "occ",
				"energy": -0.24762,
				"method": "rhf"
			},
			{
				"type": "occ",
				"energy": -0.24692,
				"method": "rhf"
			},
			{
				"type": "occ",
				"energy": -0.22066,
				"method": "rhf"
			},
			{
				"type": "occ",
				"energy": -0.21524,
				"method": "rhf"
			},
			{
				"type": "occ",
				"energy": -0.20423,
				"method": "rhf"
			},
			{
				"type": "unocc",
				"energy": -0.01472,
				"method": "rhf"
			},
			{
				"type": "unocc",
				"energy": -0.01087,
				"method": "rhf"
			},
			{
				"type": "unocc",
				"energy": -0.00646,
				"method": "rhf"
			},
			{
				"type": "unocc",
				"energy": -0.00376,
				"method": "rhf"
			},
			{
				"type": "unocc",
				"energy": 0.00309,
				"method": "rhf"
			}
		],
		"cosmo_sigma_profile": { 
			"-0.025": 0.0,
			"-0.024": 0.0,
			"-0.023": 0.0,
			"-0.022": 0.0,
			"-0.021": 0.0,
			"-0.02": 0.0,
			"-0.019": 0.0,
			"-0.018": 0.297965415009,
			"-0.017": 0.509790623843,
			"-0.016": 0.738545216288,
			"-0.015": 0.687791113067,
			"-0.014": 0.359424184389,
			"-0.013": 0.887882467071,
			"-0.012": 0.970762751544,
			"-0.011": 0.496580613498,
			"-0.01": 1.66259601435,
			"-0.009": 4.1483506523,
			"-0.008": 13.6195535167,
			"-0.007": 18.2051159518,
			"-0.006": 26.2409787037,
			"-0.005": 37.1874475379,
			"-0.004": 39.5869337726,
			"-0.003": 48.0182834364,
			"-0.002": 38.8401566095,
			"-0.001": 39.6447013685,
			"0.0": 39.1539905384,
			"0.001": 33.2832147728,
			"0.002": 34.3883664786,
			"0.003": 33.2606584789,
			"0.004": 33.160359591,
			"0.005": 25.4826766684,
			"0.006": 12.4872014528,
			"0.007": 8.71594519991,
			"0.008": 9.41756114644,
			"0.009": 11.0530782019,
			"0.01": 11.2047754908,
			"0.011": 9.99671636553,
			"0.012": 8.66762741126,
			"0.013": 1.88123194565,
			"0.014": 0.0,
			"0.015": 0.0,
			"0.016": 0.0,
			"0.017": 0.0,
			"0.018": 0.0,
			"0.019": 0.0,
			"0.02": 0.0,
			"0.021": 0.0,
			"0.022": 0.0,
			"0.023": 0.0,
			"0.024": 0.0,
			"0.025": 0.0
		}
	}
}
