{
	 "smiles": "ClC1=C(C#N)C(Cl)=NS1", 
	 "Tm": 338.15, 
	 "num_atms": 9, 
	 "gaussian": { 
		 "optdone": 1, 
		 "sigma_profile": "yes", 
		 "theory": "DFT", 
		 "functional": "B3LYP", 
		 "basiset": "6-31G**", 
		 "properties": { 
			 "R2extent": 2001.0447, 
			 "electric_dipole_moment_norm": 3.22527767022, 
			 "electric_quadrupole_moment_norm": 14.5721506745, 
			 "total_energy": -1580.44269431, 
			 "HOMO_LUMO_gap": 0.2024, 
			 "cosmo_polarized_energy": -7.37, 
			 "cosmo_cavitation_energy": 20.69, 
			 "cosmo_dispersion_energy": -15.59, 
			 "cosmo_repulsion_energy": 1.24, 
			 "cosmo_total_nonelectrostatic_energy": 6.35, 
			 "SMD_solvation_energy": 2.95 
		},
		"coords": [
			{
				"x": 1.3728700543,
				"y": -3.0413464097,
				"z": 0.8179958041,
				"element": "Cl" 
			},
			{
				"x": 0.497264899,
				"y": -1.6407729993,
				"z": 0.3678999311,
				"element": "C" 
			},
			{
				"x": 1.014667279,
				"y": -0.4055569019,
				"z": 0.0257014074,
				"element": "C" 
			},
			{
				"x": 2.3939939248,
				"y": -0.0703041956,
				"z": -0.0145714589,
				"element": "C" 
			},
			{
				"x": 3.5240124846,
				"y": 0.2020844354,
				"z": -0.0468980636,
				"element": "N" 
			},
			{
				"x": -0.0784345631,
				"y": 0.4820962565,
				"z": -0.2824027578,
				"element": "C" 
			},
			{
				"x": 0.1767502975,
				"y": 2.1269774291,
				"z": -0.7564790669,
				"element": "Cl" 
			},
			{
				"x": -1.2911240924,
				"y": 0.0107066071,
				"z": -0.1948764053,
				"element": "N" 
			},
			{
				"x": -1.2283002838,
				"y": -1.5955842216,
				"z": 0.2813306099,
				"element": "S" 
			}
		],
		 "valence_orbital": [ 
			{
				"type": "occ",
				"energy": -0.36181,
				"method": "rhf"
			},
			{
				"type": "occ",
				"energy": -0.34601,
				"method": "rhf"
			},
			{
				"type": "occ",
				"energy": -0.33281,
				"method": "rhf"
			},
			{
				"type": "occ",
				"energy": -0.29603,
				"method": "rhf"
			},
			{
				"type": "occ",
				"energy": -0.29135,
				"method": "rhf"
			},
			{
				"type": "unocc",
				"energy": -0.08895,
				"method": "rhf"
			},
			{
				"type": "unocc",
				"energy": -0.04484,
				"method": "rhf"
			},
			{
				"type": "unocc",
				"energy": -0.03544,
				"method": "rhf"
			},
			{
				"type": "unocc",
				"energy": -0.01972,
				"method": "rhf"
			},
			{
				"type": "unocc",
				"energy": -0.00408,
				"method": "rhf"
			}
		],
		"cosmo_sigma_profile": { 
			"-0.025": 0.0,
			"-0.024": 0.0,
			"-0.023": 0.0,
			"-0.022": 0.0,
			"-0.021": 0.0,
			"-0.02": 0.0,
			"-0.019": 0.0,
			"-0.018": 0.0,
			"-0.017": 0.0,
			"-0.016": 0.0,
			"-0.015": 0.0,
			"-0.014": 0.0,
			"-0.013": 0.0,
			"-0.012": 0.0,
			"-0.011": 0.0,
			"-0.01": 0.0,
			"-0.009": 0.0,
			"-0.008": 0.195581855515,
			"-0.007": 2.34145851913,
			"-0.006": 7.94482750323,
			"-0.005": 17.1629924014,
			"-0.004": 16.988369537,
			"-0.003": 14.9064908103,
			"-0.002": 13.7574584187,
			"-0.001": 17.3588255024,
			"0.0": 17.3199686196,
			"0.001": 15.9074304231,
			"0.002": 12.8540746194,
			"0.003": 6.74005522716,
			"0.004": 5.58879374102,
			"0.005": 3.19406379971,
			"0.006": 3.61302805744,
			"0.007": 4.79723567721,
			"0.008": 3.93522815883,
			"0.009": 4.16394125318,
			"0.01": 3.31083159451,
			"0.011": 3.35286006825,
			"0.012": 0.92508817107,
			"0.013": 0.0,
			"0.014": 0.0,
			"0.015": 0.0,
			"0.016": 0.0,
			"0.017": 0.0,
			"0.018": 0.0,
			"0.019": 0.0,
			"0.02": 0.0,
			"0.021": 0.0,
			"0.022": 0.0,
			"0.023": 0.0,
			"0.024": 0.0,
			"0.025": 0.0
		}
	}
}
