{
	 "smiles": "CCOC=C(C#N)S(=O)(=O)C1=CC=CC=C1", 
	 "Tm": 347.15, 
	 "num_atms": 27, 
	 "gaussian": { 
		 "optdone": 1, 
		 "sigma_profile": "yes", 
		 "theory": "DFT", 
		 "functional": "B3LYP", 
		 "basiset": "6-31G**", 
		 "properties": { 
			 "R2extent": 3922.6077, 
			 "electric_dipole_moment_norm": 9.15942353699, 
			 "electric_quadrupole_moment_norm": 24.850629124, 
			 "total_energy": -1104.28817198, 
			 "HOMO_LUMO_gap": 0.19775, 
			 "cosmo_polarized_energy": -23.57, 
			 "cosmo_cavitation_energy": 34.28, 
			 "cosmo_dispersion_energy": -22.94, 
			 "cosmo_repulsion_energy": 1.79, 
			 "cosmo_total_nonelectrostatic_energy": 13.12, 
			 "SMD_solvation_energy": 7.41 
		},
		"coords": [
			{
				"x": 0.6885734927,
				"y": -0.0836451622,
				"z": -4.2957683443,
				"element": "C" 
			},
			{
				"x": -0.0292918754,
				"y": -1.3086955425,
				"z": -3.7536015331,
				"element": "C" 
			},
			{
				"x": -0.2919771001,
				"y": -1.1743236921,
				"z": -2.336602752,
				"element": "O" 
			},
			{
				"x": -1.4223826991,
				"y": -0.5810294179,
				"z": -1.9787524033,
				"element": "C" 
			},
			{
				"x": -1.7603927755,
				"y": -0.3273508275,
				"z": -0.6890889756,
				"element": "C" 
			},
			{
				"x": -2.9768394988,
				"y": 0.3451697467,
				"z": -0.4010649729,
				"element": "C" 
			},
			{
				"x": -3.9731340054,
				"y": 0.9103675419,
				"z": -0.1891356706,
				"element": "N" 
			},
			{
				"x": -0.7191452818,
				"y": -0.8158111435,
				"z": 0.7191072881,
				"element": "S" 
			},
			{
				"x": -1.5074660254,
				"y": -0.5130771926,
				"z": 1.9182333282,
				"element": "O" 
			},
			{
				"x": -0.1983149776,
				"y": -2.1610893348,
				"z": 0.4534640593,
				"element": "O" 
			},
			{
				"x": 0.6571019001,
				"y": 0.3390370235,
				"z": 0.6499662779,
				"element": "C" 
			},
			{
				"x": 1.8362622292,
				"y": -0.0409017464,
				"z": 0.0061802354,
				"element": "C" 
			},
			{
				"x": 2.9000098877,
				"y": 0.8615476821,
				"z": -0.0338315314,
				"element": "C" 
			},
			{
				"x": 2.7757095985,
				"y": 2.1190226238,
				"z": 0.562256536,
				"element": "C" 
			},
			{
				"x": 1.591359007,
				"y": 2.4806136582,
				"z": 1.2101024009,
				"element": "C" 
			},
			{
				"x": 0.5208810907,
				"y": 1.5880154708,
				"z": 1.2608307604,
				"element": "C" 
			},
			{
				"x": 0.9437505314,
				"y": -0.2391789291,
				"z": -5.3487756693,
				"element": "H" 
			},
			{
				"x": 0.0600004713,
				"y": 0.8096114276,
				"z": -4.2261436852,
				"element": "H" 
			},
			{
				"x": 1.6109008068,
				"y": 0.0994557221,
				"z": -3.7382297036,
				"element": "H" 
			},
			{
				"x": 0.5874263782,
				"y": -2.2059672272,
				"z": -3.8343831337,
				"element": "H" 
			},
			{
				"x": -0.9751696401,
				"y": -1.4938006408,
				"z": -4.276361642,
				"element": "H" 
			},
			{
				"x": -2.1040806939,
				"y": -0.286815462,
				"z": -2.7782967586,
				"element": "H" 
			},
			{
				"x": 1.911771965,
				"y": -1.0290071296,
				"z": -0.4329765891,
				"element": "H" 
			},
			{
				"x": 3.8285082681,
				"y": 0.5794293982,
				"z": -0.5213583444,
				"element": "H" 
			},
			{
				"x": 3.6076174627,
				"y": 2.8165560159,
				"z": 0.5298695467,
				"element": "H" 
			},
			{
				"x": 1.5035594145,
				"y": 3.4539337582,
				"z": 1.6830496588,
				"element": "H" 
			},
			{
				"x": -0.3991379309,
				"y": 1.8405333791,
				"z": 1.7771116175,
				"element": "H" 
			}
		],
		 "valence_orbital": [ 
			{
				"type": "occ",
				"energy": -0.30119,
				"method": "rhf"
			},
			{
				"type": "occ",
				"energy": -0.29299,
				"method": "rhf"
			},
			{
				"type": "occ",
				"energy": -0.282,
				"method": "rhf"
			},
			{
				"type": "occ",
				"energy": -0.27382,
				"method": "rhf"
			},
			{
				"type": "occ",
				"energy": -0.25789,
				"method": "rhf"
			},
			{
				"type": "unocc",
				"energy": -0.06014,
				"method": "rhf"
			},
			{
				"type": "unocc",
				"energy": -0.0389,
				"method": "rhf"
			},
			{
				"type": "unocc",
				"energy": -0.02388,
				"method": "rhf"
			},
			{
				"type": "unocc",
				"energy": 0.00544,
				"method": "rhf"
			},
			{
				"type": "unocc",
				"energy": 0.04824,
				"method": "rhf"
			}
		],
		"cosmo_sigma_profile": { 
			"-0.025": 0.0,
			"-0.024": 0.0,
			"-0.023": 0.0,
			"-0.022": 0.0,
			"-0.021": 0.0,
			"-0.02": 0.0,
			"-0.019": 0.0,
			"-0.018": 0.0,
			"-0.017": 0.0,
			"-0.016": 0.0,
			"-0.015": 0.0,
			"-0.014": 0.0,
			"-0.013": 0.0077698787711,
			"-0.012": 2.60042271985,
			"-0.011": 2.89827366151,
			"-0.01": 2.56720234917,
			"-0.009": 2.6073130434,
			"-0.008": 3.46046175158,
			"-0.007": 13.6850060499,
			"-0.006": 19.9481498012,
			"-0.005": 23.1163159263,
			"-0.004": 19.5076489172,
			"-0.003": 18.2546320435,
			"-0.002": 17.6855647032,
			"-0.001": 20.6141495461,
			"0.0": 15.6328978895,
			"0.001": 15.1332580473,
			"0.002": 15.6604464297,
			"0.003": 14.1501558441,
			"0.004": 5.20303403306,
			"0.005": 4.59819757078,
			"0.006": 6.01126450205,
			"0.007": 7.40262024794,
			"0.008": 7.7491259243,
			"0.009": 7.77187603297,
			"0.01": 13.0134946905,
			"0.011": 11.157590225,
			"0.012": 3.20699504219,
			"0.013": 1.2909009809,
			"0.014": 0.0246555419852,
			"0.015": 0.0,
			"0.016": 0.0,
			"0.017": 0.0,
			"0.018": 0.0,
			"0.019": 0.0,
			"0.02": 0.0,
			"0.021": 0.0,
			"0.022": 0.0,
			"0.023": 0.0,
			"0.024": 0.0,
			"0.025": 0.0
		}
	}
}
