{
	 "smiles": "NS(=O)(=O)C1=CC=C(CCN2C(S)=NC3=C(C=CC=C3)C2=O)C=C1", 
	 "Tm": 568.15, 
	 "num_atms": 39, 
	 "gaussian": { 
		 "optdone": 1, 
		 "sigma_profile": "yes", 
		 "theory": "DFT", 
		 "functional": "B3LYP", 
		 "basiset": "6-31G**", 
		 "properties": { 
			 "R2extent": 11781.0807, 
			 "electric_dipole_moment_norm": 4.46249797535, 
			 "electric_quadrupole_moment_norm": 51.529949568, 
			 "total_energy": -1805.00413848, 
			 "HOMO_LUMO_gap": 0.17889, 
			 "cosmo_polarized_energy": -26.75, 
			 "cosmo_cavitation_energy": 46.0, 
			 "cosmo_dispersion_energy": -32.37, 
			 "cosmo_repulsion_energy": 2.38, 
			 "cosmo_total_nonelectrostatic_energy": 16.01, 
			 "SMD_solvation_energy": 5.73 
		},
		"coords": [
			{
				"x": 1.5598142229,
				"y": -3.5651821459,
				"z": 5.7595280511,
				"element": "N" 
			},
			{
				"x": 0.9712830729,
				"y": -2.0587092536,
				"z": 5.2934340624,
				"element": "S" 
			},
			{
				"x": -0.2422963627,
				"y": -1.8520889135,
				"z": 6.0819949219,
				"element": "O" 
			},
			{
				"x": 2.1207154391,
				"y": -1.1571284271,
				"z": 5.3448165074,
				"element": "O" 
			},
			{
				"x": 0.4754963536,
				"y": -2.2033422303,
				"z": 3.5709047077,
				"element": "C" 
			},
			{
				"x": 1.4066133236,
				"y": -1.9482636772,
				"z": 2.5625045584,
				"element": "C" 
			},
			{
				"x": 1.0220491304,
				"y": -2.0913580718,
				"z": 1.230229533,
				"element": "C" 
			},
			{
				"x": -0.2841539473,
				"y": -2.4739692944,
				"z": 0.891220988,
				"element": "C" 
			},
			{
				"x": -0.7027052497,
				"y": -2.5962919385,
				"z": -0.5561810228,
				"element": "C" 
			},
			{
				"x": -1.2804842751,
				"y": -1.3063582406,
				"z": -1.1799674727,
				"element": "C" 
			},
			{
				"x": -0.3102359089,
				"y": -0.1999023005,
				"z": -1.2683341382,
				"element": "N" 
			},
			{
				"x": -0.3400188103,
				"y": 0.9210106319,
				"z": -0.4541232265,
				"element": "C" 
			},
			{
				"x": -1.6459097591,
				"y": 1.0102809003,
				"z": 0.7665991739,
				"element": "S" 
			},
			{
				"x": 0.4927720311,
				"y": 1.9073822092,
				"z": -0.5181306226,
				"element": "N" 
			},
			{
				"x": 1.4935538043,
				"y": 1.8603897988,
				"z": -1.4719518486,
				"element": "C" 
			},
			{
				"x": 1.6114899657,
				"y": 0.7839359957,
				"z": -2.3774633085,
				"element": "C" 
			},
			{
				"x": 2.6326886741,
				"y": 0.7702319713,
				"z": -3.3426414319,
				"element": "C" 
			},
			{
				"x": 3.534685642,
				"y": 1.8201328456,
				"z": -3.4053469803,
				"element": "C" 
			},
			{
				"x": 3.4235032223,
				"y": 2.8949573329,
				"z": -2.5025350678,
				"element": "C" 
			},
			{
				"x": 2.4191423944,
				"y": 2.9205562535,
				"z": -1.5479077584,
				"element": "C" 
			},
			{
				"x": 0.6589237483,
				"y": -0.3206153778,
				"z": -2.2994767567,
				"element": "C" 
			},
			{
				"x": 0.6503425845,
				"y": -1.304627052,
				"z": -3.0317407047,
				"element": "O" 
			},
			{
				"x": -1.2004978597,
				"y": -2.7183616092,
				"z": 1.9249364605,
				"element": "C" 
			},
			{
				"x": -0.8321168408,
				"y": -2.5842440127,
				"z": 3.2615013349,
				"element": "C" 
			},
			{
				"x": 2.4034891343,
				"y": -3.8293012756,
				"z": 5.26055906,
				"element": "H" 
			},
			{
				"x": 0.8469227228,
				"y": -4.2877162253,
				"z": 5.7450957566,
				"element": "H" 
			},
			{
				"x": 2.4092786379,
				"y": -1.6253596458,
				"z": 2.8221994132,
				"element": "H" 
			},
			{
				"x": 1.7461212299,
				"y": -1.9008992708,
				"z": 0.4429712889,
				"element": "H" 
			},
			{
				"x": 0.1389117282,
				"y": -2.9152147914,
				"z": -1.1759227924,
				"element": "H" 
			},
			{
				"x": -1.4799536908,
				"y": -3.363366448,
				"z": -0.6528701876,
				"element": "H" 
			},
			{
				"x": -1.5931518791,
				"y": -1.5293456872,
				"z": -2.2021804147,
				"element": "H" 
			},
			{
				"x": -2.1523757344,
				"y": -0.9591852936,
				"z": -0.6236143795,
				"element": "H" 
			},
			{
				"x": -1.2380755381,
				"y": 2.2235872252,
				"z": 1.1797601486,
				"element": "H" 
			},
			{
				"x": 2.6883669501,
				"y": -0.073827931,
				"z": -4.0219378507,
				"element": "H" 
			},
			{
				"x": 4.3264578559,
				"y": 1.8160843906,
				"z": -4.1479675868,
				"element": "H" 
			},
			{
				"x": 4.1336906368,
				"y": 3.7153111009,
				"z": -2.555357933,
				"element": "H" 
			},
			{
				"x": 2.3185874367,
				"y": 3.7417257682,
				"z": -0.8462226127,
				"element": "H" 
			},
			{
				"x": -2.2181439712,
				"y": -3.0124410049,
				"z": 1.6801733578,
				"element": "H" 
			},
			{
				"x": -1.5485801147,
				"y": -2.7506863056,
				"z": 4.0589447726,
				"element": "H" 
			}
		],
		 "valence_orbital": [ 
			{
				"type": "occ",
				"energy": -0.2744,
				"method": "rhf"
			},
			{
				"type": "occ",
				"energy": -0.27358,
				"method": "rhf"
			},
			{
				"type": "occ",
				"energy": -0.26599,
				"method": "rhf"
			},
			{
				"type": "occ",
				"energy": -0.26132,
				"method": "rhf"
			},
			{
				"type": "occ",
				"energy": -0.22867,
				"method": "rhf"
			},
			{
				"type": "unocc",
				"energy": -0.04978,
				"method": "rhf"
			},
			{
				"type": "unocc",
				"energy": -0.04306,
				"method": "rhf"
			},
			{
				"type": "unocc",
				"energy": -0.03827,
				"method": "rhf"
			},
			{
				"type": "unocc",
				"energy": -0.02612,
				"method": "rhf"
			},
			{
				"type": "unocc",
				"energy": 0.00073,
				"method": "rhf"
			}
		],
		"cosmo_sigma_profile": { 
			"-0.025": 0.0,
			"-0.024": 0.0,
			"-0.023": 0.0,
			"-0.022": 0.0,
			"-0.021": 0.0,
			"-0.02": 0.0,
			"-0.019": 0.0,
			"-0.018": 0.0,
			"-0.017": 0.0,
			"-0.016": 0.0354264405182,
			"-0.015": 2.47483276109,
			"-0.014": 2.05230680575,
			"-0.013": 2.7531774201,
			"-0.012": 3.78982417003,
			"-0.011": 4.17291218534,
			"-0.01": 3.74371386953,
			"-0.009": 2.5366147274,
			"-0.008": 3.12722104177,
			"-0.007": 10.3013748259,
			"-0.006": 27.3032048733,
			"-0.005": 30.8052096914,
			"-0.004": 26.1988482029,
			"-0.003": 20.67622332,
			"-0.002": 18.9981953395,
			"-0.001": 18.3642405844,
			"0.0": 19.7877467242,
			"0.001": 24.4358165449,
			"0.002": 26.3519681871,
			"0.003": 29.2648795514,
			"0.004": 18.0341485217,
			"0.005": 9.85328181439,
			"0.006": 9.5052217971,
			"0.007": 6.47183694842,
			"0.008": 7.26339908734,
			"0.009": 7.31050166067,
			"0.01": 9.64896361061,
			"0.011": 12.8987594666,
			"0.012": 9.8584988671,
			"0.013": 1.81453048867,
			"0.014": 0.0,
			"0.015": 0.0,
			"0.016": 0.0,
			"0.017": 0.0,
			"0.018": 0.0,
			"0.019": 0.0,
			"0.02": 0.0,
			"0.021": 0.0,
			"0.022": 0.0,
			"0.023": 0.0,
			"0.024": 0.0,
			"0.025": 0.0
		}
	}
}
