{
	 "smiles": "ClCCOC1=CC=CC=C1", 
	 "Tm": 299.15, 
	 "num_atms": 19, 
	 "gaussian": { 
		 "optdone": 1, 
		 "sigma_profile": "yes", 
		 "theory": "DFT", 
		 "functional": "B3LYP", 
		 "basiset": "6-31G**", 
		 "properties": { 
			 "R2extent": 3104.344, 
			 "electric_dipole_moment_norm": 2.59903444186, 
			 "electric_quadrupole_moment_norm": 15.4226873725, 
			 "total_energy": -845.682405752, 
			 "HOMO_LUMO_gap": 0.21761, 
			 "cosmo_polarized_energy": -8.99, 
			 "cosmo_cavitation_energy": 24.15, 
			 "cosmo_dispersion_energy": -17.89, 
			 "cosmo_repulsion_energy": 1.47, 
			 "cosmo_total_nonelectrostatic_energy": 7.74, 
			 "SMD_solvation_energy": 4.03 
		},
		"coords": [
			{
				"x": 0.8553228721,
				"y": 2.5934300242,
				"z": -3.8065413912,
				"element": "Cl" 
			},
			{
				"x": 0.3728575748,
				"y": 2.967655019,
				"z": -2.101375047,
				"element": "C" 
			},
			{
				"x": 1.5652139968,
				"y": 2.9607924238,
				"z": -1.1527223771,
				"element": "C" 
			},
			{
				"x": 2.1806425774,
				"y": 1.6923620033,
				"z": -1.0172372752,
				"element": "O" 
			},
			{
				"x": 1.595515123,
				"y": 0.7238441949,
				"z": -0.241590624,
				"element": "C" 
			},
			{
				"x": 2.232430091,
				"y": -0.5251966463,
				"z": -0.2739499061,
				"element": "C" 
			},
			{
				"x": 1.7437105739,
				"y": -1.5767698128,
				"z": 0.4930226733,
				"element": "C" 
			},
			{
				"x": 0.6143264604,
				"y": -1.4034405581,
				"z": 1.3007252335,
				"element": "C" 
			},
			{
				"x": -0.0161855333,
				"y": -0.1621857322,
				"z": 1.3276479509,
				"element": "C" 
			},
			{
				"x": 0.4632924098,
				"y": 0.906078002,
				"z": 0.5615414883,
				"element": "C" 
			},
			{
				"x": -0.0886155706,
				"y": 3.9574192615,
				"z": -2.1124937812,
				"element": "H" 
			},
			{
				"x": -0.3731883556,
				"y": 2.2244955475,
				"z": -1.8190189338,
				"element": "H" 
			},
			{
				"x": 1.2409371454,
				"y": 3.3533109986,
				"z": -0.1781890731,
				"element": "H" 
			},
			{
				"x": 2.3471253035,
				"y": 3.6212367835,
				"z": -1.5353410598,
				"element": "H" 
			},
			{
				"x": 3.1062232699,
				"y": -0.6412034091,
				"z": -0.9065621613,
				"element": "H" 
			},
			{
				"x": 2.2470470713,
				"y": -2.5388631151,
				"z": 0.4594425,
				"element": "H" 
			},
			{
				"x": 0.2329531684,
				"y": -2.2264676536,
				"z": 1.8968523288,
				"element": "H" 
			},
			{
				"x": -0.8951280559,
				"y": -0.0110885269,
				"z": 1.9481502372,
				"element": "H" 
			},
			{
				"x": -0.0501801221,
				"y": 1.8594911957,
				"z": 0.6069392177,
				"element": "H" 
			}
		],
		 "valence_orbital": [ 
			{
				"type": "occ",
				"energy": -0.32457,
				"method": "rhf"
			},
			{
				"type": "occ",
				"energy": -0.29703,
				"method": "rhf"
			},
			{
				"type": "occ",
				"energy": -0.29592,
				"method": "rhf"
			},
			{
				"type": "occ",
				"energy": -0.25295,
				"method": "rhf"
			},
			{
				"type": "occ",
				"energy": -0.22284,
				"method": "rhf"
			},
			{
				"type": "unocc",
				"energy": -0.00523,
				"method": "rhf"
			},
			{
				"type": "unocc",
				"energy": 0.00959,
				"method": "rhf"
			},
			{
				"type": "unocc",
				"energy": 0.02351,
				"method": "rhf"
			},
			{
				"type": "unocc",
				"energy": 0.0824,
				"method": "rhf"
			},
			{
				"type": "unocc",
				"energy": 0.09573,
				"method": "rhf"
			}
		],
		"cosmo_sigma_profile": { 
			"-0.025": 0.0,
			"-0.024": 0.0,
			"-0.023": 0.0,
			"-0.022": 0.0,
			"-0.021": 0.0,
			"-0.02": 0.0,
			"-0.019": 0.0,
			"-0.018": 0.0,
			"-0.017": 0.0,
			"-0.016": 0.0,
			"-0.015": 0.0,
			"-0.014": 0.0,
			"-0.013": 0.0,
			"-0.012": 0.0,
			"-0.011": 0.0,
			"-0.01": 0.0335773008289,
			"-0.009": 1.09577885226,
			"-0.008": 5.17713003758,
			"-0.007": 9.39572084851,
			"-0.006": 13.6537233591,
			"-0.005": 16.81669985,
			"-0.004": 14.8387509042,
			"-0.003": 13.0507149352,
			"-0.002": 9.37609443684,
			"-0.001": 9.29257726091,
			"0.0": 9.72204812456,
			"0.001": 8.89774730018,
			"0.002": 10.8489026163,
			"0.003": 11.4723097064,
			"0.004": 14.1156933584,
			"0.005": 17.1133730082,
			"0.006": 16.7463722118,
			"0.007": 6.76151171707,
			"0.008": 2.52812272804,
			"0.009": 2.0173236081,
			"0.01": 1.31497361902,
			"0.011": 0.133735823408,
			"0.012": 0.0,
			"0.013": 0.0,
			"0.014": 0.0,
			"0.015": 0.0,
			"0.016": 0.0,
			"0.017": 0.0,
			"0.018": 0.0,
			"0.019": 0.0,
			"0.02": 0.0,
			"0.021": 0.0,
			"0.022": 0.0,
			"0.023": 0.0,
			"0.024": 0.0,
			"0.025": 0.0
		}
	}
}
