{
	 "smiles": "COC1=CC=CC=C1Br", 
	 "Tm": 275.65, 
	 "num_atms": 16, 
	 "gaussian": { 
		 "optdone": 1, 
		 "sigma_profile": "yes", 
		 "theory": "DFT", 
		 "functional": "B3LYP", 
		 "basiset": "6-31G**", 
		 "properties": { 
			 "R2extent": 2103.8077, 
			 "electric_dipole_moment_norm": 2.78969185574, 
			 "electric_quadrupole_moment_norm": 7.70039339515, 
			 "total_energy": -2917.57581192, 
			 "HOMO_LUMO_gap": 0.2115, 
			 "cosmo_polarized_energy": -6.54, 
			 "cosmo_cavitation_energy": 21.89, 
			 "cosmo_dispersion_energy": -16.79, 
			 "cosmo_repulsion_energy": 1.38, 
			 "cosmo_total_nonelectrostatic_energy": 6.48, 
			 "SMD_solvation_energy": 3.53 
		},
		"coords": [
			{
				"x": 0.0400782901,
				"y": -2.0950134607,
				"z": 1.1134075649,
				"element": "C" 
			},
			{
				"x": -0.1280186936,
				"y": -0.6856865891,
				"z": 1.130934055,
				"element": "O" 
			},
			{
				"x": -0.2228884562,
				"y": -0.0298244508,
				"z": -0.0540069287,
				"element": "C" 
			},
			{
				"x": -0.1666497678,
				"y": -0.6486812414,
				"z": -1.3101389966,
				"element": "C" 
			},
			{
				"x": -0.2733414072,
				"y": 0.1091634646,
				"z": -2.4785529298,
				"element": "C" 
			},
			{
				"x": -0.4371278517,
				"y": 1.4902653083,
				"z": -2.4148871801,
				"element": "C" 
			},
			{
				"x": -0.4945989817,
				"y": 2.1179895151,
				"z": -1.167911901,
				"element": "C" 
			},
			{
				"x": -0.3888460184,
				"y": 1.3673771834,
				"z": -0.0028781207,
				"element": "C" 
			},
			{
				"x": -0.470054235,
				"y": 2.2456865504,
				"z": 1.6880979552,
				"element": "Br" 
			},
			{
				"x": -0.807510786,
				"y": -2.5976456374,
				"z": 0.6305231158,
				"element": "H" 
			},
			{
				"x": 0.9686760024,
				"y": -2.385440608,
				"z": 0.6058808873,
				"element": "H" 
			},
			{
				"x": 0.0910610307,
				"y": -2.4004132672,
				"z": 2.1591615809,
				"element": "H" 
			},
			{
				"x": -0.0395705023,
				"y": -1.7223755752,
				"z": -1.3801518487,
				"element": "H" 
			},
			{
				"x": -0.2269254085,
				"y": -0.3926146028,
				"z": -3.4405440107,
				"element": "H" 
			},
			{
				"x": -0.5202340047,
				"y": 2.0813570982,
				"z": -3.3211906858,
				"element": "H" 
			},
			{
				"x": -0.6216492103,
				"y": 3.1922563125,
				"z": -1.093142557,
				"element": "H" 
			}
		],
		 "valence_orbital": [ 
			{
				"type": "occ",
				"energy": -0.32808,
				"method": "rhf"
			},
			{
				"type": "occ",
				"energy": -0.30618,
				"method": "rhf"
			},
			{
				"type": "occ",
				"energy": -0.27535,
				"method": "rhf"
			},
			{
				"type": "occ",
				"energy": -0.24616,
				"method": "rhf"
			},
			{
				"type": "occ",
				"energy": -0.22202,
				"method": "rhf"
			},
			{
				"type": "unocc",
				"energy": -0.01052,
				"method": "rhf"
			},
			{
				"type": "unocc",
				"energy": 0.00404,
				"method": "rhf"
			},
			{
				"type": "unocc",
				"energy": 0.01463,
				"method": "rhf"
			},
			{
				"type": "unocc",
				"energy": 0.09415,
				"method": "rhf"
			},
			{
				"type": "unocc",
				"energy": 0.11157,
				"method": "rhf"
			}
		],
		"cosmo_sigma_profile": { 
			"-0.025": 0.0,
			"-0.024": 0.0,
			"-0.023": 0.0,
			"-0.022": 0.0,
			"-0.021": 0.0,
			"-0.02": 0.0,
			"-0.019": 0.0,
			"-0.018": 0.0,
			"-0.017": 0.0,
			"-0.016": 0.0,
			"-0.015": 0.0,
			"-0.014": 0.0,
			"-0.013": 0.0,
			"-0.012": 0.0,
			"-0.011": 0.0,
			"-0.01": 0.0,
			"-0.009": 0.0,
			"-0.008": 0.0199009946182,
			"-0.007": 3.14213626882,
			"-0.006": 13.5898597093,
			"-0.005": 16.7621092243,
			"-0.004": 17.5139603842,
			"-0.003": 13.9990298456,
			"-0.002": 9.94123382978,
			"-0.001": 8.01072365981,
			"0.0": 9.56377083938,
			"0.001": 9.69163627676,
			"0.002": 14.3266679228,
			"0.003": 16.7264519306,
			"0.004": 17.8611092652,
			"0.005": 15.9726196701,
			"0.006": 3.17202331926,
			"0.007": 1.80768598588,
			"0.008": 2.0240099178,
			"0.009": 1.68906519512,
			"0.01": 1.88702179872,
			"0.011": 0.490893909904,
			"0.012": 0.0,
			"0.013": 0.0,
			"0.014": 0.0,
			"0.015": 0.0,
			"0.016": 0.0,
			"0.017": 0.0,
			"0.018": 0.0,
			"0.019": 0.0,
			"0.02": 0.0,
			"0.021": 0.0,
			"0.022": 0.0,
			"0.023": 0.0,
			"0.024": 0.0,
			"0.025": 0.0
		}
	}
}
