{
	 "smiles": "COC1=CC(=CC=C1)N1CC(CC1=O)C(O)=O", 
	 "Tm": 440.15, 
	 "num_atms": 30, 
	 "gaussian": { 
		 "optdone": 1, 
		 "sigma_profile": "yes", 
		 "theory": "DFT", 
		 "functional": "B3LYP", 
		 "basiset": "6-31G**", 
		 "properties": { 
			 "R2extent": 5388.3432, 
			 "electric_dipole_moment_norm": 2.91702399544, 
			 "electric_quadrupole_moment_norm": 10.2402844072, 
			 "total_energy": -820.78039568, 
			 "HOMO_LUMO_gap": 0.19607, 
			 "cosmo_polarized_energy": -16.7, 
			 "cosmo_cavitation_energy": 33.68, 
			 "cosmo_dispersion_energy": -24.43, 
			 "cosmo_repulsion_energy": 1.89, 
			 "cosmo_total_nonelectrostatic_energy": 11.14, 
			 "SMD_solvation_energy": 7.67 
		},
		"coords": [
			{
				"x": 4.6427120353,
				"y": -0.8139396951,
				"z": 0.9207866511,
				"element": "C" 
			},
			{
				"x": 3.8379381437,
				"y": -0.8880273976,
				"z": 2.0887934378,
				"element": "O" 
			},
			{
				"x": 2.4879370637,
				"y": -0.7458672157,
				"z": 1.9548763825,
				"element": "C" 
			},
			{
				"x": 1.8535584486,
				"y": -0.5135527924,
				"z": 0.7327825208,
				"element": "C" 
			},
			{
				"x": 0.4525403172,
				"y": -0.3841016754,
				"z": 0.6928510791,
				"element": "C" 
			},
			{
				"x": -0.2925326912,
				"y": -0.4874920549,
				"z": 1.8766022348,
				"element": "C" 
			},
			{
				"x": 0.3673860299,
				"y": -0.7156068113,
				"z": 3.0872732702,
				"element": "C" 
			},
			{
				"x": 1.7475331118,
				"y": -0.844518688,
				"z": 3.1427950327,
				"element": "C" 
			},
			{
				"x": -0.218200147,
				"y": -0.136740684,
				"z": -0.5328764729,
				"element": "N" 
			},
			{
				"x": -1.6509303996,
				"y": 0.1822550262,
				"z": -0.5559609251,
				"element": "C" 
			},
			{
				"x": -1.9074287124,
				"y": 0.6674474784,
				"z": -1.992060823,
				"element": "C" 
			},
			{
				"x": -0.8158701637,
				"y": -0.050064995,
				"z": -2.811143717,
				"element": "C" 
			},
			{
				"x": 0.3114178509,
				"y": -0.2791339329,
				"z": -1.8058956279,
				"element": "C" 
			},
			{
				"x": 1.4608004599,
				"y": -0.5606136338,
				"z": -2.1030296489,
				"element": "O" 
			},
			{
				"x": -3.3078347149,
				"y": 0.3619838855,
				"z": -2.4781394041,
				"element": "C" 
			},
			{
				"x": -3.6259100248,
				"y": 1.1132655029,
				"z": -3.5569513621,
				"element": "O" 
			},
			{
				"x": -4.0601196805,
				"y": -0.462465921,
				"z": -2.0061231796,
				"element": "O" 
			},
			{
				"x": 4.563152793,
				"y": 0.1671163735,
				"z": 0.4357433657,
				"element": "H" 
			},
			{
				"x": 4.3757385853,
				"y": -1.5916801648,
				"z": 0.1947377232,
				"element": "H" 
			},
			{
				"x": 5.6700439925,
				"y": -0.9680401872,
				"z": 1.2548084558,
				"element": "H" 
			},
			{
				"x": 2.4076490634,
				"y": -0.4461991831,
				"z": -0.189471997,
				"element": "H" 
			},
			{
				"x": -1.3722827286,
				"y": -0.4100021774,
				"z": 1.8682064698,
				"element": "H" 
			},
			{
				"x": -0.2159920124,
				"y": -0.796586701,
				"z": 3.9998969424,
				"element": "H" 
			},
			{
				"x": 2.2707517656,
				"y": -1.0233699246,
				"z": 4.0757050322,
				"element": "H" 
			},
			{
				"x": -2.2635075585,
				"y": -0.6990677205,
				"z": -0.3340104265,
				"element": "H" 
			},
			{
				"x": -1.8798898705,
				"y": 0.9551222794,
				"z": 0.1828334557,
				"element": "H" 
			},
			{
				"x": -1.7475573838,
				"y": 1.7476242823,
				"z": -2.0634259875,
				"element": "H" 
			},
			{
				"x": -1.1536750981,
				"y": -1.031584403,
				"z": -3.1665080392,
				"element": "H" 
			},
			{
				"x": -0.4575870371,
				"y": 0.5136045612,
				"z": -3.6734748084,
				"element": "H" 
			},
			{
				"x": -4.5160414377,
				"y": 0.8355365693,
				"z": -3.8328196346,
				"element": "H" 
			}
		],
		 "valence_orbital": [ 
			{
				"type": "occ",
				"energy": -0.295,
				"method": "rhf"
			},
			{
				"type": "occ",
				"energy": -0.28399,
				"method": "rhf"
			},
			{
				"type": "occ",
				"energy": -0.2551,
				"method": "rhf"
			},
			{
				"type": "occ",
				"energy": -0.22833,
				"method": "rhf"
			},
			{
				"type": "occ",
				"energy": -0.20931,
				"method": "rhf"
			},
			{
				"type": "unocc",
				"energy": -0.01324,
				"method": "rhf"
			},
			{
				"type": "unocc",
				"energy": -0.00887,
				"method": "rhf"
			},
			{
				"type": "unocc",
				"energy": 0.01302,
				"method": "rhf"
			},
			{
				"type": "unocc",
				"energy": 0.04177,
				"method": "rhf"
			},
			{
				"type": "unocc",
				"energy": 0.06479,
				"method": "rhf"
			}
		],
		"cosmo_sigma_profile": { 
			"-0.025": 0.0,
			"-0.024": 0.0,
			"-0.023": 0.0,
			"-0.022": 0.0,
			"-0.021": 0.0,
			"-0.02": 0.0,
			"-0.019": 0.175710372474,
			"-0.018": 0.775929398298,
			"-0.017": 0.973105757962,
			"-0.016": 0.960282296249,
			"-0.015": 0.999264341384,
			"-0.014": 0.552131789377,
			"-0.013": 0.394298238175,
			"-0.012": 0.477818133786,
			"-0.011": 1.33646003474,
			"-0.01": 0.484929758096,
			"-0.009": 0.129593313113,
			"-0.008": 1.59324999599,
			"-0.007": 12.5237547619,
			"-0.006": 22.7097647675,
			"-0.005": 21.5558046871,
			"-0.004": 23.4779915003,
			"-0.003": 23.470706866,
			"-0.002": 16.1071348744,
			"-0.001": 10.8927209038,
			"0.0": 11.0414918756,
			"0.001": 12.4979415104,
			"0.002": 11.8681243113,
			"0.003": 12.4330283444,
			"0.004": 15.8916699194,
			"0.005": 15.7958489028,
			"0.006": 9.54895729776,
			"0.007": 5.5026572757,
			"0.008": 5.84174259492,
			"0.009": 5.61350730765,
			"0.01": 6.11806291654,
			"0.011": 7.19429771726,
			"0.012": 4.59720974337,
			"0.013": 2.97104120122,
			"0.014": 0.59189214687,
			"0.015": 0.0,
			"0.016": 0.0,
			"0.017": 0.0,
			"0.018": 0.0,
			"0.019": 0.0,
			"0.02": 0.0,
			"0.021": 0.0,
			"0.022": 0.0,
			"0.023": 0.0,
			"0.024": 0.0,
			"0.025": 0.0
		}
	}
}
