{
	 "smiles": "OCCN(CC(O)=O)CC(O)=O", 
	 "Tm": 451.15, 
	 "num_atms": 23, 
	 "gaussian": { 
		 "optdone": 1, 
		 "sigma_profile": "yes", 
		 "theory": "DFT", 
		 "functional": "B3LYP", 
		 "basiset": "6-31G**", 
		 "properties": { 
			 "R2extent": 2726.1441, 
			 "electric_dipole_moment_norm": 3.92014818215, 
			 "electric_quadrupole_moment_norm": 10.8679919645, 
			 "total_energy": -666.141954781, 
			 "HOMO_LUMO_gap": 0.22514, 
			 "cosmo_polarized_energy": -19.9, 
			 "cosmo_cavitation_energy": 26.26, 
			 "cosmo_dispersion_energy": -18.94, 
			 "cosmo_repulsion_energy": 1.54, 
			 "cosmo_total_nonelectrostatic_energy": 8.86, 
			 "SMD_solvation_energy": 5.82 
		},
		"coords": [
			{
				"x": 0.8331402885,
				"y": -1.8253760076,
				"z": 1.648634108,
				"element": "O" 
			},
			{
				"x": -0.2183632603,
				"y": -1.7612354931,
				"z": 0.7192193105,
				"element": "C" 
			},
			{
				"x": -1.006920573,
				"y": -0.44783531,
				"z": 0.8111342311,
				"element": "C" 
			},
			{
				"x": -0.1594412973,
				"y": 0.7258898764,
				"z": 0.5976450904,
				"element": "N" 
			},
			{
				"x": -0.6501567988,
				"y": 1.947434142,
				"z": 1.19460804,
				"element": "C" 
			},
			{
				"x": 0.4421491861,
				"y": 2.9852267959,
				"z": 1.4015427548,
				"element": "C" 
			},
			{
				"x": -0.0051581873,
				"y": 3.995005385,
				"z": 2.1826689664,
				"element": "O" 
			},
			{
				"x": 1.5548324021,
				"y": 2.9649668463,
				"z": 0.9250928882,
				"element": "O" 
			},
			{
				"x": 0.3828608636,
				"y": 0.8730795524,
				"z": -0.7406114865,
				"element": "C" 
			},
			{
				"x": 1.8698678185,
				"y": 0.5452930811,
				"z": -0.8104343693,
				"element": "C" 
			},
			{
				"x": 2.4370003513,
				"y": 1.0886968641,
				"z": -1.9056271424,
				"element": "O" 
			},
			{
				"x": 2.4871423325,
				"y": -0.1556416422,
				"z": -0.0360437029,
				"element": "O" 
			},
			{
				"x": 1.4889785942,
				"y": -1.1697053849,
				"z": 1.352997033,
				"element": "H" 
			},
			{
				"x": -0.907114607,
				"y": -2.586394215,
				"z": 0.9370161263,
				"element": "H" 
			},
			{
				"x": 0.1377898573,
				"y": -1.915732601,
				"z": -0.3141324193,
				"element": "H" 
			},
			{
				"x": -1.8633815396,
				"y": -0.483383437,
				"z": 0.1084209181,
				"element": "H" 
			},
			{
				"x": -1.4165260014,
				"y": -0.3778763302,
				"z": 1.8236935939,
				"element": "H" 
			},
			{
				"x": -1.0776259835,
				"y": 1.7241273069,
				"z": 2.1765485763,
				"element": "H" 
			},
			{
				"x": -1.4565400342,
				"y": 2.4483934652,
				"z": 0.6205660763,
				"element": "H" 
			},
			{
				"x": 0.7252702531,
				"y": 4.6327065439,
				"z": 2.2518135263,
				"element": "H" 
			},
			{
				"x": -0.1230128911,
				"y": 0.2059341986,
				"z": -1.4561337271,
				"element": "H" 
			},
			{
				"x": 0.2494385965,
				"y": 1.8875842861,
				"z": -1.1270721103,
				"element": "H" 
			},
			{
				"x": 3.3698706297,
				"y": 0.8152420771,
				"z": -1.8979462817,
				"element": "H" 
			}
		],
		 "valence_orbital": [ 
			{
				"type": "occ",
				"energy": -0.313,
				"method": "rhf"
			},
			{
				"type": "occ",
				"energy": -0.28867,
				"method": "rhf"
			},
			{
				"type": "occ",
				"energy": -0.28172,
				"method": "rhf"
			},
			{
				"type": "occ",
				"energy": -0.24637,
				"method": "rhf"
			},
			{
				"type": "occ",
				"energy": -0.22532,
				"method": "rhf"
			},
			{
				"type": "unocc",
				"energy": -0.00018,
				"method": "rhf"
			},
			{
				"type": "unocc",
				"energy": 0.00671,
				"method": "rhf"
			},
			{
				"type": "unocc",
				"energy": 0.06913,
				"method": "rhf"
			},
			{
				"type": "unocc",
				"energy": 0.07287,
				"method": "rhf"
			},
			{
				"type": "unocc",
				"energy": 0.08008,
				"method": "rhf"
			}
		],
		"cosmo_sigma_profile": { 
			"-0.025": 0.0,
			"-0.024": 0.0,
			"-0.023": 0.0,
			"-0.022": 0.0,
			"-0.021": 0.0,
			"-0.02": 0.0,
			"-0.019": 0.491392004541,
			"-0.018": 1.48880006042,
			"-0.017": 2.39559026787,
			"-0.016": 1.45418901853,
			"-0.015": 1.00803305461,
			"-0.014": 1.29306646159,
			"-0.013": 1.25743210931,
			"-0.012": 1.76085357981,
			"-0.011": 1.87224227698,
			"-0.01": 1.34050580944,
			"-0.009": 0.881046034304,
			"-0.008": 2.82922405015,
			"-0.007": 9.84773988322,
			"-0.006": 11.6954506815,
			"-0.005": 12.3291357765,
			"-0.004": 16.6710260192,
			"-0.003": 20.3058490469,
			"-0.002": 14.1587858302,
			"-0.001": 9.47262505666,
			"0.0": 7.30628785378,
			"0.001": 6.38774738875,
			"0.002": 5.98462027477,
			"0.003": 4.96053917284,
			"0.004": 6.1283395634,
			"0.005": 7.63822951288,
			"0.006": 6.16365928952,
			"0.007": 8.79630678008,
			"0.008": 7.37856123813,
			"0.009": 9.17618272502,
			"0.01": 7.48159470958,
			"0.011": 6.31071536543,
			"0.012": 2.39335202516,
			"0.013": 1.4458795693,
			"0.014": 1.6508593472,
			"0.015": 2.62955858016,
			"0.016": 0.398938437343,
			"0.017": 0.0,
			"0.018": 0.0,
			"0.019": 0.0,
			"0.02": 0.0,
			"0.021": 0.0,
			"0.022": 0.0,
			"0.023": 0.0,
			"0.024": 0.0,
			"0.025": 0.0
		}
	}
}
