{
	 "smiles": "OC1=C2CCCC2=NC(S)=N1", 
	 "Tm": 562.15, 
	 "num_atms": 19, 
	 "gaussian": { 
		 "optdone": 1, 
		 "sigma_profile": "yes", 
		 "theory": "DFT", 
		 "functional": "B3LYP", 
		 "basiset": "6-31G**", 
		 "properties": { 
			 "R2extent": 2549.0552, 
			 "electric_dipole_moment_norm": 4.64209902199, 
			 "electric_quadrupole_moment_norm": 2.90254717447, 
			 "total_energy": -854.48842941, 
			 "HOMO_LUMO_gap": 0.20407, 
			 "cosmo_polarized_energy": -14.16, 
			 "cosmo_cavitation_energy": 24.05, 
			 "cosmo_dispersion_energy": -18.97, 
			 "cosmo_repulsion_energy": 1.5, 
			 "cosmo_total_nonelectrostatic_energy": 6.58, 
			 "SMD_solvation_energy": 0.35 
		},
		"coords": [
			{
				"x": 1.3200572752,
				"y": -2.1985895575,
				"z": -0.8294899005,
				"element": "O" 
			},
			{
				"x": 0.191018882,
				"y": -1.5651740614,
				"z": -0.4424271317,
				"element": "C" 
			},
			{
				"x": 0.1698855258,
				"y": -0.2545435164,
				"z": 0.0449148866,
				"element": "C" 
			},
			{
				"x": 1.2529567615,
				"y": 0.7760785573,
				"z": 0.2583292226,
				"element": "C" 
			},
			{
				"x": 0.5360913288,
				"y": 1.8399788315,
				"z": 1.1434525699,
				"element": "C" 
			},
			{
				"x": -0.9801140989,
				"y": 1.6711402695,
				"z": 0.8692303961,
				"element": "C" 
			},
			{
				"x": -1.0861491057,
				"y": 0.2434960543,
				"z": 0.3878939717,
				"element": "C" 
			},
			{
				"x": -2.2239709728,
				"y": -0.4462891497,
				"z": 0.2818913114,
				"element": "N" 
			},
			{
				"x": -2.0617986407,
				"y": -1.6916081913,
				"z": -0.1869085683,
				"element": "C" 
			},
			{
				"x": -3.5726501151,
				"y": -2.6235280267,
				"z": -0.3193134408,
				"element": "S" 
			},
			{
				"x": -0.9237748741,
				"y": -2.2881151631,
				"z": -0.5514773882,
				"element": "N" 
			},
			{
				"x": 2.0713900534,
				"y": -1.6013727019,
				"z": -0.7130211111,
				"element": "H" 
			},
			{
				"x": 1.5791718138,
				"y": 1.2112355612,
				"z": -0.6972419099,
				"element": "H" 
			},
			{
				"x": 2.1506925223,
				"y": 0.3803588114,
				"z": 0.7501162034,
				"element": "H" 
			},
			{
				"x": 0.7394505902,
				"y": 1.6218549896,
				"z": 2.1968809564,
				"element": "H" 
			},
			{
				"x": 0.8940487807,
				"y": 2.8531045922,
				"z": 0.9448086388,
				"element": "H" 
			},
			{
				"x": -1.3295352469,
				"y": 2.346825376,
				"z": 0.0771114034,
				"element": "H" 
			},
			{
				"x": -1.6071300873,
				"y": 1.8587734134,
				"z": 1.7452076988,
				"element": "H" 
			},
			{
				"x": -2.982340392,
				"y": -3.7349260882,
				"z": -0.7983578085,
				"element": "H" 
			}
		],
		 "valence_orbital": [ 
			{
				"type": "occ",
				"energy": -0.2992,
				"method": "rhf"
			},
			{
				"type": "occ",
				"energy": -0.29403,
				"method": "rhf"
			},
			{
				"type": "occ",
				"energy": -0.2763,
				"method": "rhf"
			},
			{
				"type": "occ",
				"energy": -0.2574,
				"method": "rhf"
			},
			{
				"type": "occ",
				"energy": -0.2294,
				"method": "rhf"
			},
			{
				"type": "unocc",
				"energy": -0.02533,
				"method": "rhf"
			},
			{
				"type": "unocc",
				"energy": -0.01613,
				"method": "rhf"
			},
			{
				"type": "unocc",
				"energy": 0.02858,
				"method": "rhf"
			},
			{
				"type": "unocc",
				"energy": 0.04946,
				"method": "rhf"
			},
			{
				"type": "unocc",
				"energy": 0.08574,
				"method": "rhf"
			}
		],
		"cosmo_sigma_profile": { 
			"-0.025": 0.0,
			"-0.024": 0.0,
			"-0.023": 0.0,
			"-0.022": 0.0,
			"-0.021": 0.0,
			"-0.02": 0.0,
			"-0.019": 0.0,
			"-0.018": 0.495277886126,
			"-0.017": 0.778036881383,
			"-0.016": 1.04812913535,
			"-0.015": 0.79564076971,
			"-0.014": 1.05533688466,
			"-0.013": 0.986875477041,
			"-0.012": 1.45163153166,
			"-0.011": 2.29866209292,
			"-0.01": 2.48106512433,
			"-0.009": 2.14649933683,
			"-0.008": 1.76606146725,
			"-0.007": 3.01695814882,
			"-0.006": 3.70419933279,
			"-0.005": 8.03356105746,
			"-0.004": 14.5290763916,
			"-0.003": 19.6434427302,
			"-0.002": 18.640638557,
			"-0.001": 19.9706230175,
			"0.0": 15.3288666416,
			"0.001": 6.75111279811,
			"0.002": 8.10207564641,
			"0.003": 8.2978226096,
			"0.004": 8.71066353216,
			"0.005": 8.42177426019,
			"0.006": 6.62273585984,
			"0.007": 6.65681388909,
			"0.008": 4.74992959066,
			"0.009": 3.72656378157,
			"0.01": 3.91701311891,
			"0.011": 3.68884635399,
			"0.012": 2.16071994931,
			"0.013": 1.94334488885,
			"0.014": 1.21139504324,
			"0.015": 0.236604177934,
			"0.016": 0.0,
			"0.017": 0.0,
			"0.018": 0.0,
			"0.019": 0.0,
			"0.02": 0.0,
			"0.021": 0.0,
			"0.022": 0.0,
			"0.023": 0.0,
			"0.024": 0.0,
			"0.025": 0.0
		}
	}
}
