{
	 "smiles": "CC1=CC=C(C=C1)N=NC1=CC=C(C)C=C1", 
	 "Tm": 413.15, 
	 "num_atms": 30, 
	 "gaussian": { 
		 "optdone": 1, 
		 "sigma_profile": "yes", 
		 "theory": "DFT", 
		 "functional": "B3LYP", 
		 "basiset": "6-31G**", 
		 "properties": { 
			 "R2extent": 6454.2482, 
			 "electric_dipole_moment_norm": 0.00147986485869, 
			 "electric_quadrupole_moment_norm": 15.690339431, 
			 "total_energy": -651.405805073, 
			 "HOMO_LUMO_gap": 0.1416, 
			 "cosmo_polarized_energy": -7.01, 
			 "cosmo_cavitation_energy": 34.47, 
			 "cosmo_dispersion_energy": -25.08, 
			 "cosmo_repulsion_energy": 1.95, 
			 "cosmo_total_nonelectrostatic_energy": 11.34, 
			 "SMD_solvation_energy": 4.7 
		},
		"coords": [
			{
				"x": -3.2080312931,
				"y": -3.1464657858,
				"z": 3.8253067418,
				"element": "C" 
			},
			{
				"x": -2.3475518606,
				"y": -2.4802888374,
				"z": 2.7793014528,
				"element": "C" 
			},
			{
				"x": -1.0283543899,
				"y": -2.0915292215,
				"z": 3.0824333576,
				"element": "C" 
			},
			{
				"x": -0.2193552769,
				"y": -1.4791795112,
				"z": 2.1369097472,
				"element": "C" 
			},
			{
				"x": -0.7170970967,
				"y": -1.2360481388,
				"z": 0.8434480167,
				"element": "C" 
			},
			{
				"x": -2.0268484906,
				"y": -1.6179414447,
				"z": 0.5305550406,
				"element": "C" 
			},
			{
				"x": -2.8305500402,
				"y": -2.2326321927,
				"z": 1.4891724676,
				"element": "C" 
			},
			{
				"x": 0.0104346936,
				"y": -0.620248946,
				"z": -0.2033112393,
				"element": "N" 
			},
			{
				"x": 1.1886364961,
				"y": -0.2824843479,
				"z": 0.097045662,
				"element": "N" 
			},
			{
				"x": 1.9161388899,
				"y": 0.3333627819,
				"z": -0.9497049503,
				"element": "C" 
			},
			{
				"x": 1.4183943794,
				"y": 0.5764751639,
				"z": -2.2431640761,
				"element": "C" 
			},
			{
				"x": 2.2274201038,
				"y": 1.1887387357,
				"z": -3.1887266831,
				"element": "C" 
			},
			{
				"x": 3.5466090877,
				"y": 1.5775153971,
				"z": -2.8856017884,
				"element": "C" 
			},
			{
				"x": 4.4067980416,
				"y": 2.2444815558,
				"z": -3.9313417132,
				"element": "C" 
			},
			{
				"x": 4.0296386457,
				"y": 1.3298081131,
				"z": -1.5954888718,
				"element": "C" 
			},
			{
				"x": 3.2259209477,
				"y": 0.7151915638,
				"z": -0.6368437168,
				"element": "C" 
			},
			{
				"x": -4.2054980439,
				"y": -3.3729404758,
				"z": 3.4393204088,
				"element": "H" 
			},
			{
				"x": -2.7601246359,
				"y": -4.0863219205,
				"z": 4.1690270253,
				"element": "H" 
			},
			{
				"x": -3.3267041577,
				"y": -2.5079804125,
				"z": 4.708533644,
				"element": "H" 
			},
			{
				"x": -0.6377351508,
				"y": -2.2766042729,
				"z": 4.0806241554,
				"element": "H" 
			},
			{
				"x": 0.7960816721,
				"y": -1.1797446579,
				"z": 2.3699815567,
				"element": "H" 
			},
			{
				"x": -2.3935076686,
				"y": -1.4220965682,
				"z": -0.4722537956,
				"element": "H" 
			},
			{
				"x": -3.8458368258,
				"y": -2.5239607697,
				"z": 1.2329499107,
				"element": "H" 
			},
			{
				"x": 0.4029728982,
				"y": 0.27699585,
				"z": -2.4762477561,
				"element": "H" 
			},
			{
				"x": 1.8368462199,
				"y": 1.3736531212,
				"z": -4.1869649809,
				"element": "H" 
			},
			{
				"x": 4.5170860781,
				"y": 1.610958965,
				"z": -4.8191618491,
				"element": "H" 
			},
			{
				"x": 3.963654535,
				"y": 3.1895691762,
				"z": -4.2669345321,
				"element": "H" 
			},
			{
				"x": 5.4074586142,
				"y": 2.4619774571,
				"z": -3.5484673739,
				"element": "H" 
			},
			{
				"x": 5.0449762923,
				"y": 1.6210084676,
				"z": -1.3393211419,
				"element": "H" 
			},
			{
				"x": 3.5926273352,
				"y": 0.519231155,
				"z": 0.3659252814,
				"element": "H" 
			}
		],
		 "valence_orbital": [ 
			{
				"type": "occ",
				"energy": -0.2599,
				"method": "rhf"
			},
			{
				"type": "occ",
				"energy": -0.2515,
				"method": "rhf"
			},
			{
				"type": "occ",
				"energy": -0.25126,
				"method": "rhf"
			},
			{
				"type": "occ",
				"energy": -0.21904,
				"method": "rhf"
			},
			{
				"type": "occ",
				"energy": -0.21556,
				"method": "rhf"
			},
			{
				"type": "unocc",
				"energy": -0.07396,
				"method": "rhf"
			},
			{
				"type": "unocc",
				"energy": -0.002,
				"method": "rhf"
			},
			{
				"type": "unocc",
				"energy": -0.0001,
				"method": "rhf"
			},
			{
				"type": "unocc",
				"energy": 0.01342,
				"method": "rhf"
			},
			{
				"type": "unocc",
				"energy": 0.05033,
				"method": "rhf"
			}
		],
		"cosmo_sigma_profile": { 
			"-0.025": 0.0,
			"-0.024": 0.0,
			"-0.023": 0.0,
			"-0.022": 0.0,
			"-0.021": 0.0,
			"-0.02": 0.0,
			"-0.019": 0.0,
			"-0.018": 0.0,
			"-0.017": 0.0,
			"-0.016": 0.0,
			"-0.015": 0.0,
			"-0.014": 0.0,
			"-0.013": 0.0,
			"-0.012": 0.0,
			"-0.011": 0.0,
			"-0.01": 0.0,
			"-0.009": 0.0,
			"-0.008": 0.0,
			"-0.007": 0.041979908966,
			"-0.006": 6.54088823007,
			"-0.005": 19.3511685948,
			"-0.004": 27.7687625632,
			"-0.003": 26.7904539958,
			"-0.002": 23.5741225437,
			"-0.001": 24.818092135,
			"0.0": 24.1330196167,
			"0.001": 17.4863880592,
			"0.002": 24.6189334622,
			"0.003": 27.5664894565,
			"0.004": 28.7451563985,
			"0.005": 13.4249792873,
			"0.006": 2.76891078438,
			"0.007": 3.56756276843,
			"0.008": 3.44811846448,
			"0.009": 0.286053620773,
			"0.01": 0.0,
			"0.011": 0.0,
			"0.012": 0.0,
			"0.013": 0.0,
			"0.014": 0.0,
			"0.015": 0.0,
			"0.016": 0.0,
			"0.017": 0.0,
			"0.018": 0.0,
			"0.019": 0.0,
			"0.02": 0.0,
			"0.021": 0.0,
			"0.022": 0.0,
			"0.023": 0.0,
			"0.024": 0.0,
			"0.025": 0.0
		}
	}
}
