{
	 "smiles": "NC(=NOC(=O)C=C)C1=CC=C(Cl)C=C1", 
	 "Tm": 394.15, 
	 "num_atms": 24, 
	 "gaussian": { 
		 "optdone": 1, 
		 "sigma_profile": "yes", 
		 "theory": "DFT", 
		 "functional": "B3LYP", 
		 "basiset": "6-31G**", 
		 "properties": { 
			 "R2extent": 4922.2112, 
			 "electric_dipole_moment_norm": 2.98344047201, 
			 "electric_quadrupole_moment_norm": 25.3997024475, 
			 "total_energy": -1106.56432762, 
			 "HOMO_LUMO_gap": 0.18085, 
			 "cosmo_polarized_energy": -16.44, 
			 "cosmo_cavitation_energy": 32.15, 
			 "cosmo_dispersion_energy": -22.24, 
			 "cosmo_repulsion_energy": 1.78, 
			 "cosmo_total_nonelectrostatic_energy": 11.69, 
			 "SMD_solvation_energy": 6.7 
		},
		"coords": [
			{
				"x": -1.6464593616,
				"y": 2.0943085951,
				"z": -0.3298750206,
				"element": "N" 
			},
			{
				"x": -1.1364211112,
				"y": 0.824624815,
				"z": -0.5738876398,
				"element": "C" 
			},
			{
				"x": -0.9125225776,
				"y": 0.5458309504,
				"z": -1.8173645212,
				"element": "N" 
			},
			{
				"x": -0.1658031827,
				"y": -0.6579059597,
				"z": -1.9397694272,
				"element": "O" 
			},
			{
				"x": -0.0307243567,
				"y": -1.069769201,
				"z": -3.2401334277,
				"element": "C" 
			},
			{
				"x": -0.5520174893,
				"y": -0.5462226618,
				"z": -4.1949857113,
				"element": "O" 
			},
			{
				"x": 0.8422543473,
				"y": -2.269228752,
				"z": -3.3277966268,
				"element": "C" 
			},
			{
				"x": 1.5003527374,
				"y": -2.8291722596,
				"z": -2.3092922635,
				"element": "C" 
			},
			{
				"x": -0.8742090196,
				"y": -0.0013676002,
				"z": 0.635071862,
				"element": "C" 
			},
			{
				"x": -1.124125795,
				"y": -1.3829112294,
				"z": 0.6543462381,
				"element": "C" 
			},
			{
				"x": -0.9171469042,
				"y": -2.1260059041,
				"z": 1.8133510414,
				"element": "C" 
			},
			{
				"x": -0.4479083592,
				"y": -1.4859114415,
				"z": 2.9617748225,
				"element": "C" 
			},
			{
				"x": -0.1789185635,
				"y": -2.4222807469,
				"z": 4.4214968354,
				"element": "Cl" 
			},
			{
				"x": -0.1909220311,
				"y": -0.1157644799,
				"z": 2.9681848152,
				"element": "C" 
			},
			{
				"x": -0.4125330895,
				"y": 0.62024897,
				"z": 1.805625632,
				"element": "C" 
			},
			{
				"x": -2.3850164835,
				"y": 2.1340272789,
				"z": 0.3612568076,
				"element": "H" 
			},
			{
				"x": -1.865399979,
				"y": 2.5989674044,
				"z": -1.1814281725,
				"element": "H" 
			},
			{
				"x": 0.9156820127,
				"y": -2.6614487361,
				"z": -4.3377439439,
				"element": "H" 
			},
			{
				"x": 1.4360746558,
				"y": -2.4324384632,
				"z": -1.3017786038,
				"element": "H" 
			},
			{
				"x": 2.127133599,
				"y": -3.7025631248,
				"z": -2.4623450188,
				"element": "H" 
			},
			{
				"x": -1.4865891968,
				"y": -1.8763299151,
				"z": -0.2390191576,
				"element": "H" 
			},
			{
				"x": -1.1195090065,
				"y": -3.1910818561,
				"z": 1.8297615525,
				"element": "H" 
			},
			{
				"x": 0.1773016176,
				"y": 0.3655116164,
				"z": 3.8672944822,
				"element": "H" 
			},
			{
				"x": -0.2117724627,
				"y": 1.6863827011,
				"z": 1.796355446,
				"element": "H" 
			}
		],
		 "valence_orbital": [ 
			{
				"type": "occ",
				"energy": -0.28254,
				"method": "rhf"
			},
			{
				"type": "occ",
				"energy": -0.27642,
				"method": "rhf"
			},
			{
				"type": "occ",
				"energy": -0.26748,
				"method": "rhf"
			},
			{
				"type": "occ",
				"energy": -0.26176,
				"method": "rhf"
			},
			{
				"type": "occ",
				"energy": -0.23317,
				"method": "rhf"
			},
			{
				"type": "unocc",
				"energy": -0.05232,
				"method": "rhf"
			},
			{
				"type": "unocc",
				"energy": -0.04072,
				"method": "rhf"
			},
			{
				"type": "unocc",
				"energy": -0.0268,
				"method": "rhf"
			},
			{
				"type": "unocc",
				"energy": 0.02012,
				"method": "rhf"
			},
			{
				"type": "unocc",
				"energy": 0.03325,
				"method": "rhf"
			}
		],
		"cosmo_sigma_profile": { 
			"-0.025": 0.0,
			"-0.024": 0.0,
			"-0.023": 0.0,
			"-0.022": 0.0,
			"-0.021": 0.0,
			"-0.02": 0.0,
			"-0.019": 0.0,
			"-0.018": 0.0,
			"-0.017": 0.0,
			"-0.016": 0.0,
			"-0.015": 0.0,
			"-0.014": 0.659046603488,
			"-0.013": 2.1967991508,
			"-0.012": 2.64892480607,
			"-0.011": 2.54613681986,
			"-0.01": 2.52662283046,
			"-0.009": 1.87400438736,
			"-0.008": 3.8241198036,
			"-0.007": 10.8584044199,
			"-0.006": 12.7576543531,
			"-0.005": 14.1825779335,
			"-0.004": 12.6093189411,
			"-0.003": 15.2638437482,
			"-0.002": 18.4253129125,
			"-0.001": 17.9682323843,
			"0.0": 22.4989494667,
			"0.001": 22.7283787994,
			"0.002": 26.3016689417,
			"0.003": 18.2151518691,
			"0.004": 16.1210601958,
			"0.005": 6.39321512993,
			"0.006": 3.24513820484,
			"0.007": 2.28267451599,
			"0.008": 2.36347470136,
			"0.009": 2.04875339602,
			"0.01": 3.18502595621,
			"0.011": 4.16065483239,
			"0.012": 4.99149214162,
			"0.013": 2.11491325903,
			"0.014": 1.49756480713,
			"0.015": 1.1994580037,
			"0.016": 1.1358408168,
			"0.017": 0.861331319595,
			"0.018": 0.340784213506,
			"0.019": 0.0,
			"0.02": 0.0,
			"0.021": 0.0,
			"0.022": 0.0,
			"0.023": 0.0,
			"0.024": 0.0,
			"0.025": 0.0
		}
	}
}
