{
	 "smiles": "CCC1=C(OC2=C1C=CC=C2)C(C)=O", 
	 "Tm": 307.15, 
	 "num_atms": 26, 
	 "gaussian": { 
		 "optdone": 1, 
		 "sigma_profile": "yes", 
		 "theory": "DFT", 
		 "functional": "B3LYP", 
		 "basiset": "6-31G**", 
		 "properties": { 
			 "R2extent": 3136.485, 
			 "electric_dipole_moment_norm": 4.12949357065, 
			 "electric_quadrupole_moment_norm": 10.7650361449, 
			 "total_energy": -614.956637452, 
			 "HOMO_LUMO_gap": 0.16679, 
			 "cosmo_polarized_energy": -11.55, 
			 "cosmo_cavitation_energy": 29.56, 
			 "cosmo_dispersion_energy": -21.09, 
			 "cosmo_repulsion_energy": 1.65, 
			 "cosmo_total_nonelectrostatic_energy": 10.12, 
			 "SMD_solvation_energy": 6.01 
		},
		"coords": [
			{
				"x": 2.6693707508,
				"y": -1.3731269162,
				"z": 1.6445388162,
				"element": "C" 
			},
			{
				"x": 1.2921184117,
				"y": -1.0811731126,
				"z": 2.2718477864,
				"element": "C" 
			},
			{
				"x": 0.2613444533,
				"y": -0.6687209839,
				"z": 1.2569904732,
				"element": "C" 
			},
			{
				"x": -0.1518969299,
				"y": 0.5828978515,
				"z": 0.8524463077,
				"element": "C" 
			},
			{
				"x": -1.1089822985,
				"y": 0.498230314,
				"z": -0.1435062397,
				"element": "O" 
			},
			{
				"x": -1.3097924936,
				"y": -0.8207289438,
				"z": -0.3826829621,
				"element": "C" 
			},
			{
				"x": -0.4896989406,
				"y": -1.6018037476,
				"z": 0.4510127805,
				"element": "C" 
			},
			{
				"x": -0.5561181417,
				"y": -3.0034781792,
				"z": 0.3578608006,
				"element": "C" 
			},
			{
				"x": -1.434684785,
				"y": -3.5609847392,
				"z": -0.562917357,
				"element": "C" 
			},
			{
				"x": -2.2434440232,
				"y": -2.7495074241,
				"z": -1.3866732311,
				"element": "C" 
			},
			{
				"x": -2.1969593157,
				"y": -1.3603438856,
				"z": -1.3109879048,
				"element": "C" 
			},
			{
				"x": 0.1884394065,
				"y": 1.973068385,
				"z": 1.2277946239,
				"element": "C" 
			},
			{
				"x": 1.2204105098,
				"y": 2.2106321008,
				"z": 2.3170833732,
				"element": "C" 
			},
			{
				"x": -0.3584647038,
				"y": 2.9107854585,
				"z": 0.6679518873,
				"element": "O" 
			},
			{
				"x": 2.5956574918,
				"y": -2.1501659054,
				"z": 0.8778125141,
				"element": "H" 
			},
			{
				"x": 3.3770409674,
				"y": -1.7125732154,
				"z": 2.4075053555,
				"element": "H" 
			},
			{
				"x": 3.084141521,
				"y": -0.4791995374,
				"z": 1.1681068106,
				"element": "H" 
			},
			{
				"x": 1.3980050954,
				"y": -0.324937309,
				"z": 3.0524047861,
				"element": "H" 
			},
			{
				"x": 0.9307579787,
				"y": -1.9863195284,
				"z": 2.774887245,
				"element": "H" 
			},
			{
				"x": 0.0616373755,
				"y": -3.6364442177,
				"z": 0.9882010617,
				"element": "H" 
			},
			{
				"x": -1.5036917046,
				"y": -4.6407695158,
				"z": -0.653744416,
				"element": "H" 
			},
			{
				"x": -2.9186901547,
				"y": -3.2201333586,
				"z": -2.0949546155,
				"element": "H" 
			},
			{
				"x": -2.8136503165,
				"y": -0.7237225785,
				"z": -1.9355466707,
				"element": "H" 
			},
			{
				"x": 2.1674228389,
				"y": 1.7075555426,
				"z": 2.0988374968,
				"element": "H" 
			},
			{
				"x": 1.3882256116,
				"y": 3.2858664179,
				"z": 2.390543934,
				"element": "H" 
			},
			{
				"x": 0.8606013954,
				"y": 1.8398970281,
				"z": 3.2833873439,
				"element": "H" 
			}
		],
		 "valence_orbital": [ 
			{
				"type": "occ",
				"energy": -0.337,
				"method": "rhf"
			},
			{
				"type": "occ",
				"energy": -0.29125,
				"method": "rhf"
			},
			{
				"type": "occ",
				"energy": -0.24801,
				"method": "rhf"
			},
			{
				"type": "occ",
				"energy": -0.24255,
				"method": "rhf"
			},
			{
				"type": "occ",
				"energy": -0.2281,
				"method": "rhf"
			},
			{
				"type": "unocc",
				"energy": -0.06131,
				"method": "rhf"
			},
			{
				"type": "unocc",
				"energy": 0.00145,
				"method": "rhf"
			},
			{
				"type": "unocc",
				"energy": 0.01459,
				"method": "rhf"
			},
			{
				"type": "unocc",
				"energy": 0.06914,
				"method": "rhf"
			},
			{
				"type": "unocc",
				"energy": 0.08031,
				"method": "rhf"
			}
		],
		"cosmo_sigma_profile": { 
			"-0.025": 0.0,
			"-0.024": 0.0,
			"-0.023": 0.0,
			"-0.022": 0.0,
			"-0.021": 0.0,
			"-0.02": 0.0,
			"-0.019": 0.0,
			"-0.018": 0.0,
			"-0.017": 0.0,
			"-0.016": 0.0,
			"-0.015": 0.0,
			"-0.014": 0.0,
			"-0.013": 0.0,
			"-0.012": 0.0,
			"-0.011": 0.0,
			"-0.01": 0.0,
			"-0.009": 0.0,
			"-0.008": 0.0747815815447,
			"-0.007": 3.39591064718,
			"-0.006": 13.5120963238,
			"-0.005": 18.3606392828,
			"-0.004": 21.9639534229,
			"-0.003": 21.7000986506,
			"-0.002": 24.9825454229,
			"-0.001": 22.179276081,
			"0.0": 20.4022979369,
			"0.001": 20.1641039755,
			"0.002": 12.9851100239,
			"0.003": 11.8947791953,
			"0.004": 11.75507149,
			"0.005": 6.63689544751,
			"0.006": 2.42379790995,
			"0.007": 2.36833100862,
			"0.008": 1.76063253759,
			"0.009": 2.07784805075,
			"0.01": 2.60768833993,
			"0.011": 3.3594278908,
			"0.012": 5.07570255071,
			"0.013": 3.66516353373,
			"0.014": 1.56357356872,
			"0.015": 0.180928972502,
			"0.016": 0.0,
			"0.017": 0.0,
			"0.018": 0.0,
			"0.019": 0.0,
			"0.02": 0.0,
			"0.021": 0.0,
			"0.022": 0.0,
			"0.023": 0.0,
			"0.024": 0.0,
			"0.025": 0.0
		}
	}
}
