{
	 "smiles": "NC1=C(C2=C(CCC2)S1)C1=NC2=C(S1)C=CC=C2", 
	 "Tm": 409.15, 
	 "num_atms": 30, 
	 "gaussian": { 
		 "optdone": 1, 
		 "sigma_profile": "yes", 
		 "theory": "DFT", 
		 "functional": "B3LYP", 
		 "basiset": "6-31G**", 
		 "properties": { 
			 "R2extent": 6447.8858, 
			 "electric_dipole_moment_norm": 1.62231158844, 
			 "electric_quadrupole_moment_norm": 13.5542269673, 
			 "total_energy": -1446.60311784, 
			 "HOMO_LUMO_gap": 0.1489, 
			 "cosmo_polarized_energy": -11.09, 
			 "cosmo_cavitation_energy": 35.58, 
			 "cosmo_dispersion_energy": -27.54, 
			 "cosmo_repulsion_energy": 2.03, 
			 "cosmo_total_nonelectrostatic_energy": 10.07, 
			 "SMD_solvation_energy": 3.29 
		},
		"coords": [
			{
				"x": 2.7834183282,
				"y": 1.0570045042,
				"z": -1.9577554669,
				"element": "N" 
			},
			{
				"x": 1.8475354618,
				"y": 1.8874078835,
				"z": -1.3633980901,
				"element": "C" 
			},
			{
				"x": 0.6644044454,
				"y": 1.5366445734,
				"z": -0.7197887734,
				"element": "C" 
			},
			{
				"x": -0.0206302591,
				"y": 2.7125282651,
				"z": -0.2300376307,
				"element": "C" 
			},
			{
				"x": 0.604991086,
				"y": 3.8822314427,
				"z": -0.5137529124,
				"element": "C" 
			},
			{
				"x": -0.1709951347,
				"y": 5.1101246196,
				"z": -0.1334855145,
				"element": "C" 
			},
			{
				"x": -1.2615567158,
				"y": 4.4861398151,
				"z": 0.7933460411,
				"element": "C" 
			},
			{
				"x": -1.3447889624,
				"y": 2.9686493335,
				"z": 0.4449048972,
				"element": "C" 
			},
			{
				"x": 2.0977820659,
				"y": 3.6292561183,
				"z": -1.3854896591,
				"element": "S" 
			},
			{
				"x": 0.1498035775,
				"y": 0.1923050289,
				"z": -0.5406250868,
				"element": "C" 
			},
			{
				"x": -0.8519175323,
				"y": -0.0968232958,
				"z": 0.2413296899,
				"element": "N" 
			},
			{
				"x": -1.1573587664,
				"y": -1.4426361223,
				"z": 0.2224864652,
				"element": "C" 
			},
			{
				"x": -0.3444030391,
				"y": -2.244696391,
				"z": -0.61587679,
				"element": "C" 
			},
			{
				"x": 0.8290244472,
				"y": -1.2267128408,
				"z": -1.4240642343,
				"element": "S" 
			},
			{
				"x": -0.5390766973,
				"y": -3.6231896448,
				"z": -0.7220849007,
				"element": "C" 
			},
			{
				"x": -1.5636855529,
				"y": -4.201982355,
				"z": 0.0242864697,
				"element": "C" 
			},
			{
				"x": -2.3789670079,
				"y": -3.4186672338,
				"z": 0.8592846546,
				"element": "C" 
			},
			{
				"x": -2.1853397058,
				"y": -2.0464707593,
				"z": 0.964070352,
				"element": "C" 
			},
			{
				"x": 3.6291558731,
				"y": 1.5101865093,
				"z": -2.2758699431,
				"element": "H" 
			},
			{
				"x": 2.9784869743,
				"y": 0.1954305764,
				"z": -1.4600922392,
				"element": "H" 
			},
			{
				"x": -0.6132249366,
				"y": 5.5946342326,
				"z": -1.0156146963,
				"element": "H" 
			},
			{
				"x": 0.4222759925,
				"y": 5.8724398889,
				"z": 0.384207934,
				"element": "H" 
			},
			{
				"x": -0.9444577968,
				"y": 4.597182041,
				"z": 1.8351896681,
				"element": "H" 
			},
			{
				"x": -2.2252899312,
				"y": 4.9927553369,
				"z": 0.6912791042,
				"element": "H" 
			},
			{
				"x": -2.1735635613,
				"y": 2.7496944448,
				"z": -0.2416641483,
				"element": "H" 
			},
			{
				"x": -1.5031800374,
				"y": 2.3402252372,
				"z": 1.3244089436,
				"element": "H" 
			},
			{
				"x": 0.0877367446,
				"y": -4.2302509542,
				"z": -1.3676367568,
				"element": "H" 
			},
			{
				"x": -1.7323375536,
				"y": -5.2726692134,
				"z": -0.041874051,
				"element": "H" 
			},
			{
				"x": -3.1713895997,
				"y": -3.8938707168,
				"z": 1.4299341365,
				"element": "H" 
			},
			{
				"x": -2.8076522062,
				"y": -1.4301703241,
				"z": 1.6045825375,
				"element": "H" 
			}
		],
		 "valence_orbital": [ 
			{
				"type": "occ",
				"energy": -0.26585,
				"method": "rhf"
			},
			{
				"type": "occ",
				"energy": -0.26452,
				"method": "rhf"
			},
			{
				"type": "occ",
				"energy": -0.22955,
				"method": "rhf"
			},
			{
				"type": "occ",
				"energy": -0.22105,
				"method": "rhf"
			},
			{
				"type": "occ",
				"energy": -0.1898,
				"method": "rhf"
			},
			{
				"type": "unocc",
				"energy": -0.0409,
				"method": "rhf"
			},
			{
				"type": "unocc",
				"energy": -0.00098,
				"method": "rhf"
			},
			{
				"type": "unocc",
				"energy": 0.00597,
				"method": "rhf"
			},
			{
				"type": "unocc",
				"energy": 0.01104,
				"method": "rhf"
			},
			{
				"type": "unocc",
				"energy": 0.02144,
				"method": "rhf"
			}
		],
		"cosmo_sigma_profile": { 
			"-0.025": 0.0,
			"-0.024": 0.0,
			"-0.023": 0.0,
			"-0.022": 0.0,
			"-0.021": 0.0,
			"-0.02": 0.0,
			"-0.019": 0.0,
			"-0.018": 0.0,
			"-0.017": 0.0,
			"-0.016": 0.0,
			"-0.015": 0.287385096607,
			"-0.014": 1.51764696461,
			"-0.013": 1.35265980373,
			"-0.012": 2.6328191951,
			"-0.011": 2.64444880047,
			"-0.01": 2.7827418373,
			"-0.009": 2.10427792731,
			"-0.008": 1.84225219008,
			"-0.007": 3.28488520896,
			"-0.006": 9.62193962623,
			"-0.005": 9.98322337261,
			"-0.004": 14.4004703395,
			"-0.003": 23.0503373052,
			"-0.002": 25.0555723429,
			"-0.001": 24.9153797493,
			"0.0": 23.5679557183,
			"0.001": 22.9556658906,
			"0.002": 23.9670148107,
			"0.003": 26.5709183985,
			"0.004": 28.2678569573,
			"0.005": 20.0197952833,
			"0.006": 5.26765334605,
			"0.007": 3.95742034335,
			"0.008": 2.67324664306,
			"0.009": 2.40702779285,
			"0.01": 2.38021346781,
			"0.011": 0.60813223366,
			"0.012": 0.015815507666,
			"0.013": 0.0,
			"0.014": 0.0,
			"0.015": 0.0,
			"0.016": 0.0,
			"0.017": 0.0,
			"0.018": 0.0,
			"0.019": 0.0,
			"0.02": 0.0,
			"0.021": 0.0,
			"0.022": 0.0,
			"0.023": 0.0,
			"0.024": 0.0,
			"0.025": 0.0
		}
	}
}
