{
	 "smiles": "CC1=CSC2=C1C=CC=C2", 
	 "Tm": 233.15, 
	 "num_atms": 18, 
	 "gaussian": { 
		 "optdone": 1, 
		 "sigma_profile": "yes", 
		 "theory": "DFT", 
		 "functional": "B3LYP", 
		 "basiset": "6-31G**", 
		 "properties": { 
			 "R2extent": 2414.3916, 
			 "electric_dipole_moment_norm": 1.08739801821, 
			 "electric_quadrupole_moment_norm": 6.81427093679, 
			 "total_energy": -745.975203632, 
			 "HOMO_LUMO_gap": 0.19016, 
			 "cosmo_polarized_energy": -4.56, 
			 "cosmo_cavitation_energy": 22.77, 
			 "cosmo_dispersion_energy": -17.58, 
			 "cosmo_repulsion_energy": 1.35, 
			 "cosmo_total_nonelectrostatic_energy": 6.54, 
			 "SMD_solvation_energy": 3.57 
		},
		"coords": [
			{
				"x": 2.1872394892,
				"y": -1.5280998644,
				"z": 1.3020262327,
				"element": "C" 
			},
			{
				"x": 1.0306015456,
				"y": -1.9703165275,
				"z": 0.450658015,
				"element": "C" 
			},
			{
				"x": 0.3557007998,
				"y": -3.1411732951,
				"z": 0.605416706,
				"element": "C" 
			},
			{
				"x": -0.9466953095,
				"y": -3.3740666677,
				"z": -0.5427376888,
				"element": "S" 
			},
			{
				"x": -0.5915304744,
				"y": -1.824448486,
				"z": -1.290364886,
				"element": "C" 
			},
			{
				"x": 0.4974517802,
				"y": -1.1868742799,
				"z": -0.6465246153,
				"element": "C" 
			},
			{
				"x": 0.9184902647,
				"y": 0.0700900677,
				"z": -1.1186870487,
				"element": "C" 
			},
			{
				"x": 0.265497497,
				"y": 0.6557580308,
				"z": -2.1954712196,
				"element": "C" 
			},
			{
				"x": -0.8137309787,
				"y": 0.0060624609,
				"z": -2.8207933892,
				"element": "C" 
			},
			{
				"x": -1.2506398771,
				"y": -1.2369431453,
				"z": -2.3746585559,
				"element": "C" 
			},
			{
				"x": 2.421891371,
				"y": -2.2708164229,
				"z": 2.0687835617,
				"element": "H" 
			},
			{
				"x": 3.089327786,
				"y": -1.3714500676,
				"z": 0.6983337983,
				"element": "H" 
			},
			{
				"x": 1.9699319106,
				"y": -0.5796165783,
				"z": 1.8078984132,
				"element": "H" 
			},
			{
				"x": 0.545582216,
				"y": -3.9085062711,
				"z": 1.3447587919,
				"element": "H" 
			},
			{
				"x": 1.7514508822,
				"y": 0.5776143439,
				"z": -0.6403827829,
				"element": "H" 
			},
			{
				"x": 0.5900155369,
				"y": 1.6258560108,
				"z": -2.5602617323,
				"element": "H" 
			},
			{
				"x": -1.3126441303,
				"y": 0.4789125825,
				"z": -3.6615840929,
				"element": "H" 
			},
			{
				"x": -2.0839403092,
				"y": -1.7382818906,
				"z": -2.8577095071,
				"element": "H" 
			}
		],
		 "valence_orbital": [ 
			{
				"type": "occ",
				"energy": -0.32937,
				"method": "rhf"
			},
			{
				"type": "occ",
				"energy": -0.32298,
				"method": "rhf"
			},
			{
				"type": "occ",
				"energy": -0.27376,
				"method": "rhf"
			},
			{
				"type": "occ",
				"energy": -0.23235,
				"method": "rhf"
			},
			{
				"type": "occ",
				"energy": -0.21116,
				"method": "rhf"
			},
			{
				"type": "unocc",
				"energy": -0.021,
				"method": "rhf"
			},
			{
				"type": "unocc",
				"energy": 0.00141,
				"method": "rhf"
			},
			{
				"type": "unocc",
				"energy": 0.02682,
				"method": "rhf"
			},
			{
				"type": "unocc",
				"energy": 0.05185,
				"method": "rhf"
			},
			{
				"type": "unocc",
				"energy": 0.08636,
				"method": "rhf"
			}
		],
		"cosmo_sigma_profile": { 
			"-0.025": 0.0,
			"-0.024": 0.0,
			"-0.023": 0.0,
			"-0.022": 0.0,
			"-0.021": 0.0,
			"-0.02": 0.0,
			"-0.019": 0.0,
			"-0.018": 0.0,
			"-0.017": 0.0,
			"-0.016": 0.0,
			"-0.015": 0.0,
			"-0.014": 0.0,
			"-0.013": 0.0,
			"-0.012": 0.0,
			"-0.011": 0.0,
			"-0.01": 0.0,
			"-0.009": 0.0142347281806,
			"-0.008": 1.38835273636,
			"-0.007": 2.7703677988,
			"-0.006": 7.17620155386,
			"-0.005": 12.2098236581,
			"-0.004": 18.4945536303,
			"-0.003": 16.5854155637,
			"-0.002": 13.9163330578,
			"-0.001": 12.4676804055,
			"0.0": 15.3243521551,
			"0.001": 11.3628683968,
			"0.002": 10.9075019242,
			"0.003": 15.9727660066,
			"0.004": 20.6761873909,
			"0.005": 17.414253038,
			"0.006": 7.67078481285,
			"0.007": 0.0438973198704,
			"0.008": 0.0,
			"0.009": 0.0,
			"0.01": 0.0,
			"0.011": 0.0,
			"0.012": 0.0,
			"0.013": 0.0,
			"0.014": 0.0,
			"0.015": 0.0,
			"0.016": 0.0,
			"0.017": 0.0,
			"0.018": 0.0,
			"0.019": 0.0,
			"0.02": 0.0,
			"0.021": 0.0,
			"0.022": 0.0,
			"0.023": 0.0,
			"0.024": 0.0,
			"0.025": 0.0
		}
	}
}
