{
	 "smiles": "CC1=CC=C(NC(=O)NC(C)(C)C2=CC=CC=C2)C=C1", 
	 "Tm": 476.15, 
	 "num_atms": 40, 
	 "gaussian": { 
		 "optdone": 1, 
		 "sigma_profile": "yes", 
		 "theory": "DFT", 
		 "functional": "B3LYP", 
		 "basiset": "6-31G**", 
		 "properties": { 
			 "R2extent": 9450.6876, 
			 "electric_dipole_moment_norm": 3.43196441706, 
			 "electric_quadrupole_moment_norm": 8.27914824363, 
			 "total_energy": -844.6327305, 
			 "HOMO_LUMO_gap": 0.19414, 
			 "cosmo_polarized_energy": -15.13, 
			 "cosmo_cavitation_energy": 42.05, 
			 "cosmo_dispersion_energy": -30.01, 
			 "cosmo_repulsion_energy": 2.28, 
			 "cosmo_total_nonelectrostatic_energy": 14.32, 
			 "SMD_solvation_energy": 7.54 
		},
		"coords": [
			{
				"x": 6.0961204778,
				"y": 3.753243994,
				"z": -2.4063273236,
				"element": "C" 
			},
			{
				"x": 4.8686118999,
				"y": 3.0002493511,
				"z": -1.9497939212,
				"element": "C" 
			},
			{
				"x": 4.4176169171,
				"y": 3.0761885871,
				"z": -0.6264878928,
				"element": "C" 
			},
			{
				"x": 3.3038053319,
				"y": 2.3588349656,
				"z": -0.2003147193,
				"element": "C" 
			},
			{
				"x": 2.5955221535,
				"y": 1.5372317403,
				"z": -1.0911100522,
				"element": "C" 
			},
			{
				"x": 1.4851077826,
				"y": 0.8352236246,
				"z": -0.5790353588,
				"element": "N" 
			},
			{
				"x": 0.5825589997,
				"y": 0.0291443345,
				"z": -1.2639740617,
				"element": "C" 
			},
			{
				"x": 0.6255092177,
				"y": -0.1654792505,
				"z": -2.4747700948,
				"element": "O" 
			},
			{
				"x": -0.3828347065,
				"y": -0.5047725113,
				"z": -0.4261238819,
				"element": "N" 
			},
			{
				"x": -1.3803814286,
				"y": -1.519841377,
				"z": -0.8572304007,
				"element": "C" 
			},
			{
				"x": -2.2638906719,
				"y": -0.9381578856,
				"z": -1.9847518789,
				"element": "C" 
			},
			{
				"x": -0.6602475554,
				"y": -2.7841781314,
				"z": -1.3648451715,
				"element": "C" 
			},
			{
				"x": -2.2647863153,
				"y": -1.7865513358,
				"z": 0.374392052,
				"element": "C" 
			},
			{
				"x": -2.6097370793,
				"y": -3.0798586534,
				"z": 0.7868009883,
				"element": "C" 
			},
			{
				"x": -3.445303853,
				"y": -3.28458993,
				"z": 1.8880945787,
				"element": "C" 
			},
			{
				"x": -3.9504490293,
				"y": -2.1993530503,
				"z": 2.602262246,
				"element": "C" 
			},
			{
				"x": -3.6155473957,
				"y": -0.9037230363,
				"z": 2.2032932459,
				"element": "C" 
			},
			{
				"x": -2.7850542813,
				"y": -0.7022280351,
				"z": 1.1018334381,
				"element": "C" 
			},
			{
				"x": 3.0303727686,
				"y": 1.4523492474,
				"z": -2.4227323274,
				"element": "C" 
			},
			{
				"x": 4.1491879183,
				"y": 2.1792836274,
				"z": -2.8268477188,
				"element": "C" 
			},
			{
				"x": 6.0111091443,
				"y": 4.0596285565,
				"z": -3.4537322888,
				"element": "H" 
			},
			{
				"x": 7.0007087071,
				"y": 3.1370336297,
				"z": -2.3225576907,
				"element": "H" 
			},
			{
				"x": 6.2609288506,
				"y": 4.6531491393,
				"z": -1.8055376588,
				"element": "H" 
			},
			{
				"x": 4.9433115659,
				"y": 3.7074500677,
				"z": 0.0859962363,
				"element": "H" 
			},
			{
				"x": 2.9772520335,
				"y": 2.4392817406,
				"z": 0.8349190787,
				"element": "H" 
			},
			{
				"x": 1.2638813944,
				"y": 1.0461940993,
				"z": 0.3831655895,
				"element": "H" 
			},
			{
				"x": -0.1391328965,
				"y": -0.5697456866,
				"z": 0.5529681007,
				"element": "H" 
			},
			{
				"x": -1.6594360754,
				"y": -0.7228904912,
				"z": -2.8664051418,
				"element": "H" 
			},
			{
				"x": -3.043417117,
				"y": -1.65998957,
				"z": -2.2461440807,
				"element": "H" 
			},
			{
				"x": -2.7498303993,
				"y": -0.0154814733,
				"z": -1.6565056834,
				"element": "H" 
			},
			{
				"x": -1.3726804612,
				"y": -3.5205878663,
				"z": -1.7485494263,
				"element": "H" 
			},
			{
				"x": -0.0719113774,
				"y": -3.252692064,
				"z": -0.5692065807,
				"element": "H" 
			},
			{
				"x": 0.0102604349,
				"y": -2.5044951285,
				"z": -2.1786449692,
				"element": "H" 
			},
			{
				"x": -2.228523151,
				"y": -3.9426361858,
				"z": 0.2526724889,
				"element": "H" 
			},
			{
				"x": -3.6963473489,
				"y": -4.2983928982,
				"z": 2.1873520018,
				"element": "H" 
			},
			{
				"x": -4.5977169052,
				"y": -2.3596099747,
				"z": 3.4596532996,
				"element": "H" 
			},
			{
				"x": -4.0036942322,
				"y": -0.0475739048,
				"z": 2.748225877,
				"element": "H" 
			},
			{
				"x": -2.5340182817,
				"y": 0.3098612706,
				"z": 0.7983805957,
				"element": "H" 
			},
			{
				"x": 2.4848696805,
				"y": 0.8342640728,
				"z": -3.1210726891,
				"element": "H" 
			},
			{
				"x": 4.4671052842,
				"y": 2.1037163916,
				"z": -3.8643088042,
				"element": "H" 
			}
		],
		 "valence_orbital": [ 
			{
				"type": "occ",
				"energy": -0.25654,
				"method": "rhf"
			},
			{
				"type": "occ",
				"energy": -0.25421,
				"method": "rhf"
			},
			{
				"type": "occ",
				"energy": -0.24415,
				"method": "rhf"
			},
			{
				"type": "occ",
				"energy": -0.24154,
				"method": "rhf"
			},
			{
				"type": "occ",
				"energy": -0.20308,
				"method": "rhf"
			},
			{
				"type": "unocc",
				"energy": -0.00894,
				"method": "rhf"
			},
			{
				"type": "unocc",
				"energy": -0.00616,
				"method": "rhf"
			},
			{
				"type": "unocc",
				"energy": 0.00613,
				"method": "rhf"
			},
			{
				"type": "unocc",
				"energy": 0.00779,
				"method": "rhf"
			},
			{
				"type": "unocc",
				"energy": 0.05913,
				"method": "rhf"
			}
		],
		"cosmo_sigma_profile": { 
			"-0.025": 0.0,
			"-0.024": 0.0,
			"-0.023": 0.0,
			"-0.022": 0.0,
			"-0.021": 0.0,
			"-0.02": 0.0,
			"-0.019": 0.0,
			"-0.018": 0.0,
			"-0.017": 0.413508673989,
			"-0.016": 1.53649248072,
			"-0.015": 1.20639625142,
			"-0.014": 1.69302385114,
			"-0.013": 1.80603694475,
			"-0.012": 1.43861209258,
			"-0.011": 1.35550761227,
			"-0.01": 2.30177747827,
			"-0.009": 1.15400865884,
			"-0.008": 1.5913934696,
			"-0.007": 2.15716323518,
			"-0.006": 5.18969704066,
			"-0.005": 15.3927121295,
			"-0.004": 25.0262476801,
			"-0.003": 35.5923086912,
			"-0.002": 26.9034445644,
			"-0.001": 28.5347922831,
			"0.0": 31.1464755571,
			"0.001": 31.10872509,
			"0.002": 21.6157303356,
			"0.003": 20.0569383845,
			"0.004": 19.7480164383,
			"0.005": 19.6395550261,
			"0.006": 18.4047562492,
			"0.007": 6.27352196584,
			"0.008": 1.90068582187,
			"0.009": 1.56943460022,
			"0.01": 1.91048781133,
			"0.011": 1.70083839811,
			"0.012": 1.59118331682,
			"0.013": 2.34421713367,
			"0.014": 0.193631040529,
			"0.015": 0.0,
			"0.016": 0.0,
			"0.017": 0.0,
			"0.018": 0.0,
			"0.019": 0.0,
			"0.02": 0.0,
			"0.021": 0.0,
			"0.022": 0.0,
			"0.023": 0.0,
			"0.024": 0.0,
			"0.025": 0.0
		}
	}
}
