{
	 "smiles": "OC(=O)CCCN1C=CC=CC1=O", 
	 "Tm": 395.15, 
	 "num_atms": 24, 
	 "gaussian": { 
		 "optdone": 1, 
		 "sigma_profile": "yes", 
		 "theory": "DFT", 
		 "functional": "B3LYP", 
		 "basiset": "6-31G**", 
		 "properties": { 
			 "R2extent": 2830.2589, 
			 "electric_dipole_moment_norm": 3.48083000734, 
			 "electric_quadrupole_moment_norm": 12.6497515667, 
			 "total_energy": -630.036689917, 
			 "HOMO_LUMO_gap": 0.17611, 
			 "cosmo_polarized_energy": -14.72, 
			 "cosmo_cavitation_energy": 27.31, 
			 "cosmo_dispersion_energy": -19.76, 
			 "cosmo_repulsion_energy": 1.56, 
			 "cosmo_total_nonelectrostatic_energy": 9.11, 
			 "SMD_solvation_energy": 6.37 
		},
		"coords": [
			{
				"x": 2.6986948899,
				"y": -1.4988086149,
				"z": 3.3726708615,
				"element": "O" 
			},
			{
				"x": 1.7186088895,
				"y": -1.3242020298,
				"z": 2.4590860754,
				"element": "C" 
			},
			{
				"x": 0.8196718411,
				"y": -2.13261854,
				"z": 2.3176673407,
				"element": "O" 
			},
			{
				"x": 1.8982625012,
				"y": -0.0626369973,
				"z": 1.6463642552,
				"element": "C" 
			},
			{
				"x": 2.3277152868,
				"y": -0.3551491307,
				"z": 0.1906919642,
				"element": "C" 
			},
			{
				"x": 1.3115790948,
				"y": -1.1422740159,
				"z": -0.6485313504,
				"element": "C" 
			},
			{
				"x": 0.0404975597,
				"y": -0.4271901428,
				"z": -0.8387067603,
				"element": "N" 
			},
			{
				"x": -1.0553063206,
				"y": -0.7490505133,
				"z": -0.0843065638,
				"element": "C" 
			},
			{
				"x": -2.2539632435,
				"y": -0.1166132781,
				"z": -0.2586104288,
				"element": "C" 
			},
			{
				"x": -2.3463409037,
				"y": 0.8940376285,
				"z": -1.2549423843,
				"element": "C" 
			},
			{
				"x": -1.2593046032,
				"y": 1.2291205836,
				"z": -2.0123513102,
				"element": "C" 
			},
			{
				"x": 0.0255466381,
				"y": 0.5852442886,
				"z": -1.8374551325,
				"element": "C" 
			},
			{
				"x": 1.0549271421,
				"y": 0.8424586458,
				"z": -2.4659374335,
				"element": "O" 
			},
			{
				"x": 2.5066820539,
				"y": -2.3395047603,
				"z": 3.8230401927,
				"element": "H" 
			},
			{
				"x": 2.6422214765,
				"y": 0.5762183357,
				"z": 2.1272261978,
				"element": "H" 
			},
			{
				"x": 0.940922513,
				"y": 0.4685011433,
				"z": 1.6479066972,
				"element": "H" 
			},
			{
				"x": 3.2710736375,
				"y": -0.914760562,
				"z": 0.1931456968,
				"element": "H" 
			},
			{
				"x": 2.5230348202,
				"y": 0.5946026814,
				"z": -0.314254252,
				"element": "H" 
			},
			{
				"x": 1.7352529887,
				"y": -1.3045368869,
				"z": -1.6415723776,
				"element": "H" 
			},
			{
				"x": 1.085468122,
				"y": -2.1062327971,
				"z": -0.1899645117,
				"element": "H" 
			},
			{
				"x": -0.8922606663,
				"y": -1.5166820249,
				"z": 0.6645151122,
				"element": "H" 
			},
			{
				"x": -3.1034472872,
				"y": -0.3911304064,
				"z": 0.3543336594,
				"element": "H" 
			},
			{
				"x": -3.292941833,
				"y": 1.4047206905,
				"z": -1.4131691964,
				"element": "H" 
			},
			{
				"x": -1.3012945973,
				"y": 1.9953867028,
				"z": -2.7778463515,
				"element": "H" 
			}
		],
		 "valence_orbital": [ 
			{
				"type": "occ",
				"energy": -0.32962,
				"method": "rhf"
			},
			{
				"type": "occ",
				"energy": -0.29058,
				"method": "rhf"
			},
			{
				"type": "occ",
				"energy": -0.28412,
				"method": "rhf"
			},
			{
				"type": "occ",
				"energy": -0.24151,
				"method": "rhf"
			},
			{
				"type": "occ",
				"energy": -0.20865,
				"method": "rhf"
			},
			{
				"type": "unocc",
				"energy": -0.03254,
				"method": "rhf"
			},
			{
				"type": "unocc",
				"energy": -0.00643,
				"method": "rhf"
			},
			{
				"type": "unocc",
				"energy": 0.021,
				"method": "rhf"
			},
			{
				"type": "unocc",
				"energy": 0.06777,
				"method": "rhf"
			},
			{
				"type": "unocc",
				"energy": 0.09527,
				"method": "rhf"
			}
		],
		"cosmo_sigma_profile": { 
			"-0.025": 0.0,
			"-0.024": 0.0,
			"-0.023": 0.0,
			"-0.022": 0.0,
			"-0.021": 0.0,
			"-0.02": 0.0,
			"-0.019": 0.0,
			"-0.018": 0.659406715032,
			"-0.017": 0.903681123488,
			"-0.016": 0.841290719524,
			"-0.015": 1.08640115775,
			"-0.014": 0.629125912171,
			"-0.013": 0.489581018179,
			"-0.012": 0.56784037032,
			"-0.011": 1.02609805986,
			"-0.01": 0.965796055954,
			"-0.009": 0.390073907301,
			"-0.008": 0.340268392224,
			"-0.007": 3.81427714213,
			"-0.006": 9.68469113047,
			"-0.005": 20.6731545854,
			"-0.004": 23.2178002149,
			"-0.003": 22.2104671781,
			"-0.002": 17.3645794734,
			"-0.001": 13.8457858723,
			"0.0": 11.3779638426,
			"0.001": 13.3073196025,
			"0.002": 12.1189388689,
			"0.003": 11.795522591,
			"0.004": 9.50926657039,
			"0.005": 3.69894755319,
			"0.006": 3.89156953179,
			"0.007": 3.50865541688,
			"0.008": 4.80111883773,
			"0.009": 4.00029555845,
			"0.01": 3.20281891459,
			"0.011": 2.99824251741,
			"0.012": 3.49760128351,
			"0.013": 1.5197483185,
			"0.014": 3.56337688979,
			"0.015": 3.86957063555,
			"0.016": 0.858464182662,
			"0.017": 0.0,
			"0.018": 0.0,
			"0.019": 0.0,
			"0.02": 0.0,
			"0.021": 0.0,
			"0.022": 0.0,
			"0.023": 0.0,
			"0.024": 0.0,
			"0.025": 0.0
		}
	}
}
