{
	 "smiles": "CC1=CC(Cl)=CC(C=O)=C1O", 
	 "Tm": 340.65, 
	 "num_atms": 18, 
	 "gaussian": { 
		 "optdone": 1, 
		 "sigma_profile": "yes", 
		 "theory": "DFT", 
		 "functional": "B3LYP", 
		 "basiset": "6-31G**", 
		 "properties": { 
			 "R2extent": 3401.6322, 
			 "electric_dipole_moment_norm": 0.822795904219, 
			 "electric_quadrupole_moment_norm": 8.91944005529, 
			 "total_energy": -919.719681946, 
			 "HOMO_LUMO_gap": 0.15339, 
			 "cosmo_polarized_energy": -6.94, 
			 "cosmo_cavitation_energy": 23.91, 
			 "cosmo_dispersion_energy": -17.93, 
			 "cosmo_repulsion_energy": 1.43, 
			 "cosmo_total_nonelectrostatic_energy": 7.4, 
			 "SMD_solvation_energy": 5.09 
		},
		"coords": [
			{
				"x": -1.1496522201,
				"y": -1.189205967,
				"z": 2.5998803231,
				"element": "C" 
			},
			{
				"x": -0.8703176339,
				"y": 0.1461292676,
				"z": 1.9631525761,
				"element": "C" 
			},
			{
				"x": -0.0954469731,
				"y": 1.1192822299,
				"z": 2.5853214295,
				"element": "C" 
			},
			{
				"x": 0.1558712218,
				"y": 2.3608841033,
				"z": 1.9772731621,
				"element": "C" 
			},
			{
				"x": 1.1444966209,
				"y": 3.5447277366,
				"z": 2.8216288611,
				"element": "Cl" 
			},
			{
				"x": -0.3646652797,
				"y": 2.6520996093,
				"z": 0.7328497999,
				"element": "C" 
			},
			{
				"x": -1.1543662973,
				"y": 1.6881658604,
				"z": 0.0744401176,
				"element": "C" 
			},
			{
				"x": -1.712335782,
				"y": 1.9752456375,
				"z": -1.2377033248,
				"element": "C" 
			},
			{
				"x": -2.4123855663,
				"y": 1.1862987202,
				"z": -1.8793005156,
				"element": "O" 
			},
			{
				"x": -1.4080653311,
				"y": 0.4350769924,
				"z": 0.688049962,
				"element": "C" 
			},
			{
				"x": -2.1544334985,
				"y": -0.5024894357,
				"z": 0.0891902622,
				"element": "O" 
			},
			{
				"x": -0.7874055766,
				"y": -2.0073996779,
				"z": 1.968248292,
				"element": "H" 
			},
			{
				"x": -2.2264766046,
				"y": -1.3456845331,
				"z": 2.724705373,
				"element": "H" 
			},
			{
				"x": -0.6707548899,
				"y": -1.2667532095,
				"z": 3.5787544765,
				"element": "H" 
			},
			{
				"x": 0.3270092427,
				"y": 0.9177785298,
				"z": 3.5647765168,
				"element": "H" 
			},
			{
				"x": -0.1738008826,
				"y": 3.6096282591,
				"z": 0.2582246748,
				"element": "H" 
			},
			{
				"x": -1.4783636242,
				"y": 2.9701447266,
				"z": -1.6628631136,
				"element": "H" 
			},
			{
				"x": -2.4420069253,
				"y": -0.1298288493,
				"z": -0.7830288726,
				"element": "H" 
			}
		],
		 "valence_orbital": [ 
			{
				"type": "occ",
				"energy": -0.31997,
				"method": "rhf"
			},
			{
				"type": "occ",
				"energy": -0.31895,
				"method": "rhf"
			},
			{
				"type": "occ",
				"energy": -0.27951,
				"method": "rhf"
			},
			{
				"type": "occ",
				"energy": -0.27464,
				"method": "rhf"
			},
			{
				"type": "occ",
				"energy": -0.23206,
				"method": "rhf"
			},
			{
				"type": "unocc",
				"energy": -0.07867,
				"method": "rhf"
			},
			{
				"type": "unocc",
				"energy": -0.01423,
				"method": "rhf"
			},
			{
				"type": "unocc",
				"energy": 0.02273,
				"method": "rhf"
			},
			{
				"type": "unocc",
				"energy": 0.02466,
				"method": "rhf"
			},
			{
				"type": "unocc",
				"energy": 0.10523,
				"method": "rhf"
			}
		],
		"cosmo_sigma_profile": { 
			"-0.025": 0.0,
			"-0.024": 0.0,
			"-0.023": 0.0,
			"-0.022": 0.0,
			"-0.021": 0.0,
			"-0.02": 0.0,
			"-0.019": 0.0,
			"-0.018": 0.0,
			"-0.017": 0.0,
			"-0.016": 0.0,
			"-0.015": 0.0,
			"-0.014": 0.0,
			"-0.013": 0.0,
			"-0.012": 0.0,
			"-0.011": 0.0,
			"-0.01": 0.28327005868,
			"-0.009": 2.52248893054,
			"-0.008": 5.04144659976,
			"-0.007": 7.05857317325,
			"-0.006": 6.30181187258,
			"-0.005": 8.49724076704,
			"-0.004": 12.4518320281,
			"-0.003": 12.9426945531,
			"-0.002": 15.9273412437,
			"-0.001": 17.7203279985,
			"0.0": 19.6382677274,
			"0.001": 18.3097391838,
			"0.002": 17.808436306,
			"0.003": 10.4963265901,
			"0.004": 11.1082060535,
			"0.005": 9.49043147348,
			"0.006": 2.42016891087,
			"0.007": 3.94210712456,
			"0.008": 2.54978943477,
			"0.009": 3.33064635187,
			"0.01": 3.01696609227,
			"0.011": 1.58065458759,
			"0.012": 1.05815855895,
			"0.013": 0.0484350015875,
			"0.014": 0.0,
			"0.015": 0.0,
			"0.016": 0.0,
			"0.017": 0.0,
			"0.018": 0.0,
			"0.019": 0.0,
			"0.02": 0.0,
			"0.021": 0.0,
			"0.022": 0.0,
			"0.023": 0.0,
			"0.024": 0.0,
			"0.025": 0.0
		}
	}
}
