{
	 "smiles": "CC(C)C1=NN=C(NC(=O)OCC(F)(F)F)S1", 
	 "Tm": 463.15, 
	 "num_atms": 27, 
	 "gaussian": { 
		 "optdone": 1, 
		 "sigma_profile": "yes", 
		 "theory": "DFT", 
		 "functional": "B3LYP", 
		 "basiset": "6-31G**", 
		 "properties": { 
			 "R2extent": 5625.9754, 
			 "electric_dipole_moment_norm": 3.21052470166, 
			 "electric_quadrupole_moment_norm": 12.3518543418, 
			 "total_energy": -1323.29063245, 
			 "HOMO_LUMO_gap": 0.20976, 
			 "cosmo_polarized_energy": -14.08, 
			 "cosmo_cavitation_energy": 34.95, 
			 "cosmo_dispersion_energy": -24.18, 
			 "cosmo_repulsion_energy": 1.82, 
			 "cosmo_total_nonelectrostatic_energy": 12.6, 
			 "SMD_solvation_energy": 6.35 
		},
		"coords": [
			{
				"x": -0.2212845073,
				"y": 4.1484052898,
				"z": 0.5550339686,
				"element": "C" 
			},
			{
				"x": 1.1039859532,
				"y": 3.3814506951,
				"z": 0.7221663054,
				"element": "C" 
			},
			{
				"x": 1.8579246468,
				"y": 3.2555936999,
				"z": -0.6150894905,
				"element": "C" 
			},
			{
				"x": 0.8995945484,
				"y": 2.0418482837,
				"z": 1.3804621098,
				"element": "C" 
			},
			{
				"x": 1.4081083972,
				"y": 1.7223766292,
				"z": 2.5330437985,
				"element": "N" 
			},
			{
				"x": 1.0924303047,
				"y": 0.4556607608,
				"z": 2.9457539111,
				"element": "N" 
			},
			{
				"x": 0.3377541445,
				"y": -0.1750869004,
				"z": 2.0890030186,
				"element": "C" 
			},
			{
				"x": -0.043594576,
				"y": -1.4827264456,
				"z": 2.3615084498,
				"element": "N" 
			},
			{
				"x": -0.8463538622,
				"y": -2.3576153635,
				"z": 1.6710844444,
				"element": "C" 
			},
			{
				"x": -1.039135357,
				"y": -3.5038023544,
				"z": 2.0101530636,
				"element": "O" 
			},
			{
				"x": -1.4021310916,
				"y": -1.7507897292,
				"z": 0.5853066746,
				"element": "O" 
			},
			{
				"x": -2.1309451848,
				"y": -2.5887385591,
				"z": -0.3080704745,
				"element": "C" 
			},
			{
				"x": -1.3253898456,
				"y": -2.7625299344,
				"z": -1.5842137158,
				"element": "C" 
			},
			{
				"x": -2.0151893439,
				"y": -3.5355085716,
				"z": -2.4466889578,
				"element": "F" 
			},
			{
				"x": -0.140445556,
				"y": -3.3494263511,
				"z": -1.3391872156,
				"element": "F" 
			},
			{
				"x": -1.0839113257,
				"y": -1.580261123,
				"z": -2.1823702146,
				"element": "F" 
			},
			{
				"x": -0.0665761464,
				"y": 0.745811957,
				"z": 0.6563316624,
				"element": "S" 
			},
			{
				"x": -0.0290799751,
				"y": 5.148978418,
				"z": 0.15486051,
				"element": "H" 
			},
			{
				"x": -0.8941880624,
				"y": 3.6353534517,
				"z": -0.1412073726,
				"element": "H" 
			},
			{
				"x": -0.7405633949,
				"y": 4.2565429705,
				"z": 1.511604433,
				"element": "H" 
			},
			{
				"x": 1.7369800307,
				"y": 3.9298116492,
				"z": 1.4290547206,
				"element": "H" 
			},
			{
				"x": 2.0652052847,
				"y": 4.2490747614,
				"z": -1.0253226671,
				"element": "H" 
			},
			{
				"x": 1.2669514845,
				"y": 2.7059987207,
				"z": -1.356335993,
				"element": "H" 
			},
			{
				"x": 2.8102147582,
				"y": 2.7333531153,
				"z": -0.4859705849,
				"element": "H" 
			},
			{
				"x": 0.3605081204,
				"y": -1.860427847,
				"z": 3.2098341193,
				"element": "H" 
			},
			{
				"x": -2.3133415963,
				"y": -3.5634954176,
				"z": 0.1466769603,
				"element": "H" 
			},
			{
				"x": -3.0725278482,
				"y": -2.0902518054,
				"z": -0.5447214636,
				"element": "H" 
			}
		],
		 "valence_orbital": [ 
			{
				"type": "occ",
				"energy": -0.31732,
				"method": "rhf"
			},
			{
				"type": "occ",
				"energy": -0.30171,
				"method": "rhf"
			},
			{
				"type": "occ",
				"energy": -0.29646,
				"method": "rhf"
			},
			{
				"type": "occ",
				"energy": -0.26734,
				"method": "rhf"
			},
			{
				"type": "occ",
				"energy": -0.24819,
				"method": "rhf"
			},
			{
				"type": "unocc",
				"energy": -0.03843,
				"method": "rhf"
			},
			{
				"type": "unocc",
				"energy": 0.00303,
				"method": "rhf"
			},
			{
				"type": "unocc",
				"energy": 0.01503,
				"method": "rhf"
			},
			{
				"type": "unocc",
				"energy": 0.04878,
				"method": "rhf"
			},
			{
				"type": "unocc",
				"energy": 0.0563,
				"method": "rhf"
			}
		],
		"cosmo_sigma_profile": { 
			"-0.025": 0.0,
			"-0.024": 0.0,
			"-0.023": 0.0,
			"-0.022": 0.0,
			"-0.021": 0.0,
			"-0.02": 0.0,
			"-0.019": 0.0,
			"-0.018": 0.0,
			"-0.017": 0.313291618195,
			"-0.016": 1.20246014368,
			"-0.015": 0.399073240827,
			"-0.014": 0.974176391046,
			"-0.013": 0.608561718925,
			"-0.012": 0.498389205681,
			"-0.011": 1.0708820165,
			"-0.01": 3.2068095384,
			"-0.009": 3.90409266376,
			"-0.008": 4.22194824198,
			"-0.007": 4.96286329347,
			"-0.006": 5.79878247898,
			"-0.005": 7.86540795127,
			"-0.004": 21.4006602052,
			"-0.003": 25.1610995549,
			"-0.002": 27.501778142,
			"-0.001": 27.013292341,
			"0.0": 27.3699428747,
			"0.001": 21.5995157533,
			"0.002": 35.4755421064,
			"0.003": 18.6878661146,
			"0.004": 2.62708868051,
			"0.005": 3.24118466443,
			"0.006": 3.6186102192,
			"0.007": 2.34798899635,
			"0.008": 2.5467273782,
			"0.009": 4.31048846221,
			"0.01": 5.54430638995,
			"0.011": 7.4617606528,
			"0.012": 3.23894792101,
			"0.013": 2.78432680426,
			"0.014": 1.69071597346,
			"0.015": 0.739428280078,
			"0.016": 0.0022866788441,
			"0.017": 0.0,
			"0.018": 0.0,
			"0.019": 0.0,
			"0.02": 0.0,
			"0.021": 0.0,
			"0.022": 0.0,
			"0.023": 0.0,
			"0.024": 0.0,
			"0.025": 0.0
		}
	}
}
