{
	 "smiles": "COC1=CC(O)=C(C(O)=O)C(OC)=C1", 
	 "Tm": 434.15, 
	 "num_atms": 24, 
	 "gaussian": { 
		 "optdone": 1, 
		 "sigma_profile": "yes", 
		 "theory": "DFT", 
		 "functional": "B3LYP", 
		 "basiset": "6-31G**", 
		 "properties": { 
			 "R2extent": 3111.2988, 
			 "electric_dipole_moment_norm": 4.05897033741, 
			 "electric_quadrupole_moment_norm": 15.057100003, 
			 "total_energy": -725.081208317, 
			 "HOMO_LUMO_gap": 0.20232, 
			 "cosmo_polarized_energy": -20.42, 
			 "cosmo_cavitation_energy": 28.63, 
			 "cosmo_dispersion_energy": -20.8, 
			 "cosmo_repulsion_energy": 1.67, 
			 "cosmo_total_nonelectrostatic_energy": 9.49, 
			 "SMD_solvation_energy": 8.07 
		},
		"coords": [
			{
				"x": -3.4057614317,
				"y": 1.3978539788,
				"z": -0.4396229167,
				"element": "C" 
			},
			{
				"x": -2.7324798068,
				"y": 0.4693234992,
				"z": 0.397036706,
				"element": "O" 
			},
			{
				"x": -1.4224684928,
				"y": 0.1950989076,
				"z": 0.1476592444,
				"element": "C" 
			},
			{
				"x": -0.8257119011,
				"y": -0.7170256057,
				"z": 1.0209060604,
				"element": "C" 
			},
			{
				"x": 0.5129650831,
				"y": -1.0646921268,
				"z": 0.8452789239,
				"element": "C" 
			},
			{
				"x": 1.1296665571,
				"y": -1.9236402045,
				"z": 1.702237111,
				"element": "O" 
			},
			{
				"x": 1.2832610344,
				"y": -0.5090456645,
				"z": -0.1949613891,
				"element": "C" 
			},
			{
				"x": 2.7309997798,
				"y": -0.8257457604,
				"z": -0.3618310738,
				"element": "C" 
			},
			{
				"x": 2.9767758614,
				"y": -2.159549988,
				"z": -0.3489018194,
				"element": "O" 
			},
			{
				"x": 3.6185744297,
				"y": -0.0118210643,
				"z": -0.5070165464,
				"element": "O" 
			},
			{
				"x": 0.6564804063,
				"y": 0.4145377735,
				"z": -1.0585523367,
				"element": "C" 
			},
			{
				"x": 1.4267809826,
				"y": 0.8996622498,
				"z": -2.0643262949,
				"element": "O" 
			},
			{
				"x": 0.876542136,
				"y": 1.848099372,
				"z": -2.9631232683,
				"element": "C" 
			},
			{
				"x": -0.6908075404,
				"y": 0.766720402,
				"z": -0.8997730037,
				"element": "C" 
			},
			{
				"x": -2.9389906007,
				"y": 2.3900628328,
				"z": -0.4001213268,
				"element": "H" 
			},
			{
				"x": -4.4240614274,
				"y": 1.4649087855,
				"z": -0.0539725267,
				"element": "H" 
			},
			{
				"x": -3.4372311967,
				"y": 1.0548802817,
				"z": -1.4814988291,
				"element": "H" 
			},
			{
				"x": -1.4159495694,
				"y": -1.1339202584,
				"z": 1.8311320606,
				"element": "H" 
			},
			{
				"x": 0.4941289351,
				"y": -2.1999518728,
				"z": 2.3749698799,
				"element": "H" 
			},
			{
				"x": 3.9429753947,
				"y": -2.2409260949,
				"z": -0.4191512193,
				"element": "H" 
			},
			{
				"x": 0.5471324634,
				"y": 2.7556127348,
				"z": -2.4417716576,
				"element": "H" 
			},
			{
				"x": 0.0345756253,
				"y": 1.4302239966,
				"z": -3.5301733015,
				"element": "H" 
			},
			{
				"x": 1.6820284901,
				"y": 2.1036783471,
				"z": -3.6526762375,
				"element": "H" 
			},
			{
				"x": -1.1557252119,
				"y": 1.4626554788,
				"z": -1.5810462388,
				"element": "H" 
			}
		],
		 "valence_orbital": [ 
			{
				"type": "occ",
				"energy": -0.29485,
				"method": "rhf"
			},
			{
				"type": "occ",
				"energy": -0.28014,
				"method": "rhf"
			},
			{
				"type": "occ",
				"energy": -0.25769,
				"method": "rhf"
			},
			{
				"type": "occ",
				"energy": -0.22343,
				"method": "rhf"
			},
			{
				"type": "occ",
				"energy": -0.21503,
				"method": "rhf"
			},
			{
				"type": "unocc",
				"energy": -0.01271,
				"method": "rhf"
			},
			{
				"type": "unocc",
				"energy": 0.01599,
				"method": "rhf"
			},
			{
				"type": "unocc",
				"energy": 0.05088,
				"method": "rhf"
			},
			{
				"type": "unocc",
				"energy": 0.07003,
				"method": "rhf"
			},
			{
				"type": "unocc",
				"energy": 0.08349,
				"method": "rhf"
			}
		],
		"cosmo_sigma_profile": { 
			"-0.025": 0.0,
			"-0.024": 0.0,
			"-0.023": 0.0,
			"-0.022": 0.0,
			"-0.021": 0.0,
			"-0.02": 0.0,
			"-0.019": 0.0,
			"-0.018": 1.08042275798,
			"-0.017": 2.10095690428,
			"-0.016": 2.04614473666,
			"-0.015": 1.85842067035,
			"-0.014": 1.60995911959,
			"-0.013": 1.87679778893,
			"-0.012": 1.36142575027,
			"-0.011": 1.63123232759,
			"-0.01": 2.15216296551,
			"-0.009": 1.42792653465,
			"-0.008": 1.02686677374,
			"-0.007": 5.44582057586,
			"-0.006": 15.5828535036,
			"-0.005": 20.062887029,
			"-0.004": 19.6025916678,
			"-0.003": 17.1431227342,
			"-0.002": 7.98893764921,
			"-0.001": 7.63729926954,
			"0.0": 7.91199329371,
			"0.001": 9.86551403451,
			"0.002": 11.4525912367,
			"0.003": 18.545143663,
			"0.004": 14.7219563924,
			"0.005": 6.45879655488,
			"0.006": 5.52409960334,
			"0.007": 5.9733479172,
			"0.008": 5.84505756968,
			"0.009": 5.55813420706,
			"0.01": 5.16928066318,
			"0.011": 4.73066668776,
			"0.012": 7.67577162875,
			"0.013": 3.63994442678,
			"0.014": 2.03445875401,
			"0.015": 0.123743953272,
			"0.016": 0.0,
			"0.017": 0.0,
			"0.018": 0.0,
			"0.019": 0.0,
			"0.02": 0.0,
			"0.021": 0.0,
			"0.022": 0.0,
			"0.023": 0.0,
			"0.024": 0.0,
			"0.025": 0.0
		}
	}
}
