{
	 "smiles": "CC1=C(SC(=N1)C1=CC=CC=C1)C=O", 
	 "Tm": 385.15, 
	 "num_atms": 23, 
	 "gaussian": { 
		 "optdone": 1, 
		 "sigma_profile": "yes", 
		 "theory": "DFT", 
		 "functional": "B3LYP", 
		 "basiset": "6-31G**", 
		 "properties": { 
			 "R2extent": 3958.7662, 
			 "electric_dipole_moment_norm": 3.37246058539, 
			 "electric_quadrupole_moment_norm": 19.046991867, 
			 "total_energy": -952.755434208, 
			 "HOMO_LUMO_gap": 0.14672, 
			 "cosmo_polarized_energy": -9.89, 
			 "cosmo_cavitation_energy": 29.3, 
			 "cosmo_dispersion_energy": -21.81, 
			 "cosmo_repulsion_energy": 1.66, 
			 "cosmo_total_nonelectrostatic_energy": 9.14, 
			 "SMD_solvation_energy": 4.59 
		},
		"coords": [
			{
				"x": 1.0211368488,
				"y": -3.3661718497,
				"z": -0.483310426,
				"element": "C" 
			},
			{
				"x": 0.0374706231,
				"y": -2.237267228,
				"z": -0.33239241,
				"element": "C" 
			},
			{
				"x": -1.2801265002,
				"y": -2.3503318144,
				"z": 0.0872110645,
				"element": "C" 
			},
			{
				"x": -2.0358750478,
				"y": -0.7781845487,
				"z": 0.1087836975,
				"element": "S" 
			},
			{
				"x": -0.5237451968,
				"y": -0.0865563711,
				"z": -0.447954184,
				"element": "C" 
			},
			{
				"x": 0.4411090343,
				"y": -0.9680159916,
				"z": -0.6261693385,
				"element": "N" 
			},
			{
				"x": -0.3495834182,
				"y": 1.3492600019,
				"z": -0.6937205324,
				"element": "C" 
			},
			{
				"x": -1.3926514201,
				"y": 2.270325014,
				"z": -0.4970201387,
				"element": "C" 
			},
			{
				"x": -1.1916434471,
				"y": 3.6263035536,
				"z": -0.7404378439,
				"element": "C" 
			},
			{
				"x": 0.0520298037,
				"y": 4.0831430046,
				"z": -1.1833789735,
				"element": "C" 
			},
			{
				"x": 1.0949310724,
				"y": 3.1743207475,
				"z": -1.3816519176,
				"element": "C" 
			},
			{
				"x": 0.8997874896,
				"y": 1.8179383647,
				"z": -1.1399742431,
				"element": "C" 
			},
			{
				"x": -2.0173216398,
				"y": -3.5416349667,
				"z": 0.4729465984,
				"element": "C" 
			},
			{
				"x": -3.1841773694,
				"y": -3.5499643362,
				"z": 0.8326579019,
				"element": "O" 
			},
			{
				"x": 1.9734393211,
				"y": -2.962074731,
				"z": -0.8299180363,
				"element": "H" 
			},
			{
				"x": 1.1893720734,
				"y": -3.8847230418,
				"z": 0.4661260756,
				"element": "H" 
			},
			{
				"x": 0.6748404108,
				"y": -4.1090841712,
				"z": -1.2091124299,
				"element": "H" 
			},
			{
				"x": -2.3649544613,
				"y": 1.9288873374,
				"z": -0.1528825117,
				"element": "H" 
			},
			{
				"x": -2.006225019,
				"y": 4.3271144779,
				"z": -0.5843636403,
				"element": "H" 
			},
			{
				"x": 0.2070862667,
				"y": 5.1412175545,
				"z": -1.3727850075,
				"element": "H" 
			},
			{
				"x": 2.0635449354,
				"y": 3.5248355641,
				"z": -1.7259084643,
				"element": "H" 
			},
			{
				"x": 1.699212168,
				"y": 1.1010835186,
				"z": -1.2892653046,
				"element": "H" 
			},
			{
				"x": -1.4277565274,
				"y": -4.4812200883,
				"z": 0.4180200644,
				"element": "H" 
			}
		],
		 "valence_orbital": [ 
			{
				"type": "occ",
				"energy": -0.28951,
				"method": "rhf"
			},
			{
				"type": "occ",
				"energy": -0.28491,
				"method": "rhf"
			},
			{
				"type": "occ",
				"energy": -0.26401,
				"method": "rhf"
			},
			{
				"type": "occ",
				"energy": -0.25395,
				"method": "rhf"
			},
			{
				"type": "occ",
				"energy": -0.23172,
				"method": "rhf"
			},
			{
				"type": "unocc",
				"energy": -0.085,
				"method": "rhf"
			},
			{
				"type": "unocc",
				"energy": -0.02632,
				"method": "rhf"
			},
			{
				"type": "unocc",
				"energy": -0.01282,
				"method": "rhf"
			},
			{
				"type": "unocc",
				"energy": 0.01585,
				"method": "rhf"
			},
			{
				"type": "unocc",
				"energy": 0.03711,
				"method": "rhf"
			}
		],
		"cosmo_sigma_profile": { 
			"-0.025": 0.0,
			"-0.024": 0.0,
			"-0.023": 0.0,
			"-0.022": 0.0,
			"-0.021": 0.0,
			"-0.02": 0.0,
			"-0.019": 0.0,
			"-0.018": 0.0,
			"-0.017": 0.0,
			"-0.016": 0.0,
			"-0.015": 0.0,
			"-0.014": 0.0,
			"-0.013": 0.0,
			"-0.012": 0.0,
			"-0.011": 0.0,
			"-0.01": 0.0,
			"-0.009": 0.0,
			"-0.008": 0.211602179174,
			"-0.007": 6.29280059056,
			"-0.006": 18.5449793576,
			"-0.005": 19.2001691686,
			"-0.004": 17.2001189311,
			"-0.003": 15.1454279037,
			"-0.002": 18.0697774839,
			"-0.001": 22.3527565161,
			"0.0": 21.2096392782,
			"0.001": 18.5117533583,
			"0.002": 19.5948451365,
			"0.003": 16.0343029773,
			"0.004": 15.7362963006,
			"0.005": 4.71171746212,
			"0.006": 2.5428106273,
			"0.007": 3.47229591682,
			"0.008": 2.7301767891,
			"0.009": 3.64780015054,
			"0.01": 3.15206444479,
			"0.011": 4.43128132309,
			"0.012": 3.5836375484,
			"0.013": 1.15548454673,
			"0.014": 0.0335638994906,
			"0.015": 0.0,
			"0.016": 0.0,
			"0.017": 0.0,
			"0.018": 0.0,
			"0.019": 0.0,
			"0.02": 0.0,
			"0.021": 0.0,
			"0.022": 0.0,
			"0.023": 0.0,
			"0.024": 0.0,
			"0.025": 0.0
		}
	}
}
