{
	 "smiles": "CC1=C2C=CC=CC2=CC2=CC=CC=C12", 
	 "Tm": 352.95, 
	 "num_atms": 27, 
	 "gaussian": { 
		 "optdone": 1, 
		 "sigma_profile": "yes", 
		 "theory": "DFT", 
		 "functional": "B3LYP", 
		 "basiset": "6-31G**", 
		 "properties": { 
			 "R2extent": 3313.0102, 
			 "electric_dipole_moment_norm": 0.323615775264, 
			 "electric_quadrupole_moment_norm": 9.81035609547, 
			 "total_energy": -578.848195029, 
			 "HOMO_LUMO_gap": 0.12879, 
			 "cosmo_polarized_energy": -5.78, 
			 "cosmo_cavitation_energy": 29.19, 
			 "cosmo_dispersion_energy": -21.98, 
			 "cosmo_repulsion_energy": 1.65, 
			 "cosmo_total_nonelectrostatic_energy": 8.85, 
			 "SMD_solvation_energy": 4.38 
		},
		"coords": [
			{
				"x": -0.5171337893,
				"y": 1.8013725733,
				"z": -1.2524753051,
				"element": "C" 
			},
			{
				"x": -0.4036430722,
				"y": 0.6447614518,
				"z": -0.2821199277,
				"element": "C" 
			},
			{
				"x": -0.989920272,
				"y": 0.7344146271,
				"z": 1.0044618726,
				"element": "C" 
			},
			{
				"x": -1.744701007,
				"y": 1.8730062523,
				"z": 1.4412752616,
				"element": "C" 
			},
			{
				"x": -2.2973197005,
				"y": 1.9336684364,
				"z": 2.6944604387,
				"element": "C" 
			},
			{
				"x": -2.1369757814,
				"y": 0.858506755,
				"z": 3.6134938895,
				"element": "C" 
			},
			{
				"x": -1.4322008215,
				"y": -0.2537371535,
				"z": 3.2410554715,
				"element": "C" 
			},
			{
				"x": -0.8474398879,
				"y": -0.3602943175,
				"z": 1.9401443542,
				"element": "C" 
			},
			{
				"x": -0.1438524728,
				"y": -1.5050444494,
				"z": 1.5583194195,
				"element": "C" 
			},
			{
				"x": 0.4120542339,
				"y": -1.6270896109,
				"z": 0.2826399959,
				"element": "C" 
			},
			{
				"x": 1.1116664261,
				"y": -2.8122703218,
				"z": -0.1066552426,
				"element": "C" 
			},
			{
				"x": 1.6429147528,
				"y": -2.9432181703,
				"z": -1.360905795,
				"element": "C" 
			},
			{
				"x": 1.4997220633,
				"y": -1.8854121334,
				"z": -2.3026323817,
				"element": "C" 
			},
			{
				"x": 0.8433718607,
				"y": -0.7301555036,
				"z": -1.9648077895,
				"element": "C" 
			},
			{
				"x": 0.2760184966,
				"y": -0.5389190838,
				"z": -0.6615771398,
				"element": "C" 
			},
			{
				"x": 0.3422272376,
				"y": 1.8518978774,
				"z": -1.9232335346,
				"element": "H" 
			},
			{
				"x": -0.5618118961,
				"y": 2.7607702682,
				"z": -0.7342729198,
				"element": "H" 
			},
			{
				"x": -1.4164043279,
				"y": 1.7246650343,
				"z": -1.8776129316,
				"element": "H" 
			},
			{
				"x": -1.8987849297,
				"y": 2.7031063919,
				"z": 0.7619720724,
				"element": "H" 
			},
			{
				"x": -2.8668209623,
				"y": 2.8099605785,
				"z": 2.9908846096,
				"element": "H" 
			},
			{
				"x": -2.5780447441,
				"y": 0.9248839605,
				"z": 4.6037734294,
				"element": "H" 
			},
			{
				"x": -1.3062557986,
				"y": -1.0861000946,
				"z": 3.9289672931,
				"element": "H" 
			},
			{
				"x": -0.0348460314,
				"y": -2.323380928,
				"z": 2.2665899125,
				"element": "H" 
			},
			{
				"x": 1.206779205,
				"y": -3.6135567833,
				"z": 0.621911358,
				"element": "H" 
			},
			{
				"x": 2.1694669648,
				"y": -3.8499831964,
				"z": -1.6439611004,
				"element": "H" 
			},
			{
				"x": 1.9137536083,
				"y": -1.9983490617,
				"z": -3.3005850821,
				"element": "H" 
			},
			{
				"x": 0.7399806456,
				"y": 0.0488966016,
				"z": -2.7109102285,
				"element": "H" 
			}
		],
		 "valence_orbital": [ 
			{
				"type": "occ",
				"energy": -0.29815,
				"method": "rhf"
			},
			{
				"type": "occ",
				"energy": -0.28477,
				"method": "rhf"
			},
			{
				"type": "occ",
				"energy": -0.25207,
				"method": "rhf"
			},
			{
				"type": "occ",
				"energy": -0.23577,
				"method": "rhf"
			},
			{
				"type": "occ",
				"energy": -0.1883,
				"method": "rhf"
			},
			{
				"type": "unocc",
				"energy": -0.05951,
				"method": "rhf"
			},
			{
				"type": "unocc",
				"energy": -0.00969,
				"method": "rhf"
			},
			{
				"type": "unocc",
				"energy": 0.00917,
				"method": "rhf"
			},
			{
				"type": "unocc",
				"energy": 0.04711,
				"method": "rhf"
			},
			{
				"type": "unocc",
				"energy": 0.06669,
				"method": "rhf"
			}
		],
		"cosmo_sigma_profile": { 
			"-0.025": 0.0,
			"-0.024": 0.0,
			"-0.023": 0.0,
			"-0.022": 0.0,
			"-0.021": 0.0,
			"-0.02": 0.0,
			"-0.019": 0.0,
			"-0.018": 0.0,
			"-0.017": 0.0,
			"-0.016": 0.0,
			"-0.015": 0.0,
			"-0.014": 0.0,
			"-0.013": 0.0,
			"-0.012": 0.0,
			"-0.011": 0.0,
			"-0.01": 0.0,
			"-0.009": 0.0,
			"-0.008": 0.0,
			"-0.007": 0.165520725768,
			"-0.006": 11.2682308027,
			"-0.005": 21.4464710435,
			"-0.004": 21.7961489506,
			"-0.003": 21.8649695132,
			"-0.002": 18.110383964,
			"-0.001": 17.7352228593,
			"0.0": 13.8648539436,
			"0.001": 13.6804436307,
			"0.002": 13.4572945352,
			"0.003": 16.7194286948,
			"0.004": 35.5810782371,
			"0.005": 23.1730986003,
			"0.006": 5.19801962621,
			"0.007": 0.0,
			"0.008": 0.0,
			"0.009": 0.0,
			"0.01": 0.0,
			"0.011": 0.0,
			"0.012": 0.0,
			"0.013": 0.0,
			"0.014": 0.0,
			"0.015": 0.0,
			"0.016": 0.0,
			"0.017": 0.0,
			"0.018": 0.0,
			"0.019": 0.0,
			"0.02": 0.0,
			"0.021": 0.0,
			"0.022": 0.0,
			"0.023": 0.0,
			"0.024": 0.0,
			"0.025": 0.0
		}
	}
}
