{
	 "smiles": "CC1=COC2=C(C=CC=C2)C1=O", 
	 "Tm": 341.15, 
	 "num_atms": 20, 
	 "gaussian": { 
		 "optdone": 1, 
		 "sigma_profile": "yes", 
		 "theory": "DFT", 
		 "functional": "B3LYP", 
		 "basiset": "6-31G**", 
		 "properties": { 
			 "R2extent": 2003.6279, 
			 "electric_dipole_moment_norm": 2.99566688902, 
			 "electric_quadrupole_moment_norm": 11.4613105712, 
			 "total_energy": -536.331991792, 
			 "HOMO_LUMO_gap": 0.18145, 
			 "cosmo_polarized_energy": -9.38, 
			 "cosmo_cavitation_energy": 24.02, 
			 "cosmo_dispersion_energy": -18.01, 
			 "cosmo_repulsion_energy": 1.4, 
			 "cosmo_total_nonelectrostatic_energy": 7.41, 
			 "SMD_solvation_energy": 5.42 
		},
		"coords": [
			{
				"x": -0.5405178274,
				"y": 3.1492714058,
				"z": 0.992035743,
				"element": "C" 
			},
			{
				"x": 0.1161634801,
				"y": 1.9315853307,
				"z": 0.4086217539,
				"element": "C" 
			},
			{
				"x": 1.4160879345,
				"y": 1.9176770061,
				"z": 0.0420431063,
				"element": "C" 
			},
			{
				"x": 2.0738735727,
				"y": 0.8566664384,
				"z": -0.490117116,
				"element": "O" 
			},
			{
				"x": 1.3880250451,
				"y": -0.3133375931,
				"z": -0.6839477217,
				"element": "C" 
			},
			{
				"x": 0.0325601427,
				"y": -0.4325785401,
				"z": -0.3456826143,
				"element": "C" 
			},
			{
				"x": -0.608975948,
				"y": -1.6629215413,
				"z": -0.5716589286,
				"element": "C" 
			},
			{
				"x": 0.0868169918,
				"y": -2.7307542856,
				"z": -1.1166130715,
				"element": "C" 
			},
			{
				"x": 1.4457274748,
				"y": -2.5865433898,
				"z": -1.4476137571,
				"element": "C" 
			},
			{
				"x": 2.1032616487,
				"y": -1.3825799845,
				"z": -1.2347741862,
				"element": "C" 
			},
			{
				"x": -0.6951673349,
				"y": 0.7168432188,
				"z": 0.2350802935,
				"element": "C" 
			},
			{
				"x": -1.8847049402,
				"y": 0.6642638821,
				"z": 0.5490901521,
				"element": "O" 
			},
			{
				"x": -0.9428710042,
				"y": 2.9272281625,
				"z": 1.985767996,
				"element": "H" 
			},
			{
				"x": -1.3914809359,
				"y": 3.4567516766,
				"z": 0.3755873841,
				"element": "H" 
			},
			{
				"x": 0.1572925294,
				"y": 3.9872270491,
				"z": 1.0731932291,
				"element": "H" 
			},
			{
				"x": 2.0809409629,
				"y": 2.7696198023,
				"z": 0.137122926,
				"element": "H" 
			},
			{
				"x": -1.6579275128,
				"y": -1.7357486284,
				"z": -0.3034716159,
				"element": "H" 
			},
			{
				"x": -0.4136505248,
				"y": -3.6785264208,
				"z": -1.2889498315,
				"element": "H" 
			},
			{
				"x": 1.9906486678,
				"y": -3.4233115688,
				"z": -1.8745501899,
				"element": "H" 
			},
			{
				"x": 3.1507975775,
				"y": -1.24783202,
				"z": -1.4821635511,
				"element": "H" 
			}
		],
		 "valence_orbital": [ 
			{
				"type": "occ",
				"energy": -0.34723,
				"method": "rhf"
			},
			{
				"type": "occ",
				"energy": -0.27281,
				"method": "rhf"
			},
			{
				"type": "occ",
				"energy": -0.26279,
				"method": "rhf"
			},
			{
				"type": "occ",
				"energy": -0.24156,
				"method": "rhf"
			},
			{
				"type": "occ",
				"energy": -0.23485,
				"method": "rhf"
			},
			{
				"type": "unocc",
				"energy": -0.0534,
				"method": "rhf"
			},
			{
				"type": "unocc",
				"energy": -0.01704,
				"method": "rhf"
			},
			{
				"type": "unocc",
				"energy": 0.00293,
				"method": "rhf"
			},
			{
				"type": "unocc",
				"energy": 0.08553,
				"method": "rhf"
			},
			{
				"type": "unocc",
				"energy": 0.08704,
				"method": "rhf"
			}
		],
		"cosmo_sigma_profile": { 
			"-0.025": 0.0,
			"-0.024": 0.0,
			"-0.023": 0.0,
			"-0.022": 0.0,
			"-0.021": 0.0,
			"-0.02": 0.0,
			"-0.019": 0.0,
			"-0.018": 0.0,
			"-0.017": 0.0,
			"-0.016": 0.0,
			"-0.015": 0.0,
			"-0.014": 0.0,
			"-0.013": 0.0,
			"-0.012": 0.0,
			"-0.011": 0.0,
			"-0.01": 0.319112396388,
			"-0.009": 2.15609684042,
			"-0.008": 2.94179605117,
			"-0.007": 6.11271418966,
			"-0.006": 8.805413213,
			"-0.005": 12.2717162174,
			"-0.004": 12.8623674831,
			"-0.003": 13.3604185217,
			"-0.002": 15.7271313325,
			"-0.001": 19.5963620522,
			"0.0": 22.4668767189,
			"0.001": 16.1606755672,
			"0.002": 14.7662451122,
			"0.003": 14.2838101498,
			"0.004": 7.23551578741,
			"0.005": 3.09489201648,
			"0.006": 2.76389666085,
			"0.007": 1.87438599148,
			"0.008": 1.62284273152,
			"0.009": 1.34233360276,
			"0.01": 1.53626744432,
			"0.011": 2.12720120423,
			"0.012": 2.34252605056,
			"0.013": 4.58909065135,
			"0.014": 2.24681172402,
			"0.015": 0.040323557354,
			"0.016": 0.0,
			"0.017": 0.0,
			"0.018": 0.0,
			"0.019": 0.0,
			"0.02": 0.0,
			"0.021": 0.0,
			"0.022": 0.0,
			"0.023": 0.0,
			"0.024": 0.0,
			"0.025": 0.0
		}
	}
}
