{
	 "smiles": "OC(=O)CC1=C(C=C(C=C1)[N+]([O-])=O)[N+]([O-])=O", 
	 "Tm": 452.65, 
	 "num_atms": 22, 
	 "gaussian": { 
		 "optdone": 1, 
		 "sigma_profile": "yes", 
		 "theory": "DFT", 
		 "functional": "B3LYP", 
		 "basiset": "6-31G**", 
		 "properties": { 
			 "R2extent": 3891.8537, 
			 "electric_dipole_moment_norm": 2.64436663116, 
			 "electric_quadrupole_moment_norm": 21.3023446555, 
			 "total_energy": -869.117290956, 
			 "HOMO_LUMO_gap": 0.14778, 
			 "cosmo_polarized_energy": -18.53, 
			 "cosmo_cavitation_energy": 28.38, 
			 "cosmo_dispersion_energy": -20.46, 
			 "cosmo_repulsion_energy": 1.57, 
			 "cosmo_total_nonelectrostatic_energy": 9.49, 
			 "SMD_solvation_energy": 10.13 
		},
		"coords": [
			{
				"x": -0.0357503605,
				"y": 2.7237012154,
				"z": -2.6003732538,
				"element": "O" 
			},
			{
				"x": -1.1846559838,
				"y": 2.686025502,
				"z": -1.9106074265,
				"element": "C" 
			},
			{
				"x": -1.7528940792,
				"y": 3.6847353741,
				"z": -1.545707096,
				"element": "O" 
			},
			{
				"x": -1.7162199891,
				"y": 1.2719692481,
				"z": -1.5809228506,
				"element": "C" 
			},
			{
				"x": -0.9014971478,
				"y": 0.6356129711,
				"z": -0.4756794211,
				"element": "C" 
			},
			{
				"x": 0.1243601326,
				"y": -0.3160380971,
				"z": -0.6439301012,
				"element": "C" 
			},
			{
				"x": 0.8010586301,
				"y": -0.8906569083,
				"z": 0.4320652676,
				"element": "C" 
			},
			{
				"x": 0.4749716732,
				"y": -0.4696606856,
				"z": 1.7103319392,
				"element": "C" 
			},
			{
				"x": -0.5162363229,
				"y": 0.484153232,
				"z": 1.9373248268,
				"element": "C" 
			},
			{
				"x": -1.1942279565,
				"y": 1.0135736805,
				"z": 0.846967892,
				"element": "C" 
			},
			{
				"x": 1.196229455,
				"y": -1.0527076868,
				"z": 2.8565523377,
				"element": "N" 
			},
			{
				"x": 2.0714315687,
				"y": -1.8788903666,
				"z": 2.6119461675,
				"element": "O" 
			},
			{
				"x": 0.8692049338,
				"y": -0.6703286196,
				"z": 3.9772411073,
				"element": "O" 
			},
			{
				"x": 0.5438373098,
				"y": -0.7893570276,
				"z": -1.9723030261,
				"element": "N" 
			},
			{
				"x": 0.9944354438,
				"y": -1.9219064288,
				"z": -2.0583080685,
				"element": "O" 
			},
			{
				"x": 0.4371207892,
				"y": -0.0177422984,
				"z": -2.9401858714,
				"element": "O" 
			},
			{
				"x": 0.2607913449,
				"y": 1.8148033777,
				"z": -2.8039962537,
				"element": "H" 
			},
			{
				"x": -2.7404640421,
				"y": 1.4066679515,
				"z": -1.23178568,
				"element": "H" 
			},
			{
				"x": -1.7266845551,
				"y": 0.6578057404,
				"z": -2.4824463986,
				"element": "H" 
			},
			{
				"x": 1.5653590179,
				"y": -1.6394353489,
				"z": 0.2735004885,
				"element": "H" 
			},
			{
				"x": -0.7424626017,
				"y": 0.7884422469,
				"z": 2.9517268054,
				"element": "H" 
			},
			{
				"x": -1.9752072604,
				"y": 1.7497329281,
				"z": 1.0080886155,
				"element": "H" 
			}
		],
		 "valence_orbital": [ 
			{
				"type": "occ",
				"energy": -0.32537,
				"method": "rhf"
			},
			{
				"type": "occ",
				"energy": -0.32007,
				"method": "rhf"
			},
			{
				"type": "occ",
				"energy": -0.3183,
				"method": "rhf"
			},
			{
				"type": "occ",
				"energy": -0.31725,
				"method": "rhf"
			},
			{
				"type": "occ",
				"energy": -0.28041,
				"method": "rhf"
			},
			{
				"type": "unocc",
				"energy": -0.13263,
				"method": "rhf"
			},
			{
				"type": "unocc",
				"energy": -0.11756,
				"method": "rhf"
			},
			{
				"type": "unocc",
				"energy": -0.05599,
				"method": "rhf"
			},
			{
				"type": "unocc",
				"energy": -0.03476,
				"method": "rhf"
			},
			{
				"type": "unocc",
				"energy": 0.00134,
				"method": "rhf"
			}
		],
		"cosmo_sigma_profile": { 
			"-0.025": 0.0,
			"-0.024": 0.0,
			"-0.023": 0.0,
			"-0.022": 0.0,
			"-0.021": 0.0,
			"-0.02": 0.0,
			"-0.019": 0.0,
			"-0.018": 0.0,
			"-0.017": 0.0,
			"-0.016": 0.0,
			"-0.015": 0.0,
			"-0.014": 0.0,
			"-0.013": 0.000134209298228,
			"-0.012": 0.450549021823,
			"-0.011": 0.9683250156,
			"-0.01": 3.02383231628,
			"-0.009": 7.55262510939,
			"-0.008": 13.6209292776,
			"-0.007": 13.1404374729,
			"-0.006": 12.6981171871,
			"-0.005": 15.1555291847,
			"-0.004": 16.4045067476,
			"-0.003": 18.1786388047,
			"-0.002": 13.2357251896,
			"-0.001": 11.4387453093,
			"0.0": 6.21874442085,
			"0.001": 4.75354369448,
			"0.002": 6.65944964425,
			"0.003": 5.32612789526,
			"0.004": 8.42352705293,
			"0.005": 9.02661612875,
			"0.006": 14.16114605,
			"0.007": 14.8091856709,
			"0.008": 10.3167605627,
			"0.009": 6.66303367919,
			"0.01": 5.57707441218,
			"0.011": 5.52187703557,
			"0.012": 4.15886157251,
			"0.013": 0.797632696547,
			"0.014": 0.0,
			"0.015": 0.0,
			"0.016": 0.0,
			"0.017": 0.0,
			"0.018": 0.0,
			"0.019": 0.0,
			"0.02": 0.0,
			"0.021": 0.0,
			"0.022": 0.0,
			"0.023": 0.0,
			"0.024": 0.0,
			"0.025": 0.0
		}
	}
}
