{
	 "smiles": "CC(C)N1C(S)=NC2=C(C(C)=C(C)S2)C1=O", 
	 "Tm": 544.15, 
	 "num_atms": 30, 
	 "gaussian": { 
		 "optdone": 1, 
		 "sigma_profile": "yes", 
		 "theory": "DFT", 
		 "functional": "B3LYP", 
		 "basiset": "6-31G**", 
		 "properties": { 
			 "R2extent": 5362.9795, 
			 "electric_dipole_moment_norm": 0.409542452012, 
			 "electric_quadrupole_moment_norm": 11.4244065097, 
			 "total_energy": -1408.74050066, 
			 "HOMO_LUMO_gap": 0.16724, 
			 "cosmo_polarized_energy": -8.65, 
			 "cosmo_cavitation_energy": 34.87, 
			 "cosmo_dispersion_energy": -26.05, 
			 "cosmo_repulsion_energy": 1.94, 
			 "cosmo_total_nonelectrostatic_energy": 10.75, 
			 "SMD_solvation_energy": 4.4 
		},
		"coords": [
			{
				"x": 3.4221262354,
				"y": -2.0549060316,
				"z": -1.1677263958,
				"element": "C" 
			},
			{
				"x": 2.8846838823,
				"y": -1.993162092,
				"z": 0.2672227867,
				"element": "C" 
			},
			{
				"x": 3.6172884775,
				"y": -0.983101683,
				"z": 1.1587241069,
				"element": "C" 
			},
			{
				"x": 1.4023533158,
				"y": -1.7797559394,
				"z": 0.2932441659,
				"element": "N" 
			},
			{
				"x": 0.5492158562,
				"y": -2.7318307759,
				"z": 0.8043673236,
				"element": "C" 
			},
			{
				"x": 1.2514697772,
				"y": -4.2511297733,
				"z": 1.4481361758,
				"element": "S" 
			},
			{
				"x": -0.7491743884,
				"y": -2.6224942977,
				"z": 0.862200529,
				"element": "N" 
			},
			{
				"x": -1.2627361657,
				"y": -1.4678894132,
				"z": 0.3714778227,
				"element": "C" 
			},
			{
				"x": -0.5394224776,
				"y": -0.4180143087,
				"z": -0.1735410121,
				"element": "C" 
			},
			{
				"x": -1.3592322648,
				"y": 0.6865626486,
				"z": -0.6157189051,
				"element": "C" 
			},
			{
				"x": -0.7857035942,
				"y": 1.9310336446,
				"z": -1.2383797346,
				"element": "C" 
			},
			{
				"x": -2.6906671713,
				"y": 0.4443402996,
				"z": -0.3933306645,
				"element": "C" 
			},
			{
				"x": -3.88359092,
				"y": 1.3039880688,
				"z": -0.6913677663,
				"element": "C" 
			},
			{
				"x": -2.9720495412,
				"y": -1.1312007154,
				"z": 0.3580079323,
				"element": "S" 
			},
			{
				"x": 0.8987476308,
				"y": -0.5397896298,
				"z": -0.2366832723,
				"element": "C" 
			},
			{
				"x": 1.6745996864,
				"y": 0.2985245983,
				"z": -0.6875740245,
				"element": "O" 
			},
			{
				"x": 3.3335048257,
				"y": -1.0878365104,
				"z": -1.6619291679,
				"element": "H" 
			},
			{
				"x": 4.4776495769,
				"y": -2.3439368058,
				"z": -1.1396659974,
				"element": "H" 
			},
			{
				"x": 2.8818035423,
				"y": -2.8063312519,
				"z": -1.7515558848,
				"element": "H" 
			},
			{
				"x": 3.0386516365,
				"y": -2.9798125372,
				"z": 0.7087832113,
				"element": "H" 
			},
			{
				"x": 4.6750129975,
				"y": -1.2598421103,
				"z": 1.2143308456,
				"element": "H" 
			},
			{
				"x": 3.2108292705,
				"y": -0.99715371,
				"z": 2.1746158392,
				"element": "H" 
			},
			{
				"x": 3.5367274409,
				"y": 0.0263112619,
				"z": 0.7563449614,
				"element": "H" 
			},
			{
				"x": 0.0332999631,
				"y": -4.724572469,
				"z": 1.7687646965,
				"element": "H" 
			},
			{
				"x": -0.2144349763,
				"y": 1.6879798404,
				"z": -2.1390421292,
				"element": "H" 
			},
			{
				"x": -1.5656904117,
				"y": 2.6469569601,
				"z": -1.5053692439,
				"element": "H" 
			},
			{
				"x": -0.0843189381,
				"y": 2.4201478302,
				"z": -0.5561268537,
				"element": "H" 
			},
			{
				"x": -3.5782840777,
				"y": 2.2450489513,
				"z": -1.1530077961,
				"element": "H" 
			},
			{
				"x": -4.5780617646,
				"y": 0.8071209785,
				"z": -1.3789295736,
				"element": "H" 
			},
			{
				"x": -4.4437974235,
				"y": 1.5474449724,
				"z": 0.2190280248,
				"element": "H" 
			}
		],
		 "valence_orbital": [ 
			{
				"type": "occ",
				"energy": -0.28315,
				"method": "rhf"
			},
			{
				"type": "occ",
				"energy": -0.27562,
				"method": "rhf"
			},
			{
				"type": "occ",
				"energy": -0.25826,
				"method": "rhf"
			},
			{
				"type": "occ",
				"energy": -0.24934,
				"method": "rhf"
			},
			{
				"type": "occ",
				"energy": -0.20655,
				"method": "rhf"
			},
			{
				"type": "unocc",
				"energy": -0.03931,
				"method": "rhf"
			},
			{
				"type": "unocc",
				"energy": -0.00768,
				"method": "rhf"
			},
			{
				"type": "unocc",
				"energy": -0.0015,
				"method": "rhf"
			},
			{
				"type": "unocc",
				"energy": 0.02358,
				"method": "rhf"
			},
			{
				"type": "unocc",
				"energy": 0.03172,
				"method": "rhf"
			}
		],
		"cosmo_sigma_profile": { 
			"-0.025": 0.0,
			"-0.024": 0.0,
			"-0.023": 0.0,
			"-0.022": 0.0,
			"-0.021": 0.0,
			"-0.02": 0.0,
			"-0.019": 0.0,
			"-0.018": 0.0,
			"-0.017": 0.0,
			"-0.016": 0.0,
			"-0.015": 0.0,
			"-0.014": 0.0,
			"-0.013": 0.0,
			"-0.012": 0.682695919597,
			"-0.011": 1.24560125179,
			"-0.01": 1.22590661137,
			"-0.009": 1.18501345163,
			"-0.008": 1.00595470769,
			"-0.007": 1.32993519982,
			"-0.006": 3.82218595861,
			"-0.005": 10.3586060232,
			"-0.004": 24.6426138179,
			"-0.003": 29.8332351775,
			"-0.002": 27.5157431172,
			"-0.001": 29.6865065659,
			"0.0": 35.5804421157,
			"0.001": 29.5200190684,
			"0.002": 23.5015653675,
			"0.003": 17.0070886176,
			"0.004": 12.7682826361,
			"0.005": 7.34443397243,
			"0.006": 6.05972134881,
			"0.007": 3.96689232619,
			"0.008": 2.37619973042,
			"0.009": 2.50701955694,
			"0.01": 3.07632757897,
			"0.011": 1.55929191229,
			"0.012": 1.74975197693,
			"0.013": 1.28344435823,
			"0.014": 0.0195697372782,
			"0.015": 0.0,
			"0.016": 0.0,
			"0.017": 0.0,
			"0.018": 0.0,
			"0.019": 0.0,
			"0.02": 0.0,
			"0.021": 0.0,
			"0.022": 0.0,
			"0.023": 0.0,
			"0.024": 0.0,
			"0.025": 0.0
		}
	}
}
