{
	 "smiles": "IC1=NN=CN1", 
	 "Tm": 470.15, 
	 "num_atms": 8, 
	 "gaussian": { 
		 "optdone": 1, 
		 "sigma_profile": "yes", 
		 "theory": "DFT", 
		 "functional": "B3LYP", 
		 "basiset": "6-31G**", 
		 "properties": { 
			 "R2extent": 720.1474, 
			 "electric_dipole_moment_norm": 5.29826467534, 
			 "electric_quadrupole_moment_norm": 9.25284822528, 
			 "total_energy": -253.018050186, 
			 "HOMO_LUMO_gap": 0.20328, 
			 "cosmo_polarized_energy": -17.78, 
			 "cosmo_cavitation_energy": 15.86, 
			 "cosmo_dispersion_energy": -13.63, 
			 "cosmo_repulsion_energy": 1.13, 
			 "cosmo_total_nonelectrostatic_energy": 3.36, 
			 "SMD_solvation_energy": 0.36 
		},
		"coords": [
			{
				"x": 2.8791308858,
				"y": 1.2418882657,
				"z": -0.4887526408,
				"element": "I" 
			},
			{
				"x": 1.1487562799,
				"y": 0.1726710539,
				"z": -0.9161834776,
				"element": "C" 
			},
			{
				"x": 1.0871137912,
				"y": -1.0178270466,
				"z": -1.4550299041,
				"element": "N" 
			},
			{
				"x": -0.2560274565,
				"y": -1.3422348051,
				"z": -1.5570718214,
				"element": "N" 
			},
			{
				"x": -0.9452237385,
				"y": -0.3365675881,
				"z": -1.0765915274,
				"element": "C" 
			},
			{
				"x": -0.1062923115,
				"y": 0.657698122,
				"z": -0.6528502247,
				"element": "N" 
			},
			{
				"x": -2.0222210113,
				"y": -0.2786973371,
				"z": -1.0137616211,
				"element": "H" 
			},
			{
				"x": -0.3415364391,
				"y": 1.5478693354,
				"z": -0.240058783,
				"element": "H" 
			}
		],
		 "valence_orbital": [ 
			{
				"type": "occ",
				"energy": -0.32077,
				"method": "rhf"
			},
			{
				"type": "occ",
				"energy": -0.31863,
				"method": "rhf"
			},
			{
				"type": "occ",
				"energy": -0.29195,
				"method": "rhf"
			},
			{
				"type": "occ",
				"energy": -0.26928,
				"method": "rhf"
			},
			{
				"type": "occ",
				"energy": -0.25898,
				"method": "rhf"
			},
			{
				"type": "unocc",
				"energy": -0.0557,
				"method": "rhf"
			},
			{
				"type": "unocc",
				"energy": -0.00298,
				"method": "rhf"
			},
			{
				"type": "unocc",
				"energy": 0.02515,
				"method": "rhf"
			},
			{
				"type": "unocc",
				"energy": 0.02595,
				"method": "rhf"
			},
			{
				"type": "unocc",
				"energy": 0.04549,
				"method": "rhf"
			}
		],
		"cosmo_sigma_profile": { 
			"-0.025": 0.0,
			"-0.024": 0.0,
			"-0.023": 0.0,
			"-0.022": 0.0,
			"-0.021": 0.0,
			"-0.02": 0.0,
			"-0.019": 0.0469052060461,
			"-0.018": 1.58431943101,
			"-0.017": 1.83172472768,
			"-0.016": 1.1503818919,
			"-0.015": 1.01563747113,
			"-0.014": 1.46526633956,
			"-0.013": 1.52866453916,
			"-0.012": 1.3452789129,
			"-0.011": 3.80461533416,
			"-0.01": 2.58378680444,
			"-0.009": 4.40585046213,
			"-0.008": 3.62871284591,
			"-0.007": 3.57286792076,
			"-0.006": 3.21990694932,
			"-0.005": 3.48287583439,
			"-0.004": 4.513074625,
			"-0.003": 5.3227167263,
			"-0.002": 6.50480343843,
			"-0.001": 9.61793479766,
			"0.0": 6.86788092643,
			"0.001": 8.70486674513,
			"0.002": 12.4702154849,
			"0.003": 12.606543541,
			"0.004": 2.22169350692,
			"0.005": 2.49013469375,
			"0.006": 2.48019088386,
			"0.007": 1.96486794096,
			"0.008": 2.0114086546,
			"0.009": 1.81658064311,
			"0.01": 1.89932894149,
			"0.011": 2.98716032608,
			"0.012": 3.24735515884,
			"0.013": 3.16181544312,
			"0.014": 3.42691832638,
			"0.015": 2.12808397608,
			"0.016": 2.09610750607,
			"0.017": 0.172670530393,
			"0.018": 0.0,
			"0.019": 0.0,
			"0.02": 0.0,
			"0.021": 0.0,
			"0.022": 0.0,
			"0.023": 0.0,
			"0.024": 0.0,
			"0.025": 0.0
		}
	}
}
