{
	 "smiles": "CC1=CC(C(=O)CCl)=C(C)N1C1=CC=C(C)C=C1", 
	 "Tm": 355.15, 
	 "num_atms": 34, 
	 "gaussian": { 
		 "optdone": 1, 
		 "sigma_profile": "yes", 
		 "theory": "DFT", 
		 "functional": "B3LYP", 
		 "basiset": "6-31G**", 
		 "properties": { 
			 "R2extent": 7906.752, 
			 "electric_dipole_moment_norm": 7.97714316469, 
			 "electric_quadrupole_moment_norm": 24.6305674742, 
			 "total_energy": -1171.42240398, 
			 "HOMO_LUMO_gap": 0.18225, 
			 "cosmo_polarized_energy": -13.95, 
			 "cosmo_cavitation_energy": 39.39, 
			 "cosmo_dispersion_energy": -27.15, 
			 "cosmo_repulsion_energy": 2.13, 
			 "cosmo_total_nonelectrostatic_energy": 14.37, 
			 "SMD_solvation_energy": 7.08 
		},
		"coords": [
			{
				"x": 0.9755237023,
				"y": -0.8768046732,
				"z": -2.4953130178,
				"element": "C" 
			},
			{
				"x": 0.8745769614,
				"y": -1.3009143655,
				"z": -1.0659372504,
				"element": "C" 
			},
			{
				"x": 1.3866488585,
				"y": -2.3946217178,
				"z": -0.4203414797,
				"element": "C" 
			},
			{
				"x": 0.9940375798,
				"y": -2.3284757043,
				"z": 0.9614508924,
				"element": "C" 
			},
			{
				"x": 1.3154005845,
				"y": -3.2855260736,
				"z": 2.025859985,
				"element": "C" 
			},
			{
				"x": 0.9527200142,
				"y": -3.1770802226,
				"z": 3.1877934449,
				"element": "O" 
			},
			{
				"x": 2.1714108239,
				"y": -4.4803144808,
				"z": 1.5666367485,
				"element": "C" 
			},
			{
				"x": 2.5522085889,
				"y": -5.6343521037,
				"z": 2.8839632823,
				"element": "Cl" 
			},
			{
				"x": 0.2351853406,
				"y": -1.1655447976,
				"z": 1.1168176518,
				"element": "C" 
			},
			{
				"x": -0.4295244896,
				"y": -0.5865638709,
				"z": 2.3233696091,
				"element": "C" 
			},
			{
				"x": 0.1703680284,
				"y": -0.5537935168,
				"z": -0.1153762315,
				"element": "N" 
			},
			{
				"x": -0.518693837,
				"y": 0.6734748494,
				"z": -0.389650643,
				"element": "C" 
			},
			{
				"x": 0.1515882725,
				"y": 1.8941206682,
				"z": -0.2764420897,
				"element": "C" 
			},
			{
				"x": -0.5234695726,
				"y": 3.0841186633,
				"z": -0.5448127847,
				"element": "C" 
			},
			{
				"x": -1.8708444477,
				"y": 3.0829135437,
				"z": -0.9313413476,
				"element": "C" 
			},
			{
				"x": -2.5880517155,
				"y": 4.373388904,
				"z": -1.2497109607,
				"element": "C" 
			},
			{
				"x": -2.5275647174,
				"y": 1.8490108909,
				"z": -1.036132179,
				"element": "C" 
			},
			{
				"x": -1.862759753,
				"y": 0.6526193499,
				"z": -0.7705386783,
				"element": "C" 
			},
			{
				"x": 1.5673111097,
				"y": -1.6088176073,
				"z": -3.0498146791,
				"element": "H" 
			},
			{
				"x": -0.0069019547,
				"y": -0.8035435505,
				"z": -2.9766300926,
				"element": "H" 
			},
			{
				"x": 1.4599352199,
				"y": 0.1006898371,
				"z": -2.6050033149,
				"element": "H" 
			},
			{
				"x": 1.9820170333,
				"y": -3.162837197,
				"z": -0.8937685967,
				"element": "H" 
			},
			{
				"x": 1.6477718629,
				"y": -5.0332855379,
				"z": 0.7829497978,
				"element": "H" 
			},
			{
				"x": 3.118601063,
				"y": -4.1229049256,
				"z": 1.1553215844,
				"element": "H" 
			},
			{
				"x": -0.2376082976,
				"y": -1.2358591618,
				"z": 3.1758775467,
				"element": "H" 
			},
			{
				"x": -0.0511989768,
				"y": 0.4181846718,
				"z": 2.5458484085,
				"element": "H" 
			},
			{
				"x": -1.5127526534,
				"y": -0.4960345948,
				"z": 2.1796521092,
				"element": "H" 
			},
			{
				"x": 1.1942401882,
				"y": 1.9041233976,
				"z": 0.0261573845,
				"element": "H" 
			},
			{
				"x": 0.0047964908,
				"y": 4.0292020038,
				"z": -0.4494777458,
				"element": "H" 
			},
			{
				"x": -3.6583062942,
				"y": 4.2998380664,
				"z": -1.0359824165,
				"element": "H" 
			},
			{
				"x": -2.4846502977,
				"y": 4.6299258159,
				"z": -2.3114081316,
				"element": "H" 
			},
			{
				"x": -2.1828021005,
				"y": 5.2095446987,
				"z": -0.672505514,
				"element": "H" 
			},
			{
				"x": -3.5744546625,
				"y": 1.8232779484,
				"z": -1.3271455193,
				"element": "H" 
			},
			{
				"x": -2.3796579525,
				"y": -0.2987592075,
				"z": -0.8510657722,
				"element": "H" 
			}
		],
		 "valence_orbital": [ 
			{
				"type": "occ",
				"energy": -0.27059,
				"method": "rhf"
			},
			{
				"type": "occ",
				"energy": -0.26069,
				"method": "rhf"
			},
			{
				"type": "occ",
				"energy": -0.24828,
				"method": "rhf"
			},
			{
				"type": "occ",
				"energy": -0.23998,
				"method": "rhf"
			},
			{
				"type": "occ",
				"energy": -0.20924,
				"method": "rhf"
			},
			{
				"type": "unocc",
				"energy": -0.02699,
				"method": "rhf"
			},
			{
				"type": "unocc",
				"energy": -0.02353,
				"method": "rhf"
			},
			{
				"type": "unocc",
				"energy": -0.02266,
				"method": "rhf"
			},
			{
				"type": "unocc",
				"energy": 0.03284,
				"method": "rhf"
			},
			{
				"type": "unocc",
				"energy": 0.04202,
				"method": "rhf"
			}
		],
		"cosmo_sigma_profile": { 
			"-0.025": 0.0,
			"-0.024": 0.0,
			"-0.023": 0.0,
			"-0.022": 0.0,
			"-0.021": 0.0,
			"-0.02": 0.0,
			"-0.019": 0.0,
			"-0.018": 0.0,
			"-0.017": 0.0,
			"-0.016": 0.0,
			"-0.015": 0.0,
			"-0.014": 0.0,
			"-0.013": 0.0,
			"-0.012": 0.0,
			"-0.011": 0.0,
			"-0.01": 0.0,
			"-0.009": 0.508334543533,
			"-0.008": 4.09635142232,
			"-0.007": 7.70434471548,
			"-0.006": 12.1780182002,
			"-0.005": 19.2585221841,
			"-0.004": 28.0587428321,
			"-0.003": 27.6285781775,
			"-0.002": 29.9460800628,
			"-0.001": 32.7453668195,
			"0.0": 32.2675740541,
			"0.001": 18.9600833529,
			"0.002": 16.3506797873,
			"0.003": 16.8603076337,
			"0.004": 18.4527581581,
			"0.005": 14.2935606276,
			"0.006": 12.5171144881,
			"0.007": 5.83997677964,
			"0.008": 2.88690719227,
			"0.009": 2.19432812218,
			"0.01": 1.9033135157,
			"0.011": 2.74853036602,
			"0.012": 3.10612636789,
			"0.013": 2.21764959586,
			"0.014": 1.69036924879,
			"0.015": 0.110345708457,
			"0.016": 0.0,
			"0.017": 0.0,
			"0.018": 0.0,
			"0.019": 0.0,
			"0.02": 0.0,
			"0.021": 0.0,
			"0.022": 0.0,
			"0.023": 0.0,
			"0.024": 0.0,
			"0.025": 0.0
		}
	}
}
