{
	 "smiles": "[O-][N+](=O)C1=CC=C(C=CC2=CC=C(C=C2)[N+]([O-])=O)C=C1", 
	 "Tm": 456.15, 
	 "num_atms": 30, 
	 "gaussian": { 
		 "optdone": 1, 
		 "sigma_profile": "yes", 
		 "theory": "DFT", 
		 "functional": "B3LYP", 
		 "basiset": "6-31G**", 
		 "properties": { 
			 "R2extent": 11790.4217, 
			 "electric_dipole_moment_norm": 0.0001, 
			 "electric_quadrupole_moment_norm": 63.1859892759, 
			 "total_energy": -949.710204307, 
			 "HOMO_LUMO_gap": 0.12954, 
			 "cosmo_polarized_energy": -16.91, 
			 "cosmo_cavitation_energy": 37.14, 
			 "cosmo_dispersion_energy": -26.9, 
			 "cosmo_repulsion_energy": 2.0, 
			 "cosmo_total_nonelectrostatic_energy": 12.25, 
			 "SMD_solvation_energy": 10.74 
		},
		"coords": [
			{
				"x": -5.7856409773,
				"y": 2.9595705589,
				"z": -0.3046429003,
				"element": "O" 
			},
			{
				"x": -5.7314709936,
				"y": 1.8219675429,
				"z": -0.7723759796,
				"element": "N" 
			},
			{
				"x": -6.6906000413,
				"y": 1.2085333407,
				"z": -1.2406403644,
				"element": "O" 
			},
			{
				"x": -4.4270539481,
				"y": 1.1475772499,
				"z": -0.7715160568,
				"element": "C" 
			},
			{
				"x": -4.3282932658,
				"y": -0.1404040235,
				"z": -1.292603126,
				"element": "C" 
			},
			{
				"x": -3.0882491477,
				"y": -0.7671424082,
				"z": -1.2856581438,
				"element": "C" 
			},
			{
				"x": -1.9426840298,
				"y": -0.1296000613,
				"z": -0.766689731,
				"element": "C" 
			},
			{
				"x": -0.6708284363,
				"y": -0.8526710526,
				"z": -0.7932913592,
				"element": "C" 
			},
			{
				"x": 0.5219125453,
				"y": -0.4066474577,
				"z": -0.3450274103,
				"element": "C" 
			},
			{
				"x": 1.7937676552,
				"y": -1.129718917,
				"z": -0.3716294165,
				"element": "C" 
			},
			{
				"x": 2.9393781983,
				"y": -0.492092458,
				"z": 0.1471342949,
				"element": "C" 
			},
			{
				"x": 4.1794268407,
				"y": -1.1188228581,
				"z": 0.1540546992,
				"element": "C" 
			},
			{
				"x": 4.2781429559,
				"y": -2.4068859767,
				"z": -0.3668379967,
				"element": "C" 
			},
			{
				"x": 3.1688515684,
				"y": -3.0739786033,
				"z": -0.890040543,
				"element": "C" 
			},
			{
				"x": 1.9378709545,
				"y": -2.4348721509,
				"z": -0.8897377259,
				"element": "C" 
			},
			{
				"x": 5.5825627844,
				"y": -3.081271432,
				"z": -0.3659966284,
				"element": "N" 
			},
			{
				"x": 5.636678443,
				"y": -4.2189754016,
				"z": -0.8334904181,
				"element": "O" 
			},
			{
				"x": 6.5417493931,
				"y": -2.467733078,
				"z": 0.1020132166,
				"element": "O" 
			},
			{
				"x": -2.0868331551,
				"y": 1.175468882,
				"z": -0.2483826041,
				"element": "C" 
			},
			{
				"x": -3.317811696,
				"y": 1.8145799494,
				"z": -0.248095663,
				"element": "C" 
			},
			{
				"x": -5.2117192947,
				"y": -0.6244363111,
				"z": -1.6895606569,
				"element": "H" 
			},
			{
				"x": -2.9985103385,
				"y": -1.7716022191,
				"z": -1.6892452663,
				"element": "H" 
			},
			{
				"x": -0.7314428487,
				"y": -1.8489890875,
				"z": -1.225949133,
				"element": "H" 
			},
			{
				"x": 0.5825332769,
				"y": 0.589682328,
				"z": 0.0876023636,
				"element": "H" 
			},
			{
				"x": 2.8496736944,
				"y": 0.5124295679,
				"z": 0.5505741698,
				"element": "H" 
			},
			{
				"x": 5.062889625,
				"y": -0.634721823,
				"z": 0.5508464734,
				"element": "H" 
			},
			{
				"x": 3.2902879331,
				"y": -4.0748019075,
				"z": -1.285013561,
				"element": "H" 
			},
			{
				"x": 1.079898953,
				"y": -2.958221665,
				"z": -1.2974807746,
				"element": "H" 
			},
			{
				"x": -1.2289025467,
				"y": 1.6987434548,
				"z": 0.1595435954,
				"element": "H" 
			},
			{
				"x": -3.4392841015,
				"y": 2.8153360175,
				"z": 0.1470366458,
				"element": "H" 
			}
		],
		 "valence_orbital": [ 
			{
				"type": "occ",
				"energy": -0.29542,
				"method": "rhf"
			},
			{
				"type": "occ",
				"energy": -0.29542,
				"method": "rhf"
			},
			{
				"type": "occ",
				"energy": -0.28883,
				"method": "rhf"
			},
			{
				"type": "occ",
				"energy": -0.28868,
				"method": "rhf"
			},
			{
				"type": "occ",
				"energy": -0.24493,
				"method": "rhf"
			},
			{
				"type": "unocc",
				"energy": -0.11539,
				"method": "rhf"
			},
			{
				"type": "unocc",
				"energy": -0.08844,
				"method": "rhf"
			},
			{
				"type": "unocc",
				"energy": -0.05035,
				"method": "rhf"
			},
			{
				"type": "unocc",
				"energy": -0.03621,
				"method": "rhf"
			},
			{
				"type": "unocc",
				"energy": -0.03542,
				"method": "rhf"
			}
		],
		"cosmo_sigma_profile": { 
			"-0.025": 0.0,
			"-0.024": 0.0,
			"-0.023": 0.0,
			"-0.022": 0.0,
			"-0.021": 0.0,
			"-0.02": 0.0,
			"-0.019": 0.0,
			"-0.018": 0.0,
			"-0.017": 0.0,
			"-0.016": 0.0,
			"-0.015": 0.0,
			"-0.014": 0.0,
			"-0.013": 0.0,
			"-0.012": 0.0,
			"-0.011": 0.0,
			"-0.01": 0.505945441152,
			"-0.009": 4.15560259222,
			"-0.008": 10.8336384612,
			"-0.007": 16.7492974061,
			"-0.006": 18.4445831873,
			"-0.005": 15.5743779347,
			"-0.004": 14.4910692712,
			"-0.003": 15.0333073901,
			"-0.002": 16.3558090948,
			"-0.001": 24.4974757939,
			"0.0": 26.1091359041,
			"0.001": 38.039329423,
			"0.002": 26.1646070063,
			"0.003": 7.17683086826,
			"0.004": 5.38859267817,
			"0.005": 6.66428638361,
			"0.006": 5.70691393334,
			"0.007": 14.8686871797,
			"0.008": 16.6432112437,
			"0.009": 9.17769406572,
			"0.01": 6.44901840115,
			"0.011": 0.587170610198,
			"0.012": 0.0,
			"0.013": 0.0,
			"0.014": 0.0,
			"0.015": 0.0,
			"0.016": 0.0,
			"0.017": 0.0,
			"0.018": 0.0,
			"0.019": 0.0,
			"0.02": 0.0,
			"0.021": 0.0,
			"0.022": 0.0,
			"0.023": 0.0,
			"0.024": 0.0,
			"0.025": 0.0
		}
	}
}
