{
	 "smiles": "CC(COC(C)=O)OC(C)=O", 
	 "Tm": 242.15, 
	 "num_atms": 23, 
	 "gaussian": { 
		 "optdone": 1, 
		 "sigma_profile": "yes", 
		 "theory": "DFT", 
		 "functional": "B3LYP", 
		 "basiset": "6-31G**", 
		 "properties": { 
			 "R2extent": 2295.2905, 
			 "electric_dipole_moment_norm": 2.97267875156, 
			 "electric_quadrupole_moment_norm": 9.76545792423, 
			 "total_energy": -574.903787752, 
			 "HOMO_LUMO_gap": 0.26773, 
			 "cosmo_polarized_energy": -10.75, 
			 "cosmo_cavitation_energy": 26.17, 
			 "cosmo_dispersion_energy": -18.58, 
			 "cosmo_repulsion_energy": 1.53, 
			 "cosmo_total_nonelectrostatic_energy": 9.12, 
			 "SMD_solvation_energy": 6.74 
		},
		"coords": [
			{
				"x": 0.3662460355,
				"y": 1.6389216496,
				"z": 1.3247443192,
				"element": "C" 
			},
			{
				"x": 0.166002872,
				"y": 0.2577161384,
				"z": 0.7005991875,
				"element": "C" 
			},
			{
				"x": -0.0195035855,
				"y": 0.3033321085,
				"z": -0.8157326745,
				"element": "C" 
			},
			{
				"x": 0.2172391901,
				"y": -0.9983118475,
				"z": -1.3941091089,
				"element": "O" 
			},
			{
				"x": -0.8564748507,
				"y": -1.7875285748,
				"z": -1.6408737905,
				"element": "C" 
			},
			{
				"x": -0.4138932953,
				"y": -3.1077029774,
				"z": -2.2257221469,
				"element": "C" 
			},
			{
				"x": -2.0053520522,
				"y": -1.4699348149,
				"z": -1.4232386584,
				"element": "O" 
			},
			{
				"x": -0.8919342658,
				"y": -0.5131150042,
				"z": 1.3281256414,
				"element": "O" 
			},
			{
				"x": -2.1686979594,
				"y": -0.0495928453,
				"z": 1.2891837539,
				"element": "C" 
			},
			{
				"x": -3.123529273,
				"y": -1.0931623436,
				"z": 1.8119072711,
				"element": "C" 
			},
			{
				"x": -2.489996909,
				"y": 1.0405719229,
				"z": 0.8688527613,
				"element": "O" 
			},
			{
				"x": 0.4086402573,
				"y": 1.548154512,
				"z": 2.4137429313,
				"element": "H" 
			},
			{
				"x": -0.4425222874,
				"y": 2.3210429514,
				"z": 1.063995193,
				"element": "H" 
			},
			{
				"x": 1.3191636779,
				"y": 2.0579621404,
				"z": 0.9843278824,
				"element": "H" 
			},
			{
				"x": 1.0488778321,
				"y": -0.3564589131,
				"z": 0.9041907283,
				"element": "H" 
			},
			{
				"x": -1.0139793142,
				"y": 0.6604905446,
				"z": -1.0831912319,
				"element": "H" 
			},
			{
				"x": 0.7417732187,
				"y": 0.9542525795,
				"z": -1.2537360868,
				"element": "H" 
			},
			{
				"x": 0.209307791,
				"y": -2.9416675741,
				"z": -3.1087665967,
				"element": "H" 
			},
			{
				"x": -1.289834463,
				"y": -3.6996274414,
				"z": -2.4888460179,
				"element": "H" 
			},
			{
				"x": 0.1935556984,
				"y": -3.6504433752,
				"z": -1.4948959069,
				"element": "H" 
			},
			{
				"x": -4.0602687387,
				"y": -0.6167433106,
				"z": 2.1016108703,
				"element": "H" 
			},
			{
				"x": -2.6925469272,
				"y": -1.6442708639,
				"z": 2.6504128367,
				"element": "H" 
			},
			{
				"x": -3.3185726514,
				"y": -1.8006846615,
				"z": 0.9993188429,
				"element": "H" 
			}
		],
		 "valence_orbital": [ 
			{
				"type": "occ",
				"energy": -0.3408,
				"method": "rhf"
			},
			{
				"type": "occ",
				"energy": -0.3129,
				"method": "rhf"
			},
			{
				"type": "occ",
				"energy": -0.28558,
				"method": "rhf"
			},
			{
				"type": "occ",
				"energy": -0.27398,
				"method": "rhf"
			},
			{
				"type": "occ",
				"energy": -0.2597,
				"method": "rhf"
			},
			{
				"type": "unocc",
				"energy": 0.00803,
				"method": "rhf"
			},
			{
				"type": "unocc",
				"energy": 0.02021,
				"method": "rhf"
			},
			{
				"type": "unocc",
				"energy": 0.09365,
				"method": "rhf"
			},
			{
				"type": "unocc",
				"energy": 0.09949,
				"method": "rhf"
			},
			{
				"type": "unocc",
				"energy": 0.11506,
				"method": "rhf"
			}
		],
		"cosmo_sigma_profile": { 
			"-0.025": 0.0,
			"-0.024": 0.0,
			"-0.023": 0.0,
			"-0.022": 0.0,
			"-0.021": 0.0,
			"-0.02": 0.0,
			"-0.019": 0.0,
			"-0.018": 0.0,
			"-0.017": 0.0,
			"-0.016": 0.0,
			"-0.015": 0.0,
			"-0.014": 0.0,
			"-0.013": 0.0,
			"-0.012": 0.0,
			"-0.011": 0.0,
			"-0.01": 0.0,
			"-0.009": 0.0,
			"-0.008": 0.0,
			"-0.007": 3.20668954898,
			"-0.006": 13.1779747868,
			"-0.005": 16.2551131582,
			"-0.004": 19.9221118117,
			"-0.003": 23.5954449708,
			"-0.002": 27.2736197315,
			"-0.001": 19.7778363279,
			"0.0": 14.130997941,
			"0.001": 8.40551705544,
			"0.002": 6.98470572985,
			"0.003": 7.08908693403,
			"0.004": 5.40868506879,
			"0.005": 5.57914120159,
			"0.006": 4.98048024229,
			"0.007": 4.58101824207,
			"0.008": 5.18340008855,
			"0.009": 4.9474759777,
			"0.01": 3.32516012014,
			"0.011": 4.68902467628,
			"0.012": 5.10327101805,
			"0.013": 1.5118927972,
			"0.014": 0.0398611221373,
			"0.015": 0.0,
			"0.016": 0.0,
			"0.017": 0.0,
			"0.018": 0.0,
			"0.019": 0.0,
			"0.02": 0.0,
			"0.021": 0.0,
			"0.022": 0.0,
			"0.023": 0.0,
			"0.024": 0.0,
			"0.025": 0.0
		}
	}
}
