{
	 "smiles": "CCOP(=O)(OCC)C(C1=CC(=C(O)C(=C1)C(C)(C)C)C(C)(C)C)(P(=O)(OCC)OCC)P(=O)(OCC)OCC", 
	 "Tm": 437.65, 
	 "num_atms": 91, 
	 "gaussian": { 
		 "optdone": 1, 
		 "sigma_profile": "yes", 
		 "theory": "DFT", 
		 "functional": "B3LYP", 
		 "basiset": "6-31G**", 
		 "properties": { 
			 "R2extent": 21046.1907, 
			 "electric_dipole_moment_norm": 2.11298930665, 
			 "electric_quadrupole_moment_norm": 16.907565873, 
			 "total_energy": -2836.11947762, 
			 "HOMO_LUMO_gap": 0.2128, 
			 "cosmo_polarized_energy": -23.69, 
			 "cosmo_cavitation_energy": 86.86, 
			 "cosmo_dispersion_energy": -47.59, 
			 "cosmo_repulsion_energy": 3.57, 
			 "cosmo_total_nonelectrostatic_energy": 42.84, 
			 "SMD_solvation_energy": 17.93 
		},
		"coords": [
			{
				"x": -4.7617722825,
				"y": -0.6409080339,
				"z": 2.5720157618,
				"element": "C" 
			},
			{
				"x": -3.4689369085,
				"y": 0.1419622036,
				"z": 2.6984391501,
				"element": "C" 
			},
			{
				"x": -2.4550025298,
				"y": -0.5555336827,
				"z": 1.9132741014,
				"element": "O" 
			},
			{
				"x": -0.880539192,
				"y": -0.4190610473,
				"z": 2.212596417,
				"element": "P" 
			},
			{
				"x": -0.5495141321,
				"y": 0.0095927484,
				"z": 3.5998681905,
				"element": "O" 
			},
			{
				"x": -0.3399113496,
				"y": -1.8737669568,
				"z": 1.7826475537,
				"element": "O" 
			},
			{
				"x": 0.0268684864,
				"y": -2.847249308,
				"z": 2.7943017238,
				"element": "C" 
			},
			{
				"x": 0.8346380334,
				"y": -3.9339469166,
				"z": 2.1116042307,
				"element": "C" 
			},
			{
				"x": -0.1097674064,
				"y": 0.6617390522,
				"z": 0.8707578686,
				"element": "C" 
			},
			{
				"x": -0.6566546576,
				"y": 0.4166268089,
				"z": -0.559662955,
				"element": "C" 
			},
			{
				"x": -1.394053822,
				"y": -0.7265738218,
				"z": -0.8930927719,
				"element": "C" 
			},
			{
				"x": -1.8441337152,
				"y": -0.9896222052,
				"z": -2.1893812844,
				"element": "C" 
			},
			{
				"x": -1.5216515712,
				"y": -0.0495869307,
				"z": -3.1950342499,
				"element": "C" 
			},
			{
				"x": -1.990431455,
				"y": -0.3233124651,
				"z": -4.4581632983,
				"element": "O" 
			},
			{
				"x": -0.7521094764,
				"y": 1.1030702875,
				"z": -2.9191944585,
				"element": "C" 
			},
			{
				"x": -0.3328567375,
				"y": 1.2978935961,
				"z": -1.597155029,
				"element": "C" 
			},
			{
				"x": -0.3771837156,
				"y": 2.1302670126,
				"z": -4.0178553294,
				"element": "C" 
			},
			{
				"x": -1.6534182244,
				"y": 2.7926465333,
				"z": -4.6063083459,
				"element": "C" 
			},
			{
				"x": 0.4806725194,
				"y": 3.2849820531,
				"z": -3.4578907351,
				"element": "C" 
			},
			{
				"x": 0.4721293515,
				"y": 1.4631938592,
				"z": -5.1338569722,
				"element": "C" 
			},
			{
				"x": -2.6711644215,
				"y": -2.2615281029,
				"z": -2.4930776563,
				"element": "C" 
			},
			{
				"x": -4.078440507,
				"y": -1.8723623508,
				"z": -3.0111194533,
				"element": "C" 
			},
			{
				"x": -2.8738512147,
				"y": -3.1285077739,
				"z": -1.2323948415,
				"element": "C" 
			},
			{
				"x": -1.9437304822,
				"y": -3.1418765587,
				"z": -3.5397798394,
				"element": "C" 
			},
			{
				"x": 1.7467521307,
				"y": 0.3263044129,
				"z": 0.8011660598,
				"element": "P" 
			},
			{
				"x": 2.5080542862,
				"y": 1.5134221782,
				"z": 0.3195819445,
				"element": "O" 
			},
			{
				"x": 1.9065980254,
				"y": -1.0118965592,
				"z": -0.0743993859,
				"element": "O" 
			},
			{
				"x": 2.3304071834,
				"y": -0.9778741416,
				"z": -1.4609144484,
				"element": "C" 
			},
			{
				"x": 3.3109214523,
				"y": -2.1144312696,
				"z": -1.6886668181,
				"element": "C" 
			},
			{
				"x": 2.1957186788,
				"y": -0.279113265,
				"z": 2.2219587544,
				"element": "O" 
			},
			{
				"x": 2.7516030312,
				"y": 0.5395971474,
				"z": 3.2854992543,
				"element": "C" 
			},
			{
				"x": 3.9486602786,
				"y": -0.1880438816,
				"z": 3.8701921332,
				"element": "C" 
			},
			{
				"x": -0.4778379774,
				"y": 2.4291770979,
				"z": 1.4487550563,
				"element": "P" 
			},
			{
				"x": -1.9389598597,
				"y": 2.6075008152,
				"z": 1.6537416605,
				"element": "O" 
			},
			{
				"x": 0.4452032882,
				"y": 2.6629463088,
				"z": 2.7519306975,
				"element": "O" 
			},
			{
				"x": -0.1384853321,
				"y": 2.9779030751,
				"z": 4.0516419444,
				"element": "C" 
			},
			{
				"x": 0.7151581956,
				"y": 4.0396428556,
				"z": 4.7200800198,
				"element": "C" 
			},
			{
				"x": 0.1345667611,
				"y": 3.4622861755,
				"z": 0.3836577598,
				"element": "O" 
			},
			{
				"x": 1.3195990631,
				"y": 4.2927547687,
				"z": 0.5330421283,
				"element": "C" 
			},
			{
				"x": 0.9942101167,
				"y": 5.6831801818,
				"z": 0.0181418946,
				"element": "C" 
			},
			{
				"x": -5.5527220726,
				"y": -0.1346480747,
				"z": 3.1356110055,
				"element": "H" 
			},
			{
				"x": -4.6518870148,
				"y": -1.6555379892,
				"z": 2.9664907771,
				"element": "H" 
			},
			{
				"x": -5.0767538625,
				"y": -0.7072144313,
				"z": 1.5265403175,
				"element": "H" 
			},
			{
				"x": -3.5518339898,
				"y": 1.1541800785,
				"z": 2.3013533137,
				"element": "H" 
			},
			{
				"x": -3.1273133636,
				"y": 0.1962518916,
				"z": 3.7356856477,
				"element": "H" 
			},
			{
				"x": -0.8895153697,
				"y": -3.2486326102,
				"z": 3.2420693426,
				"element": "H" 
			},
			{
				"x": 0.6034692223,
				"y": -2.3426167628,
				"z": 3.573091822,
				"element": "H" 
			},
			{
				"x": 0.2454389285,
				"y": -4.4280334884,
				"z": 1.3335051396,
				"element": "H" 
			},
			{
				"x": 1.1373643628,
				"y": -4.6877125268,
				"z": 2.8461150095,
				"element": "H" 
			},
			{
				"x": 1.729068345,
				"y": -3.5060527042,
				"z": 1.6525236145,
				"element": "H" 
			},
			{
				"x": -1.6264681249,
				"y": -1.4465056768,
				"z": -0.1283653065,
				"element": "H" 
			},
			{
				"x": -1.7634972824,
				"y": 0.3997323002,
				"z": -5.0505473525,
				"element": "H" 
			},
			{
				"x": 0.2640916576,
				"y": 2.163012261,
				"z": -1.3652981521,
				"element": "H" 
			},
			{
				"x": -2.1962691269,
				"y": 3.3235687311,
				"z": -3.8186860407,
				"element": "H" 
			},
			{
				"x": -1.3802722476,
				"y": 3.5169971048,
				"z": -5.3813923647,
				"element": "H" 
			},
			{
				"x": -2.366775821,
				"y": 2.0936591995,
				"z": -5.0557233374,
				"element": "H" 
			},
			{
				"x": -0.0474926007,
				"y": 3.8414396804,
				"z": -2.6786093722,
				"element": "H" 
			},
			{
				"x": 1.4274891208,
				"y": 2.9267729045,
				"z": -3.0425177263,
				"element": "H" 
			},
			{
				"x": 0.7166793943,
				"y": 3.9837241308,
				"z": -4.2671903237,
				"element": "H" 
			},
			{
				"x": 1.4114891243,
				"y": 1.0880360689,
				"z": -4.7157803303,
				"element": "H" 
			},
			{
				"x": 0.7169655706,
				"y": 2.1949953043,
				"z": -5.9114108807,
				"element": "H" 
			},
			{
				"x": -0.0120581705,
				"y": 0.6135966389,
				"z": -5.6247288284,
				"element": "H" 
			},
			{
				"x": -4.0261753358,
				"y": -1.2925390851,
				"z": -3.9328661164,
				"element": "H" 
			},
			{
				"x": -4.6135604798,
				"y": -1.2802454844,
				"z": -2.2608038687,
				"element": "H" 
			},
			{
				"x": -4.6665257893,
				"y": -2.7766824752,
				"z": -3.2066886103,
				"element": "H" 
			},
			{
				"x": -1.9240409956,
				"y": -3.4796603,
				"z": -0.8156367244,
				"element": "H" 
			},
			{
				"x": -3.4137039275,
				"y": -2.5942896632,
				"z": -0.4442639344,
				"element": "H" 
			},
			{
				"x": -3.4640000224,
				"y": -4.0115372541,
				"z": -1.498484543,
				"element": "H" 
			},
			{
				"x": -0.963052479,
				"y": -3.4546481941,
				"z": -3.163945656,
				"element": "H" 
			},
			{
				"x": -1.7989834413,
				"y": -2.61693683,
				"z": -4.4842159926,
				"element": "H" 
			},
			{
				"x": -2.5296297513,
				"y": -4.0472695916,
				"z": -3.7366197805,
				"element": "H" 
			},
			{
				"x": 2.7874678095,
				"y": -0.007596412,
				"z": -1.6735980658,
				"element": "H" 
			},
			{
				"x": 1.4351202884,
				"y": -1.0911422473,
				"z": -2.0788616268,
				"element": "H" 
			},
			{
				"x": 3.6105518817,
				"y": -2.1396931868,
				"z": -2.7419322883,
				"element": "H" 
			},
			{
				"x": 4.2075712076,
				"y": -1.9854741393,
				"z": -1.0758679905,
				"element": "H" 
			},
			{
				"x": 2.8548484218,
				"y": -3.0765676269,
				"z": -1.4383395885,
				"element": "H" 
			},
			{
				"x": 3.035248077,
				"y": 1.5132095877,
				"z": 2.8792666549,
				"element": "H" 
			},
			{
				"x": 1.9562548504,
				"y": 0.6740422501,
				"z": 4.021285027,
				"element": "H" 
			},
			{
				"x": 4.7366984594,
				"y": -0.3117052239,
				"z": 3.1219061614,
				"element": "H" 
			},
			{
				"x": 3.662008604,
				"y": -1.1775374474,
				"z": 4.2383291892,
				"element": "H" 
			},
			{
				"x": 4.3552019849,
				"y": 0.3853371167,
				"z": 4.7104274514,
				"element": "H" 
			},
			{
				"x": -0.1642155594,
				"y": 2.0444484661,
				"z": 4.6150091106,
				"element": "H" 
			},
			{
				"x": -1.165242424,
				"y": 3.3194922792,
				"z": 3.9004150359,
				"element": "H" 
			},
			{
				"x": 0.714942459,
				"y": 4.972163827,
				"z": 4.1473720278,
				"element": "H" 
			},
			{
				"x": 0.3182510709,
				"y": 4.2522035883,
				"z": 5.7186044405,
				"element": "H" 
			},
			{
				"x": 1.7501261451,
				"y": 3.702159112,
				"z": 4.8310839723,
				"element": "H" 
			},
			{
				"x": 2.1183338553,
				"y": 3.8093728026,
				"z": -0.0309804727,
				"element": "H" 
			},
			{
				"x": 1.6102581822,
				"y": 4.313289512,
				"z": 1.5844654909,
				"element": "H" 
			},
			{
				"x": 0.6863928454,
				"y": 5.6547819071,
				"z": -1.0310284072,
				"element": "H" 
			},
			{
				"x": 1.8837082643,
				"y": 6.3181598893,
				"z": 0.0952121248,
				"element": "H" 
			},
			{
				"x": 0.188995208,
				"y": 6.1415588925,
				"z": 0.5995745722,
				"element": "H" 
			}
		],
		 "valence_orbital": [ 
			{
				"type": "occ",
				"energy": -0.27819,
				"method": "rhf"
			},
			{
				"type": "occ",
				"energy": -0.27394,
				"method": "rhf"
			},
			{
				"type": "occ",
				"energy": -0.26759,
				"method": "rhf"
			},
			{
				"type": "occ",
				"energy": -0.23278,
				"method": "rhf"
			},
			{
				"type": "occ",
				"energy": -0.20891,
				"method": "rhf"
			},
			{
				"type": "unocc",
				"energy": 0.00389,
				"method": "rhf"
			},
			{
				"type": "unocc",
				"energy": 0.00542,
				"method": "rhf"
			},
			{
				"type": "unocc",
				"energy": 0.04744,
				"method": "rhf"
			},
			{
				"type": "unocc",
				"energy": 0.05671,
				"method": "rhf"
			},
			{
				"type": "unocc",
				"energy": 0.06054,
				"method": "rhf"
			}
		],
		"cosmo_sigma_profile": { 
			"-0.025": 0.0,
			"-0.024": 0.0,
			"-0.023": 0.0,
			"-0.022": 0.0,
			"-0.021": 0.0,
			"-0.02": 0.0,
			"-0.019": 0.0,
			"-0.018": 0.0,
			"-0.017": 0.0,
			"-0.016": 0.0,
			"-0.015": 0.118663923056,
			"-0.014": 0.424677664778,
			"-0.013": 0.732254364754,
			"-0.012": 0.678979643941,
			"-0.011": 0.816757182244,
			"-0.01": 0.682308969355,
			"-0.009": 0.81311133684,
			"-0.008": 0.644377341569,
			"-0.007": 0.888053561274,
			"-0.006": 2.24894688552,
			"-0.005": 13.9284895731,
			"-0.004": 54.306492831,
			"-0.003": 91.2042229316,
			"-0.002": 93.0643062312,
			"-0.001": 90.2938138848,
			"0.0": 94.3769940908,
			"0.001": 62.5760264406,
			"0.002": 36.7694601926,
			"0.003": 22.2544812203,
			"0.004": 24.8782915497,
			"0.005": 20.6972678768,
			"0.006": 16.1172918903,
			"0.007": 9.53216464042,
			"0.008": 7.49793489505,
			"0.009": 5.00841801629,
			"0.01": 4.00441036798,
			"0.011": 4.21646745813,
			"0.012": 3.39949220154,
			"0.013": 2.93924370005,
			"0.014": 4.08904551369,
			"0.015": 1.64201834666,
			"0.016": 0.0,
			"0.017": 0.0,
			"0.018": 0.0,
			"0.019": 0.0,
			"0.02": 0.0,
			"0.021": 0.0,
			"0.022": 0.0,
			"0.023": 0.0,
			"0.024": 0.0,
			"0.025": 0.0
		}
	}
}
