{
	 "smiles": "CCOC1=C(OC)C=CC(N)=C1", 
	 "Tm": 351.15, 
	 "num_atms": 25, 
	 "gaussian": { 
		 "optdone": 1, 
		 "sigma_profile": "yes", 
		 "theory": "DFT", 
		 "functional": "B3LYP", 
		 "basiset": "6-31G**", 
		 "properties": { 
			 "R2extent": 2758.8479, 
			 "electric_dipole_moment_norm": 1.60609995642, 
			 "electric_quadrupole_moment_norm": 9.85972423651, 
			 "total_energy": -555.96832012, 
			 "HOMO_LUMO_gap": 0.2005, 
			 "cosmo_polarized_energy": -10.26, 
			 "cosmo_cavitation_energy": 28.11, 
			 "cosmo_dispersion_energy": -20.14, 
			 "cosmo_repulsion_energy": 1.64, 
			 "cosmo_total_nonelectrostatic_energy": 9.62, 
			 "SMD_solvation_energy": 5.8 
		},
		"coords": [
			{
				"x": 2.0951352574,
				"y": 2.8622624225,
				"z": -2.6900143368,
				"element": "C" 
			},
			{
				"x": 1.809535006,
				"y": 2.4027807292,
				"z": -1.2717116421,
				"element": "C" 
			},
			{
				"x": 0.5501289499,
				"y": 1.7026238977,
				"z": -1.284412131,
				"element": "O" 
			},
			{
				"x": 0.1304641887,
				"y": 1.2293180344,
				"z": -0.0605352349,
				"element": "C" 
			},
			{
				"x": 0.7908158003,
				"y": 0.1658576962,
				"z": 0.5816373601,
				"element": "C" 
			},
			{
				"x": 1.9252896073,
				"y": -0.4122459288,
				"z": 0.0418623957,
				"element": "O" 
			},
			{
				"x": 1.6752409555,
				"y": -1.2443429542,
				"z": -1.0936669073,
				"element": "C" 
			},
			{
				"x": 0.3014325295,
				"y": -0.2868575309,
				"z": 1.8061628619,
				"element": "C" 
			},
			{
				"x": -0.8265605324,
				"y": 0.2870901359,
				"z": 2.3894920192,
				"element": "C" 
			},
			{
				"x": -1.5031831104,
				"y": 1.334147028,
				"z": 1.7431122364,
				"element": "C" 
			},
			{
				"x": -2.6091529533,
				"y": 1.9523070769,
				"z": 2.3395968147,
				"element": "N" 
			},
			{
				"x": -1.0035374418,
				"y": 1.7990305441,
				"z": 0.5157183218,
				"element": "C" 
			},
			{
				"x": 2.1751504102,
				"y": 2.0062410049,
				"z": -3.3666836634,
				"element": "H" 
			},
			{
				"x": 1.2956722599,
				"y": 3.513764058,
				"z": -3.054954079,
				"element": "H" 
			},
			{
				"x": 3.0380944739,
				"y": 3.4172792236,
				"z": -2.7232940159,
				"element": "H" 
			},
			{
				"x": 2.5975661037,
				"y": 1.7389311397,
				"z": -0.9000091654,
				"element": "H" 
			},
			{
				"x": 1.7336286036,
				"y": 3.2611232508,
				"z": -0.5894988075,
				"element": "H" 
			},
			{
				"x": 1.2155882739,
				"y": -0.6768958548,
				"z": -1.9100089717,
				"element": "H" 
			},
			{
				"x": 2.6456183246,
				"y": -1.6297396458,
				"z": -1.4157194715,
				"element": "H" 
			},
			{
				"x": 1.0231008904,
				"y": -2.086381897,
				"z": -0.8266297697,
				"element": "H" 
			},
			{
				"x": 0.8232513841,
				"y": -1.1031033045,
				"z": 2.2965078721,
				"element": "H" 
			},
			{
				"x": -1.1879172824,
				"y": -0.0792235733,
				"z": 3.3468676959,
				"element": "H" 
			},
			{
				"x": -3.2397176624,
				"y": 2.4041240016,
				"z": 1.6910887628,
				"element": "H" 
			},
			{
				"x": -3.1121285974,
				"y": 1.3700368876,
				"z": 2.9956101861,
				"element": "H" 
			},
			{
				"x": -1.4884154388,
				"y": 2.6165735581,
				"z": -0.0102183307,
				"element": "H" 
			}
		],
		 "valence_orbital": [ 
			{
				"type": "occ",
				"energy": -0.29664,
				"method": "rhf"
			},
			{
				"type": "occ",
				"energy": -0.27443,
				"method": "rhf"
			},
			{
				"type": "occ",
				"energy": -0.25224,
				"method": "rhf"
			},
			{
				"type": "occ",
				"energy": -0.23095,
				"method": "rhf"
			},
			{
				"type": "occ",
				"energy": -0.19183,
				"method": "rhf"
			},
			{
				"type": "unocc",
				"energy": 0.00867,
				"method": "rhf"
			},
			{
				"type": "unocc",
				"energy": 0.02489,
				"method": "rhf"
			},
			{
				"type": "unocc",
				"energy": 0.08195,
				"method": "rhf"
			},
			{
				"type": "unocc",
				"energy": 0.09613,
				"method": "rhf"
			},
			{
				"type": "unocc",
				"energy": 0.1124,
				"method": "rhf"
			}
		],
		"cosmo_sigma_profile": { 
			"-0.025": 0.0,
			"-0.024": 0.0,
			"-0.023": 0.0,
			"-0.022": 0.0,
			"-0.021": 0.0,
			"-0.02": 0.0,
			"-0.019": 0.0,
			"-0.018": 0.0,
			"-0.017": 0.0,
			"-0.016": 0.0,
			"-0.015": 0.0,
			"-0.014": 0.0,
			"-0.013": 0.0835118583352,
			"-0.012": 2.0066247113,
			"-0.011": 2.9670614614,
			"-0.01": 2.94238626504,
			"-0.009": 3.25252211497,
			"-0.008": 2.60058407291,
			"-0.007": 3.67573833904,
			"-0.006": 4.76763343119,
			"-0.005": 8.24811039751,
			"-0.004": 15.0665968521,
			"-0.003": 23.8636585905,
			"-0.002": 24.591051185,
			"-0.001": 20.1656984785,
			"0.0": 18.7265634104,
			"0.001": 14.7957153979,
			"0.002": 9.24171358188,
			"0.003": 9.12608618562,
			"0.004": 11.0690488918,
			"0.005": 11.5504620019,
			"0.006": 11.5270373601,
			"0.007": 4.33713842371,
			"0.008": 4.03147734193,
			"0.009": 1.86590219333,
			"0.01": 3.07222631245,
			"0.011": 2.49102492606,
			"0.012": 2.56516537847,
			"0.013": 1.13388413891,
			"0.014": 0.77980910696,
			"0.015": 0.432175556181,
			"0.016": 0.0117594676458,
			"0.017": 0.0,
			"0.018": 0.0,
			"0.019": 0.0,
			"0.02": 0.0,
			"0.021": 0.0,
			"0.022": 0.0,
			"0.023": 0.0,
			"0.024": 0.0,
			"0.025": 0.0
		}
	}
}
