{
	 "smiles": "CNCCO", 
	 "Tm": 268.4, 
	 "num_atms": 14, 
	 "gaussian": { 
		 "optdone": 1, 
		 "sigma_profile": "yes", 
		 "theory": "DFT", 
		 "functional": "B3LYP", 
		 "basiset": "6-31G**", 
		 "properties": { 
			 "R2extent": 720.4199, 
			 "electric_dipole_moment_norm": 1.40120449971, 
			 "electric_quadrupole_moment_norm": 8.26037559437, 
			 "total_energy": -249.693853275, 
			 "HOMO_LUMO_gap": 0.28715, 
			 "cosmo_polarized_energy": -8.61, 
			 "cosmo_cavitation_energy": 16.51, 
			 "cosmo_dispersion_energy": -12.35, 
			 "cosmo_repulsion_energy": 1.12, 
			 "cosmo_total_nonelectrostatic_energy": 5.27, 
			 "SMD_solvation_energy": 0.92 
		},
		"coords": [
			{
				"x": -2.4387204656,
				"y": -1.1799489454,
				"z": 0.2327332819,
				"element": "C" 
			},
			{
				"x": -1.8353763615,
				"y": 0.0399961858,
				"z": -0.2929258412,
				"element": "N" 
			},
			{
				"x": -0.6462344712,
				"y": -0.1423238434,
				"z": -1.1169237931,
				"element": "C" 
			},
			{
				"x": 0.6089375557,
				"y": -0.6872805775,
				"z": -0.4130150344,
				"element": "C" 
			},
			{
				"x": 1.7307038225,
				"y": -0.7386274317,
				"z": -1.2865353666,
				"element": "O" 
			},
			{
				"x": -1.8032686483,
				"y": -1.7822191,
				"z": 0.9045112952,
				"element": "H" 
			},
			{
				"x": -2.7326077532,
				"y": -1.8232710438,
				"z": -0.6050914055,
				"element": "H" 
			},
			{
				"x": -3.3505148437,
				"y": -0.9225076874,
				"z": 0.7811771952,
				"element": "H" 
			},
			{
				"x": -1.6389658008,
				"y": 0.6899101488,
				"z": 0.4633793482,
				"element": "H" 
			},
			{
				"x": -0.3829274479,
				"y": 0.8199097111,
				"z": -1.5723683704,
				"element": "H" 
			},
			{
				"x": -0.9122071053,
				"y": -0.8165338827,
				"z": -1.9450294232,
				"element": "H" 
			},
			{
				"x": 0.8956704626,
				"y": -0.0116396464,
				"z": 0.4015194842,
				"element": "H" 
			},
			{
				"x": 0.4088941746,
				"y": -1.6714580734,
				"z": 0.0383493903,
				"element": "H" 
			},
			{
				"x": 1.5281168819,
				"y": -1.371905814,
				"z": -1.9872807606,
				"element": "H" 
			}
		],
		 "valence_orbital": [ 
			{
				"type": "occ",
				"energy": -0.36281,
				"method": "rhf"
			},
			{
				"type": "occ",
				"energy": -0.35836,
				"method": "rhf"
			},
			{
				"type": "occ",
				"energy": -0.32402,
				"method": "rhf"
			},
			{
				"type": "occ",
				"energy": -0.27762,
				"method": "rhf"
			},
			{
				"type": "occ",
				"energy": -0.21199,
				"method": "rhf"
			},
			{
				"type": "unocc",
				"energy": 0.07516,
				"method": "rhf"
			},
			{
				"type": "unocc",
				"energy": 0.08176,
				"method": "rhf"
			},
			{
				"type": "unocc",
				"energy": 0.11903,
				"method": "rhf"
			},
			{
				"type": "unocc",
				"energy": 0.13259,
				"method": "rhf"
			},
			{
				"type": "unocc",
				"energy": 0.15499,
				"method": "rhf"
			}
		],
		"cosmo_sigma_profile": { 
			"-0.025": 0.0,
			"-0.024": 0.0,
			"-0.023": 0.0,
			"-0.022": 0.0,
			"-0.021": 0.0,
			"-0.02": 0.0,
			"-0.019": 0.0,
			"-0.018": 0.0,
			"-0.017": 0.0,
			"-0.016": 0.0230007188214,
			"-0.015": 0.79127849668,
			"-0.014": 1.09611315816,
			"-0.013": 0.765142420143,
			"-0.012": 0.97385436326,
			"-0.011": 1.22105306547,
			"-0.01": 1.4240138473,
			"-0.009": 2.10510652166,
			"-0.008": 2.46748712186,
			"-0.007": 1.86507518848,
			"-0.006": 3.10326145858,
			"-0.005": 3.72496717576,
			"-0.004": 7.4366358311,
			"-0.003": 16.6083432946,
			"-0.002": 16.4197324922,
			"-0.001": 13.8738288497,
			"0.0": 14.1632022839,
			"0.001": 5.84052278298,
			"0.002": 3.81823559495,
			"0.003": 2.80310300216,
			"0.004": 1.96300383273,
			"0.005": 1.98001514692,
			"0.006": 2.24771896792,
			"0.007": 1.42421450207,
			"0.008": 2.34918847007,
			"0.009": 2.58834421861,
			"0.01": 1.6479955508,
			"0.011": 1.58272514764,
			"0.012": 1.77723501903,
			"0.013": 2.49968561598,
			"0.014": 2.76594964114,
			"0.015": 1.87931680277,
			"0.016": 0.683383648273,
			"0.017": 0.6070976702,
			"0.018": 0.398198139865,
			"0.019": 0.113501465228,
			"0.02": 0.0,
			"0.021": 0.0,
			"0.022": 0.0,
			"0.023": 0.0,
			"0.024": 0.0,
			"0.025": 0.0
		}
	}
}
