{
	 "smiles": "NC1=CC(CNC(=O)NC2=C(Cl)C=CC=C2)=CC=C1", 
	 "Tm": 451.15, 
	 "num_atms": 33, 
	 "gaussian": { 
		 "optdone": 1, 
		 "sigma_profile": "yes", 
		 "theory": "DFT", 
		 "functional": "B3LYP", 
		 "basiset": "6-31G**", 
		 "properties": { 
			 "R2extent": 6487.4336, 
			 "electric_dipole_moment_norm": 4.57170395367, 
			 "electric_quadrupole_moment_norm": 25.3237256724, 
			 "total_energy": -1241.61679798, 
			 "HOMO_LUMO_gap": 0.17751, 
			 "cosmo_polarized_energy": -19.22, 
			 "cosmo_cavitation_energy": 39.09, 
			 "cosmo_dispersion_energy": -26.82, 
			 "cosmo_repulsion_energy": 2.1, 
			 "cosmo_total_nonelectrostatic_energy": 14.37, 
			 "SMD_solvation_energy": 6.73 
		},
		"coords": [
			{
				"x": 2.8101803941,
				"y": 4.6041802644,
				"z": -0.4919131997,
				"element": "N" 
			},
			{
				"x": 2.4033532702,
				"y": 3.3252144612,
				"z": -0.1039175938,
				"element": "C" 
			},
			{
				"x": 1.4720309203,
				"y": 2.6072834698,
				"z": -0.873922335,
				"element": "C" 
			},
			{
				"x": 1.0117016963,
				"y": 1.3532150211,
				"z": -0.4684790901,
				"element": "C" 
			},
			{
				"x": -0.0274119166,
				"y": 0.6306119009,
				"z": -1.3040535106,
				"element": "C" 
			},
			{
				"x": 0.3111871153,
				"y": -0.7875641294,
				"z": -1.4551406906,
				"element": "N" 
			},
			{
				"x": -0.4824439615,
				"y": -1.7465466078,
				"z": -2.0590440939,
				"element": "C" 
			},
			{
				"x": -0.0135329096,
				"y": -2.6323373096,
				"z": -2.7615745769,
				"element": "O" 
			},
			{
				"x": -1.8647322256,
				"y": -1.6632055289,
				"z": -1.8534856847,
				"element": "N" 
			},
			{
				"x": -2.5440167409,
				"y": -1.2140085403,
				"z": -0.6840711874,
				"element": "C" 
			},
			{
				"x": -2.2964029021,
				"y": -1.7226343166,
				"z": 0.6049895563,
				"element": "C" 
			},
			{
				"x": -1.1109359831,
				"y": -2.9879373451,
				"z": 0.8551312133,
				"element": "Cl" 
			},
			{
				"x": -3.0122570822,
				"y": -1.2570550153,
				"z": 1.7097371835,
				"element": "C" 
			},
			{
				"x": -4.010048643,
				"y": -0.2988188099,
				"z": 1.5403340882,
				"element": "C" 
			},
			{
				"x": -4.2932119075,
				"y": 0.1957126891,
				"z": 0.2664239311,
				"element": "C" 
			},
			{
				"x": -3.5595888016,
				"y": -0.257240852,
				"z": -0.8275478144,
				"element": "C" 
			},
			{
				"x": 1.4926250022,
				"y": 0.7892595988,
				"z": 0.7208279922,
				"element": "C" 
			},
			{
				"x": 2.4220459025,
				"y": 1.4946120297,
				"z": 1.485246549,
				"element": "C" 
			},
			{
				"x": 2.8767028203,
				"y": 2.7497487468,
				"z": 1.0866745772,
				"element": "C" 
			},
			{
				"x": 2.7290209658,
				"y": 4.7982945857,
				"z": -1.4806029732,
				"element": "H" 
			},
			{
				"x": 3.7053625549,
				"y": 4.8975418443,
				"z": -0.1254111356,
				"element": "H" 
			},
			{
				"x": 1.1036819352,
				"y": 3.0412138934,
				"z": -1.8017148422,
				"element": "H" 
			},
			{
				"x": -0.1220070617,
				"y": 1.1267659931,
				"z": -2.2817365933,
				"element": "H" 
			},
			{
				"x": -1.0016908457,
				"y": 0.7099128263,
				"z": -0.8153246513,
				"element": "H" 
			},
			{
				"x": 1.2767542977,
				"y": -0.9494806273,
				"z": -1.7149548566,
				"element": "H" 
			},
			{
				"x": -2.3204004472,
				"y": -2.4143253493,
				"z": -2.3585756432,
				"element": "H" 
			},
			{
				"x": -2.7926178857,
				"y": -1.6627159503,
				"z": 2.6911409392,
				"element": "H" 
			},
			{
				"x": -4.5658906741,
				"y": 0.053365621,
				"z": 2.4038634151,
				"element": "H" 
			},
			{
				"x": -5.0736520764,
				"y": 0.9369595624,
				"z": 0.1256987513,
				"element": "H" 
			},
			{
				"x": -3.7505682644,
				"y": 0.1278009148,
				"z": -1.8244589485,
				"element": "H" 
			},
			{
				"x": 1.1459808547,
				"y": -0.1907361128,
				"z": 1.0316356598,
				"element": "H" 
			},
			{
				"x": 2.8015880932,
				"y": 1.0610165108,
				"z": 2.4065773169,
				"element": "H" 
			},
			{
				"x": 3.5997945064,
				"y": 3.2892965608,
				"z": 1.6935482479,
				"element": "H" 
			}
		],
		 "valence_orbital": [ 
			{
				"type": "occ",
				"energy": -0.25598,
				"method": "rhf"
			},
			{
				"type": "occ",
				"energy": -0.24685,
				"method": "rhf"
			},
			{
				"type": "occ",
				"energy": -0.24566,
				"method": "rhf"
			},
			{
				"type": "occ",
				"energy": -0.23346,
				"method": "rhf"
			},
			{
				"type": "occ",
				"energy": -0.20205,
				"method": "rhf"
			},
			{
				"type": "unocc",
				"energy": -0.02454,
				"method": "rhf"
			},
			{
				"type": "unocc",
				"energy": -0.02087,
				"method": "rhf"
			},
			{
				"type": "unocc",
				"energy": 0.0017,
				"method": "rhf"
			},
			{
				"type": "unocc",
				"energy": 0.01524,
				"method": "rhf"
			},
			{
				"type": "unocc",
				"energy": 0.02736,
				"method": "rhf"
			}
		],
		"cosmo_sigma_profile": { 
			"-0.025": 0.0,
			"-0.024": 0.0,
			"-0.023": 0.0,
			"-0.022": 0.0,
			"-0.021": 0.0,
			"-0.02": 0.0,
			"-0.019": 0.0,
			"-0.018": 0.0,
			"-0.017": 0.0,
			"-0.016": 0.0,
			"-0.015": 0.0,
			"-0.014": 0.505150376906,
			"-0.013": 1.51102605086,
			"-0.012": 3.54457506278,
			"-0.011": 4.07888313937,
			"-0.01": 4.08596328998,
			"-0.009": 5.0325001595,
			"-0.008": 5.48752144384,
			"-0.007": 9.91727626624,
			"-0.006": 14.007106347,
			"-0.005": 20.1257483041,
			"-0.004": 19.1799350805,
			"-0.003": 19.708610106,
			"-0.002": 21.9095666748,
			"-0.001": 18.8905349808,
			"0.0": 21.056696572,
			"0.001": 21.1684828086,
			"0.002": 22.4928542669,
			"0.003": 24.124470742,
			"0.004": 19.3218098936,
			"0.005": 12.8628409082,
			"0.006": 11.6042950722,
			"0.007": 8.99135634814,
			"0.008": 2.26595897265,
			"0.009": 2.22072949738,
			"0.01": 1.96952561751,
			"0.011": 2.16360236614,
			"0.012": 2.17816035161,
			"0.013": 3.45300528463,
			"0.014": 7.44926534806,
			"0.015": 1.51329946665,
			"0.016": 0.0,
			"0.017": 0.0,
			"0.018": 0.0,
			"0.019": 0.0,
			"0.02": 0.0,
			"0.021": 0.0,
			"0.022": 0.0,
			"0.023": 0.0,
			"0.024": 0.0,
			"0.025": 0.0
		}
	}
}
