{
	 "smiles": "NC(=O)CN1CC(O)CC1=O", 
	 "Tm": 407.15, 
	 "num_atms": 21, 
	 "gaussian": { 
		 "optdone": 1, 
		 "sigma_profile": "yes", 
		 "theory": "DFT", 
		 "functional": "B3LYP", 
		 "basiset": "6-31G**", 
		 "properties": { 
			 "R2extent": 2068.7086, 
			 "electric_dipole_moment_norm": 3.34318578754, 
			 "electric_quadrupole_moment_norm": 18.6457819608, 
			 "total_energy": -569.863929684, 
			 "HOMO_LUMO_gap": 0.24218, 
			 "cosmo_polarized_energy": -18.7, 
			 "cosmo_cavitation_energy": 24.28, 
			 "cosmo_dispersion_energy": -17.84, 
			 "cosmo_repulsion_energy": 1.48, 
			 "cosmo_total_nonelectrostatic_energy": 7.91, 
			 "SMD_solvation_energy": 4.8 
		},
		"coords": [
			{
				"x": -2.1992736788,
				"y": 1.6281839421,
				"z": 0.7940730703,
				"element": "N" 
			},
			{
				"x": -2.6264402124,
				"y": 0.8482847061,
				"z": -0.2354835576,
				"element": "C" 
			},
			{
				"x": -3.2468707066,
				"y": 1.2596194577,
				"z": -1.2055275888,
				"element": "O" 
			},
			{
				"x": -2.2575603987,
				"y": -0.6406777562,
				"z": -0.0711513512,
				"element": "C" 
			},
			{
				"x": -0.8299827174,
				"y": -0.8951440213,
				"z": -0.208607705,
				"element": "N" 
			},
			{
				"x": -0.172480621,
				"y": -1.1624326268,
				"z": -1.4840652891,
				"element": "C" 
			},
			{
				"x": 1.2309241949,
				"y": -1.6576237709,
				"z": -1.0483551603,
				"element": "C" 
			},
			{
				"x": 2.2637362119,
				"y": -1.3211853476,
				"z": -1.9540307658,
				"element": "O" 
			},
			{
				"x": 1.4532531113,
				"y": -0.9496915505,
				"z": 0.2911715621,
				"element": "C" 
			},
			{
				"x": 0.0490699842,
				"y": -0.6762989789,
				"z": 0.8158268351,
				"element": "C" 
			},
			{
				"x": -0.2645685491,
				"y": -0.2942333058,
				"z": 1.940851513,
				"element": "O" 
			},
			{
				"x": -2.3351193109,
				"y": 2.6254393123,
				"z": 0.7227022506,
				"element": "H" 
			},
			{
				"x": -1.6098484267,
				"y": 1.2386912554,
				"z": 1.5227909288,
				"element": "H" 
			},
			{
				"x": -2.7967375862,
				"y": -1.2000851191,
				"z": -0.8368605425,
				"element": "H" 
			},
			{
				"x": -2.5623707426,
				"y": -0.9891593928,
				"z": 0.9208667345,
				"element": "H" 
			},
			{
				"x": -0.7345735755,
				"y": -1.9042393537,
				"z": -2.0621278071,
				"element": "H" 
			},
			{
				"x": -0.0705309107,
				"y": -0.2529088141,
				"z": -2.0922148852,
				"element": "H" 
			},
			{
				"x": 1.1874850951,
				"y": -2.7447267646,
				"z": -0.885335558,
				"element": "H" 
			},
			{
				"x": 2.1739701589,
				"y": -1.8723253478,
				"z": -2.7421457602,
				"element": "H" 
			},
			{
				"x": 1.9546436109,
				"y": 0.0101581766,
				"z": 0.1153250419,
				"element": "H" 
			},
			{
				"x": 2.0478750692,
				"y": -1.5113447,
				"z": 1.0138980344,
				"element": "H" 
			}
		],
		 "valence_orbital": [ 
			{
				"type": "occ",
				"energy": -0.29041,
				"method": "rhf"
			},
			{
				"type": "occ",
				"energy": -0.27592,
				"method": "rhf"
			},
			{
				"type": "occ",
				"energy": -0.26156,
				"method": "rhf"
			},
			{
				"type": "occ",
				"energy": -0.26109,
				"method": "rhf"
			},
			{
				"type": "occ",
				"energy": -0.23516,
				"method": "rhf"
			},
			{
				"type": "unocc",
				"energy": 0.00702,
				"method": "rhf"
			},
			{
				"type": "unocc",
				"energy": 0.02841,
				"method": "rhf"
			},
			{
				"type": "unocc",
				"energy": 0.05428,
				"method": "rhf"
			},
			{
				"type": "unocc",
				"energy": 0.08129,
				"method": "rhf"
			},
			{
				"type": "unocc",
				"energy": 0.104,
				"method": "rhf"
			}
		],
		"cosmo_sigma_profile": { 
			"-0.025": 0.0,
			"-0.024": 0.0,
			"-0.023": 0.0,
			"-0.022": 0.0,
			"-0.021": 0.0,
			"-0.02": 0.0,
			"-0.019": 0.0,
			"-0.018": 0.0,
			"-0.017": 0.107114613145,
			"-0.016": 1.08716579248,
			"-0.015": 1.04663216518,
			"-0.014": 1.85004361846,
			"-0.013": 2.14074302586,
			"-0.012": 1.4158774641,
			"-0.011": 1.77311594231,
			"-0.01": 2.71769520079,
			"-0.009": 2.26224245486,
			"-0.008": 3.32841282554,
			"-0.007": 5.48206639529,
			"-0.006": 15.6044137491,
			"-0.005": 19.8055822565,
			"-0.004": 16.3097437033,
			"-0.003": 13.6457774961,
			"-0.002": 13.117465604,
			"-0.001": 8.64208096216,
			"0.0": 8.28311214688,
			"0.001": 5.91650344403,
			"0.002": 5.71977684065,
			"0.003": 5.21091125671,
			"0.004": 4.25323115626,
			"0.005": 4.37424654543,
			"0.006": 4.20779095327,
			"0.007": 3.51750025577,
			"0.008": 4.16922060715,
			"0.009": 2.80593332358,
			"0.01": 3.97639384267,
			"0.011": 3.92530702533,
			"0.012": 5.6376202918,
			"0.013": 9.05601897723,
			"0.014": 7.20817698945,
			"0.015": 1.30233389871,
			"0.016": 0.0,
			"0.017": 0.0,
			"0.018": 0.0,
			"0.019": 0.0,
			"0.02": 0.0,
			"0.021": 0.0,
			"0.022": 0.0,
			"0.023": 0.0,
			"0.024": 0.0,
			"0.025": 0.0
		}
	}
}
