{
	 "smiles": "CCN(CCC(O)=O)CC1=NC2=C(C=CC=C2C)C(=O)N1", 
	 "Tm": 458.15, 
	 "num_atms": 40, 
	 "gaussian": { 
		 "optdone": 1, 
		 "sigma_profile": "yes", 
		 "theory": "DFT", 
		 "functional": "B3LYP", 
		 "basiset": "6-31G**", 
		 "properties": { 
			 "R2extent": 8270.7835, 
			 "electric_dipole_moment_norm": 4.79939704234, 
			 "electric_quadrupole_moment_norm": 20.1136870785, 
			 "total_energy": -973.029776453, 
			 "HOMO_LUMO_gap": 0.18781, 
			 "cosmo_polarized_energy": -19.65, 
			 "cosmo_cavitation_energy": 43.33, 
			 "cosmo_dispersion_energy": -29.85, 
			 "cosmo_repulsion_energy": 2.33, 
			 "cosmo_total_nonelectrostatic_energy": 15.81, 
			 "SMD_solvation_energy": 7.34 
		},
		"coords": [
			{
				"x": 1.3830493968,
				"y": 1.2950060228,
				"z": 4.0144422106,
				"element": "C" 
			},
			{
				"x": 1.2923839814,
				"y": 1.9719217006,
				"z": 2.6457209914,
				"element": "C" 
			},
			{
				"x": 0.4412636398,
				"y": 1.2365866383,
				"z": 1.6984706459,
				"element": "N" 
			},
			{
				"x": -0.1906643031,
				"y": 2.0828939241,
				"z": 0.6786933154,
				"element": "C" 
			},
			{
				"x": 0.7667783205,
				"y": 2.8054265099,
				"z": -0.2870570938,
				"element": "C" 
			},
			{
				"x": 0.0181406942,
				"y": 3.66994304,
				"z": -1.2770862016,
				"element": "C" 
			},
			{
				"x": 0.8593987046,
				"y": 4.2588934688,
				"z": -2.1607131926,
				"element": "O" 
			},
			{
				"x": -1.1810655837,
				"y": 3.84068557,
				"z": -1.3025654505,
				"element": "O" 
			},
			{
				"x": 1.0515324691,
				"y": 0.0254983402,
				"z": 1.1552810544,
				"element": "C" 
			},
			{
				"x": 0.0256725435,
				"y": -1.0433632846,
				"z": 0.8227131516,
				"element": "C" 
			},
			{
				"x": 0.2709636233,
				"y": -1.9123713858,
				"z": -0.1048537873,
				"element": "N" 
			},
			{
				"x": -0.6755665586,
				"y": -2.912972216,
				"z": -0.3066604917,
				"element": "C" 
			},
			{
				"x": -1.8692139592,
				"y": -2.9914622416,
				"z": 0.4522854315,
				"element": "C" 
			},
			{
				"x": -2.8038898564,
				"y": -4.0121019169,
				"z": 0.2204859311,
				"element": "C" 
			},
			{
				"x": -2.5524269317,
				"y": -4.9545081811,
				"z": -0.7621204349,
				"element": "C" 
			},
			{
				"x": -1.3694532384,
				"y": -4.880845621,
				"z": -1.5175623733,
				"element": "C" 
			},
			{
				"x": -0.4236690721,
				"y": -3.8807444925,
				"z": -1.3140919975,
				"element": "C" 
			},
			{
				"x": 0.8409527138,
				"y": -3.8101348334,
				"z": -2.1310613705,
				"element": "C" 
			},
			{
				"x": -2.1341891639,
				"y": -1.9853878019,
				"z": 1.4898950672,
				"element": "C" 
			},
			{
				"x": -3.1222116804,
				"y": -1.921904435,
				"z": 2.2088769547,
				"element": "O" 
			},
			{
				"x": -1.1023738745,
				"y": -1.0447819157,
				"z": 1.5977912505,
				"element": "N" 
			},
			{
				"x": 0.3875973754,
				"y": 1.1809567382,
				"z": 4.4536928527,
				"element": "H" 
			},
			{
				"x": 1.994407875,
				"y": 1.8984096745,
				"z": 4.6931869254,
				"element": "H" 
			},
			{
				"x": 1.8437856479,
				"y": 0.3034574126,
				"z": 3.9583850719,
				"element": "H" 
			},
			{
				"x": 0.8432406056,
				"y": 2.9627474431,
				"z": 2.7755304382,
				"element": "H" 
			},
			{
				"x": 2.3080367643,
				"y": 2.1409484533,
				"z": 2.2465343763,
				"element": "H" 
			},
			{
				"x": -0.8085274558,
				"y": 2.8286257868,
				"z": 1.1881197216,
				"element": "H" 
			},
			{
				"x": -0.8825377098,
				"y": 1.4654844836,
				"z": 0.0972545257,
				"element": "H" 
			},
			{
				"x": 1.3852764376,
				"y": 2.1037945125,
				"z": -0.8581269856,
				"element": "H" 
			},
			{
				"x": 1.4695758235,
				"y": 3.4522297718,
				"z": 0.2520158536,
				"element": "H" 
			},
			{
				"x": 0.3013237646,
				"y": 4.792396883,
				"z": -2.7517488511,
				"element": "H" 
			},
			{
				"x": 1.6644059142,
				"y": 0.1818673656,
				"z": 0.2557610284,
				"element": "H" 
			},
			{
				"x": 1.7216919492,
				"y": -0.3948458385,
				"z": 1.9135712861,
				"element": "H" 
			},
			{
				"x": -3.7051423084,
				"y": -4.0327133299,
				"z": 0.8239259139,
				"element": "H" 
			},
			{
				"x": -3.2650479476,
				"y": -5.7512186948,
				"z": -0.9534399158,
				"element": "H" 
			},
			{
				"x": -1.1840019328,
				"y": -5.6269455376,
				"z": -2.28646999,
				"element": "H" 
			},
			{
				"x": 1.7284759661,
				"y": -3.8641367815,
				"z": -1.4924698393,
				"element": "H" 
			},
			{
				"x": 0.8832466434,
				"y": -4.6277293639,
				"z": -2.8558082782,
				"element": "H" 
			},
			{
				"x": 0.9095125915,
				"y": -2.8611625823,
				"z": -2.6726657373,
				"element": "H" 
			},
			{
				"x": -1.211431869,
				"y": -0.280443286,
				"z": 2.258867993,
				"element": "H" 
			}
		],
		 "valence_orbital": [ 
			{
				"type": "occ",
				"energy": -0.27035,
				"method": "rhf"
			},
			{
				"type": "occ",
				"energy": -0.25369,
				"method": "rhf"
			},
			{
				"type": "occ",
				"energy": -0.24624,
				"method": "rhf"
			},
			{
				"type": "occ",
				"energy": -0.23724,
				"method": "rhf"
			},
			{
				"type": "occ",
				"energy": -0.21924,
				"method": "rhf"
			},
			{
				"type": "unocc",
				"energy": -0.03143,
				"method": "rhf"
			},
			{
				"type": "unocc",
				"energy": -0.0301,
				"method": "rhf"
			},
			{
				"type": "unocc",
				"energy": 0.00115,
				"method": "rhf"
			},
			{
				"type": "unocc",
				"energy": 0.0345,
				"method": "rhf"
			},
			{
				"type": "unocc",
				"energy": 0.06334,
				"method": "rhf"
			}
		],
		"cosmo_sigma_profile": { 
			"-0.025": 0.0,
			"-0.024": 0.0,
			"-0.023": 0.0,
			"-0.022": 0.0,
			"-0.021": 0.0,
			"-0.02": 0.0,
			"-0.019": 0.00798948940078,
			"-0.018": 0.569833090083,
			"-0.017": 1.08611668778,
			"-0.016": 1.1744620385,
			"-0.015": 0.466753658236,
			"-0.014": 0.221689846689,
			"-0.013": 0.278596945311,
			"-0.012": 0.776696619374,
			"-0.011": 1.63861018575,
			"-0.01": 1.56668927653,
			"-0.009": 1.03342170329,
			"-0.008": 1.35264799856,
			"-0.007": 4.78709637147,
			"-0.006": 15.6599915561,
			"-0.005": 24.1717616993,
			"-0.004": 30.185305962,
			"-0.003": 36.9997670737,
			"-0.002": 31.9723217583,
			"-0.001": 29.8212049679,
			"0.0": 26.216194751,
			"0.001": 24.0231779819,
			"0.002": 18.1360002106,
			"0.003": 16.4687155479,
			"0.004": 15.2131990694,
			"0.005": 8.5193187742,
			"0.006": 4.75100118814,
			"0.007": 5.51651145999,
			"0.008": 5.19806469659,
			"0.009": 6.37370349121,
			"0.01": 4.82124860524,
			"0.011": 5.96358220177,
			"0.012": 8.28950579017,
			"0.013": 6.4685756686,
			"0.014": 1.496513685,
			"0.015": 0.0,
			"0.016": 0.0,
			"0.017": 0.0,
			"0.018": 0.0,
			"0.019": 0.0,
			"0.02": 0.0,
			"0.021": 0.0,
			"0.022": 0.0,
			"0.023": 0.0,
			"0.024": 0.0,
			"0.025": 0.0
		}
	}
}
