{
	 "smiles": "CC1=C(NC(=O)CCl)C=CC=C1Cl", 
	 "Tm": 345.65, 
	 "num_atms": 22, 
	 "gaussian": { 
		 "optdone": 1, 
		 "sigma_profile": "yes", 
		 "theory": "DFT", 
		 "functional": "B3LYP", 
		 "basiset": "6-31G**", 
		 "properties": { 
			 "R2extent": 4363.8177, 
			 "electric_dipole_moment_norm": 1.14849356115, 
			 "electric_quadrupole_moment_norm": 7.13268324335, 
			 "total_energy": -1398.76768269, 
			 "HOMO_LUMO_gap": 0.20247, 
			 "cosmo_polarized_energy": -9.4, 
			 "cosmo_cavitation_energy": 28.99, 
			 "cosmo_dispersion_energy": -21.45, 
			 "cosmo_repulsion_energy": 1.69, 
			 "cosmo_total_nonelectrostatic_energy": 9.23, 
			 "SMD_solvation_energy": 4.87 
		},
		"coords": [
			{
				"x": 0.2623994911,
				"y": -2.4473524386,
				"z": 1.7571393246,
				"element": "C" 
			},
			{
				"x": 0.218652106,
				"y": -2.0076977517,
				"z": 0.3129412409,
				"element": "C" 
			},
			{
				"x": -0.0664444527,
				"y": -0.6586676752,
				"z": -0.0178157842,
				"element": "C" 
			},
			{
				"x": -0.3012907873,
				"y": 0.2274785702,
				"z": 1.059558435,
				"element": "N" 
			},
			{
				"x": -0.5935953594,
				"y": 1.5578341903,
				"z": 1.0179634559,
				"element": "C" 
			},
			{
				"x": -0.7106575032,
				"y": 2.2525817347,
				"z": 0.0182568681,
				"element": "O" 
			},
			{
				"x": -0.7994381252,
				"y": 2.266902174,
				"z": 2.362981452,
				"element": "C" 
			},
			{
				"x": -0.6307881623,
				"y": 1.2658847642,
				"z": 3.8695271168,
				"element": "Cl" 
			},
			{
				"x": -0.1125968393,
				"y": -0.2269380808,
				"z": -1.3494374038,
				"element": "C" 
			},
			{
				"x": 0.126215549,
				"y": -1.1401220912,
				"z": -2.3730065164,
				"element": "C" 
			},
			{
				"x": 0.4092873437,
				"y": -2.4721561151,
				"z": -2.0899550679,
				"element": "C" 
			},
			{
				"x": 0.4505521811,
				"y": -2.8817783619,
				"z": -0.7572722851,
				"element": "C" 
			},
			{
				"x": 0.8147516073,
				"y": -4.5847803978,
				"z": -0.4586193721,
				"element": "Cl" 
			},
			{
				"x": -0.7004199711,
				"y": -2.2828979896,
				"z": 2.2575059017,
				"element": "H" 
			},
			{
				"x": 1.0288777944,
				"y": -1.9009889556,
				"z": 2.3214370372,
				"element": "H" 
			},
			{
				"x": 0.4935253368,
				"y": -3.5077217674,
				"z": 1.8409506839,
				"element": "H" 
			},
			{
				"x": -0.247458425,
				"y": -0.1695352127,
				"z": 1.9873750935,
				"element": "H" 
			},
			{
				"x": -0.0730866003,
				"y": 3.0767450298,
				"z": 2.4335045316,
				"element": "H" 
			},
			{
				"x": -1.8032331717,
				"y": 2.6920714535,
				"z": 2.3716765009,
				"element": "H" 
			},
			{
				"x": -0.3330441829,
				"y": 0.8089953956,
				"z": -1.5616982345,
				"element": "H" 
			},
			{
				"x": 0.0905260279,
				"y": -0.8058561413,
				"z": -3.4053105234,
				"element": "H" 
			},
			{
				"x": 0.5963661433,
				"y": -3.1894003333,
				"z": -2.8804024548,
				"element": "H" 
			}
		],
		 "valence_orbital": [ 
			{
				"type": "occ",
				"energy": -0.31381,
				"method": "rhf"
			},
			{
				"type": "occ",
				"energy": -0.30872,
				"method": "rhf"
			},
			{
				"type": "occ",
				"energy": -0.27218,
				"method": "rhf"
			},
			{
				"type": "occ",
				"energy": -0.24876,
				"method": "rhf"
			},
			{
				"type": "occ",
				"energy": -0.23345,
				"method": "rhf"
			},
			{
				"type": "unocc",
				"energy": -0.03098,
				"method": "rhf"
			},
			{
				"type": "unocc",
				"energy": -0.0131,
				"method": "rhf"
			},
			{
				"type": "unocc",
				"energy": 0.00296,
				"method": "rhf"
			},
			{
				"type": "unocc",
				"energy": 0.02666,
				"method": "rhf"
			},
			{
				"type": "unocc",
				"energy": 0.02935,
				"method": "rhf"
			}
		],
		"cosmo_sigma_profile": { 
			"-0.025": 0.0,
			"-0.024": 0.0,
			"-0.023": 0.0,
			"-0.022": 0.0,
			"-0.021": 0.0,
			"-0.02": 0.0,
			"-0.019": 0.0,
			"-0.018": 0.0,
			"-0.017": 0.0,
			"-0.016": 0.0,
			"-0.015": 0.0,
			"-0.014": 0.0,
			"-0.013": 0.0,
			"-0.012": 0.0,
			"-0.011": 0.0,
			"-0.01": 0.49165542965,
			"-0.009": 5.03263940357,
			"-0.008": 6.03306852818,
			"-0.007": 8.46497812876,
			"-0.006": 12.1625819334,
			"-0.005": 14.1490309609,
			"-0.004": 13.552961136,
			"-0.003": 11.9401966543,
			"-0.002": 14.3710678898,
			"-0.001": 18.4898691435,
			"0.0": 18.4614674547,
			"0.001": 18.3472523533,
			"0.002": 21.5348918552,
			"0.003": 20.4845401699,
			"0.004": 22.0612856608,
			"0.005": 15.0290254473,
			"0.006": 2.98273420272,
			"0.007": 1.38054753293,
			"0.008": 1.42554160349,
			"0.009": 1.27571457232,
			"0.01": 1.95095875461,
			"0.011": 2.32455545374,
			"0.012": 3.31899526288,
			"0.013": 1.01732365626,
			"0.014": 0.0,
			"0.015": 0.0,
			"0.016": 0.0,
			"0.017": 0.0,
			"0.018": 0.0,
			"0.019": 0.0,
			"0.02": 0.0,
			"0.021": 0.0,
			"0.022": 0.0,
			"0.023": 0.0,
			"0.024": 0.0,
			"0.025": 0.0
		}
	}
}
