{
	 "smiles": "COC(=O)C1=C(Cl)C=C(C=C1)S(N)(=O)=O", 
	 "Tm": 398.15, 
	 "num_atms": 23, 
	 "gaussian": { 
		 "optdone": 1, 
		 "sigma_profile": "yes", 
		 "theory": "DFT", 
		 "functional": "B3LYP", 
		 "basiset": "6-31G**", 
		 "properties": { 
			 "R2extent": 5919.8097, 
			 "electric_dipole_moment_norm": 3.78410768081, 
			 "electric_quadrupole_moment_norm": 21.1085596339, 
			 "total_energy": -1523.62969069, 
			 "HOMO_LUMO_gap": 0.19177, 
			 "cosmo_polarized_energy": -18.11, 
			 "cosmo_cavitation_energy": 31.31, 
			 "cosmo_dispersion_energy": -23.49, 
			 "cosmo_repulsion_energy": 1.81, 
			 "cosmo_total_nonelectrostatic_energy": 9.63, 
			 "SMD_solvation_energy": 6.32 
		},
		"coords": [
			{
				"x": 4.9275137377,
				"y": -1.5818199728,
				"z": 1.2484022721,
				"element": "C" 
			},
			{
				"x": 3.6188251325,
				"y": -1.1394139565,
				"z": 0.8499360148,
				"element": "O" 
			},
			{
				"x": 3.3798360756,
				"y": -1.1878726029,
				"z": -0.4816704828,
				"element": "C" 
			},
			{
				"x": 4.1915320117,
				"y": -1.5885171847,
				"z": -1.28589815,
				"element": "O" 
			},
			{
				"x": 2.0116299592,
				"y": -0.6626985028,
				"z": -0.8021978874,
				"element": "C" 
			},
			{
				"x": 1.3347690183,
				"y": -0.9720175004,
				"z": -1.998527316,
				"element": "C" 
			},
			{
				"x": 1.9721726102,
				"y": -2.0751652228,
				"z": -3.1931994403,
				"element": "Cl" 
			},
			{
				"x": 0.0774772897,
				"y": -0.4249167713,
				"z": -2.265115285,
				"element": "C" 
			},
			{
				"x": -0.4976649917,
				"y": 0.4435236031,
				"z": -1.3434583711,
				"element": "C" 
			},
			{
				"x": 0.1374630623,
				"y": 0.7585668556,
				"z": -0.1429384598,
				"element": "C" 
			},
			{
				"x": 1.3824716057,
				"y": 0.198486517,
				"z": 0.1145161726,
				"element": "C" 
			},
			{
				"x": -2.1090041148,
				"y": 1.1545541907,
				"z": -1.7065667109,
				"element": "S" 
			},
			{
				"x": -1.7155530374,
				"y": 2.6287975672,
				"z": -2.4362242896,
				"element": "N" 
			},
			{
				"x": -2.7442568784,
				"y": 0.3073057465,
				"z": -2.718452722,
				"element": "O" 
			},
			{
				"x": -2.7469676049,
				"y": 1.4734097446,
				"z": -0.4273589972,
				"element": "O" 
			},
			{
				"x": 5.0861686012,
				"y": -2.6211170588,
				"z": 0.9513884053,
				"element": "H" 
			},
			{
				"x": 5.7001115638,
				"y": -0.9614146479,
				"z": 0.7875213075,
				"element": "H" 
			},
			{
				"x": 4.9510839596,
				"y": -1.4838806604,
				"z": 2.3333710315,
				"element": "H" 
			},
			{
				"x": -0.4508729079,
				"y": -0.689703254,
				"z": -3.1729730496,
				"element": "H" 
			},
			{
				"x": -0.3430224038,
				"y": 1.4118862164,
				"z": 0.5760347172,
				"element": "H" 
			},
			{
				"x": 1.8946082354,
				"y": 0.4220517207,
				"z": 1.0420653042,
				"element": "H" 
			},
			{
				"x": -2.1531688029,
				"y": 3.3872525843,
				"z": -1.9198264501,
				"element": "H" 
			},
			{
				"x": -2.0042521211,
				"y": 2.621702589,
				"z": -3.4109276134,
				"element": "H" 
			}
		],
		 "valence_orbital": [ 
			{
				"type": "occ",
				"energy": -0.31243,
				"method": "rhf"
			},
			{
				"type": "occ",
				"energy": -0.31071,
				"method": "rhf"
			},
			{
				"type": "occ",
				"energy": -0.2848,
				"method": "rhf"
			},
			{
				"type": "occ",
				"energy": -0.27756,
				"method": "rhf"
			},
			{
				"type": "occ",
				"energy": -0.26707,
				"method": "rhf"
			},
			{
				"type": "unocc",
				"energy": -0.0753,
				"method": "rhf"
			},
			{
				"type": "unocc",
				"energy": -0.03653,
				"method": "rhf"
			},
			{
				"type": "unocc",
				"energy": 0.01481,
				"method": "rhf"
			},
			{
				"type": "unocc",
				"energy": 0.02046,
				"method": "rhf"
			},
			{
				"type": "unocc",
				"energy": 0.05253,
				"method": "rhf"
			}
		],
		"cosmo_sigma_profile": { 
			"-0.025": 0.0,
			"-0.024": 0.0,
			"-0.023": 0.0,
			"-0.022": 0.0,
			"-0.021": 0.0,
			"-0.02": 0.0,
			"-0.019": 0.0,
			"-0.018": 0.0,
			"-0.017": 0.0,
			"-0.016": 0.131412943851,
			"-0.015": 2.03471634183,
			"-0.014": 2.36380020081,
			"-0.013": 2.6637505005,
			"-0.012": 2.29079986081,
			"-0.011": 1.93311947508,
			"-0.01": 1.56583517735,
			"-0.009": 2.40178554794,
			"-0.008": 4.7969622948,
			"-0.007": 8.11862020775,
			"-0.006": 11.5140001973,
			"-0.005": 15.1115394851,
			"-0.004": 18.2017914102,
			"-0.003": 17.8574965174,
			"-0.002": 14.6874692205,
			"-0.001": 22.0145228345,
			"0.0": 20.6823337862,
			"0.001": 13.7652187207,
			"0.002": 12.1825814958,
			"0.003": 12.2615965146,
			"0.004": 9.19003711845,
			"0.005": 6.26248654361,
			"0.006": 5.55945009072,
			"0.007": 6.66619447627,
			"0.008": 5.36515227647,
			"0.009": 6.55404578605,
			"0.01": 11.88754318,
			"0.011": 12.3633724627,
			"0.012": 2.16611800549,
			"0.013": 0.0,
			"0.014": 0.0,
			"0.015": 0.0,
			"0.016": 0.0,
			"0.017": 0.0,
			"0.018": 0.0,
			"0.019": 0.0,
			"0.02": 0.0,
			"0.021": 0.0,
			"0.022": 0.0,
			"0.023": 0.0,
			"0.024": 0.0,
			"0.025": 0.0
		}
	}
}
