{
	 "smiles": "CC12CCC3C(CC=C4CC(Cl)CCC34C)C1CCC2=O", 
	 "Tm": 430.15, 
	 "num_atms": 48, 
	 "gaussian": { 
		 "optdone": 1, 
		 "sigma_profile": "yes", 
		 "theory": "DFT", 
		 "functional": "B3LYP", 
		 "basiset": "6-31G**", 
		 "properties": { 
			 "R2extent": 8530.2732, 
			 "electric_dipole_moment_norm": 2.38816833996, 
			 "electric_quadrupole_moment_norm": 25.5719138942, 
			 "total_energy": -1275.71073259, 
			 "HOMO_LUMO_gap": 0.217, 
			 "cosmo_polarized_energy": -11.33, 
			 "cosmo_cavitation_energy": 43.99, 
			 "cosmo_dispersion_energy": -30.48, 
			 "cosmo_repulsion_energy": 2.27, 
			 "cosmo_total_nonelectrostatic_energy": 15.77, 
			 "SMD_solvation_energy": 6.11 
		},
		"coords": [
			{
				"x": -0.4678867828,
				"y": 2.7913060557,
				"z": 1.2753960071,
				"element": "C" 
			},
			{
				"x": 0.1937677057,
				"y": 1.7194004622,
				"z": 2.1799668546,
				"element": "C" 
			},
			{
				"x": -0.8252890079,
				"y": 1.0870403913,
				"z": 3.1333191947,
				"element": "C" 
			},
			{
				"x": -1.7971178659,
				"y": 0.1879570258,
				"z": 2.3428344702,
				"element": "C" 
			},
			{
				"x": -1.1159975805,
				"y": -0.9112624269,
				"z": 1.482887785,
				"element": "C" 
			},
			{
				"x": 0.0745177065,
				"y": -0.3885220638,
				"z": 0.6159985126,
				"element": "C" 
			},
			{
				"x": -0.380642973,
				"y": 0.0344014115,
				"z": -0.7969234392,
				"element": "C" 
			},
			{
				"x": -0.9319787716,
				"y": -1.2044936447,
				"z": -1.4584382017,
				"element": "C" 
			},
			{
				"x": -1.6594774572,
				"y": -2.087962142,
				"z": -0.765008333,
				"element": "C" 
			},
			{
				"x": -2.0847882052,
				"y": -3.421610679,
				"z": -1.3207790273,
				"element": "C" 
			},
			{
				"x": -1.556130384,
				"y": -4.5900582536,
				"z": -0.4569294372,
				"element": "C" 
			},
			{
				"x": 0.0351894009,
				"y": -5.2299059481,
				"z": -1.1200219648,
				"element": "Cl" 
			},
			{
				"x": -1.3755471819,
				"y": -4.1839034827,
				"z": 1.0151852551,
				"element": "C" 
			},
			{
				"x": -2.4206827961,
				"y": -3.1254579548,
				"z": 1.3994171358,
				"element": "C" 
			},
			{
				"x": -2.1639141143,
				"y": -1.7799073332,
				"z": 0.6520029661,
				"element": "C" 
			},
			{
				"x": -3.5309331309,
				"y": -1.0683996299,
				"z": 0.4636816369,
				"element": "C" 
			},
			{
				"x": 0.9333011549,
				"y": 0.5811034319,
				"z": 1.4414435434,
				"element": "C" 
			},
			{
				"x": 2.1824298505,
				"y": 1.2518000716,
				"z": 0.8362932975,
				"element": "C" 
			},
			{
				"x": 2.6335931886,
				"y": 2.1990558873,
				"z": 1.9731142664,
				"element": "C" 
			},
			{
				"x": 1.3795824374,
				"y": 2.4408178544,
				"z": 2.8377269627,
				"element": "C" 
			},
			{
				"x": 1.3438827917,
				"y": 3.094171505,
				"z": 3.8580684881,
				"element": "O" 
			},
			{
				"x": 0.2317073776,
				"y": 3.2133865607,
				"z": 0.5474497342,
				"element": "H" 
			},
			{
				"x": -1.3178450507,
				"y": 2.3930365994,
				"z": 0.7181655139,
				"element": "H" 
			},
			{
				"x": -0.8295973338,
				"y": 3.6133552778,
				"z": 1.9015882918,
				"element": "H" 
			},
			{
				"x": -1.3839161174,
				"y": 1.8549525358,
				"z": 3.6799414131,
				"element": "H" 
			},
			{
				"x": -0.2908124041,
				"y": 0.4948181423,
				"z": 3.8876959765,
				"element": "H" 
			},
			{
				"x": -2.4869759443,
				"y": -0.2928495388,
				"z": 3.0470006275,
				"element": "H" 
			},
			{
				"x": -2.4198406703,
				"y": 0.8287612347,
				"z": 1.7122613436,
				"element": "H" 
			},
			{
				"x": -0.6530730399,
				"y": -1.6004476064,
				"z": 2.2029135478,
				"element": "H" 
			},
			{
				"x": 0.7169677921,
				"y": -1.2600762838,
				"z": 0.4318617053,
				"element": "H" 
			},
			{
				"x": -1.1241645011,
				"y": 0.8417442709,
				"z": -0.7641021242,
				"element": "H" 
			},
			{
				"x": 0.4658538277,
				"y": 0.4229441863,
				"z": -1.3733427098,
				"element": "H" 
			},
			{
				"x": -0.6470411931,
				"y": -1.4235309194,
				"z": -2.48577376,
				"element": "H" 
			},
			{
				"x": -1.7728603504,
				"y": -3.5434512049,
				"z": -2.3604303235,
				"element": "H" 
			},
			{
				"x": -3.1821596288,
				"y": -3.4988190886,
				"z": -1.3099546011,
				"element": "H" 
			},
			{
				"x": -2.2297205852,
				"y": -5.4447654557,
				"z": -0.5435715439,
				"element": "H" 
			},
			{
				"x": -0.3728375314,
				"y": -3.7641275338,
				"z": 1.1487498678,
				"element": "H" 
			},
			{
				"x": -1.4363905346,
				"y": -5.0679842423,
				"z": 1.6570844169,
				"element": "H" 
			},
			{
				"x": -3.4245570468,
				"y": -3.5033684912,
				"z": 1.1653770167,
				"element": "H" 
			},
			{
				"x": -2.4099045645,
				"y": -2.9549682905,
				"z": 2.4817833792,
				"element": "H" 
			},
			{
				"x": -3.4248601982,
				"y": -0.1001118063,
				"z": -0.0326175013,
				"element": "H" 
			},
			{
				"x": -4.1822740026,
				"y": -1.6840682524,
				"z": -0.1654072048,
				"element": "H" 
			},
			{
				"x": -4.0495017988,
				"y": -0.915024915,
				"z": 1.4150149422,
				"element": "H" 
			},
			{
				"x": 1.3232418878,
				"y": -0.0482351491,
				"z": 2.2609555816,
				"element": "H" 
			},
			{
				"x": 2.9533333684,
				"y": 0.525507107,
				"z": 0.5609295633,
				"element": "H" 
			},
			{
				"x": 1.9357780614,
				"y": 1.8181038785,
				"z": -0.0681491176,
				"element": "H" 
			},
			{
				"x": 3.0502712168,
				"y": 3.1532797253,
				"z": 1.6355099745,
				"element": "H" 
			},
			{
				"x": 3.3947009792,
				"y": 1.7362687216,
				"z": 2.612530017,
				"element": "H" 
			}
		],
		 "valence_orbital": [ 
			{
				"type": "occ",
				"energy": -0.2885,
				"method": "rhf"
			},
			{
				"type": "occ",
				"energy": -0.28742,
				"method": "rhf"
			},
			{
				"type": "occ",
				"energy": -0.28208,
				"method": "rhf"
			},
			{
				"type": "occ",
				"energy": -0.23721,
				"method": "rhf"
			},
			{
				"type": "occ",
				"energy": -0.23005,
				"method": "rhf"
			},
			{
				"type": "unocc",
				"energy": -0.01305,
				"method": "rhf"
			},
			{
				"type": "unocc",
				"energy": 0.01315,
				"method": "rhf"
			},
			{
				"type": "unocc",
				"energy": 0.02437,
				"method": "rhf"
			},
			{
				"type": "unocc",
				"energy": 0.06027,
				"method": "rhf"
			},
			{
				"type": "unocc",
				"energy": 0.07382,
				"method": "rhf"
			}
		],
		"cosmo_sigma_profile": { 
			"-0.025": 0.0,
			"-0.024": 0.0,
			"-0.023": 0.0,
			"-0.022": 0.0,
			"-0.021": 0.0,
			"-0.02": 0.0,
			"-0.019": 0.0,
			"-0.018": 0.0,
			"-0.017": 0.0,
			"-0.016": 0.0,
			"-0.015": 0.0,
			"-0.014": 0.0,
			"-0.013": 0.0,
			"-0.012": 0.0,
			"-0.011": 0.0,
			"-0.01": 0.0,
			"-0.009": 0.0,
			"-0.008": 0.0,
			"-0.007": 0.17462209934,
			"-0.006": 3.30006965415,
			"-0.005": 14.0059578507,
			"-0.004": 27.1840158003,
			"-0.003": 43.5362253152,
			"-0.002": 56.9993940166,
			"-0.001": 50.207363165,
			"0.0": 41.580346856,
			"0.001": 25.2463912502,
			"0.002": 12.8180928038,
			"0.003": 8.62203296064,
			"0.004": 7.99940824963,
			"0.005": 8.50013648695,
			"0.006": 10.2568676354,
			"0.007": 11.9846506594,
			"0.008": 3.5517370221,
			"0.009": 1.63619786749,
			"0.01": 2.07663503765,
			"0.011": 2.84596015515,
			"0.012": 4.6702035964,
			"0.013": 3.19251767647,
			"0.014": 0.379889093547,
			"0.015": 0.0,
			"0.016": 0.0,
			"0.017": 0.0,
			"0.018": 0.0,
			"0.019": 0.0,
			"0.02": 0.0,
			"0.021": 0.0,
			"0.022": 0.0,
			"0.023": 0.0,
			"0.024": 0.0,
			"0.025": 0.0
		}
	}
}
