{
	 "smiles": "CCC(C)NC1=C(C=C(C=C1[N+]([O-])=O)C(C)(C)C)[N+]([O-])=O", 
	 "Tm": 333.15, 
	 "num_atms": 42, 
	 "gaussian": { 
		 "optdone": 1, 
		 "sigma_profile": "yes", 
		 "theory": "DFT", 
		 "functional": "B3LYP", 
		 "basiset": "6-31G**", 
		 "properties": { 
			 "R2extent": 7319.0123, 
			 "electric_dipole_moment_norm": 2.09032461833, 
			 "electric_quadrupole_moment_norm": 25.5174207541, 
			 "total_energy": -1011.11506533, 
			 "HOMO_LUMO_gap": 0.12715, 
			 "cosmo_polarized_energy": -11.64, 
			 "cosmo_cavitation_energy": 43.38, 
			 "cosmo_dispersion_energy": -29.14, 
			 "cosmo_repulsion_energy": 2.23, 
			 "cosmo_total_nonelectrostatic_energy": 16.47, 
			 "SMD_solvation_energy": 11.27 
		},
		"coords": [
			{
				"x": -1.4874482339,
				"y": 1.3086636024,
				"z": -5.0157992744,
				"element": "C" 
			},
			{
				"x": -2.2421152457,
				"y": 1.3590596342,
				"z": -3.6816392872,
				"element": "C" 
			},
			{
				"x": -1.3689497585,
				"y": 1.6258051918,
				"z": -2.4385781243,
				"element": "C" 
			},
			{
				"x": -0.6691489197,
				"y": 2.995457116,
				"z": -2.4702496449,
				"element": "C" 
			},
			{
				"x": -0.3448239401,
				"y": 0.5758406975,
				"z": -2.2896628483,
				"element": "N" 
			},
			{
				"x": 0.0089224839,
				"y": -0.1355593597,
				"z": -1.1973569958,
				"element": "C" 
			},
			{
				"x": -0.8492449286,
				"y": -0.4673139031,
				"z": -0.1008483108,
				"element": "C" 
			},
			{
				"x": -0.3932268734,
				"y": -1.0559065443,
				"z": 1.0756736072,
				"element": "C" 
			},
			{
				"x": 0.9335741349,
				"y": -1.4574171062,
				"z": 1.2496879095,
				"element": "C" 
			},
			{
				"x": 1.7774807882,
				"y": -1.2440750665,
				"z": 0.1618594829,
				"element": "C" 
			},
			{
				"x": 1.3572252651,
				"y": -0.6158989012,
				"z": -1.0120004813,
				"element": "C" 
			},
			{
				"x": 2.3901468795,
				"y": -0.4401769426,
				"z": -2.0248497872,
				"element": "N" 
			},
			{
				"x": 2.0848002722,
				"y": 0.0538776588,
				"z": -3.1285794486,
				"element": "O" 
			},
			{
				"x": 3.5399147371,
				"y": -0.791312832,
				"z": -1.7620842821,
				"element": "O" 
			},
			{
				"x": 1.456966929,
				"y": -2.1267158262,
				"z": 2.5313714234,
				"element": "C" 
			},
			{
				"x": 0.3535149687,
				"y": -2.2630442296,
				"z": 3.5971694484,
				"element": "C" 
			},
			{
				"x": 2.6035016226,
				"y": -1.2713267212,
				"z": 3.1209867653,
				"element": "C" 
			},
			{
				"x": 1.991031374,
				"y": -3.539025495,
				"z": 2.1949511633,
				"element": "C" 
			},
			{
				"x": -2.3085672213,
				"y": -0.3518074108,
				"z": -0.188260455,
				"element": "N" 
			},
			{
				"x": -2.8405157552,
				"y": -0.5682365906,
				"z": -1.279252792,
				"element": "O" 
			},
			{
				"x": -2.9287827946,
				"y": -0.1121999778,
				"z": 0.849346567,
				"element": "O" 
			},
			{
				"x": -2.1825518164,
				"y": 1.09544461,
				"z": -5.8335244573,
				"element": "H" 
			},
			{
				"x": -0.7306173979,
				"y": 0.5168425286,
				"z": -5.0228466833,
				"element": "H" 
			},
			{
				"x": -0.9897185681,
				"y": 2.2551209487,
				"z": -5.2510174923,
				"element": "H" 
			},
			{
				"x": -3.0062720469,
				"y": 2.1454888639,
				"z": -3.7214760819,
				"element": "H" 
			},
			{
				"x": -2.7678326409,
				"y": 0.4144735814,
				"z": -3.5209492997,
				"element": "H" 
			},
			{
				"x": -2.0202414114,
				"y": 1.6076415939,
				"z": -1.566743995,
				"element": "H" 
			},
			{
				"x": -1.4080233318,
				"y": 3.792959555,
				"z": -2.5996488562,
				"element": "H" 
			},
			{
				"x": 0.049499137,
				"y": 3.0655993129,
				"z": -3.2928032915,
				"element": "H" 
			},
			{
				"x": -0.1298964803,
				"y": 3.1774648561,
				"z": -1.5357782349,
				"element": "H" 
			},
			{
				"x": 0.4190751222,
				"y": 0.6294775458,
				"z": -2.9592037454,
				"element": "H" 
			},
			{
				"x": -1.1366013815,
				"y": -1.2245194757,
				"z": 1.8432922875,
				"element": "H" 
			},
			{
				"x": 2.8152309405,
				"y": -1.5498483026,
				"z": 0.1919774418,
				"element": "H" 
			},
			{
				"x": -0.472749508,
				"y": -2.8942682147,
				"z": 3.2533989291,
				"element": "H" 
			},
			{
				"x": -0.0556490302,
				"y": -1.2901199458,
				"z": 3.8893067489,
				"element": "H" 
			},
			{
				"x": 0.7680408278,
				"y": -2.7285613115,
				"z": 4.4965605297,
				"element": "H" 
			},
			{
				"x": 2.2521563774,
				"y": -0.2672330746,
				"z": 3.3800330969,
				"element": "H" 
			},
			{
				"x": 3.4354627232,
				"y": -1.1646019889,
				"z": 2.4180680197,
				"element": "H" 
			},
			{
				"x": 2.9962074734,
				"y": -1.738864643,
				"z": 4.0304380403,
				"element": "H" 
			},
			{
				"x": 2.3738348557,
				"y": -4.0249481875,
				"z": 3.0989701614,
				"element": "H" 
			},
			{
				"x": 1.1991219196,
				"y": -4.1705944914,
				"z": 1.7793780401,
				"element": "H" 
			},
			{
				"x": 2.8079684524,
				"y": -3.5035407543,
				"z": 1.4676842071,
				"element": "H" 
			}
		],
		 "valence_orbital": [ 
			{
				"type": "occ",
				"energy": -0.30688,
				"method": "rhf"
			},
			{
				"type": "occ",
				"energy": -0.30261,
				"method": "rhf"
			},
			{
				"type": "occ",
				"energy": -0.29652,
				"method": "rhf"
			},
			{
				"type": "occ",
				"energy": -0.28176,
				"method": "rhf"
			},
			{
				"type": "occ",
				"energy": -0.22782,
				"method": "rhf"
			},
			{
				"type": "unocc",
				"energy": -0.10067,
				"method": "rhf"
			},
			{
				"type": "unocc",
				"energy": -0.08292,
				"method": "rhf"
			},
			{
				"type": "unocc",
				"energy": -0.01452,
				"method": "rhf"
			},
			{
				"type": "unocc",
				"energy": -0.00435,
				"method": "rhf"
			},
			{
				"type": "unocc",
				"energy": 0.0655,
				"method": "rhf"
			}
		],
		"cosmo_sigma_profile": { 
			"-0.025": 0.0,
			"-0.024": 0.0,
			"-0.023": 0.0,
			"-0.022": 0.0,
			"-0.021": 0.0,
			"-0.02": 0.0,
			"-0.019": 0.0,
			"-0.018": 0.0,
			"-0.017": 0.0,
			"-0.016": 0.0,
			"-0.015": 0.0,
			"-0.014": 0.0,
			"-0.013": 0.0,
			"-0.012": 0.0,
			"-0.011": 0.0,
			"-0.01": 0.0,
			"-0.009": 0.107774227506,
			"-0.008": 0.988535604653,
			"-0.007": 3.78898084893,
			"-0.006": 9.01914808013,
			"-0.005": 11.95107917,
			"-0.004": 24.403708676,
			"-0.003": 47.7376627606,
			"-0.002": 41.0405952523,
			"-0.001": 43.5231243573,
			"0.0": 44.2654085356,
			"0.001": 38.739778185,
			"0.002": 9.50181605024,
			"0.003": 5.42873897147,
			"0.004": 4.95140568812,
			"0.005": 6.10373973224,
			"0.006": 7.68265588683,
			"0.007": 11.2282324992,
			"0.008": 13.955891631,
			"0.009": 8.26645640545,
			"0.01": 6.59011182858,
			"0.011": 0.850674339781,
			"0.012": 0.0,
			"0.013": 0.0,
			"0.014": 0.0,
			"0.015": 0.0,
			"0.016": 0.0,
			"0.017": 0.0,
			"0.018": 0.0,
			"0.019": 0.0,
			"0.02": 0.0,
			"0.021": 0.0,
			"0.022": 0.0,
			"0.023": 0.0,
			"0.024": 0.0,
			"0.025": 0.0
		}
	}
}
