{
	 "smiles": "CC1=C(C=CC=C1C(N)=O)[N+]([O-])=O", 
	 "Tm": 437.15, 
	 "num_atms": 21, 
	 "gaussian": { 
		 "optdone": 1, 
		 "sigma_profile": "yes", 
		 "theory": "DFT", 
		 "functional": "B3LYP", 
		 "basiset": "6-31G**", 
		 "properties": { 
			 "R2extent": 2937.1418, 
			 "electric_dipole_moment_norm": 5.84848441906, 
			 "electric_quadrupole_moment_norm": 17.0787899633, 
			 "total_energy": -644.762153955, 
			 "HOMO_LUMO_gap": 0.17393, 
			 "cosmo_polarized_energy": -16.61, 
			 "cosmo_cavitation_energy": 25.62, 
			 "cosmo_dispersion_energy": -18.78, 
			 "cosmo_repulsion_energy": 1.49, 
			 "cosmo_total_nonelectrostatic_energy": 8.33, 
			 "SMD_solvation_energy": 7.31 
		},
		"coords": [
			{
				"x": 0.9962876657,
				"y": -0.604002063,
				"z": -1.6854732431,
				"element": "C" 
			},
			{
				"x": -0.2091391311,
				"y": 0.1286769824,
				"z": -1.144115437,
				"element": "C" 
			},
			{
				"x": -1.52809025,
				"y": -0.3342393725,
				"z": -1.3165941719,
				"element": "C" 
			},
			{
				"x": -2.655231972,
				"y": 0.3598041191,
				"z": -0.871988193,
				"element": "C" 
			},
			{
				"x": -2.4933445782,
				"y": 1.5602797365,
				"z": -0.1957164911,
				"element": "C" 
			},
			{
				"x": -1.2068912658,
				"y": 2.058331073,
				"z": -0.0023169187,
				"element": "C" 
			},
			{
				"x": -0.0803380106,
				"y": 1.3685880275,
				"z": -0.470865826,
				"element": "C" 
			},
			{
				"x": 1.2816805179,
				"y": 1.952493906,
				"z": -0.1767267661,
				"element": "C" 
			},
			{
				"x": 1.3661419751,
				"y": 3.3166753709,
				"z": -0.312796587,
				"element": "N" 
			},
			{
				"x": 2.2289152491,
				"y": 1.2790612684,
				"z": 0.203949329,
				"element": "O" 
			},
			{
				"x": -1.8112973639,
				"y": -1.61940525,
				"z": -1.987706049,
				"element": "N" 
			},
			{
				"x": -2.8907348985,
				"y": -1.7235171358,
				"z": -2.5712283569,
				"element": "O" 
			},
			{
				"x": -0.9743795812,
				"y": -2.5169492794,
				"z": -1.9065706351,
				"element": "O" 
			},
			{
				"x": 0.7735614976,
				"y": -1.0838395227,
				"z": -2.6391235326,
				"element": "H" 
			},
			{
				"x": 1.3024934273,
				"y": -1.3958139319,
				"z": -0.9963488616,
				"element": "H" 
			},
			{
				"x": 1.8413186078,
				"y": 0.0715097763,
				"z": -1.8005872439,
				"element": "H" 
			},
			{
				"x": -3.63414979,
				"y": -0.0623413448,
				"z": -1.0614478884,
				"element": "H" 
			},
			{
				"x": -3.3570546627,
				"y": 2.0990685218,
				"z": 0.1796533379,
				"element": "H" 
			},
			{
				"x": -1.0646447263,
				"y": 2.9872097935,
				"z": 0.5411522804,
				"element": "H" 
			},
			{
				"x": 0.702839437,
				"y": 3.8242829636,
				"z": -0.8769932517,
				"element": "H" 
			},
			{
				"x": 2.2833578524,
				"y": 3.7204263611,
				"z": -0.1866554941,
				"element": "H" 
			}
		],
		 "valence_orbital": [ 
			{
				"type": "occ",
				"energy": -0.29901,
				"method": "rhf"
			},
			{
				"type": "occ",
				"energy": -0.28446,
				"method": "rhf"
			},
			{
				"type": "occ",
				"energy": -0.27875,
				"method": "rhf"
			},
			{
				"type": "occ",
				"energy": -0.27348,
				"method": "rhf"
			},
			{
				"type": "occ",
				"energy": -0.26061,
				"method": "rhf"
			},
			{
				"type": "unocc",
				"energy": -0.08668,
				"method": "rhf"
			},
			{
				"type": "unocc",
				"energy": -0.04779,
				"method": "rhf"
			},
			{
				"type": "unocc",
				"energy": -0.01541,
				"method": "rhf"
			},
			{
				"type": "unocc",
				"energy": 0.03425,
				"method": "rhf"
			},
			{
				"type": "unocc",
				"energy": 0.06933,
				"method": "rhf"
			}
		],
		"cosmo_sigma_profile": { 
			"-0.025": 0.0,
			"-0.024": 0.0,
			"-0.023": 0.0,
			"-0.022": 0.0,
			"-0.021": 0.0,
			"-0.02": 0.0,
			"-0.019": 0.0,
			"-0.018": 0.0,
			"-0.017": 0.0,
			"-0.016": 0.0,
			"-0.015": 0.205789194102,
			"-0.014": 1.91746375522,
			"-0.013": 2.59405313398,
			"-0.012": 2.38141335619,
			"-0.011": 2.70574390719,
			"-0.01": 2.16597921048,
			"-0.009": 2.23675349769,
			"-0.008": 3.84220147413,
			"-0.007": 10.1353082402,
			"-0.006": 10.4415784303,
			"-0.005": 9.85372262868,
			"-0.004": 10.3442830356,
			"-0.003": 13.4093781825,
			"-0.002": 12.5550710108,
			"-0.001": 15.2714862619,
			"0.0": 17.1616562948,
			"0.001": 15.4097596975,
			"0.002": 11.6411010779,
			"0.003": 4.79545711889,
			"0.004": 6.20535273201,
			"0.005": 4.27595016864,
			"0.006": 5.9838808336,
			"0.007": 9.78520311647,
			"0.008": 8.34321034468,
			"0.009": 5.6281214599,
			"0.01": 4.09371986654,
			"0.011": 1.62325578769,
			"0.012": 2.35574933858,
			"0.013": 4.8666661046,
			"0.014": 1.96363764516,
			"0.015": 0.0,
			"0.016": 0.0,
			"0.017": 0.0,
			"0.018": 0.0,
			"0.019": 0.0,
			"0.02": 0.0,
			"0.021": 0.0,
			"0.022": 0.0,
			"0.023": 0.0,
			"0.024": 0.0,
			"0.025": 0.0
		}
	}
}
