{
	 "smiles": "CC(C)(C1=CC=C(OCC2CO2)C=C1)C1=CC=C(OCC2CO2)C=C1", 
	 "Tm": 283.15, 
	 "num_atms": 49, 
	 "gaussian": { 
		 "optdone": 1, 
		 "sigma_profile": "yes", 
		 "theory": "DFT", 
		 "functional": "B3LYP", 
		 "basiset": "6-31G**", 
		 "properties": { 
			 "R2extent": 16237.6256, 
			 "electric_dipole_moment_norm": 1.9198901479, 
			 "electric_quadrupole_moment_norm": 20.5010813912, 
			 "total_energy": -1115.47979332, 
			 "HOMO_LUMO_gap": 0.20324, 
			 "cosmo_polarized_energy": -15.36, 
			 "cosmo_cavitation_energy": 51.4, 
			 "cosmo_dispersion_energy": -35.57, 
			 "cosmo_repulsion_energy": 2.73, 
			 "cosmo_total_nonelectrostatic_energy": 18.56, 
			 "SMD_solvation_energy": 8.9 
		},
		"coords": [
			{
				"x": -0.5996334492,
				"y": 0.3934257617,
				"z": 2.5155174519,
				"element": "C" 
			},
			{
				"x": -1.1251802773,
				"y": -0.0771399542,
				"z": 1.1378479046,
				"element": "C" 
			},
			{
				"x": -2.5529897798,
				"y": -0.6347055424,
				"z": 1.3529621685,
				"element": "C" 
			},
			{
				"x": -0.153323121,
				"y": -1.1506733209,
				"z": 0.6087282995,
				"element": "C" 
			},
			{
				"x": 1.1380778117,
				"y": -0.7724193025,
				"z": 0.1932439423,
				"element": "C" 
			},
			{
				"x": 2.0681655947,
				"y": -1.7037190679,
				"z": -0.243307359,
				"element": "C" 
			},
			{
				"x": 1.7344279448,
				"y": -3.0658009684,
				"z": -0.2840190288,
				"element": "C" 
			},
			{
				"x": 2.7179471856,
				"y": -3.9079937751,
				"z": -0.727582946,
				"element": "O" 
			},
			{
				"x": 2.4214109601,
				"y": -5.293740413,
				"z": -0.8391550446,
				"element": "C" 
			},
			{
				"x": 3.6440249696,
				"y": -5.9664071325,
				"z": -1.4139934329,
				"element": "C" 
			},
			{
				"x": 4.6368549707,
				"y": -6.615562124,
				"z": -0.5489822744,
				"element": "C" 
			},
			{
				"x": 3.6682821618,
				"y": -7.3888970484,
				"z": -1.2724705257,
				"element": "O" 
			},
			{
				"x": 0.4603174793,
				"y": -3.4684060759,
				"z": 0.118430957,
				"element": "C" 
			},
			{
				"x": -0.4638431517,
				"y": -2.5111372034,
				"z": 0.5585163893,
				"element": "C" 
			},
			{
				"x": -1.2237707295,
				"y": 1.0806754895,
				"z": 0.1247237339,
				"element": "C" 
			},
			{
				"x": -1.5190888447,
				"y": 0.8000408003,
				"z": -1.2229975362,
				"element": "C" 
			},
			{
				"x": -1.6712512975,
				"y": 1.8077180829,
				"z": -2.1637679884,
				"element": "C" 
			},
			{
				"x": -1.5247639383,
				"y": 3.1517036119,
				"z": -1.7885112015,
				"element": "C" 
			},
			{
				"x": -1.7038896415,
				"y": 4.0646894745,
				"z": -2.7952043375,
				"element": "O" 
			},
			{
				"x": -1.6558457315,
				"y": 5.4583708569,
				"z": -2.5134934995,
				"element": "C" 
			},
			{
				"x": -0.2357095846,
				"y": 5.9924010348,
				"z": -2.4470259431,
				"element": "C" 
			},
			{
				"x": 0.3389894857,
				"y": 6.6194144795,
				"z": -1.2475495398,
				"element": "C" 
			},
			{
				"x": -0.1472840728,
				"y": 7.4168947149,
				"z": -2.3333266884,
				"element": "O" 
			},
			{
				"x": -1.2213611245,
				"y": 3.4568510251,
				"z": -0.4614575709,
				"element": "C" 
			},
			{
				"x": -1.0792919003,
				"y": 2.4246404858,
				"z": 0.4754622628,
				"element": "C" 
			},
			{
				"x": 0.3879891432,
				"y": 0.8575090299,
				"z": 2.4391038103,
				"element": "H" 
			},
			{
				"x": -0.5109778375,
				"y": -0.466617638,
				"z": 3.1856421174,
				"element": "H" 
			},
			{
				"x": -1.2830643811,
				"y": 1.1108056272,
				"z": 2.982322113,
				"element": "H" 
			},
			{
				"x": -3.2128145166,
				"y": 0.1706421517,
				"z": 1.6886135308,
				"element": "H" 
			},
			{
				"x": -2.9739023148,
				"y": -1.0459931225,
				"z": 0.4309289299,
				"element": "H" 
			},
			{
				"x": -2.5671535026,
				"y": -1.41810689,
				"z": 2.1182144297,
				"element": "H" 
			},
			{
				"x": 1.412444504,
				"y": 0.2787155258,
				"z": 0.2000501345,
				"element": "H" 
			},
			{
				"x": 3.0598621203,
				"y": -1.4017551865,
				"z": -0.5647901432,
				"element": "H" 
			},
			{
				"x": 1.5586628712,
				"y": -5.4521999409,
				"z": -1.502328078,
				"element": "H" 
			},
			{
				"x": 2.1827102605,
				"y": -5.7333681101,
				"z": 0.13918162,
				"element": "H" 
			},
			{
				"x": 3.9638008791,
				"y": -5.591197561,
				"z": -2.3874407728,
				"element": "H" 
			},
			{
				"x": 4.5034916848,
				"y": -6.5905560193,
				"z": 0.5325590068,
				"element": "H" 
			},
			{
				"x": 5.6660990548,
				"y": -6.7167845873,
				"z": -0.8914057679,
				"element": "H" 
			},
			{
				"x": 0.1690937413,
				"y": -4.5121739652,
				"z": 0.0982521694,
				"element": "H" 
			},
			{
				"x": -1.4439516279,
				"y": -2.8603515171,
				"z": 0.8641398928,
				"element": "H" 
			},
			{
				"x": -1.6215324306,
				"y": -0.2335673742,
				"z": -1.5413304353,
				"element": "H" 
			},
			{
				"x": -1.902276954,
				"y": 1.5806741725,
				"z": -3.1996016746,
				"element": "H" 
			},
			{
				"x": -2.2175827662,
				"y": 5.7086470494,
				"z": -1.6043933446,
				"element": "H" 
			},
			{
				"x": -2.160129387,
				"y": 5.9335259666,
				"z": -3.3604943995,
				"element": "H" 
			},
			{
				"x": 0.4408633431,
				"y": 5.5455856958,
				"z": -3.178370574,
				"element": "H" 
			},
			{
				"x": -0.2502789234,
				"y": 6.6766862253,
				"z": -0.3315214247,
				"element": "H" 
			},
			{
				"x": 1.4194975835,
				"y": 6.6265658108,
				"z": -1.1040442017,
				"element": "H" 
			},
			{
				"x": -1.0821642117,
				"y": 4.4815909263,
				"z": -0.141052161,
				"element": "H" 
			},
			{
				"x": -0.8446582521,
				"y": 2.7009998416,
				"z": 1.4975770292,
				"element": "H" 
			}
		],
		 "valence_orbital": [ 
			{
				"type": "occ",
				"energy": -0.27499,
				"method": "rhf"
			},
			{
				"type": "occ",
				"energy": -0.25096,
				"method": "rhf"
			},
			{
				"type": "occ",
				"energy": -0.24702,
				"method": "rhf"
			},
			{
				"type": "occ",
				"energy": -0.22141,
				"method": "rhf"
			},
			{
				"type": "occ",
				"energy": -0.20924,
				"method": "rhf"
			},
			{
				"type": "unocc",
				"energy": -0.006,
				"method": "rhf"
			},
			{
				"type": "unocc",
				"energy": 0.00285,
				"method": "rhf"
			},
			{
				"type": "unocc",
				"energy": 0.00908,
				"method": "rhf"
			},
			{
				"type": "unocc",
				"energy": 0.01639,
				"method": "rhf"
			},
			{
				"type": "unocc",
				"energy": 0.07374,
				"method": "rhf"
			}
		],
		"cosmo_sigma_profile": { 
			"-0.025": 0.0,
			"-0.024": 0.0,
			"-0.023": 0.0,
			"-0.022": 0.0,
			"-0.021": 0.0,
			"-0.02": 0.0,
			"-0.019": 0.0,
			"-0.018": 0.0,
			"-0.017": 0.0,
			"-0.016": 0.0,
			"-0.015": 0.0,
			"-0.014": 0.0,
			"-0.013": 0.0,
			"-0.012": 0.0,
			"-0.011": 0.0,
			"-0.01": 0.0017006130837,
			"-0.009": 0.487009395105,
			"-0.008": 2.28541402178,
			"-0.007": 7.74620978561,
			"-0.006": 26.668143049,
			"-0.005": 32.5855479731,
			"-0.004": 36.061538368,
			"-0.003": 43.3768216387,
			"-0.002": 34.15697997,
			"-0.001": 29.5495712856,
			"0.0": 27.8272044923,
			"0.001": 25.9085628151,
			"0.002": 21.4103032791,
			"0.003": 18.3819193291,
			"0.004": 23.0550034918,
			"0.005": 23.1299091078,
			"0.006": 19.0892711548,
			"0.007": 4.6241142161,
			"0.008": 6.37511005518,
			"0.009": 5.6129111268,
			"0.01": 5.43711058283,
			"0.011": 7.27800351675,
			"0.012": 4.05921065857,
			"0.013": 0.399287672823,
			"0.014": 0.0,
			"0.015": 0.0,
			"0.016": 0.0,
			"0.017": 0.0,
			"0.018": 0.0,
			"0.019": 0.0,
			"0.02": 0.0,
			"0.021": 0.0,
			"0.022": 0.0,
			"0.023": 0.0,
			"0.024": 0.0,
			"0.025": 0.0
		}
	}
}
