{
	 "smiles": "NNC(=O)C(O)C1=CC=CC=C1", 
	 "Tm": 402.65, 
	 "num_atms": 22, 
	 "gaussian": { 
		 "optdone": 1, 
		 "sigma_profile": "yes", 
		 "theory": "DFT", 
		 "functional": "B3LYP", 
		 "basiset": "6-31G**", 
		 "properties": { 
			 "R2extent": 2502.6846, 
			 "electric_dipole_moment_norm": 2.5191709152, 
			 "electric_quadrupole_moment_norm": 3.20301118169, 
			 "total_energy": -570.80242016, 
			 "HOMO_LUMO_gap": 0.22835, 
			 "cosmo_polarized_energy": -14.55, 
			 "cosmo_cavitation_energy": 26.16, 
			 "cosmo_dispersion_energy": -18.91, 
			 "cosmo_repulsion_energy": 1.54, 
			 "cosmo_total_nonelectrostatic_energy": 8.79, 
			 "SMD_solvation_energy": 5.53 
		},
		"coords": [
			{
				"x": -3.4586777506,
				"y": 0.4340052397,
				"z": -1.2258402031,
				"element": "N" 
			},
			{
				"x": -2.4238374868,
				"y": 0.6297448489,
				"z": -0.289868532,
				"element": "N" 
			},
			{
				"x": -1.1272616777,
				"y": 0.3738876972,
				"z": -0.5972857961,
				"element": "C" 
			},
			{
				"x": -0.7646182541,
				"y": -0.1204359824,
				"z": -1.6581994762,
				"element": "O" 
			},
			{
				"x": -0.1111709662,
				"y": 0.7311503983,
				"z": 0.5030696851,
				"element": "C" 
			},
			{
				"x": -0.7514282502,
				"y": 1.569643431,
				"z": 1.4598580438,
				"element": "O" 
			},
			{
				"x": 0.469913371,
				"y": -0.5380532118,
				"z": 1.1114367698,
				"element": "C" 
			},
			{
				"x": -0.0164092423,
				"y": -1.0387510512,
				"z": 2.3241467735,
				"element": "C" 
			},
			{
				"x": 0.51781817,
				"y": -2.2085533005,
				"z": 2.8686772061,
				"element": "C" 
			},
			{
				"x": 1.5333607854,
				"y": -2.892678479,
				"z": 2.2000292511,
				"element": "C" 
			},
			{
				"x": 2.0122636407,
				"y": -2.4030377051,
				"z": 0.9819552989,
				"element": "C" 
			},
			{
				"x": 1.4852818915,
				"y": -1.2313448578,
				"z": 0.440847681,
				"element": "C" 
			},
			{
				"x": -3.115946129,
				"y": 0.7755260633,
				"z": -2.1246735481,
				"element": "H" 
			},
			{
				"x": -3.5687238118,
				"y": -0.572434025,
				"z": -1.3503059557,
				"element": "H" 
			},
			{
				"x": -2.6479152263,
				"y": 1.1732668479,
				"z": 0.5304123793,
				"element": "H" 
			},
			{
				"x": 0.6899966541,
				"y": 1.2762658363,
				"z": -0.0161843985,
				"element": "H" 
			},
			{
				"x": -0.1463507698,
				"y": 1.6896902964,
				"z": 2.2032967975,
				"element": "H" 
			},
			{
				"x": -0.8164781342,
				"y": -0.5131981617,
				"z": 2.8365299663,
				"element": "H" 
			},
			{
				"x": 0.1357858474,
				"y": -2.5864227709,
				"z": 3.8129060969,
				"element": "H" 
			},
			{
				"x": 1.9492159902,
				"y": -3.8023600044,
				"z": 2.6235599661,
				"element": "H" 
			},
			{
				"x": 2.8002289093,
				"y": -2.9328829878,
				"z": 0.454375328,
				"element": "H" 
			},
			{
				"x": 1.8478524395,
				"y": -0.8559281214,
				"z": -0.5112433339,
				"element": "H" 
			}
		],
		 "valence_orbital": [ 
			{
				"type": "occ",
				"energy": -0.27762,
				"method": "rhf"
			},
			{
				"type": "occ",
				"energy": -0.2607,
				"method": "rhf"
			},
			{
				"type": "occ",
				"energy": -0.25594,
				"method": "rhf"
			},
			{
				"type": "occ",
				"energy": -0.2508,
				"method": "rhf"
			},
			{
				"type": "occ",
				"energy": -0.24075,
				"method": "rhf"
			},
			{
				"type": "unocc",
				"energy": -0.0124,
				"method": "rhf"
			},
			{
				"type": "unocc",
				"energy": -0.00533,
				"method": "rhf"
			},
			{
				"type": "unocc",
				"energy": 0.0351,
				"method": "rhf"
			},
			{
				"type": "unocc",
				"energy": 0.06747,
				"method": "rhf"
			},
			{
				"type": "unocc",
				"energy": 0.09379,
				"method": "rhf"
			}
		],
		"cosmo_sigma_profile": { 
			"-0.025": 0.0,
			"-0.024": 0.0,
			"-0.023": 0.0,
			"-0.022": 0.0,
			"-0.021": 0.0,
			"-0.02": 0.0,
			"-0.019": 0.0,
			"-0.018": 0.0,
			"-0.017": 0.121789129522,
			"-0.016": 0.843606092681,
			"-0.015": 1.03761248773,
			"-0.014": 0.858365195954,
			"-0.013": 0.539284521835,
			"-0.012": 1.35687194859,
			"-0.011": 3.4634381698,
			"-0.01": 4.10890363458,
			"-0.009": 4.90864734281,
			"-0.008": 2.8272213763,
			"-0.007": 3.27854183517,
			"-0.006": 10.613429424,
			"-0.005": 17.0202107567,
			"-0.004": 15.2156460156,
			"-0.003": 13.3865035557,
			"-0.002": 10.1657227914,
			"-0.001": 12.3251093799,
			"0.0": 11.430809605,
			"0.001": 11.8340555583,
			"0.002": 12.2395498931,
			"0.003": 10.601372558,
			"0.004": 10.8528946179,
			"0.005": 12.5743308418,
			"0.006": 7.9392192007,
			"0.007": 3.93713785682,
			"0.008": 2.70056713516,
			"0.009": 2.34448170024,
			"0.01": 2.92047683291,
			"0.011": 2.86912812587,
			"0.012": 2.7455086164,
			"0.013": 4.6996664965,
			"0.014": 3.43739070169,
			"0.015": 0.770687763594,
			"0.016": 0.503523282717,
			"0.017": 0.174501391019,
			"0.018": 0.0,
			"0.019": 0.0,
			"0.02": 0.0,
			"0.021": 0.0,
			"0.022": 0.0,
			"0.023": 0.0,
			"0.024": 0.0,
			"0.025": 0.0
		}
	}
}
