{
	 "smiles": "COC1=CC(C=O)=CC=C1OCC1=CC=CC=C1", 
	 "Tm": 336.15, 
	 "num_atms": 32, 
	 "gaussian": { 
		 "optdone": 1, 
		 "sigma_profile": "yes", 
		 "theory": "DFT", 
		 "functional": "B3LYP", 
		 "basiset": "6-31G**", 
		 "properties": { 
			 "R2extent": 6892.0023, 
			 "electric_dipole_moment_norm": 4.26016533599, 
			 "electric_quadrupole_moment_norm": 29.1579257441, 
			 "total_energy": -805.670175529, 
			 "HOMO_LUMO_gap": 0.16963, 
			 "cosmo_polarized_energy": -12.92, 
			 "cosmo_cavitation_energy": 36.81, 
			 "cosmo_dispersion_energy": -26.0, 
			 "cosmo_repulsion_energy": 2.0, 
			 "cosmo_total_nonelectrostatic_energy": 12.82, 
			 "SMD_solvation_energy": 8.15 
		},
		"coords": [
			{
				"x": 1.7150566699,
				"y": 0.7314926346,
				"z": -3.7679270726,
				"element": "C" 
			},
			{
				"x": 1.0954843459,
				"y": 0.5359494221,
				"z": -2.5047574613,
				"element": "O" 
			},
			{
				"x": 0.8557798094,
				"y": -0.7440770837,
				"z": -2.0957262149,
				"element": "C" 
			},
			{
				"x": 1.1489201969,
				"y": -1.8843494648,
				"z": -2.8424149451,
				"element": "C" 
			},
			{
				"x": 0.8986117306,
				"y": -3.164312319,
				"z": -2.3208815952,
				"element": "C" 
			},
			{
				"x": 1.2248641545,
				"y": -4.3529866736,
				"z": -3.1346851229,
				"element": "C" 
			},
			{
				"x": 1.0512784205,
				"y": -5.5054337522,
				"z": -2.7839823733,
				"element": "O" 
			},
			{
				"x": 0.3509557025,
				"y": -3.3073366397,
				"z": -1.0416524632,
				"element": "C" 
			},
			{
				"x": 0.0437439501,
				"y": -2.1724336376,
				"z": -0.2993835616,
				"element": "C" 
			},
			{
				"x": 0.2821481592,
				"y": -0.892985906,
				"z": -0.8083575195,
				"element": "C" 
			},
			{
				"x": 0.0171433155,
				"y": 0.1784101875,
				"z": -0.0027388838,
				"element": "O" 
			},
			{
				"x": -0.9425955853,
				"y": 1.1446492241,
				"z": -0.4707447415,
				"element": "C" 
			},
			{
				"x": -1.2899272423,
				"y": 2.0839073374,
				"z": 0.6590560568,
				"element": "C" 
			},
			{
				"x": -1.3344469602,
				"y": 1.6427841083,
				"z": 1.9868881029,
				"element": "C" 
			},
			{
				"x": -1.7068065596,
				"y": 2.5166892212,
				"z": 3.0084927744,
				"element": "C" 
			},
			{
				"x": -2.0477871123,
				"y": 3.8389514155,
				"z": 2.7155336362,
				"element": "C" 
			},
			{
				"x": -2.0057234041,
				"y": 4.2854088743,
				"z": 1.3938569727,
				"element": "C" 
			},
			{
				"x": -1.6223094329,
				"y": 3.4132668889,
				"z": 0.3739498026,
				"element": "C" 
			},
			{
				"x": 1.8320314205,
				"y": 1.8100410432,
				"z": -3.8805242423,
				"element": "H" 
			},
			{
				"x": 2.7021728715,
				"y": 0.2544861995,
				"z": -3.8085878299,
				"element": "H" 
			},
			{
				"x": 1.0943546942,
				"y": 0.347241791,
				"z": -4.5874039113,
				"element": "H" 
			},
			{
				"x": 1.5863093223,
				"y": -1.7984861338,
				"z": -3.8317629606,
				"element": "H" 
			},
			{
				"x": 1.6588874323,
				"y": -4.1223558181,
				"z": -4.1346944892,
				"element": "H" 
			},
			{
				"x": 0.168400141,
				"y": -4.3050574983,
				"z": -0.6573646025,
				"element": "H" 
			},
			{
				"x": -0.384889173,
				"y": -2.2452261317,
				"z": 0.6949577527,
				"element": "H" 
			},
			{
				"x": -0.5386327828,
				"y": 1.6984125873,
				"z": -1.3227073202,
				"element": "H" 
			},
			{
				"x": -1.839722934,
				"y": 0.606449326,
				"z": -0.8122150604,
				"element": "H" 
			},
			{
				"x": -1.0603117102,
				"y": 0.6181277041,
				"z": 2.2137872699,
				"element": "H" 
			},
			{
				"x": -1.7309322007,
				"y": 2.1641589448,
				"z": 4.0359053795,
				"element": "H" 
			},
			{
				"x": -2.3385573721,
				"y": 4.5176493551,
				"z": 3.5122514735,
				"element": "H" 
			},
			{
				"x": -2.2605088477,
				"y": 5.314547845,
				"z": 1.1568819181,
				"element": "H" 
			},
			{
				"x": -1.5781910194,
				"y": 3.7697169486,
				"z": -0.6526487679,
				"element": "H" 
			}
		],
		 "valence_orbital": [ 
			{
				"type": "occ",
				"energy": -0.25652,
				"method": "rhf"
			},
			{
				"type": "occ",
				"energy": -0.25127,
				"method": "rhf"
			},
			{
				"type": "occ",
				"energy": -0.2498,
				"method": "rhf"
			},
			{
				"type": "occ",
				"energy": -0.24328,
				"method": "rhf"
			},
			{
				"type": "occ",
				"energy": -0.22751,
				"method": "rhf"
			},
			{
				"type": "unocc",
				"energy": -0.05788,
				"method": "rhf"
			},
			{
				"type": "unocc",
				"energy": -0.0054,
				"method": "rhf"
			},
			{
				"type": "unocc",
				"energy": -0.00407,
				"method": "rhf"
			},
			{
				"type": "unocc",
				"energy": -0.00105,
				"method": "rhf"
			},
			{
				"type": "unocc",
				"energy": 0.04608,
				"method": "rhf"
			}
		],
		"cosmo_sigma_profile": { 
			"-0.025": 0.0,
			"-0.024": 0.0,
			"-0.023": 0.0,
			"-0.022": 0.0,
			"-0.021": 0.0,
			"-0.02": 0.0,
			"-0.019": 0.0,
			"-0.018": 0.0,
			"-0.017": 0.0,
			"-0.016": 0.0,
			"-0.015": 0.0,
			"-0.014": 0.0,
			"-0.013": 0.0,
			"-0.012": 0.0,
			"-0.011": 0.0,
			"-0.01": 0.0,
			"-0.009": 0.0118420813898,
			"-0.008": 1.8939469353,
			"-0.007": 5.86931993468,
			"-0.006": 18.7406752521,
			"-0.005": 28.759954591,
			"-0.004": 28.3518449033,
			"-0.003": 26.7713274379,
			"-0.002": 18.7630875853,
			"-0.001": 20.1766683858,
			"0.0": 15.6918857956,
			"0.001": 19.3098158445,
			"0.002": 23.7788329197,
			"0.003": 21.8682377647,
			"0.004": 13.8855870897,
			"0.005": 13.5261666662,
			"0.006": 12.3768159725,
			"0.007": 3.6294639393,
			"0.008": 4.21422917714,
			"0.009": 4.30355194023,
			"0.01": 3.11109952364,
			"0.011": 4.09929494829,
			"0.012": 3.61937398664,
			"0.013": 1.22637697672,
			"0.014": 0.0582132964221,
			"0.015": 0.0,
			"0.016": 0.0,
			"0.017": 0.0,
			"0.018": 0.0,
			"0.019": 0.0,
			"0.02": 0.0,
			"0.021": 0.0,
			"0.022": 0.0,
			"0.023": 0.0,
			"0.024": 0.0,
			"0.025": 0.0
		}
	}
}
