{
	 "smiles": "CN1C=CN=C1C(=O)C1=C(Cl)C=CC=C1", 
	 "Tm": 373.15, 
	 "num_atms": 24, 
	 "gaussian": { 
		 "optdone": 1, 
		 "sigma_profile": "yes", 
		 "theory": "DFT", 
		 "functional": "B3LYP", 
		 "basiset": "6-31G**", 
		 "properties": { 
			 "R2extent": 3857.4651, 
			 "electric_dipole_moment_norm": 2.04117412535, 
			 "electric_quadrupole_moment_norm": 20.6568369036, 
			 "total_energy": -1069.50297111, 
			 "HOMO_LUMO_gap": 0.17579, 
			 "cosmo_polarized_energy": -13.33, 
			 "cosmo_cavitation_energy": 30.36, 
			 "cosmo_dispersion_energy": -21.58, 
			 "cosmo_repulsion_energy": 1.68, 
			 "cosmo_total_nonelectrostatic_energy": 10.46, 
			 "SMD_solvation_energy": 4.64 
		},
		"coords": [
			{
				"x": -2.3617750654,
				"y": -0.214324598,
				"z": 1.4235303464,
				"element": "C" 
			},
			{
				"x": -1.5548520954,
				"y": -0.7424707706,
				"z": 0.3257464315,
				"element": "N" 
			},
			{
				"x": -2.0183655302,
				"y": -1.5204436132,
				"z": -0.6969144781,
				"element": "C" 
			},
			{
				"x": -0.9278633331,
				"y": -1.7950123854,
				"z": -1.5039517987,
				"element": "C" 
			},
			{
				"x": 0.1869971581,
				"y": -1.2016599023,
				"z": -1.0067498231,
				"element": "N" 
			},
			{
				"x": -0.2039747434,
				"y": -0.5681777397,
				"z": 0.0969768701,
				"element": "C" 
			},
			{
				"x": 0.6791908536,
				"y": 0.1677718504,
				"z": 1.0065501541,
				"element": "C" 
			},
			{
				"x": 0.308107613,
				"y": 0.5160639197,
				"z": 2.125010111,
				"element": "O" 
			},
			{
				"x": 2.1028490977,
				"y": 0.4029474691,
				"z": 0.5732441736,
				"element": "C" 
			},
			{
				"x": 2.4864332489,
				"y": 1.1348589952,
				"z": -0.5583804792,
				"element": "C" 
			},
			{
				"x": 1.2896357488,
				"y": 1.9142788421,
				"z": -1.5847877557,
				"element": "Cl" 
			},
			{
				"x": 3.8323611683,
				"y": 1.3300202887,
				"z": -0.86846891,
				"element": "C" 
			},
			{
				"x": 4.8169476606,
				"y": 0.7906284074,
				"z": -0.0417166633,
				"element": "C" 
			},
			{
				"x": 4.4575857309,
				"y": 0.0812421091,
				"z": 1.1052371154,
				"element": "C" 
			},
			{
				"x": 3.1111348002,
				"y": -0.0947222049,
				"z": 1.4116200942,
				"element": "C" 
			},
			{
				"x": -3.4082415489,
				"y": -0.4483747831,
				"z": 1.2203688947,
				"element": "H" 
			},
			{
				"x": -2.0571130151,
				"y": -0.6590479997,
				"z": 2.3718645713,
				"element": "H" 
			},
			{
				"x": -2.23533597,
				"y": 0.8661135991,
				"z": 1.5006131024,
				"element": "H" 
			},
			{
				"x": -3.0582448783,
				"y": -1.8040394859,
				"z": -0.7656157125,
				"element": "H" 
			},
			{
				"x": -0.9061393998,
				"y": -2.3870209706,
				"z": -2.408616454,
				"element": "H" 
			},
			{
				"x": 4.0981337187,
				"y": 1.90835649,
				"z": -1.7463446728,
				"element": "H" 
			},
			{
				"x": 5.8634869878,
				"y": 0.9386039052,
				"z": -0.2909926467,
				"element": "H" 
			},
			{
				"x": 5.221107821,
				"y": -0.3268318328,
				"z": 1.7601295087,
				"element": "H" 
			},
			{
				"x": 2.8156339721,
				"y": -0.6306595899,
				"z": 2.3080480207,
				"element": "H" 
			}
		],
		 "valence_orbital": [ 
			{
				"type": "occ",
				"energy": -0.27782,
				"method": "rhf"
			},
			{
				"type": "occ",
				"energy": -0.26822,
				"method": "rhf"
			},
			{
				"type": "occ",
				"energy": -0.25082,
				"method": "rhf"
			},
			{
				"type": "occ",
				"energy": -0.24368,
				"method": "rhf"
			},
			{
				"type": "occ",
				"energy": -0.23641,
				"method": "rhf"
			},
			{
				"type": "unocc",
				"energy": -0.06062,
				"method": "rhf"
			},
			{
				"type": "unocc",
				"energy": -0.01131,
				"method": "rhf"
			},
			{
				"type": "unocc",
				"energy": -0.00873,
				"method": "rhf"
			},
			{
				"type": "unocc",
				"energy": 0.03454,
				"method": "rhf"
			},
			{
				"type": "unocc",
				"energy": 0.04707,
				"method": "rhf"
			}
		],
		"cosmo_sigma_profile": { 
			"-0.025": 0.0,
			"-0.024": 0.0,
			"-0.023": 0.0,
			"-0.022": 0.0,
			"-0.021": 0.0,
			"-0.02": 0.0,
			"-0.019": 0.0,
			"-0.018": 0.0,
			"-0.017": 0.0,
			"-0.016": 0.0,
			"-0.015": 0.0,
			"-0.014": 0.0,
			"-0.013": 0.0,
			"-0.012": 0.0,
			"-0.011": 0.0,
			"-0.01": 1.13323028924,
			"-0.009": 3.17697789097,
			"-0.008": 3.3014028776,
			"-0.007": 11.7872591719,
			"-0.006": 16.1392800755,
			"-0.005": 18.6983470878,
			"-0.004": 18.2451235482,
			"-0.003": 17.7936577503,
			"-0.002": 12.9639098418,
			"-0.001": 15.3630839362,
			"0.0": 14.4298369807,
			"0.001": 18.1259801617,
			"0.002": 17.5237608021,
			"0.003": 23.8186252114,
			"0.004": 15.7063006807,
			"0.005": 7.93274088351,
			"0.006": 4.30159222305,
			"0.007": 3.87082465456,
			"0.008": 3.47357597778,
			"0.009": 3.46259033484,
			"0.01": 3.8440649759,
			"0.011": 4.61210440396,
			"0.012": 2.96949430046,
			"0.013": 1.26075872007,
			"0.014": 0.897058101098,
			"0.015": 0.824618082922,
			"0.016": 0.193569544621,
			"0.017": 0.0,
			"0.018": 0.0,
			"0.019": 0.0,
			"0.02": 0.0,
			"0.021": 0.0,
			"0.022": 0.0,
			"0.023": 0.0,
			"0.024": 0.0,
			"0.025": 0.0
		}
	}
}
