{
	 "smiles": "ClC1=CC=C2N=CC=NC2=C1", 
	 "Tm": 337.15, 
	 "num_atms": 16, 
	 "gaussian": { 
		 "optdone": 1, 
		 "sigma_profile": "yes", 
		 "theory": "DFT", 
		 "functional": "B3LYP", 
		 "basiset": "6-31G**", 
		 "properties": { 
			 "R2extent": 2403.6041, 
			 "electric_dipole_moment_norm": 1.41467453854, 
			 "electric_quadrupole_moment_norm": 6.03604452187, 
			 "total_energy": -877.554815375, 
			 "HOMO_LUMO_gap": 0.17106, 
			 "cosmo_polarized_energy": -6.54, 
			 "cosmo_cavitation_energy": 22.36, 
			 "cosmo_dispersion_energy": -17.1, 
			 "cosmo_repulsion_energy": 1.35, 
			 "cosmo_total_nonelectrostatic_energy": 6.61, 
			 "SMD_solvation_energy": 0.53 
		},
		"coords": [
			{
				"x": -3.8857605838,
				"y": 1.7632883866,
				"z": -0.8657659729,
				"element": "Cl" 
			},
			{
				"x": -2.4372572106,
				"y": 0.7883461941,
				"z": -0.688948819,
				"element": "C" 
			},
			{
				"x": -2.0831346839,
				"y": -0.0861497317,
				"z": -1.7487218745,
				"element": "C" 
			},
			{
				"x": -0.9540837663,
				"y": -0.8637151724,
				"z": -1.6414056181,
				"element": "C" 
			},
			{
				"x": -0.1433820495,
				"y": -0.7957956554,
				"z": -0.4785251473,
				"element": "C" 
			},
			{
				"x": 0.9723289944,
				"y": -1.5739157152,
				"z": -0.3894445131,
				"element": "N" 
			},
			{
				"x": 1.6760490046,
				"y": -1.4586843019,
				"z": 0.7174999827,
				"element": "C" 
			},
			{
				"x": 1.3069395462,
				"y": -0.5770483039,
				"z": 1.7703818699,
				"element": "C" 
			},
			{
				"x": 0.236460811,
				"y": 0.1871523136,
				"z": 1.7154821839,
				"element": "N" 
			},
			{
				"x": -0.5145165231,
				"y": 0.0907553912,
				"z": 0.5802110099,
				"element": "C" 
			},
			{
				"x": -1.6819672328,
				"y": 0.8869827964,
				"z": 0.4557675799,
				"element": "C" 
			},
			{
				"x": -2.710339134,
				"y": -0.1292681648,
				"z": -2.6320651318,
				"element": "H" 
			},
			{
				"x": -0.6551516225,
				"y": -1.5426165427,
				"z": -2.4332191154,
				"element": "H" 
			},
			{
				"x": 2.5715029947,
				"y": -2.0713537458,
				"z": 0.8095375092,
				"element": "H" 
			},
			{
				"x": 1.9205848914,
				"y": -0.5156366651,
				"z": 2.6679570213,
				"element": "H" 
			},
			{
				"x": -1.9482734357,
				"y": 1.553258917,
				"z": 1.2677590351,
				"element": "H" 
			}
		],
		 "valence_orbital": [ 
			{
				"type": "occ",
				"energy": -0.32156,
				"method": "rhf"
			},
			{
				"type": "occ",
				"energy": -0.31704,
				"method": "rhf"
			},
			{
				"type": "occ",
				"energy": -0.26676,
				"method": "rhf"
			},
			{
				"type": "occ",
				"energy": -0.25609,
				"method": "rhf"
			},
			{
				"type": "occ",
				"energy": -0.25204,
				"method": "rhf"
			},
			{
				"type": "unocc",
				"energy": -0.08098,
				"method": "rhf"
			},
			{
				"type": "unocc",
				"energy": -0.03614,
				"method": "rhf"
			},
			{
				"type": "unocc",
				"energy": -0.00409,
				"method": "rhf"
			},
			{
				"type": "unocc",
				"energy": 0.02201,
				"method": "rhf"
			},
			{
				"type": "unocc",
				"energy": 0.06632,
				"method": "rhf"
			}
		],
		"cosmo_sigma_profile": { 
			"-0.025": 0.0,
			"-0.024": 0.0,
			"-0.023": 0.0,
			"-0.022": 0.0,
			"-0.021": 0.0,
			"-0.02": 0.0,
			"-0.019": 0.0,
			"-0.018": 0.0,
			"-0.017": 0.0,
			"-0.016": 0.0,
			"-0.015": 0.0,
			"-0.014": 0.0,
			"-0.013": 0.0,
			"-0.012": 0.0,
			"-0.011": 0.0,
			"-0.01": 0.0,
			"-0.009": 0.0117017452559,
			"-0.008": 5.90710480065,
			"-0.007": 11.2874140039,
			"-0.006": 8.61139189812,
			"-0.005": 7.21096369883,
			"-0.004": 7.71115932568,
			"-0.003": 10.3540915167,
			"-0.002": 12.2750211284,
			"-0.001": 17.7985886469,
			"0.0": 19.5490201042,
			"0.001": 23.6852173405,
			"0.002": 14.649736963,
			"0.003": 10.5871204889,
			"0.004": 12.680796188,
			"0.005": 4.50436442436,
			"0.006": 3.17493376419,
			"0.007": 1.90001583684,
			"0.008": 1.8488555313,
			"0.009": 1.67300244226,
			"0.01": 1.92819895427,
			"0.011": 1.36105773958,
			"0.012": 1.50815438811,
			"0.013": 1.67682928262,
			"0.014": 1.18148974898,
			"0.015": 0.359731532447,
			"0.016": 0.0,
			"0.017": 0.0,
			"0.018": 0.0,
			"0.019": 0.0,
			"0.02": 0.0,
			"0.021": 0.0,
			"0.022": 0.0,
			"0.023": 0.0,
			"0.024": 0.0,
			"0.025": 0.0
		}
	}
}
