{
	 "smiles": "CCC(CC)N1C=CC(=N1)C(O)=O", 
	 "Tm": 342.15, 
	 "num_atms": 27, 
	 "gaussian": { 
		 "optdone": 1, 
		 "sigma_profile": "yes", 
		 "theory": "DFT", 
		 "functional": "B3LYP", 
		 "basiset": "6-31G**", 
		 "properties": { 
			 "R2extent": 2778.2904, 
			 "electric_dipole_moment_norm": 6.68303171173, 
			 "electric_quadrupole_moment_norm": 14.0620579753, 
			 "total_energy": -611.338174577, 
			 "HOMO_LUMO_gap": 0.23264, 
			 "cosmo_polarized_energy": -19.36, 
			 "cosmo_cavitation_energy": 29.59, 
			 "cosmo_dispersion_energy": -20.69, 
			 "cosmo_repulsion_energy": 1.66, 
			 "cosmo_total_nonelectrostatic_energy": 10.56, 
			 "SMD_solvation_energy": 6.26 
		},
		"coords": [
			{
				"x": -2.3033820218,
				"y": -1.6480447834,
				"z": 0.4731387076,
				"element": "C" 
			},
			{
				"x": -1.1083120962,
				"y": -2.4377016372,
				"z": -0.0738048604,
				"element": "C" 
			},
			{
				"x": -0.2209499654,
				"y": -1.7884742672,
				"z": -1.1597457413,
				"element": "C" 
			},
			{
				"x": -0.9590349935,
				"y": -1.2245767822,
				"z": -2.4005799984,
				"element": "C" 
			},
			{
				"x": -1.5480571058,
				"y": 0.187332966,
				"z": -2.2928888866,
				"element": "C" 
			},
			{
				"x": 0.723032516,
				"y": -0.8072532608,
				"z": -0.5918061098,
				"element": "N" 
			},
			{
				"x": 2.0506213522,
				"y": -0.7033555544,
				"z": -0.8838159975,
				"element": "C" 
			},
			{
				"x": 2.5357485918,
				"y": 0.3724230757,
				"z": -0.1690611874,
				"element": "C" 
			},
			{
				"x": 1.4086340995,
				"y": 0.8613320546,
				"z": 0.5394170166,
				"element": "C" 
			},
			{
				"x": 0.3167372865,
				"y": 0.1343100008,
				"z": 0.2698091288,
				"element": "N" 
			},
			{
				"x": 1.3136131439,
				"y": 1.9948309028,
				"z": 1.499362347,
				"element": "C" 
			},
			{
				"x": 2.347032138,
				"y": 2.8845717189,
				"z": 1.4380967206,
				"element": "O" 
			},
			{
				"x": 0.4219209655,
				"y": 2.1493465743,
				"z": 2.2950206527,
				"element": "O" 
			},
			{
				"x": -2.7929965217,
				"y": -2.230972181,
				"z": 1.2602865513,
				"element": "H" 
			},
			{
				"x": -3.0530307621,
				"y": -1.4595735473,
				"z": -0.3015833951,
				"element": "H" 
			},
			{
				"x": -1.9882626467,
				"y": -0.69338325,
				"z": 0.8970034662,
				"element": "H" 
			},
			{
				"x": -0.449644422,
				"y": -2.7223173136,
				"z": 0.7552029305,
				"element": "H" 
			},
			{
				"x": -1.4728878591,
				"y": -3.3772790264,
				"z": -0.5090903007,
				"element": "H" 
			},
			{
				"x": 0.4324643047,
				"y": -2.5903605419,
				"z": -1.5223397159,
				"element": "H" 
			},
			{
				"x": -1.7475990276,
				"y": -1.9435109927,
				"z": -2.6565287033,
				"element": "H" 
			},
			{
				"x": -0.2541662176,
				"y": -1.2389959299,
				"z": -3.241527713,
				"element": "H" 
			},
			{
				"x": -2.0479884312,
				"y": 0.4461743226,
				"z": -3.2320368782,
				"element": "H" 
			},
			{
				"x": -0.7677183416,
				"y": 0.9313275837,
				"z": -2.1142884331,
				"element": "H" 
			},
			{
				"x": -2.2761337565,
				"y": 0.2803304736,
				"z": -1.4857156324,
				"element": "H" 
			},
			{
				"x": 2.538618609,
				"y": -1.3977364719,
				"z": -1.5521902836,
				"element": "H" 
			},
			{
				"x": 3.5627241524,
				"y": 0.7074038727,
				"z": -0.1317426264,
				"element": "H" 
			},
			{
				"x": 2.8968170094,
				"y": 2.6996519943,
				"z": 0.6641089416,
				"element": "H" 
			}
		],
		 "valence_orbital": [ 
			{
				"type": "occ",
				"energy": -0.30744,
				"method": "rhf"
			},
			{
				"type": "occ",
				"energy": -0.29774,
				"method": "rhf"
			},
			{
				"type": "occ",
				"energy": -0.26784,
				"method": "rhf"
			},
			{
				"type": "occ",
				"energy": -0.26567,
				"method": "rhf"
			},
			{
				"type": "occ",
				"energy": -0.25824,
				"method": "rhf"
			},
			{
				"type": "unocc",
				"energy": -0.0256,
				"method": "rhf"
			},
			{
				"type": "unocc",
				"energy": 0.01391,
				"method": "rhf"
			},
			{
				"type": "unocc",
				"energy": 0.06248,
				"method": "rhf"
			},
			{
				"type": "unocc",
				"energy": 0.06957,
				"method": "rhf"
			},
			{
				"type": "unocc",
				"energy": 0.09895,
				"method": "rhf"
			}
		],
		"cosmo_sigma_profile": { 
			"-0.025": 0.0,
			"-0.024": 0.0,
			"-0.023": 0.0,
			"-0.022": 0.0,
			"-0.021": 0.0,
			"-0.02": 0.0,
			"-0.019": 0.0,
			"-0.018": 0.538192129608,
			"-0.017": 0.899461838167,
			"-0.016": 1.06663108219,
			"-0.015": 1.26149180205,
			"-0.014": 0.66834485582,
			"-0.013": 0.621606944307,
			"-0.012": 1.81600486543,
			"-0.011": 1.36487244303,
			"-0.01": 1.56712715982,
			"-0.009": 5.01004282723,
			"-0.008": 4.11532835195,
			"-0.007": 5.08629998286,
			"-0.006": 5.26337056067,
			"-0.005": 6.88906807621,
			"-0.004": 12.2795482215,
			"-0.003": 22.19316811,
			"-0.002": 23.0821569589,
			"-0.001": 26.6147635198,
			"0.0": 22.7721125665,
			"0.001": 19.9695033631,
			"0.002": 14.0852843016,
			"0.003": 7.77172524374,
			"0.004": 4.92113049952,
			"0.005": 3.44170801934,
			"0.006": 3.58542757563,
			"0.007": 3.76408407511,
			"0.008": 3.99896369214,
			"0.009": 4.10278099067,
			"0.01": 5.52128512467,
			"0.011": 6.35510563981,
			"0.012": 6.32356539385,
			"0.013": 4.43436160553,
			"0.014": 0.938962671322,
			"0.015": 0.0,
			"0.016": 0.0,
			"0.017": 0.0,
			"0.018": 0.0,
			"0.019": 0.0,
			"0.02": 0.0,
			"0.021": 0.0,
			"0.022": 0.0,
			"0.023": 0.0,
			"0.024": 0.0,
			"0.025": 0.0
		}
	}
}
