{
	 "smiles": "CC1=CC=C(C=C1)N1N=C(Br)C=C1C(O)=O", 
	 "Tm": 493.15, 
	 "num_atms": 25, 
	 "gaussian": { 
		 "optdone": 1, 
		 "sigma_profile": "yes", 
		 "theory": "DFT", 
		 "functional": "B3LYP", 
		 "basiset": "6-31G**", 
		 "properties": { 
			 "R2extent": 7555.1871, 
			 "electric_dipole_moment_norm": 5.45762179525, 
			 "electric_quadrupole_moment_norm": 17.3116941213, 
			 "total_energy": -3255.9324002, 
			 "HOMO_LUMO_gap": 0.18622, 
			 "cosmo_polarized_energy": -13.75, 
			 "cosmo_cavitation_energy": 32.45, 
			 "cosmo_dispersion_energy": -23.64, 
			 "cosmo_repulsion_energy": 1.85, 
			 "cosmo_total_nonelectrostatic_energy": 10.66, 
			 "SMD_solvation_energy": 4.67 
		},
		"coords": [
			{
				"x": -2.4381621611,
				"y": -1.9805520962,
				"z": 2.371118318,
				"element": "C" 
			},
			{
				"x": -1.5852497671,
				"y": -1.1380886488,
				"z": 1.4539647221,
				"element": "C" 
			},
			{
				"x": -1.138282532,
				"y": 0.1316006146,
				"z": 1.8538647112,
				"element": "C" 
			},
			{
				"x": -0.3794441243,
				"y": 0.932997827,
				"z": 1.0074656225,
				"element": "C" 
			},
			{
				"x": -0.0429475107,
				"y": 0.4632328964,
				"z": -0.2669476312,
				"element": "C" 
			},
			{
				"x": -0.4507417096,
				"y": -0.8103476652,
				"z": -0.6781677548,
				"element": "C" 
			},
			{
				"x": -1.2280309974,
				"y": -1.5914684079,
				"z": 0.178373968,
				"element": "C" 
			},
			{
				"x": 0.764739911,
				"y": 1.2793113122,
				"z": -1.1175572027,
				"element": "N" 
			},
			{
				"x": 1.9221875107,
				"y": 1.7717662402,
				"z": -0.613413592,
				"element": "N" 
			},
			{
				"x": 2.4749461461,
				"y": 2.4299220452,
				"z": -1.6257689704,
				"element": "C" 
			},
			{
				"x": 4.1263496201,
				"y": 3.3071097103,
				"z": -1.4005577518,
				"element": "Br" 
			},
			{
				"x": 1.7038851687,
				"y": 2.375611419,
				"z": -2.7971371303,
				"element": "C" 
			},
			{
				"x": 0.5911318436,
				"y": 1.6302775836,
				"z": -2.4417603847,
				"element": "C" 
			},
			{
				"x": -0.5758635095,
				"y": 1.3961627229,
				"z": -3.3388527153,
				"element": "C" 
			},
			{
				"x": -1.7358318102,
				"y": 0.9553922415,
				"z": -2.8015025299,
				"element": "O" 
			},
			{
				"x": -0.4990500908,
				"y": 1.6332213969,
				"z": -4.5212727047,
				"element": "O" 
			},
			{
				"x": -3.4841129134,
				"y": -1.6509584443,
				"z": 2.3477764007,
				"element": "H" 
			},
			{
				"x": -2.0992690292,
				"y": -1.9080088896,
				"z": 3.4090537166,
				"element": "H" 
			},
			{
				"x": -2.4193958046,
				"y": -3.0340658781,
				"z": 2.0796661862,
				"element": "H" 
			},
			{
				"x": -1.3929722088,
				"y": 0.5003671925,
				"z": 2.8437944588,
				"element": "H" 
			},
			{
				"x": -0.0306739029,
				"y": 1.9105283418,
				"z": 1.3208363004,
				"element": "H" 
			},
			{
				"x": -0.14708183,
				"y": -1.193029923,
				"z": -1.6470698502,
				"element": "H" 
			},
			{
				"x": -1.542434048,
				"y": -2.578688147,
				"z": -0.1480981058,
				"element": "H" 
			},
			{
				"x": 1.8933938459,
				"y": 2.8237831325,
				"z": -3.7587025895,
				"element": "H" 
			},
			{
				"x": -1.6578900964,
				"y": 0.8039234235,
				"z": -1.8460054912,
				"element": "H" 
			}
		],
		 "valence_orbital": [ 
			{
				"type": "occ",
				"energy": -0.28542,
				"method": "rhf"
			},
			{
				"type": "occ",
				"energy": -0.28301,
				"method": "rhf"
			},
			{
				"type": "occ",
				"energy": -0.28103,
				"method": "rhf"
			},
			{
				"type": "occ",
				"energy": -0.26932,
				"method": "rhf"
			},
			{
				"type": "occ",
				"energy": -0.24763,
				"method": "rhf"
			},
			{
				"type": "unocc",
				"energy": -0.06141,
				"method": "rhf"
			},
			{
				"type": "unocc",
				"energy": -0.03454,
				"method": "rhf"
			},
			{
				"type": "unocc",
				"energy": -0.02857,
				"method": "rhf"
			},
			{
				"type": "unocc",
				"energy": 0.00994,
				"method": "rhf"
			},
			{
				"type": "unocc",
				"energy": 0.02693,
				"method": "rhf"
			}
		],
		"cosmo_sigma_profile": { 
			"-0.025": 0.0,
			"-0.024": 0.0,
			"-0.023": 0.0,
			"-0.022": 0.0,
			"-0.021": 0.0,
			"-0.02": 0.0,
			"-0.019": 0.0,
			"-0.018": 0.0,
			"-0.017": 0.0,
			"-0.016": 0.0,
			"-0.015": 0.0,
			"-0.014": 0.135877176547,
			"-0.013": 0.962649709571,
			"-0.012": 1.37565935573,
			"-0.011": 0.811417831886,
			"-0.01": 1.02526462935,
			"-0.009": 3.32752395443,
			"-0.008": 4.76076611498,
			"-0.007": 7.01389740992,
			"-0.006": 12.3554961759,
			"-0.005": 16.9930825195,
			"-0.004": 20.2032243241,
			"-0.003": 16.7748543767,
			"-0.002": 19.1300783986,
			"-0.001": 22.8176814129,
			"0.0": 21.3380199752,
			"0.001": 21.5366682162,
			"0.002": 18.775770552,
			"0.003": 20.9133606064,
			"0.004": 15.004684655,
			"0.005": 4.61932612323,
			"0.006": 4.5492273166,
			"0.007": 4.27500043827,
			"0.008": 4.08413357596,
			"0.009": 5.06335084918,
			"0.01": 5.97353674316,
			"0.011": 6.47179398407,
			"0.012": 3.10270051115,
			"0.013": 0.460765765353,
			"0.014": 0.0,
			"0.015": 0.0,
			"0.016": 0.0,
			"0.017": 0.0,
			"0.018": 0.0,
			"0.019": 0.0,
			"0.02": 0.0,
			"0.021": 0.0,
			"0.022": 0.0,
			"0.023": 0.0,
			"0.024": 0.0,
			"0.025": 0.0
		}
	}
}
