{
	 "smiles": "FC1=C2NC(=O)C(=O)C2=C(Cl)C=C1", 
	 "Tm": 553.15, 
	 "num_atms": 16, 
	 "gaussian": { 
		 "optdone": 1, 
		 "sigma_profile": "yes", 
		 "theory": "DFT", 
		 "functional": "B3LYP", 
		 "basiset": "6-31G**", 
		 "properties": { 
			 "R2extent": 3478.5504, 
			 "electric_dipole_moment_norm": 5.53912032998, 
			 "electric_quadrupole_moment_norm": 14.8887427861, 
			 "total_energy": -1071.87526677, 
			 "HOMO_LUMO_gap": 0.14023, 
			 "cosmo_polarized_energy": -14.87, 
			 "cosmo_cavitation_energy": 24.12, 
			 "cosmo_dispersion_energy": -17.75, 
			 "cosmo_repulsion_energy": 1.37, 
			 "cosmo_total_nonelectrostatic_energy": 7.74, 
			 "SMD_solvation_energy": 5.67 
		},
		"coords": [
			{
				"x": -0.2669530497,
				"y": -1.8667756978,
				"z": -2.6793987397,
				"element": "F" 
			},
			{
				"x": -0.3319277927,
				"y": -1.4307576395,
				"z": -1.4040284217,
				"element": "C" 
			},
			{
				"x": 0.6367557884,
				"y": -1.8319265012,
				"z": -0.4987248372,
				"element": "C" 
			},
			{
				"x": 1.7308211527,
				"y": -2.666926419,
				"z": -0.7232301823,
				"element": "N" 
			},
			{
				"x": 2.4847403154,
				"y": -2.8423690858,
				"z": 0.4286195721,
				"element": "C" 
			},
			{
				"x": 3.4865516892,
				"y": -3.5052676362,
				"z": 0.5547903522,
				"element": "O" 
			},
			{
				"x": 1.7522218888,
				"y": -1.9921729763,
				"z": 1.5288103688,
				"element": "C" 
			},
			{
				"x": 2.126984145,
				"y": -1.9042231051,
				"z": 2.6742790412,
				"element": "O" 
			},
			{
				"x": 0.5898827656,
				"y": -1.389322898,
				"z": 0.839367414,
				"element": "C" 
			},
			{
				"x": -0.4397721308,
				"y": -0.5416479042,
				"z": 1.2527683214,
				"element": "C" 
			},
			{
				"x": -0.5221705899,
				"y": 0.0202516635,
				"z": 2.8986061107,
				"element": "Cl" 
			},
			{
				"x": -1.4160328928,
				"y": -0.1388319458,
				"z": 0.3357677712,
				"element": "C" 
			},
			{
				"x": -1.3561963611,
				"y": -0.585891871,
				"z": -0.9872724044,
				"element": "C" 
			},
			{
				"x": 1.9499746941,
				"y": -3.0925266173,
				"z": -1.6119517664,
				"element": "H" 
			},
			{
				"x": -2.2157295078,
				"y": 0.5188717992,
				"z": 0.6547762151,
				"element": "H" 
			},
			{
				"x": -2.1068501145,
				"y": -0.2812831656,
				"z": -1.7089788151,
				"element": "H" 
			}
		],
		 "valence_orbital": [ 
			{
				"type": "occ",
				"energy": -0.3319,
				"method": "rhf"
			},
			{
				"type": "occ",
				"energy": -0.31873,
				"method": "rhf"
			},
			{
				"type": "occ",
				"energy": -0.27822,
				"method": "rhf"
			},
			{
				"type": "occ",
				"energy": -0.25806,
				"method": "rhf"
			},
			{
				"type": "occ",
				"energy": -0.25082,
				"method": "rhf"
			},
			{
				"type": "unocc",
				"energy": -0.11059,
				"method": "rhf"
			},
			{
				"type": "unocc",
				"energy": -0.0327,
				"method": "rhf"
			},
			{
				"type": "unocc",
				"energy": -0.01117,
				"method": "rhf"
			},
			{
				"type": "unocc",
				"energy": 0.01456,
				"method": "rhf"
			},
			{
				"type": "unocc",
				"energy": 0.06346,
				"method": "rhf"
			}
		],
		"cosmo_sigma_profile": { 
			"-0.025": 0.0,
			"-0.024": 0.0,
			"-0.023": 0.0,
			"-0.022": 0.0,
			"-0.021": 0.0,
			"-0.02": 0.0,
			"-0.019": 0.0,
			"-0.018": 0.000590543037213,
			"-0.017": 0.938450625133,
			"-0.016": 0.992836608213,
			"-0.015": 0.933395883298,
			"-0.014": 0.879507769618,
			"-0.013": 0.724883415269,
			"-0.012": 0.939155059072,
			"-0.011": 1.43466136612,
			"-0.01": 1.14913887947,
			"-0.009": 4.46929260226,
			"-0.008": 6.74977868909,
			"-0.007": 7.87466420723,
			"-0.006": 6.11190933296,
			"-0.005": 6.50065393074,
			"-0.004": 8.30983083319,
			"-0.003": 13.1686860821,
			"-0.002": 18.4241590591,
			"-0.001": 16.8099023452,
			"0.0": 15.6283170456,
			"0.001": 12.3114258899,
			"0.002": 10.3713350187,
			"0.003": 17.2242543851,
			"0.004": 8.09936884674,
			"0.005": 2.49933961007,
			"0.006": 3.10710040279,
			"0.007": 3.98340894087,
			"0.008": 4.80177270569,
			"0.009": 6.24944291507,
			"0.01": 9.76230308011,
			"0.011": 6.01015879103,
			"0.012": 1.30180416228,
			"0.013": 0.0,
			"0.014": 0.0,
			"0.015": 0.0,
			"0.016": 0.0,
			"0.017": 0.0,
			"0.018": 0.0,
			"0.019": 0.0,
			"0.02": 0.0,
			"0.021": 0.0,
			"0.022": 0.0,
			"0.023": 0.0,
			"0.024": 0.0,
			"0.025": 0.0
		}
	}
}
