{
	 "smiles": "OC(=O)C1C(C(O)=O)C2(Cl)C(Cl)=C(Cl)C1(Cl)C2(Cl)Cl", 
	 "Tm": 482.15, 
	 "num_atms": 23, 
	 "gaussian": { 
		 "optdone": 1, 
		 "sigma_profile": "yes", 
		 "theory": "DFT", 
		 "functional": "B3LYP", 
		 "basiset": "6-31G**", 
		 "properties": { 
			 "R2extent": 6341.1789, 
			 "electric_dipole_moment_norm": 1.67788036224, 
			 "electric_quadrupole_moment_norm": 9.1731755434, 
			 "total_energy": -3407.35967865, 
			 "HOMO_LUMO_gap": 0.21732, 
			 "cosmo_polarized_energy": -17.2, 
			 "cosmo_cavitation_energy": 35.91, 
			 "cosmo_dispersion_energy": -25.17, 
			 "cosmo_repulsion_energy": 1.92, 
			 "cosmo_total_nonelectrostatic_energy": 12.66, 
			 "SMD_solvation_energy": 6.4 
		},
		"coords": [
			{
				"x": -1.8351343198,
				"y": -0.2936663476,
				"z": 2.9615079204,
				"element": "O" 
			},
			{
				"x": -1.3404401431,
				"y": -0.8402591099,
				"z": 1.8319399294,
				"element": "C" 
			},
			{
				"x": -1.5288692158,
				"y": -1.9900309429,
				"z": 1.5155752837,
				"element": "O" 
			},
			{
				"x": -0.5021886747,
				"y": 0.2034941041,
				"z": 1.0885323854,
				"element": "C" 
			},
			{
				"x": 0.6584085569,
				"y": -0.3479016303,
				"z": 0.1694362622,
				"element": "C" 
			},
			{
				"x": 0.9138210971,
				"y": -1.8538635851,
				"z": 0.3079303671,
				"element": "C" 
			},
			{
				"x": 0.5855819197,
				"y": -2.6103847136,
				"z": -0.7434737944,
				"element": "O" 
			},
			{
				"x": 1.4410371239,
				"y": -2.2806465976,
				"z": 1.3108923685,
				"element": "O" 
			},
			{
				"x": 0.3766576147,
				"y": 0.3662946206,
				"z": -1.2115080888,
				"element": "C" 
			},
			{
				"x": 1.2091566645,
				"y": -0.2877732025,
				"z": -2.6315778263,
				"element": "Cl" 
			},
			{
				"x": 0.689840747,
				"y": 1.8427831142,
				"z": -0.912768799,
				"element": "C" 
			},
			{
				"x": 2.1425676299,
				"y": 2.6245349341,
				"z": -1.3701615959,
				"element": "Cl" 
			},
			{
				"x": -0.2912827202,
				"y": 2.3195264725,
				"z": -0.1350431133,
				"element": "C" 
			},
			{
				"x": -0.390633653,
				"y": 3.8473571185,
				"z": 0.6307792796,
				"element": "Cl" 
			},
			{
				"x": -1.280568578,
				"y": 1.1748245938,
				"z": 0.1031652052,
				"element": "C" 
			},
			{
				"x": -2.9063431888,
				"y": 1.6572193974,
				"z": 0.6157334034,
				"element": "Cl" 
			},
			{
				"x": -1.1848609825,
				"y": 0.462103104,
				"z": -1.2901198826,
				"element": "C" 
			},
			{
				"x": -1.7597720167,
				"y": 1.4936568335,
				"z": -2.6490412614,
				"element": "Cl" 
			},
			{
				"x": -2.050330532,
				"y": -1.083414895,
				"z": -1.3914220673,
				"element": "Cl" 
			},
			{
				"x": -2.3704007458,
				"y": -0.982009914,
				"z": 3.3920287606,
				"element": "H" 
			},
			{
				"x": -0.0847530094,
				"y": 0.8364019449,
				"z": 1.8731062128,
				"element": "H" 
			},
			{
				"x": 1.5963755336,
				"y": 0.0684463632,
				"z": 0.5427045748,
				"element": "H" 
			},
			{
				"x": 0.8039308923,
				"y": -3.5260916622,
				"z": -0.4981155239,
				"element": "H" 
			}
		],
		 "valence_orbital": [ 
			{
				"type": "occ",
				"energy": -0.31541,
				"method": "rhf"
			},
			{
				"type": "occ",
				"energy": -0.3111,
				"method": "rhf"
			},
			{
				"type": "occ",
				"energy": -0.29619,
				"method": "rhf"
			},
			{
				"type": "occ",
				"energy": -0.29201,
				"method": "rhf"
			},
			{
				"type": "occ",
				"energy": -0.26786,
				"method": "rhf"
			},
			{
				"type": "unocc",
				"energy": -0.05054,
				"method": "rhf"
			},
			{
				"type": "unocc",
				"energy": -0.04791,
				"method": "rhf"
			},
			{
				"type": "unocc",
				"energy": -0.02577,
				"method": "rhf"
			},
			{
				"type": "unocc",
				"energy": -0.01821,
				"method": "rhf"
			},
			{
				"type": "unocc",
				"energy": -0.00331,
				"method": "rhf"
			}
		],
		"cosmo_sigma_profile": { 
			"-0.025": 0.0,
			"-0.024": 0.0,
			"-0.023": 0.0,
			"-0.022": 0.0,
			"-0.021": 0.0,
			"-0.02": 0.125658326608,
			"-0.019": 1.51430739319,
			"-0.018": 2.29348317748,
			"-0.017": 1.40479847015,
			"-0.016": 1.57822529837,
			"-0.015": 1.65273407076,
			"-0.014": 1.03852491455,
			"-0.013": 1.33258538957,
			"-0.012": 2.14822590645,
			"-0.011": 3.19115030342,
			"-0.01": 3.70170393998,
			"-0.009": 6.04151525117,
			"-0.008": 6.53500840419,
			"-0.007": 4.45480173918,
			"-0.006": 3.41534853303,
			"-0.005": 5.97535918714,
			"-0.004": 11.3815978804,
			"-0.003": 14.154561144,
			"-0.002": 17.5346742953,
			"-0.001": 20.2011375912,
			"0.0": 24.1235192429,
			"0.001": 30.6041493118,
			"0.002": 43.1225074293,
			"0.003": 35.0204252923,
			"0.004": 12.4629222842,
			"0.005": 7.26960018064,
			"0.006": 5.69917651151,
			"0.007": 5.61267924248,
			"0.008": 6.93769633471,
			"0.009": 5.01244166641,
			"0.01": 5.67173464268,
			"0.011": 5.72683267432,
			"0.012": 1.15224475467,
			"0.013": 0.0,
			"0.014": 0.0,
			"0.015": 0.0,
			"0.016": 0.0,
			"0.017": 0.0,
			"0.018": 0.0,
			"0.019": 0.0,
			"0.02": 0.0,
			"0.021": 0.0,
			"0.022": 0.0,
			"0.023": 0.0,
			"0.024": 0.0,
			"0.025": 0.0
		}
	}
}
