{
	 "smiles": "C=CC=O", 
	 "Tm": 185.85, 
	 "num_atms": 8, 
	 "gaussian": { 
		 "optdone": 1, 
		 "sigma_profile": "yes", 
		 "theory": "DFT", 
		 "functional": "B3LYP", 
		 "basiset": "6-31G**", 
		 "properties": { 
			 "R2extent": 451.6927, 
			 "electric_dipole_moment_norm": 3.14132374804, 
			 "electric_quadrupole_moment_norm": 7.4082842737, 
			 "total_energy": -191.914057251, 
			 "HOMO_LUMO_gap": 0.19124, 
			 "cosmo_polarized_energy": -6.7, 
			 "cosmo_cavitation_energy": 12.41, 
			 "cosmo_dispersion_energy": -8.75, 
			 "cosmo_repulsion_energy": 0.81, 
			 "cosmo_total_nonelectrostatic_energy": 4.47, 
			 "SMD_solvation_energy": 4.32 
		},
		"coords": [
			{
				"x": 0.5859384082,
				"y": -0.0729766406,
				"z": -0.6786026177,
				"element": "C" 
			},
			{
				"x": 0.7431927351,
				"y": 0.8069309562,
				"z": 0.3166953386,
				"element": "C" 
			},
			{
				"x": -0.0790147102,
				"y": 0.7281563245,
				"z": 1.5392409087,
				"element": "C" 
			},
			{
				"x": 0.0149793528,
				"y": 1.4953863276,
				"z": 2.4772076525,
				"element": "O" 
			},
			{
				"x": 1.1787983323,
				"y": -0.0349696899,
				"z": -1.586818993,
				"element": "H" 
			},
			{
				"x": -0.1529215013,
				"y": -0.8689813034,
				"z": -0.6106673684,
				"element": "H" 
			},
			{
				"x": 1.4737261902,
				"y": 1.6110700776,
				"z": 0.2738577318,
				"element": "H" 
			},
			{
				"x": -0.8158988072,
				"y": -0.1077160521,
				"z": 1.5468873475,
				"element": "H" 
			}
		],
		 "valence_orbital": [ 
			{
				"type": "occ",
				"energy": -0.41849,
				"method": "rhf"
			},
			{
				"type": "occ",
				"energy": -0.3976,
				"method": "rhf"
			},
			{
				"type": "occ",
				"energy": -0.3942,
				"method": "rhf"
			},
			{
				"type": "occ",
				"energy": -0.29361,
				"method": "rhf"
			},
			{
				"type": "occ",
				"energy": -0.2567,
				"method": "rhf"
			},
			{
				"type": "unocc",
				"energy": -0.06546,
				"method": "rhf"
			},
			{
				"type": "unocc",
				"energy": 0.0565,
				"method": "rhf"
			},
			{
				"type": "unocc",
				"energy": 0.10626,
				"method": "rhf"
			},
			{
				"type": "unocc",
				"energy": 0.11127,
				"method": "rhf"
			},
			{
				"type": "unocc",
				"energy": 0.15277,
				"method": "rhf"
			}
		],
		"cosmo_sigma_profile": { 
			"-0.025": 0.0,
			"-0.024": 0.0,
			"-0.023": 0.0,
			"-0.022": 0.0,
			"-0.021": 0.0,
			"-0.02": 0.0,
			"-0.019": 0.0,
			"-0.018": 0.0,
			"-0.017": 0.0,
			"-0.016": 0.0,
			"-0.015": 0.0,
			"-0.014": 0.0,
			"-0.013": 0.0,
			"-0.012": 0.0,
			"-0.011": 0.0,
			"-0.01": 0.0,
			"-0.009": 0.0,
			"-0.008": 1.3238562359,
			"-0.007": 7.17573800503,
			"-0.006": 8.46391931352,
			"-0.005": 8.45651226609,
			"-0.004": 8.08675250226,
			"-0.003": 7.26744087324,
			"-0.002": 7.94925829555,
			"-0.001": 7.17933543835,
			"0.0": 7.29453696936,
			"0.001": 5.55378548985,
			"0.002": 5.28469883891,
			"0.003": 3.27129391698,
			"0.004": 1.18865581939,
			"0.005": 2.24699651358,
			"0.006": 1.34787363744,
			"0.007": 1.2714917014,
			"0.008": 1.85842072694,
			"0.009": 1.61859493741,
			"0.01": 2.6063956407,
			"0.011": 4.00675417756,
			"0.012": 4.06628696797,
			"0.013": 1.70607015894,
			"0.014": 0.0492919716215,
			"0.015": 0.0,
			"0.016": 0.0,
			"0.017": 0.0,
			"0.018": 0.0,
			"0.019": 0.0,
			"0.02": 0.0,
			"0.021": 0.0,
			"0.022": 0.0,
			"0.023": 0.0,
			"0.024": 0.0,
			"0.025": 0.0
		}
	}
}
