{
	 "smiles": "CC(O)CCC1=CC=C(CCC(C)O)C=C1", 
	 "Tm": 317.15, 
	 "num_atms": 38, 
	 "gaussian": { 
		 "optdone": 1, 
		 "sigma_profile": "yes", 
		 "theory": "DFT", 
		 "functional": "B3LYP", 
		 "basiset": "6-31G**", 
		 "properties": { 
			 "R2extent": 6818.4269, 
			 "electric_dipole_moment_norm": 1.90413719569, 
			 "electric_quadrupole_moment_norm": 14.752440148, 
			 "total_energy": -697.209867484, 
			 "HOMO_LUMO_gap": 0.22889, 
			 "cosmo_polarized_energy": -13.25, 
			 "cosmo_cavitation_energy": 39.86, 
			 "cosmo_dispersion_energy": -27.22, 
			 "cosmo_repulsion_energy": 2.18, 
			 "cosmo_total_nonelectrostatic_energy": 14.82, 
			 "SMD_solvation_energy": 6.07 
		},
		"coords": [
			{
				"x": -3.4894839302,
				"y": 1.8529853076,
				"z": 2.2004039873,
				"element": "C" 
			},
			{
				"x": -2.0281798909,
				"y": 2.2550252319,
				"z": 2.4125594941,
				"element": "C" 
			},
			{
				"x": -1.7847466516,
				"y": 2.5603266684,
				"z": 3.7893708715,
				"element": "O" 
			},
			{
				"x": -1.6203303454,
				"y": 3.5132847845,
				"z": 1.6418198074,
				"element": "C" 
			},
			{
				"x": -1.6071150088,
				"y": 3.3753301095,
				"z": 0.1053241017,
				"element": "C" 
			},
			{
				"x": -0.6053378668,
				"y": 2.3688844002,
				"z": -0.4273266914,
				"element": "C" 
			},
			{
				"x": 0.7736908429,
				"y": 2.6085379516,
				"z": -0.3324745006,
				"element": "C" 
			},
			{
				"x": 1.6998563339,
				"y": 1.6884689686,
				"z": -0.8189997035,
				"element": "C" 
			},
			{
				"x": 1.2868750624,
				"y": 0.4913446968,
				"z": -1.4217677314,
				"element": "C" 
			},
			{
				"x": 2.2939686339,
				"y": -0.523201996,
				"z": -1.9168117579,
				"element": "C" 
			},
			{
				"x": 2.7378405719,
				"y": -1.5147158859,
				"z": -0.8241571859,
				"element": "C" 
			},
			{
				"x": 3.701120796,
				"y": -2.5931737619,
				"z": -1.3401803232,
				"element": "C" 
			},
			{
				"x": 4.1805889555,
				"y": -3.5270405994,
				"z": -0.2272978343,
				"element": "C" 
			},
			{
				"x": 3.1257966068,
				"y": -3.3354244363,
				"z": -2.4193006581,
				"element": "O" 
			},
			{
				"x": -0.0891393981,
				"y": 0.2547953712,
				"z": -1.5222750315,
				"element": "C" 
			},
			{
				"x": -1.0174049843,
				"y": 1.176183973,
				"z": -1.0340359937,
				"element": "C" 
			},
			{
				"x": -4.1558794079,
				"y": 2.6690861527,
				"z": 2.4993649857,
				"element": "H" 
			},
			{
				"x": -3.6952994154,
				"y": 1.5984030416,
				"z": 1.155851967,
				"element": "H" 
			},
			{
				"x": -3.7398373826,
				"y": 0.9715769949,
				"z": 2.803300739,
				"element": "H" 
			},
			{
				"x": -1.3796628769,
				"y": 1.4234573499,
				"z": 2.0929426881,
				"element": "H" 
			},
			{
				"x": -2.019574307,
				"y": 1.7813461737,
				"z": 4.3097704031,
				"element": "H" 
			},
			{
				"x": -2.2968355274,
				"y": 4.3284819607,
				"z": 1.9285138993,
				"element": "H" 
			},
			{
				"x": -0.6221662834,
				"y": 3.799108571,
				"z": 1.9927583534,
				"element": "H" 
			},
			{
				"x": -1.3824331369,
				"y": 4.3635234808,
				"z": -0.3157592797,
				"element": "H" 
			},
			{
				"x": -2.6089799143,
				"y": 3.1158884068,
				"z": -0.2556560489,
				"element": "H" 
			},
			{
				"x": 1.1265406064,
				"y": 3.5328413241,
				"z": 0.1195668886,
				"element": "H" 
			},
			{
				"x": 2.7627905144,
				"y": 1.9063863878,
				"z": -0.739677376,
				"element": "H" 
			},
			{
				"x": 1.8785768715,
				"y": -1.0960054463,
				"z": -2.7520940196,
				"element": "H" 
			},
			{
				"x": 3.1805776068,
				"y": -0.0054699435,
				"z": -2.3050679797,
				"element": "H" 
			},
			{
				"x": 3.2125806319,
				"y": -0.9690771838,
				"z": 0.0015653066,
				"element": "H" 
			},
			{
				"x": 1.8516815826,
				"y": -2.0051790039,
				"z": -0.3937772171,
				"element": "H" 
			},
			{
				"x": 4.5723960791,
				"y": -2.1001634298,
				"z": -1.7907345125,
				"element": "H" 
			},
			{
				"x": 3.3302889166,
				"y": -4.0336592921,
				"z": 0.247596315,
				"element": "H" 
			},
			{
				"x": 4.8485025901,
				"y": -4.2912704445,
				"z": -0.634495479,
				"element": "H" 
			},
			{
				"x": 4.7157134864,
				"y": -2.9767934714,
				"z": 0.5538681525,
				"element": "H" 
			},
			{
				"x": 2.3709146121,
				"y": -3.8236731702,
				"z": -2.0616932389,
				"element": "H" 
			},
			{
				"x": -0.4406982199,
				"y": -0.6587630678,
				"z": -1.99692152,
				"element": "H" 
			},
			{
				"x": -2.0802967534,
				"y": 0.9694438256,
				"z": -1.1374738771,
				"element": "H" 
			}
		],
		 "valence_orbital": [ 
			{
				"type": "occ",
				"energy": -0.30714,
				"method": "rhf"
			},
			{
				"type": "occ",
				"energy": -0.26688,
				"method": "rhf"
			},
			{
				"type": "occ",
				"energy": -0.26023,
				"method": "rhf"
			},
			{
				"type": "occ",
				"energy": -0.24424,
				"method": "rhf"
			},
			{
				"type": "occ",
				"energy": -0.22727,
				"method": "rhf"
			},
			{
				"type": "unocc",
				"energy": 0.00162,
				"method": "rhf"
			},
			{
				"type": "unocc",
				"energy": 0.0051,
				"method": "rhf"
			},
			{
				"type": "unocc",
				"energy": 0.07182,
				"method": "rhf"
			},
			{
				"type": "unocc",
				"energy": 0.07566,
				"method": "rhf"
			},
			{
				"type": "unocc",
				"energy": 0.09406,
				"method": "rhf"
			}
		],
		"cosmo_sigma_profile": { 
			"-0.025": 0.0,
			"-0.024": 0.0,
			"-0.023": 0.0,
			"-0.022": 0.0,
			"-0.021": 0.0,
			"-0.02": 0.0,
			"-0.019": 0.0,
			"-0.018": 0.0,
			"-0.017": 0.0,
			"-0.016": 0.0,
			"-0.015": 0.59362229105,
			"-0.014": 1.9927699949,
			"-0.013": 1.8996192188,
			"-0.012": 1.64705193831,
			"-0.011": 1.69135262473,
			"-0.01": 1.98417909661,
			"-0.009": 1.68377367233,
			"-0.008": 2.45815912151,
			"-0.007": 2.18390452949,
			"-0.006": 2.17157968785,
			"-0.005": 8.06570116558,
			"-0.004": 19.7595861355,
			"-0.003": 38.4572791955,
			"-0.002": 41.8878175306,
			"-0.001": 36.0787375266,
			"0.0": 33.5330299599,
			"0.001": 29.693067546,
			"0.002": 14.4790588386,
			"0.003": 11.2106203729,
			"0.004": 10.1268939017,
			"0.005": 8.05878273856,
			"0.006": 10.7247382439,
			"0.007": 7.01087620309,
			"0.008": 2.47228981656,
			"0.009": 1.81057582411,
			"0.01": 3.33224852152,
			"0.011": 2.42716445204,
			"0.012": 1.6623291026,
			"0.013": 3.54643077868,
			"0.014": 3.51998605141,
			"0.015": 2.59663717334,
			"0.016": 0.000510904882158,
			"0.017": 0.0,
			"0.018": 0.0,
			"0.019": 0.0,
			"0.02": 0.0,
			"0.021": 0.0,
			"0.022": 0.0,
			"0.023": 0.0,
			"0.024": 0.0,
			"0.025": 0.0
		}
	}
}
