{
	 "smiles": "OC(=O)C1=C(Br)C=CC(Br)=C1", 
	 "Tm": 429.15, 
	 "num_atms": 15, 
	 "gaussian": { 
		 "optdone": 1, 
		 "sigma_profile": "yes", 
		 "theory": "DFT", 
		 "functional": "B3LYP", 
		 "basiset": "6-31G**", 
		 "properties": { 
			 "R2extent": 5238.2794, 
			 "electric_dipole_moment_norm": 1.59935232829, 
			 "electric_quadrupole_moment_norm": 8.41439447792, 
			 "total_energy": -5562.41770457, 
			 "HOMO_LUMO_gap": 0.18083, 
			 "cosmo_polarized_energy": -8.92, 
			 "cosmo_cavitation_energy": 24.58, 
			 "cosmo_dispersion_energy": -19.09, 
			 "cosmo_repulsion_energy": 1.53, 
			 "cosmo_total_nonelectrostatic_energy": 7.02, 
			 "SMD_solvation_energy": 3.34 
		},
		"coords": [
			{
				"x": 2.3402123696,
				"y": 0.6131211442,
				"z": -2.1547191704,
				"element": "O" 
			},
			{
				"x": 2.0484517482,
				"y": -0.2620247456,
				"z": -1.1760930179,
				"element": "C" 
			},
			{
				"x": 2.2634542817,
				"y": -1.4530130202,
				"z": -1.2925389044,
				"element": "O" 
			},
			{
				"x": 1.4637928413,
				"y": 0.3401745878,
				"z": 0.0677440276,
				"element": "C" 
			},
			{
				"x": 1.0298956521,
				"y": 1.6636955282,
				"z": 0.2765359861,
				"element": "C" 
			},
			{
				"x": 1.0595646765,
				"y": 3.044217902,
				"z": -1.0396224099,
				"element": "Br" 
			},
			{
				"x": 0.5113426036,
				"y": 2.0417781862,
				"z": 1.5192787009,
				"element": "C" 
			},
			{
				"x": 0.4147176914,
				"y": 1.1298253382,
				"z": 2.5650264714,
				"element": "C" 
			},
			{
				"x": 0.8380098952,
				"y": -0.182614398,
				"z": 2.3601970042,
				"element": "C" 
			},
			{
				"x": 0.7093155606,
				"y": -1.449413397,
				"z": 3.7788551971,
				"element": "Br" 
			},
			{
				"x": 1.3506120582,
				"y": -0.5722937473,
				"z": 1.1329611316,
				"element": "C" 
			},
			{
				"x": 2.7092241193,
				"y": 0.0802976029,
				"z": -2.8797262727,
				"element": "H" 
			},
			{
				"x": 0.178935069,
				"y": 3.0630296954,
				"z": 1.6632006929,
				"element": "H" 
			},
			{
				"x": 0.0129401979,
				"y": 1.4378075082,
				"z": 3.5235840892,
				"element": "H" 
			},
			{
				"x": 1.6779312355,
				"y": -1.5895881849,
				"z": 0.9586164744,
				"element": "H" 
			}
		],
		 "valence_orbital": [ 
			{
				"type": "occ",
				"energy": -0.29904,
				"method": "rhf"
			},
			{
				"type": "occ",
				"energy": -0.29606,
				"method": "rhf"
			},
			{
				"type": "occ",
				"energy": -0.28661,
				"method": "rhf"
			},
			{
				"type": "occ",
				"energy": -0.28294,
				"method": "rhf"
			},
			{
				"type": "occ",
				"energy": -0.24946,
				"method": "rhf"
			},
			{
				"type": "unocc",
				"energy": -0.06863,
				"method": "rhf"
			},
			{
				"type": "unocc",
				"energy": -0.03447,
				"method": "rhf"
			},
			{
				"type": "unocc",
				"energy": -0.01094,
				"method": "rhf"
			},
			{
				"type": "unocc",
				"energy": 0.00196,
				"method": "rhf"
			},
			{
				"type": "unocc",
				"energy": 0.03637,
				"method": "rhf"
			}
		],
		"cosmo_sigma_profile": { 
			"-0.025": 0.0,
			"-0.024": 0.0,
			"-0.023": 0.0,
			"-0.022": 0.0,
			"-0.021": 0.0,
			"-0.02": 0.0,
			"-0.019": 0.239441859829,
			"-0.018": 1.00749273475,
			"-0.017": 0.866761255254,
			"-0.016": 0.672000774393,
			"-0.015": 0.921869836527,
			"-0.014": 1.08731516505,
			"-0.013": 0.362501056165,
			"-0.012": 0.754812421481,
			"-0.011": 0.789718057894,
			"-0.01": 0.48039769589,
			"-0.009": 0.78175260371,
			"-0.008": 4.85411942448,
			"-0.007": 5.87744785649,
			"-0.006": 4.56068038947,
			"-0.005": 7.29620440511,
			"-0.004": 9.02273819443,
			"-0.003": 12.8489217031,
			"-0.002": 12.8515692063,
			"-0.001": 15.4919531897,
			"0.0": 27.8049789434,
			"0.001": 22.3080744096,
			"0.002": 13.2710157799,
			"0.003": 17.2497516783,
			"0.004": 19.3155565239,
			"0.005": 3.58081703187,
			"0.006": 2.83005293374,
			"0.007": 4.41132749563,
			"0.008": 3.18834594034,
			"0.009": 1.37264063825,
			"0.01": 2.64464435951,
			"0.011": 4.54518736908,
			"0.012": 1.05336467056,
			"0.013": 0.0,
			"0.014": 0.0,
			"0.015": 0.0,
			"0.016": 0.0,
			"0.017": 0.0,
			"0.018": 0.0,
			"0.019": 0.0,
			"0.02": 0.0,
			"0.021": 0.0,
			"0.022": 0.0,
			"0.023": 0.0,
			"0.024": 0.0,
			"0.025": 0.0
		}
	}
}
