{
	 "smiles": "CC(=O)C1=CC=C(OCC(=O)N2CCCC2)C=C1", 
	 "Tm": 396.15, 
	 "num_atms": 35, 
	 "gaussian": { 
		 "optdone": 1, 
		 "sigma_profile": "yes", 
		 "theory": "DFT", 
		 "functional": "B3LYP", 
		 "basiset": "6-31G**", 
		 "properties": { 
			 "R2extent": 7139.8158, 
			 "electric_dipole_moment_norm": 4.92353216502, 
			 "electric_quadrupole_moment_norm": 15.3480175348, 
			 "total_energy": -824.168337649, 
			 "HOMO_LUMO_gap": 0.18438, 
			 "cosmo_polarized_energy": -15.36, 
			 "cosmo_cavitation_energy": 37.64, 
			 "cosmo_dispersion_energy": -26.72, 
			 "cosmo_repulsion_energy": 2.08, 
			 "cosmo_total_nonelectrostatic_energy": 13.0, 
			 "SMD_solvation_energy": 6.65 
		},
		"coords": [
			{
				"x": -2.8725181471,
				"y": -3.8093208451,
				"z": 3.0771056204,
				"element": "C" 
			},
			{
				"x": -2.806407039,
				"y": -2.2949624372,
				"z": 2.948937803,
				"element": "C" 
			},
			{
				"x": -3.7559688168,
				"y": -1.6043375721,
				"z": 3.2936583277,
				"element": "O" 
			},
			{
				"x": -1.5670954937,
				"y": -1.6713885706,
				"z": 2.3976764696,
				"element": "C" 
			},
			{
				"x": -0.4542704718,
				"y": -2.4130532996,
				"z": 1.9803913018,
				"element": "C" 
			},
			{
				"x": 0.6864264413,
				"y": -1.7936369258,
				"z": 1.4679036844,
				"element": "C" 
			},
			{
				"x": 0.7156898613,
				"y": -0.3963169475,
				"z": 1.3757714975,
				"element": "C" 
			},
			{
				"x": 1.775386542,
				"y": 0.3296271324,
				"z": 0.9025904557,
				"element": "O" 
			},
			{
				"x": 3.0033380938,
				"y": -0.3398858356,
				"z": 0.6144332613,
				"element": "C" 
			},
			{
				"x": 2.9928836554,
				"y": -1.1713518304,
				"z": -0.6810380668,
				"element": "C" 
			},
			{
				"x": 3.2041198556,
				"y": -2.3844020773,
				"z": -0.6417768884,
				"element": "O" 
			},
			{
				"x": 2.7591146832,
				"y": -0.5107919623,
				"z": -1.8415461251,
				"element": "N" 
			},
			{
				"x": 2.7288988848,
				"y": -1.2496737705,
				"z": -3.1156719026,
				"element": "C" 
			},
			{
				"x": 2.6692744359,
				"y": -0.140048581,
				"z": -4.1763196675,
				"element": "C" 
			},
			{
				"x": 1.9716988592,
				"y": 1.0205755605,
				"z": -3.4457127686,
				"element": "C" 
			},
			{
				"x": 2.5477169227,
				"y": 0.9355559941,
				"z": -2.0251679727,
				"element": "C" 
			},
			{
				"x": -0.3923453558,
				"y": 0.3643291714,
				"z": 1.7856833602,
				"element": "C" 
			},
			{
				"x": -1.5155884008,
				"y": -0.2690376343,
				"z": 2.2881283143,
				"element": "C" 
			},
			{
				"x": -2.0759213516,
				"y": -4.1855695335,
				"z": 3.7283999186,
				"element": "H" 
			},
			{
				"x": -3.8414281254,
				"y": -4.0804846083,
				"z": 3.4972444729,
				"element": "H" 
			},
			{
				"x": -2.7516979203,
				"y": -4.293301541,
				"z": 2.1015940184,
				"element": "H" 
			},
			{
				"x": -0.4641570916,
				"y": -3.4965133847,
				"z": 2.0435529926,
				"element": "H" 
			},
			{
				"x": 1.5188310824,
				"y": -2.3961136071,
				"z": 1.1235061796,
				"element": "H" 
			},
			{
				"x": 3.7475673343,
				"y": 0.4598113407,
				"z": 0.5469672198,
				"element": "H" 
			},
			{
				"x": 3.2841799765,
				"y": -1.017203699,
				"z": 1.4256766781,
				"element": "H" 
			},
			{
				"x": 1.8448350613,
				"y": -1.8986068007,
				"z": -3.145158184,
				"element": "H" 
			},
			{
				"x": 3.6072417613,
				"y": -1.8949943388,
				"z": -3.2000667663,
				"element": "H" 
			},
			{
				"x": 3.683083196,
				"y": 0.156450249,
				"z": -4.4687559101,
				"element": "H" 
			},
			{
				"x": 2.1428197624,
				"y": -0.4579271195,
				"z": -5.0797958988,
				"element": "H" 
			},
			{
				"x": 0.8890977793,
				"y": 0.8538904522,
				"z": -3.4165992071,
				"element": "H" 
			},
			{
				"x": 2.1498368172,
				"y": 1.994968675,
				"z": -3.9081089488,
				"element": "H" 
			},
			{
				"x": 1.8780100633,
				"y": 1.3327711535,
				"z": -1.2610927342,
				"element": "H" 
			},
			{
				"x": 3.5034177824,
				"y": 1.4768619484,
				"z": -1.9612198422,
				"element": "H" 
			},
			{
				"x": -0.3389458872,
				"y": 1.4453050235,
				"z": 1.7052665165,
				"element": "H" 
			},
			{
				"x": -2.3798247504,
				"y": 0.3007762211,
				"z": 2.612742791,
				"element": "H" 
			}
		],
		 "valence_orbital": [ 
			{
				"type": "occ",
				"energy": -0.25759,
				"method": "rhf"
			},
			{
				"type": "occ",
				"energy": -0.25525,
				"method": "rhf"
			},
			{
				"type": "occ",
				"energy": -0.24529,
				"method": "rhf"
			},
			{
				"type": "occ",
				"energy": -0.23894,
				"method": "rhf"
			},
			{
				"type": "occ",
				"energy": -0.22728,
				"method": "rhf"
			},
			{
				"type": "unocc",
				"energy": -0.0429,
				"method": "rhf"
			},
			{
				"type": "unocc",
				"energy": -0.0071,
				"method": "rhf"
			},
			{
				"type": "unocc",
				"energy": 0.0036,
				"method": "rhf"
			},
			{
				"type": "unocc",
				"energy": 0.05232,
				"method": "rhf"
			},
			{
				"type": "unocc",
				"energy": 0.07297,
				"method": "rhf"
			}
		],
		"cosmo_sigma_profile": { 
			"-0.025": 0.0,
			"-0.024": 0.0,
			"-0.023": 0.0,
			"-0.022": 0.0,
			"-0.021": 0.0,
			"-0.02": 0.0,
			"-0.019": 0.0,
			"-0.018": 0.0,
			"-0.017": 0.0,
			"-0.016": 0.0,
			"-0.015": 0.0,
			"-0.014": 0.0,
			"-0.013": 0.0,
			"-0.012": 0.0,
			"-0.011": 0.0,
			"-0.01": 0.0,
			"-0.009": 0.0,
			"-0.008": 1.47088462196,
			"-0.007": 5.40725326722,
			"-0.006": 13.869619054,
			"-0.005": 19.5255980906,
			"-0.004": 32.3450493369,
			"-0.003": 38.353374081,
			"-0.002": 33.296062003,
			"-0.001": 26.0658002364,
			"0.0": 23.6410422745,
			"0.001": 14.7527704974,
			"0.002": 15.57647478,
			"0.003": 16.1965973343,
			"0.004": 14.0018640401,
			"0.005": 3.87068470197,
			"0.006": 4.92424539647,
			"0.007": 3.20367632115,
			"0.008": 4.04614347194,
			"0.009": 3.22573580796,
			"0.01": 2.90410856044,
			"0.011": 3.72685567525,
			"0.012": 6.01426129618,
			"0.013": 5.63406037547,
			"0.014": 4.7319227621,
			"0.015": 0.308129897767,
			"0.016": 0.0,
			"0.017": 0.0,
			"0.018": 0.0,
			"0.019": 0.0,
			"0.02": 0.0,
			"0.021": 0.0,
			"0.022": 0.0,
			"0.023": 0.0,
			"0.024": 0.0,
			"0.025": 0.0
		}
	}
}
