{
	 "smiles": "ClC1=CC=C(OCCC#N)C=C1", 
	 "Tm": 319.15, 
	 "num_atms": 20, 
	 "gaussian": { 
		 "optdone": 1, 
		 "sigma_profile": "yes", 
		 "theory": "DFT", 
		 "functional": "B3LYP", 
		 "basiset": "6-31G**", 
		 "properties": { 
			 "R2extent": 3846.9833, 
			 "electric_dipole_moment_norm": 2.01328893604, 
			 "electric_quadrupole_moment_norm": 18.1972966544, 
			 "total_energy": -937.917630167, 
			 "HOMO_LUMO_gap": 0.20748, 
			 "cosmo_polarized_energy": -12.31, 
			 "cosmo_cavitation_energy": 27.12, 
			 "cosmo_dispersion_energy": -19.39, 
			 "cosmo_repulsion_energy": 1.57, 
			 "cosmo_total_nonelectrostatic_energy": 9.3, 
			 "SMD_solvation_energy": 6.03 
		},
		"coords": [
			{
				"x": 1.3793273422,
				"y": 1.3129065677,
				"z": -4.4516026235,
				"element": "Cl" 
			},
			{
				"x": 1.1807661947,
				"y": 1.1395269913,
				"z": -2.7135358945,
				"element": "C" 
			},
			{
				"x": -0.0297249446,
				"y": 1.4794694351,
				"z": -2.1191169407,
				"element": "C" 
			},
			{
				"x": -0.192442571,
				"y": 1.3400493319,
				"z": -0.7373859451,
				"element": "C" 
			},
			{
				"x": 0.8652533365,
				"y": 0.860768097,
				"z": 0.0433388464,
				"element": "C" 
			},
			{
				"x": 0.8332303418,
				"y": 0.6962366432,
				"z": 1.4049822097,
				"element": "O" 
			},
			{
				"x": -0.3646406045,
				"y": 0.9471525876,
				"z": 2.1207420112,
				"element": "C" 
			},
			{
				"x": -1.3307993148,
				"y": -0.2535400384,
				"z": 2.0199826006,
				"element": "C" 
			},
			{
				"x": -2.5557969677,
				"y": -0.0254844199,
				"z": 2.7862920928,
				"element": "C" 
			},
			{
				"x": -3.5169496312,
				"y": 0.1869716305,
				"z": 3.4011565797,
				"element": "N" 
			},
			{
				"x": 2.0801857875,
				"y": 0.5203333002,
				"z": -0.5678758219,
				"element": "C" 
			},
			{
				"x": 2.2411920198,
				"y": 0.6589619023,
				"z": -1.9410853749,
				"element": "C" 
			},
			{
				"x": -0.8480630828,
				"y": 1.8512649354,
				"z": -2.7257046776,
				"element": "H" 
			},
			{
				"x": -1.1440997545,
				"y": 1.6144775807,
				"z": -0.2976893357,
				"element": "H" 
			},
			{
				"x": -0.850398812,
				"y": 1.8703884308,
				"z": 1.7856479099,
				"element": "H" 
			},
			{
				"x": -0.059761391,
				"y": 1.0882927495,
				"z": 3.1599585957,
				"element": "H" 
			},
			{
				"x": -0.8282318381,
				"y": -1.1507825958,
				"z": 2.3966460523,
				"element": "H" 
			},
			{
				"x": -1.5937107924,
				"y": -0.4443314936,
				"z": 0.9741165188,
				"element": "H" 
			},
			{
				"x": 2.8891738265,
				"y": 0.151957297,
				"z": 0.0539268843,
				"element": "H" 
			},
			{
				"x": 3.1821908558,
				"y": 0.3970810677,
				"z": -2.4119936875,
				"element": "H" 
			}
		],
		 "valence_orbital": [ 
			{
				"type": "occ",
				"energy": -0.33479,
				"method": "rhf"
			},
			{
				"type": "occ",
				"energy": -0.31636,
				"method": "rhf"
			},
			{
				"type": "occ",
				"energy": -0.31372,
				"method": "rhf"
			},
			{
				"type": "occ",
				"energy": -0.27457,
				"method": "rhf"
			},
			{
				"type": "occ",
				"energy": -0.23358,
				"method": "rhf"
			},
			{
				"type": "unocc",
				"energy": -0.0261,
				"method": "rhf"
			},
			{
				"type": "unocc",
				"energy": -0.01133,
				"method": "rhf"
			},
			{
				"type": "unocc",
				"energy": 0.01878,
				"method": "rhf"
			},
			{
				"type": "unocc",
				"energy": 0.02511,
				"method": "rhf"
			},
			{
				"type": "unocc",
				"energy": 0.02853,
				"method": "rhf"
			}
		],
		"cosmo_sigma_profile": { 
			"-0.025": 0.0,
			"-0.024": 0.0,
			"-0.023": 0.0,
			"-0.022": 0.0,
			"-0.021": 0.0,
			"-0.02": 0.0,
			"-0.019": 0.0,
			"-0.018": 0.0,
			"-0.017": 0.0,
			"-0.016": 0.0,
			"-0.015": 0.0,
			"-0.014": 0.0,
			"-0.013": 0.0,
			"-0.012": 0.0,
			"-0.011": 0.0437180774469,
			"-0.01": 1.32823677666,
			"-0.009": 3.65152689862,
			"-0.008": 10.9304668037,
			"-0.007": 14.6148659316,
			"-0.006": 15.0798426023,
			"-0.005": 15.1466465232,
			"-0.004": 10.8997171671,
			"-0.003": 8.18450804039,
			"-0.002": 9.30079140527,
			"-0.001": 9.49606090911,
			"0.0": 11.4601627316,
			"0.001": 12.2273992196,
			"0.002": 17.3944208896,
			"0.003": 22.359075741,
			"0.004": 18.1658324214,
			"0.005": 12.2324995037,
			"0.006": 4.22853235398,
			"0.007": 3.72212653793,
			"0.008": 4.63850656017,
			"0.009": 4.79041940815,
			"0.01": 3.06377506061,
			"0.011": 2.98163758954,
			"0.012": 2.36919582604,
			"0.013": 1.6622279246,
			"0.014": 0.15044815168,
			"0.015": 0.0,
			"0.016": 0.0,
			"0.017": 0.0,
			"0.018": 0.0,
			"0.019": 0.0,
			"0.02": 0.0,
			"0.021": 0.0,
			"0.022": 0.0,
			"0.023": 0.0,
			"0.024": 0.0,
			"0.025": 0.0
		}
	}
}
