{
	 "smiles": "NNC1=C(Cl)C=C(Cl)C=N1", 
	 "Tm": 453.15, 
	 "num_atms": 15, 
	 "gaussian": { 
		 "optdone": 1, 
		 "sigma_profile": "yes", 
		 "theory": "DFT", 
		 "functional": "B3LYP", 
		 "basiset": "6-31G**", 
		 "properties": { 
			 "R2extent": 2962.963, 
			 "electric_dipole_moment_norm": 0.594932012922, 
			 "electric_quadrupole_moment_norm": 4.75261234375, 
			 "total_energy": -1278.15032689, 
			 "HOMO_LUMO_gap": 0.17989, 
			 "cosmo_polarized_energy": -7.37, 
			 "cosmo_cavitation_energy": 23.01, 
			 "cosmo_dispersion_energy": -17.59, 
			 "cosmo_repulsion_energy": 1.45, 
			 "cosmo_total_nonelectrostatic_energy": 6.87, 
			 "SMD_solvation_energy": 2.86 
		},
		"coords": [
			{
				"x": 2.5147560546,
				"y": 1.2589401405,
				"z": -0.8872311265,
				"element": "N" 
			},
			{
				"x": 1.2511424224,
				"y": 0.6450242321,
				"z": -0.9683813261,
				"element": "N" 
			},
			{
				"x": 0.197009993,
				"y": 1.0524687792,
				"z": -0.1905347119,
				"element": "C" 
			},
			{
				"x": -1.1207781347,
				"y": 0.5770626812,
				"z": -0.4150003946,
				"element": "C" 
			},
			{
				"x": -1.4429050474,
				"y": -0.5291374107,
				"z": -1.7421382601,
				"element": "Cl" 
			},
			{
				"x": -2.1508846279,
				"y": 0.9877928061,
				"z": 0.4095189143,
				"element": "C" 
			},
			{
				"x": -1.8504195214,
				"y": 1.8728654652,
				"z": 1.4513041906,
				"element": "C" 
			},
			{
				"x": -3.1121960659,
				"y": 2.4276729803,
				"z": 2.5335306959,
				"element": "Cl" 
			},
			{
				"x": -0.5393310653,
				"y": 2.305122781,
				"z": 1.6092729294,
				"element": "C" 
			},
			{
				"x": 0.4548311615,
				"y": 1.9081270312,
				"z": 0.8080275218,
				"element": "N" 
			},
			{
				"x": 2.3756685658,
				"y": 2.2610882271,
				"z": -0.7498623262,
				"element": "H" 
			},
			{
				"x": 2.961190688,
				"y": 0.9297870872,
				"z": -0.0324221463,
				"element": "H" 
			},
			{
				"x": 1.0495423403,
				"y": 0.2234883392,
				"z": -1.8622804194,
				"element": "H" 
			},
			{
				"x": -3.1620015025,
				"y": 0.6322336042,
				"z": 0.2494069774,
				"element": "H" 
			},
			{
				"x": -0.2796252606,
				"y": 2.9973632561,
				"z": 2.4060894817,
				"element": "H" 
			}
		],
		 "valence_orbital": [ 
			{
				"type": "occ",
				"energy": -0.30793,
				"method": "rhf"
			},
			{
				"type": "occ",
				"energy": -0.28743,
				"method": "rhf"
			},
			{
				"type": "occ",
				"energy": -0.28477,
				"method": "rhf"
			},
			{
				"type": "occ",
				"energy": -0.27458,
				"method": "rhf"
			},
			{
				"type": "occ",
				"energy": -0.22168,
				"method": "rhf"
			},
			{
				"type": "unocc",
				"energy": -0.04179,
				"method": "rhf"
			},
			{
				"type": "unocc",
				"energy": -0.0142,
				"method": "rhf"
			},
			{
				"type": "unocc",
				"energy": 0.00256,
				"method": "rhf"
			},
			{
				"type": "unocc",
				"energy": 0.04268,
				"method": "rhf"
			},
			{
				"type": "unocc",
				"energy": 0.08739,
				"method": "rhf"
			}
		],
		"cosmo_sigma_profile": { 
			"-0.025": 0.0,
			"-0.024": 0.0,
			"-0.023": 0.0,
			"-0.022": 0.0,
			"-0.021": 0.0,
			"-0.02": 0.0,
			"-0.019": 0.0,
			"-0.018": 0.0,
			"-0.017": 0.0,
			"-0.016": 0.0,
			"-0.015": 0.0,
			"-0.014": 0.0,
			"-0.013": 0.171569477724,
			"-0.012": 0.746710361987,
			"-0.011": 1.92346300146,
			"-0.01": 2.92302700207,
			"-0.009": 4.21991553956,
			"-0.008": 5.64570619696,
			"-0.007": 6.6009194351,
			"-0.006": 4.39258701584,
			"-0.005": 7.16202113277,
			"-0.004": 7.22517716289,
			"-0.003": 7.55884247357,
			"-0.002": 10.9734318771,
			"-0.001": 15.3084547553,
			"0.0": 21.8154297454,
			"0.001": 22.9264642272,
			"0.002": 13.7235447135,
			"0.003": 17.2056602307,
			"0.004": 17.6182957902,
			"0.005": 6.52903791338,
			"0.006": 2.34505834431,
			"0.007": 2.14924137733,
			"0.008": 1.79353013122,
			"0.009": 1.37929676972,
			"0.01": 1.49154336496,
			"0.011": 1.14419134752,
			"0.012": 0.97935439377,
			"0.013": 0.420861121592,
			"0.014": 0.703427422245,
			"0.015": 0.781925897455,
			"0.016": 0.466996339795,
			"0.017": 0.232630107371,
			"0.018": 0.0,
			"0.019": 0.0,
			"0.02": 0.0,
			"0.021": 0.0,
			"0.022": 0.0,
			"0.023": 0.0,
			"0.024": 0.0,
			"0.025": 0.0
		}
	}
}
