{
	 "smiles": "NC1=CC=C(SC2=CC=C(Cl)C=C2)C=C1", 
	 "Tm": 334.15, 
	 "num_atms": 25, 
	 "gaussian": { 
		 "optdone": 1, 
		 "sigma_profile": "yes", 
		 "theory": "DFT", 
		 "functional": "B3LYP", 
		 "basiset": "6-31G**", 
		 "properties": { 
			 "R2extent": 6074.6415, 
			 "electric_dipole_moment_norm": 4.63558631998, 
			 "electric_quadrupole_moment_norm": 21.7128245889, 
			 "total_energy": -1376.43827033, 
			 "HOMO_LUMO_gap": 0.19276, 
			 "cosmo_polarized_energy": -11.27, 
			 "cosmo_cavitation_energy": 32.86, 
			 "cosmo_dispersion_energy": -24.23, 
			 "cosmo_repulsion_energy": 1.87, 
			 "cosmo_total_nonelectrostatic_energy": 10.49, 
			 "SMD_solvation_energy": 4.75 
		},
		"coords": [
			{
				"x": 1.8375316248,
				"y": 1.1350453755,
				"z": 3.9720915535,
				"element": "N" 
			},
			{
				"x": 1.7258164334,
				"y": 0.7316810464,
				"z": 2.6487001493,
				"element": "C" 
			},
			{
				"x": 1.4909597761,
				"y": 1.6718755339,
				"z": 1.6274112253,
				"element": "C" 
			},
			{
				"x": 1.4352719324,
				"y": 1.2729012414,
				"z": 0.2969372183,
				"element": "C" 
			},
			{
				"x": 1.6057617006,
				"y": -0.0736529023,
				"z": -0.0570950317,
				"element": "C" 
			},
			{
				"x": 1.6074093108,
				"y": -0.5702811363,
				"z": -1.7733005717,
				"element": "S" 
			},
			{
				"x": -0.1029033827,
				"y": -0.9847968264,
				"z": -2.1187640194,
				"element": "C" 
			},
			{
				"x": -1.1376452515,
				"y": -0.8979290357,
				"z": -1.1810613975,
				"element": "C" 
			},
			{
				"x": -2.4430786565,
				"y": -1.2410072746,
				"z": -1.536035814,
				"element": "C" 
			},
			{
				"x": -2.7140284207,
				"y": -1.6719888356,
				"z": -2.8324348901,
				"element": "C" 
			},
			{
				"x": -4.3602628359,
				"y": -2.1049442214,
				"z": -3.2808077239,
				"element": "Cl" 
			},
			{
				"x": -1.6948020813,
				"y": -1.7645743613,
				"z": -3.7803453211,
				"element": "C" 
			},
			{
				"x": -0.3942537419,
				"y": -1.4210114856,
				"z": -3.4202536092,
				"element": "C" 
			},
			{
				"x": 1.8452277351,
				"y": -1.0110555032,
				"z": 0.9585265141,
				"element": "C" 
			},
			{
				"x": 1.9019637722,
				"y": -0.6185400337,
				"z": 2.290863159,
				"element": "C" 
			},
			{
				"x": 1.6911090773,
				"y": 0.4218617946,
				"z": 4.6716600782,
				"element": "H" 
			},
			{
				"x": 1.4050668474,
				"y": 2.0158700059,
				"z": 4.2099825868,
				"element": "H" 
			},
			{
				"x": 1.360943834,
				"y": 2.7202867645,
				"z": 1.8839249469,
				"element": "H" 
			},
			{
				"x": 1.2573585755,
				"y": 2.0105894721,
				"z": -0.4792495039,
				"element": "H" 
			},
			{
				"x": -0.9303326701,
				"y": -0.5627323038,
				"z": -0.1710312556,
				"element": "H" 
			},
			{
				"x": -3.2438033939,
				"y": -1.1729918716,
				"z": -0.8074432917,
				"element": "H" 
			},
			{
				"x": -1.9157596846,
				"y": -2.1012956064,
				"z": -4.7873298449,
				"element": "H" 
			},
			{
				"x": 0.3989186063,
				"y": -1.4935814601,
				"z": -4.1591898216,
				"element": "H" 
			},
			{
				"x": 1.9872904365,
				"y": -2.0553441899,
				"z": 0.6985496909,
				"element": "H" 
			},
			{
				"x": 2.0927404565,
				"y": -1.3574841867,
				"z": 3.0650949739,
				"element": "H" 
			}
		],
		 "valence_orbital": [ 
			{
				"type": "occ",
				"energy": -0.27411,
				"method": "rhf"
			},
			{
				"type": "occ",
				"energy": -0.2618,
				"method": "rhf"
			},
			{
				"type": "occ",
				"energy": -0.25791,
				"method": "rhf"
			},
			{
				"type": "occ",
				"energy": -0.21562,
				"method": "rhf"
			},
			{
				"type": "occ",
				"energy": -0.20757,
				"method": "rhf"
			},
			{
				"type": "unocc",
				"energy": -0.01481,
				"method": "rhf"
			},
			{
				"type": "unocc",
				"energy": -0.01142,
				"method": "rhf"
			},
			{
				"type": "unocc",
				"energy": -0.00545,
				"method": "rhf"
			},
			{
				"type": "unocc",
				"energy": -0.00327,
				"method": "rhf"
			},
			{
				"type": "unocc",
				"energy": 0.03491,
				"method": "rhf"
			}
		],
		"cosmo_sigma_profile": { 
			"-0.025": 0.0,
			"-0.024": 0.0,
			"-0.023": 0.0,
			"-0.022": 0.0,
			"-0.021": 0.0,
			"-0.02": 0.0,
			"-0.019": 0.0,
			"-0.018": 0.0,
			"-0.017": 0.0,
			"-0.016": 0.0,
			"-0.015": 0.0,
			"-0.014": 0.0,
			"-0.013": 1.44095472674,
			"-0.012": 3.10474377748,
			"-0.011": 2.75996441654,
			"-0.01": 3.17118660444,
			"-0.009": 3.20410319655,
			"-0.008": 3.31289527982,
			"-0.007": 8.05633188479,
			"-0.006": 13.6739685292,
			"-0.005": 14.3852989834,
			"-0.004": 14.0848333331,
			"-0.003": 12.7596258264,
			"-0.002": 11.7363744835,
			"-0.001": 14.2174376873,
			"0.0": 18.1301304245,
			"0.001": 20.8993496221,
			"0.002": 25.059946008,
			"0.003": 26.5621362973,
			"0.004": 33.8864203403,
			"0.005": 21.2269127765,
			"0.006": 5.98470869015,
			"0.007": 3.62128716286,
			"0.008": 2.35554546031,
			"0.009": 0.894187070217,
			"0.01": 0.850195997912,
			"0.011": 0.798240203515,
			"0.012": 0.620022190338,
			"0.013": 0.452431466827,
			"0.014": 0.0220634148326,
			"0.015": 0.0,
			"0.016": 0.0,
			"0.017": 0.0,
			"0.018": 0.0,
			"0.019": 0.0,
			"0.02": 0.0,
			"0.021": 0.0,
			"0.022": 0.0,
			"0.023": 0.0,
			"0.024": 0.0,
			"0.025": 0.0
		}
	}
}
