{
	 "smiles": "OC(=O)CNCCC#N", 
	 "Tm": 463.15, 
	 "num_atms": 17, 
	 "gaussian": { 
		 "optdone": 1, 
		 "sigma_profile": "yes", 
		 "theory": "DFT", 
		 "functional": "B3LYP", 
		 "basiset": "6-31G**", 
		 "properties": { 
			 "R2extent": 1689.9447, 
			 "electric_dipole_moment_norm": 7.70508022541, 
			 "electric_quadrupole_moment_norm": 12.765896166, 
			 "total_energy": -455.286961156, 
			 "HOMO_LUMO_gap": 0.26793, 
			 "cosmo_polarized_energy": -21.7, 
			 "cosmo_cavitation_energy": 21.85, 
			 "cosmo_dispersion_energy": -15.16, 
			 "cosmo_repulsion_energy": 1.28, 
			 "cosmo_total_nonelectrostatic_energy": 7.98, 
			 "SMD_solvation_energy": 6.0 
		},
		"coords": [
			{
				"x": -2.2932394801,
				"y": 1.0537092212,
				"z": -0.2273976913,
				"element": "O" 
			},
			{
				"x": -2.3245464136,
				"y": 0.8968260639,
				"z": 1.1088442052,
				"element": "C" 
			},
			{
				"x": -3.0633492418,
				"y": 1.5191265119,
				"z": 1.830475785,
				"element": "O" 
			},
			{
				"x": -1.308813406,
				"y": -0.1272088316,
				"z": 1.6342093272,
				"element": "C" 
			},
			{
				"x": -0.8841263233,
				"y": -1.0414644224,
				"z": 0.5630694218,
				"element": "N" 
			},
			{
				"x": 0.3923723259,
				"y": -1.7381679914,
				"z": 0.7630490277,
				"element": "C" 
			},
			{
				"x": 1.5949813994,
				"y": -0.9774535802,
				"z": 0.1634514749,
				"element": "C" 
			},
			{
				"x": 1.9130914467,
				"y": 0.2766231733,
				"z": 0.8516638116,
				"element": "C" 
			},
			{
				"x": 2.1612487402,
				"y": 1.2636063274,
				"z": 1.4102264914,
				"element": "N" 
			},
			{
				"x": -1.6259188417,
				"y": 0.4121189034,
				"z": -0.5524730385,
				"element": "H" 
			},
			{
				"x": -0.4414693312,
				"y": 0.4407600378,
				"z": 1.9847243584,
				"element": "H" 
			},
			{
				"x": -1.7473181491,
				"y": -0.6266598751,
				"z": 2.5073443737,
				"element": "H" 
			},
			{
				"x": -1.614111588,
				"y": -1.7320194815,
				"z": 0.4132356187,
				"element": "H" 
			},
			{
				"x": 0.3371305527,
				"y": -2.6982745723,
				"z": 0.2414383303,
				"element": "H" 
			},
			{
				"x": 0.5887512966,
				"y": -1.9576009017,
				"z": 1.8224121805,
				"element": "H" 
			},
			{
				"x": 1.3945737665,
				"y": -0.7578875404,
				"z": -0.8907717692,
				"element": "H" 
			},
			{
				"x": 2.4827432468,
				"y": -1.6197330424,
				"z": 0.2038980927,
				"element": "H" 
			}
		],
		 "valence_orbital": [ 
			{
				"type": "occ",
				"energy": -0.34097,
				"method": "rhf"
			},
			{
				"type": "occ",
				"energy": -0.33849,
				"method": "rhf"
			},
			{
				"type": "occ",
				"energy": -0.30575,
				"method": "rhf"
			},
			{
				"type": "occ",
				"energy": -0.28539,
				"method": "rhf"
			},
			{
				"type": "occ",
				"energy": -0.26006,
				"method": "rhf"
			},
			{
				"type": "unocc",
				"energy": 0.00787,
				"method": "rhf"
			},
			{
				"type": "unocc",
				"energy": 0.01628,
				"method": "rhf"
			},
			{
				"type": "unocc",
				"energy": 0.02266,
				"method": "rhf"
			},
			{
				"type": "unocc",
				"energy": 0.05698,
				"method": "rhf"
			},
			{
				"type": "unocc",
				"energy": 0.08511,
				"method": "rhf"
			}
		],
		"cosmo_sigma_profile": { 
			"-0.025": 0.0,
			"-0.024": 0.0,
			"-0.023": 0.0,
			"-0.022": 0.0,
			"-0.021": 0.0,
			"-0.02": 0.0,
			"-0.019": 0.0,
			"-0.018": 0.0,
			"-0.017": 0.0,
			"-0.016": 0.0,
			"-0.015": 0.0,
			"-0.014": 0.0,
			"-0.013": 0.71269030222,
			"-0.012": 2.29709695673,
			"-0.011": 2.95092462718,
			"-0.01": 2.116629233,
			"-0.009": 3.13146405378,
			"-0.008": 7.81590922633,
			"-0.007": 12.0279831156,
			"-0.006": 17.4487986625,
			"-0.005": 18.6809189809,
			"-0.004": 14.171606662,
			"-0.003": 8.40181130139,
			"-0.002": 5.24247391989,
			"-0.001": 4.20425117627,
			"0.0": 4.33154072325,
			"0.001": 4.0739226871,
			"0.002": 4.07908540017,
			"0.003": 2.67754309869,
			"0.004": 4.36891462502,
			"0.005": 3.2401296795,
			"0.006": 5.68236486891,
			"0.007": 4.23661810572,
			"0.008": 4.65837773076,
			"0.009": 6.26881558771,
			"0.01": 7.93658483083,
			"0.011": 7.52490049317,
			"0.012": 8.38415199236,
			"0.013": 5.62317588117,
			"0.014": 0.730645064838,
			"0.015": 0.0,
			"0.016": 0.0,
			"0.017": 0.0,
			"0.018": 0.0,
			"0.019": 0.0,
			"0.02": 0.0,
			"0.021": 0.0,
			"0.022": 0.0,
			"0.023": 0.0,
			"0.024": 0.0,
			"0.025": 0.0
		}
	}
}
