{
	 "smiles": "CC(C)(C)C1=CC=C(SCC(O)=O)C=C1", 
	 "Tm": 339.15, 
	 "num_atms": 31, 
	 "gaussian": { 
		 "optdone": 1, 
		 "sigma_profile": "yes", 
		 "theory": "DFT", 
		 "functional": "B3LYP", 
		 "basiset": "6-31G**", 
		 "properties": { 
			 "R2extent": 6333.8876, 
			 "electric_dipole_moment_norm": 2.4074664359, 
			 "electric_quadrupole_moment_norm": 13.5966791104, 
			 "total_energy": -1015.57902328, 
			 "HOMO_LUMO_gap": 0.20847, 
			 "cosmo_polarized_energy": -11.63, 
			 "cosmo_cavitation_energy": 34.89, 
			 "cosmo_dispersion_energy": -24.99, 
			 "cosmo_repulsion_energy": 1.92, 
			 "cosmo_total_nonelectrostatic_energy": 11.82, 
			 "SMD_solvation_energy": 6.83 
		},
		"coords": [
			{
				"x": -1.3890544914,
				"y": -2.2661182521,
				"z": -2.4247825952,
				"element": "C" 
			},
			{
				"x": -1.4484660669,
				"y": -1.1221201524,
				"z": -1.3948728822,
				"element": "C" 
			},
			{
				"x": -2.1615455949,
				"y": -1.650933864,
				"z": -0.1272701016,
				"element": "C" 
			},
			{
				"x": -2.2775847054,
				"y": 0.0334738697,
				"z": -2.0046799597,
				"element": "C" 
			},
			{
				"x": -0.0501291485,
				"y": -0.6025545103,
				"z": -1.0151622116,
				"element": "C" 
			},
			{
				"x": 0.0804901191,
				"y": 0.4442469648,
				"z": -0.0843243705,
				"element": "C" 
			},
			{
				"x": 1.323292684,
				"y": 0.9401426731,
				"z": 0.299356438,
				"element": "C" 
			},
			{
				"x": 2.4919600381,
				"y": 0.4101410486,
				"z": -0.2658468452,
				"element": "C" 
			},
			{
				"x": 4.1239215564,
				"y": 0.9685287645,
				"z": 0.2370594131,
				"element": "S" 
			},
			{
				"x": 4.2270942831,
				"y": 2.6312081868,
				"z": -0.5141038258,
				"element": "C" 
			},
			{
				"x": 3.6077812922,
				"y": 3.769401548,
				"z": 0.2827702551,
				"element": "C" 
			},
			{
				"x": 4.0515465288,
				"y": 4.95814887,
				"z": -0.194897664,
				"element": "O" 
			},
			{
				"x": 2.8209407489,
				"y": 3.6880628667,
				"z": 1.1970612649,
				"element": "O" 
			},
			{
				"x": 2.3844123123,
				"y": -0.6296582057,
				"z": -1.1933718113,
				"element": "C" 
			},
			{
				"x": 1.1304918676,
				"y": -1.1288588739,
				"z": -1.5555395628,
				"element": "C" 
			},
			{
				"x": -0.9191176517,
				"y": -1.9482692726,
				"z": -3.3613972125,
				"element": "H" 
			},
			{
				"x": -0.8387215358,
				"y": -3.1317606928,
				"z": -2.041711532,
				"element": "H" 
			},
			{
				"x": -2.404045937,
				"y": -2.6003745415,
				"z": -2.6627576483,
				"element": "H" 
			},
			{
				"x": -3.1624393831,
				"y": -2.019157971,
				"z": -0.3794606027,
				"element": "H" 
			},
			{
				"x": -1.5994429464,
				"y": -2.4756905034,
				"z": 0.3228681618,
				"element": "H" 
			},
			{
				"x": -2.2753288699,
				"y": -0.8716057422,
				"z": 0.6319097974,
				"element": "H" 
			},
			{
				"x": -3.2799835897,
				"y": -0.3180580603,
				"z": -2.2740448388,
				"element": "H" 
			},
			{
				"x": -2.3940246481,
				"y": 0.8653799885,
				"z": -1.3039356089,
				"element": "H" 
			},
			{
				"x": -1.7999728901,
				"y": 0.4233154015,
				"z": -2.9096603149,
				"element": "H" 
			},
			{
				"x": -0.8072414309,
				"y": 0.8797691135,
				"z": 0.365370512,
				"element": "H" 
			},
			{
				"x": 1.3989910308,
				"y": 1.7410272261,
				"z": 1.0262941118,
				"element": "H" 
			},
			{
				"x": 5.2891679736,
				"y": 2.8496608329,
				"z": -0.6580947436,
				"element": "H" 
			},
			{
				"x": 3.7719576595,
				"y": 2.6203602535,
				"z": -1.5097117167,
				"element": "H" 
			},
			{
				"x": 3.6056126704,
				"y": 5.6448115957,
				"z": 0.3293723385,
				"element": "H" 
			},
			{
				"x": 3.2828135058,
				"y": -1.0512022595,
				"z": -1.6337956477,
				"element": "H" 
			},
			{
				"x": 1.0898246194,
				"y": -1.9375163025,
				"z": -2.2762405964,
				"element": "H" 
			}
		],
		 "valence_orbital": [ 
			{
				"type": "occ",
				"energy": -0.31078,
				"method": "rhf"
			},
			{
				"type": "occ",
				"energy": -0.28465,
				"method": "rhf"
			},
			{
				"type": "occ",
				"energy": -0.25016,
				"method": "rhf"
			},
			{
				"type": "occ",
				"energy": -0.24836,
				"method": "rhf"
			},
			{
				"type": "occ",
				"energy": -0.22356,
				"method": "rhf"
			},
			{
				"type": "unocc",
				"energy": -0.01509,
				"method": "rhf"
			},
			{
				"type": "unocc",
				"energy": -0.00215,
				"method": "rhf"
			},
			{
				"type": "unocc",
				"energy": 0.00182,
				"method": "rhf"
			},
			{
				"type": "unocc",
				"energy": 0.04942,
				"method": "rhf"
			},
			{
				"type": "unocc",
				"energy": 0.06165,
				"method": "rhf"
			}
		],
		"cosmo_sigma_profile": { 
			"-0.025": 0.0,
			"-0.024": 0.0,
			"-0.023": 0.0,
			"-0.022": 0.0,
			"-0.021": 0.0,
			"-0.02": 0.0,
			"-0.019": 0.133490720904,
			"-0.018": 1.01526503808,
			"-0.017": 0.796852156354,
			"-0.016": 1.22600064731,
			"-0.015": 0.245357540274,
			"-0.014": 0.26413731808,
			"-0.013": 0.643517095191,
			"-0.012": 1.34033587244,
			"-0.011": 1.31811432753,
			"-0.01": 0.185782869425,
			"-0.009": 1.14671155713,
			"-0.008": 4.69527929325,
			"-0.007": 4.93891207939,
			"-0.006": 6.57826909356,
			"-0.005": 11.0464137397,
			"-0.004": 13.5290759117,
			"-0.003": 25.7307767155,
			"-0.002": 29.711930096,
			"-0.001": 23.6805849985,
			"0.0": 24.5996362185,
			"0.001": 33.1244251819,
			"0.002": 17.777605927,
			"0.003": 13.7798158696,
			"0.004": 12.7976976088,
			"0.005": 14.6569911086,
			"0.006": 7.64286996181,
			"0.007": 4.76876309277,
			"0.008": 5.17228456133,
			"0.009": 4.20739195092,
			"0.01": 3.31740890561,
			"0.011": 4.6839915026,
			"0.012": 1.15208583126,
			"0.013": 0.0,
			"0.014": 0.0,
			"0.015": 0.0,
			"0.016": 0.0,
			"0.017": 0.0,
			"0.018": 0.0,
			"0.019": 0.0,
			"0.02": 0.0,
			"0.021": 0.0,
			"0.022": 0.0,
			"0.023": 0.0,
			"0.024": 0.0,
			"0.025": 0.0
		}
	}
}
