{
	 "smiles": "CC1=C(NC(=O)OC(C)(C)C)SC=N1", 
	 "Tm": 410.15, 
	 "num_atms": 28, 
	 "gaussian": { 
		 "optdone": 1, 
		 "sigma_profile": "yes", 
		 "theory": "DFT", 
		 "functional": "B3LYP", 
		 "basiset": "6-31G**", 
		 "properties": { 
			 "R2extent": 4253.2573, 
			 "electric_dipole_moment_norm": 1.73597097902, 
			 "electric_quadrupole_moment_norm": 8.1201976774, 
			 "total_energy": -1009.55942319, 
			 "HOMO_LUMO_gap": 0.18882, 
			 "cosmo_polarized_energy": -10.95, 
			 "cosmo_cavitation_energy": 32.27, 
			 "cosmo_dispersion_energy": -23.16, 
			 "cosmo_repulsion_energy": 1.78, 
			 "cosmo_total_nonelectrostatic_energy": 10.89, 
			 "SMD_solvation_energy": 5.4 
		},
		"coords": [
			{
				"x": -4.3809726482,
				"y": -2.3941560456,
				"z": 0.5507524301,
				"element": "C" 
			},
			{
				"x": -3.6759220775,
				"y": -1.5633783545,
				"z": -0.4851808032,
				"element": "C" 
			},
			{
				"x": -2.3529220743,
				"y": -1.180083007,
				"z": -0.429044519,
				"element": "C" 
			},
			{
				"x": -1.4832095272,
				"y": -1.5161054889,
				"z": 0.6073530747,
				"element": "N" 
			},
			{
				"x": -0.1502938999,
				"y": -1.2229509006,
				"z": 0.8248023162,
				"element": "C" 
			},
			{
				"x": 0.4328990439,
				"y": -1.6243031582,
				"z": 1.8169319434,
				"element": "O" 
			},
			{
				"x": 0.3542464805,
				"y": -0.4757045488,
				"z": -0.1708380729,
				"element": "O" 
			},
			{
				"x": 1.7694624353,
				"y": -0.0400872337,
				"z": -0.1527017254,
				"element": "C" 
			},
			{
				"x": 2.018232818,
				"y": 0.8495015215,
				"z": 1.0685788775,
				"element": "C" 
			},
			{
				"x": 1.8885416608,
				"y": 0.7632822664,
				"z": -1.4490439336,
				"element": "C" 
			},
			{
				"x": 2.6857158643,
				"y": -1.2666567262,
				"z": -0.1816001553,
				"element": "C" 
			},
			{
				"x": -1.9376322559,
				"y": -0.22591657,
				"z": -1.8302551864,
				"element": "S" 
			},
			{
				"x": -3.5891495762,
				"y": -0.422958378,
				"z": -2.3790486118,
				"element": "C" 
			},
			{
				"x": -4.3563874729,
				"y": -1.1223436813,
				"z": -1.5997739086,
				"element": "N" 
			},
			{
				"x": -3.9240053612,
				"y": -3.3851368298,
				"z": 0.6692979657,
				"element": "H" 
			},
			{
				"x": -5.4178516951,
				"y": -2.5392863698,
				"z": 0.2431323179,
				"element": "H" 
			},
			{
				"x": -4.3875053362,
				"y": -1.9107217127,
				"z": 1.5362188792,
				"element": "H" 
			},
			{
				"x": -1.8738831953,
				"y": -2.0781659037,
				"z": 1.3508470217,
				"element": "H" 
			},
			{
				"x": 1.9120023951,
				"y": 0.2841318914,
				"z": 1.9946226929,
				"element": "H" 
			},
			{
				"x": 1.3143377853,
				"y": 1.6874899752,
				"z": 1.0790080473,
				"element": "H" 
			},
			{
				"x": 3.032338314,
				"y": 1.2587803931,
				"z": 1.0189942145,
				"element": "H" 
			},
			{
				"x": 1.6639751353,
				"y": 0.1361663938,
				"z": -2.3163477563,
				"element": "H" 
			},
			{
				"x": 2.9072435887,
				"y": 1.1479812999,
				"z": -1.55398622,
				"element": "H" 
			},
			{
				"x": 1.1969285046,
				"y": 1.6103790249,
				"z": -1.4455733512,
				"element": "H" 
			},
			{
				"x": 3.7259342685,
				"y": -0.9404483739,
				"z": -0.2812126822,
				"element": "H" 
			},
			{
				"x": 2.5868141442,
				"y": -1.8526321718,
				"z": 0.732377494,
				"element": "H" 
			},
			{
				"x": 2.4454959762,
				"y": -1.9011569727,
				"z": -1.0403809093,
				"element": "H" 
			},
			{
				"x": -3.9086332946,
				"y": 0.0252796614,
				"z": -3.3123294397,
				"element": "H" 
			}
		],
		 "valence_orbital": [ 
			{
				"type": "occ",
				"energy": -0.30205,
				"method": "rhf"
			},
			{
				"type": "occ",
				"energy": -0.28316,
				"method": "rhf"
			},
			{
				"type": "occ",
				"energy": -0.27098,
				"method": "rhf"
			},
			{
				"type": "occ",
				"energy": -0.26384,
				"method": "rhf"
			},
			{
				"type": "occ",
				"energy": -0.21007,
				"method": "rhf"
			},
			{
				"type": "unocc",
				"energy": -0.02125,
				"method": "rhf"
			},
			{
				"type": "unocc",
				"energy": 0.02244,
				"method": "rhf"
			},
			{
				"type": "unocc",
				"energy": 0.03834,
				"method": "rhf"
			},
			{
				"type": "unocc",
				"energy": 0.06507,
				"method": "rhf"
			},
			{
				"type": "unocc",
				"energy": 0.07639,
				"method": "rhf"
			}
		],
		"cosmo_sigma_profile": { 
			"-0.025": 0.0,
			"-0.024": 0.0,
			"-0.023": 0.0,
			"-0.022": 0.0,
			"-0.021": 0.0,
			"-0.02": 0.0,
			"-0.019": 0.0,
			"-0.018": 0.0,
			"-0.017": 0.0,
			"-0.016": 0.0,
			"-0.015": 0.047151117995,
			"-0.014": 0.745016357697,
			"-0.013": 0.640528111772,
			"-0.012": 1.18966685036,
			"-0.011": 0.96176230833,
			"-0.01": 1.62374966192,
			"-0.009": 3.32675370428,
			"-0.008": 2.90180563559,
			"-0.007": 3.55923995697,
			"-0.006": 4.57961440871,
			"-0.005": 8.16474354967,
			"-0.004": 19.3793997449,
			"-0.003": 22.3367562445,
			"-0.002": 23.7908139741,
			"-0.001": 29.3061265773,
			"0.0": 36.4767369681,
			"0.001": 25.1726622411,
			"0.002": 19.3481709512,
			"0.003": 12.4930495678,
			"0.004": 8.84663329308,
			"0.005": 4.38427416047,
			"0.006": 3.33911878461,
			"0.007": 2.9656538029,
			"0.008": 2.48995324876,
			"0.009": 2.54029901378,
			"0.01": 2.9192186124,
			"0.011": 3.24646174023,
			"0.012": 3.31656514349,
			"0.013": 3.64344880509,
			"0.014": 1.23484249475,
			"0.015": 0.819546963626,
			"0.016": 0.208626328647,
			"0.017": 0.0,
			"0.018": 0.0,
			"0.019": 0.0,
			"0.02": 0.0,
			"0.021": 0.0,
			"0.022": 0.0,
			"0.023": 0.0,
			"0.024": 0.0,
			"0.025": 0.0
		}
	}
}
