{
	 "smiles": "CC(C)(C)NS(=O)(=O)C1=CC(N)=CC=C1", 
	 "Tm": 411.15, 
	 "num_atms": 31, 
	 "gaussian": { 
		 "optdone": 1, 
		 "sigma_profile": "yes", 
		 "theory": "DFT", 
		 "functional": "B3LYP", 
		 "basiset": "6-31G**", 
		 "properties": { 
			 "R2extent": 5092.8498, 
			 "electric_dipole_moment_norm": 5.32375771049, 
			 "electric_quadrupole_moment_norm": 28.4087890038, 
			 "total_energy": -1048.79298338, 
			 "HOMO_LUMO_gap": 0.1882, 
			 "cosmo_polarized_energy": -17.89, 
			 "cosmo_cavitation_energy": 34.24, 
			 "cosmo_dispersion_energy": -24.09, 
			 "cosmo_repulsion_energy": 1.85, 
			 "cosmo_total_nonelectrostatic_energy": 12.0, 
			 "SMD_solvation_energy": 5.1 
		},
		"coords": [
			{
				"x": 2.5979927066,
				"y": 2.7730841121,
				"z": 0.7482571263,
				"element": "C" 
			},
			{
				"x": 2.5638930519,
				"y": 1.2521390681,
				"z": 0.9789372517,
				"element": "C" 
			},
			{
				"x": 3.9901455294,
				"y": 0.7240532491,
				"z": 1.2247945469,
				"element": "C" 
			},
			{
				"x": 1.9273915154,
				"y": 0.5609275978,
				"z": -0.2360508133,
				"element": "C" 
			},
			{
				"x": 1.6926825822,
				"y": 1.0690670242,
				"z": 2.1804652069,
				"element": "N" 
			},
			{
				"x": 1.1761161499,
				"y": -0.4285128701,
				"z": 2.7623717789,
				"element": "S" 
			},
			{
				"x": 1.0031236997,
				"y": -0.2074828229,
				"z": 4.2037012896,
				"element": "O" 
			},
			{
				"x": 2.0167836314,
				"y": -1.5341666359,
				"z": 2.2766452766,
				"element": "O" 
			},
			{
				"x": -0.4430864125,
				"y": -0.6293660127,
				"z": 2.0073079655,
				"element": "C" 
			},
			{
				"x": -0.7417067628,
				"y": -1.8610589016,
				"z": 1.4339300288,
				"element": "C" 
			},
			{
				"x": -2.0233396941,
				"y": -2.086204502,
				"z": 0.8999739122,
				"element": "C" 
			},
			{
				"x": -2.3581374574,
				"y": -3.3277846031,
				"z": 0.36987967,
				"element": "N" 
			},
			{
				"x": -2.9693784345,
				"y": -1.0478476181,
				"z": 0.9639164869,
				"element": "C" 
			},
			{
				"x": -2.6457402495,
				"y": 0.1756956852,
				"z": 1.5475191134,
				"element": "C" 
			},
			{
				"x": -1.3787585831,
				"y": 0.4046083053,
				"z": 2.0829895366,
				"element": "C" 
			},
			{
				"x": 1.5921896135,
				"y": 3.1634270328,
				"z": 0.5694513545,
				"element": "H" 
			},
			{
				"x": 3.2247530156,
				"y": 3.0079901789,
				"z": -0.1176442805,
				"element": "H" 
			},
			{
				"x": 3.0207553719,
				"y": 3.2956281297,
				"z": 1.6143819069,
				"element": "H" 
			},
			{
				"x": 4.6230537961,
				"y": 0.9145901975,
				"z": 0.351202912,
				"element": "H" 
			},
			{
				"x": 3.9776905122,
				"y": -0.3491307006,
				"z": 1.4228646597,
				"element": "H" 
			},
			{
				"x": 4.446445722,
				"y": 1.2288889314,
				"z": 2.0840599663,
				"element": "H" 
			},
			{
				"x": 2.5153904638,
				"y": 0.7874428841,
				"z": -1.1306842434,
				"element": "H" 
			},
			{
				"x": 0.9054889858,
				"y": 0.9166075415,
				"z": -0.3956320397,
				"element": "H" 
			},
			{
				"x": 1.9074346025,
				"y": -0.5240668258,
				"z": -0.112202718,
				"element": "H" 
			},
			{
				"x": 2.0323301632,
				"y": 1.5774204861,
				"z": 2.99421307,
				"element": "H" 
			},
			{
				"x": 0.0192741442,
				"y": -2.6338745982,
				"z": 1.4027924425,
				"element": "H" 
			},
			{
				"x": -1.5841436905,
				"y": -3.9040304196,
				"z": 0.0717242417,
				"element": "H" 
			},
			{
				"x": -3.1263176842,
				"y": -3.3368442775,
				"z": -0.2856363441,
				"element": "H" 
			},
			{
				"x": -3.9643506229,
				"y": -1.2074919826,
				"z": 0.5560934623,
				"element": "H" 
			},
			{
				"x": -3.3943476921,
				"y": 0.9618742848,
				"z": 1.5825923884,
				"element": "H" 
			},
			{
				"x": -1.1165279735,
				"y": 1.3552180622,
				"z": 2.5311848442,
				"element": "H" 
			}
		],
		 "valence_orbital": [ 
			{
				"type": "occ",
				"energy": -0.29905,
				"method": "rhf"
			},
			{
				"type": "occ",
				"energy": -0.29021,
				"method": "rhf"
			},
			{
				"type": "occ",
				"energy": -0.26965,
				"method": "rhf"
			},
			{
				"type": "occ",
				"energy": -0.25308,
				"method": "rhf"
			},
			{
				"type": "occ",
				"energy": -0.2144,
				"method": "rhf"
			},
			{
				"type": "unocc",
				"energy": -0.0262,
				"method": "rhf"
			},
			{
				"type": "unocc",
				"energy": 0.00077,
				"method": "rhf"
			},
			{
				"type": "unocc",
				"energy": 0.05982,
				"method": "rhf"
			},
			{
				"type": "unocc",
				"energy": 0.07174,
				"method": "rhf"
			},
			{
				"type": "unocc",
				"energy": 0.07745,
				"method": "rhf"
			}
		],
		"cosmo_sigma_profile": { 
			"-0.025": 0.0,
			"-0.024": 0.0,
			"-0.023": 0.0,
			"-0.022": 0.0,
			"-0.021": 0.0,
			"-0.02": 0.0,
			"-0.019": 0.0,
			"-0.018": 0.0,
			"-0.017": 0.0,
			"-0.016": 0.0,
			"-0.015": 0.0,
			"-0.014": 0.00964006162973,
			"-0.013": 2.14845411653,
			"-0.012": 3.79058616832,
			"-0.011": 4.20492915957,
			"-0.01": 5.1840782015,
			"-0.009": 4.33597990823,
			"-0.008": 4.01236228848,
			"-0.007": 5.11097844749,
			"-0.006": 8.72167453763,
			"-0.005": 10.5777504437,
			"-0.004": 16.9297288965,
			"-0.003": 18.6593592128,
			"-0.002": 20.2283111451,
			"-0.001": 21.9991016412,
			"0.0": 28.1152146974,
			"0.001": 24.3847937615,
			"0.002": 14.0559554802,
			"0.003": 12.8756070534,
			"0.004": 15.0459464245,
			"0.005": 9.37390235312,
			"0.006": 4.85852476642,
			"0.007": 3.61467065266,
			"0.008": 3.35139993627,
			"0.009": 4.20329771352,
			"0.01": 6.38364851989,
			"0.011": 8.33707896083,
			"0.012": 7.17459932953,
			"0.013": 0.597624391064,
			"0.014": 0.171954981991,
			"0.015": 0.0,
			"0.016": 0.0,
			"0.017": 0.0,
			"0.018": 0.0,
			"0.019": 0.0,
			"0.02": 0.0,
			"0.021": 0.0,
			"0.022": 0.0,
			"0.023": 0.0,
			"0.024": 0.0,
			"0.025": 0.0
		}
	}
}
