{
	 "smiles": "CC(C)(C)C1=CC=C(C=C1)C1(CCCCC1)C(O)=O", 
	 "Tm": 434.15, 
	 "num_atms": 43, 
	 "gaussian": { 
		 "optdone": 1, 
		 "sigma_profile": "yes", 
		 "theory": "DFT", 
		 "functional": "B3LYP", 
		 "basiset": "6-31G**", 
		 "properties": { 
			 "R2extent": 6648.8337, 
			 "electric_dipole_moment_norm": 1.56311291979, 
			 "electric_quadrupole_moment_norm": 9.77634517496, 
			 "total_energy": -812.757832922, 
			 "HOMO_LUMO_gap": 0.22025, 
			 "cosmo_polarized_energy": -9.49, 
			 "cosmo_cavitation_energy": 41.33, 
			 "cosmo_dispersion_energy": -28.98, 
			 "cosmo_repulsion_energy": 2.23, 
			 "cosmo_total_nonelectrostatic_energy": 14.59, 
			 "SMD_solvation_energy": 7.44 
		},
		"coords": [
			{
				"x": -1.2697020271,
				"y": 3.9596891683,
				"z": 2.7160937023,
				"element": "C" 
			},
			{
				"x": -2.0313634958,
				"y": 3.2879519368,
				"z": 1.5578126855,
				"element": "C" 
			},
			{
				"x": -2.052330368,
				"y": 4.2684703048,
				"z": 0.3609009715,
				"element": "C" 
			},
			{
				"x": -3.4820101825,
				"y": 3.0204631793,
				"z": 2.0251764415,
				"element": "C" 
			},
			{
				"x": -1.3805824116,
				"y": 1.9634453805,
				"z": 1.1213335004,
				"element": "C" 
			},
			{
				"x": -1.9421987295,
				"y": 1.208844076,
				"z": 0.0803377035,
				"element": "C" 
			},
			{
				"x": -1.3792802905,
				"y": 0.0080440485,
				"z": -0.3476138514,
				"element": "C" 
			},
			{
				"x": -0.20975488,
				"y": -0.4995143487,
				"z": 0.2373303758,
				"element": "C" 
			},
			{
				"x": 0.3387691668,
				"y": 0.2382319364,
				"z": 1.2951583327,
				"element": "C" 
			},
			{
				"x": -0.2277088335,
				"y": 1.4402726155,
				"z": 1.7211983009,
				"element": "C" 
			},
			{
				"x": 0.4140347426,
				"y": -1.8463942133,
				"z": -0.2074085678,
				"element": "C" 
			},
			{
				"x": 1.9772570508,
				"y": -1.7676455771,
				"z": -0.3273569054,
				"element": "C" 
			},
			{
				"x": 2.4213061521,
				"y": -1.4995653942,
				"z": -1.7702950788,
				"element": "C" 
			},
			{
				"x": 2.0576696361,
				"y": -2.6865541276,
				"z": -2.6901903047,
				"element": "C" 
			},
			{
				"x": 0.7446673947,
				"y": -3.3662256411,
				"z": -2.23501984,
				"element": "C" 
			},
			{
				"x": -0.1820636225,
				"y": -2.3549705339,
				"z": -1.5489954968,
				"element": "C" 
			},
			{
				"x": 0.027713822,
				"y": -2.8500841388,
				"z": 0.8945834072,
				"element": "C" 
			},
			{
				"x": 0.8258320733,
				"y": -2.7532630521,
				"z": 1.9887273867,
				"element": "O" 
			},
			{
				"x": -0.8903830622,
				"y": -3.6400989795,
				"z": 0.8494808375,
				"element": "O" 
			},
			{
				"x": -1.7663868956,
				"y": 4.8961050683,
				"z": 2.9903410317,
				"element": "H" 
			},
			{
				"x": -0.2383487275,
				"y": 4.2022467377,
				"z": 2.4394623496,
				"element": "H" 
			},
			{
				"x": -1.2445977842,
				"y": 3.3263108528,
				"z": 3.6089663364,
				"element": "H" 
			},
			{
				"x": -2.6164073513,
				"y": 3.8650003744,
				"z": -0.4852452309,
				"element": "H" 
			},
			{
				"x": -2.5196166344,
				"y": 5.2162571532,
				"z": 0.6517086875,
				"element": "H" 
			},
			{
				"x": -1.0365754181,
				"y": 4.4831992709,
				"z": 0.0128014678,
				"element": "H" 
			},
			{
				"x": -3.4983625107,
				"y": 2.3333836854,
				"z": 2.8775544064,
				"element": "H" 
			},
			{
				"x": -4.0912706715,
				"y": 2.5799106811,
				"z": 1.2304932113,
				"element": "H" 
			},
			{
				"x": -3.9622599408,
				"y": 3.956240766,
				"z": 2.3331997968,
				"element": "H" 
			},
			{
				"x": -2.8443335635,
				"y": 1.557138691,
				"z": -0.4145978952,
				"element": "H" 
			},
			{
				"x": -1.8714629665,
				"y": -0.5324043483,
				"z": -1.1475825845,
				"element": "H" 
			},
			{
				"x": 1.2142575667,
				"y": -0.1329959785,
				"z": 1.8170662278,
				"element": "H" 
			},
			{
				"x": 0.2484292327,
				"y": 1.9660984346,
				"z": 2.5411163815,
				"element": "H" 
			},
			{
				"x": 2.4160160623,
				"y": -2.7144358989,
				"z": 0.0065014898,
				"element": "H" 
			},
			{
				"x": 2.3719440287,
				"y": -1.0027176138,
				"z": 0.3432738729,
				"element": "H" 
			},
			{
				"x": 3.5004299426,
				"y": -1.3120142683,
				"z": -1.798025153,
				"element": "H" 
			},
			{
				"x": 1.9434856527,
				"y": -0.5792644525,
				"z": -2.1283503211,
				"element": "H" 
			},
			{
				"x": 1.9595785187,
				"y": -2.3321634826,
				"z": -3.7231061959,
				"element": "H" 
			},
			{
				"x": 2.8719901556,
				"y": -3.420890648,
				"z": -2.6925043913,
				"element": "H" 
			},
			{
				"x": 0.9580374888,
				"y": -4.1878527116,
				"z": -1.540286291,
				"element": "H" 
			},
			{
				"x": 0.2331381534,
				"y": -3.8216584152,
				"z": -3.089649026,
				"element": "H" 
			},
			{
				"x": -1.164290139,
				"y": -2.7939696926,
				"z": -1.3612598557,
				"element": "H" 
			},
			{
				"x": -0.3241824869,
				"y": -1.5034730161,
				"z": -2.2223871287,
				"element": "H" 
			},
			{
				"x": 0.4676161524,
				"y": -3.386647829,
				"z": 2.6330552132,
				"element": "H" 
			}
		],
		 "valence_orbital": [ 
			{
				"type": "occ",
				"energy": -0.30239,
				"method": "rhf"
			},
			{
				"type": "occ",
				"energy": -0.29501,
				"method": "rhf"
			},
			{
				"type": "occ",
				"energy": -0.27173,
				"method": "rhf"
			},
			{
				"type": "occ",
				"energy": -0.24467,
				"method": "rhf"
			},
			{
				"type": "occ",
				"energy": -0.23107,
				"method": "rhf"
			},
			{
				"type": "unocc",
				"energy": -0.01082,
				"method": "rhf"
			},
			{
				"type": "unocc",
				"energy": 0.00168,
				"method": "rhf"
			},
			{
				"type": "unocc",
				"energy": 0.02987,
				"method": "rhf"
			},
			{
				"type": "unocc",
				"energy": 0.07726,
				"method": "rhf"
			},
			{
				"type": "unocc",
				"energy": 0.08283,
				"method": "rhf"
			}
		],
		"cosmo_sigma_profile": { 
			"-0.025": 0.0,
			"-0.024": 0.0,
			"-0.023": 0.0,
			"-0.022": 0.0,
			"-0.021": 0.0,
			"-0.02": 0.0,
			"-0.019": 0.0,
			"-0.018": 0.333490139603,
			"-0.017": 1.09454923522,
			"-0.016": 1.0276615503,
			"-0.015": 0.32891644324,
			"-0.014": 0.841423580464,
			"-0.013": 0.48103484651,
			"-0.012": 1.35689703644,
			"-0.011": 0.885485767953,
			"-0.01": 0.334867304576,
			"-0.009": 0.435349679633,
			"-0.008": 0.320545127972,
			"-0.007": 0.956271298752,
			"-0.006": 1.40940830869,
			"-0.005": 7.77063181367,
			"-0.004": 12.9075643015,
			"-0.003": 31.3861633874,
			"-0.002": 47.2919554324,
			"-0.001": 47.191758224,
			"0.0": 42.1446008326,
			"0.001": 41.8451930944,
			"0.002": 20.2805775521,
			"0.003": 11.6112273287,
			"0.004": 10.3028004405,
			"0.005": 10.647843278,
			"0.006": 9.98091804296,
			"0.007": 3.37736325199,
			"0.008": 2.79907724834,
			"0.009": 1.76080151864,
			"0.01": 1.69681626321,
			"0.011": 3.3240096612,
			"0.012": 4.31524645756,
			"0.013": 0.188983040468,
			"0.014": 0.0,
			"0.015": 0.0,
			"0.016": 0.0,
			"0.017": 0.0,
			"0.018": 0.0,
			"0.019": 0.0,
			"0.02": 0.0,
			"0.021": 0.0,
			"0.022": 0.0,
			"0.023": 0.0,
			"0.024": 0.0,
			"0.025": 0.0
		}
	}
}
