{
	 "smiles": "NCC1=NN=C2CCC(CN12)C(F)(F)F", 
	 "Tm": 329.15, 
	 "num_atms": 26, 
	 "gaussian": { 
		 "optdone": 1, 
		 "sigma_profile": "yes", 
		 "theory": "DFT", 
		 "functional": "B3LYP", 
		 "basiset": "6-31G**", 
		 "properties": { 
			 "R2extent": 3758.0656, 
			 "electric_dipole_moment_norm": 5.06306349358, 
			 "electric_quadrupole_moment_norm": 20.7173382921, 
			 "total_energy": -830.004820254, 
			 "HOMO_LUMO_gap": 0.25647, 
			 "cosmo_polarized_energy": -19.73, 
			 "cosmo_cavitation_energy": 29.05, 
			 "cosmo_dispersion_energy": -20.66, 
			 "cosmo_repulsion_energy": 1.57, 
			 "cosmo_total_nonelectrostatic_energy": 9.96, 
			 "SMD_solvation_energy": 2.56 
		},
		"coords": [
			{
				"x": 1.2061494142,
				"y": -0.6689986406,
				"z": -3.1643375571,
				"element": "N" 
			},
			{
				"x": -0.1992358462,
				"y": -0.421549709,
				"z": -2.8016462232,
				"element": "C" 
			},
			{
				"x": -0.2960636118,
				"y": 0.5643762778,
				"z": -1.6810970494,
				"element": "C" 
			},
			{
				"x": -0.9819044099,
				"y": 1.6851070123,
				"z": -1.7154911781,
				"element": "N" 
			},
			{
				"x": -0.8255748608,
				"y": 2.3139737865,
				"z": -0.4955545048,
				"element": "N" 
			},
			{
				"x": -0.0427752405,
				"y": 1.5555707138,
				"z": 0.2372775319,
				"element": "C" 
			},
			{
				"x": 0.471666765,
				"y": 1.8290187201,
				"z": 1.6157308185,
				"element": "C" 
			},
			{
				"x": 1.0112289327,
				"y": 0.5428214383,
				"z": 2.2686379032,
				"element": "C" 
			},
			{
				"x": 1.8909226994,
				"y": -0.2940283733,
				"z": 1.3161205686,
				"element": "C" 
			},
			{
				"x": 1.1267918238,
				"y": -0.6838634686,
				"z": 0.0375794563,
				"element": "C" 
			},
			{
				"x": 0.3274556242,
				"y": 0.4337481054,
				"z": -0.4619481431,
				"element": "N" 
			},
			{
				"x": 3.223422117,
				"y": 0.3717810065,
				"z": 0.9940124458,
				"element": "C" 
			},
			{
				"x": 3.8790873839,
				"y": 0.7180326211,
				"z": 2.1243475527,
				"element": "F" 
			},
			{
				"x": 3.0894813787,
				"y": 1.4903152373,
				"z": 0.2470630782,
				"element": "F" 
			},
			{
				"x": 4.0266324896,
				"y": -0.4703671537,
				"z": 0.3054453944,
				"element": "F" 
			},
			{
				"x": 1.2545229231,
				"y": -1.3831158843,
				"z": -3.8866681409,
				"element": "H" 
			},
			{
				"x": 1.6075648008,
				"y": 0.1773097535,
				"z": -3.5617866461,
				"element": "H" 
			},
			{
				"x": -0.8300450937,
				"y": -0.0279153702,
				"z": -3.6111950314,
				"element": "H" 
			},
			{
				"x": -0.633537841,
				"y": -1.3830406785,
				"z": -2.4953498031,
				"element": "H" 
			},
			{
				"x": -0.3296371106,
				"y": 2.2617508155,
				"z": 2.2212555256,
				"element": "H" 
			},
			{
				"x": 1.2642898658,
				"y": 2.5831536699,
				"z": 1.5584222506,
				"element": "H" 
			},
			{
				"x": 0.1719953124,
				"y": -0.0916429851,
				"z": 2.5765299505,
				"element": "H" 
			},
			{
				"x": 1.5752806846,
				"y": 0.7851244891,
				"z": 3.1728607593,
				"element": "H" 
			},
			{
				"x": 2.1699330985,
				"y": -1.2238468673,
				"z": 1.8235575865,
				"element": "H" 
			},
			{
				"x": 0.458373498,
				"y": -1.520593605,
				"z": 0.2743699373,
				"element": "H" 
			},
			{
				"x": 1.7977752028,
				"y": -1.0073209118,
				"z": -0.7616364824,
				"element": "H" 
			}
		],
		 "valence_orbital": [ 
			{
				"type": "occ",
				"energy": -0.29303,
				"method": "rhf"
			},
			{
				"type": "occ",
				"energy": -0.27721,
				"method": "rhf"
			},
			{
				"type": "occ",
				"energy": -0.25645,
				"method": "rhf"
			},
			{
				"type": "occ",
				"energy": -0.24001,
				"method": "rhf"
			},
			{
				"type": "occ",
				"energy": -0.23896,
				"method": "rhf"
			},
			{
				"type": "unocc",
				"energy": 0.01751,
				"method": "rhf"
			},
			{
				"type": "unocc",
				"energy": 0.04521,
				"method": "rhf"
			},
			{
				"type": "unocc",
				"energy": 0.0615,
				"method": "rhf"
			},
			{
				"type": "unocc",
				"energy": 0.09027,
				"method": "rhf"
			},
			{
				"type": "unocc",
				"energy": 0.10346,
				"method": "rhf"
			}
		],
		"cosmo_sigma_profile": { 
			"-0.025": 0.0,
			"-0.024": 0.0,
			"-0.023": 0.0,
			"-0.022": 0.0,
			"-0.021": 0.0,
			"-0.02": 0.0,
			"-0.019": 0.0,
			"-0.018": 0.0,
			"-0.017": 0.0,
			"-0.016": 0.0,
			"-0.015": 0.0,
			"-0.014": 0.0,
			"-0.013": 0.0,
			"-0.012": 0.0,
			"-0.011": 1.04755729682,
			"-0.01": 3.05124685592,
			"-0.009": 2.88196123141,
			"-0.008": 6.83492672117,
			"-0.007": 12.214380295,
			"-0.006": 14.5905170306,
			"-0.005": 17.2581517695,
			"-0.004": 22.5198255375,
			"-0.003": 17.6502689459,
			"-0.002": 13.5300261934,
			"-0.001": 8.60935955596,
			"0.0": 10.5053180245,
			"0.001": 11.4166648233,
			"0.002": 19.497166887,
			"0.003": 26.0197501548,
			"0.004": 4.37591121267,
			"0.005": 2.5789686218,
			"0.006": 2.62907181123,
			"0.007": 2.55977396387,
			"0.008": 2.1020889716,
			"0.009": 3.08494019334,
			"0.01": 2.86882767503,
			"0.011": 3.00599744792,
			"0.012": 1.76840817371,
			"0.013": 2.8922391462,
			"0.014": 3.26386589875,
			"0.015": 3.57083411453,
			"0.016": 2.46104803673,
			"0.017": 2.56204214028,
			"0.018": 1.07850155564,
			"0.019": 0.0,
			"0.02": 0.0,
			"0.021": 0.0,
			"0.022": 0.0,
			"0.023": 0.0,
			"0.024": 0.0,
			"0.025": 0.0
		}
	}
}
