{
	 "smiles": "OC(=O)CNS(=O)(=O)CC1=CC(=CC=C1)C#N", 
	 "Tm": 432.15, 
	 "num_atms": 27, 
	 "gaussian": { 
		 "optdone": 1, 
		 "sigma_profile": "yes", 
		 "theory": "DFT", 
		 "functional": "B3LYP", 
		 "basiset": "6-31G**", 
		 "properties": { 
			 "R2extent": 7605.8436, 
			 "electric_dipole_moment_norm": 5.87613676917, 
			 "electric_quadrupole_moment_norm": 48.1755106284, 
			 "total_energy": -1195.60273971, 
			 "HOMO_LUMO_gap": 0.19977, 
			 "cosmo_polarized_energy": -28.1, 
			 "cosmo_cavitation_energy": 34.66, 
			 "cosmo_dispersion_energy": -24.22, 
			 "cosmo_repulsion_energy": 1.84, 
			 "cosmo_total_nonelectrostatic_energy": 12.28, 
			 "SMD_solvation_energy": 7.26 
		},
		"coords": [
			{
				"x": -1.2141261815,
				"y": -3.8872251381,
				"z": 1.5390352552,
				"element": "O" 
			},
			{
				"x": -0.3829780958,
				"y": -4.1021181864,
				"z": 2.5680583386,
				"element": "C" 
			},
			{
				"x": -0.3062529361,
				"y": -5.1736645784,
				"z": 3.120507084,
				"element": "O" 
			},
			{
				"x": 0.4895684333,
				"y": -2.9125830453,
				"z": 3.0206673115,
				"element": "C" 
			},
			{
				"x": -0.2380578425,
				"y": -1.6997478447,
				"z": 3.4239257071,
				"element": "N" 
			},
			{
				"x": -0.7873141932,
				"y": -0.5992087363,
				"z": 2.2836413707,
				"element": "S" 
			},
			{
				"x": -2.0532944757,
				"y": -0.0628714495,
				"z": 2.7796041663,
				"element": "O" 
			},
			{
				"x": -0.6843561845,
				"y": -1.2328853347,
				"z": 0.9490379052,
				"element": "O" 
			},
			{
				"x": 0.4785680964,
				"y": 0.7169127621,
				"z": 2.3328325787,
				"element": "C" 
			},
			{
				"x": 0.173970121,
				"y": 1.8160563817,
				"z": 1.3507727366,
				"element": "C" 
			},
			{
				"x": -0.5527932252,
				"y": 2.9367663309,
				"z": 1.7597099938,
				"element": "C" 
			},
			{
				"x": -0.8447064237,
				"y": 3.9589034752,
				"z": 0.8436092728,
				"element": "C" 
			},
			{
				"x": -0.4163083825,
				"y": 3.8539581826,
				"z": -0.4898704119,
				"element": "C" 
			},
			{
				"x": 0.2979136876,
				"y": 2.7294272302,
				"z": -0.895400018,
				"element": "C" 
			},
			{
				"x": 0.5910509123,
				"y": 1.7156015385,
				"z": 0.0161755197,
				"element": "C" 
			},
			{
				"x": -1.5765244693,
				"y": 5.1154385982,
				"z": 1.2743467055,
				"element": "C" 
			},
			{
				"x": -2.1643964998,
				"y": 6.0563650052,
				"z": 1.6229238545,
				"element": "N" 
			},
			{
				"x": -1.1030933822,
				"y": -2.9858265066,
				"z": 1.1662296397,
				"element": "H" 
			},
			{
				"x": 1.0750705333,
				"y": -3.2549733974,
				"z": 3.8752886543,
				"element": "H" 
			},
			{
				"x": 1.1835859633,
				"y": -2.6454221897,
				"z": 2.2177570291,
				"element": "H" 
			},
			{
				"x": -0.9430340042,
				"y": -1.8235175288,
				"z": 4.1455175613,
				"element": "H" 
			},
			{
				"x": 0.4817444568,
				"y": 1.0669842378,
				"z": 3.3672530913,
				"element": "H" 
			},
			{
				"x": 1.4284269262,
				"y": 0.2188288185,
				"z": 2.1222254395,
				"element": "H" 
			},
			{
				"x": -0.8969366019,
				"y": 3.0240947876,
				"z": 2.7849424699,
				"element": "H" 
			},
			{
				"x": -0.6450846089,
				"y": 4.6493415655,
				"z": -1.190861546,
				"element": "H" 
			},
			{
				"x": 0.6276691141,
				"y": 2.6423383089,
				"z": -1.9255892996,
				"element": "H" 
			},
			{
				"x": 1.1403892627,
				"y": 0.8375267129,
				"z": -0.3092404096,
				"element": "H" 
			}
		],
		 "valence_orbital": [ 
			{
				"type": "occ",
				"energy": -0.3167,
				"method": "rhf"
			},
			{
				"type": "occ",
				"energy": -0.31518,
				"method": "rhf"
			},
			{
				"type": "occ",
				"energy": -0.29013,
				"method": "rhf"
			},
			{
				"type": "occ",
				"energy": -0.28088,
				"method": "rhf"
			},
			{
				"type": "occ",
				"energy": -0.26899,
				"method": "rhf"
			},
			{
				"type": "unocc",
				"energy": -0.06922,
				"method": "rhf"
			},
			{
				"type": "unocc",
				"energy": -0.05129,
				"method": "rhf"
			},
			{
				"type": "unocc",
				"energy": -0.0094,
				"method": "rhf"
			},
			{
				"type": "unocc",
				"energy": 0.02554,
				"method": "rhf"
			},
			{
				"type": "unocc",
				"energy": 0.03328,
				"method": "rhf"
			}
		],
		"cosmo_sigma_profile": { 
			"-0.025": 0.0,
			"-0.024": 0.0,
			"-0.023": 0.0,
			"-0.022": 0.0,
			"-0.021": 0.0,
			"-0.02": 0.0,
			"-0.019": 0.0,
			"-0.018": 0.0,
			"-0.017": 0.122404441035,
			"-0.016": 1.16840811862,
			"-0.015": 1.01650002111,
			"-0.014": 1.49026702649,
			"-0.013": 1.17555543388,
			"-0.012": 1.35797717596,
			"-0.011": 1.88682929182,
			"-0.01": 5.3049003901,
			"-0.009": 10.5201900893,
			"-0.008": 14.7752651505,
			"-0.007": 16.8875082442,
			"-0.006": 19.063048165,
			"-0.005": 14.6657122448,
			"-0.004": 11.8379008994,
			"-0.003": 11.2601423166,
			"-0.002": 12.3001664103,
			"-0.001": 13.4800985999,
			"0.0": 14.3599369929,
			"0.001": 17.8091324704,
			"0.002": 12.7553739523,
			"0.003": 7.50132387218,
			"0.004": 7.30114132904,
			"0.005": 7.8166788846,
			"0.006": 8.79173847497,
			"0.007": 7.93739229285,
			"0.008": 10.2347764233,
			"0.009": 10.8688485902,
			"0.01": 13.6533685277,
			"0.011": 9.9364276707,
			"0.012": 7.4921332286,
			"0.013": 2.90981968043,
			"0.014": 0.0712870954748,
			"0.015": 0.0,
			"0.016": 0.0,
			"0.017": 0.0,
			"0.018": 0.0,
			"0.019": 0.0,
			"0.02": 0.0,
			"0.021": 0.0,
			"0.022": 0.0,
			"0.023": 0.0,
			"0.024": 0.0,
			"0.025": 0.0
		}
	}
}
