{
	 "smiles": "FC1=C(Cl)C=C(C=C1)C1=CC=NN1", 
	 "Tm": 383.15, 
	 "num_atms": 19, 
	 "gaussian": { 
		 "optdone": 1, 
		 "sigma_profile": "yes", 
		 "theory": "DFT", 
		 "functional": "B3LYP", 
		 "basiset": "6-31G**", 
		 "properties": { 
			 "R2extent": 3310.0807, 
			 "electric_dipole_moment_norm": 1.24562339814, 
			 "electric_quadrupole_moment_norm": 13.4887724571, 
			 "total_energy": -1016.08115376, 
			 "HOMO_LUMO_gap": 0.18981, 
			 "cosmo_polarized_energy": -10.93, 
			 "cosmo_cavitation_energy": 26.21, 
			 "cosmo_dispersion_energy": -19.33, 
			 "cosmo_repulsion_energy": 1.49, 
			 "cosmo_total_nonelectrostatic_energy": 8.37, 
			 "SMD_solvation_energy": 3.78 
		},
		"coords": [
			{
				"x": 1.4582029524,
				"y": -3.161487323,
				"z": -1.2757319076,
				"element": "F" 
			},
			{
				"x": 0.8794401082,
				"y": -2.0608099045,
				"z": -0.7757890192,
				"element": "C" 
			},
			{
				"x": 0.4966443013,
				"y": -1.0244068941,
				"z": -1.6308835491,
				"element": "C" 
			},
			{
				"x": 0.7849421623,
				"y": -1.1707842667,
				"z": -3.345807214,
				"element": "Cl" 
			},
			{
				"x": -0.0967481789,
				"y": 0.1198492832,
				"z": -1.1069470103,
				"element": "C" 
			},
			{
				"x": -0.3282218321,
				"y": 0.2368337756,
				"z": 0.2738813565,
				"element": "C" 
			},
			{
				"x": 0.0551355478,
				"y": -0.8228938674,
				"z": 1.1139519225,
				"element": "C" 
			},
			{
				"x": 0.6623735662,
				"y": -1.9625521094,
				"z": 0.5933049854,
				"element": "C" 
			},
			{
				"x": -0.9614736891,
				"y": 1.4465212348,
				"z": 0.8067200717,
				"element": "C" 
			},
			{
				"x": -1.8771012597,
				"y": 2.3342080291,
				"z": 0.2545800795,
				"element": "C" 
			},
			{
				"x": -2.1140940019,
				"y": 3.2903966626,
				"z": 1.264091871,
				"element": "C" 
			},
			{
				"x": -1.406485647,
				"y": 3.0409292146,
				"z": 2.3659648692,
				"element": "N" 
			},
			{
				"x": -0.7258491357,
				"y": 1.9149782617,
				"z": 2.0691768218,
				"element": "N" 
			},
			{
				"x": -0.364066788,
				"y": 0.9301436028,
				"z": -1.7754266953,
				"element": "H" 
			},
			{
				"x": -0.1485385934,
				"y": -0.7736196461,
				"z": 2.1791510064,
				"element": "H" 
			},
			{
				"x": 0.9589730794,
				"y": -2.7896288474,
				"z": 1.2292004277,
				"element": "H" 
			},
			{
				"x": -2.333077,
				"y": 2.270726212,
				"z": -0.7220359509,
				"element": "H" 
			},
			{
				"x": -2.7742968213,
				"y": 4.1468687457,
				"z": 1.2359713371,
				"element": "H" 
			},
			{
				"x": -0.0480587706,
				"y": 1.5682278365,
				"z": 2.7303265976,
				"element": "H" 
			}
		],
		 "valence_orbital": [ 
			{
				"type": "occ",
				"energy": -0.29578,
				"method": "rhf"
			},
			{
				"type": "occ",
				"energy": -0.28702,
				"method": "rhf"
			},
			{
				"type": "occ",
				"energy": -0.2672,
				"method": "rhf"
			},
			{
				"type": "occ",
				"energy": -0.26288,
				"method": "rhf"
			},
			{
				"type": "occ",
				"energy": -0.23023,
				"method": "rhf"
			},
			{
				"type": "unocc",
				"energy": -0.04042,
				"method": "rhf"
			},
			{
				"type": "unocc",
				"energy": -0.03335,
				"method": "rhf"
			},
			{
				"type": "unocc",
				"energy": 0.01506,
				"method": "rhf"
			},
			{
				"type": "unocc",
				"energy": 0.03204,
				"method": "rhf"
			},
			{
				"type": "unocc",
				"energy": 0.06741,
				"method": "rhf"
			}
		],
		"cosmo_sigma_profile": { 
			"-0.025": 0.0,
			"-0.024": 0.0,
			"-0.023": 0.0,
			"-0.022": 0.0,
			"-0.021": 0.0,
			"-0.02": 0.0,
			"-0.019": 0.0,
			"-0.018": 0.0,
			"-0.017": 0.0895626850763,
			"-0.016": 1.14579443404,
			"-0.015": 1.07023266963,
			"-0.014": 1.12440426494,
			"-0.013": 1.26112824403,
			"-0.012": 0.974218828337,
			"-0.011": 1.88808194825,
			"-0.01": 1.55951132362,
			"-0.009": 1.04773766137,
			"-0.008": 4.66302622575,
			"-0.007": 8.6529185515,
			"-0.006": 11.0612292748,
			"-0.005": 8.33909681072,
			"-0.004": 7.84511806763,
			"-0.003": 7.56820799448,
			"-0.002": 11.977363949,
			"-0.001": 14.5894764121,
			"0.0": 19.0308303902,
			"0.001": 22.0201834461,
			"0.002": 20.433268078,
			"0.003": 21.3900144863,
			"0.004": 20.2777488921,
			"0.005": 8.38100556753,
			"0.006": 3.30580166845,
			"0.007": 2.53079556839,
			"0.008": 2.26126885072,
			"0.009": 1.37620776196,
			"0.01": 0.759272236588,
			"0.011": 1.94250555004,
			"0.012": 1.09638165509,
			"0.013": 0.917811560969,
			"0.014": 1.37911035643,
			"0.015": 1.05461721036,
			"0.016": 0.745391143508,
			"0.017": 0.0,
			"0.018": 0.0,
			"0.019": 0.0,
			"0.02": 0.0,
			"0.021": 0.0,
			"0.022": 0.0,
			"0.023": 0.0,
			"0.024": 0.0,
			"0.025": 0.0
		}
	}
}
