{
	 "smiles": "CC(C)C(=O)OCCCC1=CC=CC=C1", 
	 "Tm": 213.15, 
	 "num_atms": 33, 
	 "gaussian": { 
		 "optdone": 1, 
		 "sigma_profile": "yes", 
		 "theory": "DFT", 
		 "functional": "B3LYP", 
		 "basiset": "6-31G**", 
		 "properties": { 
			 "R2extent": 4150.2768, 
			 "electric_dipole_moment_norm": 1.72861687195, 
			 "electric_quadrupole_moment_norm": 8.38746113374, 
			 "total_energy": -656.708944943, 
			 "HOMO_LUMO_gap": 0.23564, 
			 "cosmo_polarized_energy": -8.56, 
			 "cosmo_cavitation_energy": 35.14, 
			 "cosmo_dispersion_energy": -22.88, 
			 "cosmo_repulsion_energy": 1.82, 
			 "cosmo_total_nonelectrostatic_energy": 14.07, 
			 "SMD_solvation_energy": 6.38 
		},
		"coords": [
			{
				"x": 1.688443742,
				"y": 1.0469045174,
				"z": -0.1300337381,
				"element": "C" 
			},
			{
				"x": 0.5076976893,
				"y": 1.4986977196,
				"z": -1.0109989814,
				"element": "C" 
			},
			{
				"x": 0.7605343926,
				"y": 1.2414630591,
				"z": -2.5000921119,
				"element": "C" 
			},
			{
				"x": -0.7796516556,
				"y": 0.8890793521,
				"z": -0.4618990963,
				"element": "C" 
			},
			{
				"x": -1.1618516914,
				"y": 1.0498977783,
				"z": 0.6801452458,
				"element": "O" 
			},
			{
				"x": -1.4597404834,
				"y": 0.1609448634,
				"z": -1.3767068674,
				"element": "O" 
			},
			{
				"x": -2.7206542841,
				"y": -0.3956174963,
				"z": -0.9406839315,
				"element": "C" 
			},
			{
				"x": -2.5810314748,
				"y": -1.7131263138,
				"z": -0.1814170985,
				"element": "C" 
			},
			{
				"x": -2.0859041419,
				"y": -2.9201325877,
				"z": -1.0065288365,
				"element": "C" 
			},
			{
				"x": -0.6114136775,
				"y": -2.9244773005,
				"z": -1.3614025375,
				"element": "C" 
			},
			{
				"x": 0.3612534785,
				"y": -3.0754890466,
				"z": -0.3618338584,
				"element": "C" 
			},
			{
				"x": 1.7194559721,
				"y": -3.1092262549,
				"z": -0.6794834313,
				"element": "C" 
			},
			{
				"x": 2.1321277601,
				"y": -2.9971485399,
				"z": -2.0098654647,
				"element": "C" 
			},
			{
				"x": 1.17482147,
				"y": -2.8516072284,
				"z": -3.0149184112,
				"element": "C" 
			},
			{
				"x": -0.1833055429,
				"y": -2.8154431768,
				"z": -2.6900488795,
				"element": "C" 
			},
			{
				"x": 1.4793717651,
				"y": 1.2450885686,
				"z": 0.9237657932,
				"element": "H" 
			},
			{
				"x": 2.598676199,
				"y": 1.5840948998,
				"z": -0.4143513831,
				"element": "H" 
			},
			{
				"x": 1.8748729142,
				"y": -0.0253046231,
				"z": -0.2519248073,
				"element": "H" 
			},
			{
				"x": 0.3762858306,
				"y": 2.5784448052,
				"z": -0.8530442799,
				"element": "H" 
			},
			{
				"x": -0.0691808012,
				"y": 1.5962665644,
				"z": -3.1172019662,
				"element": "H" 
			},
			{
				"x": 1.6689426689,
				"y": 1.7652578847,
				"z": -2.8160050124,
				"element": "H" 
			},
			{
				"x": 0.8943966521,
				"y": 0.1748267154,
				"z": -2.6994099724,
				"element": "H" 
			},
			{
				"x": -3.290139334,
				"y": -0.5340928612,
				"z": -1.8646016299,
				"element": "H" 
			},
			{
				"x": -3.2247005412,
				"y": 0.3418345483,
				"z": -0.3107369205,
				"element": "H" 
			},
			{
				"x": -3.5802490637,
				"y": -1.9507439053,
				"z": 0.2074536164,
				"element": "H" 
			},
			{
				"x": -1.9419998654,
				"y": -1.5512672686,
				"z": 0.6923645668,
				"element": "H" 
			},
			{
				"x": -2.3056277371,
				"y": -3.827283926,
				"z": -0.4286659699,
				"element": "H" 
			},
			{
				"x": -2.6814056918,
				"y": -2.9952485451,
				"z": -1.9250748891,
				"element": "H" 
			},
			{
				"x": 0.0517654747,
				"y": -3.1753937873,
				"z": 0.6760554198,
				"element": "H" 
			},
			{
				"x": 2.4553073601,
				"y": -3.2330373025,
				"z": 0.1103795915,
				"element": "H" 
			},
			{
				"x": 3.1887039387,
				"y": -3.0292811013,
				"z": -2.2597328055,
				"element": "H" 
			},
			{
				"x": 1.483127819,
				"y": -2.7697190712,
				"z": -4.0536174414,
				"element": "H" 
			},
			{
				"x": -0.9219291411,
				"y": -2.7024609397,
				"z": -3.4797839118,
				"element": "H" 
			}
		],
		 "valence_orbital": [ 
			{
				"type": "occ",
				"energy": -0.32372,
				"method": "rhf"
			},
			{
				"type": "occ",
				"energy": -0.28979,
				"method": "rhf"
			},
			{
				"type": "occ",
				"energy": -0.25899,
				"method": "rhf"
			},
			{
				"type": "occ",
				"energy": -0.24797,
				"method": "rhf"
			},
			{
				"type": "occ",
				"energy": -0.2384,
				"method": "rhf"
			},
			{
				"type": "unocc",
				"energy": -0.00276,
				"method": "rhf"
			},
			{
				"type": "unocc",
				"energy": 0.00164,
				"method": "rhf"
			},
			{
				"type": "unocc",
				"energy": 0.01975,
				"method": "rhf"
			},
			{
				"type": "unocc",
				"energy": 0.08747,
				"method": "rhf"
			},
			{
				"type": "unocc",
				"energy": 0.09877,
				"method": "rhf"
			}
		],
		"cosmo_sigma_profile": { 
			"-0.025": 0.0,
			"-0.024": 0.0,
			"-0.023": 0.0,
			"-0.022": 0.0,
			"-0.021": 0.0,
			"-0.02": 0.0,
			"-0.019": 0.0,
			"-0.018": 0.0,
			"-0.017": 0.0,
			"-0.016": 0.0,
			"-0.015": 0.0,
			"-0.014": 0.0,
			"-0.013": 0.0,
			"-0.012": 0.0,
			"-0.011": 0.0,
			"-0.01": 0.0,
			"-0.009": 0.0,
			"-0.008": 0.0,
			"-0.007": 0.0,
			"-0.006": 1.95878544651,
			"-0.005": 16.4792396804,
			"-0.004": 31.415096903,
			"-0.003": 36.2255438971,
			"-0.002": 30.2732064542,
			"-0.001": 24.5416516086,
			"0.0": 27.651687396,
			"0.001": 31.3280360805,
			"0.002": 17.6987281874,
			"0.003": 13.2304309494,
			"0.004": 9.91040643161,
			"0.005": 8.58147821916,
			"0.006": 7.93664038628,
			"0.007": 4.10147200114,
			"0.008": 2.85789282515,
			"0.009": 1.69027386334,
			"0.01": 1.1043093498,
			"0.011": 2.16198417949,
			"0.012": 3.84331610581,
			"0.013": 2.18989863001,
			"0.014": 0.143658255169,
			"0.015": 0.0,
			"0.016": 0.0,
			"0.017": 0.0,
			"0.018": 0.0,
			"0.019": 0.0,
			"0.02": 0.0,
			"0.021": 0.0,
			"0.022": 0.0,
			"0.023": 0.0,
			"0.024": 0.0,
			"0.025": 0.0
		}
	}
}
