{
	 "smiles": "CCCCCCC1=CC=C(C=C1)C(O)=O", 
	 "Tm": 369.65, 
	 "num_atms": 33, 
	 "gaussian": { 
		 "optdone": 1, 
		 "sigma_profile": "yes", 
		 "theory": "DFT", 
		 "functional": "B3LYP", 
		 "basiset": "6-31G**", 
		 "properties": { 
			 "R2extent": 4728.2607, 
			 "electric_dipole_moment_norm": 5.23089594716, 
			 "electric_quadrupole_moment_norm": 25.0423532281, 
			 "total_energy": -656.708725327, 
			 "HOMO_LUMO_gap": 0.20642, 
			 "cosmo_polarized_energy": -13.56, 
			 "cosmo_cavitation_energy": 34.89, 
			 "cosmo_dispersion_energy": -23.97, 
			 "cosmo_repulsion_energy": 1.91, 
			 "cosmo_total_nonelectrostatic_energy": 12.83, 
			 "SMD_solvation_energy": 6.38 
		},
		"coords": [
			{
				"x": -1.8377928481,
				"y": 2.9726357937,
				"z": -0.7345225746,
				"element": "C" 
			},
			{
				"x": -0.9800080831,
				"y": 1.8522261023,
				"z": -0.1343052568,
				"element": "C" 
			},
			{
				"x": 0.3828265676,
				"y": 1.6526273493,
				"z": -0.8206122601,
				"element": "C" 
			},
			{
				"x": 0.3343095026,
				"y": 1.2678096238,
				"z": -2.3116809314,
				"element": "C" 
			},
			{
				"x": -0.3566060171,
				"y": -0.0595465871,
				"z": -2.6781750172,
				"element": "C" 
			},
			{
				"x": 0.4204243608,
				"y": -1.3529483094,
				"z": -2.335211546,
				"element": "C" 
			},
			{
				"x": 0.4448742872,
				"y": -1.7648906441,
				"z": -0.8772127083,
				"element": "C" 
			},
			{
				"x": -0.7411442606,
				"y": -2.1109732595,
				"z": -0.2114324606,
				"element": "C" 
			},
			{
				"x": -0.7269788036,
				"y": -2.5058779115,
				"z": 1.1237562074,
				"element": "C" 
			},
			{
				"x": 0.4814162229,
				"y": -2.5731304578,
				"z": 1.8332103932,
				"element": "C" 
			},
			{
				"x": 1.6729370907,
				"y": -2.2605683925,
				"z": 1.1667610614,
				"element": "C" 
			},
			{
				"x": 1.6501246747,
				"y": -1.8564938947,
				"z": -0.1647469302,
				"element": "C" 
			},
			{
				"x": 0.572537399,
				"y": -3.0025276038,
				"z": 3.2648549318,
				"element": "C" 
			},
			{
				"x": -0.5688391965,
				"y": -2.9199547629,
				"z": 4.0030523239,
				"element": "O" 
			},
			{
				"x": 1.5910310217,
				"y": -3.4058073864,
				"z": 3.7762265678,
				"element": "O" 
			},
			{
				"x": -1.2971697248,
				"y": 3.9264579752,
				"z": -0.7356018163,
				"element": "H" 
			},
			{
				"x": -2.7586482207,
				"y": 3.1150009187,
				"z": -0.1592583403,
				"element": "H" 
			},
			{
				"x": -2.1294602563,
				"y": 2.7588334092,
				"z": -1.768229217,
				"element": "H" 
			},
			{
				"x": -1.5445298116,
				"y": 0.911168706,
				"z": -0.1455735789,
				"element": "H" 
			},
			{
				"x": -0.7970066386,
				"y": 2.0730431415,
				"z": 0.925070446,
				"element": "H" 
			},
			{
				"x": 0.9546560605,
				"y": 2.5871790727,
				"z": -0.7350493499,
				"element": "H" 
			},
			{
				"x": 0.9506074588,
				"y": 0.9005057111,
				"z": -0.2623877978,
				"element": "H" 
			},
			{
				"x": -0.1657870308,
				"y": 2.0710622835,
				"z": -2.867452289,
				"element": "H" 
			},
			{
				"x": 1.3624359245,
				"y": 1.2418149774,
				"z": -2.6986075658,
				"element": "H" 
			},
			{
				"x": -1.358305256,
				"y": -0.1039335485,
				"z": -2.2326794586,
				"element": "H" 
			},
			{
				"x": -0.5163210979,
				"y": -0.0629485589,
				"z": -3.7636050269,
				"element": "H" 
			},
			{
				"x": 1.4501426881,
				"y": -1.2570125303,
				"z": -2.700063799,
				"element": "H" 
			},
			{
				"x": -0.0294616746,
				"y": -2.1741006495,
				"z": -2.9092924281,
				"element": "H" 
			},
			{
				"x": -1.6854482005,
				"y": -2.0856380699,
				"z": -0.749005145,
				"element": "H" 
			},
			{
				"x": -1.663635781,
				"y": -2.8041952375,
				"z": 1.5897555687,
				"element": "H" 
			},
			{
				"x": 2.6064908456,
				"y": -2.3408414408,
				"z": 1.7134021312,
				"element": "H" 
			},
			{
				"x": 2.5829698992,
				"y": -1.6096802916,
				"z": -0.6649481807,
				"element": "H" 
			},
			{
				"x": -1.245241102,
				"y": -2.4310955276,
				"z": 3.5145640469,
				"element": "H" 
			}
		],
		 "valence_orbital": [ 
			{
				"type": "occ",
				"energy": -0.31364,
				"method": "rhf"
			},
			{
				"type": "occ",
				"energy": -0.31145,
				"method": "rhf"
			},
			{
				"type": "occ",
				"energy": -0.27192,
				"method": "rhf"
			},
			{
				"type": "occ",
				"energy": -0.26775,
				"method": "rhf"
			},
			{
				"type": "occ",
				"energy": -0.25432,
				"method": "rhf"
			},
			{
				"type": "unocc",
				"energy": -0.0479,
				"method": "rhf"
			},
			{
				"type": "unocc",
				"energy": -0.02138,
				"method": "rhf"
			},
			{
				"type": "unocc",
				"energy": 0.04786,
				"method": "rhf"
			},
			{
				"type": "unocc",
				"energy": 0.06371,
				"method": "rhf"
			},
			{
				"type": "unocc",
				"energy": 0.07413,
				"method": "rhf"
			}
		],
		"cosmo_sigma_profile": { 
			"-0.025": 0.0,
			"-0.024": 0.0,
			"-0.023": 0.0,
			"-0.022": 0.0,
			"-0.021": 0.0,
			"-0.02": 0.0,
			"-0.019": 0.0576383809148,
			"-0.018": 0.54183160019,
			"-0.017": 0.932181839108,
			"-0.016": 0.838843459433,
			"-0.015": 1.03941869295,
			"-0.014": 0.839608650039,
			"-0.013": 1.07178718267,
			"-0.012": 1.15958750556,
			"-0.011": 1.4525889471,
			"-0.01": 1.22865001401,
			"-0.009": 0.896938259064,
			"-0.008": 1.85467352816,
			"-0.007": 1.75327378082,
			"-0.006": 5.55036999599,
			"-0.005": 10.4223129301,
			"-0.004": 12.8944216229,
			"-0.003": 16.2682729287,
			"-0.002": 30.5996848553,
			"-0.001": 36.7072854251,
			"0.0": 39.0301609301,
			"0.001": 34.6719050759,
			"0.002": 20.8920873624,
			"0.003": 13.9251149083,
			"0.004": 7.83528794991,
			"0.005": 2.26486510467,
			"0.006": 2.77214089721,
			"0.007": 2.10427253528,
			"0.008": 2.60048851444,
			"0.009": 3.34978885234,
			"0.01": 4.61139165876,
			"0.011": 4.91599392583,
			"0.012": 5.68276975492,
			"0.013": 2.03334713794,
			"0.014": 0.206834560913,
			"0.015": 0.0,
			"0.016": 0.0,
			"0.017": 0.0,
			"0.018": 0.0,
			"0.019": 0.0,
			"0.02": 0.0,
			"0.021": 0.0,
			"0.022": 0.0,
			"0.023": 0.0,
			"0.024": 0.0,
			"0.025": 0.0
		}
	}
}
