{
	 "smiles": "CN(C)C1=CC=C(CNC(=O)CCl)C=C1", 
	 "Tm": 333.15, 
	 "num_atms": 30, 
	 "gaussian": { 
		 "optdone": 1, 
		 "sigma_profile": "yes", 
		 "theory": "DFT", 
		 "functional": "B3LYP", 
		 "basiset": "6-31G**", 
		 "properties": { 
			 "R2extent": 5486.0934, 
			 "electric_dipole_moment_norm": 6.66095566492, 
			 "electric_quadrupole_moment_norm": 26.577191247, 
			 "total_energy": -1073.13224057, 
			 "HOMO_LUMO_gap": 0.19012, 
			 "cosmo_polarized_energy": -17.35, 
			 "cosmo_cavitation_energy": 34.59, 
			 "cosmo_dispersion_energy": -24.6, 
			 "cosmo_repulsion_energy": 1.96, 
			 "cosmo_total_nonelectrostatic_energy": 11.94, 
			 "SMD_solvation_energy": 5.55 
		},
		"coords": [
			{
				"x": 0.3294707263,
				"y": -4.0809758223,
				"z": 0.23902724,
				"element": "C" 
			},
			{
				"x": 0.9048962368,
				"y": -3.2138873941,
				"z": -0.775718218,
				"element": "N" 
			},
			{
				"x": 1.1454763705,
				"y": -3.7672199015,
				"z": -2.0975321392,
				"element": "C" 
			},
			{
				"x": 0.8278452942,
				"y": -1.8365499196,
				"z": -0.6184322359,
				"element": "C" 
			},
			{
				"x": 1.1773531656,
				"y": -0.9527480574,
				"z": -1.6647574983,
				"element": "C" 
			},
			{
				"x": 1.1192533704,
				"y": 0.426321122,
				"z": -1.4849236762,
				"element": "C" 
			},
			{
				"x": 0.7134510492,
				"y": 0.9966397557,
				"z": -0.2741285516,
				"element": "C" 
			},
			{
				"x": 0.7156409972,
				"y": 2.5063129905,
				"z": -0.0899444373,
				"element": "C" 
			},
			{
				"x": -0.3744272243,
				"y": 3.048453438,
				"z": 0.7179355996,
				"element": "N" 
			},
			{
				"x": -1.7056399516,
				"y": 3.1524871991,
				"z": 0.3967686708,
				"element": "C" 
			},
			{
				"x": -2.5321641582,
				"y": 3.5496390774,
				"z": 1.1981756478,
				"element": "O" 
			},
			{
				"x": -2.0358616977,
				"y": 2.7527363957,
				"z": -1.0481277629,
				"element": "C" 
			},
			{
				"x": -3.7832124204,
				"y": 2.877244301,
				"z": -1.4125390567,
				"element": "Cl" 
			},
			{
				"x": 0.3519231634,
				"y": 0.12430637,
				"z": 0.7590442519,
				"element": "C" 
			},
			{
				"x": 0.3981109731,
				"y": -1.2558500013,
				"z": 0.5983675781,
				"element": "C" 
			},
			{
				"x": 0.8102027574,
				"y": -3.9233644402,
				"z": 1.2112646141,
				"element": "H" 
			},
			{
				"x": 0.4979611283,
				"y": -5.1213383795,
				"z": -0.0431248135,
				"element": "H" 
			},
			{
				"x": -0.7538171632,
				"y": -3.931160062,
				"z": 0.3679694609,
				"element": "H" 
			},
			{
				"x": 1.199737811,
				"y": -4.8545267956,
				"z": -2.0254191941,
				"element": "H" 
			},
			{
				"x": 2.1020301067,
				"y": -3.4175637198,
				"z": -2.5025816843,
				"element": "H" 
			},
			{
				"x": 0.356378135,
				"y": -3.5100238057,
				"z": -2.8215905162,
				"element": "H" 
			},
			{
				"x": 1.4857259523,
				"y": -1.3373832655,
				"z": -2.628859774,
				"element": "H" 
			},
			{
				"x": 1.3947788533,
				"y": 1.0716621983,
				"z": -2.3169607085,
				"element": "H" 
			},
			{
				"x": 0.7286739788,
				"y": 2.991050784,
				"z": -1.0741765351,
				"element": "H" 
			},
			{
				"x": 1.6407828632,
				"y": 2.825033632,
				"z": 0.4049994054,
				"element": "H" 
			},
			{
				"x": -0.1823269778,
				"y": 3.3082781478,
				"z": 1.6756401503,
				"element": "H" 
			},
			{
				"x": -1.7230784884,
				"y": 1.7241796015,
				"z": -1.238320051,
				"element": "H" 
			},
			{
				"x": -1.5072024527,
				"y": 3.4051848926,
				"z": -1.7480258326,
				"element": "H" 
			},
			{
				"x": 0.0082876563,
				"y": 0.5288800134,
				"z": 1.707437679,
				"element": "H" 
			},
			{
				"x": 0.0929499451,
				"y": -1.8832183544,
				"z": 1.4265323873,
				"element": "H" 
			}
		],
		 "valence_orbital": [ 
			{
				"type": "occ",
				"energy": -0.28454,
				"method": "rhf"
			},
			{
				"type": "occ",
				"energy": -0.25608,
				"method": "rhf"
			},
			{
				"type": "occ",
				"energy": -0.25247,
				"method": "rhf"
			},
			{
				"type": "occ",
				"energy": -0.25114,
				"method": "rhf"
			},
			{
				"type": "occ",
				"energy": -0.19599,
				"method": "rhf"
			},
			{
				"type": "unocc",
				"energy": -0.00587,
				"method": "rhf"
			},
			{
				"type": "unocc",
				"energy": 0.00468,
				"method": "rhf"
			},
			{
				"type": "unocc",
				"energy": 0.02611,
				"method": "rhf"
			},
			{
				"type": "unocc",
				"energy": 0.03352,
				"method": "rhf"
			},
			{
				"type": "unocc",
				"energy": 0.07923,
				"method": "rhf"
			}
		],
		"cosmo_sigma_profile": { 
			"-0.025": 0.0,
			"-0.024": 0.0,
			"-0.023": 0.0,
			"-0.022": 0.0,
			"-0.021": 0.0,
			"-0.02": 0.0,
			"-0.019": 0.0,
			"-0.018": 0.0,
			"-0.017": 0.0,
			"-0.016": 0.0,
			"-0.015": 0.0,
			"-0.014": 0.681011694645,
			"-0.013": 1.39127372733,
			"-0.012": 0.886952829373,
			"-0.011": 1.03466103985,
			"-0.01": 1.0645236186,
			"-0.009": 4.01389049558,
			"-0.008": 4.35965533639,
			"-0.007": 5.63366640382,
			"-0.006": 11.2246026087,
			"-0.005": 20.5301171372,
			"-0.004": 22.396989884,
			"-0.003": 28.1278383752,
			"-0.002": 27.3176316037,
			"-0.001": 24.2503920144,
			"0.0": 15.9001450541,
			"0.001": 12.8656420913,
			"0.002": 10.3576094921,
			"0.003": 11.1451085194,
			"0.004": 12.0677069227,
			"0.005": 11.9893046821,
			"0.006": 18.1991757607,
			"0.007": 8.66846046322,
			"0.008": 2.23825014557,
			"0.009": 2.13700797275,
			"0.01": 1.48344179668,
			"0.011": 2.09374830127,
			"0.012": 2.61541251831,
			"0.013": 5.86170786714,
			"0.014": 3.61500323035,
			"0.015": 0.825374418363,
			"0.016": 0.0,
			"0.017": 0.0,
			"0.018": 0.0,
			"0.019": 0.0,
			"0.02": 0.0,
			"0.021": 0.0,
			"0.022": 0.0,
			"0.023": 0.0,
			"0.024": 0.0,
			"0.025": 0.0
		}
	}
}
