{
	 "smiles": "C1CNC2=C(NC1)C=NC=C2", 
	 "Tm": 395.15, 
	 "num_atms": 22, 
	 "gaussian": { 
		 "optdone": 1, 
		 "sigma_profile": "yes", 
		 "theory": "DFT", 
		 "functional": "B3LYP", 
		 "basiset": "6-31G**", 
		 "properties": { 
			 "R2extent": 2005.8177, 
			 "electric_dipole_moment_norm": 3.96724032294, 
			 "electric_quadrupole_moment_norm": 11.0107689645, 
			 "total_energy": -475.725856682, 
			 "HOMO_LUMO_gap": 0.19125, 
			 "cosmo_polarized_energy": -12.24, 
			 "cosmo_cavitation_energy": 23.84, 
			 "cosmo_dispersion_energy": -18.25, 
			 "cosmo_repulsion_energy": 1.45, 
			 "cosmo_total_nonelectrostatic_energy": 7.04, 
			 "SMD_solvation_energy": 0.43 
		},
		"coords": [
			{
				"x": 2.1625975781,
				"y": -1.5801428968,
				"z": -1.523328172,
				"element": "C" 
			},
			{
				"x": 2.3582948578,
				"y": -2.0361988941,
				"z": -0.0708298814,
				"element": "C" 
			},
			{
				"x": 1.0807671132,
				"y": -2.3042852395,
				"z": 0.6019529159,
				"element": "N" 
			},
			{
				"x": 0.3640295766,
				"y": -1.2605819751,
				"z": 1.1915355158,
				"element": "C" 
			},
			{
				"x": 0.3258562478,
				"y": 0.0469333747,
				"z": 0.6413899682,
				"element": "C" 
			},
			{
				"x": 1.0315849212,
				"y": 0.3961929231,
				"z": -0.5271554798,
				"element": "N" 
			},
			{
				"x": 1.0257943983,
				"y": -0.5528106727,
				"z": -1.6482762771,
				"element": "C" 
			},
			{
				"x": -0.4300553507,
				"y": 1.0087519788,
				"z": 1.3238361268,
				"element": "C" 
			},
			{
				"x": -1.1280009562,
				"y": 0.8021525029,
				"z": 2.4448580517,
				"element": "N" 
			},
			{
				"x": -1.1083350472,
				"y": -0.4421194322,
				"z": 2.9350534132,
				"element": "C" 
			},
			{
				"x": -0.3888230234,
				"y": -1.4818316667,
				"z": 2.3538978618,
				"element": "C" 
			},
			{
				"x": 1.9333799771,
				"y": -2.4392299847,
				"z": -2.1648130677,
				"element": "H" 
			},
			{
				"x": 3.106018883,
				"y": -1.1480023424,
				"z": -1.8776015801,
				"element": "H" 
			},
			{
				"x": 2.9347654488,
				"y": -1.2803650383,
				"z": 0.4780417514,
				"element": "H" 
			},
			{
				"x": 2.9415091829,
				"y": -2.9617590379,
				"z": -0.0504823102,
				"element": "H" 
			},
			{
				"x": 1.1010220606,
				"y": -3.1279553666,
				"z": 1.1874592141,
				"element": "H" 
			},
			{
				"x": 0.8033757333,
				"y": 1.3384314699,
				"z": -0.8175777031,
				"element": "H" 
			},
			{
				"x": 1.1451285439,
				"y": 0.0178933822,
				"z": -2.5744436309,
				"element": "H" 
			},
			{
				"x": 0.060800716,
				"y": -1.0744735643,
				"z": -1.7159713607,
				"element": "H" 
			},
			{
				"x": -0.4641662059,
				"y": 2.0212134837,
				"z": 0.9162160323,
				"element": "H" 
			},
			{
				"x": -1.6861348709,
				"y": -0.6192059975,
				"z": 3.8402971083,
				"element": "H" 
			},
			{
				"x": -0.3946097844,
				"y": -2.4696070064,
				"z": 2.8091415037,
				"element": "H" 
			}
		],
		 "valence_orbital": [ 
			{
				"type": "occ",
				"energy": -0.30814,
				"method": "rhf"
			},
			{
				"type": "occ",
				"energy": -0.29192,
				"method": "rhf"
			},
			{
				"type": "occ",
				"energy": -0.23811,
				"method": "rhf"
			},
			{
				"type": "occ",
				"energy": -0.22695,
				"method": "rhf"
			},
			{
				"type": "occ",
				"energy": -0.18652,
				"method": "rhf"
			},
			{
				"type": "unocc",
				"energy": 0.00473,
				"method": "rhf"
			},
			{
				"type": "unocc",
				"energy": 0.01504,
				"method": "rhf"
			},
			{
				"type": "unocc",
				"energy": 0.06752,
				"method": "rhf"
			},
			{
				"type": "unocc",
				"energy": 0.08957,
				"method": "rhf"
			},
			{
				"type": "unocc",
				"energy": 0.1128,
				"method": "rhf"
			}
		],
		"cosmo_sigma_profile": { 
			"-0.025": 0.0,
			"-0.024": 0.0,
			"-0.023": 0.0,
			"-0.022": 0.0,
			"-0.021": 0.0,
			"-0.02": 0.0,
			"-0.019": 0.0,
			"-0.018": 0.0,
			"-0.017": 0.0,
			"-0.016": 0.0,
			"-0.015": 0.0,
			"-0.014": 0.0,
			"-0.013": 0.42759024003,
			"-0.012": 2.36807447125,
			"-0.011": 3.09652324187,
			"-0.01": 3.19712882907,
			"-0.009": 2.5597776148,
			"-0.008": 3.32094092253,
			"-0.007": 4.52069511053,
			"-0.006": 5.11364584627,
			"-0.005": 9.77552493563,
			"-0.004": 10.3431924138,
			"-0.003": 16.98589455,
			"-0.002": 20.5571471236,
			"-0.001": 20.3506585036,
			"0.0": 13.5825565914,
			"0.001": 7.45508538318,
			"0.002": 6.63887498111,
			"0.003": 8.13504511936,
			"0.004": 11.2917808739,
			"0.005": 10.8003561752,
			"0.006": 5.40271447779,
			"0.007": 3.97441895253,
			"0.008": 2.6670978691,
			"0.009": 2.46685200188,
			"0.01": 2.91283383489,
			"0.011": 2.60541403076,
			"0.012": 1.12939465355,
			"0.013": 1.09665003675,
			"0.014": 1.085934426,
			"0.015": 0.767658999734,
			"0.016": 1.04654632617,
			"0.017": 0.93181895279,
			"0.018": 0.794599374461,
			"0.019": 0.0969829923045,
			"0.02": 0.0,
			"0.021": 0.0,
			"0.022": 0.0,
			"0.023": 0.0,
			"0.024": 0.0,
			"0.025": 0.0
		}
	}
}
