{
	 "smiles": "CC1=C(C=C(C=C1[N+]([O-])=O)C(O)=O)[N+]([O-])=O", 
	 "Tm": 430.15, 
	 "num_atms": 22, 
	 "gaussian": { 
		 "optdone": 1, 
		 "sigma_profile": "yes", 
		 "theory": "DFT", 
		 "functional": "B3LYP", 
		 "basiset": "6-31G**", 
		 "properties": { 
			 "R2extent": 4068.3472, 
			 "electric_dipole_moment_norm": 2.61235449738, 
			 "electric_quadrupole_moment_norm": 20.9757885663, 
			 "total_energy": -869.106376709, 
			 "HOMO_LUMO_gap": 0.17884, 
			 "cosmo_polarized_energy": -20.56, 
			 "cosmo_cavitation_energy": 28.49, 
			 "cosmo_dispersion_energy": -20.51, 
			 "cosmo_repulsion_energy": 1.58, 
			 "cosmo_total_nonelectrostatic_energy": 9.56, 
			 "SMD_solvation_energy": 10.49 
		},
		"coords": [
			{
				"x": 1.8586610852,
				"y": 1.2025426285,
				"z": -0.5303159286,
				"element": "C" 
			},
			{
				"x": 0.9137431243,
				"y": 0.0880609065,
				"z": -0.1540810022,
				"element": "C" 
			},
			{
				"x": -0.3655694746,
				"y": 0.31033337,
				"z": 0.3933469374,
				"element": "C" 
			},
			{
				"x": -1.202921265,
				"y": -0.71004899,
				"z": 0.8417083812,
				"element": "C" 
			},
			{
				"x": -0.8002230963,
				"y": -2.0397754457,
				"z": 0.743545284,
				"element": "C" 
			},
			{
				"x": 0.4474534646,
				"y": -2.3168003383,
				"z": 0.1817127033,
				"element": "C" 
			},
			{
				"x": 1.2616490398,
				"y": -1.2770187293,
				"z": -0.2484277873,
				"element": "C" 
			},
			{
				"x": 2.5499263731,
				"y": -1.6931368909,
				"z": -0.8479097572,
				"element": "N" 
			},
			{
				"x": 3.0750378786,
				"y": -2.7043466768,
				"z": -0.3908855927,
				"element": "O" 
			},
			{
				"x": 2.9891171559,
				"y": -1.0222192443,
				"z": -1.779012511,
				"element": "O" 
			},
			{
				"x": -1.6530460423,
				"y": -3.2060781825,
				"z": 1.1635315867,
				"element": "C" 
			},
			{
				"x": -2.6636003328,
				"y": -2.9520083446,
				"z": 2.0280847736,
				"element": "O" 
			},
			{
				"x": -1.4606716863,
				"y": -4.3234930139,
				"z": 0.7515425401,
				"element": "O" 
			},
			{
				"x": -0.924811934,
				"y": 1.6748117272,
				"z": 0.5159567695,
				"element": "N" 
			},
			{
				"x": -0.5636570758,
				"y": 2.5226667385,
				"z": -0.2952075842,
				"element": "O" 
			},
			{
				"x": -1.7465010416,
				"y": 1.8608330621,
				"z": 1.4125973752,
				"element": "O" 
			},
			{
				"x": 1.7021428498,
				"y": 1.5006702121,
				"z": -1.5707186315,
				"element": "H" 
			},
			{
				"x": 1.6880720374,
				"y": 2.0821107147,
				"z": 0.0882555223,
				"element": "H" 
			},
			{
				"x": 2.8946648364,
				"y": 0.8822879157,
				"z": -0.4352750993,
				"element": "H" 
			},
			{
				"x": -2.1702837595,
				"y": -0.420725593,
				"z": 1.2361840739,
				"element": "H" 
			},
			{
				"x": 0.777605465,
				"y": -3.343552701,
				"z": 0.0825371664,
				"element": "H" 
			},
			{
				"x": -2.595487602,
				"y": -2.0627131251,
				"z": 2.4024307802,
				"element": "H" 
			}
		],
		 "valence_orbital": [ 
			{
				"type": "occ",
				"energy": -0.32737,
				"method": "rhf"
			},
			{
				"type": "occ",
				"energy": -0.32443,
				"method": "rhf"
			},
			{
				"type": "occ",
				"energy": -0.31193,
				"method": "rhf"
			},
			{
				"type": "occ",
				"energy": -0.30478,
				"method": "rhf"
			},
			{
				"type": "occ",
				"energy": -0.2993,
				"method": "rhf"
			},
			{
				"type": "unocc",
				"energy": -0.12046,
				"method": "rhf"
			},
			{
				"type": "unocc",
				"energy": -0.11318,
				"method": "rhf"
			},
			{
				"type": "unocc",
				"energy": -0.0805,
				"method": "rhf"
			},
			{
				"type": "unocc",
				"energy": -0.03666,
				"method": "rhf"
			},
			{
				"type": "unocc",
				"energy": 0.01294,
				"method": "rhf"
			}
		],
		"cosmo_sigma_profile": { 
			"-0.025": 0.0,
			"-0.024": 0.0,
			"-0.023": 0.0,
			"-0.022": 0.0,
			"-0.021": 0.070027716974,
			"-0.02": 1.01439959689,
			"-0.019": 1.28890072208,
			"-0.018": 1.20365615348,
			"-0.017": 0.722625059548,
			"-0.016": 1.00529369483,
			"-0.015": 1.26024829983,
			"-0.014": 0.835845808658,
			"-0.013": 1.11096374623,
			"-0.012": 1.44819170304,
			"-0.011": 1.4678996866,
			"-0.01": 3.13710249374,
			"-0.009": 4.33931059647,
			"-0.008": 5.59022994062,
			"-0.007": 7.45709159277,
			"-0.006": 10.8614938424,
			"-0.005": 13.4881829408,
			"-0.004": 19.9546853975,
			"-0.003": 18.4528251031,
			"-0.002": 13.0016130708,
			"-0.001": 9.40194963826,
			"0.0": 7.40432128213,
			"0.001": 6.94001835441,
			"0.002": 6.34088736493,
			"0.003": 7.9134106629,
			"0.004": 7.45397872518,
			"0.005": 8.48065015655,
			"0.006": 16.1664452168,
			"0.007": 18.8201027996,
			"0.008": 10.9792430992,
			"0.009": 10.3386648737,
			"0.01": 4.85766028085,
			"0.011": 4.50649694858,
			"0.012": 1.45881415512,
			"0.013": 0.0522063233376,
			"0.014": 0.0,
			"0.015": 0.0,
			"0.016": 0.0,
			"0.017": 0.0,
			"0.018": 0.0,
			"0.019": 0.0,
			"0.02": 0.0,
			"0.021": 0.0,
			"0.022": 0.0,
			"0.023": 0.0,
			"0.024": 0.0,
			"0.025": 0.0
		}
	}
}
