{
	 "smiles": "C(OC1=CC2=C(C=NN2)C=C1)C1=CC=CC=C1", 
	 "Tm": 440.15, 
	 "num_atms": 29, 
	 "gaussian": { 
		 "optdone": 1, 
		 "sigma_profile": "yes", 
		 "theory": "DFT", 
		 "functional": "B3LYP", 
		 "basiset": "6-31G**", 
		 "properties": { 
			 "R2extent": 4818.418, 
			 "electric_dipole_moment_norm": 2.75220628951, 
			 "electric_quadrupole_moment_norm": 14.6639095718, 
			 "total_energy": -725.423769314, 
			 "HOMO_LUMO_gap": 0.19212, 
			 "cosmo_polarized_energy": -12.47, 
			 "cosmo_cavitation_energy": 33.1, 
			 "cosmo_dispersion_energy": -23.94, 
			 "cosmo_repulsion_energy": 1.86, 
			 "cosmo_total_nonelectrostatic_energy": 11.02, 
			 "SMD_solvation_energy": 4.71 
		},
		"coords": [
			{
				"x": 0.8143879336,
				"y": 1.4613681058,
				"z": -1.0968808777,
				"element": "C" 
			},
			{
				"x": 0.5333783473,
				"y": 0.2916231455,
				"z": -1.8601566962,
				"element": "O" 
			},
			{
				"x": -0.5749875362,
				"y": -0.4548512861,
				"z": -1.557745168,
				"element": "C" 
			},
			{
				"x": -1.3854418731,
				"y": -0.245297736,
				"z": -0.4481652643,
				"element": "C" 
			},
			{
				"x": -2.4887183331,
				"y": -1.1066555554,
				"z": -0.3108819284,
				"element": "C" 
			},
			{
				"x": -2.7821314607,
				"y": -2.1418001366,
				"z": -1.2318910001,
				"element": "C" 
			},
			{
				"x": -3.9616755036,
				"y": -2.7562675324,
				"z": -0.7105708109,
				"element": "C" 
			},
			{
				"x": -4.3628405789,
				"y": -2.1775218825,
				"z": 0.407146628,
				"element": "N" 
			},
			{
				"x": -3.4650533191,
				"y": -1.1778276276,
				"z": 0.642278289,
				"element": "N" 
			},
			{
				"x": -1.9326160916,
				"y": -2.3263783191,
				"z": -2.3412156073,
				"element": "C" 
			},
			{
				"x": -0.8463911544,
				"y": -1.4896044096,
				"z": -2.4949903682,
				"element": "C" 
			},
			{
				"x": 1.45910301,
				"y": 1.1912223973,
				"z": 0.2500508249,
				"element": "C" 
			},
			{
				"x": 1.2819618838,
				"y": 2.0954707073,
				"z": 1.3038865141,
				"element": "C" 
			},
			{
				"x": 1.9198977835,
				"y": 1.8920639197,
				"z": 2.5289016821,
				"element": "C" 
			},
			{
				"x": 2.735652622,
				"y": 0.7747344672,
				"z": 2.7143604494,
				"element": "C" 
			},
			{
				"x": 2.9115191232,
				"y": -0.1339975842,
				"z": 1.6683193651,
				"element": "C" 
			},
			{
				"x": 2.2807184722,
				"y": 0.0745580426,
				"z": 0.4416457874,
				"element": "C" 
			},
			{
				"x": -0.0954746602,
				"y": 2.0645709941,
				"z": -0.9749535964,
				"element": "H" 
			},
			{
				"x": 1.5023837945,
				"y": 2.0319342041,
				"z": -1.7307227275,
				"element": "H" 
			},
			{
				"x": -1.1681390798,
				"y": 0.5150512539,
				"z": 0.2909803975,
				"element": "H" 
			},
			{
				"x": -4.5205238672,
				"y": -3.5912307993,
				"z": -1.1124193768,
				"element": "H" 
			},
			{
				"x": -3.5792510541,
				"y": -0.6064769028,
				"z": 1.4633932186,
				"element": "H" 
			},
			{
				"x": -2.1270542445,
				"y": -3.1105011066,
				"z": -3.0670825061,
				"element": "H" 
			},
			{
				"x": -0.1704448741,
				"y": -1.5905985873,
				"z": -3.337242409,
				"element": "H" 
			},
			{
				"x": 0.6420724832,
				"y": 2.9647799591,
				"z": 1.1665020176,
				"element": "H" 
			},
			{
				"x": 1.773528763,
				"y": 2.6014061151,
				"z": 3.3386090707,
				"element": "H" 
			},
			{
				"x": 3.228158662,
				"y": 0.6110597346,
				"z": 3.6684967578,
				"element": "H" 
			},
			{
				"x": 3.5420109633,
				"y": -1.0076359391,
				"z": 1.8076934679,
				"element": "H" 
			},
			{
				"x": 2.4126697889,
				"y": -0.6318976416,
				"z": -0.3718461331,
				"element": "H" 
			}
		],
		 "valence_orbital": [ 
			{
				"type": "occ",
				"energy": -0.2827,
				"method": "rhf"
			},
			{
				"type": "occ",
				"energy": -0.2557,
				"method": "rhf"
			},
			{
				"type": "occ",
				"energy": -0.25012,
				"method": "rhf"
			},
			{
				"type": "occ",
				"energy": -0.22207,
				"method": "rhf"
			},
			{
				"type": "occ",
				"energy": -0.21042,
				"method": "rhf"
			},
			{
				"type": "unocc",
				"energy": -0.0183,
				"method": "rhf"
			},
			{
				"type": "unocc",
				"energy": -0.00925,
				"method": "rhf"
			},
			{
				"type": "unocc",
				"energy": -0.00823,
				"method": "rhf"
			},
			{
				"type": "unocc",
				"energy": 0.02574,
				"method": "rhf"
			},
			{
				"type": "unocc",
				"energy": 0.06717,
				"method": "rhf"
			}
		],
		"cosmo_sigma_profile": { 
			"-0.025": 0.0,
			"-0.024": 0.0,
			"-0.023": 0.0,
			"-0.022": 0.0,
			"-0.021": 0.0,
			"-0.02": 0.0,
			"-0.019": 0.0,
			"-0.018": 0.0,
			"-0.017": 0.00618482686563,
			"-0.016": 1.13179162172,
			"-0.015": 1.40165212661,
			"-0.014": 1.78068865596,
			"-0.013": 0.485536020759,
			"-0.012": 0.709691468034,
			"-0.011": 1.24102132342,
			"-0.01": 1.25011171535,
			"-0.009": 1.28630053285,
			"-0.008": 1.13039370726,
			"-0.007": 4.13268729711,
			"-0.006": 17.4022550136,
			"-0.005": 22.1417076063,
			"-0.004": 21.762731367,
			"-0.003": 19.1999842193,
			"-0.002": 14.6070957527,
			"-0.001": 13.9912822767,
			"0.0": 13.1999321129,
			"0.001": 14.6522197529,
			"0.002": 15.9346079676,
			"0.003": 23.1272998287,
			"0.004": 29.2462774214,
			"0.005": 19.407306027,
			"0.006": 9.37451254449,
			"0.007": 3.20335611473,
			"0.008": 1.98302809117,
			"0.009": 3.00505547332,
			"0.01": 2.28724493289,
			"0.011": 0.833664667933,
			"0.012": 1.61057835424,
			"0.013": 0.882711850825,
			"0.014": 1.25098164108,
			"0.015": 1.05966780913,
			"0.016": 0.527886821002,
			"0.017": 0.0,
			"0.018": 0.0,
			"0.019": 0.0,
			"0.02": 0.0,
			"0.021": 0.0,
			"0.022": 0.0,
			"0.023": 0.0,
			"0.024": 0.0,
			"0.025": 0.0
		}
	}
}
