{
	 "smiles": "COC(=O)C1=CC(C#N)=C(SC)S1", 
	 "Tm": 391.15, 
	 "num_atms": 20, 
	 "gaussian": { 
		 "optdone": 1, 
		 "sigma_profile": "yes", 
		 "theory": "DFT", 
		 "functional": "B3LYP", 
		 "basiset": "6-31G**", 
		 "properties": { 
			 "R2extent": 4111.3336, 
			 "electric_dipole_moment_norm": 3.49902008282, 
			 "electric_quadrupole_moment_norm": 29.0435246633, 
			 "total_energy": -1310.61940981, 
			 "HOMO_LUMO_gap": 0.16152, 
			 "cosmo_polarized_energy": -13.26, 
			 "cosmo_cavitation_energy": 29.36, 
			 "cosmo_dispersion_energy": -21.6, 
			 "cosmo_repulsion_energy": 1.64, 
			 "cosmo_total_nonelectrostatic_energy": 9.4, 
			 "SMD_solvation_energy": 7.94 
		},
		"coords": [
			{
				"x": -0.5503015421,
				"y": 4.3029198974,
				"z": -1.3270895231,
				"element": "C" 
			},
			{
				"x": -0.8853264553,
				"y": 2.9053127208,
				"z": -1.2749456744,
				"element": "O" 
			},
			{
				"x": -0.489873723,
				"y": 2.2631395348,
				"z": -0.1554634389,
				"element": "C" 
			},
			{
				"x": 0.1077542993,
				"y": 2.7918590734,
				"z": 0.7640480985,
				"element": "O" 
			},
			{
				"x": -0.8683974481,
				"y": 0.8454406053,
				"z": -0.1799845326,
				"element": "C" 
			},
			{
				"x": -1.5332197213,
				"y": 0.1239820496,
				"z": -1.1352520856,
				"element": "C" 
			},
			{
				"x": -1.7073046204,
				"y": -1.2451627646,
				"z": -0.7770579744,
				"element": "C" 
			},
			{
				"x": -2.3660929186,
				"y": -2.2049123956,
				"z": -1.5975527109,
				"element": "C" 
			},
			{
				"x": -2.9042500299,
				"y": -2.9912808307,
				"z": -2.2664910495,
				"element": "N" 
			},
			{
				"x": -1.1603090793,
				"y": -1.549264171,
				"z": 0.4718918154,
				"element": "C" 
			},
			{
				"x": -1.2022977844,
				"y": -3.1375766738,
				"z": 1.2073898357,
				"element": "S" 
			},
			{
				"x": -0.3368878774,
				"y": -2.8521598634,
				"z": 2.788252259,
				"element": "C" 
			},
			{
				"x": -0.4353595022,
				"y": -0.1463561598,
				"z": 1.1956452793,
				"element": "S" 
			},
			{
				"x": -0.9381490172,
				"y": 4.6602056438,
				"z": -2.2805597052,
				"element": "H" 
			},
			{
				"x": 0.5325560981,
				"y": 4.4401314589,
				"z": -1.276213677,
				"element": "H" 
			},
			{
				"x": -1.0148469841,
				"y": 4.8401804423,
				"z": -0.4967301436,
				"element": "H" 
			},
			{
				"x": -1.8880704455,
				"y": 0.5516156799,
				"z": -2.0641679298,
				"element": "H" 
			},
			{
				"x": 0.6935974763,
				"y": -2.5305635511,
				"z": 2.6225599376,
				"element": "H" 
			},
			{
				"x": -0.870356362,
				"y": -2.1262097437,
				"z": 3.4056827832,
				"element": "H" 
			},
			{
				"x": -0.3330643629,
				"y": -3.8188009523,
				"z": 3.2952384362,
				"element": "H" 
			}
		],
		 "valence_orbital": [ 
			{
				"type": "occ",
				"energy": -0.31378,
				"method": "rhf"
			},
			{
				"type": "occ",
				"energy": -0.311,
				"method": "rhf"
			},
			{
				"type": "occ",
				"energy": -0.28973,
				"method": "rhf"
			},
			{
				"type": "occ",
				"energy": -0.27747,
				"method": "rhf"
			},
			{
				"type": "occ",
				"energy": -0.23209,
				"method": "rhf"
			},
			{
				"type": "unocc",
				"energy": -0.07057,
				"method": "rhf"
			},
			{
				"type": "unocc",
				"energy": -0.02939,
				"method": "rhf"
			},
			{
				"type": "unocc",
				"energy": -0.01658,
				"method": "rhf"
			},
			{
				"type": "unocc",
				"energy": 0.00809,
				"method": "rhf"
			},
			{
				"type": "unocc",
				"energy": 0.04076,
				"method": "rhf"
			}
		],
		"cosmo_sigma_profile": { 
			"-0.025": 0.0,
			"-0.024": 0.0,
			"-0.023": 0.0,
			"-0.022": 0.0,
			"-0.021": 0.0,
			"-0.02": 0.0,
			"-0.019": 0.0,
			"-0.018": 0.0,
			"-0.017": 0.0,
			"-0.016": 0.0,
			"-0.015": 0.0,
			"-0.014": 0.0,
			"-0.013": 0.0,
			"-0.012": 0.0,
			"-0.011": 0.0,
			"-0.01": 0.508167354497,
			"-0.009": 2.11095997453,
			"-0.008": 5.05394987358,
			"-0.007": 9.72369767113,
			"-0.006": 13.9620238741,
			"-0.005": 15.9195772859,
			"-0.004": 18.8174725324,
			"-0.003": 20.0317223981,
			"-0.002": 16.9506975994,
			"-0.001": 21.9495429572,
			"0.0": 21.7770014129,
			"0.001": 18.9066571368,
			"0.002": 11.9450309424,
			"0.003": 8.88505666952,
			"0.004": 7.765484699,
			"0.005": 8.49872287635,
			"0.006": 5.31185898927,
			"0.007": 4.58907690764,
			"0.008": 5.09766704763,
			"0.009": 4.40703483048,
			"0.01": 5.63193823508,
			"0.011": 6.63622476742,
			"0.012": 4.52701561023,
			"0.013": 1.01508573746,
			"0.014": 0.0,
			"0.015": 0.0,
			"0.016": 0.0,
			"0.017": 0.0,
			"0.018": 0.0,
			"0.019": 0.0,
			"0.02": 0.0,
			"0.021": 0.0,
			"0.022": 0.0,
			"0.023": 0.0,
			"0.024": 0.0,
			"0.025": 0.0
		}
	}
}
