{
	 "smiles": "CNC1=C2C=CC=CC2=NN=C1", 
	 "Tm": 506.15, 
	 "num_atms": 21, 
	 "gaussian": { 
		 "optdone": 1, 
		 "sigma_profile": "yes", 
		 "theory": "DFT", 
		 "functional": "B3LYP", 
		 "basiset": "6-31G**", 
		 "properties": { 
			 "R2extent": 2465.1593, 
			 "electric_dipole_moment_norm": 4.96222662119, 
			 "electric_quadrupole_moment_norm": 18.0194875829, 
			 "total_energy": -512.595131024, 
			 "HOMO_LUMO_gap": 0.15485, 
			 "cosmo_polarized_energy": -14.46, 
			 "cosmo_cavitation_energy": 24.4, 
			 "cosmo_dispersion_energy": -18.32, 
			 "cosmo_repulsion_energy": 1.44, 
			 "cosmo_total_nonelectrostatic_energy": 7.51, 
			 "SMD_solvation_energy": 1.57 
		},
		"coords": [
			{
				"x": 0.509742503,
				"y": 0.6740792071,
				"z": -2.3049720016,
				"element": "C" 
			},
			{
				"x": 0.4511760748,
				"y": -0.3948738396,
				"z": -1.297729651,
				"element": "N" 
			},
			{
				"x": -0.6861488307,
				"y": -0.5256333161,
				"z": -0.495582585,
				"element": "C" 
			},
			{
				"x": -1.105020429,
				"y": 0.4820481869,
				"z": 0.4217454386,
				"element": "C" 
			},
			{
				"x": -0.3977678031,
				"y": 1.6814764682,
				"z": 0.7070055694,
				"element": "C" 
			},
			{
				"x": -0.9032969046,
				"y": 2.5875443038,
				"z": 1.612010543,
				"element": "C" 
			},
			{
				"x": -2.1331485932,
				"y": 2.3420650706,
				"z": 2.2751494298,
				"element": "C" 
			},
			{
				"x": -2.8169071515,
				"y": 1.171599602,
				"z": 2.0501521921,
				"element": "C" 
			},
			{
				"x": -2.310161706,
				"y": 0.2069011797,
				"z": 1.1369862702,
				"element": "C" 
			},
			{
				"x": -3.0138316256,
				"y": -0.9607621516,
				"z": 1.0194784557,
				"element": "N" 
			},
			{
				"x": -2.5584951759,
				"y": -1.8993519827,
				"z": 0.2329052507,
				"element": "N" 
			},
			{
				"x": -1.4431971774,
				"y": -1.6921621873,
				"z": -0.5034267862,
				"element": "C" 
			},
			{
				"x": -0.2231326965,
				"y": 0.5374913921,
				"z": -3.1137805144,
				"element": "H" 
			},
			{
				"x": 0.3229096688,
				"y": 1.6441719502,
				"z": -1.8455181878,
				"element": "H" 
			},
			{
				"x": 1.5124791635,
				"y": 0.6928316231,
				"z": -2.7398843145,
				"element": "H" 
			},
			{
				"x": 0.6844894659,
				"y": -1.2858134309,
				"z": -1.7235542409,
				"element": "H" 
			},
			{
				"x": 0.564828846,
				"y": 1.8574045756,
				"z": 0.2406250777,
				"element": "H" 
			},
			{
				"x": -0.3487280583,
				"y": 3.4949660639,
				"z": 1.8328929418,
				"element": "H" 
			},
			{
				"x": -2.5187416963,
				"y": 3.0749824343,
				"z": 2.9776331327,
				"element": "H" 
			},
			{
				"x": -3.7434549481,
				"y": 0.9330939835,
				"z": 2.5618202789,
				"element": "H" 
			},
			{
				"x": -1.1645929258,
				"y": -2.523859133,
				"z": -1.1482562993,
				"element": "H" 
			}
		],
		 "valence_orbital": [ 
			{
				"type": "occ",
				"energy": -0.30422,
				"method": "rhf"
			},
			{
				"type": "occ",
				"energy": -0.26962,
				"method": "rhf"
			},
			{
				"type": "occ",
				"energy": -0.26109,
				"method": "rhf"
			},
			{
				"type": "occ",
				"energy": -0.22493,
				"method": "rhf"
			},
			{
				"type": "occ",
				"energy": -0.2161,
				"method": "rhf"
			},
			{
				"type": "unocc",
				"energy": -0.06125,
				"method": "rhf"
			},
			{
				"type": "unocc",
				"energy": -0.02548,
				"method": "rhf"
			},
			{
				"type": "unocc",
				"energy": 0.01611,
				"method": "rhf"
			},
			{
				"type": "unocc",
				"energy": 0.07178,
				"method": "rhf"
			},
			{
				"type": "unocc",
				"energy": 0.07853,
				"method": "rhf"
			}
		],
		"cosmo_sigma_profile": { 
			"-0.025": 0.0,
			"-0.024": 0.0,
			"-0.023": 0.0,
			"-0.022": 0.0,
			"-0.021": 0.0,
			"-0.02": 0.0,
			"-0.019": 0.0,
			"-0.018": 0.0,
			"-0.017": 0.0,
			"-0.016": 0.0,
			"-0.015": 0.0,
			"-0.014": 0.0883559856476,
			"-0.013": 1.25929569379,
			"-0.012": 1.79306170765,
			"-0.011": 1.38395427412,
			"-0.01": 1.39732878886,
			"-0.009": 2.05663754688,
			"-0.008": 1.9407338915,
			"-0.007": 5.88271497961,
			"-0.006": 10.5556707049,
			"-0.005": 15.1979144409,
			"-0.004": 15.8731804777,
			"-0.003": 15.1216589966,
			"-0.002": 16.177116288,
			"-0.001": 12.8284412789,
			"0.0": 11.2233551315,
			"0.001": 14.145948263,
			"0.002": 15.7553361851,
			"0.003": 15.5570589181,
			"0.004": 7.08525619662,
			"0.005": 2.93903029627,
			"0.006": 2.26348025049,
			"0.007": 3.51811491911,
			"0.008": 1.91404862814,
			"0.009": 2.25779064772,
			"0.01": 2.36455415327,
			"0.011": 2.71269366819,
			"0.012": 1.77999550105,
			"0.013": 2.27800133513,
			"0.014": 3.14253933678,
			"0.015": 2.18036355809,
			"0.016": 2.14197263693,
			"0.017": 0.583949355369,
			"0.018": 0.0,
			"0.019": 0.0,
			"0.02": 0.0,
			"0.021": 0.0,
			"0.022": 0.0,
			"0.023": 0.0,
			"0.024": 0.0,
			"0.025": 0.0
		}
	}
}
