{
	 "smiles": "CC(C)(C)N=C=O", 
	 "Tm": 358.65, 
	 "num_atms": 16, 
	 "gaussian": { 
		 "optdone": 1, 
		 "sigma_profile": "yes", 
		 "theory": "DFT", 
		 "functional": "B3LYP", 
		 "basiset": "6-31G**", 
		 "properties": { 
			 "R2extent": 1045.1897, 
			 "electric_dipole_moment_norm": 3.06267848949, 
			 "electric_quadrupole_moment_norm": 4.64152636317, 
			 "total_energy": -325.944760413, 
			 "HOMO_LUMO_gap": 0.29278, 
			 "cosmo_polarized_energy": -4.46, 
			 "cosmo_cavitation_energy": 19.69, 
			 "cosmo_dispersion_energy": -13.67, 
			 "cosmo_repulsion_energy": 1.17, 
			 "cosmo_total_nonelectrostatic_energy": 7.19, 
			 "SMD_solvation_energy": 5.34 
		},
		"coords": [
			{
				"x": 1.1906387551,
				"y": 1.3496544494,
				"z": 1.6217643099,
				"element": "C" 
			},
			{
				"x": 1.1468365816,
				"y": 0.0523492818,
				"z": 0.7956031162,
				"element": "C" 
			},
			{
				"x": 1.109583662,
				"y": 0.3662623629,
				"z": -0.7101942454,
				"element": "C" 
			},
			{
				"x": 2.3558427466,
				"y": -0.8355170088,
				"z": 1.1280428939,
				"element": "C" 
			},
			{
				"x": -0.055818351,
				"y": -0.7075488307,
				"z": 1.15810097,
				"element": "N" 
			},
			{
				"x": -1.2548432681,
				"y": -0.5665877799,
				"z": 1.1370257309,
				"element": "C" 
			},
			{
				"x": -2.4368805684,
				"y": -0.5584909029,
				"z": 1.1719897971,
				"element": "O" 
			},
			{
				"x": 2.1025455012,
				"y": 1.912162783,
				"z": 1.3967704171,
				"element": "H" 
			},
			{
				"x": 0.3305303007,
				"y": 1.9868433707,
				"z": 1.3924721046,
				"element": "H" 
			},
			{
				"x": 1.1786467539,
				"y": 1.1260620562,
				"z": 2.6923119874,
				"element": "H" 
			},
			{
				"x": 2.0187571538,
				"y": 0.8976058334,
				"z": -1.0096785199,
				"element": "H" 
			},
			{
				"x": 1.0403329471,
				"y": -0.5553782276,
				"z": -1.2950040319,
				"element": "H" 
			},
			{
				"x": 0.2487867125,
				"y": 0.9964769797,
				"z": -0.9556402353,
				"element": "H" 
			},
			{
				"x": 3.2864843358,
				"y": -0.3174605543,
				"z": 0.8773671994,
				"element": "H" 
			},
			{
				"x": 2.3149555131,
				"y": -1.7702200502,
				"z": 0.5616413306,
				"element": "H" 
			},
			{
				"x": 2.3715012241,
				"y": -1.0822137627,
				"z": 2.1934271753,
				"element": "H" 
			}
		],
		 "valence_orbital": [ 
			{
				"type": "occ",
				"energy": -0.37767,
				"method": "rhf"
			},
			{
				"type": "occ",
				"energy": -0.35429,
				"method": "rhf"
			},
			{
				"type": "occ",
				"energy": -0.35417,
				"method": "rhf"
			},
			{
				"type": "occ",
				"energy": -0.28501,
				"method": "rhf"
			},
			{
				"type": "occ",
				"energy": -0.27081,
				"method": "rhf"
			},
			{
				"type": "unocc",
				"energy": 0.02197,
				"method": "rhf"
			},
			{
				"type": "unocc",
				"energy": 0.06954,
				"method": "rhf"
			},
			{
				"type": "unocc",
				"energy": 0.07859,
				"method": "rhf"
			},
			{
				"type": "unocc",
				"energy": 0.11596,
				"method": "rhf"
			},
			{
				"type": "unocc",
				"energy": 0.13441,
				"method": "rhf"
			}
		],
		"cosmo_sigma_profile": { 
			"-0.025": 0.0,
			"-0.024": 0.0,
			"-0.023": 0.0,
			"-0.022": 0.0,
			"-0.021": 0.0,
			"-0.02": 0.0,
			"-0.019": 0.0,
			"-0.018": 0.0,
			"-0.017": 0.0,
			"-0.016": 0.0,
			"-0.015": 0.0,
			"-0.014": 0.0,
			"-0.013": 0.0,
			"-0.012": 0.0,
			"-0.011": 0.0,
			"-0.01": 0.0,
			"-0.009": 0.0,
			"-0.008": 0.0,
			"-0.007": 0.0,
			"-0.006": 0.42273314262,
			"-0.005": 3.51945218701,
			"-0.004": 17.3283700243,
			"-0.003": 19.6050490875,
			"-0.002": 19.2787724638,
			"-0.001": 22.1600531468,
			"0.0": 26.9285835492,
			"0.001": 11.6635728876,
			"0.002": 4.48808058973,
			"0.003": 3.33536129802,
			"0.004": 2.86024226221,
			"0.005": 3.63542736369,
			"0.006": 4.0080967879,
			"0.007": 3.07782031905,
			"0.008": 6.4741441687,
			"0.009": 5.67338595485,
			"0.01": 0.0,
			"0.011": 0.0,
			"0.012": 0.0,
			"0.013": 0.0,
			"0.014": 0.0,
			"0.015": 0.0,
			"0.016": 0.0,
			"0.017": 0.0,
			"0.018": 0.0,
			"0.019": 0.0,
			"0.02": 0.0,
			"0.021": 0.0,
			"0.022": 0.0,
			"0.023": 0.0,
			"0.024": 0.0,
			"0.025": 0.0
		}
	}
}
