{
	 "smiles": "CC(C)C(=O)NC1=CC(C(O)=O)=C(Cl)C=C1", 
	 "Tm": 503.15, 
	 "num_atms": 28, 
	 "gaussian": { 
		 "optdone": 1, 
		 "sigma_profile": "yes", 
		 "theory": "DFT", 
		 "functional": "B3LYP", 
		 "basiset": "6-31G**", 
		 "properties": { 
			 "R2extent": 6349.2508, 
			 "electric_dipole_moment_norm": 2.33462881418, 
			 "electric_quadrupole_moment_norm": 11.7140308831, 
			 "total_energy": -1167.05122224, 
			 "HOMO_LUMO_gap": 0.17017, 
			 "cosmo_polarized_energy": -16.33, 
			 "cosmo_cavitation_energy": 33.89, 
			 "cosmo_dispersion_energy": -23.81, 
			 "cosmo_repulsion_energy": 1.87, 
			 "cosmo_total_nonelectrostatic_energy": 11.95, 
			 "SMD_solvation_energy": 7.49 
		},
		"coords": [
			{
				"x": -1.3223147651,
				"y": -2.5438813596,
				"z": 1.5663437035,
				"element": "C" 
			},
			{
				"x": -1.7061130828,
				"y": -1.1935797744,
				"z": 2.2000388955,
				"element": "C" 
			},
			{
				"x": -2.7240076327,
				"y": -1.3880476528,
				"z": 3.337729521,
				"element": "C" 
			},
			{
				"x": -2.334066,
				"y": -0.2953769114,
				"z": 1.1351445215,
				"element": "C" 
			},
			{
				"x": -3.4346135741,
				"y": -0.5389199757,
				"z": 0.6602243496,
				"element": "O" 
			},
			{
				"x": -1.6709694428,
				"y": 0.8527114398,
				"z": 0.7165452504,
				"element": "N" 
			},
			{
				"x": -0.4005970981,
				"y": 1.3833908454,
				"z": 1.0205941155,
				"element": "C" 
			},
			{
				"x": 0.7485538026,
				"y": 0.5967273936,
				"z": 1.0968311771,
				"element": "C" 
			},
			{
				"x": 2.0121603302,
				"y": 1.1411761516,
				"z": 1.3836079269,
				"element": "C" 
			},
			{
				"x": 3.1121898862,
				"y": 0.1229282355,
				"z": 1.4310240279,
				"element": "C" 
			},
			{
				"x": 4.3521821362,
				"y": 0.6213792441,
				"z": 1.5834125861,
				"element": "O" 
			},
			{
				"x": 2.9085114822,
				"y": -1.0723769584,
				"z": 1.3301133281,
				"element": "O" 
			},
			{
				"x": 2.1150120588,
				"y": 2.5340133146,
				"z": 1.5642728079,
				"element": "C" 
			},
			{
				"x": 3.6051962987,
				"y": 3.3749756965,
				"z": 1.9381819008,
				"element": "Cl" 
			},
			{
				"x": 0.9722397497,
				"y": 3.3331063512,
				"z": 1.4541469911,
				"element": "C" 
			},
			{
				"x": -0.2694075554,
				"y": 2.7702314252,
				"z": 1.1934356565,
				"element": "C" 
			},
			{
				"x": -0.5661895235,
				"y": -2.4330281872,
				"z": 0.7820236246,
				"element": "H" 
			},
			{
				"x": -2.205625654,
				"y": -3.0095417267,
				"z": 1.1197256808,
				"element": "H" 
			},
			{
				"x": -0.9178869782,
				"y": -3.2181445012,
				"z": 2.3272436239,
				"element": "H" 
			},
			{
				"x": -0.8094120676,
				"y": -0.7214791254,
				"z": 2.6109780567,
				"element": "H" 
			},
			{
				"x": -2.3158622698,
				"y": -2.0630406545,
				"z": 4.096423066,
				"element": "H" 
			},
			{
				"x": -2.9674987245,
				"y": -0.4381686909,
				"z": 3.8247298381,
				"element": "H" 
			},
			{
				"x": -3.6502267838,
				"y": -1.81497111,
				"z": 2.9455272495,
				"element": "H" 
			},
			{
				"x": -2.2637346335,
				"y": 1.4147808724,
				"z": 0.1164703637,
				"element": "H" 
			},
			{
				"x": 0.707308087,
				"y": -0.4697042124,
				"z": 0.9174765308,
				"element": "H" 
			},
			{
				"x": 4.9431261725,
				"y": -0.1508011571,
				"z": 1.5918747065,
				"element": "H" 
			},
			{
				"x": 1.0653206681,
				"y": 4.4041793001,
				"z": 1.5928842644,
				"element": "H" 
			},
			{
				"x": -1.1475748865,
				"y": 3.4068617277,
				"z": 1.1334962357,
				"element": "H" 
			}
		],
		 "valence_orbital": [ 
			{
				"type": "occ",
				"energy": -0.29551,
				"method": "rhf"
			},
			{
				"type": "occ",
				"energy": -0.29082,
				"method": "rhf"
			},
			{
				"type": "occ",
				"energy": -0.28188,
				"method": "rhf"
			},
			{
				"type": "occ",
				"energy": -0.25681,
				"method": "rhf"
			},
			{
				"type": "occ",
				"energy": -0.23733,
				"method": "rhf"
			},
			{
				"type": "unocc",
				"energy": -0.06716,
				"method": "rhf"
			},
			{
				"type": "unocc",
				"energy": -0.0326,
				"method": "rhf"
			},
			{
				"type": "unocc",
				"energy": 0.0148,
				"method": "rhf"
			},
			{
				"type": "unocc",
				"energy": 0.02073,
				"method": "rhf"
			},
			{
				"type": "unocc",
				"energy": 0.04414,
				"method": "rhf"
			}
		],
		"cosmo_sigma_profile": { 
			"-0.025": 0.0,
			"-0.024": 0.0,
			"-0.023": 0.0,
			"-0.022": 0.0,
			"-0.021": 0.0,
			"-0.02": 0.0,
			"-0.019": 0.138486030092,
			"-0.018": 0.851256913104,
			"-0.017": 1.06734691147,
			"-0.016": 1.03895280787,
			"-0.015": 0.754804874064,
			"-0.014": 1.80876209314,
			"-0.013": 1.54695812002,
			"-0.012": 1.75665908778,
			"-0.011": 2.76711271202,
			"-0.01": 1.75161946693,
			"-0.009": 1.63797911016,
			"-0.008": 5.3016473352,
			"-0.007": 6.6818429962,
			"-0.006": 6.314881407,
			"-0.005": 5.40202282417,
			"-0.004": 13.3633712598,
			"-0.003": 24.1519837232,
			"-0.002": 24.5524180567,
			"-0.001": 26.6363960836,
			"0.0": 31.2695742919,
			"0.001": 31.8103102967,
			"0.002": 14.6732967325,
			"0.003": 9.28220026915,
			"0.004": 10.1911098921,
			"0.005": 6.34771158428,
			"0.006": 4.51544592707,
			"0.007": 5.47214441082,
			"0.008": 4.92712798968,
			"0.009": 4.46441616136,
			"0.01": 3.17446059923,
			"0.011": 5.86624819345,
			"0.012": 3.82076943526,
			"0.013": 5.11594889247,
			"0.014": 2.30750329967,
			"0.015": 0.0122068738724,
			"0.016": 0.0,
			"0.017": 0.0,
			"0.018": 0.0,
			"0.019": 0.0,
			"0.02": 0.0,
			"0.021": 0.0,
			"0.022": 0.0,
			"0.023": 0.0,
			"0.024": 0.0,
			"0.025": 0.0
		}
	}
}
