{
	 "smiles": "COC1=C(OS(=O)(=O)C2=C(C)C=CC(C)=C2)C=CC(C=O)=C1", 
	 "Tm": 356.15, 
	 "num_atms": 38, 
	 "gaussian": { 
		 "optdone": 1, 
		 "sigma_profile": "yes", 
		 "theory": "DFT", 
		 "functional": "B3LYP", 
		 "basiset": "6-31G**", 
		 "properties": { 
			 "R2extent": 7777.0914, 
			 "electric_dipole_moment_norm": 4.33642937219, 
			 "electric_quadrupole_moment_norm": 34.6480014087, 
			 "total_energy": -1393.5660126, 
			 "HOMO_LUMO_gap": 0.16791, 
			 "cosmo_polarized_energy": -18.5, 
			 "cosmo_cavitation_energy": 43.37, 
			 "cosmo_dispersion_energy": -28.88, 
			 "cosmo_repulsion_energy": 2.17, 
			 "cosmo_total_nonelectrostatic_energy": 16.65, 
			 "SMD_solvation_energy": 8.41 
		},
		"coords": [
			{
				"x": 1.727449951,
				"y": 1.8947159019,
				"z": 1.9257686447,
				"element": "C" 
			},
			{
				"x": 0.902194884,
				"y": 0.9730840528,
				"z": 1.2239437843,
				"element": "O" 
			},
			{
				"x": 0.254581397,
				"y": 1.415893404,
				"z": 0.1192509308,
				"element": "C" 
			},
			{
				"x": -0.5566374014,
				"y": 0.4666657089,
				"z": -0.5519804834,
				"element": "C" 
			},
			{
				"x": -0.6815856088,
				"y": -0.790178289,
				"z": 0.0167224733,
				"element": "O" 
			},
			{
				"x": 0.0132487439,
				"y": -2.1352838839,
				"z": -0.7201601092,
				"element": "S" 
			},
			{
				"x": -0.5515891706,
				"y": -3.2319107771,
				"z": 0.0503127767,
				"element": "O" 
			},
			{
				"x": -0.196383031,
				"y": -2.0290077294,
				"z": -2.1608790651,
				"element": "O" 
			},
			{
				"x": 1.7561624593,
				"y": -1.9692153368,
				"z": -0.3220620564,
				"element": "C" 
			},
			{
				"x": 2.6880970114,
				"y": -1.358827838,
				"z": -1.1846505908,
				"element": "C" 
			},
			{
				"x": 2.3813146232,
				"y": -0.7941686232,
				"z": -2.5527259074,
				"element": "C" 
			},
			{
				"x": 4.0076092295,
				"y": -1.3057311064,
				"z": -0.7086741658,
				"element": "C" 
			},
			{
				"x": 4.3775519596,
				"y": -1.8208377421,
				"z": 0.5303041116,
				"element": "C" 
			},
			{
				"x": 3.4394363302,
				"y": -2.4316909371,
				"z": 1.3718123183,
				"element": "C" 
			},
			{
				"x": 3.8427149751,
				"y": -3.0261000213,
				"z": 2.6999951448,
				"element": "C" 
			},
			{
				"x": 2.1194514315,
				"y": -2.4937754619,
				"z": 0.9236770025,
				"element": "C" 
			},
			{
				"x": -1.2766326889,
				"y": 0.8098956766,
				"z": -1.692402432,
				"element": "C" 
			},
			{
				"x": -1.1910070739,
				"y": 2.1067763136,
				"z": -2.1992809402,
				"element": "C" 
			},
			{
				"x": -0.3930763892,
				"y": 3.0518693914,
				"z": -1.5492223988,
				"element": "C" 
			},
			{
				"x": -0.2997201968,
				"y": 4.4305461486,
				"z": -2.0783109044,
				"element": "C" 
			},
			{
				"x": 0.3724857631,
				"y": 5.3159253494,
				"z": -1.5827273168,
				"element": "O" 
			},
			{
				"x": 0.3257875827,
				"y": 2.7093783899,
				"z": -0.3920721359,
				"element": "C" 
			},
			{
				"x": 2.5418974536,
				"y": 2.2670766798,
				"z": 1.2924914107,
				"element": "H" 
			},
			{
				"x": 2.1461805396,
				"y": 1.3380174598,
				"z": 2.7645712304,
				"element": "H" 
			},
			{
				"x": 1.1472417521,
				"y": 2.7445615325,
				"z": 2.3050600067,
				"element": "H" 
			},
			{
				"x": 3.2810877109,
				"y": -0.3361325854,
				"z": -2.9708367439,
				"element": "H" 
			},
			{
				"x": 2.035539875,
				"y": -1.5736619326,
				"z": -3.2361206181,
				"element": "H" 
			},
			{
				"x": 1.5943530379,
				"y": -0.0369646126,
				"z": -2.5225596148,
				"element": "H" 
			},
			{
				"x": 4.76353048,
				"y": -0.8454679162,
				"z": -1.3389355292,
				"element": "H" 
			},
			{
				"x": 5.4155755582,
				"y": -1.7501911801,
				"z": 0.8463612411,
				"element": "H" 
			},
			{
				"x": 2.981711841,
				"y": -3.1432556516,
				"z": 3.363363724,
				"element": "H" 
			},
			{
				"x": 4.5823085695,
				"y": -2.4000386166,
				"z": 3.2091072284,
				"element": "H" 
			},
			{
				"x": 4.2931025315,
				"y": -4.0173721894,
				"z": 2.567766486,
				"element": "H" 
			},
			{
				"x": 1.3569777703,
				"y": -2.9624272522,
				"z": 1.5363296867,
				"element": "H" 
			},
			{
				"x": -1.8868360825,
				"y": 0.0513870796,
				"z": -2.1675256515,
				"element": "H" 
			},
			{
				"x": -1.7468919183,
				"y": 2.3836436029,
				"z": -3.0907315457,
				"element": "H" 
			},
			{
				"x": -0.9041389136,
				"y": 4.6162775465,
				"z": -2.9933919321,
				"element": "H" 
			},
			{
				"x": 0.9267050139,
				"y": 3.480225445,
				"z": 0.0751119403,
				"element": "H" 
			}
		],
		 "valence_orbital": [ 
			{
				"type": "occ",
				"energy": -0.27492,
				"method": "rhf"
			},
			{
				"type": "occ",
				"energy": -0.26454,
				"method": "rhf"
			},
			{
				"type": "occ",
				"energy": -0.25993,
				"method": "rhf"
			},
			{
				"type": "occ",
				"energy": -0.25596,
				"method": "rhf"
			},
			{
				"type": "occ",
				"energy": -0.23876,
				"method": "rhf"
			},
			{
				"type": "unocc",
				"energy": -0.07085,
				"method": "rhf"
			},
			{
				"type": "unocc",
				"energy": -0.04731,
				"method": "rhf"
			},
			{
				"type": "unocc",
				"energy": -0.01884,
				"method": "rhf"
			},
			{
				"type": "unocc",
				"energy": -0.01001,
				"method": "rhf"
			},
			{
				"type": "unocc",
				"energy": 0.02163,
				"method": "rhf"
			}
		],
		"cosmo_sigma_profile": { 
			"-0.025": 0.0,
			"-0.024": 0.0,
			"-0.023": 0.0,
			"-0.022": 0.0,
			"-0.021": 0.0,
			"-0.02": 0.0,
			"-0.019": 0.0,
			"-0.018": 0.0,
			"-0.017": 0.0,
			"-0.016": 0.0,
			"-0.015": 0.0,
			"-0.014": 0.0,
			"-0.013": 0.0,
			"-0.012": 0.150709540231,
			"-0.011": 0.157094184769,
			"-0.01": 0.0197731709603,
			"-0.009": 0.398495881303,
			"-0.008": 4.59672917688,
			"-0.007": 12.9811220369,
			"-0.006": 24.2171953228,
			"-0.005": 25.1749007009,
			"-0.004": 28.7920668938,
			"-0.003": 26.0005122552,
			"-0.002": 24.460173372,
			"-0.001": 28.6062718669,
			"0.0": 34.2488611296,
			"0.001": 27.131416412,
			"0.002": 20.2934736592,
			"0.003": 16.348511675,
			"0.004": 8.61488376395,
			"0.005": 7.72360226817,
			"0.006": 7.91038837881,
			"0.007": 9.07089846632,
			"0.008": 8.83506343337,
			"0.009": 11.12659414,
			"0.01": 10.2072557443,
			"0.011": 5.52197766792,
			"0.012": 2.11732016575,
			"0.013": 0.552856331857,
			"0.014": 0.15015084085,
			"0.015": 0.00521165116513,
			"0.016": 0.0,
			"0.017": 0.232081519055,
			"0.018": 0.162012547945,
			"0.019": 0.0,
			"0.02": 0.0,
			"0.021": 0.0,
			"0.022": 0.0,
			"0.023": 0.0,
			"0.024": 0.0,
			"0.0": 0.0
		}
	}
}
