{
	 "smiles": "COC1=C(OCC(N)=O)C(Cl)=CC(=C1)C(O)=O", 
	 "Tm": 485.15, 
	 "num_atms": 27, 
	 "gaussian": { 
		 "optdone": 1, 
		 "sigma_profile": "yes", 
		 "theory": "DFT", 
		 "functional": "B3LYP", 
		 "basiset": "6-31G**", 
		 "properties": { 
			 "R2extent": 5520.2222, 
			 "electric_dipole_moment_norm": 4.41315217277, 
			 "electric_quadrupole_moment_norm": 31.1144782106, 
			 "total_energy": -1278.14338409, 
			 "HOMO_LUMO_gap": 0.18959, 
			 "cosmo_polarized_energy": -23.28, 
			 "cosmo_cavitation_energy": 34.06, 
			 "cosmo_dispersion_energy": -23.99, 
			 "cosmo_repulsion_energy": 1.89, 
			 "cosmo_total_nonelectrostatic_energy": 11.95, 
			 "SMD_solvation_energy": 8.47 
		},
		"coords": [
			{
				"x": 1.9993038593,
				"y": -2.3219368834,
				"z": 1.8547662501,
				"element": "C" 
			},
			{
				"x": 1.8960194254,
				"y": -0.8888245227,
				"z": 1.8362023783,
				"element": "O" 
			},
			{
				"x": 1.6775743638,
				"y": -0.3386372016,
				"z": 0.5990991066,
				"element": "C" 
			},
			{
				"x": 0.4259998107,
				"y": -0.4683753517,
				"z": -0.0360060838,
				"element": "C" 
			},
			{
				"x": -0.5888910607,
				"y": -1.1885825319,
				"z": 0.5214506978,
				"element": "O" 
			},
			{
				"x": -1.1242944492,
				"y": -0.7171589805,
				"z": 1.7768995095,
				"element": "C" 
			},
			{
				"x": -2.554935879,
				"y": -1.2189607795,
				"z": 1.9718208441,
				"element": "C" 
			},
			{
				"x": -3.1409203757,
				"y": -1.7580738858,
				"z": 0.8751358308,
				"element": "N" 
			},
			{
				"x": -3.0888135469,
				"y": -1.0945916363,
				"z": 3.0639056824,
				"element": "O" 
			},
			{
				"x": 0.2485524193,
				"y": 0.129663275,
				"z": -1.2948428576,
				"element": "C" 
			},
			{
				"x": -1.2942731096,
				"y": -0.0344637128,
				"z": -2.1067984099,
				"element": "Cl" 
			},
			{
				"x": 1.2659999232,
				"y": 0.8579425263,
				"z": -1.8995528141,
				"element": "C" 
			},
			{
				"x": 2.4991026942,
				"y": 0.9965115397,
				"z": -1.2530494283,
				"element": "C" 
			},
			{
				"x": 2.6957271676,
				"y": 0.3990785225,
				"z": -0.0020163162,
				"element": "C" 
			},
			{
				"x": 3.5460799186,
				"y": 1.8166136814,
				"z": -1.9496838311,
				"element": "C" 
			},
			{
				"x": 4.8282102342,
				"y": 1.6642568188,
				"z": -1.5281969008,
				"element": "O" 
			},
			{
				"x": 3.2904178231,
				"y": 2.5837946216,
				"z": -2.8469532781,
				"element": "O" 
			},
			{
				"x": 2.8412859852,
				"y": -2.6555375264,
				"z": 1.2367012831,
				"element": "H" 
			},
			{
				"x": 2.1796702468,
				"y": -2.5978493407,
				"z": 2.8946672022,
				"element": "H" 
			},
			{
				"x": 1.0773824271,
				"y": -2.7934612423,
				"z": 1.5004517597,
				"element": "H" 
			},
			{
				"x": -0.5169103033,
				"y": -1.0613676933,
				"z": 2.6165321431,
				"element": "H" 
			},
			{
				"x": -1.1398525084,
				"y": 0.3783799241,
				"z": 1.7907463622,
				"element": "H" 
			},
			{
				"x": -2.6525784608,
				"y": -1.7946367352,
				"z": -0.0061986151,
				"element": "H" 
			},
			{
				"x": -4.0991219337,
				"y": -2.0634765508,
				"z": 0.9448269751,
				"element": "H" 
			},
			{
				"x": 1.115290866,
				"y": 1.3353251885,
				"z": -2.8601669181,
				"element": "H" 
			},
			{
				"x": 3.6176894144,
				"y": 0.5105457284,
				"z": 0.5614290667,
				"element": "H" 
			},
			{
				"x": 4.9017850485,
				"y": 0.9124227487,
				"z": -0.9247696387,
				"element": "H" 
			}
		],
		 "valence_orbital": [ 
			{
				"type": "occ",
				"energy": -0.28532,
				"method": "rhf"
			},
			{
				"type": "occ",
				"energy": -0.27469,
				"method": "rhf"
			},
			{
				"type": "occ",
				"energy": -0.26916,
				"method": "rhf"
			},
			{
				"type": "occ",
				"energy": -0.26501,
				"method": "rhf"
			},
			{
				"type": "occ",
				"energy": -0.25489,
				"method": "rhf"
			},
			{
				"type": "unocc",
				"energy": -0.0653,
				"method": "rhf"
			},
			{
				"type": "unocc",
				"energy": -0.03823,
				"method": "rhf"
			},
			{
				"type": "unocc",
				"energy": 0.00555,
				"method": "rhf"
			},
			{
				"type": "unocc",
				"energy": 0.02228,
				"method": "rhf"
			},
			{
				"type": "unocc",
				"energy": 0.03382,
				"method": "rhf"
			}
		],
		"cosmo_sigma_profile": { 
			"-0.025": 0.0,
			"-0.024": 0.0,
			"-0.023": 0.0,
			"-0.022": 0.0,
			"-0.021": 0.0,
			"-0.02": 0.0,
			"-0.019": 0.606521071522,
			"-0.018": 1.03502108441,
			"-0.017": 1.12055169555,
			"-0.016": 0.79980122544,
			"-0.015": 1.15259618957,
			"-0.014": 1.88293914329,
			"-0.013": 2.29279076904,
			"-0.012": 2.76146740785,
			"-0.011": 2.30263760491,
			"-0.01": 3.53589271936,
			"-0.009": 2.71926894094,
			"-0.008": 5.19611462824,
			"-0.007": 7.10501960044,
			"-0.006": 11.2925125138,
			"-0.005": 14.2925638355,
			"-0.004": 20.7154340288,
			"-0.003": 22.3061516421,
			"-0.002": 17.2619240007,
			"-0.001": 18.6062576457,
			"0.0": 21.3414726313,
			"0.001": 20.5139316479,
			"0.002": 12.7961201464,
			"0.003": 13.4167406949,
			"0.004": 11.6074810143,
			"0.005": 6.65264319193,
			"0.006": 4.38019001351,
			"0.007": 3.82551123383,
			"0.008": 4.71027563698,
			"0.009": 6.51798692894,
			"0.01": 6.55684578699,
			"0.011": 7.65773337374,
			"0.012": 5.1844443602,
			"0.013": 5.81263955522,
			"0.014": 5.0662430973,
			"0.015": 0.570411295543,
			"0.016": 0.0,
			"0.017": 0.0,
			"0.018": 0.0,
			"0.019": 0.0,
			"0.02": 0.0,
			"0.021": 0.0,
			"0.022": 0.0,
			"0.023": 0.0,
			"0.024": 0.0,
			"0.025": 0.0
		}
	}
}
