{
	 "smiles": "CC(C)CCC(O)=O", 
	 "Tm": 239.15, 
	 "num_atms": 20, 
	 "gaussian": { 
		 "optdone": 1, 
		 "sigma_profile": "yes", 
		 "theory": "DFT", 
		 "functional": "B3LYP", 
		 "basiset": "6-31G**", 
		 "properties": { 
			 "R2extent": 2068.6319, 
			 "electric_dipole_moment_norm": 1.71728224238, 
			 "electric_quadrupole_moment_norm": 8.70989116924, 
			 "total_energy": -386.347713722, 
			 "HOMO_LUMO_gap": 0.27898, 
			 "cosmo_polarized_energy": -7.79, 
			 "cosmo_cavitation_energy": 22.1, 
			 "cosmo_dispersion_energy": -15.77, 
			 "cosmo_repulsion_energy": 1.33, 
			 "cosmo_total_nonelectrostatic_energy": 7.65, 
			 "SMD_solvation_energy": 4.79 
		},
		"coords": [
			{
				"x": -0.8435926523,
				"y": -0.6495160812,
				"z": 1.9541209567,
				"element": "C" 
			},
			{
				"x": -0.3223155759,
				"y": -0.1774322258,
				"z": 0.5873088907,
				"element": "C" 
			},
			{
				"x": 1.1356777815,
				"y": 0.297588308,
				"z": 0.6885040096,
				"element": "C" 
			},
			{
				"x": -0.5284135534,
				"y": -1.2160128258,
				"z": -0.5392279956,
				"element": "C" 
			},
			{
				"x": 0.227368457,
				"y": -2.5554191559,
				"z": -0.4024762885,
				"element": "C" 
			},
			{
				"x": -0.3050382161,
				"y": -3.510890134,
				"z": 0.6434910718,
				"element": "C" 
			},
			{
				"x": -1.6376954637,
				"y": -3.7325358511,
				"z": 0.5006706491,
				"element": "O" 
			},
			{
				"x": 0.3494394549,
				"y": -4.0615167548,
				"z": 1.502376598,
				"element": "O" 
			},
			{
				"x": -0.811312775,
				"y": 0.1687541133,
				"z": 2.6816091613,
				"element": "H" 
			},
			{
				"x": -0.2351899594,
				"y": -1.4656076479,
				"z": 2.358172251,
				"element": "H" 
			},
			{
				"x": -1.8790935754,
				"y": -1.0001904301,
				"z": 1.8892331889,
				"element": "H" 
			},
			{
				"x": -0.9265056508,
				"y": 0.6925936544,
				"z": 0.2915841234,
				"element": "H" 
			},
			{
				"x": 1.2263690184,
				"y": 1.1206295498,
				"z": 1.4053756275,
				"element": "H" 
			},
			{
				"x": 1.8004359553,
				"y": -0.503210109,
				"z": 1.0313702187,
				"element": "H" 
			},
			{
				"x": 1.5097312387,
				"y": 0.6545112669,
				"z": -0.2778157207,
				"element": "H" 
			},
			{
				"x": -1.5977844282,
				"y": -1.4302393661,
				"z": -0.643256834,
				"element": "H" 
			},
			{
				"x": -0.2110132542,
				"y": -0.758385879,
				"z": -1.4845117601,
				"element": "H" 
			},
			{
				"x": 1.2879261224,
				"y": -2.407915615,
				"z": -0.1890848963,
				"element": "H" 
			},
			{
				"x": 0.159954782,
				"y": -3.0849157611,
				"z": -1.3616579095,
				"element": "H" 
			},
			{
				"x": -1.877547706,
				"y": -4.3637890554,
				"z": 1.1997146582,
				"element": "H" 
			}
		],
		 "valence_orbital": [ 
			{
				"type": "occ",
				"energy": -0.32802,
				"method": "rhf"
			},
			{
				"type": "occ",
				"energy": -0.32507,
				"method": "rhf"
			},
			{
				"type": "occ",
				"energy": -0.319,
				"method": "rhf"
			},
			{
				"type": "occ",
				"energy": -0.3091,
				"method": "rhf"
			},
			{
				"type": "occ",
				"energy": -0.26855,
				"method": "rhf"
			},
			{
				"type": "unocc",
				"energy": 0.01043,
				"method": "rhf"
			},
			{
				"type": "unocc",
				"energy": 0.06899,
				"method": "rhf"
			},
			{
				"type": "unocc",
				"energy": 0.09183,
				"method": "rhf"
			},
			{
				"type": "unocc",
				"energy": 0.11825,
				"method": "rhf"
			},
			{
				"type": "unocc",
				"energy": 0.13947,
				"method": "rhf"
			}
		],
		"cosmo_sigma_profile": { 
			"-0.025": 0.0,
			"-0.024": 0.0,
			"-0.023": 0.0,
			"-0.022": 0.0,
			"-0.021": 0.0,
			"-0.02": 0.0,
			"-0.019": 0.0,
			"-0.018": 0.380586687266,
			"-0.017": 1.05454939678,
			"-0.016": 0.95189046048,
			"-0.015": 0.660901969198,
			"-0.014": 0.535104811785,
			"-0.013": 0.802165023455,
			"-0.012": 0.672330242465,
			"-0.011": 0.533420661552,
			"-0.01": 0.534865148271,
			"-0.009": 1.03244323877,
			"-0.008": 0.400250075526,
			"-0.007": 0.855915881357,
			"-0.006": 3.13886869169,
			"-0.005": 3.71279378835,
			"-0.004": 6.0672098622,
			"-0.003": 13.3590129989,
			"-0.002": 24.9388443537,
			"-0.001": 28.0428519687,
			"0.0": 22.5690370902,
			"0.001": 18.9621350617,
			"0.002": 10.8807960514,
			"0.003": 3.70076661086,
			"0.004": 3.31937050486,
			"0.005": 1.68966352425,
			"0.006": 2.45607775339,
			"0.007": 2.70991907199,
			"0.008": 2.69552512749,
			"0.009": 2.02514616018,
			"0.01": 2.30217473705,
			"0.011": 2.61573420845,
			"0.012": 5.04417643354,
			"0.013": 1.89389237637,
			"0.014": 0.143260252859,
			"0.015": 0.0,
			"0.016": 0.0,
			"0.017": 0.0,
			"0.018": 0.0,
			"0.019": 0.0,
			"0.02": 0.0,
			"0.021": 0.0,
			"0.022": 0.0,
			"0.023": 0.0,
			"0.024": 0.0,
			"0.025": 0.0
		}
	}
}
