{
	 "smiles": "OC(=O)C1=CC=CC=C1[N+]([O-])=O", 
	 "Tm": 420.15, 
	 "num_atms": 17, 
	 "gaussian": { 
		 "optdone": 1, 
		 "sigma_profile": "yes", 
		 "theory": "DFT", 
		 "functional": "B3LYP", 
		 "basiset": "6-31G**", 
		 "properties": { 
			 "R2extent": 2526.9528, 
			 "electric_dipole_moment_norm": 5.36497621803, 
			 "electric_quadrupole_moment_norm": 19.6381273181, 
			 "total_energy": -625.306270126, 
			 "HOMO_LUMO_gap": 0.18625, 
			 "cosmo_polarized_energy": -14.57, 
			 "cosmo_cavitation_energy": 22.9, 
			 "cosmo_dispersion_energy": -16.61, 
			 "cosmo_repulsion_energy": 1.33, 
			 "cosmo_total_nonelectrostatic_energy": 7.62, 
			 "SMD_solvation_energy": 7.37 
		},
		"coords": [
			{
				"x": -0.973385813,
				"y": -2.1727471422,
				"z": -0.3450349666,
				"element": "O" 
			},
			{
				"x": -0.3135213943,
				"y": -1.1647173925,
				"z": -0.9583314611,
				"element": "C" 
			},
			{
				"x": 0.6301398104,
				"y": -1.3339857878,
				"z": -1.6941432247,
				"element": "O" 
			},
			{
				"x": -0.8333205785,
				"y": 0.1763097243,
				"z": -0.531500298,
				"element": "C" 
			},
			{
				"x": -1.0229410613,
				"y": 0.4294412276,
				"z": 0.8312957627,
				"element": "C" 
			},
			{
				"x": -1.3460875894,
				"y": 1.7099591898,
				"z": 1.283989013,
				"element": "C" 
			},
			{
				"x": -1.4795200826,
				"y": 2.7611385404,
				"z": 0.3772360071,
				"element": "C" 
			},
			{
				"x": -1.3045665476,
				"y": 2.5284801107,
				"z": -0.9867000313,
				"element": "C" 
			},
			{
				"x": -0.9973975878,
				"y": 1.2446232699,
				"z": -1.424356041,
				"element": "C" 
			},
			{
				"x": -0.9459271826,
				"y": 1.0287455515,
				"z": -2.8822447263,
				"element": "N" 
			},
			{
				"x": -1.3516573881,
				"y": -0.0494139771,
				"z": -3.3062018137,
				"element": "O" 
			},
			{
				"x": -0.5465236899,
				"y": 1.963210407,
				"z": -3.5738540391,
				"element": "O" 
			},
			{
				"x": -0.5385543243,
				"y": -2.9932476183,
				"z": -0.6341277317,
				"element": "H" 
			},
			{
				"x": -0.8990286819,
				"y": -0.3856794659,
				"z": 1.5355915222,
				"element": "H" 
			},
			{
				"x": -1.4874755943,
				"y": 1.8842321259,
				"z": 2.3460288414,
				"element": "H" 
			},
			{
				"x": -1.7286244521,
				"y": 3.7586293104,
				"z": 0.7246586772,
				"element": "H" 
			},
			{
				"x": -1.4160078427,
				"y": 3.3182219265,
				"z": -1.7197054902,
				"element": "H" 
			}
		],
		 "valence_orbital": [ 
			{
				"type": "occ",
				"energy": -0.30967,
				"method": "rhf"
			},
			{
				"type": "occ",
				"energy": -0.30551,
				"method": "rhf"
			},
			{
				"type": "occ",
				"energy": -0.29683,
				"method": "rhf"
			},
			{
				"type": "occ",
				"energy": -0.28349,
				"method": "rhf"
			},
			{
				"type": "occ",
				"energy": -0.27781,
				"method": "rhf"
			},
			{
				"type": "unocc",
				"energy": -0.09156,
				"method": "rhf"
			},
			{
				"type": "unocc",
				"energy": -0.05113,
				"method": "rhf"
			},
			{
				"type": "unocc",
				"energy": -0.02081,
				"method": "rhf"
			},
			{
				"type": "unocc",
				"energy": 0.02033,
				"method": "rhf"
			},
			{
				"type": "unocc",
				"energy": 0.06203,
				"method": "rhf"
			}
		],
		"cosmo_sigma_profile": { 
			"-0.025": 0.0,
			"-0.024": 0.0,
			"-0.023": 0.0,
			"-0.022": 0.0,
			"-0.021": 0.0,
			"-0.02": 0.0,
			"-0.019": 0.680980382513,
			"-0.018": 0.677945130295,
			"-0.017": 0.994376624893,
			"-0.016": 0.915523036867,
			"-0.015": 1.19381090832,
			"-0.014": 0.513705319107,
			"-0.013": 0.335398056813,
			"-0.012": 0.903346597218,
			"-0.011": 0.572406863942,
			"-0.01": 0.464419221485,
			"-0.009": 1.0031779642,
			"-0.008": 7.86970863754,
			"-0.007": 10.9109883896,
			"-0.006": 11.1607767393,
			"-0.005": 8.08380777547,
			"-0.004": 8.17363674406,
			"-0.003": 8.15258384506,
			"-0.002": 9.52456572351,
			"-0.001": 11.5946693016,
			"0.0": 16.4734526783,
			"0.001": 16.2627790363,
			"0.002": 7.96090075012,
			"0.003": 4.70666573626,
			"0.004": 5.54912205646,
			"0.005": 5.20232264837,
			"0.006": 7.65971240284,
			"0.007": 11.7384329115,
			"0.008": 9.48932365072,
			"0.009": 6.19358217385,
			"0.01": 4.10428213306,
			"0.011": 4.50110449376,
			"0.012": 0.3626876267,
			"0.013": 0.0,
			"0.014": 0.0,
			"0.015": 0.0,
			"0.016": 0.0,
			"0.017": 0.0,
			"0.018": 0.0,
			"0.019": 0.0,
			"0.02": 0.0,
			"0.021": 0.0,
			"0.022": 0.0,
			"0.023": 0.0,
			"0.024": 0.0,
			"0.025": 0.0
		}
	}
}
