{
	 "smiles": "OCCNC1=CC=C(C=C1)C#N", 
	 "Tm": 358.15, 
	 "num_atms": 22, 
	 "gaussian": { 
		 "optdone": 1, 
		 "sigma_profile": "yes", 
		 "theory": "DFT", 
		 "functional": "B3LYP", 
		 "basiset": "6-31G**", 
		 "properties": { 
			 "R2extent": 3397.8653, 
			 "electric_dipole_moment_norm": 5.52801143722, 
			 "electric_quadrupole_moment_norm": 22.8113187341, 
			 "total_energy": -533.687104516, 
			 "HOMO_LUMO_gap": 0.18708, 
			 "cosmo_polarized_energy": -17.37, 
			 "cosmo_cavitation_energy": 26.9, 
			 "cosmo_dispersion_energy": -19.21, 
			 "cosmo_repulsion_energy": 1.55, 
			 "cosmo_total_nonelectrostatic_energy": 9.24, 
			 "SMD_solvation_energy": 5.62 
		},
		"coords": [
			{
				"x": -3.6872031598,
				"y": 2.051907986,
				"z": -2.1737993816,
				"element": "O" 
			},
			{
				"x": -2.7130863261,
				"y": 2.8677761813,
				"z": -1.5561426344,
				"element": "C" 
			},
			{
				"x": -2.023928022,
				"y": 2.1532563351,
				"z": -0.3949232363,
				"element": "C" 
			},
			{
				"x": -1.309173377,
				"y": 0.9889759146,
				"z": -0.9113207198,
				"element": "N" 
			},
			{
				"x": -0.8058510143,
				"y": -0.0220061279,
				"z": -0.0996452222,
				"element": "C" 
			},
			{
				"x": 0.130653502,
				"y": -0.928830252,
				"z": -0.6424288116,
				"element": "C" 
			},
			{
				"x": 0.6287135866,
				"y": -1.9781784359,
				"z": 0.1102651938,
				"element": "C" 
			},
			{
				"x": 0.2079617168,
				"y": -2.1635731637,
				"z": 1.4410816542,
				"element": "C" 
			},
			{
				"x": -0.7204680883,
				"y": -1.2627730291,
				"z": 1.9873381414,
				"element": "C" 
			},
			{
				"x": -1.2175499418,
				"y": -0.2057496036,
				"z": 1.23508381,
				"element": "C" 
			},
			{
				"x": 0.7213224704,
				"y": -3.2456100293,
				"z": 2.2228247551,
				"element": "C" 
			},
			{
				"x": 1.1404002226,
				"y": -4.1265920812,
				"z": 2.8583319151,
				"element": "N" 
			},
			{
				"x": -3.2834569376,
				"y": 1.1786638795,
				"z": -2.2849856693,
				"element": "H" 
			},
			{
				"x": -3.2261912542,
				"y": 3.7600179019,
				"z": -1.184129473,
				"element": "H" 
			},
			{
				"x": -1.9508157904,
				"y": 3.2114667258,
				"z": -2.2797607445,
				"element": "H" 
			},
			{
				"x": -1.362963825,
				"y": 2.8462766709,
				"z": 0.150606992,
				"element": "H" 
			},
			{
				"x": -2.7980607036,
				"y": 1.8115713507,
				"z": 0.2973839846,
				"element": "H" 
			},
			{
				"x": -0.6999140266,
				"y": 1.2107811612,
				"z": -1.6904332876,
				"element": "H" 
			},
			{
				"x": 0.458713795,
				"y": -0.8021861478,
				"z": -1.6711475034,
				"element": "H" 
			},
			{
				"x": 1.3482121869,
				"y": -2.6641627838,
				"z": -0.3244658858,
				"element": "H" 
			},
			{
				"x": -1.047200161,
				"y": -1.3910727118,
				"z": 3.0140964486,
				"element": "H" 
			},
			{
				"x": -1.9232148526,
				"y": 0.4771402594,
				"z": 1.6923696749,
				"element": "H" 
			}
		],
		 "valence_orbital": [ 
			{
				"type": "occ",
				"energy": -0.32063,
				"method": "rhf"
			},
			{
				"type": "occ",
				"energy": -0.30526,
				"method": "rhf"
			},
			{
				"type": "occ",
				"energy": -0.28012,
				"method": "rhf"
			},
			{
				"type": "occ",
				"energy": -0.27441,
				"method": "rhf"
			},
			{
				"type": "occ",
				"energy": -0.22378,
				"method": "rhf"
			},
			{
				"type": "unocc",
				"energy": -0.0367,
				"method": "rhf"
			},
			{
				"type": "unocc",
				"energy": -0.02239,
				"method": "rhf"
			},
			{
				"type": "unocc",
				"energy": 0.04425,
				"method": "rhf"
			},
			{
				"type": "unocc",
				"energy": 0.06016,
				"method": "rhf"
			},
			{
				"type": "unocc",
				"energy": 0.07767,
				"method": "rhf"
			}
		],
		"cosmo_sigma_profile": { 
			"-0.025": 0.0,
			"-0.024": 0.0,
			"-0.023": 0.0,
			"-0.022": 0.0,
			"-0.021": 0.0,
			"-0.02": 0.0,
			"-0.019": 0.0,
			"-0.018": 0.0,
			"-0.017": 0.0,
			"-0.016": 0.0,
			"-0.015": 0.0,
			"-0.014": 0.105190715886,
			"-0.013": 1.48654995457,
			"-0.012": 2.03648728235,
			"-0.011": 2.61283588141,
			"-0.01": 2.93383193403,
			"-0.009": 2.90304670803,
			"-0.008": 3.43412357321,
			"-0.007": 10.4922041726,
			"-0.006": 10.4735609082,
			"-0.005": 16.0605483151,
			"-0.004": 20.1027653074,
			"-0.003": 15.6398304137,
			"-0.002": 12.4266857221,
			"-0.001": 10.7056418882,
			"0.0": 10.0921660814,
			"0.001": 12.7711128692,
			"0.002": 11.4556240762,
			"0.003": 14.9713981812,
			"0.004": 12.4600911575,
			"0.005": 2.97241097927,
			"0.006": 3.0449954168,
			"0.007": 3.88160351304,
			"0.008": 4.30254576626,
			"0.009": 5.09108518299,
			"0.01": 4.82545380583,
			"0.011": 4.08655370981,
			"0.012": 4.15460673005,
			"0.013": 4.46157920281,
			"0.014": 3.53505569005,
			"0.015": 0.702382330785,
			"0.016": 0.0,
			"0.017": 0.0,
			"0.018": 0.0,
			"0.019": 0.0,
			"0.02": 0.0,
			"0.021": 0.0,
			"0.022": 0.0,
			"0.023": 0.0,
			"0.024": 0.0,
			"0.025": 0.0
		}
	}
}
