{
	 "smiles": "CN(C(C)=O)C1=CC(=CC=C1)C1=NN2C(C)=NN=C2C=C1", 
	 "Tm": 473.15, 
	 "num_atms": 36, 
	 "gaussian": { 
		 "optdone": 1, 
		 "sigma_profile": "yes", 
		 "theory": "DFT", 
		 "functional": "B3LYP", 
		 "basiset": "6-31G**", 
		 "properties": { 
			 "R2extent": 8654.8459, 
			 "electric_dipole_moment_norm": 8.511094281, 
			 "electric_quadrupole_moment_norm": 26.0091347943, 
			 "total_energy": -929.585752824, 
			 "HOMO_LUMO_gap": 0.15854, 
			 "cosmo_polarized_energy": -23.54, 
			 "cosmo_cavitation_energy": 40.16, 
			 "cosmo_dispersion_energy": -28.55, 
			 "cosmo_repulsion_energy": 2.16, 
			 "cosmo_total_nonelectrostatic_energy": 13.77, 
			 "SMD_solvation_energy": 4.64 
		},
		"coords": [
			{
				"x": -1.5521922508,
				"y": 1.3344322192,
				"z": 5.1929364859,
				"element": "C" 
			},
			{
				"x": -1.4644217357,
				"y": 0.985900712,
				"z": 3.7731766262,
				"element": "N" 
			},
			{
				"x": -2.3517199328,
				"y": 0.0797972184,
				"z": 3.1935971205,
				"element": "C" 
			},
			{
				"x": -3.3432919723,
				"y": -0.6027913862,
				"z": 4.1267719893,
				"element": "C" 
			},
			{
				"x": -2.3462480884,
				"y": -0.1710939605,
				"z": 1.9978519918,
				"element": "O" 
			},
			{
				"x": -0.5623858868,
				"y": 1.7431195277,
				"z": 2.9643710503,
				"element": "C" 
			},
			{
				"x": 0.1449869028,
				"y": 1.1447531856,
				"z": 1.9153850815,
				"element": "C" 
			},
			{
				"x": 1.0441671962,
				"y": 1.8923844525,
				"z": 1.143621578,
				"element": "C" 
			},
			{
				"x": 1.2485105,
				"y": 3.2499907348,
				"z": 1.4369753349,
				"element": "C" 
			},
			{
				"x": 0.5517129243,
				"y": 3.8431647304,
				"z": 2.4857585346,
				"element": "C" 
			},
			{
				"x": -0.3551572849,
				"y": 3.1028921128,
				"z": 3.24237275,
				"element": "C" 
			},
			{
				"x": 1.7863419364,
				"y": 1.2295860396,
				"z": 0.0395752314,
				"element": "C" 
			},
			{
				"x": 1.9838495738,
				"y": -0.0676171337,
				"z": 0.1674042422,
				"element": "N" 
			},
			{
				"x": 2.6478295032,
				"y": -0.6505493176,
				"z": -0.8534006909,
				"element": "N" 
			},
			{
				"x": 2.9876763338,
				"y": -1.9712571517,
				"z": -0.9831343125,
				"element": "C" 
			},
			{
				"x": 2.6527866856,
				"y": -3.0212987432,
				"z": 0.0141993579,
				"element": "C" 
			},
			{
				"x": 3.64348265,
				"y": -2.1323931509,
				"z": -2.1220281479,
				"element": "N" 
			},
			{
				"x": 3.7506327274,
				"y": -0.926940148,
				"z": -2.7641490037,
				"element": "N" 
			},
			{
				"x": 3.1492561807,
				"y": -0.0305122166,
				"z": -1.9987303873,
				"element": "C" 
			},
			{
				"x": 2.9189981427,
				"y": 1.3604679543,
				"z": -2.1173874568,
				"element": "C" 
			},
			{
				"x": 2.2419654423,
				"y": 1.9804726259,
				"z": -1.1052769581,
				"element": "C" 
			},
			{
				"x": -2.3061365513,
				"y": 2.106042849,
				"z": 5.3982415028,
				"element": "H" 
			},
			{
				"x": -0.5811569593,
				"y": 1.7029645522,
				"z": 5.5276011245,
				"element": "H" 
			},
			{
				"x": -1.7946835988,
				"y": 0.4530716315,
				"z": 5.7866142404,
				"element": "H" 
			},
			{
				"x": -2.835787713,
				"y": -1.2597593652,
				"z": 4.8417175307,
				"element": "H" 
			},
			{
				"x": -4.0013558102,
				"y": -1.2068843574,
				"z": 3.5032807488,
				"element": "H" 
			},
			{
				"x": -3.9430284273,
				"y": 0.1121184382,
				"z": 4.6985757456,
				"element": "H" 
			},
			{
				"x": -0.009535185,
				"y": 0.1021823618,
				"z": 1.6824551101,
				"element": "H" 
			},
			{
				"x": 1.9664533698,
				"y": 3.8352094674,
				"z": 0.8721067349,
				"element": "H" 
			},
			{
				"x": 0.711202779,
				"y": 4.8920484098,
				"z": 2.7170232828,
				"element": "H" 
			},
			{
				"x": -0.9082551494,
				"y": 3.5892490828,
				"z": 4.038626467,
				"element": "H" 
			},
			{
				"x": 3.0910487562,
				"y": -2.7946274719,
				"z": 0.9919407869,
				"element": "H" 
			},
			{
				"x": 3.0438025112,
				"y": -3.9755828065,
				"z": -0.3411583341,
				"element": "H" 
			},
			{
				"x": 1.5697367041,
				"y": -3.1060029345,
				"z": 0.1528747324,
				"element": "H" 
			},
			{
				"x": 3.2684594508,
				"y": 1.8848623357,
				"z": -2.9994950001,
				"element": "H" 
			},
			{
				"x": 2.0115562759,
				"y": 3.0366995023,
				"z": -1.16569509,
				"element": "H" 
			}
		],
		 "valence_orbital": [ 
			{
				"type": "occ",
				"energy": -0.25744,
				"method": "rhf"
			},
			{
				"type": "occ",
				"energy": -0.24572,
				"method": "rhf"
			},
			{
				"type": "occ",
				"energy": -0.24456,
				"method": "rhf"
			},
			{
				"type": "occ",
				"energy": -0.23078,
				"method": "rhf"
			},
			{
				"type": "occ",
				"energy": -0.22927,
				"method": "rhf"
			},
			{
				"type": "unocc",
				"energy": -0.07073,
				"method": "rhf"
			},
			{
				"type": "unocc",
				"energy": -0.03386,
				"method": "rhf"
			},
			{
				"type": "unocc",
				"energy": -0.01617,
				"method": "rhf"
			},
			{
				"type": "unocc",
				"energy": 0.01346,
				"method": "rhf"
			},
			{
				"type": "unocc",
				"energy": 0.02974,
				"method": "rhf"
			}
		],
		"cosmo_sigma_profile": { 
			"-0.025": 0.0,
			"-0.024": 0.0,
			"-0.023": 0.0,
			"-0.022": 0.0,
			"-0.021": 0.0,
			"-0.02": 0.0,
			"-0.019": 0.0,
			"-0.018": 0.0,
			"-0.017": 0.0,
			"-0.016": 0.0,
			"-0.015": 0.0,
			"-0.014": 0.0,
			"-0.013": 0.0,
			"-0.012": 0.0,
			"-0.011": 0.0,
			"-0.01": 0.250512820926,
			"-0.009": 3.6523297837,
			"-0.008": 5.08712389355,
			"-0.007": 10.1183146409,
			"-0.006": 21.2874978207,
			"-0.005": 30.0744451046,
			"-0.004": 29.3587621394,
			"-0.003": 28.629136778,
			"-0.002": 31.8826454393,
			"-0.001": 28.0282021374,
			"0.0": 19.8827730668,
			"0.001": 15.1052034745,
			"0.002": 13.763348676,
			"0.003": 12.2270566382,
			"0.004": 16.2549642916,
			"0.005": 5.8934222343,
			"0.006": 5.09252918361,
			"0.007": 4.95695898661,
			"0.008": 4.19142072711,
			"0.009": 3.0094529113,
			"0.01": 4.03134405787,
			"0.011": 4.33344191231,
			"0.012": 5.03604752752,
			"0.013": 7.39958287136,
			"0.014": 5.44724363409,
			"0.015": 3.08373782757,
			"0.016": 2.41102943987,
			"0.017": 0.776162721898,
			"0.018": 0.0,
			"0.019": 0.0,
			"0.02": 0.0,
			"0.021": 0.0,
			"0.022": 0.0,
			"0.023": 0.0,
			"0.024": 0.0,
			"0.025": 0.0
		}
	}
}
