{
	 "smiles": "CC(C)C1=CC(N)=NO1", 
	 "Tm": 338.15, 
	 "num_atms": 19, 
	 "gaussian": { 
		 "optdone": 1, 
		 "sigma_profile": "yes", 
		 "theory": "DFT", 
		 "functional": "B3LYP", 
		 "basiset": "6-31G**", 
		 "properties": { 
			 "R2extent": 2014.6162, 
			 "electric_dipole_moment_norm": 3.11476650489, 
			 "electric_quadrupole_moment_norm": 12.3616090696, 
			 "total_energy": -419.353095609, 
			 "HOMO_LUMO_gap": 0.23432, 
			 "cosmo_polarized_energy": -11.7, 
			 "cosmo_cavitation_energy": 22.52, 
			 "cosmo_dispersion_energy": -16.38, 
			 "cosmo_repulsion_energy": 1.38, 
			 "cosmo_total_nonelectrostatic_energy": 7.52, 
			 "SMD_solvation_energy": 3.77 
		},
		"coords": [
			{
				"x": -2.905057095,
				"y": -0.1847118433,
				"z": 1.9018855557,
				"element": "C" 
			},
			{
				"x": -1.4668036143,
				"y": -0.7186883112,
				"z": 1.752174377,
				"element": "C" 
			},
			{
				"x": -1.2570448218,
				"y": -2.0042864937,
				"z": 2.5763369769,
				"element": "C" 
			},
			{
				"x": -1.1203141024,
				"y": -0.9389659345,
				"z": 0.3084949133,
				"element": "C" 
			},
			{
				"x": -0.1892077758,
				"y": -0.3905076369,
				"z": -0.5205292598,
				"element": "C" 
			},
			{
				"x": -0.4124028016,
				"y": -1.0499716339,
				"z": -1.770065892,
				"element": "C" 
			},
			{
				"x": 0.2325595427,
				"y": -0.7984346104,
				"z": -2.9723733737,
				"element": "N" 
			},
			{
				"x": -1.3898431609,
				"y": -1.9320340258,
				"z": -1.6972138548,
				"element": "N" 
			},
			{
				"x": -1.8507279179,
				"y": -1.8511016021,
				"z": -0.3659590347,
				"element": "O" 
			},
			{
				"x": -3.0413299177,
				"y": 0.7487849921,
				"z": 1.3477362393,
				"element": "H" 
			},
			{
				"x": -3.1317182901,
				"y": 0.0056895959,
				"z": 2.9558237681,
				"element": "H" 
			},
			{
				"x": -3.6282485341,
				"y": -0.9121713941,
				"z": 1.521608568,
				"element": "H" 
			},
			{
				"x": -0.7722381614,
				"y": 0.0467379392,
				"z": 2.1197348447,
				"element": "H" 
			},
			{
				"x": -1.4790797761,
				"y": -1.8192321834,
				"z": 3.63219811,
				"element": "H" 
			},
			{
				"x": -0.2252359821,
				"y": -2.3606376405,
				"z": 2.5007099996,
				"element": "H" 
			},
			{
				"x": -1.916912393,
				"y": -2.8017063802,
				"z": 2.2220071662,
				"element": "H" 
			},
			{
				"x": 0.5342092308,
				"y": 0.377517163,
				"z": -0.2923234293,
				"element": "H" 
			},
			{
				"x": 1.2235000494,
				"y": -0.6184102588,
				"z": -2.8818049562,
				"element": "H" 
			},
			{
				"x": 0.0400955212,
				"y": -1.5033697415,
				"z": -3.6736407185,
				"element": "H" 
			}
		],
		 "valence_orbital": [ 
			{
				"type": "occ",
				"energy": -0.34211,
				"method": "rhf"
			},
			{
				"type": "occ",
				"energy": -0.33756,
				"method": "rhf"
			},
			{
				"type": "occ",
				"energy": -0.2883,
				"method": "rhf"
			},
			{
				"type": "occ",
				"energy": -0.24712,
				"method": "rhf"
			},
			{
				"type": "occ",
				"energy": -0.22548,
				"method": "rhf"
			},
			{
				"type": "unocc",
				"energy": 0.00884,
				"method": "rhf"
			},
			{
				"type": "unocc",
				"energy": 0.06539,
				"method": "rhf"
			},
			{
				"type": "unocc",
				"energy": 0.0843,
				"method": "rhf"
			},
			{
				"type": "unocc",
				"energy": 0.09751,
				"method": "rhf"
			},
			{
				"type": "unocc",
				"energy": 0.12488,
				"method": "rhf"
			}
		],
		"cosmo_sigma_profile": { 
			"-0.025": 0.0,
			"-0.024": 0.0,
			"-0.023": 0.0,
			"-0.022": 0.0,
			"-0.021": 0.0,
			"-0.02": 0.0,
			"-0.019": 0.0,
			"-0.018": 0.0,
			"-0.017": 0.0,
			"-0.016": 0.0,
			"-0.015": 0.0,
			"-0.014": 0.246788715688,
			"-0.013": 1.78896318995,
			"-0.012": 2.64577191895,
			"-0.011": 2.48619607944,
			"-0.01": 2.94818171211,
			"-0.009": 2.83662309672,
			"-0.008": 2.81060083704,
			"-0.007": 3.78743383836,
			"-0.006": 3.82188588308,
			"-0.005": 4.43385129212,
			"-0.004": 9.26651550359,
			"-0.003": 17.6983910533,
			"-0.002": 18.8956170502,
			"-0.001": 17.4714197755,
			"0.0": 18.3079696848,
			"0.001": 14.437466774,
			"0.002": 7.05549176498,
			"0.003": 7.44879972877,
			"0.004": 6.10208154097,
			"0.005": 3.43482795837,
			"0.006": 3.37215198571,
			"0.007": 2.33679092057,
			"0.008": 3.43349672188,
			"0.009": 4.92335909875,
			"0.01": 3.96966585542,
			"0.011": 2.53715601044,
			"0.012": 1.66845216164,
			"0.013": 2.52541354445,
			"0.014": 1.90833264696,
			"0.015": 1.37550782257,
			"0.016": 0.519313755625,
			"0.017": 0.0,
			"0.018": 0.0,
			"0.019": 0.0,
			"0.02": 0.0,
			"0.021": 0.0,
			"0.022": 0.0,
			"0.023": 0.0,
			"0.024": 0.0,
			"0.025": 0.0
		}
	}
}
