{
	 "smiles": "[O-][N+](=O)C1=CC=CC=C1C1=CC=CC=C1", 
	 "Tm": 310.25, 
	 "num_atms": 24, 
	 "gaussian": { 
		 "optdone": 1, 
		 "sigma_profile": "yes", 
		 "theory": "DFT", 
		 "functional": "B3LYP", 
		 "basiset": "6-31G**", 
		 "properties": { 
			 "R2extent": 3111.8669, 
			 "electric_dipole_moment_norm": 4.07770000368, 
			 "electric_quadrupole_moment_norm": 13.1690715216, 
			 "total_energy": -667.797763692, 
			 "HOMO_LUMO_gap": 0.16092, 
			 "cosmo_polarized_energy": -10.21, 
			 "cosmo_cavitation_energy": 28.8, 
			 "cosmo_dispersion_energy": -20.54, 
			 "cosmo_repulsion_energy": 1.6, 
			 "cosmo_total_nonelectrostatic_energy": 9.86, 
			 "SMD_solvation_energy": 7.05 
		},
		"coords": [
			{
				"x": 3.0761511202,
				"y": -0.1945227339,
				"z": 1.9145794405,
				"element": "O" 
			},
			{
				"x": 1.9785715903,
				"y": -0.5260175017,
				"z": 1.4630299358,
				"element": "N" 
			},
			{
				"x": 1.6480269744,
				"y": -1.6764997516,
				"z": 1.1908683455,
				"element": "O" 
			},
			{
				"x": 0.9781366901,
				"y": 0.5437324688,
				"z": 1.2798834441,
				"element": "C" 
			},
			{
				"x": 0.9929441875,
				"y": 1.5580171785,
				"z": 2.2376098315,
				"element": "C" 
			},
			{
				"x": 0.0216885028,
				"y": 2.5533827317,
				"z": 2.2007393772,
				"element": "C" 
			},
			{
				"x": -0.9438316956,
				"y": 2.5304929429,
				"z": 1.1929469432,
				"element": "C" 
			},
			{
				"x": -0.9230753056,
				"y": 1.528313718,
				"z": 0.2246002099,
				"element": "C" 
			},
			{
				"x": 0.036858856,
				"y": 0.5018554134,
				"z": 0.2344859296,
				"element": "C" 
			},
			{
				"x": 0.0355835138,
				"y": -0.4901878988,
				"z": -0.8758590308,
				"element": "C" 
			},
			{
				"x": 1.1824093224,
				"y": -0.709254582,
				"z": -1.6547626748,
				"element": "C" 
			},
			{
				"x": 1.1469715925,
				"y": -1.5875572825,
				"z": -2.7352524252,
				"element": "C" 
			},
			{
				"x": -0.0336629353,
				"y": -2.2620846168,
				"z": -3.0552278744,
				"element": "C" 
			},
			{
				"x": -1.1800419485,
				"y": -2.0487524728,
				"z": -2.2892775835,
				"element": "C" 
			},
			{
				"x": -1.1473204336,
				"y": -1.1650054501,
				"z": -1.2103080249,
				"element": "C" 
			},
			{
				"x": 1.7571965754,
				"y": 1.5375571285,
				"z": 3.0050695982,
				"element": "H" 
			},
			{
				"x": 0.0193699639,
				"y": 3.3360867596,
				"z": 2.952431855,
				"element": "H" 
			},
			{
				"x": -1.7055376458,
				"y": 3.3032283127,
				"z": 1.1491607559,
				"element": "H" 
			},
			{
				"x": -1.6481150167,
				"y": 1.5425385907,
				"z": -0.5829520516,
				"element": "H" 
			},
			{
				"x": 2.1015690546,
				"y": -0.1796628476,
				"z": -1.420970968,
				"element": "H" 
			},
			{
				"x": 2.0421670962,
				"y": -1.743148307,
				"z": -3.3301693696,
				"element": "H" 
			},
			{
				"x": -0.0587164621,
				"y": -2.9487391599,
				"z": -3.896294321,
				"element": "H" 
			},
			{
				"x": -2.1012742043,
				"y": -2.572439654,
				"z": -2.5277256584,
				"element": "H" 
			},
			{
				"x": -2.0380693925,
				"y": -1.0114329863,
				"z": -0.6080056843,
				"element": "H" 
			}
		],
		 "valence_orbital": [ 
			{
				"type": "occ",
				"energy": -0.29958,
				"method": "rhf"
			},
			{
				"type": "occ",
				"energy": -0.28013,
				"method": "rhf"
			},
			{
				"type": "occ",
				"energy": -0.26975,
				"method": "rhf"
			},
			{
				"type": "occ",
				"energy": -0.25468,
				"method": "rhf"
			},
			{
				"type": "occ",
				"energy": -0.24179,
				"method": "rhf"
			},
			{
				"type": "unocc",
				"energy": -0.08087,
				"method": "rhf"
			},
			{
				"type": "unocc",
				"energy": -0.03507,
				"method": "rhf"
			},
			{
				"type": "unocc",
				"energy": -0.01335,
				"method": "rhf"
			},
			{
				"type": "unocc",
				"energy": -0.00498,
				"method": "rhf"
			},
			{
				"type": "unocc",
				"energy": 0.01023,
				"method": "rhf"
			}
		],
		"cosmo_sigma_profile": { 
			"-0.025": 0.0,
			"-0.024": 0.0,
			"-0.023": 0.0,
			"-0.022": 0.0,
			"-0.021": 0.0,
			"-0.02": 0.0,
			"-0.019": 0.0,
			"-0.018": 0.0,
			"-0.017": 0.0,
			"-0.016": 0.0,
			"-0.015": 0.0,
			"-0.014": 0.0,
			"-0.013": 0.0,
			"-0.012": 0.0,
			"-0.011": 0.0,
			"-0.01": 0.0,
			"-0.009": 0.0292678322934,
			"-0.008": 1.46971463319,
			"-0.007": 9.23269342762,
			"-0.006": 17.9403219191,
			"-0.005": 20.9163092463,
			"-0.004": 19.653014319,
			"-0.003": 15.3702726235,
			"-0.002": 14.5192279958,
			"-0.001": 11.6269185726,
			"0.0": 14.7128809232,
			"0.001": 18.357559388,
			"0.002": 20.0434480902,
			"0.003": 13.4718434834,
			"0.004": 9.57970387486,
			"0.005": 10.4306790285,
			"0.006": 6.31240019443,
			"0.007": 7.90394016326,
			"0.008": 11.4015940503,
			"0.009": 5.94895735658,
			"0.01": 2.51687789403,
			"0.011": 0.0349824948859,
			"0.012": 0.0,
			"0.013": 0.0,
			"0.014": 0.0,
			"0.015": 0.0,
			"0.016": 0.0,
			"0.017": 0.0,
			"0.018": 0.0,
			"0.019": 0.0,
			"0.02": 0.0,
			"0.021": 0.0,
			"0.022": 0.0,
			"0.023": 0.0,
			"0.024": 0.0,
			"0.025": 0.0
		}
	}
}
