{
	 "smiles": "[O-][N+](=O)C1=C(NC(=O)C(F)(F)F)C=CC(=C1)S(Cl)(=O)=O", 
	 "Tm": 365.15, 
	 "num_atms": 24, 
	 "gaussian": { 
		 "optdone": 1, 
		 "sigma_profile": "yes", 
		 "theory": "DFT", 
		 "functional": "B3LYP", 
		 "basiset": "6-31G**", 
		 "properties": { 
			 "R2extent": 9138.679, 
			 "electric_dipole_moment_norm": 2.37726894145, 
			 "electric_quadrupole_moment_norm": 17.962054535, 
			 "total_energy": -1950.61946025, 
			 "HOMO_LUMO_gap": 0.15759, 
			 "cosmo_polarized_energy": -14.52, 
			 "cosmo_cavitation_energy": 35.57, 
			 "cosmo_dispersion_energy": -25.62, 
			 "cosmo_repulsion_energy": 1.85, 
			 "cosmo_total_nonelectrostatic_energy": 11.8, 
			 "SMD_solvation_energy": 8.48 
		},
		"coords": [
			{
				"x": -1.37435236,
				"y": 2.8593064797,
				"z": -2.9052898301,
				"element": "O" 
			},
			{
				"x": -0.9772229809,
				"y": 2.7454868733,
				"z": -1.7540416594,
				"element": "N" 
			},
			{
				"x": -1.0984923837,
				"y": 3.6390125592,
				"z": -0.8998781407,
				"element": "O" 
			},
			{
				"x": -0.3264688337,
				"y": 1.4839691876,
				"z": -1.3702901136,
				"element": "C" 
			},
			{
				"x": 0.1854869773,
				"y": 1.2369829336,
				"z": -0.0647865421,
				"element": "C" 
			},
			{
				"x": 0.0847532617,
				"y": 2.1992398503,
				"z": 0.9326143072,
				"element": "N" 
			},
			{
				"x": 0.5263918533,
				"y": 2.1117890007,
				"z": 2.2304127327,
				"element": "C" 
			},
			{
				"x": 1.090543229,
				"y": 1.1775128462,
				"z": 2.7624060563,
				"element": "O" 
			},
			{
				"x": 0.2414520681,
				"y": 3.3909766453,
				"z": 3.0601636495,
				"element": "C" 
			},
			{
				"x": -0.4012488404,
				"y": 4.3383634202,
				"z": 2.3399699526,
				"element": "F" 
			},
			{
				"x": 1.3957389071,
				"y": 3.9079062406,
				"z": 3.4961324888,
				"element": "F" 
			},
			{
				"x": -0.5185123434,
				"y": 3.0800271628,
				"z": 4.1159011177,
				"element": "F" 
			},
			{
				"x": 0.7976609502,
				"y": -0.013669112,
				"z": 0.1720452531,
				"element": "C" 
			},
			{
				"x": 0.8913746035,
				"y": -0.9660412272,
				"z": -0.8297427373,
				"element": "C" 
			},
			{
				"x": 0.3718547637,
				"y": -0.6880457218,
				"z": -2.097828882,
				"element": "C" 
			},
			{
				"x": -0.2328271055,
				"y": 0.525365788,
				"z": -2.379037896,
				"element": "C" 
			},
			{
				"x": 0.5116576996,
				"y": -1.9066605052,
				"z": -3.3970707502,
				"element": "S" 
			},
			{
				"x": -1.2578399344,
				"y": -3.0426067678,
				"z": -3.0868743284,
				"element": "Cl" 
			},
			{
				"x": 0.3593543303,
				"y": -1.2463310876,
				"z": -4.6858377055,
				"element": "O" 
			},
			{
				"x": 1.6269848856,
				"y": -2.7910894527,
				"z": -3.0885192432,
				"element": "O" 
			},
			{
				"x": -0.3770145808,
				"y": 3.059686216,
				"z": 0.6346294211,
				"element": "H" 
			},
			{
				"x": 1.197006272,
				"y": -0.2112334938,
				"z": 1.1560843652,
				"element": "H" 
			},
			{
				"x": 1.3736408826,
				"y": -1.9176071943,
				"z": -0.6348755196,
				"element": "H" 
			},
			{
				"x": -0.6258213213,
				"y": 0.7506593589,
				"z": -3.362285996,
				"element": "H" 
			}
		],
		 "valence_orbital": [ 
			{
				"type": "occ",
				"energy": -0.33607,
				"method": "rhf"
			},
			{
				"type": "occ",
				"energy": -0.32936,
				"method": "rhf"
			},
			{
				"type": "occ",
				"energy": -0.32617,
				"method": "rhf"
			},
			{
				"type": "occ",
				"energy": -0.31402,
				"method": "rhf"
			},
			{
				"type": "occ",
				"energy": -0.29184,
				"method": "rhf"
			},
			{
				"type": "unocc",
				"energy": -0.13425,
				"method": "rhf"
			},
			{
				"type": "unocc",
				"energy": -0.10914,
				"method": "rhf"
			},
			{
				"type": "unocc",
				"energy": -0.07746,
				"method": "rhf"
			},
			{
				"type": "unocc",
				"energy": -0.04605,
				"method": "rhf"
			},
			{
				"type": "unocc",
				"energy": -0.02989,
				"method": "rhf"
			}
		],
		"cosmo_sigma_profile": { 
			"-0.025": 0.0,
			"-0.024": 0.0,
			"-0.023": 0.0,
			"-0.022": 0.0,
			"-0.021": 0.0,
			"-0.02": 0.0,
			"-0.019": 0.0,
			"-0.018": 0.0,
			"-0.017": 0.0,
			"-0.016": 0.0,
			"-0.015": 0.0,
			"-0.014": 0.0,
			"-0.013": 0.0,
			"-0.012": 0.0,
			"-0.011": 0.138096720293,
			"-0.01": 3.20759754813,
			"-0.009": 6.93517310686,
			"-0.008": 8.90548699868,
			"-0.007": 10.1533379386,
			"-0.006": 12.4954439284,
			"-0.005": 14.6975964863,
			"-0.004": 18.1231620727,
			"-0.003": 18.5174067671,
			"-0.002": 19.2138139675,
			"-0.001": 16.6703231759,
			"0.0": 17.1172947925,
			"0.001": 32.5620488192,
			"0.002": 30.5197279244,
			"0.003": 19.4036857036,
			"0.004": 7.60973266503,
			"0.005": 8.18681113251,
			"0.006": 11.6880015165,
			"0.007": 14.2181930773,
			"0.008": 13.7654930621,
			"0.009": 4.99066534937,
			"0.01": 1.70458712338,
			"0.011": 0.0457051735422,
			"0.012": 0.0,
			"0.013": 0.0,
			"0.014": 0.0,
			"0.015": 0.0,
			"0.016": 0.0,
			"0.017": 0.0,
			"0.018": 0.0,
			"0.019": 0.0,
			"0.02": 0.0,
			"0.021": 0.0,
			"0.022": 0.0,
			"0.023": 0.0,
			"0.024": 0.0,
			"0.025": 0.0
		}
	}
}
