{
	 "smiles": "CC(N)=C(C#N)C(O)=O", 
	 "Tm": 593.15, 
	 "num_atms": 15, 
	 "gaussian": { 
		 "optdone": 1, 
		 "sigma_profile": "yes", 
		 "theory": "DFT", 
		 "functional": "B3LYP", 
		 "basiset": "6-31G**", 
		 "properties": { 
			 "R2extent": 2329.6416, 
			 "electric_dipole_moment_norm": 8.48811728713, 
			 "electric_quadrupole_moment_norm": 21.901987474, 
			 "total_energy": -454.080881621, 
			 "HOMO_LUMO_gap": 0.192, 
			 "cosmo_polarized_energy": -26.89, 
			 "cosmo_cavitation_energy": 20.32, 
			 "cosmo_dispersion_energy": -14.45, 
			 "cosmo_repulsion_energy": 1.21, 
			 "cosmo_total_nonelectrostatic_energy": 7.08, 
			 "SMD_solvation_energy": 6.12 
		},
		"coords": [
			{
				"x": 0.864229985,
				"y": -0.8875329634,
				"z": 1.8632361883,
				"element": "C" 
			},
			{
				"x": 1.1665313638,
				"y": 0.5812023175,
				"z": 1.6915206655,
				"element": "C" 
			},
			{
				"x": 0.5862039902,
				"y": 1.3830882577,
				"z": 2.6171977531,
				"element": "N" 
			},
			{
				"x": 1.9527987006,
				"y": 1.1131910464,
				"z": 0.683489425,
				"element": "C" 
			},
			{
				"x": 2.011448818,
				"y": 2.5360891634,
				"z": 0.5977151204,
				"element": "C" 
			},
			{
				"x": 2.0067669026,
				"y": 3.7011993804,
				"z": 0.6355154264,
				"element": "N" 
			},
			{
				"x": 2.639783613,
				"y": 0.3688721245,
				"z": -0.4074902296,
				"element": "C" 
			},
			{
				"x": 3.1346313755,
				"y": -0.8707385858,
				"z": -0.0966737783,
				"element": "O" 
			},
			{
				"x": 2.7811877723,
				"y": 0.8078266963,
				"z": -1.521982784,
				"element": "O" 
			},
			{
				"x": 1.4139237909,
				"y": -1.2983196127,
				"z": 2.7191213988,
				"element": "H" 
			},
			{
				"x": -0.2024179668,
				"y": -1.0192099277,
				"z": 2.0730770467,
				"element": "H" 
			},
			{
				"x": 1.1087135312,
				"y": -1.4664978767,
				"z": 0.9750363776,
				"element": "H" 
			},
			{
				"x": -0.1198099367,
				"y": 1.0190830318,
				"z": 3.2356213664,
				"element": "H" 
			},
			{
				"x": 0.6745663062,
				"y": 2.3875886976,
				"z": 2.5413046603,
				"element": "H" 
			},
			{
				"x": 3.2195417542,
				"y": -0.9546417494,
				"z": 0.8627113635,
				"element": "H" 
			}
		],
		 "valence_orbital": [ 
			{
				"type": "occ",
				"energy": -0.34474,
				"method": "rhf"
			},
			{
				"type": "occ",
				"energy": -0.33021,
				"method": "rhf"
			},
			{
				"type": "occ",
				"energy": -0.31874,
				"method": "rhf"
			},
			{
				"type": "occ",
				"energy": -0.27787,
				"method": "rhf"
			},
			{
				"type": "occ",
				"energy": -0.2427,
				"method": "rhf"
			},
			{
				"type": "unocc",
				"energy": -0.0507,
				"method": "rhf"
			},
			{
				"type": "unocc",
				"energy": 0.01614,
				"method": "rhf"
			},
			{
				"type": "unocc",
				"energy": 0.03107,
				"method": "rhf"
			},
			{
				"type": "unocc",
				"energy": 0.04161,
				"method": "rhf"
			},
			{
				"type": "unocc",
				"energy": 0.06335,
				"method": "rhf"
			}
		],
		"cosmo_sigma_profile": { 
			"-0.025": 0.0,
			"-0.024": 0.0,
			"-0.023": 0.0,
			"-0.022": 0.0,
			"-0.021": 0.0,
			"-0.02": 0.0,
			"-0.019": 0.181718818962,
			"-0.018": 0.531241019856,
			"-0.017": 0.975422436468,
			"-0.016": 1.68327346191,
			"-0.015": 2.72760768753,
			"-0.014": 2.95614932574,
			"-0.013": 3.09556242438,
			"-0.012": 3.57368564215,
			"-0.011": 3.47688520596,
			"-0.01": 3.1697012785,
			"-0.009": 3.14013513886,
			"-0.008": 4.86250300453,
			"-0.007": 6.19241205584,
			"-0.006": 6.96116110322,
			"-0.005": 7.96090075862,
			"-0.004": 9.17457809978,
			"-0.003": 10.3603830264,
			"-0.002": 6.67645923141,
			"-0.001": 6.67604298618,
			"0.0": 6.08630135284,
			"0.001": 4.22104418811,
			"0.002": 3.66209701575,
			"0.003": 4.58262693429,
			"0.004": 3.40345623425,
			"0.005": 4.58173766169,
			"0.006": 4.42877554379,
			"0.007": 4.69446763851,
			"0.008": 6.36705817872,
			"0.009": 6.67990894525,
			"0.01": 6.69729711068,
			"0.011": 8.62181582873,
			"0.012": 8.58853114252,
			"0.013": 4.51153718822,
			"0.014": 0.764976320401,
			"0.015": 0.0,
			"0.016": 0.0,
			"0.017": 0.0,
			"0.018": 0.0,
			"0.019": 0.0,
			"0.02": 0.0,
			"0.021": 0.0,
			"0.022": 0.0,
			"0.023": 0.0,
			"0.024": 0.0,
			"0.025": 0.0
		}
	}
}
