{
	 "smiles": "NNC(=S)NCC1=CC=CC=C1", 
	 "Tm": 402.65, 
	 "num_atms": 23, 
	 "gaussian": { 
		 "optdone": 1, 
		 "sigma_profile": "yes", 
		 "theory": "DFT", 
		 "functional": "B3LYP", 
		 "basiset": "6-31G**", 
		 "properties": { 
			 "R2extent": 3338.5454, 
			 "electric_dipole_moment_norm": 5.7782661145, 
			 "electric_quadrupole_moment_norm": 9.30275485596, 
			 "total_energy": -873.903002123, 
			 "HOMO_LUMO_gap": 0.18455, 
			 "cosmo_polarized_energy": -20.49, 
			 "cosmo_cavitation_energy": 28.72, 
			 "cosmo_dispersion_energy": -20.98, 
			 "cosmo_repulsion_energy": 1.66, 
			 "cosmo_total_nonelectrostatic_energy": 9.4, 
			 "SMD_solvation_energy": 4.07 
		},
		"coords": [
			{
				"x": -2.1273051716,
				"y": -2.8006450902,
				"z": -0.0777554048,
				"element": "N" 
			},
			{
				"x": -2.2899272678,
				"y": -1.8555840369,
				"z": -1.0965920944,
				"element": "N" 
			},
			{
				"x": -1.4516828592,
				"y": -0.8021888711,
				"z": -1.3646724092,
				"element": "C" 
			},
			{
				"x": -1.9315359396,
				"y": 0.4029277774,
				"z": -2.4364133143,
				"element": "S" 
			},
			{
				"x": -0.2627949712,
				"y": -0.8298572459,
				"z": -0.7144106398,
				"element": "N" 
			},
			{
				"x": 0.8196480034,
				"y": 0.1275882097,
				"z": -0.9325563882,
				"element": "C" 
			},
			{
				"x": 1.7616930157,
				"y": 0.1470700882,
				"z": 0.2519507355,
				"element": "C" 
			},
			{
				"x": 3.1109555704,
				"y": -0.1899658239,
				"z": 0.0985858124,
				"element": "C" 
			},
			{
				"x": 3.9825287345,
				"y": -0.1591518238,
				"z": 1.1900561862,
				"element": "C" 
			},
			{
				"x": 3.5100410334,
				"y": 0.2041857023,
				"z": 2.451082574,
				"element": "C" 
			},
			{
				"x": 2.1631825721,
				"y": 0.540257494,
				"z": 2.6158496594,
				"element": "C" 
			},
			{
				"x": 1.2967434781,
				"y": 0.5130120113,
				"z": 1.524255813,
				"element": "C" 
			},
			{
				"x": -1.9294639573,
				"y": -2.3595527119,
				"z": 0.8184460158,
				"element": "H" 
			},
			{
				"x": -1.3999606218,
				"y": -3.4724266476,
				"z": -0.3097477186,
				"element": "H" 
			},
			{
				"x": -3.2233880897,
				"y": -1.7722344081,
				"z": -1.4732155704,
				"element": "H" 
			},
			{
				"x": -0.0293018325,
				"y": -1.6615239023,
				"z": -0.1890525178,
				"element": "H" 
			},
			{
				"x": 0.3543448288,
				"y": 1.104492066,
				"z": -1.0944214951,
				"element": "H" 
			},
			{
				"x": 1.3667678097,
				"y": -0.1149189739,
				"z": -1.8528326664,
				"element": "H" 
			},
			{
				"x": 3.4824869606,
				"y": -0.4748741988,
				"z": -0.8826868521,
				"element": "H" 
			},
			{
				"x": 5.0278195985,
				"y": -0.4213061089,
				"z": 1.0537979635,
				"element": "H" 
			},
			{
				"x": 4.1857045034,
				"y": 0.2281382449,
				"z": 3.3011650333,
				"element": "H" 
			},
			{
				"x": 1.7906765358,
				"y": 0.8299248446,
				"z": 3.5943849292,
				"element": "H" 
			},
			{
				"x": 0.2512680663,
				"y": 0.7817334048,
				"z": 1.6523823486,
				"element": "H" 
			}
		],
		 "valence_orbital": [ 
			{
				"type": "occ",
				"energy": -0.27014,
				"method": "rhf"
			},
			{
				"type": "occ",
				"energy": -0.26121,
				"method": "rhf"
			},
			{
				"type": "occ",
				"energy": -0.25448,
				"method": "rhf"
			},
			{
				"type": "occ",
				"energy": -0.21074,
				"method": "rhf"
			},
			{
				"type": "occ",
				"energy": -0.20135,
				"method": "rhf"
			},
			{
				"type": "unocc",
				"energy": -0.0168,
				"method": "rhf"
			},
			{
				"type": "unocc",
				"energy": -0.01255,
				"method": "rhf"
			},
			{
				"type": "unocc",
				"energy": 0.0052,
				"method": "rhf"
			},
			{
				"type": "unocc",
				"energy": 0.04502,
				"method": "rhf"
			},
			{
				"type": "unocc",
				"energy": 0.08434,
				"method": "rhf"
			}
		],
		"cosmo_sigma_profile": { 
			"-0.025": 0.0,
			"-0.024": 0.0,
			"-0.023": 0.0,
			"-0.022": 0.0,
			"-0.021": 0.0,
			"-0.02": 0.0,
			"-0.019": 0.0,
			"-0.018": 0.0,
			"-0.017": 0.0,
			"-0.016": 0.0477635234371,
			"-0.015": 1.33566006663,
			"-0.014": 2.44301898378,
			"-0.013": 4.53946381383,
			"-0.012": 4.58772076792,
			"-0.011": 4.18229548487,
			"-0.01": 2.74386666185,
			"-0.009": 2.8175269887,
			"-0.008": 2.69762175102,
			"-0.007": 3.38905736021,
			"-0.006": 9.18924877843,
			"-0.005": 15.3066974677,
			"-0.004": 17.738320253,
			"-0.003": 18.5702399598,
			"-0.002": 13.1283140352,
			"-0.001": 12.1575497949,
			"0.0": 10.6144762085,
			"0.001": 11.7866883427,
			"0.002": 10.1923560663,
			"0.003": 11.2837580522,
			"0.004": 12.0184503437,
			"0.005": 12.7542887795,
			"0.006": 9.81055649621,
			"0.007": 5.05006941436,
			"0.008": 3.80199192317,
			"0.009": 4.76939360927,
			"0.01": 5.34032045322,
			"0.011": 7.60485890963,
			"0.012": 7.78422016944,
			"0.013": 1.49528836058,
			"0.014": 0.334497202336,
			"0.015": 0.472321174478,
			"0.016": 0.0187877941194,
			"0.017": 0.0,
			"0.018": 0.0,
			"0.019": 0.0,
			"0.02": 0.0,
			"0.021": 0.0,
			"0.022": 0.0,
			"0.023": 0.0,
			"0.024": 0.0,
			"0.025": 0.0
		}
	}
}
