{
	 "smiles": "NC1=CC(CS(=O)(=O)C2=C(F)C=C(F)C=C2)=CC=C1", 
	 "Tm": 371.15, 
	 "num_atms": 30, 
	 "gaussian": { 
		 "optdone": 1, 
		 "sigma_profile": "yes", 
		 "theory": "DFT", 
		 "functional": "B3LYP", 
		 "basiset": "6-31G**", 
		 "properties": { 
			 "R2extent": 5508.5339, 
			 "electric_dipole_moment_norm": 5.73817910926, 
			 "electric_quadrupole_moment_norm": 10.4306383606, 
			 "total_energy": -1305.00585722, 
			 "HOMO_LUMO_gap": 0.16921, 
			 "cosmo_polarized_energy": -18.95, 
			 "cosmo_cavitation_energy": 36.36, 
			 "cosmo_dispersion_energy": -24.99, 
			 "cosmo_repulsion_energy": 1.85, 
			 "cosmo_total_nonelectrostatic_energy": 13.23, 
			 "SMD_solvation_energy": 6.11 
		},
		"coords": [
			{
				"x": -0.618266744,
				"y": 2.3004610257,
				"z": 2.947292786,
				"element": "N" 
			},
			{
				"x": 0.2334340789,
				"y": 1.7659945842,
				"z": 1.9804211631,
				"element": "C" 
			},
			{
				"x": -0.2138465394,
				"y": 1.567585655,
				"z": 0.6636008534,
				"element": "C" 
			},
			{
				"x": 0.6518048662,
				"y": 1.0956238695,
				"z": -0.3283817955,
				"element": "C" 
			},
			{
				"x": 0.1343622327,
				"y": 0.903296087,
				"z": -1.7259229122,
				"element": "C" 
			},
			{
				"x": -0.1539077255,
				"y": -0.8433033359,
				"z": -2.2132614178,
				"element": "S" 
			},
			{
				"x": 1.1202140014,
				"y": -1.5752526492,
				"z": -2.1130724529,
				"element": "O" 
			},
			{
				"x": -0.8949463269,
				"y": -0.8174777337,
				"z": -3.4826552849,
				"element": "O" 
			},
			{
				"x": -1.2256861733,
				"y": -1.5284527395,
				"z": -0.932839562,
				"element": "C" 
			},
			{
				"x": -2.4769903643,
				"y": -0.9863620845,
				"z": -0.6394120845,
				"element": "C" 
			},
			{
				"x": -2.8674029663,
				"y": 0.1556149449,
				"z": -1.2396927615,
				"element": "F" 
			},
			{
				"x": -3.3318050838,
				"y": -1.570377494,
				"z": 0.2841628674,
				"element": "C" 
			},
			{
				"x": -2.8996902617,
				"y": -2.7358336757,
				"z": 0.9112296863,
				"element": "C" 
			},
			{
				"x": -3.714967361,
				"y": -3.3165828232,
				"z": 1.8064752534,
				"element": "F" 
			},
			{
				"x": -1.6589628911,
				"y": -3.3102276787,
				"z": 0.6518372068,
				"element": "C" 
			},
			{
				"x": -0.8230194143,
				"y": -2.6939457875,
				"z": -0.2766350837,
				"element": "C" 
			},
			{
				"x": 1.9850514338,
				"y": 0.8033740091,
				"z": -0.0112541968,
				"element": "C" 
			},
			{
				"x": 2.430670516,
				"y": 0.9939633903,
				"z": 1.2963995812,
				"element": "C" 
			},
			{
				"x": 1.5732897106,
				"y": 1.4706555225,
				"z": 2.2850669723,
				"element": "C" 
			},
			{
				"x": -0.3656977398,
				"y": 2.0993397338,
				"z": 3.9048321278,
				"element": "H" 
			},
			{
				"x": -1.6054784642,
				"y": 2.1655319029,
				"z": 2.7791387127,
				"element": "H" 
			},
			{
				"x": -1.247037318,
				"y": 1.7946003567,
				"z": 0.4102452803,
				"element": "H" 
			},
			{
				"x": -0.8188915385,
				"y": 1.4046255487,
				"z": -1.8985737483,
				"element": "H" 
			},
			{
				"x": 0.847300891,
				"y": 1.230749336,
				"z": -2.4892788893,
				"element": "H" 
			},
			{
				"x": -4.2994531416,
				"y": -1.1361069479,
				"z": 0.5037586915,
				"element": "H" 
			},
			{
				"x": -1.366345608,
				"y": -4.2161271302,
				"z": 1.1696861666,
				"element": "H" 
			},
			{
				"x": 0.1541496042,
				"y": -3.102213924,
				"z": -0.5100921438,
				"element": "H" 
			},
			{
				"x": 2.653028834,
				"y": 0.4189372423,
				"z": -0.7743510116,
				"element": "H" 
			},
			{
				"x": 3.4624361018,
				"y": 0.769436961,
				"z": 1.5514915041,
				"element": "H" 
			},
			{
				"x": 1.9385533909,
				"y": 1.6237738343,
				"z": 3.2975844918,
				"element": "H" 
			}
		],
		 "valence_orbital": [ 
			{
				"type": "occ",
				"energy": -0.29203,
				"method": "rhf"
			},
			{
				"type": "occ",
				"energy": -0.28181,
				"method": "rhf"
			},
			{
				"type": "occ",
				"energy": -0.27048,
				"method": "rhf"
			},
			{
				"type": "occ",
				"energy": -0.25052,
				"method": "rhf"
			},
			{
				"type": "occ",
				"energy": -0.21124,
				"method": "rhf"
			},
			{
				"type": "unocc",
				"energy": -0.04203,
				"method": "rhf"
			},
			{
				"type": "unocc",
				"energy": -0.03165,
				"method": "rhf"
			},
			{
				"type": "unocc",
				"energy": -0.01746,
				"method": "rhf"
			},
			{
				"type": "unocc",
				"energy": 0.00467,
				"method": "rhf"
			},
			{
				"type": "unocc",
				"energy": 0.04603,
				"method": "rhf"
			}
		],
		"cosmo_sigma_profile": { 
			"-0.025": 0.0,
			"-0.024": 0.0,
			"-0.023": 0.0,
			"-0.022": 0.0,
			"-0.021": 0.0,
			"-0.02": 0.0,
			"-0.019": 0.0,
			"-0.018": 0.0,
			"-0.017": 0.0,
			"-0.016": 0.0,
			"-0.015": 0.0,
			"-0.014": 0.0,
			"-0.013": 0.716891001438,
			"-0.012": 2.48047290363,
			"-0.011": 2.7049890602,
			"-0.01": 3.91636937555,
			"-0.009": 7.00875352695,
			"-0.008": 10.076136708,
			"-0.007": 11.7056390275,
			"-0.006": 13.3794943106,
			"-0.005": 15.7792597746,
			"-0.004": 15.490708557,
			"-0.003": 15.1227600063,
			"-0.002": 18.7942337484,
			"-0.001": 23.9807596598,
			"0.0": 20.8787999853,
			"0.001": 17.280393924,
			"0.002": 16.5013071709,
			"0.003": 21.7944610214,
			"0.004": 13.1010338547,
			"0.005": 12.3619707436,
			"0.006": 11.3967145743,
			"0.007": 3.87399533522,
			"0.008": 4.51737376655,
			"0.009": 5.10092760223,
			"0.01": 6.97183373028,
			"0.011": 9.24887834857,
			"0.012": 5.54123058829,
			"0.013": 0.636162181851,
			"0.014": 0.529492291757,
			"0.015": 0.0396078042375,
			"0.016": 0.0,
			"0.017": 0.0,
			"0.018": 0.0,
			"0.019": 0.0,
			"0.02": 0.0,
			"0.021": 0.0,
			"0.022": 0.0,
			"0.023": 0.0,
			"0.024": 0.0,
			"0.025": 0.0
		}
	}
}
