{
	 "smiles": "CC1=C(C=O)C2=C(N1)C(Cl)=CC=C2", 
	 "Tm": 503.15, 
	 "num_atms": 21, 
	 "gaussian": { 
		 "optdone": 1, 
		 "sigma_profile": "yes", 
		 "theory": "DFT", 
		 "functional": "B3LYP", 
		 "basiset": "6-31G**", 
		 "properties": { 
			 "R2extent": 3105.9236, 
			 "electric_dipole_moment_norm": 2.24984884159, 
			 "electric_quadrupole_moment_norm": 19.2381123344, 
			 "total_energy": -976.064871238, 
			 "HOMO_LUMO_gap": 0.1763, 
			 "cosmo_polarized_energy": -11.78, 
			 "cosmo_cavitation_energy": 27.14, 
			 "cosmo_dispersion_energy": -19.9, 
			 "cosmo_repulsion_energy": 1.55, 
			 "cosmo_total_nonelectrostatic_energy": 8.79, 
			 "SMD_solvation_energy": 4.91 
		},
		"coords": [
			{
				"x": 1.3853884232,
				"y": 1.6432600351,
				"z": -2.3381599946,
				"element": "C" 
			},
			{
				"x": 0.9879626851,
				"y": 0.7939435702,
				"z": -1.1777567525,
				"element": "C" 
			},
			{
				"x": 0.3163126886,
				"y": 1.1440113275,
				"z": -0.0070455657,
				"element": "C" 
			},
			{
				"x": -0.1463598096,
				"y": 2.4810607462,
				"z": 0.3139610136,
				"element": "C" 
			},
			{
				"x": -0.0021680073,
				"y": 3.4638477236,
				"z": -0.404082761,
				"element": "O" 
			},
			{
				"x": 0.1827041893,
				"y": -0.0588368948,
				"z": 0.7895786231,
				"element": "C" 
			},
			{
				"x": 0.794367977,
				"y": -1.0966492332,
				"z": 0.0416121979,
				"element": "C" 
			},
			{
				"x": 1.2668752325,
				"y": -0.5452263346,
				"z": -1.13541915,
				"element": "N" 
			},
			{
				"x": 0.8494809155,
				"y": -2.4074030182,
				"z": 0.5134404536,
				"element": "C" 
			},
			{
				"x": 1.622922217,
				"y": -3.6483232985,
				"z": -0.4639038897,
				"element": "Cl" 
			},
			{
				"x": 0.289160232,
				"y": -2.6996916428,
				"z": 1.7492523217,
				"element": "C" 
			},
			{
				"x": -0.3205666592,
				"y": -1.6763307654,
				"z": 2.4998123854,
				"element": "C" 
			},
			{
				"x": -0.381001459,
				"y": -0.3658051905,
				"z": 2.0385796663,
				"element": "C" 
			},
			{
				"x": 2.0347571867,
				"y": 2.4601697792,
				"z": -2.0109043881,
				"element": "H" 
			},
			{
				"x": 0.5070417048,
				"y": 2.1177657318,
				"z": -2.7847596171,
				"element": "H" 
			},
			{
				"x": 1.9039977985,
				"y": 1.0567746155,
				"z": -3.1024622575,
				"element": "H" 
			},
			{
				"x": -0.6630662224,
				"y": 2.5760022856,
				"z": 1.2942586016,
				"element": "H" 
			},
			{
				"x": 1.7479346324,
				"y": -1.0632049506,
				"z": -1.8558107342,
				"element": "H" 
			},
			{
				"x": 0.3252809759,
				"y": -3.7149730051,
				"z": 2.1276311198,
				"element": "H" 
			},
			{
				"x": -0.752516015,
				"y": -1.9272370022,
				"z": 3.4637695358,
				"element": "H" 
			},
			{
				"x": -0.8573086859,
				"y": 0.4030455213,
				"z": 2.6384091916,
				"element": "H" 
			}
		],
		 "valence_orbital": [ 
			{
				"type": "occ",
				"energy": -0.32691,
				"method": "rhf"
			},
			{
				"type": "occ",
				"energy": -0.27968,
				"method": "rhf"
			},
			{
				"type": "occ",
				"energy": -0.2425,
				"method": "rhf"
			},
			{
				"type": "occ",
				"energy": -0.24054,
				"method": "rhf"
			},
			{
				"type": "occ",
				"energy": -0.22034,
				"method": "rhf"
			},
			{
				"type": "unocc",
				"energy": -0.04404,
				"method": "rhf"
			},
			{
				"type": "unocc",
				"energy": -0.0171,
				"method": "rhf"
			},
			{
				"type": "unocc",
				"energy": 0.00792,
				"method": "rhf"
			},
			{
				"type": "unocc",
				"energy": 0.02106,
				"method": "rhf"
			},
			{
				"type": "unocc",
				"energy": 0.0698,
				"method": "rhf"
			}
		],
		"cosmo_sigma_profile": { 
			"-0.025": 0.0,
			"-0.024": 0.0,
			"-0.023": 0.0,
			"-0.022": 0.0,
			"-0.021": 0.0,
			"-0.02": 0.0,
			"-0.019": 0.0,
			"-0.018": 0.0,
			"-0.017": 0.0,
			"-0.016": 0.597971310434,
			"-0.015": 0.872024761005,
			"-0.014": 1.16350413678,
			"-0.013": 1.18632011611,
			"-0.012": 1.3936543855,
			"-0.011": 1.18942795592,
			"-0.01": 0.970812260172,
			"-0.009": 1.58636634155,
			"-0.008": 1.71623866067,
			"-0.007": 2.91216855084,
			"-0.006": 11.6864806453,
			"-0.005": 15.7039288879,
			"-0.004": 12.7542501746,
			"-0.003": 14.4804091909,
			"-0.002": 16.7217254996,
			"-0.001": 16.6918268967,
			"0.0": 15.0208498893,
			"0.001": 17.7716705129,
			"0.002": 18.642191712,
			"0.003": 18.0365601902,
			"0.004": 19.0643236115,
			"0.005": 10.7758482094,
			"0.006": 2.03598475575,
			"0.007": 1.35763041219,
			"0.008": 1.57788391428,
			"0.009": 2.07674187971,
			"0.01": 1.73743076709,
			"0.011": 1.88743170749,
			"0.012": 2.87132446635,
			"0.013": 3.25413165705,
			"0.014": 1.51878631886,
			"0.015": 0.259829946891,
			"0.016": 0.0,
			"0.017": 0.0,
			"0.018": 0.0,
			"0.019": 0.0,
			"0.02": 0.0,
			"0.021": 0.0,
			"0.022": 0.0,
			"0.023": 0.0,
			"0.024": 0.0,
			"0.025": 0.0
		}
	}
}
