{
	 "smiles": "COC(=O)C1=CC2=C(N1)C=CO2", 
	 "Tm": 413.15, 
	 "num_atms": 19, 
	 "gaussian": { 
		 "optdone": 1, 
		 "sigma_profile": "yes", 
		 "theory": "DFT", 
		 "functional": "B3LYP", 
		 "basiset": "6-31G**", 
		 "properties": { 
			 "R2extent": 2597.4211, 
			 "electric_dipole_moment_norm": 0.748300741681, 
			 "electric_quadrupole_moment_norm": 13.0889806471, 
			 "total_energy": -589.459689666, 
			 "HOMO_LUMO_gap": 0.16986, 
			 "cosmo_polarized_energy": -9.83, 
			 "cosmo_cavitation_energy": 24.11, 
			 "cosmo_dispersion_energy": -18.18, 
			 "cosmo_repulsion_energy": 1.44, 
			 "cosmo_total_nonelectrostatic_energy": 7.37, 
			 "SMD_solvation_energy": 6.39 
		},
		"coords": [
			{
				"x": -2.2988379336,
				"y": 0.6052403176,
				"z": 2.6131423582,
				"element": "C" 
			},
			{
				"x": -1.7903947623,
				"y": 0.5819178801,
				"z": 1.271622763,
				"element": "O" 
			},
			{
				"x": -0.6530688644,
				"y": -0.1299252706,
				"z": 1.1032214087,
				"element": "C" 
			},
			{
				"x": -0.0781318723,
				"y": -0.7205258206,
				"z": 2.0063827781,
				"element": "O" 
			},
			{
				"x": -0.1845957206,
				"y": -0.1186904437,
				"z": -0.2747447512,
				"element": "C" 
			},
			{
				"x": -0.683650513,
				"y": 0.4810851706,
				"z": -1.4348787385,
				"element": "C" 
			},
			{
				"x": 0.2304906898,
				"y": 0.1097256578,
				"z": -2.433790938,
				"element": "C" 
			},
			{
				"x": 1.2409506334,
				"y": -0.6831309948,
				"z": -1.8954849788,
				"element": "C" 
			},
			{
				"x": 0.9801333564,
				"y": -0.8206155523,
				"z": -0.56481696,
				"element": "N" 
			},
			{
				"x": 2.1273341418,
				"y": -1.0196154212,
				"z": -2.9653652979,
				"element": "C" 
			},
			{
				"x": 1.5818716082,
				"y": -0.4046306309,
				"z": -4.0591445538,
				"element": "C" 
			},
			{
				"x": 0.4292616559,
				"y": 0.2901003495,
				"z": -3.7725834414,
				"element": "O" 
			},
			{
				"x": -2.5311716767,
				"y": -0.4060488757,
				"z": 2.9571591077,
				"element": "H" 
			},
			{
				"x": -1.5699031982,
				"y": 1.0493132978,
				"z": 3.2961403624,
				"element": "H" 
			},
			{
				"x": -3.2034307078,
				"y": 1.2120072457,
				"z": 2.5732528386,
				"element": "H" 
			},
			{
				"x": -1.5751078335,
				"y": 1.0848752466,
				"z": -1.4986121351,
				"element": "H" 
			},
			{
				"x": 1.4906049137,
				"y": -1.3230997238,
				"z": 0.1455751636,
				"element": "H" 
			},
			{
				"x": 3.027125572,
				"y": -1.6165268592,
				"z": -2.9545859309,
				"element": "H" 
			},
			{
				"x": 1.8926205112,
				"y": -0.3694555728,
				"z": -5.0919890547,
				"element": "H" 
			}
		],
		 "valence_orbital": [ 
			{
				"type": "occ",
				"energy": -0.29773,
				"method": "rhf"
			},
			{
				"type": "occ",
				"energy": -0.28832,
				"method": "rhf"
			},
			{
				"type": "occ",
				"energy": -0.27438,
				"method": "rhf"
			},
			{
				"type": "occ",
				"energy": -0.24032,
				"method": "rhf"
			},
			{
				"type": "occ",
				"energy": -0.20526,
				"method": "rhf"
			},
			{
				"type": "unocc",
				"energy": -0.0354,
				"method": "rhf"
			},
			{
				"type": "unocc",
				"energy": 0.03372,
				"method": "rhf"
			},
			{
				"type": "unocc",
				"energy": 0.09128,
				"method": "rhf"
			},
			{
				"type": "unocc",
				"energy": 0.10275,
				"method": "rhf"
			},
			{
				"type": "unocc",
				"energy": 0.11545,
				"method": "rhf"
			}
		],
		"cosmo_sigma_profile": { 
			"-0.025": 0.0,
			"-0.024": 0.0,
			"-0.023": 0.0,
			"-0.022": 0.0,
			"-0.021": 0.0,
			"-0.02": 0.0,
			"-0.019": 0.0,
			"-0.018": 0.0,
			"-0.017": 0.0,
			"-0.016": 0.13475571757,
			"-0.015": 0.820662403902,
			"-0.014": 1.29405876538,
			"-0.013": 0.698559954735,
			"-0.012": 0.656724053294,
			"-0.011": 1.01617199788,
			"-0.01": 0.818210736952,
			"-0.009": 2.22687870897,
			"-0.008": 5.05062778485,
			"-0.007": 6.49109849768,
			"-0.006": 9.62210834542,
			"-0.005": 11.5450894015,
			"-0.004": 13.2510371608,
			"-0.003": 14.3018570496,
			"-0.002": 10.726825283,
			"-0.001": 9.47658103915,
			"0.0": 11.0030033223,
			"0.001": 11.6881751095,
			"0.002": 15.0450451274,
			"0.003": 22.4645002781,
			"0.004": 14.1179980198,
			"0.005": 6.67343347933,
			"0.006": 4.70156202248,
			"0.007": 4.48515400391,
			"0.008": 4.00168437666,
			"0.009": 2.23448749143,
			"0.01": 1.06587694538,
			"0.011": 2.48466175331,
			"0.012": 4.12447636441,
			"0.013": 1.40929352219,
			"0.014": 0.0,
			"0.015": 0.0,
			"0.016": 0.0,
			"0.017": 0.0,
			"0.018": 0.0,
			"0.019": 0.0,
			"0.02": 0.0,
			"0.021": 0.0,
			"0.022": 0.0,
			"0.023": 0.0,
			"0.024": 0.0,
			"0.025": 0.0
		}
	}
}
