{
	 "smiles": "CC1=CC=C(N)C=C1[N+]([O-])=O", 
	 "Tm": 349.65, 
	 "num_atms": 19, 
	 "gaussian": { 
		 "optdone": 1, 
		 "sigma_profile": "yes", 
		 "theory": "DFT", 
		 "functional": "B3LYP", 
		 "basiset": "6-31G**", 
		 "properties": { 
			 "R2extent": 1802.1769, 
			 "electric_dipole_moment_norm": 5.2597190058, 
			 "electric_quadrupole_moment_norm": 8.36098254752, 
			 "total_energy": -531.424060451, 
			 "HOMO_LUMO_gap": 0.13964, 
			 "cosmo_polarized_energy": -11.97, 
			 "cosmo_cavitation_energy": 23.15, 
			 "cosmo_dispersion_energy": -17.3, 
			 "cosmo_repulsion_energy": 1.39, 
			 "cosmo_total_nonelectrostatic_energy": 7.24, 
			 "SMD_solvation_energy": 6.06 
		},
		"coords": [
			{
				"x": 0.7954690776,
				"y": 0.4105246029,
				"z": 2.8044110224,
				"element": "C" 
			},
			{
				"x": -0.0847950625,
				"y": 0.3127822344,
				"z": 1.5820935315,
				"element": "C" 
			},
			{
				"x": -1.4252534221,
				"y": 0.7207575723,
				"z": 1.6763286013,
				"element": "C" 
			},
			{
				"x": -2.3150768428,
				"y": 0.6683486996,
				"z": 0.6110056685,
				"element": "C" 
			},
			{
				"x": -1.9023591041,
				"y": 0.184847054,
				"z": -0.6429920366,
				"element": "C" 
			},
			{
				"x": -2.7655046969,
				"y": 0.1794808937,
				"z": -1.7346118289,
				"element": "N" 
			},
			{
				"x": -0.5755029005,
				"y": -0.2374732224,
				"z": -0.7711801178,
				"element": "C" 
			},
			{
				"x": 0.2986454714,
				"y": -0.1677422799,
				"z": 0.3145028976,
				"element": "C" 
			},
			{
				"x": 1.6714620393,
				"y": -0.6424219852,
				"z": 0.0512758824,
				"element": "N" 
			},
			{
				"x": 2.5232751523,
				"y": -0.4887593563,
				"z": 0.9276345239,
				"element": "O" 
			},
			{
				"x": 1.9000961877,
				"y": -1.1691619607,
				"z": -1.0391301878,
				"element": "O" 
			},
			{
				"x": 1.626585619,
				"y": 1.1039299588,
				"z": 2.6516554498,
				"element": "H" 
			},
			{
				"x": 0.2001288235,
				"y": 0.7581353267,
				"z": 3.6534723267,
				"element": "H" 
			},
			{
				"x": 1.2467060906,
				"y": -0.5508600486,
				"z": 3.0629125393,
				"element": "H" 
			},
			{
				"x": -1.7796458182,
				"y": 1.0946352737,
				"z": 2.6327669761,
				"element": "H" 
			},
			{
				"x": -3.3390858608,
				"y": 1.0069326157,
				"z": 0.7470381343,
				"element": "H" 
			},
			{
				"x": -2.5186045323,
				"y": -0.4508645104,
				"z": -2.4844803062,
				"element": "H" 
			},
			{
				"x": -3.7508073645,
				"y": 0.148467496,
				"z": -1.5141118017,
				"element": "H" 
			},
			{
				"x": -0.1982328567,
				"y": -0.6236583643,
				"z": -1.7098912749,
				"element": "H" 
			}
		],
		 "valence_orbital": [ 
			{
				"type": "occ",
				"energy": -0.30015,
				"method": "rhf"
			},
			{
				"type": "occ",
				"energy": -0.2972,
				"method": "rhf"
			},
			{
				"type": "occ",
				"energy": -0.2799,
				"method": "rhf"
			},
			{
				"type": "occ",
				"energy": -0.2706,
				"method": "rhf"
			},
			{
				"type": "occ",
				"energy": -0.21865,
				"method": "rhf"
			},
			{
				"type": "unocc",
				"energy": -0.07901,
				"method": "rhf"
			},
			{
				"type": "unocc",
				"energy": -0.005,
				"method": "rhf"
			},
			{
				"type": "unocc",
				"energy": 0.01157,
				"method": "rhf"
			},
			{
				"type": "unocc",
				"energy": 0.06879,
				"method": "rhf"
			},
			{
				"type": "unocc",
				"energy": 0.09335,
				"method": "rhf"
			}
		],
		"cosmo_sigma_profile": { 
			"-0.025": 0.0,
			"-0.024": 0.0,
			"-0.023": 0.0,
			"-0.022": 0.0,
			"-0.021": 0.0,
			"-0.02": 0.0,
			"-0.019": 0.0,
			"-0.018": 0.0,
			"-0.017": 0.0,
			"-0.016": 0.0,
			"-0.015": 0.0,
			"-0.014": 0.042211454185,
			"-0.013": 1.77816892841,
			"-0.012": 2.94949623406,
			"-0.011": 3.64230610848,
			"-0.01": 2.93027504473,
			"-0.009": 3.04481647817,
			"-0.008": 3.67750564935,
			"-0.007": 4.22063352704,
			"-0.006": 6.71165950686,
			"-0.005": 8.97761597532,
			"-0.004": 9.46437645304,
			"-0.003": 11.5931494858,
			"-0.002": 11.9931161688,
			"-0.001": 13.2597580427,
			"0.0": 15.4794162664,
			"0.001": 12.9074587712,
			"0.002": 11.2758260432,
			"0.003": 13.803348352,
			"0.004": 9.58289272496,
			"0.005": 4.00697198247,
			"0.006": 4.73321040294,
			"0.007": 5.10083617755,
			"0.008": 9.1581603774,
			"0.009": 5.37994241216,
			"0.01": 4.55122463383,
			"0.011": 2.07449472499,
			"0.012": 0.702301059279,
			"0.013": 0.568886992741,
			"0.014": 0.184973024021,
			"0.015": 0.0,
			"0.016": 0.0,
			"0.017": 0.0,
			"0.018": 0.0,
			"0.019": 0.0,
			"0.02": 0.0,
			"0.021": 0.0,
			"0.022": 0.0,
			"0.023": 0.0,
			"0.024": 0.0,
			"0.025": 0.0
		}
	}
}
