{
	 "smiles": "CS(=O)(=O)C1=C(N)C=CC(Br)=C1", 
	 "Tm": 403.15, 
	 "num_atms": 20, 
	 "gaussian": { 
		 "optdone": 1, 
		 "sigma_profile": "yes", 
		 "theory": "DFT", 
		 "functional": "B3LYP", 
		 "basiset": "6-31G**", 
		 "properties": { 
			 "R2extent": 4219.0926, 
			 "electric_dipole_moment_norm": 5.02411699306, 
			 "electric_quadrupole_moment_norm": 10.9453936626, 
			 "total_energy": -3446.30119749, 
			 "HOMO_LUMO_gap": 0.18017, 
			 "cosmo_polarized_energy": -15.28, 
			 "cosmo_cavitation_energy": 27.13, 
			 "cosmo_dispersion_energy": -20.96, 
			 "cosmo_repulsion_energy": 1.62, 
			 "cosmo_total_nonelectrostatic_energy": 7.8, 
			 "SMD_solvation_energy": 3.28 
		},
		"coords": [
			{
				"x": 1.8419630869,
				"y": -1.5501591371,
				"z": -0.5831813307,
				"element": "C" 
			},
			{
				"x": 1.6070768683,
				"y": 0.2229338657,
				"z": -0.8341788899,
				"element": "S" 
			},
			{
				"x": 2.5621933135,
				"y": 0.9396464635,
				"z": 0.021246288,
				"element": "O" 
			},
			{
				"x": 1.5979705683,
				"y": 0.4558058339,
				"z": -2.2957427011,
				"element": "O" 
			},
			{
				"x": -0.0494083671,
				"y": 0.5186223032,
				"z": -0.2122995618,
				"element": "C" 
			},
			{
				"x": -1.1874825486,
				"y": 0.1205851611,
				"z": -0.954858947,
				"element": "C" 
			},
			{
				"x": -1.0831679042,
				"y": -0.5196252756,
				"z": -2.1758853864,
				"element": "N" 
			},
			{
				"x": -2.445605084,
				"y": 0.3536658979,
				"z": -0.3629038674,
				"element": "C" 
			},
			{
				"x": -2.5632417514,
				"y": 0.9612772811,
				"z": 0.879732337,
				"element": "C" 
			},
			{
				"x": -1.419938324,
				"y": 1.3634694291,
				"z": 1.5753049787,
				"element": "C" 
			},
			{
				"x": -1.5919305401,
				"y": 2.2145232947,
				"z": 3.2755162231,
				"element": "Br" 
			},
			{
				"x": -0.1614689254,
				"y": 1.1433769049,
				"z": 1.0327039663,
				"element": "C" 
			},
			{
				"x": 1.8398287828,
				"y": -1.758163384,
				"z": 0.4874088136,
				"element": "H" 
			},
			{
				"x": 2.8102426318,
				"y": -1.7997348925,
				"z": -1.0220017902,
				"element": "H" 
			},
			{
				"x": 1.0391747656,
				"y": -2.0846417344,
				"z": -1.0942406421,
				"element": "H" 
			},
			{
				"x": -1.9396574491,
				"y": -0.5748405864,
				"z": -2.7082677058,
				"element": "H" 
			},
			{
				"x": -0.265883282,
				"y": -0.2704616054,
				"z": -2.7247732109,
				"element": "H" 
			},
			{
				"x": -3.3424972897,
				"y": 0.0569911483,
				"z": -0.9002797696,
				"element": "H" 
			},
			{
				"x": -3.5450925275,
				"y": 1.1328114984,
				"z": 1.306747071,
				"element": "H" 
			},
			{
				"x": 0.7401239758,
				"y": 1.4496175336,
				"z": 1.5501541252,
				"element": "H" 
			}
		],
		 "valence_orbital": [ 
			{
				"type": "occ",
				"energy": -0.29906,
				"method": "rhf"
			},
			{
				"type": "occ",
				"energy": -0.29365,
				"method": "rhf"
			},
			{
				"type": "occ",
				"energy": -0.28968,
				"method": "rhf"
			},
			{
				"type": "occ",
				"energy": -0.28102,
				"method": "rhf"
			},
			{
				"type": "occ",
				"energy": -0.22421,
				"method": "rhf"
			},
			{
				"type": "unocc",
				"energy": -0.04404,
				"method": "rhf"
			},
			{
				"type": "unocc",
				"energy": -0.01598,
				"method": "rhf"
			},
			{
				"type": "unocc",
				"energy": 0.00011,
				"method": "rhf"
			},
			{
				"type": "unocc",
				"energy": 0.06295,
				"method": "rhf"
			},
			{
				"type": "unocc",
				"energy": 0.07235,
				"method": "rhf"
			}
		],
		"cosmo_sigma_profile": { 
			"-0.025": 0.0,
			"-0.024": 0.0,
			"-0.023": 0.0,
			"-0.022": 0.0,
			"-0.021": 0.0,
			"-0.02": 0.0,
			"-0.019": 0.0,
			"-0.018": 0.0,
			"-0.017": 0.0,
			"-0.016": 0.0,
			"-0.015": 0.0,
			"-0.014": 0.665777156664,
			"-0.013": 1.61592827143,
			"-0.012": 2.07022784321,
			"-0.011": 1.35202819399,
			"-0.01": 2.35455351054,
			"-0.009": 4.22099453991,
			"-0.008": 7.54654183062,
			"-0.007": 9.69014628452,
			"-0.006": 11.1364174826,
			"-0.005": 11.6277742646,
			"-0.004": 14.2439787633,
			"-0.003": 13.1325104381,
			"-0.002": 9.36281978058,
			"-0.001": 11.2119284914,
			"0.0": 14.0149863555,
			"0.001": 16.09431321,
			"0.002": 20.1739114316,
			"0.003": 15.7109305887,
			"0.004": 12.6227724972,
			"0.005": 9.26859741734,
			"0.006": 3.07990120089,
			"0.007": 2.48450514139,
			"0.008": 3.58419894181,
			"0.009": 3.99456141051,
			"0.01": 5.09210128963,
			"0.011": 7.57072765608,
			"0.012": 5.95895139861,
			"0.013": 0.126875903356,
			"0.014": 0.0,
			"0.015": 0.0,
			"0.016": 0.0,
			"0.017": 0.0,
			"0.018": 0.0,
			"0.019": 0.0,
			"0.02": 0.0,
			"0.021": 0.0,
			"0.022": 0.0,
			"0.023": 0.0,
			"0.024": 0.0,
			"0.025": 0.0
		}
	}
}
