{
	 "smiles": "FC1=CC=CC(NN=C2/C(=O)N(N=C2C(F)(F)F)C2=CC=CC=C2)=C1", 
	 "Tm": 379.15, 
	 "num_atms": 35, 
	 "gaussian": { 
		 "optdone": 1, 
		 "sigma_profile": "yes", 
		 "theory": "DFT", 
		 "functional": "B3LYP", 
		 "basiset": "6-31G**", 
		 "properties": { 
			 "R2extent": 12296.9162, 
			 "electric_dipole_moment_norm": 1.98655232249, 
			 "electric_quadrupole_moment_norm": 18.9598051994, 
			 "total_energy": -1309.27165558, 
			 "HOMO_LUMO_gap": 0.11702, 
			 "cosmo_polarized_energy": -10.02, 
			 "cosmo_cavitation_energy": 43.35, 
			 "cosmo_dispersion_energy": -30.37, 
			 "cosmo_repulsion_energy": 2.18, 
			 "cosmo_total_nonelectrostatic_energy": 15.16, 
			 "SMD_solvation_energy": 8.2 
		},
		"coords": [
			{
				"x": -0.6991306417,
				"y": -1.4000139321,
				"z": -6.2539887048,
				"element": "F" 
			},
			{
				"x": -0.6379192613,
				"y": -2.1305734782,
				"z": -5.1245184401,
				"element": "C" 
			},
			{
				"x": -0.7158851217,
				"y": -3.5161455561,
				"z": -5.2085190503,
				"element": "C" 
			},
			{
				"x": -0.6500569147,
				"y": -4.2527604196,
				"z": -4.0227588182,
				"element": "C" 
			},
			{
				"x": -0.5104328137,
				"y": -3.6259231988,
				"z": -2.7874716631,
				"element": "C" 
			},
			{
				"x": -0.4351228502,
				"y": -2.2268944152,
				"z": -2.7413264744,
				"element": "C" 
			},
			{
				"x": -0.2942171657,
				"y": -1.5357237798,
				"z": -1.5278480689,
				"element": "N" 
			},
			{
				"x": -0.2270411709,
				"y": -2.1667287331,
				"z": -0.3844003568,
				"element": "N" 
			},
			{
				"x": -0.0951864499,
				"y": -1.4369395997,
				"z": 0.7007359345,
				"element": "C" 
			},
			{
				"x": -0.0125847987,
				"y": 0.027115453,
				"z": 0.7862762326,
				"element": "C" 
			},
			{
				"x": -0.053237257,
				"y": 0.8329942592,
				"z": -0.1554452343,
				"element": "O" 
			},
			{
				"x": 0.1188236378,
				"y": 0.2762269962,
				"z": 2.1475066352,
				"element": "N" 
			},
			{
				"x": 0.1233528657,
				"y": -0.8957673846,
				"z": 2.8904850802,
				"element": "N" 
			},
			{
				"x": 0.0000545529,
				"y": -1.8911517239,
				"z": 2.0619399128,
				"element": "C" 
			},
			{
				"x": -0.0306873731,
				"y": -3.310285348,
				"z": 2.5479648942,
				"element": "C" 
			},
			{
				"x": -1.185624354,
				"y": -3.9104812326,
				"z": 2.1884268166,
				"element": "F" 
			},
			{
				"x": 0.975982835,
				"y": -4.0225074701,
				"z": 1.9977700374,
				"element": "F" 
			},
			{
				"x": 0.0829513427,
				"y": -3.3849208055,
				"z": 3.8806394911,
				"element": "F" 
			},
			{
				"x": 0.2422757312,
				"y": 1.5217684529,
				"z": 2.8263574354,
				"element": "C" 
			},
			{
				"x": 0.2409965344,
				"y": 2.7264474959,
				"z": 2.10924454,
				"element": "C" 
			},
			{
				"x": 0.3637262502,
				"y": 3.930157158,
				"z": 2.803347907,
				"element": "C" 
			},
			{
				"x": 0.4867932611,
				"y": 3.9486268482,
				"z": 4.192728702,
				"element": "C" 
			},
			{
				"x": 0.4865603429,
				"y": 2.7416843469,
				"z": 4.8944816126,
				"element": "C" 
			},
			{
				"x": 0.3652289528,
				"y": 1.5277319096,
				"z": 4.2222680297,
				"element": "C" 
			},
			{
				"x": -0.4984930425,
				"y": -1.4641334393,
				"z": -3.9146381342,
				"element": "C" 
			},
			{
				"x": -0.8244963873,
				"y": -3.9915252503,
				"z": -6.1765117517,
				"element": "H" 
			},
			{
				"x": -0.7089090473,
				"y": -5.3358344143,
				"z": -4.0646714677,
				"element": "H" 
			},
			{
				"x": -0.4591829341,
				"y": -4.1944565308,
				"z": -1.8675815473,
				"element": "H" 
			},
			{
				"x": -0.2403194026,
				"y": -0.5083187245,
				"z": -1.5142808896,
				"element": "H" 
			},
			{
				"x": 0.1457401311,
				"y": 2.7144236617,
				"z": 1.0323213492,
				"element": "H" 
			},
			{
				"x": 0.3623026537,
				"y": 4.8612343516,
				"z": 2.2440667878,
				"element": "H" 
			},
			{
				"x": 0.5817341471,
				"y": 4.8913972005,
				"z": 4.7228272232,
				"element": "H" 
			},
			{
				"x": 0.5815102237,
				"y": 2.7392176248,
				"z": 5.9764273527,
				"element": "H" 
			},
			{
				"x": 0.3644823776,
				"y": 0.5893974856,
				"z": 4.7615631486,
				"element": "H" 
			},
			{
				"x": -0.4417888534,
				"y": -0.3807378074,
				"z": -3.8976185211,
				"element": "H" 
			}
		],
		 "valence_orbital": [ 
			{
				"type": "occ",
				"energy": -0.27135,
				"method": "rhf"
			},
			{
				"type": "occ",
				"energy": -0.26753,
				"method": "rhf"
			},
			{
				"type": "occ",
				"energy": -0.25447,
				"method": "rhf"
			},
			{
				"type": "occ",
				"energy": -0.23758,
				"method": "rhf"
			},
			{
				"type": "occ",
				"energy": -0.22547,
				"method": "rhf"
			},
			{
				"type": "unocc",
				"energy": -0.10845,
				"method": "rhf"
			},
			{
				"type": "unocc",
				"energy": -0.02707,
				"method": "rhf"
			},
			{
				"type": "unocc",
				"energy": -0.02384,
				"method": "rhf"
			},
			{
				"type": "unocc",
				"energy": -0.00571,
				"method": "rhf"
			},
			{
				"type": "unocc",
				"energy": -0.00268,
				"method": "rhf"
			}
		],
		"cosmo_sigma_profile": { 
			"-0.025": 0.0,
			"-0.024": 0.0,
			"-0.023": 0.0,
			"-0.022": 0.0,
			"-0.021": 0.0,
			"-0.02": 0.0,
			"-0.019": 0.0,
			"-0.018": 0.0,
			"-0.017": 0.0,
			"-0.016": 0.0,
			"-0.015": 0.0,
			"-0.014": 0.124825321256,
			"-0.013": 0.621136937259,
			"-0.012": 1.11023460124,
			"-0.011": 1.37593088864,
			"-0.01": 1.25278544779,
			"-0.009": 1.82945359004,
			"-0.008": 2.71744012411,
			"-0.007": 6.82956702724,
			"-0.006": 15.2879283906,
			"-0.005": 20.2852757689,
			"-0.004": 21.3385235732,
			"-0.003": 21.4311733647,
			"-0.002": 21.7980259538,
			"-0.001": 23.6409790033,
			"0.0": 28.8279974738,
			"0.001": 34.2384821044,
			"0.002": 53.7116778877,
			"0.003": 38.9319737334,
			"0.004": 28.3011099303,
			"0.005": 13.3700583701,
			"0.006": 3.34328420363,
			"0.007": 3.21584315507,
			"0.008": 3.04872677452,
			"0.009": 1.96514890128,
			"0.01": 2.11724672375,
			"0.011": 0.244462198016,
			"0.012": 0.0,
			"0.013": 0.0,
			"0.014": 0.0,
			"0.015": 0.0,
			"0.016": 0.0,
			"0.017": 0.0,
			"0.018": 0.0,
			"0.019": 0.0,
			"0.02": 0.0,
			"0.021": 0.0,
			"0.022": 0.0,
			"0.023": 0.0,
			"0.024": 0.0,
			"0.025": 0.0
		}
	}
}
