{
	 "smiles": "NC1=CC(=CC=C1)C(=O)N1CCSCC1", 
	 "Tm": 388.15, 
	 "num_atms": 29, 
	 "gaussian": { 
		 "optdone": 1, 
		 "sigma_profile": "yes", 
		 "theory": "DFT", 
		 "functional": "B3LYP", 
		 "basiset": "6-31G**", 
		 "properties": { 
			 "R2extent": 5169.4924, 
			 "electric_dipole_moment_norm": 4.29434049186, 
			 "electric_quadrupole_moment_norm": 17.5188945313, 
			 "total_energy": -1010.53882511, 
			 "HOMO_LUMO_gap": 0.18455, 
			 "cosmo_polarized_energy": -17.5, 
			 "cosmo_cavitation_energy": 32.65, 
			 "cosmo_dispersion_energy": -23.95, 
			 "cosmo_repulsion_energy": 1.83, 
			 "cosmo_total_nonelectrostatic_energy": 10.53, 
			 "SMD_solvation_energy": 4.82 
		},
		"coords": [
			{
				"x": 4.3461209829,
				"y": -0.1322511185,
				"z": -2.0716545187,
				"element": "N" 
			},
			{
				"x": 3.06715873,
				"y": 0.3623240783,
				"z": -1.814741085,
				"element": "C" 
			},
			{
				"x": 2.2808461342,
				"y": -0.1859740739,
				"z": -0.7872002782,
				"element": "C" 
			},
			{
				"x": 1.0297695885,
				"y": 0.3567689389,
				"z": -0.4741452805,
				"element": "C" 
			},
			{
				"x": 0.5519669553,
				"y": 1.4685300399,
				"z": -1.1791231917,
				"element": "C" 
			},
			{
				"x": 1.3191105096,
				"y": 1.9999600885,
				"z": -2.2144370066,
				"element": "C" 
			},
			{
				"x": 2.5616334853,
				"y": 1.4580249469,
				"z": -2.5357469039,
				"element": "C" 
			},
			{
				"x": 0.2134095541,
				"y": -0.1392527466,
				"z": 0.6909187945,
				"element": "C" 
			},
			{
				"x": -0.243182467,
				"y": 0.665671022,
				"z": 1.4984695593,
				"element": "O" 
			},
			{
				"x": 0.0363953653,
				"y": -1.504654844,
				"z": 0.843091243,
				"element": "N" 
			},
			{
				"x": -0.6750710813,
				"y": -1.9698319257,
				"z": 2.0364234542,
				"element": "C" 
			},
			{
				"x": 0.045229111,
				"y": -3.1491464586,
				"z": 2.6906349927,
				"element": "C" 
			},
			{
				"x": 0.1908299288,
				"y": -4.602157324,
				"z": 1.5747418236,
				"element": "S" 
			},
			{
				"x": 0.9094244924,
				"y": -3.7192963604,
				"z": 0.1353340978,
				"element": "C" 
			},
			{
				"x": 0.1034401026,
				"y": -2.475988733,
				"z": -0.2499426545,
				"element": "C" 
			},
			{
				"x": 4.7088679769,
				"y": 0.0608799734,
				"z": -2.9946560507,
				"element": "H" 
			},
			{
				"x": 4.5093710506,
				"y": -1.0888635252,
				"z": -1.7907172418,
				"element": "H" 
			},
			{
				"x": 2.6686537005,
				"y": -1.0204338298,
				"z": -0.2082545239,
				"element": "H" 
			},
			{
				"x": -0.4014977918,
				"y": 1.9043006447,
				"z": -0.9032127293,
				"element": "H" 
			},
			{
				"x": 0.9500200992,
				"y": 2.8525658795,
				"z": -2.7775087786,
				"element": "H" 
			},
			{
				"x": 3.1557734708,
				"y": 1.8908516038,
				"z": -3.3369260915,
				"element": "H" 
			},
			{
				"x": -1.6998856965,
				"y": -2.2633352294,
				"z": 1.7681527837,
				"element": "H" 
			},
			{
				"x": -0.7331622765,
				"y": -1.1249429711,
				"z": 2.7243686813,
				"element": "H" 
			},
			{
				"x": -0.5158984009,
				"y": -3.497664723,
				"z": 3.5621632569,
				"element": "H" 
			},
			{
				"x": 1.0429013709,
				"y": -2.8461364832,
				"z": 3.0244342601,
				"element": "H" 
			},
			{
				"x": 0.9092564633,
				"y": -4.4379335913,
				"z": -0.689234128,
				"element": "H" 
			},
			{
				"x": 1.9478762882,
				"y": -3.4481842011,
				"z": 0.3548471622,
				"element": "H" 
			},
			{
				"x": 0.5521590269,
				"y": -2.000384953,
				"z": -1.122381692,
				"element": "H" 
			},
			{
				"x": -0.9175166733,
				"y": -2.7829441245,
				"z": -0.5209979547,
				"element": "H" 
			}
		],
		 "valence_orbital": [ 
			{
				"type": "occ",
				"energy": -0.26012,
				"method": "rhf"
			},
			{
				"type": "occ",
				"energy": -0.24801,
				"method": "rhf"
			},
			{
				"type": "occ",
				"energy": -0.24022,
				"method": "rhf"
			},
			{
				"type": "occ",
				"energy": -0.22405,
				"method": "rhf"
			},
			{
				"type": "occ",
				"energy": -0.2085,
				"method": "rhf"
			},
			{
				"type": "unocc",
				"energy": -0.02395,
				"method": "rhf"
			},
			{
				"type": "unocc",
				"energy": 0.00743,
				"method": "rhf"
			},
			{
				"type": "unocc",
				"energy": 0.03146,
				"method": "rhf"
			},
			{
				"type": "unocc",
				"energy": 0.0469,
				"method": "rhf"
			},
			{
				"type": "unocc",
				"energy": 0.06684,
				"method": "rhf"
			}
		],
		"cosmo_sigma_profile": { 
			"-0.025": 0.0,
			"-0.024": 0.0,
			"-0.023": 0.0,
			"-0.022": 0.0,
			"-0.021": 0.0,
			"-0.02": 0.0,
			"-0.019": 0.0,
			"-0.018": 0.0,
			"-0.017": 0.0,
			"-0.016": 0.0,
			"-0.015": 0.0,
			"-0.014": 0.0,
			"-0.013": 0.550601649697,
			"-0.012": 2.43348542696,
			"-0.011": 2.92960141331,
			"-0.01": 3.48201402906,
			"-0.009": 3.08807139987,
			"-0.008": 2.98436955789,
			"-0.007": 4.66292913208,
			"-0.006": 11.6532083608,
			"-0.005": 20.1697413343,
			"-0.004": 28.9561101558,
			"-0.003": 27.6727833933,
			"-0.002": 20.5564674706,
			"-0.001": 14.6950247092,
			"0.0": 11.6028207342,
			"0.001": 11.6193020811,
			"0.002": 9.05778762408,
			"0.003": 10.9774371269,
			"0.004": 11.3469970461,
			"0.005": 14.1402098321,
			"0.006": 11.7178758255,
			"0.007": 5.66602629845,
			"0.008": 4.99371940418,
			"0.009": 4.12281066763,
			"0.01": 4.62347867422,
			"0.011": 3.76109783518,
			"0.012": 2.76969556569,
			"0.013": 4.4432444368,
			"0.014": 3.87766867291,
			"0.015": 0.788599359278,
			"0.016": 0.0,
			"0.017": 0.0,
			"0.018": 0.0,
			"0.019": 0.0,
			"0.02": 0.0,
			"0.021": 0.0,
			"0.022": 0.0,
			"0.023": 0.0,
			"0.024": 0.0,
			"0.025": 0.0
		}
	}
}
