{
	 "smiles": "CC1=CC=NC2=C1C=CC=C2", 
	 "Tm": 282.9, 
	 "num_atms": 20, 
	 "gaussian": { 
		 "optdone": 1, 
		 "sigma_profile": "yes", 
		 "theory": "DFT", 
		 "functional": "B3LYP", 
		 "basiset": "6-31G**", 
		 "properties": { 
			 "R2extent": 1876.2934, 
			 "electric_dipole_moment_norm": 2.44827945096, 
			 "electric_quadrupole_moment_norm": 9.81430598005, 
			 "total_energy": -441.253320517, 
			 "HOMO_LUMO_gap": 0.17894, 
			 "cosmo_polarized_energy": -7.02, 
			 "cosmo_cavitation_energy": 23.17, 
			 "cosmo_dispersion_energy": -17.43, 
			 "cosmo_repulsion_energy": 1.37, 
			 "cosmo_total_nonelectrostatic_energy": 7.11, 
			 "SMD_solvation_energy": 2.38 
		},
		"coords": [
			{
				"x": -1.5921512276,
				"y": 0.248450671,
				"z": -1.865762332,
				"element": "C" 
			},
			{
				"x": -1.6444502549,
				"y": 0.1710886243,
				"z": -0.36147914,
				"element": "C" 
			},
			{
				"x": -2.8425953202,
				"y": 0.0276493225,
				"z": 0.3060440219,
				"element": "C" 
			},
			{
				"x": -2.8650325654,
				"y": -0.0426987137,
				"z": 1.7202456798,
				"element": "C" 
			},
			{
				"x": -1.7942244964,
				"y": 0.0198451264,
				"z": 2.4830435915,
				"element": "N" 
			},
			{
				"x": -0.5886322552,
				"y": 0.1620736169,
				"z": 1.8551581172,
				"element": "C" 
			},
			{
				"x": -0.4543164505,
				"y": 0.2433649681,
				"z": 0.4305242702,
				"element": "C" 
			},
			{
				"x": 0.8463993525,
				"y": 0.3908208492,
				"z": -0.122183758,
				"element": "C" 
			},
			{
				"x": 1.9568217174,
				"y": 0.4545514501,
				"z": 0.6914413289,
				"element": "C" 
			},
			{
				"x": 1.8208811478,
				"y": 0.3739349107,
				"z": 2.0981179667,
				"element": "C" 
			},
			{
				"x": 0.5752953116,
				"y": 0.2308978585,
				"z": 2.666180451,
				"element": "C" 
			},
			{
				"x": -2.5942115613,
				"y": 0.1760355683,
				"z": -2.2951976785,
				"element": "H" 
			},
			{
				"x": -1.1475836862,
				"y": 1.191962981,
				"z": -2.2027525935,
				"element": "H" 
			},
			{
				"x": -0.9847455059,
				"y": -0.5608035203,
				"z": -2.287165268,
				"element": "H" 
			},
			{
				"x": -3.776844945,
				"y": -0.0324803397,
				"z": -0.2453128216,
				"element": "H" 
			},
			{
				"x": -3.820470953,
				"y": -0.1561089182,
				"z": 2.2325341662,
				"element": "H" 
			},
			{
				"x": 0.9647308817,
				"y": 0.4538859314,
				"z": -1.1992120802,
				"element": "H" 
			},
			{
				"x": 2.9440298021,
				"y": 0.5673809849,
				"z": 0.2526568935,
				"element": "H" 
			},
			{
				"x": 2.7050337769,
				"y": 0.4255819397,
				"z": 2.7270166444,
				"element": "H" 
			},
			{
				"x": 0.4373672315,
				"y": 0.1661666888,
				"z": 3.7406025405,
				"element": "H" 
			}
		],
		 "valence_orbital": [ 
			{
				"type": "occ",
				"energy": -0.3378,
				"method": "rhf"
			},
			{
				"type": "occ",
				"energy": -0.29091,
				"method": "rhf"
			},
			{
				"type": "occ",
				"energy": -0.24901,
				"method": "rhf"
			},
			{
				"type": "occ",
				"energy": -0.24733,
				"method": "rhf"
			},
			{
				"type": "occ",
				"energy": -0.22754,
				"method": "rhf"
			},
			{
				"type": "unocc",
				"energy": -0.0486,
				"method": "rhf"
			},
			{
				"type": "unocc",
				"energy": -0.01211,
				"method": "rhf"
			},
			{
				"type": "unocc",
				"energy": 0.02608,
				"method": "rhf"
			},
			{
				"type": "unocc",
				"energy": 0.09106,
				"method": "rhf"
			},
			{
				"type": "unocc",
				"energy": 0.09152,
				"method": "rhf"
			}
		],
		"cosmo_sigma_profile": { 
			"-0.025": 0.0,
			"-0.024": 0.0,
			"-0.023": 0.0,
			"-0.022": 0.0,
			"-0.021": 0.0,
			"-0.02": 0.0,
			"-0.019": 0.0,
			"-0.018": 0.0,
			"-0.017": 0.0,
			"-0.016": 0.0,
			"-0.015": 0.0,
			"-0.014": 0.0,
			"-0.013": 0.0,
			"-0.012": 0.0,
			"-0.011": 0.0,
			"-0.01": 0.0,
			"-0.009": 0.0,
			"-0.008": 0.0,
			"-0.007": 0.3955318408,
			"-0.006": 9.71155348789,
			"-0.005": 19.7571590211,
			"-0.004": 18.294261811,
			"-0.003": 15.8337408992,
			"-0.002": 13.2594102621,
			"-0.001": 15.2902963247,
			"0.0": 12.7980259134,
			"0.001": 12.0462766392,
			"0.002": 16.8018133748,
			"0.003": 17.0027454366,
			"0.004": 13.9659220799,
			"0.005": 7.68570099747,
			"0.006": 1.83010599043,
			"0.007": 1.29692477138,
			"0.008": 1.7963871646,
			"0.009": 1.17688092399,
			"0.01": 0.756067998767,
			"0.011": 0.860626671772,
			"0.012": 1.27613118265,
			"0.013": 0.972938246975,
			"0.014": 0.76865203785,
			"0.015": 0.906490356958,
			"0.016": 0.635657618542,
			"0.017": 0.330075187917,
			"0.018": 0.0,
			"0.019": 0.0,
			"0.02": 0.0,
			"0.021": 0.0,
			"0.022": 0.0,
			"0.023": 0.0,
			"0.024": 0.0,
			"0.025": 0.0
		}
	}
}
