{
	 "smiles": "C[C@H]1CC11C(OC(C)=O)C(=O)C2=C([C@H](OC(C)=O)[C@@H](OC(C)=O)C3C(=C)[C@H](C)CC[C@]23C)C1=O", 
	 "Tm": 446.15, 
	 "num_atms": 66, 
	 "gaussian": { 
		 "optdone": 1, 
		 "sigma_profile": "yes", 
		 "theory": "DFT", 
		 "functional": "B3LYP", 
		 "basiset": "6-31G**", 
		 "properties": { 
			 "R2extent": 13959.1343, 
			 "electric_dipole_moment_norm": 1.66021637746, 
			 "electric_quadrupole_moment_norm": 26.2447005531, 
			 "total_energy": -1611.83235901, 
			 "HOMO_LUMO_gap": 0.15139, 
			 "cosmo_polarized_energy": -20.55, 
			 "cosmo_cavitation_energy": 64.32, 
			 "cosmo_dispersion_energy": -38.49, 
			 "cosmo_repulsion_energy": 2.93, 
			 "cosmo_total_nonelectrostatic_energy": 28.76, 
			 "SMD_solvation_energy": 14.97 
		},
		"coords": [
			{
				"x": 0.1628956331,
				"y": 3.4850848911,
				"z": 3.732633638,
				"element": "C" 
			},
			{
				"x": 0.1133222142,
				"y": 2.026695538,
				"z": 4.132385995,
				"element": "C" 
			},
			{
				"x": -1.1622747321,
				"y": 1.3267565563,
				"z": 4.457754716,
				"element": "C" 
			},
			{
				"x": -0.4218124426,
				"y": 0.9134863278,
				"z": 3.1948978232,
				"element": "C" 
			},
			{
				"x": 0.3487398165,
				"y": -0.3834388653,
				"z": 3.17241928,
				"element": "C" 
			},
			{
				"x": -0.5385931438,
				"y": -1.5222646254,
				"z": 2.9877777956,
				"element": "O" 
			},
			{
				"x": -0.8933618876,
				"y": -2.2167539777,
				"z": 4.1031720416,
				"element": "C" 
			},
			{
				"x": -1.7642727152,
				"y": -3.3922295389,
				"z": 3.7346225688,
				"element": "C" 
			},
			{
				"x": -0.5462987332,
				"y": -1.9196325833,
				"z": 5.2243979126,
				"element": "O" 
			},
			{
				"x": 1.2825523463,
				"y": -0.4058420694,
				"z": 1.9647768314,
				"element": "C" 
			},
			{
				"x": 2.4730620526,
				"y": -0.6295246774,
				"z": 2.0992823256,
				"element": "O" 
			},
			{
				"x": 0.6341869561,
				"y": -0.1345529418,
				"z": 0.6370848462,
				"element": "C" 
			},
			{
				"x": -0.4640497532,
				"y": 0.6625635418,
				"z": 0.6300876167,
				"element": "C" 
			},
			{
				"x": -1.1683404314,
				"y": 1.091479611,
				"z": -0.6312991265,
				"element": "C" 
			},
			{
				"x": -2.5545191778,
				"y": 0.6886613025,
				"z": -0.4928162621,
				"element": "O" 
			},
			{
				"x": -3.4834305784,
				"y": 1.5802499474,
				"z": -0.9439696668,
				"element": "C" 
			},
			{
				"x": -4.8725328987,
				"y": 1.1244053273,
				"z": -0.5766008967,
				"element": "C" 
			},
			{
				"x": -3.2046451925,
				"y": 2.5913190058,
				"z": -1.5447631303,
				"element": "O" 
			},
			{
				"x": -0.5747846196,
				"y": 0.5458308057,
				"z": -1.9390088183,
				"element": "C" 
			},
			{
				"x": 0.2157909478,
				"y": 1.6452297919,
				"z": -2.4729108987,
				"element": "O" 
			},
			{
				"x": 0.253346537,
				"y": 1.769798594,
				"z": -3.8258975318,
				"element": "C" 
			},
			{
				"x": 1.022397761,
				"y": 3.0056047016,
				"z": -4.2241894258,
				"element": "C" 
			},
			{
				"x": -0.270677678,
				"y": 0.9877483374,
				"z": -4.5871546692,
				"element": "O" 
			},
			{
				"x": 0.3048127069,
				"y": -0.7122351134,
				"z": -1.8277858803,
				"element": "C" 
			},
			{
				"x": -0.4352964713,
				"y": -2.0444286857,
				"z": -1.8857457188,
				"element": "C" 
			},
			{
				"x": -1.7225326501,
				"y": -2.2184178043,
				"z": -1.5733012828,
				"element": "C" 
			},
			{
				"x": 0.4939578292,
				"y": -3.1743088174,
				"z": -2.3217240666,
				"element": "C" 
			},
			{
				"x": -0.0535338386,
				"y": -4.5832714761,
				"z": -2.0680890398,
				"element": "C" 
			},
			{
				"x": 1.8880957996,
				"y": -2.9690342608,
				"z": -1.6517922744,
				"element": "C" 
			},
			{
				"x": 1.7734589299,
				"y": -2.1671415028,
				"z": -0.351451502,
				"element": "C" 
			},
			{
				"x": 1.3046389589,
				"y": -0.6970826185,
				"z": -0.6135024337,
				"element": "C" 
			},
			{
				"x": 2.5388844333,
				"y": 0.1858409386,
				"z": -0.9405292021,
				"element": "C" 
			},
			{
				"x": -0.9992524858,
				"y": 1.3142889238,
				"z": 1.8763278654,
				"element": "C" 
			},
			{
				"x": -1.8530558802,
				"y": 2.1897084121,
				"z": 1.7839836951,
				"element": "O" 
			},
			{
				"x": 0.1840932153,
				"y": 4.1087778802,
				"z": 4.6330794693,
				"element": "H" 
			},
			{
				"x": 1.0654294291,
				"y": 3.7073899898,
				"z": 3.1530171031,
				"element": "H" 
			},
			{
				"x": -0.7083930972,
				"y": 3.7700540681,
				"z": 3.1406207556,
				"element": "H" 
			},
			{
				"x": 0.9828007559,
				"y": 1.6945774846,
				"z": 4.6978042909,
				"element": "H" 
			},
			{
				"x": -2.0852550035,
				"y": 1.8709663519,
				"z": 4.2813910316,
				"element": "H" 
			},
			{
				"x": -1.1779715572,
				"y": 0.602640478,
				"z": 5.2652910935,
				"element": "H" 
			},
			{
				"x": 0.9291795257,
				"y": -0.5324443316,
				"z": 4.0829235978,
				"element": "H" 
			},
			{
				"x": -1.2106287606,
				"y": -4.0757277155,
				"z": 3.0840693235,
				"element": "H" 
			},
			{
				"x": -2.0746209428,
				"y": -3.9110216942,
				"z": 4.640847713,
				"element": "H" 
			},
			{
				"x": -2.6399771228,
				"y": -3.0494257152,
				"z": 3.1763806651,
				"element": "H" 
			},
			{
				"x": -1.1597326603,
				"y": 2.1815565857,
				"z": -0.699485255,
				"element": "H" 
			},
			{
				"x": -5.0239190336,
				"y": 0.0782959689,
				"z": -0.8554161649,
				"element": "H" 
			},
			{
				"x": -5.6059271258,
				"y": 1.7586971716,
				"z": -1.0733666844,
				"element": "H" 
			},
			{
				"x": -4.995264501,
				"y": 1.1998489118,
				"z": 0.5084482436,
				"element": "H" 
			},
			{
				"x": -1.3831341029,
				"y": 0.350201558,
				"z": -2.6448694585,
				"element": "H" 
			},
			{
				"x": 1.1067382234,
				"y": 3.0450798464,
				"z": -5.3096706338,
				"element": "H" 
			},
			{
				"x": 0.5004529181,
				"y": 3.895910887,
				"z": -3.8604929412,
				"element": "H" 
			},
			{
				"x": 2.0165953365,
				"y": 2.99952556,
				"z": -3.7684978955,
				"element": "H" 
			},
			{
				"x": 0.92683666,
				"y": -0.6884215378,
				"z": -2.7305219015,
				"element": "H" 
			},
			{
				"x": -2.3583737896,
				"y": -1.4007131142,
				"z": -1.2583052056,
				"element": "H" 
			},
			{
				"x": -2.1870728511,
				"y": -3.1976906458,
				"z": -1.6184981866,
				"element": "H" 
			},
			{
				"x": 0.6297772848,
				"y": -3.0652574463,
				"z": -3.4087001808,
				"element": "H" 
			},
			{
				"x": -0.9991759141,
				"y": -4.7543264713,
				"z": -2.590849131,
				"element": "H" 
			},
			{
				"x": -0.2223593144,
				"y": -4.7599293882,
				"z": -0.9997260012,
				"element": "H" 
			},
			{
				"x": 0.658899289,
				"y": -5.3335997153,
				"z": -2.4256283103,
				"element": "H" 
			},
			{
				"x": 2.3450089757,
				"y": -3.9426838566,
				"z": -1.44356317,
				"element": "H" 
			},
			{
				"x": 2.5724551602,
				"y": -2.4598233097,
				"z": -2.3404874334,
				"element": "H" 
			},
			{
				"x": 2.7248773659,
				"y": -2.1525167358,
				"z": 0.1836507095,
				"element": "H" 
			},
			{
				"x": 1.0500419024,
				"y": -2.6671452754,
				"z": 0.3049138684,
				"element": "H" 
			},
			{
				"x": 3.0709327568,
				"y": -0.2256287972,
				"z": -1.8055767136,
				"element": "H" 
			},
			{
				"x": 3.2248293681,
				"y": 0.2050789311,
				"z": -0.0917891247,
				"element": "H" 
			},
			{
				"x": 2.2408799978,
				"y": 1.207561081,
				"z": -1.1837665975,
				"element": "H" 
			}
		],
		 "valence_orbital": [ 
			{
				"type": "occ",
				"energy": -0.27449,
				"method": "rhf"
			},
			{
				"type": "occ",
				"energy": -0.26954,
				"method": "rhf"
			},
			{
				"type": "occ",
				"energy": -0.26523,
				"method": "rhf"
			},
			{
				"type": "occ",
				"energy": -0.25658,
				"method": "rhf"
			},
			{
				"type": "occ",
				"energy": -0.2447,
				"method": "rhf"
			},
			{
				"type": "unocc",
				"energy": -0.09331,
				"method": "rhf"
			},
			{
				"type": "unocc",
				"energy": -0.03096,
				"method": "rhf"
			},
			{
				"type": "unocc",
				"energy": -0.00143,
				"method": "rhf"
			},
			{
				"type": "unocc",
				"energy": 0.00876,
				"method": "rhf"
			},
			{
				"type": "unocc",
				"energy": 0.01061,
				"method": "rhf"
			}
		],
		"cosmo_sigma_profile": { 
			"-0.025": 0.0,
			"-0.024": 0.0,
			"-0.023": 0.0,
			"-0.022": 0.0,
			"-0.021": 0.0,
			"-0.02": 0.0,
			"-0.019": 0.0,
			"-0.018": 0.0,
			"-0.017": 0.0,
			"-0.016": 0.0,
			"-0.015": 0.0,
			"-0.014": 0.0,
			"-0.013": 0.0,
			"-0.012": 0.0,
			"-0.011": 0.0,
			"-0.01": 0.0,
			"-0.009": 0.162799209956,
			"-0.008": 1.33524227276,
			"-0.007": 6.3853746029,
			"-0.006": 20.185270671,
			"-0.005": 29.670569469,
			"-0.004": 43.0781195902,
			"-0.003": 55.5772492203,
			"-0.002": 67.0023051533,
			"-0.001": 59.1401836408,
			"0.0": 52.2448178361,
			"0.001": 33.2692978221,
			"0.002": 23.1244804078,
			"0.003": 19.6776238159,
			"0.004": 14.6554248211,
			"0.005": 14.3240220635,
			"0.006": 9.95838625104,
			"0.007": 7.53028523586,
			"0.008": 6.89431416877,
			"0.009": 8.68132557061,
			"0.01": 10.6089660498,
			"0.011": 12.2643316991,
			"0.012": 7.66976801824,
			"0.013": 0.999213532767,
			"0.014": 0.0,
			"0.015": 0.0,
			"0.016": 0.0,
			"0.017": 0.0,
			"0.018": 0.0,
			"0.019": 0.0,
			"0.02": 0.0,
			"0.021": 0.0,
			"0.022": 0.0,
			"0.023": 0.0,
			"0.024": 0.0,
			"0.025": 0.0
		}
	}
}
