{
	 "smiles": "[O-][N+](=O)C1=CC2=C(C=CN2)C=C1", 
	 "Tm": 416.15, 
	 "num_atms": 18, 
	 "gaussian": { 
		 "optdone": 1, 
		 "sigma_profile": "yes", 
		 "theory": "DFT", 
		 "functional": "B3LYP", 
		 "basiset": "6-31G**", 
		 "properties": { 
			 "R2extent": 3089.4065, 
			 "electric_dipole_moment_norm": 6.39341138751, 
			 "electric_quadrupole_moment_norm": 21.6496352828, 
			 "total_energy": -568.322682421, 
			 "HOMO_LUMO_gap": 0.1505, 
			 "cosmo_polarized_energy": -13.71, 
			 "cosmo_cavitation_energy": 22.97, 
			 "cosmo_dispersion_energy": -17.33, 
			 "cosmo_repulsion_energy": 1.36, 
			 "cosmo_total_nonelectrostatic_energy": 7.0, 
			 "SMD_solvation_energy": 6.2 
		},
		"coords": [
			{
				"x": -0.877013083,
				"y": 4.3623719871,
				"z": -2.2440528835,
				"element": "O" 
			},
			{
				"x": -0.8095416791,
				"y": 3.2031771982,
				"z": -2.6612270253,
				"element": "N" 
			},
			{
				"x": -0.811776027,
				"y": 2.8945121853,
				"z": -3.8541577526,
				"element": "O" 
			},
			{
				"x": -0.721801672,
				"y": 2.124203312,
				"z": -1.6743269522,
				"element": "C" 
			},
			{
				"x": -0.7196617356,
				"y": 2.4685938376,
				"z": -0.3269557393,
				"element": "C" 
			},
			{
				"x": -0.6350223921,
				"y": 1.4127791881,
				"z": 0.5758994366,
				"element": "C" 
			},
			{
				"x": -0.5542590947,
				"y": 0.0487955959,
				"z": 0.1615159296,
				"element": "C" 
			},
			{
				"x": -0.4814463042,
				"y": -0.7429430575,
				"z": 1.3520585359,
				"element": "C" 
			},
			{
				"x": -0.5183567516,
				"y": 0.1252428858,
				"z": 2.4148796341,
				"element": "C" 
			},
			{
				"x": -0.6106152688,
				"y": 1.4220979605,
				"z": 1.9558252015,
				"element": "N" 
			},
			{
				"x": -0.5603421815,
				"y": -0.2428415657,
				"z": -1.2166718131,
				"element": "C" 
			},
			{
				"x": -0.6439609129,
				"y": 0.7933893674,
				"z": -2.1308238244,
				"element": "C" 
			},
			{
				"x": -0.7815260195,
				"y": 3.5085771186,
				"z": -0.0314973664,
				"element": "H" 
			},
			{
				"x": -0.4106623536,
				"y": -1.8191160639,
				"z": 1.4147009029,
				"element": "H" 
			},
			{
				"x": -0.4859665661,
				"y": -0.0782142129,
				"z": 3.4757923565,
				"element": "H" 
			},
			{
				"x": -0.6534375013,
				"y": 2.2448388538,
				"z": 2.5351798629,
				"element": "H" 
			},
			{
				"x": -0.5000935103,
				"y": -1.2704521829,
				"z": -1.5616475356,
				"element": "H" 
			},
			{
				"x": -0.6515169468,
				"y": 0.6116875925,
				"z": -3.1975909677,
				"element": "H" 
			}
		],
		 "valence_orbital": [ 
			{
				"type": "occ",
				"energy": -0.29599,
				"method": "rhf"
			},
			{
				"type": "occ",
				"energy": -0.29565,
				"method": "rhf"
			},
			{
				"type": "occ",
				"energy": -0.2778,
				"method": "rhf"
			},
			{
				"type": "occ",
				"energy": -0.24673,
				"method": "rhf"
			},
			{
				"type": "occ",
				"energy": -0.22812,
				"method": "rhf"
			},
			{
				"type": "unocc",
				"energy": -0.07762,
				"method": "rhf"
			},
			{
				"type": "unocc",
				"energy": -0.01939,
				"method": "rhf"
			},
			{
				"type": "unocc",
				"energy": 0.01952,
				"method": "rhf"
			},
			{
				"type": "unocc",
				"energy": 0.05503,
				"method": "rhf"
			},
			{
				"type": "unocc",
				"energy": 0.06257,
				"method": "rhf"
			}
		],
		"cosmo_sigma_profile": { 
			"-0.025": 0.0,
			"-0.024": 0.0,
			"-0.023": 0.0,
			"-0.022": 0.0,
			"-0.021": 0.0,
			"-0.02": 0.0,
			"-0.019": 0.0,
			"-0.018": 0.0,
			"-0.017": 0.355676920485,
			"-0.016": 1.6683608693,
			"-0.015": 1.66260681157,
			"-0.014": 1.73287101973,
			"-0.013": 1.05222930699,
			"-0.012": 0.990631788735,
			"-0.011": 1.62192718377,
			"-0.01": 1.57429114779,
			"-0.009": 4.01686867792,
			"-0.008": 2.91237152738,
			"-0.007": 5.51667315001,
			"-0.006": 7.65200162421,
			"-0.005": 9.06917948002,
			"-0.004": 11.5717559856,
			"-0.003": 8.13574172885,
			"-0.002": 8.4046034057,
			"-0.001": 10.7699002705,
			"0.0": 10.8251334928,
			"0.001": 12.1816927529,
			"0.002": 18.6804726401,
			"0.003": 15.8536858429,
			"0.004": 13.1289623697,
			"0.005": 5.37783806194,
			"0.006": 3.60308322811,
			"0.007": 4.41488687764,
			"0.008": 9.61054853848,
			"0.009": 6.12925669552,
			"0.01": 4.43906838057,
			"0.011": 2.04096748864,
			"0.012": 0.0,
			"0.013": 0.0,
			"0.014": 0.0,
			"0.015": 0.0,
			"0.016": 0.0,
			"0.017": 0.0,
			"0.018": 0.0,
			"0.019": 0.0,
			"0.02": 0.0,
			"0.021": 0.0,
			"0.022": 0.0,
			"0.023": 0.0,
			"0.024": 0.0,
			"0.025": 0.0
		}
	}
}
