{
	 "smiles": "OC(=O)C1=C(O)C=CC(O)=C1", 
	 "Tm": 479.15, 
	 "num_atms": 17, 
	 "gaussian": { 
		 "optdone": 1, 
		 "sigma_profile": "yes", 
		 "theory": "DFT", 
		 "functional": "B3LYP", 
		 "basiset": "6-31G**", 
		 "properties": { 
			 "R2extent": 1960.2418, 
			 "electric_dipole_moment_norm": 7.7628488205, 
			 "electric_quadrupole_moment_norm": 15.4693262316, 
			 "total_energy": -571.257990875, 
			 "HOMO_LUMO_gap": 0.17806, 
			 "cosmo_polarized_energy": -22.19, 
			 "cosmo_cavitation_energy": 21.64, 
			 "cosmo_dispersion_energy": -16.57, 
			 "cosmo_repulsion_energy": 1.32, 
			 "cosmo_total_nonelectrostatic_energy": 6.4, 
			 "SMD_solvation_energy": 5.57 
		},
		"coords": [
			{
				"x": -0.9238509303,
				"y": 3.0296334275,
				"z": 1.0608065656,
				"element": "O" 
			},
			{
				"x": -0.1234408533,
				"y": 2.6889531468,
				"z": 0.0328197637,
				"element": "C" 
			},
			{
				"x": 0.3483342078,
				"y": 3.5415711298,
				"z": -0.686751191,
				"element": "O" 
			},
			{
				"x": 0.1607809154,
				"y": 1.2214453912,
				"z": -0.186988785,
				"element": "C" 
			},
			{
				"x": -0.3439281918,
				"y": 0.1665264795,
				"z": 0.5983839086,
				"element": "C" 
			},
			{
				"x": -1.1685852326,
				"y": 0.4729724887,
				"z": 1.6626564778,
				"element": "O" 
			},
			{
				"x": -0.0124570364,
				"y": -1.1532004104,
				"z": 0.2995778628,
				"element": "C" 
			},
			{
				"x": 0.8215952235,
				"y": -1.4447108471,
				"z": -0.7788923107,
				"element": "C" 
			},
			{
				"x": 1.3307228098,
				"y": -0.4085777282,
				"z": -1.5681101839,
				"element": "C" 
			},
			{
				"x": 2.1524525054,
				"y": -0.6222582373,
				"z": -2.6386284315,
				"element": "O" 
			},
			{
				"x": 0.9957905098,
				"y": 0.9107824961,
				"z": -1.2646359543,
				"element": "C" 
			},
			{
				"x": -1.2207286573,
				"y": 2.2360087791,
				"z": 1.5412270328,
				"element": "H" 
			},
			{
				"x": -1.446868735,
				"y": -0.3300057337,
				"z": 2.1196812091,
				"element": "H" 
			},
			{
				"x": -0.4062954236,
				"y": -1.9621252636,
				"z": 0.9108745219,
				"element": "H" 
			},
			{
				"x": 1.0716390492,
				"y": -2.4797541692,
				"z": -1.0000545741,
				"element": "H" 
			},
			{
				"x": 2.3069459638,
				"y": -1.569811802,
				"z": -2.7421428378,
				"element": "H" 
			},
			{
				"x": 1.3815938757,
				"y": 1.7256508528,
				"z": -1.8659230742,
				"element": "H" 
			}
		],
		 "valence_orbital": [ 
			{
				"type": "occ",
				"energy": -0.32991,
				"method": "rhf"
			},
			{
				"type": "occ",
				"energy": -0.29946,
				"method": "rhf"
			},
			{
				"type": "occ",
				"energy": -0.26962,
				"method": "rhf"
			},
			{
				"type": "occ",
				"energy": -0.26225,
				"method": "rhf"
			},
			{
				"type": "occ",
				"energy": -0.22572,
				"method": "rhf"
			},
			{
				"type": "unocc",
				"energy": -0.04766,
				"method": "rhf"
			},
			{
				"type": "unocc",
				"energy": -0.00075,
				"method": "rhf"
			},
			{
				"type": "unocc",
				"energy": 0.03879,
				"method": "rhf"
			},
			{
				"type": "unocc",
				"energy": 0.0589,
				"method": "rhf"
			},
			{
				"type": "unocc",
				"energy": 0.06368,
				"method": "rhf"
			}
		],
		"cosmo_sigma_profile": { 
			"-0.025": 0.0,
			"-0.024": 0.0,
			"-0.023": 0.0,
			"-0.022": 0.0,
			"-0.021": 0.0,
			"-0.02": 0.048243737199,
			"-0.019": 1.11861973868,
			"-0.018": 1.84409434417,
			"-0.017": 2.08316142172,
			"-0.016": 2.74702934331,
			"-0.015": 1.91584372069,
			"-0.014": 2.25871943092,
			"-0.013": 1.72597876655,
			"-0.012": 1.9198427629,
			"-0.011": 2.1189204303,
			"-0.01": 2.09119806967,
			"-0.009": 2.84022223246,
			"-0.008": 4.43096436844,
			"-0.007": 5.21552929488,
			"-0.006": 5.24363804153,
			"-0.005": 6.11044473316,
			"-0.004": 7.00328105681,
			"-0.003": 6.13859457426,
			"-0.002": 7.3330381435,
			"-0.001": 8.67939713553,
			"0.0": 8.80588225445,
			"0.001": 10.778881251,
			"0.002": 15.0335206939,
			"0.003": 17.4548058249,
			"0.004": 6.26944333134,
			"0.005": 4.09295622826,
			"0.006": 3.52513787225,
			"0.007": 3.24538289704,
			"0.008": 4.07055648723,
			"0.009": 4.58253223775,
			"0.01": 5.17197213474,
			"0.011": 7.08403741626,
			"0.012": 6.44477974428,
			"0.013": 2.75643428125,
			"0.014": 0.739819673689,
			"0.015": 0.0,
			"0.016": 0.0,
			"0.017": 0.0,
			"0.018": 0.0,
			"0.019": 0.0,
			"0.02": 0.0,
			"0.021": 0.0,
			"0.022": 0.0,
			"0.023": 0.0,
			"0.024": 0.0,
			"0.025": 0.0
		}
	}
}
