{
	 "smiles": "CC(=O)CCCC(O)=O", 
	 "Tm": 285.95, 
	 "num_atms": 19, 
	 "gaussian": { 
		 "optdone": 1, 
		 "sigma_profile": "yes", 
		 "theory": "DFT", 
		 "functional": "B3LYP", 
		 "basiset": "6-31G**", 
		 "properties": { 
			 "R2extent": 2171.3292, 
			 "electric_dipole_moment_norm": 1.9622624748, 
			 "electric_quadrupole_moment_norm": 21.5468968708, 
			 "total_energy": -460.353136309, 
			 "HOMO_LUMO_gap": 0.23117, 
			 "cosmo_polarized_energy": -15.84, 
			 "cosmo_cavitation_energy": 22.68, 
			 "cosmo_dispersion_energy": -16.25, 
			 "cosmo_repulsion_energy": 1.38, 
			 "cosmo_total_nonelectrostatic_energy": 7.81, 
			 "SMD_solvation_energy": 5.61 
		},
		"coords": [
			{
				"x": 0.1008441789,
				"y": -1.3792127004,
				"z": 4.0682547831,
				"element": "C" 
			},
			{
				"x": 0.154434952,
				"y": -1.0345941642,
				"z": 2.589975425,
				"element": "C" 
			},
			{
				"x": -0.2707910266,
				"y": -1.8030546126,
				"z": 1.7437701346,
				"element": "O" 
			},
			{
				"x": 0.7638377927,
				"y": 0.3134808254,
				"z": 2.2299894283,
				"element": "C" 
			},
			{
				"x": 0.8351955173,
				"y": 0.6077741091,
				"z": 0.7275699645,
				"element": "C" 
			},
			{
				"x": -0.5282278766,
				"y": 0.7826686934,
				"z": 0.0483827696,
				"element": "C" 
			},
			{
				"x": -1.2983251533,
				"y": 2.0079285722,
				"z": 0.5193061048,
				"element": "C" 
			},
			{
				"x": -2.543527595,
				"y": 2.1480320866,
				"z": -0.0121969891,
				"element": "O" 
			},
			{
				"x": -0.8845182194,
				"y": 2.8336599897,
				"z": 1.2971486297,
				"element": "O" 
			},
			{
				"x": -0.4806612562,
				"y": -0.6270980978,
				"z": 4.6138772877,
				"element": "H" 
			},
			{
				"x": -0.3524327599,
				"y": -2.3622574621,
				"z": 4.2024745763,
				"element": "H" 
			},
			{
				"x": 1.1079951991,
				"y": -1.3757596672,
				"z": 4.5007277822,
				"element": "H" 
			},
			{
				"x": 1.771792406,
				"y": 0.3458638977,
				"z": 2.6669738707,
				"element": "H" 
			},
			{
				"x": 0.2050973814,
				"y": 1.104314676,
				"z": 2.7459537696,
				"element": "H" 
			},
			{
				"x": 1.423302824,
				"y": 1.5187401891,
				"z": 0.5798240474,
				"element": "H" 
			},
			{
				"x": 1.3617180084,
				"y": -0.2101894747,
				"z": 0.2256032441,
				"element": "H" 
			},
			{
				"x": -1.138582938,
				"y": -0.1143706094,
				"z": 0.2042697422,
				"element": "H" 
			},
			{
				"x": -0.3928314549,
				"y": 0.8789893517,
				"z": -1.038100356,
				"element": "H" 
			},
			{
				"x": -2.7364199799,
				"y": 1.4066843974,
				"z": -0.6040042147,
				"element": "H" 
			}
		],
		 "valence_orbital": [ 
			{
				"type": "occ",
				"energy": -0.35186,
				"method": "rhf"
			},
			{
				"type": "occ",
				"energy": -0.34227,
				"method": "rhf"
			},
			{
				"type": "occ",
				"energy": -0.3148,
				"method": "rhf"
			},
			{
				"type": "occ",
				"energy": -0.272,
				"method": "rhf"
			},
			{
				"type": "occ",
				"energy": -0.24903,
				"method": "rhf"
			},
			{
				"type": "unocc",
				"energy": -0.01786,
				"method": "rhf"
			},
			{
				"type": "unocc",
				"energy": 0.0114,
				"method": "rhf"
			},
			{
				"type": "unocc",
				"energy": 0.05795,
				"method": "rhf"
			},
			{
				"type": "unocc",
				"energy": 0.08572,
				"method": "rhf"
			},
			{
				"type": "unocc",
				"energy": 0.11128,
				"method": "rhf"
			}
		],
		"cosmo_sigma_profile": { 
			"-0.025": 0.0,
			"-0.024": 0.0,
			"-0.023": 0.0,
			"-0.022": 0.0,
			"-0.021": 0.0,
			"-0.02": 0.0,
			"-0.019": 0.289631013012,
			"-0.018": 1.16972554845,
			"-0.017": 1.22003291362,
			"-0.016": 0.832737760113,
			"-0.015": 1.11935353781,
			"-0.014": 1.07412190889,
			"-0.013": 0.844864404483,
			"-0.012": 1.26681229877,
			"-0.011": 1.12232117124,
			"-0.01": 1.05212179424,
			"-0.009": 1.20142551269,
			"-0.008": 1.48612905621,
			"-0.007": 3.75882293749,
			"-0.006": 11.4079995854,
			"-0.005": 13.8910974381,
			"-0.004": 13.5746576199,
			"-0.003": 17.6453118301,
			"-0.002": 17.4091279232,
			"-0.001": 14.270171674,
			"0.0": 9.71127028264,
			"0.001": 4.65945373027,
			"0.002": 3.96315068135,
			"0.003": 3.97084323617,
			"0.004": 3.8031938909,
			"0.005": 3.58173820983,
			"0.006": 3.89360850557,
			"0.007": 3.92339825707,
			"0.008": 4.77984550769,
			"0.009": 4.67371226784,
			"0.01": 4.94891331553,
			"0.011": 8.63266873196,
			"0.012": 8.20923674673,
			"0.013": 3.54022295984,
			"0.014": 0.406121620814,
			"0.015": 0.0,
			"0.016": 0.0,
			"0.017": 0.0,
			"0.018": 0.0,
			"0.019": 0.0,
			"0.02": 0.0,
			"0.021": 0.0,
			"0.022": 0.0,
			"0.023": 0.0,
			"0.024": 0.0,
			"0.025": 0.0
		}
	}
}
