{
	 "smiles": "CC(=NNC(N)=S)C1=CC=CC=C1", 
	 "Tm": 388.15, 
	 "num_atms": 24, 
	 "gaussian": { 
		 "optdone": 1, 
		 "sigma_profile": "yes", 
		 "theory": "DFT", 
		 "functional": "B3LYP", 
		 "basiset": "6-31G**", 
		 "properties": { 
			 "R2extent": 4563.2662, 
			 "electric_dipole_moment_norm": 5.48226662887, 
			 "electric_quadrupole_moment_norm": 25.2557082314, 
			 "total_energy": -912.024456614, 
			 "HOMO_LUMO_gap": 0.15051, 
			 "cosmo_polarized_energy": -17.16, 
			 "cosmo_cavitation_energy": 29.87, 
			 "cosmo_dispersion_energy": -22.24, 
			 "cosmo_repulsion_energy": 1.73, 
			 "cosmo_total_nonelectrostatic_energy": 9.37, 
			 "SMD_solvation_energy": 3.95 
		},
		"coords": [
			{
				"x": 0.1424896482,
				"y": 1.0420012396,
				"z": -2.6342701775,
				"element": "C" 
			},
			{
				"x": 0.257302711,
				"y": -0.0671702913,
				"z": -1.6124646489,
				"element": "C" 
			},
			{
				"x": -0.7695915001,
				"y": -0.5504870666,
				"z": -0.9889781545,
				"element": "N" 
			},
			{
				"x": -2.0003018357,
				"y": -0.0430172959,
				"z": -1.2541209444,
				"element": "N" 
			},
			{
				"x": -3.1246017678,
				"y": -0.5469384417,
				"z": -0.642039368,
				"element": "C" 
			},
			{
				"x": -2.8984759565,
				"y": -1.5525954299,
				"z": 0.2224657526,
				"element": "N" 
			},
			{
				"x": -4.6332856363,
				"y": 0.0980255049,
				"z": -0.9944540957,
				"element": "S" 
			},
			{
				"x": 1.577451542,
				"y": -0.649353161,
				"z": -1.271201261,
				"element": "C" 
			},
			{
				"x": 2.649518501,
				"y": -0.6131042357,
				"z": -2.1789854862,
				"element": "C" 
			},
			{
				"x": 3.8804168214,
				"y": -1.1845592848,
				"z": -1.8552057876,
				"element": "C" 
			},
			{
				"x": 4.0675607443,
				"y": -1.7964829572,
				"z": -0.6160977405,
				"element": "C" 
			},
			{
				"x": 3.0102568328,
				"y": -1.8364804987,
				"z": 0.2978849405,
				"element": "C" 
			},
			{
				"x": 1.7808806413,
				"y": -1.2712666513,
				"z": -0.0248910806,
				"element": "C" 
			},
			{
				"x": -0.4008846179,
				"y": 0.7129098711,
				"z": -3.5293923745,
				"element": "H" 
			},
			{
				"x": -0.402545449,
				"y": 1.8965506348,
				"z": -2.2135883988,
				"element": "H" 
			},
			{
				"x": 1.1188135807,
				"y": 1.4099868422,
				"z": -2.9458251791,
				"element": "H" 
			},
			{
				"x": -2.1630935126,
				"y": 0.7007061872,
				"z": -1.9235850744,
				"element": "H" 
			},
			{
				"x": -1.9600871609,
				"y": -1.9070827867,
				"z": 0.3423417838,
				"element": "H" 
			},
			{
				"x": -3.6885428929,
				"y": -1.9764914186,
				"z": 0.677899748,
				"element": "H" 
			},
			{
				"x": 2.5226037261,
				"y": -0.1598901205,
				"z": -3.1569258102,
				"element": "H" 
			},
			{
				"x": 4.692181505,
				"y": -1.1523177281,
				"z": -2.5760964424,
				"element": "H" 
			},
			{
				"x": 5.028059457,
				"y": -2.2346529762,
				"z": -0.3614530366,
				"element": "H" 
			},
			{
				"x": 3.1487444684,
				"y": -2.3025350852,
				"z": 1.2693057543,
				"element": "H" 
			},
			{
				"x": 0.9652301504,
				"y": -1.2892548507,
				"z": 0.6892770817,
				"element": "H" 
			}
		],
		 "valence_orbital": [ 
			{
				"type": "occ",
				"energy": -0.28377,
				"method": "rhf"
			},
			{
				"type": "occ",
				"energy": -0.26147,
				"method": "rhf"
			},
			{
				"type": "occ",
				"energy": -0.24034,
				"method": "rhf"
			},
			{
				"type": "occ",
				"energy": -0.20694,
				"method": "rhf"
			},
			{
				"type": "occ",
				"energy": -0.20603,
				"method": "rhf"
			},
			{
				"type": "unocc",
				"energy": -0.05552,
				"method": "rhf"
			},
			{
				"type": "unocc",
				"energy": -0.01193,
				"method": "rhf"
			},
			{
				"type": "unocc",
				"energy": 0.00842,
				"method": "rhf"
			},
			{
				"type": "unocc",
				"energy": 0.04191,
				"method": "rhf"
			},
			{
				"type": "unocc",
				"energy": 0.06532,
				"method": "rhf"
			}
		],
		"cosmo_sigma_profile": { 
			"-0.025": 0.0,
			"-0.024": 0.0,
			"-0.023": 0.0,
			"-0.022": 0.0,
			"-0.021": 0.0,
			"-0.02": 0.0,
			"-0.019": 0.0,
			"-0.018": 0.0,
			"-0.017": 0.0,
			"-0.016": 0.0,
			"-0.015": 0.726987608762,
			"-0.014": 0.863372716663,
			"-0.013": 2.62915212662,
			"-0.012": 3.17817891863,
			"-0.011": 2.91656514651,
			"-0.01": 2.69298933362,
			"-0.009": 3.17110526489,
			"-0.008": 3.1286271646,
			"-0.007": 5.44003989605,
			"-0.006": 12.8926981847,
			"-0.005": 16.1982052504,
			"-0.004": 18.9870281688,
			"-0.003": 17.3792103386,
			"-0.002": 14.7151139565,
			"-0.001": 12.8578600409,
			"0.0": 11.4767204457,
			"0.001": 16.2775019682,
			"0.002": 13.6474068046,
			"0.003": 13.9651653393,
			"0.004": 15.7391612486,
			"0.005": 15.2539367163,
			"0.006": 5.58606461622,
			"0.007": 3.28172050641,
			"0.008": 3.81300041424,
			"0.009": 4.10555360931,
			"0.01": 4.93205690523,
			"0.011": 8.48948931739,
			"0.012": 5.65310310666,
			"0.013": 0.838484586599,
			"0.014": 0.0,
			"0.015": 0.0,
			"0.016": 0.0,
			"0.017": 0.0,
			"0.018": 0.0,
			"0.019": 0.0,
			"0.02": 0.0,
			"0.021": 0.0,
			"0.022": 0.0,
			"0.023": 0.0,
			"0.024": 0.0,
			"0.025": 0.0
		}
	}
}
