{
	 "smiles": "NC1=CC(NC(=O)C=C)=C(F)C=C1", 
	 "Tm": 409.15, 
	 "num_atms": 22, 
	 "gaussian": { 
		 "optdone": 1, 
		 "sigma_profile": "yes", 
		 "theory": "DFT", 
		 "functional": "B3LYP", 
		 "basiset": "6-31G**", 
		 "properties": { 
			 "R2extent": 2702.9037, 
			 "electric_dipole_moment_norm": 5.2554728988, 
			 "electric_quadrupole_moment_norm": 7.26407150571, 
			 "total_energy": -632.925598204, 
			 "HOMO_LUMO_gap": 0.15987, 
			 "cosmo_polarized_energy": -14.53, 
			 "cosmo_cavitation_energy": 27.08, 
			 "cosmo_dispersion_energy": -19.11, 
			 "cosmo_repulsion_energy": 1.52, 
			 "cosmo_total_nonelectrostatic_energy": 9.49, 
			 "SMD_solvation_energy": 6.32 
		},
		"coords": [
			{
				"x": -3.0823882426,
				"y": -1.5038426416,
				"z": -1.6511844109,
				"element": "N" 
			},
			{
				"x": -2.4703884649,
				"y": -1.1477480598,
				"z": -0.4455086471,
				"element": "C" 
			},
			{
				"x": -1.1424390488,
				"y": -0.689775671,
				"z": -0.4412907624,
				"element": "C" 
			},
			{
				"x": -0.4948458971,
				"y": -0.3725285638,
				"z": 0.7574690164,
				"element": "C" 
			},
			{
				"x": 0.837974997,
				"y": 0.0657824818,
				"z": 0.8646177123,
				"element": "N" 
			},
			{
				"x": 1.7217803519,
				"y": 0.6482158247,
				"z": -0.02915559,
				"element": "C" 
			},
			{
				"x": 2.9252840636,
				"y": 0.6098793127,
				"z": 0.1977438754,
				"element": "O" 
			},
			{
				"x": 1.2266249534,
				"y": 1.4155026598,
				"z": -1.21058946,
				"element": "C" 
			},
			{
				"x": 0.1587771627,
				"y": 2.2168049697,
				"z": -1.2187238849,
				"element": "C" 
			},
			{
				"x": -1.1946356995,
				"y": -0.5671753176,
				"z": 1.9564913085,
				"element": "C" 
			},
			{
				"x": -0.5474277977,
				"y": -0.2998755739,
				"z": 3.121951805,
				"element": "F" 
			},
			{
				"x": -2.4965301662,
				"y": -1.0349886299,
				"z": 1.9762467682,
				"element": "C" 
			},
			{
				"x": -3.1450482438,
				"y": -1.3166990966,
				"z": 0.7754041384,
				"element": "C" 
			},
			{
				"x": -4.0928357911,
				"y": -1.4999646403,
				"z": -1.6329172711,
				"element": "H" 
			},
			{
				"x": -2.7224354697,
				"y": -1.034150845,
				"z": -2.470462497,
				"element": "H" 
			},
			{
				"x": -0.6117559942,
				"y": -0.5841137934,
				"z": -1.3795107124,
				"element": "H" 
			},
			{
				"x": 1.3038159937,
				"y": -0.2011026762,
				"z": 1.7239880361,
				"element": "H" 
			},
			{
				"x": 1.9232947868,
				"y": 1.4039945133,
				"z": -2.0444911954,
				"element": "H" 
			},
			{
				"x": -0.0596736031,
				"y": 2.8507752476,
				"z": -2.0731172472,
				"element": "H" 
			},
			{
				"x": -0.5222313508,
				"y": 2.2802501991,
				"z": -0.3759339624,
				"element": "H" 
			},
			{
				"x": -2.9942678349,
				"y": -1.1666050537,
				"z": 2.9310081698,
				"element": "H" 
			},
			{
				"x": -4.1676487046,
				"y": -1.6823346459,
				"z": 0.7844648108,
				"element": "H" 
			}
		],
		 "valence_orbital": [ 
			{
				"type": "occ",
				"energy": -0.29319,
				"method": "rhf"
			},
			{
				"type": "occ",
				"energy": -0.28284,
				"method": "rhf"
			},
			{
				"type": "occ",
				"energy": -0.25548,
				"method": "rhf"
			},
			{
				"type": "occ",
				"energy": -0.23203,
				"method": "rhf"
			},
			{
				"type": "occ",
				"energy": -0.2038,
				"method": "rhf"
			},
			{
				"type": "unocc",
				"energy": -0.04393,
				"method": "rhf"
			},
			{
				"type": "unocc",
				"energy": -0.00266,
				"method": "rhf"
			},
			{
				"type": "unocc",
				"energy": 0.01327,
				"method": "rhf"
			},
			{
				"type": "unocc",
				"energy": 0.06626,
				"method": "rhf"
			},
			{
				"type": "unocc",
				"energy": 0.07171,
				"method": "rhf"
			}
		],
		"cosmo_sigma_profile": { 
			"-0.025": 0.0,
			"-0.024": 0.0,
			"-0.023": 0.0,
			"-0.022": 0.0,
			"-0.021": 0.0,
			"-0.02": 0.0,
			"-0.019": 0.0,
			"-0.018": 0.0,
			"-0.017": 0.0,
			"-0.016": 0.0,
			"-0.015": 0.0,
			"-0.014": 0.0,
			"-0.013": 0.673846570416,
			"-0.012": 3.40944807253,
			"-0.011": 3.30318264759,
			"-0.01": 3.79710398186,
			"-0.009": 4.27559264848,
			"-0.008": 3.59379635358,
			"-0.007": 8.04892180891,
			"-0.006": 11.7100670385,
			"-0.005": 13.264174183,
			"-0.004": 13.7132236059,
			"-0.003": 11.9332100464,
			"-0.002": 12.2110984064,
			"-0.001": 11.1609649606,
			"0.0": 13.7202204895,
			"0.001": 15.3494270634,
			"0.002": 15.0780018352,
			"0.003": 13.3597804652,
			"0.004": 16.6290748171,
			"0.005": 12.5790516216,
			"0.006": 4.0171484883,
			"0.007": 2.47017106044,
			"0.008": 1.50839235515,
			"0.009": 2.83928404457,
			"0.01": 1.78356737645,
			"0.011": 2.23701385488,
			"0.012": 4.17931026026,
			"0.013": 6.34504649472,
			"0.014": 2.45971636465,
			"0.015": 0.243447472305,
			"0.016": 0.0,
			"0.017": 0.0,
			"0.018": 0.0,
			"0.019": 0.0,
			"0.02": 0.0,
			"0.021": 0.0,
			"0.022": 0.0,
			"0.023": 0.0,
			"0.024": 0.0,
			"0.025": 0.0
		}
	}
}
