{
	 "smiles": "O=C1C=CC(=O)N1C1=C2C=CN=CC2=CC=C1", 
	 "Tm": 408.15, 
	 "num_atms": 25, 
	 "gaussian": { 
		 "optdone": 1, 
		 "sigma_profile": "yes", 
		 "theory": "DFT", 
		 "functional": "B3LYP", 
		 "basiset": "6-31G**", 
		 "properties": { 
			 "R2extent": 4473.7689, 
			 "electric_dipole_moment_norm": 3.03391709511, 
			 "electric_quadrupole_moment_norm": 23.1366741337, 
			 "total_energy": -760.151816657, 
			 "HOMO_LUMO_gap": 0.1293, 
			 "cosmo_polarized_energy": -15.32, 
			 "cosmo_cavitation_energy": 30.44, 
			 "cosmo_dispersion_energy": -21.53, 
			 "cosmo_repulsion_energy": 1.63, 
			 "cosmo_total_nonelectrostatic_energy": 10.54, 
			 "SMD_solvation_energy": 5.41 
		},
		"coords": [
			{
				"x": 0.1116905109,
				"y": -3.384578236,
				"z": 0.8998155302,
				"element": "O" 
			},
			{
				"x": 0.9291694649,
				"y": -2.7286184625,
				"z": 0.2933324522,
				"element": "C" 
			},
			{
				"x": 2.117712934,
				"y": -3.2197275693,
				"z": -0.480150672,
				"element": "C" 
			},
			{
				"x": 2.7508025158,
				"y": -2.1732281884,
				"z": -1.0174057347,
				"element": "C" 
			},
			{
				"x": 2.0231072612,
				"y": -0.9161240673,
				"z": -0.6413184676,
				"element": "C" 
			},
			{
				"x": 2.2824448275,
				"y": 0.2206745118,
				"z": -0.9675497392,
				"element": "O" 
			},
			{
				"x": 0.9457373989,
				"y": -1.3224783748,
				"z": 0.1763348429,
				"element": "N" 
			},
			{
				"x": -0.0441208623,
				"y": -0.4408420034,
				"z": 0.7056612366,
				"element": "C" 
			},
			{
				"x": -0.1876170507,
				"y": -0.2887170151,
				"z": 2.1172133647,
				"element": "C" 
			},
			{
				"x": 0.601497206,
				"y": -0.9521859715,
				"z": 3.0908216888,
				"element": "C" 
			},
			{
				"x": 0.3641482713,
				"y": -0.7185140536,
				"z": 4.4255822913,
				"element": "C" 
			},
			{
				"x": -0.5995470837,
				"y": 0.1203345479,
				"z": 4.8965449423,
				"element": "N" 
			},
			{
				"x": -1.3356886816,
				"y": 0.7476524273,
				"z": 4.0047404014,
				"element": "C" 
			},
			{
				"x": -1.1933717342,
				"y": 0.606600842,
				"z": 2.5956943504,
				"element": "C" 
			},
			{
				"x": -1.9984394467,
				"y": 1.3313993267,
				"z": 1.6813421246,
				"element": "C" 
			},
			{
				"x": -1.8164301419,
				"y": 1.1776026626,
				"z": 0.3263678976,
				"element": "C" 
			},
			{
				"x": -0.8376326176,
				"y": 0.2813958408,
				"z": -0.160947435,
				"element": "C" 
			},
			{
				"x": 2.352698099,
				"y": -4.2739274067,
				"z": -0.5464486678,
				"element": "H" 
			},
			{
				"x": 3.6385626352,
				"y": -2.1496313644,
				"z": -1.6356743406,
				"element": "H" 
			},
			{
				"x": 1.387035142,
				"y": -1.635649053,
				"z": 2.7918856186,
				"element": "H" 
			},
			{
				"x": 0.962115706,
				"y": -1.2178380228,
				"z": 5.1842450198,
				"element": "H" 
			},
			{
				"x": -2.1033441792,
				"y": 1.4221473638,
				"z": 4.3864688092,
				"element": "H" 
			},
			{
				"x": -2.7534493059,
				"y": 2.0107585255,
				"z": 2.0676023346,
				"element": "H" 
			},
			{
				"x": -2.4246691482,
				"y": 1.7344071116,
				"z": -0.3792532989,
				"element": "H" 
			},
			{
				"x": -0.7025117206,
				"y": 0.1574866289,
				"z": -1.2301045494,
				"element": "H" 
			}
		],
		 "valence_orbital": [ 
			{
				"type": "occ",
				"energy": -0.2872,
				"method": "rhf"
			},
			{
				"type": "occ",
				"energy": -0.27855,
				"method": "rhf"
			},
			{
				"type": "occ",
				"energy": -0.26908,
				"method": "rhf"
			},
			{
				"type": "occ",
				"energy": -0.25665,
				"method": "rhf"
			},
			{
				"type": "occ",
				"energy": -0.23291,
				"method": "rhf"
			},
			{
				"type": "unocc",
				"energy": -0.10361,
				"method": "rhf"
			},
			{
				"type": "unocc",
				"energy": -0.06057,
				"method": "rhf"
			},
			{
				"type": "unocc",
				"energy": -0.02885,
				"method": "rhf"
			},
			{
				"type": "unocc",
				"energy": 0.01334,
				"method": "rhf"
			},
			{
				"type": "unocc",
				"energy": 0.0481,
				"method": "rhf"
			}
		],
		"cosmo_sigma_profile": { 
			"-0.025": 0.0,
			"-0.024": 0.0,
			"-0.023": 0.0,
			"-0.022": 0.0,
			"-0.021": 0.0,
			"-0.02": 0.0,
			"-0.019": 0.0,
			"-0.018": 0.0,
			"-0.017": 0.0,
			"-0.016": 0.0,
			"-0.015": 0.0,
			"-0.014": 0.0,
			"-0.013": 0.0,
			"-0.012": 0.0,
			"-0.011": 0.00456718478392,
			"-0.01": 2.05639134562,
			"-0.009": 4.24768696204,
			"-0.008": 6.35878093402,
			"-0.007": 16.3433985748,
			"-0.006": 18.9458916784,
			"-0.005": 17.943965367,
			"-0.004": 14.4781154499,
			"-0.003": 16.0405436695,
			"-0.002": 13.9400739638,
			"-0.001": 12.3447938983,
			"0.0": 15.9066037946,
			"0.001": 20.3593121334,
			"0.002": 16.7612010347,
			"0.003": 13.8652767828,
			"0.004": 6.49434632651,
			"0.005": 6.12911604337,
			"0.006": 3.75844177078,
			"0.007": 6.92388498183,
			"0.008": 4.44995093488,
			"0.009": 5.2091186397,
			"0.01": 10.0741466614,
			"0.011": 8.38919765608,
			"0.012": 2.08195596107,
			"0.013": 0.8266781453,
			"0.014": 0.570562950255,
			"0.015": 1.15699904517,
			"0.016": 0.713690814866,
			"0.017": 0.0885364602084,
			"0.018": 0.0,
			"0.019": 0.0,
			"0.02": 0.0,
			"0.021": 0.0,
			"0.022": 0.0,
			"0.023": 0.0,
			"0.024": 0.0,
			"0.025": 0.0
		}
	}
}
