{
	 "smiles": "CC1=CC=C(C=C1)C(O)C1C(=O)N(N=C1C(F)(F)F)C1=CC=CC=C1", 
	 "Tm": 530.15, 
	 "num_atms": 40, 
	 "gaussian": { 
		 "optdone": 1, 
		 "sigma_profile": "yes", 
		 "theory": "DFT", 
		 "functional": "B3LYP", 
		 "basiset": "6-31G**", 
		 "properties": { 
			 "R2extent": 9373.7917, 
			 "electric_dipole_moment_norm": 2.52773195375, 
			 "electric_quadrupole_moment_norm": 8.95473185137, 
			 "total_energy": -1254.40830003, 
			 "HOMO_LUMO_gap": 0.1665, 
			 "cosmo_polarized_energy": -12.17, 
			 "cosmo_cavitation_energy": 44.62, 
			 "cosmo_dispersion_energy": -30.08, 
			 "cosmo_repulsion_energy": 2.24, 
			 "cosmo_total_nonelectrostatic_energy": 16.78, 
			 "SMD_solvation_energy": 8.3 
		},
		"coords": [
			{
				"x": 3.8141288785,
				"y": -2.2263103483,
				"z": 0.7541584174,
				"element": "C" 
			},
			{
				"x": 2.7299605839,
				"y": -1.1757569753,
				"z": 0.7970126677,
				"element": "C" 
			},
			{
				"x": 2.9616572435,
				"y": 0.1193141641,
				"z": 0.313049821,
				"element": "C" 
			},
			{
				"x": 1.9579183438,
				"y": 1.0853674024,
				"z": 0.3306935306,
				"element": "C" 
			},
			{
				"x": 0.6820905394,
				"y": 0.7811759277,
				"z": 0.8257161518,
				"element": "C" 
			},
			{
				"x": 0.4447034798,
				"y": -0.5086147901,
				"z": 1.3168900834,
				"element": "C" 
			},
			{
				"x": 1.4571225878,
				"y": -1.4681819596,
				"z": 1.3024382473,
				"element": "C" 
			},
			{
				"x": -0.3996339176,
				"y": 1.8504412693,
				"z": 0.8459897076,
				"element": "C" 
			},
			{
				"x": -1.2860182317,
				"y": 1.7354070118,
				"z": 1.9486076447,
				"element": "O" 
			},
			{
				"x": -1.3158343905,
				"y": 1.8760310617,
				"z": -0.4085643123,
				"element": "C" 
			},
			{
				"x": -0.4982490651,
				"y": 2.1052701993,
				"z": -1.6806847779,
				"element": "C" 
			},
			{
				"x": 0.2976438614,
				"y": 3.0014378366,
				"z": -1.8918730365,
				"element": "O" 
			},
			{
				"x": -0.8392798583,
				"y": 1.0502760809,
				"z": -2.5325247797,
				"element": "N" 
			},
			{
				"x": -1.8033450898,
				"y": 0.2257379645,
				"z": -1.979483078,
				"element": "N" 
			},
			{
				"x": -2.0726118805,
				"y": 0.6399245483,
				"z": -0.7924721218,
				"element": "C" 
			},
			{
				"x": -3.1931380528,
				"y": -0.0057032141,
				"z": -0.0208658573,
				"element": "C" 
			},
			{
				"x": -2.7548402534,
				"y": -0.7162597823,
				"z": 1.0409491677,
				"element": "F" 
			},
			{
				"x": -4.0243304046,
				"y": 0.9477004792,
				"z": 0.4506068681,
				"element": "F" 
			},
			{
				"x": -3.9056071103,
				"y": -0.840373405,
				"z": -0.7922957014,
				"element": "F" 
			},
			{
				"x": -0.3656063802,
				"y": 0.7657154577,
				"z": -3.845282451,
				"element": "C" 
			},
			{
				"x": -0.8597692002,
				"y": -0.3596385404,
				"z": -4.5198549388,
				"element": "C" 
			},
			{
				"x": -0.4020130883,
				"y": -0.6473782863,
				"z": -5.8035616326,
				"element": "C" 
			},
			{
				"x": 0.5430881274,
				"y": 0.1714534442,
				"z": -6.4241229101,
				"element": "C" 
			},
			{
				"x": 1.0286232429,
				"y": 1.2878867821,
				"z": -5.7434776217,
				"element": "C" 
			},
			{
				"x": 0.5843217519,
				"y": 1.596012554,
				"z": -4.4575717686,
				"element": "C" 
			},
			{
				"x": 3.8492737269,
				"y": -2.7165315105,
				"z": -0.2268082489,
				"element": "H" 
			},
			{
				"x": 4.8020165191,
				"y": -1.7904610586,
				"z": 0.9327990021,
				"element": "H" 
			},
			{
				"x": 3.6464441596,
				"y": -3.0063090439,
				"z": 1.5024803765,
				"element": "H" 
			},
			{
				"x": 3.94425077,
				"y": 0.3781408151,
				"z": -0.0738595365,
				"element": "H" 
			},
			{
				"x": 2.1620852019,
				"y": 2.0829436502,
				"z": -0.0480268628,
				"element": "H" 
			},
			{
				"x": -0.5332147788,
				"y": -0.7607823065,
				"z": 1.7099965514,
				"element": "H" 
			},
			{
				"x": 1.2530368474,
				"y": -2.4625958361,
				"z": 1.6920248755,
				"element": "H" 
			},
			{
				"x": 0.0956451338,
				"y": 2.8330553641,
				"z": 0.8422609531,
				"element": "H" 
			},
			{
				"x": -0.7535228741,
				"y": 1.5764662496,
				"z": 2.739334351,
				"element": "H" 
			},
			{
				"x": -2.0150870226,
				"y": 2.708972258,
				"z": -0.2616220905,
				"element": "H" 
			},
			{
				"x": -1.5925156885,
				"y": -0.9930758426,
				"z": -4.0371413098,
				"element": "H" 
			},
			{
				"x": -0.7906027914,
				"y": -1.5208363763,
				"z": -6.3191210057,
				"element": "H" 
			},
			{
				"x": 0.8957885794,
				"y": -0.0582143177,
				"z": -7.4249882983,
				"element": "H" 
			},
			{
				"x": 1.7640031247,
				"y": 1.9348701559,
				"z": -6.2129806072,
				"element": "H" 
			},
			{
				"x": 0.961917375,
				"y": 2.4622229169,
				"z": -3.9331254698,
				"element": "H" 
			}
		],
		 "valence_orbital": [ 
			{
				"type": "occ",
				"energy": -0.27206,
				"method": "rhf"
			},
			{
				"type": "occ",
				"energy": -0.25507,
				"method": "rhf"
			},
			{
				"type": "occ",
				"energy": -0.25298,
				"method": "rhf"
			},
			{
				"type": "occ",
				"energy": -0.24347,
				"method": "rhf"
			},
			{
				"type": "occ",
				"energy": -0.22496,
				"method": "rhf"
			},
			{
				"type": "unocc",
				"energy": -0.05846,
				"method": "rhf"
			},
			{
				"type": "unocc",
				"energy": -0.02338,
				"method": "rhf"
			},
			{
				"type": "unocc",
				"energy": -0.0119,
				"method": "rhf"
			},
			{
				"type": "unocc",
				"energy": -0.00719,
				"method": "rhf"
			},
			{
				"type": "unocc",
				"energy": -0.00223,
				"method": "rhf"
			}
		],
		"cosmo_sigma_profile": { 
			"-0.025": 0.0,
			"-0.024": 0.0,
			"-0.023": 0.0,
			"-0.022": 0.0,
			"-0.021": 0.0,
			"-0.02": 0.0,
			"-0.019": 0.0,
			"-0.018": 0.0,
			"-0.017": 0.0326438759921,
			"-0.016": 0.607493745563,
			"-0.015": 0.631809597776,
			"-0.014": 1.19689028778,
			"-0.013": 0.583060086179,
			"-0.012": 0.98715681479,
			"-0.011": 1.00627478489,
			"-0.01": 1.47251886826,
			"-0.009": 4.0273332214,
			"-0.008": 3.17544430558,
			"-0.007": 3.73576019193,
			"-0.006": 9.93115854619,
			"-0.005": 20.4009567794,
			"-0.004": 29.4880693687,
			"-0.003": 25.8294162614,
			"-0.002": 24.5620562633,
			"-0.001": 28.2054234751,
			"0.0": 30.4763841439,
			"0.001": 29.4320878797,
			"0.002": 40.8685256308,
			"0.003": 29.7058028339,
			"0.004": 22.8609943959,
			"0.005": 21.5286251421,
			"0.006": 8.53458347343,
			"0.007": 3.34043920353,
			"0.008": 3.51585430562,
			"0.009": 3.17385444947,
			"0.01": 2.99209444898,
			"0.011": 3.08896609632,
			"0.012": 0.969788706144,
			"0.013": 0.00665609189903,
			"0.014": 0.0,
			"0.015": 0.0,
			"0.016": 0.0,
			"0.017": 0.0,
			"0.018": 0.0,
			"0.019": 0.0,
			"0.02": 0.0,
			"0.021": 0.0,
			"0.022": 0.0,
			"0.023": 0.0,
			"0.024": 0.0,
			"0.025": 0.0
		}
	}
}
