{
	 "smiles": "BrC(Br)C(=O)C1=CC=C(Br)C=C1", 
	 "Tm": 365.65, 
	 "num_atms": 17, 
	 "gaussian": { 
		 "optdone": 1, 
		 "sigma_profile": "yes", 
		 "theory": "DFT", 
		 "functional": "B3LYP", 
		 "basiset": "6-31G**", 
		 "properties": { 
			 "R2extent": 8665.9851, 
			 "electric_dipole_moment_norm": 2.65020422043, 
			 "electric_quadrupole_moment_norm": 10.4308961465, 
			 "total_energy": -8097.28592931, 
			 "HOMO_LUMO_gap": 0.17222, 
			 "cosmo_polarized_energy": -9.53, 
			 "cosmo_cavitation_energy": 28.69, 
			 "cosmo_dispersion_energy": -21.94, 
			 "cosmo_repulsion_energy": 1.75, 
			 "cosmo_total_nonelectrostatic_energy": 8.5, 
			 "SMD_solvation_energy": 1.94 
		},
		"coords": [
			{
				"x": 2.8569680889,
				"y": -2.9036698634,
				"z": 1.2349385181,
				"element": "Br" 
			},
			{
				"x": 1.7147763758,
				"y": -2.5642897589,
				"z": -0.3443529755,
				"element": "C" 
			},
			{
				"x": 2.4568734661,
				"y": -3.3527855933,
				"z": -1.9538309143,
				"element": "Br" 
			},
			{
				"x": 1.5327200062,
				"y": -1.0372104641,
				"z": -0.4759022134,
				"element": "C" 
			},
			{
				"x": 2.190039539,
				"y": -0.4036600841,
				"z": -1.2759730584,
				"element": "O" 
			},
			{
				"x": 0.5058949873,
				"y": -0.3846616951,
				"z": 0.3936373618,
				"element": "C" 
			},
			{
				"x": 0.2547484252,
				"y": 0.9789233554,
				"z": 0.1660946721,
				"element": "C" 
			},
			{
				"x": -0.6998018007,
				"y": 1.6629531109,
				"z": 0.9091297542,
				"element": "C" 
			},
			{
				"x": -1.4102792119,
				"y": 0.9766017859,
				"z": 1.8963807492,
				"element": "C" 
			},
			{
				"x": -2.7222788274,
				"y": 1.9028366256,
				"z": 2.9205091874,
				"element": "Br" 
			},
			{
				"x": -1.1749912583,
				"y": -0.37496081,
				"z": 2.1483681373,
				"element": "C" 
			},
			{
				"x": -0.2179254174,
				"y": -1.0509417166,
				"z": 1.3952941218,
				"element": "C" 
			},
			{
				"x": 0.7840400843,
				"y": -3.0867704202,
				"z": -0.1455151355,
				"element": "H" 
			},
			{
				"x": 0.8214514215,
				"y": 1.4861838985,
				"z": -0.6069975505,
				"element": "H" 
			},
			{
				"x": -0.8940016957,
				"y": 2.7138494583,
				"z": 0.7284714918,
				"element": "H" 
			},
			{
				"x": -1.7290750339,
				"y": -0.8894131514,
				"z": 2.9247057763,
				"element": "H" 
			},
			{
				"x": -0.0277591489,
				"y": -2.0939846776,
				"z": 1.6223420775,
				"element": "H" 
			}
		],
		 "valence_orbital": [ 
			{
				"type": "occ",
				"energy": -0.29151,
				"method": "rhf"
			},
			{
				"type": "occ",
				"energy": -0.28691,
				"method": "rhf"
			},
			{
				"type": "occ",
				"energy": -0.2831,
				"method": "rhf"
			},
			{
				"type": "occ",
				"energy": -0.27728,
				"method": "rhf"
			},
			{
				"type": "occ",
				"energy": -0.26333,
				"method": "rhf"
			},
			{
				"type": "unocc",
				"energy": -0.09111,
				"method": "rhf"
			},
			{
				"type": "unocc",
				"energy": -0.04498,
				"method": "rhf"
			},
			{
				"type": "unocc",
				"energy": -0.03392,
				"method": "rhf"
			},
			{
				"type": "unocc",
				"energy": -0.01682,
				"method": "rhf"
			},
			{
				"type": "unocc",
				"energy": -0.00696,
				"method": "rhf"
			}
		],
		"cosmo_sigma_profile": { 
			"-0.025": 0.0,
			"-0.024": 0.0,
			"-0.023": 0.0,
			"-0.022": 0.0,
			"-0.021": 0.0,
			"-0.02": 0.0,
			"-0.019": 0.0,
			"-0.018": 0.0,
			"-0.017": 0.0,
			"-0.016": 0.0,
			"-0.015": 0.0,
			"-0.014": 0.0,
			"-0.013": 0.176095127198,
			"-0.012": 2.10363237767,
			"-0.011": 2.35483403491,
			"-0.01": 1.97036231205,
			"-0.009": 2.30570026924,
			"-0.008": 4.34183042226,
			"-0.007": 8.70415957126,
			"-0.006": 8.21446632362,
			"-0.005": 10.0438663796,
			"-0.004": 11.5437682112,
			"-0.003": 11.07749767,
			"-0.002": 12.4444986666,
			"-0.001": 16.8792396891,
			"0.0": 22.6658007059,
			"0.001": 31.0155886292,
			"0.002": 26.7268717813,
			"0.003": 24.581999509,
			"0.004": 24.9949128491,
			"0.005": 3.13940828818,
			"0.006": 1.9996518905,
			"0.007": 2.02692010385,
			"0.008": 2.40253759485,
			"0.009": 2.82751405782,
			"0.01": 4.00178538446,
			"0.011": 1.93847994429,
			"0.012": 0.169348551838,
			"0.013": 0.0,
			"0.014": 0.0,
			"0.015": 0.0,
			"0.016": 0.0,
			"0.017": 0.0,
			"0.018": 0.0,
			"0.019": 0.0,
			"0.02": 0.0,
			"0.021": 0.0,
			"0.022": 0.0,
			"0.023": 0.0,
			"0.024": 0.0,
			"0.025": 0.0
		}
	}
}
