{
	 "smiles": "CC1=C2N=C(N)C=CC2=C(Cl)C=C1", 
	 "Tm": 378.15, 
	 "num_atms": 22, 
	 "gaussian": { 
		 "optdone": 1, 
		 "sigma_profile": "yes", 
		 "theory": "DFT", 
		 "functional": "B3LYP", 
		 "basiset": "6-31G**", 
		 "properties": { 
			 "R2extent": 3816.7163, 
			 "electric_dipole_moment_norm": 2.72595948062, 
			 "electric_quadrupole_moment_norm": 11.5427540795, 
			 "total_energy": -956.213259308, 
			 "HOMO_LUMO_gap": 0.16336, 
			 "cosmo_polarized_energy": -9.67, 
			 "cosmo_cavitation_energy": 27.25, 
			 "cosmo_dispersion_energy": -20.46, 
			 "cosmo_repulsion_energy": 1.61, 
			 "cosmo_total_nonelectrostatic_energy": 8.41, 
			 "SMD_solvation_energy": 3.19 
		},
		"coords": [
			{
				"x": -2.0493819382,
				"y": 1.7849384994,
				"z": -1.3042651149,
				"element": "C" 
			},
			{
				"x": -1.4190416829,
				"y": 0.5359063759,
				"z": -1.8600168088,
				"element": "C" 
			},
			{
				"x": -0.6998826518,
				"y": -0.3425534133,
				"z": -0.9899307791,
				"element": "C" 
			},
			{
				"x": -0.6089342917,
				"y": -0.0012172502,
				"z": 0.3256754435,
				"element": "N" 
			},
			{
				"x": 0.0424261449,
				"y": -0.7987580132,
				"z": 1.154274831,
				"element": "C" 
			},
			{
				"x": 0.0616855931,
				"y": -0.4460685234,
				"z": 2.4874267343,
				"element": "N" 
			},
			{
				"x": 0.6738375942,
				"y": -2.0098026876,
				"z": 0.7312243031,
				"element": "C" 
			},
			{
				"x": 0.6015921254,
				"y": -2.3613945061,
				"z": -0.5879779525,
				"element": "C" 
			},
			{
				"x": -0.097294709,
				"y": -1.5348121418,
				"z": -1.5105983976,
				"element": "C" 
			},
			{
				"x": -0.2334472278,
				"y": -1.8109670075,
				"z": -2.8960519625,
				"element": "C" 
			},
			{
				"x": 0.4942444059,
				"y": -3.2680301277,
				"z": -3.5776787713,
				"element": "Cl" 
			},
			{
				"x": -0.9254573408,
				"y": -0.9647005147,
				"z": -3.730224654,
				"element": "C" 
			},
			{
				"x": -1.512622181,
				"y": 0.2045189567,
				"z": -3.1978810352,
				"element": "C" 
			},
			{
				"x": -1.2977821898,
				"y": 2.4345766595,
				"z": -0.8438710612,
				"element": "H" 
			},
			{
				"x": -2.7707113289,
				"y": 1.5452866485,
				"z": -0.5162652118,
				"element": "H" 
			},
			{
				"x": -2.5626055766,
				"y": 2.3462099481,
				"z": -2.0899117515,
				"element": "H" 
			},
			{
				"x": 0.8180619844,
				"y": -0.7945469884,
				"z": 3.0563028521,
				"element": "H" 
			},
			{
				"x": -0.2181606946,
				"y": 0.5065660945,
				"z": 2.673179503,
				"element": "H" 
			},
			{
				"x": 1.1927115094,
				"y": -2.6354623971,
				"z": 1.451350419,
				"element": "H" 
			},
			{
				"x": 1.071581098,
				"y": -3.2723328293,
				"z": -0.9417654424,
				"element": "H" 
			},
			{
				"x": -1.0182904541,
				"y": -1.1945657874,
				"z": -4.7854919387,
				"element": "H" 
			},
			{
				"x": -2.0565281882,
				"y": 0.8622090049,
				"z": -3.8708032044,
				"element": "H" 
			}
		],
		 "valence_orbital": [ 
			{
				"type": "occ",
				"energy": -0.30124,
				"method": "rhf"
			},
			{
				"type": "occ",
				"energy": -0.28373,
				"method": "rhf"
			},
			{
				"type": "occ",
				"energy": -0.25808,
				"method": "rhf"
			},
			{
				"type": "occ",
				"energy": -0.22984,
				"method": "rhf"
			},
			{
				"type": "occ",
				"energy": -0.20976,
				"method": "rhf"
			},
			{
				"type": "unocc",
				"energy": -0.0464,
				"method": "rhf"
			},
			{
				"type": "unocc",
				"energy": -0.00815,
				"method": "rhf"
			},
			{
				"type": "unocc",
				"energy": 0.02815,
				"method": "rhf"
			},
			{
				"type": "unocc",
				"energy": 0.03583,
				"method": "rhf"
			},
			{
				"type": "unocc",
				"energy": 0.07694,
				"method": "rhf"
			}
		],
		"cosmo_sigma_profile": { 
			"-0.025": 0.0,
			"-0.024": 0.0,
			"-0.023": 0.0,
			"-0.022": 0.0,
			"-0.021": 0.0,
			"-0.02": 0.0,
			"-0.019": 0.0,
			"-0.018": 0.0,
			"-0.017": 0.0,
			"-0.016": 0.0,
			"-0.015": 0.0,
			"-0.014": 0.555333765099,
			"-0.013": 1.95992975538,
			"-0.012": 2.36120434552,
			"-0.011": 2.35514653484,
			"-0.01": 2.67327130479,
			"-0.009": 2.56739610772,
			"-0.008": 3.11010574179,
			"-0.007": 4.59863981992,
			"-0.006": 8.51685053891,
			"-0.005": 9.18805720506,
			"-0.004": 9.96815437926,
			"-0.003": 11.7724403721,
			"-0.002": 11.5789055711,
			"-0.001": 13.2190010794,
			"0.0": 17.847381534,
			"0.001": 21.6115557225,
			"0.002": 27.2397950623,
			"0.003": 25.0497627735,
			"0.004": 17.4283610349,
			"0.005": 11.1086907437,
			"0.006": 3.42536750305,
			"0.007": 1.65339013138,
			"0.008": 2.69170028333,
			"0.009": 2.30965885138,
			"0.01": 2.03168760237,
			"0.011": 1.87346332441,
			"0.012": 0.894724928661,
			"0.013": 0.004066827636,
			"0.014": 0.0,
			"0.015": 0.0,
			"0.016": 0.0,
			"0.017": 0.0,
			"0.018": 0.0,
			"0.019": 0.0,
			"0.02": 0.0,
			"0.021": 0.0,
			"0.022": 0.0,
			"0.023": 0.0,
			"0.024": 0.0,
			"0.025": 0.0
		}
	}
}
