{
	 "smiles": "CC(=CC(O)=O)C1=C(C)C=CC=C1", 
	 "Tm": 355.15, 
	 "num_atms": 25, 
	 "gaussian": { 
		 "optdone": 1, 
		 "sigma_profile": "yes", 
		 "theory": "DFT", 
		 "functional": "B3LYP", 
		 "basiset": "6-31G**", 
		 "properties": { 
			 "R2extent": 3070.3364, 
			 "electric_dipole_moment_norm": 1.52945440272, 
			 "electric_quadrupole_moment_norm": 4.17276932624, 
			 "total_energy": -576.859081267, 
			 "HOMO_LUMO_gap": 0.18822, 
			 "cosmo_polarized_energy": -10.87, 
			 "cosmo_cavitation_energy": 28.59, 
			 "cosmo_dispersion_energy": -19.93, 
			 "cosmo_repulsion_energy": 1.59, 
			 "cosmo_total_nonelectrostatic_energy": 10.25, 
			 "SMD_solvation_energy": 6.31 
		},
		"coords": [
			{
				"x": 0.421613062,
				"y": 1.3235289099,
				"z": -0.4998184403,
				"element": "C" 
			},
			{
				"x": 0.1899810836,
				"y": 0.3700336658,
				"z": 0.6478285934,
				"element": "C" 
			},
			{
				"x": -0.1185271555,
				"y": 0.8529943768,
				"z": 1.8677428685,
				"element": "C" 
			},
			{
				"x": -0.3409227978,
				"y": 0.0489696142,
				"z": 3.0839093674,
				"element": "C" 
			},
			{
				"x": -0.4402338973,
				"y": 0.8574259791,
				"z": 4.1761352397,
				"element": "O" 
			},
			{
				"x": -0.4389119415,
				"y": -1.16004087,
				"z": 3.1741349127,
				"element": "O" 
			},
			{
				"x": 0.3690916484,
				"y": -1.0750868831,
				"z": 0.2996335245,
				"element": "C" 
			},
			{
				"x": -0.7244348108,
				"y": -1.9432659024,
				"z": 0.0993327598,
				"element": "C" 
			},
			{
				"x": -2.1465672074,
				"y": -1.5012871668,
				"z": 0.346616798,
				"element": "C" 
			},
			{
				"x": -0.4625407828,
				"y": -3.25522029,
				"z": -0.3133441725,
				"element": "C" 
			},
			{
				"x": 0.8379892469,
				"y": -3.7152853864,
				"z": -0.5180281878,
				"element": "C" 
			},
			{
				"x": 1.9145393322,
				"y": -2.8529723293,
				"z": -0.3180764072,
				"element": "C" 
			},
			{
				"x": 1.6737317935,
				"y": -1.5378857734,
				"z": 0.0763538954,
				"element": "C" 
			},
			{
				"x": 0.3129769661,
				"y": 2.3686369416,
				"z": -0.1985746996,
				"element": "H" 
			},
			{
				"x": 1.4237718217,
				"y": 1.17848289,
				"z": -0.9203745155,
				"element": "H" 
			},
			{
				"x": -0.2832076598,
				"y": 1.1146621842,
				"z": -1.3140557425,
				"element": "H" 
			},
			{
				"x": -0.1877101846,
				"y": 1.9274084112,
				"z": 2.0109823175,
				"element": "H" 
			},
			{
				"x": -0.5857178409,
				"y": 0.2608984013,
				"z": 4.9289551426,
				"element": "H" 
			},
			{
				"x": -2.8566766954,
				"y": -2.2047683597,
				"z": -0.0967278588,
				"element": "H" 
			},
			{
				"x": -2.3423568412,
				"y": -1.453845001,
				"z": 1.4230351964,
				"element": "H" 
			},
			{
				"x": -2.3511839164,
				"y": -0.5084278783,
				"z": -0.066946675,
				"element": "H" 
			},
			{
				"x": -1.300629139,
				"y": -3.9293328109,
				"z": -0.4720570005,
				"element": "H" 
			},
			{
				"x": 1.007042007,
				"y": -4.7407047712,
				"z": -0.8342977698,
				"element": "H" 
			},
			{
				"x": 2.9335097594,
				"y": -3.195982272,
				"z": -0.4717956075,
				"element": "H" 
			},
			{
				"x": 2.5099741497,
				"y": -0.8605356798,
				"z": 0.2301364614,
				"element": "H" 
			}
		],
		 "valence_orbital": [ 
			{
				"type": "occ",
				"energy": -0.31082,
				"method": "rhf"
			},
			{
				"type": "occ",
				"energy": -0.27027,
				"method": "rhf"
			},
			{
				"type": "occ",
				"energy": -0.26828,
				"method": "rhf"
			},
			{
				"type": "occ",
				"energy": -0.24035,
				"method": "rhf"
			},
			{
				"type": "occ",
				"energy": -0.23168,
				"method": "rhf"
			},
			{
				"type": "unocc",
				"energy": -0.04346,
				"method": "rhf"
			},
			{
				"type": "unocc",
				"energy": 0.00341,
				"method": "rhf"
			},
			{
				"type": "unocc",
				"energy": 0.00651,
				"method": "rhf"
			},
			{
				"type": "unocc",
				"energy": 0.08735,
				"method": "rhf"
			},
			{
				"type": "unocc",
				"energy": 0.09097,
				"method": "rhf"
			}
		],
		"cosmo_sigma_profile": { 
			"-0.025": 0.0,
			"-0.024": 0.0,
			"-0.023": 0.0,
			"-0.022": 0.0,
			"-0.021": 0.0,
			"-0.02": 0.0,
			"-0.019": 0.0,
			"-0.018": 0.357820626224,
			"-0.017": 0.830560347897,
			"-0.016": 1.06714756788,
			"-0.015": 0.679128046351,
			"-0.014": 0.417335040281,
			"-0.013": 0.535376480219,
			"-0.012": 0.967015988976,
			"-0.011": 0.631702740297,
			"-0.01": 1.15738126637,
			"-0.009": 0.320875573455,
			"-0.008": 0.367085562658,
			"-0.007": 1.01902646656,
			"-0.006": 6.17857305041,
			"-0.005": 16.4783081427,
			"-0.004": 20.3167830099,
			"-0.003": 21.3549446791,
			"-0.002": 17.7412191303,
			"-0.001": 24.8901888636,
			"0.0": 22.4944842695,
			"0.001": 18.3841697177,
			"0.002": 11.1274876106,
			"0.003": 9.02300441314,
			"0.004": 10.0752796708,
			"0.005": 7.69161420714,
			"0.006": 8.67450746819,
			"0.007": 4.04593001623,
			"0.008": 2.961809628,
			"0.009": 4.7177341009,
			"0.01": 2.67116753395,
			"0.011": 2.68117739156,
			"0.012": 4.31287943252,
			"0.013": 2.0025516456,
			"0.014": 0.0,
			"0.015": 0.0,
			"0.016": 0.0,
			"0.017": 0.0,
			"0.018": 0.0,
			"0.019": 0.0,
			"0.02": 0.0,
			"0.021": 0.0,
			"0.022": 0.0,
			"0.023": 0.0,
			"0.024": 0.0,
			"0.025": 0.0
		}
	}
}
