{
	 "smiles": "BrCC1=CC=C(C=C1)C1=CSC=C1", 
	 "Tm": 381.15, 
	 "num_atms": 22, 
	 "gaussian": { 
		 "optdone": 1, 
		 "sigma_profile": "yes", 
		 "theory": "DFT", 
		 "functional": "B3LYP", 
		 "basiset": "6-31G**", 
		 "properties": { 
			 "R2extent": 6409.8741, 
			 "electric_dipole_moment_norm": 2.47604623947, 
			 "electric_quadrupole_moment_norm": 9.6508519971, 
			 "total_energy": -3394.18337445, 
			 "HOMO_LUMO_gap": 0.17436, 
			 "cosmo_polarized_energy": -8.39, 
			 "cosmo_cavitation_energy": 30.1, 
			 "cosmo_dispersion_energy": -22.78, 
			 "cosmo_repulsion_energy": 1.75, 
			 "cosmo_total_nonelectrostatic_energy": 9.06, 
			 "SMD_solvation_energy": 3.78 
		},
		"coords": [
			{
				"x": -0.485006084,
				"y": 3.0408371031,
				"z": -2.4522103916,
				"element": "Br" 
			},
			{
				"x": 0.4581510792,
				"y": 1.2628493553,
				"z": -2.4219568043,
				"element": "C" 
			},
			{
				"x": 0.0134861819,
				"y": 0.4021046734,
				"z": -1.2880749787,
				"element": "C" 
			},
			{
				"x": -1.048270763,
				"y": -0.499048073,
				"z": -1.4438733729,
				"element": "C" 
			},
			{
				"x": -1.4533968097,
				"y": -1.3138487508,
				"z": -0.3913172153,
				"element": "C" 
			},
			{
				"x": -0.8099684607,
				"y": -1.2572497282,
				"z": 0.8572910026,
				"element": "C" 
			},
			{
				"x": 0.2581416533,
				"y": -0.3548021106,
				"z": 1.0068119144,
				"element": "C" 
			},
			{
				"x": 0.6577257166,
				"y": 0.4630997434,
				"z": -0.0442232759,
				"element": "C" 
			},
			{
				"x": -1.2459171187,
				"y": -2.1190974411,
				"z": 1.9743381399,
				"element": "C" 
			},
			{
				"x": -1.1559628998,
				"y": -1.7748811121,
				"z": 3.3043528954,
				"element": "C" 
			},
			{
				"x": -1.7648521711,
				"y": -3.0123174595,
				"z": 4.347836066,
				"element": "S" 
			},
			{
				"x": -2.1495609991,
				"y": -4.0258649709,
				"z": 2.9936897609,
				"element": "C" 
			},
			{
				"x": -1.8255128965,
				"y": -3.4261591712,
				"z": 1.8117292869,
				"element": "C" 
			},
			{
				"x": 0.2332823852,
				"y": 0.8306374839,
				"z": -3.3951650818,
				"element": "H" 
			},
			{
				"x": 1.5123061053,
				"y": 1.5275361514,
				"z": -2.3643811774,
				"element": "H" 
			},
			{
				"x": -1.5683116049,
				"y": -0.5546797898,
				"z": -2.396765267,
				"element": "H" 
			},
			{
				"x": -2.2928810381,
				"y": -1.9877417625,
				"z": -0.5320107118,
				"element": "H" 
			},
			{
				"x": 0.7951664914,
				"y": -0.31502515,
				"z": 1.9496435996,
				"element": "H" 
			},
			{
				"x": 1.4862210908,
				"y": 1.1525207019,
				"z": 0.0965799828,
				"element": "H" 
			},
			{
				"x": -0.8022846632,
				"y": -0.8438900642,
				"z": 3.7244190065,
				"element": "H" 
			},
			{
				"x": -2.5761023247,
				"y": -5.0063881032,
				"z": 3.152477229,
				"element": "H" 
			},
			{
				"x": -1.9616528702,
				"y": -3.9043915252,
				"z": 0.8487093929,
				"element": "H" 
			}
		],
		 "valence_orbital": [ 
			{
				"type": "occ",
				"energy": -0.26908,
				"method": "rhf"
			},
			{
				"type": "occ",
				"energy": -0.26692,
				"method": "rhf"
			},
			{
				"type": "occ",
				"energy": -0.25899,
				"method": "rhf"
			},
			{
				"type": "occ",
				"energy": -0.24745,
				"method": "rhf"
			},
			{
				"type": "occ",
				"energy": -0.22227,
				"method": "rhf"
			},
			{
				"type": "unocc",
				"energy": -0.04791,
				"method": "rhf"
			},
			{
				"type": "unocc",
				"energy": -0.01474,
				"method": "rhf"
			},
			{
				"type": "unocc",
				"energy": -0.00852,
				"method": "rhf"
			},
			{
				"type": "unocc",
				"energy": 0.02114,
				"method": "rhf"
			},
			{
				"type": "unocc",
				"energy": 0.029,
				"method": "rhf"
			}
		],
		"cosmo_sigma_profile": { 
			"-0.025": 0.0,
			"-0.024": 0.0,
			"-0.023": 0.0,
			"-0.022": 0.0,
			"-0.021": 0.0,
			"-0.02": 0.0,
			"-0.019": 0.0,
			"-0.018": 0.0,
			"-0.017": 0.0,
			"-0.016": 0.0,
			"-0.015": 0.0,
			"-0.014": 0.0,
			"-0.013": 0.0,
			"-0.012": 0.0,
			"-0.011": 0.0,
			"-0.01": 0.0,
			"-0.009": 0.596560500888,
			"-0.008": 5.37809029808,
			"-0.007": 12.3641242381,
			"-0.006": 17.8089558363,
			"-0.005": 17.078159419,
			"-0.004": 15.8875886239,
			"-0.003": 12.7281949515,
			"-0.002": 13.1558265229,
			"-0.001": 12.7198283637,
			"0.0": 13.0595668679,
			"0.001": 14.3686943846,
			"0.002": 19.6431751758,
			"0.003": 21.8496133133,
			"0.004": 31.0624489222,
			"0.005": 20.7416773987,
			"0.006": 11.936349425,
			"0.007": 6.51666191302,
			"0.008": 0.0,
			"0.009": 0.0,
			"0.01": 0.0,
			"0.011": 0.0,
			"0.012": 0.0,
			"0.013": 0.0,
			"0.014": 0.0,
			"0.015": 0.0,
			"0.016": 0.0,
			"0.017": 0.0,
			"0.018": 0.0,
			"0.019": 0.0,
			"0.02": 0.0,
			"0.021": 0.0,
			"0.022": 0.0,
			"0.023": 0.0,
			"0.024": 0.0,
			"0.025": 0.0
		}
	}
}
