{
	 "smiles": "OC(=O)C=CC1=CC=C(SC(F)(F)F)C=C1", 
	 "Tm": 486.15, 
	 "num_atms": 23, 
	 "gaussian": { 
		 "optdone": 1, 
		 "sigma_profile": "yes", 
		 "theory": "DFT", 
		 "functional": "B3LYP", 
		 "basiset": "6-31G**", 
		 "properties": { 
			 "R2extent": 8191.0792, 
			 "electric_dipole_moment_norm": 3.90233003858, 
			 "electric_quadrupole_moment_norm": 26.1519486721, 
			 "total_energy": -1233.42029638, 
			 "HOMO_LUMO_gap": 0.16527, 
			 "cosmo_polarized_energy": -16.4, 
			 "cosmo_cavitation_energy": 32.01, 
			 "cosmo_dispersion_energy": -22.82, 
			 "cosmo_repulsion_energy": 1.68, 
			 "cosmo_total_nonelectrostatic_energy": 10.87, 
			 "SMD_solvation_energy": 7.49 
		},
		"coords": [
			{
				"x": 0.8801487022,
				"y": 3.7541728342,
				"z": -1.3775328542,
				"element": "O" 
			},
			{
				"x": -0.0473531876,
				"y": 3.0579143036,
				"z": -2.0928986448,
				"element": "C" 
			},
			{
				"x": -0.4400227187,
				"y": 3.4809388534,
				"z": -3.1549758624,
				"element": "O" 
			},
			{
				"x": -0.52926394,
				"y": 1.7710879957,
				"z": -1.5243762197,
				"element": "C" 
			},
			{
				"x": 0.1579223368,
				"y": 1.0133448824,
				"z": -0.6498849355,
				"element": "C" 
			},
			{
				"x": -0.2321358701,
				"y": -0.2901861724,
				"z": -0.1035385312,
				"element": "C" 
			},
			{
				"x": 0.6719092207,
				"y": -0.9722299246,
				"z": 0.7288960624,
				"element": "C" 
			},
			{
				"x": 0.3570561429,
				"y": -2.2158898972,
				"z": 1.2709157063,
				"element": "C" 
			},
			{
				"x": -0.8852260039,
				"y": -2.7982659566,
				"z": 0.9998291041,
				"element": "C" 
			},
			{
				"x": -1.3082134235,
				"y": -4.3594138786,
				"z": 1.7748313998,
				"element": "S" 
			},
			{
				"x": -1.2988068229,
				"y": -5.4500835434,
				"z": 0.3099030845,
				"element": "C" 
			},
			{
				"x": -1.5779556031,
				"y": -6.6910423837,
				"z": 0.7369163551,
				"element": "F" 
			},
			{
				"x": -2.2234388877,
				"y": -5.1025085082,
				"z": -0.6049469693,
				"element": "F" 
			},
			{
				"x": -0.1126763504,
				"y": -5.4699434486,
				"z": -0.316051596,
				"element": "F" 
			},
			{
				"x": -1.8072881269,
				"y": -2.1230423434,
				"z": 0.184840668,
				"element": "C" 
			},
			{
				"x": -1.4786677134,
				"y": -0.8913046272,
				"z": -0.3659892807,
				"element": "C" 
			},
			{
				"x": 0.9470373544,
				"y": 3.3934218103,
				"z": -0.4827004241,
				"element": "H" 
			},
			{
				"x": -1.4667523493,
				"y": 1.4384583928,
				"z": -1.9579453983,
				"element": "H" 
			},
			{
				"x": 1.1339597667,
				"y": 1.3631279146,
				"z": -0.3113311018,
				"element": "H" 
			},
			{
				"x": 1.6396315084,
				"y": -0.5267560827,
				"z": 0.9438504103,
				"element": "H" 
			},
			{
				"x": 1.071838956,
				"y": -2.7365612092,
				"z": 1.8992172635,
				"element": "H" 
			},
			{
				"x": -2.7756623423,
				"y": -2.5676002922,
				"z": -0.0145075849,
				"element": "H" 
			},
			{
				"x": -2.2052406481,
				"y": -0.3864387189,
				"z": -0.9941206511,
				"element": "H" 
			}
		],
		 "valence_orbital": [ 
			{
				"type": "occ",
				"energy": -0.31814,
				"method": "rhf"
			},
			{
				"type": "occ",
				"energy": -0.28482,
				"method": "rhf"
			},
			{
				"type": "occ",
				"energy": -0.28122,
				"method": "rhf"
			},
			{
				"type": "occ",
				"energy": -0.2757,
				"method": "rhf"
			},
			{
				"type": "occ",
				"energy": -0.25458,
				"method": "rhf"
			},
			{
				"type": "unocc",
				"energy": -0.08931,
				"method": "rhf"
			},
			{
				"type": "unocc",
				"energy": -0.03483,
				"method": "rhf"
			},
			{
				"type": "unocc",
				"energy": -0.01629,
				"method": "rhf"
			},
			{
				"type": "unocc",
				"energy": 0.01104,
				"method": "rhf"
			},
			{
				"type": "unocc",
				"energy": 0.0467,
				"method": "rhf"
			}
		],
		"cosmo_sigma_profile": { 
			"-0.025": 0.0,
			"-0.024": 0.0,
			"-0.023": 0.0,
			"-0.022": 0.0,
			"-0.021": 0.0,
			"-0.02": 0.0,
			"-0.019": 0.365359729405,
			"-0.018": 0.575954993778,
			"-0.017": 1.3076190132,
			"-0.016": 0.881888743013,
			"-0.015": 0.512511225641,
			"-0.014": 1.15107100972,
			"-0.013": 1.25509594899,
			"-0.012": 1.28298581907,
			"-0.011": 1.08105677491,
			"-0.01": 1.46836033582,
			"-0.009": 4.32182039544,
			"-0.008": 6.47050308024,
			"-0.007": 8.58077247136,
			"-0.006": 11.1704244366,
			"-0.005": 8.77896817102,
			"-0.004": 7.85734551332,
			"-0.003": 12.1940460772,
			"-0.002": 14.054610801,
			"-0.001": 18.1670774831,
			"0.0": 23.0074838791,
			"0.001": 33.8669520858,
			"0.002": 49.7947762457,
			"0.003": 12.8651919375,
			"0.004": 4.35874911112,
			"0.005": 4.29871415061,
			"0.006": 2.51118122099,
			"0.007": 2.65310534772,
			"0.008": 2.95074749896,
			"0.009": 2.79561022666,
			"0.01": 4.89476962516,
			"0.011": 5.12981761084,
			"0.012": 6.0378602186,
			"0.013": 2.54160960167,
			"0.014": 0.135715521746,
			"0.015": 0.0,
			"0.016": 0.0,
			"0.017": 0.0,
			"0.018": 0.0,
			"0.019": 0.0,
			"0.02": 0.0,
			"0.021": 0.0,
			"0.022": 0.0,
			"0.023": 0.0,
			"0.024": 0.0,
			"0.025": 0.0
		}
	}
}
