{
	 "smiles": "CC(=O)C(C(=O)C1=CC=CC=C1)C1=C(C=C(C(Cl)=C1)[N+]([O-])=O)[N+]([O-])=O", 
	 "Tm": 404.15, 
	 "num_atms": 36, 
	 "gaussian": { 
		 "optdone": 1, 
		 "sigma_profile": "yes", 
		 "theory": "DFT", 
		 "functional": "B3LYP", 
		 "basiset": "6-31G**", 
		 "properties": { 
			 "R2extent": 11419.0954, 
			 "electric_dipole_moment_norm": 6.26512571223, 
			 "electric_quadrupole_moment_norm": 25.0520471425, 
			 "total_energy": -1637.14008057, 
			 "HOMO_LUMO_gap": 0.14805, 
			 "cosmo_polarized_energy": -23.27, 
			 "cosmo_cavitation_energy": 43.68, 
			 "cosmo_dispersion_energy": -30.0, 
			 "cosmo_repulsion_energy": 2.26, 
			 "cosmo_total_nonelectrostatic_energy": 15.94, 
			 "SMD_solvation_energy": 12.3 
		},
		"coords": [
			{
				"x": -2.274562638,
				"y": -1.9850323026,
				"z": -1.8309132263,
				"element": "C" 
			},
			{
				"x": -1.5175471869,
				"y": -1.8625698967,
				"z": -0.5255465563,
				"element": "C" 
			},
			{
				"x": -1.3251970773,
				"y": -2.8066432437,
				"z": 0.2066359862,
				"element": "O" 
			},
			{
				"x": -0.8480232842,
				"y": -0.483568181,
				"z": -0.2217544763,
				"element": "C" 
			},
			{
				"x": -0.5197482354,
				"y": -0.2985817619,
				"z": 1.2869352735,
				"element": "C" 
			},
			{
				"x": -1.1978990248,
				"y": 0.4653854031,
				"z": 1.9534195096,
				"element": "O" 
			},
			{
				"x": 0.6621556312,
				"y": -0.9926952105,
				"z": 1.8741671363,
				"element": "C" 
			},
			{
				"x": 0.9860745379,
				"y": -0.6833372946,
				"z": 3.2071794592,
				"element": "C" 
			},
			{
				"x": 2.0906998635,
				"y": -1.2659592078,
				"z": 3.8186593856,
				"element": "C" 
			},
			{
				"x": 2.8878836585,
				"y": -2.167614759,
				"z": 3.1072977794,
				"element": "C" 
			},
			{
				"x": 2.5721491292,
				"y": -2.4861714443,
				"z": 1.785123354,
				"element": "C" 
			},
			{
				"x": 1.4656576523,
				"y": -1.9033487368,
				"z": 1.1702935923,
				"element": "C" 
			},
			{
				"x": -1.5450445333,
				"y": 0.7407834168,
				"z": -0.7787567149,
				"element": "C" 
			},
			{
				"x": -2.7766253131,
				"y": 1.2626400234,
				"z": -0.334942713,
				"element": "C" 
			},
			{
				"x": -3.2899893441,
				"y": 2.4513201307,
				"z": -0.8334440967,
				"element": "C" 
			},
			{
				"x": -2.5959210015,
				"y": 3.1647094286,
				"z": -1.8045678352,
				"element": "C" 
			},
			{
				"x": -1.3758763221,
				"y": 2.67493151,
				"z": -2.2907062833,
				"element": "C" 
			},
			{
				"x": -0.4576068094,
				"y": 3.4341288006,
				"z": -3.5528076855,
				"element": "Cl" 
			},
			{
				"x": -0.8793915194,
				"y": 1.479864322,
				"z": -1.7627557814,
				"element": "C" 
			},
			{
				"x": -3.2137217865,
				"y": 4.4245337727,
				"z": -2.2594398153,
				"element": "N" 
			},
			{
				"x": -2.4712441348,
				"y": 5.3290093603,
				"z": -2.6226646916,
				"element": "O" 
			},
			{
				"x": -4.4411313418,
				"y": 4.4800309837,
				"z": -2.2135878298,
				"element": "O" 
			},
			{
				"x": -3.6332021876,
				"y": 0.5628622491,
				"z": 0.6391464639,
				"element": "N" 
			},
			{
				"x": -3.5619640644,
				"y": -0.6655046313,
				"z": 0.677193823,
				"element": "O" 
			},
			{
				"x": -4.4003346488,
				"y": 1.243191685,
				"z": 1.307835283,
				"element": "O" 
			},
			{
				"x": -1.680935352,
				"y": -1.6009648787,
				"z": -2.6681014529,
				"element": "H" 
			},
			{
				"x": -2.5182982987,
				"y": -3.0348106382,
				"z": -1.9981879576,
				"element": "H" 
			},
			{
				"x": -3.1983329336,
				"y": -1.4029259565,
				"z": -1.7823389247,
				"element": "H" 
			},
			{
				"x": 0.1113644648,
				"y": -0.5541969071,
				"z": -0.7511496,
				"element": "H" 
			},
			{
				"x": 0.3546749728,
				"y": 0.0190324133,
				"z": 3.7400096175,
				"element": "H" 
			},
			{
				"x": 2.3321815081,
				"y": -1.0196122718,
				"z": 4.8482524635,
				"element": "H" 
			},
			{
				"x": 3.7512575223,
				"y": -2.6233313465,
				"z": 3.5835249195,
				"element": "H" 
			},
			{
				"x": 3.1837990679,
				"y": -3.1939814668,
				"z": 1.2340769799,
				"element": "H" 
			},
			{
				"x": 1.2206804895,
				"y": -2.1884826717,
				"z": 0.1541400819,
				"element": "H" 
			},
			{
				"x": -4.236397109,
				"y": 2.8274477471,
				"z": -0.4684645929,
				"element": "H" 
			},
			{
				"x": 0.0753156488,
				"y": 1.1247615611,
				"z": -2.1351608747,
				"element": "H" 
			}
		],
		 "valence_orbital": [ 
			{
				"type": "occ",
				"energy": -0.29277,
				"method": "rhf"
			},
			{
				"type": "occ",
				"energy": -0.27791,
				"method": "rhf"
			},
			{
				"type": "occ",
				"energy": -0.27296,
				"method": "rhf"
			},
			{
				"type": "occ",
				"energy": -0.26871,
				"method": "rhf"
			},
			{
				"type": "occ",
				"energy": -0.26259,
				"method": "rhf"
			},
			{
				"type": "unocc",
				"energy": -0.11454,
				"method": "rhf"
			},
			{
				"type": "unocc",
				"energy": -0.09923,
				"method": "rhf"
			},
			{
				"type": "unocc",
				"energy": -0.07563,
				"method": "rhf"
			},
			{
				"type": "unocc",
				"energy": -0.04969,
				"method": "rhf"
			},
			{
				"type": "unocc",
				"energy": -0.03303,
				"method": "rhf"
			}
		],
		"cosmo_sigma_profile": { 
			"-0.025": 0.0,
			"-0.024": 0.0,
			"-0.023": 0.0,
			"-0.022": 0.0,
			"-0.021": 0.0,
			"-0.02": 0.0,
			"-0.019": 0.0,
			"-0.018": 0.0,
			"-0.017": 0.0,
			"-0.016": 0.0,
			"-0.015": 0.0,
			"-0.014": 0.0,
			"-0.013": 0.01031943374,
			"-0.012": 2.26695675204,
			"-0.011": 4.1619374032,
			"-0.01": 3.24256026987,
			"-0.009": 6.05236342434,
			"-0.008": 7.05776506122,
			"-0.007": 12.7828105146,
			"-0.006": 20.5034894953,
			"-0.005": 22.8742848131,
			"-0.004": 25.8651392644,
			"-0.003": 27.5184227303,
			"-0.002": 22.1809944221,
			"-0.001": 18.4585597289,
			"0.0": 16.7805284596,
			"0.001": 17.8065532488,
			"0.002": 23.1588639573,
			"0.003": 22.6169841807,
			"0.004": 18.7220222962,
			"0.005": 13.6431551487,
			"0.006": 17.1193900721,
			"0.007": 20.2235060742,
			"0.008": 12.0488150007,
			"0.009": 8.42523180698,
			"0.01": 4.90111037411,
			"0.011": 3.35630564023,
			"0.012": 1.14607087296,
			"0.013": 0.0182645933658,
			"0.014": 0.0,
			"0.015": 0.0,
			"0.016": 0.0,
			"0.017": 0.0,
			"0.018": 0.0,
			"0.019": 0.0,
			"0.02": 0.0,
			"0.021": 0.0,
			"0.022": 0.0,
			"0.023": 0.0,
			"0.024": 0.0,
			"0.025": 0.0
		}
	}
}
