{
	 "smiles": "[O-][N+](=O)C1=CC=CC=C1C(Br)C(Br)C1=NC=CC=C1", 
	 "Tm": 455.15, 
	 "num_atms": 29, 
	 "gaussian": { 
		 "optdone": 1, 
		 "sigma_profile": "yes", 
		 "theory": "DFT", 
		 "functional": "B3LYP", 
		 "basiset": "6-31G**", 
		 "properties": { 
			 "R2extent": 6928.7622, 
			 "electric_dipole_moment_norm": 4.99579732675, 
			 "electric_quadrupole_moment_norm": 24.0772566652, 
			 "total_energy": -5904.04235294, 
			 "HOMO_LUMO_gap": 0.15117, 
			 "cosmo_polarized_energy": -20.29, 
			 "cosmo_cavitation_energy": 36.97, 
			 "cosmo_dispersion_energy": -25.9, 
			 "cosmo_repulsion_energy": 1.99, 
			 "cosmo_total_nonelectrostatic_energy": 13.05, 
			 "SMD_solvation_energy": 4.98 
		},
		"coords": [
			{
				"x": 0.3259961495,
				"y": 0.1198872413,
				"z": 1.7372871328,
				"element": "O" 
			},
			{
				"x": 0.0236912608,
				"y": -0.9917555076,
				"z": 1.3204527414,
				"element": "N" 
			},
			{
				"x": 0.7460818064,
				"y": -1.9887310743,
				"z": 1.373549149,
				"element": "O" 
			},
			{
				"x": -1.3210994781,
				"y": -1.1686374118,
				"z": 0.7420246534,
				"element": "C" 
			},
			{
				"x": -1.9162586995,
				"y": -2.3962986859,
				"z": 1.0402855877,
				"element": "C" 
			},
			{
				"x": -3.2135556572,
				"y": -2.6687380923,
				"z": 0.6218550503,
				"element": "C" 
			},
			{
				"x": -3.9021176424,
				"y": -1.7076720051,
				"z": -0.1152972438,
				"element": "C" 
			},
			{
				"x": -3.2834606317,
				"y": -0.5002041037,
				"z": -0.43056659,
				"element": "C" 
			},
			{
				"x": -1.9785377727,
				"y": -0.1764220367,
				"z": -0.0153167666,
				"element": "C" 
			},
			{
				"x": -1.4600097218,
				"y": 1.1596340753,
				"z": -0.5353758971,
				"element": "C" 
			},
			{
				"x": -1.4519407403,
				"y": 2.5665399959,
				"z": 0.8627194716,
				"element": "Br" 
			},
			{
				"x": -0.209295054,
				"y": 1.0962503442,
				"z": -1.4468308825,
				"element": "C" 
			},
			{
				"x": -0.3128067348,
				"y": 2.6219056223,
				"z": -2.7416908271,
				"element": "Br" 
			},
			{
				"x": 1.1895125836,
				"y": 1.033433718,
				"z": -0.8787574203,
				"element": "C" 
			},
			{
				"x": 1.6490419284,
				"y": 2.1051394903,
				"z": -0.2216229511,
				"element": "N" 
			},
			{
				"x": 2.8798167815,
				"y": 2.045270492,
				"z": 0.284453593,
				"element": "C" 
			},
			{
				"x": 3.7198153109,
				"y": 0.9347175404,
				"z": 0.1528208246,
				"element": "C" 
			},
			{
				"x": 3.2472836056,
				"y": -0.1665607884,
				"z": -0.5531448386,
				"element": "C" 
			},
			{
				"x": 1.9594017069,
				"y": -0.1166809665,
				"z": -1.0870935044,
				"element": "C" 
			},
			{
				"x": -1.343406904,
				"y": -3.1180043228,
				"z": 1.6092752692,
				"element": "H" 
			},
			{
				"x": -3.6763111593,
				"y": -3.6180159843,
				"z": 0.8710474257,
				"element": "H" 
			},
			{
				"x": -4.9160551044,
				"y": -1.8951556151,
				"z": -0.4547666942,
				"element": "H" 
			},
			{
				"x": -3.8296679057,
				"y": 0.228396728,
				"z": -1.022015048,
				"element": "H" 
			},
			{
				"x": -2.247409835,
				"y": 1.5316457787,
				"z": -1.1848041572,
				"element": "H" 
			},
			{
				"x": -0.3666612194,
				"y": 0.2299575652,
				"z": -2.0927057156,
				"element": "H" 
			},
			{
				"x": 3.2203895957,
				"y": 2.9315061332,
				"z": 0.8170023961,
				"element": "H" 
			},
			{
				"x": 4.7147258721,
				"y": 0.9444947418,
				"z": 0.5861900415,
				"element": "H" 
			},
			{
				"x": 3.8642038065,
				"y": -1.0494396764,
				"z": -0.6901797758,
				"element": "H" 
			},
			{
				"x": 1.5598338524,
				"y": -0.9577631957,
				"z": -1.6457950237,
				"element": "H" 
			}
		],
		 "valence_orbital": [ 
			{
				"type": "occ",
				"energy": -0.27447,
				"method": "rhf"
			},
			{
				"type": "occ",
				"energy": -0.26836,
				"method": "rhf"
			},
			{
				"type": "occ",
				"energy": -0.25844,
				"method": "rhf"
			},
			{
				"type": "occ",
				"energy": -0.25641,
				"method": "rhf"
			},
			{
				"type": "occ",
				"energy": -0.24323,
				"method": "rhf"
			},
			{
				"type": "unocc",
				"energy": -0.09206,
				"method": "rhf"
			},
			{
				"type": "unocc",
				"energy": -0.05026,
				"method": "rhf"
			},
			{
				"type": "unocc",
				"energy": -0.04016,
				"method": "rhf"
			},
			{
				"type": "unocc",
				"energy": -0.02295,
				"method": "rhf"
			},
			{
				"type": "unocc",
				"energy": -0.01852,
				"method": "rhf"
			}
		],
		"cosmo_sigma_profile": { 
			"-0.025": 0.0,
			"-0.024": 0.0,
			"-0.023": 0.0,
			"-0.022": 0.0,
			"-0.021": 0.0,
			"-0.02": 0.0,
			"-0.019": 0.0,
			"-0.018": 0.0,
			"-0.017": 0.0,
			"-0.016": 0.0,
			"-0.015": 0.0,
			"-0.014": 0.0,
			"-0.013": 0.0,
			"-0.012": 0.0,
			"-0.011": 0.660679401105,
			"-0.01": 4.0164072618,
			"-0.009": 5.63904370536,
			"-0.008": 11.0824768185,
			"-0.007": 19.1393660662,
			"-0.006": 21.6215626038,
			"-0.005": 15.9488056731,
			"-0.004": 13.352498019,
			"-0.003": 15.8590469168,
			"-0.002": 14.3585683569,
			"-0.001": 15.3428609971,
			"0.0": 19.5363493534,
			"0.001": 24.3497893915,
			"0.002": 24.191276645,
			"0.003": 12.3968092376,
			"0.004": 14.1102587138,
			"0.005": 18.5867838273,
			"0.006": 14.2386633801,
			"0.007": 11.0792881578,
			"0.008": 10.2092331818,
			"0.009": 7.02562055239,
			"0.01": 2.50339781748,
			"0.011": 2.05247285988,
			"0.012": 1.75660818522,
			"0.013": 1.34469478315,
			"0.014": 1.19756506222,
			"0.015": 0.554921802232,
			"0.016": 0.0529457774354,
			"0.017": 0.0,
			"0.018": 0.0,
			"0.019": 0.0,
			"0.02": 0.0,
			"0.021": 0.0,
			"0.022": 0.0,
			"0.023": 0.0,
			"0.024": 0.0,
			"0.025": 0.0
		}
	}
}
