{
	 "smiles": "CC1=CC(NC(N)=S)=CC=C1", 
	 "Tm": 384.15, 
	 "num_atms": 21, 
	 "gaussian": { 
		 "optdone": 1, 
		 "sigma_profile": "yes", 
		 "theory": "DFT", 
		 "functional": "B3LYP", 
		 "basiset": "6-31G**", 
		 "properties": { 
			 "R2extent": 3099.7526, 
			 "electric_dipole_moment_norm": 5.80261405317, 
			 "electric_quadrupole_moment_norm": 24.3153441682, 
			 "total_energy": -818.59480736, 
			 "HOMO_LUMO_gap": 0.17402, 
			 "cosmo_polarized_energy": -16.37, 
			 "cosmo_cavitation_energy": 26.37, 
			 "cosmo_dispersion_energy": -19.91, 
			 "cosmo_repulsion_energy": 1.57, 
			 "cosmo_total_nonelectrostatic_energy": 8.03, 
			 "SMD_solvation_energy": 3.69 
		},
		"coords": [
			{
				"x": -2.1438877301,
				"y": -2.299350829,
				"z": 2.0625857414,
				"element": "C" 
			},
			{
				"x": -1.0613024563,
				"y": -1.8733834034,
				"z": 1.0989788068,
				"element": "C" 
			},
			{
				"x": -1.3611057301,
				"y": -1.0944700225,
				"z": -0.019554538,
				"element": "C" 
			},
			{
				"x": -0.3621129467,
				"y": -0.7006578109,
				"z": -0.9247227749,
				"element": "C" 
			},
			{
				"x": -0.7533965884,
				"y": 0.048890129,
				"z": -2.0610066472,
				"element": "N" 
			},
			{
				"x": -0.1375328222,
				"y": 1.1033907444,
				"z": -2.6804982054,
				"element": "C" 
			},
			{
				"x": 1.0240928997,
				"y": 1.5518618619,
				"z": -2.1339451428,
				"element": "N" 
			},
			{
				"x": -0.8023831033,
				"y": 1.7908891219,
				"z": -4.0637457683,
				"element": "S" 
			},
			{
				"x": 0.9628822485,
				"y": -1.1033826393,
				"z": -0.7092024371,
				"element": "C" 
			},
			{
				"x": 1.2687906438,
				"y": -1.8644886152,
				"z": 0.4214455184,
				"element": "C" 
			},
			{
				"x": 0.2746405203,
				"y": -2.2475043261,
				"z": 1.3170860324,
				"element": "C" 
			},
			{
				"x": -1.8987226111,
				"y": -2.0055375009,
				"z": 3.0893738565,
				"element": "H" 
			},
			{
				"x": -3.1086120285,
				"y": -1.8541066637,
				"z": 1.8067966825,
				"element": "H" 
			},
			{
				"x": -2.2663064009,
				"y": -3.3886823063,
				"z": 2.0622837145,
				"element": "H" 
			},
			{
				"x": -2.385444876,
				"y": -0.7751016101,
				"z": -0.195290804,
				"element": "H" 
			},
			{
				"x": -1.6619116031,
				"y": -0.1528827311,
				"z": -2.4552297911,
				"element": "H" 
			},
			{
				"x": 1.2590832208,
				"y": 1.3299839504,
				"z": -1.1760869041,
				"element": "H" 
			},
			{
				"x": 1.3766892102,
				"y": 2.4136712133,
				"z": -2.5199753952,
				"element": "H" 
			},
			{
				"x": 1.7333717629,
				"y": -0.8567614528,
				"z": -1.4307000437,
				"element": "H" 
			},
			{
				"x": 2.2959876836,
				"y": -2.176268721,
				"z": 0.5882335955,
				"element": "H" 
			},
			{
				"x": 0.5300807071,
				"y": -2.8463083884,
				"z": 2.1872745035,
				"element": "H" 
			}
		],
		 "valence_orbital": [ 
			{
				"type": "occ",
				"energy": -0.30274,
				"method": "rhf"
			},
			{
				"type": "occ",
				"energy": -0.2612,
				"method": "rhf"
			},
			{
				"type": "occ",
				"energy": -0.24551,
				"method": "rhf"
			},
			{
				"type": "occ",
				"energy": -0.20805,
				"method": "rhf"
			},
			{
				"type": "occ",
				"energy": -0.20375,
				"method": "rhf"
			},
			{
				"type": "unocc",
				"energy": -0.02973,
				"method": "rhf"
			},
			{
				"type": "unocc",
				"energy": -0.01718,
				"method": "rhf"
			},
			{
				"type": "unocc",
				"energy": 0.01733,
				"method": "rhf"
			},
			{
				"type": "unocc",
				"energy": 0.07075,
				"method": "rhf"
			},
			{
				"type": "unocc",
				"energy": 0.08586,
				"method": "rhf"
			}
		],
		"cosmo_sigma_profile": { 
			"-0.025": 0.0,
			"-0.024": 0.0,
			"-0.023": 0.0,
			"-0.022": 0.0,
			"-0.021": 0.0,
			"-0.02": 0.0,
			"-0.019": 0.0,
			"-0.018": 0.0,
			"-0.017": 0.0,
			"-0.016": 0.0,
			"-0.015": 0.243965124222,
			"-0.014": 1.91643656098,
			"-0.013": 3.17641328148,
			"-0.012": 2.99148988027,
			"-0.011": 4.15867856708,
			"-0.01": 2.51917787537,
			"-0.009": 2.3627837016,
			"-0.008": 3.78272026437,
			"-0.007": 3.07692231522,
			"-0.006": 6.92096025093,
			"-0.005": 11.9835265975,
			"-0.004": 16.6667907279,
			"-0.003": 15.8164734683,
			"-0.002": 15.7865771344,
			"-0.001": 14.2043825626,
			"0.0": 15.6606840413,
			"0.001": 12.1634349294,
			"0.002": 9.97792614904,
			"0.003": 10.4084786883,
			"0.004": 11.0051397675,
			"0.005": 11.528713073,
			"0.006": 4.36471467621,
			"0.007": 4.27318782437,
			"0.008": 2.36602849166,
			"0.009": 4.00920994327,
			"0.01": 4.95064032915,
			"0.011": 7.37389745205,
			"0.012": 7.23828098684,
			"0.013": 1.1525541718,
			"0.014": 0.0,
			"0.015": 0.0,
			"0.016": 0.0,
			"0.017": 0.0,
			"0.018": 0.0,
			"0.019": 0.0,
			"0.02": 0.0,
			"0.021": 0.0,
			"0.022": 0.0,
			"0.023": 0.0,
			"0.024": 0.0,
			"0.025": 0.0
		}
	}
}
