{
	 "smiles": "CC(O)(CN)C1=CC=CS1", 
	 "Tm": 329.15, 
	 "num_atms": 21, 
	 "gaussian": { 
		 "optdone": 1, 
		 "sigma_profile": "yes", 
		 "theory": "DFT", 
		 "functional": "B3LYP", 
		 "basiset": "6-31G**", 
		 "properties": { 
			 "R2extent": 2436.7338, 
			 "electric_dipole_moment_norm": 2.78346508331, 
			 "electric_quadrupole_moment_norm": 7.87386783862, 
			 "total_energy": -801.518050012, 
			 "HOMO_LUMO_gap": 0.21565, 
			 "cosmo_polarized_energy": -9.66, 
			 "cosmo_cavitation_energy": 24.66, 
			 "cosmo_dispersion_energy": -18.61, 
			 "cosmo_repulsion_energy": 1.47, 
			 "cosmo_total_nonelectrostatic_energy": 7.52, 
			 "SMD_solvation_energy": 3.77 
		},
		"coords": [
			{
				"x": 1.1090597129,
				"y": 1.1249711186,
				"z": -0.7066083227,
				"element": "C" 
			},
			{
				"x": -0.2890369657,
				"y": 1.0246916824,
				"z": -0.0640880393,
				"element": "C" 
			},
			{
				"x": -1.1746945737,
				"y": 1.9226521929,
				"z": -0.7176319631,
				"element": "O" 
			},
			{
				"x": -0.8768334146,
				"y": -0.4087267917,
				"z": -0.2210822276,
				"element": "C" 
			},
			{
				"x": -1.2360476293,
				"y": -0.6306455273,
				"z": -1.6288061997,
				"element": "N" 
			},
			{
				"x": -0.2596331547,
				"y": 1.4101842639,
				"z": 1.3996965246,
				"element": "C" 
			},
			{
				"x": -1.0733263238,
				"y": 2.3077361073,
				"z": 2.0370059446,
				"element": "C" 
			},
			{
				"x": -0.8100450729,
				"y": 2.4168124054,
				"z": 3.4377084381,
				"element": "C" 
			},
			{
				"x": 0.1997803505,
				"y": 1.5973255287,
				"z": 3.8555964071,
				"element": "C" 
			},
			{
				"x": 0.8552066829,
				"y": 0.6785663344,
				"z": 2.5345750948,
				"element": "S" 
			},
			{
				"x": 1.8349219507,
				"y": 0.4622848376,
				"z": -0.2226996782,
				"element": "H" 
			},
			{
				"x": 1.0551101192,
				"y": 0.864644895,
				"z": -1.7691822248,
				"element": "H" 
			},
			{
				"x": 1.4718024593,
				"y": 2.1525840613,
				"z": -0.6302417157,
				"element": "H" 
			},
			{
				"x": -1.5071301918,
				"y": 1.4011791434,
				"z": -1.473313884,
				"element": "H" 
			},
			{
				"x": -0.1785049734,
				"y": -1.1526537085,
				"z": 0.1891470571,
				"element": "H" 
			},
			{
				"x": -1.7945253088,
				"y": -0.4530380585,
				"z": 0.3719953896,
				"element": "H" 
			},
			{
				"x": -1.9749560966,
				"y": -1.3208718449,
				"z": -1.7112888627,
				"element": "H" 
			},
			{
				"x": -0.444418221,
				"y": -0.9735732232,
				"z": -2.1647001782,
				"element": "H" 
			},
			{
				"x": -1.8281719776,
				"y": 2.8698759359,
				"z": 1.5027954358,
				"element": "H" 
			},
			{
				"x": -1.3504741454,
				"y": 3.0815530325,
				"z": 4.1026757565,
				"element": "H" 
			},
			{
				"x": 0.6066167736,
				"y": 1.477347615,
				"z": 4.850047248,
				"element": "H" 
			}
		],
		 "valence_orbital": [ 
			{
				"type": "occ",
				"energy": -0.31757,
				"method": "rhf"
			},
			{
				"type": "occ",
				"energy": -0.26972,
				"method": "rhf"
			},
			{
				"type": "occ",
				"energy": -0.25486,
				"method": "rhf"
			},
			{
				"type": "occ",
				"energy": -0.24029,
				"method": "rhf"
			},
			{
				"type": "occ",
				"energy": -0.21712,
				"method": "rhf"
			},
			{
				"type": "unocc",
				"energy": -0.00147,
				"method": "rhf"
			},
			{
				"type": "unocc",
				"energy": 0.03649,
				"method": "rhf"
			},
			{
				"type": "unocc",
				"energy": 0.06304,
				"method": "rhf"
			},
			{
				"type": "unocc",
				"energy": 0.08271,
				"method": "rhf"
			},
			{
				"type": "unocc",
				"energy": 0.1,
				"method": "rhf"
			}
		],
		"cosmo_sigma_profile": { 
			"-0.025": 0.0,
			"-0.024": 0.0,
			"-0.023": 0.0,
			"-0.022": 0.0,
			"-0.021": 0.0,
			"-0.02": 0.0,
			"-0.019": 0.0,
			"-0.018": 0.0,
			"-0.017": 0.0,
			"-0.016": 0.0,
			"-0.015": 0.0,
			"-0.014": 0.0,
			"-0.013": 0.0,
			"-0.012": 0.0,
			"-0.011": 1.27304463949,
			"-0.01": 2.70527692522,
			"-0.009": 3.22250634478,
			"-0.008": 4.70438260086,
			"-0.007": 5.6903791256,
			"-0.006": 6.3176548549,
			"-0.005": 9.89098776015,
			"-0.004": 14.1958739494,
			"-0.003": 16.4884346724,
			"-0.002": 15.0342413731,
			"-0.001": 14.4938318543,
			"0.0": 15.2767059885,
			"0.001": 13.3369327435,
			"0.002": 12.2025040874,
			"0.003": 10.6691672929,
			"0.004": 11.8049210013,
			"0.005": 14.3004103439,
			"0.006": 8.8426388275,
			"0.007": 3.31550165422,
			"0.008": 2.95493190616,
			"0.009": 1.67334101072,
			"0.01": 1.93366093294,
			"0.011": 1.68650994496,
			"0.012": 1.11157345636,
			"0.013": 0.972430400916,
			"0.014": 0.770205957573,
			"0.015": 0.478999783913,
			"0.016": 0.0,
			"0.017": 0.0,
			"0.018": 0.0,
			"0.019": 0.0,
			"0.02": 0.0,
			"0.021": 0.0,
			"0.022": 0.0,
			"0.023": 0.0,
			"0.024": 0.0,
			"0.025": 0.0
		}
	}
}
