{
	 "smiles": "OC(=O)CCCCCCC#C", 
	 "Tm": 292.15, 
	 "num_atms": 25, 
	 "gaussian": { 
		 "optdone": 1, 
		 "sigma_profile": "yes", 
		 "theory": "DFT", 
		 "functional": "B3LYP", 
		 "basiset": "6-31G**", 
		 "properties": { 
			 "R2extent": 2598.8405, 
			 "electric_dipole_moment_norm": 2.29512865652, 
			 "electric_quadrupole_moment_norm": 3.13777039154, 
			 "total_energy": -501.799635692, 
			 "HOMO_LUMO_gap": 0.25692, 
			 "cosmo_polarized_energy": -10.75, 
			 "cosmo_cavitation_energy": 28.5, 
			 "cosmo_dispersion_energy": -19.4, 
			 "cosmo_repulsion_energy": 1.6, 
			 "cosmo_total_nonelectrostatic_energy": 10.69, 
			 "SMD_solvation_energy": 6.61 
		},
		"coords": [
			{
				"x": -0.6287493668,
				"y": 3.1615142706,
				"z": -2.0704001979,
				"element": "O" 
			},
			{
				"x": 0.1845553912,
				"y": 2.1161213131,
				"z": -1.7825570093,
				"element": "C" 
			},
			{
				"x": -0.0468747145,
				"y": 0.9919143055,
				"z": -2.1746953315,
				"element": "O" 
			},
			{
				"x": 1.3950872761,
				"y": 2.553799751,
				"z": -0.9849352454,
				"element": "C" 
			},
			{
				"x": 2.0844901711,
				"y": 1.4261226261,
				"z": -0.2020711004,
				"element": "C" 
			},
			{
				"x": 1.4744089547,
				"y": 1.132370054,
				"z": 1.181355604,
				"element": "C" 
			},
			{
				"x": 0.0445738477,
				"y": 0.5645478236,
				"z": 1.2063680027,
				"element": "C" 
			},
			{
				"x": -0.0854821632,
				"y": -0.8491066179,
				"z": 0.6261514524,
				"element": "C" 
			},
			{
				"x": -1.5288200323,
				"y": -1.3864168569,
				"z": 0.7294648675,
				"element": "C" 
			},
			{
				"x": -1.673476894,
				"y": -2.7562323398,
				"z": 0.2366366609,
				"element": "C" 
			},
			{
				"x": -1.7769095319,
				"y": -3.8893030316,
				"z": -0.1692762509,
				"element": "C" 
			},
			{
				"x": -1.3442382163,
				"y": 2.8021564739,
				"z": -2.6220822075,
				"element": "H" 
			},
			{
				"x": 2.0900395411,
				"y": 2.9771848839,
				"z": -1.7231196017,
				"element": "H" 
			},
			{
				"x": 1.1082656831,
				"y": 3.387977764,
				"z": -0.3354980587,
				"element": "H" 
			},
			{
				"x": 3.1322465515,
				"y": 1.7106585107,
				"z": -0.052101517,
				"element": "H" 
			},
			{
				"x": 2.0934098466,
				"y": 0.5244554203,
				"z": -0.8228937871,
				"element": "H" 
			},
			{
				"x": 2.1369073609,
				"y": 0.4299285274,
				"z": 1.7046727646,
				"element": "H" 
			},
			{
				"x": 1.4947097713,
				"y": 2.05942402,
				"z": 1.7709083216,
				"element": "H" 
			},
			{
				"x": -0.2976945954,
				"y": 0.5536428293,
				"z": 2.2504984132,
				"element": "H" 
			},
			{
				"x": -0.6414614056,
				"y": 1.2414130285,
				"z": 0.6790042857,
				"element": "H" 
			},
			{
				"x": 0.5880365452,
				"y": -1.5308167424,
				"z": 1.1607725481,
				"element": "H" 
			},
			{
				"x": 0.2131475166,
				"y": -0.8555777959,
				"z": -0.4257445261,
				"element": "H" 
			},
			{
				"x": -2.1999465341,
				"y": -0.7260409578,
				"z": 0.1636792226,
				"element": "H" 
			},
			{
				"x": -1.8657591338,
				"y": -1.3418546874,
				"z": 1.7746550462,
				"element": "H" 
			},
			{
				"x": -1.8701658692,
				"y": -4.8866825722,
				"z": -0.530792356,
				"element": "H" 
			}
		],
		 "valence_orbital": [ 
			{
				"type": "occ",
				"energy": -0.31956,
				"method": "rhf"
			},
			{
				"type": "occ",
				"energy": -0.31688,
				"method": "rhf"
			},
			{
				"type": "occ",
				"energy": -0.27833,
				"method": "rhf"
			},
			{
				"type": "occ",
				"energy": -0.25101,
				"method": "rhf"
			},
			{
				"type": "occ",
				"energy": -0.25092,
				"method": "rhf"
			},
			{
				"type": "unocc",
				"energy": 0.006,
				"method": "rhf"
			},
			{
				"type": "unocc",
				"energy": 0.06283,
				"method": "rhf"
			},
			{
				"type": "unocc",
				"energy": 0.06922,
				"method": "rhf"
			},
			{
				"type": "unocc",
				"energy": 0.07503,
				"method": "rhf"
			},
			{
				"type": "unocc",
				"energy": 0.0877,
				"method": "rhf"
			}
		],
		"cosmo_sigma_profile": { 
			"-0.025": 0.0,
			"-0.024": 0.0,
			"-0.023": 0.0,
			"-0.022": 0.0,
			"-0.021": 0.0,
			"-0.02": 0.0,
			"-0.019": 0.0,
			"-0.018": 0.418401449178,
			"-0.017": 1.13192833138,
			"-0.016": 0.591668610655,
			"-0.015": 0.750386668521,
			"-0.014": 0.814698926439,
			"-0.013": 0.330020483543,
			"-0.012": 1.13096825958,
			"-0.011": 1.37748099072,
			"-0.01": 2.16074462418,
			"-0.009": 1.29078040821,
			"-0.008": 1.11096256933,
			"-0.007": 3.14252803198,
			"-0.006": 5.03537160888,
			"-0.005": 7.83915249779,
			"-0.004": 13.1647721024,
			"-0.003": 21.6438347658,
			"-0.002": 29.3821071551,
			"-0.001": 26.8238922978,
			"0.0": 22.7329232267,
			"0.001": 14.2681966959,
			"0.002": 8.62259279528,
			"0.003": 6.46011410217,
			"0.004": 6.78766201799,
			"0.005": 7.71163064559,
			"0.006": 7.01531009367,
			"0.007": 10.8719579262,
			"0.008": 9.34267425067,
			"0.009": 2.59923565071,
			"0.01": 3.10625771282,
			"0.011": 2.14891081801,
			"0.012": 2.8985595203,
			"0.013": 0.295344046366,
			"0.014": 0.0,
			"0.015": 0.0,
			"0.016": 0.0,
			"0.017": 0.0,
			"0.018": 0.0,
			"0.019": 0.0,
			"0.02": 0.0,
			"0.021": 0.0,
			"0.022": 0.0,
			"0.023": 0.0,
			"0.024": 0.0,
			"0.025": 0.0
		}
	}
}
