{
	 "smiles": "CCOC(=O)C1=NC2=CC3=NC(C(=O)OCC)=C(OC(C)=O)C3=CC2=C1OC(C)=O", 
	 "Tm": 451.15, 
	 "num_atms": 48, 
	 "gaussian": { 
		 "optdone": 1, 
		 "sigma_profile": "yes", 
		 "theory": "DFT", 
		 "functional": "B3LYP", 
		 "basiset": "6-31G**", 
		 "properties": { 
			 "R2extent": 18475.5484, 
			 "electric_dipole_moment_norm": 6.42048551902, 
			 "electric_quadrupole_moment_norm": 30.1909671087, 
			 "total_energy": -1484.24199433, 
			 "HOMO_LUMO_gap": 0.0734, 
			 "cosmo_polarized_energy": -26.83, 
			 "cosmo_cavitation_energy": 55.95, 
			 "cosmo_dispersion_energy": -37.79, 
			 "cosmo_repulsion_energy": 2.89, 
			 "cosmo_total_nonelectrostatic_energy": 21.06, 
			 "SMD_solvation_energy": 10.39 
		},
		"coords": [
			{
				"x": 4.4783251812,
				"y": 3.9634034751,
				"z": 4.730803713,
				"element": "C" 
			},
			{
				"x": 3.9289029581,
				"y": 2.5500196124,
				"z": 4.7522366943,
				"element": "C" 
			},
			{
				"x": 3.1021947684,
				"y": 2.3913821468,
				"z": 3.5765244009,
				"element": "O" 
			},
			{
				"x": 2.5302449956,
				"y": 1.1859305414,
				"z": 3.4274292294,
				"element": "C" 
			},
			{
				"x": 2.6603450163,
				"y": 0.2633352989,
				"z": 4.211452206,
				"element": "O" 
			},
			{
				"x": 1.7224465936,
				"y": 1.1083108932,
				"z": 2.1814110387,
				"element": "C" 
			},
			{
				"x": 1.7060885569,
				"y": 2.054086853,
				"z": 1.2659750765,
				"element": "N" 
			},
			{
				"x": 0.8719266601,
				"y": 1.5975558825,
				"z": 0.2564699705,
				"element": "C" 
			},
			{
				"x": 0.5467650278,
				"y": 2.2939841249,
				"z": -0.886249398,
				"element": "C" 
			},
			{
				"x": -0.3505090668,
				"y": 1.6610128605,
				"z": -1.7897584083,
				"element": "C" 
			},
			{
				"x": -0.7984305287,
				"y": 2.1395660035,
				"z": -2.9492543496,
				"element": "N" 
			},
			{
				"x": -1.6397121366,
				"y": 1.1772331189,
				"z": -3.4818781159,
				"element": "C" 
			},
			{
				"x": -2.2686799542,
				"y": 1.4229422069,
				"z": -4.7973441829,
				"element": "C" 
			},
			{
				"x": -2.2311666484,
				"y": 2.4774091977,
				"z": -5.393235738,
				"element": "O" 
			},
			{
				"x": -2.8844734592,
				"y": 0.3056243581,
				"z": -5.2698338615,
				"element": "O" 
			},
			{
				"x": -3.5592966914,
				"y": 0.4465616435,
				"z": -6.5427831616,
				"element": "C" 
			},
			{
				"x": -2.6022451155,
				"y": 0.2288152581,
				"z": -7.7052734759,
				"element": "C" 
			},
			{
				"x": -1.7269461395,
				"y": 0.0672523591,
				"z": -2.6401096164,
				"element": "C" 
			},
			{
				"x": -2.3883674445,
				"y": -1.1087557754,
				"z": -2.7980484101,
				"element": "O" 
			},
			{
				"x": -3.7775259117,
				"y": -1.1167349346,
				"z": -2.9355397923,
				"element": "C" 
			},
			{
				"x": -4.2216878764,
				"y": -2.484631506,
				"z": -3.3705906086,
				"element": "C" 
			},
			{
				"x": -4.4634938877,
				"y": -0.160687955,
				"z": -2.7072066403,
				"element": "O" 
			},
			{
				"x": -0.8863489306,
				"y": 0.3452012467,
				"z": -1.5034508246,
				"element": "C" 
			},
			{
				"x": -0.5625758963,
				"y": -0.3566069258,
				"z": -0.368734474,
				"element": "C" 
			},
			{
				"x": 0.3343053881,
				"y": 0.278575374,
				"z": 0.548121991,
				"element": "C" 
			},
			{
				"x": 0.881522756,
				"y": -0.0305207766,
				"z": 1.7950757445,
				"element": "C" 
			},
			{
				"x": 0.7319019508,
				"y": -1.0552286705,
				"z": 2.6605408568,
				"element": "O" 
			},
			{
				"x": 0.3818167879,
				"y": -2.352720089,
				"z": 2.3253727628,
				"element": "C" 
			},
			{
				"x": 0.3805342606,
				"y": -3.1890062383,
				"z": 3.5732183962,
				"element": "C" 
			},
			{
				"x": 0.1361849386,
				"y": -2.7135997768,
				"z": 1.2043897683,
				"element": "O" 
			},
			{
				"x": 5.0772489306,
				"y": 4.135421116,
				"z": 3.8322324604,
				"element": "H" 
			},
			{
				"x": 5.1134416068,
				"y": 4.1272024027,
				"z": 5.6070230202,
				"element": "H" 
			},
			{
				"x": 3.667985516,
				"y": 4.6974682583,
				"z": 4.7491022163,
				"element": "H" 
			},
			{
				"x": 3.3197078642,
				"y": 2.3566994155,
				"z": 5.64119734,
				"element": "H" 
			},
			{
				"x": 4.7235903806,
				"y": 1.7972524802,
				"z": 4.729503991,
				"element": "H" 
			},
			{
				"x": 0.942966021,
				"y": 3.2846021274,
				"z": -1.0838095435,
				"element": "H" 
			},
			{
				"x": -4.0167602496,
				"y": 1.4372496599,
				"z": -6.5898317632,
				"element": "H" 
			},
			{
				"x": -4.3447137741,
				"y": -0.3132111273,
				"z": -6.5208760473,
				"element": "H" 
			},
			{
				"x": -2.1111400862,
				"y": -0.7461552396,
				"z": -7.6306132856,
				"element": "H" 
			},
			{
				"x": -3.1527553761,
				"y": 0.2651047486,
				"z": -8.6514143288,
				"element": "H" 
			},
			{
				"x": -1.8385257648,
				"y": 1.009718391,
				"z": -7.7222212648,
				"element": "H" 
			},
			{
				"x": -3.7709414016,
				"y": -3.2541376641,
				"z": -2.7385603931,
				"element": "H" 
			},
			{
				"x": -5.3085723105,
				"y": -2.5442017723,
				"z": -3.3279878328,
				"element": "H" 
			},
			{
				"x": -3.8790827701,
				"y": -2.6576959718,
				"z": -4.3954805311,
				"element": "H" 
			},
			{
				"x": -0.9408177918,
				"y": -1.3525879387,
				"z": -0.1769694555,
				"element": "H" 
			},
			{
				"x": 1.3336345987,
				"y": -3.0758830302,
				"z": 4.0964526419,
				"element": "H" 
			},
			{
				"x": 0.2021586526,
				"y": -4.2310280501,
				"z": 3.3113390426,
				"element": "H" 
			},
			{
				"x": -0.4033701982,
				"y": -2.8350276128,
				"z": 4.2503829425,
				"element": "H" 
			}
		],
		 "valence_orbital": [ 
			{
				"type": "occ",
				"energy": -0.27685,
				"method": "rhf"
			},
			{
				"type": "occ",
				"energy": -0.27078,
				"method": "rhf"
			},
			{
				"type": "occ",
				"energy": -0.26691,
				"method": "rhf"
			},
			{
				"type": "occ",
				"energy": -0.24754,
				"method": "rhf"
			},
			{
				"type": "occ",
				"energy": -0.22067,
				"method": "rhf"
			},
			{
				"type": "unocc",
				"energy": -0.14727,
				"method": "rhf"
			},
			{
				"type": "unocc",
				"energy": -0.07026,
				"method": "rhf"
			},
			{
				"type": "unocc",
				"energy": -0.03297,
				"method": "rhf"
			},
			{
				"type": "unocc",
				"energy": -0.01376,
				"method": "rhf"
			},
			{
				"type": "unocc",
				"energy": -0.003,
				"method": "rhf"
			}
		],
		"cosmo_sigma_profile": { 
			"-0.025": 0.0,
			"-0.024": 0.0,
			"-0.023": 0.0,
			"-0.022": 0.0,
			"-0.021": 0.0,
			"-0.02": 0.0,
			"-0.019": 0.0,
			"-0.018": 0.0,
			"-0.017": 0.0,
			"-0.016": 0.0,
			"-0.015": 0.0,
			"-0.014": 0.0,
			"-0.013": 0.0,
			"-0.012": 0.0,
			"-0.011": 0.0,
			"-0.01": 0.382634284644,
			"-0.009": 1.67800357754,
			"-0.008": 5.18387123268,
			"-0.007": 14.0349179714,
			"-0.006": 19.4561860196,
			"-0.005": 34.1899379753,
			"-0.004": 47.8813510179,
			"-0.003": 52.7303562329,
			"-0.002": 47.6908232792,
			"-0.001": 43.2686706488,
			"0.0": 34.5323576623,
			"0.001": 19.4876554535,
			"0.002": 12.9290487142,
			"0.003": 12.1761770926,
			"0.004": 11.5150835304,
			"0.005": 11.1099801536,
			"0.006": 11.9920635934,
			"0.007": 7.97243400459,
			"0.008": 8.203095166,
			"0.009": 11.0132749053,
			"0.01": 12.2912554972,
			"0.011": 10.5926389927,
			"0.012": 6.81525591504,
			"0.013": 3.19441032972,
			"0.014": 3.19140939522,
			"0.015": 2.29153846658,
			"0.016": 1.21640036251,
			"0.017": 0.0958731591542,
			"0.018": 0.0,
			"0.019": 0.0,
			"0.02": 0.0,
			"0.021": 0.0,
			"0.022": 0.0,
			"0.023": 0.0,
			"0.024": 0.0,
			"0.025": 0.0
		}
	}
}
