{
	 "smiles": "OC(=O)C1=CC=CC=C1SSC1=CC=CC=C1C(O)=O", 
	 "Tm": 561.15, 
	 "num_atms": 30, 
	 "gaussian": { 
		 "optdone": 1, 
		 "sigma_profile": "yes", 
		 "theory": "DFT", 
		 "functional": "B3LYP", 
		 "basiset": "6-31G**", 
		 "properties": { 
			 "R2extent": 5882.5655, 
			 "electric_dipole_moment_norm": 3.45038638561, 
			 "electric_quadrupole_moment_norm": 24.5514203705, 
			 "total_energy": -1636.8037767, 
			 "HOMO_LUMO_gap": 0.15978, 
			 "cosmo_polarized_energy": -18.36, 
			 "cosmo_cavitation_energy": 37.87, 
			 "cosmo_dispersion_energy": -26.72, 
			 "cosmo_repulsion_energy": 1.97, 
			 "cosmo_total_nonelectrostatic_energy": 13.12, 
			 "SMD_solvation_energy": 7.56 
		},
		"coords": [
			{
				"x": -0.1382549588,
				"y": 0.0779782902,
				"z": -3.6934283518,
				"element": "O" 
			},
			{
				"x": 0.8716630982,
				"y": 0.5442534685,
				"z": -2.90183182,
				"element": "C" 
			},
			{
				"x": 1.2431054493,
				"y": 1.6944677293,
				"z": -2.9609743831,
				"element": "O" 
			},
			{
				"x": 1.444737228,
				"y": -0.5322102985,
				"z": -2.0403275872,
				"element": "C" 
			},
			{
				"x": 1.4767474473,
				"y": -1.8378970072,
				"z": -2.5508654178,
				"element": "C" 
			},
			{
				"x": 2.0739138,
				"y": -2.8777647157,
				"z": -1.8408789372,
				"element": "C" 
			},
			{
				"x": 2.622834519,
				"y": -2.6253439895,
				"z": -0.5853697417,
				"element": "C" 
			},
			{
				"x": 2.5581613501,
				"y": -1.3409814296,
				"z": -0.0443902168,
				"element": "C" 
			},
			{
				"x": 1.9876134241,
				"y": -0.2812172245,
				"z": -0.7612726826,
				"element": "C" 
			},
			{
				"x": 2.0843458809,
				"y": 1.3168268431,
				"z": 0.0606893854,
				"element": "S" 
			},
			{
				"x": 0.1604562415,
				"y": 2.1531187383,
				"z": 0.0439023616,
				"element": "S" 
			},
			{
				"x": -0.6796395268,
				"y": 1.3873844343,
				"z": 1.443829263,
				"element": "C" 
			},
			{
				"x": -0.2722334307,
				"y": 1.748763964,
				"z": 2.7361692569,
				"element": "C" 
			},
			{
				"x": -0.9629390205,
				"y": 1.3014327307,
				"z": 3.8594095062,
				"element": "C" 
			},
			{
				"x": -2.1073211745,
				"y": 0.5160133905,
				"z": 3.7043866686,
				"element": "C" 
			},
			{
				"x": -2.5355037492,
				"y": 0.1689690597,
				"z": 2.4278536141,
				"element": "C" 
			},
			{
				"x": -1.8205636132,
				"y": 0.569149503,
				"z": 1.2868705121,
				"element": "C" 
			},
			{
				"x": -2.379812184,
				"y": 0.0648716523,
				"z": -0.0106039437,
				"element": "C" 
			},
			{
				"x": -1.4427458642,
				"y": -0.2192991547,
				"z": -0.9352952779,
				"element": "O" 
			},
			{
				"x": -3.563617496,
				"y": -0.1353183911,
				"z": -0.1961626123,
				"element": "O" 
			},
			{
				"x": -0.3957548123,
				"y": 0.8337108316,
				"z": -4.2482170431,
				"element": "H" 
			},
			{
				"x": 1.04139691,
				"y": -2.0253847396,
				"z": -3.5259371479,
				"element": "H" 
			},
			{
				"x": 2.1014103067,
				"y": -3.8770012111,
				"z": -2.2642905332,
				"element": "H" 
			},
			{
				"x": 3.0804841593,
				"y": -3.4272416995,
				"z": -0.0134923312,
				"element": "H" 
			},
			{
				"x": 2.9459818412,
				"y": -1.1506717756,
				"z": 0.9512105716,
				"element": "H" 
			},
			{
				"x": 0.5922942989,
				"y": 2.3945951129,
				"z": 2.8490497907,
				"element": "H" 
			},
			{
				"x": -0.6227738961,
				"y": 1.5866222394,
				"z": 4.8506601115,
				"element": "H" 
			},
			{
				"x": -2.6665250783,
				"y": 0.1822109052,
				"z": 4.5730937985,
				"element": "H" 
			},
			{
				"x": -3.4282908918,
				"y": -0.4297902916,
				"z": 2.2838560347,
				"element": "H" 
			},
			{
				"x": -1.903370258,
				"y": -0.5214469645,
				"z": -1.7362428474,
				"element": "H" 
			}
		],
		 "valence_orbital": [ 
			{
				"type": "occ",
				"energy": -0.26851,
				"method": "rhf"
			},
			{
				"type": "occ",
				"energy": -0.26561,
				"method": "rhf"
			},
			{
				"type": "occ",
				"energy": -0.26244,
				"method": "rhf"
			},
			{
				"type": "occ",
				"energy": -0.24429,
				"method": "rhf"
			},
			{
				"type": "occ",
				"energy": -0.22865,
				"method": "rhf"
			},
			{
				"type": "unocc",
				"energy": -0.06887,
				"method": "rhf"
			},
			{
				"type": "unocc",
				"energy": -0.04942,
				"method": "rhf"
			},
			{
				"type": "unocc",
				"energy": -0.03606,
				"method": "rhf"
			},
			{
				"type": "unocc",
				"energy": -0.01958,
				"method": "rhf"
			},
			{
				"type": "unocc",
				"energy": 0.00571,
				"method": "rhf"
			}
		],
		"cosmo_sigma_profile": { 
			"-0.025": 0.0,
			"-0.024": 0.0,
			"-0.023": 0.0,
			"-0.022": 0.0,
			"-0.021": 0.0,
			"-0.02": 0.0,
			"-0.019": 0.0286838410097,
			"-0.018": 0.841725384,
			"-0.017": 0.774546001824,
			"-0.016": 1.20628775867,
			"-0.015": 1.37563933811,
			"-0.014": 1.34177796444,
			"-0.013": 1.67752042788,
			"-0.012": 1.25441274901,
			"-0.011": 1.38662982097,
			"-0.01": 1.03117115567,
			"-0.009": 1.39582590125,
			"-0.008": 1.98326843187,
			"-0.007": 12.6772268802,
			"-0.006": 19.5345776106,
			"-0.005": 18.8892275779,
			"-0.004": 16.3612720225,
			"-0.003": 18.9998136398,
			"-0.002": 18.3262534139,
			"-0.001": 17.7088926393,
			"0.0": 18.2053941171,
			"0.001": 25.1034891356,
			"0.002": 33.6990096448,
			"0.003": 29.2061071437,
			"0.004": 13.2487092673,
			"0.005": 8.4288649433,
			"0.006": 9.41168427041,
			"0.007": 6.0248762434,
			"0.008": 3.61406923869,
			"0.009": 3.84225724553,
			"0.01": 4.48367877293,
			"0.011": 7.86827459944,
			"0.012": 6.26843081362,
			"0.013": 0.973589271967,
			"0.014": 0.0373357722483,
			"0.015": 0.0,
			"0.016": 0.0,
			"0.017": 0.0,
			"0.018": 0.0,
			"0.019": 0.0,
			"0.02": 0.0,
			"0.021": 0.0,
			"0.022": 0.0,
			"0.023": 0.0,
			"0.024": 0.0,
			"0.025": 0.0
		}
	}
}
