{
	 "smiles": "OC(=O)CNC(=O)C1=CC=C(Cl)C=C1", 
	 "Tm": 488.15, 
	 "num_atms": 22, 
	 "gaussian": { 
		 "optdone": 1, 
		 "sigma_profile": "yes", 
		 "theory": "DFT", 
		 "functional": "B3LYP", 
		 "basiset": "6-31G**", 
		 "properties": { 
			 "R2extent": 4507.2477, 
			 "electric_dipole_moment_norm": 4.93686443606, 
			 "electric_quadrupole_moment_norm": 22.3875686154, 
			 "total_energy": -1088.40851859, 
			 "HOMO_LUMO_gap": 0.20043, 
			 "cosmo_polarized_energy": -22.96, 
			 "cosmo_cavitation_energy": 29.24, 
			 "cosmo_dispersion_energy": -21.22, 
			 "cosmo_repulsion_energy": 1.69, 
			 "cosmo_total_nonelectrostatic_energy": 9.72, 
			 "SMD_solvation_energy": 5.77 
		},
		"coords": [
			{
				"x": 3.6929187779,
				"y": 2.3968368105,
				"z": 0.5963916816,
				"element": "O" 
			},
			{
				"x": 2.5749779449,
				"y": 2.6164221772,
				"z": -0.13128365,
				"element": "C" 
			},
			{
				"x": 2.2586567225,
				"y": 3.7296768642,
				"z": -0.4644921976,
				"element": "O" 
			},
			{
				"x": 1.7866531037,
				"y": 1.3608622648,
				"z": -0.5162011918,
				"element": "C" 
			},
			{
				"x": 0.5977967847,
				"y": 1.7391171328,
				"z": -1.2476791393,
				"element": "N" 
			},
			{
				"x": -0.6695887124,
				"y": 1.2122597844,
				"z": -1.0955912723,
				"element": "C" 
			},
			{
				"x": -1.6621254312,
				"y": 1.8781809847,
				"z": -1.3613478747,
				"element": "O" 
			},
			{
				"x": -0.7984080163,
				"y": -0.2112206542,
				"z": -0.6310974679,
				"element": "C" 
			},
			{
				"x": 0.0992238203,
				"y": -1.2255019528,
				"z": -0.9902835424,
				"element": "C" 
			},
			{
				"x": -0.1128140384,
				"y": -2.5429476303,
				"z": -0.5845060187,
				"element": "C" 
			},
			{
				"x": -1.2297637558,
				"y": -2.839731561,
				"z": 0.1959186766,
				"element": "C" 
			},
			{
				"x": -1.4943166296,
				"y": -4.4915236014,
				"z": 0.7261218101,
				"element": "Cl" 
			},
			{
				"x": -2.1460857685,
				"y": -1.8487093629,
				"z": 0.5543762746,
				"element": "C" 
			},
			{
				"x": -1.9312398288,
				"y": -0.5425268915,
				"z": 0.1255532629,
				"element": "C" 
			},
			{
				"x": 3.8031418007,
				"y": 1.4543053944,
				"z": 0.7899617196,
				"element": "H" 
			},
			{
				"x": 1.5376816617,
				"y": 0.7996343724,
				"z": 0.3928429797,
				"element": "H" 
			},
			{
				"x": 2.4634685218,
				"y": 0.7228073088,
				"z": -1.1067839124,
				"element": "H" 
			},
			{
				"x": 0.5819750596,
				"y": 2.7247921413,
				"z": -1.4977297814,
				"element": "H" 
			},
			{
				"x": 0.9526412639,
				"y": -1.0008483488,
				"z": -1.6220881054,
				"element": "H" 
			},
			{
				"x": 0.5722464742,
				"y": -3.3314690481,
				"z": -0.8754759086,
				"element": "H" 
			},
			{
				"x": -3.0151086632,
				"y": -2.1027443833,
				"z": 1.1509582765,
				"element": "H" 
			},
			{
				"x": -2.6431310917,
				"y": 0.2403281986,
				"z": 0.3644353807,
				"element": "H" 
			}
		],
		 "valence_orbital": [ 
			{
				"type": "occ",
				"energy": -0.3043,
				"method": "rhf"
			},
			{
				"type": "occ",
				"energy": -0.27992,
				"method": "rhf"
			},
			{
				"type": "occ",
				"energy": -0.27336,
				"method": "rhf"
			},
			{
				"type": "occ",
				"energy": -0.26592,
				"method": "rhf"
			},
			{
				"type": "occ",
				"energy": -0.25198,
				"method": "rhf"
			},
			{
				"type": "unocc",
				"energy": -0.05155,
				"method": "rhf"
			},
			{
				"type": "unocc",
				"energy": -0.02946,
				"method": "rhf"
			},
			{
				"type": "unocc",
				"energy": -0.01471,
				"method": "rhf"
			},
			{
				"type": "unocc",
				"energy": 0.0184,
				"method": "rhf"
			},
			{
				"type": "unocc",
				"energy": 0.0282,
				"method": "rhf"
			}
		],
		"cosmo_sigma_profile": { 
			"-0.025": 0.0,
			"-0.024": 0.0,
			"-0.023": 0.0,
			"-0.022": 0.0,
			"-0.021": 0.00208077179038,
			"-0.02": 1.03056997623,
			"-0.019": 0.986818453943,
			"-0.018": 1.7040124527,
			"-0.017": 1.16684149424,
			"-0.016": 1.51648592646,
			"-0.015": 1.14412654179,
			"-0.014": 0.860324317424,
			"-0.013": 1.20061134943,
			"-0.012": 1.22520669711,
			"-0.011": 1.64571220096,
			"-0.01": 2.34466711809,
			"-0.009": 4.79948808197,
			"-0.008": 7.965461115,
			"-0.007": 10.6655436376,
			"-0.006": 10.9729213354,
			"-0.005": 9.90281021433,
			"-0.004": 10.1230265866,
			"-0.003": 10.3353871972,
			"-0.002": 12.0555890531,
			"-0.001": 12.2381438025,
			"0.0": 12.9758531908,
			"0.001": 19.2740823126,
			"0.002": 21.2503060823,
			"0.003": 15.0914840057,
			"0.004": 14.0208506003,
			"0.005": 6.78108002161,
			"0.006": 4.39048165907,
			"0.007": 4.71651288009,
			"0.008": 4.36674281371,
			"0.009": 5.21973160082,
			"0.01": 7.30286538135,
			"0.011": 5.09849745282,
			"0.012": 3.83808148844,
			"0.013": 5.79509386373,
			"0.014": 1.85214832488,
			"0.015": 0.0,
			"0.016": 0.0,
			"0.017": 0.0,
			"0.018": 0.0,
			"0.019": 0.0,
			"0.02": 0.0,
			"0.021": 0.0,
			"0.022": 0.0,
			"0.023": 0.0,
			"0.024": 0.0,
			"0.0": 0.0
		}
	}
}
