{
	 "smiles": "CC1N=C(S)N2C(C)N=C(S)N12", 
	 "Tm": 456.15, 
	 "num_atms": 22, 
	 "gaussian": { 
		 "optdone": 1, 
		 "sigma_profile": "yes", 
		 "theory": "DFT", 
		 "functional": "B3LYP", 
		 "basiset": "6-31G**", 
		 "properties": { 
			 "R2extent": 3605.704, 
			 "electric_dipole_moment_norm": 0.230661180089, 
			 "electric_quadrupole_moment_norm": 4.30191452263, 
			 "total_energy": -1249.98339732, 
			 "HOMO_LUMO_gap": 0.2214, 
			 "cosmo_polarized_energy": -9.84, 
			 "cosmo_cavitation_energy": 27.71, 
			 "cosmo_dispersion_energy": -21.26, 
			 "cosmo_repulsion_energy": 1.62, 
			 "cosmo_total_nonelectrostatic_energy": 8.07, 
			 "SMD_solvation_energy": -4.53 
		},
		"coords": [
			{
				"x": -1.2480253565,
				"y": 2.7511972802,
				"z": 3.1130473922,
				"element": "C" 
			},
			{
				"x": -0.8636854783,
				"y": 2.6881233023,
				"z": 1.6443675774,
				"element": "C" 
			},
			{
				"x": -2.0161632989,
				"y": 2.8709851234,
				"z": 0.7561043348,
				"element": "N" 
			},
			{
				"x": -1.8094312256,
				"y": 2.0985922161,
				"z": -0.2406504693,
				"element": "C" 
			},
			{
				"x": -2.8302507643,
				"y": 1.9960235187,
				"z": -1.6853348235,
				"element": "S" 
			},
			{
				"x": -0.6154484212,
				"y": 1.3467793901,
				"z": -0.2253466642,
				"element": "N" 
			},
			{
				"x": -0.6241716432,
				"y": -0.1149445974,
				"z": -0.535783151,
				"element": "C" 
			},
			{
				"x": 0.6353902144,
				"y": -0.5192850726,
				"z": -1.2982643909,
				"element": "C" 
			},
			{
				"x": -0.689825245,
				"y": -0.779637177,
				"z": 0.7642491801,
				"element": "N" 
			},
			{
				"x": -0.459034009,
				"y": 0.1164488135,
				"z": 1.6491344389,
				"element": "C" 
			},
			{
				"x": -0.2312996295,
				"y": -0.2673162419,
				"z": 3.3677891286,
				"element": "S" 
			},
			{
				"x": -0.1947055377,
				"y": 1.4251761297,
				"z": 1.1743243961,
				"element": "N" 
			},
			{
				"x": -0.3776379481,
				"y": 2.627236158,
				"z": 3.763026999,
				"element": "H" 
			},
			{
				"x": -2.0020768515,
				"y": 2.0032792134,
				"z": 3.3659384517,
				"element": "H" 
			},
			{
				"x": -1.6752475993,
				"y": 3.7395760015,
				"z": 3.2999450316,
				"element": "H" 
			},
			{
				"x": -0.1425683655,
				"y": 3.4886600441,
				"z": 1.4272112042,
				"element": "H" 
			},
			{
				"x": -3.7242169444,
				"y": 2.8806479936,
				"z": -1.2057623528,
				"element": "H" 
			},
			{
				"x": -1.515620666,
				"y": -0.3484223759,
				"z": -1.1292049043,
				"element": "H" 
			},
			{
				"x": 1.5280252233,
				"y": -0.2448018676,
				"z": -0.7294944713,
				"element": "H" 
			},
			{
				"x": 0.6394732074,
				"y": -1.6010186052,
				"z": -1.4560559466,
				"element": "H" 
			},
			{
				"x": 0.6694217123,
				"y": -0.0161227964,
				"z": -2.2688803459,
				"element": "H" 
			},
			{
				"x": -0.2970013735,
				"y": -1.5931764506,
				"z": 3.1444393851,
				"element": "H" 
			}
		],
		 "valence_orbital": [ 
			{
				"type": "occ",
				"energy": -0.2816,
				"method": "rhf"
			},
			{
				"type": "occ",
				"energy": -0.27924,
				"method": "rhf"
			},
			{
				"type": "occ",
				"energy": -0.26139,
				"method": "rhf"
			},
			{
				"type": "occ",
				"energy": -0.2511,
				"method": "rhf"
			},
			{
				"type": "occ",
				"energy": -0.22445,
				"method": "rhf"
			},
			{
				"type": "unocc",
				"energy": -0.00305,
				"method": "rhf"
			},
			{
				"type": "unocc",
				"energy": 0.00172,
				"method": "rhf"
			},
			{
				"type": "unocc",
				"energy": 0.00919,
				"method": "rhf"
			},
			{
				"type": "unocc",
				"energy": 0.0133,
				"method": "rhf"
			},
			{
				"type": "unocc",
				"energy": 0.04172,
				"method": "rhf"
			}
		],
		"cosmo_sigma_profile": { 
			"-0.025": 0.0,
			"-0.024": 0.0,
			"-0.023": 0.0,
			"-0.022": 0.0,
			"-0.021": 0.0,
			"-0.02": 0.0,
			"-0.019": 0.0,
			"-0.018": 0.0,
			"-0.017": 0.0,
			"-0.016": 0.0,
			"-0.015": 0.0,
			"-0.014": 0.0,
			"-0.013": 0.106108459954,
			"-0.012": 1.89346158547,
			"-0.011": 3.00530614635,
			"-0.01": 2.3231920003,
			"-0.009": 2.21613855716,
			"-0.008": 2.59589851135,
			"-0.007": 2.31620981627,
			"-0.006": 7.2438507784,
			"-0.005": 12.7339001355,
			"-0.004": 19.7731777574,
			"-0.003": 19.9412935488,
			"-0.002": 17.5231086278,
			"-0.001": 21.100294699,
			"0.0": 19.2465403727,
			"0.001": 15.787477042,
			"0.002": 14.769178343,
			"0.003": 12.2135418,
			"0.004": 10.171359219,
			"0.005": 8.99614947079,
			"0.006": 7.68996248822,
			"0.007": 4.75275025935,
			"0.008": 3.75562902721,
			"0.009": 3.67181300125,
			"0.01": 2.27815555528,
			"0.011": 0.913421051031,
			"0.012": 2.42643640005,
			"0.013": 1.48674111149,
			"0.014": 1.61344297932,
			"0.015": 1.26377561948,
			"0.016": 0.0786919969567,
			"0.017": 0.0,
			"0.018": 0.0,
			"0.019": 0.0,
			"0.02": 0.0,
			"0.021": 0.0,
			"0.022": 0.0,
			"0.023": 0.0,
			"0.024": 0.0,
			"0.025": 0.0
		}
	}
}
