{
	 "smiles": "OC(=O)C1=NC(OCC(F)(F)F)=C2C=CC=CC2=C1", 
	 "Tm": 480.15, 
	 "num_atms": 27, 
	 "gaussian": { 
		 "optdone": 1, 
		 "sigma_profile": "yes", 
		 "theory": "DFT", 
		 "functional": "B3LYP", 
		 "basiset": "6-31G**", 
		 "properties": { 
			 "R2extent": 5557.7509, 
			 "electric_dipole_moment_norm": 6.22250022499, 
			 "electric_quadrupole_moment_norm": 19.941677794, 
			 "total_energy": -1042.07289786, 
			 "HOMO_LUMO_gap": 0.17026, 
			 "cosmo_polarized_energy": -14.04, 
			 "cosmo_cavitation_energy": 33.75, 
			 "cosmo_dispersion_energy": -23.51, 
			 "cosmo_repulsion_energy": 1.72, 
			 "cosmo_total_nonelectrostatic_energy": 11.97, 
			 "SMD_solvation_energy": 7.93 
		},
		"coords": [
			{
				"x": 2.5500961676,
				"y": -0.0486681712,
				"z": 2.426122685,
				"element": "O" 
			},
			{
				"x": 2.0999367266,
				"y": 1.1760862154,
				"z": 2.098695472,
				"element": "C" 
			},
			{
				"x": 2.4398328428,
				"y": 2.1778495363,
				"z": 2.6868385919,
				"element": "O" 
			},
			{
				"x": 1.1475877005,
				"y": 1.1857962517,
				"z": 0.9342765891,
				"element": "C" 
			},
			{
				"x": 0.8055401143,
				"y": -0.045553513,
				"z": 0.4402260186,
				"element": "N" 
			},
			{
				"x": 0.0037233229,
				"y": -0.1021272882,
				"z": -0.5880619657,
				"element": "C" 
			},
			{
				"x": -0.3820681474,
				"y": -1.3013793633,
				"z": -1.1016488913,
				"element": "O" 
			},
			{
				"x": 0.0269241986,
				"y": -2.4955244677,
				"z": -0.4504628986,
				"element": "C" 
			},
			{
				"x": 1.3052738775,
				"y": -3.0558024571,
				"z": -1.058524808,
				"element": "C" 
			},
			{
				"x": 1.1641797261,
				"y": -3.2849645568,
				"z": -2.3762726813,
				"element": "F" 
			},
			{
				"x": 2.3567997722,
				"y": -2.2329461591,
				"z": -0.8947820062,
				"element": "F" 
			},
			{
				"x": 1.5938866249,
				"y": -4.2296093626,
				"z": -0.4562850326,
				"element": "F" 
			},
			{
				"x": -0.5445591489,
				"y": 1.0505718952,
				"z": -1.2449175775,
				"element": "C" 
			},
			{
				"x": -1.4062205297,
				"y": 0.9667989143,
				"z": -2.3629677973,
				"element": "C" 
			},
			{
				"x": -1.8965201445,
				"y": 2.1208887242,
				"z": -2.9392857192,
				"element": "C" 
			},
			{
				"x": -1.5439193875,
				"y": 3.3873450391,
				"z": -2.4183977691,
				"element": "C" 
			},
			{
				"x": -0.7054476257,
				"y": 3.4902032292,
				"z": -1.3284172609,
				"element": "C" 
			},
			{
				"x": -0.1832245439,
				"y": 2.3246881361,
				"z": -0.7126572688,
				"element": "C" 
			},
			{
				"x": 0.6876629017,
				"y": 2.3650323354,
				"z": 0.4112412044,
				"element": "C" 
			},
			{
				"x": 2.1445494365,
				"y": -0.6731981337,
				"z": 1.7932310624,
				"element": "H" 
			},
			{
				"x": 0.1799641147,
				"y": -2.3397289258,
				"z": 0.6185199333,
				"element": "H" 
			},
			{
				"x": -0.7683321458,
				"y": -3.2255603386,
				"z": -0.6137981277,
				"element": "H" 
			},
			{
				"x": -1.6691126241,
				"y": -0.008405153,
				"z": -2.7558327856,
				"element": "H" 
			},
			{
				"x": -2.5571612969,
				"y": 2.0589925808,
				"z": -3.7985667345,
				"element": "H" 
			},
			{
				"x": -1.9385349961,
				"y": 4.2857256453,
				"z": -2.8837942262,
				"element": "H" 
			},
			{
				"x": -0.4332041807,
				"y": 4.4621694948,
				"z": -0.9277671917,
				"element": "H" 
			},
			{
				"x": 1.0013472443,
				"y": 3.3028198921,
				"z": 0.8552891859,
				"element": "H" 
			}
		],
		 "valence_orbital": [ 
			{
				"type": "occ",
				"energy": -0.30728,
				"method": "rhf"
			},
			{
				"type": "occ",
				"energy": -0.29948,
				"method": "rhf"
			},
			{
				"type": "occ",
				"energy": -0.28325,
				"method": "rhf"
			},
			{
				"type": "occ",
				"energy": -0.266,
				"method": "rhf"
			},
			{
				"type": "occ",
				"energy": -0.24099,
				"method": "rhf"
			},
			{
				"type": "unocc",
				"energy": -0.07073,
				"method": "rhf"
			},
			{
				"type": "unocc",
				"energy": -0.05937,
				"method": "rhf"
			},
			{
				"type": "unocc",
				"energy": 0.00484,
				"method": "rhf"
			},
			{
				"type": "unocc",
				"energy": 0.03352,
				"method": "rhf"
			},
			{
				"type": "unocc",
				"energy": 0.06989,
				"method": "rhf"
			}
		],
		"cosmo_sigma_profile": { 
			"-0.025": 0.0,
			"-0.024": 0.0,
			"-0.023": 0.0,
			"-0.022": 0.0,
			"-0.021": 0.0,
			"-0.02": 0.0,
			"-0.019": 0.0,
			"-0.018": 0.0,
			"-0.017": 0.0,
			"-0.016": 0.0,
			"-0.015": 0.0,
			"-0.014": 0.0,
			"-0.013": 0.0,
			"-0.012": 0.128830160016,
			"-0.011": 0.351809997218,
			"-0.01": 1.53260639788,
			"-0.009": 3.80880285268,
			"-0.008": 6.58123542929,
			"-0.007": 12.6021982368,
			"-0.006": 15.1256527464,
			"-0.005": 14.9468648546,
			"-0.004": 13.8964738403,
			"-0.003": 13.1928288685,
			"-0.002": 15.6000749253,
			"-0.001": 19.4532271709,
			"0.0": 22.7166788671,
			"0.001": 26.397781586,
			"0.002": 35.9871757503,
			"0.003": 33.8830797547,
			"0.004": 5.02242505122,
			"0.005": 2.8076624814,
			"0.006": 1.75631359279,
			"0.007": 2.49522990253,
			"0.008": 3.23925873606,
			"0.009": 3.32922067556,
			"0.01": 5.35080971327,
			"0.011": 4.55457324698,
			"0.012": 5.01454530324,
			"0.013": 1.63731247113,
			"0.014": 0.106260057971,
			"0.015": 0.0,
			"0.016": 0.0,
			"0.017": 0.0,
			"0.018": 0.0,
			"0.019": 0.0,
			"0.02": 0.0,
			"0.021": 0.0,
			"0.022": 0.0,
			"0.023": 0.0,
			"0.024": 0.0,
			"0.025": 0.0
		}
	}
}
