{
	 "smiles": "FC1=CC=CC(Cl)=C1COC1=CC=C(C=O)C=C1", 
	 "Tm": 349.15, 
	 "num_atms": 28, 
	 "gaussian": { 
		 "optdone": 1, 
		 "sigma_profile": "yes", 
		 "theory": "DFT", 
		 "functional": "B3LYP", 
		 "basiset": "6-31G**", 
		 "properties": { 
			 "R2extent": 6091.2527, 
			 "electric_dipole_moment_norm": 5.95549941567, 
			 "electric_quadrupole_moment_norm": 19.5138950423, 
			 "total_energy": -1249.97426849, 
			 "HOMO_LUMO_gap": 0.18283, 
			 "cosmo_polarized_energy": -11.65, 
			 "cosmo_cavitation_energy": 34.84, 
			 "cosmo_dispersion_energy": -24.6, 
			 "cosmo_repulsion_energy": 1.86, 
			 "cosmo_total_nonelectrostatic_energy": 12.1, 
			 "SMD_solvation_energy": 7.27 
		},
		"coords": [
			{
				"x": -2.2641060507,
				"y": -0.5441394288,
				"z": -1.3783721146,
				"element": "F" 
			},
			{
				"x": -2.3716627103,
				"y": 0.2173869087,
				"z": -0.2606403005,
				"element": "C" 
			},
			{
				"x": -3.2077099779,
				"y": -0.2341636193,
				"z": 0.7512552026,
				"element": "C" 
			},
			{
				"x": -3.3337188416,
				"y": 0.545824008,
				"z": 1.8986031032,
				"element": "C" 
			},
			{
				"x": -2.6397420881,
				"y": 1.7502964877,
				"z": 2.0143948566,
				"element": "C" 
			},
			{
				"x": -1.811063277,
				"y": 2.1665230677,
				"z": 0.9728878183,
				"element": "C" 
			},
			{
				"x": -0.9873906454,
				"y": 3.7065789421,
				"z": 1.1409285109,
				"element": "Cl" 
			},
			{
				"x": -1.637749846,
				"y": 1.405510547,
				"z": -0.1958782828,
				"element": "C" 
			},
			{
				"x": -0.7505993977,
				"y": 1.8425816655,
				"z": -1.3428189782,
				"element": "C" 
			},
			{
				"x": 0.631807816,
				"y": 1.9533926569,
				"z": -0.9905553166,
				"element": "O" 
			},
			{
				"x": 1.4239826853,
				"y": 0.8496397048,
				"z": -0.9024653241,
				"element": "C" 
			},
			{
				"x": 1.0158350942,
				"y": -0.4649649126,
				"z": -1.1681832034,
				"element": "C" 
			},
			{
				"x": 1.9476007458,
				"y": -1.496435888,
				"z": -1.0583453719,
				"element": "C" 
			},
			{
				"x": 3.2723121789,
				"y": -1.2445914048,
				"z": -0.6871984931,
				"element": "C" 
			},
			{
				"x": 4.2368392001,
				"y": -2.3519922997,
				"z": -0.5767296983,
				"element": "C" 
			},
			{
				"x": 5.4069637201,
				"y": -2.2296728195,
				"z": -0.2595617201,
				"element": "O" 
			},
			{
				"x": 3.6659137828,
				"y": 0.0802550105,
				"z": -0.4195842197,
				"element": "C" 
			},
			{
				"x": 2.755485483,
				"y": 1.1149304505,
				"z": -0.5244094299,
				"element": "C" 
			},
			{
				"x": -3.7389549016,
				"y": -1.1706192865,
				"z": 0.6259914154,
				"element": "H" 
			},
			{
				"x": -3.9798379834,
				"y": 0.218073053,
				"z": 2.7066778312,
				"element": "H" 
			},
			{
				"x": -2.7400467849,
				"y": 2.3685837955,
				"z": 2.8986653244,
				"element": "H" 
			},
			{
				"x": -0.8835214031,
				"y": 1.1746088186,
				"z": -2.1971194664,
				"element": "H" 
			},
			{
				"x": -1.0229300013,
				"y": 2.8546527977,
				"z": -1.6509915738,
				"element": "H" 
			},
			{
				"x": -0.0031753968,
				"y": -0.6944185934,
				"z": -1.4492523197,
				"element": "H" 
			},
			{
				"x": 1.6357016292,
				"y": -2.5182645871,
				"z": -1.263676815,
				"element": "H" 
			},
			{
				"x": 3.8136658285,
				"y": -3.3555800987,
				"z": -0.8113804675,
				"element": "H" 
			},
			{
				"x": 4.695696346,
				"y": 0.2658449991,
				"z": -0.1309463604,
				"element": "H" 
			},
			{
				"x": 3.035604796,
				"y": 2.1436600252,
				"z": -0.3236946065,
				"element": "H" 
			}
		],
		 "valence_orbital": [ 
			{
				"type": "occ",
				"energy": -0.27644,
				"method": "rhf"
			},
			{
				"type": "occ",
				"energy": -0.26313,
				"method": "rhf"
			},
			{
				"type": "occ",
				"energy": -0.26205,
				"method": "rhf"
			},
			{
				"type": "occ",
				"energy": -0.2446,
				"method": "rhf"
			},
			{
				"type": "occ",
				"energy": -0.23199,
				"method": "rhf"
			},
			{
				"type": "unocc",
				"energy": -0.04916,
				"method": "rhf"
			},
			{
				"type": "unocc",
				"energy": -0.0422,
				"method": "rhf"
			},
			{
				"type": "unocc",
				"energy": -0.02526,
				"method": "rhf"
			},
			{
				"type": "unocc",
				"energy": -0.01014,
				"method": "rhf"
			},
			{
				"type": "unocc",
				"energy": 0.01413,
				"method": "rhf"
			}
		],
		"cosmo_sigma_profile": { 
			"-0.025": 0.0,
			"-0.024": 0.0,
			"-0.023": 0.0,
			"-0.022": 0.0,
			"-0.021": 0.0,
			"-0.02": 0.0,
			"-0.019": 0.0,
			"-0.018": 0.0,
			"-0.017": 0.0,
			"-0.016": 0.0,
			"-0.015": 0.0,
			"-0.014": 0.0,
			"-0.013": 0.0,
			"-0.012": 0.0,
			"-0.011": 0.0,
			"-0.01": 0.0,
			"-0.009": 0.0420685094075,
			"-0.008": 3.34755863009,
			"-0.007": 14.2436840859,
			"-0.006": 18.4353805046,
			"-0.005": 19.501201126,
			"-0.004": 17.2707087351,
			"-0.003": 15.2207553039,
			"-0.002": 16.7636582411,
			"-0.001": 18.8393835185,
			"0.0": 23.7278856348,
			"0.001": 29.0575090042,
			"0.002": 29.6454584013,
			"0.003": 30.6962447268,
			"0.004": 16.4492647694,
			"0.005": 4.41253439696,
			"0.006": 3.62511370358,
			"0.007": 2.99455941457,
			"0.008": 3.90771285477,
			"0.009": 2.2895764495,
			"0.01": 2.64361767899,
			"0.011": 3.37012965385,
			"0.012": 4.50196725177,
			"0.013": 1.51545475453,
			"0.014": 0.16927628925,
			"0.015": 0.0,
			"0.016": 0.0,
			"0.017": 0.0,
			"0.018": 0.0,
			"0.019": 0.0,
			"0.02": 0.0,
			"0.021": 0.0,
			"0.022": 0.0,
			"0.023": 0.0,
			"0.024": 0.0,
			"0.025": 0.0
		}
	}
}
