{
	 "smiles": "[O-][N+](=O)C1=CC=C(NC2CCCC2)C=C1", 
	 "Tm": 360.15, 
	 "num_atms": 29, 
	 "gaussian": { 
		 "optdone": 1, 
		 "sigma_profile": "yes", 
		 "theory": "DFT", 
		 "functional": "B3LYP", 
		 "basiset": "6-31G**", 
		 "properties": { 
			 "R2extent": 5351.9823, 
			 "electric_dipole_moment_norm": 8.32350509882, 
			 "electric_quadrupole_moment_norm": 24.9713829138, 
			 "total_energy": -687.472211238, 
			 "HOMO_LUMO_gap": 0.14876, 
			 "cosmo_polarized_energy": -14.17, 
			 "cosmo_cavitation_energy": 31.73, 
			 "cosmo_dispersion_energy": -23.34, 
			 "cosmo_repulsion_energy": 1.83, 
			 "cosmo_total_nonelectrostatic_energy": 10.23, 
			 "SMD_solvation_energy": 6.34 
		},
		"coords": [
			{
				"x": 3.4945532861,
				"y": 2.0019089053,
				"z": -3.1806064297,
				"element": "O" 
			},
			{
				"x": 3.1033888916,
				"y": 0.877563313,
				"z": -3.5104515544,
				"element": "N" 
			},
			{
				"x": 3.4709257794,
				"y": 0.2880498728,
				"z": -4.5320339288,
				"element": "O" 
			},
			{
				"x": 2.1519285453,
				"y": 0.2054807498,
				"z": -2.6430516754,
				"element": "C" 
			},
			{
				"x": 1.708662266,
				"y": 0.8393183012,
				"z": -1.4810074946,
				"element": "C" 
			},
			{
				"x": 0.7965895792,
				"y": 0.2046240282,
				"z": -0.651802631,
				"element": "C" 
			},
			{
				"x": 0.3149029066,
				"y": -1.088556483,
				"z": -0.9685587433,
				"element": "C" 
			},
			{
				"x": -0.5654104553,
				"y": -1.758413293,
				"z": -0.1624923256,
				"element": "N" 
			},
			{
				"x": -1.15706132,
				"y": -1.2446467879,
				"z": 1.063244285,
				"element": "C" 
			},
			{
				"x": -2.2830652411,
				"y": -0.1693670761,
				"z": 0.8663759955,
				"element": "C" 
			},
			{
				"x": -3.5659108723,
				"y": -0.7905297225,
				"z": 1.4575711079,
				"element": "C" 
			},
			{
				"x": -3.0414518029,
				"y": -1.7460580616,
				"z": 2.5421530379,
				"element": "C" 
			},
			{
				"x": -1.8202094495,
				"y": -2.3901696436,
				"z": 1.8694681145,
				"element": "C" 
			},
			{
				"x": 0.7799605588,
				"y": -1.7057726062,
				"z": -2.1578206785,
				"element": "C" 
			},
			{
				"x": 1.6853703889,
				"y": -1.0692133243,
				"z": -2.9846091074,
				"element": "C" 
			},
			{
				"x": 2.0829305502,
				"y": 1.8283929333,
				"z": -1.2470094599,
				"element": "H" 
			},
			{
				"x": 0.4484117209,
				"y": 0.7131453627,
				"z": 0.2392006805,
				"element": "H" 
			},
			{
				"x": -0.9252730144,
				"y": -2.6339625381,
				"z": -0.5116655547,
				"element": "H" 
			},
			{
				"x": -0.3463546495,
				"y": -0.811018259,
				"z": 1.6607347575,
				"element": "H" 
			},
			{
				"x": -2.0204771305,
				"y": 0.7417692837,
				"z": 1.4157542363,
				"element": "H" 
			},
			{
				"x": -2.3866161484,
				"y": 0.1078837482,
				"z": -0.1860382866,
				"element": "H" 
			},
			{
				"x": -4.2643485559,
				"y": -0.0404859292,
				"z": 1.8402422196,
				"element": "H" 
			},
			{
				"x": -4.0978554313,
				"y": -1.3660462818,
				"z": 0.6895295663,
				"element": "H" 
			},
			{
				"x": -2.7293604022,
				"y": -1.1768650962,
				"z": 3.4271593894,
				"element": "H" 
			},
			{
				"x": -3.7811978533,
				"y": -2.4818910458,
				"z": 2.8716327121,
				"element": "H" 
			},
			{
				"x": -1.1258961775,
				"y": -2.8662735575,
				"z": 2.567249774,
				"element": "H" 
			},
			{
				"x": -2.1658409126,
				"y": -3.1688003462,
				"z": 1.17454453,
				"element": "H" 
			},
			{
				"x": 0.4193381337,
				"y": -2.6981684774,
				"z": -2.4160918577,
				"element": "H" 
			},
			{
				"x": 2.04486681,
				"y": -1.5364979689,
				"z": -3.8930206789,
				"element": "H" 
			}
		],
		 "valence_orbital": [ 
			{
				"type": "occ",
				"energy": -0.28747,
				"method": "rhf"
			},
			{
				"type": "occ",
				"energy": -0.28652,
				"method": "rhf"
			},
			{
				"type": "occ",
				"energy": -0.26782,
				"method": "rhf"
			},
			{
				"type": "occ",
				"energy": -0.26718,
				"method": "rhf"
			},
			{
				"type": "occ",
				"energy": -0.21423,
				"method": "rhf"
			},
			{
				"type": "unocc",
				"energy": -0.06547,
				"method": "rhf"
			},
			{
				"type": "unocc",
				"energy": -0.01468,
				"method": "rhf"
			},
			{
				"type": "unocc",
				"energy": 0.02724,
				"method": "rhf"
			},
			{
				"type": "unocc",
				"energy": 0.06309,
				"method": "rhf"
			},
			{
				"type": "unocc",
				"energy": 0.06488,
				"method": "rhf"
			}
		],
		"cosmo_sigma_profile": { 
			"-0.025": 0.0,
			"-0.024": 0.0,
			"-0.023": 0.0,
			"-0.022": 0.0,
			"-0.021": 0.0,
			"-0.02": 0.0,
			"-0.019": 0.0,
			"-0.018": 0.0,
			"-0.017": 0.0,
			"-0.016": 0.0,
			"-0.015": 0.0,
			"-0.014": 0.296337853841,
			"-0.013": 1.2633448548,
			"-0.012": 1.44630062288,
			"-0.011": 1.72662060987,
			"-0.01": 1.0711232339,
			"-0.009": 2.29079301479,
			"-0.008": 1.75301015596,
			"-0.007": 4.13649618544,
			"-0.006": 7.67489324696,
			"-0.005": 10.8650674277,
			"-0.004": 12.6873992505,
			"-0.003": 23.9191883867,
			"-0.002": 25.3600614319,
			"-0.001": 29.5464277172,
			"0.0": 27.9828865788,
			"0.001": 24.3301445528,
			"0.002": 14.6759035828,
			"0.003": 15.8952850105,
			"0.004": 7.89932008969,
			"0.005": 2.9411435112,
			"0.006": 3.25327421037,
			"0.007": 2.72402688639,
			"0.008": 5.13752104594,
			"0.009": 10.8553766426,
			"0.01": 4.7587812081,
			"0.011": 4.11918261597,
			"0.012": 1.25199312846,
			"0.013": 0.0,
			"0.014": 0.0,
			"0.015": 0.0,
			"0.016": 0.0,
			"0.017": 0.0,
			"0.018": 0.0,
			"0.019": 0.0,
			"0.02": 0.0,
			"0.021": 0.0,
			"0.022": 0.0,
			"0.023": 0.0,
			"0.024": 0.0,
			"0.025": 0.0
		}
	}
}
