{
	 "smiles": "CCN(CC)S(=O)(=O)C1=CC(NC(=O)CCl)=CC=C1", 
	 "Tm": 356.15, 
	 "num_atms": 36, 
	 "gaussian": { 
		 "optdone": 1, 
		 "sigma_profile": "yes", 
		 "theory": "DFT", 
		 "functional": "B3LYP", 
		 "basiset": "6-31G**", 
		 "properties": { 
			 "R2extent": 10215.5161, 
			 "electric_dipole_moment_norm": 4.28435524788, 
			 "electric_quadrupole_moment_norm": 28.2074157413, 
			 "total_energy": -1661.01956632, 
			 "HOMO_LUMO_gap": 0.19738, 
			 "cosmo_polarized_energy": -21.05, 
			 "cosmo_cavitation_energy": 41.45, 
			 "cosmo_dispersion_energy": -28.87, 
			 "cosmo_repulsion_energy": 2.21, 
			 "cosmo_total_nonelectrostatic_energy": 14.78, 
			 "SMD_solvation_energy": 6.18 
		},
		"coords": [
			{
				"x": -0.7011367175,
				"y": -1.4790671956,
				"z": 3.6136659102,
				"element": "C" 
			},
			{
				"x": -0.0236608432,
				"y": -0.5846536642,
				"z": 2.5736702851,
				"element": "C" 
			},
			{
				"x": -0.9722409591,
				"y": 0.3485814586,
				"z": 1.9410454348,
				"element": "N" 
			},
			{
				"x": -2.1053901983,
				"y": -0.1987187195,
				"z": 1.1737963348,
				"element": "C" 
			},
			{
				"x": -1.7271367387,
				"y": -1.0891512982,
				"z": -0.0152061119,
				"element": "C" 
			},
			{
				"x": -0.4549427781,
				"y": 1.9105545084,
				"z": 1.6203910108,
				"element": "S" 
			},
			{
				"x": -1.6461222065,
				"y": 2.6790300695,
				"z": 1.2479554897,
				"element": "O" 
			},
			{
				"x": 0.4081677599,
				"y": 2.3051803092,
				"z": 2.7360324392,
				"element": "O" 
			},
			{
				"x": 0.6016123507,
				"y": 1.8589657867,
				"z": 0.1561155281,
				"element": "C" 
			},
			{
				"x": 0.0484073082,
				"y": 2.169979031,
				"z": -1.0839809731,
				"element": "C" 
			},
			{
				"x": 0.8489331446,
				"y": 2.1096675163,
				"z": -2.2343427228,
				"element": "C" 
			},
			{
				"x": 0.24597147,
				"y": 2.404581277,
				"z": -3.4791661055,
				"element": "N" 
			},
			{
				"x": 0.6802480504,
				"y": 3.1270238996,
				"z": -4.5746565405,
				"element": "C" 
			},
			{
				"x": -0.0427222286,
				"y": 3.2690557803,
				"z": -5.5460309733,
				"element": "O" 
			},
			{
				"x": 2.0541388792,
				"y": 3.7882795419,
				"z": -4.5185695352,
				"element": "C" 
			},
			{
				"x": 3.2977603253,
				"y": 2.7817095639,
				"z": -5.3740933991,
				"element": "Cl" 
			},
			{
				"x": 2.1914022982,
				"y": 1.7188963042,
				"z": -2.1197627719,
				"element": "C" 
			},
			{
				"x": 2.7348261017,
				"y": 1.4500919235,
				"z": -0.862684583,
				"element": "C" 
			},
			{
				"x": 1.9501165747,
				"y": 1.5178613205,
				"z": 0.2876465156,
				"element": "C" 
			},
			{
				"x": 0.0547949472,
				"y": -2.0955837926,
				"z": 4.1102334905,
				"element": "H" 
			},
			{
				"x": -1.2059408108,
				"y": -0.8728302544,
				"z": 4.3708282988,
				"element": "H" 
			},
			{
				"x": -1.4344026416,
				"y": -2.1570613886,
				"z": 3.1666515939,
				"element": "H" 
			},
			{
				"x": 0.4808070364,
				"y": -1.2006624413,
				"z": 1.815009045,
				"element": "H" 
			},
			{
				"x": 0.7356683967,
				"y": 0.0212226217,
				"z": 3.069305149,
				"element": "H" 
			},
			{
				"x": -2.7264554399,
				"y": -0.7628425792,
				"z": 1.8780825712,
				"element": "H" 
			},
			{
				"x": -2.7078005797,
				"y": 0.6503017648,
				"z": 0.8480943604,
				"element": "H" 
			},
			{
				"x": -1.1241821487,
				"y": -0.5468108359,
				"z": -0.7489923667,
				"element": "H" 
			},
			{
				"x": -1.1648583752,
				"y": -1.9747000368,
				"z": 0.2968972701,
				"element": "H" 
			},
			{
				"x": -2.6368461771,
				"y": -1.4381274292,
				"z": -0.5147523186,
				"element": "H" 
			},
			{
				"x": -0.9866850291,
				"y": 2.4899970114,
				"z": -1.144341578,
				"element": "H" 
			},
			{
				"x": -0.728240238,
				"y": 2.1443774286,
				"z": -3.5811839255,
				"element": "H" 
			},
			{
				"x": 2.4183026139,
				"y": 3.9630522052,
				"z": -3.5070069366,
				"element": "H" 
			},
			{
				"x": 1.9823080587,
				"y": 4.7240744212,
				"z": -5.0698721197,
				"element": "H" 
			},
			{
				"x": 2.8037934965,
				"y": 1.6123377954,
				"z": -3.0077951762,
				"element": "H" 
			},
			{
				"x": 3.7813044772,
				"y": 1.1711809721,
				"z": -0.7860896407,
				"element": "H" 
			},
			{
				"x": 2.3728008205,
				"y": 1.3314071246,
				"z": 1.268007051,
				"element": "H" 
			}
		],
		 "valence_orbital": [ 
			{
				"type": "occ",
				"energy": -0.30417,
				"method": "rhf"
			},
			{
				"type": "occ",
				"energy": -0.28909,
				"method": "rhf"
			},
			{
				"type": "occ",
				"energy": -0.27435,
				"method": "rhf"
			},
			{
				"type": "occ",
				"energy": -0.25719,
				"method": "rhf"
			},
			{
				"type": "occ",
				"energy": -0.24869,
				"method": "rhf"
			},
			{
				"type": "unocc",
				"energy": -0.05131,
				"method": "rhf"
			},
			{
				"type": "unocc",
				"energy": -0.0462,
				"method": "rhf"
			},
			{
				"type": "unocc",
				"energy": -0.02132,
				"method": "rhf"
			},
			{
				"type": "unocc",
				"energy": 0.0464,
				"method": "rhf"
			},
			{
				"type": "unocc",
				"energy": 0.04903,
				"method": "rhf"
			}
		],
		"cosmo_sigma_profile": { 
			"-0.025": 0.0,
			"-0.024": 0.0,
			"-0.023": 0.0,
			"-0.022": 0.0,
			"-0.021": 0.0,
			"-0.02": 0.0,
			"-0.019": 0.0,
			"-0.018": 0.0,
			"-0.017": 0.0,
			"-0.016": 0.291776019535,
			"-0.015": 0.883730583913,
			"-0.014": 0.806743524014,
			"-0.013": 1.60216809692,
			"-0.012": 0.972826946417,
			"-0.011": 1.25712544641,
			"-0.01": 1.37312516535,
			"-0.009": 2.64593854734,
			"-0.008": 6.2048078156,
			"-0.007": 9.91563383006,
			"-0.006": 11.2847785637,
			"-0.005": 16.4673489721,
			"-0.004": 28.9740951339,
			"-0.003": 33.9450066015,
			"-0.002": 32.9272804037,
			"-0.001": 25.8550397429,
			"0.0": 28.7510028859,
			"0.001": 22.7269305001,
			"0.002": 16.4818726845,
			"0.003": 11.7442736799,
			"0.004": 11.012047066,
			"0.005": 13.6872329099,
			"0.006": 6.55497805455,
			"0.007": 3.96233013288,
			"0.008": 5.3547970633,
			"0.009": 4.60332780823,
			"0.01": 7.41635637626,
			"0.011": 9.67696914421,
			"0.012": 9.75354872232,
			"0.013": 2.92814773023,
			"0.014": 0.0668031501907,
			"0.015": 0.0,
			"0.016": 0.0,
			"0.017": 0.0,
			"0.018": 0.0,
			"0.019": 0.0,
			"0.02": 0.0,
			"0.021": 0.0,
			"0.022": 0.0,
			"0.023": 0.0,
			"0.024": 0.0,
			"0.025": 0.0
		}
	}
}
