{
	 "smiles": "CC1=CC=C(C=C1)N1C(S)=NN=C1N1CCOCC1", 
	 "Tm": 290.15, 
	 "num_atms": 35, 
	 "gaussian": { 
		 "optdone": 1, 
		 "sigma_profile": "yes", 
		 "theory": "DFT", 
		 "functional": "B3LYP", 
		 "basiset": "6-31G**", 
		 "properties": { 
			 "R2extent": 6062.258, 
			 "electric_dipole_moment_norm": 5.47216722332, 
			 "electric_quadrupole_moment_norm": 7.75446138877, 
			 "total_energy": -1197.39073454, 
			 "HOMO_LUMO_gap": 0.17503, 
			 "cosmo_polarized_energy": -16.67, 
			 "cosmo_cavitation_energy": 38.84, 
			 "cosmo_dispersion_energy": -27.61, 
			 "cosmo_repulsion_energy": 2.11, 
			 "cosmo_total_nonelectrostatic_energy": 13.34, 
			 "SMD_solvation_energy": 3.28 
		},
		"coords": [
			{
				"x": -5.12973622,
				"y": -1.209343555,
				"z": -0.7122108117,
				"element": "C" 
			},
			{
				"x": -3.6289562223,
				"y": -1.1478314644,
				"z": -0.5567418977,
				"element": "C" 
			},
			{
				"x": -3.0441379065,
				"y": -0.4420033379,
				"z": 0.5054692621,
				"element": "C" 
			},
			{
				"x": -1.6631821937,
				"y": -0.4115556209,
				"z": 0.682081617,
				"element": "C" 
			},
			{
				"x": -0.8362113465,
				"y": -1.0793451997,
				"z": -0.2269309062,
				"element": "C" 
			},
			{
				"x": -1.3960925055,
				"y": -1.7750445277,
				"z": -1.301591343,
				"element": "C" 
			},
			{
				"x": -2.7819851113,
				"y": -1.8116088691,
				"z": -1.453330425,
				"element": "C" 
			},
			{
				"x": 0.5827029105,
				"y": -1.0527270245,
				"z": -0.0512296442,
				"element": "N" 
			},
			{
				"x": 1.4104143454,
				"y": -2.1196929883,
				"z": 0.2590572852,
				"element": "C" 
			},
			{
				"x": 0.8369878115,
				"y": -3.7938413301,
				"z": 0.288968956,
				"element": "S" 
			},
			{
				"x": 2.6222910826,
				"y": -1.7189632425,
				"z": 0.5286583502,
				"element": "N" 
			},
			{
				"x": 2.6384460727,
				"y": -0.3372213881,
				"z": 0.3841305726,
				"element": "N" 
			},
			{
				"x": 1.4279381997,
				"y": 0.0475048818,
				"z": 0.0550450583,
				"element": "C" 
			},
			{
				"x": 0.9936764993,
				"y": 1.3518304925,
				"z": -0.1325749334,
				"element": "N" 
			},
			{
				"x": 1.9332450669,
				"y": 2.3964406042,
				"z": 0.3279028157,
				"element": "C" 
			},
			{
				"x": 2.6460106779,
				"y": 3.0617663247,
				"z": -0.8441117744,
				"element": "C" 
			},
			{
				"x": 1.7313876766,
				"y": 3.6641374057,
				"z": -1.7683199653,
				"element": "O" 
			},
			{
				"x": 0.4078540212,
				"y": 3.1560667778,
				"z": -1.6953590563,
				"element": "C" 
			},
			{
				"x": 0.3654428337,
				"y": 1.6527763171,
				"z": -1.4428374158,
				"element": "C" 
			},
			{
				"x": -5.6041519006,
				"y": -0.2759871536,
				"z": -0.3943954355,
				"element": "H" 
			},
			{
				"x": -5.5554333998,
				"y": -2.0144729658,
				"z": -0.1005924757,
				"element": "H" 
			},
			{
				"x": -5.4175221884,
				"y": -1.4011431306,
				"z": -1.7497789305,
				"element": "H" 
			},
			{
				"x": -3.6807078939,
				"y": 0.084147276,
				"z": 1.2120845161,
				"element": "H" 
			},
			{
				"x": -1.2195602551,
				"y": 0.1324002398,
				"z": 1.5087847093,
				"element": "H" 
			},
			{
				"x": -0.7489466841,
				"y": -2.2766442498,
				"z": -2.0138447002,
				"element": "H" 
			},
			{
				"x": -3.2095423516,
				"y": -2.357839364,
				"z": -2.2898218545,
				"element": "H" 
			},
			{
				"x": 2.0416955877,
				"y": -4.2518359019,
				"z": 0.6800255868,
				"element": "H" 
			},
			{
				"x": 1.3744609439,
				"y": 3.1476704082,
				"z": 0.8992317729,
				"element": "H" 
			},
			{
				"x": 2.6653622097,
				"y": 1.935520955,
				"z": 0.9912374169,
				"element": "H" 
			},
			{
				"x": 3.2617152303,
				"y": 2.3152052629,
				"z": -1.3654201693,
				"element": "H" 
			},
			{
				"x": 3.3110349837,
				"y": 3.854505992,
				"z": -0.4824483592,
				"element": "H" 
			},
			{
				"x": -0.0658070412,
				"y": 3.3763976448,
				"z": -2.6570894928,
				"element": "H" 
			},
			{
				"x": -0.1725036366,
				"y": 3.6747795787,
				"z": -0.9154148542,
				"element": "H" 
			},
			{
				"x": -0.6743685502,
				"y": 1.3106033275,
				"z": -1.4517082937,
				"element": "H" 
			},
			{
				"x": 0.8966792539,
				"y": 1.1393478255,
				"z": -2.2579251808,
				"element": "H" 
			}
		],
		 "valence_orbital": [ 
			{
				"type": "occ",
				"energy": -0.2672,
				"method": "rhf"
			},
			{
				"type": "occ",
				"energy": -0.25303,
				"method": "rhf"
			},
			{
				"type": "occ",
				"energy": -0.24889,
				"method": "rhf"
			},
			{
				"type": "occ",
				"energy": -0.24274,
				"method": "rhf"
			},
			{
				"type": "occ",
				"energy": -0.20224,
				"method": "rhf"
			},
			{
				"type": "unocc",
				"energy": -0.02721,
				"method": "rhf"
			},
			{
				"type": "unocc",
				"energy": -0.02399,
				"method": "rhf"
			},
			{
				"type": "unocc",
				"energy": 0.01833,
				"method": "rhf"
			},
			{
				"type": "unocc",
				"energy": 0.03168,
				"method": "rhf"
			},
			{
				"type": "unocc",
				"energy": 0.05292,
				"method": "rhf"
			}
		],
		"cosmo_sigma_profile": { 
			"-0.025": 0.0,
			"-0.024": 0.0,
			"-0.023": 0.0,
			"-0.022": 0.0,
			"-0.021": 0.0,
			"-0.02": 0.0,
			"-0.019": 0.0,
			"-0.018": 0.0,
			"-0.017": 0.0,
			"-0.016": 0.0,
			"-0.015": 0.0,
			"-0.014": 0.0,
			"-0.013": 0.0,
			"-0.012": 0.768651303536,
			"-0.011": 1.7435277046,
			"-0.01": 1.02405473044,
			"-0.009": 1.22748964726,
			"-0.008": 1.29510938054,
			"-0.007": 2.80629097055,
			"-0.006": 10.2903120574,
			"-0.005": 29.3727297682,
			"-0.004": 38.0893821528,
			"-0.003": 30.4046993562,
			"-0.002": 29.0248331133,
			"-0.001": 26.6779063908,
			"0.0": 21.9997472969,
			"0.001": 16.533731717,
			"0.002": 20.6275620691,
			"0.003": 17.8017217082,
			"0.004": 13.5150233915,
			"0.005": 7.26037693906,
			"0.006": 5.69167706266,
			"0.007": 4.25686352099,
			"0.008": 2.58302941665,
			"0.009": 2.77247149898,
			"0.01": 4.07388231794,
			"0.011": 2.58430201084,
			"0.012": 3.55148798104,
			"0.013": 5.30067788509,
			"0.014": 4.09314418288,
			"0.015": 2.3058055146,
			"0.016": 1.78095413905,
			"0.017": 0.120327284842,
			"0.018": 0.0,
			"0.019": 0.0,
			"0.02": 0.0,
			"0.021": 0.0,
			"0.022": 0.0,
			"0.023": 0.0,
			"0.024": 0.0,
			"0.025": 0.0
		}
	}
}
