{
	 "smiles": "CC1=CC(F)=CC=C1C#N", 
	 "Tm": 345.15, 
	 "num_atms": 16, 
	 "gaussian": { 
		 "optdone": 1, 
		 "sigma_profile": "yes", 
		 "theory": "DFT", 
		 "functional": "B3LYP", 
		 "basiset": "6-31G**", 
		 "properties": { 
			 "R2extent": 2079.9421, 
			 "electric_dipole_moment_norm": 2.97164328108, 
			 "electric_quadrupole_moment_norm": 15.4170826381, 
			 "total_energy": -463.044351169, 
			 "HOMO_LUMO_gap": 0.20795, 
			 "cosmo_polarized_energy": -8.09, 
			 "cosmo_cavitation_energy": 21.66, 
			 "cosmo_dispersion_energy": -15.14, 
			 "cosmo_repulsion_energy": 1.2, 
			 "cosmo_total_nonelectrostatic_energy": 7.72, 
			 "SMD_solvation_energy": 5.58 
		},
		"coords": [
			{
				"x": 0.9522524463,
				"y": -1.3333697632,
				"z": -1.6086056769,
				"element": "C" 
			},
			{
				"x": 1.2665612863,
				"y": -0.1635287429,
				"z": -0.7113148559,
				"element": "C" 
			},
			{
				"x": 1.2893318016,
				"y": 1.1397712674,
				"z": -1.2106458433,
				"element": "C" 
			},
			{
				"x": 1.5817545061,
				"y": 2.2055987941,
				"z": -0.3655103162,
				"element": "C" 
			},
			{
				"x": 1.5954308233,
				"y": 3.448591931,
				"z": -0.8784568633,
				"element": "F" 
			},
			{
				"x": 1.8594694529,
				"y": 2.0324566165,
				"z": 0.9859545409,
				"element": "C" 
			},
			{
				"x": 1.8402402402,
				"y": 0.7395402156,
				"z": 1.496713675,
				"element": "C" 
			},
			{
				"x": 1.5476241604,
				"y": -0.3533362824,
				"z": 0.663246004,
				"element": "C" 
			},
			{
				"x": 1.5351983129,
				"y": -1.6744815894,
				"z": 1.218175305,
				"element": "C" 
			},
			{
				"x": 1.5229771449,
				"y": -2.7504006207,
				"z": 1.6617754389,
				"element": "N" 
			},
			{
				"x": 0.0710869818,
				"y": -1.8780003687,
				"z": -1.2528495611,
				"element": "H" 
			},
			{
				"x": 1.7797148211,
				"y": -2.0507517908,
				"z": -1.6261257598,
				"element": "H" 
			},
			{
				"x": 0.7619612868,
				"y": -1.0036112691,
				"z": -2.6322619454,
				"element": "H" 
			},
			{
				"x": 1.0810269663,
				"y": 1.3388166954,
				"z": -2.2565295081,
				"element": "H" 
			},
			{
				"x": 2.0823558562,
				"y": 2.891254716,
				"z": 1.608467236,
				"element": "H" 
			},
			{
				"x": 2.0518139129,
				"y": 0.5647501913,
				"z": 2.54616813,
				"element": "H" 
			}
		],
		 "valence_orbital": [ 
			{
				"type": "occ",
				"energy": -0.35906,
				"method": "rhf"
			},
			{
				"type": "occ",
				"energy": -0.3427,
				"method": "rhf"
			},
			{
				"type": "occ",
				"energy": -0.33167,
				"method": "rhf"
			},
			{
				"type": "occ",
				"energy": -0.27738,
				"method": "rhf"
			},
			{
				"type": "occ",
				"energy": -0.25826,
				"method": "rhf"
			},
			{
				"type": "unocc",
				"energy": -0.05031,
				"method": "rhf"
			},
			{
				"type": "unocc",
				"energy": -0.02964,
				"method": "rhf"
			},
			{
				"type": "unocc",
				"energy": 0.03368,
				"method": "rhf"
			},
			{
				"type": "unocc",
				"energy": 0.07272,
				"method": "rhf"
			},
			{
				"type": "unocc",
				"energy": 0.07821,
				"method": "rhf"
			}
		],
		"cosmo_sigma_profile": { 
			"-0.025": 0.0,
			"-0.024": 0.0,
			"-0.023": 0.0,
			"-0.022": 0.0,
			"-0.021": 0.0,
			"-0.02": 0.0,
			"-0.019": 0.0,
			"-0.018": 0.0,
			"-0.017": 0.0,
			"-0.016": 0.0,
			"-0.015": 0.0,
			"-0.014": 0.0,
			"-0.013": 0.0,
			"-0.012": 0.0,
			"-0.011": 0.0,
			"-0.01": 0.0,
			"-0.009": 0.552779839367,
			"-0.008": 5.10122676134,
			"-0.007": 6.89912096614,
			"-0.006": 7.81678169997,
			"-0.005": 10.8969431492,
			"-0.004": 10.5525431141,
			"-0.003": 12.2264421772,
			"-0.002": 13.0139784681,
			"-0.001": 21.1222766115,
			"0.0": 16.5878527594,
			"0.001": 17.4153845828,
			"0.002": 10.9654871028,
			"0.003": 8.31465914631,
			"0.004": 9.14738854984,
			"0.005": 2.07281393688,
			"0.006": 2.28621662666,
			"0.007": 2.83053998099,
			"0.008": 2.72058233287,
			"0.009": 3.59523206863,
			"0.01": 2.99230866906,
			"0.011": 3.03526710877,
			"0.012": 2.53350710235,
			"0.013": 1.87394144204,
			"0.014": 0.106222355506,
			"0.015": 0.0,
			"0.016": 0.0,
			"0.017": 0.0,
			"0.018": 0.0,
			"0.019": 0.0,
			"0.02": 0.0,
			"0.021": 0.0,
			"0.022": 0.0,
			"0.023": 0.0,
			"0.024": 0.0,
			"0.025": 0.0
		}
	}
}
