{
	 "smiles": "NC(=S)NC1=CC=C(Cl)C(Cl)=C1", 
	 "Tm": 485.15, 
	 "num_atms": 18, 
	 "gaussian": { 
		 "optdone": 1, 
		 "sigma_profile": "yes", 
		 "theory": "DFT", 
		 "functional": "B3LYP", 
		 "basiset": "6-31G**", 
		 "properties": { 
			 "R2extent": 5146.9006, 
			 "electric_dipole_moment_norm": 3.17671444263, 
			 "electric_quadrupole_moment_norm": 19.3453476929, 
			 "total_energy": -1698.44895149, 
			 "HOMO_LUMO_gap": 0.1663, 
			 "cosmo_polarized_energy": -17.79, 
			 "cosmo_cavitation_energy": 27.85, 
			 "cosmo_dispersion_energy": -21.32, 
			 "cosmo_repulsion_energy": 1.67, 
			 "cosmo_total_nonelectrostatic_energy": 8.21, 
			 "SMD_solvation_energy": 3.37 
		},
		"coords": [
			{
				"x": 0.3895542664,
				"y": -2.3364099735,
				"z": 0.3526994063,
				"element": "N" 
			},
			{
				"x": 1.6440110451,
				"y": -1.8921831856,
				"z": 0.6371704737,
				"element": "C" 
			},
			{
				"x": 2.9809027033,
				"y": -2.9042154406,
				"z": 0.6446776829,
				"element": "S" 
			},
			{
				"x": 1.7816683354,
				"y": -0.5540616562,
				"z": 0.9161023573,
				"element": "N" 
			},
			{
				"x": 0.8357058682,
				"y": 0.4915232043,
				"z": 0.8595829393,
				"element": "C" 
			},
			{
				"x": -0.1425930659,
				"y": 0.5775702899,
				"z": -0.1438748899,
				"element": "C" 
			},
			{
				"x": -1.0253707346,
				"y": 1.6530740428,
				"z": -0.1609377497,
				"element": "C" 
			},
			{
				"x": -0.9414174751,
				"y": 2.6701224658,
				"z": 0.7918960212,
				"element": "C" 
			},
			{
				"x": -2.0658726738,
				"y": 4.0008463552,
				"z": 0.7156515016,
				"element": "Cl" 
			},
			{
				"x": 0.0512052424,
				"y": 2.5977283251,
				"z": 1.7799375329,
				"element": "C" 
			},
			{
				"x": 0.2161414997,
				"y": 3.8369687514,
				"z": 2.996392022,
				"element": "Cl" 
			},
			{
				"x": 0.9236274429,
				"y": 1.5115782028,
				"z": 1.8164812825,
				"element": "C" 
			},
			{
				"x": -0.4200456552,
				"y": -1.811927113,
				"z": 0.655782211,
				"element": "H" 
			},
			{
				"x": 0.295344355,
				"y": -3.3386056738,
				"z": 0.2903298695,
				"element": "H" 
			},
			{
				"x": 2.7136521103,
				"y": -0.3187683282,
				"z": 1.2292537305,
				"element": "H" 
			},
			{
				"x": -0.1941750521,
				"y": -0.1729347574,
				"z": -0.9235556993,
				"element": "H" 
			},
			{
				"x": -1.7793973576,
				"y": 1.7233067382,
				"z": -0.9370689567,
				"element": "H" 
			},
			{
				"x": 1.6702591457,
				"y": 1.4591877528,
				"z": 2.6014802649,
				"element": "H" 
			}
		],
		 "valence_orbital": [ 
			{
				"type": "occ",
				"energy": -0.30794,
				"method": "rhf"
			},
			{
				"type": "occ",
				"energy": -0.27825,
				"method": "rhf"
			},
			{
				"type": "occ",
				"energy": -0.25658,
				"method": "rhf"
			},
			{
				"type": "occ",
				"energy": -0.22235,
				"method": "rhf"
			},
			{
				"type": "occ",
				"energy": -0.21631,
				"method": "rhf"
			},
			{
				"type": "unocc",
				"energy": -0.05001,
				"method": "rhf"
			},
			{
				"type": "unocc",
				"energy": -0.04431,
				"method": "rhf"
			},
			{
				"type": "unocc",
				"energy": -0.01051,
				"method": "rhf"
			},
			{
				"type": "unocc",
				"energy": 0.00068,
				"method": "rhf"
			},
			{
				"type": "unocc",
				"energy": 0.04976,
				"method": "rhf"
			}
		],
		"cosmo_sigma_profile": { 
			"-0.025": 0.0,
			"-0.024": 0.0,
			"-0.023": 0.0,
			"-0.022": 0.0,
			"-0.021": 0.0,
			"-0.02": 0.0,
			"-0.019": 0.0,
			"-0.018": 0.0,
			"-0.017": 0.0,
			"-0.016": 0.0513333957578,
			"-0.015": 1.55321217643,
			"-0.014": 2.72107781369,
			"-0.013": 3.94419935298,
			"-0.012": 3.94318730013,
			"-0.011": 2.77370942544,
			"-0.01": 3.64476720802,
			"-0.009": 3.78267073726,
			"-0.008": 5.99500188627,
			"-0.007": 8.38705857453,
			"-0.006": 7.35068082979,
			"-0.005": 5.91641063456,
			"-0.004": 6.67769767919,
			"-0.003": 9.85533148055,
			"-0.002": 10.7662348023,
			"-0.001": 14.593116894,
			"0.0": 23.4849461762,
			"0.001": 22.9665709559,
			"0.002": 14.4466394556,
			"0.003": 17.2965082451,
			"0.004": 19.6059947421,
			"0.005": 7.63263131944,
			"0.006": 3.30776779568,
			"0.007": 3.67018449584,
			"0.008": 3.84035126807,
			"0.009": 4.05601105581,
			"0.01": 7.1250080652,
			"0.011": 7.1093801372,
			"0.012": 3.94815362432,
			"0.013": 0.0347630866194,
			"0.014": 0.0,
			"0.015": 0.0,
			"0.016": 0.0,
			"0.017": 0.0,
			"0.018": 0.0,
			"0.019": 0.0,
			"0.02": 0.0,
			"0.021": 0.0,
			"0.022": 0.0,
			"0.023": 0.0,
			"0.024": 0.0,
			"0.025": 0.0
		}
	}
}
