{
	 "smiles": "CC(=O)C1=CC(Cl)=C(N)C(Cl)=C1", 
	 "Tm": 436.15, 
	 "num_atms": 19, 
	 "gaussian": { 
		 "optdone": 1, 
		 "sigma_profile": "yes", 
		 "theory": "DFT", 
		 "functional": "B3LYP", 
		 "basiset": "6-31G**", 
		 "properties": { 
			 "R2extent": 3718.2862, 
			 "electric_dipole_moment_norm": 3.38822519027, 
			 "electric_quadrupole_moment_norm": 17.0946751426, 
			 "total_energy": -1359.4428257, 
			 "HOMO_LUMO_gap": 0.17193, 
			 "cosmo_polarized_energy": -10.69, 
			 "cosmo_cavitation_energy": 26.65, 
			 "cosmo_dispersion_energy": -19.96, 
			 "cosmo_repulsion_energy": 1.59, 
			 "cosmo_total_nonelectrostatic_energy": 8.28, 
			 "SMD_solvation_energy": 4.63 
		},
		"coords": [
			{
				"x": -1.8343473538,
				"y": 1.9565632512,
				"z": 1.3560263399,
				"element": "C" 
			},
			{
				"x": -2.2807669871,
				"y": 0.6640262016,
				"z": 0.692402856,
				"element": "C" 
			},
			{
				"x": -3.465113855,
				"y": 0.4521185954,
				"z": 0.4736456902,
				"element": "O" 
			},
			{
				"x": -1.2463692452,
				"y": -0.3429278753,
				"z": 0.3123959191,
				"element": "C" 
			},
			{
				"x": 0.1245756697,
				"y": -0.1604550622,
				"z": 0.5405191988,
				"element": "C" 
			},
			{
				"x": 1.0320131022,
				"y": -1.1374143417,
				"z": 0.1621207483,
				"element": "C" 
			},
			{
				"x": 2.7491274941,
				"y": -0.8826188714,
				"z": 0.4694485229,
				"element": "Cl" 
			},
			{
				"x": 0.6357957023,
				"y": -2.3424714067,
				"z": -0.4631605573,
				"element": "C" 
			},
			{
				"x": 1.5374942969,
				"y": -3.2809032296,
				"z": -0.8707352624,
				"element": "N" 
			},
			{
				"x": -0.7579058499,
				"y": -2.4952337595,
				"z": -0.6732172566,
				"element": "C" 
			},
			{
				"x": -1.3234646914,
				"y": -3.9803186032,
				"z": -1.4349660048,
				"element": "Cl" 
			},
			{
				"x": -1.6735999617,
				"y": -1.5311342822,
				"z": -0.30119847,
				"element": "C" 
			},
			{
				"x": -2.7158967586,
				"y": 2.5654344345,
				"z": 1.5576407222,
				"element": "H" 
			},
			{
				"x": -1.1480523548,
				"y": 2.5155224844,
				"z": 0.7102739784,
				"element": "H" 
			},
			{
				"x": -1.3099435434,
				"y": 1.7564597667,
				"z": 2.2970440373,
				"element": "H" 
			},
			{
				"x": 0.4994168007,
				"y": 0.7386950077,
				"z": 1.0147863022,
				"element": "H" 
			},
			{
				"x": 1.1918348249,
				"y": -4.1934303579,
				"z": -1.1225929614,
				"element": "H" 
			},
			{
				"x": 2.480401877,
				"y": -3.22003409,
				"z": -0.5205638436,
				"element": "H" 
			},
			{
				"x": -2.7339991669,
				"y": -1.6741778618,
				"z": -0.4737699591,
				"element": "H" 
			}
		],
		 "valence_orbital": [ 
			{
				"type": "occ",
				"energy": -0.32786,
				"method": "rhf"
			},
			{
				"type": "occ",
				"energy": -0.32313,
				"method": "rhf"
			},
			{
				"type": "occ",
				"energy": -0.25856,
				"method": "rhf"
			},
			{
				"type": "occ",
				"energy": -0.25033,
				"method": "rhf"
			},
			{
				"type": "occ",
				"energy": -0.22637,
				"method": "rhf"
			},
			{
				"type": "unocc",
				"energy": -0.05444,
				"method": "rhf"
			},
			{
				"type": "unocc",
				"energy": -0.02571,
				"method": "rhf"
			},
			{
				"type": "unocc",
				"energy": -0.00068,
				"method": "rhf"
			},
			{
				"type": "unocc",
				"energy": 0.03828,
				"method": "rhf"
			},
			{
				"type": "unocc",
				"energy": 0.04161,
				"method": "rhf"
			}
		],
		"cosmo_sigma_profile": { 
			"-0.025": 0.0,
			"-0.024": 0.0,
			"-0.023": 0.0,
			"-0.022": 0.0,
			"-0.021": 0.0,
			"-0.02": 0.0,
			"-0.019": 0.0,
			"-0.018": 0.0,
			"-0.017": 0.0,
			"-0.016": 0.0,
			"-0.015": 0.0,
			"-0.014": 0.36209452879,
			"-0.013": 1.30568062542,
			"-0.012": 2.17617976286,
			"-0.011": 1.94971652387,
			"-0.01": 1.87998536143,
			"-0.009": 2.0615800811,
			"-0.008": 2.89365374938,
			"-0.007": 4.5770401909,
			"-0.006": 10.5165416645,
			"-0.005": 9.561163406,
			"-0.004": 10.605621782,
			"-0.003": 11.4925287999,
			"-0.002": 15.3749703544,
			"-0.001": 17.9938991488,
			"0.0": 20.2748665682,
			"0.001": 26.0650362843,
			"0.002": 23.2978979779,
			"0.003": 15.538452524,
			"0.004": 15.0915331752,
			"0.005": 4.95148841932,
			"0.006": 2.70259085553,
			"0.007": 2.16578244788,
			"0.008": 1.67257108781,
			"0.009": 2.06246584533,
			"0.01": 1.84294305745,
			"0.011": 2.70023004455,
			"0.012": 4.03146247245,
			"0.013": 2.01055082757,
			"0.014": 0.304576527067,
			"0.015": 0.0,
			"0.016": 0.0,
			"0.017": 0.0,
			"0.018": 0.0,
			"0.019": 0.0,
			"0.02": 0.0,
			"0.021": 0.0,
			"0.022": 0.0,
			"0.023": 0.0,
			"0.024": 0.0,
			"0.025": 0.0
		}
	}
}
