{
	 "smiles": "CC=CC#N", 
	 "Tm": 221.65, 
	 "num_atms": 10, 
	 "gaussian": { 
		 "optdone": 1, 
		 "sigma_profile": "yes", 
		 "theory": "DFT", 
		 "functional": "B3LYP", 
		 "basiset": "6-31G**", 
		 "properties": { 
			 "R2extent": 840.1301, 
			 "electric_dipole_moment_norm": 4.6060865222, 
			 "electric_quadrupole_moment_norm": 16.1791343749, 
			 "total_energy": -210.156045611, 
			 "HOMO_LUMO_gap": 0.22751, 
			 "cosmo_polarized_energy": -8.55, 
			 "cosmo_cavitation_energy": 15.01, 
			 "cosmo_dispersion_energy": -10.38, 
			 "cosmo_repulsion_energy": 0.94, 
			 "cosmo_total_nonelectrostatic_energy": 5.57, 
			 "SMD_solvation_energy": 4.67 
		},
		"coords": [
			{
				"x": -0.063565177,
				"y": 1.2218747654,
				"z": 0.6489520374,
				"element": "C" 
			},
			{
				"x": -0.0743341641,
				"y": 0.5725253609,
				"z": -0.6981303973,
				"element": "C" 
			},
			{
				"x": -1.1711508287,
				"y": 0.0764453813,
				"z": -1.2932694461,
				"element": "C" 
			},
			{
				"x": -1.1426010954,
				"y": -0.5377771158,
				"z": -2.5829011581,
				"element": "C" 
			},
			{
				"x": -1.1400511931,
				"y": -1.0415145131,
				"z": -3.6322517532,
				"element": "N" 
			},
			{
				"x": 0.6112814701,
				"y": 0.688750891,
				"z": 1.3299773078,
				"element": "H" 
			},
			{
				"x": -1.0598933426,
				"y": 1.2470606678,
				"z": 1.0983306137,
				"element": "H" 
			},
			{
				"x": 0.3123567726,
				"y": 2.2501362546,
				"z": 0.5797191484,
				"element": "H" 
			},
			{
				"x": 0.8783307449,
				"y": 0.5039177888,
				"z": -1.2206928709,
				"element": "H" 
			},
			{
				"x": -2.1428731867,
				"y": 0.1241805191,
				"z": -0.8065334817,
				"element": "H" 
			}
		],
		 "valence_orbital": [ 
			{
				"type": "occ",
				"energy": -0.38996,
				"method": "rhf"
			},
			{
				"type": "occ",
				"energy": -0.36633,
				"method": "rhf"
			},
			{
				"type": "occ",
				"energy": -0.35463,
				"method": "rhf"
			},
			{
				"type": "occ",
				"energy": -0.32708,
				"method": "rhf"
			},
			{
				"type": "occ",
				"energy": -0.2725,
				"method": "rhf"
			},
			{
				"type": "unocc",
				"energy": -0.04499,
				"method": "rhf"
			},
			{
				"type": "unocc",
				"energy": 0.03371,
				"method": "rhf"
			},
			{
				"type": "unocc",
				"energy": 0.09614,
				"method": "rhf"
			},
			{
				"type": "unocc",
				"energy": 0.10839,
				"method": "rhf"
			},
			{
				"type": "unocc",
				"energy": 0.11986,
				"method": "rhf"
			}
		],
		"cosmo_sigma_profile": { 
			"-0.025": 0.0,
			"-0.024": 0.0,
			"-0.023": 0.0,
			"-0.022": 0.0,
			"-0.021": 0.0,
			"-0.02": 0.0,
			"-0.019": 0.0,
			"-0.018": 0.0,
			"-0.017": 0.0,
			"-0.016": 0.0,
			"-0.015": 0.0,
			"-0.014": 0.0,
			"-0.013": 0.0,
			"-0.012": 0.0,
			"-0.011": 0.0,
			"-0.01": 0.0,
			"-0.009": 0.628822416351,
			"-0.008": 3.55520842752,
			"-0.007": 5.20150599479,
			"-0.006": 6.49298467301,
			"-0.005": 10.7369388773,
			"-0.004": 11.4511321415,
			"-0.003": 9.96079674424,
			"-0.002": 10.7585514422,
			"-0.001": 11.2513321151,
			"0.0": 8.67259017991,
			"0.001": 6.49301800416,
			"0.002": 4.8775743127,
			"0.003": 1.33068415202,
			"0.004": 3.4298077595,
			"0.005": 1.64033337302,
			"0.006": 3.06714487031,
			"0.007": 2.42829075868,
			"0.008": 3.1598929111,
			"0.009": 3.50172988526,
			"0.01": 3.47513438573,
			"0.011": 2.78927071635,
			"0.012": 2.80962928063,
			"0.013": 2.16094864021,
			"0.014": 0.610596690355,
			"0.015": 0.0,
			"0.016": 0.0,
			"0.017": 0.0,
			"0.018": 0.0,
			"0.019": 0.0,
			"0.02": 0.0,
			"0.021": 0.0,
			"0.022": 0.0,
			"0.023": 0.0,
			"0.024": 0.0,
			"0.025": 0.0
		}
	}
}
