{
	 "smiles": "OC1=NC=C(C=C1)[N+]([O-])=O", 
	 "Tm": 462.65, 
	 "num_atms": 14, 
	 "gaussian": { 
		 "optdone": 1, 
		 "sigma_profile": "yes", 
		 "theory": "DFT", 
		 "functional": "B3LYP", 
		 "basiset": "6-31G**", 
		 "properties": { 
			 "R2extent": 2085.9128, 
			 "electric_dipole_moment_norm": 3.8418983693, 
			 "electric_quadrupole_moment_norm": 10.3724207618, 
			 "total_energy": -528.015970081, 
			 "HOMO_LUMO_gap": 0.17755, 
			 "cosmo_polarized_energy": -10.5, 
			 "cosmo_cavitation_energy": 19.6, 
			 "cosmo_dispersion_energy": -14.78, 
			 "cosmo_repulsion_energy": 1.19, 
			 "cosmo_total_nonelectrostatic_energy": 6.02, 
			 "SMD_solvation_energy": 4.98 
		},
		"coords": [
			{
				"x": 2.0620523539,
				"y": -2.8741608724,
				"z": 1.9533071889,
				"element": "O" 
			},
			{
				"x": 1.7255193282,
				"y": -1.6488637511,
				"z": 1.5213296876,
				"element": "C" 
			},
			{
				"x": 2.7165050484,
				"y": -0.849179482,
				"z": 1.1198117684,
				"element": "N" 
			},
			{
				"x": 2.3965161393,
				"y": 0.3726225386,
				"z": 0.6875542527,
				"element": "C" 
			},
			{
				"x": 1.0777610723,
				"y": 0.8197460787,
				"z": 0.6480252592,
				"element": "C" 
			},
			{
				"x": 0.0402147956,
				"y": -0.0199472415,
				"z": 1.0693009461,
				"element": "C" 
			},
			{
				"x": 0.3653873101,
				"y": -1.2861525004,
				"z": 1.5179783063,
				"element": "C" 
			},
			{
				"x": 0.7803734075,
				"y": 2.1643142946,
				"z": 0.1669006533,
				"element": "N" 
			},
			{
				"x": 1.7278643297,
				"y": 2.8645609278,
				"z": -0.1921414978,
				"element": "O" 
			},
			{
				"x": -0.4009508129,
				"y": 2.5132233716,
				"z": 0.1510798416,
				"element": "O" 
			},
			{
				"x": 3.0288221773,
				"y": -2.937723241,
				"z": 1.8818895737,
				"element": "H" 
			},
			{
				"x": 3.2020994875,
				"y": 1.0221884448,
				"z": 0.3614090305,
				"element": "H" 
			},
			{
				"x": -0.9826166341,
				"y": 0.3353642732,
				"z": 1.0353669186,
				"element": "H" 
			},
			{
				"x": -0.3842480029,
				"y": -1.9897928409,
				"z": 1.8591880709,
				"element": "H" 
			}
		],
		 "valence_orbital": [ 
			{
				"type": "occ",
				"energy": -0.31885,
				"method": "rhf"
			},
			{
				"type": "occ",
				"energy": -0.31117,
				"method": "rhf"
			},
			{
				"type": "occ",
				"energy": -0.29724,
				"method": "rhf"
			},
			{
				"type": "occ",
				"energy": -0.29456,
				"method": "rhf"
			},
			{
				"type": "occ",
				"energy": -0.26942,
				"method": "rhf"
			},
			{
				"type": "unocc",
				"energy": -0.09187,
				"method": "rhf"
			},
			{
				"type": "unocc",
				"energy": -0.05245,
				"method": "rhf"
			},
			{
				"type": "unocc",
				"energy": -0.00064,
				"method": "rhf"
			},
			{
				"type": "unocc",
				"energy": 0.06876,
				"method": "rhf"
			},
			{
				"type": "unocc",
				"energy": 0.08569,
				"method": "rhf"
			}
		],
		"cosmo_sigma_profile": { 
			"-0.025": 0.0,
			"-0.024": 0.0,
			"-0.023": 0.0,
			"-0.022": 0.0,
			"-0.021": 0.0,
			"-0.02": 0.0,
			"-0.019": 0.0867297629418,
			"-0.018": 0.54101670466,
			"-0.017": 0.808583007131,
			"-0.016": 1.13408461103,
			"-0.015": 0.836348812772,
			"-0.014": 0.453809048463,
			"-0.013": 0.0,
			"-0.012": 0.664622439397,
			"-0.011": 1.28531910347,
			"-0.01": 0.414214745679,
			"-0.009": 2.2637803909,
			"-0.008": 5.18263351065,
			"-0.007": 6.34284080716,
			"-0.006": 7.08520308055,
			"-0.005": 5.555623351,
			"-0.004": 8.5583784353,
			"-0.003": 11.2450234972,
			"-0.002": 16.6786789566,
			"-0.001": 13.9685144178,
			"0.0": 10.3228566066,
			"0.001": 6.85102742868,
			"0.002": 5.00786005342,
			"0.003": 4.59623753212,
			"0.004": 4.67380438466,
			"0.005": 5.30972410988,
			"0.006": 5.1566917848,
			"0.007": 10.4845813349,
			"0.008": 10.0299914641,
			"0.009": 6.74358015385,
			"0.01": 4.11575479657,
			"0.011": 0.825010959648,
			"0.012": 0.511963030027,
			"0.013": 0.0450724639729,
			"0.014": 0.0,
			"0.015": 0.0,
			"0.016": 0.0,
			"0.017": 0.0,
			"0.018": 0.0,
			"0.019": 0.0,
			"0.02": 0.0,
			"0.021": 0.0,
			"0.022": 0.0,
			"0.023": 0.0,
			"0.024": 0.0,
			"0.025": 0.0
		}
	}
}
