{
	 "smiles": "CC(Br)C(C)(C)Br", 
	 "Tm": 284.15, 
	 "num_atms": 17, 
	 "gaussian": { 
		 "optdone": 1, 
		 "sigma_profile": "yes", 
		 "theory": "DFT", 
		 "functional": "B3LYP", 
		 "basiset": "6-31G**", 
		 "properties": { 
			 "R2extent": 2345.424, 
			 "electric_dipole_moment_norm": 0.558927150888, 
			 "electric_quadrupole_moment_norm": 6.00673288402, 
			 "total_energy": -5339.39226243, 
			 "HOMO_LUMO_gap": 0.23095, 
			 "cosmo_polarized_energy": -4.1, 
			 "cosmo_cavitation_energy": 22.59, 
			 "cosmo_dispersion_energy": -17.04, 
			 "cosmo_repulsion_energy": 1.39, 
			 "cosmo_total_nonelectrostatic_energy": 6.94, 
			 "SMD_solvation_energy": 1.99 
		},
		"coords": [
			{
				"x": 1.8408707183,
				"y": -0.6428475232,
				"z": -1.6307582829,
				"element": "C" 
			},
			{
				"x": 0.6768259882,
				"y": -1.06313916,
				"z": -0.7439146572,
				"element": "C" 
			},
			{
				"x": 1.4274709065,
				"y": -1.3858718258,
				"z": 1.1073835741,
				"element": "Br" 
			},
			{
				"x": -0.5203392306,
				"y": -0.0973652631,
				"z": -0.6359899432,
				"element": "C" 
			},
			{
				"x": -1.6380457406,
				"y": -0.6266982568,
				"z": 0.2611059278,
				"element": "C" 
			},
			{
				"x": -0.1461023329,
				"y": 1.3425179126,
				"z": -0.300268123,
				"element": "C" 
			},
			{
				"x": -1.3114340034,
				"y": -0.0841604707,
				"z": -2.5238753842,
				"element": "Br" 
			},
			{
				"x": 2.3133063401,
				"y": 0.2731111212,
				"z": -1.2693887226,
				"element": "H" 
			},
			{
				"x": 1.4851357206,
				"y": -0.4780828533,
				"z": -2.6514486799,
				"element": "H" 
			},
			{
				"x": 2.598249499,
				"y": -1.4290888917,
				"z": -1.6467456561,
				"element": "H" 
			},
			{
				"x": 0.3081228972,
				"y": -2.0500807694,
				"z": -1.0223604077,
				"element": "H" 
			},
			{
				"x": -1.3077176948,
				"y": -0.6125944153,
				"z": 1.3035628389,
				"element": "H" 
			},
			{
				"x": -2.5271418606,
				"y": 0.0001402827,
				"z": 0.1663083838,
				"element": "H" 
			},
			{
				"x": -1.9087232944,
				"y": -1.6524994368,
				"z": -0.0015173383,
				"element": "H" 
			},
			{
				"x": -1.0398492166,
				"y": 1.9695417577,
				"z": -0.272939875,
				"element": "H" 
			},
			{
				"x": 0.5470879547,
				"y": 1.7684386018,
				"z": -1.0274156733,
				"element": "H" 
			},
			{
				"x": 0.3260833494,
				"y": 1.3651791903,
				"z": 0.6879620188,
				"element": "H" 
			}
		],
		 "valence_orbital": [ 
			{
				"type": "occ",
				"energy": -0.32834,
				"method": "rhf"
			},
			{
				"type": "occ",
				"energy": -0.2871,
				"method": "rhf"
			},
			{
				"type": "occ",
				"energy": -0.27848,
				"method": "rhf"
			},
			{
				"type": "occ",
				"energy": -0.27677,
				"method": "rhf"
			},
			{
				"type": "occ",
				"energy": -0.2705,
				"method": "rhf"
			},
			{
				"type": "unocc",
				"energy": -0.03955,
				"method": "rhf"
			},
			{
				"type": "unocc",
				"energy": 0.01092,
				"method": "rhf"
			},
			{
				"type": "unocc",
				"energy": 0.08954,
				"method": "rhf"
			},
			{
				"type": "unocc",
				"energy": 0.11708,
				"method": "rhf"
			},
			{
				"type": "unocc",
				"energy": 0.12415,
				"method": "rhf"
			}
		],
		"cosmo_sigma_profile": { 
			"-0.025": 0.0,
			"-0.024": 0.0,
			"-0.023": 0.0,
			"-0.022": 0.0,
			"-0.021": 0.0,
			"-0.02": 0.0,
			"-0.019": 0.0,
			"-0.018": 0.0,
			"-0.017": 0.0,
			"-0.016": 0.0,
			"-0.015": 0.0,
			"-0.014": 0.0,
			"-0.013": 0.0,
			"-0.012": 0.0,
			"-0.011": 0.0,
			"-0.01": 0.0,
			"-0.009": 0.0,
			"-0.008": 0.199928223477,
			"-0.007": 1.83673531885,
			"-0.006": 2.75749521955,
			"-0.005": 8.87383728565,
			"-0.004": 15.6961581594,
			"-0.003": 17.6096337105,
			"-0.002": 21.1255187576,
			"-0.001": 26.2695966253,
			"0.0": 18.8142258474,
			"0.001": 9.91057405537,
			"0.002": 9.37654059349,
			"0.003": 10.3755185673,
			"0.004": 11.8345968979,
			"0.005": 13.6123891286,
			"0.006": 13.1580039329,
			"0.007": 0.760097608771,
			"0.008": 0.0,
			"0.009": 0.0,
			"0.01": 0.0,
			"0.011": 0.0,
			"0.012": 0.0,
			"0.013": 0.0,
			"0.014": 0.0,
			"0.015": 0.0,
			"0.016": 0.0,
			"0.017": 0.0,
			"0.018": 0.0,
			"0.019": 0.0,
			"0.02": 0.0,
			"0.021": 0.0,
			"0.022": 0.0,
			"0.023": 0.0,
			"0.024": 0.0,
			"0.025": 0.0
		}
	}
}
