{
	 "smiles": "NC1=CC=C(OC2=C(C=CC=N2)C#N)C=C1", 
	 "Tm": 426.15, 
	 "num_atms": 25, 
	 "gaussian": { 
		 "optdone": 1, 
		 "sigma_profile": "yes", 
		 "theory": "DFT", 
		 "functional": "B3LYP", 
		 "basiset": "6-31G**", 
		 "properties": { 
			 "R2extent": 5248.6018, 
			 "electric_dipole_moment_norm": 6.0521768183, 
			 "electric_quadrupole_moment_norm": 29.6070285345, 
			 "total_energy": -702.153089292, 
			 "HOMO_LUMO_gap": 0.14513, 
			 "cosmo_polarized_energy": -17.7, 
			 "cosmo_cavitation_energy": 31.63, 
			 "cosmo_dispersion_energy": -22.13, 
			 "cosmo_repulsion_energy": 1.75, 
			 "cosmo_total_nonelectrostatic_energy": 11.26, 
			 "SMD_solvation_energy": 5.98 
		},
		"coords": [
			{
				"x": -2.6345384516,
				"y": 3.903981614,
				"z": -2.4660218863,
				"element": "N" 
			},
			{
				"x": -2.4321539101,
				"y": 2.6346235097,
				"z": -1.9194346209,
				"element": "C" 
			},
			{
				"x": -2.4181133983,
				"y": 2.446743754,
				"z": -0.5260170373,
				"element": "C" 
			},
			{
				"x": -2.2748926492,
				"y": 1.1739886506,
				"z": 0.0194302227,
				"element": "C" 
			},
			{
				"x": -2.1422942034,
				"y": 0.075779496,
				"z": -0.8235303854,
				"element": "C" 
			},
			{
				"x": -2.0891478633,
				"y": -1.2162945438,
				"z": -0.2756343772,
				"element": "O" 
			},
			{
				"x": -0.8932965598,
				"y": -1.7644421969,
				"z": 0.0291181257,
				"element": "C" 
			},
			{
				"x": -0.9249409767,
				"y": -3.0716275836,
				"z": 0.5810327032,
				"element": "C" 
			},
			{
				"x": 0.2989606529,
				"y": -3.6652597395,
				"z": 0.9062581745,
				"element": "C" 
			},
			{
				"x": 1.4813146385,
				"y": -2.9627724019,
				"z": 0.6800531295,
				"element": "C" 
			},
			{
				"x": 1.3869035112,
				"y": -1.6851995993,
				"z": 0.133206825,
				"element": "C" 
			},
			{
				"x": 0.2278257751,
				"y": -1.0937560889,
				"z": -0.1872545798,
				"element": "N" 
			},
			{
				"x": -2.1612032712,
				"y": -3.7551024282,
				"z": 0.7962375072,
				"element": "C" 
			},
			{
				"x": -3.1509292198,
				"y": -4.3372233902,
				"z": 0.9832834162,
				"element": "N" 
			},
			{
				"x": -2.1594929332,
				"y": 0.2342873859,
				"z": -2.2050059115,
				"element": "C" 
			},
			{
				"x": -2.3029255416,
				"y": 1.5074198768,
				"z": -2.7498195266,
				"element": "C" 
			},
			{
				"x": -2.290159726,
				"y": 4.0248322856,
				"z": -3.408506144,
				"element": "H" 
			},
			{
				"x": -2.3692729948,
				"y": 4.6751496887,
				"z": -1.8690195843,
				"element": "H" 
			},
			{
				"x": -2.5278799244,
				"y": 3.3047360913,
				"z": 0.1321555364,
				"element": "H" 
			},
			{
				"x": -2.2696778583,
				"y": 1.0299414561,
				"z": 1.0948702624,
				"element": "H" 
			},
			{
				"x": 0.3086946269,
				"y": -4.6641030604,
				"z": 1.3299811863,
				"element": "H" 
			},
			{
				"x": 2.4465952557,
				"y": -3.3934038273,
				"z": 0.9206455558,
				"element": "H" 
			},
			{
				"x": 2.283504957,
				"y": -1.0997223669,
				"z": -0.0605573527,
				"element": "H" 
			},
			{
				"x": -2.0651103121,
				"y": -0.6353481884,
				"z": -2.8469928781,
				"element": "H" 
			},
			{
				"x": -2.3226696234,
				"y": 1.6312716065,
				"z": -3.8294783607,
				"element": "H" 
			}
		],
		 "valence_orbital": [ 
			{
				"type": "occ",
				"energy": -0.29507,
				"method": "rhf"
			},
			{
				"type": "occ",
				"energy": -0.28071,
				"method": "rhf"
			},
			{
				"type": "occ",
				"energy": -0.25489,
				"method": "rhf"
			},
			{
				"type": "occ",
				"energy": -0.24883,
				"method": "rhf"
			},
			{
				"type": "occ",
				"energy": -0.20462,
				"method": "rhf"
			},
			{
				"type": "unocc",
				"energy": -0.05949,
				"method": "rhf"
			},
			{
				"type": "unocc",
				"energy": -0.02225,
				"method": "rhf"
			},
			{
				"type": "unocc",
				"energy": -0.004,
				"method": "rhf"
			},
			{
				"type": "unocc",
				"energy": 0.01349,
				"method": "rhf"
			},
			{
				"type": "unocc",
				"energy": 0.03801,
				"method": "rhf"
			}
		],
		"cosmo_sigma_profile": { 
			"-0.025": 0.0,
			"-0.024": 0.0,
			"-0.023": 0.0,
			"-0.022": 0.0,
			"-0.021": 0.0,
			"-0.02": 0.0,
			"-0.019": 0.0,
			"-0.018": 0.0,
			"-0.017": 0.0,
			"-0.016": 0.0,
			"-0.015": 0.0,
			"-0.014": 0.0,
			"-0.013": 0.478523372525,
			"-0.012": 2.87002253778,
			"-0.011": 2.44277008189,
			"-0.01": 3.27736455342,
			"-0.009": 5.78045160238,
			"-0.008": 7.42428844622,
			"-0.007": 13.2706372365,
			"-0.006": 14.6509144648,
			"-0.005": 14.2620469926,
			"-0.004": 13.848007464,
			"-0.003": 14.1574033668,
			"-0.002": 18.4364022494,
			"-0.001": 17.7896866254,
			"0.0": 15.8909517306,
			"0.001": 14.1484734801,
			"0.002": 10.2349514059,
			"0.003": 10.9180464883,
			"0.004": 11.4432918406,
			"0.005": 14.4702780106,
			"0.006": 11.2796644623,
			"0.007": 8.98794017977,
			"0.008": 5.7646976167,
			"0.009": 5.89320078158,
			"0.01": 5.18311565946,
			"0.011": 4.37902721451,
			"0.012": 3.80660901803,
			"0.013": 3.13471642588,
			"0.014": 0.774295848124,
			"0.015": 0.136195398754,
			"0.016": 0.0,
			"0.017": 0.0,
			"0.018": 0.0,
			"0.019": 0.0,
			"0.02": 0.0,
			"0.021": 0.0,
			"0.022": 0.0,
			"0.023": 0.0,
			"0.024": 0.0,
			"0.025": 0.0
		}
	}
}
