{
	 "smiles": "CC1=CNC(=N1)C1=CC=CC=C1", 
	 "Tm": 448.15, 
	 "num_atms": 22, 
	 "gaussian": { 
		 "optdone": 1, 
		 "sigma_profile": "yes", 
		 "theory": "DFT", 
		 "functional": "B3LYP", 
		 "basiset": "6-31G**", 
		 "properties": { 
			 "R2extent": 2606.824, 
			 "electric_dipole_moment_norm": 2.8534413714, 
			 "electric_quadrupole_moment_norm": 9.66954404199, 
			 "total_energy": -496.606665806, 
			 "HOMO_LUMO_gap": 0.17504, 
			 "cosmo_polarized_energy": -12.37, 
			 "cosmo_cavitation_energy": 25.81, 
			 "cosmo_dispersion_energy": -19.36, 
			 "cosmo_repulsion_energy": 1.54, 
			 "cosmo_total_nonelectrostatic_energy": 7.98, 
			 "SMD_solvation_energy": 3.1 
		},
		"coords": [
			{
				"x": 0.3394419799,
				"y": -3.9979969962,
				"z": -0.8798576819,
				"element": "C" 
			},
			{
				"x": 0.0358028023,
				"y": -2.6592094683,
				"z": -0.2839995239,
				"element": "C" 
			},
			{
				"x": -0.1554018792,
				"y": -2.3321031735,
				"z": 1.0395760939,
				"element": "C" 
			},
			{
				"x": -0.4045382391,
				"y": -0.97570715,
				"z": 1.0550195334,
				"element": "N" 
			},
			{
				"x": -0.356830564,
				"y": -0.530501975,
				"z": -0.2424709481,
				"element": "C" 
			},
			{
				"x": -0.091817249,
				"y": -1.5346006059,
				"z": -1.0653352366,
				"element": "N" 
			},
			{
				"x": -0.570520628,
				"y": 0.8615874583,
				"z": -0.6476853265,
				"element": "C" 
			},
			{
				"x": -0.4948220506,
				"y": 1.1873370222,
				"z": -2.0132712229,
				"element": "C" 
			},
			{
				"x": -0.691378468,
				"y": 2.4973179081,
				"z": -2.4393868196,
				"element": "C" 
			},
			{
				"x": -0.9671423506,
				"y": 3.5091524363,
				"z": -1.5152352468,
				"element": "C" 
			},
			{
				"x": -1.0443930577,
				"y": 3.1959823992,
				"z": -0.1571549226,
				"element": "C" 
			},
			{
				"x": -0.8481260528,
				"y": 1.8849322125,
				"z": 0.2738648754,
				"element": "C" 
			},
			{
				"x": 1.2899674471,
				"y": -3.9785733343,
				"z": -1.4241402421,
				"element": "H" 
			},
			{
				"x": 0.4035788408,
				"y": -4.7695234919,
				"z": -0.1072767613,
				"element": "H" 
			},
			{
				"x": -0.435460464,
				"y": -4.2936334963,
				"z": -1.5955701327,
				"element": "H" 
			},
			{
				"x": -0.1372195159,
				"y": -2.9231363274,
				"z": 1.9424913151,
				"element": "H" 
			},
			{
				"x": -0.5873443468,
				"y": -0.4210887841,
				"z": 1.8759630183,
				"element": "H" 
			},
			{
				"x": -0.2801837909,
				"y": 0.3925732397,
				"z": -2.7190925787,
				"element": "H" 
			},
			{
				"x": -0.6292287779,
				"y": 2.7310344499,
				"z": -3.4985373622,
				"element": "H" 
			},
			{
				"x": -1.120233815,
				"y": 4.530926958,
				"z": -1.8497366418,
				"element": "H" 
			},
			{
				"x": -1.2580216663,
				"y": 3.9734478089,
				"z": 0.5708383866,
				"element": "H" 
			},
			{
				"x": -0.9141281542,
				"y": 1.6703829098,
				"z": 1.337697425,
				"element": "H" 
			}
		],
		 "valence_orbital": [ 
			{
				"type": "occ",
				"energy": -0.27993,
				"method": "rhf"
			},
			{
				"type": "occ",
				"energy": -0.26115,
				"method": "rhf"
			},
			{
				"type": "occ",
				"energy": -0.26104,
				"method": "rhf"
			},
			{
				"type": "occ",
				"energy": -0.24941,
				"method": "rhf"
			},
			{
				"type": "occ",
				"energy": -0.20032,
				"method": "rhf"
			},
			{
				"type": "unocc",
				"energy": -0.02528,
				"method": "rhf"
			},
			{
				"type": "unocc",
				"energy": 0.0004,
				"method": "rhf"
			},
			{
				"type": "unocc",
				"energy": 0.05899,
				"method": "rhf"
			},
			{
				"type": "unocc",
				"energy": 0.06246,
				"method": "rhf"
			},
			{
				"type": "unocc",
				"energy": 0.0837,
				"method": "rhf"
			}
		],
		"cosmo_sigma_profile": { 
			"-0.025": 0.0,
			"-0.024": 0.0,
			"-0.023": 0.0,
			"-0.022": 0.0,
			"-0.021": 0.0,
			"-0.02": 0.0,
			"-0.019": 0.0,
			"-0.018": 0.0,
			"-0.017": 0.0748695552753,
			"-0.016": 1.055852977,
			"-0.015": 1.37797221773,
			"-0.014": 1.35443745443,
			"-0.013": 1.84137526348,
			"-0.012": 0.906208677902,
			"-0.011": 1.59120744139,
			"-0.01": 1.36677878956,
			"-0.009": 0.851741336125,
			"-0.008": 3.71173633879,
			"-0.007": 3.83666474061,
			"-0.006": 6.07005291143,
			"-0.005": 10.477547356,
			"-0.004": 15.4154230615,
			"-0.003": 17.4584265151,
			"-0.002": 13.3310624956,
			"-0.001": 13.3267549959,
			"0.0": 15.5577032688,
			"0.001": 13.5195353259,
			"0.002": 12.8986253404,
			"0.003": 15.1476135538,
			"0.004": 16.7044385602,
			"0.005": 17.0278236441,
			"0.006": 7.43422379203,
			"0.007": 2.33693004723,
			"0.008": 2.18382678034,
			"0.009": 1.83767534701,
			"0.01": 1.06143329906,
			"0.011": 1.57691668427,
			"0.012": 1.20826937507,
			"0.013": 0.993501645912,
			"0.014": 1.2877552866,
			"0.015": 0.679280936337,
			"0.016": 0.860335165437,
			"0.017": 0.0159125258063,
			"0.018": 0.0,
			"0.019": 0.0,
			"0.02": 0.0,
			"0.021": 0.0,
			"0.022": 0.0,
			"0.023": 0.0,
			"0.024": 0.0,
			"0.025": 0.0
		}
	}
}
