{
	 "smiles": "CC1=NCCN1", 
	 "Tm": 380.15, 
	 "num_atms": 14, 
	 "gaussian": { 
		 "optdone": 1, 
		 "sigma_profile": "yes", 
		 "theory": "DFT", 
		 "functional": "B3LYP", 
		 "basiset": "6-31G**", 
		 "properties": { 
			 "R2extent": 658.6996, 
			 "electric_dipole_moment_norm": 2.6811668374, 
			 "electric_quadrupole_moment_norm": 6.00986885215, 
			 "total_energy": -266.742733078, 
			 "HOMO_LUMO_gap": 0.24961, 
			 "cosmo_polarized_energy": -9.13, 
			 "cosmo_cavitation_energy": 16.57, 
			 "cosmo_dispersion_energy": -12.83, 
			 "cosmo_repulsion_energy": 1.13, 
			 "cosmo_total_nonelectrostatic_energy": 4.87, 
			 "SMD_solvation_energy": -1.69 
		},
		"coords": [
			{
				"x": 0.6673077418,
				"y": -0.8751924185,
				"z": 2.1199658624,
				"element": "C" 
			},
			{
				"x": -0.2409241871,
				"y": -0.5256936626,
				"z": 0.9806203115,
				"element": "C" 
			},
			{
				"x": -1.2380542248,
				"y": -1.2424216627,
				"z": 0.6092790374,
				"element": "N" 
			},
			{
				"x": -1.8186323472,
				"y": -0.5677861509,
				"z": -0.5652566996,
				"element": "C" 
			},
			{
				"x": -1.1722771071,
				"y": 0.8439927781,
				"z": -0.608141897,
				"element": "C" 
			},
			{
				"x": 0.0252748218,
				"y": 0.615136365,
				"z": 0.2136687336,
				"element": "N" 
			},
			{
				"x": 1.6963061848,
				"y": -1.0021126593,
				"z": 1.766371443,
				"element": "H" 
			},
			{
				"x": 0.3282604227,
				"y": -1.8026024423,
				"z": 2.5814820688,
				"element": "H" 
			},
			{
				"x": 0.6757472715,
				"y": -0.0820007152,
				"z": 2.8773205144,
				"element": "H" 
			},
			{
				"x": -2.9103140649,
				"y": -0.5326019842,
				"z": -0.4956072926,
				"element": "H" 
			},
			{
				"x": -1.5684815417,
				"y": -1.1433733365,
				"z": -1.4669626447,
				"element": "H" 
			},
			{
				"x": -1.8309898979,
				"y": 1.6030056489,
				"z": -0.1604593162,
				"element": "H" 
			},
			{
				"x": -0.9115104087,
				"y": 1.1701374512,
				"z": -1.6193079294,
				"element": "H" 
			},
			{
				"x": 0.4271873368,
				"y": 1.4118127891,
				"z": 0.6920278084,
				"element": "H" 
			}
		],
		 "valence_orbital": [ 
			{
				"type": "occ",
				"energy": -0.37745,
				"method": "rhf"
			},
			{
				"type": "occ",
				"energy": -0.36145,
				"method": "rhf"
			},
			{
				"type": "occ",
				"energy": -0.31461,
				"method": "rhf"
			},
			{
				"type": "occ",
				"energy": -0.2507,
				"method": "rhf"
			},
			{
				"type": "occ",
				"energy": -0.21284,
				"method": "rhf"
			},
			{
				"type": "unocc",
				"energy": 0.03677,
				"method": "rhf"
			},
			{
				"type": "unocc",
				"energy": 0.08095,
				"method": "rhf"
			},
			{
				"type": "unocc",
				"energy": 0.11597,
				"method": "rhf"
			},
			{
				"type": "unocc",
				"energy": 0.12995,
				"method": "rhf"
			},
			{
				"type": "unocc",
				"energy": 0.15064,
				"method": "rhf"
			}
		],
		"cosmo_sigma_profile": { 
			"-0.025": 0.0,
			"-0.024": 0.0,
			"-0.023": 0.0,
			"-0.022": 0.0,
			"-0.021": 0.0,
			"-0.02": 0.0,
			"-0.019": 0.0,
			"-0.018": 0.0,
			"-0.017": 0.0,
			"-0.016": 0.0,
			"-0.015": 0.0,
			"-0.014": 0.0,
			"-0.013": 0.499466875527,
			"-0.012": 1.29614955271,
			"-0.011": 1.08890453356,
			"-0.01": 1.42621269292,
			"-0.009": 1.28446267337,
			"-0.008": 1.83269179951,
			"-0.007": 1.6414888069,
			"-0.006": 2.44243581694,
			"-0.005": 5.62306076258,
			"-0.004": 12.5995480133,
			"-0.003": 18.3703414851,
			"-0.002": 18.3190349592,
			"-0.001": 16.3749992589,
			"0.0": 8.95777694384,
			"0.001": 4.17788467492,
			"0.002": 3.51617286701,
			"0.003": 3.32661332295,
			"0.004": 2.33487045936,
			"0.005": 2.97344094697,
			"0.006": 2.4501217548,
			"0.007": 2.44587045953,
			"0.008": 2.01549020767,
			"0.009": 1.60845791922,
			"0.01": 1.86128929676,
			"0.011": 2.21943179066,
			"0.012": 1.44493696884,
			"0.013": 1.22959253018,
			"0.014": 0.850834294206,
			"0.015": 1.29316608052,
			"0.016": 1.25039716708,
			"0.017": 0.879069078148,
			"0.018": 0.938917939789,
			"0.019": 0.913429718155,
			"0.02": 0.0747565708713,
			"0.021": 0.0,
			"0.022": 0.0,
			"0.023": 0.0,
			"0.024": 0.0,
			"0.025": 0.0
		}
	}
}
