{
	 "smiles": "CCC1=C(N=NN1C1=CC(N)=CC=C1)C(O)=O", 
	 "Tm": 453.15, 
	 "num_atms": 29, 
	 "gaussian": { 
		 "optdone": 1, 
		 "sigma_profile": "yes", 
		 "theory": "DFT", 
		 "functional": "B3LYP", 
		 "basiset": "6-31G**", 
		 "properties": { 
			 "R2extent": 5801.7995, 
			 "electric_dipole_moment_norm": 7.33054470623, 
			 "electric_quadrupole_moment_norm": 18.0035331821, 
			 "total_energy": -795.848680015, 
			 "HOMO_LUMO_gap": 0.18269, 
			 "cosmo_polarized_energy": -18.09, 
			 "cosmo_cavitation_energy": 33.2, 
			 "cosmo_dispersion_energy": -23.96, 
			 "cosmo_repulsion_energy": 1.86, 
			 "cosmo_total_nonelectrostatic_energy": 11.1, 
			 "SMD_solvation_energy": 5.53 
		},
		"coords": [
			{
				"x": -1.6709142632,
				"y": -0.1293392596,
				"z": -0.6070843355,
				"element": "C" 
			},
			{
				"x": -0.4601164043,
				"y": 0.7732378237,
				"z": -0.9094650918,
				"element": "C" 
			},
			{
				"x": 0.8456419263,
				"y": 0.0397945489,
				"z": -0.8888080929,
				"element": "C" 
			},
			{
				"x": 1.4016864799,
				"y": -0.8335929265,
				"z": -1.8128421375,
				"element": "C" 
			},
			{
				"x": 2.6415466871,
				"y": -1.2097347743,
				"z": -1.3874165521,
				"element": "N" 
			},
			{
				"x": 2.9043125821,
				"y": -0.6389062426,
				"z": -0.2559341949,
				"element": "N" 
			},
			{
				"x": 1.8136136536,
				"y": 0.1270155206,
				"z": 0.0699552974,
				"element": "N" 
			},
			{
				"x": 1.8531009057,
				"y": 0.9024356077,
				"z": 1.2714079985,
				"element": "C" 
			},
			{
				"x": 3.011328482,
				"y": 1.62954526,
				"z": 1.539943555,
				"element": "C" 
			},
			{
				"x": 3.1053708155,
				"y": 2.3843710534,
				"z": 2.7202248466,
				"element": "C" 
			},
			{
				"x": 4.2359091145,
				"y": 3.1496836398,
				"z": 2.9773137798,
				"element": "N" 
			},
			{
				"x": 2.0071042733,
				"y": 2.4001554774,
				"z": 3.6013850881,
				"element": "C" 
			},
			{
				"x": 0.8615069342,
				"y": 1.6664445194,
				"z": 3.3131485471,
				"element": "C" 
			},
			{
				"x": 0.7676437839,
				"y": 0.8992542093,
				"z": 2.1504175382,
				"element": "C" 
			},
			{
				"x": 0.8610247261,
				"y": -1.3196338778,
				"z": -3.0975601597,
				"element": "C" 
			},
			{
				"x": 1.696888365,
				"y": -2.1387258654,
				"z": -3.7684472887,
				"element": "O" 
			},
			{
				"x": -0.2323761606,
				"y": -1.0193634364,
				"z": -3.5298385911,
				"element": "O" 
			},
			{
				"x": -2.5914564202,
				"y": 0.4610471505,
				"z": -0.6356343989,
				"element": "H" 
			},
			{
				"x": -1.7454242064,
				"y": -0.916710748,
				"z": -1.3600503133,
				"element": "H" 
			},
			{
				"x": -1.5968112898,
				"y": -0.5955900793,
				"z": 0.3807169859,
				"element": "H" 
			},
			{
				"x": -0.4184885739,
				"y": 1.6117341803,
				"z": -0.2085316195,
				"element": "H" 
			},
			{
				"x": -0.582553602,
				"y": 1.1834227625,
				"z": -1.9164763691,
				"element": "H" 
			},
			{
				"x": 3.833858857,
				"y": 1.5984691263,
				"z": 0.8338949494,
				"element": "H" 
			},
			{
				"x": 4.3899877695,
				"y": 3.4004439135,
				"z": 3.9433428426,
				"element": "H" 
			},
			{
				"x": 5.0831347231,
				"y": 2.8597728672,
				"z": 2.5100765919,
				"element": "H" 
			},
			{
				"x": 2.0613432841,
				"y": 2.9896959083,
				"z": 4.5126553335,
				"element": "H" 
			},
			{
				"x": 0.031034786,
				"y": 1.6787437152,
				"z": 4.0125607423,
				"element": "H" 
			},
			{
				"x": -0.1073496168,
				"y": 0.2937131361,
				"z": 1.9490444327,
				"element": "H" 
			},
			{
				"x": 2.5102523883,
				"y": -2.23918321,
				"z": -3.2395993841,
				"element": "H" 
			}
		],
		 "valence_orbital": [ 
			{
				"type": "occ",
				"energy": -0.28807,
				"method": "rhf"
			},
			{
				"type": "occ",
				"energy": -0.26861,
				"method": "rhf"
			},
			{
				"type": "occ",
				"energy": -0.26797,
				"method": "rhf"
			},
			{
				"type": "occ",
				"energy": -0.25957,
				"method": "rhf"
			},
			{
				"type": "occ",
				"energy": -0.22384,
				"method": "rhf"
			},
			{
				"type": "unocc",
				"energy": -0.04115,
				"method": "rhf"
			},
			{
				"type": "unocc",
				"energy": -0.02407,
				"method": "rhf"
			},
			{
				"type": "unocc",
				"energy": -0.01064,
				"method": "rhf"
			},
			{
				"type": "unocc",
				"energy": 0.00554,
				"method": "rhf"
			},
			{
				"type": "unocc",
				"energy": 0.06445,
				"method": "rhf"
			}
		],
		"cosmo_sigma_profile": { 
			"-0.025": 0.0,
			"-0.024": 0.0,
			"-0.023": 0.0,
			"-0.022": 0.0,
			"-0.021": 0.0,
			"-0.02": 0.0,
			"-0.019": 0.0,
			"-0.018": 0.0,
			"-0.017": 0.0,
			"-0.016": 0.0,
			"-0.015": 0.123679064182,
			"-0.014": 0.569241100186,
			"-0.013": 2.41570559252,
			"-0.012": 3.36879978038,
			"-0.011": 3.97955146485,
			"-0.01": 3.43965863462,
			"-0.009": 3.80601590529,
			"-0.008": 4.17954541089,
			"-0.007": 7.24627095268,
			"-0.006": 10.2031455018,
			"-0.005": 14.1379061047,
			"-0.004": 20.0702173327,
			"-0.003": 23.5887740282,
			"-0.002": 22.822147172,
			"-0.001": 19.1527085492,
			"0.0": 16.0613897332,
			"0.001": 14.0041935817,
			"0.002": 8.65460919727,
			"0.003": 10.8958287444,
			"0.004": 17.2230381678,
			"0.005": 10.8524147953,
			"0.006": 6.07832598835,
			"0.007": 6.27734650202,
			"0.008": 6.12929934702,
			"0.009": 8.37245369947,
			"0.01": 7.70988705658,
			"0.011": 6.15449727999,
			"0.012": 4.41384543474,
			"0.013": 2.28163643693,
			"0.014": 0.202060569088,
			"0.015": 0.0,
			"0.016": 0.0,
			"0.017": 0.0,
			"0.018": 0.0,
			"0.019": 0.0,
			"0.02": 0.0,
			"0.021": 0.0,
			"0.022": 0.0,
			"0.023": 0.0,
			"0.024": 0.0,
			"0.025": 0.0
		}
	}
}
