{
	 "smiles": "CCCC(C)C1(C=C)C(=O)NC(=O)NC1=O", 
	 "Tm": 363.15, 
	 "num_atms": 32, 
	 "gaussian": { 
		 "optdone": 1, 
		 "sigma_profile": "yes", 
		 "theory": "DFT", 
		 "functional": "B3LYP", 
		 "basiset": "6-31G**", 
		 "properties": { 
			 "R2extent": 4157.834, 
			 "electric_dipole_moment_norm": 1.35810451365, 
			 "electric_quadrupole_moment_norm": 4.20904797906, 
			 "total_energy": -764.020034217, 
			 "HOMO_LUMO_gap": 0.21032, 
			 "cosmo_polarized_energy": -14.29, 
			 "cosmo_cavitation_energy": 33.11, 
			 "cosmo_dispersion_energy": -23.23, 
			 "cosmo_repulsion_energy": 1.8, 
			 "cosmo_total_nonelectrostatic_energy": 11.68, 
			 "SMD_solvation_energy": 8.09 
		},
		"coords": [
			{
				"x": 3.1777522836,
				"y": -1.5972893959,
				"z": 0.7378243613,
				"element": "C" 
			},
			{
				"x": 1.7229414492,
				"y": -1.2984162565,
				"z": 0.3568458534,
				"element": "C" 
			},
			{
				"x": 1.442520471,
				"y": 0.211144168,
				"z": 0.3330480423,
				"element": "C" 
			},
			{
				"x": 0.0724183193,
				"y": 0.6998084104,
				"z": -0.198640175,
				"element": "C" 
			},
			{
				"x": -0.1409106609,
				"y": 0.3032740379,
				"z": -1.6655324367,
				"element": "C" 
			},
			{
				"x": -1.2081482473,
				"y": 0.3241129639,
				"z": 0.7211183894,
				"element": "C" 
			},
			{
				"x": -1.5958516765,
				"y": -1.1463016744,
				"z": 0.6614042748,
				"element": "C" 
			},
			{
				"x": -2.3673603241,
				"y": -1.7588610838,
				"z": -0.2376606317,
				"element": "C" 
			},
			{
				"x": -2.3230965663,
				"y": 1.2583701589,
				"z": 0.2237119892,
				"element": "C" 
			},
			{
				"x": -3.0512912522,
				"y": 1.0261338109,
				"z": -0.7219836627,
				"element": "O" 
			},
			{
				"x": -2.4141084849,
				"y": 2.4974095887,
				"z": 0.8570924895,
				"element": "N" 
			},
			{
				"x": -1.8049165846,
				"y": 2.9099381429,
				"z": 2.0339612189,
				"element": "C" 
			},
			{
				"x": -1.9860892837,
				"y": 4.0032500735,
				"z": 2.5283659087,
				"element": "O" 
			},
			{
				"x": -0.9827343704,
				"y": 1.9454270412,
				"z": 2.6039704351,
				"element": "N" 
			},
			{
				"x": -0.7976640436,
				"y": 0.6369615128,
				"z": 2.1729321894,
				"element": "C" 
			},
			{
				"x": -0.263723543,
				"y": -0.1709466917,
				"z": 2.9090447262,
				"element": "O" 
			},
			{
				"x": 3.3678229007,
				"y": -2.6750724438,
				"z": 0.7611227752,
				"element": "H" 
			},
			{
				"x": 3.4171440256,
				"y": -1.1970011905,
				"z": 1.7294605442,
				"element": "H" 
			},
			{
				"x": 3.8782479369,
				"y": -1.1511527694,
				"z": 0.0221384752,
				"element": "H" 
			},
			{
				"x": 1.5071602742,
				"y": -1.7396631238,
				"z": -0.6231867749,
				"element": "H" 
			},
			{
				"x": 1.0578537927,
				"y": -1.7853917611,
				"z": 1.075240241,
				"element": "H" 
			},
			{
				"x": 2.1899177963,
				"y": 0.6913728961,
				"z": -0.314220473,
				"element": "H" 
			},
			{
				"x": 1.6212321054,
				"y": 0.6157847644,
				"z": 1.3352911344,
				"element": "H" 
			},
			{
				"x": 0.1201871956,
				"y": 1.7968474433,
				"z": -0.1580431336,
				"element": "H" 
			},
			{
				"x": -0.220324642,
				"y": -0.7791852796,
				"z": -1.7836531082,
				"element": "H" 
			},
			{
				"x": -1.0437784845,
				"y": 0.7508413094,
				"z": -2.0847923956,
				"element": "H" 
			},
			{
				"x": 0.7153609664,
				"y": 0.6479077331,
				"z": -2.2545788763,
				"element": "H" 
			},
			{
				"x": -1.1668929814,
				"y": -1.7246329445,
				"z": 1.4733567033,
				"element": "H" 
			},
			{
				"x": -2.5544123063,
				"y": -2.8247765837,
				"z": -0.1402231266,
				"element": "H" 
			},
			{
				"x": -2.839936221,
				"y": -1.2415053923,
				"z": -1.0620455793,
				"element": "H" 
			},
			{
				"x": -3.0849973808,
				"y": 3.1475944884,
				"z": 0.4643333361,
				"element": "H" 
			},
			{
				"x": -0.6309224632,
				"y": 2.1668180473,
				"z": 3.528297286,
				"element": "H" 
			}
		],
		 "valence_orbital": [ 
			{
				"type": "occ",
				"energy": -0.30571,
				"method": "rhf"
			},
			{
				"type": "occ",
				"energy": -0.30304,
				"method": "rhf"
			},
			{
				"type": "occ",
				"energy": -0.2964,
				"method": "rhf"
			},
			{
				"type": "occ",
				"energy": -0.26985,
				"method": "rhf"
			},
			{
				"type": "occ",
				"energy": -0.26206,
				"method": "rhf"
			},
			{
				"type": "unocc",
				"energy": -0.05174,
				"method": "rhf"
			},
			{
				"type": "unocc",
				"energy": -0.00907,
				"method": "rhf"
			},
			{
				"type": "unocc",
				"energy": 0.00497,
				"method": "rhf"
			},
			{
				"type": "unocc",
				"energy": 0.05184,
				"method": "rhf"
			},
			{
				"type": "unocc",
				"energy": 0.06987,
				"method": "rhf"
			}
		],
		"cosmo_sigma_profile": { 
			"-0.025": 0.0,
			"-0.024": 0.0,
			"-0.023": 0.0,
			"-0.022": 0.0,
			"-0.021": 0.0,
			"-0.02": 0.0,
			"-0.019": 0.0,
			"-0.018": 0.0,
			"-0.017": 0.442303235936,
			"-0.016": 1.81532570338,
			"-0.015": 1.92301258261,
			"-0.014": 1.57923683063,
			"-0.013": 1.67124681621,
			"-0.012": 1.44086411217,
			"-0.011": 1.32227258041,
			"-0.01": 2.44760319458,
			"-0.009": 2.17915847779,
			"-0.008": 2.52942299287,
			"-0.007": 3.19801248611,
			"-0.006": 6.32921162158,
			"-0.005": 9.47265713281,
			"-0.004": 13.2861914257,
			"-0.003": 24.6134059975,
			"-0.002": 26.6837333248,
			"-0.001": 27.2485669842,
			"0.0": 28.0235405759,
			"0.001": 26.6766098647,
			"0.002": 14.4946695181,
			"0.003": 8.25998096257,
			"0.004": 7.09030311161,
			"0.005": 6.38146444917,
			"0.006": 4.26087876618,
			"0.007": 4.89099073797,
			"0.008": 3.38739603344,
			"0.009": 4.93850813907,
			"0.01": 6.93622770426,
			"0.011": 11.1937692877,
			"0.012": 4.57230033801,
			"0.013": 0.0,
			"0.014": 0.0,
			"0.015": 0.0,
			"0.016": 0.0,
			"0.017": 0.0,
			"0.018": 0.0,
			"0.019": 0.0,
			"0.02": 0.0,
			"0.021": 0.0,
			"0.022": 0.0,
			"0.023": 0.0,
			"0.024": 0.0,
			"0.025": 0.0
		}
	}
}
