{
	 "smiles": "NC1=CC=CC2=C1C(N)=CC=C2", 
	 "Tm": 337.95, 
	 "num_atms": 22, 
	 "gaussian": { 
		 "optdone": 1, 
		 "sigma_profile": "yes", 
		 "theory": "DFT", 
		 "functional": "B3LYP", 
		 "basiset": "6-31G**", 
		 "properties": { 
			 "R2extent": 2176.1955, 
			 "electric_dipole_moment_norm": 1.97293006718, 
			 "electric_quadrupole_moment_norm": 10.0654646549, 
			 "total_energy": -496.609095944, 
			 "HOMO_LUMO_gap": 0.16038, 
			 "cosmo_polarized_energy": -10.23, 
			 "cosmo_cavitation_energy": 24.4, 
			 "cosmo_dispersion_energy": -18.82, 
			 "cosmo_repulsion_energy": 1.47, 
			 "cosmo_total_nonelectrostatic_energy": 7.05, 
			 "SMD_solvation_energy": 3.92 
		},
		"coords": [
			{
				"x": 2.4065600937,
				"y": -1.7437849344,
				"z": -1.7645900974,
				"element": "N" 
			},
			{
				"x": 1.5416774024,
				"y": -0.7157711984,
				"z": -1.3392177153,
				"element": "C" 
			},
			{
				"x": 1.2419067552,
				"y": 0.3188915351,
				"z": -2.2143205432,
				"element": "C" 
			},
			{
				"x": 0.3818769772,
				"y": 1.3692159498,
				"z": -1.842520212,
				"element": "C" 
			},
			{
				"x": -0.2094862866,
				"y": 1.3745154055,
				"z": -0.602163977,
				"element": "C" 
			},
			{
				"x": 0.070886419,
				"y": 0.3437822136,
				"z": 0.3345962506,
				"element": "C" 
			},
			{
				"x": 0.9961706154,
				"y": -0.7057242,
				"z": -0.0058983614,
				"element": "C" 
			},
			{
				"x": 1.3156006944,
				"y": -1.6769701415,
				"z": 1.0090127213,
				"element": "C" 
			},
			{
				"x": 2.2569656827,
				"y": -2.697961655,
				"z": 0.7694990552,
				"element": "N" 
			},
			{
				"x": 0.6644159654,
				"y": -1.6334811083,
				"z": 2.2338487138,
				"element": "C" 
			},
			{
				"x": -0.2824465874,
				"y": -0.6341823701,
				"z": 2.5270383148,
				"element": "C" 
			},
			{
				"x": -0.5611066049,
				"y": 0.3477416535,
				"z": 1.6070494696,
				"element": "C" 
			},
			{
				"x": 2.5635459804,
				"y": -1.7216673776,
				"z": -2.7648455949,
				"element": "H" 
			},
			{
				"x": 2.1178137674,
				"y": -2.6677977835,
				"z": -1.4635913645,
				"element": "H" 
			},
			{
				"x": 1.6676923314,
				"y": 0.2999223138,
				"z": -3.2149395354,
				"element": "H" 
			},
			{
				"x": 0.1704642437,
				"y": 2.1607571635,
				"z": -2.5561131206,
				"element": "H" 
			},
			{
				"x": -0.8988882297,
				"y": 2.1636088947,
				"z": -0.3164575744,
				"element": "H" 
			},
			{
				"x": 2.5131858183,
				"y": -3.1879880016,
				"z": 1.6179748454,
				"element": "H" 
			},
			{
				"x": 3.0812391152,
				"y": -2.3811748219,
				"z": 0.2714604539,
				"element": "H" 
			},
			{
				"x": 0.9117637371,
				"y": -2.3785965869,
				"z": 2.9865134385,
				"element": "H" 
			},
			{
				"x": -0.7702948613,
				"y": -0.6328651184,
				"z": 3.4978387853,
				"element": "H" 
			},
			{
				"x": -1.266843029,
				"y": 1.1412301683,
				"z": 1.8348260479,
				"element": "H" 
			}
		],
		 "valence_orbital": [ 
			{
				"type": "occ",
				"energy": -0.31194,
				"method": "rhf"
			},
			{
				"type": "occ",
				"energy": -0.28406,
				"method": "rhf"
			},
			{
				"type": "occ",
				"energy": -0.23363,
				"method": "rhf"
			},
			{
				"type": "occ",
				"energy": -0.22364,
				"method": "rhf"
			},
			{
				"type": "occ",
				"energy": -0.17523,
				"method": "rhf"
			},
			{
				"type": "unocc",
				"energy": -0.01485,
				"method": "rhf"
			},
			{
				"type": "unocc",
				"energy": 0.00016,
				"method": "rhf"
			},
			{
				"type": "unocc",
				"energy": 0.05293,
				"method": "rhf"
			},
			{
				"type": "unocc",
				"energy": 0.08231,
				"method": "rhf"
			},
			{
				"type": "unocc",
				"energy": 0.10468,
				"method": "rhf"
			}
		],
		"cosmo_sigma_profile": { 
			"-0.025": 0.0,
			"-0.024": 0.0,
			"-0.023": 0.0,
			"-0.022": 0.0,
			"-0.021": 0.0,
			"-0.02": 0.0,
			"-0.019": 0.0,
			"-0.018": 0.0,
			"-0.017": 0.0,
			"-0.016": 0.0,
			"-0.015": 0.0,
			"-0.014": 0.0,
			"-0.013": 0.046498382977,
			"-0.012": 1.93307013524,
			"-0.011": 2.73931071297,
			"-0.01": 4.08393438635,
			"-0.009": 5.0302884556,
			"-0.008": 5.06586586701,
			"-0.007": 4.65463407296,
			"-0.006": 5.64511707675,
			"-0.005": 12.5973051219,
			"-0.004": 14.0097040502,
			"-0.003": 14.3019000146,
			"-0.002": 11.9480052207,
			"-0.001": 9.08937724845,
			"0.0": 9.89983542287,
			"0.001": 8.87920094786,
			"0.002": 8.51911627451,
			"0.003": 10.5422742149,
			"0.004": 11.352336848,
			"0.005": 17.4128394882,
			"0.006": 20.3952289912,
			"0.007": 10.2702901424,
			"0.008": 1.31314281789,
			"0.009": 1.30644028599,
			"0.01": 1.03267045966,
			"0.011": 1.03655034504,
			"0.012": 0.873558221889,
			"0.013": 0.0285226248071,
			"0.014": 0.0,
			"0.015": 0.0,
			"0.016": 0.0,
			"0.017": 0.0,
			"0.018": 0.0,
			"0.019": 0.0,
			"0.02": 0.0,
			"0.021": 0.0,
			"0.022": 0.0,
			"0.023": 0.0,
			"0.024": 0.0,
			"0.025": 0.0
		}
	}
}
