{
	 "smiles": "CCOC(=O)C(=O)C1=NC=CN1C", 
	 "Tm": 326.15, 
	 "num_atms": 23, 
	 "gaussian": { 
		 "optdone": 1, 
		 "sigma_profile": "yes", 
		 "theory": "DFT", 
		 "functional": "B3LYP", 
		 "basiset": "6-31G**", 
		 "properties": { 
			 "R2extent": 3051.6005, 
			 "electric_dipole_moment_norm": 4.01905803019, 
			 "electric_quadrupole_moment_norm": 19.0818816415, 
			 "total_energy": -646.044782072, 
			 "HOMO_LUMO_gap": 0.18242, 
			 "cosmo_polarized_energy": -14.9, 
			 "cosmo_cavitation_energy": 28.31, 
			 "cosmo_dispersion_energy": -19.77, 
			 "cosmo_repulsion_energy": 1.59, 
			 "cosmo_total_nonelectrostatic_energy": 10.13, 
			 "SMD_solvation_energy": 5.79 
		},
		"coords": [
			{
				"x": 0.2312091465,
				"y": 1.158732362,
				"z": -3.0435596563,
				"element": "C" 
			},
			{
				"x": 0.7756135351,
				"y": 2.0376392147,
				"z": -1.9288654777,
				"element": "C" 
			},
			{
				"x": 1.2113155103,
				"y": 1.2313898842,
				"z": -0.7998311749,
				"element": "O" 
			},
			{
				"x": 0.2710792463,
				"y": 0.8968575734,
				"z": 0.0926687774,
				"element": "C" 
			},
			{
				"x": -0.8911587052,
				"y": 1.2305508246,
				"z": 0.0730170302,
				"element": "O" 
			},
			{
				"x": 0.8740267497,
				"y": 0.0726872129,
				"z": 1.2406211707,
				"element": "C" 
			},
			{
				"x": 1.1897457227,
				"y": 0.6199111803,
				"z": 2.2889016031,
				"element": "O" 
			},
			{
				"x": 0.9760140342,
				"y": -1.3608162758,
				"z": 0.9970546583,
				"element": "C" 
			},
			{
				"x": 0.6378393069,
				"y": -1.948176151,
				"z": -0.1497701325,
				"element": "N" 
			},
			{
				"x": 0.8781515231,
				"y": -3.2710078792,
				"z": 0.0348281854,
				"element": "C" 
			},
			{
				"x": 1.3705199564,
				"y": -3.4959580992,
				"z": 1.310244124,
				"element": "C" 
			},
			{
				"x": 1.4319244961,
				"y": -2.2767620086,
				"z": 1.9214336158,
				"element": "N" 
			},
			{
				"x": 1.8874813049,
				"y": -2.0188720791,
				"z": 3.2861081281,
				"element": "C" 
			},
			{
				"x": 0.9748744414,
				"y": 0.4196761241,
				"z": -3.35386572,
				"element": "H" 
			},
			{
				"x": -0.667801359,
				"y": 0.6328805974,
				"z": -2.7139415036,
				"element": "H" 
			},
			{
				"x": -0.0267785842,
				"y": 1.7778934995,
				"z": -3.909367359,
				"element": "H" 
			},
			{
				"x": 1.6750005449,
				"y": 2.5750494964,
				"z": -2.2371027932,
				"element": "H" 
			},
			{
				"x": 0.0261820414,
				"y": 2.751413554,
				"z": -1.5791818939,
				"element": "H" 
			},
			{
				"x": 0.6926790461,
				"y": -4.0012488638,
				"z": -0.7406653246,
				"element": "H" 
			},
			{
				"x": 1.6735653955,
				"y": -4.3999203425,
				"z": 1.8177210776,
				"element": "H" 
			},
			{
				"x": 1.0928209959,
				"y": -1.5514612249,
				"z": 3.869150907,
				"element": "H" 
			},
			{
				"x": 2.7452326683,
				"y": -1.3449002002,
				"z": 3.2791748096,
				"element": "H" 
			},
			{
				"x": 2.1680629826,
				"y": -2.9711583993,
				"z": 3.7387269484,
				"element": "H" 
			}
		],
		 "valence_orbital": [ 
			{
				"type": "occ",
				"energy": -0.29808,
				"method": "rhf"
			},
			{
				"type": "occ",
				"energy": -0.29109,
				"method": "rhf"
			},
			{
				"type": "occ",
				"energy": -0.2881,
				"method": "rhf"
			},
			{
				"type": "occ",
				"energy": -0.24813,
				"method": "rhf"
			},
			{
				"type": "occ",
				"energy": -0.24585,
				"method": "rhf"
			},
			{
				"type": "unocc",
				"energy": -0.06343,
				"method": "rhf"
			},
			{
				"type": "unocc",
				"energy": 0.01005,
				"method": "rhf"
			},
			{
				"type": "unocc",
				"energy": 0.03829,
				"method": "rhf"
			},
			{
				"type": "unocc",
				"energy": 0.07388,
				"method": "rhf"
			},
			{
				"type": "unocc",
				"energy": 0.08919,
				"method": "rhf"
			}
		],
		"cosmo_sigma_profile": { 
			"-0.025": 0.0,
			"-0.024": 0.0,
			"-0.023": 0.0,
			"-0.022": 0.0,
			"-0.021": 0.0,
			"-0.02": 0.0,
			"-0.019": 0.0,
			"-0.018": 0.0,
			"-0.017": 0.0,
			"-0.016": 0.0,
			"-0.015": 0.0,
			"-0.014": 0.0,
			"-0.013": 0.0,
			"-0.012": 0.0,
			"-0.011": 0.139530615574,
			"-0.01": 3.02726409614,
			"-0.009": 2.38723352455,
			"-0.008": 3.97068656703,
			"-0.007": 6.65646242499,
			"-0.006": 12.6397718733,
			"-0.005": 17.2240172917,
			"-0.004": 24.343446781,
			"-0.003": 21.3640010161,
			"-0.002": 14.9073092829,
			"-0.001": 16.2861681279,
			"0.0": 14.2329549856,
			"0.001": 10.9868873494,
			"0.002": 10.2361034274,
			"0.003": 9.19278180951,
			"0.004": 7.57258702454,
			"0.005": 7.44714097566,
			"0.006": 6.011042832,
			"0.007": 6.95622560014,
			"0.008": 5.88551142548,
			"0.009": 5.92842133876,
			"0.01": 8.28662379658,
			"0.011": 7.00809722625,
			"0.012": 1.85033273272,
			"0.013": 0.648553074814,
			"0.014": 0.0,
			"0.015": 0.0,
			"0.016": 0.0,
			"0.017": 0.0,
			"0.018": 0.0,
			"0.019": 0.0,
			"0.02": 0.0,
			"0.021": 0.0,
			"0.022": 0.0,
			"0.023": 0.0,
			"0.024": 0.0,
			"0.025": 0.0
		}
	}
}
