{
	 "smiles": "C1CCCC=CCC1", 
	 "Tm": 259.15, 
	 "num_atms": 22, 
	 "gaussian": { 
		 "optdone": 1, 
		 "sigma_profile": "yes", 
		 "theory": "DFT", 
		 "functional": "B3LYP", 
		 "basiset": "6-31G**", 
		 "properties": { 
			 "R2extent": 1190.552, 
			 "electric_dipole_moment_norm": 0.303971873699, 
			 "electric_quadrupole_moment_norm": 1.99051593814, 
			 "total_energy": -313.273527933, 
			 "HOMO_LUMO_gap": 0.26216, 
			 "cosmo_polarized_energy": -1.34, 
			 "cosmo_cavitation_energy": 21.68, 
			 "cosmo_dispersion_energy": -16.66, 
			 "cosmo_repulsion_energy": 1.39, 
			 "cosmo_total_nonelectrostatic_energy": 6.41, 
			 "SMD_solvation_energy": 2.82 
		},
		"coords": [
			{
				"x": -0.3818284136,
				"y": -1.3623682232,
				"z": 1.0514089914,
				"element": "C" 
			},
			{
				"x": 0.0747535454,
				"y": 0.1035779614,
				"z": 0.9414885846,
				"element": "C" 
			},
			{
				"x": -0.5064024687,
				"y": 0.892214693,
				"z": -0.261246849,
				"element": "C" 
			},
			{
				"x": 0.5081568599,
				"y": 1.2473008616,
				"z": -1.3597600128,
				"element": "C" 
			},
			{
				"x": 1.2978914833,
				"y": 0.141712025,
				"z": -2.0165655202,
				"element": "C" 
			},
			{
				"x": 1.0969710403,
				"y": -1.1809934888,
				"z": -2.0591245003,
				"element": "C" 
			},
			{
				"x": -0.0027398663,
				"y": -2.0251638518,
				"z": -1.4503506849,
				"element": "C" 
			},
			{
				"x": 0.2089198134,
				"y": -2.3650557849,
				"z": 0.0480253939,
				"element": "C" 
			},
			{
				"x": -0.1440346167,
				"y": -1.7246589974,
				"z": 2.0603249088,
				"element": "H" 
			},
			{
				"x": -1.4786817287,
				"y": -1.3893738586,
				"z": 0.9756567296,
				"element": "H" 
			},
			{
				"x": -0.2245378834,
				"y": 0.6078105974,
				"z": 1.8680910584,
				"element": "H" 
			},
			{
				"x": 1.1714924205,
				"y": 0.1459085323,
				"z": 0.9189008932,
				"element": "H" 
			},
			{
				"x": -1.3559370742,
				"y": 0.3497138163,
				"z": -0.6895647139,
				"element": "H" 
			},
			{
				"x": -0.9244117031,
				"y": 1.8399660747,
				"z": 0.0992859782,
				"element": "H" 
			},
			{
				"x": 1.2378829646,
				"y": 1.9517153494,
				"z": -0.9331932014,
				"element": "H" 
			},
			{
				"x": -0.0049609997,
				"y": 1.8238000783,
				"z": -2.1453755926,
				"element": "H" 
			},
			{
				"x": 2.1830221172,
				"y": 0.5054981158,
				"z": -2.5407327879,
				"element": "H" 
			},
			{
				"x": 1.8531738148,
				"y": -1.7569482355,
				"z": -2.5934920649,
				"element": "H" 
			},
			{
				"x": -0.9858273121,
				"y": -1.5621777543,
				"z": -1.58636099,
				"element": "H" 
			},
			{
				"x": -0.0403971393,
				"y": -2.9650613602,
				"z": -2.0128043934,
				"element": "H" 
			},
			{
				"x": -0.2445387214,
				"y": -3.3430646016,
				"z": 0.2545070284,
				"element": "H" 
			},
			{
				"x": 1.2842338677,
				"y": -2.4828519487,
				"z": 0.234881745,
				"element": "H" 
			}
		],
		 "valence_orbital": [ 
			{
				"type": "occ",
				"energy": -0.32668,
				"method": "rhf"
			},
			{
				"type": "occ",
				"energy": -0.31125,
				"method": "rhf"
			},
			{
				"type": "occ",
				"energy": -0.304,
				"method": "rhf"
			},
			{
				"type": "occ",
				"energy": -0.29439,
				"method": "rhf"
			},
			{
				"type": "occ",
				"energy": -0.23244,
				"method": "rhf"
			},
			{
				"type": "unocc",
				"energy": 0.02972,
				"method": "rhf"
			},
			{
				"type": "unocc",
				"energy": 0.08361,
				"method": "rhf"
			},
			{
				"type": "unocc",
				"energy": 0.10969,
				"method": "rhf"
			},
			{
				"type": "unocc",
				"energy": 0.11301,
				"method": "rhf"
			},
			{
				"type": "unocc",
				"energy": 0.12823,
				"method": "rhf"
			}
		],
		"cosmo_sigma_profile": { 
			"-0.025": 0.0,
			"-0.024": 0.0,
			"-0.023": 0.0,
			"-0.022": 0.0,
			"-0.021": 0.0,
			"-0.02": 0.0,
			"-0.019": 0.0,
			"-0.018": 0.0,
			"-0.017": 0.0,
			"-0.016": 0.0,
			"-0.015": 0.0,
			"-0.014": 0.0,
			"-0.013": 0.0,
			"-0.012": 0.0,
			"-0.011": 0.0,
			"-0.01": 0.0,
			"-0.009": 0.0,
			"-0.008": 0.0,
			"-0.007": 0.0,
			"-0.006": 0.0,
			"-0.005": 0.0,
			"-0.004": 1.1752480681,
			"-0.003": 10.5290000385,
			"-0.002": 27.8566565046,
			"-0.001": 34.0347765334,
			"0.0": 39.1918032125,
			"0.001": 28.2930890825,
			"0.002": 9.73597035966,
			"0.003": 3.96674691097,
			"0.004": 3.4786728643,
			"0.005": 3.14018815766,
			"0.006": 2.21307268271,
			"0.007": 2.1696937574,
			"0.008": 1.03815569938,
			"0.009": 0.0423449473775,
			"0.01": 0.0,
			"0.011": 0.0,
			"0.012": 0.0,
			"0.013": 0.0,
			"0.014": 0.0,
			"0.015": 0.0,
			"0.016": 0.0,
			"0.017": 0.0,
			"0.018": 0.0,
			"0.019": 0.0,
			"0.02": 0.0,
			"0.021": 0.0,
			"0.022": 0.0,
			"0.023": 0.0,
			"0.024": 0.0,
			"0.025": 0.0
		}
	}
}
