{
	 "smiles": "COC1=C(C=C(C=C1)C(O)=O)S(=O)(=O)N1CC(C)CC(C)C1", 
	 "Tm": 536.15, 
	 "num_atms": 43, 
	 "gaussian": { 
		 "optdone": 1, 
		 "sigma_profile": "yes", 
		 "theory": "DFT", 
		 "functional": "B3LYP", 
		 "basiset": "6-31G**", 
		 "properties": { 
			 "R2extent": 7662.7932, 
			 "electric_dipole_moment_norm": 7.78913053813, 
			 "electric_quadrupole_moment_norm": 25.4377658553, 
			 "total_energy": -1413.2395363, 
			 "HOMO_LUMO_gap": 0.17879, 
			 "cosmo_polarized_energy": -23.64, 
			 "cosmo_cavitation_energy": 45.27, 
			 "cosmo_dispersion_energy": -30.25, 
			 "cosmo_repulsion_energy": 2.28, 
			 "cosmo_total_nonelectrostatic_energy": 17.3, 
			 "SMD_solvation_energy": 8.22 
		},
		"coords": [
			{
				"x": -1.1412252604,
				"y": 2.5947557648,
				"z": 1.4070434311,
				"element": "C" 
			},
			{
				"x": -0.1723849738,
				"y": 1.8209885978,
				"z": 0.6772946992,
				"element": "O" 
			},
			{
				"x": 0.4743304329,
				"y": 0.8539287899,
				"z": 1.3930342841,
				"element": "C" 
			},
			{
				"x": 0.1781165161,
				"y": -0.5056759432,
				"z": 1.183678236,
				"element": "C" 
			},
			{
				"x": 0.8817951608,
				"y": -1.492728713,
				"z": 1.8666318785,
				"element": "C" 
			},
			{
				"x": 1.9074686793,
				"y": -1.1456102385,
				"z": 2.7557951237,
				"element": "C" 
			},
			{
				"x": 2.1888575496,
				"y": 0.2096898895,
				"z": 2.9759044467,
				"element": "C" 
			},
			{
				"x": 1.4789405149,
				"y": 1.1999094531,
				"z": 2.3020052305,
				"element": "C" 
			},
			{
				"x": 2.6228884763,
				"y": -2.2604856771,
				"z": 3.4588817961,
				"element": "C" 
			},
			{
				"x": 3.8432612124,
				"y": -1.967604048,
				"z": 3.9859462565,
				"element": "O" 
			},
			{
				"x": 2.1676294058,
				"y": -3.3730421424,
				"z": 3.5706617439,
				"element": "O" 
			},
			{
				"x": -1.1593878297,
				"y": -1.0106155913,
				"z": 0.075281079,
				"element": "S" 
			},
			{
				"x": -2.3413609854,
				"y": -0.2084420093,
				"z": 0.4074887765,
				"element": "O" 
			},
			{
				"x": -1.194958816,
				"y": -2.4753395544,
				"z": 0.1483385467,
				"element": "O" 
			},
			{
				"x": -0.6441931318,
				"y": -0.5536528198,
				"z": -1.4453804539,
				"element": "N" 
			},
			{
				"x": 0.0361849934,
				"y": -1.5408515767,
				"z": -2.2987019969,
				"element": "C" 
			},
			{
				"x": 1.1689448126,
				"y": -0.8501676018,
				"z": -3.0957266186,
				"element": "C" 
			},
			{
				"x": 2.5096136909,
				"y": -0.9054050766,
				"z": -2.3542042784,
				"element": "C" 
			},
			{
				"x": 0.7730201732,
				"y": 0.6094881539,
				"z": -3.430479877,
				"element": "C" 
			},
			{
				"x": -0.7492417485,
				"y": 0.7808063457,
				"z": -3.5277142853,
				"element": "C" 
			},
			{
				"x": -1.1617783919,
				"y": 2.1649123463,
				"z": -4.0403071163,
				"element": "C" 
			},
			{
				"x": -1.3870032531,
				"y": 0.5182792394,
				"z": -2.1463527525,
				"element": "C" 
			},
			{
				"x": -1.472009829,
				"y": 3.3809820956,
				"z": 0.7271886662,
				"element": "H" 
			},
			{
				"x": -0.693322888,
				"y": 3.0493709852,
				"z": 2.2980590558,
				"element": "H" 
			},
			{
				"x": -1.9894814998,
				"y": 1.9636551149,
				"z": 1.6855445355,
				"element": "H" 
			},
			{
				"x": 0.6310743859,
				"y": -2.537027751,
				"z": 1.719374975,
				"element": "H" 
			},
			{
				"x": 2.9439049314,
				"y": 0.5121814271,
				"z": 3.6973921416,
				"element": "H" 
			},
			{
				"x": 1.7023379806,
				"y": 2.2498056964,
				"z": 2.4616810084,
				"element": "H" 
			},
			{
				"x": 4.1515013636,
				"y": -1.108488286,
				"z": 3.6669861723,
				"element": "H" 
			},
			{
				"x": -0.6902923032,
				"y": -2.0093678057,
				"z": -2.9768564793,
				"element": "H" 
			},
			{
				"x": 0.4296170737,
				"y": -2.3393454919,
				"z": -1.6681408753,
				"element": "H" 
			},
			{
				"x": 1.2711434764,
				"y": -1.4067780248,
				"z": -4.0372481983,
				"element": "H" 
			},
			{
				"x": 3.2893849515,
				"y": -0.3715036811,
				"z": -2.9084953355,
				"element": "H" 
			},
			{
				"x": 2.4223249592,
				"y": -0.4367767876,
				"z": -1.3672591401,
				"element": "H" 
			},
			{
				"x": 2.8471598092,
				"y": -1.9375840427,
				"z": -2.2105715586,
				"element": "H" 
			},
			{
				"x": 1.2552640086,
				"y": 0.9234681125,
				"z": -4.3635317857,
				"element": "H" 
			},
			{
				"x": 1.1469601719,
				"y": 1.2788153646,
				"z": -2.6435973481,
				"element": "H" 
			},
			{
				"x": -1.1323256748,
				"y": 0.033495785,
				"z": -4.2369393386,
				"element": "H" 
			},
			{
				"x": -0.7974692963,
				"y": 2.3295776365,
				"z": -5.0595089995,
				"element": "H" 
			},
			{
				"x": -2.2514707491,
				"y": 2.2784555448,
				"z": -4.0529990933,
				"element": "H" 
			},
			{
				"x": -0.7500263801,
				"y": 2.9567406463,
				"z": -3.4038321749,
				"element": "H" 
			},
			{
				"x": -1.3230435141,
				"y": 1.4218213416,
				"z": -1.5356186168,
				"element": "H" 
			},
			{
				"x": -2.447648205,
				"y": 0.260764532,
				"z": -2.2583457601,
				"element": "H" 
			}
		],
		 "valence_orbital": [ 
			{
				"type": "occ",
				"energy": -0.29918,
				"method": "rhf"
			},
			{
				"type": "occ",
				"energy": -0.28695,
				"method": "rhf"
			},
			{
				"type": "occ",
				"energy": -0.2798,
				"method": "rhf"
			},
			{
				"type": "occ",
				"energy": -0.26572,
				"method": "rhf"
			},
			{
				"type": "occ",
				"energy": -0.24109,
				"method": "rhf"
			},
			{
				"type": "unocc",
				"energy": -0.0623,
				"method": "rhf"
			},
			{
				"type": "unocc",
				"energy": -0.04337,
				"method": "rhf"
			},
			{
				"type": "unocc",
				"energy": 0.02912,
				"method": "rhf"
			},
			{
				"type": "unocc",
				"energy": 0.04692,
				"method": "rhf"
			},
			{
				"type": "unocc",
				"energy": 0.06427,
				"method": "rhf"
			}
		],
		"cosmo_sigma_profile": { 
			"-0.025": 0.0,
			"-0.024": 0.0,
			"-0.023": 0.0,
			"-0.022": 0.0,
			"-0.021": 0.0,
			"-0.02": 0.0,
			"-0.019": 0.642201115703,
			"-0.018": 0.924534855559,
			"-0.017": 1.28577030345,
			"-0.016": 1.04768590682,
			"-0.015": 0.774544181898,
			"-0.014": 1.09414201777,
			"-0.013": 0.753390553715,
			"-0.012": 1.18518951372,
			"-0.011": 1.9191197782,
			"-0.01": 1.1488082707,
			"-0.009": 1.47744281077,
			"-0.008": 4.22200748959,
			"-0.007": 6.16841905787,
			"-0.006": 7.36554502952,
			"-0.005": 9.84576173101,
			"-0.004": 22.5139857819,
			"-0.003": 45.6724962806,
			"-0.002": 45.1851434353,
			"-0.001": 41.2644875883,
			"0.0": 36.6572958329,
			"0.001": 31.7093640521,
			"0.002": 12.169108719,
			"0.003": 7.46102110017,
			"0.004": 6.65211775016,
			"0.005": 7.65817448468,
			"0.006": 7.06241343248,
			"0.007": 5.77288209868,
			"0.008": 8.0646272295,
			"0.009": 7.51475964222,
			"0.01": 9.78861375148,
			"0.011": 12.4242645216,
			"0.012": 6.93231229193,
			"0.013": 0.978899390757,
			"0.014": 0.0,
			"0.015": 0.0,
			"0.016": 0.0,
			"0.017": 0.0,
			"0.018": 0.0,
			"0.019": 0.0,
			"0.02": 0.0,
			"0.021": 0.0,
			"0.022": 0.0,
			"0.023": 0.0,
			"0.024": 0.0,
			"0.0": 0.0
		}
	}
}
