{
	 "smiles": "CC1=CSC(NC(=O)CSCC(N)C(O)=O)=N1", 
	 "Tm": 443.15, 
	 "num_atms": 30, 
	 "gaussian": { 
		 "optdone": 1, 
		 "sigma_profile": "yes", 
		 "theory": "DFT", 
		 "functional": "B3LYP", 
		 "basiset": "6-31G**", 
		 "properties": { 
			 "R2extent": 6978.6026, 
			 "electric_dipole_moment_norm": 4.86709554149, 
			 "electric_quadrupole_moment_norm": 19.5894200042, 
			 "total_energy": -1537.10412021, 
			 "HOMO_LUMO_gap": 0.1882, 
			 "cosmo_polarized_energy": -28.99, 
			 "cosmo_cavitation_energy": 37.21, 
			 "cosmo_dispersion_energy": -26.63, 
			 "cosmo_repulsion_energy": 2.0, 
			 "cosmo_total_nonelectrostatic_energy": 12.59, 
			 "SMD_solvation_energy": 5.32 
		},
		"coords": [
			{
				"x": 4.092102397,
				"y": 0.375482781,
				"z": 2.1419340729,
				"element": "C" 
			},
			{
				"x": 2.7221770632,
				"y": -0.0022896478,
				"z": 1.6636448315,
				"element": "C" 
			},
			{
				"x": 2.1060649136,
				"y": -1.2025797636,
				"z": 1.8673241672,
				"element": "C" 
			},
			{
				"x": 0.5170547552,
				"y": -1.2020850755,
				"z": 1.1508046657,
				"element": "S" 
			},
			{
				"x": 0.8396377089,
				"y": 0.4567177794,
				"z": 0.5970320254,
				"element": "C" 
			},
			{
				"x": -0.1423321632,
				"y": 1.1129216592,
				"z": -0.1365364372,
				"element": "N" 
			},
			{
				"x": -0.2793332701,
				"y": 2.4967766763,
				"z": -0.2859543994,
				"element": "C" 
			},
			{
				"x": 0.461905321,
				"y": 3.315641565,
				"z": 0.2102024867,
				"element": "O" 
			},
			{
				"x": -1.4832315188,
				"y": 2.886528709,
				"z": -1.1466755267,
				"element": "C" 
			},
			{
				"x": -3.0006603617,
				"y": 3.2900687669,
				"z": -0.1864296721,
				"element": "S" 
			},
			{
				"x": -3.5035406757,
				"y": 1.6243850333,
				"z": 0.3838481113,
				"element": "C" 
			},
			{
				"x": -4.1296061992,
				"y": 0.7234443303,
				"z": -0.7171954939,
				"element": "C" 
			},
			{
				"x": -5.5611129158,
				"y": 0.9416230961,
				"z": -0.8006191214,
				"element": "N" 
			},
			{
				"x": -3.7494745238,
				"y": -0.7363488984,
				"z": -0.4493151126,
				"element": "C" 
			},
			{
				"x": -2.4206216329,
				"y": -0.9598325647,
				"z": -0.6830132986,
				"element": "O" 
			},
			{
				"x": -4.4944833686,
				"y": -1.6083981317,
				"z": -0.0731376241,
				"element": "O" 
			},
			{
				"x": 1.9958474943,
				"y": 0.9261296867,
				"z": 0.9357055502,
				"element": "N" 
			},
			{
				"x": 4.7335527482,
				"y": 0.6456991609,
				"z": 1.296475719,
				"element": "H" 
			},
			{
				"x": 4.5620336021,
				"y": -0.4452241932,
				"z": 2.6892846346,
				"element": "H" 
			},
			{
				"x": 4.039650403,
				"y": 1.2499430166,
				"z": 2.799015855,
				"element": "H" 
			},
			{
				"x": 2.4815102895,
				"y": -2.0756524215,
				"z": 2.3808641909,
				"element": "H" 
			},
			{
				"x": -0.858905928,
				"y": 0.5197955257,
				"z": -0.5385486723,
				"element": "H" 
			},
			{
				"x": -1.2249835449,
				"y": 3.818831328,
				"z": -1.651901967,
				"element": "H" 
			},
			{
				"x": -1.70931533,
				"y": 2.1352179902,
				"z": -1.9117026235,
				"element": "H" 
			},
			{
				"x": -4.2592345207,
				"y": 1.8052861919,
				"z": 1.1529384518,
				"element": "H" 
			},
			{
				"x": -2.6511714497,
				"y": 1.1465149883,
				"z": 0.8721162178,
				"element": "H" 
			},
			{
				"x": -3.6805554104,
				"y": 0.9850207714,
				"z": -1.6818450995,
				"element": "H" 
			},
			{
				"x": -5.9303039324,
				"y": 0.53643234,
				"z": -1.6565093026,
				"element": "H" 
			},
			{
				"x": -6.0183763127,
				"y": 0.4461934061,
				"z": -0.0372937345,
				"element": "H" 
			},
			{
				"x": -2.2397936373,
				"y": -1.8910441059,
				"z": -0.4667128947,
				"element": "H" 
			}
		],
		 "valence_orbital": [ 
			{
				"type": "occ",
				"energy": -0.28052,
				"method": "rhf"
			},
			{
				"type": "occ",
				"energy": -0.26631,
				"method": "rhf"
			},
			{
				"type": "occ",
				"energy": -0.25621,
				"method": "rhf"
			},
			{
				"type": "occ",
				"energy": -0.23234,
				"method": "rhf"
			},
			{
				"type": "occ",
				"energy": -0.22229,
				"method": "rhf"
			},
			{
				"type": "unocc",
				"energy": -0.03409,
				"method": "rhf"
			},
			{
				"type": "unocc",
				"energy": -0.02542,
				"method": "rhf"
			},
			{
				"type": "unocc",
				"energy": -0.00177,
				"method": "rhf"
			},
			{
				"type": "unocc",
				"energy": 0.01153,
				"method": "rhf"
			},
			{
				"type": "unocc",
				"energy": 0.04135,
				"method": "rhf"
			}
		],
		"cosmo_sigma_profile": { 
			"-0.025": 0.0,
			"-0.024": 0.0,
			"-0.023": 0.0,
			"-0.022": 0.0,
			"-0.021": 0.0,
			"-0.02": 0.0,
			"-0.019": 0.0240503332816,
			"-0.018": 0.319780407325,
			"-0.017": 0.906309108452,
			"-0.016": 0.65205875299,
			"-0.015": 0.764583355732,
			"-0.014": 0.643163691659,
			"-0.013": 1.34408090011,
			"-0.012": 1.38479576689,
			"-0.011": 3.1849426046,
			"-0.01": 3.99733233352,
			"-0.009": 8.06471808265,
			"-0.008": 13.5380569847,
			"-0.007": 15.1491151596,
			"-0.006": 15.7838073995,
			"-0.005": 18.7763381988,
			"-0.004": 18.9065291525,
			"-0.003": 16.182473984,
			"-0.002": 16.2283673441,
			"-0.001": 17.9848290027,
			"0.0": 17.4136555356,
			"0.001": 15.2949753771,
			"0.002": 13.2520691826,
			"0.003": 16.232645879,
			"0.004": 13.3600707288,
			"0.005": 7.59266469364,
			"0.006": 6.29723479153,
			"0.007": 6.38838868789,
			"0.008": 6.93548927791,
			"0.009": 7.2695090429,
			"0.01": 6.75654610413,
			"0.011": 8.90779265761,
			"0.012": 5.92935496319,
			"0.013": 4.63077872896,
			"0.014": 2.16556044724,
			"0.015": 1.8505186795,
			"0.016": 2.16033456149,
			"0.017": 1.39314064359,
			"0.018": 0.789780676234,
			"0.019": 0.0329685898852,
			"0.02": 0.0,
			"0.021": 0.0,
			"0.022": 0.0,
			"0.023": 0.0,
			"0.024": 0.0,
			"0.025": 0.0
		}
	}
}
