{
	 "smiles": "CC(=O)OC1=CC=C(NC=C2C3CCC(C)(C2=O)C3(C)C)C=C1", 
	 "Tm": 495.15, 
	 "num_atms": 46, 
	 "gaussian": { 
		 "optdone": 1, 
		 "sigma_profile": "yes", 
		 "theory": "DFT", 
		 "functional": "B3LYP", 
		 "basiset": "6-31G**", 
		 "properties": { 
			 "R2extent": 9813.3251, 
			 "electric_dipole_moment_norm": 2.1890678153, 
			 "electric_quadrupole_moment_norm": 45.4274923896, 
			 "total_energy": -1018.30237342, 
			 "HOMO_LUMO_gap": 0.16513, 
			 "cosmo_polarized_energy": -20.48, 
			 "cosmo_cavitation_energy": 46.32, 
			 "cosmo_dispersion_energy": -30.84, 
			 "cosmo_repulsion_energy": 2.34, 
			 "cosmo_total_nonelectrostatic_energy": 17.82, 
			 "SMD_solvation_energy": 9.59 
		},
		"coords": [
			{
				"x": -1.2801669752,
				"y": 3.698401644,
				"z": 3.7649367058,
				"element": "C" 
			},
			{
				"x": -1.2899643736,
				"y": 5.078557074,
				"z": 3.1445784511,
				"element": "C" 
			},
			{
				"x": -1.8896363071,
				"y": 6.0225128416,
				"z": 3.5864521905,
				"element": "O" 
			},
			{
				"x": -0.555257852,
				"y": 5.2584382932,
				"z": 1.989610948,
				"element": "O" 
			},
			{
				"x": 0.1679466616,
				"y": 4.2246656284,
				"z": 1.4047335577,
				"element": "C" 
			},
			{
				"x": -0.4274463919,
				"y": 3.4276362992,
				"z": 0.4265103192,
				"element": "C" 
			},
			{
				"x": 0.3166821808,
				"y": 2.4429350767,
				"z": -0.2186533169,
				"element": "C" 
			},
			{
				"x": 1.6613900935,
				"y": 2.2332165111,
				"z": 0.1232430967,
				"element": "C" 
			},
			{
				"x": 2.4615780019,
				"y": 1.2829229223,
				"z": -0.5370309396,
				"element": "N" 
			},
			{
				"x": 2.1468301185,
				"y": 0.0459368363,
				"z": -1.0524759933,
				"element": "C" 
			},
			{
				"x": 1.0909635712,
				"y": -0.7814630167,
				"z": -0.8806327319,
				"element": "C" 
			},
			{
				"x": -0.1724401021,
				"y": -0.790387684,
				"z": -0.0389244135,
				"element": "C" 
			},
			{
				"x": -1.3690589726,
				"y": -0.7068365988,
				"z": -1.0349267704,
				"element": "C" 
			},
			{
				"x": -1.3191223628,
				"y": -2.0904484116,
				"z": -1.7520250056,
				"element": "C" 
			},
			{
				"x": -0.1401517037,
				"y": -2.8469001879,
				"z": -1.053145427,
				"element": "C" 
			},
			{
				"x": -0.1050481623,
				"y": -4.3457714154,
				"z": -1.2905819653,
				"element": "C" 
			},
			{
				"x": 1.1098889965,
				"y": -2.1021744498,
				"z": -1.5596840442,
				"element": "C" 
			},
			{
				"x": 1.9321188282,
				"y": -2.5247176322,
				"z": -2.359926674,
				"element": "O" 
			},
			{
				"x": -0.2282652038,
				"y": -2.2942541585,
				"z": 0.4158405172,
				"element": "C" 
			},
			{
				"x": -1.5211196903,
				"y": -2.6673779588,
				"z": 1.1612842346,
				"element": "C" 
			},
			{
				"x": 0.9551408017,
				"y": -2.709290263,
				"z": 1.3074371819,
				"element": "C" 
			},
			{
				"x": 2.252190944,
				"y": 3.0552247201,
				"z": 1.0965588343,
				"element": "C" 
			},
			{
				"x": 1.5139051326,
				"y": 4.052836773,
				"z": 1.7276886037,
				"element": "C" 
			},
			{
				"x": -0.2626588885,
				"y": 3.3896230802,
				"z": 4.0210460011,
				"element": "H" 
			},
			{
				"x": -1.894977195,
				"y": 3.7283267063,
				"z": 4.6634227913,
				"element": "H" 
			},
			{
				"x": -1.6762914133,
				"y": 2.9529685225,
				"z": 3.0694280404,
				"element": "H" 
			},
			{
				"x": -1.4629976236,
				"y": 3.6044687141,
				"z": 0.1535539156,
				"element": "H" 
			},
			{
				"x": -0.1348221365,
				"y": 1.8530547004,
				"z": -1.006153969,
				"element": "H" 
			},
			{
				"x": 3.4310633046,
				"y": 1.5452246823,
				"z": -0.6364746696,
				"element": "H" 
			},
			{
				"x": 2.929990712,
				"y": -0.348018218,
				"z": -1.699515006,
				"element": "H" 
			},
			{
				"x": -0.2057967786,
				"y": -0.065425918,
				"z": 0.77564495,
				"element": "H" 
			},
			{
				"x": -1.2568007425,
				"y": 0.1220162221,
				"z": -1.7392614684,
				"element": "H" 
			},
			{
				"x": -2.3165432317,
				"y": -0.5565638628,
				"z": -0.5087714694,
				"element": "H" 
			},
			{
				"x": -1.1487939309,
				"y": -2.0028297327,
				"z": -2.8293707668,
				"element": "H" 
			},
			{
				"x": -2.2510738408,
				"y": -2.6499005431,
				"z": -1.6229607117,
				"element": "H" 
			},
			{
				"x": 0.7173024427,
				"y": -4.8178788342,
				"z": -0.7439786393,
				"element": "H" 
			},
			{
				"x": -1.0418568562,
				"y": -4.8222018917,
				"z": -0.9827675435,
				"element": "H" 
			},
			{
				"x": 0.0555441426,
				"y": -4.5548209119,
				"z": -2.3525271546,
				"element": "H" 
			},
			{
				"x": -1.5275267392,
				"y": -3.7363114998,
				"z": 1.4001883828,
				"element": "H" 
			},
			{
				"x": -1.5787796394,
				"y": -2.1225852618,
				"z": 2.1109608345,
				"element": "H" 
			},
			{
				"x": -2.4338509202,
				"y": -2.4522694134,
				"z": 0.6026423883,
				"element": "H" 
			},
			{
				"x": 0.9085267097,
				"y": -2.1859721151,
				"z": 2.2694873824,
				"element": "H" 
			},
			{
				"x": 0.9197324472,
				"y": -3.7832246194,
				"z": 1.5194506672,
				"element": "H" 
			},
			{
				"x": 1.9259906542,
				"y": -2.4894242455,
				"z": 0.8574254916,
				"element": "H" 
			},
			{
				"x": 3.2955803661,
				"y": 2.9068947836,
				"z": 1.3617072721,
				"element": "H" 
			},
			{
				"x": 1.9725819241,
				"y": 4.6991868125,
				"z": 2.4690559217,
				"element": "H" 
			}
		],
		 "valence_orbital": [ 
			{
				"type": "occ",
				"energy": -0.28279,
				"method": "rhf"
			},
			{
				"type": "occ",
				"energy": -0.27583,
				"method": "rhf"
			},
			{
				"type": "occ",
				"energy": -0.26104,
				"method": "rhf"
			},
			{
				"type": "occ",
				"energy": -0.22656,
				"method": "rhf"
			},
			{
				"type": "occ",
				"energy": -0.20663,
				"method": "rhf"
			},
			{
				"type": "unocc",
				"energy": -0.0415,
				"method": "rhf"
			},
			{
				"type": "unocc",
				"energy": -0.02861,
				"method": "rhf"
			},
			{
				"type": "unocc",
				"energy": -0.00252,
				"method": "rhf"
			},
			{
				"type": "unocc",
				"energy": 0.00405,
				"method": "rhf"
			},
			{
				"type": "unocc",
				"energy": 0.06036,
				"method": "rhf"
			}
		],
		"cosmo_sigma_profile": { 
			"-0.025": 0.0,
			"-0.024": 0.0,
			"-0.023": 0.0,
			"-0.022": 0.0,
			"-0.021": 0.0,
			"-0.02": 0.0,
			"-0.019": 0.0,
			"-0.018": 0.0,
			"-0.017": 0.0,
			"-0.016": 0.058048325007,
			"-0.015": 1.24512248193,
			"-0.014": 1.59198365569,
			"-0.013": 1.47386101579,
			"-0.012": 1.30369187293,
			"-0.011": 1.33561839354,
			"-0.01": 1.86543592977,
			"-0.009": 1.69876391641,
			"-0.008": 1.88471251691,
			"-0.007": 9.21320632104,
			"-0.006": 16.8446484222,
			"-0.005": 15.4367339392,
			"-0.004": 17.0228198096,
			"-0.003": 28.3167327779,
			"-0.002": 44.9619962652,
			"-0.001": 42.711520845,
			"0.0": 38.5476361411,
			"0.001": 36.7198028271,
			"0.002": 25.5989209633,
			"0.003": 15.777221706,
			"0.004": 9.48075084389,
			"0.005": 5.0261884755,
			"0.006": 3.21701637351,
			"0.007": 3.86259553823,
			"0.008": 4.35645325026,
			"0.009": 4.09403827765,
			"0.01": 6.46101734889,
			"0.011": 7.16943450748,
			"0.012": 7.2438407531,
			"0.013": 5.52867002371,
			"0.014": 3.34522080023,
			"0.015": 0.167612047914,
			"0.016": 0.0,
			"0.017": 0.0,
			"0.018": 0.0,
			"0.019": 0.0,
			"0.02": 0.0,
			"0.021": 0.0,
			"0.022": 0.0,
			"0.023": 0.0,
			"0.024": 0.0,
			"0.025": 0.0
		}
	}
}
