{
	 "smiles": "CC1=C(SC=C1)C(N)=S", 
	 "Tm": 391.15, 
	 "num_atms": 16, 
	 "gaussian": { 
		 "optdone": 1, 
		 "sigma_profile": "yes", 
		 "theory": "DFT", 
		 "functional": "B3LYP", 
		 "basiset": "6-31G**", 
		 "properties": { 
			 "R2extent": 2117.5848, 
			 "electric_dipole_moment_norm": 3.9591025915, 
			 "electric_quadrupole_moment_norm": 11.9809046002, 
			 "total_energy": -1083.98204001, 
			 "HOMO_LUMO_gap": 0.1409, 
			 "cosmo_polarized_energy": -12.73, 
			 "cosmo_cavitation_energy": 22.62, 
			 "cosmo_dispersion_energy": -17.82, 
			 "cosmo_repulsion_energy": 1.36, 
			 "cosmo_total_nonelectrostatic_energy": 6.16, 
			 "SMD_solvation_energy": 3.18 
		},
		"coords": [
			{
				"x": 1.5422488749,
				"y": -0.8228709297,
				"z": -0.2119599105,
				"element": "C" 
			},
			{
				"x": 0.2283915685,
				"y": -0.3593869295,
				"z": -0.7776569302,
				"element": "C" 
			},
			{
				"x": -1.035763471,
				"y": -0.8203498462,
				"z": -0.4332488894,
				"element": "C" 
			},
			{
				"x": -2.2832341218,
				"y": 0.0179679483,
				"z": -1.3617964192,
				"element": "S" 
			},
			{
				"x": -1.1025210804,
				"y": 0.9518899705,
				"z": -2.2010517443,
				"element": "C" 
			},
			{
				"x": 0.1654042044,
				"y": 0.6461172068,
				"z": -1.7915264873,
				"element": "C" 
			},
			{
				"x": -1.4359652567,
				"y": -1.8520863902,
				"z": 0.526193032,
				"element": "C" 
			},
			{
				"x": -2.6335369613,
				"y": -2.4444508963,
				"z": 0.2783869138,
				"element": "N" 
			},
			{
				"x": -0.5455759576,
				"y": -2.268865103,
				"z": 1.8810588045,
				"element": "S" 
			},
			{
				"x": 1.7104709307,
				"y": -0.3981903486,
				"z": 0.7825706933,
				"element": "H" 
			},
			{
				"x": 1.5717754548,
				"y": -1.9076944782,
				"z": -0.0880898567,
				"element": "H" 
			},
			{
				"x": 2.3627828495,
				"y": -0.5133220426,
				"z": -0.8661126406,
				"element": "H" 
			},
			{
				"x": -1.4102197011,
				"y": 1.6879448764,
				"z": -2.9311668265,
				"element": "H" 
			},
			{
				"x": 1.0511429547,
				"y": 1.1246437003,
				"z": -2.1948297321,
				"element": "H" 
			},
			{
				"x": -3.0669844338,
				"y": -2.3980410626,
				"z": -0.6327646174,
				"element": "H" 
			},
			{
				"x": -2.9374158538,
				"y": -3.1639056754,
				"z": 0.9179946105,
				"element": "H" 
			}
		],
		 "valence_orbital": [ 
			{
				"type": "occ",
				"energy": -0.34453,
				"method": "rhf"
			},
			{
				"type": "occ",
				"energy": -0.25842,
				"method": "rhf"
			},
			{
				"type": "occ",
				"energy": -0.25175,
				"method": "rhf"
			},
			{
				"type": "occ",
				"energy": -0.22488,
				"method": "rhf"
			},
			{
				"type": "occ",
				"energy": -0.20681,
				"method": "rhf"
			},
			{
				"type": "unocc",
				"energy": -0.06591,
				"method": "rhf"
			},
			{
				"type": "unocc",
				"energy": 0.00474,
				"method": "rhf"
			},
			{
				"type": "unocc",
				"energy": 0.02096,
				"method": "rhf"
			},
			{
				"type": "unocc",
				"energy": 0.05545,
				"method": "rhf"
			},
			{
				"type": "unocc",
				"energy": 0.0852,
				"method": "rhf"
			}
		],
		"cosmo_sigma_profile": { 
			"-0.025": 0.0,
			"-0.024": 0.0,
			"-0.023": 0.0,
			"-0.022": 0.0,
			"-0.021": 0.0,
			"-0.02": 0.0,
			"-0.019": 0.0,
			"-0.018": 0.0,
			"-0.017": 0.0,
			"-0.016": 0.0,
			"-0.015": 0.703272117148,
			"-0.014": 2.34997586641,
			"-0.013": 2.54822727449,
			"-0.012": 1.86154988592,
			"-0.011": 2.12579433296,
			"-0.01": 2.47168349844,
			"-0.009": 3.64433200647,
			"-0.008": 4.14118141112,
			"-0.007": 4.40632940214,
			"-0.006": 6.16473962661,
			"-0.005": 7.36776371845,
			"-0.004": 7.92407526698,
			"-0.003": 9.18282820033,
			"-0.002": 11.0651943226,
			"-0.001": 12.2371059902,
			"0.0": 16.7419135127,
			"0.001": 14.3520285587,
			"0.002": 13.6166151159,
			"0.003": 16.3317917542,
			"0.004": 10.5656655257,
			"0.005": 5.27348933904,
			"0.006": 4.64033440136,
			"0.007": 5.47476772842,
			"0.008": 5.70198860505,
			"0.009": 5.47635450565,
			"0.01": 4.92648919685,
			"0.011": 2.47613415411,
			"0.012": 1.04747110701,
			"0.013": 0.0,
			"0.014": 0.0,
			"0.015": 0.0,
			"0.016": 0.0,
			"0.017": 0.0,
			"0.018": 0.0,
			"0.019": 0.0,
			"0.02": 0.0,
			"0.021": 0.0,
			"0.022": 0.0,
			"0.023": 0.0,
			"0.024": 0.0,
			"0.025": 0.0
		}
	}
}
