{
	 "smiles": "OC(=O)C1=CNN=C1C1=CC=C(F)C=C1", 
	 "Tm": 576.15, 
	 "num_atms": 22, 
	 "gaussian": { 
		 "optdone": 1, 
		 "sigma_profile": "yes", 
		 "theory": "DFT", 
		 "functional": "B3LYP", 
		 "basiset": "6-31G**", 
		 "properties": { 
			 "R2extent": 4420.5753, 
			 "electric_dipole_moment_norm": 2.35567649307, 
			 "electric_quadrupole_moment_norm": 18.1546168255, 
			 "total_energy": -745.065942455, 
			 "HOMO_LUMO_gap": 0.19568, 
			 "cosmo_polarized_energy": -15.94, 
			 "cosmo_cavitation_energy": 27.88, 
			 "cosmo_dispersion_energy": -20.35, 
			 "cosmo_repulsion_energy": 1.57, 
			 "cosmo_total_nonelectrostatic_energy": 9.1, 
			 "SMD_solvation_energy": 5.88 
		},
		"coords": [
			{
				"x": -1.8589971331,
				"y": 3.3935277404,
				"z": -0.537914184,
				"element": "O" 
			},
			{
				"x": -1.3124462662,
				"y": 3.8223834084,
				"z": 0.6254227773,
				"element": "C" 
			},
			{
				"x": -1.2969813102,
				"y": 5.0021462665,
				"z": 0.9289866582,
				"element": "O" 
			},
			{
				"x": -0.7743641138,
				"y": 2.7546984467,
				"z": 1.4770413291,
				"element": "C" 
			},
			{
				"x": -0.3104338917,
				"y": 3.0506858959,
				"z": 2.752235122,
				"element": "C" 
			},
			{
				"x": 0.0281133907,
				"y": 1.8788142014,
				"z": 3.3151190035,
				"element": "N" 
			},
			{
				"x": -0.1659434115,
				"y": 0.8155112997,
				"z": 2.5010398036,
				"element": "N" 
			},
			{
				"x": -0.6584001911,
				"y": 1.3253677162,
				"z": 1.3676875056,
				"element": "C" 
			},
			{
				"x": -0.9790052496,
				"y": 0.3885058478,
				"z": 0.2701841379,
				"element": "C" 
			},
			{
				"x": -0.731418199,
				"y": 0.6957609322,
				"z": -1.0764229863,
				"element": "C" 
			},
			{
				"x": -0.9971348302,
				"y": -0.2316736105,
				"z": -2.0818221194,
				"element": "C" 
			},
			{
				"x": -1.5095351599,
				"y": -1.4748116458,
				"z": -1.7300110782,
				"element": "C" 
			},
			{
				"x": -1.7712540223,
				"y": -2.3746425489,
				"z": -2.7012365649,
				"element": "F" 
			},
			{
				"x": -1.7586235659,
				"y": -1.8182875563,
				"z": -0.405890038,
				"element": "C" 
			},
			{
				"x": -1.4883616412,
				"y": -0.8822190575,
				"z": 0.5886669444,
				"element": "C" 
			},
			{
				"x": -2.1884922579,
				"y": 4.1944889295,
				"z": -0.9789165034,
				"element": "H" 
			},
			{
				"x": -0.230474495,
				"y": 4.0026108485,
				"z": 3.2548819604,
				"element": "H" 
			},
			{
				"x": 0.41239881,
				"y": 1.7221904865,
				"z": 4.2344148344,
				"element": "H" 
			},
			{
				"x": -0.3272352358,
				"y": 1.6642825823,
				"z": -1.342263346,
				"element": "H" 
			},
			{
				"x": -0.8063863529,
				"y": -0.0065549065,
				"z": -3.1254957003,
				"element": "H" 
			},
			{
				"x": -2.1585126791,
				"y": -2.7987812522,
				"z": -0.1711809614,
				"element": "H" 
			},
			{
				"x": -1.6698121943,
				"y": -1.1296040243,
				"z": 1.6287734053,
				"element": "H" 
			}
		],
		 "valence_orbital": [ 
			{
				"type": "occ",
				"energy": -0.28935,
				"method": "rhf"
			},
			{
				"type": "occ",
				"energy": -0.27393,
				"method": "rhf"
			},
			{
				"type": "occ",
				"energy": -0.2644,
				"method": "rhf"
			},
			{
				"type": "occ",
				"energy": -0.25662,
				"method": "rhf"
			},
			{
				"type": "occ",
				"energy": -0.22871,
				"method": "rhf"
			},
			{
				"type": "unocc",
				"energy": -0.03303,
				"method": "rhf"
			},
			{
				"type": "unocc",
				"energy": -0.01539,
				"method": "rhf"
			},
			{
				"type": "unocc",
				"energy": -0.00626,
				"method": "rhf"
			},
			{
				"type": "unocc",
				"energy": 0.03368,
				"method": "rhf"
			},
			{
				"type": "unocc",
				"energy": 0.06605,
				"method": "rhf"
			}
		],
		"cosmo_sigma_profile": { 
			"-0.025": 0.0,
			"-0.024": 0.0,
			"-0.023": 0.0,
			"-0.022": 0.0,
			"-0.021": 0.0,
			"-0.02": 0.0,
			"-0.019": 0.0,
			"-0.018": 1.05024271951,
			"-0.017": 3.04764643342,
			"-0.016": 2.40210830811,
			"-0.015": 2.06661340089,
			"-0.014": 1.37972501747,
			"-0.013": 1.79921186304,
			"-0.012": 1.94318137072,
			"-0.011": 1.85979699055,
			"-0.01": 3.9783419611,
			"-0.009": 2.2298409614,
			"-0.008": 2.46764308189,
			"-0.007": 5.27139099361,
			"-0.006": 8.10295311292,
			"-0.005": 9.180833886,
			"-0.004": 10.5960083775,
			"-0.003": 8.35800054201,
			"-0.002": 10.1565136174,
			"-0.001": 11.0241594638,
			"0.0": 16.2575826512,
			"0.001": 22.4661514077,
			"0.002": 19.4185462168,
			"0.003": 17.4633508685,
			"0.004": 22.3888928527,
			"0.005": 8.60760066261,
			"0.006": 4.17326018052,
			"0.007": 4.38964550099,
			"0.008": 4.36718905849,
			"0.009": 2.73040812628,
			"0.01": 2.81684565463,
			"0.011": 3.57945301336,
			"0.012": 6.11711499515,
			"0.013": 1.60841219971,
			"0.014": 0.751476233578,
			"0.015": 0.178608788385,
			"0.016": 0.0,
			"0.017": 0.0,
			"0.018": 0.0,
			"0.019": 0.0,
			"0.02": 0.0,
			"0.021": 0.0,
			"0.022": 0.0,
			"0.023": 0.0,
			"0.024": 0.0,
			"0.025": 0.0
		}
	}
}
