{
	 "smiles": "NC(=S)NCC1=CC=C(OC(F)(F)F)C=C1", 
	 "Tm": 394.15, 
	 "num_atms": 25, 
	 "gaussian": { 
		 "optdone": 1, 
		 "sigma_profile": "yes", 
		 "theory": "DFT", 
		 "functional": "B3LYP", 
		 "basiset": "6-31G**", 
		 "properties": { 
			 "R2extent": 6615.5789, 
			 "electric_dipole_moment_norm": 4.56287883797, 
			 "electric_quadrupole_moment_norm": 37.803908847, 
			 "total_energy": -1230.83670844, 
			 "HOMO_LUMO_gap": 0.16987, 
			 "cosmo_polarized_energy": -18.69, 
			 "cosmo_cavitation_energy": 32.66, 
			 "cosmo_dispersion_energy": -23.53, 
			 "cosmo_repulsion_energy": 1.76, 
			 "cosmo_total_nonelectrostatic_energy": 10.88, 
			 "SMD_solvation_energy": 5.85 
		},
		"coords": [
			{
				"x": -0.793728091,
				"y": -3.035794109,
				"z": -0.2651340435,
				"element": "N" 
			},
			{
				"x": 0.3791008041,
				"y": -3.5855011086,
				"z": -0.6904134776,
				"element": "C" 
			},
			{
				"x": 0.4569743974,
				"y": -5.0884200848,
				"z": -1.4399958197,
				"element": "S" 
			},
			{
				"x": 1.5024621368,
				"y": -2.8492866572,
				"z": -0.4461414234,
				"element": "N" 
			},
			{
				"x": 1.5794826589,
				"y": -1.6967801666,
				"z": 0.443680873,
				"element": "C" 
			},
			{
				"x": 1.0004128028,
				"y": -0.4095304614,
				"z": -0.1302301273,
				"element": "C" 
			},
			{
				"x": 1.1106552198,
				"y": -0.1030873031,
				"z": -1.4936094301,
				"element": "C" 
			},
			{
				"x": 0.6213343888,
				"y": 1.0985352748,
				"z": -1.994374157,
				"element": "C" 
			},
			{
				"x": 0.015421639,
				"y": 2.0117122948,
				"z": -1.1300128653,
				"element": "C" 
			},
			{
				"x": -0.4301566565,
				"y": 3.1777727873,
				"z": -1.7520402631,
				"element": "O" 
			},
			{
				"x": -1.0894566661,
				"y": 4.1396740669,
				"z": -1.0592427348,
				"element": "C" 
			},
			{
				"x": -2.2252207801,
				"y": 3.6821401406,
				"z": -0.4968079089,
				"element": "F" 
			},
			{
				"x": -1.3999680317,
				"y": 5.1060080501,
				"z": -1.9192312597,
				"element": "F" 
			},
			{
				"x": -0.3404683919,
				"y": 4.6688029614,
				"z": -0.0713847909,
				"element": "F" 
			},
			{
				"x": -0.1131338161,
				"y": 1.7328738548,
				"z": 0.2299571962,
				"element": "C" 
			},
			{
				"x": 0.379770745,
				"y": 0.51809281,
				"z": 0.7123797105,
				"element": "C" 
			},
			{
				"x": -1.6250483678,
				"y": -3.5253407567,
				"z": -0.5590573328,
				"element": "H" 
			},
			{
				"x": -0.8722037432,
				"y": -2.0341961182,
				"z": -0.1455863942,
				"element": "H" 
			},
			{
				"x": 2.3554616845,
				"y": -3.33222507,
				"z": -0.685087719,
				"element": "H" 
			},
			{
				"x": 1.0863362162,
				"y": -1.9225389964,
				"z": 1.3989654833,
				"element": "H" 
			},
			{
				"x": 2.6414997627,
				"y": -1.5489680749,
				"z": 0.6681994683,
				"element": "H" 
			},
			{
				"x": 1.5717351891,
				"y": -0.8187754933,
				"z": -2.1671727305,
				"element": "H" 
			},
			{
				"x": 0.6979770177,
				"y": 1.3438464197,
				"z": -3.0481203214,
				"element": "H" 
			},
			{
				"x": -0.5869992336,
				"y": 2.4303007441,
				"z": 0.9074391036,
				"element": "H" 
			},
			{
				"x": 0.2775591153,
				"y": 0.2984849956,
				"z": 1.7724209644,
				"element": "H" 
			}
		],
		 "valence_orbital": [ 
			{
				"type": "occ",
				"energy": -0.28126,
				"method": "rhf"
			},
			{
				"type": "occ",
				"energy": -0.28027,
				"method": "rhf"
			},
			{
				"type": "occ",
				"energy": -0.25918,
				"method": "rhf"
			},
			{
				"type": "occ",
				"energy": -0.21166,
				"method": "rhf"
			},
			{
				"type": "occ",
				"energy": -0.20257,
				"method": "rhf"
			},
			{
				"type": "unocc",
				"energy": -0.0327,
				"method": "rhf"
			},
			{
				"type": "unocc",
				"energy": -0.02763,
				"method": "rhf"
			},
			{
				"type": "unocc",
				"energy": -0.00177,
				"method": "rhf"
			},
			{
				"type": "unocc",
				"energy": 0.05838,
				"method": "rhf"
			},
			{
				"type": "unocc",
				"energy": 0.0741,
				"method": "rhf"
			}
		],
		"cosmo_sigma_profile": { 
			"-0.025": 0.0,
			"-0.024": 0.0,
			"-0.023": 0.0,
			"-0.022": 0.0,
			"-0.021": 0.0,
			"-0.02": 0.0,
			"-0.019": 0.0,
			"-0.018": 0.0,
			"-0.017": 0.0,
			"-0.016": 0.0,
			"-0.015": 0.134501829931,
			"-0.014": 2.31031886239,
			"-0.013": 1.51177531138,
			"-0.012": 3.01031536596,
			"-0.011": 3.34890850639,
			"-0.01": 2.87749392489,
			"-0.009": 3.42235400582,
			"-0.008": 4.60631971043,
			"-0.007": 11.6374971485,
			"-0.006": 12.8520906408,
			"-0.005": 13.2193211882,
			"-0.004": 14.0977129386,
			"-0.003": 11.1155174743,
			"-0.002": 11.8794776946,
			"-0.001": 15.8190838161,
			"0.0": 18.4990309036,
			"0.001": 31.8753180574,
			"0.002": 36.1482775975,
			"0.003": 14.1023124647,
			"0.004": 7.17512514865,
			"0.005": 5.77478409437,
			"0.006": 4.78187465992,
			"0.007": 3.39777087105,
			"0.008": 4.24248963917,
			"0.009": 3.51840169449,
			"0.01": 5.2854241694,
			"0.011": 5.88699514071,
			"0.012": 8.13114818322,
			"0.013": 2.69737808569,
			"0.014": 0.0,
			"0.015": 0.0,
			"0.016": 0.0,
			"0.017": 0.0,
			"0.018": 0.0,
			"0.019": 0.0,
			"0.02": 0.0,
			"0.021": 0.0,
			"0.022": 0.0,
			"0.023": 0.0,
			"0.024": 0.0,
			"0.025": 0.0
		}
	}
}
