{
	 "smiles": "CC1=C(C=CO1)C(=O)NCC(O)=O", 
	 "Tm": 417.15, 
	 "num_atms": 22, 
	 "gaussian": { 
		 "optdone": 1, 
		 "sigma_profile": "yes", 
		 "theory": "DFT", 
		 "functional": "B3LYP", 
		 "basiset": "6-31G**", 
		 "properties": { 
			 "R2extent": 3923.4542, 
			 "electric_dipole_moment_norm": 3.80527112043, 
			 "electric_quadrupole_moment_norm": 12.9737912539, 
			 "total_energy": -665.931214345, 
			 "HOMO_LUMO_gap": 0.21152, 
			 "cosmo_polarized_energy": -16.69, 
			 "cosmo_cavitation_energy": 27.27, 
			 "cosmo_dispersion_energy": -19.72, 
			 "cosmo_repulsion_energy": 1.59, 
			 "cosmo_total_nonelectrostatic_energy": 9.14, 
			 "SMD_solvation_energy": 7.23 
		},
		"coords": [
			{
				"x": 0.6735594681,
				"y": 1.040238633,
				"z": -2.87633483,
				"element": "C" 
			},
			{
				"x": 1.5566549293,
				"y": 0.1637421182,
				"z": -2.0632002569,
				"element": "C" 
			},
			{
				"x": 1.9850368355,
				"y": 0.193172387,
				"z": -0.7554357599,
				"element": "C" 
			},
			{
				"x": 2.83439259,
				"y": -0.9627929589,
				"z": -0.5851095564,
				"element": "C" 
			},
			{
				"x": 2.8554931506,
				"y": -1.5975547994,
				"z": -1.782026318,
				"element": "C" 
			},
			{
				"x": 2.0806163262,
				"y": -0.9264497247,
				"z": -2.6880297901,
				"element": "O" 
			},
			{
				"x": 1.6114211813,
				"y": 1.2279434718,
				"z": 0.2344023218,
				"element": "C" 
			},
			{
				"x": 1.0223412888,
				"y": 2.2663538742,
				"z": -0.0639886816,
				"element": "O" 
			},
			{
				"x": 1.9955150443,
				"y": 0.9633415587,
				"z": 1.5328951359,
				"element": "N" 
			},
			{
				"x": 1.5729693361,
				"y": 1.8227583624,
				"z": 2.6125900404,
				"element": "C" 
			},
			{
				"x": 0.5067164381,
				"y": 1.2568521629,
				"z": 3.5403778599,
				"element": "C" 
			},
			{
				"x": 0.0670631772,
				"y": 0.0334755023,
				"z": 3.1642277986,
				"element": "O" 
			},
			{
				"x": 0.1022351132,
				"y": 1.833545797,
				"z": 4.5234137379,
				"element": "O" 
			},
			{
				"x": -0.1911983383,
				"y": 0.4817163225,
				"z": -3.2526237515,
				"element": "H" 
			},
			{
				"x": 1.2137375406,
				"y": 1.4342250653,
				"z": -3.7447498617,
				"element": "H" 
			},
			{
				"x": 0.3347615356,
				"y": 1.8712709247,
				"z": -2.2589904902,
				"element": "H" 
			},
			{
				"x": 3.3805025043,
				"y": -1.263524748,
				"z": 0.2978568569,
				"element": "H" 
			},
			{
				"x": 3.3476391715,
				"y": -2.4847162517,
				"z": -2.1482261808,
				"element": "H" 
			},
			{
				"x": 2.2615253219,
				"y": 0.0185884414,
				"z": 1.7645119562,
				"element": "H" 
			},
			{
				"x": 2.4160230245,
				"y": 2.1219907748,
				"z": 3.2462519925,
				"element": "H" 
			},
			{
				"x": 1.1671212156,
				"y": 2.7314578135,
				"z": 2.1585195323,
				"element": "H" 
			},
			{
				"x": -0.6057268544,
				"y": -0.2211347269,
				"z": 3.8183682448,
				"element": "H" 
			}
		],
		 "valence_orbital": [ 
			{
				"type": "occ",
				"energy": -0.2961,
				"method": "rhf"
			},
			{
				"type": "occ",
				"energy": -0.28484,
				"method": "rhf"
			},
			{
				"type": "occ",
				"energy": -0.25896,
				"method": "rhf"
			},
			{
				"type": "occ",
				"energy": -0.25377,
				"method": "rhf"
			},
			{
				"type": "occ",
				"energy": -0.23043,
				"method": "rhf"
			},
			{
				"type": "unocc",
				"energy": -0.01891,
				"method": "rhf"
			},
			{
				"type": "unocc",
				"energy": 0.00335,
				"method": "rhf"
			},
			{
				"type": "unocc",
				"energy": 0.01749,
				"method": "rhf"
			},
			{
				"type": "unocc",
				"energy": 0.06464,
				"method": "rhf"
			},
			{
				"type": "unocc",
				"energy": 0.08599,
				"method": "rhf"
			}
		],
		"cosmo_sigma_profile": { 
			"-0.025": 0.0,
			"-0.024": 0.0,
			"-0.023": 0.0,
			"-0.022": 0.0,
			"-0.021": 0.0,
			"-0.02": 0.0,
			"-0.019": 0.125875618471,
			"-0.018": 1.14095408392,
			"-0.017": 0.679437369218,
			"-0.016": 0.783223674426,
			"-0.015": 0.894315945124,
			"-0.014": 1.70788313149,
			"-0.013": 1.89335531917,
			"-0.012": 2.28290534969,
			"-0.011": 1.67248100991,
			"-0.01": 2.00903098078,
			"-0.009": 3.8286099203,
			"-0.008": 5.41616983753,
			"-0.007": 8.07831030246,
			"-0.006": 8.03335599091,
			"-0.005": 13.1210590033,
			"-0.004": 11.5832653181,
			"-0.003": 12.2524840683,
			"-0.002": 12.1174761163,
			"-0.001": 13.5049179081,
			"0.0": 14.0508079497,
			"0.001": 15.2543904978,
			"0.002": 14.6180538988,
			"0.003": 14.6806870854,
			"0.004": 10.7241360364,
			"0.005": 7.37487600788,
			"0.006": 5.60287317471,
			"0.007": 6.07300789097,
			"0.008": 4.70730926554,
			"0.009": 2.46981935255,
			"0.01": 3.95000313873,
			"0.011": 6.25803630032,
			"0.012": 6.4771282591,
			"0.013": 3.35157153595,
			"0.014": 0.484366727536,
			"0.015": 0.0,
			"0.016": 0.0,
			"0.017": 0.0,
			"0.018": 0.0,
			"0.019": 0.0,
			"0.02": 0.0,
			"0.021": 0.0,
			"0.022": 0.0,
			"0.023": 0.0,
			"0.024": 0.0,
			"0.025": 0.0
		}
	}
}
