{
	 "smiles": "BrC1=CC=CC=C1C1=CC=CC=C1Br", 
	 "Tm": 353.65, 
	 "num_atms": 22, 
	 "gaussian": { 
		 "optdone": 1, 
		 "sigma_profile": "yes", 
		 "theory": "DFT", 
		 "functional": "B3LYP", 
		 "basiset": "6-31G**", 
		 "properties": { 
			 "R2extent": 4610.533, 
			 "electric_dipole_moment_norm": 1.905052267, 
			 "electric_quadrupole_moment_norm": 10.1192895003, 
			 "total_energy": -5604.90745827, 
			 "HOMO_LUMO_gap": 0.21353, 
			 "cosmo_polarized_energy": -6.32, 
			 "cosmo_cavitation_energy": 30.59, 
			 "cosmo_dispersion_energy": -22.07, 
			 "cosmo_repulsion_energy": 1.74, 
			 "cosmo_total_nonelectrostatic_energy": 10.25, 
			 "SMD_solvation_energy": 2.98 
		},
		"coords": [
			{
				"x": -1.6208375448,
				"y": 0.5351100705,
				"z": 2.5249585095,
				"element": "Br" 
			},
			{
				"x": -0.5123717897,
				"y": -1.0107370274,
				"z": 2.3046951067,
				"element": "C" 
			},
			{
				"x": -0.2165050399,
				"y": -1.7611364913,
				"z": 3.443414326,
				"element": "C" 
			},
			{
				"x": 0.5971031121,
				"y": -2.8872130333,
				"z": 3.3350521373,
				"element": "C" 
			},
			{
				"x": 1.1125296382,
				"y": -3.2562933729,
				"z": 2.0918536542,
				"element": "C" 
			},
			{
				"x": 0.8096984778,
				"y": -2.496761303,
				"z": 0.9648428361,
				"element": "C" 
			},
			{
				"x": -0.0089080105,
				"y": -1.3579606309,
				"z": 1.0423950162,
				"element": "C" 
			},
			{
				"x": -0.3376074932,
				"y": -0.6059556657,
				"z": -0.2038277193,
				"element": "C" 
			},
			{
				"x": -1.6153624266,
				"y": -0.7379359208,
				"z": -0.7720980496,
				"element": "C" 
			},
			{
				"x": -1.9583220702,
				"y": -0.090094008,
				"z": -1.9559221957,
				"element": "C" 
			},
			{
				"x": -1.0189249879,
				"y": 0.7137371678,
				"z": -2.6030835199,
				"element": "C" 
			},
			{
				"x": 0.2562945902,
				"y": 0.8652784862,
				"z": -2.0621575728,
				"element": "C" 
			},
			{
				"x": 0.5857608296,
				"y": 0.2084154779,
				"z": -0.8758692745,
				"element": "C" 
			},
			{
				"x": 2.3486597901,
				"y": 0.4727940397,
				"z": -0.1763091111,
				"element": "Br" 
			},
			{
				"x": -0.6202274759,
				"y": -1.4589189764,
				"z": 4.4028865465,
				"element": "H" 
			},
			{
				"x": 0.8258650345,
				"y": -3.4703224352,
				"z": 4.2221107654,
				"element": "H" 
			},
			{
				"x": 1.747137233,
				"y": -4.1322511816,
				"z": 1.9989986418,
				"element": "H" 
			},
			{
				"x": 1.2083985442,
				"y": -2.7800269042,
				"z": -0.0043529777,
				"element": "H" 
			},
			{
				"x": -2.3428611298,
				"y": -1.3642373404,
				"z": -0.2651143476,
				"element": "H" 
			},
			{
				"x": -2.9539491148,
				"y": -0.2133374947,
				"z": -2.370878323,
				"element": "H" 
			},
			{
				"x": -1.2734416024,
				"y": 1.2251543085,
				"z": -3.5266064587,
				"element": "H" 
			},
			{
				"x": 0.995171436,
				"y": 1.4901922352,
				"z": -2.5504879896,
				"element": "H" 
			}
		],
		 "valence_orbital": [ 
			{
				"type": "occ",
				"energy": -0.28626,
				"method": "rhf"
			},
			{
				"type": "occ",
				"energy": -0.26457,
				"method": "rhf"
			},
			{
				"type": "occ",
				"energy": -0.25298,
				"method": "rhf"
			},
			{
				"type": "occ",
				"energy": -0.24224,
				"method": "rhf"
			},
			{
				"type": "occ",
				"energy": -0.24008,
				"method": "rhf"
			},
			{
				"type": "unocc",
				"energy": -0.02655,
				"method": "rhf"
			},
			{
				"type": "unocc",
				"energy": -0.01875,
				"method": "rhf"
			},
			{
				"type": "unocc",
				"energy": -0.00909,
				"method": "rhf"
			},
			{
				"type": "unocc",
				"energy": -0.00688,
				"method": "rhf"
			},
			{
				"type": "unocc",
				"energy": 0.00673,
				"method": "rhf"
			}
		],
		"cosmo_sigma_profile": { 
			"-0.025": 0.0,
			"-0.024": 0.0,
			"-0.023": 0.0,
			"-0.022": 0.0,
			"-0.021": 0.0,
			"-0.02": 0.0,
			"-0.019": 0.0,
			"-0.018": 0.0,
			"-0.017": 0.0,
			"-0.016": 0.0,
			"-0.015": 0.0,
			"-0.014": 0.0,
			"-0.013": 0.0,
			"-0.012": 0.0,
			"-0.011": 0.0,
			"-0.01": 0.0,
			"-0.009": 0.0,
			"-0.008": 0.0372058085986,
			"-0.007": 6.86081328249,
			"-0.006": 15.9492543548,
			"-0.005": 18.4023409232,
			"-0.004": 17.7410124099,
			"-0.003": 16.1998521794,
			"-0.002": 14.4252838063,
			"-0.001": 14.0707780878,
			"0.0": 17.1731057496,
			"0.001": 20.700715182,
			"0.002": 26.5315706007,
			"0.003": 29.7100825216,
			"0.004": 36.678603086,
			"0.005": 16.9982352334,
			"0.006": 0.735505644319,
			"0.007": 0.0,
			"0.008": 0.0,
			"0.009": 0.0,
			"0.01": 0.0,
			"0.011": 0.0,
			"0.012": 0.0,
			"0.013": 0.0,
			"0.014": 0.0,
			"0.015": 0.0,
			"0.016": 0.0,
			"0.017": 0.0,
			"0.018": 0.0,
			"0.019": 0.0,
			"0.02": 0.0,
			"0.021": 0.0,
			"0.022": 0.0,
			"0.023": 0.0,
			"0.024": 0.0,
			"0.025": 0.0
		}
	}
}
