{
	 "smiles": "CCCCC(CC)C(O)=O", 
	 "Tm": 214.15, 
	 "num_atms": 26, 
	 "gaussian": { 
		 "optdone": 1, 
		 "sigma_profile": "yes", 
		 "theory": "DFT", 
		 "functional": "B3LYP", 
		 "basiset": "6-31G**", 
		 "properties": { 
			 "R2extent": 2876.2474, 
			 "electric_dipole_moment_norm": 1.34702675549, 
			 "electric_quadrupole_moment_norm": 6.67750349981, 
			 "total_energy": -464.981130296, 
			 "HOMO_LUMO_gap": 0.28052, 
			 "cosmo_polarized_energy": -7.76, 
			 "cosmo_cavitation_energy": 27.97, 
			 "cosmo_dispersion_energy": -19.47, 
			 "cosmo_repulsion_energy": 1.64, 
			 "cosmo_total_nonelectrostatic_energy": 10.14, 
			 "SMD_solvation_energy": 5.45 
		},
		"coords": [
			{
				"x": -1.1111388111,
				"y": 0.7825940055,
				"z": 2.561084096,
				"element": "C" 
			},
			{
				"x": -1.4520205496,
				"y": -0.5989651143,
				"z": 1.9894122974,
				"element": "C" 
			},
			{
				"x": -0.2716649331,
				"y": -1.3232494469,
				"z": 1.3203172154,
				"element": "C" 
			},
			{
				"x": 0.2439671385,
				"y": -0.6412429266,
				"z": 0.0449511943,
				"element": "C" 
			},
			{
				"x": 1.4130006114,
				"y": -1.3823766036,
				"z": -0.6379095762,
				"element": "C" 
			},
			{
				"x": 1.9667592392,
				"y": -0.5799977361,
				"z": -1.8362488055,
				"element": "C" 
			},
			{
				"x": 3.1983926202,
				"y": -1.2078400861,
				"z": -2.4967489693,
				"element": "C" 
			},
			{
				"x": 0.9398317463,
				"y": -2.743196106,
				"z": -1.1224042364,
				"element": "C" 
			},
			{
				"x": 1.6390100323,
				"y": -3.76893051,
				"z": -0.5773143229,
				"element": "O" 
			},
			{
				"x": 0.0400353854,
				"y": -2.924710565,
				"z": -1.9156819619,
				"element": "O" 
			},
			{
				"x": -1.9751353984,
				"y": 1.2200550229,
				"z": 3.0720063709,
				"element": "H" 
			},
			{
				"x": -0.2936046723,
				"y": 0.7176387661,
				"z": 3.2888017735,
				"element": "H" 
			},
			{
				"x": -0.8041800478,
				"y": 1.4862967223,
				"z": 1.7804544369,
				"element": "H" 
			},
			{
				"x": -1.8346962312,
				"y": -1.2331945166,
				"z": 2.7990158097,
				"element": "H" 
			},
			{
				"x": -2.2728296105,
				"y": -0.5042961827,
				"z": 1.2656314327,
				"element": "H" 
			},
			{
				"x": -0.5843052583,
				"y": -2.3474951817,
				"z": 1.0789806791,
				"element": "H" 
			},
			{
				"x": 0.5522409335,
				"y": -1.4175812806,
				"z": 2.0421993944,
				"element": "H" 
			},
			{
				"x": -0.5749928002,
				"y": -0.5488565408,
				"z": -0.6794386417,
				"element": "H" 
			},
			{
				"x": 0.5829567766,
				"y": 0.37577432,
				"z": 0.2742934805,
				"element": "H" 
			},
			{
				"x": 2.2170111001,
				"y": -1.5430076355,
				"z": 0.089783439,
				"element": "H" 
			},
			{
				"x": 1.1639809711,
				"y": -0.4680079426,
				"z": -2.5743484622,
				"element": "H" 
			},
			{
				"x": 2.2142071348,
				"y": 0.4276037711,
				"z": -1.4805630139,
				"element": "H" 
			},
			{
				"x": 3.5632592676,
				"y": -0.5797085214,
				"z": -3.3155014492,
				"element": "H" 
			},
			{
				"x": 2.9729644307,
				"y": -2.1942201054,
				"z": -2.9159933055,
				"element": "H" 
			},
			{
				"x": 4.017267641,
				"y": -1.3307080976,
				"z": -1.7791768139,
				"element": "H" 
			},
			{
				"x": 1.2611832837,
				"y": -4.5816775085,
				"z": -0.9562020612,
				"element": "H" 
			}
		],
		 "valence_orbital": [ 
			{
				"type": "occ",
				"energy": -0.32462,
				"method": "rhf"
			},
			{
				"type": "occ",
				"energy": -0.32165,
				"method": "rhf"
			},
			{
				"type": "occ",
				"energy": -0.31501,
				"method": "rhf"
			},
			{
				"type": "occ",
				"energy": -0.30687,
				"method": "rhf"
			},
			{
				"type": "occ",
				"energy": -0.26963,
				"method": "rhf"
			},
			{
				"type": "unocc",
				"energy": 0.01089,
				"method": "rhf"
			},
			{
				"type": "unocc",
				"energy": 0.07858,
				"method": "rhf"
			},
			{
				"type": "unocc",
				"energy": 0.09012,
				"method": "rhf"
			},
			{
				"type": "unocc",
				"energy": 0.10344,
				"method": "rhf"
			},
			{
				"type": "unocc",
				"energy": 0.12006,
				"method": "rhf"
			}
		],
		"cosmo_sigma_profile": { 
			"-0.025": 0.0,
			"-0.024": 0.0,
			"-0.023": 0.0,
			"-0.022": 0.0,
			"-0.021": 0.0,
			"-0.02": 0.0,
			"-0.019": 0.0,
			"-0.018": 0.353043506793,
			"-0.017": 0.893374009207,
			"-0.016": 0.757459689738,
			"-0.015": 0.874868485779,
			"-0.014": 0.740845717202,
			"-0.013": 1.21366253661,
			"-0.012": 0.590746538473,
			"-0.011": 0.320486895763,
			"-0.01": 0.70841378764,
			"-0.009": 0.533260472799,
			"-0.008": 0.626961729457,
			"-0.007": 0.901939138393,
			"-0.006": 1.14839827544,
			"-0.005": 0.480412352736,
			"-0.004": 3.58981924777,
			"-0.003": 22.2946890501,
			"-0.002": 34.9503659338,
			"-0.001": 34.7849515795,
			"0.0": 37.1538221059,
			"0.001": 29.8827019239,
			"0.002": 10.8646358937,
			"0.003": 3.33386036191,
			"0.004": 3.30687553187,
			"0.005": 2.80588784436,
			"0.006": 2.63103932511,
			"0.007": 3.12145071355,
			"0.008": 2.03548158948,
			"0.009": 2.31134892285,
			"0.01": 3.19535349061,
			"0.011": 2.66156558671,
			"0.012": 4.80303226724,
			"0.013": 1.52198328063,
			"0.014": 0.0,
			"0.015": 0.0,
			"0.016": 0.0,
			"0.017": 0.0,
			"0.018": 0.0,
			"0.019": 0.0,
			"0.02": 0.0,
			"0.021": 0.0,
			"0.022": 0.0,
			"0.023": 0.0,
			"0.024": 0.0,
			"0.025": 0.0
		}
	}
}
