{
	 "smiles": "COC1=CC(C=O)=CC(OC)=C1O", 
	 "Tm": 385.15, 
	 "num_atms": 23, 
	 "gaussian": { 
		 "optdone": 1, 
		 "sigma_profile": "yes", 
		 "theory": "DFT", 
		 "functional": "B3LYP", 
		 "basiset": "6-31G**", 
		 "properties": { 
			 "R2extent": 2995.0445, 
			 "electric_dipole_moment_norm": 3.62385126212, 
			 "electric_quadrupole_moment_norm": 23.6811708243, 
			 "total_energy": -649.840819014, 
			 "HOMO_LUMO_gap": 0.16189, 
			 "cosmo_polarized_energy": -14.06, 
			 "cosmo_cavitation_energy": 27.42, 
			 "cosmo_dispersion_energy": -20.07, 
			 "cosmo_repulsion_energy": 1.59, 
			 "cosmo_total_nonelectrostatic_energy": 8.94, 
			 "SMD_solvation_energy": 7.71 
		},
		"coords": [
			{
				"x": 1.8527293824,
				"y": -1.6268762957,
				"z": 1.557076419,
				"element": "C" 
			},
			{
				"x": 0.4871226792,
				"y": -1.8363458992,
				"z": 1.2283816818,
				"element": "O" 
			},
			{
				"x": -0.1475694527,
				"y": -0.8628658807,
				"z": 0.5229268944,
				"element": "C" 
			},
			{
				"x": 0.4258181942,
				"y": 0.3300595006,
				"z": 0.0901013875,
				"element": "C" 
			},
			{
				"x": -0.3379723946,
				"y": 1.2587259009,
				"z": -0.633382204,
				"element": "C" 
			},
			{
				"x": 0.2800237952,
				"y": 2.5163091507,
				"z": -1.0853664102,
				"element": "C" 
			},
			{
				"x": 1.4377200154,
				"y": 2.8395790247,
				"z": -0.8823155928,
				"element": "O" 
			},
			{
				"x": -1.6844018072,
				"y": 1.0064236925,
				"z": -0.9330825903,
				"element": "C" 
			},
			{
				"x": -2.2570058568,
				"y": -0.1852772623,
				"z": -0.500563406,
				"element": "C" 
			},
			{
				"x": -3.5552904629,
				"y": -0.5856017804,
				"z": -0.7083678262,
				"element": "O" 
			},
			{
				"x": -4.4158606614,
				"y": 0.2829620947,
				"z": -1.4312170906,
				"element": "C" 
			},
			{
				"x": -1.5021536754,
				"y": -1.1241091029,
				"z": 0.2252095875,
				"element": "C" 
			},
			{
				"x": -2.0637778846,
				"y": -2.2820624269,
				"z": 0.6437472499,
				"element": "O" 
			},
			{
				"x": 1.9848564908,
				"y": -0.7369522428,
				"z": 2.1853378122,
				"element": "H" 
			},
			{
				"x": 2.473531615,
				"y": -1.5255017347,
				"z": 0.6579318654,
				"element": "H" 
			},
			{
				"x": 2.1647183721,
				"y": -2.5115726297,
				"z": 2.1136156542,
				"element": "H" 
			},
			{
				"x": 1.4603973138,
				"y": 0.5772875929,
				"z": 0.2929161426,
				"element": "H" 
			},
			{
				"x": -0.4057407456,
				"y": 3.1879232203,
				"z": -1.6509641788,
				"element": "H" 
			},
			{
				"x": -2.2568723992,
				"y": 1.7376940476,
				"z": -1.4935058753,
				"element": "H" 
			},
			{
				"x": -5.3830642783,
				"y": -0.2188081121,
				"z": -1.4807346125,
				"element": "H" 
			},
			{
				"x": -4.5318756282,
				"y": 1.2459327598,
				"z": -0.9188320752,
				"element": "H" 
			},
			{
				"x": -4.0439769865,
				"y": 0.4563714681,
				"z": -2.4485421649,
				"element": "H" 
			},
			{
				"x": -2.9862556246,
				"y": -2.2689950853,
				"z": 0.3423293325,
				"element": "H" 
			}
		],
		 "valence_orbital": [ 
			{
				"type": "occ",
				"energy": -0.33648,
				"method": "rhf"
			},
			{
				"type": "occ",
				"energy": -0.30621,
				"method": "rhf"
			},
			{
				"type": "occ",
				"energy": -0.24627,
				"method": "rhf"
			},
			{
				"type": "occ",
				"energy": -0.23057,
				"method": "rhf"
			},
			{
				"type": "occ",
				"energy": -0.21177,
				"method": "rhf"
			},
			{
				"type": "unocc",
				"energy": -0.04988,
				"method": "rhf"
			},
			{
				"type": "unocc",
				"energy": 0.01044,
				"method": "rhf"
			},
			{
				"type": "unocc",
				"energy": 0.05707,
				"method": "rhf"
			},
			{
				"type": "unocc",
				"energy": 0.06548,
				"method": "rhf"
			},
			{
				"type": "unocc",
				"energy": 0.08679,
				"method": "rhf"
			}
		],
		"cosmo_sigma_profile": { 
			"-0.025": 0.0,
			"-0.024": 0.0,
			"-0.023": 0.0,
			"-0.022": 0.0,
			"-0.021": 0.0,
			"-0.02": 0.0,
			"-0.019": 0.0,
			"-0.018": 0.0,
			"-0.017": 0.0,
			"-0.016": 0.0,
			"-0.015": 0.337530372562,
			"-0.014": 0.590977292969,
			"-0.013": 0.513726992244,
			"-0.012": 0.613269025109,
			"-0.011": 0.692924273935,
			"-0.01": 0.633859043133,
			"-0.009": 0.588265026092,
			"-0.008": 1.7246214573,
			"-0.007": 5.84989808866,
			"-0.006": 18.1231894419,
			"-0.005": 21.7952230251,
			"-0.004": 21.9125524959,
			"-0.003": 19.1241856537,
			"-0.002": 11.4828075522,
			"-0.001": 9.99902008228,
			"0.0": 10.1621943271,
			"0.001": 15.3984362456,
			"0.002": 15.2593812157,
			"0.003": 13.606622341,
			"0.004": 9.63113456237,
			"0.005": 4.30312168835,
			"0.006": 4.1917967425,
			"0.007": 3.22015514395,
			"0.008": 3.73230543621,
			"0.009": 4.03419050977,
			"0.01": 4.16355930747,
			"0.011": 5.83147495264,
			"0.012": 6.58451198022,
			"0.013": 3.56643512224,
			"0.014": 0.254143737774,
			"0.015": 0.0,
			"0.016": 0.0,
			"0.017": 0.0,
			"0.018": 0.0,
			"0.019": 0.0,
			"0.02": 0.0,
			"0.021": 0.0,
			"0.022": 0.0,
			"0.023": 0.0,
			"0.024": 0.0,
			"0.025": 0.0
		}
	}
}
