{
	 "smiles": "CCOC(=O)C1=CC2=C(C=C1)N(C)N=N2", 
	 "Tm": 379.15, 
	 "num_atms": 26, 
	 "gaussian": { 
		 "optdone": 1, 
		 "sigma_profile": "yes", 
		 "theory": "DFT", 
		 "functional": "B3LYP", 
		 "basiset": "6-31G**", 
		 "properties": { 
			 "R2extent": 5026.1961, 
			 "electric_dipole_moment_norm": 2.49161183775, 
			 "electric_quadrupole_moment_norm": 36.1022303646, 
			 "total_energy": -702.382202301, 
			 "HOMO_LUMO_gap": 0.18911, 
			 "cosmo_polarized_energy": -14.02, 
			 "cosmo_cavitation_energy": 30.65, 
			 "cosmo_dispersion_energy": -22.42, 
			 "cosmo_repulsion_energy": 1.75, 
			 "cosmo_total_nonelectrostatic_energy": 9.98, 
			 "SMD_solvation_energy": 4.74 
		},
		"coords": [
			{
				"x": 0.4436089464,
				"y": -3.7411605342,
				"z": -2.8048201297,
				"element": "C" 
			},
			{
				"x": 0.8505327354,
				"y": -3.1973563245,
				"z": -1.4434538258,
				"element": "C" 
			},
			{
				"x": 0.1305991971,
				"y": -1.9828092008,
				"z": -1.1248333124,
				"element": "O" 
			},
			{
				"x": 0.653149929,
				"y": -0.828885984,
				"z": -1.5974527591,
				"element": "C" 
			},
			{
				"x": 1.6770063856,
				"y": -0.7706105689,
				"z": -2.2537957914,
				"element": "O" 
			},
			{
				"x": -0.1627866274,
				"y": 0.3593368092,
				"z": -1.2192066804,
				"element": "C" 
			},
			{
				"x": -1.330297071,
				"y": 0.2440354091,
				"z": -0.4704482209,
				"element": "C" 
			},
			{
				"x": -2.0218569782,
				"y": 1.424207595,
				"z": -0.1701586198,
				"element": "C" 
			},
			{
				"x": -1.5464607044,
				"y": 2.677295818,
				"z": -0.6131028248,
				"element": "C" 
			},
			{
				"x": -0.3681812532,
				"y": 2.800949006,
				"z": -1.3698235777,
				"element": "C" 
			},
			{
				"x": 0.3044570387,
				"y": 1.6286887883,
				"z": -1.6598241703,
				"element": "C" 
			},
			{
				"x": -2.4698079582,
				"y": 3.5578599778,
				"z": -0.1322532206,
				"element": "N" 
			},
			{
				"x": -2.5397689878,
				"y": 5.0023478713,
				"z": -0.2534566307,
				"element": "C" 
			},
			{
				"x": -3.443838042,
				"y": 2.8882463332,
				"z": 0.5578683872,
				"element": "N" 
			},
			{
				"x": -3.1875738419,
				"y": 1.622670119,
				"z": 0.5413884183,
				"element": "N" 
			},
			{
				"x": 0.9446108861,
				"y": -4.6978829225,
				"z": -2.9867303881,
				"element": "H" 
			},
			{
				"x": -0.6369875203,
				"y": -3.9046982319,
				"z": -2.852571789,
				"element": "H" 
			},
			{
				"x": 0.7328942199,
				"y": -3.0467662276,
				"z": -3.5972886901,
				"element": "H" 
			},
			{
				"x": 1.9225685351,
				"y": -2.9907069564,
				"z": -1.4058175104,
				"element": "H" 
			},
			{
				"x": 0.5841252722,
				"y": -3.8879804621,
				"z": -0.6398108675,
				"element": "H" 
			},
			{
				"x": -1.6919936063,
				"y": -0.7190198363,
				"z": -0.1323404808,
				"element": "H" 
			},
			{
				"x": 0.0021740536,
				"y": 3.7612654164,
				"z": -1.7133477746,
				"element": "H" 
			},
			{
				"x": 1.2207211571,
				"y": 1.6474520429,
				"z": -2.2395659802,
				"element": "H" 
			},
			{
				"x": -1.6830575988,
				"y": 5.3499145105,
				"z": -0.8318221046,
				"element": "H" 
			},
			{
				"x": -2.5169572286,
				"y": 5.4647705593,
				"z": 0.7363055945,
				"element": "H" 
			},
			{
				"x": -3.4606809384,
				"y": 5.2932369933,
				"z": -0.7646370512,
				"element": "H" 
			}
		],
		 "valence_orbital": [ 
			{
				"type": "occ",
				"energy": -0.29833,
				"method": "rhf"
			},
			{
				"type": "occ",
				"energy": -0.27506,
				"method": "rhf"
			},
			{
				"type": "occ",
				"energy": -0.27051,
				"method": "rhf"
			},
			{
				"type": "occ",
				"energy": -0.25774,
				"method": "rhf"
			},
			{
				"type": "occ",
				"energy": -0.24376,
				"method": "rhf"
			},
			{
				"type": "unocc",
				"energy": -0.05465,
				"method": "rhf"
			},
			{
				"type": "unocc",
				"energy": -0.03106,
				"method": "rhf"
			},
			{
				"type": "unocc",
				"energy": 0.02558,
				"method": "rhf"
			},
			{
				"type": "unocc",
				"energy": 0.06906,
				"method": "rhf"
			},
			{
				"type": "unocc",
				"energy": 0.078,
				"method": "rhf"
			}
		],
		"cosmo_sigma_profile": { 
			"-0.025": 0.0,
			"-0.024": 0.0,
			"-0.023": 0.0,
			"-0.022": 0.0,
			"-0.021": 0.0,
			"-0.02": 0.0,
			"-0.019": 0.0,
			"-0.018": 0.0,
			"-0.017": 0.0,
			"-0.016": 0.0,
			"-0.015": 0.0,
			"-0.014": 0.0,
			"-0.013": 0.0,
			"-0.012": 0.0,
			"-0.011": 0.0,
			"-0.01": 0.553671787597,
			"-0.009": 2.22843931791,
			"-0.008": 4.08372508855,
			"-0.007": 8.23144863961,
			"-0.006": 12.3806801128,
			"-0.005": 16.0137158135,
			"-0.004": 24.5022719299,
			"-0.003": 19.4087574969,
			"-0.002": 22.0323666203,
			"-0.001": 19.0468799,
			"0.0": 21.9010023348,
			"0.001": 21.514981867,
			"0.002": 15.3830868626,
			"0.003": 10.0639215554,
			"0.004": 4.6136269484,
			"0.005": 6.12907165062,
			"0.006": 4.67245067267,
			"0.007": 2.90278427538,
			"0.008": 3.87043970936,
			"0.009": 4.55298657005,
			"0.01": 6.03402505821,
			"0.011": 4.38106161807,
			"0.012": 6.63131854416,
			"0.013": 1.65507029393,
			"0.014": 0.879883582136,
			"0.015": 0.958531152062,
			"0.016": 0.0457638291922,
			"0.017": 0.0,
			"0.018": 0.0,
			"0.019": 0.0,
			"0.02": 0.0,
			"0.021": 0.0,
			"0.022": 0.0,
			"0.023": 0.0,
			"0.024": 0.0,
			"0.025": 0.0
		}
	}
}
