{
	 "smiles": "CC1=CC(=O)OC2=CC(O)=C(Cl)C=C12", 
	 "Tm": 552.15, 
	 "num_atms": 21, 
	 "gaussian": { 
		 "optdone": 1, 
		 "sigma_profile": "yes", 
		 "theory": "DFT", 
		 "functional": "B3LYP", 
		 "basiset": "6-31G**", 
		 "properties": { 
			 "R2extent": 4601.0775, 
			 "electric_dipole_moment_norm": 4.98060652933, 
			 "electric_quadrupole_moment_norm": 21.8396716997, 
			 "total_energy": -1071.15657875, 
			 "HOMO_LUMO_gap": 0.16395, 
			 "cosmo_polarized_energy": -13.33, 
			 "cosmo_cavitation_energy": 27.27, 
			 "cosmo_dispersion_energy": -20.54, 
			 "cosmo_repulsion_energy": 1.59, 
			 "cosmo_total_nonelectrostatic_energy": 8.32, 
			 "SMD_solvation_energy": 5.92 
		},
		"coords": [
			{
				"x": -2.3783182423,
				"y": 0.7533292063,
				"z": 0.0211598964,
				"element": "C" 
			},
			{
				"x": -1.7747676493,
				"y": -0.0337202144,
				"z": 1.1525240383,
				"element": "C" 
			},
			{
				"x": -2.5313091415,
				"y": -0.8604549085,
				"z": 1.918930291,
				"element": "C" 
			},
			{
				"x": -1.9932992712,
				"y": -1.6412717684,
				"z": 3.0224552206,
				"element": "C" 
			},
			{
				"x": -2.6127882441,
				"y": -2.3904692885,
				"z": 3.7392786168,
				"element": "O" 
			},
			{
				"x": -0.622220654,
				"y": -1.4967295887,
				"z": 3.2655043908,
				"element": "O" 
			},
			{
				"x": 0.1660067874,
				"y": -0.6779426678,
				"z": 2.5183893662,
				"element": "C" 
			},
			{
				"x": 1.5132361049,
				"y": -0.6266705078,
				"z": 2.8660661002,
				"element": "C" 
			},
			{
				"x": 2.3860701249,
				"y": 0.1896499048,
				"z": 2.1476276672,
				"element": "C" 
			},
			{
				"x": 3.6846414852,
				"y": 0.2144450683,
				"z": 2.5124206522,
				"element": "O" 
			},
			{
				"x": 1.8734437011,
				"y": 0.9506688647,
				"z": 1.0748021167,
				"element": "C" 
			},
			{
				"x": 2.9859445927,
				"y": 1.9787898108,
				"z": 0.1740112755,
				"element": "Cl" 
			},
			{
				"x": 0.5344766097,
				"y": 0.8983844096,
				"z": 0.7308824913,
				"element": "C" 
			},
			{
				"x": -0.3565681285,
				"y": 0.0794426732,
				"z": 1.4468742922,
				"element": "C" 
			},
			{
				"x": -1.9047117193,
				"y": 0.4975667357,
				"z": -0.9336748304,
				"element": "H" 
			},
			{
				"x": -3.4484111485,
				"y": 0.5555107816,
				"z": -0.0654760965,
				"element": "H" 
			},
			{
				"x": -2.2406270417,
				"y": 1.8301410563,
				"z": 0.1726252806,
				"element": "H" 
			},
			{
				"x": -3.5941446526,
				"y": -0.9843767975,
				"z": 1.7458499784,
				"element": "H" 
			},
			{
				"x": 1.8859141762,
				"y": -1.2189604217,
				"z": 3.6931019946,
				"element": "H" 
			},
			{
				"x": 4.1670074299,
				"y": 0.8206360366,
				"z": 1.9285154872,
				"element": "H" 
			},
			{
				"x": 0.1801248812,
				"y": 1.4978316153,
				"z": -0.0990682295,
				"element": "H" 
			}
		],
		 "valence_orbital": [ 
			{
				"type": "occ",
				"energy": -0.33842,
				"method": "rhf"
			},
			{
				"type": "occ",
				"energy": -0.29333,
				"method": "rhf"
			},
			{
				"type": "occ",
				"energy": -0.27414,
				"method": "rhf"
			},
			{
				"type": "occ",
				"energy": -0.25848,
				"method": "rhf"
			},
			{
				"type": "occ",
				"energy": -0.23133,
				"method": "rhf"
			},
			{
				"type": "unocc",
				"energy": -0.06738,
				"method": "rhf"
			},
			{
				"type": "unocc",
				"energy": -0.02366,
				"method": "rhf"
			},
			{
				"type": "unocc",
				"energy": 0.00035,
				"method": "rhf"
			},
			{
				"type": "unocc",
				"energy": 0.00539,
				"method": "rhf"
			},
			{
				"type": "unocc",
				"energy": 0.07528,
				"method": "rhf"
			}
		],
		"cosmo_sigma_profile": { 
			"-0.025": 0.0,
			"-0.024": 0.0,
			"-0.023": 0.0,
			"-0.022": 0.0,
			"-0.021": 0.0,
			"-0.02": 0.0,
			"-0.019": 0.0,
			"-0.018": 0.0,
			"-0.017": 0.0,
			"-0.016": 0.266254842802,
			"-0.015": 0.71848359299,
			"-0.014": 0.633885304186,
			"-0.013": 0.546289818458,
			"-0.012": 0.627268662604,
			"-0.011": 1.28037065084,
			"-0.01": 1.04941872862,
			"-0.009": 1.16620170095,
			"-0.008": 3.95604362834,
			"-0.007": 8.41210884352,
			"-0.006": 11.2701827177,
			"-0.005": 11.0348812238,
			"-0.004": 12.9187198225,
			"-0.003": 14.3142518977,
			"-0.002": 17.6269246789,
			"-0.001": 21.1175369093,
			"0.0": 23.4585888513,
			"0.001": 24.7888160449,
			"0.002": 13.5335805926,
			"0.003": 10.2287781578,
			"0.004": 6.99869433546,
			"0.005": 3.80984340261,
			"0.006": 3.16004154214,
			"0.007": 3.46717454225,
			"0.008": 4.00862904581,
			"0.009": 4.02355732712,
			"0.01": 3.71810678493,
			"0.011": 3.60585528803,
			"0.012": 6.25986152481,
			"0.013": 3.02030012749,
			"0.014": 0.117395272459,
			"0.015": 0.0,
			"0.016": 0.0,
			"0.017": 0.0,
			"0.018": 0.0,
			"0.019": 0.0,
			"0.02": 0.0,
			"0.021": 0.0,
			"0.022": 0.0,
			"0.023": 0.0,
			"0.024": 0.0,
			"0.025": 0.0
		}
	}
}
