{
	 "smiles": "CC(C)(OOC(C)(C)C1=CC=CC=C1)C1=CC=CC=C1", 
	 "Tm": 313.45, 
	 "num_atms": 42, 
	 "gaussian": { 
		 "optdone": 1, 
		 "sigma_profile": "yes", 
		 "theory": "DFT", 
		 "functional": "B3LYP", 
		 "basiset": "6-31G**", 
		 "properties": { 
			 "R2extent": 7201.1282, 
			 "electric_dipole_moment_norm": 0.729071107643, 
			 "electric_quadrupole_moment_norm": 5.34641830294, 
			 "total_energy": -849.545988034, 
			 "HOMO_LUMO_gap": 0.22233, 
			 "cosmo_polarized_energy": -8.67, 
			 "cosmo_cavitation_energy": 43.47, 
			 "cosmo_dispersion_energy": -28.5, 
			 "cosmo_repulsion_energy": 2.19, 
			 "cosmo_total_nonelectrostatic_energy": 17.16, 
			 "SMD_solvation_energy": 7.28 
		},
		"coords": [
			{
				"x": -0.9088066643,
				"y": -0.6502706971,
				"z": 2.6648274758,
				"element": "C" 
			},
			{
				"x": 0.1644552937,
				"y": 0.3439160314,
				"z": 2.1861299944,
				"element": "C" 
			},
			{
				"x": 1.5657835278,
				"y": -0.2674044961,
				"z": 2.3115600598,
				"element": "C" 
			},
			{
				"x": -0.0684572911,
				"y": 0.7270798234,
				"z": 0.8082137403,
				"element": "O" 
			},
			{
				"x": -0.0204366625,
				"y": -0.5035928931,
				"z": -0.0065679939,
				"element": "O" 
			},
			{
				"x": -0.6939798661,
				"y": -0.23029443,
				"z": -1.247652713,
				"element": "C" 
			},
			{
				"x": -2.1584786714,
				"y": 0.1473057793,
				"z": -0.9832570278,
				"element": "C" 
			},
			{
				"x": -0.6083645072,
				"y": -1.5995247077,
				"z": -1.9501408201,
				"element": "C" 
			},
			{
				"x": 0.0724002412,
				"y": 0.8174996912,
				"z": -2.0654591456,
				"element": "C" 
			},
			{
				"x": 1.4499075652,
				"y": 0.9844731664,
				"z": -1.8696357725,
				"element": "C" 
			},
			{
				"x": 2.1775692744,
				"y": 1.886926394,
				"z": -2.6442101935,
				"element": "C" 
			},
			{
				"x": 1.5421868465,
				"y": 2.6381254614,
				"z": -3.6349804035,
				"element": "C" 
			},
			{
				"x": 0.172308717,
				"y": 2.4779416142,
				"z": -3.8411792685,
				"element": "C" 
			},
			{
				"x": -0.555619216,
				"y": 1.5759059554,
				"z": -3.0619381489,
				"element": "C" 
			},
			{
				"x": 0.008664666,
				"y": 1.6819227261,
				"z": 2.9202449992,
				"element": "C" 
			},
			{
				"x": -1.10136169,
				"y": 2.495403647,
				"z": 2.6420625857,
				"element": "C" 
			},
			{
				"x": -1.2923961993,
				"y": 3.7009738811,
				"z": 3.3146738081,
				"element": "C" 
			},
			{
				"x": -0.3804417101,
				"y": 4.115310817,
				"z": 4.2877233564,
				"element": "C" 
			},
			{
				"x": 0.7242102706,
				"y": 3.3148526869,
				"z": 4.5748185506,
				"element": "C" 
			},
			{
				"x": 0.9195097061,
				"y": 2.1112754771,
				"z": 3.8929656092,
				"element": "C" 
			},
			{
				"x": -1.9092142836,
				"y": -0.2322998235,
				"z": 2.525987162,
				"element": "H" 
			},
			{
				"x": -0.7728885977,
				"y": -0.8613826483,
				"z": 3.7297952201,
				"element": "H" 
			},
			{
				"x": -0.839634075,
				"y": -1.5869894307,
				"z": 2.107746526,
				"element": "H" 
			},
			{
				"x": 1.6343074509,
				"y": -1.1457302886,
				"z": 1.667436878,
				"element": "H" 
			},
			{
				"x": 2.3303696871,
				"y": 0.4504836519,
				"z": 2.0028308334,
				"element": "H" 
			},
			{
				"x": 1.7707535149,
				"y": -0.5843420364,
				"z": 3.3382105179,
				"element": "H" 
			},
			{
				"x": -2.7422906977,
				"y": 0.1331037124,
				"z": -1.9075438553,
				"element": "H" 
			},
			{
				"x": -2.2359092783,
				"y": 1.1402853364,
				"z": -0.5380160352,
				"element": "H" 
			},
			{
				"x": -2.5970572393,
				"y": -0.5829873925,
				"z": -0.2977619153,
				"element": "H" 
			},
			{
				"x": -1.1405950779,
				"y": -2.3615536391,
				"z": -1.3726906921,
				"element": "H" 
			},
			{
				"x": 0.4346655632,
				"y": -1.9053839886,
				"z": -2.064570143,
				"element": "H" 
			},
			{
				"x": -1.0570976597,
				"y": -1.5303550905,
				"z": -2.944567117,
				"element": "H" 
			},
			{
				"x": 1.942193191,
				"y": 0.4103119468,
				"z": -1.0930894789,
				"element": "H" 
			},
			{
				"x": 3.2435833388,
				"y": 2.0064196632,
				"z": -2.4704451004,
				"element": "H" 
			},
			{
				"x": 2.1085476449,
				"y": 3.3424072142,
				"z": -4.2377559867,
				"element": "H" 
			},
			{
				"x": -0.3358262343,
				"y": 3.0569539042,
				"z": -4.607500666,
				"element": "H" 
			},
			{
				"x": -1.6211062931,
				"y": 1.4702919111,
				"z": -3.2403345514,
				"element": "H" 
			},
			{
				"x": -1.8112818557,
				"y": 2.1844371471,
				"z": 1.8834883371,
				"element": "H" 
			},
			{
				"x": -2.1548544858,
				"y": 4.3179441348,
				"z": 3.0781044379,
				"element": "H" 
			},
			{
				"x": -0.5295101358,
				"y": 5.0533352738,
				"z": 4.8148785793,
				"element": "H" 
			},
			{
				"x": 1.4423278813,
				"y": 3.6258874048,
				"z": 5.3284533478,
				"element": "H" 
			},
			{
				"x": 1.7902640111,
				"y": 1.5102371096,
				"z": 4.1300450098,
				"element": "H" 
			}
		],
		 "valence_orbital": [ 
			{
				"type": "occ",
				"energy": -0.24671,
				"method": "rhf"
			},
			{
				"type": "occ",
				"energy": -0.24408,
				"method": "rhf"
			},
			{
				"type": "occ",
				"energy": -0.24153,
				"method": "rhf"
			},
			{
				"type": "occ",
				"energy": -0.23531,
				"method": "rhf"
			},
			{
				"type": "occ",
				"energy": -0.22981,
				"method": "rhf"
			},
			{
				"type": "unocc",
				"energy": -0.00748,
				"method": "rhf"
			},
			{
				"type": "unocc",
				"energy": 0.00133,
				"method": "rhf"
			},
			{
				"type": "unocc",
				"energy": 0.00509,
				"method": "rhf"
			},
			{
				"type": "unocc",
				"energy": 0.00745,
				"method": "rhf"
			},
			{
				"type": "unocc",
				"energy": 0.03607,
				"method": "rhf"
			}
		],
		"cosmo_sigma_profile": { 
			"-0.025": 0.0,
			"-0.024": 0.0,
			"-0.023": 0.0,
			"-0.022": 0.0,
			"-0.021": 0.0,
			"-0.02": 0.0,
			"-0.019": 0.0,
			"-0.018": 0.0,
			"-0.017": 0.0,
			"-0.016": 0.0,
			"-0.015": 0.0,
			"-0.014": 0.0,
			"-0.013": 0.0,
			"-0.012": 0.0,
			"-0.011": 0.0,
			"-0.01": 0.0,
			"-0.009": 0.0,
			"-0.008": 0.0,
			"-0.007": 0.0,
			"-0.006": 5.93123946763,
			"-0.005": 20.4716791149,
			"-0.004": 31.4828452505,
			"-0.003": 40.4153629288,
			"-0.002": 34.7543772178,
			"-0.001": 35.4724215525,
			"0.0": 39.3163352714,
			"0.001": 30.5481936372,
			"0.002": 18.6038329384,
			"0.003": 18.5182680275,
			"0.004": 18.5812730158,
			"0.005": 19.2817562084,
			"0.006": 18.7380636999,
			"0.007": 4.83147004966,
			"0.008": 2.05789954127,
			"0.009": 1.44163831767,
			"0.01": 1.33332264784,
			"0.011": 0.46865158198,
			"0.012": 0.0,
			"0.013": 0.0,
			"0.014": 0.0,
			"0.015": 0.0,
			"0.016": 0.0,
			"0.017": 0.0,
			"0.018": 0.0,
			"0.019": 0.0,
			"0.02": 0.0,
			"0.021": 0.0,
			"0.022": 0.0,
			"0.023": 0.0,
			"0.024": 0.0,
			"0.025": 0.0
		}
	}
}
