{
	 "smiles": "CC(NC1=NN=C(Cl)C=C1)C1=CC=CC=C1", 
	 "Tm": 433.15, 
	 "num_atms": 28, 
	 "gaussian": { 
		 "optdone": 1, 
		 "sigma_profile": "yes", 
		 "theory": "DFT", 
		 "functional": "B3LYP", 
		 "basiset": "6-31G**", 
		 "properties": { 
			 "R2extent": 5290.8775, 
			 "electric_dipole_moment_norm": 5.77259883328, 
			 "electric_quadrupole_moment_norm": 18.1450606808, 
			 "total_energy": -1088.92071083, 
			 "HOMO_LUMO_gap": 0.17273, 
			 "cosmo_polarized_energy": -13.66, 
			 "cosmo_cavitation_energy": 33.22, 
			 "cosmo_dispersion_energy": -23.88, 
			 "cosmo_repulsion_energy": 1.88, 
			 "cosmo_total_nonelectrostatic_energy": 11.22, 
			 "SMD_solvation_energy": 3.34 
		},
		"coords": [
			{
				"x": 2.2101032607,
				"y": -0.7087013163,
				"z": 0.1903803074,
				"element": "C" 
			},
			{
				"x": 1.2187970564,
				"y": -0.3162949265,
				"z": -0.918477519,
				"element": "C" 
			},
			{
				"x": 0.0607887556,
				"y": -1.218992394,
				"z": -0.982719518,
				"element": "N" 
			},
			{
				"x": -0.8328834229,
				"y": -1.4560835881,
				"z": 0.0380942652,
				"element": "C" 
			},
			{
				"x": -1.4671378742,
				"y": -2.6423218208,
				"z": -0.0556985365,
				"element": "N" 
			},
			{
				"x": -2.398969809,
				"y": -2.9798632063,
				"z": 0.8317026526,
				"element": "N" 
			},
			{
				"x": -2.6884333543,
				"y": -2.1528153499,
				"z": 1.8180663471,
				"element": "C" 
			},
			{
				"x": -3.9195374952,
				"y": -2.6821868512,
				"z": 2.953407816,
				"element": "Cl" 
			},
			{
				"x": -2.0716897158,
				"y": -0.905943334,
				"z": 1.9989623745,
				"element": "C" 
			},
			{
				"x": -1.1141341866,
				"y": -0.5396546343,
				"z": 1.0798498447,
				"element": "C" 
			},
			{
				"x": 0.7899723974,
				"y": 1.1564284153,
				"z": -0.9178203583,
				"element": "C" 
			},
			{
				"x": -0.2422880817,
				"y": 1.566834309,
				"z": -1.7758080807,
				"element": "C" 
			},
			{
				"x": -0.6300299867,
				"y": 2.9033327106,
				"z": -1.8411716216,
				"element": "C" 
			},
			{
				"x": 0.0073098296,
				"y": 3.8603417399,
				"z": -1.0468274551,
				"element": "C" 
			},
			{
				"x": 1.0334033492,
				"y": 3.4654919695,
				"z": -0.1904994412,
				"element": "C" 
			},
			{
				"x": 1.4226266738,
				"y": 2.1238265514,
				"z": -0.1271964812,
				"element": "C" 
			},
			{
				"x": 3.1384596061,
				"y": -0.135834441,
				"z": 0.1124051124,
				"element": "H" 
			},
			{
				"x": 2.4624045787,
				"y": -1.7683606658,
				"z": 0.0945311241,
				"element": "H" 
			},
			{
				"x": 1.792901847,
				"y": -0.5503165391,
				"z": 1.1892049932,
				"element": "H" 
			},
			{
				"x": 1.7306691924,
				"y": -0.4828818649,
				"z": -1.8752053923,
				"element": "H" 
			},
			{
				"x": 0.1826189923,
				"y": -2.0489325298,
				"z": -1.5500194108,
				"element": "H" 
			},
			{
				"x": -2.347581464,
				"y": -0.2623189559,
				"z": 2.8264296027,
				"element": "H" 
			},
			{
				"x": -0.6094051632,
				"y": 0.4162431828,
				"z": 1.1424285309,
				"element": "H" 
			},
			{
				"x": -0.7483821465,
				"y": 0.8227549417,
				"z": -2.3833656741,
				"element": "H" 
			},
			{
				"x": -1.4325934298,
				"y": 3.1985105831,
				"z": -2.5111925038,
				"element": "H" 
			},
			{
				"x": -0.2954609905,
				"y": 4.902240456,
				"z": -1.0953238665,
				"element": "H" 
			},
			{
				"x": 1.5360083604,
				"y": 4.1989068195,
				"z": 0.4337110757,
				"element": "H" 
			},
			{
				"x": 2.224363221,
				"y": 1.8423907391,
				"z": 0.5471518125,
				"element": "H" 
			}
		],
		 "valence_orbital": [ 
			{
				"type": "occ",
				"energy": -0.29694,
				"method": "rhf"
			},
			{
				"type": "occ",
				"energy": -0.26074,
				"method": "rhf"
			},
			{
				"type": "occ",
				"energy": -0.2551,
				"method": "rhf"
			},
			{
				"type": "occ",
				"energy": -0.23651,
				"method": "rhf"
			},
			{
				"type": "occ",
				"energy": -0.2233,
				"method": "rhf"
			},
			{
				"type": "unocc",
				"energy": -0.05057,
				"method": "rhf"
			},
			{
				"type": "unocc",
				"energy": -0.01666,
				"method": "rhf"
			},
			{
				"type": "unocc",
				"energy": -0.01159,
				"method": "rhf"
			},
			{
				"type": "unocc",
				"energy": -0.01092,
				"method": "rhf"
			},
			{
				"type": "unocc",
				"energy": 0.03689,
				"method": "rhf"
			}
		],
		"cosmo_sigma_profile": { 
			"-0.025": 0.0,
			"-0.024": 0.0,
			"-0.023": 0.0,
			"-0.022": 0.0,
			"-0.021": 0.0,
			"-0.02": 0.0,
			"-0.019": 0.0,
			"-0.018": 0.0,
			"-0.017": 0.0,
			"-0.016": 0.0,
			"-0.015": 0.0,
			"-0.014": 0.0,
			"-0.013": 0.789480200248,
			"-0.012": 0.915260699981,
			"-0.011": 1.22011511582,
			"-0.01": 0.987044974332,
			"-0.009": 2.81494897835,
			"-0.008": 3.46780234799,
			"-0.007": 4.79649215755,
			"-0.006": 8.50241587883,
			"-0.005": 17.5195081045,
			"-0.004": 23.0868284349,
			"-0.003": 22.9883552708,
			"-0.002": 22.0655923514,
			"-0.001": 25.9987370546,
			"0.0": 23.6357440259,
			"0.001": 18.8569052379,
			"0.002": 12.9477757806,
			"0.003": 16.5225633256,
			"0.004": 19.2469340628,
			"0.005": 14.0132390549,
			"0.006": 7.70247357983,
			"0.007": 2.12026751727,
			"0.008": 2.15210116775,
			"0.009": 1.99649352236,
			"0.01": 1.99324151358,
			"0.011": 2.03860835939,
			"0.012": 2.50118568777,
			"0.013": 3.10420548591,
			"0.014": 1.97817019586,
			"0.015": 1.48310271423,
			"0.016": 0.0149994539889,
			"0.017": 0.0,
			"0.018": 0.0,
			"0.019": 0.0,
			"0.02": 0.0,
			"0.021": 0.0,
			"0.022": 0.0,
			"0.023": 0.0,
			"0.024": 0.0,
			"0.025": 0.0
		}
	}
}
