{
	 "smiles": "FC1=CC(=CC=C1)C(Cl)=O", 
	 "Tm": 243.15, 
	 "num_atms": 14, 
	 "gaussian": { 
		 "optdone": 1, 
		 "sigma_profile": "yes", 
		 "theory": "DFT", 
		 "functional": "B3LYP", 
		 "basiset": "6-31G**", 
		 "properties": { 
			 "R2extent": 2322.2388, 
			 "electric_dipole_moment_norm": 3.42057331306, 
			 "electric_quadrupole_moment_norm": 12.1158647752, 
			 "total_energy": -904.41158174, 
			 "HOMO_LUMO_gap": 0.18542, 
			 "cosmo_polarized_energy": -5.56, 
			 "cosmo_cavitation_energy": 21.23, 
			 "cosmo_dispersion_energy": -15.68, 
			 "cosmo_repulsion_energy": 1.24, 
			 "cosmo_total_nonelectrostatic_energy": 6.79, 
			 "SMD_solvation_energy": 4.84 
		},
		"coords": [
			{
				"x": 0.9035864418,
				"y": 1.0100610226,
				"z": 1.9593554528,
				"element": "F" 
			},
			{
				"x": 0.0650865115,
				"y": 0.6474570977,
				"z": 0.9706178926,
				"element": "C" 
			},
			{
				"x": 0.3568021452,
				"y": 1.0382215708,
				"z": -0.3286846326,
				"element": "C" 
			},
			{
				"x": -0.5210430947,
				"y": 0.6566337088,
				"z": -1.3514825641,
				"element": "C" 
			},
			{
				"x": -1.6663245338,
				"y": -0.1036193475,
				"z": -1.0563797817,
				"element": "C" 
			},
			{
				"x": -1.9291966992,
				"y": -0.4788502196,
				"z": 0.2579674648,
				"element": "C" 
			},
			{
				"x": -1.0619717409,
				"y": -0.1048297175,
				"z": 1.2867413195,
				"element": "C" 
			},
			{
				"x": -0.3181478918,
				"y": 1.0127076743,
				"z": -2.7788676189,
				"element": "C" 
			},
			{
				"x": 1.1780604046,
				"y": 2.0013218487,
				"z": -3.1330282357,
				"element": "Cl" 
			},
			{
				"x": -1.036999747,
				"y": 0.7109565293,
				"z": -3.683131913,
				"element": "O" 
			},
			{
				"x": 1.2447370541,
				"y": 1.6232102892,
				"z": -0.5300165599,
				"element": "H" 
			},
			{
				"x": -2.3306713494,
				"y": -0.387035388,
				"z": -1.8642071302,
				"element": "H" 
			},
			{
				"x": -2.8128092991,
				"y": -1.0657149294,
				"z": 0.4875297314,
				"element": "H" 
			},
			{
				"x": -1.2438082012,
				"y": -0.3842201391,
				"z": 2.3188865751,
				"element": "H" 
			}
		],
		 "valence_orbital": [ 
			{
				"type": "occ",
				"energy": -0.32565,
				"method": "rhf"
			},
			{
				"type": "occ",
				"energy": -0.32474,
				"method": "rhf"
			},
			{
				"type": "occ",
				"energy": -0.29901,
				"method": "rhf"
			},
			{
				"type": "occ",
				"energy": -0.28925,
				"method": "rhf"
			},
			{
				"type": "occ",
				"energy": -0.27067,
				"method": "rhf"
			},
			{
				"type": "unocc",
				"energy": -0.08525,
				"method": "rhf"
			},
			{
				"type": "unocc",
				"energy": -0.02628,
				"method": "rhf"
			},
			{
				"type": "unocc",
				"energy": 0.01444,
				"method": "rhf"
			},
			{
				"type": "unocc",
				"energy": 0.02149,
				"method": "rhf"
			},
			{
				"type": "unocc",
				"energy": 0.07764,
				"method": "rhf"
			}
		],
		"cosmo_sigma_profile": { 
			"-0.025": 0.0,
			"-0.024": 0.0,
			"-0.023": 0.0,
			"-0.022": 0.0,
			"-0.021": 0.0,
			"-0.02": 0.0,
			"-0.019": 0.0,
			"-0.018": 0.0,
			"-0.017": 0.0,
			"-0.016": 0.0,
			"-0.015": 0.0,
			"-0.014": 0.0,
			"-0.013": 0.0,
			"-0.012": 0.0,
			"-0.011": 0.0,
			"-0.01": 0.0,
			"-0.009": 0.602676278754,
			"-0.008": 3.52042912954,
			"-0.007": 6.87241149381,
			"-0.006": 8.13365148084,
			"-0.005": 7.15427343709,
			"-0.004": 7.95794508716,
			"-0.003": 9.77259299177,
			"-0.002": 12.4666239452,
			"-0.001": 19.1578705643,
			"0.0": 19.8614212377,
			"0.001": 17.965103428,
			"0.002": 13.6783422655,
			"0.003": 12.3087645961,
			"0.004": 17.0696519693,
			"0.005": 5.16456874736,
			"0.006": 2.65824659659,
			"0.007": 2.62058750227,
			"0.008": 4.24451420095,
			"0.009": 2.5278245527,
			"0.01": 0.261263496015,
			"0.011": 0.0,
			"0.012": 0.0,
			"0.013": 0.0,
			"0.014": 0.0,
			"0.015": 0.0,
			"0.016": 0.0,
			"0.017": 0.0,
			"0.018": 0.0,
			"0.019": 0.0,
			"0.02": 0.0,
			"0.021": 0.0,
			"0.022": 0.0,
			"0.023": 0.0,
			"0.024": 0.0,
			"0.025": 0.0
		}
	}
}
