{
	 "smiles": "CCCCCC(C)=C", 
	 "Tm": 183.15, 
	 "num_atms": 24, 
	 "gaussian": { 
		 "optdone": 1, 
		 "sigma_profile": "yes", 
		 "theory": "DFT", 
		 "functional": "B3LYP", 
		 "basiset": "6-31G**", 
		 "properties": { 
			 "R2extent": 1658.9841, 
			 "electric_dipole_moment_norm": 0.508575874379, 
			 "electric_quadrupole_moment_norm": 2.21655198676, 
			 "total_energy": -314.494056716, 
			 "HOMO_LUMO_gap": 0.26476, 
			 "cosmo_polarized_energy": -1.56, 
			 "cosmo_cavitation_energy": 25.15, 
			 "cosmo_dispersion_energy": -17.47, 
			 "cosmo_repulsion_energy": 1.47, 
			 "cosmo_total_nonelectrostatic_energy": 9.16, 
			 "SMD_solvation_energy": 4.65 
		},
		"coords": [
			{
				"x": 1.9859047662,
				"y": 0.7717530614,
				"z": -0.9707851859,
				"element": "C" 
			},
			{
				"x": 0.7422800033,
				"y": 0.9368540243,
				"z": -0.0907597759,
				"element": "C" 
			},
			{
				"x": -0.3672701073,
				"y": 1.745490094,
				"z": -0.7792897569,
				"element": "C" 
			},
			{
				"x": -1.6298527182,
				"y": 2.0021899793,
				"z": 0.0642212678,
				"element": "C" 
			},
			{
				"x": -2.6398737138,
				"y": 0.8341352909,
				"z": 0.1506684577,
				"element": "C" 
			},
			{
				"x": -2.2180588303,
				"y": -0.3941411848,
				"z": 0.9315995452,
				"element": "C" 
			},
			{
				"x": -1.9145966055,
				"y": -0.1967999799,
				"z": 2.3973774943,
				"element": "C" 
			},
			{
				"x": -2.1676308107,
				"y": -1.6039920455,
				"z": 0.3619846151,
				"element": "C" 
			},
			{
				"x": 1.745929116,
				"y": 0.2398607845,
				"z": -1.8987570801,
				"element": "H" 
			},
			{
				"x": 2.7684190838,
				"y": 0.2037382707,
				"z": -0.4568075058,
				"element": "H" 
			},
			{
				"x": 2.4089381797,
				"y": 1.7441929942,
				"z": -1.2492294146,
				"element": "H" 
			},
			{
				"x": 1.0232765457,
				"y": 1.441575067,
				"z": 0.844358705,
				"element": "H" 
			},
			{
				"x": 0.3610263011,
				"y": -0.0500959946,
				"z": 0.1914697371,
				"element": "H" 
			},
			{
				"x": -0.6550136618,
				"y": 1.2443068437,
				"z": -1.7150340042,
				"element": "H" 
			},
			{
				"x": 0.0516868416,
				"y": 2.7165340696,
				"z": -1.0780684553,
				"element": "H" 
			},
			{
				"x": -2.1685473387,
				"y": 2.8526646682,
				"z": -0.3722800806,
				"element": "H" 
			},
			{
				"x": -1.3387594476,
				"y": 2.3245131336,
				"z": 1.0730047135,
				"element": "H" 
			},
			{
				"x": -3.555853283,
				"y": 1.2287954919,
				"z": 0.6163048381,
				"element": "H" 
			},
			{
				"x": -2.9174860552,
				"y": 0.534689992,
				"z": -0.8673692694,
				"element": "H" 
			},
			{
				"x": -2.7608528256,
				"y": 0.2762373519,
				"z": 2.912634499,
				"element": "H" 
			},
			{
				"x": -1.6998647879,
				"y": -1.1463470475,
				"z": 2.8948344443,
				"element": "H" 
			},
			{
				"x": -1.0511325595,
				"y": 0.4627964828,
				"z": 2.5446969577,
				"element": "H" 
			},
			{
				"x": -1.89806179,
				"y": -2.4917668039,
				"z": 0.9280199374,
				"element": "H" 
			},
			{
				"x": -2.3974063024,
				"y": -1.7485845438,
				"z": -0.6902946835,
				"element": "H" 
			}
		],
		 "valence_orbital": [ 
			{
				"type": "occ",
				"energy": -0.33027,
				"method": "rhf"
			},
			{
				"type": "occ",
				"energy": -0.31894,
				"method": "rhf"
			},
			{
				"type": "occ",
				"energy": -0.31707,
				"method": "rhf"
			},
			{
				"type": "occ",
				"energy": -0.30531,
				"method": "rhf"
			},
			{
				"type": "occ",
				"energy": -0.23797,
				"method": "rhf"
			},
			{
				"type": "unocc",
				"energy": 0.02679,
				"method": "rhf"
			},
			{
				"type": "unocc",
				"energy": 0.08566,
				"method": "rhf"
			},
			{
				"type": "unocc",
				"energy": 0.1103,
				"method": "rhf"
			},
			{
				"type": "unocc",
				"energy": 0.11422,
				"method": "rhf"
			},
			{
				"type": "unocc",
				"energy": 0.12683,
				"method": "rhf"
			}
		],
		"cosmo_sigma_profile": { 
			"-0.025": 0.0,
			"-0.024": 0.0,
			"-0.023": 0.0,
			"-0.022": 0.0,
			"-0.021": 0.0,
			"-0.02": 0.0,
			"-0.019": 0.0,
			"-0.018": 0.0,
			"-0.017": 0.0,
			"-0.016": 0.0,
			"-0.015": 0.0,
			"-0.014": 0.0,
			"-0.013": 0.0,
			"-0.012": 0.0,
			"-0.011": 0.0,
			"-0.01": 0.0,
			"-0.009": 0.0,
			"-0.008": 0.0,
			"-0.007": 0.0,
			"-0.006": 0.0,
			"-0.005": 0.00700342741595,
			"-0.004": 2.97190567245,
			"-0.003": 15.4374981839,
			"-0.002": 28.9660294445,
			"-0.001": 37.3625076624,
			"0.0": 36.7083571637,
			"0.001": 34.1630258124,
			"0.002": 19.5573668937,
			"0.003": 5.88193117123,
			"0.004": 5.93864549673,
			"0.005": 3.85250916323,
			"0.006": 1.3354486199,
			"0.007": 1.46781509845,
			"0.008": 0.275502645053,
			"0.009": 0.0,
			"0.01": 0.0,
			"0.011": 0.0,
			"0.012": 0.0,
			"0.013": 0.0,
			"0.014": 0.0,
			"0.015": 0.0,
			"0.016": 0.0,
			"0.017": 0.0,
			"0.018": 0.0,
			"0.019": 0.0,
			"0.02": 0.0,
			"0.021": 0.0,
			"0.022": 0.0,
			"0.023": 0.0,
			"0.024": 0.0,
			"0.025": 0.0
		}
	}
}
