{
	 "smiles": "CCOC(CNC1=CC(=O)C=CC1=O)OCC", 
	 "Tm": 343.15, 
	 "num_atms": 34, 
	 "gaussian": { 
		 "optdone": 1, 
		 "sigma_profile": "yes", 
		 "theory": "DFT", 
		 "functional": "B3LYP", 
		 "basiset": "6-31G**", 
		 "properties": { 
			 "R2extent": 5336.9072, 
			 "electric_dipole_moment_norm": 2.74097649388, 
			 "electric_quadrupole_moment_norm": 16.4353729261, 
			 "total_energy": -823.132646614, 
			 "HOMO_LUMO_gap": 0.10973, 
			 "cosmo_polarized_energy": -15.35, 
			 "cosmo_cavitation_energy": 37.53, 
			 "cosmo_dispersion_energy": -25.0, 
			 "cosmo_repulsion_energy": 1.99, 
			 "cosmo_total_nonelectrostatic_energy": 14.52, 
			 "SMD_solvation_energy": 7.68 
		},
		"coords": [
			{
				"x": -2.9571591664,
				"y": 1.9482855143,
				"z": 0.6617408597,
				"element": "C" 
			},
			{
				"x": -1.6422575254,
				"y": 1.226242936,
				"z": 0.4139745568,
				"element": "C" 
			},
			{
				"x": -1.1715936337,
				"y": 1.6104849333,
				"z": -0.8843871511,
				"element": "O" 
			},
			{
				"x": -0.2520946425,
				"y": 0.7552827271,
				"z": -1.5263759225,
				"element": "C" 
			},
			{
				"x": 1.1260986483,
				"y": 0.6511690398,
				"z": -0.8423311099,
				"element": "C" 
			},
			{
				"x": 1.1882765339,
				"y": -0.1144623189,
				"z": 0.3843107991,
				"element": "N" 
			},
			{
				"x": 1.4944527406,
				"y": -1.4311919863,
				"z": 0.4892135239,
				"element": "C" 
			},
			{
				"x": 1.6162479515,
				"y": -2.3418384458,
				"z": -0.5227629433,
				"element": "C" 
			},
			{
				"x": 1.9907508063,
				"y": -3.7188508265,
				"z": -0.255858094,
				"element": "C" 
			},
			{
				"x": 2.1134716495,
				"y": -4.5695246615,
				"z": -1.1399699194,
				"element": "O" 
			},
			{
				"x": 2.2279180869,
				"y": -4.1197476453,
				"z": 1.1691228597,
				"element": "C" 
			},
			{
				"x": 2.0972165218,
				"y": -3.251014449,
				"z": 2.183105181,
				"element": "C" 
			},
			{
				"x": 1.7290905545,
				"y": -1.8482255915,
				"z": 1.9238455637,
				"element": "C" 
			},
			{
				"x": 1.6150510199,
				"y": -1.0241777572,
				"z": 2.826847391,
				"element": "O" 
			},
			{
				"x": -0.7357899758,
				"y": -0.5473124052,
				"z": -1.7093849418,
				"element": "O" 
			},
			{
				"x": -1.835293852,
				"y": -0.6497478632,
				"z": -2.6208635475,
				"element": "C" 
			},
			{
				"x": -2.2521097929,
				"y": -2.1077442475,
				"z": -2.6986267047,
				"element": "C" 
			},
			{
				"x": -2.8226939006,
				"y": 3.0312279294,
				"z": 0.5838880595,
				"element": "H" 
			},
			{
				"x": -3.7109093038,
				"y": 1.6449851477,
				"z": -0.0708940326,
				"element": "H" 
			},
			{
				"x": -3.3338407308,
				"y": 1.7178752995,
				"z": 1.6634564248,
				"element": "H" 
			},
			{
				"x": -1.7708831982,
				"y": 0.1395835888,
				"z": 0.4612456776,
				"element": "H" 
			},
			{
				"x": -0.9079662541,
				"y": 1.5110730465,
				"z": 1.1816187425,
				"element": "H" 
			},
			{
				"x": -0.0921898172,
				"y": 1.2471987578,
				"z": -2.4997747297,
				"element": "H" 
			},
			{
				"x": 1.4610349865,
				"y": 1.671377774,
				"z": -0.6306122002,
				"element": "H" 
			},
			{
				"x": 1.8240258657,
				"y": 0.2154937632,
				"z": -1.5675356173,
				"element": "H" 
			},
			{
				"x": 1.1863639413,
				"y": 0.3691680142,
				"z": 1.2745222738,
				"element": "H" 
			},
			{
				"x": 1.391458849,
				"y": -2.0859093307,
				"z": -1.5502486263,
				"element": "H" 
			},
			{
				"x": 2.5045873812,
				"y": -5.1590735459,
				"z": 1.3214823523,
				"element": "H" 
			},
			{
				"x": 2.2560355162,
				"y": -3.5171514801,
				"z": 3.2237322433,
				"element": "H" 
			},
			{
				"x": -2.6637155704,
				"y": -0.0181180612,
				"z": -2.2768459341,
				"element": "H" 
			},
			{
				"x": -1.5239780465,
				"y": -0.2766714795,
				"z": -3.6094704802,
				"element": "H" 
			},
			{
				"x": -1.4234142548,
				"y": -2.7316054696,
				"z": -3.0451333874,
				"element": "H" 
			},
			{
				"x": -3.0892285097,
				"y": -2.2242625683,
				"z": -3.3941169368,
				"element": "H" 
			},
			{
				"x": -2.5656628785,
				"y": -2.4721183386,
				"z": -1.71611423,
				"element": "H" 
			}
		],
		 "valence_orbital": [ 
			{
				"type": "occ",
				"energy": -0.28045,
				"method": "rhf"
			},
			{
				"type": "occ",
				"energy": -0.27675,
				"method": "rhf"
			},
			{
				"type": "occ",
				"energy": -0.27287,
				"method": "rhf"
			},
			{
				"type": "occ",
				"energy": -0.24445,
				"method": "rhf"
			},
			{
				"type": "occ",
				"energy": -0.21833,
				"method": "rhf"
			},
			{
				"type": "unocc",
				"energy": -0.1086,
				"method": "rhf"
			},
			{
				"type": "unocc",
				"energy": 0.00525,
				"method": "rhf"
			},
			{
				"type": "unocc",
				"energy": 0.03085,
				"method": "rhf"
			},
			{
				"type": "unocc",
				"energy": 0.06901,
				"method": "rhf"
			},
			{
				"type": "unocc",
				"energy": 0.08637,
				"method": "rhf"
			}
		],
		"cosmo_sigma_profile": { 
			"-0.025": 0.0,
			"-0.024": 0.0,
			"-0.023": 0.0,
			"-0.022": 0.0,
			"-0.021": 0.0,
			"-0.02": 0.0,
			"-0.019": 0.0,
			"-0.018": 0.0,
			"-0.017": 0.0,
			"-0.016": 0.0,
			"-0.015": 0.0,
			"-0.014": 0.0,
			"-0.013": 0.105880676827,
			"-0.012": 0.778831943338,
			"-0.011": 0.8428602719,
			"-0.01": 1.02895842945,
			"-0.009": 1.77682522744,
			"-0.008": 4.06176060318,
			"-0.007": 5.48520056373,
			"-0.006": 12.7762091301,
			"-0.005": 14.738133436,
			"-0.004": 22.520555395,
			"-0.003": 35.2957053216,
			"-0.002": 35.5260112604,
			"-0.001": 34.0501158367,
			"0.0": 28.4780948383,
			"0.001": 20.0851980472,
			"0.002": 9.274400125,
			"0.003": 9.27426258822,
			"0.004": 7.73976366828,
			"0.005": 6.09898470616,
			"0.006": 5.03761510498,
			"0.007": 5.23412665273,
			"0.008": 5.35196556052,
			"0.009": 5.84420049083,
			"0.01": 5.6697396076,
			"0.011": 5.54447782483,
			"0.012": 5.05724752401,
			"0.013": 4.95304110245,
			"0.014": 2.33173712499,
			"0.015": 0.155448756213,
			"0.016": 0.0,
			"0.017": 0.0,
			"0.018": 0.0,
			"0.019": 0.0,
			"0.02": 0.0,
			"0.021": 0.0,
			"0.022": 0.0,
			"0.023": 0.0,
			"0.024": 0.0,
			"0.025": 0.0
		}
	}
}
