{
	 "smiles": "COC(=O)C1=NNC(C)=C1Cl", 
	 "Tm": 403.15, 
	 "num_atms": 18, 
	 "gaussian": { 
		 "optdone": 1, 
		 "sigma_profile": "yes", 
		 "theory": "DFT", 
		 "functional": "B3LYP", 
		 "basiset": "6-31G**", 
		 "properties": { 
			 "R2extent": 2325.0491, 
			 "electric_dipole_moment_norm": 4.07218409333, 
			 "electric_quadrupole_moment_norm": 13.9385042612, 
			 "total_energy": -952.983982057, 
			 "HOMO_LUMO_gap": 0.21315, 
			 "cosmo_polarized_energy": -16.16, 
			 "cosmo_cavitation_energy": 24.76, 
			 "cosmo_dispersion_energy": -18.33, 
			 "cosmo_repulsion_energy": 1.5, 
			 "cosmo_total_nonelectrostatic_energy": 7.94, 
			 "SMD_solvation_energy": 4.92 
		},
		"coords": [
			{
				"x": 1.4758601563,
				"y": 3.1614939408,
				"z": 1.9982872754,
				"element": "C" 
			},
			{
				"x": 1.3664763429,
				"y": 1.9207199694,
				"z": 1.2855911314,
				"element": "O" 
			},
			{
				"x": 0.1462799268,
				"y": 1.6704108233,
				"z": 0.7695382656,
				"element": "C" 
			},
			{
				"x": -0.8045190499,
				"y": 2.4174978326,
				"z": 0.8828579112,
				"element": "O" 
			},
			{
				"x": 0.1010647839,
				"y": 0.3780070586,
				"z": 0.04840145,
				"element": "C" 
			},
			{
				"x": 1.1745331869,
				"y": -0.4156928327,
				"z": -0.0521723813,
				"element": "N" 
			},
			{
				"x": 0.7477609771,
				"y": -1.4688313428,
				"z": -0.7610449634,
				"element": "N" 
			},
			{
				"x": -0.562123966,
				"y": -1.4080822742,
				"z": -1.1350688939,
				"element": "C" 
			},
			{
				"x": -1.2518916673,
				"y": -2.4670558574,
				"z": -1.9289426269,
				"element": "C" 
			},
			{
				"x": -1.0113812847,
				"y": -0.2054119679,
				"z": -0.6166892143,
				"element": "C" 
			},
			{
				"x": -2.6236490257,
				"y": 0.390954899,
				"z": -0.7917152584,
				"element": "Cl" 
			},
			{
				"x": 0.7849338504,
				"y": 3.1839120922,
				"z": 2.845150143,
				"element": "H" 
			},
			{
				"x": 1.2520056129,
				"y": 4.0063369918,
				"z": 1.341635646,
				"element": "H" 
			},
			{
				"x": 2.5080853577,
				"y": 3.2088463289,
				"z": 2.3448557223,
				"element": "H" 
			},
			{
				"x": 1.3996284612,
				"y": -2.2123685334,
				"z": -0.9651281365,
				"element": "H" 
			},
			{
				"x": -0.5701117267,
				"y": -3.2886909946,
				"z": -2.1669160656,
				"element": "H" 
			},
			{
				"x": -2.102146947,
				"y": -2.8802375167,
				"z": -1.3770289909,
				"element": "H" 
			},
			{
				"x": -1.6384049887,
				"y": -2.0630086169,
				"z": -2.8700110137,
				"element": "H" 
			}
		],
		 "valence_orbital": [ 
			{
				"type": "occ",
				"energy": -0.29993,
				"method": "rhf"
			},
			{
				"type": "occ",
				"energy": -0.29425,
				"method": "rhf"
			},
			{
				"type": "occ",
				"energy": -0.26889,
				"method": "rhf"
			},
			{
				"type": "occ",
				"energy": -0.26546,
				"method": "rhf"
			},
			{
				"type": "occ",
				"energy": -0.24192,
				"method": "rhf"
			},
			{
				"type": "unocc",
				"energy": -0.02877,
				"method": "rhf"
			},
			{
				"type": "unocc",
				"energy": 0.01742,
				"method": "rhf"
			},
			{
				"type": "unocc",
				"energy": 0.03865,
				"method": "rhf"
			},
			{
				"type": "unocc",
				"energy": 0.07214,
				"method": "rhf"
			},
			{
				"type": "unocc",
				"energy": 0.10991,
				"method": "rhf"
			}
		],
		"cosmo_sigma_profile": { 
			"-0.025": 0.0,
			"-0.024": 0.0,
			"-0.023": 0.0,
			"-0.022": 0.0,
			"-0.021": 0.0,
			"-0.02": 0.0,
			"-0.019": 0.0,
			"-0.018": 0.469710488603,
			"-0.017": 1.83371016039,
			"-0.016": 1.16968905223,
			"-0.015": 0.943410881837,
			"-0.014": 1.83549882633,
			"-0.013": 1.00934635391,
			"-0.012": 1.06693227409,
			"-0.011": 1.06111640533,
			"-0.01": 0.96144371641,
			"-0.009": 1.03572077563,
			"-0.008": 1.46649884074,
			"-0.007": 2.80437722442,
			"-0.006": 9.71163542452,
			"-0.005": 12.0918439311,
			"-0.004": 15.8243018091,
			"-0.003": 19.5109637138,
			"-0.002": 17.2174211009,
			"-0.001": 12.4477890346,
			"0.0": 11.7441066758,
			"0.001": 13.1749160096,
			"0.002": 12.0728904808,
			"0.003": 9.98781978792,
			"0.004": 9.59312558828,
			"0.005": 6.29949758864,
			"0.006": 3.47290216809,
			"0.007": 3.79431798916,
			"0.008": 4.05216249122,
			"0.009": 3.53743525963,
			"0.01": 4.10893318379,
			"0.011": 4.49735256434,
			"0.012": 6.3836313779,
			"0.013": 1.62620367384,
			"0.014": 1.44350180012,
			"0.015": 1.05182999365,
			"0.016": 0.118347863188,
			"0.017": 0.0,
			"0.018": 0.0,
			"0.019": 0.0,
			"0.02": 0.0,
			"0.021": 0.0,
			"0.022": 0.0,
			"0.023": 0.0,
			"0.024": 0.0,
			"0.025": 0.0
		}
	}
}
