{
	 "smiles": "FC(F)OC1=CC=C(C=C1)C(=O)CBr", 
	 "Tm": 337.15, 
	 "num_atms": 21, 
	 "gaussian": { 
		 "optdone": 1, 
		 "sigma_profile": "yes", 
		 "theory": "DFT", 
		 "functional": "B3LYP", 
		 "basiset": "6-31G**", 
		 "properties": { 
			 "R2extent": 6092.6119, 
			 "electric_dipole_moment_norm": 2.92023709654, 
			 "electric_quadrupole_moment_norm": 10.0201331463, 
			 "total_energy": -3268.69877622, 
			 "HOMO_LUMO_gap": 0.17958, 
			 "cosmo_polarized_energy": -10.83, 
			 "cosmo_cavitation_energy": 29.07, 
			 "cosmo_dispersion_energy": -21.25, 
			 "cosmo_repulsion_energy": 1.64, 
			 "cosmo_total_nonelectrostatic_energy": 9.46, 
			 "SMD_solvation_energy": 5.71 
		},
		"coords": [
			{
				"x": -4.0720888025,
				"y": -0.9473967305,
				"z": -0.5468261502,
				"element": "F" 
			},
			{
				"x": -3.9974596919,
				"y": 0.3439023707,
				"z": -0.9757242032,
				"element": "C" 
			},
			{
				"x": -5.2127733204,
				"y": 0.6990037455,
				"z": -1.4197050233,
				"element": "F" 
			},
			{
				"x": -3.1408345261,
				"y": 0.453066805,
				"z": -2.0486652053,
				"element": "O" 
			},
			{
				"x": -1.7818061883,
				"y": 0.4548555099,
				"z": -1.8142792855,
				"element": "C" 
			},
			{
				"x": -0.9986857144,
				"y": 1.0565971265,
				"z": -2.8069368974,
				"element": "C" 
			},
			{
				"x": 0.3778825925,
				"y": 1.097733081,
				"z": -2.6567664397,
				"element": "C" 
			},
			{
				"x": 0.9964842549,
				"y": 0.5488418757,
				"z": -1.5183493393,
				"element": "C" 
			},
			{
				"x": 0.1951584624,
				"y": -0.0591562391,
				"z": -0.542005598,
				"element": "C" 
			},
			{
				"x": -1.19038869,
				"y": -0.1177087678,
				"z": -0.6837259017,
				"element": "C" 
			},
			{
				"x": 2.4776294085,
				"y": 0.66414798,
				"z": -1.4103378092,
				"element": "C" 
			},
			{
				"x": 3.1441952886,
				"y": 1.2023135188,
				"z": -2.2807368091,
				"element": "O" 
			},
			{
				"x": 3.1943438121,
				"y": 0.150049183,
				"z": -0.1641024937,
				"element": "C" 
			},
			{
				"x": 3.2774117035,
				"y": -1.8284381525,
				"z": -0.1462183765,
				"element": "Br" 
			},
			{
				"x": -3.6984832742,
				"y": 0.9743411504,
				"z": -0.1297272096,
				"element": "H" 
			},
			{
				"x": -1.4901238731,
				"y": 1.4850752169,
				"z": -3.6736909909,
				"element": "H" 
			},
			{
				"x": 1.0057801831,
				"y": 1.5632106903,
				"z": -3.4086159701,
				"element": "H" 
			},
			{
				"x": 0.6446443171,
				"y": -0.5268643623,
				"z": 0.3269289871,
				"element": "H" 
			},
			{
				"x": -1.791574399,
				"y": -0.6344694358,
				"z": 0.0539039382,
				"element": "H" 
			},
			{
				"x": 4.2244701039,
				"y": 0.4958049417,
				"z": -0.1896566848,
				"element": "H" 
			},
			{
				"x": 2.7054183532,
				"y": 0.4402904927,
				"z": 0.7656374624,
				"element": "H" 
			}
		],
		 "valence_orbital": [ 
			{
				"type": "occ",
				"energy": -0.29804,
				"method": "rhf"
			},
			{
				"type": "occ",
				"energy": -0.28877,
				"method": "rhf"
			},
			{
				"type": "occ",
				"energy": -0.27766,
				"method": "rhf"
			},
			{
				"type": "occ",
				"energy": -0.2638,
				"method": "rhf"
			},
			{
				"type": "occ",
				"energy": -0.25812,
				"method": "rhf"
			},
			{
				"type": "unocc",
				"energy": -0.07854,
				"method": "rhf"
			},
			{
				"type": "unocc",
				"energy": -0.02796,
				"method": "rhf"
			},
			{
				"type": "unocc",
				"energy": -0.01689,
				"method": "rhf"
			},
			{
				"type": "unocc",
				"energy": 0.04088,
				"method": "rhf"
			},
			{
				"type": "unocc",
				"energy": 0.08077,
				"method": "rhf"
			}
		],
		"cosmo_sigma_profile": { 
			"-0.025": 0.0,
			"-0.024": 0.0,
			"-0.023": 0.0,
			"-0.022": 0.0,
			"-0.021": 0.0,
			"-0.02": 0.0,
			"-0.019": 0.0,
			"-0.018": 0.0,
			"-0.017": 0.0,
			"-0.016": 0.0,
			"-0.015": 0.0,
			"-0.014": 0.0,
			"-0.013": 0.0,
			"-0.012": 0.0,
			"-0.011": 1.21509661094,
			"-0.01": 3.87557646169,
			"-0.009": 5.52253878981,
			"-0.008": 7.54613752111,
			"-0.007": 11.1553204567,
			"-0.006": 11.0526578197,
			"-0.005": 11.1207963625,
			"-0.004": 8.68441295434,
			"-0.003": 10.3558510873,
			"-0.002": 9.09064697887,
			"-0.001": 12.2948667218,
			"0.0": 16.8458653861,
			"0.001": 22.5347981175,
			"0.002": 26.5369170016,
			"0.003": 30.5626646513,
			"0.004": 20.2517864458,
			"0.005": 9.75151909606,
			"0.006": 3.55598400191,
			"0.007": 2.80559486349,
			"0.008": 1.88520395386,
			"0.009": 1.76116497515,
			"0.01": 2.97247239232,
			"0.011": 3.77567011636,
			"0.012": 1.27718449935,
			"0.013": 0.0147914363307,
			"0.014": 0.0,
			"0.015": 0.0,
			"0.016": 0.0,
			"0.017": 0.0,
			"0.018": 0.0,
			"0.019": 0.0,
			"0.02": 0.0,
			"0.021": 0.0,
			"0.022": 0.0,
			"0.023": 0.0,
			"0.024": 0.0,
			"0.025": 0.0
		}
	}
}
