{
	 "smiles": "CC12CCCC1C1CCC3CCCCC3(C)C1CC2", 
	 "Tm": 323.35, 
	 "num_atms": 51, 
	 "gaussian": { 
		 "optdone": 1, 
		 "sigma_profile": "yes", 
		 "theory": "DFT", 
		 "functional": "B3LYP", 
		 "basiset": "6-31G**", 
		 "properties": { 
			 "R2extent": 5874.3091, 
			 "electric_dipole_moment_norm": 0.0507939957082, 
			 "electric_quadrupole_moment_norm": 0.909125238897, 
			 "total_energy": -743.340279182, 
			 "HOMO_LUMO_gap": 0.32821, 
			 "cosmo_polarized_energy": -1.08, 
			 "cosmo_cavitation_energy": 41.86, 
			 "cosmo_dispersion_energy": -30.11, 
			 "cosmo_repulsion_energy": 2.24, 
			 "cosmo_total_nonelectrostatic_energy": 13.99, 
			 "SMD_solvation_energy": 4.99 
		},
		"coords": [
			{
				"x": -2.0906030756,
				"y": -2.3662654333,
				"z": -1.0422008738,
				"element": "C" 
			},
			{
				"x": -2.0479887652,
				"y": -1.0899747734,
				"z": -1.9133321822,
				"element": "C" 
			},
			{
				"x": -3.2689858319,
				"y": -1.0946953689,
				"z": -2.8636155429,
				"element": "C" 
			},
			{
				"x": -4.4652740264,
				"y": -0.623544505,
				"z": -1.9897370942,
				"element": "C" 
			},
			{
				"x": -3.837724745,
				"y": 0.1266846184,
				"z": -0.7737893011,
				"element": "C" 
			},
			{
				"x": -2.3318935902,
				"y": 0.1972244308,
				"z": -1.0954957867,
				"element": "C" 
			},
			{
				"x": -1.3467614497,
				"y": 0.4339187327,
				"z": 0.0595383282,
				"element": "C" 
			},
			{
				"x": -1.4842792797,
				"y": 1.8536033103,
				"z": 0.6324863071,
				"element": "C" 
			},
			{
				"x": -0.5195162193,
				"y": 2.1148439329,
				"z": 1.8092575049,
				"element": "C" 
			},
			{
				"x": 0.7350149033,
				"y": 1.2147658658,
				"z": 1.7886491814,
				"element": "C" 
			},
			{
				"x": 1.8255133214,
				"y": 1.7664657838,
				"z": 2.7255667533,
				"element": "C" 
			},
			{
				"x": 3.0749929875,
				"y": 0.8767416415,
				"z": 2.7637840739,
				"element": "C" 
			},
			{
				"x": 3.6179206192,
				"y": 0.6286522596,
				"z": 1.3499498671,
				"element": "C" 
			},
			{
				"x": 2.5235911725,
				"y": 0.0557878203,
				"z": 0.4364012102,
				"element": "C" 
			},
			{
				"x": 1.2413544991,
				"y": 0.9316348822,
				"z": 0.3421766959,
				"element": "C" 
			},
			{
				"x": 1.5887197329,
				"y": 2.2434725981,
				"z": -0.4010027006,
				"element": "C" 
			},
			{
				"x": 0.1262708484,
				"y": 0.0974748549,
				"z": -0.3946551276,
				"element": "C" 
			},
			{
				"x": 0.2491152338,
				"y": 0.0955745205,
				"z": -1.9334635334,
				"element": "C" 
			},
			{
				"x": -0.6620999113,
				"y": -0.9610210325,
				"z": -2.6053630154,
				"element": "C" 
			},
			{
				"x": -1.9560111788,
				"y": -3.2494333699,
				"z": -1.6772748945,
				"element": "H" 
			},
			{
				"x": -3.0451001041,
				"y": -2.4830640821,
				"z": -0.5193500605,
				"element": "H" 
			},
			{
				"x": -1.2975993491,
				"y": -2.3838085094,
				"z": -0.2889882741,
				"element": "H" 
			},
			{
				"x": -3.4442318705,
				"y": -2.0712485314,
				"z": -3.3289070299,
				"element": "H" 
			},
			{
				"x": -3.0952845652,
				"y": -0.379424413,
				"z": -3.6769831564,
				"element": "H" 
			},
			{
				"x": -5.066308591,
				"y": -1.4738296226,
				"z": -1.6520160001,
				"element": "H" 
			},
			{
				"x": -5.1395402962,
				"y": 0.0221867761,
				"z": -2.5607352025,
				"element": "H" 
			},
			{
				"x": -4.2777842719,
				"y": 1.1180509841,
				"z": -0.6293723205,
				"element": "H" 
			},
			{
				"x": -4.0067227868,
				"y": -0.4287719908,
				"z": 0.1565146124,
				"element": "H" 
			},
			{
				"x": -2.2046162128,
				"y": 1.0306280795,
				"z": -1.8043667602,
				"element": "H" 
			},
			{
				"x": -1.6068974977,
				"y": -0.2635774731,
				"z": 0.8687045508,
				"element": "H" 
			},
			{
				"x": -1.3077903993,
				"y": 2.5774183557,
				"z": -0.1729090505,
				"element": "H" 
			},
			{
				"x": -2.5188510525,
				"y": 2.0199261402,
				"z": 0.954107997,
				"element": "H" 
			},
			{
				"x": -0.2149399445,
				"y": 3.1691713975,
				"z": 1.8063574801,
				"element": "H" 
			},
			{
				"x": -1.0379225652,
				"y": 1.9578966302,
				"z": 2.7634441089,
				"element": "H" 
			},
			{
				"x": 0.4441159342,
				"y": 0.2323084297,
				"z": 2.1938608942,
				"element": "H" 
			},
			{
				"x": 1.4072636154,
				"y": 1.8762537202,
				"z": 3.7348311489,
				"element": "H" 
			},
			{
				"x": 2.1080147108,
				"y": 2.779151381,
				"z": 2.4064429566,
				"element": "H" 
			},
			{
				"x": 2.8182901465,
				"y": -0.0883692542,
				"z": 3.2238821916,
				"element": "H" 
			},
			{
				"x": 3.8458480466,
				"y": 1.3288973556,
				"z": 3.3997400738,
				"element": "H" 
			},
			{
				"x": 4.0104785526,
				"y": 1.5665480828,
				"z": 0.9361551445,
				"element": "H" 
			},
			{
				"x": 4.465678974,
				"y": -0.0666723737,
				"z": 1.3845879758,
				"element": "H" 
			},
			{
				"x": 2.9274224421,
				"y": -0.1186753688,
				"z": -0.5690675677,
				"element": "H" 
			},
			{
				"x": 2.2395762886,
				"y": -0.9309477405,
				"z": 0.8288407733,
				"element": "H" 
			},
			{
				"x": 0.712196766,
				"y": 2.8679188767,
				"z": -0.5873093475,
				"element": "H" 
			},
			{
				"x": 2.3001501384,
				"y": 2.8492830505,
				"z": 0.1664545052,
				"element": "H" 
			},
			{
				"x": 2.0516827481,
				"y": 2.0328111715,
				"z": -1.3697846081,
				"element": "H" 
			},
			{
				"x": 0.3031263415,
				"y": -0.9392310807,
				"z": -0.0788014501,
				"element": "H" 
			},
			{
				"x": 1.2875631578,
				"y": -0.0928304901,
				"z": -2.2288970504,
				"element": "H" 
			},
			{
				"x": 0.0044608703,
				"y": 1.0903950164,
				"z": -2.3239690865,
				"element": "H" 
			},
			{
				"x": -0.1547956976,
				"y": -1.933782732,
				"z": -2.5966972862,
				"element": "H" 
			},
			{
				"x": -0.7885387734,
				"y": -0.6962225537,
				"z": -3.6625500316,
				"element": "H" 
			}
		],
		 "valence_orbital": [ 
			{
				"type": "occ",
				"energy": -0.29463,
				"method": "rhf"
			},
			{
				"type": "occ",
				"energy": -0.28855,
				"method": "rhf"
			},
			{
				"type": "occ",
				"energy": -0.27639,
				"method": "rhf"
			},
			{
				"type": "occ",
				"energy": -0.26402,
				"method": "rhf"
			},
			{
				"type": "occ",
				"energy": -0.25878,
				"method": "rhf"
			},
			{
				"type": "unocc",
				"energy": 0.06943,
				"method": "rhf"
			},
			{
				"type": "unocc",
				"energy": 0.08327,
				"method": "rhf"
			},
			{
				"type": "unocc",
				"energy": 0.08501,
				"method": "rhf"
			},
			{
				"type": "unocc",
				"energy": 0.10097,
				"method": "rhf"
			},
			{
				"type": "unocc",
				"energy": 0.10584,
				"method": "rhf"
			}
		],
		"cosmo_sigma_profile": { 
			"-0.025": 0.0,
			"-0.024": 0.0,
			"-0.023": 0.0,
			"-0.022": 0.0,
			"-0.021": 0.0,
			"-0.02": 0.0,
			"-0.019": 0.0,
			"-0.018": 0.0,
			"-0.017": 0.0,
			"-0.016": 0.0,
			"-0.015": 0.0,
			"-0.014": 0.0,
			"-0.013": 0.0,
			"-0.012": 0.0,
			"-0.011": 0.0,
			"-0.01": 0.0,
			"-0.009": 0.0,
			"-0.008": 0.0,
			"-0.007": 0.0,
			"-0.006": 0.0,
			"-0.005": 0.0,
			"-0.004": 0.0,
			"-0.003": 2.52306173686,
			"-0.002": 38.4239359374,
			"-0.001": 80.5324466609,
			"0.0": 82.439531947,
			"0.001": 65.2354932729,
			"0.002": 43.807087317,
			"0.003": 4.52665167692,
			"0.004": 0.0,
			"0.005": 0.0,
			"0.006": 0.0,
			"0.007": 0.0,
			"0.008": 0.0,
			"0.009": 0.0,
			"0.01": 0.0,
			"0.011": 0.0,
			"0.012": 0.0,
			"0.013": 0.0,
			"0.014": 0.0,
			"0.015": 0.0,
			"0.016": 0.0,
			"0.017": 0.0,
			"0.018": 0.0,
			"0.019": 0.0,
			"0.02": 0.0,
			"0.021": 0.0,
			"0.022": 0.0,
			"0.023": 0.0,
			"0.024": 0.0,
			"0.025": 0.0
		}
	}
}
