{
	 "smiles": "OC1=C(Cl)C=C(Cl)C=C1", 
	 "Tm": 316.65, 
	 "num_atms": 13, 
	 "gaussian": { 
		 "optdone": 1, 
		 "sigma_profile": "yes", 
		 "theory": "DFT", 
		 "functional": "B3LYP", 
		 "basiset": "6-31G**", 
		 "properties": { 
			 "R2extent": 2766.2342, 
			 "electric_dipole_moment_norm": 3.11063723536, 
			 "electric_quadrupole_moment_norm": 6.69837153195, 
			 "total_energy": -1226.64952381, 
			 "HOMO_LUMO_gap": 0.20476, 
			 "cosmo_polarized_energy": -9.75, 
			 "cosmo_cavitation_energy": 21.03, 
			 "cosmo_dispersion_energy": -16.1, 
			 "cosmo_repulsion_energy": 1.33, 
			 "cosmo_total_nonelectrostatic_energy": 6.26, 
			 "SMD_solvation_energy": 3.51 
		},
		"coords": [
			{
				"x": 0.177888946,
				"y": -1.2542842216,
				"z": -1.559394201,
				"element": "O" 
			},
			{
				"x": 0.8086900408,
				"y": -0.5149225952,
				"z": -0.6110742841,
				"element": "C" 
			},
			{
				"x": 1.4780823313,
				"y": -1.1880453417,
				"z": 0.4248038674,
				"element": "C" 
			},
			{
				"x": 1.4773227812,
				"y": -2.9350907995,
				"z": 0.4589878545,
				"element": "Cl" 
			},
			{
				"x": 2.1420491932,
				"y": -0.4815616377,
				"z": 1.4245340483,
				"element": "C" 
			},
			{
				"x": 2.1402165942,
				"y": 0.9122932242,
				"z": 1.3935944209,
				"element": "C" 
			},
			{
				"x": 2.9782120671,
				"y": 1.8019276722,
				"z": 2.6552945955,
				"element": "Cl" 
			},
			{
				"x": 1.4839797325,
				"y": 1.6029445716,
				"z": 0.3774360185,
				"element": "C" 
			},
			{
				"x": 0.8235222232,
				"y": 0.8841764147,
				"z": -0.6167062689,
				"element": "C" 
			},
			{
				"x": -0.2350123364,
				"y": -0.6622836471,
				"z": -2.2014301577,
				"element": "H" 
			},
			{
				"x": 2.6524534691,
				"y": -1.01844165,
				"z": 2.2148376414,
				"element": "H" 
			},
			{
				"x": 1.4876676451,
				"y": 2.6867188507,
				"z": 0.3611657529,
				"element": "H" 
			},
			{
				"x": 0.3091273128,
				"y": 1.4173691595,
				"z": -1.4130492877,
				"element": "H" 
			}
		],
		 "valence_orbital": [ 
			{
				"type": "occ",
				"energy": -0.32031,
				"method": "rhf"
			},
			{
				"type": "occ",
				"energy": -0.31562,
				"method": "rhf"
			},
			{
				"type": "occ",
				"energy": -0.31299,
				"method": "rhf"
			},
			{
				"type": "occ",
				"energy": -0.26373,
				"method": "rhf"
			},
			{
				"type": "occ",
				"energy": -0.23198,
				"method": "rhf"
			},
			{
				"type": "unocc",
				"energy": -0.02722,
				"method": "rhf"
			},
			{
				"type": "unocc",
				"energy": -0.01078,
				"method": "rhf"
			},
			{
				"type": "unocc",
				"energy": 0.00767,
				"method": "rhf"
			},
			{
				"type": "unocc",
				"energy": 0.04469,
				"method": "rhf"
			},
			{
				"type": "unocc",
				"energy": 0.06242,
				"method": "rhf"
			}
		],
		"cosmo_sigma_profile": { 
			"-0.025": 0.0,
			"-0.024": 0.0,
			"-0.023": 0.0,
			"-0.022": 0.0,
			"-0.021": 0.0,
			"-0.02": 0.0,
			"-0.019": 0.693921400314,
			"-0.018": 1.04593230445,
			"-0.017": 1.28853116191,
			"-0.016": 1.0158511344,
			"-0.015": 1.19474676491,
			"-0.014": 0.813782877557,
			"-0.013": 0.711262921586,
			"-0.012": 1.03221957233,
			"-0.011": 1.45793824125,
			"-0.01": 1.21072768376,
			"-0.009": 1.2795298563,
			"-0.008": 3.88379901561,
			"-0.007": 5.59825614995,
			"-0.006": 5.11378662077,
			"-0.005": 5.20685091454,
			"-0.004": 5.01622526111,
			"-0.003": 5.41494031359,
			"-0.002": 7.80475149559,
			"-0.001": 7.18708431462,
			"0.0": 13.5527683716,
			"0.001": 19.3387178544,
			"0.002": 24.7760364948,
			"0.003": 18.2262692874,
			"0.004": 18.3263624463,
			"0.005": 11.158563463,
			"0.006": 2.31203599609,
			"0.007": 1.31512581176,
			"0.008": 2.18558472412,
			"0.009": 1.94069570931,
			"0.01": 2.12086845397,
			"0.011": 1.11376535965,
			"0.012": 0.0,
			"0.013": 0.0,
			"0.014": 0.0,
			"0.015": 0.0,
			"0.016": 0.0,
			"0.017": 0.0,
			"0.018": 0.0,
			"0.019": 0.0,
			"0.02": 0.0,
			"0.021": 0.0,
			"0.022": 0.0,
			"0.023": 0.0,
			"0.024": 0.0,
			"0.025": 0.0
		}
	}
}
