{
	 "smiles": "CCC1(CO)CCNCC1", 
	 "Tm": 333.15, 
	 "num_atms": 27, 
	 "gaussian": { 
		 "optdone": 1, 
		 "sigma_profile": "yes", 
		 "theory": "DFT", 
		 "functional": "B3LYP", 
		 "basiset": "6-31G**", 
		 "properties": { 
			 "R2extent": 1809.6481, 
			 "electric_dipole_moment_norm": 0.864029079372, 
			 "electric_quadrupole_moment_norm": 8.51210952232, 
			 "total_energy": -445.060025441, 
			 "HOMO_LUMO_gap": 0.2886, 
			 "cosmo_polarized_energy": -8.14, 
			 "cosmo_cavitation_energy": 25.56, 
			 "cosmo_dispersion_energy": -19.23, 
			 "cosmo_repulsion_energy": 1.55, 
			 "cosmo_total_nonelectrostatic_energy": 7.88, 
			 "SMD_solvation_energy": 1.75 
		},
		"coords": [
			{
				"x": 1.2317090211,
				"y": 0.6383493157,
				"z": -1.1732784959,
				"element": "C" 
			},
			{
				"x": 0.7901890444,
				"y": 1.3600752149,
				"z": 0.1060392779,
				"element": "C" 
			},
			{
				"x": -0.0536356803,
				"y": 0.6096729636,
				"z": 1.1777383011,
				"element": "C" 
			},
			{
				"x": -0.1753972123,
				"y": 1.5781814592,
				"z": 2.3753128238,
				"element": "C" 
			},
			{
				"x": 1.1178317868,
				"y": 1.8589015513,
				"z": 2.9006465064,
				"element": "O" 
			},
			{
				"x": 0.6120014958,
				"y": -0.7008724798,
				"z": 1.6892631234,
				"element": "C" 
			},
			{
				"x": 0.309765416,
				"y": -1.9531113611,
				"z": 0.8553804692,
				"element": "C" 
			},
			{
				"x": -1.1380853042,
				"y": -2.0996271943,
				"z": 0.6916837314,
				"element": "N" 
			},
			{
				"x": -1.6933340361,
				"y": -0.9853081697,
				"z": -0.0753842436,
				"element": "C" 
			},
			{
				"x": -1.5090289595,
				"y": 0.3172526217,
				"z": 0.7133434118,
				"element": "C" 
			},
			{
				"x": 1.8778247873,
				"y": -0.2187516478,
				"z": -0.9619358052,
				"element": "H" 
			},
			{
				"x": 1.8084825114,
				"y": 1.3287131982,
				"z": -1.799250488,
				"element": "H" 
			},
			{
				"x": 0.3903255665,
				"y": 0.2825163111,
				"z": -1.7748604206,
				"element": "H" 
			},
			{
				"x": 1.6861151379,
				"y": 1.7304609344,
				"z": 0.6154238624,
				"element": "H" 
			},
			{
				"x": 0.2196738622,
				"y": 2.2544383921,
				"z": -0.1836656649,
				"element": "H" 
			},
			{
				"x": -0.6763598698,
				"y": 2.5036894659,
				"z": 2.043833247,
				"element": "H" 
			},
			{
				"x": -0.8133979802,
				"y": 1.1138148841,
				"z": 3.1439450227,
				"element": "H" 
			},
			{
				"x": 1.0160814714,
				"y": 2.4763973441,
				"z": 3.6344999504,
				"element": "H" 
			},
			{
				"x": 0.2405889745,
				"y": -0.8962408302,
				"z": 2.7026545674,
				"element": "H" 
			},
			{
				"x": 1.6940710196,
				"y": -0.5577071618,
				"z": 1.7763947982,
				"element": "H" 
			},
			{
				"x": 0.6904379038,
				"y": -2.8334245524,
				"z": 1.3865988788,
				"element": "H" 
			},
			{
				"x": 0.8383698706,
				"y": -1.912100573,
				"z": -0.1131891189,
				"element": "H" 
			},
			{
				"x": -1.3431596869,
				"y": -2.9764856624,
				"z": 0.2204525811,
				"element": "H" 
			},
			{
				"x": -1.2406615313,
				"y": -0.8932998688,
				"z": -1.0793466819,
				"element": "H" 
			},
			{
				"x": -2.7645933337,
				"y": -1.1631273024,
				"z": -0.226599129,
				"element": "H" 
			},
			{
				"x": -1.8882479946,
				"y": 1.1625799181,
				"z": 0.1249857245,
				"element": "H" 
			},
			{
				"x": -2.1460662804,
				"y": 0.2361132295,
				"z": 1.6039137702,
				"element": "H" 
			}
		],
		 "valence_orbital": [ 
			{
				"type": "occ",
				"energy": -0.2956,
				"method": "rhf"
			},
			{
				"type": "occ",
				"energy": -0.29304,
				"method": "rhf"
			},
			{
				"type": "occ",
				"energy": -0.28883,
				"method": "rhf"
			},
			{
				"type": "occ",
				"energy": -0.26117,
				"method": "rhf"
			},
			{
				"type": "occ",
				"energy": -0.21279,
				"method": "rhf"
			},
			{
				"type": "unocc",
				"energy": 0.07581,
				"method": "rhf"
			},
			{
				"type": "unocc",
				"energy": 0.08621,
				"method": "rhf"
			},
			{
				"type": "unocc",
				"energy": 0.10871,
				"method": "rhf"
			},
			{
				"type": "unocc",
				"energy": 0.11457,
				"method": "rhf"
			},
			{
				"type": "unocc",
				"energy": 0.12373,
				"method": "rhf"
			}
		],
		"cosmo_sigma_profile": { 
			"-0.025": 0.0,
			"-0.024": 0.0,
			"-0.023": 0.0,
			"-0.022": 0.0,
			"-0.021": 0.0,
			"-0.02": 0.0,
			"-0.019": 0.0,
			"-0.018": 0.0,
			"-0.017": 0.0,
			"-0.016": 0.15207525159,
			"-0.015": 1.13098999943,
			"-0.014": 0.905118833083,
			"-0.013": 1.11706556897,
			"-0.012": 0.795673174778,
			"-0.011": 1.00447819288,
			"-0.01": 1.19510628251,
			"-0.009": 1.76569771111,
			"-0.008": 1.75092884863,
			"-0.007": 1.98612699662,
			"-0.006": 2.6115631315,
			"-0.005": 2.4083082321,
			"-0.004": 2.31330223903,
			"-0.003": 14.3863645698,
			"-0.002": 31.954804952,
			"-0.001": 33.603965522,
			"0.0": 34.540897744,
			"0.001": 19.6011913575,
			"0.002": 10.827072911,
			"0.003": 4.05122962974,
			"0.004": 2.21974023298,
			"0.005": 2.44638652238,
			"0.006": 3.00853872687,
			"0.007": 2.40995465693,
			"0.008": 2.6247819361,
			"0.009": 2.80391366468,
			"0.01": 2.1650110737,
			"0.011": 2.31313972242,
			"0.012": 2.35023005808,
			"0.013": 1.65762608606,
			"0.014": 0.631587821903,
			"0.015": 0.936241817368,
			"0.016": 0.437411307255,
			"0.017": 0.450063212144,
			"0.018": 0.373092282555,
			"0.019": 0.247601905172,
			"0.02": 0.0,
			"0.021": 0.0,
			"0.022": 0.0,
			"0.023": 0.0,
			"0.024": 0.0,
			"0.025": 0.0
		}
	}
}
