{
	 "smiles": "CS(=O)C1=CC(N)=CC=C1", 
	 "Tm": 384.15, 
	 "num_atms": 19, 
	 "gaussian": { 
		 "optdone": 1, 
		 "sigma_profile": "yes", 
		 "theory": "DFT", 
		 "functional": "B3LYP", 
		 "basiset": "6-31G**", 
		 "properties": { 
			 "R2extent": 1872.3227, 
			 "electric_dipole_moment_norm": 4.20683667499, 
			 "electric_quadrupole_moment_norm": 14.5404440194, 
			 "total_energy": -800.283937645, 
			 "HOMO_LUMO_gap": 0.19408, 
			 "cosmo_polarized_energy": -15.55, 
			 "cosmo_cavitation_energy": 24.06, 
			 "cosmo_dispersion_energy": -18.17, 
			 "cosmo_repulsion_energy": 1.43, 
			 "cosmo_total_nonelectrostatic_energy": 7.32, 
			 "SMD_solvation_energy": 3.98 
		},
		"coords": [
			{
				"x": 0.4441146761,
				"y": -2.687683645,
				"z": 0.2765360075,
				"element": "C" 
			},
			{
				"x": -0.8613551731,
				"y": -1.8468209572,
				"z": -0.7079689161,
				"element": "S" 
			},
			{
				"x": -2.1338285742,
				"y": -1.9061969822,
				"z": 0.1102859462,
				"element": "O" 
			},
			{
				"x": -0.1840079469,
				"y": -0.1601135393,
				"z": -0.536410446,
				"element": "C" 
			},
			{
				"x": -0.8760523889,
				"y": 0.7139584958,
				"z": 0.2897245873,
				"element": "C" 
			},
			{
				"x": -0.426473049,
				"y": 2.0391081581,
				"z": 0.4319517197,
				"element": "C" 
			},
			{
				"x": -1.1356545155,
				"y": 2.945431508,
				"z": 1.2132949473,
				"element": "N" 
			},
			{
				"x": 0.7208281965,
				"y": 2.4405988009,
				"z": -0.2772104189,
				"element": "C" 
			},
			{
				"x": 1.3903455028,
				"y": 1.5463490613,
				"z": -1.1102471548,
				"element": "C" 
			},
			{
				"x": 0.9441989415,
				"y": 0.2319242754,
				"z": -1.2603647298,
				"element": "C" 
			},
			{
				"x": 0.1934264923,
				"y": -3.7504963467,
				"z": 0.2983652782,
				"element": "H" 
			},
			{
				"x": 1.4167469252,
				"y": -2.5377099007,
				"z": -0.1976772348,
				"element": "H" 
			},
			{
				"x": 0.4375799782,
				"y": -2.2776226681,
				"z": 1.2886890697,
				"element": "H" 
			},
			{
				"x": -1.7635451191,
				"y": 0.3520125258,
				"z": 0.8033761852,
				"element": "H" 
			},
			{
				"x": -0.6127990744,
				"y": 3.7376461334,
				"z": 1.5582812022,
				"element": "H" 
			},
			{
				"x": -1.7417217479,
				"y": 2.5424337978,
				"z": 1.913533832,
				"element": "H" 
			},
			{
				"x": 1.0757603994,
				"y": 3.4638587869,
				"z": -0.1834944224,
				"element": "H" 
			},
			{
				"x": 2.2690513107,
				"y": 1.883065976,
				"z": -1.6533714858,
				"element": "H" 
			},
			{
				"x": 1.4581851663,
				"y": -0.4581434804,
				"z": -1.9232939667,
				"element": "H" 
			}
		],
		 "valence_orbital": [ 
			{
				"type": "occ",
				"energy": -0.31579,
				"method": "rhf"
			},
			{
				"type": "occ",
				"energy": -0.2602,
				"method": "rhf"
			},
			{
				"type": "occ",
				"energy": -0.25825,
				"method": "rhf"
			},
			{
				"type": "occ",
				"energy": -0.22292,
				"method": "rhf"
			},
			{
				"type": "occ",
				"energy": -0.20804,
				"method": "rhf"
			},
			{
				"type": "unocc",
				"energy": -0.01396,
				"method": "rhf"
			},
			{
				"type": "unocc",
				"energy": 0.00457,
				"method": "rhf"
			},
			{
				"type": "unocc",
				"energy": 0.04795,
				"method": "rhf"
			},
			{
				"type": "unocc",
				"energy": 0.05677,
				"method": "rhf"
			},
			{
				"type": "unocc",
				"energy": 0.07769,
				"method": "rhf"
			}
		],
		"cosmo_sigma_profile": { 
			"-0.025": 0.0,
			"-0.024": 0.0,
			"-0.023": 0.0,
			"-0.022": 0.0,
			"-0.021": 0.0,
			"-0.02": 0.0,
			"-0.019": 0.0,
			"-0.018": 0.0,
			"-0.017": 0.0,
			"-0.016": 0.0,
			"-0.015": 0.0,
			"-0.014": 0.0,
			"-0.013": 0.981777843185,
			"-0.012": 2.7465248394,
			"-0.011": 2.7132064016,
			"-0.01": 2.83028381924,
			"-0.009": 3.8548526021,
			"-0.008": 3.59925323869,
			"-0.007": 9.14150230092,
			"-0.006": 11.6888968751,
			"-0.005": 13.2338865614,
			"-0.004": 13.4384256366,
			"-0.003": 13.5691160059,
			"-0.002": 11.7775632983,
			"-0.001": 10.7921771349,
			"0.0": 9.63931054368,
			"0.001": 8.65052300108,
			"0.002": 8.50993974655,
			"0.003": 11.25766955,
			"0.004": 9.94997428045,
			"0.005": 12.1373216035,
			"0.006": 6.81982488349,
			"0.007": 2.03821223386,
			"0.008": 2.22570221567,
			"0.009": 2.69530280649,
			"0.01": 1.27163674219,
			"0.011": 1.63586366809,
			"0.012": 1.82830164319,
			"0.013": 3.61887840851,
			"0.014": 3.76493344803,
			"0.015": 4.26706660653,
			"0.016": 1.23319497733,
			"0.017": 0.0,
			"0.018": 0.0,
			"0.019": 0.0,
			"0.02": 0.0,
			"0.021": 0.0,
			"0.022": 0.0,
			"0.023": 0.0,
			"0.024": 0.0,
			"0.025": 0.0
		}
	}
}
