{
	 "smiles": "CC1=C(C)C(OC2=C(N)C=CC=N2)=CC=C1", 
	 "Tm": 421.15, 
	 "num_atms": 30, 
	 "gaussian": { 
		 "optdone": 1, 
		 "sigma_profile": "yes", 
		 "theory": "DFT", 
		 "functional": "B3LYP", 
		 "basiset": "6-31G**", 
		 "properties": { 
			 "R2extent": 4134.5933, 
			 "electric_dipole_moment_norm": 2.17947891937, 
			 "electric_quadrupole_moment_norm": 11.0582873615, 
			 "total_energy": -688.55658654, 
			 "HOMO_LUMO_gap": 0.19265, 
			 "cosmo_polarized_energy": -11.54, 
			 "cosmo_cavitation_energy": 33.26, 
			 "cosmo_dispersion_energy": -23.56, 
			 "cosmo_repulsion_energy": 1.85, 
			 "cosmo_total_nonelectrostatic_energy": 11.55, 
			 "SMD_solvation_energy": 4.9 
		},
		"coords": [
			{
				"x": -2.5546909474,
				"y": 0.586562784,
				"z": -3.3278112406,
				"element": "C" 
			},
			{
				"x": -1.1175108793,
				"y": 0.2932758452,
				"z": -2.962741379,
				"element": "C" 
			},
			{
				"x": -0.7599434563,
				"y": 0.0098429512,
				"z": -1.6267893529,
				"element": "C" 
			},
			{
				"x": -1.7879235331,
				"y": -0.0144040896,
				"z": -0.523394684,
				"element": "C" 
			},
			{
				"x": 0.590462181,
				"y": -0.2353381518,
				"z": -1.3498825832,
				"element": "C" 
			},
			{
				"x": 0.9873428171,
				"y": -0.5941667329,
				"z": -0.0571533443,
				"element": "O" 
			},
			{
				"x": 1.2325632913,
				"y": 0.3922524057,
				"z": 0.8713738887,
				"element": "C" 
			},
			{
				"x": 1.6948020424,
				"y": -0.0850145202,
				"z": 2.1249574078,
				"element": "C" 
			},
			{
				"x": 1.9360317434,
				"y": -1.4414802147,
				"z": 2.3078624511,
				"element": "N" 
			},
			{
				"x": 1.9323281368,
				"y": 0.8859651775,
				"z": 3.0969463931,
				"element": "C" 
			},
			{
				"x": 1.7176669484,
				"y": 2.2366778152,
				"z": 2.7967175842,
				"element": "C" 
			},
			{
				"x": 1.2674353348,
				"y": 2.5768458273,
				"z": 1.529173707,
				"element": "C" 
			},
			{
				"x": 1.0239804206,
				"y": 1.6552726891,
				"z": 0.5771474412,
				"element": "N" 
			},
			{
				"x": 1.571785255,
				"y": -0.226298696,
				"z": -2.3375613803,
				"element": "C" 
			},
			{
				"x": 1.2050336372,
				"y": 0.0452408191,
				"z": -3.6522507786,
				"element": "C" 
			},
			{
				"x": -0.1308880404,
				"y": 0.3061662409,
				"z": -3.9555193729,
				"element": "C" 
			},
			{
				"x": -3.2090801834,
				"y": -0.2723087809,
				"z": -3.1336163585,
				"element": "H" 
			},
			{
				"x": -2.6446281979,
				"y": 0.8366073257,
				"z": -4.3881312956,
				"element": "H" 
			},
			{
				"x": -2.9565096666,
				"y": 1.4272532617,
				"z": -2.7504183424,
				"element": "H" 
			},
			{
				"x": -1.4255792588,
				"y": -0.580234186,
				"z": 0.3366304875,
				"element": "H" 
			},
			{
				"x": -2.7266254552,
				"y": -0.4658510933,
				"z": -0.8573041274,
				"element": "H" 
			},
			{
				"x": -2.0147729927,
				"y": 1.0010355685,
				"z": -0.1761237355,
				"element": "H" 
			},
			{
				"x": 1.8795946787,
				"y": -1.7709765758,
				"z": 3.2610717028,
				"element": "H" 
			},
			{
				"x": 1.4636198803,
				"y": -2.0403029827,
				"z": 1.6452542518,
				"element": "H" 
			},
			{
				"x": 2.2895648194,
				"y": 0.5854555118,
				"z": 4.0787640017,
				"element": "H" 
			},
			{
				"x": 1.8999080468,
				"y": 3.0036284113,
				"z": 3.542464603,
				"element": "H" 
			},
			{
				"x": 1.0875309293,
				"y": 3.6121351049,
				"z": 1.2509511265,
				"element": "H" 
			},
			{
				"x": 2.6004018223,
				"y": -0.4321980882,
				"z": -2.0610440421,
				"element": "H" 
			},
			{
				"x": 1.9565601827,
				"y": 0.0567680331,
				"z": -4.436126319,
				"element": "H" 
			},
			{
				"x": -0.4176595563,
				"y": 0.52338834,
				"z": -4.9811467101,
				"element": "H" 
			}
		],
		 "valence_orbital": [ 
			{
				"type": "occ",
				"energy": -0.2594,
				"method": "rhf"
			},
			{
				"type": "occ",
				"energy": -0.25487,
				"method": "rhf"
			},
			{
				"type": "occ",
				"energy": -0.23072,
				"method": "rhf"
			},
			{
				"type": "occ",
				"energy": -0.22917,
				"method": "rhf"
			},
			{
				"type": "occ",
				"energy": -0.1987,
				"method": "rhf"
			},
			{
				"type": "unocc",
				"energy": -0.00605,
				"method": "rhf"
			},
			{
				"type": "unocc",
				"energy": 0.00522,
				"method": "rhf"
			},
			{
				"type": "unocc",
				"energy": 0.0123,
				"method": "rhf"
			},
			{
				"type": "unocc",
				"energy": 0.019,
				"method": "rhf"
			},
			{
				"type": "unocc",
				"energy": 0.08418,
				"method": "rhf"
			}
		],
		"cosmo_sigma_profile": { 
			"-0.025": 0.0,
			"-0.024": 0.0,
			"-0.023": 0.0,
			"-0.022": 0.0,
			"-0.021": 0.0,
			"-0.02": 0.0,
			"-0.019": 0.0,
			"-0.018": 0.0,
			"-0.017": 0.0,
			"-0.016": 0.0,
			"-0.015": 0.0,
			"-0.014": 0.014575735179,
			"-0.013": 0.816002901785,
			"-0.012": 1.60743970927,
			"-0.011": 2.19249684358,
			"-0.01": 2.28619125022,
			"-0.009": 2.72106199426,
			"-0.008": 2.5385917236,
			"-0.007": 3.15088964132,
			"-0.006": 8.00301764441,
			"-0.005": 14.7510870795,
			"-0.004": 22.0393364918,
			"-0.003": 22.0958949896,
			"-0.002": 22.2273038829,
			"-0.001": 21.7022958566,
			"0.0": 24.0046248113,
			"0.001": 18.4670731091,
			"0.002": 16.0971087452,
			"0.003": 17.4297662467,
			"0.004": 19.3682821163,
			"0.005": 16.2954833391,
			"0.006": 8.94953572578,
			"0.007": 3.75670620961,
			"0.008": 3.0067484428,
			"0.009": 2.01820328442,
			"0.01": 1.38524735009,
			"0.011": 2.38966001102,
			"0.012": 1.50155967536,
			"0.013": 1.57851079373,
			"0.014": 1.07573143213,
			"0.015": 0.539082093666,
			"0.016": 0.0331505166042,
			"0.017": 0.0,
			"0.018": 0.0,
			"0.019": 0.0,
			"0.02": 0.0,
			"0.021": 0.0,
			"0.022": 0.0,
			"0.023": 0.0,
			"0.024": 0.0,
			"0.025": 0.0
		}
	}
}
