{
	 "smiles": "OC1=C(C=O)C=C(F)C=C1", 
	 "Tm": 357.15, 
	 "num_atms": 15, 
	 "gaussian": { 
		 "optdone": 1, 
		 "sigma_profile": "yes", 
		 "theory": "DFT", 
		 "functional": "B3LYP", 
		 "basiset": "6-31G**", 
		 "properties": { 
			 "R2extent": 2253.8555, 
			 "electric_dipole_moment_norm": 3.44370061562, 
			 "electric_quadrupole_moment_norm": 22.1924204917, 
			 "total_energy": -520.017788325, 
			 "HOMO_LUMO_gap": 0.17049, 
			 "cosmo_polarized_energy": -14.49, 
			 "cosmo_cavitation_energy": 20.45, 
			 "cosmo_dispersion_energy": -14.97, 
			 "cosmo_repulsion_energy": 1.18, 
			 "cosmo_total_nonelectrostatic_energy": 6.67, 
			 "SMD_solvation_energy": 5.57 
		},
		"coords": [
			{
				"x": 2.5973902285,
				"y": 2.2213344971,
				"z": 1.1505889553,
				"element": "O" 
			},
			{
				"x": 1.8457989779,
				"y": 1.1969137531,
				"z": 0.68207808,
				"element": "C" 
			},
			{
				"x": 2.3794966037,
				"y": -0.1136009717,
				"z": 0.7136503853,
				"element": "C" 
			},
			{
				"x": 3.7265070352,
				"y": -0.4466215597,
				"z": 1.2329569506,
				"element": "C" 
			},
			{
				"x": 4.5422763214,
				"y": 0.3260048598,
				"z": 1.6912409935,
				"element": "O" 
			},
			{
				"x": 1.6012132526,
				"y": -1.1767955786,
				"z": 0.228037398,
				"element": "C" 
			},
			{
				"x": 0.3325172841,
				"y": -0.9463915734,
				"z": -0.2733707008,
				"element": "C" 
			},
			{
				"x": -0.4018643365,
				"y": -1.9808185411,
				"z": -0.7362091546,
				"element": "F" 
			},
			{
				"x": -0.2025934723,
				"y": 0.3373392418,
				"z": -0.3094406077,
				"element": "C" 
			},
			{
				"x": 0.5575349791,
				"y": 1.4017739968,
				"z": 0.1686997018,
				"element": "C" 
			},
			{
				"x": 2.0994267815,
				"y": 3.04524657,
				"z": 1.0621198112,
				"element": "H" 
			},
			{
				"x": 3.9512929549,
				"y": -1.5370001736,
				"z": 1.166279279,
				"element": "H" 
			},
			{
				"x": 1.9965054956,
				"y": -2.1882566016,
				"z": 0.2453960704,
				"element": "H" 
			},
			{
				"x": -1.1995565524,
				"y": 0.4933925821,
				"z": -0.7071069509,
				"element": "H" 
			},
			{
				"x": 0.1465544466,
				"y": 2.4085794989,
				"z": 0.1440797889,
				"element": "H" 
			}
		],
		 "valence_orbital": [ 
			{
				"type": "occ",
				"energy": -0.36751,
				"method": "rhf"
			},
			{
				"type": "occ",
				"energy": -0.34195,
				"method": "rhf"
			},
			{
				"type": "occ",
				"energy": -0.27801,
				"method": "rhf"
			},
			{
				"type": "occ",
				"energy": -0.24825,
				"method": "rhf"
			},
			{
				"type": "occ",
				"energy": -0.23479,
				"method": "rhf"
			},
			{
				"type": "unocc",
				"energy": -0.0643,
				"method": "rhf"
			},
			{
				"type": "unocc",
				"energy": -0.00883,
				"method": "rhf"
			},
			{
				"type": "unocc",
				"energy": 0.04003,
				"method": "rhf"
			},
			{
				"type": "unocc",
				"energy": 0.05597,
				"method": "rhf"
			},
			{
				"type": "unocc",
				"energy": 0.08128,
				"method": "rhf"
			}
		],
		"cosmo_sigma_profile": { 
			"-0.025": 0.0,
			"-0.024": 0.0,
			"-0.023": 0.0,
			"-0.022": 0.0,
			"-0.021": 0.0,
			"-0.02": 0.0,
			"-0.019": 0.245704363169,
			"-0.018": 0.96953370115,
			"-0.017": 1.59325006681,
			"-0.016": 1.12059909583,
			"-0.015": 0.813255585408,
			"-0.014": 1.28418366712,
			"-0.013": 0.614053866028,
			"-0.012": 1.12025553879,
			"-0.011": 1.38459848828,
			"-0.01": 1.07103622073,
			"-0.009": 1.57915428959,
			"-0.008": 7.03793295059,
			"-0.007": 6.84662653651,
			"-0.006": 8.20701359587,
			"-0.005": 7.06499636092,
			"-0.004": 6.3795148429,
			"-0.003": 6.75233974953,
			"-0.002": 6.4011943706,
			"-0.001": 8.70013606845,
			"0.0": 13.2896572363,
			"0.001": 18.999838559,
			"0.002": 13.3438824211,
			"0.003": 6.54300149414,
			"0.004": 11.527248131,
			"0.005": 5.6404722586,
			"0.006": 1.43652419369,
			"0.007": 1.6628827316,
			"0.008": 3.12422151616,
			"0.009": 2.47150441548,
			"0.01": 2.31627326519,
			"0.011": 4.03897420515,
			"0.012": 4.6581162652,
			"0.013": 2.93266206337,
			"0.014": 1.42793438559,
			"0.015": 1.20864882744,
			"0.016": 0.422694109772,
			"0.017": 0.0,
			"0.018": 0.0,
			"0.019": 0.0,
			"0.02": 0.0,
			"0.021": 0.0,
			"0.022": 0.0,
			"0.023": 0.0,
			"0.024": 0.0,
			"0.025": 0.0
		}
	}
}
