{
	 "smiles": "CCCCCCCCCCCCCOCC1CO1", 
	 "Tm": 274.75, 
	 "num_atms": 50, 
	 "gaussian": { 
		 "optdone": 1, 
		 "sigma_profile": "yes", 
		 "theory": "DFT", 
		 "functional": "B3LYP", 
		 "basiset": "6-31G**", 
		 "properties": { 
			 "R2extent": 9090.2804, 
			 "electric_dipole_moment_norm": 2.33731823678, 
			 "electric_quadrupole_moment_norm": 9.77929473173, 
			 "total_energy": -779.40082122, 
			 "HOMO_LUMO_gap": 0.30873, 
			 "cosmo_polarized_energy": -7.5, 
			 "cosmo_cavitation_energy": 49.01, 
			 "cosmo_dispersion_energy": -31.6, 
			 "cosmo_repulsion_energy": 2.52, 
			 "cosmo_total_nonelectrostatic_energy": 19.94, 
			 "SMD_solvation_energy": 6.46 
		},
		"coords": [
			{
				"x": 5.5693872386,
				"y": 1.4190685161,
				"z": 0.3470037083,
				"element": "C" 
			},
			{
				"x": 5.567809208,
				"y": 0.0225929435,
				"z": 0.9802549122,
				"element": "C" 
			},
			{
				"x": 4.1934535749,
				"y": -0.5491332703,
				"z": 1.3757388255,
				"element": "C" 
			},
			{
				"x": 3.4446656747,
				"y": 0.192895392,
				"z": 2.5047381577,
				"element": "C" 
			},
			{
				"x": 2.5307896983,
				"y": 1.3732390452,
				"z": 2.1147777158,
				"element": "C" 
			},
			{
				"x": 1.296489809,
				"y": 0.9981530387,
				"z": 1.2560399453,
				"element": "C" 
			},
			{
				"x": 1.43497392,
				"y": 1.3145829126,
				"z": -0.2425510978,
				"element": "C" 
			},
			{
				"x": 0.234683088,
				"y": 0.8857604767,
				"z": -1.1036944831,
				"element": "C" 
			},
			{
				"x": -1.0673858804,
				"y": 1.6472099846,
				"z": -0.8101648368,
				"element": "C" 
			},
			{
				"x": -2.2139825557,
				"y": 1.3431628803,
				"z": -1.7908976502,
				"element": "C" 
			},
			{
				"x": -2.7313646881,
				"y": -0.1066122223,
				"z": -1.7957492355,
				"element": "C" 
			},
			{
				"x": -3.3583222845,
				"y": -0.561107157,
				"z": -0.4700621433,
				"element": "C" 
			},
			{
				"x": -3.964072317,
				"y": -1.9635881124,
				"z": -0.5682101578,
				"element": "C" 
			},
			{
				"x": -4.6500525289,
				"y": -2.3647751355,
				"z": 0.614770585,
				"element": "O" 
			},
			{
				"x": -3.9258144645,
				"y": -3.182991996,
				"z": 1.5134946151,
				"element": "C" 
			},
			{
				"x": -2.9213604588,
				"y": -2.4266628277,
				"z": 2.3635434145,
				"element": "C" 
			},
			{
				"x": -1.4709932027,
				"y": -2.5088029532,
				"z": 2.1297238271,
				"element": "C" 
			},
			{
				"x": -2.0888806211,
				"y": -3.2542078489,
				"z": 3.1849668881,
				"element": "O" 
			},
			{
				"x": 4.9112086876,
				"y": 1.4626804802,
				"z": -0.5283256876,
				"element": "H" 
			},
			{
				"x": 5.2377851006,
				"y": 2.1890134533,
				"z": 1.0501892254,
				"element": "H" 
			},
			{
				"x": 6.5770791413,
				"y": 1.6933569915,
				"z": 0.0163934372,
				"element": "H" 
			},
			{
				"x": 6.2123499363,
				"y": 0.0317228637,
				"z": 1.8703052839,
				"element": "H" 
			},
			{
				"x": 6.0374079097,
				"y": -0.6799209338,
				"z": 0.2790469822,
				"element": "H" 
			},
			{
				"x": 3.556148756,
				"y": -0.6255079477,
				"z": 0.4852567858,
				"element": "H" 
			},
			{
				"x": 4.3594433952,
				"y": -1.5831934811,
				"z": 1.7043635239,
				"element": "H" 
			},
			{
				"x": 2.8203810255,
				"y": -0.5347124391,
				"z": 3.040967946,
				"element": "H" 
			},
			{
				"x": 4.1812431389,
				"y": 0.5446257929,
				"z": 3.2408227326,
				"element": "H" 
			},
			{
				"x": 2.1851077241,
				"y": 1.8312631509,
				"z": 3.0498278938,
				"element": "H" 
			},
			{
				"x": 3.1050092533,
				"y": 2.1529735534,
				"z": 1.6013125391,
				"element": "H" 
			},
			{
				"x": 1.0766439511,
				"y": -0.0728495932,
				"z": 1.378780234,
				"element": "H" 
			},
			{
				"x": 0.4189560867,
				"y": 1.5276971566,
				"z": 1.6451218257,
				"element": "H" 
			},
			{
				"x": 1.59829671,
				"y": 2.3952080366,
				"z": -0.3634093693,
				"element": "H" 
			},
			{
				"x": 2.3376413745,
				"y": 0.8305733953,
				"z": -0.6348630291,
				"element": "H" 
			},
			{
				"x": 0.4923722494,
				"y": 1.0306801686,
				"z": -2.1621187667,
				"element": "H" 
			},
			{
				"x": 0.0750370742,
				"y": -0.1941915413,
				"z": -0.9782983461,
				"element": "H" 
			},
			{
				"x": -0.8585171324,
				"y": 2.7251895268,
				"z": -0.8508240288,
				"element": "H" 
			},
			{
				"x": -1.3981416561,
				"y": 1.4470905183,
				"z": 0.2162857902,
				"element": "H" 
			},
			{
				"x": -3.0551872729,
				"y": 2.0132861796,
				"z": -1.5678438495,
				"element": "H" 
			},
			{
				"x": -1.8839286631,
				"y": 1.5988258225,
				"z": -2.8070245973,
				"element": "H" 
			},
			{
				"x": -3.4814390488,
				"y": -0.2001245939,
				"z": -2.5930358173,
				"element": "H" 
			},
			{
				"x": -1.9182078513,
				"y": -0.7918149649,
				"z": -2.0708408698,
				"element": "H" 
			},
			{
				"x": -4.1525149842,
				"y": 0.1361716128,
				"z": -0.173518699,
				"element": "H" 
			},
			{
				"x": -2.6115969921,
				"y": -0.5452556498,
				"z": 0.3316442521,
				"element": "H" 
			},
			{
				"x": -3.1886429502,
				"y": -2.7011485704,
				"z": -0.8291300703,
				"element": "H" 
			},
			{
				"x": -4.7103950078,
				"y": -1.9812932221,
				"z": -1.3727012105,
				"element": "H" 
			},
			{
				"x": -4.673210099,
				"y": -3.6323157064,
				"z": 2.1773389749,
				"element": "H" 
			},
			{
				"x": -3.4111595428,
				"y": -4.0042298353,
				"z": 0.9897159297,
				"element": "H" 
			},
			{
				"x": -3.3178150507,
				"y": -1.5382397341,
				"z": 2.859687169,
				"element": "H" 
			},
			{
				"x": -0.8212744102,
				"y": -1.6937153926,
				"z": 2.4494056673,
				"element": "H" 
			},
			{
				"x": -1.0942040625,
				"y": -3.1035287638,
				"z": 1.2965451586,
				"element": "H" 
			}
		],
		 "valence_orbital": [ 
			{
				"type": "occ",
				"energy": -0.30021,
				"method": "rhf"
			},
			{
				"type": "occ",
				"energy": -0.29898,
				"method": "rhf"
			},
			{
				"type": "occ",
				"energy": -0.29667,
				"method": "rhf"
			},
			{
				"type": "occ",
				"energy": -0.2771,
				"method": "rhf"
			},
			{
				"type": "occ",
				"energy": -0.24974,
				"method": "rhf"
			},
			{
				"type": "unocc",
				"energy": 0.05899,
				"method": "rhf"
			},
			{
				"type": "unocc",
				"energy": 0.07984,
				"method": "rhf"
			},
			{
				"type": "unocc",
				"energy": 0.0836,
				"method": "rhf"
			},
			{
				"type": "unocc",
				"energy": 0.08957,
				"method": "rhf"
			},
			{
				"type": "unocc",
				"energy": 0.09703,
				"method": "rhf"
			}
		],
		"cosmo_sigma_profile": { 
			"-0.025": 0.0,
			"-0.024": 0.0,
			"-0.023": 0.0,
			"-0.022": 0.0,
			"-0.021": 0.0,
			"-0.02": 0.0,
			"-0.019": 0.0,
			"-0.018": 0.0,
			"-0.017": 0.0,
			"-0.016": 0.0,
			"-0.015": 0.0,
			"-0.014": 0.0,
			"-0.013": 0.0,
			"-0.012": 0.0,
			"-0.011": 0.0,
			"-0.01": 0.0,
			"-0.009": 0.0,
			"-0.008": 0.0,
			"-0.007": 0.0,
			"-0.006": 3.43401622714,
			"-0.005": 11.3370682791,
			"-0.004": 14.9069979378,
			"-0.003": 22.201743289,
			"-0.002": 54.9522953192,
			"-0.001": 76.7209141828,
			"0.0": 74.3889890962,
			"0.001": 60.9676274791,
			"0.002": 22.8391973795,
			"0.003": 3.53733638929,
			"0.004": 3.46548587287,
			"0.005": 2.60583232027,
			"0.006": 2.39890337488,
			"0.007": 2.63289337207,
			"0.008": 3.02534542451,
			"0.009": 3.07581074942,
			"0.01": 2.72292696476,
			"0.011": 4.12136752735,
			"0.012": 4.67548030586,
			"0.013": 1.87434773598,
			"0.014": 0.420663211707,
			"0.015": 0.0,
			"0.016": 0.0,
			"0.017": 0.0,
			"0.018": 0.0,
			"0.019": 0.0,
			"0.02": 0.0,
			"0.021": 0.0,
			"0.022": 0.0,
			"0.023": 0.0,
			"0.024": 0.0,
			"0.025": 0.0
		}
	}
}
