{
	 "smiles": "COC(=O)C1=C(C)N(C2CC2)C2=C1C=C(O)C=C2", 
	 "Tm": 467.15, 
	 "num_atms": 33, 
	 "gaussian": { 
		 "optdone": 1, 
		 "sigma_profile": "yes", 
		 "theory": "DFT", 
		 "functional": "B3LYP", 
		 "basiset": "6-31G**", 
		 "properties": { 
			 "R2extent": 5118.7218, 
			 "electric_dipole_moment_norm": 5.39653692195, 
			 "electric_quadrupole_moment_norm": 15.9187585634, 
			 "total_energy": -822.940210445, 
			 "HOMO_LUMO_gap": 0.17452, 
			 "cosmo_polarized_energy": -17.21, 
			 "cosmo_cavitation_energy": 35.65, 
			 "cosmo_dispersion_energy": -25.64, 
			 "cosmo_repulsion_energy": 1.96, 
			 "cosmo_total_nonelectrostatic_energy": 11.97, 
			 "SMD_solvation_energy": 6.98 
		},
		"coords": [
			{
				"x": 3.817702457,
				"y": -0.0243430526,
				"z": -2.7031694264,
				"element": "C" 
			},
			{
				"x": 2.6618633644,
				"y": 0.3263817881,
				"z": -1.9310277474,
				"element": "O" 
			},
			{
				"x": 2.3807194108,
				"y": -0.5259930123,
				"z": -0.9012637262,
				"element": "C" 
			},
			{
				"x": 3.0662519068,
				"y": -1.5111074749,
				"z": -0.6821694006,
				"element": "O" 
			},
			{
				"x": 1.2025379948,
				"y": -0.1463732888,
				"z": -0.1255037777,
				"element": "C" 
			},
			{
				"x": 0.3803965939,
				"y": 0.9711754131,
				"z": -0.2524580129,
				"element": "C" 
			},
			{
				"x": 0.4769034799,
				"y": 2.1408326856,
				"z": -1.1811782701,
				"element": "C" 
			},
			{
				"x": -0.6348292443,
				"y": 0.8877713448,
				"z": 0.682649281,
				"element": "N" 
			},
			{
				"x": -1.64431255,
				"y": 1.8791785375,
				"z": 0.9311346411,
				"element": "C" 
			},
			{
				"x": -3.0930457808,
				"y": 1.4505214504,
				"z": 0.972472652,
				"element": "C" 
			},
			{
				"x": -2.5906061123,
				"y": 2.282126655,
				"z": -0.1745833938,
				"element": "C" 
			},
			{
				"x": -0.4520207142,
				"y": -0.2626510107,
				"z": 1.4592977471,
				"element": "C" 
			},
			{
				"x": 0.6865155564,
				"y": -0.9424098439,
				"z": 0.966747271,
				"element": "C" 
			},
			{
				"x": 1.0953985589,
				"y": -2.1436544066,
				"z": 1.5607637978,
				"element": "C" 
			},
			{
				"x": 0.3619501406,
				"y": -2.6287676044,
				"z": 2.6406232594,
				"element": "C" 
			},
			{
				"x": 0.7803816435,
				"y": -3.8057594717,
				"z": 3.2086932308,
				"element": "O" 
			},
			{
				"x": -0.761407689,
				"y": -1.9336151171,
				"z": 3.1334760345,
				"element": "C" 
			},
			{
				"x": -1.1802050605,
				"y": -0.7415619405,
				"z": 2.5488377602,
				"element": "C" 
			},
			{
				"x": 3.8982295455,
				"y": 0.7405379288,
				"z": -3.4765637974,
				"element": "H" 
			},
			{
				"x": 4.7159058501,
				"y": -0.0334877062,
				"z": -2.0799493374,
				"element": "H" 
			},
			{
				"x": 3.6982944579,
				"y": -1.0128204094,
				"z": -3.1541517149,
				"element": "H" 
			},
			{
				"x": 0.1638451191,
				"y": 3.0644598845,
				"z": -0.6872178145,
				"element": "H" 
			},
			{
				"x": 1.5006056511,
				"y": 2.2477288997,
				"z": -1.5334430305,
				"element": "H" 
			},
			{
				"x": -0.1607205746,
				"y": 2.0090630957,
				"z": -2.0642189853,
				"element": "H" 
			},
			{
				"x": -1.3466475011,
				"y": 2.6576692914,
				"z": 1.6328155643,
				"element": "H" 
			},
			{
				"x": -3.3055880694,
				"y": 0.4052764186,
				"z": 0.7761793505,
				"element": "H" 
			},
			{
				"x": -3.7318285159,
				"y": 1.9128995899,
				"z": 1.7183161851,
				"element": "H" 
			},
			{
				"x": -2.4773658076,
				"y": 1.788746012,
				"z": -1.1336445658,
				"element": "H" 
			},
			{
				"x": -2.8760860075,
				"y": 3.3276810687,
				"z": -0.2340204637,
				"element": "H" 
			},
			{
				"x": 1.9636066605,
				"y": -2.6778735763,
				"z": 1.1975362511,
				"element": "H" 
			},
			{
				"x": 0.1946633852,
				"y": -4.0236735532,
				"z": 3.9443770398,
				"element": "H" 
			},
			{
				"x": -1.3068170753,
				"y": -2.3330470369,
				"z": 3.986102353,
				"element": "H" 
			},
			{
				"x": -2.0379910739,
				"y": -0.2073115583,
				"z": 2.9411410458,
				"element": "H" 
			}
		],
		 "valence_orbital": [ 
			{
				"type": "occ",
				"energy": -0.28607,
				"method": "rhf"
			},
			{
				"type": "occ",
				"energy": -0.26422,
				"method": "rhf"
			},
			{
				"type": "occ",
				"energy": -0.25528,
				"method": "rhf"
			},
			{
				"type": "occ",
				"energy": -0.20482,
				"method": "rhf"
			},
			{
				"type": "occ",
				"energy": -0.194,
				"method": "rhf"
			},
			{
				"type": "unocc",
				"energy": -0.01948,
				"method": "rhf"
			},
			{
				"type": "unocc",
				"energy": 0.01132,
				"method": "rhf"
			},
			{
				"type": "unocc",
				"energy": 0.03979,
				"method": "rhf"
			},
			{
				"type": "unocc",
				"energy": 0.08073,
				"method": "rhf"
			},
			{
				"type": "unocc",
				"energy": 0.08303,
				"method": "rhf"
			}
		],
		"cosmo_sigma_profile": { 
			"-0.025": 0.0,
			"-0.024": 0.0,
			"-0.023": 0.0,
			"-0.022": 0.0,
			"-0.021": 0.0,
			"-0.02": 0.0,
			"-0.019": 0.0,
			"-0.018": 0.0,
			"-0.017": 0.762498060819,
			"-0.016": 1.19233199833,
			"-0.015": 0.920303076295,
			"-0.014": 1.11586399555,
			"-0.013": 1.01845398625,
			"-0.012": 1.11409459726,
			"-0.011": 0.82297135887,
			"-0.01": 0.724854974291,
			"-0.009": 1.29166968312,
			"-0.008": 1.24106297386,
			"-0.007": 1.72138233891,
			"-0.006": 10.3273488688,
			"-0.005": 24.632663915,
			"-0.004": 24.851234926,
			"-0.003": 27.9024893086,
			"-0.002": 24.6184241114,
			"-0.001": 24.202542726,
			"0.0": 18.2245138435,
			"0.001": 12.8859796588,
			"0.002": 15.3243044921,
			"0.003": 14.0231068804,
			"0.004": 15.8408776587,
			"0.005": 18.4210058496,
			"0.006": 12.8579644379,
			"0.007": 4.79124793768,
			"0.008": 3.93631559547,
			"0.009": 3.31417820776,
			"0.01": 3.07803684402,
			"0.011": 3.68794575689,
			"0.012": 4.87890567859,
			"0.013": 2.73182734198,
			"0.014": 0.151483616334,
			"0.015": 0.0,
			"0.016": 0.0,
			"0.017": 0.0,
			"0.018": 0.0,
			"0.019": 0.0,
			"0.02": 0.0,
			"0.021": 0.0,
			"0.022": 0.0,
			"0.023": 0.0,
			"0.024": 0.0,
			"0.025": 0.0
		}
	}
}
