{
	 "smiles": "OC1=CC=CC=C1N=CC=NC1=C(O)C=CC=C1", 
	 "Tm": 476.15, 
	 "num_atms": 30, 
	 "gaussian": { 
		 "optdone": 1, 
		 "sigma_profile": "yes", 
		 "theory": "DFT", 
		 "functional": "B3LYP", 
		 "basiset": "6-31G**", 
		 "properties": { 
			 "R2extent": 6716.2732, 
			 "electric_dipole_moment_norm": 5.02264454645, 
			 "electric_quadrupole_moment_norm": 10.4079775014, 
			 "total_energy": -800.633570049, 
			 "HOMO_LUMO_gap": 0.12021, 
			 "cosmo_polarized_energy": -14.0, 
			 "cosmo_cavitation_energy": 35.09, 
			 "cosmo_dispersion_energy": -25.49, 
			 "cosmo_repulsion_energy": 1.96, 
			 "cosmo_total_nonelectrostatic_energy": 11.56, 
			 "SMD_solvation_energy": 4.91 
		},
		"coords": [
			{
				"x": 2.893036598,
				"y": -1.5436943378,
				"z": -3.7432480931,
				"element": "O" 
			},
			{
				"x": 3.0323336782,
				"y": -0.9857161174,
				"z": -2.5208593139,
				"element": "C" 
			},
			{
				"x": 4.2760631055,
				"y": -0.9923801549,
				"z": -1.8866448448,
				"element": "C" 
			},
			{
				"x": 4.4138443704,
				"y": -0.3892775011,
				"z": -0.6381392432,
				"element": "C" 
			},
			{
				"x": 3.3223912799,
				"y": 0.2342134904,
				"z": -0.0221624325,
				"element": "C" 
			},
			{
				"x": 2.0756537389,
				"y": 0.2282426735,
				"z": -0.6427951092,
				"element": "C" 
			},
			{
				"x": 1.9007369154,
				"y": -0.405709683,
				"z": -1.8863622045,
				"element": "C" 
			},
			{
				"x": 0.7469542368,
				"y": -0.4405714592,
				"z": -2.6766657427,
				"element": "N" 
			},
			{
				"x": -0.4713641133,
				"y": -0.4476412259,
				"z": -2.2542133949,
				"element": "C" 
			},
			{
				"x": -0.9747341197,
				"y": -0.5787045656,
				"z": -0.8868017468,
				"element": "C" 
			},
			{
				"x": -2.2524597143,
				"y": -0.480424276,
				"z": -0.7267178174,
				"element": "N" 
			},
			{
				"x": -2.9187177482,
				"y": -0.6196797316,
				"z": 0.4914447229,
				"element": "C" 
			},
			{
				"x": -2.3521717232,
				"y": -0.6533971273,
				"z": 1.7945488195,
				"element": "C" 
			},
			{
				"x": -0.9966699027,
				"y": -0.5460851393,
				"z": 1.9255530063,
				"element": "O" 
			},
			{
				"x": -3.1758442137,
				"y": -0.77694442,
				"z": 2.9163507026,
				"element": "C" 
			},
			{
				"x": -4.559350701,
				"y": -0.8755888117,
				"z": 2.7798994796,
				"element": "C" 
			},
			{
				"x": -5.1396010967,
				"y": -0.839405729,
				"z": 1.5099107608,
				"element": "C" 
			},
			{
				"x": -4.3223237024,
				"y": -0.7025866922,
				"z": 0.3946293149,
				"element": "C" 
			},
			{
				"x": 1.9734078491,
				"y": -1.3382692595,
				"z": -4.0081888312,
				"element": "H" 
			},
			{
				"x": 5.1170444138,
				"y": -1.4566023159,
				"z": -2.3908249994,
				"element": "H" 
			},
			{
				"x": 5.3846709633,
				"y": -0.3871159299,
				"z": -0.1508569345,
				"element": "H" 
			},
			{
				"x": 3.4477833667,
				"y": 0.7369510694,
				"z": 0.9318311493,
				"element": "H" 
			},
			{
				"x": 1.2422741141,
				"y": 0.7498073275,
				"z": -0.1847230705,
				"element": "H" 
			},
			{
				"x": -1.2566992502,
				"y": -0.403288964,
				"z": -3.0122389597,
				"element": "H" 
			},
			{
				"x": -0.274482214,
				"y": -0.8070618231,
				"z": -0.0872624169,
				"element": "H" 
			},
			{
				"x": -0.7688558429,
				"y": -0.5427718443,
				"z": 2.8648367308,
				"element": "H" 
			},
			{
				"x": -2.7212858025,
				"y": -0.7995386805,
				"z": 3.9053085366,
				"element": "H" 
			},
			{
				"x": -5.17791252,
				"y": -0.9755003487,
				"z": 3.666722083,
				"element": "H" 
			},
			{
				"x": -6.2162147569,
				"y": -0.9093784165,
				"z": 1.3940176201,
				"element": "H" 
			},
			{
				"x": -4.7381072082,
				"y": -0.6580800063,
				"z": -0.6065477711,
				"element": "H" 
			}
		],
		 "valence_orbital": [ 
			{
				"type": "occ",
				"energy": -0.25935,
				"method": "rhf"
			},
			{
				"type": "occ",
				"energy": -0.25412,
				"method": "rhf"
			},
			{
				"type": "occ",
				"energy": -0.23996,
				"method": "rhf"
			},
			{
				"type": "occ",
				"energy": -0.22778,
				"method": "rhf"
			},
			{
				"type": "occ",
				"energy": -0.2035,
				"method": "rhf"
			},
			{
				"type": "unocc",
				"energy": -0.08329,
				"method": "rhf"
			},
			{
				"type": "unocc",
				"energy": -0.01107,
				"method": "rhf"
			},
			{
				"type": "unocc",
				"energy": -0.00308,
				"method": "rhf"
			},
			{
				"type": "unocc",
				"energy": 0.01391,
				"method": "rhf"
			},
			{
				"type": "unocc",
				"energy": 0.02691,
				"method": "rhf"
			}
		],
		"cosmo_sigma_profile": { 
			"-0.025": 0.0,
			"-0.024": 0.0,
			"-0.023": 0.0,
			"-0.022": 0.0,
			"-0.021": 0.0,
			"-0.02": 0.0,
			"-0.019": 0.259623956159,
			"-0.018": 0.883379193599,
			"-0.017": 1.15005932011,
			"-0.016": 1.43302290597,
			"-0.015": 0.883406515546,
			"-0.014": 0.638491522532,
			"-0.013": 0.821966215524,
			"-0.012": 1.55944621408,
			"-0.011": 1.21850088801,
			"-0.01": 1.60588149642,
			"-0.009": 1.686609941,
			"-0.008": 2.14224540158,
			"-0.007": 3.06887748155,
			"-0.006": 13.7317955474,
			"-0.005": 18.1380863639,
			"-0.004": 19.1425414414,
			"-0.003": 17.6327185907,
			"-0.002": 15.9139405057,
			"-0.001": 18.5919189219,
			"0.0": 19.2045802734,
			"0.001": 22.316854445,
			"0.002": 22.6069616284,
			"0.003": 28.2015413312,
			"0.004": 26.1816264026,
			"0.005": 19.1499235345,
			"0.006": 5.73893457883,
			"0.007": 4.25949667114,
			"0.008": 3.37496601648,
			"0.009": 3.03319775742,
			"0.01": 2.57479833752,
			"0.011": 3.00676466705,
			"0.012": 1.3514486887,
			"0.013": 0.322622127766,
			"0.014": 0.0,
			"0.015": 0.0,
			"0.016": 0.0,
			"0.017": 0.0,
			"0.018": 0.0,
			"0.019": 0.0,
			"0.02": 0.0,
			"0.021": 0.0,
			"0.022": 0.0,
			"0.023": 0.0,
			"0.024": 0.0,
			"0.025": 0.0
		}
	}
}
