{
	 "smiles": "CC1=CC=C(C)N1C1=CC=C(C=C1)C(O)=O", 
	 "Tm": 487.15, 
	 "num_atms": 29, 
	 "gaussian": { 
		 "optdone": 1, 
		 "sigma_profile": "yes", 
		 "theory": "DFT", 
		 "functional": "B3LYP", 
		 "basiset": "6-31G**", 
		 "properties": { 
			 "R2extent": 4874.0129, 
			 "electric_dipole_moment_norm": 3.44489750791, 
			 "electric_quadrupole_moment_norm": 23.3573632059, 
			 "total_energy": -708.42533332, 
			 "HOMO_LUMO_gap": 0.13769, 
			 "cosmo_polarized_energy": -15.81, 
			 "cosmo_cavitation_energy": 32.92, 
			 "cosmo_dispersion_energy": -23.05, 
			 "cosmo_repulsion_energy": 1.79, 
			 "cosmo_total_nonelectrostatic_energy": 11.67, 
			 "SMD_solvation_energy": 6.93 
		},
		"coords": [
			{
				"x": -0.3028339839,
				"y": -2.5431432613,
				"z": 1.8675029926,
				"element": "C" 
			},
			{
				"x": 0.001361085,
				"y": -2.8217536043,
				"z": 0.4293526548,
				"element": "C" 
			},
			{
				"x": -0.2457371202,
				"y": -3.9477307387,
				"z": -0.3209423395,
				"element": "C" 
			},
			{
				"x": 0.1776973163,
				"y": -3.6926181615,
				"z": -1.6572592805,
				"element": "C" 
			},
			{
				"x": 0.6676107228,
				"y": -2.4086184046,
				"z": -1.7141136149,
				"element": "C" 
			},
			{
				"x": 1.2864558846,
				"y": -1.6696342363,
				"z": -2.8584768847,
				"element": "C" 
			},
			{
				"x": 0.561780013,
				"y": -1.8707767013,
				"z": -0.4281756818,
				"element": "N" 
			},
			{
				"x": 0.9631147726,
				"y": -0.561234299,
				"z": -0.0497135739,
				"element": "C" 
			},
			{
				"x": 1.9931787949,
				"y": -0.3791927373,
				"z": 0.884293825,
				"element": "C" 
			},
			{
				"x": 2.3818013206,
				"y": 0.9026434768,
				"z": 1.2560198334,
				"element": "C" 
			},
			{
				"x": 1.7485395118,
				"y": 2.0265172716,
				"z": 0.7075690731,
				"element": "C" 
			},
			{
				"x": 0.733074301,
				"y": 1.8404802423,
				"z": -0.2410033988,
				"element": "C" 
			},
			{
				"x": 0.3375219687,
				"y": 0.5578429817,
				"z": -0.6130683169,
				"element": "C" 
			},
			{
				"x": 2.229195995,
				"y": 3.3780690074,
				"z": 1.1443856955,
				"element": "C" 
			},
			{
				"x": 1.3849742169,
				"y": 4.4252086525,
				"z": 0.942589756,
				"element": "O" 
			},
			{
				"x": 3.3085830996,
				"y": 3.5628816187,
				"z": 1.6553140861,
				"element": "O" 
			},
			{
				"x": 0.5952382202,
				"y": -2.4048506086,
				"z": 2.4814574048,
				"element": "H" 
			},
			{
				"x": -0.9198342722,
				"y": -1.6452689789,
				"z": 1.9949180467,
				"element": "H" 
			},
			{
				"x": -0.8566524611,
				"y": -3.3883593241,
				"z": 2.2832755232,
				"element": "H" 
			},
			{
				"x": -0.6946695427,
				"y": -4.8567699566,
				"z": 0.0558458311,
				"element": "H" 
			},
			{
				"x": 0.1404035621,
				"y": -4.3787016646,
				"z": -2.4925812247,
				"element": "H" 
			},
			{
				"x": 1.3846058532,
				"y": -2.3495626392,
				"z": -3.7082066049,
				"element": "H" 
			},
			{
				"x": 0.6920015561,
				"y": -0.810678585,
				"z": -3.1928198802,
				"element": "H" 
			},
			{
				"x": 2.2872095305,
				"y": -1.2922680581,
				"z": -2.615957724,
				"element": "H" 
			},
			{
				"x": 2.4940582313,
				"y": -1.2485538748,
				"z": 1.2968294394,
				"element": "H" 
			},
			{
				"x": 3.1873185998,
				"y": 1.0589656755,
				"z": 1.9652258396,
				"element": "H" 
			},
			{
				"x": 0.2557939072,
				"y": 2.6907169982,
				"z": -0.7224164617,
				"element": "H" 
			},
			{
				"x": -0.4604303203,
				"y": 0.4147805129,
				"z": -1.3336608194,
				"element": "H" 
			},
			{
				"x": 0.5091392375,
				"y": 4.1063093964,
				"z": 0.6851158044,
				"element": "H" 
			}
		],
		 "valence_orbital": [ 
			{
				"type": "occ",
				"energy": -0.2851,
				"method": "rhf"
			},
			{
				"type": "occ",
				"energy": -0.28118,
				"method": "rhf"
			},
			{
				"type": "occ",
				"energy": -0.27277,
				"method": "rhf"
			},
			{
				"type": "occ",
				"energy": -0.23299,
				"method": "rhf"
			},
			{
				"type": "occ",
				"energy": -0.19771,
				"method": "rhf"
			},
			{
				"type": "unocc",
				"energy": -0.06002,
				"method": "rhf"
			},
			{
				"type": "unocc",
				"energy": -0.03173,
				"method": "rhf"
			},
			{
				"type": "unocc",
				"energy": 0.02765,
				"method": "rhf"
			},
			{
				"type": "unocc",
				"energy": 0.04621,
				"method": "rhf"
			},
			{
				"type": "unocc",
				"energy": 0.05661,
				"method": "rhf"
			}
		],
		"cosmo_sigma_profile": { 
			"-0.025": 0.0,
			"-0.024": 0.0,
			"-0.023": 0.0,
			"-0.022": 0.0,
			"-0.021": 0.0,
			"-0.02": 0.0,
			"-0.019": 0.417851563676,
			"-0.018": 0.692624750475,
			"-0.017": 0.863445068433,
			"-0.016": 1.27011699246,
			"-0.015": 0.91139687652,
			"-0.014": 1.19275540326,
			"-0.013": 0.587401263858,
			"-0.012": 1.19261062678,
			"-0.011": 1.59731943703,
			"-0.01": 1.11412008843,
			"-0.009": 1.02177892716,
			"-0.008": 2.37549333534,
			"-0.007": 6.27226402223,
			"-0.006": 8.73562744986,
			"-0.005": 13.4247107164,
			"-0.004": 19.017338244,
			"-0.003": 23.3356932618,
			"-0.002": 21.3682792839,
			"-0.001": 23.3562380583,
			"0.0": 27.7036563399,
			"0.001": 19.0419768436,
			"0.002": 18.9503731318,
			"0.003": 10.0788618528,
			"0.004": 6.96947890143,
			"0.005": 6.93146377295,
			"0.006": 6.70916463868,
			"0.007": 6.43191622814,
			"0.008": 6.73741821735,
			"0.009": 7.12722195707,
			"0.01": 4.92340602703,
			"0.011": 5.38982444408,
			"0.012": 4.71817860873,
			"0.013": 1.35010482159,
			"0.014": 0.0194706248529,
			"0.015": 0.0,
			"0.016": 0.0,
			"0.017": 0.0,
			"0.018": 0.0,
			"0.019": 0.0,
			"0.02": 0.0,
			"0.021": 0.0,
			"0.022": 0.0,
			"0.023": 0.0,
			"0.024": 0.0,
			"0.025": 0.0
		}
	}
}
