{
	 "smiles": "N#CC1=CC=CN=C1", 
	 "Tm": 323.65, 
	 "num_atms": 12, 
	 "gaussian": { 
		 "optdone": 1, 
		 "sigma_profile": "yes", 
		 "theory": "DFT", 
		 "functional": "B3LYP", 
		 "basiset": "6-31G**", 
		 "properties": { 
			 "R2extent": 1627.384, 
			 "electric_dipole_moment_norm": 3.85658716225, 
			 "electric_quadrupole_moment_norm": 15.8944828551, 
			 "total_energy": -340.52383035, 
			 "HOMO_LUMO_gap": 0.21164, 
			 "cosmo_polarized_energy": -9.72, 
			 "cosmo_cavitation_energy": 17.63, 
			 "cosmo_dispersion_energy": -12.59, 
			 "cosmo_repulsion_energy": 1.04, 
			 "cosmo_total_nonelectrostatic_energy": 6.08, 
			 "SMD_solvation_energy": 3.26 
		},
		"coords": [
			{
				"x": 4.167372111,
				"y": 2.5129348996,
				"z": -1.6168022726,
				"element": "N" 
			},
			{
				"x": 3.2059296224,
				"y": 1.9635092264,
				"z": -1.2609296397,
				"element": "C" 
			},
			{
				"x": 2.0193602667,
				"y": 1.2921123666,
				"z": -0.8215999121,
				"element": "C" 
			},
			{
				"x": 1.910157267,
				"y": -0.1057593881,
				"z": -0.8826006194,
				"element": "C" 
			},
			{
				"x": 0.7311107579,
				"y": -0.6946048174,
				"z": -0.4401485165,
				"element": "C" 
			},
			{
				"x": -0.2885623263,
				"y": 0.1289353104,
				"z": 0.0436665864,
				"element": "C" 
			},
			{
				"x": -0.1987826913,
				"y": 1.4639720788,
				"z": 0.1079234722,
				"element": "N" 
			},
			{
				"x": 0.9319440466,
				"y": 2.0281175028,
				"z": -0.3164269674,
				"element": "C" 
			},
			{
				"x": 2.7315886653,
				"y": -0.7011267212,
				"z": -1.2672131044,
				"element": "H" 
			},
			{
				"x": 0.6005354812,
				"y": -1.7712979033,
				"z": -0.4679380697,
				"element": "H" 
			},
			{
				"x": -1.2223512246,
				"y": -0.3040645464,
				"z": 0.3966081205,
				"element": "H" 
			},
			{
				"x": 0.9929980241,
				"y": 3.1124719917,
				"z": -0.2593390773,
				"element": "H" 
			}
		],
		 "valence_orbital": [ 
			{
				"type": "occ",
				"energy": -0.36876,
				"method": "rhf"
			},
			{
				"type": "occ",
				"energy": -0.34503,
				"method": "rhf"
			},
			{
				"type": "occ",
				"energy": -0.31135,
				"method": "rhf"
			},
			{
				"type": "occ",
				"energy": -0.28192,
				"method": "rhf"
			},
			{
				"type": "occ",
				"energy": -0.27943,
				"method": "rhf"
			},
			{
				"type": "unocc",
				"energy": -0.06779,
				"method": "rhf"
			},
			{
				"type": "unocc",
				"energy": -0.04716,
				"method": "rhf"
			},
			{
				"type": "unocc",
				"energy": 0.024,
				"method": "rhf"
			},
			{
				"type": "unocc",
				"energy": 0.06103,
				"method": "rhf"
			},
			{
				"type": "unocc",
				"energy": 0.07677,
				"method": "rhf"
			}
		],
		"cosmo_sigma_profile": { 
			"-0.025": 0.0,
			"-0.024": 0.0,
			"-0.023": 0.0,
			"-0.022": 0.0,
			"-0.021": 0.0,
			"-0.02": 0.0,
			"-0.019": 0.0,
			"-0.018": 0.0,
			"-0.017": 0.0,
			"-0.016": 0.0,
			"-0.015": 0.0,
			"-0.014": 0.0,
			"-0.013": 0.0,
			"-0.012": 0.0,
			"-0.011": 0.0,
			"-0.01": 0.159850592907,
			"-0.009": 3.11999359829,
			"-0.008": 8.08601712451,
			"-0.007": 9.88246382637,
			"-0.006": 8.56285888288,
			"-0.005": 7.21524684997,
			"-0.004": 7.75246843852,
			"-0.003": 9.02867054199,
			"-0.002": 11.2550823167,
			"-0.001": 13.6569190238,
			"0.0": 12.5579263264,
			"0.001": 7.51068293946,
			"0.002": 3.50695657456,
			"0.003": 4.38099712234,
			"0.004": 2.39647424458,
			"0.005": 4.48732821515,
			"0.006": 3.84803580368,
			"0.007": 3.75899246544,
			"0.008": 4.67264297776,
			"0.009": 3.50473831666,
			"0.01": 4.75220821971,
			"0.011": 3.24354857266,
			"0.012": 2.95304131716,
			"0.013": 1.98135354334,
			"0.014": 0.625156338808,
			"0.015": 0.688618960481,
			"0.016": 0.106665180937,
			"0.017": 0.0,
			"0.018": 0.0,
			"0.019": 0.0,
			"0.02": 0.0,
			"0.021": 0.0,
			"0.022": 0.0,
			"0.023": 0.0,
			"0.024": 0.0,
			"0.025": 0.0
		}
	}
}
