{
	 "smiles": "ClC1=CC(OCCBr)=C(Cl)C=C1", 
	 "Tm": 331.15, 
	 "num_atms": 19, 
	 "gaussian": { 
		 "optdone": 1, 
		 "sigma_profile": "yes", 
		 "theory": "DFT", 
		 "functional": "B3LYP", 
		 "basiset": "6-31G**", 
		 "properties": { 
			 "R2extent": 6253.4062, 
			 "electric_dipole_moment_norm": 0.449476150647, 
			 "electric_quadrupole_moment_norm": 3.55596469049, 
			 "total_energy": -3876.07456551, 
			 "HOMO_LUMO_gap": 0.20906, 
			 "cosmo_polarized_energy": -7.55, 
			 "cosmo_cavitation_energy": 29.36, 
			 "cosmo_dispersion_energy": -22.05, 
			 "cosmo_repulsion_energy": 1.8, 
			 "cosmo_total_nonelectrostatic_energy": 9.12, 
			 "SMD_solvation_energy": 3.39 
		},
		"coords": [
			{
				"x": -2.027289066,
				"y": -1.200848131,
				"z": 3.5723641601,
				"element": "Cl" 
			},
			{
				"x": -1.4566221936,
				"y": -1.2705905989,
				"z": 1.9126775438,
				"element": "C" 
			},
			{
				"x": -0.3952538848,
				"y": -0.446577514,
				"z": 1.5354549166,
				"element": "C" 
			},
			{
				"x": 0.0747340221,
				"y": -0.4868301944,
				"z": 0.2174773558,
				"element": "C" 
			},
			{
				"x": 1.0985469048,
				"y": 0.2717015819,
				"z": -0.2489024506,
				"element": "O" 
			},
			{
				"x": 1.7530193055,
				"y": 1.1742212077,
				"z": 0.6417022977,
				"element": "C" 
			},
			{
				"x": 2.8309938697,
				"y": 1.8537486564,
				"z": -0.1857594899,
				"element": "C" 
			},
			{
				"x": 3.8122040311,
				"y": 3.1340008959,
				"z": 0.9420462549,
				"element": "Br" 
			},
			{
				"x": -0.5397232328,
				"y": -1.3632289467,
				"z": -0.6990129883,
				"element": "C" 
			},
			{
				"x": 0.0341855155,
				"y": -1.4268054317,
				"z": -2.3495444971,
				"element": "Cl" 
			},
			{
				"x": -1.595396799,
				"y": -2.1747378845,
				"z": -0.3007550904,
				"element": "C" 
			},
			{
				"x": -2.0670304512,
				"y": -2.1374911755,
				"z": 1.0131487115,
				"element": "C" 
			},
			{
				"x": 0.0516524842,
				"y": 0.2136692698,
				"z": 2.2667219095,
				"element": "H" 
			},
			{
				"x": 1.0448648813,
				"y": 1.9140163235,
				"z": 1.0344962764,
				"element": "H" 
			},
			{
				"x": 2.1984242411,
				"y": 0.632670382,
				"z": 1.4851450287,
				"element": "H" 
			},
			{
				"x": 3.560671326,
				"y": 1.1378394855,
				"z": -0.5604764384,
				"element": "H" 
			},
			{
				"x": 2.405287836,
				"y": 2.4209504981,
				"z": -1.0118509055,
				"element": "H" 
			},
			{
				"x": -2.0509129733,
				"y": -2.8404840424,
				"z": -1.0255223894,
				"element": "H" 
			},
			{
				"x": -2.8897558165,
				"y": -2.7693243816,
				"z": 1.3252897945,
				"element": "H" 
			}
		],
		 "valence_orbital": [ 
			{
				"type": "occ",
				"energy": -0.31571,
				"method": "rhf"
			},
			{
				"type": "occ",
				"energy": -0.29007,
				"method": "rhf"
			},
			{
				"type": "occ",
				"energy": -0.28707,
				"method": "rhf"
			},
			{
				"type": "occ",
				"energy": -0.26275,
				"method": "rhf"
			},
			{
				"type": "occ",
				"energy": -0.23726,
				"method": "rhf"
			},
			{
				"type": "unocc",
				"energy": -0.0282,
				"method": "rhf"
			},
			{
				"type": "unocc",
				"energy": -0.0152,
				"method": "rhf"
			},
			{
				"type": "unocc",
				"energy": -0.01368,
				"method": "rhf"
			},
			{
				"type": "unocc",
				"energy": 0.01276,
				"method": "rhf"
			},
			{
				"type": "unocc",
				"energy": 0.03556,
				"method": "rhf"
			}
		],
		"cosmo_sigma_profile": { 
			"-0.025": 0.0,
			"-0.024": 0.0,
			"-0.023": 0.0,
			"-0.022": 0.0,
			"-0.021": 0.0,
			"-0.02": 0.0,
			"-0.019": 0.0,
			"-0.018": 0.0,
			"-0.017": 0.0,
			"-0.016": 0.0,
			"-0.015": 0.0,
			"-0.014": 0.0,
			"-0.013": 0.0,
			"-0.012": 0.0,
			"-0.011": 0.0,
			"-0.01": 0.0,
			"-0.009": 0.991538441886,
			"-0.008": 7.32033745179,
			"-0.007": 13.515842202,
			"-0.006": 15.8594955102,
			"-0.005": 11.0063649374,
			"-0.004": 10.0423898322,
			"-0.003": 10.2520677023,
			"-0.002": 12.6036991817,
			"-0.001": 13.1705815768,
			"0.0": 16.118463984,
			"0.001": 26.8584473535,
			"0.002": 27.5925083936,
			"0.003": 21.3228070574,
			"0.004": 24.4488328908,
			"0.005": 19.4488269728,
			"0.006": 7.62250886541,
			"0.007": 2.10111287856,
			"0.008": 1.54514398355,
			"0.009": 0.663259581074,
			"0.01": 0.0,
			"0.011": 0.0,
			"0.012": 0.0,
			"0.013": 0.0,
			"0.014": 0.0,
			"0.015": 0.0,
			"0.016": 0.0,
			"0.017": 0.0,
			"0.018": 0.0,
			"0.019": 0.0,
			"0.02": 0.0,
			"0.021": 0.0,
			"0.022": 0.0,
			"0.023": 0.0,
			"0.024": 0.0,
			"0.025": 0.0
		}
	}
}
