{
	 "smiles": "CC(Cl)C(=O)NC1=NC2=C(S1)C=C(F)C=C2", 
	 "Tm": 400.15, 
	 "num_atms": 24, 
	 "gaussian": { 
		 "optdone": 1, 
		 "sigma_profile": "yes", 
		 "theory": "DFT", 
		 "functional": "B3LYP", 
		 "basiset": "6-31G**", 
		 "properties": { 
			 "R2extent": 5916.1375, 
			 "electric_dipole_moment_norm": 2.1136630881, 
			 "electric_quadrupole_moment_norm": 11.6445464515, 
			 "total_energy": -1528.8456722, 
			 "HOMO_LUMO_gap": 0.17322, 
			 "cosmo_polarized_energy": -11.5, 
			 "cosmo_cavitation_energy": 32.23, 
			 "cosmo_dispersion_energy": -24.02, 
			 "cosmo_repulsion_energy": 1.79, 
			 "cosmo_total_nonelectrostatic_energy": 10.0, 
			 "SMD_solvation_energy": 4.33 
		},
		"coords": [
			{
				"x": -0.4442481549,
				"y": 2.7124918656,
				"z": 3.4865988674,
				"element": "C" 
			},
			{
				"x": -0.4668753987,
				"y": 1.4135579834,
				"z": 2.6994832043,
				"element": "C" 
			},
			{
				"x": -1.1638599125,
				"y": 0.0627700997,
				"z": 3.7253888669,
				"element": "Cl" 
			},
			{
				"x": 0.9428058695,
				"y": 0.9883405372,
				"z": 2.2815533885,
				"element": "C" 
			},
			{
				"x": 1.9263011601,
				"y": 1.3528720105,
				"z": 2.9004566739,
				"element": "O" 
			},
			{
				"x": 1.1147128211,
				"y": 0.1808075823,
				"z": 1.1631607151,
				"element": "N" 
			},
			{
				"x": 0.2966573484,
				"y": -0.3253874996,
				"z": 0.1610158804,
				"element": "C" 
			},
			{
				"x": 0.8218992132,
				"y": -0.6785133396,
				"z": -0.9700542206,
				"element": "N" 
			},
			{
				"x": -0.1336547025,
				"y": -1.2093236766,
				"z": -1.8187402225,
				"element": "C" 
			},
			{
				"x": -1.4498314453,
				"y": -1.2534785915,
				"z": -1.3009099465,
				"element": "C" 
			},
			{
				"x": -1.4508482198,
				"y": -0.6360979905,
				"z": 0.3425525169,
				"element": "S" 
			},
			{
				"x": -2.5241267729,
				"y": -1.7395356654,
				"z": -2.0465372657,
				"element": "C" 
			},
			{
				"x": -2.2376129558,
				"y": -2.1888895999,
				"z": -3.3286489219,
				"element": "C" 
			},
			{
				"x": -3.2477186107,
				"y": -2.670345674,
				"z": -4.0818397625,
				"element": "F" 
			},
			{
				"x": -0.9499310593,
				"y": -2.1660766559,
				"z": -3.8750539871,
				"element": "C" 
			},
			{
				"x": 0.1076984379,
				"y": -1.6744385633,
				"z": -3.1196872307,
				"element": "C" 
			},
			{
				"x": -0.0782635079,
				"y": 3.5194325633,
				"z": 2.8429186005,
				"element": "H" 
			},
			{
				"x": 0.2267757479,
				"y": 2.6277221436,
				"z": 4.3418879589,
				"element": "H" 
			},
			{
				"x": -1.4505206375,
				"y": 2.9637499761,
				"z": 3.8275559506,
				"element": "H" 
			},
			{
				"x": -1.1318087639,
				"y": 1.4864839369,
				"z": 1.8374108706,
				"element": "H" 
			},
			{
				"x": 2.0986522626,
				"y": 0.04850941,
				"z": 0.948282446,
				"element": "H" 
			},
			{
				"x": -3.5387637651,
				"y": -1.7804096634,
				"z": -1.6679148263,
				"element": "H" 
			},
			{
				"x": -0.8025254272,
				"y": -2.5340308096,
				"z": -4.8842307542,
				"element": "H" 
			},
			{
				"x": 1.1157864734,
				"y": -1.6417103793,
				"z": -3.5182488017,
				"element": "H" 
			}
		],
		 "valence_orbital": [ 
			{
				"type": "occ",
				"energy": -0.30337,
				"method": "rhf"
			},
			{
				"type": "occ",
				"energy": -0.30042,
				"method": "rhf"
			},
			{
				"type": "occ",
				"energy": -0.28189,
				"method": "rhf"
			},
			{
				"type": "occ",
				"energy": -0.25398,
				"method": "rhf"
			},
			{
				"type": "occ",
				"energy": -0.23157,
				"method": "rhf"
			},
			{
				"type": "unocc",
				"energy": -0.05835,
				"method": "rhf"
			},
			{
				"type": "unocc",
				"energy": -0.0261,
				"method": "rhf"
			},
			{
				"type": "unocc",
				"energy": -0.02074,
				"method": "rhf"
			},
			{
				"type": "unocc",
				"energy": -0.00949,
				"method": "rhf"
			},
			{
				"type": "unocc",
				"energy": 0.02258,
				"method": "rhf"
			}
		],
		"cosmo_sigma_profile": { 
			"-0.025": 0.0,
			"-0.024": 0.0,
			"-0.023": 0.0,
			"-0.022": 0.0,
			"-0.021": 0.0,
			"-0.02": 0.0,
			"-0.019": 0.0,
			"-0.018": 0.0,
			"-0.017": 0.0,
			"-0.016": 0.258622194052,
			"-0.015": 0.677773586775,
			"-0.014": 0.50329044758,
			"-0.013": 0.505718387758,
			"-0.012": 1.02038955704,
			"-0.011": 1.06537728178,
			"-0.01": 1.94956740644,
			"-0.009": 3.06794134893,
			"-0.008": 6.92927136463,
			"-0.007": 8.38531125393,
			"-0.006": 11.314706981,
			"-0.005": 12.9918684652,
			"-0.004": 13.6482129589,
			"-0.003": 13.0139173331,
			"-0.002": 16.9935415697,
			"-0.001": 21.6980535756,
			"0.0": 22.1434667172,
			"0.001": 23.8000986908,
			"0.002": 26.3224576774,
			"0.003": 19.606547815,
			"0.004": 22.9952417958,
			"0.005": 10.7092738633,
			"0.006": 2.84482503499,
			"0.007": 2.53426302638,
			"0.008": 2.96410361336,
			"0.009": 2.34806808672,
			"0.01": 3.09273589758,
			"0.011": 5.83427550086,
			"0.012": 2.75020472498,
			"0.013": 0.357639512068,
			"0.014": 0.0,
			"0.015": 0.0,
			"0.016": 0.0,
			"0.017": 0.0,
			"0.018": 0.0,
			"0.019": 0.0,
			"0.02": 0.0,
			"0.021": 0.0,
			"0.022": 0.0,
			"0.023": 0.0,
			"0.024": 0.0,
			"0.025": 0.0
		}
	}
}
