{
	 "smiles": "COC1=C(OC)C=C2C(=C1)C(=O)NS2(=O)=O", 
	 "Tm": 553.15, 
	 "num_atms": 25, 
	 "gaussian": { 
		 "optdone": 1, 
		 "sigma_profile": "yes", 
		 "theory": "DFT", 
		 "functional": "B3LYP", 
		 "basiset": "6-31G**", 
		 "properties": { 
			 "R2extent": 4899.5559, 
			 "electric_dipole_moment_norm": 5.17301950315, 
			 "electric_quadrupole_moment_norm": 9.45617855003, 
			 "total_energy": -1177.33876257, 
			 "HOMO_LUMO_gap": 0.1908, 
			 "cosmo_polarized_energy": -17.52, 
			 "cosmo_cavitation_energy": 31.12, 
			 "cosmo_dispersion_energy": -23.03, 
			 "cosmo_repulsion_energy": 1.76, 
			 "cosmo_total_nonelectrostatic_energy": 9.85, 
			 "SMD_solvation_energy": 6.76 
		},
		"coords": [
			{
				"x": -2.5942086908,
				"y": 1.4065975781,
				"z": -0.493313074,
				"element": "C" 
			},
			{
				"x": -2.3445819437,
				"y": -0.0058933494,
				"z": -0.3884663013,
				"element": "O" 
			},
			{
				"x": -1.0275051267,
				"y": -0.3629326791,
				"z": -0.2794288192,
				"element": "C" 
			},
			{
				"x": -0.2844050508,
				"y": -0.0674115262,
				"z": 0.8921915447,
				"element": "C" 
			},
			{
				"x": -0.8398992943,
				"y": 0.6211608329,
				"z": 1.9342406964,
				"element": "O" 
			},
			{
				"x": -1.880155381,
				"y": -0.0671017251,
				"z": 2.6521325961,
				"element": "C" 
			},
			{
				"x": 1.0619959925,
				"y": -0.4375179455,
				"z": 0.988772875,
				"element": "C" 
			},
			{
				"x": 1.6244965925,
				"y": -1.1210950103,
				"z": -0.0788447814,
				"element": "C" 
			},
			{
				"x": 0.897229836,
				"y": -1.4491239427,
				"z": -1.2209063165,
				"element": "C" 
			},
			{
				"x": -0.4360479653,
				"y": -1.0667427662,
				"z": -1.3301729235,
				"element": "C" 
			},
			{
				"x": 1.6828253897,
				"y": -2.1947236194,
				"z": -2.2449042413,
				"element": "C" 
			},
			{
				"x": 1.2802384834,
				"y": -2.6273984095,
				"z": -3.3057217138,
				"element": "O" 
			},
			{
				"x": 2.9915324821,
				"y": -2.3165833327,
				"z": -1.7800639648,
				"element": "N" 
			},
			{
				"x": 3.3053036973,
				"y": -1.7149611615,
				"z": -0.2020041634,
				"element": "S" 
			},
			{
				"x": 4.2618867792,
				"y": -0.6126859385,
				"z": -0.2700796709,
				"element": "O" 
			},
			{
				"x": 3.5604171496,
				"y": -2.8313476625,
				"z": 0.7077898997,
				"element": "O" 
			},
			{
				"x": -2.2188488203,
				"y": 1.9435948518,
				"z": 0.3823033495,
				"element": "H" 
			},
			{
				"x": -2.1302178535,
				"y": 1.8097933032,
				"z": -1.4008008012,
				"element": "H" 
			},
			{
				"x": -3.6775819979,
				"y": 1.5151609457,
				"z": -0.5608849152,
				"element": "H" 
			},
			{
				"x": -1.4822502906,
				"y": -0.9744842505,
				"z": 3.1206036203,
				"element": "H" 
			},
			{
				"x": -2.2156878066,
				"y": 0.6241221268,
				"z": 3.426374023,
				"element": "H" 
			},
			{
				"x": -2.7134658171,
				"y": -0.3260403933,
				"z": 1.9937384933,
				"element": "H" 
			},
			{
				"x": 1.6163606805,
				"y": -0.1902588623,
				"z": 1.8872955419,
				"element": "H" 
			},
			{
				"x": -1.0117738983,
				"y": -1.3011904322,
				"z": -2.2188529129,
				"element": "H" 
			},
			{
				"x": 3.6764428539,
				"y": -2.8897366316,
				"z": -2.2568980408,
				"element": "H" 
			}
		],
		 "valence_orbital": [ 
			{
				"type": "occ",
				"energy": -0.29586,
				"method": "rhf"
			},
			{
				"type": "occ",
				"energy": -0.28718,
				"method": "rhf"
			},
			{
				"type": "occ",
				"energy": -0.28331,
				"method": "rhf"
			},
			{
				"type": "occ",
				"energy": -0.27955,
				"method": "rhf"
			},
			{
				"type": "occ",
				"energy": -0.26352,
				"method": "rhf"
			},
			{
				"type": "unocc",
				"energy": -0.07272,
				"method": "rhf"
			},
			{
				"type": "unocc",
				"energy": -0.04719,
				"method": "rhf"
			},
			{
				"type": "unocc",
				"energy": 0.02949,
				"method": "rhf"
			},
			{
				"type": "unocc",
				"energy": 0.03685,
				"method": "rhf"
			},
			{
				"type": "unocc",
				"energy": 0.03958,
				"method": "rhf"
			}
		],
		"cosmo_sigma_profile": { 
			"-0.025": 0.0,
			"-0.024": 0.0,
			"-0.023": 0.0,
			"-0.022": 0.0,
			"-0.021": 0.0,
			"-0.02": 0.0,
			"-0.019": 0.026348421427,
			"-0.018": 1.14599062654,
			"-0.017": 1.63323038025,
			"-0.016": 1.31018085403,
			"-0.015": 0.912082136986,
			"-0.014": 1.0712130746,
			"-0.013": 0.574921218121,
			"-0.012": 0.886375183678,
			"-0.011": 1.1195835376,
			"-0.01": 2.15913550707,
			"-0.009": 2.6432930541,
			"-0.008": 3.27347247029,
			"-0.007": 4.5701960214,
			"-0.006": 10.2891341911,
			"-0.005": 15.7471976221,
			"-0.004": 22.7086080854,
			"-0.003": 28.8503547597,
			"-0.002": 21.6283561755,
			"-0.001": 21.2731829907,
			"0.0": 16.4465862364,
			"0.001": 8.1767279876,
			"0.002": 7.14314055199,
			"0.003": 6.82389701104,
			"0.004": 5.61981367046,
			"0.005": 4.27843879654,
			"0.006": 6.70943926695,
			"0.007": 5.00676291149,
			"0.008": 7.22351201415,
			"0.009": 15.0607784592,
			"0.01": 16.346759131,
			"0.011": 6.78208656484,
			"0.012": 1.58550459478,
			"0.013": 0.0,
			"0.014": 0.0,
			"0.015": 0.0,
			"0.016": 0.0,
			"0.017": 0.0,
			"0.018": 0.0,
			"0.019": 0.0,
			"0.02": 0.0,
			"0.021": 0.0,
			"0.022": 0.0,
			"0.023": 0.0,
			"0.024": 0.0,
			"0.025": 0.0
		}
	}
}
