{
	 "smiles": "OC(=O)C1=C(Cl)C(Cl)=CC(=C1)S(Cl)(=O)=O", 
	 "Tm": 425.15, 
	 "num_atms": 18, 
	 "gaussian": { 
		 "optdone": 1, 
		 "sigma_profile": "yes", 
		 "theory": "DFT", 
		 "functional": "B3LYP", 
		 "basiset": "6-31G**", 
		 "properties": { 
			 "R2extent": 5798.2711, 
			 "electric_dipole_moment_norm": 4.93227625341, 
			 "electric_quadrupole_moment_norm": 11.1367177916, 
			 "total_energy": -2348.13334197, 
			 "HOMO_LUMO_gap": 0.18571, 
			 "cosmo_polarized_energy": -14.77, 
			 "cosmo_cavitation_energy": 30.4, 
			 "cosmo_dispersion_energy": -22.95, 
			 "cosmo_repulsion_energy": 1.75, 
			 "cosmo_total_nonelectrostatic_energy": 9.2, 
			 "SMD_solvation_energy": 4.62 
		},
		"coords": [
			{
				"x": -3.386284324,
				"y": 1.0900432568,
				"z": -2.9011522951,
				"element": "O" 
			},
			{
				"x": -2.9439934966,
				"y": 1.3485139634,
				"z": -1.663132376,
				"element": "C" 
			},
			{
				"x": -3.2598273909,
				"y": 2.3696287369,
				"z": -1.1005084528,
				"element": "O" 
			},
			{
				"x": -1.9967272255,
				"y": 0.3669978771,
				"z": -0.9751811353,
				"element": "C" 
			},
			{
				"x": -1.7474867176,
				"y": -0.9834911161,
				"z": -1.2926445136,
				"element": "C" 
			},
			{
				"x": -2.5670087689,
				"y": -1.7848701287,
				"z": -2.6184580493,
				"element": "Cl" 
			},
			{
				"x": -0.8367405089,
				"y": -1.7452114565,
				"z": -0.5340067498,
				"element": "C" 
			},
			{
				"x": -0.515219162,
				"y": -3.41457224,
				"z": -0.9044022482,
				"element": "Cl" 
			},
			{
				"x": -0.1640860319,
				"y": -1.1713518411,
				"z": 0.5413036237,
				"element": "C" 
			},
			{
				"x": -0.4252510564,
				"y": 0.1602469996,
				"z": 0.8478159001,
				"element": "C" 
			},
			{
				"x": -1.3216966384,
				"y": 0.9261304104,
				"z": 0.1189722713,
				"element": "C" 
			},
			{
				"x": 0.4554070255,
				"y": 0.9093625659,
				"z": 2.2207702142,
				"element": "S" 
			},
			{
				"x": -0.8984614945,
				"y": 0.5451874737,
				"z": 3.8120146502,
				"element": "Cl" 
			},
			{
				"x": 0.4966159273,
				"y": 2.3507995224,
				"z": 2.0262805066,
				"element": "O" 
			},
			{
				"x": 1.6447030691,
				"y": 0.114505335,
				"z": 2.4962791797,
				"element": "O" 
			},
			{
				"x": -3.0750337363,
				"y": 0.2312550624,
				"z": -3.2287115481,
				"element": "H" 
			},
			{
				"x": 0.5481897269,
				"y": -1.7501534344,
				"z": 1.1170607419,
				"element": "H" 
			},
			{
				"x": -1.5231991971,
				"y": 1.9609790133,
				"z": 0.3695002805,
				"element": "H" 
			}
		],
		 "valence_orbital": [ 
			{
				"type": "occ",
				"energy": -0.33967,
				"method": "rhf"
			},
			{
				"type": "occ",
				"energy": -0.32972,
				"method": "rhf"
			},
			{
				"type": "occ",
				"energy": -0.3145,
				"method": "rhf"
			},
			{
				"type": "occ",
				"energy": -0.30534,
				"method": "rhf"
			},
			{
				"type": "occ",
				"energy": -0.29792,
				"method": "rhf"
			},
			{
				"type": "unocc",
				"energy": -0.11221,
				"method": "rhf"
			},
			{
				"type": "unocc",
				"energy": -0.09342,
				"method": "rhf"
			},
			{
				"type": "unocc",
				"energy": -0.07292,
				"method": "rhf"
			},
			{
				"type": "unocc",
				"energy": -0.0443,
				"method": "rhf"
			},
			{
				"type": "unocc",
				"energy": -0.00081,
				"method": "rhf"
			}
		],
		"cosmo_sigma_profile": { 
			"-0.025": 0.0,
			"-0.024": 0.0,
			"-0.023": 0.0,
			"-0.022": 0.0,
			"-0.021": 0.0,
			"-0.02": 0.0,
			"-0.019": 0.0,
			"-0.018": 0.0,
			"-0.017": 0.0,
			"-0.016": 0.0389324025827,
			"-0.015": 0.333558380617,
			"-0.014": 1.30660255581,
			"-0.013": 1.13547136002,
			"-0.012": 1.20786323977,
			"-0.011": 1.32623253989,
			"-0.01": 1.62961302048,
			"-0.009": 2.99741999182,
			"-0.008": 5.11032250303,
			"-0.007": 5.75708463029,
			"-0.006": 9.19028543625,
			"-0.005": 14.975324778,
			"-0.004": 22.0776745894,
			"-0.003": 23.4117060255,
			"-0.002": 16.2965530476,
			"-0.001": 14.0429449392,
			"0.0": 15.5288789831,
			"0.001": 20.378130342,
			"0.002": 24.7212341455,
			"0.003": 17.5524753187,
			"0.004": 5.30410185349,
			"0.005": 5.30191787043,
			"0.006": 5.91983262855,
			"0.007": 11.1759097806,
			"0.008": 11.2936496844,
			"0.009": 5.25417916205,
			"0.01": 4.87657738726,
			"0.011": 3.37913834107,
			"0.012": 1.28054018262,
			"0.013": 0.0,
			"0.014": 0.0,
			"0.015": 0.0,
			"0.016": 0.0,
			"0.017": 0.0,
			"0.018": 0.0,
			"0.019": 0.0,
			"0.02": 0.0,
			"0.021": 0.0,
			"0.022": 0.0,
			"0.023": 0.0,
			"0.024": 0.0,
			"0.025": 0.0
		}
	}
}
