{
	 "smiles": "OC(=O)CN1C(=O)COC2=C1C=C(C=C2)[N+]([O-])=O", 
	 "Tm": 474.15, 
	 "num_atms": 26, 
	 "gaussian": { 
		 "optdone": 1, 
		 "sigma_profile": "yes", 
		 "theory": "DFT", 
		 "functional": "B3LYP", 
		 "basiset": "6-31G**", 
		 "properties": { 
			 "R2extent": 5280.6816, 
			 "electric_dipole_moment_norm": 6.79394046191, 
			 "electric_quadrupole_moment_norm": 23.0766614938, 
			 "total_energy": -946.642316723, 
			 "HOMO_LUMO_gap": 0.15974, 
			 "cosmo_polarized_energy": -20.56, 
			 "cosmo_cavitation_energy": 31.17, 
			 "cosmo_dispersion_energy": -22.7, 
			 "cosmo_repulsion_energy": 1.72, 
			 "cosmo_total_nonelectrostatic_energy": 10.18, 
			 "SMD_solvation_energy": 9.26 
		},
		"coords": [
			{
				"x": 1.1674733908,
				"y": 1.5914044881,
				"z": 2.8888225104,
				"element": "O" 
			},
			{
				"x": 0.2086108759,
				"y": 0.6608973931,
				"z": 3.0051221212,
				"element": "C" 
			},
			{
				"x": 0.2084652099,
				"y": -0.1726873592,
				"z": 3.8782055038,
				"element": "O" 
			},
			{
				"x": -0.8938075046,
				"y": 0.7315941058,
				"z": 1.933747778,
				"element": "C" 
			},
			{
				"x": -0.4012571277,
				"y": 0.3949019604,
				"z": 0.5897588051,
				"element": "N" 
			},
			{
				"x": 0.2231183716,
				"y": 1.3751876969,
				"z": -0.1274751901,
				"element": "C" 
			},
			{
				"x": 0.4921369072,
				"y": 2.479576229,
				"z": 0.3491199086,
				"element": "O" 
			},
			{
				"x": 0.606982252,
				"y": 1.0123056767,
				"z": -1.5504537927,
				"element": "C" 
			},
			{
				"x": -0.2335849966,
				"y": 0.0156259568,
				"z": -2.1323751625,
				"element": "O" 
			},
			{
				"x": -0.4636604003,
				"y": -1.0678979635,
				"z": -1.338123617,
				"element": "C" 
			},
			{
				"x": -0.5316984719,
				"y": -0.9168144107,
				"z": 0.061823663,
				"element": "C" 
			},
			{
				"x": -0.753875233,
				"y": -2.0308279108,
				"z": 0.8673251345,
				"element": "C" 
			},
			{
				"x": -0.9553584627,
				"y": -3.2652165448,
				"z": 0.2488962399,
				"element": "C" 
			},
			{
				"x": -0.9288903838,
				"y": -3.4243767848,
				"z": -1.1343231768,
				"element": "C" 
			},
			{
				"x": -0.6698354066,
				"y": -2.3126306408,
				"z": -1.9298790279,
				"element": "C" 
			},
			{
				"x": -1.2055020211,
				"y": -4.439809764,
				"z": 1.0956918311,
				"element": "N" 
			},
			{
				"x": -1.2412581074,
				"y": -4.2673816068,
				"z": 2.3128928774,
				"element": "O" 
			},
			{
				"x": -1.3664817167,
				"y": -5.5219697465,
				"z": 0.531726085,
				"element": "O" 
			},
			{
				"x": 0.9956194444,
				"y": 2.1547433209,
				"z": 2.1021696327,
				"element": "H" 
			},
			{
				"x": -1.6901233205,
				"y": 0.0407137765,
				"z": 2.202723396,
				"element": "H" 
			},
			{
				"x": -1.2967856165,
				"y": 1.7475045977,
				"z": 1.8858184372,
				"element": "H" 
			},
			{
				"x": 0.5194398216,
				"y": 1.9074558344,
				"z": -2.1662348363,
				"element": "H" 
			},
			{
				"x": 1.6563889015,
				"y": 0.6812730572,
				"z": -1.5602252297,
				"element": "H" 
			},
			{
				"x": -0.7606752251,
				"y": -1.9692182983,
				"z": 1.9491224261,
				"element": "H" 
			},
			{
				"x": -1.0925940102,
				"y": -4.4050337503,
				"z": -1.5617052103,
				"element": "H" 
			},
			{
				"x": -0.6251471703,
				"y": -2.3875193132,
				"z": -3.0105711069,
				"element": "H" 
			}
		],
		 "valence_orbital": [ 
			{
				"type": "occ",
				"energy": -0.31056,
				"method": "rhf"
			},
			{
				"type": "occ",
				"energy": -0.29682,
				"method": "rhf"
			},
			{
				"type": "occ",
				"energy": -0.28852,
				"method": "rhf"
			},
			{
				"type": "occ",
				"energy": -0.28092,
				"method": "rhf"
			},
			{
				"type": "occ",
				"energy": -0.25596,
				"method": "rhf"
			},
			{
				"type": "unocc",
				"energy": -0.09622,
				"method": "rhf"
			},
			{
				"type": "unocc",
				"energy": -0.05836,
				"method": "rhf"
			},
			{
				"type": "unocc",
				"energy": -0.02914,
				"method": "rhf"
			},
			{
				"type": "unocc",
				"energy": -0.00939,
				"method": "rhf"
			},
			{
				"type": "unocc",
				"energy": -0.00113,
				"method": "rhf"
			}
		],
		"cosmo_sigma_profile": { 
			"-0.025": 0.0,
			"-0.024": 0.0,
			"-0.023": 0.0,
			"-0.022": 0.0,
			"-0.021": 0.0,
			"-0.02": 0.0,
			"-0.019": 0.0,
			"-0.018": 0.0,
			"-0.017": 0.0,
			"-0.016": 0.0,
			"-0.015": 0.0,
			"-0.014": 0.0,
			"-0.013": 0.0,
			"-0.012": 0.0,
			"-0.011": 0.536366180607,
			"-0.01": 3.28216074152,
			"-0.009": 10.0804546349,
			"-0.008": 13.9074433601,
			"-0.007": 14.6577269947,
			"-0.006": 17.1799869581,
			"-0.005": 14.0430346583,
			"-0.004": 14.2260579857,
			"-0.003": 11.2981641042,
			"-0.002": 13.999239375,
			"-0.001": 19.6740404839,
			"0.0": 15.8857314102,
			"0.001": 11.3867736102,
			"0.002": 7.81586728668,
			"0.003": 5.4168133107,
			"0.004": 5.53359052516,
			"0.005": 7.95825811382,
			"0.006": 8.27992683631,
			"0.007": 12.2154074457,
			"0.008": 12.4310894359,
			"0.009": 10.0530902508,
			"0.01": 9.3977270973,
			"0.011": 7.3057878187,
			"0.012": 3.26439208308,
			"0.013": 0.429827819383,
			"0.014": 0.0,
			"0.015": 0.0,
			"0.016": 0.0,
			"0.017": 0.0,
			"0.018": 0.0,
			"0.019": 0.0,
			"0.02": 0.0,
			"0.021": 0.0,
			"0.022": 0.0,
			"0.023": 0.0,
			"0.024": 0.0,
			"0.025": 0.0
		}
	}
}
