{
	 "smiles": "OC(=O)C1=CC(Cl)=C(OC2=C(C=C(F)C=C2)[N+]([O-])=O)C=C1", 
	 "Tm": 429.15, 
	 "num_atms": 28, 
	 "gaussian": { 
		 "optdone": 1, 
		 "sigma_profile": "yes", 
		 "theory": "DFT", 
		 "functional": "B3LYP", 
		 "basiset": "6-31G**", 
		 "properties": { 
			 "R2extent": 7999.2105, 
			 "electric_dipole_moment_norm": 4.07137074092, 
			 "electric_quadrupole_moment_norm": 15.4898394704, 
			 "total_energy": -1490.39184966, 
			 "HOMO_LUMO_gap": 0.14633, 
			 "cosmo_polarized_energy": -16.63, 
			 "cosmo_cavitation_energy": 37.54, 
			 "cosmo_dispersion_energy": -26.11, 
			 "cosmo_repulsion_energy": 1.98, 
			 "cosmo_total_nonelectrostatic_energy": 13.41, 
			 "SMD_solvation_energy": 10.21 
		},
		"coords": [
			{
				"x": 1.1031738154,
				"y": 4.6444065489,
				"z": -1.9448612878,
				"element": "O" 
			},
			{
				"x": 0.338372437,
				"y": 4.1455632103,
				"z": -0.9420001725,
				"element": "C" 
			},
			{
				"x": -0.2758124743,
				"y": 4.8626448361,
				"z": -0.1767256731,
				"element": "O" 
			},
			{
				"x": 0.3399198584,
				"y": 2.6620768508,
				"z": -0.8934206898,
				"element": "C" 
			},
			{
				"x": 1.0616101031,
				"y": 1.8878512685,
				"z": -1.8119865579,
				"element": "C" 
			},
			{
				"x": 1.0284120093,
				"y": 0.5018624554,
				"z": -1.7283470326,
				"element": "C" 
			},
			{
				"x": 1.9212411006,
				"y": -0.4630849454,
				"z": -2.8799112471,
				"element": "Cl" 
			},
			{
				"x": 0.2765442211,
				"y": -0.1296340247,
				"z": -0.7229884183,
				"element": "C" 
			},
			{
				"x": 0.2997086347,
				"y": -1.4991917799,
				"z": -0.7094299477,
				"element": "O" 
			},
			{
				"x": -0.5514274609,
				"y": -2.2064925838,
				"z": 0.1056134994,
				"element": "C" 
			},
			{
				"x": -0.1105386523,
				"y": -2.8110685776,
				"z": 1.2932583551,
				"element": "C" 
			},
			{
				"x": -0.9414045049,
				"y": -3.6629764475,
				"z": 2.021044315,
				"element": "C" 
			},
			{
				"x": -2.2326144557,
				"y": -3.8772728526,
				"z": 1.5647631097,
				"element": "C" 
			},
			{
				"x": -3.0466745901,
				"y": -4.6816102959,
				"z": 2.2673873959,
				"element": "F" 
			},
			{
				"x": -2.7058677814,
				"y": -3.2855600833,
				"z": 0.3961380643,
				"element": "C" 
			},
			{
				"x": -1.8537969323,
				"y": -2.4614534375,
				"z": -0.3334090988,
				"element": "C" 
			},
			{
				"x": 1.2394016417,
				"y": -2.5739091978,
				"z": 1.8308754234,
				"element": "N" 
			},
			{
				"x": 1.7204864024,
				"y": -3.458488063,
				"z": 2.5366514348,
				"element": "O" 
			},
			{
				"x": 1.7804943802,
				"y": -1.5053495111,
				"z": 1.5634795689,
				"element": "O" 
			},
			{
				"x": -0.4385998,
				"y": 0.6445706026,
				"z": 0.1951160649,
				"element": "C" 
			},
			{
				"x": -0.4067440653,
				"y": 2.0308668014,
				"z": 0.1078361453,
				"element": "C" 
			},
			{
				"x": 1.0298960432,
				"y": 5.610574187,
				"z": -1.8792690499,
				"element": "H" 
			},
			{
				"x": 1.644505883,
				"y": 2.3634235936,
				"z": -2.5908171355,
				"element": "H" 
			},
			{
				"x": -0.5746370661,
				"y": -4.1406542132,
				"z": 2.9203646459,
				"element": "H" 
			},
			{
				"x": -3.7186568442,
				"y": -3.4858910902,
				"z": 0.0648924771,
				"element": "H" 
			},
			{
				"x": -2.1788369471,
				"y": -2.0139495315,
				"z": -1.2663259096,
				"element": "H" 
			},
			{
				"x": -1.0072038918,
				"y": 0.1567454012,
				"z": 0.9781299449,
				"element": "H" 
			},
			{
				"x": -0.9539510636,
				"y": 2.6441008792,
				"z": 0.8150417761,
				"element": "H" 
			}
		],
		 "valence_orbital": [ 
			{
				"type": "occ",
				"energy": -0.29637,
				"method": "rhf"
			},
			{
				"type": "occ",
				"energy": -0.28314,
				"method": "rhf"
			},
			{
				"type": "occ",
				"energy": -0.27878,
				"method": "rhf"
			},
			{
				"type": "occ",
				"energy": -0.26822,
				"method": "rhf"
			},
			{
				"type": "occ",
				"energy": -0.24825,
				"method": "rhf"
			},
			{
				"type": "unocc",
				"energy": -0.10192,
				"method": "rhf"
			},
			{
				"type": "unocc",
				"energy": -0.05406,
				"method": "rhf"
			},
			{
				"type": "unocc",
				"energy": -0.04503,
				"method": "rhf"
			},
			{
				"type": "unocc",
				"energy": -0.0284,
				"method": "rhf"
			},
			{
				"type": "unocc",
				"energy": -0.02004,
				"method": "rhf"
			}
		],
		"cosmo_sigma_profile": { 
			"-0.025": 0.0,
			"-0.024": 0.0,
			"-0.023": 0.0,
			"-0.022": 0.0,
			"-0.021": 0.0,
			"-0.02": 0.0,
			"-0.019": 0.174488200799,
			"-0.018": 1.01634893685,
			"-0.017": 0.439104875071,
			"-0.016": 1.02802747474,
			"-0.015": 1.33622171045,
			"-0.014": 0.47230776637,
			"-0.013": 0.15812859235,
			"-0.012": 0.698537886209,
			"-0.011": 0.65320557003,
			"-0.01": 1.44008614745,
			"-0.009": 5.28837088903,
			"-0.008": 8.4384972743,
			"-0.007": 12.9628101856,
			"-0.006": 12.139093867,
			"-0.005": 13.1220860023,
			"-0.004": 10.6866193884,
			"-0.003": 16.1875600244,
			"-0.002": 26.8069490562,
			"-0.001": 26.2991325858,
			"0.0": 25.8297242009,
			"0.001": 24.9165324945,
			"0.002": 17.8441293273,
			"0.003": 22.3532390381,
			"0.004": 18.6668382488,
			"0.005": 10.1790072608,
			"0.006": 12.1351839681,
			"0.007": 12.0985072924,
			"0.008": 6.65651180827,
			"0.009": 4.92109821576,
			"0.01": 2.86450499094,
			"0.011": 4.22338526243,
			"0.012": 3.04726774553,
			"0.013": 0.00224293287599,
			"0.014": 0.0,
			"0.015": 0.0,
			"0.016": 0.0,
			"0.017": 0.0,
			"0.018": 0.0,
			"0.019": 0.0,
			"0.02": 0.0,
			"0.021": 0.0,
			"0.022": 0.0,
			"0.023": 0.0,
			"0.024": 0.0,
			"0.025": 0.0
		}
	}
}
