{
	 "smiles": "CCOC1=C(OCC)C=C(C=O)C(Br)=C1", 
	 "Tm": 344.65, 
	 "num_atms": 28, 
	 "gaussian": { 
		 "optdone": 1, 
		 "sigma_profile": "yes", 
		 "theory": "DFT", 
		 "functional": "B3LYP", 
		 "basiset": "6-31G**", 
		 "properties": { 
			 "R2extent": 6736.0419, 
			 "electric_dipole_moment_norm": 5.5187837247, 
			 "electric_quadrupole_moment_norm": 18.0405223184, 
			 "total_energy": -3224.05027201, 
			 "HOMO_LUMO_gap": 0.17438, 
			 "cosmo_polarized_energy": -10.77, 
			 "cosmo_cavitation_energy": 34.25, 
			 "cosmo_dispersion_energy": -24.16, 
			 "cosmo_repulsion_energy": 1.93, 
			 "cosmo_total_nonelectrostatic_energy": 12.02, 
			 "SMD_solvation_energy": 6.46 
		},
		"coords": [
			{
				"x": 0.4062163831,
				"y": -0.5285686467,
				"z": -3.2644379862,
				"element": "C" 
			},
			{
				"x": 0.8342732663,
				"y": -0.6137495362,
				"z": -1.8118384879,
				"element": "C" 
			},
			{
				"x": 0.1285981962,
				"y": 0.4229556926,
				"z": -1.0884742529,
				"element": "O" 
			},
			{
				"x": 0.3857897209,
				"y": 0.5006961606,
				"z": 0.2514827056,
				"element": "C" 
			},
			{
				"x": 0.0040474849,
				"y": -0.5167912129,
				"z": 1.1506604865,
				"element": "C" 
			},
			{
				"x": -0.6082758264,
				"y": -1.6695391155,
				"z": 0.7232279453,
				"element": "O" 
			},
			{
				"x": -1.9792416894,
				"y": -1.5108993461,
				"z": 0.2947761453,
				"element": "C" 
			},
			{
				"x": -2.4943504247,
				"y": -2.8764644666,
				"z": -0.1192682586,
				"element": "C" 
			},
			{
				"x": 0.2911018385,
				"y": -0.3551592066,
				"z": 2.4999803876,
				"element": "C" 
			},
			{
				"x": 0.9292930526,
				"y": 0.7897582728,
				"z": 3.0076202503,
				"element": "C" 
			},
			{
				"x": 1.1635401631,
				"y": 0.8042111535,
				"z": 4.4728797797,
				"element": "C" 
			},
			{
				"x": 1.6860540709,
				"y": 1.6848970012,
				"z": 5.12331419,
				"element": "O" 
			},
			{
				"x": 1.2726002685,
				"y": 1.8068464389,
				"z": 2.0969906452,
				"element": "C" 
			},
			{
				"x": 2.1244071391,
				"y": 3.4251199934,
				"z": 2.6277022608,
				"element": "Br" 
			},
			{
				"x": 1.0063084177,
				"y": 1.6545101345,
				"z": 0.7390013948,
				"element": "C" 
			},
			{
				"x": 0.9373769653,
				"y": -1.2821140493,
				"z": -3.8542080214,
				"element": "H" 
			},
			{
				"x": -0.6684280553,
				"y": -0.7062203003,
				"z": -3.3655587535,
				"element": "H" 
			},
			{
				"x": 0.6320897019,
				"y": 0.4582815094,
				"z": -3.6780101236,
				"element": "H" 
			},
			{
				"x": 0.5992008465,
				"y": -1.5902533373,
				"z": -1.3770492907,
				"element": "H" 
			},
			{
				"x": 1.9132468193,
				"y": -0.4390649189,
				"z": -1.7075954239,
				"element": "H" 
			},
			{
				"x": -2.566236663,
				"y": -1.1046615481,
				"z": 1.1295847224,
				"element": "H" 
			},
			{
				"x": -2.0244169429,
				"y": -0.796031425,
				"z": -0.5346306706,
				"element": "H" 
			},
			{
				"x": -1.912838362,
				"y": -3.2761445479,
				"z": -0.9552122035,
				"element": "H" 
			},
			{
				"x": -2.4294369266,
				"y": -3.5829792259,
				"z": 0.713026003,
				"element": "H" 
			},
			{
				"x": -3.5407187519,
				"y": -2.8027552725,
				"z": -0.4314227303,
				"element": "H" 
			},
			{
				"x": 0.0030921679,
				"y": -1.1514233419,
				"z": 3.1815881074,
				"element": "H" 
			},
			{
				"x": 0.7972729689,
				"y": -0.123675194,
				"z": 4.9687049033,
				"element": "H" 
			},
			{
				"x": 1.2807341707,
				"y": 2.4290183348,
				"z": 0.0327662759,
				"element": "H" 
			}
		],
		 "valence_orbital": [ 
			{
				"type": "occ",
				"energy": -0.29163,
				"method": "rhf"
			},
			{
				"type": "occ",
				"energy": -0.27703,
				"method": "rhf"
			},
			{
				"type": "occ",
				"energy": -0.2597,
				"method": "rhf"
			},
			{
				"type": "occ",
				"energy": -0.24509,
				"method": "rhf"
			},
			{
				"type": "occ",
				"energy": -0.23906,
				"method": "rhf"
			},
			{
				"type": "unocc",
				"energy": -0.06468,
				"method": "rhf"
			},
			{
				"type": "unocc",
				"energy": -0.02152,
				"method": "rhf"
			},
			{
				"type": "unocc",
				"energy": 0.0089,
				"method": "rhf"
			},
			{
				"type": "unocc",
				"energy": 0.03583,
				"method": "rhf"
			},
			{
				"type": "unocc",
				"energy": 0.07103,
				"method": "rhf"
			}
		],
		"cosmo_sigma_profile": { 
			"-0.025": 0.0,
			"-0.024": 0.0,
			"-0.023": 0.0,
			"-0.022": 0.0,
			"-0.021": 0.0,
			"-0.02": 0.0,
			"-0.019": 0.0,
			"-0.018": 0.0,
			"-0.017": 0.0,
			"-0.016": 0.0,
			"-0.015": 0.0,
			"-0.014": 0.0,
			"-0.013": 0.0,
			"-0.012": 0.0,
			"-0.011": 0.0,
			"-0.01": 0.0,
			"-0.009": 0.895338752742,
			"-0.008": 3.57236208052,
			"-0.007": 4.37781551999,
			"-0.006": 4.95856861502,
			"-0.005": 9.16550259471,
			"-0.004": 25.2201684931,
			"-0.003": 33.9441955645,
			"-0.002": 34.2144937694,
			"-0.001": 27.6648535523,
			"0.0": 31.2186050756,
			"0.001": 27.8786155693,
			"0.002": 11.270295836,
			"0.003": 9.79095827693,
			"0.004": 12.7469643751,
			"0.005": 6.8548549256,
			"0.006": 4.23175854604,
			"0.007": 4.51580975382,
			"0.008": 3.73194278248,
			"0.009": 4.02853753804,
			"0.01": 5.11727257312,
			"0.011": 5.48647882551,
			"0.012": 3.12106836948,
			"0.013": 0.416340678791,
			"0.014": 0.0,
			"0.015": 0.0,
			"0.016": 0.0,
			"0.017": 0.0,
			"0.018": 0.0,
			"0.019": 0.0,
			"0.02": 0.0,
			"0.021": 0.0,
			"0.022": 0.0,
			"0.023": 0.0,
			"0.024": 0.0,
			"0.025": 0.0
		}
	}
}
