{
	 "smiles": "CN1C=C(CCC(O)=O)C(=O)N(C)C1=O", 
	 "Tm": 498.15, 
	 "num_atms": 27, 
	 "gaussian": { 
		 "optdone": 1, 
		 "sigma_profile": "yes", 
		 "theory": "DFT", 
		 "functional": "B3LYP", 
		 "basiset": "6-31G**", 
		 "properties": { 
			 "R2extent": 4557.4906, 
			 "electric_dipole_moment_norm": 3.31783250632, 
			 "electric_quadrupole_moment_norm": 13.6940971247, 
			 "total_energy": -760.645998916, 
			 "HOMO_LUMO_gap": 0.19674, 
			 "cosmo_polarized_energy": -18.86, 
			 "cosmo_cavitation_energy": 31.23, 
			 "cosmo_dispersion_energy": -22.51, 
			 "cosmo_repulsion_energy": 1.77, 
			 "cosmo_total_nonelectrostatic_energy": 10.48, 
			 "SMD_solvation_energy": 8.11 
		},
		"coords": [
			{
				"x": 0.9756235698,
				"y": 3.0125055525,
				"z": 2.533456244,
				"element": "C" 
			},
			{
				"x": 1.2082058049,
				"y": 2.1402780995,
				"z": 1.3811774267,
				"element": "N" 
			},
			{
				"x": 0.9414735074,
				"y": 0.7931452696,
				"z": 1.4714034627,
				"element": "C" 
			},
			{
				"x": 1.1307373776,
				"y": -0.078544516,
				"z": 0.4549073446,
				"element": "C" 
			},
			{
				"x": 0.8482058576,
				"y": -1.5532852141,
				"z": 0.5750257206,
				"element": "C" 
			},
			{
				"x": -0.3089406352,
				"y": -2.0205975042,
				"z": -0.3200924583,
				"element": "C" 
			},
			{
				"x": -0.6056839083,
				"y": -3.4923921595,
				"z": -0.1489319216,
				"element": "C" 
			},
			{
				"x": -1.6196439753,
				"y": -3.8927367879,
				"z": -0.9547129629,
				"element": "O" 
			},
			{
				"x": -0.0359881797,
				"y": -4.2514930171,
				"z": 0.6052665166,
				"element": "O" 
			},
			{
				"x": 1.6533607804,
				"y": 0.4315404799,
				"z": -0.8121058259,
				"element": "C" 
			},
			{
				"x": 1.8652348632,
				"y": -0.2728129188,
				"z": -1.7947825577,
				"element": "O" 
			},
			{
				"x": 1.9093749853,
				"y": 1.8210722828,
				"z": -0.8446781242,
				"element": "N" 
			},
			{
				"x": 2.4363118781,
				"y": 2.410578007,
				"z": -2.0804796464,
				"element": "C" 
			},
			{
				"x": 1.7075218575,
				"y": 2.7103684475,
				"z": 0.2072894869,
				"element": "C" 
			},
			{
				"x": 1.9511547762,
				"y": 3.9045449902,
				"z": 0.1060043428,
				"element": "O" 
			},
			{
				"x": -0.0807872646,
				"y": 2.9941922546,
				"z": 2.8181608881,
				"element": "H" 
			},
			{
				"x": 1.2571472452,
				"y": 4.0229216677,
				"z": 2.2444253132,
				"element": "H" 
			},
			{
				"x": 1.5853701086,
				"y": 2.6910487193,
				"z": 3.3832537097,
				"element": "H" 
			},
			{
				"x": 0.5645930709,
				"y": 0.4684444945,
				"z": 2.4365842033,
				"element": "H" 
			},
			{
				"x": 1.744692896,
				"y": -2.1185404816,
				"z": 0.2995740592,
				"element": "H" 
			},
			{
				"x": 0.6289387952,
				"y": -1.8048841797,
				"z": 1.6173732201,
				"element": "H" 
			},
			{
				"x": -0.071700731,
				"y": -1.8330148673,
				"z": -1.3720828104,
				"element": "H" 
			},
			{
				"x": -1.2298744363,
				"y": -1.4632798522,
				"z": -0.1080764179,
				"element": "H" 
			},
			{
				"x": -1.7394740896,
				"y": -4.8420732991,
				"z": -0.783888707,
				"element": "H" 
			},
			{
				"x": 3.402852264,
				"y": 2.8801001656,
				"z": -1.8858660263,
				"element": "H" 
			},
			{
				"x": 1.7505237025,
				"y": 3.1764754983,
				"z": -2.4487557667,
				"element": "H" 
			},
			{
				"x": 2.5389698797,
				"y": 1.6054388687,
				"z": -2.8040487132,
				"element": "H" 
			}
		],
		 "valence_orbital": [ 
			{
				"type": "occ",
				"energy": -0.29011,
				"method": "rhf"
			},
			{
				"type": "occ",
				"energy": -0.27587,
				"method": "rhf"
			},
			{
				"type": "occ",
				"energy": -0.27135,
				"method": "rhf"
			},
			{
				"type": "occ",
				"energy": -0.26254,
				"method": "rhf"
			},
			{
				"type": "occ",
				"energy": -0.23595,
				"method": "rhf"
			},
			{
				"type": "unocc",
				"energy": -0.03921,
				"method": "rhf"
			},
			{
				"type": "unocc",
				"energy": 0.01109,
				"method": "rhf"
			},
			{
				"type": "unocc",
				"energy": 0.01291,
				"method": "rhf"
			},
			{
				"type": "unocc",
				"energy": 0.07927,
				"method": "rhf"
			},
			{
				"type": "unocc",
				"energy": 0.0847,
				"method": "rhf"
			}
		],
		"cosmo_sigma_profile": { 
			"-0.025": 0.0,
			"-0.024": 0.0,
			"-0.023": 0.0,
			"-0.022": 0.0,
			"-0.021": 0.0,
			"-0.02": 0.0,
			"-0.019": 0.00218691042906,
			"-0.018": 0.606519956798,
			"-0.017": 0.887429813756,
			"-0.016": 0.826365678924,
			"-0.015": 0.950599482522,
			"-0.014": 0.775441329857,
			"-0.013": 0.623989875012,
			"-0.012": 0.597999820567,
			"-0.011": 0.443509793841,
			"-0.01": 1.29881072982,
			"-0.009": 3.04011399473,
			"-0.008": 4.04902458752,
			"-0.007": 6.50145988131,
			"-0.006": 12.854662044,
			"-0.005": 15.7306591952,
			"-0.004": 23.765237774,
			"-0.003": 29.5941872095,
			"-0.002": 27.5420836458,
			"-0.001": 18.0231548927,
			"0.0": 11.787019094,
			"0.001": 8.22275588598,
			"0.002": 7.23741999503,
			"0.003": 6.60431691123,
			"0.004": 6.21495550451,
			"0.005": 5.63075652938,
			"0.006": 5.73758867091,
			"0.007": 6.19551285543,
			"0.008": 4.15490396564,
			"0.009": 6.33649346982,
			"0.01": 6.37949720735,
			"0.011": 6.47387984039,
			"0.012": 10.9375411781,
			"0.013": 6.57692430549,
			"0.014": 0.0560455094409,
			"0.015": 0.0,
			"0.016": 0.0,
			"0.017": 0.0,
			"0.018": 0.0,
			"0.019": 0.0,
			"0.02": 0.0,
			"0.021": 0.0,
			"0.022": 0.0,
			"0.023": 0.0,
			"0.024": 0.0,
			"0.025": 0.0
		}
	}
}
