{
	 "smiles": "OC(=O)C=CC1=CC=CC=C1[N+]([O-])=O", 
	 "Tm": 519.15, 
	 "num_atms": 21, 
	 "gaussian": { 
		 "optdone": 1, 
		 "sigma_profile": "yes", 
		 "theory": "DFT", 
		 "functional": "B3LYP", 
		 "basiset": "6-31G**", 
		 "properties": { 
			 "R2extent": 3409.5676, 
			 "electric_dipole_moment_norm": 6.0135764076, 
			 "electric_quadrupole_moment_norm": 20.0274804561, 
			 "total_energy": -702.707091323, 
			 "HOMO_LUMO_gap": 0.15807, 
			 "cosmo_polarized_energy": -17.42, 
			 "cosmo_cavitation_energy": 27.12, 
			 "cosmo_dispersion_energy": -19.5, 
			 "cosmo_repulsion_energy": 1.53, 
			 "cosmo_total_nonelectrostatic_energy": 9.15, 
			 "SMD_solvation_energy": 8.03 
		},
		"coords": [
			{
				"x": 1.9879534706,
				"y": -2.0265352261,
				"z": -3.380608132,
				"element": "O" 
			},
			{
				"x": 2.4584809986,
				"y": -2.4053415448,
				"z": -2.1628573912,
				"element": "C" 
			},
			{
				"x": 3.2916939233,
				"y": -3.2756375278,
				"z": -2.0671236771,
				"element": "O" 
			},
			{
				"x": 1.8888736738,
				"y": -1.7160068635,
				"z": -0.9713332956,
				"element": "C" 
			},
			{
				"x": 0.6549241913,
				"y": -1.187905208,
				"z": -0.9313424612,
				"element": "C" 
			},
			{
				"x": 0.050545327,
				"y": -0.5883021326,
				"z": 0.2713320156,
				"element": "C" 
			},
			{
				"x": 0.2959936181,
				"y": -1.1639911619,
				"z": 1.5308444476,
				"element": "C" 
			},
			{
				"x": -0.269481104,
				"y": -0.6529993496,
				"z": 2.6959484053,
				"element": "C" 
			},
			{
				"x": -1.1247464546,
				"y": 0.4495371713,
				"z": 2.6382621885,
				"element": "C" 
			},
			{
				"x": -1.4035406045,
				"y": 1.0358572324,
				"z": 1.4086255714,
				"element": "C" 
			},
			{
				"x": -0.8171063241,
				"y": 0.5255815109,
				"z": 0.2498300848,
				"element": "C" 
			},
			{
				"x": -1.1225950125,
				"y": 1.2396851165,
				"z": -1.0033817819,
				"element": "N" 
			},
			{
				"x": -0.4055697247,
				"y": 1.0319575283,
				"z": -1.9862750173,
				"element": "O" 
			},
			{
				"x": -2.0729466634,
				"y": 2.0185413552,
				"z": -0.9979454326,
				"element": "O" 
			},
			{
				"x": 1.4807694592,
				"y": -1.2052318916,
				"z": -3.3026639737,
				"element": "H" 
			},
			{
				"x": 2.5384483045,
				"y": -1.7204632086,
				"z": -0.1012807883,
				"element": "H" 
			},
			{
				"x": 0.0345195174,
				"y": -1.2101325758,
				"z": -1.8205589803,
				"element": "H" 
			},
			{
				"x": 0.9214963205,
				"y": -2.0488084091,
				"z": 1.5790720234,
				"element": "H" 
			},
			{
				"x": -0.052126456,
				"y": -1.1260886609,
				"z": 3.6486459963,
				"element": "H" 
			},
			{
				"x": -1.573662623,
				"y": 0.8488345009,
				"z": 3.5417134731,
				"element": "H" 
			},
			{
				"x": -2.0601238376,
				"y": 1.892149345,
				"z": 1.3225967252,
				"element": "H" 
			}
		],
		 "valence_orbital": [ 
			{
				"type": "occ",
				"energy": -0.3159,
				"method": "rhf"
			},
			{
				"type": "occ",
				"energy": -0.30388,
				"method": "rhf"
			},
			{
				"type": "occ",
				"energy": -0.29516,
				"method": "rhf"
			},
			{
				"type": "occ",
				"energy": -0.28173,
				"method": "rhf"
			},
			{
				"type": "occ",
				"energy": -0.2665,
				"method": "rhf"
			},
			{
				"type": "unocc",
				"energy": -0.10843,
				"method": "rhf"
			},
			{
				"type": "unocc",
				"energy": -0.07195,
				"method": "rhf"
			},
			{
				"type": "unocc",
				"energy": -0.02673,
				"method": "rhf"
			},
			{
				"type": "unocc",
				"energy": -0.01115,
				"method": "rhf"
			},
			{
				"type": "unocc",
				"energy": 0.05832,
				"method": "rhf"
			}
		],
		"cosmo_sigma_profile": { 
			"-0.025": 0.0,
			"-0.024": 0.0,
			"-0.023": 0.0,
			"-0.022": 0.0,
			"-0.021": 0.0,
			"-0.02": 0.0,
			"-0.019": 0.0,
			"-0.018": 0.0,
			"-0.017": 0.0,
			"-0.016": 0.271212229952,
			"-0.015": 0.973483167091,
			"-0.014": 0.954262437891,
			"-0.013": 0.749243649,
			"-0.012": 1.68332265249,
			"-0.011": 1.29149007803,
			"-0.01": 1.66734504396,
			"-0.009": 2.5590825094,
			"-0.008": 8.39509674689,
			"-0.007": 14.4070267834,
			"-0.006": 14.1150573992,
			"-0.005": 11.166214821,
			"-0.004": 12.1463422704,
			"-0.003": 11.9407925242,
			"-0.002": 11.990342503,
			"-0.001": 14.6211375932,
			"0.0": 17.9719114239,
			"0.001": 15.3351388109,
			"0.002": 11.6538826422,
			"0.003": 4.56616584816,
			"0.004": 4.69391079106,
			"0.005": 5.39414254749,
			"0.006": 5.22586768618,
			"0.007": 9.5329659427,
			"0.008": 7.82688915876,
			"0.009": 7.27354544934,
			"0.01": 6.44749166113,
			"0.011": 5.60461606981,
			"0.012": 5.35638989938,
			"0.013": 2.16416024321,
			"0.014": 0.0248752215745,
			"0.015": 0.0,
			"0.016": 0.0,
			"0.017": 0.0,
			"0.018": 0.0,
			"0.019": 0.0,
			"0.02": 0.0,
			"0.021": 0.0,
			"0.022": 0.0,
			"0.023": 0.0,
			"0.024": 0.0,
			"0.025": 0.0
		}
	}
}
