{
	 "smiles": "ClCC(=O)NC(=O)NC1=CC(=CC=C1)C#C", 
	 "Tm": 459.15, 
	 "num_atms": 25, 
	 "gaussian": { 
		 "optdone": 1, 
		 "sigma_profile": "yes", 
		 "theory": "DFT", 
		 "functional": "B3LYP", 
		 "basiset": "6-31G**", 
		 "properties": { 
			 "R2extent": 5144.3012, 
			 "electric_dipole_moment_norm": 3.27619682864, 
			 "electric_quadrupole_moment_norm": 10.2364449029, 
			 "total_energy": -1144.69186996, 
			 "HOMO_LUMO_gap": 0.18277, 
			 "cosmo_polarized_energy": -20.15, 
			 "cosmo_cavitation_energy": 33.37, 
			 "cosmo_dispersion_energy": -22.79, 
			 "cosmo_repulsion_energy": 1.78, 
			 "cosmo_total_nonelectrostatic_energy": 12.36, 
			 "SMD_solvation_energy": 8.28 
		},
		"coords": [
			{
				"x": 1.1877946968,
				"y": 3.2846100846,
				"z": 0.4110805689,
				"element": "Cl" 
			},
			{
				"x": 1.7823824665,
				"y": 2.8063537057,
				"z": -1.2278358171,
				"element": "C" 
			},
			{
				"x": 3.1579744399,
				"y": 2.1423556778,
				"z": -1.1702863493,
				"element": "C" 
			},
			{
				"x": 4.1143371933,
				"y": 2.6846146138,
				"z": -1.6918158614,
				"element": "O" 
			},
			{
				"x": 3.3165582432,
				"y": 0.9297890419,
				"z": -0.5075165979,
				"element": "N" 
			},
			{
				"x": 2.4386063204,
				"y": 0.1572998615,
				"z": 0.3096301261,
				"element": "C" 
			},
			{
				"x": 2.8089819637,
				"y": -0.2516114155,
				"z": 1.3935265544,
				"element": "O" 
			},
			{
				"x": 1.2354137589,
				"y": -0.114070374,
				"z": -0.2903492813,
				"element": "N" 
			},
			{
				"x": 0.1132521501,
				"y": -0.7670048811,
				"z": 0.2697848071,
				"element": "C" 
			},
			{
				"x": -0.971605318,
				"y": -1.0003091545,
				"z": -0.5825744525,
				"element": "C" 
			},
			{
				"x": -2.1329233394,
				"y": -1.6299050891,
				"z": -0.1091962415,
				"element": "C" 
			},
			{
				"x": -2.1992655,
				"y": -2.0237672474,
				"z": 1.2398154466,
				"element": "C" 
			},
			{
				"x": -1.114158066,
				"y": -1.7853801037,
				"z": 2.0777906505,
				"element": "C" 
			},
			{
				"x": 0.0454512433,
				"y": -1.1636674958,
				"z": 1.6134325389,
				"element": "C" 
			},
			{
				"x": -3.2317252142,
				"y": -1.8626829244,
				"z": -0.9937864748,
				"element": "C" 
			},
			{
				"x": -4.1631141734,
				"y": -2.0612681852,
				"z": -1.7401888509,
				"element": "C" 
			},
			{
				"x": 1.0122024763,
				"y": 2.1794736018,
				"z": -1.6783368009,
				"element": "H" 
			},
			{
				"x": 1.9054676573,
				"y": 3.7151994785,
				"z": -1.81261769,
				"element": "H" 
			},
			{
				"x": 4.2902567311,
				"y": 0.7504949252,
				"z": -0.2855572989,
				"element": "H" 
			},
			{
				"x": 1.1847540377,
				"y": 0.0575693772,
				"z": -1.2832813602,
				"element": "H" 
			},
			{
				"x": -0.9265119903,
				"y": -0.6944660308,
				"z": -1.6244211942,
				"element": "H" 
			},
			{
				"x": -3.0945560961,
				"y": -2.5102185768,
				"z": 1.6107711058,
				"element": "H" 
			},
			{
				"x": -1.1634885862,
				"y": -2.0911671669,
				"z": 3.118543955,
				"element": "H" 
			},
			{
				"x": 0.8895726457,
				"y": -0.9949009534,
				"z": 2.2664355777,
				"element": "H" 
			},
			{
				"x": -4.9844577405,
				"y": -2.2369407693,
				"z": -2.3955470599,
				"element": "H" 
			}
		],
		 "valence_orbital": [ 
			{
				"type": "occ",
				"energy": -0.29064,
				"method": "rhf"
			},
			{
				"type": "occ",
				"energy": -0.28174,
				"method": "rhf"
			},
			{
				"type": "occ",
				"energy": -0.27498,
				"method": "rhf"
			},
			{
				"type": "occ",
				"energy": -0.24963,
				"method": "rhf"
			},
			{
				"type": "occ",
				"energy": -0.23407,
				"method": "rhf"
			},
			{
				"type": "unocc",
				"energy": -0.0513,
				"method": "rhf"
			},
			{
				"type": "unocc",
				"energy": -0.03855,
				"method": "rhf"
			},
			{
				"type": "unocc",
				"energy": -0.01944,
				"method": "rhf"
			},
			{
				"type": "unocc",
				"energy": 0.0182,
				"method": "rhf"
			},
			{
				"type": "unocc",
				"energy": 0.02856,
				"method": "rhf"
			}
		],
		"cosmo_sigma_profile": { 
			"-0.025": 0.0,
			"-0.024": 0.0,
			"-0.023": 0.0,
			"-0.022": 0.0,
			"-0.021": 0.0,
			"-0.02": 0.0,
			"-0.019": 0.0901800412143,
			"-0.018": 1.00137708657,
			"-0.017": 1.09295535864,
			"-0.016": 1.76521565467,
			"-0.015": 1.84128496644,
			"-0.014": 2.22398225605,
			"-0.013": 2.18389041593,
			"-0.012": 3.90771436889,
			"-0.011": 3.61565014852,
			"-0.01": 3.6971758844,
			"-0.009": 5.08132727422,
			"-0.008": 6.61948634073,
			"-0.007": 7.41425992612,
			"-0.006": 11.2510676591,
			"-0.005": 10.9897757651,
			"-0.004": 11.9560277398,
			"-0.003": 11.3919960915,
			"-0.002": 11.9415699209,
			"-0.001": 12.4224650139,
			"0.0": 14.4820115529,
			"0.001": 17.0631362607,
			"0.002": 22.3376070777,
			"0.003": 29.1164307522,
			"0.004": 21.7417312667,
			"0.005": 16.7656674624,
			"0.006": 10.9823484183,
			"0.007": 3.84608708503,
			"0.008": 2.48229680772,
			"0.009": 3.70405590562,
			"0.01": 4.61932062799,
			"0.011": 7.94112027094,
			"0.012": 4.99459523496,
			"0.013": 0.311011649125,
			"0.014": 0.0,
			"0.015": 0.0,
			"0.016": 0.0,
			"0.017": 0.0,
			"0.018": 0.0,
			"0.019": 0.0,
			"0.02": 0.0,
			"0.021": 0.0,
			"0.022": 0.0,
			"0.023": 0.0,
			"0.024": 0.0,
			"0.025": 0.0
		}
	}
}
