{
	 "smiles": "FC1=CC=C(C=C1)C1=CC=C(C=C1)S(Cl)(=O)=O", 
	 "Tm": 356.15, 
	 "num_atms": 25, 
	 "gaussian": { 
		 "optdone": 1, 
		 "sigma_profile": "yes", 
		 "theory": "DFT", 
		 "functional": "B3LYP", 
		 "basiset": "6-31G**", 
		 "properties": { 
			 "R2extent": 8642.9671, 
			 "electric_dipole_moment_norm": 5.18570257631, 
			 "electric_quadrupole_moment_norm": 32.0514813413, 
			 "total_energy": -1570.6992555, 
			 "HOMO_LUMO_gap": 0.15849, 
			 "cosmo_polarized_energy": -10.83, 
			 "cosmo_cavitation_energy": 33.9, 
			 "cosmo_dispersion_energy": -24.96, 
			 "cosmo_repulsion_energy": 1.85, 
			 "cosmo_total_nonelectrostatic_energy": 10.79, 
			 "SMD_solvation_energy": 4.75 
		},
		"coords": [
			{
				"x": 0.9349434599,
				"y": -3.8822227608,
				"z": 3.5997335014,
				"element": "F" 
			},
			{
				"x": 0.7833381249,
				"y": -2.7626710354,
				"z": 2.8675146205,
				"element": "C" 
			},
			{
				"x": -0.0774522831,
				"y": -2.7806164435,
				"z": 1.7753309443,
				"element": "C" 
			},
			{
				"x": -0.2300206928,
				"y": -1.6181232966,
				"z": 1.0239863505,
				"element": "C" 
			},
			{
				"x": 0.4690924184,
				"y": -0.4425249181,
				"z": 1.3500031636,
				"element": "C" 
			},
			{
				"x": 1.3306635481,
				"y": -0.4668690035,
				"z": 2.4609115645,
				"element": "C" 
			},
			{
				"x": 1.4917880103,
				"y": -1.6203773897,
				"z": 3.2243169299,
				"element": "C" 
			},
			{
				"x": 0.3020777484,
				"y": 0.7900437025,
				"z": 0.542770976,
				"element": "C" 
			},
			{
				"x": -0.9544067756,
				"y": 1.1397804497,
				"z": 0.0132799508,
				"element": "C" 
			},
			{
				"x": -1.1207591973,
				"y": 2.2913476094,
				"z": -0.7487491781,
				"element": "C" 
			},
			{
				"x": -0.011900639,
				"y": 3.1075448731,
				"z": -0.9766015774,
				"element": "C" 
			},
			{
				"x": 1.2493891046,
				"y": 2.7977178874,
				"z": -0.466089321,
				"element": "C" 
			},
			{
				"x": 1.3955346826,
				"y": 1.6394676832,
				"z": 0.2900602994,
				"element": "C" 
			},
			{
				"x": -0.2155435238,
				"y": 4.5967172898,
				"z": -1.9345771147,
				"element": "S" 
			},
			{
				"x": 0.1712966802,
				"y": 3.8850681919,
				"z": -3.9140385125,
				"element": "Cl" 
			},
			{
				"x": 0.8643494001,
				"y": 5.5254477276,
				"z": -1.6244229366,
				"element": "O" 
			},
			{
				"x": -1.6172959012,
				"y": 4.9964135883,
				"z": -1.9191114996,
				"element": "O" 
			},
			{
				"x": -0.6042325431,
				"y": -3.6941760271,
				"z": 1.52244062,
				"element": "H" 
			},
			{
				"x": -0.8798045092,
				"y": -1.633708571,
				"z": 0.1545672015,
				"element": "H" 
			},
			{
				"x": 1.8603539822,
				"y": 0.4352552849,
				"z": 2.7506382161,
				"element": "H" 
			},
			{
				"x": 2.1453582987,
				"y": -1.6428406764,
				"z": 4.0894141505,
				"element": "H" 
			},
			{
				"x": -1.8174006402,
				"y": 0.517352369,
				"z": 0.2259080763,
				"element": "H" 
			},
			{
				"x": -2.0925304534,
				"y": 2.5673588311,
				"z": -1.1423967132,
				"element": "H" 
			},
			{
				"x": 2.0930834535,
				"y": 3.4504937994,
				"z": -0.6598129816,
				"element": "H" 
			},
			{
				"x": 2.3772782468,
				"y": 1.3769208347,
				"z": 0.6704232695,
				"element": "H" 
			}
		],
		 "valence_orbital": [ 
			{
				"type": "occ",
				"energy": -0.31139,
				"method": "rhf"
			},
			{
				"type": "occ",
				"energy": -0.30112,
				"method": "rhf"
			},
			{
				"type": "occ",
				"energy": -0.28908,
				"method": "rhf"
			},
			{
				"type": "occ",
				"energy": -0.28055,
				"method": "rhf"
			},
			{
				"type": "occ",
				"energy": -0.25018,
				"method": "rhf"
			},
			{
				"type": "unocc",
				"energy": -0.09169,
				"method": "rhf"
			},
			{
				"type": "unocc",
				"energy": -0.05502,
				"method": "rhf"
			},
			{
				"type": "unocc",
				"energy": -0.03967,
				"method": "rhf"
			},
			{
				"type": "unocc",
				"energy": -0.03085,
				"method": "rhf"
			},
			{
				"type": "unocc",
				"energy": -0.00365,
				"method": "rhf"
			}
		],
		"cosmo_sigma_profile": { 
			"-0.025": 0.0,
			"-0.024": 0.0,
			"-0.023": 0.0,
			"-0.022": 0.0,
			"-0.021": 0.0,
			"-0.02": 0.0,
			"-0.019": 0.0,
			"-0.018": 0.0,
			"-0.017": 0.0,
			"-0.016": 0.0,
			"-0.015": 0.0,
			"-0.014": 0.0,
			"-0.013": 0.0,
			"-0.012": 0.0,
			"-0.011": 0.0,
			"-0.01": 0.0,
			"-0.009": 0.500889393293,
			"-0.008": 5.12997378161,
			"-0.007": 17.0642511208,
			"-0.006": 16.5035934227,
			"-0.005": 14.8689151469,
			"-0.004": 12.7160584627,
			"-0.003": 12.7099199663,
			"-0.002": 14.8598576746,
			"-0.001": 17.1396635931,
			"0.0": 26.5949744004,
			"0.001": 32.4936125715,
			"0.002": 24.4511236671,
			"0.003": 28.8433209846,
			"0.004": 23.5600286296,
			"0.005": 4.9893903409,
			"0.006": 2.71565755324,
			"0.007": 5.89292426909,
			"0.008": 9.6893821787,
			"0.009": 5.29098035131,
			"0.01": 0.0869712574265,
			"0.011": 0.0,
			"0.012": 0.0,
			"0.013": 0.0,
			"0.014": 0.0,
			"0.015": 0.0,
			"0.016": 0.0,
			"0.017": 0.0,
			"0.018": 0.0,
			"0.019": 0.0,
			"0.02": 0.0,
			"0.021": 0.0,
			"0.022": 0.0,
			"0.023": 0.0,
			"0.024": 0.0,
			"0.025": 0.0
		}
	}
}
