{
	 "smiles": "CN(C)C1=NC2=C(C=CC=C2)C(=C1)C#N", 
	 "Tm": 393.15, 
	 "num_atms": 26, 
	 "gaussian": { 
		 "optdone": 1, 
		 "sigma_profile": "yes", 
		 "theory": "DFT", 
		 "functional": "B3LYP", 
		 "basiset": "6-31G**", 
		 "properties": { 
			 "R2extent": 4171.2119, 
			 "electric_dipole_moment_norm": 4.00291846782, 
			 "electric_quadrupole_moment_norm": 22.4697921421, 
			 "total_energy": -628.153975423, 
			 "HOMO_LUMO_gap": 0.13645, 
			 "cosmo_polarized_energy": -10.35, 
			 "cosmo_cavitation_energy": 30.31, 
			 "cosmo_dispersion_energy": -21.72, 
			 "cosmo_repulsion_energy": 1.67, 
			 "cosmo_total_nonelectrostatic_energy": 10.26, 
			 "SMD_solvation_energy": 5.07 
		},
		"coords": [
			{
				"x": 0.0609883606,
				"y": 2.8310136956,
				"z": 0.5507458569,
				"element": "C" 
			},
			{
				"x": 0.7596844024,
				"y": 1.5695712886,
				"z": 0.3630292297,
				"element": "N" 
			},
			{
				"x": 2.1521618413,
				"y": 1.5040352087,
				"z": 0.7901443187,
				"element": "C" 
			},
			{
				"x": 0.2663968847,
				"y": 0.6088279427,
				"z": -0.4914435186,
				"element": "C" 
			},
			{
				"x": 1.0341587404,
				"y": -0.44191517,
				"z": -0.7599010325,
				"element": "N" 
			},
			{
				"x": 0.5639056962,
				"y": -1.4302656801,
				"z": -1.5649993422,
				"element": "C" 
			},
			{
				"x": -0.7320200023,
				"y": -1.4006346037,
				"z": -2.1691898414,
				"element": "C" 
			},
			{
				"x": -1.1518983233,
				"y": -2.4661908224,
				"z": -3.000958918,
				"element": "C" 
			},
			{
				"x": -0.3146117342,
				"y": -3.5367716395,
				"z": -3.2308790184,
				"element": "C" 
			},
			{
				"x": 0.9702719478,
				"y": -3.5740407322,
				"z": -2.6373083422,
				"element": "C" 
			},
			{
				"x": 1.4017731265,
				"y": -2.5483767177,
				"z": -1.8255595408,
				"element": "C" 
			},
			{
				"x": -1.5274980282,
				"y": -0.2468757037,
				"z": -1.8783504667,
				"element": "C" 
			},
			{
				"x": -1.04596455,
				"y": 0.7478721329,
				"z": -1.0564841351,
				"element": "C" 
			},
			{
				"x": -2.839106957,
				"y": -0.112737852,
				"z": -2.4469584582,
				"element": "C" 
			},
			{
				"x": -3.9010963346,
				"y": -0.0095214087,
				"z": -2.9099726031,
				"element": "N" 
			},
			{
				"x": -0.9658849533,
				"y": 2.6728490876,
				"z": 0.8966310553,
				"element": "H" 
			},
			{
				"x": 0.029691432,
				"y": 3.4440822997,
				"z": -0.3622890691,
				"element": "H" 
			},
			{
				"x": 0.578812761,
				"y": 3.4033992322,
				"z": 1.3220615404,
				"element": "H" 
			},
			{
				"x": 2.4630035029,
				"y": 0.462362625,
				"z": 0.8389540098,
				"element": "H" 
			},
			{
				"x": 2.8234935884,
				"y": 2.0293720762,
				"z": 0.0948507215,
				"element": "H" 
			},
			{
				"x": 2.2460078222,
				"y": 1.9617818842,
				"z": 1.7789816411,
				"element": "H" 
			},
			{
				"x": -2.139148452,
				"y": -2.4276202164,
				"z": -3.4521730113,
				"element": "H" 
			},
			{
				"x": -0.6390575634,
				"y": -4.3534257607,
				"z": -3.868245679,
				"element": "H" 
			},
			{
				"x": 1.6212970333,
				"y": -4.4229612957,
				"z": -2.8261022218,
				"element": "H" 
			},
			{
				"x": 2.3827637347,
				"y": -2.5596069248,
				"z": -1.3622292269,
				"element": "H" 
			},
			{
				"x": -1.659723976,
				"y": 1.6152770542,
				"z": -0.856153948,
				"element": "H" 
			}
		],
		 "valence_orbital": [ 
			{
				"type": "occ",
				"energy": -0.29885,
				"method": "rhf"
			},
			{
				"type": "occ",
				"energy": -0.28268,
				"method": "rhf"
			},
			{
				"type": "occ",
				"energy": -0.26364,
				"method": "rhf"
			},
			{
				"type": "occ",
				"energy": -0.24304,
				"method": "rhf"
			},
			{
				"type": "occ",
				"energy": -0.20907,
				"method": "rhf"
			},
			{
				"type": "unocc",
				"energy": -0.07262,
				"method": "rhf"
			},
			{
				"type": "unocc",
				"energy": -0.01271,
				"method": "rhf"
			},
			{
				"type": "unocc",
				"energy": 0.00017,
				"method": "rhf"
			},
			{
				"type": "unocc",
				"energy": 0.03165,
				"method": "rhf"
			},
			{
				"type": "unocc",
				"energy": 0.07307,
				"method": "rhf"
			}
		],
		"cosmo_sigma_profile": { 
			"-0.025": 0.0,
			"-0.024": 0.0,
			"-0.023": 0.0,
			"-0.022": 0.0,
			"-0.021": 0.0,
			"-0.02": 0.0,
			"-0.019": 0.0,
			"-0.018": 0.0,
			"-0.017": 0.0,
			"-0.016": 0.0,
			"-0.015": 0.0,
			"-0.014": 0.0,
			"-0.013": 0.0,
			"-0.012": 0.0,
			"-0.011": 0.0,
			"-0.01": 0.0,
			"-0.009": 1.10692251962,
			"-0.008": 2.18296456908,
			"-0.007": 3.69214881539,
			"-0.006": 11.9176094169,
			"-0.005": 17.2809450723,
			"-0.004": 21.1966480614,
			"-0.003": 23.1969605286,
			"-0.002": 27.203009281,
			"-0.001": 23.1089831845,
			"0.0": 17.51775392,
			"0.001": 13.3495379498,
			"0.002": 12.7754516565,
			"0.003": 15.2929682069,
			"0.004": 16.4158133973,
			"0.005": 8.61882867303,
			"0.006": 4.05375281153,
			"0.007": 5.25379715456,
			"0.008": 4.62223263916,
			"0.009": 5.0024232565,
			"0.01": 3.63443556168,
			"0.011": 3.27668791277,
			"0.012": 2.33722498668,
			"0.013": 0.401491783892,
			"0.014": 0.0,
			"0.015": 0.0,
			"0.016": 0.0,
			"0.017": 0.0,
			"0.018": 0.0,
			"0.019": 0.0,
			"0.02": 0.0,
			"0.021": 0.0,
			"0.022": 0.0,
			"0.023": 0.0,
			"0.024": 0.0,
			"0.025": 0.0
		}
	}
}
