{
	 "smiles": "NC(=O)CCCCC(N)=O", 
	 "Tm": 499.15, 
	 "num_atms": 22, 
	 "gaussian": { 
		 "optdone": 1, 
		 "sigma_profile": "yes", 
		 "theory": "DFT", 
		 "functional": "B3LYP", 
		 "basiset": "6-31G**", 
		 "properties": { 
			 "R2extent": 2541.6396, 
			 "electric_dipole_moment_norm": 0.0472756808518, 
			 "electric_quadrupole_moment_norm": 26.9330364692, 
			 "total_energy": -495.867491273, 
			 "HOMO_LUMO_gap": 0.27604, 
			 "cosmo_polarized_energy": -21.39, 
			 "cosmo_cavitation_energy": 25.63, 
			 "cosmo_dispersion_energy": -18.4, 
			 "cosmo_repulsion_energy": 1.57, 
			 "cosmo_total_nonelectrostatic_energy": 8.8, 
			 "SMD_solvation_energy": 5.55 
		},
		"coords": [
			{
				"x": 2.1730163578,
				"y": -3.3997211187,
				"z": -0.060794301,
				"element": "N" 
			},
			{
				"x": 1.639948468,
				"y": -2.2108210404,
				"z": 0.3564500379,
				"element": "C" 
			},
			{
				"x": 1.6462906004,
				"y": -1.8770340866,
				"z": 1.5338937086,
				"element": "O" 
			},
			{
				"x": 1.0714644434,
				"y": -1.3319196045,
				"z": -0.7594822096,
				"element": "C" 
			},
			{
				"x": 0.0734280195,
				"y": -0.2883529194,
				"z": -0.249452238,
				"element": "C" 
			},
			{
				"x": -1.245266364,
				"y": -0.9007991534,
				"z": 0.2396812539,
				"element": "C" 
			},
			{
				"x": -2.2435232124,
				"y": 0.1428079487,
				"z": 0.7492665089,
				"element": "C" 
			},
			{
				"x": -2.81228396,
				"y": 1.0209076859,
				"z": -0.3670852106,
				"element": "C" 
			},
			{
				"x": -3.3412684569,
				"y": 2.2122870256,
				"z": 0.0489198305,
				"element": "N" 
			},
			{
				"x": -2.8195324535,
				"y": 0.6860363193,
				"z": -1.5441811846,
				"element": "O" 
			},
			{
				"x": 2.6182414038,
				"y": -3.9894752132,
				"z": 0.6255811191,
				"element": "H" 
			},
			{
				"x": 2.1909734763,
				"y": -3.6751639134,
				"z": -1.0288936683,
				"element": "H" 
			},
			{
				"x": 1.9247112785,
				"y": -0.829720291,
				"z": -1.235971796,
				"element": "H" 
			},
			{
				"x": 0.61427619,
				"y": -1.9601255835,
				"z": -1.5351640929,
				"element": "H" 
			},
			{
				"x": -0.1366619462,
				"y": 0.4208827434,
				"z": -1.0567345715,
				"element": "H" 
			},
			{
				"x": 0.5457361337,
				"y": 0.2643892587,
				"z": 0.5705773026,
				"element": "H" 
			},
			{
				"x": -1.0351349012,
				"y": -1.6097448267,
				"z": 1.0471991426,
				"element": "H" 
			},
			{
				"x": -1.7174733865,
				"y": -1.4537887531,
				"z": -0.5802514627,
				"element": "H" 
			},
			{
				"x": -1.7865713092,
				"y": 0.7716270776,
				"z": 1.5245326211,
				"element": "H" 
			},
			{
				"x": -3.0965978737,
				"y": -0.359598263,
				"z": 1.2259457711,
				"element": "H" 
			},
			{
				"x": -3.3760276433,
				"y": 2.478964893,
				"z": 1.0190887678,
				"element": "H" 
			},
			{
				"x": -3.7981448647,
				"y": 2.7949618149,
				"z": -0.6359253288,
				"element": "H" 
			}
		],
		 "valence_orbital": [ 
			{
				"type": "occ",
				"energy": -0.31768,
				"method": "rhf"
			},
			{
				"type": "occ",
				"energy": -0.26254,
				"method": "rhf"
			},
			{
				"type": "occ",
				"energy": -0.2621,
				"method": "rhf"
			},
			{
				"type": "occ",
				"energy": -0.24295,
				"method": "rhf"
			},
			{
				"type": "occ",
				"energy": -0.24192,
				"method": "rhf"
			},
			{
				"type": "unocc",
				"energy": 0.03412,
				"method": "rhf"
			},
			{
				"type": "unocc",
				"energy": 0.0364,
				"method": "rhf"
			},
			{
				"type": "unocc",
				"energy": 0.07544,
				"method": "rhf"
			},
			{
				"type": "unocc",
				"energy": 0.07854,
				"method": "rhf"
			},
			{
				"type": "unocc",
				"energy": 0.10974,
				"method": "rhf"
			}
		],
		"cosmo_sigma_profile": { 
			"-0.025": 0.0,
			"-0.024": 0.0,
			"-0.023": 0.0,
			"-0.022": 0.0,
			"-0.021": 0.0,
			"-0.02": 0.0,
			"-0.019": 0.0,
			"-0.018": 0.0,
			"-0.017": 0.0,
			"-0.016": 0.0,
			"-0.015": 0.161958983721,
			"-0.014": 2.1692784785,
			"-0.013": 4.88277019123,
			"-0.012": 4.65728724239,
			"-0.011": 4.94280374672,
			"-0.01": 4.40173379266,
			"-0.009": 4.75174782281,
			"-0.008": 4.70890084239,
			"-0.007": 4.69756155485,
			"-0.006": 3.71351631769,
			"-0.005": 10.5322527625,
			"-0.004": 11.8980043459,
			"-0.003": 11.6278734256,
			"-0.002": 15.4277678612,
			"-0.001": 20.3499009995,
			"0.0": 13.507203587,
			"0.001": 9.2280003194,
			"0.002": 6.11743667805,
			"0.003": 6.54061398092,
			"0.004": 6.4221626448,
			"0.005": 5.15768360098,
			"0.006": 4.53954086191,
			"0.007": 2.71754716357,
			"0.008": 3.79054042679,
			"0.009": 3.47416562195,
			"0.01": 2.20175164794,
			"0.011": 2.75883879035,
			"0.012": 4.09458707829,
			"0.013": 4.62899848265,
			"0.014": 10.6193802618,
			"0.015": 4.00215680864,
			"0.016": 0.00717699728902,
			"0.017": 0.0,
			"0.018": 0.0,
			"0.019": 0.0,
			"0.02": 0.0,
			"0.021": 0.0,
			"0.022": 0.0,
			"0.023": 0.0,
			"0.024": 0.0,
			"0.025": 0.0
		}
	}
}
