{
	 "smiles": "OC(=O)C=CC1=CC=C(F)C=C1", 
	 "Tm": 481.15, 
	 "num_atms": 19, 
	 "gaussian": { 
		 "optdone": 1, 
		 "sigma_profile": "yes", 
		 "theory": "DFT", 
		 "functional": "B3LYP", 
		 "basiset": "6-31G**", 
		 "properties": { 
			 "R2extent": 3330.3333, 
			 "electric_dipole_moment_norm": 4.61385605866, 
			 "electric_quadrupole_moment_norm": 16.8303211158, 
			 "total_energy": -597.448933085, 
			 "HOMO_LUMO_gap": 0.16939, 
			 "cosmo_polarized_energy": -16.04, 
			 "cosmo_cavitation_energy": 24.9, 
			 "cosmo_dispersion_energy": -18.03, 
			 "cosmo_repulsion_energy": 1.41, 
			 "cosmo_total_nonelectrostatic_energy": 8.28, 
			 "SMD_solvation_energy": 6.12 
		},
		"coords": [
			{
				"x": -0.7326937098,
				"y": 1.0867226994,
				"z": 3.028943802,
				"element": "O" 
			},
			{
				"x": -1.1005108953,
				"y": 1.780478654,
				"z": 1.9134130836,
				"element": "C" 
			},
			{
				"x": -1.9204561152,
				"y": 2.665812667,
				"z": 1.9938856526,
				"element": "O" 
			},
			{
				"x": -0.4707180399,
				"y": 1.3929368904,
				"z": 0.6257033249,
				"element": "C" 
			},
			{
				"x": 0.0665340198,
				"y": 0.1861350813,
				"z": 0.3642427088,
				"element": "C" 
			},
			{
				"x": 0.6469683913,
				"y": -0.2813143553,
				"z": -0.8964369064,
				"element": "C" 
			},
			{
				"x": 1.0858547867,
				"y": -1.6151543849,
				"z": -0.9875488639,
				"element": "C" 
			},
			{
				"x": 1.646658701,
				"y": -2.1187136049,
				"z": -2.1581275946,
				"element": "C" 
			},
			{
				"x": 1.7701315054,
				"y": -1.2700100795,
				"z": -3.251806216,
				"element": "C" 
			},
			{
				"x": 2.3113925271,
				"y": -1.7417062193,
				"z": -4.3896172526,
				"element": "F" 
			},
			{
				"x": 1.3512321291,
				"y": 0.0582809359,
				"z": -3.2045068375,
				"element": "C" 
			},
			{
				"x": 0.7933489696,
				"y": 0.5445955284,
				"z": -2.0287584499,
				"element": "C" 
			},
			{
				"x": 0.0555288615,
				"y": 0.5583948648,
				"z": 2.8425053965,
				"element": "H" 
			},
			{
				"x": -0.5647644248,
				"y": 2.1557879884,
				"z": -0.1403134494,
				"element": "H" 
			},
			{
				"x": 0.0589418673,
				"y": -0.5671321955,
				"z": 1.1534209177,
				"element": "H" 
			},
			{
				"x": 0.982179731,
				"y": -2.2693121507,
				"z": -0.1259628663,
				"element": "H" 
			},
			{
				"x": 1.9847566908,
				"y": -3.1462167896,
				"z": -2.2336426442,
				"element": "H" 
			},
			{
				"x": 1.468481865,
				"y": 0.6867070846,
				"z": -4.0805183783,
				"element": "H" 
			},
			{
				"x": 0.4710331392,
				"y": 1.5799073856,
				"z": -1.9914754272,
				"element": "H" 
			}
		],
		 "valence_orbital": [ 
			{
				"type": "occ",
				"energy": -0.3239,
				"method": "rhf"
			},
			{
				"type": "occ",
				"energy": -0.30994,
				"method": "rhf"
			},
			{
				"type": "occ",
				"energy": -0.28141,
				"method": "rhf"
			},
			{
				"type": "occ",
				"energy": -0.27129,
				"method": "rhf"
			},
			{
				"type": "occ",
				"energy": -0.24442,
				"method": "rhf"
			},
			{
				"type": "unocc",
				"energy": -0.07503,
				"method": "rhf"
			},
			{
				"type": "unocc",
				"energy": -0.02987,
				"method": "rhf"
			},
			{
				"type": "unocc",
				"energy": 0.01069,
				"method": "rhf"
			},
			{
				"type": "unocc",
				"energy": 0.05798,
				"method": "rhf"
			},
			{
				"type": "unocc",
				"energy": 0.07094,
				"method": "rhf"
			}
		],
		"cosmo_sigma_profile": { 
			"-0.025": 0.0,
			"-0.024": 0.0,
			"-0.023": 0.0,
			"-0.022": 0.0,
			"-0.021": 0.0,
			"-0.02": 0.0,
			"-0.019": 0.0991138902792,
			"-0.018": 0.699836172369,
			"-0.017": 1.06163846111,
			"-0.016": 1.01850133467,
			"-0.015": 0.948365934056,
			"-0.014": 0.974686150546,
			"-0.013": 0.685207510998,
			"-0.012": 1.03075888984,
			"-0.011": 1.90055045932,
			"-0.01": 2.18511492133,
			"-0.009": 2.4416680562,
			"-0.008": 6.18271515494,
			"-0.007": 10.2110476988,
			"-0.006": 11.0328557361,
			"-0.005": 8.03099755557,
			"-0.004": 8.49384799843,
			"-0.003": 9.30372025733,
			"-0.002": 8.38508528065,
			"-0.001": 11.2686507035,
			"0.0": 15.6475180589,
			"0.001": 16.4485462989,
			"0.002": 19.5622929252,
			"0.003": 18.3583929241,
			"0.004": 11.4178420858,
			"0.005": 2.66180123887,
			"0.006": 2.80300845622,
			"0.007": 2.29718768536,
			"0.008": 2.17940963174,
			"0.009": 3.34115236388,
			"0.01": 3.90238480845,
			"0.011": 5.38771601891,
			"0.012": 6.05892137622,
			"0.013": 3.73415095398,
			"0.014": 0.376199770394,
			"0.015": 0.0,
			"0.016": 0.0,
			"0.017": 0.0,
			"0.018": 0.0,
			"0.019": 0.0,
			"0.02": 0.0,
			"0.021": 0.0,
			"0.022": 0.0,
			"0.023": 0.0,
			"0.024": 0.0,
			"0.025": 0.0
		}
	}
}
