{
	 "smiles": "NC1=CC(=CNC1=O)C(F)(F)F", 
	 "Tm": 370.15, 
	 "num_atms": 17, 
	 "gaussian": { 
		 "optdone": 1, 
		 "sigma_profile": "yes", 
		 "theory": "DFT", 
		 "functional": "B3LYP", 
		 "basiset": "6-31G**", 
		 "properties": { 
			 "R2extent": 2212.8237, 
			 "electric_dipole_moment_norm": 0.768897463905, 
			 "electric_quadrupole_moment_norm": 15.2470999577, 
			 "total_energy": -715.918464352, 
			 "HOMO_LUMO_gap": 0.17025, 
			 "cosmo_polarized_energy": -13.44, 
			 "cosmo_cavitation_energy": 23.0, 
			 "cosmo_dispersion_energy": -16.8, 
			 "cosmo_repulsion_energy": 1.29, 
			 "cosmo_total_nonelectrostatic_energy": 7.5, 
			 "SMD_solvation_energy": 6.03 
		},
		"coords": [
			{
				"x": 1.9855596672,
				"y": 0.208998656,
				"z": -1.980936799,
				"element": "N" 
			},
			{
				"x": 1.0740011136,
				"y": 0.4812281608,
				"z": -0.9933175654,
				"element": "C" 
			},
			{
				"x": 0.2950736881,
				"y": -0.4341112989,
				"z": -0.3297166754,
				"element": "C" 
			},
			{
				"x": -0.6595774313,
				"y": -0.0050480937,
				"z": 0.6441378574,
				"element": "C" 
			},
			{
				"x": -0.8006479424,
				"y": 1.3199459936,
				"z": 0.923228686,
				"element": "C" 
			},
			{
				"x": -0.0106469141,
				"y": 2.2255603991,
				"z": 0.2611925257,
				"element": "N" 
			},
			{
				"x": 0.9493857252,
				"y": 1.9168498852,
				"z": -0.6927005198,
				"element": "C" 
			},
			{
				"x": 1.6406009223,
				"y": 2.7860573766,
				"z": -1.2268771829,
				"element": "O" 
			},
			{
				"x": -1.4973991486,
				"y": -1.0248905226,
				"z": 1.3470390195,
				"element": "C" 
			},
			{
				"x": -2.3482588759,
				"y": -0.4635804979,
				"z": 2.2352302637,
				"element": "F" 
			},
			{
				"x": -2.240900107,
				"y": -1.7480720359,
				"z": 0.4770543883,
				"element": "F" 
			},
			{
				"x": -0.7350879011,
				"y": -1.9152633695,
				"z": 2.0256003789,
				"element": "F" 
			},
			{
				"x": 2.5984933472,
				"y": 0.9839167614,
				"z": -2.1994183525,
				"element": "H" 
			},
			{
				"x": 2.3799062351,
				"y": -0.7164984028,
				"z": -2.0377563215,
				"element": "H" 
			},
			{
				"x": 0.3914821391,
				"y": -1.4941332464,
				"z": -0.5449820199,
				"element": "H" 
			},
			{
				"x": -1.503504368,
				"y": 1.7122450228,
				"z": 1.6447257233,
				"element": "H" 
			},
			{
				"x": -0.0901801493,
				"y": 3.2139952121,
				"z": 0.4646965936,
				"element": "H" 
			}
		],
		 "valence_orbital": [ 
			{
				"type": "occ",
				"energy": -0.36127,
				"method": "rhf"
			},
			{
				"type": "occ",
				"energy": -0.34607,
				"method": "rhf"
			},
			{
				"type": "occ",
				"energy": -0.27495,
				"method": "rhf"
			},
			{
				"type": "occ",
				"energy": -0.268,
				"method": "rhf"
			},
			{
				"type": "occ",
				"energy": -0.20338,
				"method": "rhf"
			},
			{
				"type": "unocc",
				"energy": -0.03313,
				"method": "rhf"
			},
			{
				"type": "unocc",
				"energy": -0.00516,
				"method": "rhf"
			},
			{
				"type": "unocc",
				"energy": 0.06694,
				"method": "rhf"
			},
			{
				"type": "unocc",
				"energy": 0.08375,
				"method": "rhf"
			},
			{
				"type": "unocc",
				"energy": 0.11604,
				"method": "rhf"
			}
		],
		"cosmo_sigma_profile": { 
			"-0.025": 0.0,
			"-0.024": 0.0,
			"-0.023": 0.0,
			"-0.022": 0.0,
			"-0.021": 0.0,
			"-0.02": 0.0,
			"-0.019": 0.0,
			"-0.018": 0.0,
			"-0.017": 0.310636054196,
			"-0.016": 1.62631107429,
			"-0.015": 0.949468821836,
			"-0.014": 1.61830495306,
			"-0.013": 2.65989000922,
			"-0.012": 2.37531854062,
			"-0.011": 4.1888492425,
			"-0.01": 3.28941348632,
			"-0.009": 4.42757714357,
			"-0.008": 5.22735620908,
			"-0.007": 4.35044696144,
			"-0.006": 4.91938531625,
			"-0.005": 3.96367907899,
			"-0.004": 4.89758187428,
			"-0.003": 5.16088609634,
			"-0.002": 7.6244976787,
			"-0.001": 11.2510470453,
			"0.0": 14.4184629139,
			"0.001": 13.9118576957,
			"0.002": 20.9036457856,
			"0.003": 34.4292962122,
			"0.004": 6.56314343388,
			"0.005": 2.91565170712,
			"0.006": 2.21044315491,
			"0.007": 1.86890367993,
			"0.008": 2.39468172473,
			"0.009": 1.70475949037,
			"0.01": 0.908172132582,
			"0.011": 3.0600111182,
			"0.012": 2.15842622797,
			"0.013": 3.99424896384,
			"0.014": 3.23941396237,
			"0.015": 0.197051061697,
			"0.016": 0.0,
			"0.017": 0.0,
			"0.018": 0.0,
			"0.019": 0.0,
			"0.02": 0.0,
			"0.021": 0.0,
			"0.022": 0.0,
			"0.023": 0.0,
			"0.024": 0.0,
			"0.025": 0.0
		}
	}
}
