{
	 "smiles": "CC1=C(C)C(=O)OC1=O", 
	 "Tm": 369.15, 
	 "num_atms": 15, 
	 "gaussian": { 
		 "optdone": 1, 
		 "sigma_profile": "yes", 
		 "theory": "DFT", 
		 "functional": "B3LYP", 
		 "basiset": "6-31G**", 
		 "properties": { 
			 "R2extent": 1878.4128, 
			 "electric_dipole_moment_norm": 4.88437044664, 
			 "electric_quadrupole_moment_norm": 10.7133526825, 
			 "total_energy": -457.938881781, 
			 "HOMO_LUMO_gap": 0.18977, 
			 "cosmo_polarized_energy": -10.46, 
			 "cosmo_cavitation_energy": 19.9, 
			 "cosmo_dispersion_energy": -14.47, 
			 "cosmo_repulsion_energy": 1.2, 
			 "cosmo_total_nonelectrostatic_energy": 6.63, 
			 "SMD_solvation_energy": 5.83 
		},
		"coords": [
			{
				"x": -0.5472135931,
				"y": -1.6057571719,
				"z": -0.4359610072,
				"element": "C" 
			},
			{
				"x": -0.9857755927,
				"y": -0.2386201701,
				"z": -0.8368055983,
				"element": "C" 
			},
			{
				"x": -0.6505728029,
				"y": 0.5419313502,
				"z": -1.8814659768,
				"element": "C" 
			},
			{
				"x": 0.2830037088,
				"y": 0.3275814201,
				"z": -3.0236404452,
				"element": "C" 
			},
			{
				"x": -1.4177533237,
				"y": 1.817298881,
				"z": -1.7561032734,
				"element": "C" 
			},
			{
				"x": -1.4103647203,
				"y": 2.7774406116,
				"z": -2.4765639259,
				"element": "O" 
			},
			{
				"x": -2.2041058875,
				"y": 1.7493969981,
				"z": -0.6100584359,
				"element": "O" 
			},
			{
				"x": -1.9777449475,
				"y": 0.5136612685,
				"z": -0.0116206572,
				"element": "C" 
			},
			{
				"x": -2.5265927092,
				"y": 0.1783550429,
				"z": 1.0019492359,
				"element": "O" 
			},
			{
				"x": -0.0989624657,
				"y": -1.5852881597,
				"z": 0.5633269531,
				"element": "H" 
			},
			{
				"x": -1.4078300485,
				"y": -2.2808687665,
				"z": -0.3768880081,
				"element": "H" 
			},
			{
				"x": 0.1780207158,
				"y": -2.021427544,
				"z": -1.1380448347,
				"element": "H" 
			},
			{
				"x": 1.0559837623,
				"y": 1.1036425859,
				"z": -3.0358021438,
				"element": "H" 
			},
			{
				"x": 0.7668730476,
				"y": -0.6497113497,
				"z": -2.974302178,
				"element": "H" 
			},
			{
				"x": -0.2532651433,
				"y": 0.4079650036,
				"z": -3.9754197045,
				"element": "H" 
			}
		],
		 "valence_orbital": [ 
			{
				"type": "occ",
				"energy": -0.39743,
				"method": "rhf"
			},
			{
				"type": "occ",
				"energy": -0.33214,
				"method": "rhf"
			},
			{
				"type": "occ",
				"energy": -0.31306,
				"method": "rhf"
			},
			{
				"type": "occ",
				"energy": -0.29535,
				"method": "rhf"
			},
			{
				"type": "occ",
				"energy": -0.28706,
				"method": "rhf"
			},
			{
				"type": "unocc",
				"energy": -0.09729,
				"method": "rhf"
			},
			{
				"type": "unocc",
				"energy": 0.02969,
				"method": "rhf"
			},
			{
				"type": "unocc",
				"energy": 0.06093,
				"method": "rhf"
			},
			{
				"type": "unocc",
				"energy": 0.07538,
				"method": "rhf"
			},
			{
				"type": "unocc",
				"energy": 0.11573,
				"method": "rhf"
			}
		],
		"cosmo_sigma_profile": { 
			"-0.025": 0.0,
			"-0.024": 0.0,
			"-0.023": 0.0,
			"-0.022": 0.0,
			"-0.021": 0.0,
			"-0.02": 0.0,
			"-0.019": 0.0,
			"-0.018": 0.0,
			"-0.017": 0.0,
			"-0.016": 0.0,
			"-0.015": 0.0,
			"-0.014": 0.0,
			"-0.013": 0.0,
			"-0.012": 0.0,
			"-0.011": 0.0,
			"-0.01": 0.0,
			"-0.009": 0.027720667473,
			"-0.008": 1.31821426399,
			"-0.007": 4.90631708017,
			"-0.006": 15.4121460998,
			"-0.005": 17.3257031368,
			"-0.004": 13.7575633922,
			"-0.003": 15.620303498,
			"-0.002": 20.6019257843,
			"-0.001": 10.1522164594,
			"0.0": 3.3484526337,
			"0.001": 3.41766915576,
			"0.002": 3.44588498863,
			"0.003": 3.28033248635,
			"0.004": 3.5633524356,
			"0.005": 4.85822569771,
			"0.006": 5.2774534832,
			"0.007": 6.30178528706,
			"0.008": 7.37290232262,
			"0.009": 7.6978935936,
			"0.01": 9.51922811517,
			"0.011": 1.6341270614,
			"0.012": 0.0,
			"0.013": 0.0,
			"0.014": 0.0,
			"0.015": 0.0,
			"0.016": 0.0,
			"0.017": 0.0,
			"0.018": 0.0,
			"0.019": 0.0,
			"0.02": 0.0,
			"0.021": 0.0,
			"0.022": 0.0,
			"0.023": 0.0,
			"0.024": 0.0,
			"0.025": 0.0
		}
	}
}
