{
	 "smiles": "CC(COC1=CC=CC=C1)NC(C)C(O)C1=CC=C(O)C=C1", 
	 "Tm": 375.15, 
	 "num_atms": 45, 
	 "gaussian": { 
		 "optdone": 1, 
		 "sigma_profile": "yes", 
		 "theory": "DFT", 
		 "functional": "B3LYP", 
		 "basiset": "6-31G**", 
		 "properties": { 
			 "R2extent": 7958.7779, 
			 "electric_dipole_moment_norm": 1.67289589933, 
			 "electric_quadrupole_moment_norm": 17.3912741069, 
			 "total_energy": -980.178535753, 
			 "HOMO_LUMO_gap": 0.20953, 
			 "cosmo_polarized_energy": -18.06, 
			 "cosmo_cavitation_energy": 46.01, 
			 "cosmo_dispersion_energy": -30.14, 
			 "cosmo_repulsion_energy": 2.29, 
			 "cosmo_total_nonelectrostatic_energy": 18.17, 
			 "SMD_solvation_energy": 6.95 
		},
		"coords": [
			{
				"x": -2.5366140565,
				"y": -1.3365623858,
				"z": -1.5496110905,
				"element": "C" 
			},
			{
				"x": -2.0253532326,
				"y": -0.0448983674,
				"z": -0.90319193,
				"element": "C" 
			},
			{
				"x": -2.6325851451,
				"y": 0.0811399629,
				"z": 0.4969301182,
				"element": "C" 
			},
			{
				"x": -2.2233177644,
				"y": 1.2977433665,
				"z": 1.1343293652,
				"element": "O" 
			},
			{
				"x": -1.5641576439,
				"y": 1.2389840434,
				"z": 2.340752571,
				"element": "C" 
			},
			{
				"x": -1.8784045444,
				"y": 2.2348440567,
				"z": 3.2727596758,
				"element": "C" 
			},
			{
				"x": -1.2199301132,
				"y": 2.2695389821,
				"z": 4.5004477001,
				"element": "C" 
			},
			{
				"x": -0.2537735051,
				"y": 1.3093651834,
				"z": 4.8130713344,
				"element": "C" 
			},
			{
				"x": 0.058807124,
				"y": 0.3234067483,
				"z": 3.8760718709,
				"element": "C" 
			},
			{
				"x": -0.5834286485,
				"y": 0.2832166804,
				"z": 2.635995535,
				"element": "C" 
			},
			{
				"x": -0.5647684114,
				"y": 0.0019980948,
				"z": -0.7775087656,
				"element": "N" 
			},
			{
				"x": 0.1965537228,
				"y": 0.0819716637,
				"z": -2.0315723566,
				"element": "C" 
			},
			{
				"x": 0.7001983889,
				"y": -1.2894632189,
				"z": -2.4962414356,
				"element": "C" 
			},
			{
				"x": 1.368442189,
				"y": 1.1012684502,
				"z": -1.8835614556,
				"element": "C" 
			},
			{
				"x": 0.8551172698,
				"y": 2.3707491769,
				"z": -1.4764634756,
				"element": "O" 
			},
			{
				"x": 2.4515128346,
				"y": 0.7122407534,
				"z": -0.8941540054,
				"element": "C" 
			},
			{
				"x": 3.5534987446,
				"y": -0.0481967553,
				"z": -1.310387993,
				"element": "C" 
			},
			{
				"x": 4.5525303168,
				"y": -0.4322606526,
				"z": -0.4203066382,
				"element": "C" 
			},
			{
				"x": 4.4700823232,
				"y": -0.04370769,
				"z": 0.9205728381,
				"element": "C" 
			},
			{
				"x": 5.4760391424,
				"y": -0.4402200624,
				"z": 1.7580067821,
				"element": "O" 
			},
			{
				"x": 3.3890654129,
				"y": 0.7322412662,
				"z": 1.3497094015,
				"element": "C" 
			},
			{
				"x": 2.394165469,
				"y": 1.1063825764,
				"z": 0.447523563,
				"element": "C" 
			},
			{
				"x": -2.130405295,
				"y": -2.2120384093,
				"z": -1.032600113,
				"element": "H" 
			},
			{
				"x": -2.2545784279,
				"y": -1.3992143398,
				"z": -2.603382731,
				"element": "H" 
			},
			{
				"x": -3.6303924192,
				"y": -1.3793513275,
				"z": -1.5037137897,
				"element": "H" 
			},
			{
				"x": -2.4027932962,
				"y": 0.8064994764,
				"z": -1.5051758694,
				"element": "H" 
			},
			{
				"x": -3.7266184308,
				"y": 0.1106330105,
				"z": 0.4172613356,
				"element": "H" 
			},
			{
				"x": -2.3537443892,
				"y": -0.7852439937,
				"z": 1.1051999442,
				"element": "H" 
			},
			{
				"x": -2.6384398259,
				"y": 2.9656556519,
				"z": 3.0160291717,
				"element": "H" 
			},
			{
				"x": -1.4706883413,
				"y": 3.0447130023,
				"z": 5.2192524449,
				"element": "H" 
			},
			{
				"x": 0.2517482523,
				"y": 1.3333741446,
				"z": 5.7737747684,
				"element": "H" 
			},
			{
				"x": 0.8180224553,
				"y": -0.4208129513,
				"z": 4.1008908558,
				"element": "H" 
			},
			{
				"x": -0.303135149,
				"y": -0.4554212791,
				"z": 1.8925463309,
				"element": "H" 
			},
			{
				"x": -0.3659842771,
				"y": 0.8551900178,
				"z": -0.2582716781,
				"element": "H" 
			},
			{
				"x": -0.4402698096,
				"y": 0.5014420157,
				"z": -2.8386848749,
				"element": "H" 
			},
			{
				"x": -0.129799352,
				"y": -1.9676614555,
				"z": -2.702561841,
				"element": "H" 
			},
			{
				"x": 1.2911163605,
				"y": -1.1991066772,
				"z": -3.4154222845,
				"element": "H" 
			},
			{
				"x": 1.323144606,
				"y": -1.7450906937,
				"z": -1.7230228313,
				"element": "H" 
			},
			{
				"x": 1.8326647986,
				"y": 1.1804130761,
				"z": -2.8795791959,
				"element": "H" 
			},
			{
				"x": 0.1393539518,
				"y": 2.6095068547,
				"z": -2.0807111171,
				"element": "H" 
			},
			{
				"x": 3.6400451937,
				"y": -0.341664636,
				"z": -2.3534589717,
				"element": "H" 
			},
			{
				"x": 5.4048594414,
				"y": -1.018565375,
				"z": -0.7474585644,
				"element": "H" 
			},
			{
				"x": 5.3039315018,
				"y": -0.0897382011,
				"z": 2.6414891779,
				"element": "H" 
			},
			{
				"x": 3.3223949469,
				"y": 1.0496616061,
				"z": 2.3885920125,
				"element": "H" 
			},
			{
				"x": 1.5766876321,
				"y": 1.7291386103,
				"z": 0.7912362108,
				"element": "H" 
			}
		],
		 "valence_orbital": [ 
			{
				"type": "occ",
				"energy": -0.24804,
				"method": "rhf"
			},
			{
				"type": "occ",
				"energy": -0.24297,
				"method": "rhf"
			},
			{
				"type": "occ",
				"energy": -0.22633,
				"method": "rhf"
			},
			{
				"type": "occ",
				"energy": -0.21853,
				"method": "rhf"
			},
			{
				"type": "occ",
				"energy": -0.21056,
				"method": "rhf"
			},
			{
				"type": "unocc",
				"energy": -0.00103,
				"method": "rhf"
			},
			{
				"type": "unocc",
				"energy": 0.00573,
				"method": "rhf"
			},
			{
				"type": "unocc",
				"energy": 0.01188,
				"method": "rhf"
			},
			{
				"type": "unocc",
				"energy": 0.01662,
				"method": "rhf"
			},
			{
				"type": "unocc",
				"energy": 0.06271,
				"method": "rhf"
			}
		],
		"cosmo_sigma_profile": { 
			"-0.025": 0.0,
			"-0.024": 0.0,
			"-0.023": 0.0,
			"-0.022": 0.0,
			"-0.021": 0.0,
			"-0.02": 0.0,
			"-0.019": 0.0,
			"-0.018": 0.353180044067,
			"-0.017": 1.027938989,
			"-0.016": 0.744041795781,
			"-0.015": 2.16723528643,
			"-0.014": 2.34814286467,
			"-0.013": 1.5509713248,
			"-0.012": 1.10100219133,
			"-0.011": 1.6808371387,
			"-0.01": 2.61777066433,
			"-0.009": 2.93376711165,
			"-0.008": 1.88897673568,
			"-0.007": 1.42264174055,
			"-0.006": 7.73604854336,
			"-0.005": 20.0893958662,
			"-0.004": 30.4865656589,
			"-0.003": 37.8146410172,
			"-0.002": 34.6822677588,
			"-0.001": 28.2693644837,
			"0.0": 26.222388942,
			"0.001": 24.5545623296,
			"0.002": 22.6654672094,
			"0.003": 19.4712265261,
			"0.004": 20.6512152596,
			"0.005": 21.2012528437,
			"0.006": 17.6818197741,
			"0.007": 5.54444519459,
			"0.008": 4.62389367029,
			"0.009": 5.70403463279,
			"0.01": 4.41111224168,
			"0.011": 4.25666282902,
			"0.012": 2.89227224256,
			"0.013": 1.57999593606,
			"0.014": 0.897052367263,
			"0.015": 0.0,
			"0.016": 0.0,
			"0.017": 0.0,
			"0.018": 0.0,
			"0.019": 0.0,
			"0.02": 0.0,
			"0.021": 0.0,
			"0.022": 0.0,
			"0.023": 0.0,
			"0.024": 0.0,
			"0.025": 0.0
		}
	}
}
