{
	 "smiles": "CC1=NC2=C(S1)C=CC(O)=C2", 
	 "Tm": 459.15, 
	 "num_atms": 18, 
	 "gaussian": { 
		 "optdone": 1, 
		 "sigma_profile": "yes", 
		 "theory": "DFT", 
		 "functional": "B3LYP", 
		 "basiset": "6-31G**", 
		 "properties": { 
			 "R2extent": 4086.4131, 
			 "electric_dipole_moment_norm": 0.834124577027, 
			 "electric_quadrupole_moment_norm": 7.26490700698, 
			 "total_energy": -837.241470161, 
			 "HOMO_LUMO_gap": 0.18203, 
			 "cosmo_polarized_energy": -10.11, 
			 "cosmo_cavitation_energy": 23.72, 
			 "cosmo_dispersion_energy": -18.43, 
			 "cosmo_repulsion_energy": 1.42, 
			 "cosmo_total_nonelectrostatic_energy": 6.72, 
			 "SMD_solvation_energy": 2.29 
		},
		"coords": [
			{
				"x": -0.0437836556,
				"y": 2.0920449369,
				"z": 0.3860343655,
				"element": "C" 
			},
			{
				"x": 0.1632102957,
				"y": 0.8156746389,
				"z": 1.1410624691,
				"element": "C" 
			},
			{
				"x": -0.7870117964,
				"y": 0.1441851201,
				"z": 1.7078879776,
				"element": "N" 
			},
			{
				"x": -0.3005601801,
				"y": -0.9948587499,
				"z": 2.3334553295,
				"element": "C" 
			},
			{
				"x": 1.0954856752,
				"y": -1.1944121142,
				"z": 2.2331683144,
				"element": "C" 
			},
			{
				"x": 1.7969515983,
				"y": 0.121196154,
				"z": 1.3082466761,
				"element": "S" 
			},
			{
				"x": 1.7051239355,
				"y": -2.3054757823,
				"z": 2.8217508836,
				"element": "C" 
			},
			{
				"x": 0.9130712547,
				"y": -3.2156205233,
				"z": 3.5106437566,
				"element": "C" 
			},
			{
				"x": -0.4789684238,
				"y": -3.0231702558,
				"z": 3.6146247664,
				"element": "C" 
			},
			{
				"x": -1.1752439422,
				"y": -3.9713352198,
				"z": 4.3115649544,
				"element": "O" 
			},
			{
				"x": -1.0924978279,
				"y": -1.9183796803,
				"z": 3.0305880648,
				"element": "C" 
			},
			{
				"x": 0.5212190266,
				"y": 2.9158813291,
				"z": 0.8351257991,
				"element": "H" 
			},
			{
				"x": 0.2829425026,
				"y": 1.9958112074,
				"z": -0.6549277342,
				"element": "H" 
			},
			{
				"x": -1.1065567428,
				"y": 2.3392321271,
				"z": 0.4033586822,
				"element": "H" 
			},
			{
				"x": 2.7761992146,
				"y": -2.4637006429,
				"z": 2.7479619292,
				"element": "H" 
			},
			{
				"x": 1.3486799419,
				"y": -4.0904387441,
				"z": 3.9811482017,
				"element": "H" 
			},
			{
				"x": -2.1118846096,
				"y": -3.7355086501,
				"z": 4.3155794284,
				"element": "H" 
			},
			{
				"x": -2.1643762665,
				"y": -1.755225151,
				"z": 3.1014261355,
				"element": "H" 
			}
		],
		 "valence_orbital": [ 
			{
				"type": "occ",
				"energy": -0.31648,
				"method": "rhf"
			},
			{
				"type": "occ",
				"energy": -0.29095,
				"method": "rhf"
			},
			{
				"type": "occ",
				"energy": -0.27271,
				"method": "rhf"
			},
			{
				"type": "occ",
				"energy": -0.23531,
				"method": "rhf"
			},
			{
				"type": "occ",
				"energy": -0.21403,
				"method": "rhf"
			},
			{
				"type": "unocc",
				"energy": -0.032,
				"method": "rhf"
			},
			{
				"type": "unocc",
				"energy": 0.00556,
				"method": "rhf"
			},
			{
				"type": "unocc",
				"energy": 0.01265,
				"method": "rhf"
			},
			{
				"type": "unocc",
				"energy": 0.04151,
				"method": "rhf"
			},
			{
				"type": "unocc",
				"energy": 0.07115,
				"method": "rhf"
			}
		],
		"cosmo_sigma_profile": { 
			"-0.025": 0.0,
			"-0.024": 0.0,
			"-0.023": 0.0,
			"-0.022": 0.0,
			"-0.021": 0.0,
			"-0.02": 0.0,
			"-0.019": 0.0,
			"-0.018": 0.532139612874,
			"-0.017": 1.06462907272,
			"-0.016": 1.04150159272,
			"-0.015": 0.863044012667,
			"-0.014": 0.999773181018,
			"-0.013": 1.01407406502,
			"-0.012": 1.44262467538,
			"-0.011": 0.951153558175,
			"-0.01": 0.664865824023,
			"-0.009": 1.15720542754,
			"-0.008": 1.5217012489,
			"-0.007": 4.31083913297,
			"-0.006": 9.55249634978,
			"-0.005": 12.5732968385,
			"-0.004": 13.2467036674,
			"-0.003": 10.8886304127,
			"-0.002": 14.0706192013,
			"-0.001": 11.1435240935,
			"0.0": 9.98200513916,
			"0.001": 11.6085332555,
			"0.002": 14.2058050385,
			"0.003": 20.272780557,
			"0.004": 20.6915394733,
			"0.005": 7.9170646169,
			"0.006": 2.77554768881,
			"0.007": 2.92341058814,
			"0.008": 2.6847761188,
			"0.009": 2.65315747195,
			"0.01": 2.71503295686,
			"0.011": 2.98042897282,
			"0.012": 1.44325374922,
			"0.013": 0.727490125078,
			"0.014": 1.0007612194,
			"0.015": 0.409903764515,
			"0.016": 0.0,
			"0.017": 0.0,
			"0.018": 0.0,
			"0.019": 0.0,
			"0.02": 0.0,
			"0.021": 0.0,
			"0.022": 0.0,
			"0.023": 0.0,
			"0.024": 0.0,
			"0.025": 0.0
		}
	}
}
