{
	 "smiles": "NC1=CC2=C(C=C1)N=C(O2)N1CCOCC1", 
	 "Tm": 450.15, 
	 "num_atms": 29, 
	 "gaussian": { 
		 "optdone": 1, 
		 "sigma_profile": "yes", 
		 "theory": "DFT", 
		 "functional": "B3LYP", 
		 "basiset": "6-31G**", 
		 "properties": { 
			 "R2extent": 5288.213, 
			 "electric_dipole_moment_norm": 2.13998102094, 
			 "electric_quadrupole_moment_norm": 9.90459526382, 
			 "total_energy": -741.687311499, 
			 "HOMO_LUMO_gap": 0.18004, 
			 "cosmo_polarized_energy": -14.96, 
			 "cosmo_cavitation_energy": 31.66, 
			 "cosmo_dispersion_energy": -24.14, 
			 "cosmo_repulsion_energy": 1.88, 
			 "cosmo_total_nonelectrostatic_energy": 9.4, 
			 "SMD_solvation_energy": 2.93 
		},
		"coords": [
			{
				"x": 4.1273943491,
				"y": 0.200436244,
				"z": 2.4687259262,
				"element": "N" 
			},
			{
				"x": 3.0358417225,
				"y": -0.4021984394,
				"z": 1.8214889993,
				"element": "C" 
			},
			{
				"x": 1.7755761789,
				"y": 0.2273500829,
				"z": 1.8330190507,
				"element": "C" 
			},
			{
				"x": 0.7726704694,
				"y": -0.3997240278,
				"z": 1.1193518575,
				"element": "C" 
			},
			{
				"x": 0.9231478083,
				"y": -1.5929884921,
				"z": 0.4019670957,
				"element": "C" 
			},
			{
				"x": 2.1734799938,
				"y": -2.2099612519,
				"z": 0.3955979415,
				"element": "C" 
			},
			{
				"x": 3.212986984,
				"y": -1.6058013799,
				"z": 1.1059937509,
				"element": "C" 
			},
			{
				"x": -0.297520576,
				"y": -1.9359447076,
				"z": -0.191463425,
				"element": "N" 
			},
			{
				"x": -1.0949866926,
				"y": -0.9744522902,
				"z": 0.1757314074,
				"element": "C" 
			},
			{
				"x": -0.5423353222,
				"y": 0.0075150688,
				"z": 0.9740675315,
				"element": "O" 
			},
			{
				"x": -2.4077604502,
				"y": -0.8233602066,
				"z": -0.1242616146,
				"element": "N" 
			},
			{
				"x": -3.1687086246,
				"y": 0.3587634593,
				"z": 0.2795766728,
				"element": "C" 
			},
			{
				"x": -4.656398244,
				"y": 0.0434384948,
				"z": 0.1525957845,
				"element": "C" 
			},
			{
				"x": -5.0410732623,
				"y": -0.3200697195,
				"z": -1.1685174201,
				"element": "O" 
			},
			{
				"x": -4.0455279111,
				"y": -1.0183768916,
				"z": -1.9177421613,
				"element": "C" 
			},
			{
				"x": -3.0468904409,
				"y": -1.7680024862,
				"z": -1.0415125822,
				"element": "C" 
			},
			{
				"x": 4.8582767775,
				"y": -0.4475938245,
				"z": 2.7316080636,
				"element": "H" 
			},
			{
				"x": 3.8731029336,
				"y": 0.789491368,
				"z": 3.2508354457,
				"element": "H" 
			},
			{
				"x": 1.607156932,
				"y": 1.1568257104,
				"z": 2.3672569743,
				"element": "H" 
			},
			{
				"x": 2.3335022375,
				"y": -3.1370325769,
				"z": -0.1449141777,
				"element": "H" 
			},
			{
				"x": 4.1959094495,
				"y": -2.0703074341,
				"z": 1.1075387627,
				"element": "H" 
			},
			{
				"x": -2.9326338713,
				"y": 0.6142912285,
				"z": 1.3168590151,
				"element": "H" 
			},
			{
				"x": -2.913736408,
				"y": 1.2303015194,
				"z": -0.3414015731,
				"element": "H" 
			},
			{
				"x": -4.9151570507,
				"y": -0.7587038192,
				"z": 0.8613452621,
				"element": "H" 
			},
			{
				"x": -5.2446878343,
				"y": 0.9268680166,
				"z": 0.4197184628,
				"element": "H" 
			},
			{
				"x": -4.5717076079,
				"y": -1.7242244845,
				"z": -2.5691606121,
				"element": "H" 
			},
			{
				"x": -3.5006756372,
				"y": -0.3100321149,
				"z": -2.5602015912,
				"element": "H" 
			},
			{
				"x": -2.2727689069,
				"y": -2.2332823043,
				"z": -1.6567686499,
				"element": "H" 
			},
			{
				"x": -3.551576996,
				"y": -2.5696247414,
				"z": -0.4845341972,
				"element": "H" 
			}
		],
		 "valence_orbital": [ 
			{
				"type": "occ",
				"energy": -0.27359,
				"method": "rhf"
			},
			{
				"type": "occ",
				"energy": -0.2566,
				"method": "rhf"
			},
			{
				"type": "occ",
				"energy": -0.24121,
				"method": "rhf"
			},
			{
				"type": "occ",
				"energy": -0.23155,
				"method": "rhf"
			},
			{
				"type": "occ",
				"energy": -0.17423,
				"method": "rhf"
			},
			{
				"type": "unocc",
				"energy": 0.00581,
				"method": "rhf"
			},
			{
				"type": "unocc",
				"energy": 0.0286,
				"method": "rhf"
			},
			{
				"type": "unocc",
				"energy": 0.06855,
				"method": "rhf"
			},
			{
				"type": "unocc",
				"energy": 0.08039,
				"method": "rhf"
			},
			{
				"type": "unocc",
				"energy": 0.08739,
				"method": "rhf"
			}
		],
		"cosmo_sigma_profile": { 
			"-0.025": 0.0,
			"-0.024": 0.0,
			"-0.023": 0.0,
			"-0.022": 0.0,
			"-0.021": 0.0,
			"-0.02": 0.0,
			"-0.019": 0.0,
			"-0.018": 0.0,
			"-0.017": 0.0,
			"-0.016": 0.0,
			"-0.015": 0.0,
			"-0.014": 0.0,
			"-0.013": 0.015977202999,
			"-0.012": 1.70605562286,
			"-0.011": 3.13845799475,
			"-0.01": 2.77971762449,
			"-0.009": 3.05574381363,
			"-0.008": 3.59789354351,
			"-0.007": 4.25464908221,
			"-0.006": 11.678427223,
			"-0.005": 25.2189773484,
			"-0.004": 29.7442935547,
			"-0.003": 20.2598579664,
			"-0.002": 15.2092794935,
			"-0.001": 13.863170559,
			"0.0": 10.6315328049,
			"0.001": 10.9346757679,
			"0.002": 11.9083287265,
			"0.003": 12.0757630434,
			"0.004": 12.2114217084,
			"0.005": 13.9868488967,
			"0.006": 13.635546759,
			"0.007": 6.32892095273,
			"0.008": 3.40454440605,
			"0.009": 2.78273297089,
			"0.01": 3.1898799028,
			"0.011": 4.34619949335,
			"0.012": 2.61219826009,
			"0.013": 3.05745502123,
			"0.014": 2.46683086889,
			"0.015": 1.4951588859,
			"0.016": 0.624821683853,
			"0.017": 0.0,
			"0.018": 0.0,
			"0.019": 0.0,
			"0.02": 0.0,
			"0.021": 0.0,
			"0.022": 0.0,
			"0.023": 0.0,
			"0.024": 0.0,
			"0.025": 0.0
		}
	}
}
