{
	 "smiles": "OC(=O)C1=CC=CC=C1NC1=CC=CC=C1", 
	 "Tm": 458.15, 
	 "num_atms": 27, 
	 "gaussian": { 
		 "optdone": 1, 
		 "sigma_profile": "yes", 
		 "theory": "DFT", 
		 "functional": "B3LYP", 
		 "basiset": "6-31G**", 
		 "properties": { 
			 "R2extent": 4351.3968, 
			 "electric_dipole_moment_norm": 0.675787503584, 
			 "electric_quadrupole_moment_norm": 7.63834579605, 
			 "total_energy": -707.241190808, 
			 "HOMO_LUMO_gap": 0.14811, 
			 "cosmo_polarized_energy": -9.32, 
			 "cosmo_cavitation_energy": 30.94, 
			 "cosmo_dispersion_energy": -22.87, 
			 "cosmo_repulsion_energy": 1.76, 
			 "cosmo_total_nonelectrostatic_energy": 9.83, 
			 "SMD_solvation_energy": 6.05 
		},
		"coords": [
			{
				"x": 0.7703731797,
				"y": -3.3346400011,
				"z": 2.7526721273,
				"element": "O" 
			},
			{
				"x": 0.4309450194,
				"y": -2.6036404908,
				"z": 1.6627343709,
				"element": "C" 
			},
			{
				"x": -0.6553113991,
				"y": -2.7886169742,
				"z": 1.1162471335,
				"element": "O" 
			},
			{
				"x": 1.45649742,
				"y": -1.6379990253,
				"z": 1.2452117388,
				"element": "C" 
			},
			{
				"x": 2.7003007055,
				"y": -1.6162764812,
				"z": 1.9065601121,
				"element": "C" 
			},
			{
				"x": 3.7084943987,
				"y": -0.7453078059,
				"z": 1.52945483,
				"element": "C" 
			},
			{
				"x": 3.4810669178,
				"y": 0.1191125716,
				"z": 0.4490883793,
				"element": "C" 
			},
			{
				"x": 2.2687934462,
				"y": 0.1283012469,
				"z": -0.221710134,
				"element": "C" 
			},
			{
				"x": 1.2141471353,
				"y": -0.7326827886,
				"z": 0.1626936267,
				"element": "C" 
			},
			{
				"x": 0.0052078525,
				"y": -0.7500745027,
				"z": -0.4926346481,
				"element": "N" 
			},
			{
				"x": -0.5236872669,
				"y": 0.1741780611,
				"z": -1.4120978456,
				"element": "C" 
			},
			{
				"x": -0.3108340225,
				"y": 1.5599463501,
				"z": -1.3190361123,
				"element": "C" 
			},
			{
				"x": -0.9056650099,
				"y": 2.4230041205,
				"z": -2.2388748748,
				"element": "C" 
			},
			{
				"x": -1.73623238,
				"y": 1.9316086462,
				"z": -3.24734712,
				"element": "C" 
			},
			{
				"x": -1.9706601502,
				"y": 0.5570104879,
				"z": -3.3264454831,
				"element": "C" 
			},
			{
				"x": -1.3669308575,
				"y": -0.3152720417,
				"z": -2.4242358543,
				"element": "C" 
			},
			{
				"x": 0.0191425776,
				"y": -3.9302430257,
				"z": 2.9067070398,
				"element": "H" 
			},
			{
				"x": 2.8551515879,
				"y": -2.3094567044,
				"z": 2.7249513837,
				"element": "H" 
			},
			{
				"x": 4.6593266971,
				"y": -0.742504757,
				"z": 2.0516027862,
				"element": "H" 
			},
			{
				"x": 4.2689255369,
				"y": 0.7902090549,
				"z": 0.1173351816,
				"element": "H" 
			},
			{
				"x": 2.1308869371,
				"y": 0.7834792199,
				"z": -1.0723492178,
				"element": "H" 
			},
			{
				"x": -0.5926643792,
				"y": -1.5288496194,
				"z": -0.2230494536,
				"element": "H" 
			},
			{
				"x": 0.2936154169,
				"y": 1.9612620128,
				"z": -0.5135694839,
				"element": "H" 
			},
			{
				"x": -0.7301946698,
				"y": 3.491703666,
				"z": -2.1516896769,
				"element": "H" 
			},
			{
				"x": -2.1993616762,
				"y": 2.6101123405,
				"z": -3.9570869482,
				"element": "H" 
			},
			{
				"x": -2.6194897068,
				"y": 0.1578400412,
				"z": -4.1009586611,
				"element": "H" 
			},
			{
				"x": -1.5361433108,
				"y": -1.3860036017,
				"z": -2.4980731963,
				"element": "H" 
			}
		],
		 "valence_orbital": [ 
			{
				"type": "occ",
				"energy": -0.28158,
				"method": "rhf"
			},
			{
				"type": "occ",
				"energy": -0.25952,
				"method": "rhf"
			},
			{
				"type": "occ",
				"energy": -0.25364,
				"method": "rhf"
			},
			{
				"type": "occ",
				"energy": -0.25076,
				"method": "rhf"
			},
			{
				"type": "occ",
				"energy": -0.19466,
				"method": "rhf"
			},
			{
				"type": "unocc",
				"energy": -0.04655,
				"method": "rhf"
			},
			{
				"type": "unocc",
				"energy": -0.01025,
				"method": "rhf"
			},
			{
				"type": "unocc",
				"energy": -0.00208,
				"method": "rhf"
			},
			{
				"type": "unocc",
				"energy": 0.02673,
				"method": "rhf"
			},
			{
				"type": "unocc",
				"energy": 0.0564,
				"method": "rhf"
			}
		],
		"cosmo_sigma_profile": { 
			"-0.025": 0.0,
			"-0.024": 0.0,
			"-0.023": 0.0,
			"-0.022": 0.0,
			"-0.021": 0.0,
			"-0.02": 0.0,
			"-0.019": 0.0,
			"-0.018": 0.64073049571,
			"-0.017": 0.813738603331,
			"-0.016": 1.03952536314,
			"-0.015": 0.186948006842,
			"-0.014": 1.27556651702,
			"-0.013": 0.698488717622,
			"-0.012": 0.620123928377,
			"-0.011": 0.661595451518,
			"-0.01": 0.647979964988,
			"-0.009": 0.401544245519,
			"-0.008": 0.743564223184,
			"-0.007": 2.99757328559,
			"-0.006": 10.7263178161,
			"-0.005": 18.7697365297,
			"-0.004": 19.7701331072,
			"-0.003": 18.6807941174,
			"-0.002": 16.6151584018,
			"-0.001": 16.5788440448,
			"0.0": 15.7145614772,
			"0.001": 18.4298649383,
			"0.002": 21.0121245658,
			"0.003": 21.1960686125,
			"0.004": 20.5104160611,
			"0.005": 17.9792162305,
			"0.006": 9.59828265889,
			"0.007": 3.30556693235,
			"0.008": 1.72244695504,
			"0.009": 1.44544877496,
			"0.01": 2.13934276533,
			"0.011": 2.0553582339,
			"0.012": 1.35871573075,
			"0.013": 0.0285715434762,
			"0.014": 0.0,
			"0.015": 0.0,
			"0.016": 0.0,
			"0.017": 0.0,
			"0.018": 0.0,
			"0.019": 0.0,
			"0.02": 0.0,
			"0.021": 0.0,
			"0.022": 0.0,
			"0.023": 0.0,
			"0.024": 0.0,
			"0.025": 0.0
		}
	}
}
