{
	 "smiles": "CC(C)C(O)CC1=C(Br)C=CC=C1", 
	 "Tm": 347.15, 
	 "num_atms": 28, 
	 "gaussian": { 
		 "optdone": 1, 
		 "sigma_profile": "yes", 
		 "theory": "DFT", 
		 "functional": "B3LYP", 
		 "basiset": "6-31G**", 
		 "properties": { 
			 "R2extent": 4707.5282, 
			 "electric_dipole_moment_norm": 3.00575016427, 
			 "electric_quadrupole_moment_norm": 8.0792678573, 
			 "total_energy": -3074.8434828, 
			 "HOMO_LUMO_gap": 0.22425, 
			 "cosmo_polarized_energy": -8.89, 
			 "cosmo_cavitation_energy": 31.26, 
			 "cosmo_dispersion_energy": -22.11, 
			 "cosmo_repulsion_energy": 1.74, 
			 "cosmo_total_nonelectrostatic_energy": 10.89, 
			 "SMD_solvation_energy": 4.06 
		},
		"coords": [
			{
				"x": -1.1397660624,
				"y": 1.4214241756,
				"z": 1.3601474425,
				"element": "C" 
			},
			{
				"x": -0.5261229388,
				"y": 0.0182316782,
				"z": 1.4864285106,
				"element": "C" 
			},
			{
				"x": 0.9739681693,
				"y": 0.0334365458,
				"z": 1.1529427296,
				"element": "C" 
			},
			{
				"x": -1.3202893924,
				"y": -1.079374695,
				"z": 0.7332202858,
				"element": "C" 
			},
			{
				"x": -2.5553775949,
				"y": -1.3399902273,
				"z": 1.4063249732,
				"element": "O" 
			},
			{
				"x": -1.6334522519,
				"y": -0.8518432574,
				"z": -0.7705744047,
				"element": "C" 
			},
			{
				"x": -0.4772815722,
				"y": -0.8314490449,
				"z": -1.7459537365,
				"element": "C" 
			},
			{
				"x": 0.2128791165,
				"y": -1.9844357095,
				"z": -2.1524830934,
				"element": "C" 
			},
			{
				"x": -0.2955723972,
				"y": -3.7161429246,
				"z": -1.4949055019,
				"element": "Br" 
			},
			{
				"x": 1.2695553451,
				"y": -1.9395565521,
				"z": -3.0620589147,
				"element": "C" 
			},
			{
				"x": 1.6622825741,
				"y": -0.7173392402,
				"z": -3.6046666564,
				"element": "C" 
			},
			{
				"x": 0.986301196,
				"y": 0.4470800057,
				"z": -3.2401640229,
				"element": "C" 
			},
			{
				"x": -0.0652911342,
				"y": 0.3791440961,
				"z": -2.3286167207,
				"element": "C" 
			},
			{
				"x": -1.0261071355,
				"y": 1.8299891073,
				"z": 0.3501614069,
				"element": "H" 
			},
			{
				"x": -0.648938164,
				"y": 2.1170179435,
				"z": 2.0485569169,
				"element": "H" 
			},
			{
				"x": -2.2079183619,
				"y": 1.430064575,
				"z": 1.609192431,
				"element": "H" 
			},
			{
				"x": -0.6219463198,
				"y": -0.283382899,
				"z": 2.5381711423,
				"element": "H" 
			},
			{
				"x": 1.1703760251,
				"y": 0.3984763504,
				"z": 0.141549858,
				"element": "H" 
			},
			{
				"x": 1.4094341103,
				"y": -0.9681948719,
				"z": 1.2364844609,
				"element": "H" 
			},
			{
				"x": 1.5094930571,
				"y": 0.6866837162,
				"z": 1.8507105262,
				"element": "H" 
			},
			{
				"x": -0.7609494499,
				"y": -2.0150960968,
				"z": 0.8268156948,
				"element": "H" 
			},
			{
				"x": -3.1123921469,
				"y": -0.5550588919,
				"z": 1.3169848373,
				"element": "H" 
			},
			{
				"x": -2.1931944543,
				"y": 0.0855347778,
				"z": -0.8756605299,
				"element": "H" 
			},
			{
				"x": -2.3193122927,
				"y": -1.6602450462,
				"z": -1.0440642879,
				"element": "H" 
			},
			{
				"x": 1.7718006705,
				"y": -2.8578179853,
				"z": -3.3444158366,
				"element": "H" 
			},
			{
				"x": 2.484028163,
				"y": -0.6825001245,
				"z": -4.3135113614,
				"element": "H" 
			},
			{
				"x": 1.2726495219,
				"y": 1.404115631,
				"z": -3.6658040684,
				"element": "H" 
			},
			{
				"x": -0.59375628,
				"y": 1.2884289639,
				"z": -2.0547120806,
				"element": "H" 
			}
		],
		 "valence_orbital": [ 
			{
				"type": "occ",
				"energy": -0.30447,
				"method": "rhf"
			},
			{
				"type": "occ",
				"energy": -0.285,
				"method": "rhf"
			},
			{
				"type": "occ",
				"energy": -0.26802,
				"method": "rhf"
			},
			{
				"type": "occ",
				"energy": -0.25123,
				"method": "rhf"
			},
			{
				"type": "occ",
				"energy": -0.23968,
				"method": "rhf"
			},
			{
				"type": "unocc",
				"energy": -0.01543,
				"method": "rhf"
			},
			{
				"type": "unocc",
				"energy": -0.01442,
				"method": "rhf"
			},
			{
				"type": "unocc",
				"energy": 0.0083,
				"method": "rhf"
			},
			{
				"type": "unocc",
				"energy": 0.0685,
				"method": "rhf"
			},
			{
				"type": "unocc",
				"energy": 0.08687,
				"method": "rhf"
			}
		],
		"cosmo_sigma_profile": { 
			"-0.025": 0.0,
			"-0.024": 0.0,
			"-0.023": 0.0,
			"-0.022": 0.0,
			"-0.021": 0.0,
			"-0.02": 0.0,
			"-0.019": 0.0,
			"-0.018": 0.0,
			"-0.017": 0.0,
			"-0.016": 0.0,
			"-0.015": 0.0,
			"-0.014": 0.650830624227,
			"-0.013": 0.662949449312,
			"-0.012": 1.0273985323,
			"-0.011": 1.48628893841,
			"-0.01": 1.39883237521,
			"-0.009": 0.801709581851,
			"-0.008": 0.843661526197,
			"-0.007": 2.44511754978,
			"-0.006": 10.1835453333,
			"-0.005": 12.5292593129,
			"-0.004": 12.9791958474,
			"-0.003": 15.6665774731,
			"-0.002": 25.758649839,
			"-0.001": 24.4251328745,
			"0.0": 27.2028008072,
			"0.001": 26.7841532448,
			"0.002": 24.1710069059,
			"0.003": 19.0828838766,
			"0.004": 18.2854069519,
			"0.005": 8.85011393074,
			"0.006": 1.22571521674,
			"0.007": 1.53992384859,
			"0.008": 1.23948658108,
			"0.009": 0.712925965858,
			"0.01": 0.995559030185,
			"0.011": 1.52274514578,
			"0.012": 1.22098760497,
			"0.013": 1.32907932355,
			"0.014": 2.26276668271,
			"0.015": 0.917054997867,
			"0.016": 0.0,
			"0.017": 0.0,
			"0.018": 0.0,
			"0.019": 0.0,
			"0.02": 0.0,
			"0.021": 0.0,
			"0.022": 0.0,
			"0.023": 0.0,
			"0.024": 0.0,
			"0.025": 0.0
		}
	}
}
