{
	 "smiles": "BrC1=CC=CC2=C1C=CC=C2C=O", 
	 "Tm": 378.15, 
	 "num_atms": 20, 
	 "gaussian": { 
		 "optdone": 1, 
		 "sigma_profile": "yes", 
		 "theory": "DFT", 
		 "functional": "B3LYP", 
		 "basiset": "6-31G**", 
		 "properties": { 
			 "R2extent": 4969.6627, 
			 "electric_dipole_moment_norm": 2.11430095776, 
			 "electric_quadrupole_moment_norm": 15.1851467276, 
			 "total_energy": -3070.01436412, 
			 "HOMO_LUMO_gap": 0.15076, 
			 "cosmo_polarized_energy": -7.95, 
			 "cosmo_cavitation_energy": 26.29, 
			 "cosmo_dispersion_energy": -19.99, 
			 "cosmo_repulsion_energy": 1.53, 
			 "cosmo_total_nonelectrostatic_energy": 7.83, 
			 "SMD_solvation_energy": 4.23 
		},
		"coords": [
			{
				"x": 3.5917078306,
				"y": -2.5208755211,
				"z": 1.8004661835,
				"element": "Br" 
			},
			{
				"x": 2.6195878724,
				"y": -1.679573106,
				"z": 0.3781340763,
				"element": "C" 
			},
			{
				"x": 2.8990044924,
				"y": -2.0810376769,
				"z": -0.9051551522,
				"element": "C" 
			},
			{
				"x": 2.2063039845,
				"y": -1.487578603,
				"z": -1.9833741996,
				"element": "C" 
			},
			{
				"x": 1.2586670736,
				"y": -0.5157904323,
				"z": -1.7636143691,
				"element": "C" 
			},
			{
				"x": 0.9474242148,
				"y": -0.079148516,
				"z": -0.4460873111,
				"element": "C" 
			},
			{
				"x": 1.6463706844,
				"y": -0.6758776677,
				"z": 0.6649264137,
				"element": "C" 
			},
			{
				"x": 1.3439449809,
				"y": -0.248091609,
				"z": 1.9838698171,
				"element": "C" 
			},
			{
				"x": 0.397210701,
				"y": 0.7243516869,
				"z": 2.2203996965,
				"element": "C" 
			},
			{
				"x": -0.2900387289,
				"y": 1.3128285935,
				"z": 1.1454815683,
				"element": "C" 
			},
			{
				"x": -0.0338888148,
				"y": 0.932509471,
				"z": -0.1622752714,
				"element": "C" 
			},
			{
				"x": -0.8159311393,
				"y": 1.6174360114,
				"z": -1.2241921746,
				"element": "C" 
			},
			{
				"x": -1.6510719379,
				"y": 2.4754473779,
				"z": -0.9993082803,
				"element": "O" 
			},
			{
				"x": 3.6442083768,
				"y": -2.8461391457,
				"z": -1.0880318784,
				"element": "H" 
			},
			{
				"x": 2.4320632397,
				"y": -1.809623635,
				"z": -2.9954133969,
				"element": "H" 
			},
			{
				"x": 0.7472329735,
				"y": -0.082779588,
				"z": -2.6141288392,
				"element": "H" 
			},
			{
				"x": 1.8767056057,
				"y": -0.70499829,
				"z": 2.8096105756,
				"element": "H" 
			},
			{
				"x": 0.1813448825,
				"y": 1.0368108598,
				"z": 3.2373782863,
				"element": "H" 
			},
			{
				"x": -1.0394149169,
				"y": 2.0805118611,
				"z": 1.3103866233,
				"element": "H" 
			},
			{
				"x": -0.6129313749,
				"y": 1.314117929,
				"z": -2.269172368,
				"element": "H" 
			}
		],
		 "valence_orbital": [ 
			{
				"type": "occ",
				"energy": -0.29574,
				"method": "rhf"
			},
			{
				"type": "occ",
				"energy": -0.28127,
				"method": "rhf"
			},
			{
				"type": "occ",
				"energy": -0.26611,
				"method": "rhf"
			},
			{
				"type": "occ",
				"energy": -0.25807,
				"method": "rhf"
			},
			{
				"type": "occ",
				"energy": -0.23257,
				"method": "rhf"
			},
			{
				"type": "unocc",
				"energy": -0.08181,
				"method": "rhf"
			},
			{
				"type": "unocc",
				"energy": -0.03066,
				"method": "rhf"
			},
			{
				"type": "unocc",
				"energy": -0.02926,
				"method": "rhf"
			},
			{
				"type": "unocc",
				"energy": -0.00154,
				"method": "rhf"
			},
			{
				"type": "unocc",
				"energy": 0.044,
				"method": "rhf"
			}
		],
		"cosmo_sigma_profile": { 
			"-0.025": 0.0,
			"-0.024": 0.0,
			"-0.023": 0.0,
			"-0.022": 0.0,
			"-0.021": 0.0,
			"-0.02": 0.0,
			"-0.019": 0.0,
			"-0.018": 0.0,
			"-0.017": 0.0,
			"-0.016": 0.0,
			"-0.015": 0.0,
			"-0.014": 0.0,
			"-0.013": 0.0,
			"-0.012": 0.0,
			"-0.011": 0.0,
			"-0.01": 0.380277714237,
			"-0.009": 2.10032842015,
			"-0.008": 2.98399166129,
			"-0.007": 8.63386140104,
			"-0.006": 12.3937077321,
			"-0.005": 13.2535298308,
			"-0.004": 12.5952406259,
			"-0.003": 11.9852525694,
			"-0.002": 11.0861277796,
			"-0.001": 12.72497054,
			"0.0": 18.4117072167,
			"0.001": 29.40109911,
			"0.002": 30.7672091624,
			"0.003": 18.5358148534,
			"0.004": 10.077311,
			"0.005": 3.60393926308,
			"0.006": 1.3249620167,
			"0.007": 1.72810737684,
			"0.008": 2.05372469436,
			"0.009": 1.89896001848,
			"0.01": 2.36026577805,
			"0.011": 4.25794432786,
			"0.012": 2.49688840458,
			"0.013": 0.695993162025,
			"0.014": 0.0,
			"0.015": 0.0,
			"0.016": 0.0,
			"0.017": 0.0,
			"0.018": 0.0,
			"0.019": 0.0,
			"0.02": 0.0,
			"0.021": 0.0,
			"0.022": 0.0,
			"0.023": 0.0,
			"0.024": 0.0,
			"0.025": 0.0
		}
	}
}
