{
	 "smiles": "CCC1=CC(C(O)=O)=C(N)C=C1", 
	 "Tm": 401.15, 
	 "num_atms": 23, 
	 "gaussian": { 
		 "optdone": 1, 
		 "sigma_profile": "yes", 
		 "theory": "DFT", 
		 "functional": "B3LYP", 
		 "basiset": "6-31G**", 
		 "properties": { 
			 "R2extent": 2479.7436, 
			 "electric_dipole_moment_norm": 3.85149499026, 
			 "electric_quadrupole_moment_norm": 16.5350722245, 
			 "total_energy": -554.81629235, 
			 "HOMO_LUMO_gap": 0.16231, 
			 "cosmo_polarized_energy": -13.66, 
			 "cosmo_cavitation_energy": 26.31, 
			 "cosmo_dispersion_energy": -19.45, 
			 "cosmo_repulsion_energy": 1.56, 
			 "cosmo_total_nonelectrostatic_energy": 8.42, 
			 "SMD_solvation_energy": 5.35 
		},
		"coords": [
			{
				"x": -0.4820170884,
				"y": 2.4988515861,
				"z": 3.2584476681,
				"element": "C" 
			},
			{
				"x": 0.5003104136,
				"y": 2.2547734205,
				"z": 2.0988046718,
				"element": "C" 
			},
			{
				"x": 0.2102174207,
				"y": 0.9860289837,
				"z": 1.3258012713,
				"element": "C" 
			},
			{
				"x": -0.4939381323,
				"y": 1.0008539155,
				"z": 0.127979321,
				"element": "C" 
			},
			{
				"x": -0.7993451912,
				"y": -0.1655126553,
				"z": -0.6027523332,
				"element": "C" 
			},
			{
				"x": -1.5485708915,
				"y": -0.0985278235,
				"z": -1.8811598242,
				"element": "C" 
			},
			{
				"x": -2.2426653663,
				"y": 1.0412258818,
				"z": -2.142040525,
				"element": "O" 
			},
			{
				"x": -1.5846020322,
				"y": -0.9937653963,
				"z": -2.7095074729,
				"element": "O" 
			},
			{
				"x": -0.3367167099,
				"y": -1.4239032651,
				"z": -0.1190396203,
				"element": "C" 
			},
			{
				"x": -0.5920521807,
				"y": -2.5932829957,
				"z": -0.7793715178,
				"element": "N" 
			},
			{
				"x": 0.3683756775,
				"y": -1.4376449619,
				"z": 1.1068566995,
				"element": "C" 
			},
			{
				"x": 0.6284007542,
				"y": -0.2712750972,
				"z": 1.8028724772,
				"element": "C" 
			},
			{
				"x": -0.2328654943,
				"y": 3.4185930366,
				"z": 3.7982582802,
				"element": "H" 
			},
			{
				"x": -0.4598473567,
				"y": 1.6706591856,
				"z": 3.9744932005,
				"element": "H" 
			},
			{
				"x": -1.5093003703,
				"y": 2.5879385145,
				"z": 2.890028495,
				"element": "H" 
			},
			{
				"x": 0.4727529589,
				"y": 3.112120738,
				"z": 1.4155345301,
				"element": "H" 
			},
			{
				"x": 1.5218510277,
				"y": 2.2152508841,
				"z": 2.4975296633,
				"element": "H" 
			},
			{
				"x": -0.7758044151,
				"y": 1.9709058941,
				"z": -0.2786463343,
				"element": "H" 
			},
			{
				"x": -2.2875902793,
				"y": 1.5891401579,
				"z": -1.3469341018,
				"element": "H" 
			},
			{
				"x": -0.8937544294,
				"y": -2.5093999971,
				"z": -1.7428874435,
				"element": "H" 
			},
			{
				"x": -0.079826751,
				"y": -3.4151109361,
				"z": -0.5025784612,
				"element": "H" 
			},
			{
				"x": 0.7179253258,
				"y": -2.3911679359,
				"z": 1.4948655108,
				"element": "H" 
			},
			{
				"x": 1.1854631103,
				"y": -0.3278511343,
				"z": 2.7355458454,
				"element": "H" 
			}
		],
		 "valence_orbital": [ 
			{
				"type": "occ",
				"energy": -0.31289,
				"method": "rhf"
			},
			{
				"type": "occ",
				"energy": -0.30811,
				"method": "rhf"
			},
			{
				"type": "occ",
				"energy": -0.27198,
				"method": "rhf"
			},
			{
				"type": "occ",
				"energy": -0.26117,
				"method": "rhf"
			},
			{
				"type": "occ",
				"energy": -0.20517,
				"method": "rhf"
			},
			{
				"type": "unocc",
				"energy": -0.04286,
				"method": "rhf"
			},
			{
				"type": "unocc",
				"energy": 0.00423,
				"method": "rhf"
			},
			{
				"type": "unocc",
				"energy": 0.05254,
				"method": "rhf"
			},
			{
				"type": "unocc",
				"energy": 0.06676,
				"method": "rhf"
			},
			{
				"type": "unocc",
				"energy": 0.09145,
				"method": "rhf"
			}
		],
		"cosmo_sigma_profile": { 
			"-0.025": 0.0,
			"-0.024": 0.0,
			"-0.023": 0.0,
			"-0.022": 0.0,
			"-0.021": 0.0,
			"-0.02": 0.0,
			"-0.019": 0.0,
			"-0.018": 0.355611643597,
			"-0.017": 0.804586154888,
			"-0.016": 0.977044474984,
			"-0.015": 0.711457719739,
			"-0.014": 1.53021563112,
			"-0.013": 1.69526756262,
			"-0.012": 2.0945824316,
			"-0.011": 2.5000582639,
			"-0.01": 2.46639064135,
			"-0.009": 2.74743810198,
			"-0.008": 3.34549388784,
			"-0.007": 3.7654439373,
			"-0.006": 6.15542892983,
			"-0.005": 7.62705321258,
			"-0.004": 9.19337340855,
			"-0.003": 15.4281777603,
			"-0.002": 17.2199732136,
			"-0.001": 17.8673886806,
			"0.0": 18.7183793787,
			"0.001": 16.3535668644,
			"0.002": 13.4708956341,
			"0.003": 11.6996310017,
			"0.004": 11.582937645,
			"0.005": 10.8795918728,
			"0.006": 3.6237556556,
			"0.007": 3.33902956491,
			"0.008": 3.15782272002,
			"0.009": 3.34793040421,
			"0.01": 4.71749441706,
			"0.011": 4.58133869953,
			"0.012": 3.15884077386,
			"0.013": 2.09601361651,
			"0.014": 0.619537350243,
			"0.015": 0.0,
			"0.016": 0.0,
			"0.017": 0.0,
			"0.018": 0.0,
			"0.019": 0.0,
			"0.02": 0.0,
			"0.021": 0.0,
			"0.022": 0.0,
			"0.023": 0.0,
			"0.024": 0.0,
			"0.025": 0.0
		}
	}
}
