{
	 "smiles": "FC(F)(F)C(=O)NCC1=CC=CC=N1", 
	 "Tm": 348.15, 
	 "num_atms": 21, 
	 "gaussian": { 
		 "optdone": 1, 
		 "sigma_profile": "yes", 
		 "theory": "DFT", 
		 "functional": "B3LYP", 
		 "basiset": "6-31G**", 
		 "properties": { 
			 "R2extent": 3502.5065, 
			 "electric_dipole_moment_norm": 3.01649061825, 
			 "electric_quadrupole_moment_norm": 11.0991053459, 
			 "total_energy": -793.325499184, 
			 "HOMO_LUMO_gap": 0.22777, 
			 "cosmo_polarized_energy": -10.83, 
			 "cosmo_cavitation_energy": 27.55, 
			 "cosmo_dispersion_energy": -19.32, 
			 "cosmo_repulsion_energy": 1.48, 
			 "cosmo_total_nonelectrostatic_energy": 9.71, 
			 "SMD_solvation_energy": 4.62 
		},
		"coords": [
			{
				"x": -3.4624000173,
				"y": -1.0638344801,
				"z": 0.4451507239,
				"element": "F" 
			},
			{
				"x": -2.7692412473,
				"y": -0.8480745727,
				"z": 1.5937179277,
				"element": "C" 
			},
			{
				"x": -3.1093625818,
				"y": 0.3613793482,
				"z": 2.0558923821,
				"element": "F" 
			},
			{
				"x": -3.1600938621,
				"y": -1.7698046846,
				"z": 2.4858085594,
				"element": "F" 
			},
			{
				"x": -1.2395990045,
				"y": -0.9285555846,
				"z": 1.3777774545,
				"element": "C" 
			},
			{
				"x": -0.4877335869,
				"y": -0.6499541386,
				"z": 2.2985013433,
				"element": "O" 
			},
			{
				"x": -0.8708844209,
				"y": -1.3469995861,
				"z": 0.1462030049,
				"element": "N" 
			},
			{
				"x": 0.5384510395,
				"y": -1.462656636,
				"z": -0.2324672111,
				"element": "C" 
			},
			{
				"x": 1.0828524534,
				"y": -0.1955627294,
				"z": -0.8678181803,
				"element": "C" 
			},
			{
				"x": 1.4684887256,
				"y": 0.8957321219,
				"z": -0.0780407845,
				"element": "C" 
			},
			{
				"x": 1.9423987688,
				"y": 2.0419697333,
				"z": -0.7117850768,
				"element": "C" 
			},
			{
				"x": 2.014926729,
				"y": 2.0588007116,
				"z": -2.1051619133,
				"element": "C" 
			},
			{
				"x": 1.6044430275,
				"y": 0.9226498277,
				"z": -2.8022536809,
				"element": "C" 
			},
			{
				"x": 1.1454937948,
				"y": -0.1864812434,
				"z": -2.2075964483,
				"element": "N" 
			},
			{
				"x": -1.580940612,
				"y": -1.4485313706,
				"z": -0.5643851317,
				"element": "H" 
			},
			{
				"x": 1.0893859168,
				"y": -1.7079582571,
				"z": 0.678183826,
				"element": "H" 
			},
			{
				"x": 0.6349478849,
				"y": -2.2819332692,
				"z": -0.9475741737,
				"element": "H" 
			},
			{
				"x": 1.3848985355,
				"y": 0.8348474758,
				"z": 1.0023534735,
				"element": "H" 
			},
			{
				"x": 2.2522669869,
				"y": 2.9049142043,
				"z": -0.129374879,
				"element": "H" 
			},
			{
				"x": 2.3808546925,
				"y": 2.928750623,
				"z": -2.6412249479,
				"element": "H" 
			},
			{
				"x": 1.6464467778,
				"y": 0.8983025068,
				"z": -3.8898062677,
				"element": "H" 
			}
		],
		 "valence_orbital": [ 
			{
				"type": "occ",
				"energy": -0.2951,
				"method": "rhf"
			},
			{
				"type": "occ",
				"energy": -0.28642,
				"method": "rhf"
			},
			{
				"type": "occ",
				"energy": -0.27679,
				"method": "rhf"
			},
			{
				"type": "occ",
				"energy": -0.26577,
				"method": "rhf"
			},
			{
				"type": "occ",
				"energy": -0.26106,
				"method": "rhf"
			},
			{
				"type": "unocc",
				"energy": -0.03329,
				"method": "rhf"
			},
			{
				"type": "unocc",
				"energy": -0.02476,
				"method": "rhf"
			},
			{
				"type": "unocc",
				"energy": -0.00779,
				"method": "rhf"
			},
			{
				"type": "unocc",
				"energy": 0.08695,
				"method": "rhf"
			},
			{
				"type": "unocc",
				"energy": 0.09423,
				"method": "rhf"
			}
		],
		"cosmo_sigma_profile": { 
			"-0.025": 0.0,
			"-0.024": 0.0,
			"-0.023": 0.0,
			"-0.022": 0.0,
			"-0.021": 0.0,
			"-0.02": 0.0,
			"-0.019": 0.0,
			"-0.018": 0.0,
			"-0.017": 0.0,
			"-0.016": 0.0779064130762,
			"-0.015": 0.767917301035,
			"-0.014": 0.745975155457,
			"-0.013": 0.792576381248,
			"-0.012": 0.765056352863,
			"-0.011": 1.32752318768,
			"-0.01": 1.21367555132,
			"-0.009": 1.15865583351,
			"-0.008": 1.91068683346,
			"-0.007": 7.68629489819,
			"-0.006": 11.6356441459,
			"-0.005": 15.1780733238,
			"-0.004": 13.6007897908,
			"-0.003": 13.0003078205,
			"-0.002": 11.7809418424,
			"-0.001": 12.6406316805,
			"0.0": 14.6640543923,
			"0.001": 22.3704160221,
			"0.002": 41.9758265059,
			"0.003": 15.7811931478,
			"0.004": 4.63117695126,
			"0.005": 3.65534156037,
			"0.006": 2.76821381503,
			"0.007": 2.07205312168,
			"0.008": 2.99638161653,
			"0.009": 2.33863015588,
			"0.01": 3.21552849859,
			"0.011": 3.39029181645,
			"0.012": 3.94478181666,
			"0.013": 0.749073094028,
			"0.014": 1.13833839143,
			"0.015": 0.671155818023,
			"0.016": 0.211767653327,
			"0.017": 0.0,
			"0.018": 0.0,
			"0.019": 0.0,
			"0.02": 0.0,
			"0.021": 0.0,
			"0.022": 0.0,
			"0.023": 0.0,
			"0.024": 0.0,
			"0.025": 0.0
		}
	}
}
