{
	 "smiles": "COC1=CC(Cl)=C(OC)C=C1", 
	 "Tm": 281.25, 
	 "num_atms": 20, 
	 "gaussian": { 
		 "optdone": 1, 
		 "sigma_profile": "yes", 
		 "theory": "DFT", 
		 "functional": "B3LYP", 
		 "basiset": "6-31G**", 
		 "properties": { 
			 "R2extent": 2656.4469, 
			 "electric_dipole_moment_norm": 2.09452228682, 
			 "electric_quadrupole_moment_norm": 12.3666839541, 
			 "total_energy": -920.883035058, 
			 "HOMO_LUMO_gap": 0.20595, 
			 "cosmo_polarized_energy": -7.28, 
			 "cosmo_cavitation_energy": 25.53, 
			 "cosmo_dispersion_energy": -18.81, 
			 "cosmo_repulsion_energy": 1.52, 
			 "cosmo_total_nonelectrostatic_energy": 8.24, 
			 "SMD_solvation_energy": 5.72 
		},
		"coords": [
			{
				"x": -0.3193999856,
				"y": 2.9580698337,
				"z": 1.6941740743,
				"element": "C" 
			},
			{
				"x": 0.412313135,
				"y": 1.7448468737,
				"z": 1.6128332808,
				"element": "O" 
			},
			{
				"x": -0.0519558686,
				"y": 0.7636059158,
				"z": 0.7870639116,
				"element": "C" 
			},
			{
				"x": -1.2061812628,
				"y": 0.8731414776,
				"z": 0.0045268871,
				"element": "C" 
			},
			{
				"x": -1.5875086583,
				"y": -0.199322315,
				"z": -0.8068165613,
				"element": "C" 
			},
			{
				"x": -3.0474894917,
				"y": -0.0485250177,
				"z": -1.7695212136,
				"element": "Cl" 
			},
			{
				"x": -0.8451831203,
				"y": -1.3836437418,
				"z": -0.8541587118,
				"element": "C" 
			},
			{
				"x": -1.2438347177,
				"y": -2.4614923741,
				"z": -1.605179336,
				"element": "O" 
			},
			{
				"x": -0.7670652474,
				"y": -2.4620893044,
				"z": -2.9526837393,
				"element": "C" 
			},
			{
				"x": 0.3060337096,
				"y": -1.4704362331,
				"z": -0.0599195641,
				"element": "C" 
			},
			{
				"x": 0.7035923601,
				"y": -0.4181437265,
				"z": 0.7526632329,
				"element": "C" 
			},
			{
				"x": 0.2211540804,
				"y": 3.5888177845,
				"z": 2.4013140354,
				"element": "H" 
			},
			{
				"x": -0.3696074568,
				"y": 3.4666297147,
				"z": 0.7226559133,
				"element": "H" 
			},
			{
				"x": -1.3389355528,
				"y": 2.7917786485,
				"z": 2.0652914375,
				"element": "H" 
			},
			{
				"x": -1.8169833864,
				"y": 1.7661298147,
				"z": 0.011125226,
				"element": "H" 
			},
			{
				"x": 0.3303336873,
				"y": -2.464733081,
				"z": -2.9847016985,
				"element": "H" 
			},
			{
				"x": -1.1416354751,
				"y": -1.596016286,
				"z": -3.5107479799,
				"element": "H" 
			},
			{
				"x": -1.1445918837,
				"y": -3.3776468081,
				"z": -3.4122441642,
				"element": "H" 
			},
			{
				"x": 0.8741476361,
				"y": -2.3950997699,
				"z": -0.0859515325,
				"element": "H" 
			},
			{
				"x": 1.5910974989,
				"y": -0.4869714057,
				"z": 1.3722765023,
				"element": "H" 
			}
		],
		 "valence_orbital": [ 
			{
				"type": "occ",
				"energy": -0.30895,
				"method": "rhf"
			},
			{
				"type": "occ",
				"energy": -0.30299,
				"method": "rhf"
			},
			{
				"type": "occ",
				"energy": -0.27336,
				"method": "rhf"
			},
			{
				"type": "occ",
				"energy": -0.25147,
				"method": "rhf"
			},
			{
				"type": "occ",
				"energy": -0.2187,
				"method": "rhf"
			},
			{
				"type": "unocc",
				"energy": -0.01275,
				"method": "rhf"
			},
			{
				"type": "unocc",
				"energy": 0.00657,
				"method": "rhf"
			},
			{
				"type": "unocc",
				"energy": 0.03108,
				"method": "rhf"
			},
			{
				"type": "unocc",
				"energy": 0.09872,
				"method": "rhf"
			},
			{
				"type": "unocc",
				"energy": 0.10771,
				"method": "rhf"
			}
		],
		"cosmo_sigma_profile": { 
			"-0.025": 0.0,
			"-0.024": 0.0,
			"-0.023": 0.0,
			"-0.022": 0.0,
			"-0.021": 0.0,
			"-0.02": 0.0,
			"-0.019": 0.0,
			"-0.018": 0.0,
			"-0.017": 0.0,
			"-0.016": 0.0,
			"-0.015": 0.0,
			"-0.014": 0.0,
			"-0.013": 0.0,
			"-0.012": 0.0,
			"-0.011": 0.0,
			"-0.01": 0.0,
			"-0.009": 0.0,
			"-0.008": 0.299486088549,
			"-0.007": 4.03603423539,
			"-0.006": 11.9256649633,
			"-0.005": 16.3537238733,
			"-0.004": 19.36622179,
			"-0.003": 22.1676874693,
			"-0.002": 15.1226079388,
			"-0.001": 12.0177417537,
			"0.0": 10.3532696184,
			"0.001": 12.5090531779,
			"0.002": 16.5371092208,
			"0.003": 22.6765842605,
			"0.004": 15.4578182345,
			"0.005": 8.76316541535,
			"0.006": 3.37293518056,
			"0.007": 2.80495548438,
			"0.008": 2.68044661685,
			"0.009": 3.42551811107,
			"0.01": 2.71101609208,
			"0.011": 1.71113232139,
			"0.012": 0.92389562783,
			"0.013": 0.0,
			"0.014": 0.0,
			"0.015": 0.0,
			"0.016": 0.0,
			"0.017": 0.0,
			"0.018": 0.0,
			"0.019": 0.0,
			"0.02": 0.0,
			"0.021": 0.0,
			"0.022": 0.0,
			"0.023": 0.0,
			"0.024": 0.0,
			"0.025": 0.0
		}
	}
}
