{
	 "smiles": "[O-][N+](=O)C1=CC=C(C=C1)C1=CC=C(O1)C=C1N=C(OC1=O)C1=CC=CC=C1", 
	 "Tm": 481.15, 
	 "num_atms": 39, 
	 "gaussian": { 
		 "optdone": 1, 
		 "sigma_profile": "yes", 
		 "theory": "DFT", 
		 "functional": "B3LYP", 
		 "basiset": "6-31G**", 
		 "properties": { 
			 "R2extent": 21669.4572, 
			 "electric_dipole_moment_norm": 5.29048689631, 
			 "electric_quadrupole_moment_norm": 33.9557158882, 
			 "total_energy": -1254.87899633, 
			 "HOMO_LUMO_gap": 0.1011, 
			 "cosmo_polarized_energy": -15.53, 
			 "cosmo_cavitation_energy": 46.96, 
			 "cosmo_dispersion_energy": -34.27, 
			 "cosmo_repulsion_energy": 2.49, 
			 "cosmo_total_nonelectrostatic_energy": 15.18, 
			 "SMD_solvation_energy": 9.89 
		},
		"coords": [
			{
				"x": -4.2050907875,
				"y": 8.4361883216,
				"z": -1.9204735336,
				"element": "O" 
			},
			{
				"x": -3.7632399001,
				"y": 7.4975853183,
				"z": -2.5845231545,
				"element": "N" 
			},
			{
				"x": -3.6453462242,
				"y": 7.4997323218,
				"z": -3.81040042,
				"element": "O" 
			},
			{
				"x": -3.3474843582,
				"y": 6.2900957302,
				"z": -1.8628325498,
				"element": "C" 
			},
			{
				"x": -3.4682983694,
				"y": 6.2550405555,
				"z": -0.4727960751,
				"element": "C" 
			},
			{
				"x": -3.0741247089,
				"y": 5.1115881647,
				"z": 0.2060297435,
				"element": "C" 
			},
			{
				"x": -2.5588884501,
				"y": 3.9995460935,
				"z": -0.4919116126,
				"element": "C" 
			},
			{
				"x": -2.4498070801,
				"y": 4.0669077716,
				"z": -1.8960519389,
				"element": "C" 
			},
			{
				"x": -2.842194291,
				"y": 5.2077484353,
				"z": -2.5827830649,
				"element": "C" 
			},
			{
				"x": -2.1486590349,
				"y": 2.8074698252,
				"z": 0.226835804,
				"element": "C" 
			},
			{
				"x": -2.1410225139,
				"y": 2.4668925214,
				"z": 1.5671156873,
				"element": "C" 
			},
			{
				"x": -1.6233626142,
				"y": 1.1589225575,
				"z": 1.6605516909,
				"element": "C" 
			},
			{
				"x": -1.3335938141,
				"y": 0.7497403035,
				"z": 0.3667270953,
				"element": "C" 
			},
			{
				"x": -1.6601348701,
				"y": 1.7694641446,
				"z": -0.5036251433,
				"element": "O" 
			},
			{
				"x": -0.8052457189,
				"y": -0.411507612,
				"z": -0.2601223037,
				"element": "C" 
			},
			{
				"x": -0.3821525629,
				"y": -1.5917910417,
				"z": 0.2850982919,
				"element": "C" 
			},
			{
				"x": 0.1141046111,
				"y": -2.6366919655,
				"z": -0.4921027838,
				"element": "N" 
			},
			{
				"x": 0.4159711433,
				"y": -3.5837492711,
				"z": 0.3377601744,
				"element": "C" 
			},
			{
				"x": 0.1748432057,
				"y": -3.3040274342,
				"z": 1.6682528912,
				"element": "O" 
			},
			{
				"x": -0.3505798125,
				"y": -2.0094574582,
				"z": 1.703351629,
				"element": "C" 
			},
			{
				"x": -0.6647821811,
				"y": -1.4786465144,
				"z": 2.7413743007,
				"element": "O" 
			},
			{
				"x": 0.9736151145,
				"y": -4.8904789397,
				"z": 0.0196936188,
				"element": "C" 
			},
			{
				"x": 1.2525237488,
				"y": -5.8228093508,
				"z": 1.0328233992,
				"element": "C" 
			},
			{
				"x": 1.7860402145,
				"y": -7.0664758638,
				"z": 0.7022858996,
				"element": "C" 
			},
			{
				"x": 2.04387374,
				"y": -7.3880728061,
				"z": -0.632235414,
				"element": "C" 
			},
			{
				"x": 1.7667804192,
				"y": -6.4609209183,
				"z": -1.6428370967,
				"element": "C" 
			},
			{
				"x": 1.2342797612,
				"y": -5.2171134025,
				"z": -1.323176515,
				"element": "C" 
			},
			{
				"x": -3.8656928294,
				"y": 7.1172176235,
				"z": 0.0476217554,
				"element": "H" 
			},
			{
				"x": -3.1658703334,
				"y": 5.0789765149,
				"z": 1.2864082057,
				"element": "H" 
			},
			{
				"x": -2.0550702378,
				"y": 3.217136089,
				"z": -2.4403824898,
				"element": "H" 
			},
			{
				"x": -2.765310126,
				"y": 5.2764852988,
				"z": -3.6605920565,
				"element": "H" 
			},
			{
				"x": -2.4701173329,
				"y": 3.0875099071,
				"z": 2.3876376754,
				"element": "H" 
			},
			{
				"x": -1.4675574586,
				"y": 0.5602624872,
				"z": 2.5440020242,
				"element": "H" 
			},
			{
				"x": -0.7263511084,
				"y": -0.3480106677,
				"z": -1.3423266,
				"element": "H" 
			},
			{
				"x": 1.0497171343,
				"y": -5.5660458483,
				"z": 2.0665830586,
				"element": "H" 
			},
			{
				"x": 2.0008471699,
				"y": -7.7855363486,
				"z": 1.4869772869,
				"element": "H" 
			},
			{
				"x": 2.4598566369,
				"y": -8.3587723677,
				"z": -0.8858734918,
				"element": "H" 
			},
			{
				"x": 1.9673089526,
				"y": -6.7112097769,
				"z": -2.6802469768,
				"element": "H" 
			},
			{
				"x": 1.0130148665,
				"y": -4.4855923978,
				"z": -2.0928370113,
				"element": "H" 
			}
		],
		 "valence_orbital": [ 
			{
				"type": "occ",
				"energy": -0.2846,
				"method": "rhf"
			},
			{
				"type": "occ",
				"energy": -0.28099,
				"method": "rhf"
			},
			{
				"type": "occ",
				"energy": -0.26837,
				"method": "rhf"
			},
			{
				"type": "occ",
				"energy": -0.26315,
				"method": "rhf"
			},
			{
				"type": "occ",
				"energy": -0.21318,
				"method": "rhf"
			},
			{
				"type": "unocc",
				"energy": -0.11208,
				"method": "rhf"
			},
			{
				"type": "unocc",
				"energy": -0.08464,
				"method": "rhf"
			},
			{
				"type": "unocc",
				"energy": -0.0425,
				"method": "rhf"
			},
			{
				"type": "unocc",
				"energy": -0.03258,
				"method": "rhf"
			},
			{
				"type": "unocc",
				"energy": -0.02468,
				"method": "rhf"
			}
		],
		"cosmo_sigma_profile": { 
			"-0.025": 0.0,
			"-0.024": 0.0,
			"-0.023": 0.0,
			"-0.022": 0.0,
			"-0.021": 0.0,
			"-0.02": 0.0,
			"-0.019": 0.0,
			"-0.018": 0.0,
			"-0.017": 0.0,
			"-0.016": 0.0,
			"-0.015": 0.0,
			"-0.014": 0.0,
			"-0.013": 0.0,
			"-0.012": 0.0,
			"-0.011": 0.0,
			"-0.01": 0.721954223284,
			"-0.009": 3.55210254011,
			"-0.008": 6.34303571201,
			"-0.007": 11.4417270692,
			"-0.006": 21.617289687,
			"-0.005": 22.178473196,
			"-0.004": 24.4255465319,
			"-0.003": 19.8753661772,
			"-0.002": 27.2304617385,
			"-0.001": 38.0930822651,
			"0.0": 43.5980110179,
			"0.001": 40.6165430496,
			"0.002": 27.721665734,
			"0.003": 20.3076719434,
			"0.004": 17.2342062645,
			"0.005": 7.02676452941,
			"0.006": 7.30444926329,
			"0.007": 11.3552984271,
			"0.008": 11.6817387519,
			"0.009": 7.37095730094,
			"0.01": 6.97808409254,
			"0.011": 2.98155865897,
			"0.012": 1.06041887137,
			"0.013": 0.058632415813,
			"0.014": 0.0,
			"0.015": 0.0,
			"0.016": 0.0,
			"0.017": 0.0,
			"0.018": 0.0,
			"0.019": 0.0,
			"0.02": 0.0,
			"0.021": 0.0,
			"0.022": 0.0,
			"0.023": 0.0,
			"0.024": 0.0,
			"0.025": 0.0
		}
	}
}
