{
	 "smiles": "CN(CC[C@H](N)CC(=O)N[C@@H]1C=C[C@H](O[C@H]1C(O)=O)N1C=CC(N)=NC1=O)C(N)=N", 
	 "Tm": 508.15, 
	 "num_atms": 56, 
	 "gaussian": { 
		 "optdone": 1, 
		 "sigma_profile": "yes", 
		 "theory": "DFT", 
		 "functional": "B3LYP", 
		 "basiset": "6-31G**", 
		 "properties": { 
			 "R2extent": 15680.8185, 
			 "electric_dipole_moment_norm": 6.01760521304, 
			 "electric_quadrupole_moment_norm": 47.2432101069, 
			 "total_energy": -1477.62404928, 
			 "HOMO_LUMO_gap": 0.16548, 
			 "cosmo_polarized_energy": -41.41, 
			 "cosmo_cavitation_energy": 57.37, 
			 "cosmo_dispersion_energy": -37.48, 
			 "cosmo_repulsion_energy": 2.81, 
			 "cosmo_total_nonelectrostatic_energy": 22.7, 
			 "SMD_solvation_energy": 8.02 
		},
		"coords": [
			{
				"x": -0.6682660803,
				"y": 3.7074445026,
				"z": -2.9779072356,
				"element": "C" 
			},
			{
				"x": 0.6057613102,
				"y": 3.468801087,
				"z": -2.3007348553,
				"element": "N" 
			},
			{
				"x": 1.0657540674,
				"y": 4.4319196599,
				"z": -1.2988454967,
				"element": "C" 
			},
			{
				"x": 1.3573264802,
				"y": 3.7904258839,
				"z": 0.0752745641,
				"element": "C" 
			},
			{
				"x": 0.2479053512,
				"y": 3.9313801558,
				"z": 1.1310203148,
				"element": "C" 
			},
			{
				"x": 0.6552511528,
				"y": 3.1641033168,
				"z": 2.3306909372,
				"element": "N" 
			},
			{
				"x": -1.1611789716,
				"y": 3.4827504108,
				"z": 0.6933105554,
				"element": "C" 
			},
			{
				"x": -1.4036687886,
				"y": 2.0306405039,
				"z": 0.2801522851,
				"element": "C" 
			},
			{
				"x": -2.3225559285,
				"y": 1.7356051428,
				"z": -0.4858589646,
				"element": "O" 
			},
			{
				"x": -0.599905509,
				"y": 1.0931982247,
				"z": 0.847997465,
				"element": "N" 
			},
			{
				"x": -0.8613970587,
				"y": -0.3321724514,
				"z": 0.6909027727,
				"element": "C" 
			},
			{
				"x": -0.0879776445,
				"y": -1.0826565215,
				"z": 1.7480872824,
				"element": "C" 
			},
			{
				"x": 0.5917428391,
				"y": -2.2012755614,
				"z": 1.5031526875,
				"element": "C" 
			},
			{
				"x": 0.5843429502,
				"y": -2.8505948436,
				"z": 0.1436400921,
				"element": "C" 
			},
			{
				"x": -0.3858625237,
				"y": -2.2876429701,
				"z": -0.7165845261,
				"element": "O" 
			},
			{
				"x": -0.4563018142,
				"y": -0.8614026506,
				"z": -0.7116919954,
				"element": "C" 
			},
			{
				"x": -1.4684452792,
				"y": -0.5431009039,
				"z": -1.8137387955,
				"element": "C" 
			},
			{
				"x": -2.660989477,
				"y": -1.1094102044,
				"z": -1.5716796702,
				"element": "O" 
			},
			{
				"x": -1.2223899198,
				"y": 0.074060809,
				"z": -2.8285132263,
				"element": "O" 
			},
			{
				"x": 0.2545037939,
				"y": -4.2849378023,
				"z": 0.2468883241,
				"element": "N" 
			},
			{
				"x": -1.0057893005,
				"y": -4.7501706078,
				"z": 0.0448824411,
				"element": "C" 
			},
			{
				"x": -1.2774874819,
				"y": -6.0786937869,
				"z": 0.1594058665,
				"element": "C" 
			},
			{
				"x": -0.1725826876,
				"y": -6.9328190368,
				"z": 0.4878309213,
				"element": "C" 
			},
			{
				"x": -0.3767793939,
				"y": -8.2740432297,
				"z": 0.6198406935,
				"element": "N" 
			},
			{
				"x": 1.0550814245,
				"y": -6.4917919878,
				"z": 0.6996088115,
				"element": "N" 
			},
			{
				"x": 1.3302886851,
				"y": -5.1565535516,
				"z": 0.6299516223,
				"element": "C" 
			},
			{
				"x": 2.4206482861,
				"y": -4.6473228248,
				"z": 0.8685829716,
				"element": "O" 
			},
			{
				"x": 1.5893944552,
				"y": 2.6608426483,
				"z": -2.8589877813,
				"element": "C" 
			},
			{
				"x": 1.1172477315,
				"y": 1.7340093,
				"z": -3.7940447058,
				"element": "N" 
			},
			{
				"x": 2.8209039605,
				"y": 2.8308894082,
				"z": -2.5035636074,
				"element": "N" 
			},
			{
				"x": -0.8478329329,
				"y": 4.7854984523,
				"z": -3.0736459778,
				"element": "H" 
			},
			{
				"x": -0.6347479309,
				"y": 3.2878685848,
				"z": -3.9838385049,
				"element": "H" 
			},
			{
				"x": -1.5117728242,
				"y": 3.2549648227,
				"z": -2.4427793751,
				"element": "H" 
			},
			{
				"x": 0.2976126697,
				"y": 5.2068317333,
				"z": -1.2052161235,
				"element": "H" 
			},
			{
				"x": 1.9803273156,
				"y": 4.9093912202,
				"z": -1.663344572,
				"element": "H" 
			},
			{
				"x": 1.6019885201,
				"y": 2.737085739,
				"z": -0.079179985,
				"element": "H" 
			},
			{
				"x": 2.2619006064,
				"y": 4.2509259746,
				"z": 0.4938980647,
				"element": "H" 
			},
			{
				"x": 0.1531954626,
				"y": 5.0074091685,
				"z": 1.359569527,
				"element": "H" 
			},
			{
				"x": 0.0777272879,
				"y": 3.4201989271,
				"z": 3.1292604897,
				"element": "H" 
			},
			{
				"x": 1.6153568469,
				"y": 3.3929262281,
				"z": 2.5778047894,
				"element": "H" 
			},
			{
				"x": -1.509176717,
				"y": 4.0992102242,
				"z": -0.1379024296,
				"element": "H" 
			},
			{
				"x": -1.8604734651,
				"y": 3.6831013954,
				"z": 1.5185470825,
				"element": "H" 
			},
			{
				"x": 0.0950053255,
				"y": 1.4341125222,
				"z": 1.5187849237,
				"element": "H" 
			},
			{
				"x": -1.9402672007,
				"y": -0.4990968291,
				"z": 0.8103025232,
				"element": "H" 
			},
			{
				"x": -0.0869214114,
				"y": -0.6439530365,
				"z": 2.7440731599,
				"element": "H" 
			},
			{
				"x": 1.1905049357,
				"y": -2.6974400331,
				"z": 2.2593408253,
				"element": "H" 
			},
			{
				"x": 1.5879675606,
				"y": -2.8066958858,
				"z": -0.299459296,
				"element": "H" 
			},
			{
				"x": 0.5042994347,
				"y": -0.418448665,
				"z": -1.0028080615,
				"element": "H" 
			},
			{
				"x": -3.2514098677,
				"y": -0.8225009107,
				"z": -2.2882713591,
				"element": "H" 
			},
			{
				"x": -1.7461745902,
				"y": -4.0078766694,
				"z": -0.225646916,
				"element": "H" 
			},
			{
				"x": -2.2777527793,
				"y": -6.4610750956,
				"z": -0.0002816217,
				"element": "H" 
			},
			{
				"x": 0.4481090527,
				"y": -8.8474829185,
				"z": 0.7138915438,
				"element": "H" 
			},
			{
				"x": -1.2128205855,
				"y": -8.6999879013,
				"z": 0.255608855,
				"element": "H" 
			},
			{
				"x": 1.8383772226,
				"y": 1.0949405761,
				"z": -4.0999861602,
				"element": "H" 
			},
			{
				"x": 0.2698588856,
				"y": 1.2376023894,
				"z": -3.5259956681,
				"element": "H" 
			},
			{
				"x": 3.4127445497,
				"y": 2.113807868,
				"z": -2.9215954819,
				"element": "H" 
			}
		],
		 "valence_orbital": [ 
			{
				"type": "occ",
				"energy": -0.24516,
				"method": "rhf"
			},
			{
				"type": "occ",
				"energy": -0.2439,
				"method": "rhf"
			},
			{
				"type": "occ",
				"energy": -0.22539,
				"method": "rhf"
			},
			{
				"type": "occ",
				"energy": -0.22262,
				"method": "rhf"
			},
			{
				"type": "occ",
				"energy": -0.19385,
				"method": "rhf"
			},
			{
				"type": "unocc",
				"energy": -0.02837,
				"method": "rhf"
			},
			{
				"type": "unocc",
				"energy": -0.01315,
				"method": "rhf"
			},
			{
				"type": "unocc",
				"energy": 0.00022,
				"method": "rhf"
			},
			{
				"type": "unocc",
				"energy": 0.02191,
				"method": "rhf"
			},
			{
				"type": "unocc",
				"energy": 0.02345,
				"method": "rhf"
			}
		],
		"cosmo_sigma_profile": { 
			"-0.025": 0.0,
			"-0.024": 0.0,
			"-0.023": 0.0,
			"-0.022": 0.0,
			"-0.021": 0.0,
			"-0.02": 0.0,
			"-0.019": 0.313608712895,
			"-0.018": 1.0966129689,
			"-0.017": 1.05399661238,
			"-0.016": 0.342545223345,
			"-0.015": 1.12834150898,
			"-0.014": 2.88278053284,
			"-0.013": 3.31920628727,
			"-0.012": 5.3591627402,
			"-0.011": 5.52704379939,
			"-0.01": 7.46484821563,
			"-0.009": 7.38813570165,
			"-0.008": 11.3832043148,
			"-0.007": 14.6698172246,
			"-0.006": 18.6074598601,
			"-0.005": 22.2968622426,
			"-0.004": 27.2868356878,
			"-0.003": 33.4987484712,
			"-0.002": 32.1639066346,
			"-0.001": 35.7263589925,
			"0.0": 31.8956994447,
			"0.001": 25.4615590368,
			"0.002": 29.0291380496,
			"0.003": 19.0646141146,
			"0.004": 16.8696824286,
			"0.005": 14.451282642,
			"0.006": 13.0282706931,
			"0.007": 11.5125471437,
			"0.008": 7.9127637909,
			"0.009": 5.7676373083,
			"0.01": 5.91524008576,
			"0.011": 5.14030952655,
			"0.012": 6.04087461385,
			"0.013": 6.29578863699,
			"0.014": 7.90597798879,
			"0.015": 4.72053327339,
			"0.016": 3.56342719366,
			"0.017": 2.69112131158,
			"0.018": 1.0647635826,
			"0.019": 0.346889918091,
			"0.02": 0.0,
			"0.021": 0.0,
			"0.022": 0.0,
			"0.023": 0.0,
			"0.024": 0.0,
			"0.025": 0.0
		}
	}
}
