{
	 "smiles": "O=C(CC#N)C1=CSC=C1", 
	 "Tm": 366.15, 
	 "num_atms": 15, 
	 "gaussian": { 
		 "optdone": 1, 
		 "sigma_profile": "yes", 
		 "theory": "DFT", 
		 "functional": "B3LYP", 
		 "basiset": "6-31G**", 
		 "properties": { 
			 "R2extent": 2589.8687, 
			 "electric_dipole_moment_norm": 6.42498323344, 
			 "electric_quadrupole_moment_norm": 16.0488006203, 
			 "total_energy": -797.878406724, 
			 "HOMO_LUMO_gap": 0.19339, 
			 "cosmo_polarized_energy": -16.28, 
			 "cosmo_cavitation_energy": 22.65, 
			 "cosmo_dispersion_energy": -16.53, 
			 "cosmo_repulsion_energy": 1.29, 
			 "cosmo_total_nonelectrostatic_energy": 7.41, 
			 "SMD_solvation_energy": 6.17 
		},
		"coords": [
			{
				"x": 1.3967580969,
				"y": -0.8514510486,
				"z": -2.0564184716,
				"element": "O" 
			},
			{
				"x": 0.5200375507,
				"y": -1.0694116886,
				"z": -1.2425397868,
				"element": "C" 
			},
			{
				"x": 0.6813813844,
				"y": -2.1603173099,
				"z": -0.1629569038,
				"element": "C" 
			},
			{
				"x": 1.9584640602,
				"y": -2.8645410858,
				"z": -0.2385877048,
				"element": "C" 
			},
			{
				"x": 2.9622825458,
				"y": -3.4439062584,
				"z": -0.2700059164,
				"element": "N" 
			},
			{
				"x": -0.7558106442,
				"y": -0.3152162862,
				"z": -1.2226952002,
				"element": "C" 
			},
			{
				"x": -0.9983514325,
				"y": 0.680031126,
				"z": -2.1449640766,
				"element": "C" 
			},
			{
				"x": -2.5386011745,
				"y": 1.4038714941,
				"z": -1.9183020315,
				"element": "S" 
			},
			{
				"x": -2.8867109297,
				"y": 0.3700323599,
				"z": -0.5651883893,
				"element": "C" 
			},
			{
				"x": -1.8552031546,
				"y": -0.4867829589,
				"z": -0.3126121665,
				"element": "C" 
			},
			{
				"x": 0.5778855827,
				"y": -1.7039696889,
				"z": 0.8296410963,
				"element": "H" 
			},
			{
				"x": -0.1375510776,
				"y": -2.8847490424,
				"z": -0.2565459041,
				"element": "H" 
			},
			{
				"x": -0.3299540557,
				"y": 0.9993401059,
				"z": -2.9319693688,
				"element": "H" 
			},
			{
				"x": -3.8286339375,
				"y": 0.459343161,
				"z": -0.0423365014,
				"element": "H" 
			},
			{
				"x": -1.8806928143,
				"y": -1.2117728792,
				"z": 0.4923813255,
				"element": "H" 
			}
		],
		 "valence_orbital": [ 
			{
				"type": "occ",
				"energy": -0.32955,
				"method": "rhf"
			},
			{
				"type": "occ",
				"energy": -0.32688,
				"method": "rhf"
			},
			{
				"type": "occ",
				"energy": -0.28107,
				"method": "rhf"
			},
			{
				"type": "occ",
				"energy": -0.27386,
				"method": "rhf"
			},
			{
				"type": "occ",
				"energy": -0.26381,
				"method": "rhf"
			},
			{
				"type": "unocc",
				"energy": -0.07042,
				"method": "rhf"
			},
			{
				"type": "unocc",
				"energy": -0.02352,
				"method": "rhf"
			},
			{
				"type": "unocc",
				"energy": 0.00579,
				"method": "rhf"
			},
			{
				"type": "unocc",
				"energy": 0.03383,
				"method": "rhf"
			},
			{
				"type": "unocc",
				"energy": 0.03574,
				"method": "rhf"
			}
		],
		"cosmo_sigma_profile": { 
			"-0.025": 0.0,
			"-0.024": 0.0,
			"-0.023": 0.0,
			"-0.022": 0.0,
			"-0.021": 0.0,
			"-0.02": 0.0,
			"-0.019": 0.0,
			"-0.018": 0.0,
			"-0.017": 0.0,
			"-0.016": 0.0,
			"-0.015": 0.0,
			"-0.014": 0.0,
			"-0.013": 0.0,
			"-0.012": 0.0,
			"-0.011": 1.05936549148,
			"-0.01": 8.17991389334,
			"-0.009": 11.0156760558,
			"-0.008": 10.0175853231,
			"-0.007": 8.22841964841,
			"-0.006": 6.84694904777,
			"-0.005": 7.72610028472,
			"-0.004": 7.37196417088,
			"-0.003": 7.26757353875,
			"-0.002": 6.90120019803,
			"-0.001": 8.69297818312,
			"0.0": 9.9417508206,
			"0.001": 14.7611282394,
			"0.002": 19.2714408791,
			"0.003": 9.64529109896,
			"0.004": 6.02654300545,
			"0.005": 3.27111491835,
			"0.006": 4.43661992164,
			"0.007": 4.6897730093,
			"0.008": 6.56890330788,
			"0.009": 5.5258924497,
			"0.01": 6.76546584454,
			"0.011": 6.64683300051,
			"0.012": 3.19125216722,
			"0.013": 1.41646681857,
			"0.014": 0.0211122064162,
			"0.015": 0.0,
			"0.016": 0.0,
			"0.017": 0.0,
			"0.018": 0.0,
			"0.019": 0.0,
			"0.02": 0.0,
			"0.021": 0.0,
			"0.022": 0.0,
			"0.023": 0.0,
			"0.024": 0.0,
			"0.025": 0.0
		}
	}
}
