{
	 "smiles": "CC1=CC=C(C=C1)N=NC1=CC=CC=C1", 
	 "Tm": 344.65, 
	 "num_atms": 27, 
	 "gaussian": { 
		 "optdone": 1, 
		 "sigma_profile": "yes", 
		 "theory": "DFT", 
		 "functional": "B3LYP", 
		 "basiset": "6-31G**", 
		 "properties": { 
			 "R2extent": 5455.6515, 
			 "electric_dipole_moment_norm": 0.688976443719, 
			 "electric_quadrupole_moment_norm": 15.3128026772, 
			 "total_energy": -612.085413599, 
			 "HOMO_LUMO_gap": 0.14387, 
			 "cosmo_polarized_energy": -6.65, 
			 "cosmo_cavitation_energy": 31.69, 
			 "cosmo_dispersion_energy": -23.2, 
			 "cosmo_repulsion_energy": 1.81, 
			 "cosmo_total_nonelectrostatic_energy": 10.3, 
			 "SMD_solvation_energy": 4.21 
		},
		"coords": [
			{
				"x": 0.5531536933,
				"y": -5.2051154684,
				"z": -3.1539983502,
				"element": "C" 
			},
			{
				"x": 0.1484448789,
				"y": -3.9623674877,
				"z": -2.39911478,
				"element": "C" 
			},
			{
				"x": 0.3691311579,
				"y": -3.8672500107,
				"z": -1.0113369013,
				"element": "C" 
			},
			{
				"x": 0.0072516697,
				"y": -2.7346890671,
				"z": -0.2975642441,
				"element": "C" 
			},
			{
				"x": -0.5942290589,
				"y": -1.6514890223,
				"z": -0.9645011899,
				"element": "C" 
			},
			{
				"x": -0.8188421228,
				"y": -1.7343838235,
				"z": -2.3435494771,
				"element": "C" 
			},
			{
				"x": -0.4508391611,
				"y": -2.8779403232,
				"z": -3.0502743433,
				"element": "C" 
			},
			{
				"x": -1.0061816602,
				"y": -0.4464003108,
				"z": -0.3464720222,
				"element": "N" 
			},
			{
				"x": -0.7972475185,
				"y": -0.3883345403,
				"z": 0.8959376234,
				"element": "N" 
			},
			{
				"x": -1.210764161,
				"y": 0.8201769538,
				"z": 1.5125434476,
				"element": "C" 
			},
			{
				"x": -1.8105913764,
				"y": 1.8992125385,
				"z": 0.8397090871,
				"element": "C" 
			},
			{
				"x": -2.1746761894,
				"y": 3.0360550078,
				"z": 1.5517897119,
				"element": "C" 
			},
			{
				"x": -1.9477693264,
				"y": 3.112105613,
				"z": 2.9323271211,
				"element": "C" 
			},
			{
				"x": -1.3523035635,
				"y": 2.0415453049,
				"z": 3.6017541315,
				"element": "C" 
			},
			{
				"x": -0.9847948131,
				"y": 0.8985266171,
				"z": 2.8934435146,
				"element": "C" 
			},
			{
				"x": 1.6327038956,
				"y": -5.3814141884,
				"z": -3.0793022051,
				"element": "H" 
			},
			{
				"x": 0.0559751688,
				"y": -6.0949906472,
				"z": -2.7506984303,
				"element": "H" 
			},
			{
				"x": 0.299048452,
				"y": -5.1308752814,
				"z": -4.2146790286,
				"element": "H" 
			},
			{
				"x": 0.8335360627,
				"y": -4.7015903093,
				"z": -0.4904550997,
				"element": "H" 
			},
			{
				"x": 0.1767983279,
				"y": -2.6609982878,
				"z": 0.7705650178,
				"element": "H" 
			},
			{
				"x": -1.2841561391,
				"y": -0.8887904598,
				"z": -2.8403594146,
				"element": "H" 
			},
			{
				"x": -0.6309867277,
				"y": -2.9297110912,
				"z": -4.1208263929,
				"element": "H" 
			},
			{
				"x": -1.9771972941,
				"y": 1.8199465721,
				"z": -0.2283884413,
				"element": "H" 
			},
			{
				"x": -2.6383354939,
				"y": 3.8710769871,
				"z": 1.0338697862,
				"element": "H" 
			},
			{
				"x": -2.2356084798,
				"y": 4.0045659601,
				"z": 3.4806552576,
				"element": "H" 
			},
			{
				"x": -1.1749685245,
				"y": 2.0971850513,
				"z": 4.6717674201,
				"element": "H" 
			},
			{
				"x": -0.5200516967,
				"y": 0.0498437135,
				"z": 3.3853582016,
				"element": "H" 
			}
		],
		 "valence_orbital": [ 
			{
				"type": "occ",
				"energy": -0.26663,
				"method": "rhf"
			},
			{
				"type": "occ",
				"energy": -0.25344,
				"method": "rhf"
			},
			{
				"type": "occ",
				"energy": -0.25312,
				"method": "rhf"
			},
			{
				"type": "occ",
				"energy": -0.22164,
				"method": "rhf"
			},
			{
				"type": "occ",
				"energy": -0.2208,
				"method": "rhf"
			},
			{
				"type": "unocc",
				"energy": -0.07693,
				"method": "rhf"
			},
			{
				"type": "unocc",
				"energy": -0.00344,
				"method": "rhf"
			},
			{
				"type": "unocc",
				"energy": -0.00151,
				"method": "rhf"
			},
			{
				"type": "unocc",
				"energy": 0.01143,
				"method": "rhf"
			},
			{
				"type": "unocc",
				"energy": 0.04855,
				"method": "rhf"
			}
		],
		"cosmo_sigma_profile": { 
			"-0.025": 0.0,
			"-0.024": 0.0,
			"-0.023": 0.0,
			"-0.022": 0.0,
			"-0.021": 0.0,
			"-0.02": 0.0,
			"-0.019": 0.0,
			"-0.018": 0.0,
			"-0.017": 0.0,
			"-0.016": 0.0,
			"-0.015": 0.0,
			"-0.014": 0.0,
			"-0.013": 0.0,
			"-0.012": 0.0,
			"-0.011": 0.0,
			"-0.01": 0.0,
			"-0.009": 0.0,
			"-0.008": 0.0,
			"-0.007": 0.669531621331,
			"-0.006": 10.7356179523,
			"-0.005": 20.5262276954,
			"-0.004": 23.6926213201,
			"-0.003": 21.6068980514,
			"-0.002": 18.554494351,
			"-0.001": 18.947937632,
			"0.0": 17.159841633,
			"0.001": 18.0910357823,
			"0.002": 27.4954064402,
			"0.003": 27.3788313554,
			"0.004": 28.2849280901,
			"0.005": 11.8154655406,
			"0.006": 3.24624396093,
			"0.007": 2.53532046301,
			"0.008": 3.01293280391,
			"0.009": 0.211773499984,
			"0.01": 0.0,
			"0.011": 0.0,
			"0.012": 0.0,
			"0.013": 0.0,
			"0.014": 0.0,
			"0.015": 0.0,
			"0.016": 0.0,
			"0.017": 0.0,
			"0.018": 0.0,
			"0.019": 0.0,
			"0.02": 0.0,
			"0.021": 0.0,
			"0.022": 0.0,
			"0.023": 0.0,
			"0.024": 0.0,
			"0.025": 0.0
		}
	}
}
