{
	 "smiles": "COC1=NC(=CC=C1)C(O)=O", 
	 "Tm": 407.15, 
	 "num_atms": 18, 
	 "gaussian": { 
		 "optdone": 1, 
		 "sigma_profile": "yes", 
		 "theory": "DFT", 
		 "functional": "B3LYP", 
		 "basiset": "6-31G**", 
		 "properties": { 
			 "R2extent": 2116.2564, 
			 "electric_dipole_moment_norm": 4.99475800215, 
			 "electric_quadrupole_moment_norm": 22.777894732, 
			 "total_energy": -551.397630481, 
			 "HOMO_LUMO_gap": 0.18832, 
			 "cosmo_polarized_energy": -11.47, 
			 "cosmo_cavitation_energy": 22.86, 
			 "cosmo_dispersion_energy": -16.89, 
			 "cosmo_repulsion_energy": 1.36, 
			 "cosmo_total_nonelectrostatic_energy": 7.32, 
			 "SMD_solvation_energy": 5.82 
		},
		"coords": [
			{
				"x": 2.7297704354,
				"y": 0.0474119089,
				"z": 0.5107593589,
				"element": "C" 
			},
			{
				"x": 1.5590937849,
				"y": 0.8687182137,
				"z": 0.4808434859,
				"element": "O" 
			},
			{
				"x": 0.4087562182,
				"y": 0.3040661097,
				"z": 0.0666140228,
				"element": "C" 
			},
			{
				"x": 0.3819116205,
				"y": -0.9727309822,
				"z": -0.2974574984,
				"element": "N" 
			},
			{
				"x": -0.7966619272,
				"y": -1.491466656,
				"z": -0.705176168,
				"element": "C" 
			},
			{
				"x": -1.9766687572,
				"y": -0.767191426,
				"z": -0.7645675578,
				"element": "C" 
			},
			{
				"x": -1.9315357412,
				"y": 0.5797911689,
				"z": -0.3767228842,
				"element": "C" 
			},
			{
				"x": -0.7336425451,
				"y": 1.1311423995,
				"z": 0.0444433532,
				"element": "C" 
			},
			{
				"x": -0.7626755064,
				"y": -2.9455341588,
				"z": -1.1053962275,
				"element": "C" 
			},
			{
				"x": 0.4521811846,
				"y": -3.508984406,
				"z": -0.9924616084,
				"element": "O" 
			},
			{
				"x": -1.7373838921,
				"y": -3.549897121,
				"z": -1.4913082522,
				"element": "O" 
			},
			{
				"x": 3.5289088243,
				"y": 0.695884729,
				"z": 0.870294947,
				"element": "H" 
			},
			{
				"x": 2.5992525869,
				"y": -0.8005865592,
				"z": 1.189884444,
				"element": "H" 
			},
			{
				"x": 2.9721159877,
				"y": -0.3302011601,
				"z": -0.4872518444,
				"element": "H" 
			},
			{
				"x": -2.8837475862,
				"y": -1.2526107634,
				"z": -1.1025204202,
				"element": "H" 
			},
			{
				"x": -2.8293709013,
				"y": 1.1899496347,
				"z": -0.4053377482,
				"element": "H" 
			},
			{
				"x": -0.6446281582,
				"y": 2.1657688311,
				"z": 0.354428589,
				"element": "H" 
			},
			{
				"x": 1.0476243725,
				"y": -2.8051297628,
				"z": -0.6626679914,
				"element": "H" 
			}
		],
		 "valence_orbital": [ 
			{
				"type": "occ",
				"energy": -0.3114,
				"method": "rhf"
			},
			{
				"type": "occ",
				"energy": -0.30886,
				"method": "rhf"
			},
			{
				"type": "occ",
				"energy": -0.30776,
				"method": "rhf"
			},
			{
				"type": "occ",
				"energy": -0.26609,
				"method": "rhf"
			},
			{
				"type": "occ",
				"energy": -0.25236,
				"method": "rhf"
			},
			{
				"type": "unocc",
				"energy": -0.06404,
				"method": "rhf"
			},
			{
				"type": "unocc",
				"energy": -0.02482,
				"method": "rhf"
			},
			{
				"type": "unocc",
				"energy": 0.05479,
				"method": "rhf"
			},
			{
				"type": "unocc",
				"energy": 0.08078,
				"method": "rhf"
			},
			{
				"type": "unocc",
				"energy": 0.09594,
				"method": "rhf"
			}
		],
		"cosmo_sigma_profile": { 
			"-0.025": 0.0,
			"-0.024": 0.0,
			"-0.023": 0.0,
			"-0.022": 0.0,
			"-0.021": 0.0,
			"-0.02": 0.0,
			"-0.019": 0.0,
			"-0.018": 0.0,
			"-0.017": 0.0,
			"-0.016": 0.0,
			"-0.015": 0.0,
			"-0.014": 0.0,
			"-0.013": 0.0,
			"-0.012": 0.100912769228,
			"-0.011": 0.542727874308,
			"-0.01": 1.08750886231,
			"-0.009": 0.476662774718,
			"-0.008": 3.48675175324,
			"-0.007": 7.52034397696,
			"-0.006": 10.2380515046,
			"-0.005": 13.9301966388,
			"-0.004": 14.948459139,
			"-0.003": 17.4417907176,
			"-0.002": 11.0138401268,
			"-0.001": 15.3747372618,
			"0.0": 18.668029463,
			"0.001": 14.976651465,
			"0.002": 8.7323776253,
			"0.003": 4.8006983577,
			"0.004": 3.43580904997,
			"0.005": 4.04664075161,
			"0.006": 2.84440875312,
			"0.007": 3.91809758101,
			"0.008": 4.53370013997,
			"0.009": 4.61764817908,
			"0.01": 5.30298897061,
			"0.011": 5.26579790383,
			"0.012": 4.28954332085,
			"0.013": 1.38096334655,
			"0.014": 0.0279275689383,
			"0.015": 0.0,
			"0.016": 0.0,
			"0.017": 0.0,
			"0.018": 0.0,
			"0.019": 0.0,
			"0.02": 0.0,
			"0.021": 0.0,
			"0.022": 0.0,
			"0.023": 0.0,
			"0.024": 0.0,
			"0.025": 0.0
		}
	}
}
