{
	 "smiles": "CC1=CC(N)=NC(C)=C1", 
	 "Tm": 336.65, 
	 "num_atms": 19, 
	 "gaussian": { 
		 "optdone": 1, 
		 "sigma_profile": "yes", 
		 "theory": "DFT", 
		 "functional": "B3LYP", 
		 "basiset": "6-31G**", 
		 "properties": { 
			 "R2extent": 1489.375, 
			 "electric_dipole_moment_norm": 1.78313021959, 
			 "electric_quadrupole_moment_norm": 9.07447393627, 
			 "total_energy": -382.298544333, 
			 "HOMO_LUMO_gap": 0.2006, 
			 "cosmo_polarized_energy": -8.82, 
			 "cosmo_cavitation_energy": 22.25, 
			 "cosmo_dispersion_energy": -16.59, 
			 "cosmo_repulsion_energy": 1.38, 
			 "cosmo_total_nonelectrostatic_energy": 7.04, 
			 "SMD_solvation_energy": 2.66 
		},
		"coords": [
			{
				"x": 1.9064611971,
				"y": -0.6196134048,
				"z": 2.4476263408,
				"element": "C" 
			},
			{
				"x": 1.3985869883,
				"y": -0.1888291367,
				"z": 1.0936283563,
				"element": "C" 
			},
			{
				"x": 2.121285957,
				"y": -0.4441922396,
				"z": -0.0642594139,
				"element": "C" 
			},
			{
				"x": 1.5977554342,
				"y": -0.0173638181,
				"z": -1.302740018,
				"element": "C" 
			},
			{
				"x": 2.260297977,
				"y": -0.2932858517,
				"z": -2.4879698779,
				"element": "N" 
			},
			{
				"x": 0.431816949,
				"y": 0.6286239885,
				"z": -1.4163949828,
				"element": "N" 
			},
			{
				"x": -0.2726732194,
				"y": 0.8684873898,
				"z": -0.2949758367,
				"element": "C" 
			},
			{
				"x": -1.582643579,
				"y": 1.5925210156,
				"z": -0.4862668847,
				"element": "C" 
			},
			{
				"x": 0.170023504,
				"y": 0.4830000036,
				"z": 0.9688086167,
				"element": "C" 
			},
			{
				"x": 1.2066365927,
				"y": -1.3143486122,
				"z": 2.9258295495,
				"element": "H" 
			},
			{
				"x": 2.8781651016,
				"y": -1.1154593725,
				"z": 2.3754247624,
				"element": "H" 
			},
			{
				"x": 2.0128434635,
				"y": 0.2399081457,
				"z": 3.119130648,
				"element": "H" 
			},
			{
				"x": 3.0711343889,
				"y": -0.970677229,
				"z": -0.0229358777,
				"element": "H" 
			},
			{
				"x": 1.9288700237,
				"y": 0.2529716217,
				"z": -3.2710045224,
				"element": "H" 
			},
			{
				"x": 3.2633949975,
				"y": -0.3927537753,
				"z": -2.4392608153,
				"element": "H" 
			},
			{
				"x": -1.4180009754,
				"y": 2.5532491769,
				"z": -0.9854239818,
				"element": "H" 
			},
			{
				"x": -2.0888652137,
				"y": 1.7744180697,
				"z": 0.4652966436,
				"element": "H" 
			},
			{
				"x": -2.2490928351,
				"y": 1.0096116398,
				"z": -1.1310407945,
				"element": "H" 
			},
			{
				"x": -0.4281967518,
				"y": 0.7032323885,
				"z": 1.8480280884,
				"element": "H" 
			}
		],
		 "valence_orbital": [ 
			{
				"type": "occ",
				"energy": -0.34612,
				"method": "rhf"
			},
			{
				"type": "occ",
				"energy": -0.29563,
				"method": "rhf"
			},
			{
				"type": "occ",
				"energy": -0.25489,
				"method": "rhf"
			},
			{
				"type": "occ",
				"energy": -0.24483,
				"method": "rhf"
			},
			{
				"type": "occ",
				"energy": -0.20367,
				"method": "rhf"
			},
			{
				"type": "unocc",
				"energy": -0.00307,
				"method": "rhf"
			},
			{
				"type": "unocc",
				"energy": 0.01961,
				"method": "rhf"
			},
			{
				"type": "unocc",
				"energy": 0.09154,
				"method": "rhf"
			},
			{
				"type": "unocc",
				"energy": 0.1098,
				"method": "rhf"
			},
			{
				"type": "unocc",
				"energy": 0.12669,
				"method": "rhf"
			}
		],
		"cosmo_sigma_profile": { 
			"-0.025": 0.0,
			"-0.024": 0.0,
			"-0.023": 0.0,
			"-0.022": 0.0,
			"-0.021": 0.0,
			"-0.02": 0.0,
			"-0.019": 0.0,
			"-0.018": 0.0,
			"-0.017": 0.0,
			"-0.016": 0.0,
			"-0.015": 0.0,
			"-0.014": 0.0,
			"-0.013": 0.693689869973,
			"-0.012": 1.83487409968,
			"-0.011": 1.98400495833,
			"-0.01": 2.44827267212,
			"-0.009": 3.37858810702,
			"-0.008": 1.77075532863,
			"-0.007": 2.08410107687,
			"-0.006": 3.21861246822,
			"-0.005": 6.10392559772,
			"-0.004": 16.3472921217,
			"-0.003": 14.6749071591,
			"-0.002": 16.3055866859,
			"-0.001": 15.873536856,
			"0.0": 19.5292009924,
			"0.001": 12.1240409767,
			"0.002": 7.03496436546,
			"0.003": 7.70300722877,
			"0.004": 9.92824810501,
			"0.005": 11.8731940557,
			"0.006": 3.30520851058,
			"0.007": 2.40249706132,
			"0.008": 3.17495796428,
			"0.009": 2.4303114194,
			"0.01": 1.88365689876,
			"0.011": 1.64790200259,
			"0.012": 1.63394998854,
			"0.013": 1.39001616155,
			"0.014": 0.952333940009,
			"0.015": 0.738253911381,
			"0.016": 0.656569976222,
			"0.017": 0.00950556602943,
			"0.018": 0.0,
			"0.019": 0.0,
			"0.02": 0.0,
			"0.021": 0.0,
			"0.022": 0.0,
			"0.023": 0.0,
			"0.024": 0.0,
			"0.025": 0.0
		}
	}
}
