{
	 "smiles": "CC1=NC(=NO1)C1=CC=C(N)C=C1", 
	 "Tm": 387.15, 
	 "num_atms": 22, 
	 "gaussian": { 
		 "optdone": 1, 
		 "sigma_profile": "yes", 
		 "theory": "DFT", 
		 "functional": "B3LYP", 
		 "basiset": "6-31G**", 
		 "properties": { 
			 "R2extent": 4072.6154, 
			 "electric_dipole_moment_norm": 2.52947168397, 
			 "electric_quadrupole_moment_norm": 23.6254202926, 
			 "total_energy": -587.838361382, 
			 "HOMO_LUMO_gap": 0.17296, 
			 "cosmo_polarized_energy": -13.8, 
			 "cosmo_cavitation_energy": 26.79, 
			 "cosmo_dispersion_energy": -20.1, 
			 "cosmo_repulsion_energy": 1.59, 
			 "cosmo_total_nonelectrostatic_energy": 8.28, 
			 "SMD_solvation_energy": 3.23 
		},
		"coords": [
			{
				"x": 5.3876274068,
				"y": 0.5059732518,
				"z": 1.5748548465,
				"element": "C" 
			},
			{
				"x": 4.1307444485,
				"y": 0.9577495535,
				"z": 0.9181310168,
				"element": "C" 
			},
			{
				"x": 2.9052891092,
				"y": 0.6470080056,
				"z": 1.2167728595,
				"element": "N" 
			},
			{
				"x": 2.1750386789,
				"y": 1.357579563,
				"z": 0.2762694081,
				"element": "C" 
			},
			{
				"x": 2.913014358,
				"y": 2.0646392067,
				"z": -0.5536234814,
				"element": "N" 
			},
			{
				"x": 4.2290105068,
				"y": 1.79869966,
				"z": -0.1257715512,
				"element": "O" 
			},
			{
				"x": 0.7134103466,
				"y": 1.320966787,
				"z": 0.2160024396,
				"element": "C" 
			},
			{
				"x": -0.0116216477,
				"y": 0.5426433103,
				"z": 1.1307772974,
				"element": "C" 
			},
			{
				"x": -1.3987416593,
				"y": 0.4953299482,
				"z": 1.0832248641,
				"element": "C" 
			},
			{
				"x": -2.1083448416,
				"y": 1.2293414533,
				"z": 0.1151219908,
				"element": "C" 
			},
			{
				"x": -3.4980513948,
				"y": 1.2269728105,
				"z": 0.0967859964,
				"element": "N" 
			},
			{
				"x": -1.3791922421,
				"y": 2.0115868199,
				"z": -0.8024249803,
				"element": "C" 
			},
			{
				"x": 0.0058298581,
				"y": 2.0550872955,
				"z": -0.7509153495,
				"element": "C" 
			},
			{
				"x": 5.1409299667,
				"y": -0.1659598596,
				"z": 2.3968366423,
				"element": "H" 
			},
			{
				"x": 6.0302611472,
				"y": -0.0168703228,
				"z": 0.8598008978,
				"element": "H" 
			},
			{
				"x": 5.9493747689,
				"y": 1.3614747454,
				"z": 1.9624032843,
				"element": "H" 
			},
			{
				"x": 0.5284333708,
				"y": -0.0277356011,
				"z": 1.8788493675,
				"element": "H" 
			},
			{
				"x": -1.9449932456,
				"y": -0.1106252101,
				"z": 1.801854479,
				"element": "H" 
			},
			{
				"x": -3.9451664681,
				"y": 0.4338914729,
				"z": 0.5340918122,
				"element": "H" 
			},
			{
				"x": -3.9297763478,
				"y": 1.4844313345,
				"z": -0.7792527396,
				"element": "H" 
			},
			{
				"x": -1.9116133072,
				"y": 2.5885612297,
				"z": -1.5544781568,
				"element": "H" 
			},
			{
				"x": 0.5550371879,
				"y": 2.6599545458,
				"z": -1.4652109433,
				"element": "H" 
			}
		],
		 "valence_orbital": [ 
			{
				"type": "occ",
				"energy": -0.30283,
				"method": "rhf"
			},
			{
				"type": "occ",
				"energy": -0.28341,
				"method": "rhf"
			},
			{
				"type": "occ",
				"energy": -0.27319,
				"method": "rhf"
			},
			{
				"type": "occ",
				"energy": -0.25,
				"method": "rhf"
			},
			{
				"type": "occ",
				"energy": -0.20112,
				"method": "rhf"
			},
			{
				"type": "unocc",
				"energy": -0.02816,
				"method": "rhf"
			},
			{
				"type": "unocc",
				"energy": 0.00027,
				"method": "rhf"
			},
			{
				"type": "unocc",
				"energy": 0.01255,
				"method": "rhf"
			},
			{
				"type": "unocc",
				"energy": 0.07317,
				"method": "rhf"
			},
			{
				"type": "unocc",
				"energy": 0.08964,
				"method": "rhf"
			}
		],
		"cosmo_sigma_profile": { 
			"-0.025": 0.0,
			"-0.024": 0.0,
			"-0.023": 0.0,
			"-0.022": 0.0,
			"-0.021": 0.0,
			"-0.02": 0.0,
			"-0.019": 0.0,
			"-0.018": 0.0,
			"-0.017": 0.0,
			"-0.016": 0.0,
			"-0.015": 0.0,
			"-0.014": 0.0,
			"-0.013": 1.58438665605,
			"-0.012": 3.22092285752,
			"-0.011": 2.33788463708,
			"-0.01": 3.48372128366,
			"-0.009": 3.77560620253,
			"-0.008": 2.44067049887,
			"-0.007": 7.62943048991,
			"-0.006": 12.3158375878,
			"-0.005": 14.2725931641,
			"-0.004": 13.5025124473,
			"-0.003": 16.2204815501,
			"-0.002": 13.1758312274,
			"-0.001": 9.16536983842,
			"0.0": 9.3480262671,
			"0.001": 10.1592111825,
			"0.002": 12.870877257,
			"0.003": 14.4054746894,
			"0.004": 13.7686210887,
			"0.005": 16.9083787214,
			"0.006": 6.44926567523,
			"0.007": 8.06390858117,
			"0.008": 4.85135168204,
			"0.009": 2.96444717532,
			"0.01": 3.41133197479,
			"0.011": 2.83318261085,
			"0.012": 2.70777848684,
			"0.013": 2.07341983444,
			"0.014": 0.144306462411,
			"0.015": 0.0,
			"0.016": 0.0,
			"0.017": 0.0,
			"0.018": 0.0,
			"0.019": 0.0,
			"0.02": 0.0,
			"0.021": 0.0,
			"0.022": 0.0,
			"0.023": 0.0,
			"0.024": 0.0,
			"0.025": 0.0
		}
	}
}
