{
	 "smiles": "COC1=CC=C(C=C1)C1C(CCC(=O)N1C1=CC=C(OC)C=C1)C(O)=O", 
	 "Tm": 452.15, 
	 "num_atms": 47, 
	 "gaussian": { 
		 "optdone": 1, 
		 "sigma_profile": "yes", 
		 "theory": "DFT", 
		 "functional": "B3LYP", 
		 "basiset": "6-31G**", 
		 "properties": { 
			 "R2extent": 10526.3032, 
			 "electric_dipole_moment_norm": 5.09929335693, 
			 "electric_quadrupole_moment_norm": 30.4968193889, 
			 "total_energy": -1205.65166565, 
			 "HOMO_LUMO_gap": 0.19258, 
			 "cosmo_polarized_energy": -28.13, 
			 "cosmo_cavitation_energy": 48.96, 
			 "cosmo_dispersion_energy": -33.45, 
			 "cosmo_repulsion_energy": 2.54, 
			 "cosmo_total_nonelectrostatic_energy": 18.05, 
			 "SMD_solvation_energy": 10.99 
		},
		"coords": [
			{
				"x": -0.1223130955,
				"y": 3.2761648451,
				"z": -5.507001344,
				"element": "C" 
			},
			{
				"x": -1.1510598061,
				"y": 3.1224655996,
				"z": -4.5416511885,
				"element": "O" 
			},
			{
				"x": -1.0177593181,
				"y": 2.1377981931,
				"z": -3.6075773601,
				"element": "C" 
			},
			{
				"x": -2.0534675541,
				"y": 2.0479479668,
				"z": -2.664135292,
				"element": "C" 
			},
			{
				"x": -2.0058900592,
				"y": 1.0810305195,
				"z": -1.6699895195,
				"element": "C" 
			},
			{
				"x": -0.9392087441,
				"y": 0.1705379409,
				"z": -1.5840604507,
				"element": "C" 
			},
			{
				"x": 0.0860860646,
				"y": 0.2772201925,
				"z": -2.5246616387,
				"element": "C" 
			},
			{
				"x": 0.0582084102,
				"y": 1.2474291248,
				"z": -3.5322753663,
				"element": "C" 
			},
			{
				"x": -0.9644350146,
				"y": -0.9008566057,
				"z": -0.4943529135,
				"element": "C" 
			},
			{
				"x": -1.8290368487,
				"y": -2.1118535596,
				"z": -0.9064018063,
				"element": "C" 
			},
			{
				"x": -1.063211918,
				"y": -2.9722759184,
				"z": -1.9237504268,
				"element": "C" 
			},
			{
				"x": 0.2357569848,
				"y": -3.4858030002,
				"z": -1.3035345129,
				"element": "C" 
			},
			{
				"x": 1.0373700967,
				"y": -2.4670643971,
				"z": -0.4915420421,
				"element": "C" 
			},
			{
				"x": 2.1971690398,
				"y": -2.7114778158,
				"z": -0.1903487971,
				"element": "O" 
			},
			{
				"x": 0.383693935,
				"y": -1.3245748463,
				"z": -0.066955104,
				"element": "N" 
			},
			{
				"x": 1.0589682065,
				"y": -0.4485164983,
				"z": 0.8573272215,
				"element": "C" 
			},
			{
				"x": 0.5429766954,
				"y": -0.2925840323,
				"z": 2.1433083691,
				"element": "C" 
			},
			{
				"x": 1.1546712377,
				"y": 0.5677446203,
				"z": 3.0587902748,
				"element": "C" 
			},
			{
				"x": 2.3079775804,
				"y": 1.2674058006,
				"z": 2.6862190836,
				"element": "C" 
			},
			{
				"x": 2.9894409907,
				"y": 2.1297410967,
				"z": 3.496614337,
				"element": "O" 
			},
			{
				"x": 2.5145014305,
				"y": 2.3228931046,
				"z": 4.8186564852,
				"element": "C" 
			},
			{
				"x": 2.8363805138,
				"y": 1.0986152479,
				"z": 1.3972431686,
				"element": "C" 
			},
			{
				"x": 2.2152702569,
				"y": 0.2508143804,
				"z": 0.4908376615,
				"element": "C" 
			},
			{
				"x": -2.31095619,
				"y": -2.8790461433,
				"z": 0.336289448,
				"element": "C" 
			},
			{
				"x": -2.9119737634,
				"y": -4.0731416046,
				"z": 0.0990595884,
				"element": "O" 
			},
			{
				"x": -2.2295839168,
				"y": -2.4683169626,
				"z": 1.4681076479,
				"element": "O" 
			},
			{
				"x": -0.0102645207,
				"y": 2.3771257661,
				"z": -6.1268431494,
				"element": "H" 
			},
			{
				"x": -0.4250870102,
				"y": 4.1117921741,
				"z": -6.1397075579,
				"element": "H" 
			},
			{
				"x": 0.8418181394,
				"y": 3.5099258887,
				"z": -5.0375131211,
				"element": "H" 
			},
			{
				"x": -2.8741226535,
				"y": 2.7551559029,
				"z": -2.7261445304,
				"element": "H" 
			},
			{
				"x": -2.809887967,
				"y": 1.0360751577,
				"z": -0.9382075837,
				"element": "H" 
			},
			{
				"x": 0.9380991795,
				"y": -0.3934805253,
				"z": -2.4703729043,
				"element": "H" 
			},
			{
				"x": 0.8781131161,
				"y": 1.3005964771,
				"z": -4.2386336826,
				"element": "H" 
			},
			{
				"x": -1.443040457,
				"y": -0.4679354009,
				"z": 0.3868780581,
				"element": "H" 
			},
			{
				"x": -2.7368963728,
				"y": -1.7163539949,
				"z": -1.382110874,
				"element": "H" 
			},
			{
				"x": -0.851012007,
				"y": -2.3452424106,
				"z": -2.7956213277,
				"element": "H" 
			},
			{
				"x": -1.6647836144,
				"y": -3.80816248,
				"z": -2.3063252576,
				"element": "H" 
			},
			{
				"x": 0.9139997314,
				"y": -3.8931082361,
				"z": -2.0577174836,
				"element": "H" 
			},
			{
				"x": 0.0249720965,
				"y": -4.3087353268,
				"z": -0.6079464267,
				"element": "H" 
			},
			{
				"x": -0.339227681,
				"y": -0.8562138702,
				"z": 2.4325196976,
				"element": "H" 
			},
			{
				"x": 0.7321514274,
				"y": 0.6705690442,
				"z": 4.0510604602,
				"element": "H" 
			},
			{
				"x": 3.1987254454,
				"y": 3.0338960037,
				"z": 5.2846207282,
				"element": "H" 
			},
			{
				"x": 2.5209043849,
				"y": 1.3874016056,
				"z": 5.3929588139,
				"element": "H" 
			},
			{
				"x": 1.4992994607,
				"y": 2.7409107598,
				"z": 4.8287583546,
				"element": "H" 
			},
			{
				"x": 3.7354398529,
				"y": 1.6443778485,
				"z": 1.1308545885,
				"element": "H" 
			},
			{
				"x": 2.6322193794,
				"y": 0.1178681057,
				"z": -0.5006341619,
				"element": "H" 
			},
			{
				"x": -2.9154951443,
				"y": -4.2673597379,
				"z": -0.848888163,
				"element": "H" 
			}
		],
		 "valence_orbital": [ 
			{
				"type": "occ",
				"energy": -0.24886,
				"method": "rhf"
			},
			{
				"type": "occ",
				"energy": -0.24679,
				"method": "rhf"
			},
			{
				"type": "occ",
				"energy": -0.23665,
				"method": "rhf"
			},
			{
				"type": "occ",
				"energy": -0.22302,
				"method": "rhf"
			},
			{
				"type": "occ",
				"energy": -0.20691,
				"method": "rhf"
			},
			{
				"type": "unocc",
				"energy": -0.01433,
				"method": "rhf"
			},
			{
				"type": "unocc",
				"energy": -0.00328,
				"method": "rhf"
			},
			{
				"type": "unocc",
				"energy": -0.00014,
				"method": "rhf"
			},
			{
				"type": "unocc",
				"energy": 0.00635,
				"method": "rhf"
			},
			{
				"type": "unocc",
				"energy": 0.01231,
				"method": "rhf"
			}
		],
		"cosmo_sigma_profile": { 
			"-0.025": 0.0,
			"-0.024": 0.0,
			"-0.023": 0.0,
			"-0.022": 0.0,
			"-0.021": 0.0,
			"-0.02": 0.0,
			"-0.019": 0.307111312939,
			"-0.018": 0.875975218362,
			"-0.017": 1.16474122436,
			"-0.016": 1.21442298042,
			"-0.015": 0.676893211943,
			"-0.014": 1.20035666075,
			"-0.013": 0.922787777784,
			"-0.012": 1.26042924014,
			"-0.011": 1.43975384695,
			"-0.01": 1.25042659857,
			"-0.009": 1.75347440659,
			"-0.008": 3.57070781081,
			"-0.007": 7.4788068131,
			"-0.006": 24.855744915,
			"-0.005": 39.996627241,
			"-0.004": 39.9549663172,
			"-0.003": 38.492488462,
			"-0.002": 24.586576078,
			"-0.001": 18.3770918499,
			"0.0": 13.5688877411,
			"0.001": 16.7472954177,
			"0.002": 16.120718921,
			"0.003": 21.1343831241,
			"0.004": 26.0413052127,
			"0.005": 22.9067953317,
			"0.006": 9.53749734105,
			"0.007": 6.484807884,
			"0.008": 7.15030323226,
			"0.009": 7.85490800686,
			"0.01": 10.1044540259,
			"0.011": 5.16928061216,
			"0.012": 4.1382742499,
			"0.013": 3.89536050011,
			"0.014": 5.74099141719,
			"0.015": 1.67206086434,
			"0.016": 0.0,
			"0.017": 0.0,
			"0.018": 0.0,
			"0.019": 0.0,
			"0.02": 0.0,
			"0.021": 0.0,
			"0.022": 0.0,
			"0.023": 0.0,
			"0.024": 0.0,
			"0.025": 0.0
		}
	}
}
