{
	 "smiles": "COC1=CC=CC(OC)=C1C(O)=O", 
	 "Tm": 461.15, 
	 "num_atms": 23, 
	 "gaussian": { 
		 "optdone": 1, 
		 "sigma_profile": "yes", 
		 "theory": "DFT", 
		 "functional": "B3LYP", 
		 "basiset": "6-31G**", 
		 "properties": { 
			 "R2extent": 2667.1202, 
			 "electric_dipole_moment_norm": 6.18117862952, 
			 "electric_quadrupole_moment_norm": 18.8789790373, 
			 "total_energy": -649.857480285, 
			 "HOMO_LUMO_gap": 0.2001, 
			 "cosmo_polarized_energy": -15.31, 
			 "cosmo_cavitation_energy": 26.58, 
			 "cosmo_dispersion_energy": -19.65, 
			 "cosmo_repulsion_energy": 1.55, 
			 "cosmo_total_nonelectrostatic_energy": 8.47, 
			 "SMD_solvation_energy": 7.16 
		},
		"coords": [
			{
				"x": 1.3838060293,
				"y": -2.3439892214,
				"z": -2.973723751,
				"element": "C" 
			},
			{
				"x": 1.9365055826,
				"y": -1.2935210927,
				"z": -2.1717778293,
				"element": "O" 
			},
			{
				"x": 1.0399629663,
				"y": -0.5369533736,
				"z": -1.4722688318,
				"element": "C" 
			},
			{
				"x": 0.4609207014,
				"y": 0.5584763815,
				"z": -2.1241563999,
				"element": "C" 
			},
			{
				"x": -0.3816644322,
				"y": 1.416306841,
				"z": -1.4306173585,
				"element": "C" 
			},
			{
				"x": -0.6432308794,
				"y": 1.2125137724,
				"z": -0.0749246412,
				"element": "C" 
			},
			{
				"x": -0.0536808343,
				"y": 0.1300081434,
				"z": 0.5791045854,
				"element": "C" 
			},
			{
				"x": -0.2435933316,
				"y": -0.1090107846,
				"z": 1.920835189,
				"element": "O" 
			},
			{
				"x": -1.0806146177,
				"y": 0.7612795047,
				"z": 2.6768419674,
				"element": "C" 
			},
			{
				"x": 0.778633657,
				"y": -0.7902148229,
				"z": -0.1067449171,
				"element": "C" 
			},
			{
				"x": 1.3651653516,
				"y": -2.0178952746,
				"z": 0.5502348506,
				"element": "C" 
			},
			{
				"x": 1.6173727882,
				"y": -1.948040014,
				"z": 1.8748001584,
				"element": "O" 
			},
			{
				"x": 1.6243385677,
				"y": -3.0320147912,
				"z": -0.057377545,
				"element": "O" 
			},
			{
				"x": 0.9304502591,
				"y": -3.1073431633,
				"z": -2.3372624556,
				"element": "H" 
			},
			{
				"x": 0.6482227124,
				"y": -1.9490125869,
				"z": -3.6867503679,
				"element": "H" 
			},
			{
				"x": 2.2225160248,
				"y": -2.7759513586,
				"z": -3.5223086904,
				"element": "H" 
			},
			{
				"x": 0.7068753368,
				"y": 0.7261091174,
				"z": -3.1671006047,
				"element": "H" 
			},
			{
				"x": -0.8316821711,
				"y": 2.2646427682,
				"z": -1.9376991657,
				"element": "H" 
			},
			{
				"x": -1.2888868074,
				"y": 1.8989209236,
				"z": 0.4574494275,
				"element": "H" 
			},
			{
				"x": -1.0773470907,
				"y": 0.3666226321,
				"z": 3.6932698102,
				"element": "H" 
			},
			{
				"x": -0.6924988933,
				"y": 1.7862541707,
				"z": 2.6799059282,
				"element": "H" 
			},
			{
				"x": -2.1046473281,
				"y": 0.7565392599,
				"z": 2.2879804472,
				"element": "H" 
			},
			{
				"x": 1.1967764085,
				"y": -1.1521270314,
				"z": 2.2440901945,
				"element": "H" 
			}
		],
		 "valence_orbital": [ 
			{
				"type": "occ",
				"energy": -0.29695,
				"method": "rhf"
			},
			{
				"type": "occ",
				"energy": -0.27344,
				"method": "rhf"
			},
			{
				"type": "occ",
				"energy": -0.25767,
				"method": "rhf"
			},
			{
				"type": "occ",
				"energy": -0.25012,
				"method": "rhf"
			},
			{
				"type": "occ",
				"energy": -0.24043,
				"method": "rhf"
			},
			{
				"type": "unocc",
				"energy": -0.04033,
				"method": "rhf"
			},
			{
				"type": "unocc",
				"energy": -0.00422,
				"method": "rhf"
			},
			{
				"type": "unocc",
				"energy": 0.05182,
				"method": "rhf"
			},
			{
				"type": "unocc",
				"energy": 0.07194,
				"method": "rhf"
			},
			{
				"type": "unocc",
				"energy": 0.07978,
				"method": "rhf"
			}
		],
		"cosmo_sigma_profile": { 
			"-0.025": 0.0,
			"-0.024": 0.0,
			"-0.023": 0.0,
			"-0.022": 0.0,
			"-0.021": 0.0,
			"-0.02": 0.0,
			"-0.019": 0.0,
			"-0.018": 0.0,
			"-0.017": 0.0,
			"-0.016": 0.0,
			"-0.015": 0.0,
			"-0.014": 0.0,
			"-0.013": 0.0,
			"-0.012": 0.0,
			"-0.011": 0.425583789929,
			"-0.01": 0.680086354318,
			"-0.009": 1.35351137471,
			"-0.008": 1.45831080482,
			"-0.007": 9.1337021454,
			"-0.006": 17.578873752,
			"-0.005": 17.9702448765,
			"-0.004": 19.764232044,
			"-0.003": 17.7858519158,
			"-0.002": 18.129994999,
			"-0.001": 11.5108879495,
			"0.0": 11.504061115,
			"0.001": 11.3214560481,
			"0.002": 13.0663263484,
			"0.003": 12.4119817992,
			"0.004": 8.55193554124,
			"0.005": 3.78377117146,
			"0.006": 2.29719475611,
			"0.007": 4.66870326785,
			"0.008": 3.37557556993,
			"0.009": 4.13733419919,
			"0.01": 4.7464652683,
			"0.011": 7.80097110031,
			"0.012": 5.07000541298,
			"0.013": 2.46266997621,
			"0.014": 0.67153826896,
			"0.015": 0.0,
			"0.016": 0.0,
			"0.017": 0.0,
			"0.018": 0.0,
			"0.019": 0.0,
			"0.02": 0.0,
			"0.021": 0.0,
			"0.022": 0.0,
			"0.023": 0.0,
			"0.024": 0.0,
			"0.025": 0.0
		}
	}
}
