{
	 "smiles": "CCC(=O)C(N)=O", 
	 "Tm": 368.15, 
	 "num_atms": 14, 
	 "gaussian": { 
		 "optdone": 1, 
		 "sigma_profile": "yes", 
		 "theory": "DFT", 
		 "functional": "B3LYP", 
		 "basiset": "6-31G**", 
		 "properties": { 
			 "R2extent": 1577.5876, 
			 "electric_dipole_moment_norm": 1.11144932858, 
			 "electric_quadrupole_moment_norm": 14.5651461026, 
			 "total_energy": -361.85837354, 
			 "HOMO_LUMO_gap": 0.17457, 
			 "cosmo_polarized_energy": -10.31, 
			 "cosmo_cavitation_energy": 18.09, 
			 "cosmo_dispersion_energy": -13.25, 
			 "cosmo_repulsion_energy": 1.16, 
			 "cosmo_total_nonelectrostatic_energy": 5.99, 
			 "SMD_solvation_energy": 4.83 
		},
		"coords": [
			{
				"x": -0.2800462099,
				"y": -0.1619248838,
				"z": 0.1758682283,
				"element": "C" 
			},
			{
				"x": 1.1102925358,
				"y": -0.3007307507,
				"z": 0.8310894401,
				"element": "C" 
			},
			{
				"x": 2.1736132069,
				"y": -0.6086831659,
				"z": -0.1937190958,
				"element": "C" 
			},
			{
				"x": 2.6588838095,
				"y": -1.7129728075,
				"z": -0.3675431996,
				"element": "O" 
			},
			{
				"x": 2.6393833242,
				"y": 0.5757491952,
				"z": -1.0794039684,
				"element": "C" 
			},
			{
				"x": 3.5561758707,
				"y": 0.19836527,
				"z": -1.9995030403,
				"element": "N" 
			},
			{
				"x": 2.19875829,
				"y": 1.7078079372,
				"z": -0.926443749,
				"element": "O" 
			},
			{
				"x": -1.0342793085,
				"y": 0.0354669696,
				"z": 0.9427950018,
				"element": "H" 
			},
			{
				"x": -0.2888359825,
				"y": 0.6678718121,
				"z": -0.5345227647,
				"element": "H" 
			},
			{
				"x": -0.5623440339,
				"y": -1.0803762024,
				"z": -0.3479770852,
				"element": "H" 
			},
			{
				"x": 1.1132502028,
				"y": -1.1121904193,
				"z": 1.5637144841,
				"element": "H" 
			},
			{
				"x": 1.3653217717,
				"y": 0.6408013941,
				"z": 1.3274280458,
				"element": "H" 
			},
			{
				"x": 3.85654814,
				"y": -0.7651981722,
				"z": -2.0187590704,
				"element": "H" 
			},
			{
				"x": 3.9477783833,
				"y": 0.8817138236,
				"z": -2.6278232266,
				"element": "H" 
			}
		],
		 "valence_orbital": [ 
			{
				"type": "occ",
				"energy": -0.35775,
				"method": "rhf"
			},
			{
				"type": "occ",
				"energy": -0.35564,
				"method": "rhf"
			},
			{
				"type": "occ",
				"energy": -0.30819,
				"method": "rhf"
			},
			{
				"type": "occ",
				"energy": -0.27937,
				"method": "rhf"
			},
			{
				"type": "occ",
				"energy": -0.24099,
				"method": "rhf"
			},
			{
				"type": "unocc",
				"energy": -0.06642,
				"method": "rhf"
			},
			{
				"type": "unocc",
				"energy": 0.07049,
				"method": "rhf"
			},
			{
				"type": "unocc",
				"energy": 0.08472,
				"method": "rhf"
			},
			{
				"type": "unocc",
				"energy": 0.11386,
				"method": "rhf"
			},
			{
				"type": "unocc",
				"energy": 0.13924,
				"method": "rhf"
			}
		],
		"cosmo_sigma_profile": { 
			"-0.025": 0.0,
			"-0.024": 0.0,
			"-0.023": 0.0,
			"-0.022": 0.0,
			"-0.021": 0.0,
			"-0.02": 0.0,
			"-0.019": 0.0,
			"-0.018": 0.0,
			"-0.017": 0.0,
			"-0.016": 0.0,
			"-0.015": 0.708743289611,
			"-0.014": 1.58365020498,
			"-0.013": 2.09565827746,
			"-0.012": 1.47807324545,
			"-0.011": 1.91860282394,
			"-0.01": 2.26640014898,
			"-0.009": 1.67005155007,
			"-0.008": 1.5474322276,
			"-0.007": 1.56053747396,
			"-0.006": 2.60464548762,
			"-0.005": 7.11026342294,
			"-0.004": 12.2236487124,
			"-0.003": 13.2211000517,
			"-0.002": 16.8259313099,
			"-0.001": 12.8817863558,
			"0.0": 11.5849322351,
			"0.001": 6.78845972698,
			"0.002": 5.19446792348,
			"0.003": 3.52887941145,
			"0.004": 2.9867173841,
			"0.005": 3.5759011886,
			"0.006": 2.19886400369,
			"0.007": 2.82493883581,
			"0.008": 3.33061356198,
			"0.009": 4.10335109863,
			"0.01": 3.93318296215,
			"0.011": 3.87369873536,
			"0.012": 3.3126266441,
			"0.013": 4.34504821033,
			"0.014": 0.885280415819,
			"0.015": 0.0,
			"0.016": 0.0,
			"0.017": 0.0,
			"0.018": 0.0,
			"0.019": 0.0,
			"0.02": 0.0,
			"0.021": 0.0,
			"0.022": 0.0,
			"0.023": 0.0,
			"0.024": 0.0,
			"0.025": 0.0
		}
	}
}
