{
	 "smiles": "BrC1=CC=C(C=C1)C1=CC=CC=C1", 
	 "Tm": 363.95, 
	 "num_atms": 22, 
	 "gaussian": { 
		 "optdone": 1, 
		 "sigma_profile": "yes", 
		 "theory": "DFT", 
		 "functional": "B3LYP", 
		 "basiset": "6-31G**", 
		 "properties": { 
			 "R2extent": 5557.1232, 
			 "electric_dipole_moment_norm": 2.04848468386, 
			 "electric_quadrupole_moment_norm": 6.87368459052, 
			 "total_energy": -3034.11391903, 
			 "HOMO_LUMO_gap": 0.1895, 
			 "cosmo_polarized_energy": -5.36, 
			 "cosmo_cavitation_energy": 28.3, 
			 "cosmo_dispersion_energy": -21.29, 
			 "cosmo_repulsion_energy": 1.67, 
			 "cosmo_total_nonelectrostatic_energy": 8.68, 
			 "SMD_solvation_energy": 3.44 
		},
		"coords": [
			{
				"x": -3.1324601504,
				"y": -0.9706029416,
				"z": 3.3787801886,
				"element": "Br" 
			},
			{
				"x": -2.1557992932,
				"y": -0.3668445502,
				"z": 1.8501978584,
				"element": "C" 
			},
			{
				"x": -2.8208116861,
				"y": -0.1763327446,
				"z": 0.6404676235,
				"element": "C" 
			},
			{
				"x": -2.1016366452,
				"y": 0.2633941364,
				"z": -0.4693078715,
				"element": "C" 
			},
			{
				"x": -0.7221472168,
				"y": 0.5195110891,
				"z": -0.3936607666,
				"element": "C" 
			},
			{
				"x": -0.0835122224,
				"y": 0.3175489442,
				"z": 0.8415194561,
				"element": "C" 
			},
			{
				"x": -0.7881691532,
				"y": -0.1230013761,
				"z": 1.9602466132,
				"element": "C" 
			},
			{
				"x": 0.0364001088,
				"y": 0.9886187906,
				"z": -1.5808370422,
				"element": "C" 
			},
			{
				"x": 1.3429081023,
				"y": 0.5337964924,
				"z": -1.828465302,
				"element": "C" 
			},
			{
				"x": 2.0554897678,
				"y": 0.9748790499,
				"z": -2.9425863002,
				"element": "C" 
			},
			{
				"x": 1.4767467677,
				"y": 1.8795741783,
				"z": -3.8346881121,
				"element": "C" 
			},
			{
				"x": 0.1792460531,
				"y": 2.3396400375,
				"z": -3.6021155095,
				"element": "C" 
			},
			{
				"x": -0.5326878809,
				"y": 1.8995689487,
				"z": -2.4871796295,
				"element": "C" 
			},
			{
				"x": -3.8832797664,
				"y": -0.3779762722,
				"z": 0.564080101,
				"element": "H" 
			},
			{
				"x": -2.6180146959,
				"y": 0.3846963786,
				"z": -1.4166634252,
				"element": "H" 
			},
			{
				"x": 0.9763962446,
				"y": 0.5322635628,
				"z": 0.9381742165,
				"element": "H" 
			},
			{
				"x": -0.2829059163,
				"y": -0.2658551403,
				"z": 2.9087375934,
				"element": "H" 
			},
			{
				"x": 1.7923330275,
				"y": -0.1914739267,
				"z": -1.1564697668,
				"element": "H" 
			},
			{
				"x": 3.0611966566,
				"y": 0.6038684792,
				"z": -3.1188191167,
				"element": "H" 
			},
			{
				"x": 2.0316234781,
				"y": 2.2228194866,
				"z": -4.7029428891,
				"element": "H" 
			},
			{
				"x": -0.277294086,
				"y": 3.0503485717,
				"z": -4.2852092581,
				"element": "H" 
			},
			{
				"x": -1.5306214934,
				"y": 2.2855588057,
				"z": -2.3008586614,
				"element": "H" 
			}
		],
		 "valence_orbital": [ 
			{
				"type": "occ",
				"energy": -0.28614,
				"method": "rhf"
			},
			{
				"type": "occ",
				"energy": -0.26648,
				"method": "rhf"
			},
			{
				"type": "occ",
				"energy": -0.26374,
				"method": "rhf"
			},
			{
				"type": "occ",
				"energy": -0.25506,
				"method": "rhf"
			},
			{
				"type": "occ",
				"energy": -0.22538,
				"method": "rhf"
			},
			{
				"type": "unocc",
				"energy": -0.03588,
				"method": "rhf"
			},
			{
				"type": "unocc",
				"energy": -0.01533,
				"method": "rhf"
			},
			{
				"type": "unocc",
				"energy": -0.00681,
				"method": "rhf"
			},
			{
				"type": "unocc",
				"energy": 0.00958,
				"method": "rhf"
			},
			{
				"type": "unocc",
				"energy": 0.02052,
				"method": "rhf"
			}
		],
		"cosmo_sigma_profile": { 
			"-0.025": 0.0,
			"-0.024": 0.0,
			"-0.023": 0.0,
			"-0.022": 0.0,
			"-0.021": 0.0,
			"-0.02": 0.0,
			"-0.019": 0.0,
			"-0.018": 0.0,
			"-0.017": 0.0,
			"-0.016": 0.0,
			"-0.015": 0.0,
			"-0.014": 0.0,
			"-0.013": 0.0,
			"-0.012": 0.0,
			"-0.011": 0.0,
			"-0.01": 0.0,
			"-0.009": 0.0,
			"-0.008": 0.0417950206821,
			"-0.007": 3.20647088261,
			"-0.006": 13.1141116672,
			"-0.005": 20.2547469,
			"-0.004": 18.2521270511,
			"-0.003": 17.2244773551,
			"-0.002": 15.267100379,
			"-0.001": 12.6369912852,
			"0.0": 13.2173528751,
			"0.001": 18.9949462044,
			"0.002": 22.6597247907,
			"0.003": 26.9672680229,
			"0.004": 27.1716516641,
			"0.005": 17.3635832063,
			"0.006": 4.55108868856,
			"0.007": 0.0,
			"0.008": 0.0,
			"0.009": 0.0,
			"0.01": 0.0,
			"0.011": 0.0,
			"0.012": 0.0,
			"0.013": 0.0,
			"0.014": 0.0,
			"0.015": 0.0,
			"0.016": 0.0,
			"0.017": 0.0,
			"0.018": 0.0,
			"0.019": 0.0,
			"0.02": 0.0,
			"0.021": 0.0,
			"0.022": 0.0,
			"0.023": 0.0,
			"0.024": 0.0,
			"0.025": 0.0
		}
	}
}
