{
	 "smiles": "CC1=C(C=CC(NS(=O)(=O)C(F)(F)F)=C1)C(O)=O", 
	 "Tm": 443.15, 
	 "num_atms": 26, 
	 "gaussian": { 
		 "optdone": 1, 
		 "sigma_profile": "yes", 
		 "theory": "DFT", 
		 "functional": "B3LYP", 
		 "basiset": "6-31G**", 
		 "properties": { 
			 "R2extent": 7923.5962, 
			 "electric_dipole_moment_norm": 2.05701814771, 
			 "electric_quadrupole_moment_norm": 26.6450716156, 
			 "total_energy": -1401.05978506, 
			 "HOMO_LUMO_gap": 0.19863, 
			 "cosmo_polarized_energy": -20.06, 
			 "cosmo_cavitation_energy": 33.73, 
			 "cosmo_dispersion_energy": -24.24, 
			 "cosmo_repulsion_energy": 1.76, 
			 "cosmo_total_nonelectrostatic_energy": 11.24, 
			 "SMD_solvation_energy": 7.2 
		},
		"coords": [
			{
				"x": -2.2749898458,
				"y": -0.8593818086,
				"z": -0.8834742492,
				"element": "C" 
			},
			{
				"x": -1.104055633,
				"y": -0.3323002758,
				"z": -0.0899627586,
				"element": "C" 
			},
			{
				"x": -0.8196325829,
				"y": -0.7500708519,
				"z": 1.2311503468,
				"element": "C" 
			},
			{
				"x": 0.2732751706,
				"y": -0.1910882337,
				"z": 1.9116315896,
				"element": "C" 
			},
			{
				"x": 1.0964248526,
				"y": 0.7629747007,
				"z": 1.3266491785,
				"element": "C" 
			},
			{
				"x": 0.8436276774,
				"y": 1.1446185416,
				"z": 0.0069401769,
				"element": "C" 
			},
			{
				"x": 1.6275205928,
				"y": 2.133754593,
				"z": -0.6485985197,
				"element": "N" 
			},
			{
				"x": 3.3107933627,
				"y": 2.1622109093,
				"z": -0.6748110763,
				"element": "S" 
			},
			{
				"x": 3.6951851102,
				"y": 2.6237412671,
				"z": -2.0033917144,
				"element": "O" 
			},
			{
				"x": 3.8606700251,
				"y": 0.9759440849,
				"z": -0.0352726735,
				"element": "O" 
			},
			{
				"x": 3.6562732542,
				"y": 3.5849316246,
				"z": 0.4849246344,
				"element": "C" 
			},
			{
				"x": 3.1722573267,
				"y": 3.3084342291,
				"z": 1.7005817056,
				"element": "F" 
			},
			{
				"x": 3.0827457643,
				"y": 4.6934966764,
				"z": 0.0217634429,
				"element": "F" 
			},
			{
				"x": 4.9734760404,
				"y": 3.7565723726,
				"z": 0.5615261168,
				"element": "F" 
			},
			{
				"x": -0.2430856532,
				"y": 0.5947707657,
				"z": -0.6824624449,
				"element": "C" 
			},
			{
				"x": -1.7007438359,
				"y": -1.7408381631,
				"z": 1.9292904471,
				"element": "C" 
			},
			{
				"x": -1.0910548227,
				"y": -2.5332095612,
				"z": 2.8549296304,
				"element": "O" 
			},
			{
				"x": -2.8873540172,
				"y": -1.8608296076,
				"z": 1.7305790835,
				"element": "O" 
			},
			{
				"x": -2.3112567205,
				"y": -1.9521029798,
				"z": -0.8746081897,
				"element": "H" 
			},
			{
				"x": -2.2183216234,
				"y": -0.519986297,
				"z": -1.9210063025,
				"element": "H" 
			},
			{
				"x": -3.2198894502,
				"y": -0.5227666462,
				"z": -0.4495519276,
				"element": "H" 
			},
			{
				"x": 0.4602297209,
				"y": -0.4650113839,
				"z": 2.9464720015,
				"element": "H" 
			},
			{
				"x": 1.9125294291,
				"y": 1.2017903029,
				"z": 1.8849941977,
				"element": "H" 
			},
			{
				"x": 1.2766398822,
				"y": 2.4525836472,
				"z": -1.5463256426,
				"element": "H" 
			},
			{
				"x": -0.4266060545,
				"y": 0.8968388294,
				"z": -1.7107789246,
				"element": "H" 
			},
			{
				"x": -0.1300579696,
				"y": -2.4522767358,
				"z": 2.7785118718,
				"element": "H" 
			}
		],
		 "valence_orbital": [ 
			{
				"type": "occ",
				"energy": -0.34058,
				"method": "rhf"
			},
			{
				"type": "occ",
				"energy": -0.32001,
				"method": "rhf"
			},
			{
				"type": "occ",
				"energy": -0.27911,
				"method": "rhf"
			},
			{
				"type": "occ",
				"energy": -0.27548,
				"method": "rhf"
			},
			{
				"type": "occ",
				"energy": -0.25677,
				"method": "rhf"
			},
			{
				"type": "unocc",
				"energy": -0.05814,
				"method": "rhf"
			},
			{
				"type": "unocc",
				"energy": -0.03242,
				"method": "rhf"
			},
			{
				"type": "unocc",
				"energy": 0.02096,
				"method": "rhf"
			},
			{
				"type": "unocc",
				"energy": 0.02806,
				"method": "rhf"
			},
			{
				"type": "unocc",
				"energy": 0.03377,
				"method": "rhf"
			}
		],
		"cosmo_sigma_profile": { 
			"-0.025": 0.0,
			"-0.024": 0.0,
			"-0.023": 0.0,
			"-0.022": 0.0,
			"-0.021": 0.0,
			"-0.02": 0.0,
			"-0.019": 0.000333872329626,
			"-0.018": 0.980310254148,
			"-0.017": 1.45306285683,
			"-0.016": 2.19960767994,
			"-0.015": 2.32091298383,
			"-0.014": 1.84138003993,
			"-0.013": 1.65702363053,
			"-0.012": 2.88525522263,
			"-0.011": 2.56095659969,
			"-0.01": 2.52466529616,
			"-0.009": 2.81103371939,
			"-0.008": 3.38898096756,
			"-0.007": 6.88288213339,
			"-0.006": 7.43108619808,
			"-0.005": 9.37980083152,
			"-0.004": 12.5799428637,
			"-0.003": 14.2823163804,
			"-0.002": 17.7516810708,
			"-0.001": 25.543705027,
			"0.0": 35.8001903987,
			"0.001": 26.3411072281,
			"0.002": 17.3374134254,
			"0.003": 9.88203716458,
			"0.004": 5.05002041756,
			"0.005": 7.05106495375,
			"0.006": 5.01438320967,
			"0.007": 6.13143625134,
			"0.008": 12.9897642642,
			"0.009": 10.5362854472,
			"0.01": 4.69424915375,
			"0.011": 5.22623853049,
			"0.012": 3.78859343531,
			"0.013": 1.62141284355,
			"0.014": 0.0363289927293,
			"0.015": 0.0,
			"0.016": 0.0,
			"0.017": 0.0,
			"0.018": 0.0,
			"0.019": 0.0,
			"0.02": 0.0,
			"0.021": 0.0,
			"0.022": 0.0,
			"0.023": 0.0,
			"0.024": 0.0,
			"0.025": 0.0
		}
	}
}
