{
	 "smiles": "CC(=O)CC(=O)C1=CC(Cl)=CC=C1", 
	 "Tm": 313.15, 
	 "num_atms": 22, 
	 "gaussian": { 
		 "optdone": 1, 
		 "sigma_profile": "yes", 
		 "theory": "DFT", 
		 "functional": "B3LYP", 
		 "basiset": "6-31G**", 
		 "properties": { 
			 "R2extent": 3381.6495, 
			 "electric_dipole_moment_norm": 1.73219481006, 
			 "electric_quadrupole_moment_norm": 15.5794237345, 
			 "total_energy": -997.129062413, 
			 "HOMO_LUMO_gap": 0.17913, 
			 "cosmo_polarized_energy": -10.23, 
			 "cosmo_cavitation_energy": 28.46, 
			 "cosmo_dispersion_energy": -20.22, 
			 "cosmo_repulsion_energy": 1.61, 
			 "cosmo_total_nonelectrostatic_energy": 9.85, 
			 "SMD_solvation_energy": 5.81 
		},
		"coords": [
			{
				"x": -0.3781973921,
				"y": -0.7801556093,
				"z": -3.8261698799,
				"element": "C" 
			},
			{
				"x": -0.7223205259,
				"y": -0.1202136472,
				"z": -2.5100311942,
				"element": "C" 
			},
			{
				"x": -0.861906039,
				"y": 1.0807251385,
				"z": -2.385882167,
				"element": "O" 
			},
			{
				"x": -0.8692420373,
				"y": -1.0612926404,
				"z": -1.3026303429,
				"element": "C" 
			},
			{
				"x": 0.5073436478,
				"y": -1.4101167832,
				"z": -0.7206425148,
				"element": "C" 
			},
			{
				"x": 1.0906074445,
				"y": -2.4105543355,
				"z": -1.1090685794,
				"element": "O" 
			},
			{
				"x": 1.1158955989,
				"y": -0.5088265249,
				"z": 0.3074030509,
				"element": "C" 
			},
			{
				"x": 0.6056203498,
				"y": 0.7702919977,
				"z": 0.5794224801,
				"element": "C" 
			},
			{
				"x": 1.2327706661,
				"y": 1.5560384288,
				"z": 1.5441189929,
				"element": "C" 
			},
			{
				"x": 0.6076544121,
				"y": 3.1627118353,
				"z": 1.8827279921,
				"element": "Cl" 
			},
			{
				"x": 2.3451103314,
				"y": 1.0952092754,
				"z": 2.2484233708,
				"element": "C" 
			},
			{
				"x": 2.8484471352,
				"y": -0.1777388065,
				"z": 1.9670290715,
				"element": "C" 
			},
			{
				"x": 2.2455185923,
				"y": -0.973987922,
				"z": 0.9993461618,
				"element": "C" 
			},
			{
				"x": -0.1001353973,
				"y": -0.0263222969,
				"z": -4.5637107164,
				"element": "H" 
			},
			{
				"x": 0.4299363125,
				"y": -1.5061721874,
				"z": -3.6871447742,
				"element": "H" 
			},
			{
				"x": -1.2479593329,
				"y": -1.340441941,
				"z": -4.1908561301,
				"element": "H" 
			},
			{
				"x": -1.3128527051,
				"y": -2.0079922516,
				"z": -1.6202610385,
				"element": "H" 
			},
			{
				"x": -1.5095928258,
				"y": -0.5774021054,
				"z": -0.563545988,
				"element": "H" 
			},
			{
				"x": -0.2354575644,
				"y": 1.1698259388,
				"z": 0.0242445487,
				"element": "H" 
			},
			{
				"x": 2.8083652957,
				"y": 1.7246883626,
				"z": 3.0002812435,
				"element": "H" 
			},
			{
				"x": 3.7160101796,
				"y": -0.5407492778,
				"z": 2.5096484298,
				"element": "H" 
			},
			{
				"x": 2.6267838539,
				"y": -1.9607246481,
				"z": 0.7611979832,
				"element": "H" 
			}
		],
		 "valence_orbital": [ 
			{
				"type": "occ",
				"energy": -0.31865,
				"method": "rhf"
			},
			{
				"type": "occ",
				"energy": -0.27592,
				"method": "rhf"
			},
			{
				"type": "occ",
				"energy": -0.2716,
				"method": "rhf"
			},
			{
				"type": "occ",
				"energy": -0.25729,
				"method": "rhf"
			},
			{
				"type": "occ",
				"energy": -0.25559,
				"method": "rhf"
			},
			{
				"type": "unocc",
				"energy": -0.07646,
				"method": "rhf"
			},
			{
				"type": "unocc",
				"energy": -0.02573,
				"method": "rhf"
			},
			{
				"type": "unocc",
				"energy": -0.02311,
				"method": "rhf"
			},
			{
				"type": "unocc",
				"energy": 0.02458,
				"method": "rhf"
			},
			{
				"type": "unocc",
				"energy": 0.02662,
				"method": "rhf"
			}
		],
		"cosmo_sigma_profile": { 
			"-0.025": 0.0,
			"-0.024": 0.0,
			"-0.023": 0.0,
			"-0.022": 0.0,
			"-0.021": 0.0,
			"-0.02": 0.0,
			"-0.019": 0.0,
			"-0.018": 0.0,
			"-0.017": 0.0,
			"-0.016": 0.0,
			"-0.015": 0.0,
			"-0.014": 0.0,
			"-0.013": 0.0,
			"-0.012": 0.0,
			"-0.011": 0.0,
			"-0.01": 0.0,
			"-0.009": 0.0,
			"-0.008": 2.69156519006,
			"-0.007": 12.0945255985,
			"-0.006": 14.6785641129,
			"-0.005": 16.1208723107,
			"-0.004": 17.2108610062,
			"-0.003": 16.0560608274,
			"-0.002": 16.3635366695,
			"-0.001": 16.8173913787,
			"0.0": 15.9831979196,
			"0.001": 21.1681846687,
			"0.002": 21.6506599354,
			"0.003": 12.0295048178,
			"0.004": 13.9755494653,
			"0.005": 6.35046957718,
			"0.006": 2.32876470895,
			"0.007": 2.41114704545,
			"0.008": 3.52244366958,
			"0.009": 3.43544993547,
			"0.01": 5.04379558109,
			"0.011": 6.95788884463,
			"0.012": 2.64655963348,
			"0.013": 0.213553796528,
			"0.014": 0.0,
			"0.015": 0.0,
			"0.016": 0.0,
			"0.017": 0.0,
			"0.018": 0.0,
			"0.019": 0.0,
			"0.02": 0.0,
			"0.021": 0.0,
			"0.022": 0.0,
			"0.023": 0.0,
			"0.024": 0.0,
			"0.025": 0.0
		}
	}
}
