{
	 "smiles": "NC(=O)CC(NS(=O)(=O)C1=C(F)C=CC=C1)C(O)=O", 
	 "Tm": 439.15, 
	 "num_atms": 30, 
	 "gaussian": { 
		 "optdone": 1, 
		 "sigma_profile": "yes", 
		 "theory": "DFT", 
		 "functional": "B3LYP", 
		 "basiset": "6-31G**", 
		 "properties": { 
			 "R2extent": 5750.3558, 
			 "electric_dipole_moment_norm": 5.96526719267, 
			 "electric_quadrupole_moment_norm": 12.2442753285, 
			 "total_energy": -1371.29798958, 
			 "HOMO_LUMO_gap": 0.19128, 
			 "cosmo_polarized_energy": -23.13, 
			 "cosmo_cavitation_energy": 35.52, 
			 "cosmo_dispersion_energy": -25.43, 
			 "cosmo_repulsion_energy": 1.91, 
			 "cosmo_total_nonelectrostatic_energy": 11.99, 
			 "SMD_solvation_energy": 7.16 
		},
		"coords": [
			{
				"x": -1.9778223336,
				"y": 1.1103697468,
				"z": -2.8924308936,
				"element": "N" 
			},
			{
				"x": -0.938901251,
				"y": 0.2861168566,
				"z": -3.20792362,
				"element": "C" 
			},
			{
				"x": -1.0637387891,
				"y": -0.7652875061,
				"z": -3.8243819893,
				"element": "O" 
			},
			{
				"x": 0.434494221,
				"y": 0.7704937573,
				"z": -2.7444728528,
				"element": "C" 
			},
			{
				"x": 0.9725198969,
				"y": -0.1304681314,
				"z": -1.6135893165,
				"element": "C" 
			},
			{
				"x": 0.0462264359,
				"y": -0.2517039819,
				"z": -0.4871801924,
				"element": "N" 
			},
			{
				"x": -0.4151591829,
				"y": 0.9390912515,
				"z": 0.5568566708,
				"element": "S" 
			},
			{
				"x": -0.7020156965,
				"y": 2.1473293124,
				"z": -0.2268471614,
				"element": "O" 
			},
			{
				"x": -1.4296227476,
				"y": 0.326875093,
				"z": 1.4135390723,
				"element": "O" 
			},
			{
				"x": 0.9814159149,
				"y": 1.3304405063,
				"z": 1.6278851869,
				"element": "C" 
			},
			{
				"x": 2.1188159454,
				"y": 1.9930637456,
				"z": 1.1626163338,
				"element": "C" 
			},
			{
				"x": 2.2239368679,
				"y": 2.3107620537,
				"z": -0.1456190911,
				"element": "F" 
			},
			{
				"x": 3.1675732074,
				"y": 2.3218877638,
				"z": 2.0102184119,
				"element": "C" 
			},
			{
				"x": 3.0747158001,
				"y": 1.9821934349,
				"z": 3.3609230335,
				"element": "C" 
			},
			{
				"x": 1.9454157777,
				"y": 1.3206635113,
				"z": 3.8475772479,
				"element": "C" 
			},
			{
				"x": 0.8994703743,
				"y": 0.997756851,
				"z": 2.9834464648,
				"element": "C" 
			},
			{
				"x": 1.2354412911,
				"y": -1.5645170446,
				"z": -2.0783831537,
				"element": "C" 
			},
			{
				"x": 2.0540838684,
				"y": -1.597280171,
				"z": -3.14060932,
				"element": "O" 
			},
			{
				"x": 0.8146158707,
				"y": -2.5520133219,
				"z": -1.516336648,
				"element": "O" 
			},
			{
				"x": -2.9048693232,
				"y": 0.7425648205,
				"z": -3.0561010677,
				"element": "H" 
			},
			{
				"x": -1.8626148016,
				"y": 1.7738955429,
				"z": -2.1360158958,
				"element": "H" 
			},
			{
				"x": 0.4120287369,
				"y": 1.8011861599,
				"z": -2.3893345125,
				"element": "H" 
			},
			{
				"x": 1.1217368011,
				"y": 0.7039425317,
				"z": -3.5911672983,
				"element": "H" 
			},
			{
				"x": 1.9442120593,
				"y": 0.2707144863,
				"z": -1.2978494478,
				"element": "H" 
			},
			{
				"x": -0.099749061,
				"y": -1.2001872756,
				"z": -0.148808391,
				"element": "H" 
			},
			{
				"x": 4.0314940375,
				"y": 2.8361889266,
				"z": 1.6037016603,
				"element": "H" 
			},
			{
				"x": 3.8896338718,
				"y": 2.2368383118,
				"z": 4.0313696437,
				"element": "H" 
			},
			{
				"x": 1.8745648235,
				"y": 1.060940338,
				"z": 4.8986139393,
				"element": "H" 
			},
			{
				"x": 0.0059466317,
				"y": 0.4971571595,
				"z": 3.3390218328,
				"element": "H" 
			},
			{
				"x": 2.1447507531,
				"y": -2.5305147288,
				"z": -3.3961186461,
				"element": "H" 
			}
		],
		 "valence_orbital": [ 
			{
				"type": "occ",
				"energy": -0.29562,
				"method": "rhf"
			},
			{
				"type": "occ",
				"energy": -0.28004,
				"method": "rhf"
			},
			{
				"type": "occ",
				"energy": -0.26972,
				"method": "rhf"
			},
			{
				"type": "occ",
				"energy": -0.26301,
				"method": "rhf"
			},
			{
				"type": "occ",
				"energy": -0.24237,
				"method": "rhf"
			},
			{
				"type": "unocc",
				"energy": -0.05109,
				"method": "rhf"
			},
			{
				"type": "unocc",
				"energy": -0.02922,
				"method": "rhf"
			},
			{
				"type": "unocc",
				"energy": -0.00697,
				"method": "rhf"
			},
			{
				"type": "unocc",
				"energy": 0.02965,
				"method": "rhf"
			},
			{
				"type": "unocc",
				"energy": 0.03981,
				"method": "rhf"
			}
		],
		"cosmo_sigma_profile": { 
			"-0.025": 0.0,
			"-0.024": 0.0,
			"-0.023": 0.0,
			"-0.022": 0.0,
			"-0.021": 0.0,
			"-0.02": 0.0737198315063,
			"-0.019": 0.880206352889,
			"-0.018": 1.13682085584,
			"-0.017": 0.660755197846,
			"-0.016": 0.765992288427,
			"-0.015": 0.82842338994,
			"-0.014": 1.28144544135,
			"-0.013": 1.94831744615,
			"-0.012": 2.18206503884,
			"-0.011": 2.58630752592,
			"-0.01": 2.6424669393,
			"-0.009": 3.9083276545,
			"-0.008": 8.14722540022,
			"-0.007": 13.8213164907,
			"-0.006": 16.6618471391,
			"-0.005": 16.4987447798,
			"-0.004": 14.4596717591,
			"-0.003": 17.5742250644,
			"-0.002": 14.6096724696,
			"-0.001": 16.0811622997,
			"0.0": 18.9334635616,
			"0.001": 18.9292589977,
			"0.002": 17.2004585662,
			"0.003": 13.6815520695,
			"0.004": 8.26453178097,
			"0.005": 8.74988068581,
			"0.006": 7.81446559083,
			"0.007": 8.25318298178,
			"0.008": 8.00579733643,
			"0.009": 7.84857341392,
			"0.01": 10.8152554772,
			"0.011": 7.68048906843,
			"0.012": 2.80846079494,
			"0.013": 4.3509387426,
			"0.014": 2.55507123537,
			"0.015": 0.289599080484,
			"0.016": 0.0,
			"0.017": 0.0,
			"0.018": 0.0,
			"0.019": 0.0,
			"0.02": 0.0,
			"0.021": 0.0,
			"0.022": 0.0,
			"0.023": 0.0,
			"0.024": 0.0,
			"0.025": 0.0
		}
	}
}
