{
	 "smiles": "OC(=O)C1=CSC(=N1)C1CC1", 
	 "Tm": 397.15, 
	 "num_atms": 18, 
	 "gaussian": { 
		 "optdone": 1, 
		 "sigma_profile": "yes", 
		 "theory": "DFT", 
		 "functional": "B3LYP", 
		 "basiset": "6-31G**", 
		 "properties": { 
			 "R2extent": 3070.3735, 
			 "electric_dipole_moment_norm": 2.4149361006, 
			 "electric_quadrupole_moment_norm": 7.70295320575, 
			 "total_energy": -874.327943189, 
			 "HOMO_LUMO_gap": 0.19448, 
			 "cosmo_polarized_energy": -11.67, 
			 "cosmo_cavitation_energy": 24.54, 
			 "cosmo_dispersion_energy": -18.4, 
			 "cosmo_repulsion_energy": 1.46, 
			 "cosmo_total_nonelectrostatic_energy": 7.59, 
			 "SMD_solvation_energy": 4.01 
		},
		"coords": [
			{
				"x": -1.7304957349,
				"y": 0.201272926,
				"z": -1.2678549022,
				"element": "O" 
			},
			{
				"x": -1.4420396997,
				"y": -0.2173417316,
				"z": -0.017533156,
				"element": "C" 
			},
			{
				"x": -2.1529823613,
				"y": 0.0188931649,
				"z": 0.9406621478,
				"element": "O" 
			},
			{
				"x": -0.17922848,
				"y": -0.98807383,
				"z": 0.0632656141,
				"element": "C" 
			},
			{
				"x": 0.2737824106,
				"y": -1.4939367126,
				"z": 1.2539008353,
				"element": "C" 
			},
			{
				"x": 1.7585565765,
				"y": -2.3319768872,
				"z": 1.0037387783,
				"element": "S" 
			},
			{
				"x": 1.6604925494,
				"y": -1.9328652139,
				"z": -0.721457466,
				"element": "C" 
			},
			{
				"x": 0.6070858545,
				"y": -1.240525641,
				"z": -1.0396127576,
				"element": "N" 
			},
			{
				"x": 2.7060577052,
				"y": -2.3710335804,
				"z": -1.6665394286,
				"element": "C" 
			},
			{
				"x": 2.3046318202,
				"y": -2.7331731563,
				"z": -3.0883262107,
				"element": "C" 
			},
			{
				"x": 3.0620417234,
				"y": -1.4671732291,
				"z": -2.8371437518,
				"element": "C" 
			},
			{
				"x": -2.5686602902,
				"y": 0.6870206204,
				"z": -1.1903729119,
				"element": "H" 
			},
			{
				"x": -0.1957173788,
				"y": -1.4044898366,
				"z": 2.2221898137,
				"element": "H" 
			},
			{
				"x": 3.5145438726,
				"y": -2.9429741472,
				"z": -1.221606072,
				"element": "H" 
			},
			{
				"x": 1.2481731738,
				"y": -2.6487483356,
				"z": -3.3202796814,
				"element": "H" 
			},
			{
				"x": 2.8181948632,
				"y": -3.5706515512,
				"z": -3.5504536719,
				"element": "H" 
			},
			{
				"x": 4.1081411527,
				"y": -1.4141329857,
				"z": -3.1227029375,
				"element": "H" 
			},
			{
				"x": 2.5138222429,
				"y": -0.5330898728,
				"z": -2.9003742415,
				"element": "H" 
			}
		],
		 "valence_orbital": [ 
			{
				"type": "occ",
				"energy": -0.31358,
				"method": "rhf"
			},
			{
				"type": "occ",
				"energy": -0.29178,
				"method": "rhf"
			},
			{
				"type": "occ",
				"energy": -0.28498,
				"method": "rhf"
			},
			{
				"type": "occ",
				"energy": -0.27391,
				"method": "rhf"
			},
			{
				"type": "occ",
				"energy": -0.24114,
				"method": "rhf"
			},
			{
				"type": "unocc",
				"energy": -0.04666,
				"method": "rhf"
			},
			{
				"type": "unocc",
				"energy": -0.01023,
				"method": "rhf"
			},
			{
				"type": "unocc",
				"energy": 0.00631,
				"method": "rhf"
			},
			{
				"type": "unocc",
				"energy": 0.08347,
				"method": "rhf"
			},
			{
				"type": "unocc",
				"energy": 0.08537,
				"method": "rhf"
			}
		],
		"cosmo_sigma_profile": { 
			"-0.025": 0.0,
			"-0.024": 0.0,
			"-0.023": 0.0,
			"-0.022": 0.0,
			"-0.021": 0.0,
			"-0.02": 0.0,
			"-0.019": 0.125139093848,
			"-0.018": 0.760766848071,
			"-0.017": 1.18547772913,
			"-0.016": 0.683819391393,
			"-0.015": 0.488935927158,
			"-0.014": 1.00682511491,
			"-0.013": 0.325425760793,
			"-0.012": 0.945406891202,
			"-0.011": 0.915250522924,
			"-0.01": 1.55045129175,
			"-0.009": 2.27826215178,
			"-0.008": 2.61889232717,
			"-0.007": 4.76183316641,
			"-0.006": 7.44064638015,
			"-0.005": 11.8915170898,
			"-0.004": 9.89214139246,
			"-0.003": 12.9575155501,
			"-0.002": 12.7226865464,
			"-0.001": 17.1925054775,
			"0.0": 23.2271024863,
			"0.001": 21.1692434559,
			"0.002": 16.4261727763,
			"0.003": 8.32221582419,
			"0.004": 5.61388080508,
			"0.005": 4.32227089926,
			"0.006": 3.45194834643,
			"0.007": 3.46663261216,
			"0.008": 2.51739473313,
			"0.009": 3.28977912577,
			"0.01": 3.29107154601,
			"0.011": 5.4090765037,
			"0.012": 4.98447859494,
			"0.013": 1.56132809338,
			"0.014": 0.902555226153,
			"0.015": 0.415687512213,
			"0.016": 0.0,
			"0.017": 0.0,
			"0.018": 0.0,
			"0.019": 0.0,
			"0.02": 0.0,
			"0.021": 0.0,
			"0.022": 0.0,
			"0.023": 0.0,
			"0.024": 0.0,
			"0.025": 0.0
		}
	}
}
