{
	 "smiles": "BrC1=C(OCC2=CC=CC=C2)C=CC(C=O)=C1", 
	 "Tm": 370.15, 
	 "num_atms": 28, 
	 "gaussian": { 
		 "optdone": 1, 
		 "sigma_profile": "yes", 
		 "theory": "DFT", 
		 "functional": "B3LYP", 
		 "basiset": "6-31G**", 
		 "properties": { 
			 "R2extent": 6219.0833, 
			 "electric_dipole_moment_norm": 5.68069861725, 
			 "electric_quadrupole_moment_norm": 14.1173127241, 
			 "total_energy": -3261.953105, 
			 "HOMO_LUMO_gap": 0.17797, 
			 "cosmo_polarized_energy": -12.09, 
			 "cosmo_cavitation_energy": 35.21, 
			 "cosmo_dispersion_energy": -24.98, 
			 "cosmo_repulsion_energy": 1.95, 
			 "cosmo_total_nonelectrostatic_energy": 12.18, 
			 "SMD_solvation_energy": 6.06 
		},
		"coords": [
			{
				"x": -1.6470495633,
				"y": 2.3367932009,
				"z": -0.0814694703,
				"element": "Br" 
			},
			{
				"x": 0.0071128032,
				"y": 1.4699343476,
				"z": -0.4606427488,
				"element": "C" 
			},
			{
				"x": 0.3632272186,
				"y": 0.3062490689,
				"z": 0.2606099557,
				"element": "C" 
			},
			{
				"x": -0.5109942404,
				"y": -0.1112415422,
				"z": 1.2047369619,
				"element": "O" 
			},
			{
				"x": -0.1846473211,
				"y": -1.2283224444,
				"z": 2.0398712083,
				"element": "C" 
			},
			{
				"x": -0.3470746052,
				"y": -2.5724588714,
				"z": 1.3596070247,
				"element": "C" 
			},
			{
				"x": 0.4812755468,
				"y": -3.6424695037,
				"z": 1.7168426721,
				"element": "C" 
			},
			{
				"x": 0.300708539,
				"y": -4.9012961497,
				"z": 1.1407056945,
				"element": "C" 
			},
			{
				"x": -0.7055177806,
				"y": -5.0976262906,
				"z": 0.1938267172,
				"element": "C" 
			},
			{
				"x": -1.5316070745,
				"y": -4.0316255924,
				"z": -0.1703909378,
				"element": "C" 
			},
			{
				"x": -1.3575011984,
				"y": -2.7763483518,
				"z": 0.4121023418,
				"element": "C" 
			},
			{
				"x": 1.5796205889,
				"y": -0.3268922125,
				"z": -0.0366780254,
				"element": "C" 
			},
			{
				"x": 2.4184299072,
				"y": 0.1973442183,
				"z": -1.0160862925,
				"element": "C" 
			},
			{
				"x": 2.0647416882,
				"y": 1.3522759142,
				"z": -1.7196404567,
				"element": "C" 
			},
			{
				"x": 2.957729403,
				"y": 1.902481437,
				"z": -2.7571804426,
				"element": "C" 
			},
			{
				"x": 2.7261223541,
				"y": 2.8996039739,
				"z": -3.4157536535,
				"element": "O" 
			},
			{
				"x": 0.8434706549,
				"y": 1.9851372537,
				"z": -1.4327553418,
				"element": "C" 
			},
			{
				"x": -0.8888996226,
				"y": -1.1344304786,
				"z": 2.8725818557,
				"element": "H" 
			},
			{
				"x": 0.8269413181,
				"y": -1.1138681139,
				"z": 2.448909205,
				"element": "H" 
			},
			{
				"x": 1.2712087517,
				"y": -3.4926339976,
				"z": 2.4498327397,
				"element": "H" 
			},
			{
				"x": 0.9504194532,
				"y": -5.7238032277,
				"z": 1.4256212031,
				"element": "H" 
			},
			{
				"x": -0.8436028514,
				"y": -6.0744656629,
				"z": -0.2603156419,
				"element": "H" 
			},
			{
				"x": -2.3146509124,
				"y": -4.1782079734,
				"z": -0.9087533611,
				"element": "H" 
			},
			{
				"x": -1.9979282805,
				"y": -1.9465142776,
				"z": 0.129159872,
				"element": "H" 
			},
			{
				"x": 1.8566523156,
				"y": -1.2380920244,
				"z": 0.4777229373,
				"element": "H" 
			},
			{
				"x": 3.3576025317,
				"y": -0.3025873194,
				"z": -1.2400858995,
				"element": "H" 
			},
			{
				"x": 3.8974913586,
				"y": 1.3245509089,
				"z": -2.9071326702,
				"element": "H" 
			},
			{
				"x": 0.5736190172,
				"y": 2.8790137109,
				"z": -1.9837454468,
				"element": "H" 
			}
		],
		 "valence_orbital": [ 
			{
				"type": "occ",
				"energy": -0.26299,
				"method": "rhf"
			},
			{
				"type": "occ",
				"energy": -0.26077,
				"method": "rhf"
			},
			{
				"type": "occ",
				"energy": -0.25605,
				"method": "rhf"
			},
			{
				"type": "occ",
				"energy": -0.25332,
				"method": "rhf"
			},
			{
				"type": "occ",
				"energy": -0.23724,
				"method": "rhf"
			},
			{
				"type": "unocc",
				"energy": -0.05927,
				"method": "rhf"
			},
			{
				"type": "unocc",
				"energy": -0.02542,
				"method": "rhf"
			},
			{
				"type": "unocc",
				"energy": -0.01686,
				"method": "rhf"
			},
			{
				"type": "unocc",
				"energy": -0.01436,
				"method": "rhf"
			},
			{
				"type": "unocc",
				"energy": 0.00634,
				"method": "rhf"
			}
		],
		"cosmo_sigma_profile": { 
			"-0.025": 0.0,
			"-0.024": 0.0,
			"-0.023": 0.0,
			"-0.022": 0.0,
			"-0.021": 0.0,
			"-0.02": 0.0,
			"-0.019": 0.0,
			"-0.018": 0.0,
			"-0.017": 0.0,
			"-0.016": 0.0,
			"-0.015": 0.0,
			"-0.014": 0.0,
			"-0.013": 0.0,
			"-0.012": 0.0,
			"-0.011": 0.0,
			"-0.01": 0.0,
			"-0.009": 0.0826226350995,
			"-0.008": 4.04845045164,
			"-0.007": 11.3493937106,
			"-0.006": 19.192065856,
			"-0.005": 20.9090469429,
			"-0.004": 21.693452024,
			"-0.003": 19.2851374056,
			"-0.002": 16.7282548872,
			"-0.001": 18.8838155376,
			"0.0": 20.9642466059,
			"0.001": 26.3760861133,
			"0.002": 24.8863562887,
			"0.003": 18.5708541323,
			"0.004": 19.98645079,
			"0.005": 15.4179642601,
			"0.006": 6.99907023978,
			"0.007": 2.74919120935,
			"0.008": 3.78671805952,
			"0.009": 2.92505103874,
			"0.01": 2.61638146779,
			"0.011": 3.729375775,
			"0.012": 3.51325999522,
			"0.013": 0.997021112266,
			"0.014": 0.0306498754252,
			"0.015": 0.0,
			"0.016": 0.0,
			"0.017": 0.0,
			"0.018": 0.0,
			"0.019": 0.0,
			"0.02": 0.0,
			"0.021": 0.0,
			"0.022": 0.0,
			"0.023": 0.0,
			"0.024": 0.0,
			"0.025": 0.0
		}
	}
}
