{
	 "smiles": "CC(C)CN1C=C(C(F)F)C(=N1)C(O)=O", 
	 "Tm": 368.15, 
	 "num_atms": 27, 
	 "gaussian": { 
		 "optdone": 1, 
		 "sigma_profile": "yes", 
		 "theory": "DFT", 
		 "functional": "B3LYP", 
		 "basiset": "6-31G**", 
		 "properties": { 
			 "R2extent": 4222.3814, 
			 "electric_dipole_moment_norm": 4.21966022684, 
			 "electric_quadrupole_moment_norm": 6.91524797531, 
			 "total_energy": -809.823486462, 
			 "HOMO_LUMO_gap": 0.2278, 
			 "cosmo_polarized_energy": -14.28, 
			 "cosmo_cavitation_energy": 32.15, 
			 "cosmo_dispersion_energy": -22.0, 
			 "cosmo_repulsion_energy": 1.72, 
			 "cosmo_total_nonelectrostatic_energy": 11.88, 
			 "SMD_solvation_energy": 7.01 
		},
		"coords": [
			{
				"x": -3.7542190865,
				"y": -3.0909631359,
				"z": 0.4596531201,
				"element": "C" 
			},
			{
				"x": -2.6729649751,
				"y": -2.0691831124,
				"z": 0.0788970308,
				"element": "C" 
			},
			{
				"x": -2.8517308691,
				"y": -1.5703585502,
				"z": -1.3605321304,
				"element": "C" 
			},
			{
				"x": -1.2829921829,
				"y": -2.6957328813,
				"z": 0.3053267144,
				"element": "C" 
			},
			{
				"x": -0.1753908612,
				"y": -1.7614299797,
				"z": 0.114349783,
				"element": "N" 
			},
			{
				"x": 0.2771090501,
				"y": -0.8279462932,
				"z": 0.9971678502,
				"element": "C" 
			},
			{
				"x": 1.3016707857,
				"y": -0.1481804467,
				"z": 0.3717635613,
				"element": "C" 
			},
			{
				"x": 2.0870595873,
				"y": 0.9892119915,
				"z": 0.9347353052,
				"element": "C" 
			},
			{
				"x": 1.5837411539,
				"y": 2.1836702833,
				"z": 0.4890736333,
				"element": "F" 
			},
			{
				"x": 1.9605493933,
				"y": 0.9857496723,
				"z": 2.3032693775,
				"element": "F" 
			},
			{
				"x": 1.3895402555,
				"y": -0.7536760746,
				"z": -0.9089541768,
				"element": "C" 
			},
			{
				"x": 0.4861022014,
				"y": -1.7312802795,
				"z": -1.0521361791,
				"element": "N" 
			},
			{
				"x": 2.3623080506,
				"y": -0.4089982549,
				"z": -1.9607795542,
				"element": "C" 
			},
			{
				"x": 2.1989884888,
				"y": -1.1067021494,
				"z": -3.1027083837,
				"element": "O" 
			},
			{
				"x": 3.2377943416,
				"y": 0.4251052688,
				"z": -1.8136239091,
				"element": "O" 
			},
			{
				"x": -3.6550954995,
				"y": -3.4201200403,
				"z": 1.5000039902,
				"element": "H" 
			},
			{
				"x": -3.6986634081,
				"y": -3.9792364901,
				"z": -0.1808286923,
				"element": "H" 
			},
			{
				"x": -4.7525284063,
				"y": -2.6596319753,
				"z": 0.3392527365,
				"element": "H" 
			},
			{
				"x": -2.7588872742,
				"y": -1.2092901049,
				"z": 0.7585659302,
				"element": "H" 
			},
			{
				"x": -2.0811517799,
				"y": -0.8470617238,
				"z": -1.6392029675,
				"element": "H" 
			},
			{
				"x": -3.8284098915,
				"y": -1.0907837383,
				"z": -1.4809540813,
				"element": "H" 
			},
			{
				"x": -2.7958321638,
				"y": -2.4029991567,
				"z": -2.0713512725,
				"element": "H" 
			},
			{
				"x": -1.2082139146,
				"y": -3.0927257842,
				"z": 1.3231557755,
				"element": "H" 
			},
			{
				"x": -1.1109354394,
				"y": -3.5172966566,
				"z": -0.3946250841,
				"element": "H" 
			},
			{
				"x": -0.1366823036,
				"y": -0.7246182554,
				"z": 1.9887526457,
				"element": "H" 
			},
			{
				"x": 3.1469941202,
				"y": 0.9544192596,
				"z": 0.6744748216,
				"element": "H" 
			},
			{
				"x": 2.8968406271,
				"y": -0.7934413921,
				"z": -3.7021458444,
				"element": "H" 
			}
		],
		 "valence_orbital": [ 
			{
				"type": "occ",
				"energy": -0.31983,
				"method": "rhf"
			},
			{
				"type": "occ",
				"energy": -0.30624,
				"method": "rhf"
			},
			{
				"type": "occ",
				"energy": -0.2814,
				"method": "rhf"
			},
			{
				"type": "occ",
				"energy": -0.26931,
				"method": "rhf"
			},
			{
				"type": "occ",
				"energy": -0.26564,
				"method": "rhf"
			},
			{
				"type": "unocc",
				"energy": -0.03784,
				"method": "rhf"
			},
			{
				"type": "unocc",
				"energy": 0.00464,
				"method": "rhf"
			},
			{
				"type": "unocc",
				"energy": 0.07124,
				"method": "rhf"
			},
			{
				"type": "unocc",
				"energy": 0.08032,
				"method": "rhf"
			},
			{
				"type": "unocc",
				"energy": 0.09609,
				"method": "rhf"
			}
		],
		"cosmo_sigma_profile": { 
			"-0.025": 0.0,
			"-0.024": 0.0,
			"-0.023": 0.0,
			"-0.022": 0.0,
			"-0.021": 0.0,
			"-0.02": 0.0,
			"-0.019": 0.0966389271278,
			"-0.018": 1.0740373626,
			"-0.017": 0.831801524572,
			"-0.016": 0.815787959619,
			"-0.015": 0.755601766193,
			"-0.014": 0.739673356768,
			"-0.013": 1.09768860637,
			"-0.012": 0.340501014544,
			"-0.011": 0.719328350493,
			"-0.01": 2.31749540831,
			"-0.009": 2.79727066021,
			"-0.008": 4.1025433208,
			"-0.007": 5.46734926528,
			"-0.006": 7.91787857687,
			"-0.005": 8.87504351875,
			"-0.004": 13.8766789249,
			"-0.003": 24.250292388,
			"-0.002": 23.862028445,
			"-0.001": 23.3926420462,
			"0.0": 22.7414538429,
			"0.001": 23.5638894393,
			"0.002": 9.35211350093,
			"0.003": 9.17989875012,
			"0.004": 16.1477945217,
			"0.005": 19.5409836497,
			"0.006": 4.80258607176,
			"0.007": 3.47254231278,
			"0.008": 3.61040065161,
			"0.009": 3.15717774383,
			"0.01": 4.18071123781,
			"0.011": 4.98085739178,
			"0.012": 2.66520369061,
			"0.013": 1.34254883728,
			"0.014": 1.19214007989,
			"0.015": 0.127777350384,
			"0.016": 0.0,
			"0.017": 0.0,
			"0.018": 0.0,
			"0.019": 0.0,
			"0.02": 0.0,
			"0.021": 0.0,
			"0.022": 0.0,
			"0.023": 0.0,
			"0.024": 0.0,
			"0.025": 0.0
		}
	}
}
