{
	 "smiles": "COC1=C(O)C(=CC=C1)C(=O)NN", 
	 "Tm": 418.15, 
	 "num_atms": 23, 
	 "gaussian": { 
		 "optdone": 1, 
		 "sigma_profile": "yes", 
		 "theory": "DFT", 
		 "functional": "B3LYP", 
		 "basiset": "6-31G**", 
		 "properties": { 
			 "R2extent": 3035.5103, 
			 "electric_dipole_moment_norm": 6.19048128662, 
			 "electric_quadrupole_moment_norm": 3.18444188046, 
			 "total_energy": -646.013892249, 
			 "HOMO_LUMO_gap": 0.1966, 
			 "cosmo_polarized_energy": -16.75, 
			 "cosmo_cavitation_energy": 26.76, 
			 "cosmo_dispersion_energy": -19.87, 
			 "cosmo_repulsion_energy": 1.59, 
			 "cosmo_total_nonelectrostatic_energy": 8.48, 
			 "SMD_solvation_energy": 6.7 
		},
		"coords": [
			{
				"x": -2.6249777646,
				"y": 1.2938929351,
				"z": -1.9450271657,
				"element": "C" 
			},
			{
				"x": -1.5969419951,
				"y": 1.5587395365,
				"z": -1.0008803913,
				"element": "O" 
			},
			{
				"x": -0.4764795979,
				"y": 0.760741248,
				"z": -1.0171217657,
				"element": "C" 
			},
			{
				"x": 0.4418136057,
				"y": 1.0732770953,
				"z": 0.0093325545,
				"element": "C" 
			},
			{
				"x": 0.122553771,
				"y": 2.0768513712,
				"z": 0.8813264621,
				"element": "O" 
			},
			{
				"x": 1.6312717914,
				"y": 0.348953377,
				"z": 0.1315019133,
				"element": "C" 
			},
			{
				"x": 1.8657351343,
				"y": -0.7108356759,
				"z": -0.7653250543,
				"element": "C" 
			},
			{
				"x": 0.9690098016,
				"y": -1.0055844957,
				"z": -1.7809824139,
				"element": "C" 
			},
			{
				"x": -0.2158530047,
				"y": -0.2673161342,
				"z": -1.9139550883,
				"element": "C" 
			},
			{
				"x": 2.6412681283,
				"y": 0.523835382,
				"z": 1.2384513422,
				"element": "C" 
			},
			{
				"x": 3.1202622709,
				"y": -0.4530734455,
				"z": 1.8065608525,
				"element": "O" 
			},
			{
				"x": 3.0404757172,
				"y": 1.792107019,
				"z": 1.5714417784,
				"element": "N" 
			},
			{
				"x": 2.8465598815,
				"y": 2.9798949308,
				"z": 0.8438444634,
				"element": "N" 
			},
			{
				"x": -2.2662547663,
				"y": 1.4305781462,
				"z": -2.9725377663,
				"element": "H" 
			},
			{
				"x": -3.0171383936,
				"y": 0.2760745839,
				"z": -1.8304205849,
				"element": "H" 
			},
			{
				"x": -3.4186266541,
				"y": 2.0139031562,
				"z": -1.7413489848,
				"element": "H" 
			},
			{
				"x": -0.7629206042,
				"y": 2.3891898152,
				"z": 0.6334829412,
				"element": "H" 
			},
			{
				"x": 2.7681074081,
				"y": -1.2964200802,
				"z": -0.6298167463,
				"element": "H" 
			},
			{
				"x": 1.1729040729,
				"y": -1.8172024698,
				"z": -2.471949409,
				"element": "H" 
			},
			{
				"x": -0.9204996561,
				"y": -0.5056785496,
				"z": -2.7023613667,
				"element": "H" 
			},
			{
				"x": 3.765126473,
				"y": 1.8305810503,
				"z": 2.2765048466,
				"element": "H" 
			},
			{
				"x": 1.8592561053,
				"y": 3.2204595832,
				"z": 0.8890123884,
				"element": "H" 
			},
			{
				"x": 3.0926482756,
				"y": 2.827331621,
				"z": -0.1322328053,
				"element": "H" 
			}
		],
		 "valence_orbital": [ 
			{
				"type": "occ",
				"energy": -0.27436,
				"method": "rhf"
			},
			{
				"type": "occ",
				"energy": -0.25503,
				"method": "rhf"
			},
			{
				"type": "occ",
				"energy": -0.2448,
				"method": "rhf"
			},
			{
				"type": "occ",
				"energy": -0.231,
				"method": "rhf"
			},
			{
				"type": "occ",
				"energy": -0.22076,
				"method": "rhf"
			},
			{
				"type": "unocc",
				"energy": -0.02416,
				"method": "rhf"
			},
			{
				"type": "unocc",
				"energy": 0.00605,
				"method": "rhf"
			},
			{
				"type": "unocc",
				"energy": 0.05291,
				"method": "rhf"
			},
			{
				"type": "unocc",
				"energy": 0.06401,
				"method": "rhf"
			},
			{
				"type": "unocc",
				"energy": 0.0841,
				"method": "rhf"
			}
		],
		"cosmo_sigma_profile": { 
			"-0.025": 0.0,
			"-0.024": 0.0,
			"-0.023": 0.0,
			"-0.022": 0.0,
			"-0.021": 0.0,
			"-0.02": 0.0,
			"-0.019": 0.0,
			"-0.018": 0.0,
			"-0.017": 0.0,
			"-0.016": 0.0,
			"-0.015": 0.14038950537,
			"-0.014": 0.503772734953,
			"-0.013": 1.65934355747,
			"-0.012": 1.55055842918,
			"-0.011": 2.66962261481,
			"-0.01": 2.6520141051,
			"-0.009": 3.04282362952,
			"-0.008": 2.27438599791,
			"-0.007": 6.36127521038,
			"-0.006": 15.5419105074,
			"-0.005": 16.8783474914,
			"-0.004": 18.3243478285,
			"-0.003": 15.3336163357,
			"-0.002": 11.2560154318,
			"-0.001": 11.521504088,
			"0.0": 9.89859467682,
			"0.001": 12.6334913682,
			"0.002": 13.2269621754,
			"0.003": 11.7334179766,
			"0.004": 11.1907397918,
			"0.005": 9.19761231945,
			"0.006": 5.3847742627,
			"0.007": 3.33303765213,
			"0.008": 2.98432607265,
			"0.009": 3.08127890604,
			"0.01": 2.37551969431,
			"0.011": 2.15438547984,
			"0.012": 2.78491929292,
			"0.013": 4.5856316866,
			"0.014": 5.63188567948,
			"0.015": 1.41487605147,
			"0.016": 0.456061615469,
			"0.017": 0.231588399592,
			"0.018": 0.0,
			"0.019": 0.0,
			"0.02": 0.0,
			"0.021": 0.0,
			"0.022": 0.0,
			"0.023": 0.0,
			"0.024": 0.0,
			"0.025": 0.0
		}
	}
}
