{
	 "smiles": "COCCN1C(S)=NN=C1C1=CC=CC=C1", 
	 "Tm": 407.15, 
	 "num_atms": 29, 
	 "gaussian": { 
		 "optdone": 1, 
		 "sigma_profile": "yes", 
		 "theory": "DFT", 
		 "functional": "B3LYP", 
		 "basiset": "6-31G**", 
		 "properties": { 
			 "R2extent": 4960.5413, 
			 "electric_dipole_moment_norm": 5.50704574704, 
			 "electric_quadrupole_moment_norm": 16.733590148, 
			 "total_energy": -1064.63153631, 
			 "HOMO_LUMO_gap": 0.19184, 
			 "cosmo_polarized_energy": -17.02, 
			 "cosmo_cavitation_energy": 33.81, 
			 "cosmo_dispersion_energy": -24.49, 
			 "cosmo_repulsion_energy": 1.87, 
			 "cosmo_total_nonelectrostatic_energy": 11.2, 
			 "SMD_solvation_energy": 3.98 
		},
		"coords": [
			{
				"x": 2.0612911543,
				"y": 3.4375217243,
				"z": 0.5592254389,
				"element": "C" 
			},
			{
				"x": 1.3378762557,
				"y": 2.3489960801,
				"z": 0.0154427801,
				"element": "O" 
			},
			{
				"x": 1.6761412076,
				"y": 1.1101832894,
				"z": 0.5966730193,
				"element": "C" 
			},
			{
				"x": 0.7774236048,
				"y": 0.0179335225,
				"z": 0.0205222838,
				"element": "C" 
			},
			{
				"x": -0.6338225972,
				"y": 0.1585219201,
				"z": 0.3745591296,
				"element": "N" 
			},
			{
				"x": -1.200933987,
				"y": -0.1716790489,
				"z": 1.5812707452,
				"element": "C" 
			},
			{
				"x": -0.2563994231,
				"y": -0.6980539665,
				"z": 2.9830368236,
				"element": "S" 
			},
			{
				"x": -2.5081503108,
				"y": -0.0758211434,
				"z": 1.5418673729,
				"element": "N" 
			},
			{
				"x": -2.8381257709,
				"y": 0.3189393314,
				"z": 0.2650075032,
				"element": "N" 
			},
			{
				"x": -1.7269335742,
				"y": 0.4607273235,
				"z": -0.4288679344,
				"element": "C" 
			},
			{
				"x": -1.7043436632,
				"y": 0.8199466675,
				"z": -1.856188848,
				"element": "C" 
			},
			{
				"x": -0.7297121712,
				"y": 1.6561532119,
				"z": -2.4261355328,
				"element": "C" 
			},
			{
				"x": -0.7854180582,
				"y": 1.9682552196,
				"z": -3.7857131306,
				"element": "C" 
			},
			{
				"x": -1.8125623525,
				"y": 1.4679309828,
				"z": -4.5863713564,
				"element": "C" 
			},
			{
				"x": -2.7963452703,
				"y": 0.6531712107,
				"z": -4.0194079238,
				"element": "C" 
			},
			{
				"x": -2.7436399059,
				"y": 0.3288636041,
				"z": -2.6667065743,
				"element": "C" 
			},
			{
				"x": 1.8804873735,
				"y": 3.5415820528,
				"z": 1.6391994241,
				"element": "H" 
			},
			{
				"x": 3.144118794,
				"y": 3.3278382243,
				"z": 0.3947338623,
				"element": "H" 
			},
			{
				"x": 1.7139683793,
				"y": 4.3397716278,
				"z": 0.0521025925,
				"element": "H" 
			},
			{
				"x": 1.5706200244,
				"y": 1.1548673486,
				"z": 1.6923443168,
				"element": "H" 
			},
			{
				"x": 2.7247459112,
				"y": 0.8428105426,
				"z": 0.3799510575,
				"element": "H" 
			},
			{
				"x": 1.1283713129,
				"y": -0.9538802491,
				"z": 0.3855320953,
				"element": "H" 
			},
			{
				"x": 0.8480166164,
				"y": 0.0125561635,
				"z": -1.0681004662,
				"element": "H" 
			},
			{
				"x": -1.3553873573,
				"y": -1.0810699272,
				"z": 3.6597868108,
				"element": "H" 
			},
			{
				"x": 0.0473973174,
				"y": 2.086292484,
				"z": -1.8038937014,
				"element": "H" 
			},
			{
				"x": -0.028214607,
				"y": 2.6180413111,
				"z": -4.2155777726,
				"element": "H" 
			},
			{
				"x": -1.8514520495,
				"y": 1.7158103838,
				"z": -5.6432800669,
				"element": "H" 
			},
			{
				"x": -3.6038952192,
				"y": 0.265559789,
				"z": -4.6338120621,
				"element": "H" 
			},
			{
				"x": -3.5025216343,
				"y": -0.3010696806,
				"z": -2.2155998863,
				"element": "H" 
			}
		],
		 "valence_orbital": [ 
			{
				"type": "occ",
				"energy": -0.27812,
				"method": "rhf"
			},
			{
				"type": "occ",
				"energy": -0.2623,
				"method": "rhf"
			},
			{
				"type": "occ",
				"energy": -0.25172,
				"method": "rhf"
			},
			{
				"type": "occ",
				"energy": -0.24791,
				"method": "rhf"
			},
			{
				"type": "occ",
				"energy": -0.21615,
				"method": "rhf"
			},
			{
				"type": "unocc",
				"energy": -0.02431,
				"method": "rhf"
			},
			{
				"type": "unocc",
				"energy": -0.00351,
				"method": "rhf"
			},
			{
				"type": "unocc",
				"energy": 0.00565,
				"method": "rhf"
			},
			{
				"type": "unocc",
				"energy": 0.02997,
				"method": "rhf"
			},
			{
				"type": "unocc",
				"energy": 0.06017,
				"method": "rhf"
			}
		],
		"cosmo_sigma_profile": { 
			"-0.025": 0.0,
			"-0.024": 0.0,
			"-0.023": 0.0,
			"-0.022": 0.0,
			"-0.021": 0.0,
			"-0.02": 0.0,
			"-0.019": 0.0,
			"-0.018": 0.0,
			"-0.017": 0.0,
			"-0.016": 0.0,
			"-0.015": 0.0,
			"-0.014": 0.0,
			"-0.013": 0.0697914484345,
			"-0.012": 1.63607252892,
			"-0.011": 0.99296138539,
			"-0.01": 1.25423859799,
			"-0.009": 1.24091583463,
			"-0.008": 2.3134421911,
			"-0.007": 5.09456895551,
			"-0.006": 15.4927161745,
			"-0.005": 22.9789421308,
			"-0.004": 31.1537724349,
			"-0.003": 24.2594762618,
			"-0.002": 21.8709561025,
			"-0.001": 14.7776517499,
			"0.0": 15.7718665495,
			"0.001": 17.200228144,
			"0.002": 15.0592830556,
			"0.003": 16.5573805839,
			"0.004": 18.1345080622,
			"0.005": 14.183383083,
			"0.006": 6.12965582065,
			"0.007": 3.64925728359,
			"0.008": 2.20985021603,
			"0.009": 2.17132037853,
			"0.01": 1.97207185814,
			"0.011": 1.88982574787,
			"0.012": 2.99320821209,
			"0.013": 2.99906019198,
			"0.014": 3.74404289928,
			"0.015": 2.00447196931,
			"0.016": 1.78776167882,
			"0.017": 0.389383436144,
			"0.018": 0.0,
			"0.019": 0.0,
			"0.02": 0.0,
			"0.021": 0.0,
			"0.022": 0.0,
			"0.023": 0.0,
			"0.024": 0.0,
			"0.025": 0.0
		}
	}
}
