{
	 "smiles": "CC(C)(C)OC(=O)CC1CC(CC#N)OC(C)(C)O1", 
	 "Tm": 340.65, 
	 "num_atms": 42, 
	 "gaussian": { 
		 "optdone": 1, 
		 "sigma_profile": "yes", 
		 "theory": "DFT", 
		 "functional": "B3LYP", 
		 "basiset": "6-31G**", 
		 "properties": { 
			 "R2extent": 7273.7815, 
			 "electric_dipole_moment_norm": 2.88500778162, 
			 "electric_quadrupole_moment_norm": 26.5542965399, 
			 "total_energy": -903.008060318, 
			 "HOMO_LUMO_gap": 0.26317, 
			 "cosmo_polarized_energy": -15.85, 
			 "cosmo_cavitation_energy": 43.03, 
			 "cosmo_dispersion_energy": -27.87, 
			 "cosmo_repulsion_energy": 2.16, 
			 "cosmo_total_nonelectrostatic_energy": 17.33, 
			 "SMD_solvation_energy": 9.09 
		},
		"coords": [
			{
				"x": 1.9149761533,
				"y": 1.2350523889,
				"z": -4.0322685734,
				"element": "C" 
			},
			{
				"x": 1.305459515,
				"y": 1.6334334133,
				"z": -2.6844420966,
				"element": "C" 
			},
			{
				"x": 2.360036887,
				"y": 1.762528257,
				"z": -1.5807074625,
				"element": "C" 
			},
			{
				"x": 0.48996543,
				"y": 2.9220576889,
				"z": -2.8130995872,
				"element": "C" 
			},
			{
				"x": 0.2830149831,
				"y": 0.6442336517,
				"z": -2.2857307331,
				"element": "O" 
			},
			{
				"x": 0.5981370495,
				"y": -0.6375913534,
				"z": -2.0232073545,
				"element": "C" 
			},
			{
				"x": 1.7006624323,
				"y": -1.1343480168,
				"z": -2.1403467092,
				"element": "O" 
			},
			{
				"x": -0.6297411638,
				"y": -1.398266187,
				"z": -1.5518362216,
				"element": "C" 
			},
			{
				"x": -1.2028323428,
				"y": -0.8163217069,
				"z": -0.2406788704,
				"element": "C" 
			},
			{
				"x": -2.4256214069,
				"y": -1.5775874979,
				"z": 0.2954609115,
				"element": "C" 
			},
			{
				"x": -1.9963044631,
				"y": -2.9011047717,
				"z": 0.9745238613,
				"element": "C" 
			},
			{
				"x": -2.4610639636,
				"y": -4.1696980735,
				"z": 0.2329381946,
				"element": "C" 
			},
			{
				"x": -3.9187219954,
				"y": -4.2947644367,
				"z": 0.2000787322,
				"element": "C" 
			},
			{
				"x": -5.0765185642,
				"y": -4.3736656824,
				"z": 0.1792475531,
				"element": "N" 
			},
			{
				"x": -0.5745336084,
				"y": -3.0213839487,
				"z": 1.0063694224,
				"element": "O" 
			},
			{
				"x": 0.1425659002,
				"y": -1.892391944,
				"z": 1.4976524426,
				"element": "C" 
			},
			{
				"x": -0.1448183103,
				"y": -1.6346217502,
				"z": 2.9802678609,
				"element": "C" 
			},
			{
				"x": 1.6152037553,
				"y": -2.1964743274,
				"z": 1.2422916394,
				"element": "C" 
			},
			{
				"x": -0.2136724859,
				"y": -0.6941754134,
				"z": 0.7819076682,
				"element": "O" 
			},
			{
				"x": 2.5882651183,
				"y": 2.026538674,
				"z": -4.3773059761,
				"element": "H" 
			},
			{
				"x": 2.479366745,
				"y": 0.3060125637,
				"z": -3.9485382578,
				"element": "H" 
			},
			{
				"x": 1.1291296276,
				"y": 1.1077015954,
				"z": -4.7835353206,
				"element": "H" 
			},
			{
				"x": 3.0261819551,
				"y": 2.6010129756,
				"z": -1.8085649697,
				"element": "H" 
			},
			{
				"x": 1.8779150194,
				"y": 1.9589325291,
				"z": -0.6182041603,
				"element": "H" 
			},
			{
				"x": 2.9556931704,
				"y": 0.8534381072,
				"z": -1.4958529793,
				"element": "H" 
			},
			{
				"x": -0.2994587537,
				"y": 2.8068951068,
				"z": -3.5615625129,
				"element": "H" 
			},
			{
				"x": 0.0246683691,
				"y": 3.1822164689,
				"z": -1.8578988813,
				"element": "H" 
			},
			{
				"x": 1.1388795427,
				"y": 3.7482428063,
				"z": -3.1185370751,
				"element": "H" 
			},
			{
				"x": -1.402994344,
				"y": -1.3271543647,
				"z": -2.3265439042,
				"element": "H" 
			},
			{
				"x": -0.3403385442,
				"y": -2.4421528572,
				"z": -1.4320544748,
				"element": "H" 
			},
			{
				"x": -1.494845799,
				"y": 0.216615504,
				"z": -0.4497399863,
				"element": "H" 
			},
			{
				"x": -3.1475956816,
				"y": -1.7591908307,
				"z": -0.5081820007,
				"element": "H" 
			},
			{
				"x": -2.9264995793,
				"y": -0.936932482,
				"z": 1.0274493761,
				"element": "H" 
			},
			{
				"x": -2.3984572098,
				"y": -2.9438841254,
				"z": 1.9953986929,
				"element": "H" 
			},
			{
				"x": -2.0787174645,
				"y": -4.1601433262,
				"z": -0.7937300064,
				"element": "H" 
			},
			{
				"x": -2.0333399006,
				"y": -5.0469543587,
				"z": 0.7297751309,
				"element": "H" 
			},
			{
				"x": 0.4403264081,
				"y": -0.7761505735,
				"z": 3.3189958851,
				"element": "H" 
			},
			{
				"x": -1.1993782686,
				"y": -1.4005602406,
				"z": 3.1484977993,
				"element": "H" 
			},
			{
				"x": 0.1273275043,
				"y": -2.5070772847,
				"z": 3.5810098013,
				"element": "H" 
			},
			{
				"x": 2.2245302611,
				"y": -1.3552376641,
				"z": 1.5821183816,
				"element": "H" 
			},
			{
				"x": 1.7911200103,
				"y": -2.3405457609,
				"z": 0.1746360703,
				"element": "H" 
			},
			{
				"x": 1.9173280125,
				"y": -3.0960327518,
				"z": 1.7859486901,
				"element": "H" 
			}
		],
		 "valence_orbital": [ 
			{
				"type": "occ",
				"energy": -0.31223,
				"method": "rhf"
			},
			{
				"type": "occ",
				"energy": -0.29581,
				"method": "rhf"
			},
			{
				"type": "occ",
				"energy": -0.27865,
				"method": "rhf"
			},
			{
				"type": "occ",
				"energy": -0.26654,
				"method": "rhf"
			},
			{
				"type": "occ",
				"energy": -0.2545,
				"method": "rhf"
			},
			{
				"type": "unocc",
				"energy": 0.00867,
				"method": "rhf"
			},
			{
				"type": "unocc",
				"energy": 0.02588,
				"method": "rhf"
			},
			{
				"type": "unocc",
				"energy": 0.03271,
				"method": "rhf"
			},
			{
				"type": "unocc",
				"energy": 0.06339,
				"method": "rhf"
			},
			{
				"type": "unocc",
				"energy": 0.08331,
				"method": "rhf"
			}
		],
		"cosmo_sigma_profile": { 
			"-0.025": 0.0,
			"-0.024": 0.0,
			"-0.023": 0.0,
			"-0.022": 0.0,
			"-0.021": 0.0,
			"-0.02": 0.0,
			"-0.019": 0.0,
			"-0.018": 0.0,
			"-0.017": 0.0,
			"-0.016": 0.0,
			"-0.015": 0.0,
			"-0.014": 0.0,
			"-0.013": 0.0,
			"-0.012": 0.0,
			"-0.011": 0.0,
			"-0.01": 0.0,
			"-0.009": 0.391967314251,
			"-0.008": 3.6605877839,
			"-0.007": 6.92064384812,
			"-0.006": 17.8336045329,
			"-0.005": 19.1846156817,
			"-0.004": 33.3981712668,
			"-0.003": 33.3812887153,
			"-0.002": 30.7474893587,
			"-0.001": 32.3986105503,
			"0.0": 40.8024727865,
			"0.001": 25.7402461813,
			"0.002": 11.2594312351,
			"0.003": 10.8959308659,
			"0.004": 8.59607583002,
			"0.005": 9.04325967235,
			"0.006": 8.87662659821,
			"0.007": 8.61634307827,
			"0.008": 6.38859783869,
			"0.009": 6.79454891729,
			"0.01": 6.28098128042,
			"0.011": 5.50453718802,
			"0.012": 5.43985621876,
			"0.013": 2.70792166046,
			"0.014": 0.104093065826,
			"0.015": 0.0,
			"0.016": 0.0,
			"0.017": 0.0,
			"0.018": 0.0,
			"0.019": 0.0,
			"0.02": 0.0,
			"0.021": 0.0,
			"0.022": 0.0,
			"0.023": 0.0,
			"0.024": 0.0,
			"0.025": 0.0
		}
	}
}
