{
	 "smiles": "CC(C)(C)N(NC(=O)C1=CC=CC=C1)C(=O)C1=CC=CC(Cl)=C1Cl", 
	 "Tm": 483.15, 
	 "num_atms": 42, 
	 "gaussian": { 
		 "optdone": 1, 
		 "sigma_profile": "yes", 
		 "theory": "DFT", 
		 "functional": "B3LYP", 
		 "basiset": "6-31G**", 
		 "properties": { 
			 "R2extent": 9674.447, 
			 "electric_dipole_moment_norm": 5.80190178304, 
			 "electric_quadrupole_moment_norm": 21.9914512995, 
			 "total_energy": -1877.07833745, 
			 "HOMO_LUMO_gap": 0.2004, 
			 "cosmo_polarized_energy": -19.01, 
			 "cosmo_cavitation_energy": 46.78, 
			 "cosmo_dispersion_energy": -30.68, 
			 "cosmo_repulsion_energy": 2.28, 
			 "cosmo_total_nonelectrostatic_energy": 18.38, 
			 "SMD_solvation_energy": 8.96 
		},
		"coords": [
			{
				"x": -0.787468394,
				"y": -2.3677040111,
				"z": 0.5391784989,
				"element": "C" 
			},
			{
				"x": 0.1423186953,
				"y": -1.1471792754,
				"z": 0.6813857139,
				"element": "C" 
			},
			{
				"x": 0.8871840454,
				"y": -1.2268173944,
				"z": 2.02674032,
				"element": "C" 
			},
			{
				"x": 1.1319532544,
				"y": -1.1855778646,
				"z": -0.4958217292,
				"element": "C" 
			},
			{
				"x": -0.7214537663,
				"y": 0.1045282531,
				"z": 0.6524443659,
				"element": "N" 
			},
			{
				"x": -1.8777313754,
				"y": 0.0176197758,
				"z": 1.4246238374,
				"element": "N" 
			},
			{
				"x": -3.1845209974,
				"y": -0.2201117856,
				"z": 1.0223205461,
				"element": "C" 
			},
			{
				"x": -4.0395892291,
				"y": -0.3171448916,
				"z": 1.8922498542,
				"element": "O" 
			},
			{
				"x": -3.512549914,
				"y": -0.4060916091,
				"z": -0.4274020047,
				"element": "C" 
			},
			{
				"x": -3.109448853,
				"y": 0.4940765253,
				"z": -1.4215405164,
				"element": "C" 
			},
			{
				"x": -3.5344755202,
				"y": 0.3102052524,
				"z": -2.7385972199,
				"element": "C" 
			},
			{
				"x": -4.3501128396,
				"y": -0.7720614441,
				"z": -3.0722004666,
				"element": "C" 
			},
			{
				"x": -4.7670721407,
				"y": -1.6623033652,
				"z": -2.0786634577,
				"element": "C" 
			},
			{
				"x": -4.3651359685,
				"y": -1.4698196035,
				"z": -0.75904994,
				"element": "C" 
			},
			{
				"x": -0.355261654,
				"y": 1.4226884043,
				"z": 0.3813178738,
				"element": "C" 
			},
			{
				"x": -1.1384178128,
				"y": 2.3441104107,
				"z": 0.5613394687,
				"element": "O" 
			},
			{
				"x": 1.0406212257,
				"y": 1.7843285129,
				"z": -0.0809824196,
				"element": "C" 
			},
			{
				"x": 1.9976216583,
				"y": 2.0763931434,
				"z": 0.8978098157,
				"element": "C" 
			},
			{
				"x": 3.2518301016,
				"y": 2.5693263371,
				"z": 0.5444467182,
				"element": "C" 
			},
			{
				"x": 3.5612620068,
				"y": 2.7915641039,
				"z": -0.7942713211,
				"element": "C" 
			},
			{
				"x": 2.6075391333,
				"y": 2.5294520175,
				"z": -1.7797072005,
				"element": "C" 
			},
			{
				"x": 3.0294172337,
				"y": 2.8334760543,
				"z": -3.446703234,
				"element": "Cl" 
			},
			{
				"x": 1.3424401484,
				"y": 2.0362149131,
				"z": -1.4279550051,
				"element": "C" 
			},
			{
				"x": 0.147895039,
				"y": 1.712025343,
				"z": -2.6578419096,
				"element": "Cl" 
			},
			{
				"x": -1.4767464691,
				"y": -2.4615315956,
				"z": 1.3796526647,
				"element": "H" 
			},
			{
				"x": -1.3680701529,
				"y": -2.3152836249,
				"z": -0.3850305733,
				"element": "H" 
			},
			{
				"x": -0.1720945538,
				"y": -3.2712649588,
				"z": 0.5065441659,
				"element": "H" 
			},
			{
				"x": 1.6020491171,
				"y": -0.4073059439,
				"z": 2.1385889257,
				"element": "H" 
			},
			{
				"x": 1.4441288991,
				"y": -2.1668072945,
				"z": 2.0926720421,
				"element": "H" 
			},
			{
				"x": 0.1852727418,
				"y": -1.1998643838,
				"z": 2.8663531132,
				"element": "H" 
			},
			{
				"x": 1.9622996183,
				"y": -0.490208656,
				"z": -0.3833773771,
				"element": "H" 
			},
			{
				"x": 1.5574628448,
				"y": -2.1918281889,
				"z": -0.549869359,
				"element": "H" 
			},
			{
				"x": 0.6246078916,
				"y": -0.9849555293,
				"z": -1.4428549454,
				"element": "H" 
			},
			{
				"x": -1.8104009101,
				"y": 0.3378421208,
				"z": 2.3848430439,
				"element": "H" 
			},
			{
				"x": -2.5062802921,
				"y": 1.354822837,
				"z": -1.1598231344,
				"element": "H" 
			},
			{
				"x": -3.2331878147,
				"y": 1.0206268962,
				"z": -3.5031080439,
				"element": "H" 
			},
			{
				"x": -4.6716832057,
				"y": -0.914767465,
				"z": -4.100049107,
				"element": "H" 
			},
			{
				"x": -5.4151355195,
				"y": -2.4967632092,
				"z": -2.3305968573,
				"element": "H" 
			},
			{
				"x": -4.7077938992,
				"y": -2.1333630123,
				"z": 0.028401928,
				"element": "H" 
			},
			{
				"x": 1.7473068138,
				"y": 1.9288425596,
				"z": 1.9432774936,
				"element": "H" 
			},
			{
				"x": 3.9872828184,
				"y": 2.7889178772,
				"z": 1.3116337573,
				"element": "H" 
			},
			{
				"x": 4.531737995,
				"y": 3.1745937695,
				"z": -1.0885783255,
				"element": "H" 
			}
		],
		 "valence_orbital": [ 
			{
				"type": "occ",
				"energy": -0.26298,
				"method": "rhf"
			},
			{
				"type": "occ",
				"energy": -0.2628,
				"method": "rhf"
			},
			{
				"type": "occ",
				"energy": -0.25578,
				"method": "rhf"
			},
			{
				"type": "occ",
				"energy": -0.25093,
				"method": "rhf"
			},
			{
				"type": "occ",
				"energy": -0.24115,
				"method": "rhf"
			},
			{
				"type": "unocc",
				"energy": -0.04075,
				"method": "rhf"
			},
			{
				"type": "unocc",
				"energy": -0.03746,
				"method": "rhf"
			},
			{
				"type": "unocc",
				"energy": -0.02749,
				"method": "rhf"
			},
			{
				"type": "unocc",
				"energy": -0.00924,
				"method": "rhf"
			},
			{
				"type": "unocc",
				"energy": -0.00741,
				"method": "rhf"
			}
		],
		"cosmo_sigma_profile": { 
			"-0.025": 0.0,
			"-0.024": 0.0,
			"-0.023": 0.0,
			"-0.022": 0.0,
			"-0.021": 0.0,
			"-0.02": 0.0,
			"-0.019": 0.0,
			"-0.018": 0.0,
			"-0.017": 0.0,
			"-0.016": 0.0,
			"-0.015": 0.0155968737158,
			"-0.014": 0.458795449183,
			"-0.013": 1.05194581339,
			"-0.012": 0.706741058036,
			"-0.011": 0.733388757204,
			"-0.01": 1.83975823422,
			"-0.009": 1.56009823839,
			"-0.008": 7.27914264893,
			"-0.007": 9.17051594512,
			"-0.006": 14.9483537274,
			"-0.005": 18.0386113545,
			"-0.004": 24.5113449021,
			"-0.003": 28.9004107572,
			"-0.002": 34.0229693607,
			"-0.001": 37.521358452,
			"0.0": 43.4546463668,
			"0.001": 30.6336663157,
			"0.002": 26.0200734131,
			"0.003": 24.4191750508,
			"0.004": 25.5787652369,
			"0.005": 10.4836216792,
			"0.006": 2.87600327338,
			"0.007": 3.67706658817,
			"0.008": 2.66600025391,
			"0.009": 2.54177112123,
			"0.01": 3.47409701087,
			"0.011": 4.18730159025,
			"0.012": 6.97231929369,
			"0.013": 6.41378245576,
			"0.014": 1.23477060111,
			"0.015": 0.0,
			"0.016": 0.0,
			"0.017": 0.0,
			"0.018": 0.0,
			"0.019": 0.0,
			"0.02": 0.0,
			"0.021": 0.0,
			"0.022": 0.0,
			"0.023": 0.0,
			"0.024": 0.0,
			"0.025": 0.0
		}
	}
}
