{
	 "smiles": "ClC1=CNC(=O)NC1=O", 
	 "Tm": 573.15, 
	 "num_atms": 12, 
	 "gaussian": { 
		 "optdone": 1, 
		 "sigma_profile": "yes", 
		 "theory": "DFT", 
		 "functional": "B3LYP", 
		 "basiset": "6-31G**", 
		 "properties": { 
			 "R2extent": 2800.411, 
			 "electric_dipole_moment_norm": 3.94999391898, 
			 "electric_quadrupole_moment_norm": 12.6287927927, 
			 "total_energy": -874.40057734, 
			 "HOMO_LUMO_gap": 0.19397, 
			 "cosmo_polarized_energy": -18.51, 
			 "cosmo_cavitation_energy": 18.98, 
			 "cosmo_dispersion_energy": -14.58, 
			 "cosmo_repulsion_energy": 1.21, 
			 "cosmo_total_nonelectrostatic_energy": 5.62, 
			 "SMD_solvation_energy": 5.07 
		},
		"coords": [
			{
				"x": -2.2753566973,
				"y": -2.344678178,
				"z": 2.5798334973,
				"element": "Cl" 
			},
			{
				"x": -1.1960700805,
				"y": -1.0506764966,
				"z": 2.1708191695,
				"element": "C" 
			},
			{
				"x": -0.6653002655,
				"y": -0.9371245581,
				"z": 0.9327010751,
				"element": "C" 
			},
			{
				"x": 0.1903534802,
				"y": 0.0900613015,
				"z": 0.6101995545,
				"element": "N" 
			},
			{
				"x": 0.5826725107,
				"y": 1.0856370358,
				"z": 1.5026682516,
				"element": "C" 
			},
			{
				"x": 1.3401928132,
				"y": 1.9865578816,
				"z": 1.1993217013,
				"element": "O" 
			},
			{
				"x": 0.0148411537,
				"y": 0.9298666962,
				"z": 2.7589541391,
				"element": "N" 
			},
			{
				"x": -0.8683913047,
				"y": -0.0680317299,
				"z": 3.2162530639,
				"element": "C" 
			},
			{
				"x": -1.2809352611,
				"y": -0.064185178,
				"z": 4.3590999839,
				"element": "O" 
			},
			{
				"x": -0.8862722084,
				"y": -1.6433648734,
				"z": 0.1414142031,
				"element": "H" 
			},
			{
				"x": 0.5818800978,
				"y": 0.1666762314,
				"z": -0.3175079752,
				"element": "H" 
			},
			{
				"x": 0.272185762,
				"y": 1.6326618674,
				"z": 3.4420433361,
				"element": "H" 
			}
		],
		 "valence_orbital": [ 
			{
				"type": "occ",
				"energy": -0.32876,
				"method": "rhf"
			},
			{
				"type": "occ",
				"energy": -0.30687,
				"method": "rhf"
			},
			{
				"type": "occ",
				"energy": -0.29758,
				"method": "rhf"
			},
			{
				"type": "occ",
				"energy": -0.27856,
				"method": "rhf"
			},
			{
				"type": "occ",
				"energy": -0.25046,
				"method": "rhf"
			},
			{
				"type": "unocc",
				"energy": -0.05649,
				"method": "rhf"
			},
			{
				"type": "unocc",
				"energy": -0.00121,
				"method": "rhf"
			},
			{
				"type": "unocc",
				"energy": 0.00953,
				"method": "rhf"
			},
			{
				"type": "unocc",
				"energy": 0.06581,
				"method": "rhf"
			},
			{
				"type": "unocc",
				"energy": 0.0942,
				"method": "rhf"
			}
		],
		"cosmo_sigma_profile": { 
			"-0.025": 0.0,
			"-0.024": 0.0,
			"-0.023": 0.0,
			"-0.022": 0.0,
			"-0.021": 0.0,
			"-0.02": 0.0,
			"-0.019": 0.0,
			"-0.018": 0.851293730038,
			"-0.017": 1.9083164621,
			"-0.016": 2.48636681311,
			"-0.015": 1.66850708292,
			"-0.014": 2.04816979942,
			"-0.013": 2.68411816742,
			"-0.012": 2.63288583047,
			"-0.011": 3.67626613163,
			"-0.01": 2.67716075529,
			"-0.009": 2.55194911305,
			"-0.008": 2.39901536215,
			"-0.007": 3.21613875605,
			"-0.006": 5.11876795057,
			"-0.005": 4.50738431532,
			"-0.004": 7.64617691707,
			"-0.003": 10.6880069867,
			"-0.002": 11.5221569668,
			"-0.001": 8.33366628254,
			"0.0": 5.74655445095,
			"0.001": 6.18613569486,
			"0.002": 8.17085405424,
			"0.003": 7.78092631526,
			"0.004": 8.52687190626,
			"0.005": 4.70556482678,
			"0.006": 3.49454977079,
			"0.007": 2.41624425309,
			"0.008": 1.98729936542,
			"0.009": 3.28504987699,
			"0.01": 3.63280681222,
			"0.011": 6.52291494856,
			"0.012": 12.2376058665,
			"0.013": 3.33603763464,
			"0.014": 0.016574282747,
			"0.015": 0.0,
			"0.016": 0.0,
			"0.017": 0.0,
			"0.018": 0.0,
			"0.019": 0.0,
			"0.02": 0.0,
			"0.021": 0.0,
			"0.022": 0.0,
			"0.023": 0.0,
			"0.024": 0.0,
			"0.025": 0.0
		}
	}
}
