{
	 "smiles": "CC(=O)CC(C1=CC=C(Cl)C=C1)C1=C(O)OC2=C(C=CC=C2)C1=O", 
	 "Tm": 443.15, 
	 "num_atms": 39, 
	 "gaussian": { 
		 "optdone": 1, 
		 "sigma_profile": "yes", 
		 "theory": "DFT", 
		 "functional": "B3LYP", 
		 "basiset": "6-31G**", 
		 "properties": { 
			 "R2extent": 10355.2978, 
			 "electric_dipole_moment_norm": 6.47426836484, 
			 "electric_quadrupole_moment_norm": 16.266632113, 
			 "total_energy": -1494.14786923, 
			 "HOMO_LUMO_gap": 0.16805, 
			 "cosmo_polarized_energy": -19.79, 
			 "cosmo_cavitation_energy": 44.53, 
			 "cosmo_dispersion_energy": -30.53, 
			 "cosmo_repulsion_energy": 2.32, 
			 "cosmo_total_nonelectrostatic_energy": 16.32, 
			 "SMD_solvation_energy": 8.89 
		},
		"coords": [
			{
				"x": 0.8611515171,
				"y": 0.3877321291,
				"z": 2.9724366493,
				"element": "C" 
			},
			{
				"x": -0.6100437936,
				"y": 0.0604000698,
				"z": 2.7917689023,
				"element": "C" 
			},
			{
				"x": -1.1534571001,
				"y": -0.7811742359,
				"z": 3.4858555251,
				"element": "O" 
			},
			{
				"x": -1.3785288199,
				"y": 0.8840372673,
				"z": 1.7566763762,
				"element": "C" 
			},
			{
				"x": -1.5452831024,
				"y": 0.2931509614,
				"z": 0.3200760981,
				"element": "C" 
			},
			{
				"x": -2.6410267693,
				"y": -0.7579220641,
				"z": 0.1387446019,
				"element": "C" 
			},
			{
				"x": -3.2356690092,
				"y": -1.4631770858,
				"z": 1.1909856361,
				"element": "C" 
			},
			{
				"x": -4.2603779161,
				"y": -2.3828054558,
				"z": 0.9506975673,
				"element": "C" 
			},
			{
				"x": -4.6933950339,
				"y": -2.6023076086,
				"z": -0.3532093281,
				"element": "C" 
			},
			{
				"x": -5.9831802018,
				"y": -3.7624449562,
				"z": -0.6614371066,
				"element": "Cl" 
			},
			{
				"x": -4.1207200571,
				"y": -1.9135786136,
				"z": -1.4223402214,
				"element": "C" 
			},
			{
				"x": -3.1038607996,
				"y": -0.9975678881,
				"z": -1.1649364734,
				"element": "C" 
			},
			{
				"x": -0.2236164113,
				"y": -0.0828044682,
				"z": -0.3378335555,
				"element": "C" 
			},
			{
				"x": 0.3792647481,
				"y": -1.2955066001,
				"z": -0.1908340156,
				"element": "C" 
			},
			{
				"x": -0.1023310342,
				"y": -2.2595040628,
				"z": 0.5970437746,
				"element": "O" 
			},
			{
				"x": 1.5283780764,
				"y": -1.6798262702,
				"z": -0.7937049886,
				"element": "O" 
			},
			{
				"x": 2.1855847501,
				"y": -0.794974838,
				"z": -1.6271739767,
				"element": "C" 
			},
			{
				"x": 1.6825821837,
				"y": 0.4900919548,
				"z": -1.8402011879,
				"element": "C" 
			},
			{
				"x": 2.3946753793,
				"y": 1.3495967195,
				"z": -2.6915592864,
				"element": "C" 
			},
			{
				"x": 3.5666156923,
				"y": 0.9236649711,
				"z": -3.3014208081,
				"element": "C" 
			},
			{
				"x": 4.04794905,
				"y": -0.3744820204,
				"z": -3.0681845561,
				"element": "C" 
			},
			{
				"x": 3.3612037727,
				"y": -1.2447983336,
				"z": -2.2285064299,
				"element": "C" 
			},
			{
				"x": 0.42371747,
				"y": 0.920336793,
				"z": -1.1831703439,
				"element": "C" 
			},
			{
				"x": -0.0371474895,
				"y": 2.0530284513,
				"z": -1.3491547786,
				"element": "O" 
			},
			{
				"x": 1.332270288,
				"y": -0.3513320052,
				"z": 3.6221604037,
				"element": "H" 
			},
			{
				"x": 0.9536422896,
				"y": 1.3801572223,
				"z": 3.4317225693,
				"element": "H" 
			},
			{
				"x": 1.3781674002,
				"y": 0.4401991735,
				"z": 2.0091516135,
				"element": "H" 
			},
			{
				"x": -2.3758352316,
				"y": 1.0800226738,
				"z": 2.1629336831,
				"element": "H" 
			},
			{
				"x": -0.8698297913,
				"y": 1.8461216341,
				"z": 1.6336144895,
				"element": "H" 
			},
			{
				"x": -1.8637431826,
				"y": 1.161408641,
				"z": -0.2683086239,
				"element": "H" 
			},
			{
				"x": -2.8908869902,
				"y": -1.314888245,
				"z": 2.2085128664,
				"element": "H" 
			},
			{
				"x": -4.7133516636,
				"y": -2.9257128391,
				"z": 1.7732013515,
				"element": "H" 
			},
			{
				"x": -4.4721237265,
				"y": -2.0849730101,
				"z": -2.4339771892,
				"element": "H" 
			},
			{
				"x": -2.6646704994,
				"y": -0.4525535472,
				"z": -1.9970403966,
				"element": "H" 
			},
			{
				"x": 0.4593583562,
				"y": -3.0457282728,
				"z": 0.5226206265,
				"element": "H" 
			},
			{
				"x": 1.9914115757,
				"y": 2.3446342569,
				"z": -2.848032407,
				"element": "H" 
			},
			{
				"x": 4.1128989572,
				"y": 1.5920639313,
				"z": -3.9594371837,
				"element": "H" 
			},
			{
				"x": 4.9646890266,
				"y": -0.7073791221,
				"z": -3.5452854242,
				"element": "H" 
			},
			{
				"x": 3.7136180899,
				"y": -2.2518053073,
				"z": -2.0328544529,
				"element": "H" 
			}
		],
		 "valence_orbital": [ 
			{
				"type": "occ",
				"energy": -0.25438,
				"method": "rhf"
			},
			{
				"type": "occ",
				"energy": -0.25217,
				"method": "rhf"
			},
			{
				"type": "occ",
				"energy": -0.24614,
				"method": "rhf"
			},
			{
				"type": "occ",
				"energy": -0.24364,
				"method": "rhf"
			},
			{
				"type": "occ",
				"energy": -0.22654,
				"method": "rhf"
			},
			{
				"type": "unocc",
				"energy": -0.05849,
				"method": "rhf"
			},
			{
				"type": "unocc",
				"energy": -0.02729,
				"method": "rhf"
			},
			{
				"type": "unocc",
				"energy": -0.01917,
				"method": "rhf"
			},
			{
				"type": "unocc",
				"energy": -0.0059,
				"method": "rhf"
			},
			{
				"type": "unocc",
				"energy": -0.00382,
				"method": "rhf"
			}
		],
		"cosmo_sigma_profile": { 
			"-0.025": 0.0,
			"-0.024": 0.0,
			"-0.023": 0.0,
			"-0.022": 0.0,
			"-0.021": 0.0,
			"-0.02": 0.578256791073,
			"-0.019": 0.811120047074,
			"-0.018": 1.11711351675,
			"-0.017": 0.693121683495,
			"-0.016": 0.868618170059,
			"-0.015": 0.744879606645,
			"-0.014": 0.452549623122,
			"-0.013": 1.01621348448,
			"-0.012": 0.831862873014,
			"-0.011": 0.788604673576,
			"-0.01": 0.459093358958,
			"-0.009": 0.970426043826,
			"-0.008": 2.34818606214,
			"-0.007": 8.33790508406,
			"-0.006": 18.5074965314,
			"-0.005": 24.946919695,
			"-0.004": 28.329611091,
			"-0.003": 29.1834582855,
			"-0.002": 25.7920970644,
			"-0.001": 25.286944248,
			"0.0": 24.7887660444,
			"0.001": 23.5904998695,
			"0.002": 29.1269119094,
			"0.003": 27.6762275398,
			"0.004": 22.8975131528,
			"0.005": 17.2997256892,
			"0.006": 6.15224851196,
			"0.007": 5.56283032185,
			"0.008": 5.49612857654,
			"0.009": 3.5777368729,
			"0.01": 3.89105869092,
			"0.011": 4.96100194189,
			"0.012": 3.74370081151,
			"0.013": 5.54153163668,
			"0.014": 1.59997225707,
			"0.015": 0.0,
			"0.016": 0.0,
			"0.017": 0.0,
			"0.018": 0.0,
			"0.019": 0.0,
			"0.02": 0.0,
			"0.021": 0.0,
			"0.022": 0.0,
			"0.023": 0.0,
			"0.024": 0.0,
			"0.025": 0.0
		}
	}
}
