{
	 "smiles": "ClC(=O)C1=CC(=CC=C1)C1=NC=CC=N1", 
	 "Tm": 409.15, 
	 "num_atms": 22, 
	 "gaussian": { 
		 "optdone": 1, 
		 "sigma_profile": "yes", 
		 "theory": "DFT", 
		 "functional": "B3LYP", 
		 "basiset": "6-31G**", 
		 "properties": { 
			 "R2extent": 4730.135, 
			 "electric_dipole_moment_norm": 5.50111261292, 
			 "electric_quadrupole_moment_norm": 17.2863443599, 
			 "total_energy": -1068.31853796, 
			 "HOMO_LUMO_gap": 0.17984, 
			 "cosmo_polarized_energy": -9.24, 
			 "cosmo_cavitation_energy": 29.29, 
			 "cosmo_dispersion_energy": -21.76, 
			 "cosmo_repulsion_energy": 1.68, 
			 "cosmo_total_nonelectrostatic_energy": 9.21, 
			 "SMD_solvation_energy": 3.63 
		},
		"coords": [
			{
				"x": -1.4466549116,
				"y": 3.4724239696,
				"z": 3.4680695814,
				"element": "Cl" 
			},
			{
				"x": -1.6217031535,
				"y": 2.5377572012,
				"z": 1.8962888205,
				"element": "C" 
			},
			{
				"x": -2.457899683,
				"y": 2.8846642467,
				"z": 1.1188154971,
				"element": "O" 
			},
			{
				"x": -0.6813523656,
				"y": 1.4032663746,
				"z": 1.7293420892,
				"element": "C" 
			},
			{
				"x": -0.7986511175,
				"y": 0.6761008951,
				"z": 0.5349080181,
				"element": "C" 
			},
			{
				"x": 0.0423296637,
				"y": -0.4115785503,
				"z": 0.2835716073,
				"element": "C" 
			},
			{
				"x": 1.0057038828,
				"y": -0.7666995894,
				"z": 1.242045318,
				"element": "C" 
			},
			{
				"x": 1.121961672,
				"y": -0.044392463,
				"z": 2.4279690814,
				"element": "C" 
			},
			{
				"x": 0.2841549683,
				"y": 1.0402859095,
				"z": 2.6797995009,
				"element": "C" 
			},
			{
				"x": -0.0829713689,
				"y": -1.1812260659,
				"z": -0.9825057286,
				"element": "C" 
			},
			{
				"x": 0.7565275009,
				"y": -2.216466298,
				"z": -1.1609832797,
				"element": "N" 
			},
			{
				"x": 0.6345032888,
				"y": -2.9000072126,
				"z": -2.3010855904,
				"element": "C" 
			},
			{
				"x": -0.3098949885,
				"y": -2.5738246713,
				"z": -3.27240948,
				"element": "C" 
			},
			{
				"x": -1.1301084184,
				"y": -1.4833407014,
				"z": -2.9873376108,
				"element": "C" 
			},
			{
				"x": -1.0262627307,
				"y": -0.7855801357,
				"z": -1.854810341,
				"element": "N" 
			},
			{
				"x": -1.5447217021,
				"y": 0.9579152839,
				"z": -0.197709814,
				"element": "H" 
			},
			{
				"x": 1.6535162837,
				"y": -1.6117753059,
				"z": 1.0384880969,
				"element": "H" 
			},
			{
				"x": 1.8700561148,
				"y": -0.3275475786,
				"z": 3.1617839605,
				"element": "H" 
			},
			{
				"x": 0.3742874411,
				"y": 1.6018794626,
				"z": 3.6014077462,
				"element": "H" 
			},
			{
				"x": 1.3173953771,
				"y": -3.7368175981,
				"z": -2.4389622417,
				"element": "H" 
			},
			{
				"x": -0.4013660713,
				"y": -3.1350800802,
				"z": -4.1954004146,
				"element": "H" 
			},
			{
				"x": -1.8963496823,
				"y": -1.1564570928,
				"z": -3.6883848166,
				"element": "H" 
			}
		],
		 "valence_orbital": [ 
			{
				"type": "occ",
				"energy": -0.31372,
				"method": "rhf"
			},
			{
				"type": "occ",
				"energy": -0.28972,
				"method": "rhf"
			},
			{
				"type": "occ",
				"energy": -0.27454,
				"method": "rhf"
			},
			{
				"type": "occ",
				"energy": -0.2617,
				"method": "rhf"
			},
			{
				"type": "occ",
				"energy": -0.25722,
				"method": "rhf"
			},
			{
				"type": "unocc",
				"energy": -0.07738,
				"method": "rhf"
			},
			{
				"type": "unocc",
				"energy": -0.06322,
				"method": "rhf"
			},
			{
				"type": "unocc",
				"energy": -0.04996,
				"method": "rhf"
			},
			{
				"type": "unocc",
				"energy": 0.00248,
				"method": "rhf"
			},
			{
				"type": "unocc",
				"energy": 0.02225,
				"method": "rhf"
			}
		],
		"cosmo_sigma_profile": { 
			"-0.025": 0.0,
			"-0.024": 0.0,
			"-0.023": 0.0,
			"-0.022": 0.0,
			"-0.021": 0.0,
			"-0.02": 0.0,
			"-0.019": 0.0,
			"-0.018": 0.0,
			"-0.017": 0.0,
			"-0.016": 0.0,
			"-0.015": 0.0,
			"-0.014": 0.0,
			"-0.013": 0.0,
			"-0.012": 0.0,
			"-0.011": 0.0,
			"-0.01": 0.0,
			"-0.009": 0.0851977750908,
			"-0.008": 5.70725728385,
			"-0.007": 11.4717587809,
			"-0.006": 12.6198671592,
			"-0.005": 10.8979333048,
			"-0.004": 10.4211271112,
			"-0.003": 12.6118552926,
			"-0.002": 17.6308021409,
			"-0.001": 23.8680289581,
			"0.0": 27.8070033339,
			"0.001": 28.5667031237,
			"0.002": 18.7145566192,
			"0.003": 12.1990729371,
			"0.004": 11.6586229616,
			"0.005": 9.76564064515,
			"0.006": 6.34748611147,
			"0.007": 5.01964263016,
			"0.008": 6.19167679111,
			"0.009": 5.5850505997,
			"0.01": 2.08485786491,
			"0.011": 0.376111436492,
			"0.012": 0.0,
			"0.013": 0.0,
			"0.014": 0.0,
			"0.015": 0.0,
			"0.016": 0.0,
			"0.017": 0.0,
			"0.018": 0.0,
			"0.019": 0.0,
			"0.02": 0.0,
			"0.021": 0.0,
			"0.022": 0.0,
			"0.023": 0.0,
			"0.024": 0.0,
			"0.025": 0.0
		}
	}
}
