{
	 "smiles": "OC(=O)C=CC1=C(OC(F)(F)F)C=CC=C1", 
	 "Tm": 448.15, 
	 "num_atms": 23, 
	 "gaussian": { 
		 "optdone": 1, 
		 "sigma_profile": "yes", 
		 "theory": "DFT", 
		 "functional": "B3LYP", 
		 "basiset": "6-31G**", 
		 "properties": { 
			 "R2extent": 4670.3929, 
			 "electric_dipole_moment_norm": 6.34858765396, 
			 "electric_quadrupole_moment_norm": 22.5974321431, 
			 "total_energy": -910.467915939, 
			 "HOMO_LUMO_gap": 0.16973, 
			 "cosmo_polarized_energy": -16.52, 
			 "cosmo_cavitation_energy": 30.2, 
			 "cosmo_dispersion_energy": -21.17, 
			 "cosmo_repulsion_energy": 1.6, 
			 "cosmo_total_nonelectrostatic_energy": 10.63, 
			 "SMD_solvation_energy": 8.03 
		},
		"coords": [
			{
				"x": -5.1100053745,
				"y": -2.2900273806,
				"z": -0.5257067451,
				"element": "O" 
			},
			{
				"x": -4.207224621,
				"y": -1.2819657174,
				"z": -0.6904458331,
				"element": "C" 
			},
			{
				"x": -4.5498534229,
				"y": -0.2502295269,
				"z": -1.2210538387,
				"element": "O" 
			},
			{
				"x": -2.8365573113,
				"y": -1.5565740818,
				"z": -0.1839513878,
				"element": "C" 
			},
			{
				"x": -1.8764291083,
				"y": -0.6251276334,
				"z": -0.3261373448,
				"element": "C" 
			},
			{
				"x": -0.4879994297,
				"y": -0.7169310674,
				"z": 0.1257385935,
				"element": "C" 
			},
			{
				"x": 0.4615766022,
				"y": 0.2296394657,
				"z": -0.3116279465,
				"element": "C" 
			},
			{
				"x": -0.0100016842,
				"y": 1.1755847579,
				"z": -1.2235650669,
				"element": "O" 
			},
			{
				"x": 0.5030899382,
				"y": 2.4344532546,
				"z": -1.2498969872,
				"element": "C" 
			},
			{
				"x": -0.3054127861,
				"y": 3.1778496192,
				"z": -1.9994436389,
				"element": "F" 
			},
			{
				"x": 0.5925416839,
				"y": 2.9768786391,
				"z": -0.0249073664,
				"element": "F" 
			},
			{
				"x": 1.7371183624,
				"y": 2.4736283003,
				"z": -1.7985772976,
				"element": "F" 
			},
			{
				"x": 1.7936835885,
				"y": 0.1821820487,
				"z": 0.0952424745,
				"element": "C" 
			},
			{
				"x": 2.200735707,
				"y": -0.8196816889,
				"z": 0.9744229136,
				"element": "C" 
			},
			{
				"x": 1.2862185125,
				"y": -1.770958671,
				"z": 1.4328698496,
				"element": "C" 
			},
			{
				"x": -0.0357361011,
				"y": -1.715798338,
				"z": 1.0088420355,
				"element": "C" 
			},
			{
				"x": -4.6939554594,
				"y": -3.0498489988,
				"z": -0.095919472,
				"element": "H" 
			},
			{
				"x": -2.6365424522,
				"y": -2.5182944832,
				"z": 0.2845058269,
				"element": "H" 
			},
			{
				"x": -2.1662736068,
				"y": 0.2878280964,
				"z": -0.838183423,
				"element": "H" 
			},
			{
				"x": 2.5044298166,
				"y": 0.9084072329,
				"z": -0.2765415462,
				"element": "H" 
			},
			{
				"x": 3.2367804064,
				"y": -0.8550581339,
				"z": 1.2965728195,
				"element": "H" 
			},
			{
				"x": 1.6036292968,
				"y": -2.5480451317,
				"z": 2.1207812036,
				"element": "H" 
			},
			{
				"x": -0.7457125571,
				"y": -2.4457105618,
				"z": 1.3837821775,
				"element": "H" 
			}
		],
		 "valence_orbital": [ 
			{
				"type": "occ",
				"energy": -0.32739,
				"method": "rhf"
			},
			{
				"type": "occ",
				"energy": -0.30758,
				"method": "rhf"
			},
			{
				"type": "occ",
				"energy": -0.27123,
				"method": "rhf"
			},
			{
				"type": "occ",
				"energy": -0.26917,
				"method": "rhf"
			},
			{
				"type": "occ",
				"energy": -0.2483,
				"method": "rhf"
			},
			{
				"type": "unocc",
				"energy": -0.07857,
				"method": "rhf"
			},
			{
				"type": "unocc",
				"energy": -0.02428,
				"method": "rhf"
			},
			{
				"type": "unocc",
				"energy": 0.00736,
				"method": "rhf"
			},
			{
				"type": "unocc",
				"energy": 0.05497,
				"method": "rhf"
			},
			{
				"type": "unocc",
				"energy": 0.07166,
				"method": "rhf"
			}
		],
		"cosmo_sigma_profile": { 
			"-0.025": 0.0,
			"-0.024": 0.0,
			"-0.023": 0.0,
			"-0.022": 0.0,
			"-0.021": 0.0,
			"-0.02": 0.0105203035226,
			"-0.019": 0.857121693381,
			"-0.018": 1.20766521634,
			"-0.017": 1.35580649908,
			"-0.016": 0.696950600488,
			"-0.015": 1.30655817847,
			"-0.014": 1.12281032051,
			"-0.013": 1.0205426805,
			"-0.012": 0.962430539338,
			"-0.011": 1.32908638842,
			"-0.01": 1.35959258656,
			"-0.009": 2.48264736622,
			"-0.008": 3.24690903571,
			"-0.007": 7.19368313702,
			"-0.006": 8.97548993401,
			"-0.005": 9.91400919377,
			"-0.004": 9.54897847115,
			"-0.003": 11.9180343069,
			"-0.002": 13.3906835083,
			"-0.001": 16.008314811,
			"0.0": 22.8461921425,
			"0.001": 35.9374506486,
			"0.002": 40.4926005568,
			"0.003": 14.2289356922,
			"0.004": 4.40493752874,
			"0.005": 2.79263487601,
			"0.006": 2.67372993427,
			"0.007": 2.46284685414,
			"0.008": 1.64506579232,
			"0.009": 3.53755636393,
			"0.01": 4.26665138383,
			"0.011": 5.20694170886,
			"0.012": 5.85239355485,
			"0.013": 2.3513550293,
			"0.014": 0.377173436954,
			"0.015": 0.0,
			"0.016": 0.0,
			"0.017": 0.0,
			"0.018": 0.0,
			"0.019": 0.0,
			"0.02": 0.0,
			"0.021": 0.0,
			"0.022": 0.0,
			"0.023": 0.0,
			"0.024": 0.0,
			"0.025": 0.0
		}
	}
}
