{
	 "smiles": "OC(=O)C1CC2=C(CN1S(=O)(=O)C1=CC=C(F)C=C1)C=CC=C2", 
	 "Tm": 373.15, 
	 "num_atms": 37, 
	 "gaussian": { 
		 "optdone": 1, 
		 "sigma_profile": "yes", 
		 "theory": "DFT", 
		 "functional": "B3LYP", 
		 "basiset": "6-31G**", 
		 "properties": { 
			 "R2extent": 6648.4083, 
			 "electric_dipole_moment_norm": 5.40845790221, 
			 "electric_quadrupole_moment_norm": 15.8451379353, 
			 "total_energy": -1471.74329544, 
			 "HOMO_LUMO_gap": 0.2011, 
			 "cosmo_polarized_energy": -18.1, 
			 "cosmo_cavitation_energy": 40.74, 
			 "cosmo_dispersion_energy": -28.07, 
			 "cosmo_repulsion_energy": 2.04, 
			 "cosmo_total_nonelectrostatic_energy": 14.71, 
			 "SMD_solvation_energy": 6.3 
		},
		"coords": [
			{
				"x": -0.029053456,
				"y": -2.2403905256,
				"z": -3.5756650698,
				"element": "O" 
			},
			{
				"x": 0.8961755161,
				"y": -1.5453380198,
				"z": -2.911788629,
				"element": "C" 
			},
			{
				"x": 1.7654434194,
				"y": -0.929720765,
				"z": -3.486084891,
				"element": "O" 
			},
			{
				"x": 0.9807471977,
				"y": -1.6807660575,
				"z": -1.372730618,
				"element": "C" 
			},
			{
				"x": 1.6813223763,
				"y": -0.4754164423,
				"z": -0.7288838824,
				"element": "C" 
			},
			{
				"x": 1.804976916,
				"y": -0.6201531523,
				"z": 0.7760735424,
				"element": "C" 
			},
			{
				"x": 1.0876242656,
				"y": -1.6047284885,
				"z": 1.4756129593,
				"element": "C" 
			},
			{
				"x": 0.1976343804,
				"y": -2.5888210329,
				"z": 0.7372772406,
				"element": "C" 
			},
			{
				"x": -0.2122201547,
				"y": -2.1245796806,
				"z": -0.6049046664,
				"element": "N" 
			},
			{
				"x": -1.7278565759,
				"y": -1.3617820749,
				"z": -0.7098513013,
				"element": "S" 
			},
			{
				"x": -2.5349663584,
				"y": -1.9324799133,
				"z": 0.3687360922,
				"element": "O" 
			},
			{
				"x": -2.1319713816,
				"y": -1.5193657378,
				"z": -2.1187039276,
				"element": "O" 
			},
			{
				"x": -1.5981518197,
				"y": 0.4024278521,
				"z": -0.4242510853,
				"element": "C" 
			},
			{
				"x": -1.5370987773,
				"y": 1.2721840361,
				"z": -1.5179691834,
				"element": "C" 
			},
			{
				"x": -1.4369184777,
				"y": 2.6435560166,
				"z": -1.2939215737,
				"element": "C" 
			},
			{
				"x": -1.4037482678,
				"y": 3.1059771565,
				"z": 0.0188710618,
				"element": "C" 
			},
			{
				"x": -1.3075155385,
				"y": 4.4273655246,
				"z": 0.2370806992,
				"element": "F" 
			},
			{
				"x": -1.4750660801,
				"y": 2.250038383,
				"z": 1.115671507,
				"element": "C" 
			},
			{
				"x": -1.5753702327,
				"y": 0.8804401348,
				"z": 0.8902800655,
				"element": "C" 
			},
			{
				"x": 1.2152318615,
				"y": -1.701178784,
				"z": 2.8675501553,
				"element": "C" 
			},
			{
				"x": 2.0460144772,
				"y": -0.8318157351,
				"z": 3.5701697631,
				"element": "C" 
			},
			{
				"x": 2.7591023716,
				"y": 0.1509617639,
				"z": 2.8783883917,
				"element": "C" 
			},
			{
				"x": 2.6346119139,
				"y": 0.2517521685,
				"z": 1.4949676366,
				"element": "C" 
			},
			{
				"x": -0.8191360177,
				"y": -2.3939239002,
				"z": -3.0175532829,
				"element": "H" 
			},
			{
				"x": 1.6558690147,
				"y": -2.5432830995,
				"z": -1.2676575074,
				"element": "H" 
			},
			{
				"x": 1.1402974288,
				"y": 0.4452370069,
				"z": -0.9759158565,
				"element": "H" 
			},
			{
				"x": 2.6668183511,
				"y": -0.37190263,
				"z": -1.1896180688,
				"element": "H" 
			},
			{
				"x": 0.7248845487,
				"y": -3.539962854,
				"z": 0.5804563239,
				"element": "H" 
			},
			{
				"x": -0.7001480755,
				"y": -2.8213604854,
				"z": 1.3100617738,
				"element": "H" 
			},
			{
				"x": -1.5852643062,
				"y": 0.878130009,
				"z": -2.5267300565,
				"element": "H" 
			},
			{
				"x": -1.3922918026,
				"y": 3.3506932294,
				"z": -2.1144927239,
				"element": "H" 
			},
			{
				"x": -1.4572605551,
				"y": 2.6607529933,
				"z": 2.118786435,
				"element": "H" 
			},
			{
				"x": -1.6482145789,
				"y": 0.1913097539,
				"z": 1.7236289934,
				"element": "H" 
			},
			{
				"x": 0.655093348,
				"y": -2.4652254477,
				"z": 3.4021177294,
				"element": "H" 
			},
			{
				"x": 2.1338261886,
				"y": -0.9162281843,
				"z": 4.6493311123,
				"element": "H" 
			},
			{
				"x": 3.4100879471,
				"y": 0.8344839967,
				"z": 3.4156145538,
				"element": "H" 
			},
			{
				"x": 3.1905909336,
				"y": 1.0153129855,
				"z": 0.9560462877,
				"element": "H" 
			}
		],
		 "valence_orbital": [ 
			{
				"type": "occ",
				"energy": -0.29191,
				"method": "rhf"
			},
			{
				"type": "occ",
				"energy": -0.27418,
				"method": "rhf"
			},
			{
				"type": "occ",
				"energy": -0.26531,
				"method": "rhf"
			},
			{
				"type": "occ",
				"energy": -0.26034,
				"method": "rhf"
			},
			{
				"type": "occ",
				"energy": -0.2542,
				"method": "rhf"
			},
			{
				"type": "unocc",
				"energy": -0.0531,
				"method": "rhf"
			},
			{
				"type": "unocc",
				"energy": -0.04303,
				"method": "rhf"
			},
			{
				"type": "unocc",
				"energy": -0.01988,
				"method": "rhf"
			},
			{
				"type": "unocc",
				"energy": -0.0173,
				"method": "rhf"
			},
			{
				"type": "unocc",
				"energy": 0.00272,
				"method": "rhf"
			}
		],
		"cosmo_sigma_profile": { 
			"-0.025": 0.0,
			"-0.024": 0.0,
			"-0.023": 0.0,
			"-0.022": 0.0,
			"-0.021": 0.0,
			"-0.02": 0.0,
			"-0.019": 0.0,
			"-0.018": 0.0,
			"-0.017": 0.0,
			"-0.016": 0.0,
			"-0.015": 0.0,
			"-0.014": 0.0,
			"-0.013": 0.00353972865302,
			"-0.012": 0.119718029312,
			"-0.011": 0.239205850246,
			"-0.01": 2.08279236485,
			"-0.009": 5.73571594339,
			"-0.008": 9.58100007593,
			"-0.007": 12.7592606607,
			"-0.006": 18.2934861123,
			"-0.005": 24.301916781,
			"-0.004": 23.0245140987,
			"-0.003": 21.7636894217,
			"-0.002": 20.5417471899,
			"-0.001": 24.5646520878,
			"0.0": 22.3246484588,
			"0.001": 23.470418399,
			"0.002": 15.9771979392,
			"0.003": 21.4382299762,
			"0.004": 17.5743515311,
			"0.005": 12.3818226984,
			"0.006": 7.11151322309,
			"0.007": 5.86288910656,
			"0.008": 6.3687847669,
			"0.009": 7.82901786362,
			"0.01": 10.0162473641,
			"0.011": 7.44700978939,
			"0.012": 3.63686378555,
			"0.013": 1.12679381867,
			"0.014": 0.0,
			"0.015": 0.0,
			"0.016": 0.0,
			"0.017": 0.0,
			"0.018": 0.0,
			"0.019": 0.0,
			"0.02": 0.0,
			"0.021": 0.0,
			"0.022": 0.0,
			"0.023": 0.0,
			"0.024": 0.0,
			"0.0": 0.0
		}
	}
}
