{
	 "smiles": "CC1=NC(NC(=O)NN)=NO1", 
	 "Tm": 562.15, 
	 "num_atms": 18, 
	 "gaussian": { 
		 "optdone": 1, 
		 "sigma_profile": "yes", 
		 "theory": "DFT", 
		 "functional": "B3LYP", 
		 "basiset": "6-31G**", 
		 "properties": { 
			 "R2extent": 2236.6182, 
			 "electric_dipole_moment_norm": 2.05801109084, 
			 "electric_quadrupole_moment_norm": 15.5517388343, 
			 "total_energy": -580.793177563, 
			 "HOMO_LUMO_gap": 0.2293, 
			 "cosmo_polarized_energy": -23.31, 
			 "cosmo_cavitation_energy": 23.61, 
			 "cosmo_dispersion_energy": -17.63, 
			 "cosmo_repulsion_energy": 1.46, 
			 "cosmo_total_nonelectrostatic_energy": 7.44, 
			 "SMD_solvation_energy": 4.14 
		},
		"coords": [
			{
				"x": 1.0475894503,
				"y": 2.8941975621,
				"z": -2.8207836791,
				"element": "C" 
			},
			{
				"x": 0.5471790511,
				"y": 1.6300951424,
				"z": -2.2172147274,
				"element": "C" 
			},
			{
				"x": 0.3561637687,
				"y": 1.3650567172,
				"z": -0.9562452198,
				"element": "N" 
			},
			{
				"x": -0.1043786217,
				"y": 0.0731790551,
				"z": -1.0101320613,
				"element": "C" 
			},
			{
				"x": -0.4642205946,
				"y": -0.6978161731,
				"z": 0.0759104405,
				"element": "N" 
			},
			{
				"x": -0.4367134806,
				"y": -0.3366672125,
				"z": 1.4263934076,
				"element": "C" 
			},
			{
				"x": -0.081862696,
				"y": 0.74080341,
				"z": 1.8613791732,
				"element": "O" 
			},
			{
				"x": -0.8671751985,
				"y": -1.3540917872,
				"z": 2.2621331078,
				"element": "N" 
			},
			{
				"x": -1.3024247091,
				"y": -2.6328053975,
				"z": 1.9219879435,
				"element": "N" 
			},
			{
				"x": -0.2000541201,
				"y": -0.4476998495,
				"z": -2.2176671694,
				"element": "N" 
			},
			{
				"x": 0.2427392538,
				"y": 0.6104343437,
				"z": -3.0366999602,
				"element": "O" 
			},
			{
				"x": 0.307965519,
				"y": 3.3100162306,
				"z": -3.5118342079,
				"element": "H" 
			},
			{
				"x": 1.9670943913,
				"y": 2.713391077,
				"z": -3.3858676365,
				"element": "H" 
			},
			{
				"x": 1.2457077804,
				"y": 3.6129572688,
				"z": -2.0259534056,
				"element": "H" 
			},
			{
				"x": -0.7804024582,
				"y": -1.6263508987,
				"z": -0.1628055623,
				"element": "H" 
			},
			{
				"x": -0.8593138042,
				"y": -1.1242303791,
				"z": 3.245069957,
				"element": "H" 
			},
			{
				"x": -0.5742163078,
				"y": -3.1884953701,
				"z": 1.4821884561,
				"element": "H" 
			},
			{
				"x": -2.1501772238,
				"y": -2.6200737393,
				"z": 1.3619411439,
				"element": "H" 
			}
		],
		 "valence_orbital": [ 
			{
				"type": "occ",
				"energy": -0.30377,
				"method": "rhf"
			},
			{
				"type": "occ",
				"energy": -0.2938,
				"method": "rhf"
			},
			{
				"type": "occ",
				"energy": -0.26364,
				"method": "rhf"
			},
			{
				"type": "occ",
				"energy": -0.25622,
				"method": "rhf"
			},
			{
				"type": "occ",
				"energy": -0.24865,
				"method": "rhf"
			},
			{
				"type": "unocc",
				"energy": -0.01935,
				"method": "rhf"
			},
			{
				"type": "unocc",
				"energy": 0.03088,
				"method": "rhf"
			},
			{
				"type": "unocc",
				"energy": 0.04298,
				"method": "rhf"
			},
			{
				"type": "unocc",
				"energy": 0.0802,
				"method": "rhf"
			},
			{
				"type": "unocc",
				"energy": 0.09398,
				"method": "rhf"
			}
		],
		"cosmo_sigma_profile": { 
			"-0.025": 0.0,
			"-0.024": 0.0,
			"-0.023": 0.0,
			"-0.022": 0.0,
			"-0.021": 0.0,
			"-0.02": 0.0,
			"-0.019": 0.0,
			"-0.018": 0.0,
			"-0.017": 0.0,
			"-0.016": 0.8708632152,
			"-0.015": 2.15584635011,
			"-0.014": 2.55142445171,
			"-0.013": 5.33700599554,
			"-0.012": 4.40418601365,
			"-0.011": 3.71589740843,
			"-0.01": 3.33114523085,
			"-0.009": 1.78270088329,
			"-0.008": 4.11901970644,
			"-0.007": 9.1434235311,
			"-0.006": 8.63301459747,
			"-0.005": 9.75238709335,
			"-0.004": 11.2093123981,
			"-0.003": 12.5755064543,
			"-0.002": 10.6196802716,
			"-0.001": 11.0474454906,
			"0.0": 9.07936768164,
			"0.001": 7.19747891189,
			"0.002": 5.68013295535,
			"0.003": 4.97635410062,
			"0.004": 5.86839396137,
			"0.005": 4.51508317395,
			"0.006": 4.90147957516,
			"0.007": 7.02054791638,
			"0.008": 4.30914532015,
			"0.009": 3.30861302294,
			"0.01": 3.73586617346,
			"0.011": 3.8198044164,
			"0.012": 4.6666261716,
			"0.013": 6.84678322873,
			"0.014": 4.36809098022,
			"0.015": 1.88939580195,
			"0.016": 1.26419987722,
			"0.017": 1.40451448216,
			"0.018": 0.877765386024,
			"0.019": 0.363831836065,
			"0.02": 0.0,
			"0.021": 0.0,
			"0.022": 0.0,
			"0.023": 0.0,
			"0.024": 0.0,
			"0.025": 0.0
		}
	}
}
