{
	 "smiles": "CC(=O)C1(O)CC[C@@]2(C)[C@@H](CCC3C4CCC5(OCCO5)[C@@]4(C)CCC23)C1", 
	 "Tm": 459.15, 
	 "num_atms": 63, 
	 "gaussian": { 
		 "optdone": 1, 
		 "sigma_profile": "yes", 
		 "theory": "DFT", 
		 "functional": "B3LYP", 
		 "basiset": "6-31G**", 
		 "properties": { 
			 "R2extent": 12086.7905, 
			 "electric_dipole_moment_norm": 2.81953853494, 
			 "electric_quadrupole_moment_norm": 14.3377219571, 
			 "total_energy": -1199.03015658, 
			 "HOMO_LUMO_gap": 0.21656, 
			 "cosmo_polarized_energy": -14.01, 
			 "cosmo_cavitation_energy": 53.59, 
			 "cosmo_dispersion_energy": -36.38, 
			 "cosmo_repulsion_energy": 2.67, 
			 "cosmo_total_nonelectrostatic_energy": 19.88, 
			 "SMD_solvation_energy": 8.18 
		},
		"coords": [
			{
				"x": -0.6869266939,
				"y": -5.3690908927,
				"z": -2.9467987276,
				"element": "C" 
			},
			{
				"x": -1.2955409492,
				"y": -3.9792880974,
				"z": -2.9247304306,
				"element": "C" 
			},
			{
				"x": -2.3565608355,
				"y": -3.7354987446,
				"z": -3.4718056154,
				"element": "O" 
			},
			{
				"x": -0.5192136338,
				"y": -2.8874990443,
				"z": -2.1551639687,
				"element": "C" 
			},
			{
				"x": 0.8931338876,
				"y": -3.0937330859,
				"z": -2.3276477083,
				"element": "O" 
			},
			{
				"x": -0.9236284961,
				"y": -1.4679900703,
				"z": -2.6185380583,
				"element": "C" 
			},
			{
				"x": -2.1269720523,
				"y": -0.9090923814,
				"z": -1.8471981362,
				"element": "C" 
			},
			{
				"x": -1.8915054252,
				"y": -0.7898921303,
				"z": -0.3049149083,
				"element": "C" 
			},
			{
				"x": -3.2208709359,
				"y": -1.1836058904,
				"z": 0.3802231445,
				"element": "C" 
			},
			{
				"x": -0.7195486139,
				"y": -1.7332949473,
				"z": 0.0953715611,
				"element": "C" 
			},
			{
				"x": -0.5795572037,
				"y": -1.8538334107,
				"z": 1.6205997256,
				"element": "C" 
			},
			{
				"x": -0.7693988159,
				"y": -0.4852718939,
				"z": 2.319597724,
				"element": "C" 
			},
			{
				"x": -0.5542900026,
				"y": 0.7252087221,
				"z": 1.3828560027,
				"element": "C" 
			},
			{
				"x": -0.7525361598,
				"y": 2.0315951273,
				"z": 2.2048880773,
				"element": "C" 
			},
			{
				"x": 0.5152734987,
				"y": 2.3724390989,
				"z": 3.0509847134,
				"element": "C" 
			},
			{
				"x": 1.2283714323,
				"y": 3.5497900732,
				"z": 2.3352347129,
				"element": "C" 
			},
			{
				"x": 0.410476778,
				"y": 3.8120795484,
				"z": 1.0509675692,
				"element": "C" 
			},
			{
				"x": 0.4228577377,
				"y": 5.1610723681,
				"z": 0.6163741213,
				"element": "O" 
			},
			{
				"x": 1.4801214475,
				"y": 5.2861796079,
				"z": -0.3262718804,
				"element": "C" 
			},
			{
				"x": 1.4344287681,
				"y": 3.9371482254,
				"z": -1.0441467302,
				"element": "C" 
			},
			{
				"x": 0.9773818041,
				"y": 3.0447009966,
				"z": -0.0310424505,
				"element": "O" 
			},
			{
				"x": -1.0275072885,
				"y": 3.3313100401,
				"z": 1.386669345,
				"element": "C" 
			},
			{
				"x": -1.7024182162,
				"y": 4.3694158923,
				"z": 2.3118539034,
				"element": "C" 
			},
			{
				"x": -1.9192292011,
				"y": 3.1174351231,
				"z": 0.1357529784,
				"element": "C" 
			},
			{
				"x": -2.5354740139,
				"y": 1.7140855158,
				"z": 0.0854087036,
				"element": "C" 
			},
			{
				"x": -1.4225814481,
				"y": 0.6562591248,
				"z": 0.0720630053,
				"element": "C" 
			},
			{
				"x": -0.7872050883,
				"y": -3.0768849991,
				"z": -0.6360927761,
				"element": "C" 
			},
			{
				"x": -0.4226191165,
				"y": -5.6962134455,
				"z": -1.9359056735,
				"element": "H" 
			},
			{
				"x": -1.3937613827,
				"y": -6.0667844859,
				"z": -3.3978658676,
				"element": "H" 
			},
			{
				"x": 0.2465406389,
				"y": -5.3604168185,
				"z": -3.5176198856,
				"element": "H" 
			},
			{
				"x": 1.1380332223,
				"y": -2.7387541435,
				"z": -3.1932458577,
				"element": "H" 
			},
			{
				"x": -0.0508947466,
				"y": -0.8195773888,
				"z": -2.4762310527,
				"element": "H" 
			},
			{
				"x": -1.151931407,
				"y": -1.4844052175,
				"z": -3.6896329742,
				"element": "H" 
			},
			{
				"x": -2.9763088127,
				"y": -1.5709165137,
				"z": -2.0439422602,
				"element": "H" 
			},
			{
				"x": -2.4024986713,
				"y": 0.0676461308,
				"z": -2.2615352238,
				"element": "H" 
			},
			{
				"x": -4.0480965861,
				"y": -0.5976631895,
				"z": -0.0327793943,
				"element": "H" 
			},
			{
				"x": -3.4582338914,
				"y": -2.2368218421,
				"z": 0.1949090471,
				"element": "H" 
			},
			{
				"x": -3.2215322857,
				"y": -1.0294632098,
				"z": 1.4609780592,
				"element": "H" 
			},
			{
				"x": 0.2006388243,
				"y": -1.2496159197,
				"z": -0.2585498819,
				"element": "H" 
			},
			{
				"x": -1.304987165,
				"y": -2.5764718183,
				"z": 2.0153475737,
				"element": "H" 
			},
			{
				"x": 0.4115937003,
				"y": -2.2657952974,
				"z": 1.8468680847,
				"element": "H" 
			},
			{
				"x": -1.7762280494,
				"y": -0.4186338608,
				"z": 2.7484146693,
				"element": "H" 
			},
			{
				"x": -0.0870408005,
				"y": -0.4066743113,
				"z": 3.1740161437,
				"element": "H" 
			},
			{
				"x": 0.4934980744,
				"y": 0.7071253863,
				"z": 1.0611821739,
				"element": "H" 
			},
			{
				"x": -1.6075656263,
				"y": 1.866077359,
				"z": 2.8724519017,
				"element": "H" 
			},
			{
				"x": 1.1703856367,
				"y": 1.5006357857,
				"z": 3.1359735451,
				"element": "H" 
			},
			{
				"x": 0.2422717182,
				"y": 2.6536491917,
				"z": 4.0725014396,
				"element": "H" 
			},
			{
				"x": 2.2676853951,
				"y": 3.3262641348,
				"z": 2.0840073809,
				"element": "H" 
			},
			{
				"x": 1.2200718224,
				"y": 4.4567452739,
				"z": 2.9461722311,
				"element": "H" 
			},
			{
				"x": 1.2701362647,
				"y": 6.1427128272,
				"z": -0.9716530238,
				"element": "H" 
			},
			{
				"x": 2.4455803062,
				"y": 5.4429215233,
				"z": 0.1773200801,
				"element": "H" 
			},
			{
				"x": 2.4110268403,
				"y": 3.6021578669,
				"z": -1.408603972,
				"element": "H" 
			},
			{
				"x": 0.7276840767,
				"y": 3.9575378153,
				"z": -1.8856219648,
				"element": "H" 
			},
			{
				"x": -1.7828576512,
				"y": 5.3360902329,
				"z": 1.8079456888,
				"element": "H" 
			},
			{
				"x": -2.71173338,
				"y": 4.0290126708,
				"z": 2.5678135121,
				"element": "H" 
			},
			{
				"x": -1.1590601274,
				"y": 4.5227092759,
				"z": 3.2491886972,
				"element": "H" 
			},
			{
				"x": -1.3242518399,
				"y": 3.2619704683,
				"z": -0.7720504978,
				"element": "H" 
			},
			{
				"x": -2.7097191605,
				"y": 3.8757749374,
				"z": 0.1122838932,
				"element": "H" 
			},
			{
				"x": -3.1594741294,
				"y": 1.625617111,
				"z": -0.812349315,
				"element": "H" 
			},
			{
				"x": -3.2076973639,
				"y": 1.5647241291,
				"z": 0.9405892608,
				"element": "H" 
			},
			{
				"x": -0.7420944694,
				"y": 0.9577685505,
				"z": -0.7365886407,
				"element": "H" 
			},
			{
				"x": -0.0298791373,
				"y": -3.7699369567,
				"z": -0.2539224418,
				"element": "H" 
			},
			{
				"x": -1.7649610002,
				"y": -3.5480401274,
				"z": -0.4749593518,
				"element": "H" 
			}
		],
		 "valence_orbital": [ 
			{
				"type": "occ",
				"energy": -0.26957,
				"method": "rhf"
			},
			{
				"type": "occ",
				"energy": -0.26588,
				"method": "rhf"
			},
			{
				"type": "occ",
				"energy": -0.26122,
				"method": "rhf"
			},
			{
				"type": "occ",
				"energy": -0.24305,
				"method": "rhf"
			},
			{
				"type": "occ",
				"energy": -0.2288,
				"method": "rhf"
			},
			{
				"type": "unocc",
				"energy": -0.01224,
				"method": "rhf"
			},
			{
				"type": "unocc",
				"energy": 0.0699,
				"method": "rhf"
			},
			{
				"type": "unocc",
				"energy": 0.0753,
				"method": "rhf"
			},
			{
				"type": "unocc",
				"energy": 0.08188,
				"method": "rhf"
			},
			{
				"type": "unocc",
				"energy": 0.08788,
				"method": "rhf"
			}
		],
		"cosmo_sigma_profile": { 
			"-0.025": 0.0,
			"-0.024": 0.0,
			"-0.023": 0.0,
			"-0.022": 0.0,
			"-0.021": 0.0,
			"-0.02": 0.0,
			"-0.019": 0.0,
			"-0.018": 0.0,
			"-0.017": 0.0,
			"-0.016": 0.172833497698,
			"-0.015": 1.22300713146,
			"-0.014": 0.814546646728,
			"-0.013": 0.700748782753,
			"-0.012": 1.43402615016,
			"-0.011": 0.951905836146,
			"-0.01": 0.840363996284,
			"-0.009": 0.391942990815,
			"-0.008": 1.18963416612,
			"-0.007": 1.75827755767,
			"-0.006": 4.76495813871,
			"-0.005": 13.63232799,
			"-0.004": 23.8482952055,
			"-0.003": 36.0179738844,
			"-0.002": 56.7390663535,
			"-0.001": 69.9637968396,
			"0.0": 60.1931822083,
			"0.001": 43.561783944,
			"0.002": 25.3830771772,
			"0.003": 8.34799574106,
			"0.004": 7.45313472685,
			"0.005": 6.97708304467,
			"0.006": 6.13592558662,
			"0.007": 7.35961837684,
			"0.008": 5.51039011898,
			"0.009": 4.44306653288,
			"0.01": 6.16056051317,
			"0.011": 5.23488986748,
			"0.012": 5.21865385795,
			"0.013": 3.1376425861,
			"0.014": 0.678765641411,
			"0.015": 0.0,
			"0.016": 0.0,
			"0.017": 0.0,
			"0.018": 0.0,
			"0.019": 0.0,
			"0.02": 0.0,
			"0.021": 0.0,
			"0.022": 0.0,
			"0.023": 0.0,
			"0.024": 0.0,
			"0.025": 0.0
		}
	}
}
