{
	 "smiles": "CN(C)C(=O)CCCOC(=O)C1=CC=CC=C1", 
	 "Tm": 313.65, 
	 "num_atms": 34, 
	 "gaussian": { 
		 "optdone": 1, 
		 "sigma_profile": "yes", 
		 "theory": "DFT", 
		 "functional": "B3LYP", 
		 "basiset": "6-31G**", 
		 "properties": { 
			 "R2extent": 6324.8519, 
			 "electric_dipole_moment_norm": 4.66049269284, 
			 "electric_quadrupole_moment_norm": 10.2602520144, 
			 "total_energy": -786.086055924, 
			 "HOMO_LUMO_gap": 0.19648, 
			 "cosmo_polarized_energy": -13.55, 
			 "cosmo_cavitation_energy": 37.44, 
			 "cosmo_dispersion_energy": -26.25, 
			 "cosmo_repulsion_energy": 2.06, 
			 "cosmo_total_nonelectrostatic_energy": 13.25, 
			 "SMD_solvation_energy": 7.68 
		},
		"coords": [
			{
				"x": -1.6879217624,
				"y": -0.575975838,
				"z": 3.2203048244,
				"element": "C" 
			},
			{
				"x": -1.6099747636,
				"y": 0.8591519695,
				"z": 3.0107520118,
				"element": "N" 
			},
			{
				"x": -1.6409616878,
				"y": 1.6676689197,
				"z": 4.2214728,
				"element": "C" 
			},
			{
				"x": -1.566340605,
				"y": 1.4881125769,
				"z": 1.7885517823,
				"element": "C" 
			},
			{
				"x": -1.540366342,
				"y": 2.7147910764,
				"z": 1.6969491918,
				"element": "O" 
			},
			{
				"x": -1.5537759298,
				"y": 0.6068139296,
				"z": 0.534367703,
				"element": "C" 
			},
			{
				"x": -1.4408112901,
				"y": 1.4262393251,
				"z": -0.7562639296,
				"element": "C" 
			},
			{
				"x": -0.0711877597,
				"y": 2.0647204131,
				"z": -0.9697622169,
				"element": "C" 
			},
			{
				"x": 0.9873085551,
				"y": 1.0717109673,
				"z": -1.0009207352,
				"element": "O" 
			},
			{
				"x": 1.2150494508,
				"y": 0.4617994933,
				"z": -2.1859719654,
				"element": "C" 
			},
			{
				"x": 0.5794224107,
				"y": 0.693264719,
				"z": -3.197675076,
				"element": "O" 
			},
			{
				"x": 2.3337394927,
				"y": -0.5235063048,
				"z": -2.1114830323,
				"element": "C" 
			},
			{
				"x": 3.0685965118,
				"y": -0.7389301796,
				"z": -0.9371213055,
				"element": "C" 
			},
			{
				"x": 4.1046149483,
				"y": -1.6717685825,
				"z": -0.9269223603,
				"element": "C" 
			},
			{
				"x": 4.4112668705,
				"y": -2.392039087,
				"z": -2.084161223,
				"element": "C" 
			},
			{
				"x": 3.6807236069,
				"y": -2.1782708692,
				"z": -3.2563092425,
				"element": "C" 
			},
			{
				"x": 2.645461979,
				"y": -1.2467782794,
				"z": -3.2708381743,
				"element": "C" 
			},
			{
				"x": -2.6316617645,
				"y": -0.8479616126,
				"z": 3.7129236505,
				"element": "H" 
			},
			{
				"x": -1.625461082,
				"y": -1.1207031289,
				"z": 2.2809628228,
				"element": "H" 
			},
			{
				"x": -0.8657282039,
				"y": -0.9132380009,
				"z": 3.8650287599,
				"element": "H" 
			},
			{
				"x": -0.8007217494,
				"y": 1.4071570356,
				"z": 4.8773916076,
				"element": "H" 
			},
			{
				"x": -2.5736226058,
				"y": 1.5000921819,
				"z": 4.7758414633,
				"element": "H" 
			},
			{
				"x": -1.5721245316,
				"y": 2.7159671182,
				"z": 3.9369585047,
				"element": "H" 
			},
			{
				"x": -2.4744934964,
				"y": 0.0104595326,
				"z": 0.5091034563,
				"element": "H" 
			},
			{
				"x": -0.7253392922,
				"y": -0.1091076802,
				"z": 0.5878878507,
				"element": "H" 
			},
			{
				"x": -1.6678530048,
				"y": 0.7858210348,
				"z": -1.6141150734,
				"element": "H" 
			},
			{
				"x": -2.1785339472,
				"y": 2.2345732466,
				"z": -0.7392817391,
				"element": "H" 
			},
			{
				"x": 0.1838622401,
				"y": 2.7185317434,
				"z": -0.1360959132,
				"element": "H" 
			},
			{
				"x": -0.0526290816,
				"y": 2.6239506249,
				"z": -1.9075809959,
				"element": "H" 
			},
			{
				"x": 2.8260769258,
				"y": -0.1728834082,
				"z": -0.0451116744,
				"element": "H" 
			},
			{
				"x": 4.6745630978,
				"y": -1.8361557604,
				"z": -0.0170456367,
				"element": "H" 
			},
			{
				"x": 5.2194304285,
				"y": -3.1180456399,
				"z": -2.0729121115,
				"element": "H" 
			},
			{
				"x": 3.9196219971,
				"y": -2.7370991814,
				"z": -4.1564036114,
				"element": "H" 
			},
			{
				"x": 2.0647703845,
				"y": -1.0608623551,
				"z": -4.1680204125,
				"element": "H" 
			}
		],
		 "valence_orbital": [ 
			{
				"type": "occ",
				"energy": -0.26824,
				"method": "rhf"
			},
			{
				"type": "occ",
				"energy": -0.25784,
				"method": "rhf"
			},
			{
				"type": "occ",
				"energy": -0.25663,
				"method": "rhf"
			},
			{
				"type": "occ",
				"energy": -0.24663,
				"method": "rhf"
			},
			{
				"type": "occ",
				"energy": -0.239,
				"method": "rhf"
			},
			{
				"type": "unocc",
				"energy": -0.04252,
				"method": "rhf"
			},
			{
				"type": "unocc",
				"energy": -0.00643,
				"method": "rhf"
			},
			{
				"type": "unocc",
				"energy": 0.02778,
				"method": "rhf"
			},
			{
				"type": "unocc",
				"energy": 0.06092,
				"method": "rhf"
			},
			{
				"type": "unocc",
				"energy": 0.08064,
				"method": "rhf"
			}
		],
		"cosmo_sigma_profile": { 
			"-0.025": 0.0,
			"-0.024": 0.0,
			"-0.023": 0.0,
			"-0.022": 0.0,
			"-0.021": 0.0,
			"-0.02": 0.0,
			"-0.019": 0.0,
			"-0.018": 0.0,
			"-0.017": 0.0,
			"-0.016": 0.0,
			"-0.015": 0.0,
			"-0.014": 0.0,
			"-0.013": 0.0,
			"-0.012": 0.0,
			"-0.011": 0.0,
			"-0.01": 0.0,
			"-0.009": 0.0,
			"-0.008": 0.0,
			"-0.007": 1.19614919031,
			"-0.006": 11.9802441203,
			"-0.005": 22.3989799833,
			"-0.004": 32.15970876,
			"-0.003": 34.5920685137,
			"-0.002": 38.9476622415,
			"-0.001": 27.1632090565,
			"0.0": 17.3109677397,
			"0.001": 19.3771734933,
			"0.002": 18.6376579013,
			"0.003": 16.4876151304,
			"0.004": 16.4024688253,
			"0.005": 6.45577496012,
			"0.006": 4.60605469702,
			"0.007": 3.15252913496,
			"0.008": 3.12287051365,
			"0.009": 2.81350031135,
			"0.01": 3.49652216162,
			"0.011": 3.91419311891,
			"0.012": 5.23473848296,
			"0.013": 2.55782033416,
			"0.014": 3.53400119354,
			"0.015": 0.322633121354,
			"0.016": 0.0,
			"0.017": 0.0,
			"0.018": 0.0,
			"0.019": 0.0,
			"0.02": 0.0,
			"0.021": 0.0,
			"0.022": 0.0,
			"0.023": 0.0,
			"0.024": 0.0,
			"0.025": 0.0
		}
	}
}
