{
	 "smiles": "CN1C2=C(C=CC=C2)N=C1C(=NNC1=C(Br)C=C(Br)C=C1Br)C#N", 
	 "Tm": 453.15, 
	 "num_atms": 34, 
	 "gaussian": { 
		 "optdone": 1, 
		 "sigma_profile": "yes", 
		 "theory": "DFT", 
		 "functional": "B3LYP", 
		 "basiset": "6-31G**", 
		 "properties": { 
			 "R2extent": 19035.1476, 
			 "electric_dipole_moment_norm": 5.17009668478, 
			 "electric_quadrupole_moment_norm": 15.7057459438, 
			 "total_energy": -8603.64485606, 
			 "HOMO_LUMO_gap": 0.13205, 
			 "cosmo_polarized_energy": -15.76, 
			 "cosmo_cavitation_energy": 46.99, 
			 "cosmo_dispersion_energy": -33.34, 
			 "cosmo_repulsion_energy": 2.5, 
			 "cosmo_total_nonelectrostatic_energy": 16.15, 
			 "SMD_solvation_energy": 3.8 
		},
		"coords": [
			{
				"x": -2.2648432779,
				"y": 0.2907247967,
				"z": 0.0569403739,
				"element": "C" 
			},
			{
				"x": -2.0577630127,
				"y": -1.1502705914,
				"z": -0.0127153776,
				"element": "N" 
			},
			{
				"x": -3.0536345502,
				"y": -2.1134823947,
				"z": 0.0485923205,
				"element": "C" 
			},
			{
				"x": -2.3906440748,
				"y": -3.3568303881,
				"z": -0.10889293,
				"element": "C" 
			},
			{
				"x": -3.1234556644,
				"y": -4.5537532962,
				"z": -0.0912223863,
				"element": "C" 
			},
			{
				"x": -4.4983735477,
				"y": -4.4723586023,
				"z": 0.0817550556,
				"element": "C" 
			},
			{
				"x": -5.1452134004,
				"y": -3.2267458645,
				"z": 0.2359328293,
				"element": "C" 
			},
			{
				"x": -4.4388642836,
				"y": -2.0280359007,
				"z": 0.2224898592,
				"element": "C" 
			},
			{
				"x": -1.0380950954,
				"y": -3.1568584067,
				"z": -0.2644917034,
				"element": "N" 
			},
			{
				"x": -0.8757621663,
				"y": -1.8476647532,
				"z": -0.2017563555,
				"element": "C" 
			},
			{
				"x": 0.4490547718,
				"y": -1.255020433,
				"z": -0.3335051332,
				"element": "C" 
			},
			{
				"x": 0.6549993454,
				"y": 0.0259531616,
				"z": -0.2069058418,
				"element": "N" 
			},
			{
				"x": 1.8991922516,
				"y": 0.4998707545,
				"z": -0.3421413463,
				"element": "N" 
			},
			{
				"x": 2.1418041676,
				"y": 1.8775123901,
				"z": -0.3365532394,
				"element": "C" 
			},
			{
				"x": 2.9815299215,
				"y": 2.4458121435,
				"z": -1.3171782284,
				"element": "C" 
			},
			{
				"x": 3.7563741587,
				"y": 1.3318173869,
				"z": -2.6605370528,
				"element": "Br" 
			},
			{
				"x": 3.2788357405,
				"y": 3.8035577541,
				"z": -1.3496916855,
				"element": "C" 
			},
			{
				"x": 2.7114877221,
				"y": 4.6369180609,
				"z": -0.3901765152,
				"element": "C" 
			},
			{
				"x": 3.0789994748,
				"y": 6.5036916471,
				"z": -0.4316161693,
				"element": "Br" 
			},
			{
				"x": 1.8918528215,
				"y": 4.120021027,
				"z": 0.6085311623,
				"element": "C" 
			},
			{
				"x": 1.6305999387,
				"y": 2.7519262547,
				"z": 0.6444108152,
				"element": "C" 
			},
			{
				"x": 0.6352926591,
				"y": 2.1133636095,
				"z": 2.1378999092,
				"element": "Br" 
			},
			{
				"x": 1.5407918855,
				"y": -2.1530267374,
				"z": -0.6213066435,
				"element": "C" 
			},
			{
				"x": 2.527493478,
				"y": -2.7215568542,
				"z": -0.8611469363,
				"element": "N" 
			},
			{
				"x": -1.9614976286,
				"y": 0.7727771379,
				"z": -0.8759238493,
				"element": "H" 
			},
			{
				"x": -3.3265987754,
				"y": 0.4753420882,
				"z": 0.2220362763,
				"element": "H" 
			},
			{
				"x": -1.689891419,
				"y": 0.7305055368,
				"z": 0.8728368957,
				"element": "H" 
			},
			{
				"x": -2.6147562805,
				"y": -5.5045679398,
				"z": -0.2109242956,
				"element": "H" 
			},
			{
				"x": -5.0927586911,
				"y": -5.380832421,
				"z": 0.0995578313,
				"element": "H" 
			},
			{
				"x": -6.2227487207,
				"y": -3.2027601689,
				"z": 0.3688163786,
				"element": "H" 
			},
			{
				"x": -4.9516089606,
				"y": -1.0789309018,
				"z": 0.3424892955,
				"element": "H" 
			},
			{
				"x": 2.6120005474,
				"y": -0.0969650624,
				"z": -0.7615889406,
				"element": "H" 
			},
			{
				"x": 3.926593941,
				"y": 4.2010009108,
				"z": -2.1198643538,
				"element": "H" 
			},
			{
				"x": 1.479206724,
				"y": 4.7658660561,
				"z": 1.372349981,
				"element": "H" 
			}
		],
		 "valence_orbital": [ 
			{
				"type": "occ",
				"energy": -0.27931,
				"method": "rhf"
			},
			{
				"type": "occ",
				"energy": -0.26963,
				"method": "rhf"
			},
			{
				"type": "occ",
				"energy": -0.25433,
				"method": "rhf"
			},
			{
				"type": "occ",
				"energy": -0.22864,
				"method": "rhf"
			},
			{
				"type": "occ",
				"energy": -0.21612,
				"method": "rhf"
			},
			{
				"type": "unocc",
				"energy": -0.08407,
				"method": "rhf"
			},
			{
				"type": "unocc",
				"energy": -0.05438,
				"method": "rhf"
			},
			{
				"type": "unocc",
				"energy": -0.04735,
				"method": "rhf"
			},
			{
				"type": "unocc",
				"energy": -0.03897,
				"method": "rhf"
			},
			{
				"type": "unocc",
				"energy": -0.00973,
				"method": "rhf"
			}
		],
		"cosmo_sigma_profile": { 
			"-0.025": 0.0,
			"-0.024": 0.0,
			"-0.023": 0.0,
			"-0.022": 0.0,
			"-0.021": 0.0,
			"-0.02": 0.0,
			"-0.019": 0.0,
			"-0.018": 0.0,
			"-0.017": 0.0,
			"-0.016": 0.0,
			"-0.015": 0.0,
			"-0.014": 0.0,
			"-0.013": 0.0,
			"-0.012": 0.436711872034,
			"-0.011": 0.519002390672,
			"-0.01": 0.930262377606,
			"-0.009": 2.58794106069,
			"-0.008": 7.10904782851,
			"-0.007": 7.3276678386,
			"-0.006": 15.0407876989,
			"-0.005": 21.6865108168,
			"-0.004": 25.4850296485,
			"-0.003": 33.6624280025,
			"-0.002": 31.6323624699,
			"-0.001": 38.2971862531,
			"0.0": 40.2765432488,
			"0.001": 29.9375473926,
			"0.002": 30.2630877149,
			"0.003": 34.3459498562,
			"0.004": 23.295107562,
			"0.005": 12.7258617897,
			"0.006": 8.69598172865,
			"0.007": 5.15129548203,
			"0.008": 4.74531167398,
			"0.009": 4.07746309485,
			"0.01": 3.65407675936,
			"0.011": 3.67932167445,
			"0.012": 2.15210396523,
			"0.013": 0.82148971252,
			"0.014": 0.797748932262,
			"0.015": 0.704832470465,
			"0.016": 0.0564984661875,
			"0.017": 0.0,
			"0.018": 0.0,
			"0.019": 0.0,
			"0.02": 0.0,
			"0.021": 0.0,
			"0.022": 0.0,
			"0.023": 0.0,
			"0.024": 0.0,
			"0.025": 0.0
		}
	}
}
