{
	 "smiles": "FC(F)COC1=C2C=CC=CC2=C(C=C1)S(Cl)(=O)=O", 
	 "Tm": 389.15, 
	 "num_atms": 28, 
	 "gaussian": { 
		 "optdone": 1, 
		 "sigma_profile": "yes", 
		 "theory": "DFT", 
		 "functional": "B3LYP", 
		 "basiset": "6-31G**", 
		 "properties": { 
			 "R2extent": 7933.1644, 
			 "electric_dipole_moment_norm": 6.13683109349, 
			 "electric_quadrupole_moment_norm": 32.4436114818, 
			 "total_energy": -1746.35513393, 
			 "HOMO_LUMO_gap": 0.14997, 
			 "cosmo_polarized_energy": -15.19, 
			 "cosmo_cavitation_energy": 36.4, 
			 "cosmo_dispersion_energy": -26.34, 
			 "cosmo_repulsion_energy": 1.93, 
			 "cosmo_total_nonelectrostatic_energy": 11.99, 
			 "SMD_solvation_energy": 5.76 
		},
		"coords": [
			{
				"x": -1.8221981011,
				"y": -4.132383816,
				"z": -0.4892521123,
				"element": "F" 
			},
			{
				"x": -2.9059747114,
				"y": -3.3097283115,
				"z": -0.5499389147,
				"element": "C" 
			},
			{
				"x": -3.1990562312,
				"y": -3.087583741,
				"z": -1.8613099503,
				"element": "F" 
			},
			{
				"x": -2.600502161,
				"y": -1.9955102936,
				"z": 0.1443028979,
				"element": "C" 
			},
			{
				"x": -1.4956611029,
				"y": -1.4096767301,
				"z": -0.5202963871,
				"element": "O" 
			},
			{
				"x": -1.0185626074,
				"y": -0.2165634068,
				"z": -0.091103134,
				"element": "C" 
			},
			{
				"x": 0.0978761633,
				"y": 0.2866118261,
				"z": -0.8398529853,
				"element": "C" 
			},
			{
				"x": 0.6190778601,
				"y": -0.4423921281,
				"z": -1.9379090816,
				"element": "C" 
			},
			{
				"x": 1.6873218438,
				"y": 0.0465047645,
				"z": -2.6565986171,
				"element": "C" 
			},
			{
				"x": 2.2723403567,
				"y": 1.2789069118,
				"z": -2.2976789945,
				"element": "C" 
			},
			{
				"x": 1.791548758,
				"y": 2.0088891844,
				"z": -1.2310826463,
				"element": "C" 
			},
			{
				"x": 0.6888872181,
				"y": 1.5392993509,
				"z": -0.4702919456,
				"element": "C" 
			},
			{
				"x": 0.110733706,
				"y": 2.2294291408,
				"z": 0.647312922,
				"element": "C" 
			},
			{
				"x": -0.9725559407,
				"y": 1.7253153394,
				"z": 1.3356772499,
				"element": "C" 
			},
			{
				"x": -1.5408207659,
				"y": 0.48899118,
				"z": 0.9772159087,
				"element": "C" 
			},
			{
				"x": 0.7247706956,
				"y": 3.7957212108,
				"z": 1.234869383,
				"element": "S" 
			},
			{
				"x": 0.0824563527,
				"y": 5.1342367629,
				"z": -0.314623441,
				"element": "Cl" 
			},
			{
				"x": -0.0156324369,
				"y": 4.1868777259,
				"z": 2.4292803832,
				"element": "O" 
			},
			{
				"x": 2.1833898891,
				"y": 3.833591932,
				"z": 1.2043588169,
				"element": "O" 
			},
			{
				"x": -3.7589398439,
				"y": -3.8165409721,
				"z": -0.0798699865,
				"element": "H" 
			},
			{
				"x": -3.4845425972,
				"y": -1.3472284304,
				"z": 0.089060804,
				"element": "H" 
			},
			{
				"x": -2.3686352327,
				"y": -2.1931809688,
				"z": 1.198843013,
				"element": "H" 
			},
			{
				"x": 0.158724608,
				"y": -1.3880659512,
				"z": -2.1975511079,
				"element": "H" 
			},
			{
				"x": 2.0803621554,
				"y": -0.5163334406,
				"z": -3.4975739038,
				"element": "H" 
			},
			{
				"x": 3.1162265109,
				"y": 1.6600324495,
				"z": -2.8648318416,
				"element": "H" 
			},
			{
				"x": 2.2665344134,
				"y": 2.943401654,
				"z": -0.9649791037,
				"element": "H" 
			},
			{
				"x": -1.3856839491,
				"y": 2.2861683594,
				"z": 2.1655527598,
				"element": "H" 
			},
			{
				"x": -2.3819848495,
				"y": 0.1157103978,
				"z": 1.547070015,
				"element": "H" 
			}
		],
		 "valence_orbital": [ 
			{
				"type": "occ",
				"energy": -0.32127,
				"method": "rhf"
			},
			{
				"type": "occ",
				"energy": -0.30682,
				"method": "rhf"
			},
			{
				"type": "occ",
				"energy": -0.28667,
				"method": "rhf"
			},
			{
				"type": "occ",
				"energy": -0.27094,
				"method": "rhf"
			},
			{
				"type": "occ",
				"energy": -0.23751,
				"method": "rhf"
			},
			{
				"type": "unocc",
				"energy": -0.08754,
				"method": "rhf"
			},
			{
				"type": "unocc",
				"energy": -0.0565,
				"method": "rhf"
			},
			{
				"type": "unocc",
				"energy": -0.03631,
				"method": "rhf"
			},
			{
				"type": "unocc",
				"energy": 0.00121,
				"method": "rhf"
			},
			{
				"type": "unocc",
				"energy": 0.05882,
				"method": "rhf"
			}
		],
		"cosmo_sigma_profile": { 
			"-0.025": 0.0,
			"-0.024": 0.0,
			"-0.023": 0.0,
			"-0.022": 0.0,
			"-0.021": 0.0,
			"-0.02": 0.0,
			"-0.019": 0.0,
			"-0.018": 0.0,
			"-0.017": 0.0,
			"-0.016": 0.0,
			"-0.015": 0.0,
			"-0.014": 0.0,
			"-0.013": 0.0,
			"-0.012": 0.0,
			"-0.011": 0.371464711669,
			"-0.01": 3.79405529612,
			"-0.009": 9.92853459661,
			"-0.008": 12.6714667471,
			"-0.007": 10.8278102255,
			"-0.006": 11.6116537976,
			"-0.005": 12.6402577809,
			"-0.004": 11.9166108179,
			"-0.003": 12.4665869845,
			"-0.002": 12.8124993114,
			"-0.001": 17.9928694462,
			"0.0": 22.8472572506,
			"0.001": 27.1442104191,
			"0.002": 23.3899078067,
			"0.003": 28.9952442505,
			"0.004": 34.5045339073,
			"0.005": 16.4590116411,
			"0.006": 4.74713524675,
			"0.007": 5.51830445403,
			"0.008": 8.32999122272,
			"0.009": 5.79250440348,
			"0.01": 0.268315871377,
			"0.011": 0.0,
			"0.012": 0.0,
			"0.013": 0.0,
			"0.014": 0.0,
			"0.015": 0.0,
			"0.016": 0.0,
			"0.017": 0.0,
			"0.018": 0.0,
			"0.019": 0.0,
			"0.02": 0.0,
			"0.021": 0.0,
			"0.022": 0.0,
			"0.023": 0.0,
			"0.024": 0.0,
			"0.025": 0.0
		}
	}
}
