{
	 "smiles": "CC1CCCC(C)N1C(=O)COC1=CC=C(C=C1)C(O)=O", 
	 "Tm": 483.15, 
	 "num_atms": 42, 
	 "gaussian": { 
		 "optdone": 1, 
		 "sigma_profile": "yes", 
		 "theory": "DFT", 
		 "functional": "B3LYP", 
		 "basiset": "6-31G**", 
		 "properties": { 
			 "R2extent": 9671.2564, 
			 "electric_dipole_moment_norm": 8.28054691068, 
			 "electric_quadrupole_moment_norm": 26.8664286184, 
			 "total_energy": -978.025173796, 
			 "HOMO_LUMO_gap": 0.19554, 
			 "cosmo_polarized_energy": -24.74, 
			 "cosmo_cavitation_energy": 43.04, 
			 "cosmo_dispersion_energy": -29.92, 
			 "cosmo_repulsion_energy": 2.28, 
			 "cosmo_total_nonelectrostatic_energy": 15.39, 
			 "SMD_solvation_energy": 8.47 
		},
		"coords": [
			{
				"x": -2.0567166679,
				"y": -1.3331903946,
				"z": 1.2626219047,
				"element": "C" 
			},
			{
				"x": -2.2137825657,
				"y": 0.1881675081,
				"z": 1.3689810001,
				"element": "C" 
			},
			{
				"x": -3.6820668972,
				"y": 0.6381283101,
				"z": 1.4585709303,
				"element": "C" 
			},
			{
				"x": -3.8074983181,
				"y": 2.1255930066,
				"z": 1.126024115,
				"element": "C" 
			},
			{
				"x": -3.4527204942,
				"y": 2.370659435,
				"z": -0.3505893313,
				"element": "C" 
			},
			{
				"x": -2.2898540187,
				"y": 1.4606836983,
				"z": -0.8566273182,
				"element": "C" 
			},
			{
				"x": -2.775366104,
				"y": 0.3599483925,
				"z": -1.8170702579,
				"element": "C" 
			},
			{
				"x": -1.5148506793,
				"y": 0.9092523635,
				"z": 0.2709683931,
				"element": "N" 
			},
			{
				"x": -0.1567812726,
				"y": 1.0348552223,
				"z": 0.4021025123,
				"element": "C" 
			},
			{
				"x": 0.4615869459,
				"y": 0.5743072072,
				"z": 1.3544271883,
				"element": "O" 
			},
			{
				"x": 0.6084442858,
				"y": 1.7980294042,
				"z": -0.7055934154,
				"element": "C" 
			},
			{
				"x": 1.9890229076,
				"y": 1.8761842387,
				"z": -0.4205321123,
				"element": "O" 
			},
			{
				"x": 2.7864587519,
				"y": 0.7910908323,
				"z": -0.6194022275,
				"element": "C" 
			},
			{
				"x": 4.1454707739,
				"y": 0.9904667113,
				"z": -0.3326443157,
				"element": "C" 
			},
			{
				"x": 5.0583135935,
				"y": -0.0320966502,
				"z": -0.5452122024,
				"element": "C" 
			},
			{
				"x": 4.6431331364,
				"y": -1.2755846175,
				"z": -1.0518856889,
				"element": "C" 
			},
			{
				"x": 3.2796902802,
				"y": -1.4689662319,
				"z": -1.3066423134,
				"element": "C" 
			},
			{
				"x": 2.3533518051,
				"y": -0.4524351632,
				"z": -1.1008899567,
				"element": "C" 
			},
			{
				"x": 5.5663546777,
				"y": -2.4214094616,
				"z": -1.3033675662,
				"element": "C" 
			},
			{
				"x": 6.8977887038,
				"y": -2.1364967929,
				"z": -1.375623371,
				"element": "O" 
			},
			{
				"x": 5.1931277601,
				"y": -3.5634568219,
				"z": -1.447995977,
				"element": "O" 
			},
			{
				"x": -2.5211034569,
				"y": -1.7244661119,
				"z": 0.3518480404,
				"element": "H" 
			},
			{
				"x": -2.5374347299,
				"y": -1.8165813087,
				"z": 2.1204169245,
				"element": "H" 
			},
			{
				"x": -0.9995328182,
				"y": -1.6062686882,
				"z": 1.2688507366,
				"element": "H" 
			},
			{
				"x": -1.7021493883,
				"y": 0.5091064081,
				"z": 2.2818897841,
				"element": "H" 
			},
			{
				"x": -4.3130562422,
				"y": 0.0500056685,
				"z": 0.7789764916,
				"element": "H" 
			},
			{
				"x": -4.0420784084,
				"y": 0.4251156228,
				"z": 2.4706933973,
				"element": "H" 
			},
			{
				"x": -4.8184502279,
				"y": 2.4929746817,
				"z": 1.3314409099,
				"element": "H" 
			},
			{
				"x": -3.1289561054,
				"y": 2.6936676661,
				"z": 1.7744810512,
				"element": "H" 
			},
			{
				"x": -4.3341145497,
				"y": 2.1813526679,
				"z": -0.9740263734,
				"element": "H" 
			},
			{
				"x": -3.1910362184,
				"y": 3.4238602553,
				"z": -0.4989505212,
				"element": "H" 
			},
			{
				"x": -1.6092613178,
				"y": 2.0923947774,
				"z": -1.4279320066,
				"element": "H" 
			},
			{
				"x": -3.5150799973,
				"y": -0.294810908,
				"z": -1.3487561828,
				"element": "H" 
			},
			{
				"x": -1.9392533964,
				"y": -0.2607078533,
				"z": -2.1545524922,
				"element": "H" 
			},
			{
				"x": -3.2429634037,
				"y": 0.8126534549,
				"z": -2.6979554806,
				"element": "H" 
			},
			{
				"x": 0.2723729954,
				"y": 2.8383945398,
				"z": -0.7485410966,
				"element": "H" 
			},
			{
				"x": 0.4358302518,
				"y": 1.34983177,
				"z": -1.6928866389,
				"element": "H" 
			},
			{
				"x": 4.4548449691,
				"y": 1.9513009522,
				"z": 0.0639461477,
				"element": "H" 
			},
			{
				"x": 6.0970561594,
				"y": 0.1436940658,
				"z": -0.2742600407,
				"element": "H" 
			},
			{
				"x": 2.9594746262,
				"y": -2.4403679197,
				"z": -1.6678122798,
				"element": "H" 
			},
			{
				"x": 1.3052932374,
				"y": -0.6443074902,
				"z": -1.294916513,
				"element": "H" 
			},
			{
				"x": 7.031491417,
				"y": -1.1795724465,
				"z": -1.4059738477,
				"element": "H" 
			}
		],
		 "valence_orbital": [ 
			{
				"type": "occ",
				"energy": -0.26433,
				"method": "rhf"
			},
			{
				"type": "occ",
				"energy": -0.26232,
				"method": "rhf"
			},
			{
				"type": "occ",
				"energy": -0.25754,
				"method": "rhf"
			},
			{
				"type": "occ",
				"energy": -0.24463,
				"method": "rhf"
			},
			{
				"type": "occ",
				"energy": -0.22856,
				"method": "rhf"
			},
			{
				"type": "unocc",
				"energy": -0.03302,
				"method": "rhf"
			},
			{
				"type": "unocc",
				"energy": -0.01304,
				"method": "rhf"
			},
			{
				"type": "unocc",
				"energy": 0.01701,
				"method": "rhf"
			},
			{
				"type": "unocc",
				"energy": 0.04872,
				"method": "rhf"
			},
			{
				"type": "unocc",
				"energy": 0.06306,
				"method": "rhf"
			}
		],
		"cosmo_sigma_profile": { 
			"-0.025": 0.0,
			"-0.024": 0.0,
			"-0.023": 0.0,
			"-0.022": 0.0,
			"-0.021": 0.0,
			"-0.02": 0.0,
			"-0.019": 0.124128446305,
			"-0.018": 0.677767691521,
			"-0.017": 1.12114575789,
			"-0.016": 1.11300921177,
			"-0.015": 1.00983952388,
			"-0.014": 0.70339363861,
			"-0.013": 0.78846861218,
			"-0.012": 1.20542555892,
			"-0.011": 1.45110793796,
			"-0.01": 1.15154625502,
			"-0.009": 1.84753919687,
			"-0.008": 8.02586836728,
			"-0.007": 11.1160577033,
			"-0.006": 11.3417472968,
			"-0.005": 12.3253147645,
			"-0.004": 19.0785013391,
			"-0.003": 34.3891318698,
			"-0.002": 37.3576415717,
			"-0.001": 36.0944205927,
			"0.0": 33.3147058876,
			"0.001": 25.2721371626,
			"0.002": 14.0823515344,
			"0.003": 16.1894905306,
			"0.004": 8.79544359793,
			"0.005": 4.83632539653,
			"0.006": 6.55893559792,
			"0.007": 5.34968253271,
			"0.008": 5.04412158762,
			"0.009": 5.7093779704,
			"0.01": 6.62783191057,
			"0.011": 6.84877245155,
			"0.012": 8.15151486606,
			"0.013": 5.57091514459,
			"0.014": 4.30970854632,
			"0.015": 0.206078925248,
			"0.016": 0.0,
			"0.017": 0.0,
			"0.018": 0.0,
			"0.019": 0.0,
			"0.02": 0.0,
			"0.021": 0.0,
			"0.022": 0.0,
			"0.023": 0.0,
			"0.024": 0.0,
			"0.025": 0.0
		}
	}
}
