{
	 "smiles": "NNC1=CC=C(C=C1)S(=O)(=O)NC1CC1", 
	 "Tm": 408.15, 
	 "num_atms": 28, 
	 "gaussian": { 
		 "optdone": 1, 
		 "sigma_profile": "yes", 
		 "theory": "DFT", 
		 "functional": "B3LYP", 
		 "basiset": "6-31G**", 
		 "properties": { 
			 "R2extent": 4832.7564, 
			 "electric_dipole_moment_norm": 5.18402118051, 
			 "electric_quadrupole_moment_norm": 13.7896796341, 
			 "total_energy": -1063.54236199, 
			 "HOMO_LUMO_gap": 0.19585, 
			 "cosmo_polarized_energy": -22.05, 
			 "cosmo_cavitation_energy": 33.19, 
			 "cosmo_dispersion_energy": -24.21, 
			 "cosmo_repulsion_energy": 1.86, 
			 "cosmo_total_nonelectrostatic_energy": 10.84, 
			 "SMD_solvation_energy": 4.33 
		},
		"coords": [
			{
				"x": -1.4466031158,
				"y": 0.8128542181,
				"z": -5.4087447089,
				"element": "N" 
			},
			{
				"x": -0.9323749376,
				"y": 1.7201866311,
				"z": -4.4694627452,
				"element": "N" 
			},
			{
				"x": -0.5579126706,
				"y": 1.3560548249,
				"z": -3.1876587407,
				"element": "C" 
			},
			{
				"x": -0.3221040312,
				"y": 0.0105027908,
				"z": -2.837845025,
				"element": "C" 
			},
			{
				"x": 0.0875760904,
				"y": -0.3182749387,
				"z": -1.5517138787,
				"element": "C" 
			},
			{
				"x": 0.2612130358,
				"y": 0.6852361368,
				"z": -0.5951590932,
				"element": "C" 
			},
			{
				"x": 0.0397225166,
				"y": 2.0259615434,
				"z": -0.9288129208,
				"element": "C" 
			},
			{
				"x": -0.3694816701,
				"y": 2.357715981,
				"z": -2.2116825009,
				"element": "C" 
			},
			{
				"x": 0.8165219756,
				"y": 0.2624521755,
				"z": 1.0429846121,
				"element": "S" 
			},
			{
				"x": 1.0318665268,
				"y": 1.5215270754,
				"z": 1.7755447986,
				"element": "O" 
			},
			{
				"x": 1.8780787914,
				"y": -0.7459251974,
				"z": 0.9727835939,
				"element": "O" 
			},
			{
				"x": -0.5523802197,
				"y": -0.5678113394,
				"z": 1.642454581,
				"element": "N" 
			},
			{
				"x": -0.3015959804,
				"y": -1.4228599695,
				"z": 2.7917070153,
				"element": "C" 
			},
			{
				"x": -1.3211744345,
				"y": -1.4433800003,
				"z": 3.8970947095,
				"element": "C" 
			},
			{
				"x": 0.0526792965,
				"y": -0.866040025,
				"z": 4.1509629733,
				"element": "C" 
			},
			{
				"x": -2.103406511,
				"y": 0.1680702381,
				"z": -4.967457708,
				"element": "H" 
			},
			{
				"x": -0.6837408186,
				"y": 0.2677898385,
				"z": -5.8030359647,
				"element": "H" 
			},
			{
				"x": -1.3130372776,
				"y": 2.6487649615,
				"z": -4.5825334053,
				"element": "H" 
			},
			{
				"x": -0.4471776494,
				"y": -0.7713612506,
				"z": -3.5783622458,
				"element": "H" 
			},
			{
				"x": 0.277172475,
				"y": -1.3535414564,
				"z": -1.2888889219,
				"element": "H" 
			},
			{
				"x": 0.1950508501,
				"y": 2.7936730661,
				"z": -0.1787011513,
				"element": "H" 
			},
			{
				"x": -0.5409588035,
				"y": 3.3985886345,
				"z": -2.4737915756,
				"element": "H" 
			},
			{
				"x": -1.2930526359,
				"y": 0.1101799458,
				"z": 1.8110199718,
				"element": "H" 
			},
			{
				"x": 0.1519450871,
				"y": -2.365208203,
				"z": 2.5040395778,
				"element": "H" 
			},
			{
				"x": -2.157415992,
				"y": -0.7514476666,
				"z": 3.831791379,
				"element": "H" 
			},
			{
				"x": -1.5810254538,
				"y": -2.404404216,
				"z": 4.3297753317,
				"element": "H" 
			},
			{
				"x": 0.1441935734,
				"y": 0.2114814253,
				"z": 4.2394120088,
				"element": "H" 
			},
			{
				"x": 0.7509219832,
				"y": -1.430385224,
				"z": 4.7610800331,
				"element": "H" 
			}
		],
		 "valence_orbital": [ 
			{
				"type": "occ",
				"energy": -0.2868,
				"method": "rhf"
			},
			{
				"type": "occ",
				"energy": -0.28329,
				"method": "rhf"
			},
			{
				"type": "occ",
				"energy": -0.26774,
				"method": "rhf"
			},
			{
				"type": "occ",
				"energy": -0.24595,
				"method": "rhf"
			},
			{
				"type": "occ",
				"energy": -0.21945,
				"method": "rhf"
			},
			{
				"type": "unocc",
				"energy": -0.0236,
				"method": "rhf"
			},
			{
				"type": "unocc",
				"energy": -0.0147,
				"method": "rhf"
			},
			{
				"type": "unocc",
				"energy": 0.06179,
				"method": "rhf"
			},
			{
				"type": "unocc",
				"energy": 0.07089,
				"method": "rhf"
			},
			{
				"type": "unocc",
				"energy": 0.07785,
				"method": "rhf"
			}
		],
		"cosmo_sigma_profile": { 
			"-0.025": 0.0,
			"-0.024": 0.0,
			"-0.023": 0.0,
			"-0.022": 0.0,
			"-0.021": 0.0,
			"-0.02": 0.0,
			"-0.019": 0.0,
			"-0.018": 0.0,
			"-0.017": 0.0,
			"-0.016": 0.0,
			"-0.015": 0.0538531498278,
			"-0.014": 1.53394363298,
			"-0.013": 2.04339085467,
			"-0.012": 3.34690839624,
			"-0.011": 5.85306490826,
			"-0.01": 5.89468542885,
			"-0.009": 6.2114718427,
			"-0.008": 6.06959276893,
			"-0.007": 8.62275110686,
			"-0.006": 11.3858772521,
			"-0.005": 17.0936374241,
			"-0.004": 15.9575896685,
			"-0.003": 15.3336667848,
			"-0.002": 14.4402887774,
			"-0.001": 12.7659977335,
			"0.0": 14.3885991882,
			"0.001": 12.4812975061,
			"0.002": 14.4375032425,
			"0.003": 18.2981016921,
			"0.004": 19.5167783614,
			"0.005": 9.16781683547,
			"0.006": 4.6285882757,
			"0.007": 5.0428911178,
			"0.008": 6.08529989971,
			"0.009": 5.19868078873,
			"0.01": 5.78391973598,
			"0.011": 11.0187141495,
			"0.012": 6.51036071965,
			"0.013": 0.935830398004,
			"0.014": 0.926265883464,
			"0.015": 0.692856107989,
			"0.016": 0.439691464153,
			"0.017": 0.104565809911,
			"0.018": 0.0,
			"0.019": 0.0,
			"0.02": 0.0,
			"0.021": 0.0,
			"0.022": 0.0,
			"0.023": 0.0,
			"0.024": 0.0,
			"0.025": 0.0
		}
	}
}
