{
	 "smiles": "ClC1=CC=C(NC(NC=O)C(Cl)(Cl)Cl)C=C1Cl", 
	 "Tm": 408.15, 
	 "num_atms": 24, 
	 "gaussian": { 
		 "optdone": 1, 
		 "sigma_profile": "yes", 
		 "theory": "DFT", 
		 "functional": "B3LYP", 
		 "basiset": "6-31G**", 
		 "properties": { 
			 "R2extent": 7679.663, 
			 "electric_dipole_moment_norm": 2.8950037133, 
			 "electric_quadrupole_moment_norm": 13.764624478, 
			 "total_energy": -2832.84119546, 
			 "HOMO_LUMO_gap": 0.17637, 
			 "cosmo_polarized_energy": -15.76, 
			 "cosmo_cavitation_energy": 37.24, 
			 "cosmo_dispersion_energy": -25.78, 
			 "cosmo_repulsion_energy": 2.01, 
			 "cosmo_total_nonelectrostatic_energy": 13.48, 
			 "SMD_solvation_energy": 5.27 
		},
		"coords": [
			{
				"x": -1.9778831344,
				"y": -2.5169527503,
				"z": 4.1027152982,
				"element": "Cl" 
			},
			{
				"x": -1.0209030376,
				"y": -1.4583881051,
				"z": 3.0975929919,
				"element": "C" 
			},
			{
				"x": -1.6030646565,
				"y": -0.2975632017,
				"z": 2.5832683343,
				"element": "C" 
			},
			{
				"x": -0.870993829,
				"y": 0.583844369,
				"z": 1.7946755719,
				"element": "C" 
			},
			{
				"x": 0.4644992265,
				"y": 0.2959607387,
				"z": 1.4673881293,
				"element": "C" 
			},
			{
				"x": 1.2586828751,
				"y": 1.2049080946,
				"z": 0.7216623549,
				"element": "N" 
			},
			{
				"x": 0.9996843017,
				"y": 1.5847922856,
				"z": -0.658786216,
				"element": "C" 
			},
			{
				"x": -0.3789839243,
				"y": 1.8335065934,
				"z": -0.9384818278,
				"element": "N" 
			},
			{
				"x": -0.9141439114,
				"y": 3.0847524014,
				"z": -1.1423651626,
				"element": "C" 
			},
			{
				"x": -2.0980497468,
				"y": 3.2967212565,
				"z": -1.2927438534,
				"element": "O" 
			},
			{
				"x": 1.5879375615,
				"y": 0.5760388253,
				"z": -1.7316142585,
				"element": "C" 
			},
			{
				"x": 0.714768709,
				"y": -0.991606222,
				"z": -1.6944657181,
				"element": "Cl" 
			},
			{
				"x": 3.3391040831,
				"y": 0.2894953801,
				"z": -1.3766420957,
				"element": "Cl" 
			},
			{
				"x": 1.4553045887,
				"y": 1.3077232092,
				"z": -3.3686080583,
				"element": "Cl" 
			},
			{
				"x": 1.0474233215,
				"y": -0.8690192284,
				"z": 1.9836190176,
				"element": "C" 
			},
			{
				"x": 0.3205471506,
				"y": -1.7323592015,
				"z": 2.8031616682,
				"element": "C" 
			},
			{
				"x": 1.1170783931,
				"y": -3.158442813,
				"z": 3.4211564943,
				"element": "Cl" 
			},
			{
				"x": -2.6343941133,
				"y": -0.0737998476,
				"z": 2.8326451503,
				"element": "H" 
			},
			{
				"x": -1.3285364385,
				"y": 1.5071057849,
				"z": 1.4619668637,
				"element": "H" 
			},
			{
				"x": 2.2492798624,
				"y": 1.0560561403,
				"z": 0.8712755253,
				"element": "H" 
			},
			{
				"x": 1.5526911146,
				"y": 2.5120550036,
				"z": -0.8484421942,
				"element": "H" 
			},
			{
				"x": -1.0343189548,
				"y": 1.0613341192,
				"z": -0.914315164,
				"element": "H" 
			},
			{
				"x": -0.1402745669,
				"y": 3.8767666995,
				"z": -1.154288748,
				"element": "H" 
			},
			{
				"x": 2.0750451258,
				"y": -1.1189295316,
				"z": 1.7419258967,
				"element": "H" 
			}
		],
		 "valence_orbital": [ 
			{
				"type": "occ",
				"energy": -0.30021,
				"method": "rhf"
			},
			{
				"type": "occ",
				"energy": -0.29149,
				"method": "rhf"
			},
			{
				"type": "occ",
				"energy": -0.2797,
				"method": "rhf"
			},
			{
				"type": "occ",
				"energy": -0.26768,
				"method": "rhf"
			},
			{
				"type": "occ",
				"energy": -0.23714,
				"method": "rhf"
			},
			{
				"type": "unocc",
				"energy": -0.06077,
				"method": "rhf"
			},
			{
				"type": "unocc",
				"energy": -0.03466,
				"method": "rhf"
			},
			{
				"type": "unocc",
				"energy": -0.03269,
				"method": "rhf"
			},
			{
				"type": "unocc",
				"energy": -0.02021,
				"method": "rhf"
			},
			{
				"type": "unocc",
				"energy": -0.01236,
				"method": "rhf"
			}
		],
		"cosmo_sigma_profile": { 
			"-0.025": 0.0,
			"-0.024": 0.0,
			"-0.023": 0.0,
			"-0.022": 0.0,
			"-0.021": 0.0,
			"-0.02": 0.0,
			"-0.019": 0.0,
			"-0.018": 0.0,
			"-0.017": 0.0,
			"-0.016": 0.0,
			"-0.015": 0.0,
			"-0.014": 0.0767094851446,
			"-0.013": 0.987947702169,
			"-0.012": 1.50863041424,
			"-0.011": 3.88361469765,
			"-0.01": 5.58823374995,
			"-0.009": 6.33859782382,
			"-0.008": 7.9233536753,
			"-0.007": 8.55048572157,
			"-0.006": 9.90279914521,
			"-0.005": 10.0884423549,
			"-0.004": 13.3182646265,
			"-0.003": 14.7138535968,
			"-0.002": 16.8912408487,
			"-0.001": 20.0063675945,
			"0.0": 25.2975363497,
			"0.001": 35.3148267141,
			"0.002": 41.3934385602,
			"0.003": 36.7003613152,
			"0.004": 19.8073314651,
			"0.005": 9.06471414949,
			"0.006": 2.32692160647,
			"0.007": 1.11659535963,
			"0.008": 2.07194920925,
			"0.009": 1.85891268968,
			"0.01": 2.02822730928,
			"0.011": 2.87201295938,
			"0.012": 5.00701334225,
			"0.013": 3.67485652111,
			"0.014": 0.343440161771,
			"0.015": 0.0,
			"0.016": 0.0,
			"0.017": 0.0,
			"0.018": 0.0,
			"0.019": 0.0,
			"0.02": 0.0,
			"0.021": 0.0,
			"0.022": 0.0,
			"0.023": 0.0,
			"0.024": 0.0,
			"0.025": 0.0
		}
	}
}
