{
	 "smiles": "OC(=O)C(=O)C=CC1=CC=CS1", 
	 "Tm": 388.15, 
	 "num_atms": 18, 
	 "gaussian": { 
		 "optdone": 1, 
		 "sigma_profile": "yes", 
		 "theory": "DFT", 
		 "functional": "B3LYP", 
		 "basiset": "6-31G**", 
		 "properties": { 
			 "R2extent": 4784.2849, 
			 "electric_dipole_moment_norm": 3.23115739016, 
			 "electric_quadrupole_moment_norm": 13.2282713988, 
			 "total_energy": -932.297335248, 
			 "HOMO_LUMO_gap": 0.13375, 
			 "cosmo_polarized_energy": -14.2, 
			 "cosmo_cavitation_energy": 26.05, 
			 "cosmo_dispersion_energy": -19.32, 
			 "cosmo_repulsion_energy": 1.5, 
			 "cosmo_total_nonelectrostatic_energy": 8.23, 
			 "SMD_solvation_energy": 6.66 
		},
		"coords": [
			{
				"x": -4.3158920713,
				"y": 3.9991952127,
				"z": -2.1717911656,
				"element": "O" 
			},
			{
				"x": -3.3867627687,
				"y": 3.0348682323,
				"z": -2.1058312413,
				"element": "C" 
			},
			{
				"x": -2.8786349669,
				"y": 2.5143289358,
				"z": -3.077655151,
				"element": "O" 
			},
			{
				"x": -3.0356596625,
				"y": 2.6596451133,
				"z": -0.6500261528,
				"element": "C" 
			},
			{
				"x": -3.5885094722,
				"y": 3.2263223398,
				"z": 0.2805728613,
				"element": "O" 
			},
			{
				"x": -2.0236541701,
				"y": 1.608128199,
				"z": -0.5271487085,
				"element": "C" 
			},
			{
				"x": -1.6312962394,
				"y": 1.1914608271,
				"z": 0.7010749547,
				"element": "C" 
			},
			{
				"x": -0.6527002742,
				"y": 0.1735000821,
				"z": 0.984215639,
				"element": "C" 
			},
			{
				"x": 0.1034693389,
				"y": -0.6044775269,
				"z": 0.1228022915,
				"element": "C" 
			},
			{
				"x": 0.9676531095,
				"y": -1.506714386,
				"z": 0.7897755713,
				"element": "C" 
			},
			{
				"x": 0.8738398238,
				"y": -1.4202348071,
				"z": 2.1585524131,
				"element": "C" 
			},
			{
				"x": -0.2747320807,
				"y": -0.2321173773,
				"z": 2.6491264887,
				"element": "S" 
			},
			{
				"x": -4.4693796989,
				"y": 4.1651911633,
				"z": -3.1173815545,
				"element": "H" 
			},
			{
				"x": -1.6205066969,
				"y": 1.196572984,
				"z": -1.4451000396,
				"element": "H" 
			},
			{
				"x": -2.1069885576,
				"y": 1.6787297176,
				"z": 1.5515151633,
				"element": "H" 
			},
			{
				"x": 0.0336179853,
				"y": -0.5233595883,
				"z": -0.9557209687,
				"element": "H" 
			},
			{
				"x": 1.6338978996,
				"y": -2.1941378092,
				"z": 0.2816928881,
				"element": "H" 
			},
			{
				"x": 1.4168385022,
				"y": -1.9897013122,
				"z": 2.9002267109,
				"element": "H" 
			}
		],
		 "valence_orbital": [ 
			{
				"type": "occ",
				"energy": -0.31562,
				"method": "rhf"
			},
			{
				"type": "occ",
				"energy": -0.31302,
				"method": "rhf"
			},
			{
				"type": "occ",
				"energy": -0.27063,
				"method": "rhf"
			},
			{
				"type": "occ",
				"energy": -0.25048,
				"method": "rhf"
			},
			{
				"type": "occ",
				"energy": -0.23203,
				"method": "rhf"
			},
			{
				"type": "unocc",
				"energy": -0.09828,
				"method": "rhf"
			},
			{
				"type": "unocc",
				"energy": -0.03489,
				"method": "rhf"
			},
			{
				"type": "unocc",
				"energy": 0.00996,
				"method": "rhf"
			},
			{
				"type": "unocc",
				"energy": 0.01507,
				"method": "rhf"
			},
			{
				"type": "unocc",
				"energy": 0.06867,
				"method": "rhf"
			}
		],
		"cosmo_sigma_profile": { 
			"-0.025": 0.0,
			"-0.024": 0.0,
			"-0.023": 0.0,
			"-0.022": 0.0,
			"-0.021": 0.0,
			"-0.02": 0.0,
			"-0.019": 0.753628389048,
			"-0.018": 1.13946306071,
			"-0.017": 0.497021835284,
			"-0.016": 0.918511229976,
			"-0.015": 1.06138524389,
			"-0.014": 0.367264501668,
			"-0.013": 0.475312340533,
			"-0.012": 1.85637067242,
			"-0.011": 0.260645183867,
			"-0.01": 0.75983896374,
			"-0.009": 3.84812717856,
			"-0.008": 7.36846785928,
			"-0.007": 9.0482904726,
			"-0.006": 10.2836419605,
			"-0.005": 10.721752039,
			"-0.004": 10.6971193265,
			"-0.003": 10.3325869713,
			"-0.002": 11.4232464455,
			"-0.001": 11.8484802704,
			"0.0": 15.0233699882,
			"0.001": 17.1876482291,
			"0.002": 23.1327768637,
			"0.003": 18.1024494474,
			"0.004": 6.26637334516,
			"0.005": 2.67739082661,
			"0.006": 3.32880329669,
			"0.007": 4.25913307446,
			"0.008": 4.04087155349,
			"0.009": 4.20803046396,
			"0.01": 7.29230459026,
			"0.011": 7.896717152,
			"0.012": 2.96651947313,
			"0.013": 1.55205005214,
			"0.014": 0.224089983008,
			"0.015": 0.0,
			"0.016": 0.0,
			"0.017": 0.0,
			"0.018": 0.0,
			"0.019": 0.0,
			"0.02": 0.0,
			"0.021": 0.0,
			"0.022": 0.0,
			"0.023": 0.0,
			"0.024": 0.0,
			"0.025": 0.0
		}
	}
}
