{
	 "smiles": "CCOC(=O)C1=CSC(=N1)C1=CC=C(Br)S1", 
	 "Tm": 372.15, 
	 "num_atms": 24, 
	 "gaussian": { 
		 "optdone": 1, 
		 "sigma_profile": "yes", 
		 "theory": "DFT", 
		 "functional": "B3LYP", 
		 "basiset": "6-31G**", 
		 "properties": { 
			 "R2extent": 9468.3936, 
			 "electric_dipole_moment_norm": 1.42026855207, 
			 "electric_quadrupole_moment_norm": 17.9435664432, 
			 "total_energy": -3958.85250387, 
			 "HOMO_LUMO_gap": 0.14976, 
			 "cosmo_polarized_energy": -10.93, 
			 "cosmo_cavitation_energy": 35.3, 
			 "cosmo_dispersion_energy": -26.87, 
			 "cosmo_repulsion_energy": 2.04, 
			 "cosmo_total_nonelectrostatic_energy": 10.47, 
			 "SMD_solvation_energy": 4.37 
		},
		"coords": [
			{
				"x": 2.3460725589,
				"y": -4.1529884355,
				"z": 1.3480613579,
				"element": "C" 
			},
			{
				"x": 0.902467386,
				"y": -3.8096413389,
				"z": 1.6835505582,
				"element": "C" 
			},
			{
				"x": 0.5692908765,
				"y": -2.4664729307,
				"z": 1.2555559588,
				"element": "O" 
			},
			{
				"x": 0.8717661741,
				"y": -1.4768770287,
				"z": 2.1111039118,
				"element": "C" 
			},
			{
				"x": 1.3907653707,
				"y": -1.6317825183,
				"z": 3.2014428559,
				"element": "O" 
			},
			{
				"x": 0.4947338693,
				"y": -0.1382930982,
				"z": 1.5826942186,
				"element": "C" 
			},
			{
				"x": 0.7169050672,
				"y": 1.0020509126,
				"z": 2.3120211783,
				"element": "C" 
			},
			{
				"x": 0.1746255491,
				"y": 2.3837143891,
				"z": 1.4367004878,
				"element": "S" 
			},
			{
				"x": -0.3238227477,
				"y": 1.3041094535,
				"z": 0.1170420077,
				"element": "C" 
			},
			{
				"x": -0.0891330383,
				"y": 0.0416018231,
				"z": 0.3525155291,
				"element": "N" 
			},
			{
				"x": -0.932512923,
				"y": 1.7998956782,
				"z": -1.0983917206,
				"element": "C" 
			},
			{
				"x": -1.232393886,
				"y": 3.0924521747,
				"z": -1.4700715563,
				"element": "C" 
			},
			{
				"x": -1.8329633105,
				"y": 3.1877812563,
				"z": -2.7546599258,
				"element": "C" 
			},
			{
				"x": -1.9790728424,
				"y": 1.9573699949,
				"z": -3.3387557102,
				"element": "C" 
			},
			{
				"x": -2.7227273125,
				"y": 1.6008775574,
				"z": -5.0314691076,
				"element": "Br" 
			},
			{
				"x": -1.392491845,
				"y": 0.6576502474,
				"z": -2.3453771752,
				"element": "S" 
			},
			{
				"x": 2.5390352782,
				"y": -4.0203944145,
				"z": 0.2796041151,
				"element": "H" 
			},
			{
				"x": 3.033415793,
				"y": -3.5198367928,
				"z": 1.9143829231,
				"element": "H" 
			},
			{
				"x": 2.5483324909,
				"y": -5.1974439397,
				"z": 1.6079250577,
				"element": "H" 
			},
			{
				"x": 0.2013909486,
				"y": -4.4456018711,
				"z": 1.1383677014,
				"element": "H" 
			},
			{
				"x": 0.7148578635,
				"y": -3.8950032202,
				"z": 2.7564873414,
				"element": "H" 
			},
			{
				"x": 1.1618030897,
				"y": 1.0720695014,
				"z": 3.2935297989,
				"element": "H" 
			},
			{
				"x": -1.0299575118,
				"y": 3.9541957471,
				"z": -0.8433685758,
				"element": "H" 
			},
			{
				"x": -2.1407868987,
				"y": 4.113866853,
				"z": -3.2228912301,
				"element": "H" 
			}
		],
		 "valence_orbital": [ 
			{
				"type": "occ",
				"energy": -0.29226,
				"method": "rhf"
			},
			{
				"type": "occ",
				"energy": -0.27805,
				"method": "rhf"
			},
			{
				"type": "occ",
				"energy": -0.27528,
				"method": "rhf"
			},
			{
				"type": "occ",
				"energy": -0.27114,
				"method": "rhf"
			},
			{
				"type": "occ",
				"energy": -0.22273,
				"method": "rhf"
			},
			{
				"type": "unocc",
				"energy": -0.07297,
				"method": "rhf"
			},
			{
				"type": "unocc",
				"energy": -0.0391,
				"method": "rhf"
			},
			{
				"type": "unocc",
				"energy": -0.00984,
				"method": "rhf"
			},
			{
				"type": "unocc",
				"energy": 0.00069,
				"method": "rhf"
			},
			{
				"type": "unocc",
				"energy": 0.01264,
				"method": "rhf"
			}
		],
		"cosmo_sigma_profile": { 
			"-0.025": 0.0,
			"-0.024": 0.0,
			"-0.023": 0.0,
			"-0.022": 0.0,
			"-0.021": 0.0,
			"-0.02": 0.0,
			"-0.019": 0.0,
			"-0.018": 0.0,
			"-0.017": 0.0,
			"-0.016": 0.0,
			"-0.015": 0.0,
			"-0.014": 0.0,
			"-0.013": 0.0,
			"-0.012": 0.0,
			"-0.011": 0.159308432239,
			"-0.01": 1.77761143117,
			"-0.009": 2.72455378504,
			"-0.008": 5.72691301756,
			"-0.007": 5.77992408746,
			"-0.006": 8.25634692343,
			"-0.005": 13.1275950218,
			"-0.004": 16.7612653228,
			"-0.003": 21.9146183026,
			"-0.002": 25.5255891528,
			"-0.001": 28.4288060564,
			"0.0": 37.7762460987,
			"0.001": 35.0762129321,
			"0.002": 29.527205854,
			"0.003": 21.3685975967,
			"0.004": 7.38043612298,
			"0.005": 4.15689043834,
			"0.006": 2.45785935763,
			"0.007": 3.57031903485,
			"0.008": 2.85727122401,
			"0.009": 3.37490860652,
			"0.01": 2.68710943255,
			"0.011": 4.48432845502,
			"0.012": 4.55532997451,
			"0.013": 0.925849140641,
			"0.014": 0.808011963557,
			"0.015": 0.00352881851604,
			"0.016": 0.0,
			"0.017": 0.0,
			"0.018": 0.0,
			"0.019": 0.0,
			"0.02": 0.0,
			"0.021": 0.0,
			"0.022": 0.0,
			"0.023": 0.0,
			"0.024": 0.0,
			"0.025": 0.0
		}
	}
}
