{
	 "smiles": "OC1=NC=CC2=C1C=C(Br)C=C2", 
	 "Tm": 522.15, 
	 "num_atms": 18, 
	 "gaussian": { 
		 "optdone": 1, 
		 "sigma_profile": "yes", 
		 "theory": "DFT", 
		 "functional": "B3LYP", 
		 "basiset": "6-31G**", 
		 "properties": { 
			 "R2extent": 4284.0526, 
			 "electric_dipole_moment_norm": 2.56756633605, 
			 "electric_quadrupole_moment_norm": 11.7004684603, 
			 "total_energy": -3047.95553491, 
			 "HOMO_LUMO_gap": 0.16518, 
			 "cosmo_polarized_energy": -12.75, 
			 "cosmo_cavitation_energy": 24.5, 
			 "cosmo_dispersion_energy": -19.01, 
			 "cosmo_repulsion_energy": 1.48, 
			 "cosmo_total_nonelectrostatic_energy": 6.97, 
			 "SMD_solvation_energy": 1.69 
		},
		"coords": [
			{
				"x": 2.42224073,
				"y": 3.0573694118,
				"z": 0.5392828862,
				"element": "O" 
			},
			{
				"x": 1.944765895,
				"y": 1.874447726,
				"z": 0.9986253134,
				"element": "C" 
			},
			{
				"x": 1.9429049507,
				"y": 1.7566746963,
				"z": 2.302802515,
				"element": "N" 
			},
			{
				"x": 1.4799615782,
				"y": 0.601745851,
				"z": 2.8454431145,
				"element": "C" 
			},
			{
				"x": 1.0095785608,
				"y": -0.4600075656,
				"z": 2.1122939357,
				"element": "C" 
			},
			{
				"x": 1.0009272006,
				"y": -0.3580561677,
				"z": 0.6970500182,
				"element": "C" 
			},
			{
				"x": 1.4830081553,
				"y": 0.8471408116,
				"z": 0.0997773014,
				"element": "C" 
			},
			{
				"x": 1.4843960098,
				"y": 0.9722604207,
				"z": -1.3125742139,
				"element": "C" 
			},
			{
				"x": 1.0238660234,
				"y": -0.0623241048,
				"z": -2.0944641361,
				"element": "C" 
			},
			{
				"x": 1.0276281056,
				"y": 0.1104924804,
				"z": -3.9962295413,
				"element": "Br" 
			},
			{
				"x": 0.543806559,
				"y": -1.2604335807,
				"z": -1.5201624714,
				"element": "C" 
			},
			{
				"x": 0.5357304714,
				"y": -1.3978764532,
				"z": -0.1511581118,
				"element": "C" 
			},
			{
				"x": 2.3968178232,
				"y": 3.0809905703,
				"z": -0.4246340059,
				"element": "H" 
			},
			{
				"x": 1.5017877801,
				"y": 0.5595218542,
				"z": 3.931956541,
				"element": "H" 
			},
			{
				"x": 0.6504504308,
				"y": -1.3612996611,
				"z": 2.5982988348,
				"element": "H" 
			},
			{
				"x": 1.8421506549,
				"y": 1.8707204495,
				"z": -1.8055515374,
				"element": "H" 
			},
			{
				"x": 0.1874618199,
				"y": -2.05762588,
				"z": -2.1624150083,
				"element": "H" 
			},
			{
				"x": 0.1682172514,
				"y": -2.3160408589,
				"z": 0.298158566,
				"element": "H" 
			}
		],
		 "valence_orbital": [ 
			{
				"type": "occ",
				"energy": -0.29978,
				"method": "rhf"
			},
			{
				"type": "occ",
				"energy": -0.28908,
				"method": "rhf"
			},
			{
				"type": "occ",
				"energy": -0.26775,
				"method": "rhf"
			},
			{
				"type": "occ",
				"energy": -0.26578,
				"method": "rhf"
			},
			{
				"type": "occ",
				"energy": -0.22453,
				"method": "rhf"
			},
			{
				"type": "unocc",
				"energy": -0.05935,
				"method": "rhf"
			},
			{
				"type": "unocc",
				"energy": -0.03609,
				"method": "rhf"
			},
			{
				"type": "unocc",
				"energy": -0.00612,
				"method": "rhf"
			},
			{
				"type": "unocc",
				"energy": 0.02113,
				"method": "rhf"
			},
			{
				"type": "unocc",
				"energy": 0.05325,
				"method": "rhf"
			}
		],
		"cosmo_sigma_profile": { 
			"-0.025": 0.0,
			"-0.024": 0.0,
			"-0.023": 0.0,
			"-0.022": 0.0,
			"-0.021": 0.0,
			"-0.02": 0.232855598905,
			"-0.019": 0.66195752779,
			"-0.018": 0.833444099824,
			"-0.017": 1.29050973798,
			"-0.016": 0.655076430404,
			"-0.015": 0.854474756428,
			"-0.014": 1.19801244098,
			"-0.013": 0.596720104078,
			"-0.012": 1.34533687144,
			"-0.011": 0.960433063753,
			"-0.01": 1.031676267,
			"-0.009": 1.02107657056,
			"-0.008": 2.38716534202,
			"-0.007": 8.85773594037,
			"-0.006": 9.49059401814,
			"-0.005": 8.86552320921,
			"-0.004": 10.1124313885,
			"-0.003": 8.68291129954,
			"-0.002": 9.28925793036,
			"-0.001": 13.0916490098,
			"0.0": 14.2075042703,
			"0.001": 24.4850614823,
			"0.002": 24.8281656725,
			"0.003": 15.8887493139,
			"0.004": 14.2930191025,
			"0.005": 4.33122448939,
			"0.006": 1.72480696796,
			"0.007": 2.62011979654,
			"0.008": 2.3750384485,
			"0.009": 1.5019712582,
			"0.01": 2.70473478777,
			"0.011": 2.82505602308,
			"0.012": 2.54003946567,
			"0.013": 1.41464127622,
			"0.014": 1.57374561487,
			"0.015": 1.23238629232,
			"0.016": 0.792445332138,
			"0.017": 0.130768365754,
			"0.018": 0.0,
			"0.019": 0.0,
			"0.02": 0.0,
			"0.021": 0.0,
			"0.022": 0.0,
			"0.023": 0.0,
			"0.024": 0.0,
			"0.025": 0.0
		}
	}
}
