{
	 "smiles": "OC(=O)C(C(O)=O)C1=CSC=C1", 
	 "Tm": 412.15, 
	 "num_atms": 18, 
	 "gaussian": { 
		 "optdone": 1, 
		 "sigma_profile": "yes", 
		 "theory": "DFT", 
		 "functional": "B3LYP", 
		 "basiset": "6-31G**", 
		 "properties": { 
			 "R2extent": 3374.3169, 
			 "electric_dipole_moment_norm": 2.59993310106, 
			 "electric_quadrupole_moment_norm": 12.8453041365, 
			 "total_energy": -969.448029137, 
			 "HOMO_LUMO_gap": 0.21887, 
			 "cosmo_polarized_energy": -15.33, 
			 "cosmo_cavitation_energy": 25.19, 
			 "cosmo_dispersion_energy": -18.45, 
			 "cosmo_repulsion_energy": 1.46, 
			 "cosmo_total_nonelectrostatic_energy": 8.2, 
			 "SMD_solvation_energy": 6.9 
		},
		"coords": [
			{
				"x": -1.55888507,
				"y": -1.0606498283,
				"z": 2.1012751073,
				"element": "O" 
			},
			{
				"x": -1.056954129,
				"y": -1.5631159501,
				"z": 0.9507097226,
				"element": "C" 
			},
			{
				"x": -1.6939257749,
				"y": -2.2700402106,
				"z": 0.2074554153,
				"element": "O" 
			},
			{
				"x": 0.3901961184,
				"y": -1.1073579065,
				"z": 0.7760977702,
				"element": "C" 
			},
			{
				"x": 1.2650141268,
				"y": -1.9432012679,
				"z": 1.7193887771,
				"element": "C" 
			},
			{
				"x": 2.4031958423,
				"y": -1.2854385317,
				"z": 2.0278433925,
				"element": "O" 
			},
			{
				"x": 1.0039107526,
				"y": -3.0529133398,
				"z": 2.1201269709,
				"element": "O" 
			},
			{
				"x": 0.9334588956,
				"y": -1.1947618612,
				"z": -0.6369260228,
				"element": "C" 
			},
			{
				"x": 0.6482191176,
				"y": -2.1851041723,
				"z": -1.5421821836,
				"element": "C" 
			},
			{
				"x": 1.5094524713,
				"y": -1.9611083396,
				"z": -3.0259445337,
				"element": "S" 
			},
			{
				"x": 2.2770418015,
				"y": -0.5262363373,
				"z": -2.4260509875,
				"element": "C" 
			},
			{
				"x": 1.8787632301,
				"y": -0.2458922817,
				"z": -1.1505110908,
				"element": "C" 
			},
			{
				"x": -2.4555635482,
				"y": -1.4249876888,
				"z": 2.1924190557,
				"element": "H" 
			},
			{
				"x": 0.4539216555,
				"y": -0.0705096278,
				"z": 1.1201484027,
				"element": "H" 
			},
			{
				"x": 2.9301780877,
				"y": -1.8906326277,
				"z": 2.5770128416,
				"element": "H" 
			},
			{
				"x": -0.0391446401,
				"y": -3.0080252026,
				"z": -1.422248167,
				"element": "H" 
			},
			{
				"x": 2.9691565505,
				"y": 0.0234053332,
				"z": -3.0482621769,
				"element": "H" 
			},
			{
				"x": 2.2405645123,
				"y": 0.6041698406,
				"z": -0.5827522936,
				"element": "H" 
			}
		],
		 "valence_orbital": [ 
			{
				"type": "occ",
				"energy": -0.32741,
				"method": "rhf"
			},
			{
				"type": "occ",
				"energy": -0.29412,
				"method": "rhf"
			},
			{
				"type": "occ",
				"energy": -0.28725,
				"method": "rhf"
			},
			{
				"type": "occ",
				"energy": -0.25006,
				"method": "rhf"
			},
			{
				"type": "occ",
				"energy": -0.2362,
				"method": "rhf"
			},
			{
				"type": "unocc",
				"energy": -0.01733,
				"method": "rhf"
			},
			{
				"type": "unocc",
				"energy": -0.00778,
				"method": "rhf"
			},
			{
				"type": "unocc",
				"energy": 0.00081,
				"method": "rhf"
			},
			{
				"type": "unocc",
				"energy": 0.03155,
				"method": "rhf"
			},
			{
				"type": "unocc",
				"energy": 0.06307,
				"method": "rhf"
			}
		],
		"cosmo_sigma_profile": { 
			"-0.025": 0.0,
			"-0.024": 0.0,
			"-0.023": 0.0,
			"-0.022": 0.0,
			"-0.021": 0.0,
			"-0.02": 0.0,
			"-0.019": 0.955372717218,
			"-0.018": 2.12828445188,
			"-0.017": 1.85697819835,
			"-0.016": 1.5407447147,
			"-0.015": 1.99893144398,
			"-0.014": 0.650515032809,
			"-0.013": 0.920857803198,
			"-0.012": 1.84282819183,
			"-0.011": 1.94175646912,
			"-0.01": 1.32678422895,
			"-0.009": 2.22238084381,
			"-0.008": 6.165720225,
			"-0.007": 9.70745300093,
			"-0.006": 7.7609082923,
			"-0.005": 8.90662407946,
			"-0.004": 7.29647762583,
			"-0.003": 9.6699585599,
			"-0.002": 8.85247094743,
			"-0.001": 8.89735580332,
			"0.0": 10.1033008042,
			"0.001": 12.5739329935,
			"0.002": 13.1988669701,
			"0.003": 16.1472317375,
			"0.004": 17.31353354,
			"0.005": 11.7622157503,
			"0.006": 7.54804187234,
			"0.007": 5.73902146471,
			"0.008": 5.57165746027,
			"0.009": 5.33568913956,
			"0.01": 6.2050056172,
			"0.011": 6.68650369899,
			"0.012": 0.271938379173,
			"0.013": 0.0,
			"0.014": 0.0,
			"0.015": 0.0,
			"0.016": 0.0,
			"0.017": 0.0,
			"0.018": 0.0,
			"0.019": 0.0,
			"0.02": 0.0,
			"0.021": 0.0,
			"0.022": 0.0,
			"0.023": 0.0,
			"0.024": 0.0,
			"0.025": 0.0
		}
	}
}
