{
	 "smiles": "OC1=C(C(=O)NC2=C1C=CC=C2)[N+]([O-])=O", 
	 "Tm": 483.15, 
	 "num_atms": 21, 
	 "gaussian": { 
		 "optdone": 1, 
		 "sigma_profile": "yes", 
		 "theory": "DFT", 
		 "functional": "B3LYP", 
		 "basiset": "6-31G**", 
		 "properties": { 
			 "R2extent": 3656.2854, 
			 "electric_dipole_moment_norm": 7.12203848908, 
			 "electric_quadrupole_moment_norm": 22.403169185, 
			 "total_energy": -756.89718878, 
			 "HOMO_LUMO_gap": 0.14341, 
			 "cosmo_polarized_energy": -18.08, 
			 "cosmo_cavitation_energy": 25.94, 
			 "cosmo_dispersion_energy": -19.92, 
			 "cosmo_repulsion_energy": 1.51, 
			 "cosmo_total_nonelectrostatic_energy": 7.53, 
			 "SMD_solvation_energy": 7.28 
		},
		"coords": [
			{
				"x": -1.39623724,
				"y": 0.7707969066,
				"z": -0.5969046153,
				"element": "O" 
			},
			{
				"x": -0.1889299088,
				"y": 0.9959133143,
				"z": -0.1270245238,
				"element": "C" 
			},
			{
				"x": 0.1240123949,
				"y": 2.0892426448,
				"z": 0.6962973655,
				"element": "C" 
			},
			{
				"x": 1.4877749758,
				"y": 2.3157443873,
				"z": 1.2086108182,
				"element": "C" 
			},
			{
				"x": 1.8761693303,
				"y": 3.2221136234,
				"z": 1.9250599126,
				"element": "O" 
			},
			{
				"x": 2.4029866371,
				"y": 1.3393622732,
				"z": 0.7876247997,
				"element": "N" 
			},
			{
				"x": 2.1502621537,
				"y": 0.2533119467,
				"z": -0.0153105451,
				"element": "C" 
			},
			{
				"x": 0.8383922837,
				"y": 0.0498913483,
				"z": -0.4982804759,
				"element": "C" 
			},
			{
				"x": 0.5625579349,
				"y": -1.0593255656,
				"z": -1.3229522127,
				"element": "C" 
			},
			{
				"x": 1.5687785524,
				"y": -1.9472887193,
				"z": -1.6604005462,
				"element": "C" 
			},
			{
				"x": 2.8723233539,
				"y": -1.7375407839,
				"z": -1.1753152687,
				"element": "C" 
			},
			{
				"x": 3.1675386139,
				"y": -0.6539388168,
				"z": -0.3629329553,
				"element": "C" 
			},
			{
				"x": -0.9102466189,
				"y": 3.0150234479,
				"z": 1.05183647,
				"element": "N" 
			},
			{
				"x": -2.0793031428,
				"y": 2.7948366192,
				"z": 0.5953308902,
				"element": "O" 
			},
			{
				"x": -0.6799652066,
				"y": 3.974825503,
				"z": 1.7627769717,
				"element": "O" 
			},
			{
				"x": -1.9585570335,
				"y": 1.5352490792,
				"z": -0.2266527489,
				"element": "H" 
			},
			{
				"x": 3.338488347,
				"y": 1.498018851,
				"z": 1.140970882,
				"element": "H" 
			},
			{
				"x": -0.4508636146,
				"y": -1.1959833847,
				"z": -1.6821935685,
				"element": "H" 
			},
			{
				"x": 1.3549965455,
				"y": -2.8004683605,
				"z": -2.2952011544,
				"element": "H" 
			},
			{
				"x": 3.6636258126,
				"y": -2.4330851573,
				"z": -1.4388196434,
				"element": "H" 
			},
			{
				"x": 4.1757958296,
				"y": -0.4966991568,
				"z": 0.0088801484,
				"element": "H" 
			}
		],
		 "valence_orbital": [ 
			{
				"type": "occ",
				"energy": -0.30396,
				"method": "rhf"
			},
			{
				"type": "occ",
				"energy": -0.30044,
				"method": "rhf"
			},
			{
				"type": "occ",
				"energy": -0.26951,
				"method": "rhf"
			},
			{
				"type": "occ",
				"energy": -0.26419,
				"method": "rhf"
			},
			{
				"type": "occ",
				"energy": -0.24452,
				"method": "rhf"
			},
			{
				"type": "unocc",
				"energy": -0.10111,
				"method": "rhf"
			},
			{
				"type": "unocc",
				"energy": -0.04903,
				"method": "rhf"
			},
			{
				"type": "unocc",
				"energy": -0.02363,
				"method": "rhf"
			},
			{
				"type": "unocc",
				"energy": -0.00065,
				"method": "rhf"
			},
			{
				"type": "unocc",
				"energy": 0.06559,
				"method": "rhf"
			}
		],
		"cosmo_sigma_profile": { 
			"-0.025": 0.0,
			"-0.024": 0.0,
			"-0.023": 0.0,
			"-0.022": 0.0,
			"-0.021": 0.0,
			"-0.02": 0.0,
			"-0.019": 0.0,
			"-0.018": 0.0,
			"-0.017": 0.0547613239084,
			"-0.016": 0.869065600236,
			"-0.015": 1.40583584504,
			"-0.014": 1.11185485808,
			"-0.013": 1.21746279309,
			"-0.012": 1.13700831773,
			"-0.011": 1.35882841058,
			"-0.01": 1.20055534409,
			"-0.009": 1.49463438683,
			"-0.008": 4.44055455908,
			"-0.007": 10.6373785622,
			"-0.006": 12.8606902846,
			"-0.005": 15.4181796289,
			"-0.004": 15.7650053306,
			"-0.003": 10.8014160841,
			"-0.002": 12.0325924941,
			"-0.001": 14.0078117234,
			"0.0": 14.3227912814,
			"0.001": 12.5367848197,
			"0.002": 13.8122781419,
			"0.003": 11.040152153,
			"0.004": 4.8007345878,
			"0.005": 4.38895819759,
			"0.006": 5.7273565557,
			"0.007": 6.02887058238,
			"0.008": 6.93788177608,
			"0.009": 5.93575927556,
			"0.01": 3.73435015445,
			"0.011": 2.2616381676,
			"0.012": 4.69663281072,
			"0.013": 3.92832488537,
			"0.014": 1.8368929261,
			"0.015": 1.2996676639,
			"0.016": 0.169198582367,
			"0.017": 0.0,
			"0.018": 0.0,
			"0.019": 0.0,
			"0.02": 0.0,
			"0.021": 0.0,
			"0.022": 0.0,
			"0.023": 0.0,
			"0.024": 0.0,
			"0.025": 0.0
		}
	}
}
