{
	 "smiles": "O=C(ON=C(CC1=CC=CC=C1)C1=CC=CC=C1)C1=CC=CC=C1", 
	 "Tm": 365.15, 
	 "num_atms": 41, 
	 "gaussian": { 
		 "optdone": 1, 
		 "sigma_profile": "yes", 
		 "theory": "DFT", 
		 "functional": "B3LYP", 
		 "basiset": "6-31G**", 
		 "properties": { 
			 "R2extent": 9960.1145, 
			 "electric_dipole_moment_norm": 4.21668954157, 
			 "electric_quadrupole_moment_norm": 16.7572047884, 
			 "total_energy": -1015.64091467, 
			 "HOMO_LUMO_gap": 0.19291, 
			 "cosmo_polarized_energy": -15.06, 
			 "cosmo_cavitation_energy": 46.96, 
			 "cosmo_dispersion_energy": -30.92, 
			 "cosmo_repulsion_energy": 2.38, 
			 "cosmo_total_nonelectrostatic_energy": 18.42, 
			 "SMD_solvation_energy": 8.11 
		},
		"coords": [
			{
				"x": 0.5810184627,
				"y": -2.6781388834,
				"z": 2.8853045642,
				"element": "O" 
			},
			{
				"x": 0.1027294052,
				"y": -1.5971524137,
				"z": 2.6428834408,
				"element": "C" 
			},
			{
				"x": -0.1502823966,
				"y": -1.1184050642,
				"z": 1.3782225777,
				"element": "O" 
			},
			{
				"x": 0.121688934,
				"y": -2.0720037005,
				"z": 0.3608123547,
				"element": "N" 
			},
			{
				"x": -0.0512855667,
				"y": -1.5704364968,
				"z": -0.8107692818,
				"element": "C" 
			},
			{
				"x": 0.2129071911,
				"y": -2.5517303178,
				"z": -1.9403792922,
				"element": "C" 
			},
			{
				"x": 1.5031579319,
				"y": -2.2388940358,
				"z": -2.6833617227,
				"element": "C" 
			},
			{
				"x": 1.4891498435,
				"y": -1.800559137,
				"z": -4.0116350541,
				"element": "C" 
			},
			{
				"x": 2.682042223,
				"y": -1.5218607015,
				"z": -4.6826529653,
				"element": "C" 
			},
			{
				"x": 3.9047093776,
				"y": -1.6763512614,
				"z": -4.0289397144,
				"element": "C" 
			},
			{
				"x": 3.928275445,
				"y": -2.1109537209,
				"z": -2.7011039438,
				"element": "C" 
			},
			{
				"x": 2.7361685728,
				"y": -2.3882817387,
				"z": -2.0331234547,
				"element": "C" 
			},
			{
				"x": -0.4249462823,
				"y": -0.1681053101,
				"z": -1.1494063694,
				"element": "C" 
			},
			{
				"x": 0.289589474,
				"y": 0.9215104576,
				"z": -0.6258451991,
				"element": "C" 
			},
			{
				"x": -0.0492309848,
				"y": 2.2250391864,
				"z": -0.9842301702,
				"element": "C" 
			},
			{
				"x": -1.1128321478,
				"y": 2.4615948775,
				"z": -1.8583626188,
				"element": "C" 
			},
			{
				"x": -1.8312472491,
				"y": 1.3854990244,
				"z": -2.3807063014,
				"element": "C" 
			},
			{
				"x": -1.4825655396,
				"y": 0.0791466755,
				"z": -2.0375419151,
				"element": "C" 
			},
			{
				"x": -0.2861931112,
				"y": -0.5846824541,
				"z": 3.6685665817,
				"element": "C" 
			},
			{
				"x": -0.8710068575,
				"y": 0.6483095675,
				"z": 3.343694067,
				"element": "C" 
			},
			{
				"x": -1.2100460011,
				"y": 1.5431925103,
				"z": 4.3577544125,
				"element": "C" 
			},
			{
				"x": -0.9697194666,
				"y": 1.2153368481,
				"z": 5.6941992924,
				"element": "C" 
			},
			{
				"x": -0.3877819793,
				"y": -0.0129298142,
				"z": 6.019822977,
				"element": "C" 
			},
			{
				"x": -0.0472998363,
				"y": -0.9103782448,
				"z": 5.0112540074,
				"element": "C" 
			},
			{
				"x": -0.6277915546,
				"y": -2.5353106599,
				"z": -2.6420664205,
				"element": "H" 
			},
			{
				"x": 0.2589976683,
				"y": -3.5528870449,
				"z": -1.5020912283,
				"element": "H" 
			},
			{
				"x": 0.53925609,
				"y": -1.678073522,
				"z": -4.5260557398,
				"element": "H" 
			},
			{
				"x": 2.6540516581,
				"y": -1.1844792639,
				"z": -5.7149921698,
				"element": "H" 
			},
			{
				"x": 4.8334676748,
				"y": -1.4612427711,
				"z": -4.5495909025,
				"element": "H" 
			},
			{
				"x": 4.8765373197,
				"y": -2.2357519395,
				"z": -2.1857885612,
				"element": "H" 
			},
			{
				"x": 2.754747928,
				"y": -2.7235077766,
				"z": -0.9991876766,
				"element": "H" 
			},
			{
				"x": 1.1146042253,
				"y": 0.7413083822,
				"z": 0.0538751584,
				"element": "H" 
			},
			{
				"x": 0.5195804823,
				"y": 3.0576168762,
				"z": -0.5805506546,
				"element": "H" 
			},
			{
				"x": -1.3777939605,
				"y": 3.4786624323,
				"z": -2.1323156706,
				"element": "H" 
			},
			{
				"x": -2.661251557,
				"y": 1.560669628,
				"z": -3.0589406136,
				"element": "H" 
			},
			{
				"x": -2.0500351877,
				"y": -0.7508644489,
				"z": -2.4480401066,
				"element": "H" 
			},
			{
				"x": -1.0572667367,
				"y": 0.8993550499,
				"z": 2.3058954813,
				"element": "H" 
			},
			{
				"x": -1.6637921585,
				"y": 2.4970589775,
				"z": 4.104953922,
				"element": "H" 
			},
			{
				"x": -1.236177635,
				"y": 1.9155752441,
				"z": 6.4809560021,
				"element": "H" 
			},
			{
				"x": -0.2009953838,
				"y": -0.2691090114,
				"z": 7.0585422468,
				"element": "H" 
			},
			{
				"x": 0.4043616852,
				"y": -1.8702860046,
				"z": 5.2375406611,
				"element": "H" 
			}
		],
		 "valence_orbital": [ 
			{
				"type": "occ",
				"energy": -0.25842,
				"method": "rhf"
			},
			{
				"type": "occ",
				"energy": -0.25609,
				"method": "rhf"
			},
			{
				"type": "occ",
				"energy": -0.25079,
				"method": "rhf"
			},
			{
				"type": "occ",
				"energy": -0.24735,
				"method": "rhf"
			},
			{
				"type": "occ",
				"energy": -0.24193,
				"method": "rhf"
			},
			{
				"type": "unocc",
				"energy": -0.04902,
				"method": "rhf"
			},
			{
				"type": "unocc",
				"energy": -0.03342,
				"method": "rhf"
			},
			{
				"type": "unocc",
				"energy": -0.01263,
				"method": "rhf"
			},
			{
				"type": "unocc",
				"energy": -0.00566,
				"method": "rhf"
			},
			{
				"type": "unocc",
				"energy": -0.00317,
				"method": "rhf"
			}
		],
		"cosmo_sigma_profile": { 
			"-0.025": 0.0,
			"-0.024": 0.0,
			"-0.023": 0.0,
			"-0.022": 0.0,
			"-0.021": 0.0,
			"-0.02": 0.0,
			"-0.019": 0.0,
			"-0.018": 0.0,
			"-0.017": 0.0,
			"-0.016": 0.0,
			"-0.015": 0.0,
			"-0.014": 0.0,
			"-0.013": 0.0,
			"-0.012": 0.0,
			"-0.011": 0.0,
			"-0.01": 0.0,
			"-0.009": 0.047881967048,
			"-0.008": 1.36467954421,
			"-0.007": 5.74305335229,
			"-0.006": 22.4714159769,
			"-0.005": 33.4566118442,
			"-0.004": 35.1787271144,
			"-0.003": 29.7078184237,
			"-0.002": 28.7852596014,
			"-0.001": 25.6408000791,
			"0.0": 27.9545573982,
			"0.001": 29.49982366,
			"0.002": 28.9506966218,
			"0.003": 29.2411813952,
			"0.004": 33.6816302164,
			"0.005": 15.6961077772,
			"0.006": 9.00722339076,
			"0.007": 2.11448878133,
			"0.008": 1.69719287636,
			"0.009": 1.60468464545,
			"0.01": 2.65068920881,
			"0.011": 4.22252163022,
			"0.012": 3.00125687559,
			"0.013": 1.89333952048,
			"0.014": 0.648523776514,
			"0.015": 1.39996960274,
			"0.016": 0.655648141597,
			"0.017": 0.507945007103,
			"0.018": 0.0117453669528,
			"0.019": 0.0,
			"0.02": 0.0,
			"0.021": 0.0,
			"0.022": 0.0,
			"0.023": 0.0,
			"0.024": 0.0,
			"0.025": 0.0
		}
	}
}
