{
	 "smiles": "CN1C=NC(=C1Br)[N+]([O-])=O", 
	 "Tm": 451.15, 
	 "num_atms": 14, 
	 "gaussian": { 
		 "optdone": 1, 
		 "sigma_profile": "yes", 
		 "theory": "DFT", 
		 "functional": "B3LYP", 
		 "basiset": "6-31G**", 
		 "properties": { 
			 "R2extent": 1902.0923, 
			 "electric_dipole_moment_norm": 7.79493916974, 
			 "electric_quadrupole_moment_norm": 11.3257688008, 
			 "total_energy": -3040.81728425, 
			 "HOMO_LUMO_gap": 0.18308, 
			 "cosmo_polarized_energy": -17.45, 
			 "cosmo_cavitation_energy": 21.59, 
			 "cosmo_dispersion_energy": -16.29, 
			 "cosmo_repulsion_energy": 1.31, 
			 "cosmo_total_nonelectrostatic_energy": 6.62, 
			 "SMD_solvation_energy": 4.19 
		},
		"coords": [
			{
				"x": 1.8143775318,
				"y": 1.0769698658,
				"z": -1.9654284758,
				"element": "C" 
			},
			{
				"x": 0.513445285,
				"y": 1.041145575,
				"z": -1.310012594,
				"element": "N" 
			},
			{
				"x": -0.5538943441,
				"y": 1.8704315546,
				"z": -1.5574826678,
				"element": "C" 
			},
			{
				"x": -1.5929998649,
				"y": 1.5922493886,
				"z": -0.8088530929,
				"element": "N" 
			},
			{
				"x": -1.1980073788,
				"y": 0.54178775,
				"z": -0.0392945493,
				"element": "C" 
			},
			{
				"x": 0.1057559892,
				"y": 0.1729726105,
				"z": -0.324813472,
				"element": "C" 
			},
			{
				"x": 1.2446152456,
				"y": -1.1456540457,
				"z": 0.3344958084,
				"element": "Br" 
			},
			{
				"x": -2.0867782199,
				"y": -0.0556285569,
				"z": 0.9293576728,
				"element": "N" 
			},
			{
				"x": -1.6374005388,
				"y": -1.0046319082,
				"z": 1.5800645593,
				"element": "O" 
			},
			{
				"x": -3.2133833556,
				"y": 0.4153612669,
				"z": 1.0375882284,
				"element": "O" 
			},
			{
				"x": 1.8069904125,
				"y": 1.8907858901,
				"z": -2.6915076757,
				"element": "H" 
			},
			{
				"x": 2.6061645686,
				"y": 1.252719176,
				"z": -1.2336629723,
				"element": "H" 
			},
			{
				"x": 2.0089487644,
				"y": 0.1338880665,
				"z": -2.4814083993,
				"element": "H" 
			},
			{
				"x": -0.5005340949,
				"y": 2.6561033668,
				"z": -2.2988423698,
				"element": "H" 
			}
		],
		 "valence_orbital": [ 
			{
				"type": "occ",
				"energy": -0.30877,
				"method": "rhf"
			},
			{
				"type": "occ",
				"energy": -0.29713,
				"method": "rhf"
			},
			{
				"type": "occ",
				"energy": -0.29421,
				"method": "rhf"
			},
			{
				"type": "occ",
				"energy": -0.27705,
				"method": "rhf"
			},
			{
				"type": "occ",
				"energy": -0.25776,
				"method": "rhf"
			},
			{
				"type": "unocc",
				"energy": -0.07468,
				"method": "rhf"
			},
			{
				"type": "unocc",
				"energy": -0.01439,
				"method": "rhf"
			},
			{
				"type": "unocc",
				"energy": -0.00773,
				"method": "rhf"
			},
			{
				"type": "unocc",
				"energy": 0.05911,
				"method": "rhf"
			},
			{
				"type": "unocc",
				"energy": 0.07082,
				"method": "rhf"
			}
		],
		"cosmo_sigma_profile": { 
			"-0.025": 0.0,
			"-0.024": 0.0,
			"-0.023": 0.0,
			"-0.022": 0.0,
			"-0.021": 0.0,
			"-0.02": 0.0,
			"-0.019": 0.0,
			"-0.018": 0.0,
			"-0.017": 0.0,
			"-0.016": 0.0,
			"-0.015": 0.0,
			"-0.014": 0.0,
			"-0.013": 0.0,
			"-0.012": 0.544447381511,
			"-0.011": 2.96410523528,
			"-0.01": 2.61226923537,
			"-0.009": 3.22524587283,
			"-0.008": 4.27597742433,
			"-0.007": 9.84036093376,
			"-0.006": 11.593490391,
			"-0.005": 14.5390921853,
			"-0.004": 14.5732067898,
			"-0.003": 11.5612798104,
			"-0.002": 10.257810552,
			"-0.001": 8.98666267581,
			"0.0": 8.68220592419,
			"0.001": 8.74884522072,
			"0.002": 8.19518187419,
			"0.003": 5.21203468444,
			"0.004": 3.11288449682,
			"0.005": 5.02999202785,
			"0.006": 3.77812382976,
			"0.007": 6.61893588436,
			"0.008": 11.4919095735,
			"0.009": 7.48293474604,
			"0.01": 5.58414863514,
			"0.011": 1.82320236518,
			"0.012": 1.46936399451,
			"0.013": 1.54477199516,
			"0.014": 1.40546038193,
			"0.015": 1.26195698512,
			"0.016": 0.236353888861,
			"0.017": 0.0,
			"0.018": 0.0,
			"0.019": 0.0,
			"0.02": 0.0,
			"0.021": 0.0,
			"0.022": 0.0,
			"0.023": 0.0,
			"0.024": 0.0,
			"0.025": 0.0
		}
	}
}
