{
	 "smiles": "NC(=O)C1=C(C=CC2=CC=CC=C2)C=CN=C1", 
	 "Tm": 473.15, 
	 "num_atms": 29, 
	 "gaussian": { 
		 "optdone": 1, 
		 "sigma_profile": "yes", 
		 "theory": "DFT", 
		 "functional": "B3LYP", 
		 "basiset": "6-31G**", 
		 "properties": { 
			 "R2extent": 5636.4095, 
			 "electric_dipole_moment_norm": 2.54952155904, 
			 "electric_quadrupole_moment_norm": 16.4466105791, 
			 "total_energy": -725.452495748, 
			 "HOMO_LUMO_gap": 0.15036, 
			 "cosmo_polarized_energy": -15.86, 
			 "cosmo_cavitation_energy": 33.8, 
			 "cosmo_dispersion_energy": -24.46, 
			 "cosmo_repulsion_energy": 1.87, 
			 "cosmo_total_nonelectrostatic_energy": 11.21, 
			 "SMD_solvation_energy": 4.92 
		},
		"coords": [
			{
				"x": 0.6560551326,
				"y": -0.0860328951,
				"z": 4.2343786659,
				"element": "N" 
			},
			{
				"x": 0.2311183446,
				"y": -0.4762732611,
				"z": 2.9894494916,
				"element": "C" 
			},
			{
				"x": 0.4524585341,
				"y": -1.6064324135,
				"z": 2.5663574911,
				"element": "O" 
			},
			{
				"x": -0.5523021538,
				"y": 0.5620099272,
				"z": 2.2318587968,
				"element": "C" 
			},
			{
				"x": -0.4840138761,
				"y": 0.6933016864,
				"z": 0.8194229146,
				"element": "C" 
			},
			{
				"x": 0.3771183075,
				"y": -0.1605995576,
				"z": -0.0064305431,
				"element": "C" 
			},
			{
				"x": 0.8213974337,
				"y": 0.1677224648,
				"z": -1.2377833036,
				"element": "C" 
			},
			{
				"x": 1.6727956471,
				"y": -0.6489058828,
				"z": -2.1070758004,
				"element": "C" 
			},
			{
				"x": 2.1099981183,
				"y": -0.1054015153,
				"z": -3.3294618612,
				"element": "C" 
			},
			{
				"x": 2.9223478992,
				"y": -0.8351949311,
				"z": -4.1951792211,
				"element": "C" 
			},
			{
				"x": 3.3157014605,
				"y": -2.1304679109,
				"z": -3.8566737747,
				"element": "C" 
			},
			{
				"x": 2.88808642,
				"y": -2.6874699242,
				"z": -2.6466960865,
				"element": "C" 
			},
			{
				"x": 2.0769405646,
				"y": -1.959586991,
				"z": -1.7825053477,
				"element": "C" 
			},
			{
				"x": -1.2897643621,
				"y": 1.6992177305,
				"z": 0.2550891295,
				"element": "C" 
			},
			{
				"x": -2.0858606708,
				"y": 2.5013776401,
				"z": 1.0631166055,
				"element": "C" 
			},
			{
				"x": -2.1649103694,
				"y": 2.3741531671,
				"z": 2.3953392524,
				"element": "N" 
			},
			{
				"x": -1.4086607461,
				"y": 1.4184223664,
				"z": 2.9407170405,
				"element": "C" 
			},
			{
				"x": 0.7155907348,
				"y": 0.887715135,
				"z": 4.4859676675,
				"element": "H" 
			},
			{
				"x": 1.2402649068,
				"y": -0.7420638732,
				"z": 4.7321372218,
				"element": "H" 
			},
			{
				"x": 0.6690939044,
				"y": -1.0969876384,
				"z": 0.4526822597,
				"element": "H" 
			},
			{
				"x": 0.559102501,
				"y": 1.1403845548,
				"z": -1.6523706025,
				"element": "H" 
			},
			{
				"x": 1.806269034,
				"y": 0.9036438679,
				"z": -3.5975376589,
				"element": "H" 
			},
			{
				"x": 3.246999979,
				"y": -0.393085707,
				"z": -5.1327750405,
				"element": "H" 
			},
			{
				"x": 3.9480249991,
				"y": -2.7037009687,
				"z": -4.5283666671,
				"element": "H" 
			},
			{
				"x": 3.1877878581,
				"y": -3.6964801154,
				"z": -2.3781655749,
				"element": "H" 
			},
			{
				"x": 1.7514594168,
				"y": -2.4117419616,
				"z": -0.8510985639,
				"element": "H" 
			},
			{
				"x": -1.3150515975,
				"y": 1.8376275154,
				"z": -0.8202888646,
				"element": "H" 
			},
			{
				"x": -2.7045285816,
				"y": 3.2788091847,
				"z": 0.6180040135,
				"element": "H" 
			},
			{
				"x": -1.5044188385,
				"y": 1.3001403065,
				"z": 4.0186883603,
				"element": "H" 
			}
		],
		 "valence_orbital": [ 
			{
				"type": "occ",
				"energy": -0.27092,
				"method": "rhf"
			},
			{
				"type": "occ",
				"energy": -0.26418,
				"method": "rhf"
			},
			{
				"type": "occ",
				"energy": -0.25416,
				"method": "rhf"
			},
			{
				"type": "occ",
				"energy": -0.2486,
				"method": "rhf"
			},
			{
				"type": "occ",
				"energy": -0.2185,
				"method": "rhf"
			},
			{
				"type": "unocc",
				"energy": -0.06814,
				"method": "rhf"
			},
			{
				"type": "unocc",
				"energy": -0.03434,
				"method": "rhf"
			},
			{
				"type": "unocc",
				"energy": -0.00472,
				"method": "rhf"
			},
			{
				"type": "unocc",
				"energy": -0.00016,
				"method": "rhf"
			},
			{
				"type": "unocc",
				"energy": 0.04216,
				"method": "rhf"
			}
		],
		"cosmo_sigma_profile": { 
			"-0.025": 0.0,
			"-0.024": 0.0,
			"-0.023": 0.0,
			"-0.022": 0.0,
			"-0.021": 0.0,
			"-0.02": 0.0,
			"-0.019": 0.0,
			"-0.018": 0.0,
			"-0.017": 0.0,
			"-0.016": 0.0,
			"-0.015": 0.256219188185,
			"-0.014": 1.80455941769,
			"-0.013": 2.29804357923,
			"-0.012": 2.28765957262,
			"-0.011": 2.68845225521,
			"-0.01": 2.57495779766,
			"-0.009": 2.53390200006,
			"-0.008": 2.84535491942,
			"-0.007": 7.65564592001,
			"-0.006": 16.2144153773,
			"-0.005": 18.5131955777,
			"-0.004": 19.125607248,
			"-0.003": 15.7107086126,
			"-0.002": 15.1821355786,
			"-0.001": 13.5017957433,
			"0.0": 17.1410233123,
			"0.001": 23.0166545951,
			"0.002": 25.6598912159,
			"0.003": 17.6984817348,
			"0.004": 19.3070972679,
			"0.005": 14.3114466615,
			"0.006": 4.86347552281,
			"0.007": 3.75641925973,
			"0.008": 2.82579300805,
			"0.009": 2.19827879385,
			"0.01": 2.05241728995,
			"0.011": 2.39550141011,
			"0.012": 3.48184447685,
			"0.013": 4.80712082109,
			"0.014": 2.93622823698,
			"0.015": 0.763006837913,
			"0.016": 0.71571972238,
			"0.017": 0.197132837218,
			"0.018": 0.0,
			"0.019": 0.0,
			"0.02": 0.0,
			"0.021": 0.0,
			"0.022": 0.0,
			"0.023": 0.0,
			"0.024": 0.0,
			"0.025": 0.0
		}
	}
}
