{
	 "smiles": "CN(C)C(=O)CC(O)=O", 
	 "Tm": 344.15, 
	 "num_atms": 18, 
	 "gaussian": { 
		 "optdone": 1, 
		 "sigma_profile": "yes", 
		 "theory": "DFT", 
		 "functional": "B3LYP", 
		 "basiset": "6-31G**", 
		 "properties": { 
			 "R2extent": 2478.9338, 
			 "electric_dipole_moment_norm": 7.40283364125, 
			 "electric_quadrupole_moment_norm": 21.1119399909, 
			 "total_energy": -476.405760927, 
			 "HOMO_LUMO_gap": 0.24936, 
			 "cosmo_polarized_energy": -16.4, 
			 "cosmo_cavitation_energy": 21.36, 
			 "cosmo_dispersion_energy": -16.03, 
			 "cosmo_repulsion_energy": 1.32, 
			 "cosmo_total_nonelectrostatic_energy": 6.66, 
			 "SMD_solvation_energy": 5.76 
		},
		"coords": [
			{
				"x": -1.0050999494,
				"y": -0.7604496088,
				"z": -1.4240400312,
				"element": "C" 
			},
			{
				"x": -1.0414906576,
				"y": 0.5330003738,
				"z": -0.7555821648,
				"element": "N" 
			},
			{
				"x": -0.4849755688,
				"y": 1.6438768107,
				"z": -1.5235995395,
				"element": "C" 
			},
			{
				"x": -1.5405595146,
				"y": 0.7631423532,
				"z": 0.4872839394,
				"element": "C" 
			},
			{
				"x": -1.5294714868,
				"y": 1.9060116212,
				"z": 0.9781476,
				"element": "O" 
			},
			{
				"x": -2.1156298074,
				"y": -0.4173192192,
				"z": 1.2667587145,
				"element": "C" 
			},
			{
				"x": -2.6812618764,
				"y": -0.1468775898,
				"z": 2.6805658415,
				"element": "C" 
			},
			{
				"x": -2.6345476905,
				"y": 1.0998440487,
				"z": 3.136928542,
				"element": "O" 
			},
			{
				"x": -3.1404570896,
				"y": -1.071112325,
				"z": 3.3116817137,
				"element": "O" 
			},
			{
				"x": -1.4322826069,
				"y": -1.5454440647,
				"z": -0.8047711194,
				"element": "H" 
			},
			{
				"x": -1.5694757138,
				"y": -0.7165721956,
				"z": -2.3634497749,
				"element": "H" 
			},
			{
				"x": 0.029958528,
				"y": -1.033907014,
				"z": -1.6623924029,
				"element": "H" 
			},
			{
				"x": 0.5666588414,
				"y": 1.4472346125,
				"z": -1.7623670917,
				"element": "H" 
			},
			{
				"x": -0.5611525218,
				"y": 2.5540191541,
				"z": -0.9330077871,
				"element": "H" 
			},
			{
				"x": -1.0374830966,
				"y": 1.7672536498,
				"z": -2.4623066207,
				"element": "H" 
			},
			{
				"x": -2.9298341272,
				"y": -0.8839888833,
				"z": 0.7026517627,
				"element": "H" 
			},
			{
				"x": -1.3557097898,
				"y": -1.1956149411,
				"z": 1.3920822207,
				"element": "H" 
			},
			{
				"x": -2.2134858722,
				"y": 1.6664032174,
				"z": 2.4316161977,
				"element": "H" 
			}
		],
		 "valence_orbital": [ 
			{
				"type": "occ",
				"energy": -0.3525,
				"method": "rhf"
			},
			{
				"type": "occ",
				"energy": -0.29056,
				"method": "rhf"
			},
			{
				"type": "occ",
				"energy": -0.28819,
				"method": "rhf"
			},
			{
				"type": "occ",
				"energy": -0.2717,
				"method": "rhf"
			},
			{
				"type": "occ",
				"energy": -0.25608,
				"method": "rhf"
			},
			{
				"type": "unocc",
				"energy": -0.00672,
				"method": "rhf"
			},
			{
				"type": "unocc",
				"energy": 0.02664,
				"method": "rhf"
			},
			{
				"type": "unocc",
				"energy": 0.06324,
				"method": "rhf"
			},
			{
				"type": "unocc",
				"energy": 0.09374,
				"method": "rhf"
			},
			{
				"type": "unocc",
				"energy": 0.11758,
				"method": "rhf"
			}
		],
		"cosmo_sigma_profile": { 
			"-0.025": 0.0,
			"-0.024": 0.0,
			"-0.023": 0.0,
			"-0.022": 0.0,
			"-0.021": 0.0,
			"-0.02": 0.0,
			"-0.019": 0.0,
			"-0.018": 0.0,
			"-0.017": 0.0,
			"-0.016": 0.0,
			"-0.015": 0.0,
			"-0.014": 0.0,
			"-0.013": 0.0,
			"-0.012": 0.0,
			"-0.011": 0.0,
			"-0.01": 0.0,
			"-0.009": 3.61241932961,
			"-0.008": 8.54770967903,
			"-0.007": 6.55735138291,
			"-0.006": 9.73998982466,
			"-0.005": 18.5323927744,
			"-0.004": 15.0056985416,
			"-0.003": 20.4180684054,
			"-0.002": 15.8953049894,
			"-0.001": 7.4064477968,
			"0.0": 5.55881909383,
			"0.001": 3.90572419937,
			"0.002": 3.38859999843,
			"0.003": 3.14306768518,
			"0.004": 3.52018371252,
			"0.005": 3.17323556931,
			"0.006": 3.50937892481,
			"0.007": 3.59243506982,
			"0.008": 3.5017843322,
			"0.009": 4.40901636538,
			"0.01": 4.83231879368,
			"0.011": 7.60542535656,
			"0.012": 6.34335542577,
			"0.013": 4.89298545479,
			"0.014": 1.42040425149,
			"0.015": 0.0,
			"0.016": 0.0,
			"0.017": 0.0,
			"0.018": 0.0,
			"0.019": 0.0,
			"0.02": 0.0,
			"0.021": 0.0,
			"0.022": 0.0,
			"0.023": 0.0,
			"0.024": 0.0,
			"0.025": 0.0
		}
	}
}
