{
	 "smiles": "OC(=O)C1CCN(CC1)S(=O)(=O)C1=CC2=C(CCC2)C=C1", 
	 "Tm": 444.15, 
	 "num_atms": 40, 
	 "gaussian": { 
		 "optdone": 1, 
		 "sigma_profile": "yes", 
		 "theory": "DFT", 
		 "functional": "B3LYP", 
		 "basiset": "6-31G**", 
		 "properties": { 
			 "R2extent": 8925.769, 
			 "electric_dipole_moment_norm": 10.2799087117, 
			 "electric_quadrupole_moment_norm": 25.3541308794, 
			 "total_energy": -1336.83518175, 
			 "HOMO_LUMO_gap": 0.20126, 
			 "cosmo_polarized_energy": -22.72, 
			 "cosmo_cavitation_energy": 41.43, 
			 "cosmo_dispersion_energy": -29.72, 
			 "cosmo_repulsion_energy": 2.23, 
			 "cosmo_total_nonelectrostatic_energy": 13.94, 
			 "SMD_solvation_energy": 5.98 
		},
		"coords": [
			{
				"x": 0.2221325815,
				"y": -0.1368459807,
				"z": -4.6063499955,
				"element": "O" 
			},
			{
				"x": -0.6765874837,
				"y": 0.8674658226,
				"z": -4.6215297855,
				"element": "C" 
			},
			{
				"x": -0.6286811693,
				"y": 1.734221998,
				"z": -5.4637997408,
				"element": "O" 
			},
			{
				"x": -1.7477025078,
				"y": 0.8651690534,
				"z": -3.517561378,
				"element": "C" 
			},
			{
				"x": -2.4514541849,
				"y": -0.5103264134,
				"z": -3.3293657847,
				"element": "C" 
			},
			{
				"x": -1.9101393678,
				"y": -1.2920195617,
				"z": -2.1158221793,
				"element": "C" 
			},
			{
				"x": -0.4615185497,
				"y": -1.0235105517,
				"z": -1.9959095332,
				"element": "N" 
			},
			{
				"x": -0.1441061152,
				"y": 0.3646737583,
				"z": -1.5636308156,
				"element": "C" 
			},
			{
				"x": -1.1709715541,
				"y": 1.3458222535,
				"z": -2.1669827736,
				"element": "C" 
			},
			{
				"x": 0.4982779192,
				"y": -2.2491455803,
				"z": -1.2770069299,
				"element": "S" 
			},
			{
				"x": 0.0529879702,
				"y": -3.5026763504,
				"z": -1.8876444197,
				"element": "O" 
			},
			{
				"x": 1.8744626047,
				"y": -1.7658744851,
				"z": -1.3908396065,
				"element": "O" 
			},
			{
				"x": 0.0635269922,
				"y": -2.2866799899,
				"z": 0.4621595341,
				"element": "C" 
			},
			{
				"x": 0.8091795256,
				"y": -1.5188310056,
				"z": 1.3662494205,
				"element": "C" 
			},
			{
				"x": 0.4514802633,
				"y": -1.5546463865,
				"z": 2.7110366538,
				"element": "C" 
			},
			{
				"x": -0.6301963843,
				"y": -2.3405382059,
				"z": 3.1406429356,
				"element": "C" 
			},
			{
				"x": -0.8188907411,
				"y": -2.2030085268,
				"z": 4.6359269632,
				"element": "C" 
			},
			{
				"x": 0.5296585501,
				"y": -1.6024527153,
				"z": 5.1087019774,
				"element": "C" 
			},
			{
				"x": 1.0794396117,
				"y": -0.8291834013,
				"z": 3.8828131991,
				"element": "C" 
			},
			{
				"x": -1.359836327,
				"y": -3.105456348,
				"z": 2.2309413417,
				"element": "C" 
			},
			{
				"x": -1.0092488162,
				"y": -3.0827523766,
				"z": 0.8793744646,
				"element": "C" 
			},
			{
				"x": 0.0902245744,
				"y": -0.7040914065,
				"z": -3.8149720208,
				"element": "H" 
			},
			{
				"x": -2.4754701598,
				"y": 1.6047099631,
				"z": -3.8574608994,
				"element": "H" 
			},
			{
				"x": -2.3359185893,
				"y": -1.1156916503,
				"z": -4.2336714444,
				"element": "H" 
			},
			{
				"x": -3.5261980507,
				"y": -0.3545069704,
				"z": -3.1899535448,
				"element": "H" 
			},
			{
				"x": -2.0470079903,
				"y": -2.3637562557,
				"z": -2.2616381307,
				"element": "H" 
			},
			{
				"x": -2.4307161796,
				"y": -1.002946609,
				"z": -1.1912508558,
				"element": "H" 
			},
			{
				"x": 0.8671823423,
				"y": 0.5864849228,
				"z": -1.9081370738,
				"element": "H" 
			},
			{
				"x": -0.157170183,
				"y": 0.4479776263,
				"z": -0.4679592804,
				"element": "H" 
			},
			{
				"x": -2.0090717601,
				"y": 1.4757003146,
				"z": -1.473039974,
				"element": "H" 
			},
			{
				"x": -0.7022104324,
				"y": 2.3279374046,
				"z": -2.2795540601,
				"element": "H" 
			},
			{
				"x": 1.6621783596,
				"y": -0.947937698,
				"z": 1.0143336758,
				"element": "H" 
			},
			{
				"x": -1.0618366042,
				"y": -3.1504762595,
				"z": 5.1275184474,
				"element": "H" 
			},
			{
				"x": -1.6509859284,
				"y": -1.5156784214,
				"z": 4.8450837322,
				"element": "H" 
			},
			{
				"x": 0.4266732565,
				"y": -0.9735411333,
				"z": 5.9967168563,
				"element": "H" 
			},
			{
				"x": 1.2182079822,
				"y": -2.4164022066,
				"z": 5.3600774965,
				"element": "H" 
			},
			{
				"x": 2.1731133157,
				"y": -0.8139703824,
				"z": 3.8427173371,
				"element": "H" 
			},
			{
				"x": 0.7479321219,
				"y": 0.2186380111,
				"z": 3.8979215748,
				"element": "H" 
			},
			{
				"x": -2.1826359557,
				"y": -3.7313591641,
				"z": 2.5652727676,
				"element": "H" 
			},
			{
				"x": -1.5328029364,
				"y": -3.700595092,
				"z": 0.158391849,
				"element": "H" 
			}
		],
		 "valence_orbital": [ 
			{
				"type": "occ",
				"energy": -0.29514,
				"method": "rhf"
			},
			{
				"type": "occ",
				"energy": -0.28439,
				"method": "rhf"
			},
			{
				"type": "occ",
				"energy": -0.27581,
				"method": "rhf"
			},
			{
				"type": "occ",
				"energy": -0.26282,
				"method": "rhf"
			},
			{
				"type": "occ",
				"energy": -0.2487,
				"method": "rhf"
			},
			{
				"type": "unocc",
				"energy": -0.04744,
				"method": "rhf"
			},
			{
				"type": "unocc",
				"energy": -0.03184,
				"method": "rhf"
			},
			{
				"type": "unocc",
				"energy": 0.021,
				"method": "rhf"
			},
			{
				"type": "unocc",
				"energy": 0.04453,
				"method": "rhf"
			},
			{
				"type": "unocc",
				"energy": 0.06874,
				"method": "rhf"
			}
		],
		"cosmo_sigma_profile": { 
			"-0.025": 0.0,
			"-0.024": 0.0,
			"-0.023": 0.0,
			"-0.022": 0.0,
			"-0.021": 0.0,
			"-0.02": 0.0,
			"-0.019": 0.0,
			"-0.018": 0.0,
			"-0.017": 0.0,
			"-0.016": 0.0,
			"-0.015": 0.0,
			"-0.014": 0.0,
			"-0.013": 0.0,
			"-0.012": 0.0,
			"-0.011": 0.0,
			"-0.01": 0.0,
			"-0.009": 6.82564218559e-05,
			"-0.008": 0.725886324683,
			"-0.007": 4.06127592632,
			"-0.006": 16.2627134685,
			"-0.005": 38.8439925489,
			"-0.004": 39.1749461776,
			"-0.003": 40.2737190378,
			"-0.002": 34.8424245614,
			"-0.001": 24.9386656721,
			"0.0": 18.9713490964,
			"0.001": 13.4786773229,
			"0.002": 12.5530305018,
			"0.003": 12.6567878326,
			"0.004": 6.94019557696,
			"0.005": 4.71950222157,
			"0.006": 3.46768289083,
			"0.007": 4.88183251281,
			"0.008": 6.79228755211,
			"0.009": 5.90354313156,
			"0.01": 10.4378020085,
			"0.011": 12.7785588535,
			"0.012": 7.28566403246,
			"0.013": 4.71499680559,
			"0.014": 0.996373938565,
			"0.015": 0.0,
			"0.016": 0.0,
			"0.017": 0.0,
			"0.018": 0.0,
			"0.019": 0.0,
			"0.02": 0.0,
			"0.021": 0.0,
			"0.022": 0.0,
			"0.023": 0.0,
			"0.024": 0.0,
			"0.025": 0.0
		}
	}
}
