{
	 "smiles": "OC1=NC(F)=CC=C1", 
	 "Tm": 400.15, 
	 "num_atms": 12, 
	 "gaussian": { 
		 "optdone": 1, 
		 "sigma_profile": "yes", 
		 "theory": "DFT", 
		 "functional": "B3LYP", 
		 "basiset": "6-31G**", 
		 "properties": { 
			 "R2extent": 921.6391, 
			 "electric_dipole_moment_norm": 1.57759374999, 
			 "electric_quadrupole_moment_norm": 5.79805124158, 
			 "total_energy": -422.759195056, 
			 "HOMO_LUMO_gap": 0.21337, 
			 "cosmo_polarized_energy": -6.83, 
			 "cosmo_cavitation_energy": 16.94, 
			 "cosmo_dispersion_energy": -12.81, 
			 "cosmo_repulsion_energy": 1.05, 
			 "cosmo_total_nonelectrostatic_energy": 5.17, 
			 "SMD_solvation_energy": 2.61 
		},
		"coords": [
			{
				"x": -1.2357873613,
				"y": -2.7095789204,
				"z": -0.3763443263,
				"element": "O" 
			},
			{
				"x": -0.527778713,
				"y": -1.562772773,
				"z": -0.3056543695,
				"element": "C" 
			},
			{
				"x": -1.141738394,
				"y": -0.4427272532,
				"z": -0.6921070725,
				"element": "N" 
			},
			{
				"x": -0.4456643806,
				"y": 0.6768336525,
				"z": -0.6213760576,
				"element": "C" 
			},
			{
				"x": -1.0885328837,
				"y": 1.7853237516,
				"z": -1.016163701,
				"element": "F" 
			},
			{
				"x": 0.8678197029,
				"y": 0.7862640917,
				"z": -0.1799003565,
				"element": "C" 
			},
			{
				"x": 1.4857657574,
				"y": -0.4021278982,
				"z": 0.2184468319,
				"element": "C" 
			},
			{
				"x": 0.7922456769,
				"y": -1.6063243908,
				"z": 0.1616369023,
				"element": "C" 
			},
			{
				"x": -2.111547575,
				"y": -2.4710463829,
				"z": -0.7185825534,
				"element": "H" 
			},
			{
				"x": 1.3646713084,
				"y": 1.7476547882,
				"z": -0.1543767982,
				"element": "H" 
			},
			{
				"x": 2.5117489236,
				"y": -0.3845399271,
				"z": 0.5737272614,
				"element": "H" 
			},
			{
				"x": 1.2324979384,
				"y": -2.5494587384,
				"z": 0.4602942393,
				"element": "H" 
			}
		],
		 "valence_orbital": [ 
			{
				"type": "occ",
				"energy": -0.3833,
				"method": "rhf"
			},
			{
				"type": "occ",
				"energy": -0.34644,
				"method": "rhf"
			},
			{
				"type": "occ",
				"energy": -0.29571,
				"method": "rhf"
			},
			{
				"type": "occ",
				"energy": -0.29353,
				"method": "rhf"
			},
			{
				"type": "occ",
				"energy": -0.23891,
				"method": "rhf"
			},
			{
				"type": "unocc",
				"energy": -0.02554,
				"method": "rhf"
			},
			{
				"type": "unocc",
				"energy": -0.00056,
				"method": "rhf"
			},
			{
				"type": "unocc",
				"energy": 0.08441,
				"method": "rhf"
			},
			{
				"type": "unocc",
				"energy": 0.09464,
				"method": "rhf"
			},
			{
				"type": "unocc",
				"energy": 0.14739,
				"method": "rhf"
			}
		],
		"cosmo_sigma_profile": { 
			"-0.025": 0.0,
			"-0.024": 0.0,
			"-0.023": 0.0,
			"-0.022": 0.0,
			"-0.021": 0.0,
			"-0.02": 0.0,
			"-0.019": 0.0,
			"-0.018": 0.283033854472,
			"-0.017": 0.734473506374,
			"-0.016": 0.526775990913,
			"-0.015": 1.29124795011,
			"-0.014": 0.678767056559,
			"-0.013": 0.0767093545692,
			"-0.012": 0.291582597115,
			"-0.011": 0.840193917821,
			"-0.01": 0.756757716089,
			"-0.009": 0.442828194875,
			"-0.008": 2.41462517588,
			"-0.007": 7.39622444303,
			"-0.006": 6.75597515321,
			"-0.005": 6.79802473125,
			"-0.004": 5.29287446413,
			"-0.003": 4.20409965547,
			"-0.002": 5.09278195809,
			"-0.001": 9.13149062661,
			"0.0": 14.5725685166,
			"0.001": 12.3047617284,
			"0.002": 12.0029132396,
			"0.003": 13.5074422284,
			"0.004": 10.0859998981,
			"0.005": 4.24483469302,
			"0.006": 3.15437475614,
			"0.007": 2.97641800228,
			"0.008": 2.52960204888,
			"0.009": 2.94967967977,
			"0.01": 2.67461532134,
			"0.011": 1.26177906561,
			"0.012": 0.752249735307,
			"0.013": 0.195859809894,
			"0.014": 0.0,
			"0.015": 0.0,
			"0.016": 0.0,
			"0.017": 0.0,
			"0.018": 0.0,
			"0.019": 0.0,
			"0.02": 0.0,
			"0.021": 0.0,
			"0.022": 0.0,
			"0.023": 0.0,
			"0.024": 0.0,
			"0.025": 0.0
		}
	}
}
