{
	 "smiles": "OC(=O)C1=CN(CC2=C(Cl)C=CC=C2)C(=O)C=C1", 
	 "Tm": 456.15, 
	 "num_atms": 28, 
	 "gaussian": { 
		 "optdone": 1, 
		 "sigma_profile": "yes", 
		 "theory": "DFT", 
		 "functional": "B3LYP", 
		 "basiset": "6-31G**", 
		 "properties": { 
			 "R2extent": 6190.0371, 
			 "electric_dipole_moment_norm": 5.85757383991, 
			 "electric_quadrupole_moment_norm": 27.903186975, 
			 "total_energy": -1242.0365178, 
			 "HOMO_LUMO_gap": 0.17577, 
			 "cosmo_polarized_energy": -22.78, 
			 "cosmo_cavitation_energy": 34.73, 
			 "cosmo_dispersion_energy": -24.0, 
			 "cosmo_repulsion_energy": 1.85, 
			 "cosmo_total_nonelectrostatic_energy": 12.58, 
			 "SMD_solvation_energy": 7.52 
		},
		"coords": [
			{
				"x": -3.1492013089,
				"y": 1.877749634,
				"z": -2.4674543099,
				"element": "O" 
			},
			{
				"x": -3.3583742786,
				"y": 0.5301684951,
				"z": -2.5325025514,
				"element": "C" 
			},
			{
				"x": -4.3067751617,
				"y": 0.0997233835,
				"z": -3.1468165836,
				"element": "O" 
			},
			{
				"x": -2.3895621963,
				"y": -0.3453479234,
				"z": -1.8224912598,
				"element": "C" 
			},
			{
				"x": -1.5663208446,
				"y": 0.1007978448,
				"z": -0.8169998147,
				"element": "C" 
			},
			{
				"x": -0.7220068549,
				"y": -0.7265355928,
				"z": -0.1514448833,
				"element": "N" 
			},
			{
				"x": 0.180103217,
				"y": -0.2316899954,
				"z": 0.9178830861,
				"element": "C" 
			},
			{
				"x": -0.3415033328,
				"y": 0.9678696283,
				"z": 1.6674161755,
				"element": "C" 
			},
			{
				"x": -1.3776420703,
				"y": 0.8771564377,
				"z": 2.6130947355,
				"element": "C" 
			},
			{
				"x": -2.1346930484,
				"y": -0.6721547436,
				"z": 2.9452738105,
				"element": "Cl" 
			},
			{
				"x": -1.8274164125,
				"y": 1.9954475547,
				"z": 3.3140811269,
				"element": "C" 
			},
			{
				"x": -1.2394124055,
				"y": 3.2386429339,
				"z": 3.0798625283,
				"element": "C" 
			},
			{
				"x": -0.2063162786,
				"y": 3.3588815659,
				"z": 2.1507556384,
				"element": "C" 
			},
			{
				"x": 0.2308044021,
				"y": 2.2311501783,
				"z": 1.4565048912,
				"element": "C" 
			},
			{
				"x": -0.6002869985,
				"y": -2.1196622426,
				"z": -0.4615554439,
				"element": "C" 
			},
			{
				"x": 0.2249288963,
				"y": -2.8044327715,
				"z": 0.1335681425,
				"element": "O" 
			},
			{
				"x": -1.5118778898,
				"y": -2.5823128554,
				"z": -1.4900016373,
				"element": "C" 
			},
			{
				"x": -2.3652169197,
				"y": -1.7416326038,
				"z": -2.1334546704,
				"element": "C" 
			},
			{
				"x": -2.2524528505,
				"y": 2.0650703736,
				"z": -2.1592866366,
				"element": "H" 
			},
			{
				"x": -1.5753919548,
				"y": 1.1267560623,
				"z": -0.4641834034,
				"element": "H" 
			},
			{
				"x": 1.1492321404,
				"y": 0.0054332692,
				"z": 0.4662979414,
				"element": "H" 
			},
			{
				"x": 0.3407960985,
				"y": -1.0862798194,
				"z": 1.5770525587,
				"element": "H" 
			},
			{
				"x": -2.6276362299,
				"y": 1.8856431849,
				"z": 4.0374446346,
				"element": "H" 
			},
			{
				"x": -1.590099158,
				"y": 4.1077359312,
				"z": 3.6278670338,
				"element": "H" 
			},
			{
				"x": 0.259027871,
				"y": 4.322387127,
				"z": 1.9686194325,
				"element": "H" 
			},
			{
				"x": 1.0418092921,
				"y": 2.3204829624,
				"z": 0.738139832,
				"element": "H" 
			},
			{
				"x": -1.4645332249,
				"y": -3.6413681164,
				"z": -1.7148470972,
				"element": "H" 
			},
			{
				"x": -3.0473824986,
				"y": -2.1008799026,
				"z": -2.8971232764,
				"element": "H" 
			}
		],
		 "valence_orbital": [ 
			{
				"type": "occ",
				"energy": -0.2871,
				"method": "rhf"
			},
			{
				"type": "occ",
				"energy": -0.2772,
				"method": "rhf"
			},
			{
				"type": "occ",
				"energy": -0.26948,
				"method": "rhf"
			},
			{
				"type": "occ",
				"energy": -0.26148,
				"method": "rhf"
			},
			{
				"type": "occ",
				"energy": -0.23354,
				"method": "rhf"
			},
			{
				"type": "unocc",
				"energy": -0.05777,
				"method": "rhf"
			},
			{
				"type": "unocc",
				"energy": -0.04281,
				"method": "rhf"
			},
			{
				"type": "unocc",
				"energy": -0.03803,
				"method": "rhf"
			},
			{
				"type": "unocc",
				"energy": -0.03254,
				"method": "rhf"
			},
			{
				"type": "unocc",
				"energy": 0.01487,
				"method": "rhf"
			}
		],
		"cosmo_sigma_profile": { 
			"-0.025": 0.0,
			"-0.024": 0.0,
			"-0.023": 0.0,
			"-0.022": 0.0,
			"-0.021": 0.0,
			"-0.02": 0.136516468391,
			"-0.019": 1.01252733252,
			"-0.018": 0.9340678384,
			"-0.017": 1.09240958351,
			"-0.016": 0.936519660548,
			"-0.015": 0.997505829631,
			"-0.014": 0.885321678383,
			"-0.013": 0.701025662358,
			"-0.012": 1.20452549337,
			"-0.011": 1.03282439062,
			"-0.01": 0.979974182548,
			"-0.009": 0.997662523326,
			"-0.008": 6.3788760421,
			"-0.007": 15.4531127088,
			"-0.006": 16.6475663135,
			"-0.005": 17.3947637531,
			"-0.004": 15.7058192085,
			"-0.003": 16.1068569995,
			"-0.002": 16.1721589335,
			"-0.001": 17.160696573,
			"0.0": 21.3256792151,
			"0.001": 24.8170202169,
			"0.002": 22.3427615076,
			"0.003": 18.2830810324,
			"0.004": 12.8750769005,
			"0.005": 5.28076842682,
			"0.006": 2.99292752849,
			"0.007": 3.25098765383,
			"0.008": 4.38355332098,
			"0.009": 4.63541761107,
			"0.01": 5.43769638812,
			"0.011": 7.6689260898,
			"0.012": 7.06229315392,
			"0.013": 6.42661145356,
			"0.014": 2.05516024966,
			"0.015": 0.128860315622,
			"0.016": 0.0,
			"0.017": 0.0,
			"0.018": 0.0,
			"0.019": 0.0,
			"0.02": 0.0,
			"0.021": 0.0,
			"0.022": 0.0,
			"0.023": 0.0,
			"0.024": 0.0,
			"0.025": 0.0
		}
	}
}
