{
	 "smiles": "CC1=CC(Cl)=NC=C1[N+]([O-])=O", 
	 "Tm": 311.15, 
	 "num_atms": 16, 
	 "gaussian": { 
		 "optdone": 1, 
		 "sigma_profile": "yes", 
		 "theory": "DFT", 
		 "functional": "B3LYP", 
		 "basiset": "6-31G**", 
		 "properties": { 
			 "R2extent": 2596.896, 
			 "electric_dipole_moment_norm": 3.08793895827, 
			 "electric_quadrupole_moment_norm": 10.932947506, 
			 "total_energy": -951.690067769, 
			 "HOMO_LUMO_gap": 0.18193, 
			 "cosmo_polarized_energy": -9.03, 
			 "cosmo_cavitation_energy": 22.8, 
			 "cosmo_dispersion_energy": -17.13, 
			 "cosmo_repulsion_energy": 1.37, 
			 "cosmo_total_nonelectrostatic_energy": 7.05, 
			 "SMD_solvation_energy": 4.42 
		},
		"coords": [
			{
				"x": 1.2414866643,
				"y": -2.4965169897,
				"z": 1.2886774151,
				"element": "C" 
			},
			{
				"x": 0.1806053487,
				"y": -1.5070849019,
				"z": 0.8845772488,
				"element": "C" 
			},
			{
				"x": -0.4319679949,
				"y": -0.7271167097,
				"z": 1.8703711769,
				"element": "C" 
			},
			{
				"x": -1.4177254637,
				"y": 0.1935286393,
				"z": 1.5118537335,
				"element": "C" 
			},
			{
				"x": -2.1608744848,
				"y": 1.1569728649,
				"z": 2.7724071191,
				"element": "Cl" 
			},
			{
				"x": -1.8460109771,
				"y": 0.4003279956,
				"z": 0.2762236281,
				"element": "N" 
			},
			{
				"x": -1.2819561244,
				"y": -0.3385776011,
				"z": -0.6803280923,
				"element": "C" 
			},
			{
				"x": -0.2836318968,
				"y": -1.2831800489,
				"z": -0.4289123386,
				"element": "C" 
			},
			{
				"x": 0.2443688124,
				"y": -2.0090100258,
				"z": -1.5914748272,
				"element": "N" 
			},
			{
				"x": 1.2468400681,
				"y": -2.7067088239,
				"z": -1.4344012289,
				"element": "O" 
			},
			{
				"x": -0.3455703005,
				"y": -1.8710885766,
				"z": -2.6620769553,
				"element": "O" 
			},
			{
				"x": 1.3331800301,
				"y": -2.517187318,
				"z": 2.3769885356,
				"element": "H" 
			},
			{
				"x": 2.2079526424,
				"y": -2.2338065663,
				"z": 0.851690108,
				"element": "H" 
			},
			{
				"x": 1.0085468807,
				"y": -3.5010316473,
				"z": 0.9280352475,
				"element": "H" 
			},
			{
				"x": -0.1434085314,
				"y": -0.837020297,
				"z": 2.9089493368,
				"element": "H" 
			},
			{
				"x": -1.6245346732,
				"y": -0.1844999939,
				"z": -1.6974801068,
				"element": "H" 
			}
		],
		 "valence_orbital": [ 
			{
				"type": "occ",
				"energy": -0.32257,
				"method": "rhf"
			},
			{
				"type": "occ",
				"energy": -0.31537,
				"method": "rhf"
			},
			{
				"type": "occ",
				"energy": -0.30542,
				"method": "rhf"
			},
			{
				"type": "occ",
				"energy": -0.29499,
				"method": "rhf"
			},
			{
				"type": "occ",
				"energy": -0.28634,
				"method": "rhf"
			},
			{
				"type": "unocc",
				"energy": -0.10441,
				"method": "rhf"
			},
			{
				"type": "unocc",
				"energy": -0.05828,
				"method": "rhf"
			},
			{
				"type": "unocc",
				"energy": -0.02431,
				"method": "rhf"
			},
			{
				"type": "unocc",
				"energy": 0.01703,
				"method": "rhf"
			},
			{
				"type": "unocc",
				"energy": 0.09462,
				"method": "rhf"
			}
		],
		"cosmo_sigma_profile": { 
			"-0.025": 0.0,
			"-0.024": 0.0,
			"-0.023": 0.0,
			"-0.022": 0.0,
			"-0.021": 0.0,
			"-0.02": 0.0,
			"-0.019": 0.0,
			"-0.018": 0.0,
			"-0.017": 0.0,
			"-0.016": 0.0,
			"-0.015": 0.0,
			"-0.014": 0.0,
			"-0.013": 0.0,
			"-0.012": 0.0,
			"-0.011": 0.0,
			"-0.01": 0.0228257832661,
			"-0.009": 2.35878339898,
			"-0.008": 4.13333911838,
			"-0.007": 6.24118904804,
			"-0.006": 7.58363046802,
			"-0.005": 11.4653227955,
			"-0.004": 14.7445318873,
			"-0.003": 18.9752318936,
			"-0.002": 21.8308017928,
			"-0.001": 15.2061942854,
			"0.0": 7.29750161466,
			"0.001": 8.26708146956,
			"0.002": 9.61435616498,
			"0.003": 12.4282661742,
			"0.004": 8.88428592563,
			"0.005": 5.81810108388,
			"0.006": 5.4412910718,
			"0.007": 9.00331374779,
			"0.008": 6.17285055374,
			"0.009": 4.95661040752,
			"0.01": 2.63776068666,
			"0.011": 0.952775063803,
			"0.012": 0.725679906343,
			"0.013": 0.645041444013,
			"0.014": 0.130070445947,
			"0.015": 0.0,
			"0.016": 0.0,
			"0.017": 0.0,
			"0.018": 0.0,
			"0.019": 0.0,
			"0.02": 0.0,
			"0.021": 0.0,
			"0.022": 0.0,
			"0.023": 0.0,
			"0.024": 0.0,
			"0.025": 0.0
		}
	}
}
