{
	 "smiles": "CCCC(=O)NC1=CC(N)=C(Cl)C=C1", 
	 "Tm": 370.15, 
	 "num_atms": 27, 
	 "gaussian": { 
		 "optdone": 1, 
		 "sigma_profile": "yes", 
		 "theory": "DFT", 
		 "functional": "B3LYP", 
		 "basiset": "6-31G**", 
		 "properties": { 
			 "R2extent": 5018.1207, 
			 "electric_dipole_moment_norm": 4.82626814216, 
			 "electric_quadrupole_moment_norm": 10.8248940235, 
			 "total_energy": -1033.85204645, 
			 "HOMO_LUMO_gap": 0.18967, 
			 "cosmo_polarized_energy": -16.4, 
			 "cosmo_cavitation_energy": 32.03, 
			 "cosmo_dispersion_energy": -23.57, 
			 "cosmo_repulsion_energy": 1.88, 
			 "cosmo_total_nonelectrostatic_energy": 10.34, 
			 "SMD_solvation_energy": 5.36 
		},
		"coords": [
			{
				"x": 3.5344626438,
				"y": 3.7421866503,
				"z": -0.6504285439,
				"element": "C" 
			},
			{
				"x": 2.3554232617,
				"y": 4.1284009853,
				"z": 0.2478670464,
				"element": "C" 
			},
			{
				"x": 2.1289655176,
				"y": 3.1658302575,
				"z": 1.437065531,
				"element": "C" 
			},
			{
				"x": 1.7106872787,
				"y": 1.7704843271,
				"z": 0.9843005211,
				"element": "C" 
			},
			{
				"x": 2.5247563782,
				"y": 0.9396734094,
				"z": 0.6022923587,
				"element": "O" 
			},
			{
				"x": 0.3462121229,
				"y": 1.5579880477,
				"z": 1.0058079693,
				"element": "N" 
			},
			{
				"x": -0.3839876957,
				"y": 0.4211146421,
				"z": 0.6005811757,
				"element": "C" 
			},
			{
				"x": -1.7753802056,
				"y": 0.4756745227,
				"z": 0.7488587557,
				"element": "C" 
			},
			{
				"x": -2.6026468306,
				"y": -0.5940713767,
				"z": 0.3751254841,
				"element": "C" 
			},
			{
				"x": -3.9829290081,
				"y": -0.4958094081,
				"z": 0.4768833615,
				"element": "N" 
			},
			{
				"x": -1.9744384369,
				"y": -1.7377531524,
				"z": -0.1543782387,
				"element": "C" 
			},
			{
				"x": -2.9618112648,
				"y": -3.122966706,
				"z": -0.626255422,
				"element": "Cl" 
			},
			{
				"x": -0.5937148189,
				"y": -1.7970638156,
				"z": -0.3023564881,
				"element": "C" 
			},
			{
				"x": 0.2196132192,
				"y": -0.7287739704,
				"z": 0.0685323831,
				"element": "C" 
			},
			{
				"x": 3.6360521326,
				"y": 4.4501359286,
				"z": -1.4793390932,
				"element": "H" 
			},
			{
				"x": 3.4098679847,
				"y": 2.7390934056,
				"z": -1.0655534852,
				"element": "H" 
			},
			{
				"x": 4.4735406677,
				"y": 3.7481309947,
				"z": -0.0862684299,
				"element": "H" 
			},
			{
				"x": 1.4348089778,
				"y": 4.1851324775,
				"z": -0.347924843,
				"element": "H" 
			},
			{
				"x": 2.5174651975,
				"y": 5.1334160895,
				"z": 0.6562011944,
				"element": "H" 
			},
			{
				"x": 3.0612193065,
				"y": 3.0491723163,
				"z": 1.9982565567,
				"element": "H" 
			},
			{
				"x": 1.3849009652,
				"y": 3.5944598578,
				"z": 2.1200017405,
				"element": "H" 
			},
			{
				"x": -0.2140332167,
				"y": 2.3225922694,
				"z": 1.3531542949,
				"element": "H" 
			},
			{
				"x": -2.241113287,
				"y": 1.3720478609,
				"z": 1.1542121995,
				"element": "H" 
			},
			{
				"x": -4.4808734804,
				"y": -1.3750173796,
				"z": 0.4715381148,
				"element": "H" 
			},
			{
				"x": -4.3237553931,
				"y": 0.1514458202,
				"z": 1.172703036,
				"element": "H" 
			},
			{
				"x": -0.1466793234,
				"y": -2.6967352165,
				"z": -0.7115360122,
				"element": "H" 
			},
			{
				"x": 1.2921873071,
				"y": -0.7738888375,
				"z": -0.0436411671,
				"element": "H" 
			}
		],
		 "valence_orbital": [ 
			{
				"type": "occ",
				"energy": -0.31332,
				"method": "rhf"
			},
			{
				"type": "occ",
				"energy": -0.28554,
				"method": "rhf"
			},
			{
				"type": "occ",
				"energy": -0.25042,
				"method": "rhf"
			},
			{
				"type": "occ",
				"energy": -0.22769,
				"method": "rhf"
			},
			{
				"type": "occ",
				"energy": -0.20483,
				"method": "rhf"
			},
			{
				"type": "unocc",
				"energy": -0.01516,
				"method": "rhf"
			},
			{
				"type": "unocc",
				"energy": 0.00484,
				"method": "rhf"
			},
			{
				"type": "unocc",
				"energy": 0.03311,
				"method": "rhf"
			},
			{
				"type": "unocc",
				"energy": 0.04219,
				"method": "rhf"
			},
			{
				"type": "unocc",
				"energy": 0.06452,
				"method": "rhf"
			}
		],
		"cosmo_sigma_profile": { 
			"-0.025": 0.0,
			"-0.024": 0.0,
			"-0.023": 0.0,
			"-0.022": 0.0,
			"-0.021": 0.0,
			"-0.02": 0.0,
			"-0.019": 0.0,
			"-0.018": 0.0,
			"-0.017": 0.0,
			"-0.016": 0.0315937521324,
			"-0.015": 0.861446111325,
			"-0.014": 1.53100021276,
			"-0.013": 2.43400621559,
			"-0.012": 2.86305776712,
			"-0.011": 4.1524468275,
			"-0.01": 4.49556763565,
			"-0.009": 3.35604055528,
			"-0.008": 4.78853681555,
			"-0.007": 5.13420627192,
			"-0.006": 6.89322765756,
			"-0.005": 6.55647390531,
			"-0.004": 9.97070199993,
			"-0.003": 17.0345814885,
			"-0.002": 23.4569072175,
			"-0.001": 22.1020773159,
			"0.0": 20.1079732346,
			"0.001": 19.0515353929,
			"0.002": 17.9850857483,
			"0.003": 16.2074890447,
			"0.004": 21.8739378001,
			"0.005": 18.7271606126,
			"0.006": 4.96066876237,
			"0.007": 3.28508591346,
			"0.008": 2.81317791217,
			"0.009": 1.92853093833,
			"0.01": 2.69058183072,
			"0.011": 2.17635553777,
			"0.012": 2.65064144338,
			"0.013": 3.30140153784,
			"0.014": 1.39270739565,
			"0.015": 0.190022386485,
			"0.016": 0.0,
			"0.017": 0.0,
			"0.018": 0.0,
			"0.019": 0.0,
			"0.02": 0.0,
			"0.021": 0.0,
			"0.022": 0.0,
			"0.023": 0.0,
			"0.024": 0.0,
			"0.025": 0.0
		}
	}
}
