{
	 "smiles": "CC1(C)CC(CC(C)(CN=C=O)C1)N=C=O", 
	 "Tm": 213.15, 
	 "num_atms": 34, 
	 "gaussian": { 
		 "optdone": 1, 
		 "sigma_profile": "yes", 
		 "theory": "DFT", 
		 "functional": "B3LYP", 
		 "basiset": "6-31G**", 
		 "properties": { 
			 "R2extent": 4874.5269, 
			 "electric_dipole_moment_norm": 4.38224494523, 
			 "electric_quadrupole_moment_norm": 16.1751383509, 
			 "total_energy": -728.085584313, 
			 "HOMO_LUMO_gap": 0.28058, 
			 "cosmo_polarized_energy": -7.93, 
			 "cosmo_cavitation_energy": 35.27, 
			 "cosmo_dispersion_energy": -23.67, 
			 "cosmo_repulsion_energy": 1.83, 
			 "cosmo_total_nonelectrostatic_energy": 13.44, 
			 "SMD_solvation_energy": 10.13 
		},
		"coords": [
			{
				"x": -2.3903958187,
				"y": -0.3928688226,
				"z": 1.0817467204,
				"element": "C" 
			},
			{
				"x": -1.0431496408,
				"y": 0.294735327,
				"z": 0.780383981,
				"element": "C" 
			},
			{
				"x": -1.3383055276,
				"y": 1.7625397485,
				"z": 0.4014263776,
				"element": "C" 
			},
			{
				"x": -0.1462338443,
				"y": 0.2549241853,
				"z": 2.0622055176,
				"element": "C" 
			},
			{
				"x": 1.3290347753,
				"y": -0.1469907085,
				"z": 1.8312284724,
				"element": "C" 
			},
			{
				"x": 1.8588278812,
				"y": 0.4202111034,
				"z": 0.5086880643,
				"element": "C" 
			},
			{
				"x": 1.094563582,
				"y": -0.0752312775,
				"z": -0.7503701323,
				"element": "C" 
			},
			{
				"x": 1.1401972646,
				"y": 1.0064241582,
				"z": -1.8472859919,
				"element": "C" 
			},
			{
				"x": 1.7647685096,
				"y": -1.355488952,
				"z": -1.3125559615,
				"element": "C" 
			},
			{
				"x": 3.1246472766,
				"y": -1.1059483092,
				"z": -1.7542515426,
				"element": "N" 
			},
			{
				"x": 4.0448603451,
				"y": -1.6988366329,
				"z": -2.2601555341,
				"element": "C" 
			},
			{
				"x": 5.0149838443,
				"y": -2.162036628,
				"z": -2.7512948986,
				"element": "O" 
			},
			{
				"x": -0.3654839405,
				"y": -0.4747970035,
				"z": -0.3843378096,
				"element": "C" 
			},
			{
				"x": 1.4967783355,
				"y": -1.6033966614,
				"z": 1.8573036662,
				"element": "N" 
			},
			{
				"x": 1.5497151102,
				"y": -2.4791194433,
				"z": 2.6886221058,
				"element": "C" 
			},
			{
				"x": 1.6197122655,
				"y": -3.4230883368,
				"z": 3.3953642245,
				"element": "O" 
			},
			{
				"x": -3.0583078062,
				"y": -0.351835311,
				"z": 0.2136998258,
				"element": "H" 
			},
			{
				"x": -2.247898109,
				"y": -1.4461213856,
				"z": 1.3471880556,
				"element": "H" 
			},
			{
				"x": -2.9017412147,
				"y": 0.0974206889,
				"z": 1.9179551466,
				"element": "H" 
			},
			{
				"x": -0.4275866193,
				"y": 2.3553199975,
				"z": 0.2806016248,
				"element": "H" 
			},
			{
				"x": -1.9062515659,
				"y": 1.8241710168,
				"z": -0.5335598551,
				"element": "H" 
			},
			{
				"x": -1.9351962705,
				"y": 2.2430165421,
				"z": 1.1852247939,
				"element": "H" 
			},
			{
				"x": -0.1421497934,
				"y": 1.248828735,
				"z": 2.525342232,
				"element": "H" 
			},
			{
				"x": -0.5727372277,
				"y": -0.4237884589,
				"z": 2.8080383934,
				"element": "H" 
			},
			{
				"x": 1.9314971084,
				"y": 0.2654729718,
				"z": 2.6492663373,
				"element": "H" 
			},
			{
				"x": 2.9256471742,
				"y": 0.1986200135,
				"z": 0.4031298292,
				"element": "H" 
			},
			{
				"x": 1.7766861316,
				"y": 1.5110211986,
				"z": 0.5817469605,
				"element": "H" 
			},
			{
				"x": 2.1758434917,
				"y": 1.2512821399,
				"z": -2.1015713185,
				"element": "H" 
			},
			{
				"x": 0.6474858892,
				"y": 0.653411952,
				"z": -2.7608482247,
				"element": "H" 
			},
			{
				"x": 0.6413598405,
				"y": 1.9261714866,
				"z": -1.5342243651,
				"element": "H" 
			},
			{
				"x": 1.1714350165,
				"y": -1.7224598962,
				"z": -2.1602219166,
				"element": "H" 
			},
			{
				"x": 1.7746050918,
				"y": -2.1307476629,
				"z": -0.5412784546,
				"element": "H" 
			},
			{
				"x": -0.3713255939,
				"y": -1.5365276889,
				"z": -0.1077589536,
				"element": "H" 
			},
			{
				"x": -0.9974859614,
				"y": -0.3909880858,
				"z": -1.2777473701,
				"element": "H" 
			}
		],
		 "valence_orbital": [ 
			{
				"type": "occ",
				"energy": -0.31025,
				"method": "rhf"
			},
			{
				"type": "occ",
				"energy": -0.29015,
				"method": "rhf"
			},
			{
				"type": "occ",
				"energy": -0.28666,
				"method": "rhf"
			},
			{
				"type": "occ",
				"energy": -0.27662,
				"method": "rhf"
			},
			{
				"type": "occ",
				"energy": -0.27021,
				"method": "rhf"
			},
			{
				"type": "unocc",
				"energy": 0.01037,
				"method": "rhf"
			},
			{
				"type": "unocc",
				"energy": 0.02547,
				"method": "rhf"
			},
			{
				"type": "unocc",
				"energy": 0.05221,
				"method": "rhf"
			},
			{
				"type": "unocc",
				"energy": 0.06185,
				"method": "rhf"
			},
			{
				"type": "unocc",
				"energy": 0.06692,
				"method": "rhf"
			}
		],
		"cosmo_sigma_profile": { 
			"-0.025": 0.0,
			"-0.024": 0.0,
			"-0.023": 0.0,
			"-0.022": 0.0,
			"-0.021": 0.0,
			"-0.02": 0.0,
			"-0.019": 0.0,
			"-0.018": 0.0,
			"-0.017": 0.0,
			"-0.016": 0.0,
			"-0.015": 0.0,
			"-0.014": 0.0,
			"-0.013": 0.0,
			"-0.012": 0.0,
			"-0.011": 0.0,
			"-0.01": 0.0,
			"-0.009": 0.0,
			"-0.008": 0.0,
			"-0.007": 0.0339637235743,
			"-0.006": 3.09376763408,
			"-0.005": 12.2061965539,
			"-0.004": 20.6053732093,
			"-0.003": 27.6670910404,
			"-0.002": 42.4136116614,
			"-0.001": 39.4902918628,
			"0.0": 33.9040658313,
			"0.001": 31.5899987249,
			"0.002": 17.1026908833,
			"0.003": 6.96780669812,
			"0.004": 7.39917123451,
			"0.005": 3.29125427952,
			"0.006": 3.81736322095,
			"0.007": 4.83161331164,
			"0.008": 12.6270629803,
			"0.009": 9.15630705109,
			"0.01": 0.0,
			"0.011": 0.0,
			"0.012": 0.0,
			"0.013": 0.0,
			"0.014": 0.0,
			"0.015": 0.0,
			"0.016": 0.0,
			"0.017": 0.0,
			"0.018": 0.0,
			"0.019": 0.0,
			"0.02": 0.0,
			"0.021": 0.0,
			"0.022": 0.0,
			"0.023": 0.0,
			"0.024": 0.0,
			"0.025": 0.0
		}
	}
}
