{
	 "smiles": "COC1=CC(C2=NN=C(CCC(O)=O)O2)=C(Br)C=C1", 
	 "Tm": 390.15, 
	 "num_atms": 30, 
	 "gaussian": { 
		 "optdone": 1, 
		 "sigma_profile": "yes", 
		 "theory": "DFT", 
		 "functional": "B3LYP", 
		 "basiset": "6-31G**", 
		 "properties": { 
			 "R2extent": 9438.4242, 
			 "electric_dipole_moment_norm": 6.44267288476, 
			 "electric_quadrupole_moment_norm": 24.1392659555, 
			 "total_energy": -3445.68618752, 
			 "HOMO_LUMO_gap": 0.16702, 
			 "cosmo_polarized_energy": -18.34, 
			 "cosmo_cavitation_energy": 37.36, 
			 "cosmo_dispersion_energy": -27.49, 
			 "cosmo_repulsion_energy": 2.12, 
			 "cosmo_total_nonelectrostatic_energy": 12.0, 
			 "SMD_solvation_energy": 6.1 
		},
		"coords": [
			{
				"x": -4.8494257567,
				"y": -0.9278302096,
				"z": -1.0193767229,
				"element": "C" 
			},
			{
				"x": -5.0775237853,
				"y": -0.4731281107,
				"z": 0.3100699531,
				"element": "O" 
			},
			{
				"x": -4.0318084018,
				"y": 0.0463611079,
				"z": 1.0025015478,
				"element": "C" 
			},
			{
				"x": -2.7339515419,
				"y": 0.1591995292,
				"z": 0.5117217439,
				"element": "C" 
			},
			{
				"x": -1.7010721544,
				"y": 0.7122571979,
				"z": 1.3002098409,
				"element": "C" 
			},
			{
				"x": -0.3931148285,
				"y": 0.7735329231,
				"z": 0.6452000878,
				"element": "C" 
			},
			{
				"x": -0.1675286743,
				"y": 0.6257898241,
				"z": -0.6304704453,
				"element": "N" 
			},
			{
				"x": 1.2050470872,
				"y": 0.7171358419,
				"z": -0.7935358593,
				"element": "N" 
			},
			{
				"x": 1.722985037,
				"y": 0.9121343988,
				"z": 0.3805860681,
				"element": "C" 
			},
			{
				"x": 3.1573495143,
				"y": 1.083327687,
				"z": 0.7463827445,
				"element": "C" 
			},
			{
				"x": 4.0739879929,
				"y": 1.3845529912,
				"z": -0.4596506047,
				"element": "C" 
			},
			{
				"x": 4.4056653353,
				"y": 0.1847194573,
				"z": -1.3601952811,
				"element": "C" 
			},
			{
				"x": 3.4059794111,
				"y": -0.3174115937,
				"z": -2.1011122255,
				"element": "O" 
			},
			{
				"x": 5.5231466716,
				"y": -0.2759829224,
				"z": -1.4140970864,
				"element": "O" 
			},
			{
				"x": 0.7685397568,
				"y": 0.9590092447,
				"z": 1.3422287874,
				"element": "O" 
			},
			{
				"x": -2.0041346872,
				"y": 1.1553597426,
				"z": 2.59729081,
				"element": "C" 
			},
			{
				"x": -0.7385626343,
				"y": 1.9746034198,
				"z": 3.7702936732,
				"element": "Br" 
			},
			{
				"x": -3.3100283453,
				"y": 1.0324345424,
				"z": 3.0864532417,
				"element": "C" 
			},
			{
				"x": -4.3150073381,
				"y": 0.4845315557,
				"z": 2.3067361954,
				"element": "C" 
			},
			{
				"x": -4.1207836656,
				"y": -1.7472963768,
				"z": -1.0438654507,
				"element": "H" 
			},
			{
				"x": -5.8125969341,
				"y": -1.2904302876,
				"z": -1.3796239486,
				"element": "H" 
			},
			{
				"x": -4.5011860395,
				"y": -0.1145565833,
				"z": -1.6675274436,
				"element": "H" 
			},
			{
				"x": -2.4749448016,
				"y": -0.1714281526,
				"z": -0.4851704966,
				"element": "H" 
			},
			{
				"x": 3.504983399,
				"y": 0.1885887396,
				"z": 1.2791265017,
				"element": "H" 
			},
			{
				"x": 3.2206112566,
				"y": 1.9073159459,
				"z": 1.4657002617,
				"element": "H" 
			},
			{
				"x": 3.6273307174,
				"y": 2.1830012668,
				"z": -1.0633923516,
				"element": "H" 
			},
			{
				"x": 5.0319152711,
				"y": 1.7421708108,
				"z": -0.0801549446,
				"element": "H" 
			},
			{
				"x": 2.5448900179,
				"y": 0.1154353225,
				"z": -1.8927318369,
				"element": "H" 
			},
			{
				"x": -3.5301534069,
				"y": 1.3783697951,
				"z": 4.0895297963,
				"element": "H" 
			},
			{
				"x": -5.3268084728,
				"y": 0.3873328925,
				"z": 2.6853734444,
				"element": "H" 
			}
		],
		 "valence_orbital": [ 
			{
				"type": "occ",
				"energy": -0.29717,
				"method": "rhf"
			},
			{
				"type": "occ",
				"energy": -0.29419,
				"method": "rhf"
			},
			{
				"type": "occ",
				"energy": -0.26617,
				"method": "rhf"
			},
			{
				"type": "occ",
				"energy": -0.25377,
				"method": "rhf"
			},
			{
				"type": "occ",
				"energy": -0.23835,
				"method": "rhf"
			},
			{
				"type": "unocc",
				"energy": -0.07133,
				"method": "rhf"
			},
			{
				"type": "unocc",
				"energy": -0.02355,
				"method": "rhf"
			},
			{
				"type": "unocc",
				"energy": -0.01178,
				"method": "rhf"
			},
			{
				"type": "unocc",
				"energy": -0.00836,
				"method": "rhf"
			},
			{
				"type": "unocc",
				"energy": 0.01858,
				"method": "rhf"
			}
		],
		"cosmo_sigma_profile": { 
			"-0.025": 0.0,
			"-0.024": 0.0,
			"-0.023": 0.0,
			"-0.022": 0.0,
			"-0.021": 0.0,
			"-0.02": 0.0,
			"-0.019": 0.0,
			"-0.018": 0.0,
			"-0.017": 0.0,
			"-0.016": 0.0,
			"-0.015": 0.0,
			"-0.014": 0.0,
			"-0.013": 0.0,
			"-0.012": 0.0,
			"-0.011": 0.0,
			"-0.01": 0.0,
			"-0.009": 0.597072427404,
			"-0.008": 8.06943094128,
			"-0.007": 16.8019313334,
			"-0.006": 27.4837248666,
			"-0.005": 24.8518554326,
			"-0.004": 22.5815371215,
			"-0.003": 20.0045198162,
			"-0.002": 15.5970184155,
			"-0.001": 17.0993502099,
			"0.0": 14.5555214867,
			"0.001": 25.3271357621,
			"0.002": 23.803892663,
			"0.003": 13.9036074974,
			"0.004": 15.9189123015,
			"0.005": 9.11692247481,
			"0.006": 6.25777152885,
			"0.007": 4.74321013121,
			"0.008": 4.80427533978,
			"0.009": 5.86680508289,
			"0.01": 4.98767232083,
			"0.011": 6.43049037722,
			"0.012": 7.4321390069,
			"0.013": 4.77727998494,
			"0.014": 1.11332926035,
			"0.015": 0.0,
			"0.016": 0.0,
			"0.017": 0.0,
			"0.018": 0.0,
			"0.019": 0.0,
			"0.02": 0.0,
			"0.021": 0.0,
			"0.022": 0.0,
			"0.023": 0.0,
			"0.024": 0.0,
			"0.025": 0.0
		}
	}
}
