{
	 "smiles": "CC1=CC(C(O)=O)=C(C=C1)C(O)=O", 
	 "Tm": 421.15, 
	 "num_atms": 21, 
	 "gaussian": { 
		 "optdone": 1, 
		 "sigma_profile": "yes", 
		 "theory": "DFT", 
		 "functional": "B3LYP", 
		 "basiset": "6-31G**", 
		 "properties": { 
			 "R2extent": 2665.3991, 
			 "electric_dipole_moment_norm": 1.25412527684, 
			 "electric_quadrupole_moment_norm": 18.7545690838, 
			 "total_energy": -648.707576803, 
			 "HOMO_LUMO_gap": 0.19946, 
			 "cosmo_polarized_energy": -14.96, 
			 "cosmo_cavitation_energy": 26.21, 
			 "cosmo_dispersion_energy": -18.91, 
			 "cosmo_repulsion_energy": 1.52, 
			 "cosmo_total_nonelectrostatic_energy": 8.82, 
			 "SMD_solvation_energy": 6.91 
		},
		"coords": [
			{
				"x": -2.0310835529,
				"y": -2.5454420984,
				"z": 0.6823231148,
				"element": "C" 
			},
			{
				"x": -0.8006498964,
				"y": -1.7048519993,
				"z": 0.4425573973,
				"element": "C" 
			},
			{
				"x": -0.7436471913,
				"y": -0.3771000584,
				"z": 0.8806241507,
				"element": "C" 
			},
			{
				"x": 0.372063181,
				"y": 0.4315443337,
				"z": 0.6430381184,
				"element": "C" 
			},
			{
				"x": 0.236213675,
				"y": 1.8616730183,
				"z": 1.0625027403,
				"element": "C" 
			},
			{
				"x": 0.7535695952,
				"y": 2.7251929914,
				"z": 0.1596270919,
				"element": "O" 
			},
			{
				"x": -0.3508921822,
				"y": 2.2298844143,
				"z": 2.0583926421,
				"element": "O" 
			},
			{
				"x": 1.4929020207,
				"y": -0.1103246039,
				"z": -0.0184963907,
				"element": "C" 
			},
			{
				"x": 1.4313796522,
				"y": -1.4315548569,
				"z": -0.4757723452,
				"element": "C" 
			},
			{
				"x": 0.303617363,
				"y": -2.2158861775,
				"z": -0.2510395891,
				"element": "C" 
			},
			{
				"x": 2.8006741246,
				"y": 0.5866661575,
				"z": -0.2053296505,
				"element": "C" 
			},
			{
				"x": 3.124244001,
				"y": 1.39376895,
				"z": 0.8311410887,
				"element": "O" 
			},
			{
				"x": 3.5485898727,
				"y": 0.3975110995,
				"z": -1.1425326134,
				"element": "O" 
			},
			{
				"x": -1.7803414877,
				"y": -3.6074313783,
				"z": 0.7576492198,
				"element": "H" 
			},
			{
				"x": -2.5446021885,
				"y": -2.2485980114,
				"z": 1.6011440387,
				"element": "H" 
			},
			{
				"x": -2.746759528,
				"y": -2.436177407,
				"z": -0.1419576079,
				"element": "H" 
			},
			{
				"x": -1.5855128925,
				"y": 0.0595732555,
				"z": 1.4091535447,
				"element": "H" 
			},
			{
				"x": 0.6092222215,
				"y": 3.6133779398,
				"z": 0.5269658162,
				"element": "H" 
			},
			{
				"x": 2.2945066288,
				"y": -1.837222689,
				"z": -0.9926611765,
				"element": "H" 
			},
			{
				"x": 0.286017039,
				"y": -3.2421892957,
				"z": -0.6082638561,
				"element": "H" 
			},
			{
				"x": 3.9834895448,
				"y": 1.7869864157,
				"z": 0.6042342658,
				"element": "H" 
			}
		],
		 "valence_orbital": [ 
			{
				"type": "occ",
				"energy": -0.31373,
				"method": "rhf"
			},
			{
				"type": "occ",
				"energy": -0.28718,
				"method": "rhf"
			},
			{
				"type": "occ",
				"energy": -0.28146,
				"method": "rhf"
			},
			{
				"type": "occ",
				"energy": -0.26403,
				"method": "rhf"
			},
			{
				"type": "occ",
				"energy": -0.25763,
				"method": "rhf"
			},
			{
				"type": "unocc",
				"energy": -0.05817,
				"method": "rhf"
			},
			{
				"type": "unocc",
				"energy": -0.02989,
				"method": "rhf"
			},
			{
				"type": "unocc",
				"energy": 0.02951,
				"method": "rhf"
			},
			{
				"type": "unocc",
				"energy": 0.04236,
				"method": "rhf"
			},
			{
				"type": "unocc",
				"energy": 0.07167,
				"method": "rhf"
			}
		],
		"cosmo_sigma_profile": { 
			"-0.025": 0.0,
			"-0.024": 0.0,
			"-0.023": 0.0,
			"-0.022": 0.0,
			"-0.021": 0.0,
			"-0.02": 0.0,
			"-0.019": 0.423908756991,
			"-0.018": 1.95293588708,
			"-0.017": 1.35530547476,
			"-0.016": 1.97011448844,
			"-0.015": 1.44475439602,
			"-0.014": 0.923604266652,
			"-0.013": 1.05508327489,
			"-0.012": 1.96144198378,
			"-0.011": 1.59732413757,
			"-0.01": 1.13728189106,
			"-0.009": 1.11478158082,
			"-0.008": 0.992684904968,
			"-0.007": 3.54873086067,
			"-0.006": 8.85196030019,
			"-0.005": 12.8667541311,
			"-0.004": 12.7058538486,
			"-0.003": 14.3815316747,
			"-0.002": 13.9015425279,
			"-0.001": 16.2868113858,
			"0.0": 14.7492907542,
			"0.001": 12.8495481495,
			"0.002": 19.151827179,
			"0.003": 12.3723543188,
			"0.004": 7.37312656423,
			"0.005": 5.99646742576,
			"0.006": 4.9139409438,
			"0.007": 5.49234248493,
			"0.008": 3.78653476134,
			"0.009": 3.51402647249,
			"0.01": 4.63742578846,
			"0.011": 8.58987523725,
			"0.012": 6.36883953495,
			"0.013": 0.130770392413,
			"0.014": 0.0,
			"0.015": 0.0,
			"0.016": 0.0,
			"0.017": 0.0,
			"0.018": 0.0,
			"0.019": 0.0,
			"0.02": 0.0,
			"0.021": 0.0,
			"0.022": 0.0,
			"0.023": 0.0,
			"0.024": 0.0,
			"0.025": 0.0
		}
	}
}
