{
	 "smiles": "NC1=NN=C(S1)C=CC1=CC=CO1", 
	 "Tm": 492.15, 
	 "num_atms": 20, 
	 "gaussian": { 
		 "optdone": 1, 
		 "sigma_profile": "yes", 
		 "theory": "DFT", 
		 "functional": "B3LYP", 
		 "basiset": "6-31G**", 
		 "properties": { 
			 "R2extent": 3566.6118, 
			 "electric_dipole_moment_norm": 1.74654438821, 
			 "electric_quadrupole_moment_norm": 19.7945454204, 
			 "total_energy": -946.660503178, 
			 "HOMO_LUMO_gap": 0.13778, 
			 "cosmo_polarized_energy": -17.97, 
			 "cosmo_cavitation_energy": 27.25, 
			 "cosmo_dispersion_energy": -20.63, 
			 "cosmo_repulsion_energy": 1.59, 
			 "cosmo_total_nonelectrostatic_energy": 8.21, 
			 "SMD_solvation_energy": 3.8 
		},
		"coords": [
			{
				"x": -3.5374194475,
				"y": -2.993239496,
				"z": -1.7272458143,
				"element": "N" 
			},
			{
				"x": -2.4052843871,
				"y": -2.4096266746,
				"z": -1.2119537107,
				"element": "C" 
			},
			{
				"x": -2.4429774255,
				"y": -1.4707828356,
				"z": -0.2980081374,
				"element": "N" 
			},
			{
				"x": -1.214264046,
				"y": -0.9765360761,
				"z": 0.0079847577,
				"element": "N" 
			},
			{
				"x": -0.227729427,
				"y": -1.5231639464,
				"z": -0.6449998686,
				"element": "C" 
			},
			{
				"x": -0.7942390022,
				"y": -2.7829048134,
				"z": -1.7923443481,
				"element": "S" 
			},
			{
				"x": 1.1956328462,
				"y": -1.2700002722,
				"z": -0.5491335814,
				"element": "C" 
			},
			{
				"x": 1.9065342175,
				"y": -0.3322204994,
				"z": 0.1310014331,
				"element": "C" 
			},
			{
				"x": 1.557449566,
				"y": 0.773958942,
				"z": 0.9747681833,
				"element": "C" 
			},
			{
				"x": 2.3975627251,
				"y": 1.6584282712,
				"z": 1.6235660437,
				"element": "C" 
			},
			{
				"x": 1.5684926875,
				"y": 2.5806630359,
				"z": 2.3196483411,
				"element": "C" 
			},
			{
				"x": 0.2833461863,
				"y": 2.2009276704,
				"z": 2.0490326462,
				"element": "C" 
			},
			{
				"x": 0.2607805925,
				"y": 1.1152591601,
				"z": 1.2410545214,
				"element": "O" 
			},
			{
				"x": -4.3639614383,
				"y": -2.7818991195,
				"z": -1.1819799672,
				"element": "H" 
			},
			{
				"x": -3.4671900819,
				"y": -3.9607178997,
				"z": -2.0080542628,
				"element": "H" 
			},
			{
				"x": 1.7955331193,
				"y": -1.965316147,
				"z": -1.1301359141,
				"element": "H" 
			},
			{
				"x": 2.9859903371,
				"y": -0.4108407961,
				"z": 0.0188970968,
				"element": "H" 
			},
			{
				"x": 3.4779843375,
				"y": 1.6385263128,
				"z": 1.5951063466,
				"element": "H" 
			},
			{
				"x": 1.8783461925,
				"y": 3.4115871644,
				"z": 2.9366520998,
				"element": "H" 
			},
			{
				"x": -0.681287552,
				"y": 2.5836980191,
				"z": 2.3449441348,
				"element": "H" 
			}
		],
		 "valence_orbital": [ 
			{
				"type": "occ",
				"energy": -0.28199,
				"method": "rhf"
			},
			{
				"type": "occ",
				"energy": -0.27581,
				"method": "rhf"
			},
			{
				"type": "occ",
				"energy": -0.24634,
				"method": "rhf"
			},
			{
				"type": "occ",
				"energy": -0.24054,
				"method": "rhf"
			},
			{
				"type": "occ",
				"energy": -0.19481,
				"method": "rhf"
			},
			{
				"type": "unocc",
				"energy": -0.05703,
				"method": "rhf"
			},
			{
				"type": "unocc",
				"energy": -0.00131,
				"method": "rhf"
			},
			{
				"type": "unocc",
				"energy": 0.01157,
				"method": "rhf"
			},
			{
				"type": "unocc",
				"energy": 0.04443,
				"method": "rhf"
			},
			{
				"type": "unocc",
				"energy": 0.07006,
				"method": "rhf"
			}
		],
		"cosmo_sigma_profile": { 
			"-0.025": 0.0,
			"-0.024": 0.0,
			"-0.023": 0.0,
			"-0.022": 0.0,
			"-0.021": 0.0,
			"-0.02": 0.0,
			"-0.019": 0.0,
			"-0.018": 0.0,
			"-0.017": 0.0,
			"-0.016": 0.0367633245554,
			"-0.015": 1.12273385372,
			"-0.014": 2.48326953962,
			"-0.013": 2.61302487967,
			"-0.012": 3.15602760494,
			"-0.011": 2.34193421045,
			"-0.01": 1.79903248442,
			"-0.009": 4.05668249821,
			"-0.008": 5.37096143226,
			"-0.007": 13.7088375329,
			"-0.006": 9.71976097328,
			"-0.005": 10.4665984908,
			"-0.004": 9.21549124808,
			"-0.003": 9.96540655561,
			"-0.002": 9.28962755242,
			"-0.001": 10.9362712908,
			"0.0": 12.9159311129,
			"0.001": 17.384837171,
			"0.002": 19.7894237991,
			"0.003": 19.9441682321,
			"0.004": 15.7045131111,
			"0.005": 7.69084826253,
			"0.006": 3.57998666401,
			"0.007": 3.35352489704,
			"0.008": 3.21632414229,
			"0.009": 2.99356335297,
			"0.01": 3.34762683778,
			"0.011": 2.94735112421,
			"0.012": 2.64935661741,
			"0.013": 4.3953843438,
			"0.014": 2.9073549552,
			"0.015": 2.1789204332,
			"0.016": 0.275016788722,
			"0.017": 0.0,
			"0.018": 0.0,
			"0.019": 0.0,
			"0.02": 0.0,
			"0.021": 0.0,
			"0.022": 0.0,
			"0.023": 0.0,
			"0.024": 0.0,
			"0.025": 0.0
		}
	}
}
