{
	 "smiles": "CC1=C(C=C(C=C1[N+]([O-])=O)[N+]([O-])=O)[N+]([O-])=O", 
	 "Tm": 353.15, 
	 "num_atms": 21, 
	 "gaussian": { 
		 "optdone": 1, 
		 "sigma_profile": "yes", 
		 "theory": "DFT", 
		 "functional": "B3LYP", 
		 "basiset": "6-31G**", 
		 "properties": { 
			 "R2extent": 3827.7341, 
			 "electric_dipole_moment_norm": 1.48594137502, 
			 "electric_quadrupole_moment_norm": 13.7811536654, 
			 "total_energy": -885.036370056, 
			 "HOMO_LUMO_gap": 0.18265, 
			 "cosmo_polarized_energy": -14.17, 
			 "cosmo_cavitation_energy": 27.96, 
			 "cosmo_dispersion_energy": -20.09, 
			 "cosmo_repulsion_energy": 1.54, 
			 "cosmo_total_nonelectrostatic_energy": 9.41, 
			 "SMD_solvation_energy": 11.51 
		},
		"coords": [
			{
				"x": -0.1120646029,
				"y": -2.4985500184,
				"z": 0.0688048516,
				"element": "C" 
			},
			{
				"x": -0.1066323415,
				"y": -1.0194774826,
				"z": 0.3644628027,
				"element": "C" 
			},
			{
				"x": -0.617473529,
				"y": -0.4750808811,
				"z": 1.5625941798,
				"element": "C" 
			},
			{
				"x": -0.5369512993,
				"y": 0.8718456476,
				"z": 1.9000355896,
				"element": "C" 
			},
			{
				"x": 0.0587865827,
				"y": 1.7402477387,
				"z": 0.9985737933,
				"element": "C" 
			},
			{
				"x": 0.5817050426,
				"y": 1.2880081993,
				"z": -0.202966409,
				"element": "C" 
			},
			{
				"x": 0.478582827,
				"y": -0.0673195852,
				"z": -0.4979276393,
				"element": "C" 
			},
			{
				"x": 1.0244917976,
				"y": -0.4608440195,
				"z": -1.817442865,
				"element": "N" 
			},
			{
				"x": 0.4724420707,
				"y": -1.3833462437,
				"z": -2.4113429988,
				"element": "O" 
			},
			{
				"x": 1.9753071068,
				"y": 0.1900142812,
				"z": -2.2409619159,
				"element": "O" 
			},
			{
				"x": 0.1438737631,
				"y": 3.1754449401,
				"z": 1.327834944,
				"element": "N" 
			},
			{
				"x": 0.6815922868,
				"y": 3.9078519074,
				"z": 0.5024144196,
				"element": "O" 
			},
			{
				"x": -0.3292569696,
				"y": 3.5317422746,
				"z": 2.4030457036,
				"element": "O" 
			},
			{
				"x": -1.3042648474,
				"y": -1.3271813045,
				"z": 2.5607151153,
				"element": "N" 
			},
			{
				"x": -1.9510636707,
				"y": -2.2849387314,
				"z": 2.144983674,
				"element": "O" 
			},
			{
				"x": -1.20466674,
				"y": -0.9930614289,
				"z": 3.7377772343,
				"element": "O" 
			},
			{
				"x": -1.0227160923,
				"y": -2.7749245001,
				"z": -0.4700487711,
				"element": "H" 
			},
			{
				"x": 0.7335711657,
				"y": -2.7728042657,
				"z": -0.5593830034,
				"element": "H" 
			},
			{
				"x": -0.0897201114,
				"y": -3.0793472648,
				"z": 0.989189133,
				"element": "H" 
			},
			{
				"x": -0.9273396991,
				"y": 1.2298204818,
				"z": 2.8433435003,
				"element": "H" 
			},
			{
				"x": 1.0604972602,
				"y": 1.9693002551,
				"z": -0.8936013387,
				"element": "H" 
			}
		],
		 "valence_orbital": [ 
			{
				"type": "occ",
				"energy": -0.3327,
				"method": "rhf"
			},
			{
				"type": "occ",
				"energy": -0.3312,
				"method": "rhf"
			},
			{
				"type": "occ",
				"energy": -0.32262,
				"method": "rhf"
			},
			{
				"type": "occ",
				"energy": -0.31572,
				"method": "rhf"
			},
			{
				"type": "occ",
				"energy": -0.31046,
				"method": "rhf"
			},
			{
				"type": "unocc",
				"energy": -0.12781,
				"method": "rhf"
			},
			{
				"type": "unocc",
				"energy": -0.1241,
				"method": "rhf"
			},
			{
				"type": "unocc",
				"energy": -0.10683,
				"method": "rhf"
			},
			{
				"type": "unocc",
				"energy": -0.04237,
				"method": "rhf"
			},
			{
				"type": "unocc",
				"energy": -0.03283,
				"method": "rhf"
			}
		],
		"cosmo_sigma_profile": { 
			"-0.025": 0.0,
			"-0.024": 0.0,
			"-0.023": 0.0,
			"-0.022": 0.0,
			"-0.021": 0.0,
			"-0.02": 0.0,
			"-0.019": 0.0,
			"-0.018": 0.0,
			"-0.017": 0.0,
			"-0.016": 0.0,
			"-0.015": 0.0,
			"-0.014": 0.0,
			"-0.013": 0.0,
			"-0.012": 0.154430310945,
			"-0.011": 1.28277459702,
			"-0.01": 2.14428259755,
			"-0.009": 5.73602097031,
			"-0.008": 8.20150360298,
			"-0.007": 9.25728471262,
			"-0.006": 14.6076365791,
			"-0.005": 23.0483145232,
			"-0.004": 18.9119092639,
			"-0.003": 12.4950675542,
			"-0.002": 10.6235708505,
			"-0.001": 8.38701069083,
			"0.0": 7.06123088063,
			"0.001": 7.0903974381,
			"0.002": 7.05803341286,
			"0.003": 7.37895311092,
			"0.004": 9.37445041686,
			"0.005": 11.5962391207,
			"0.006": 23.6251314321,
			"0.007": 19.7618996742,
			"0.008": 11.7470071772,
			"0.009": 5.46195962883,
			"0.01": 0.0174632544929,
			"0.011": 0.0,
			"0.012": 0.0,
			"0.013": 0.0,
			"0.014": 0.0,
			"0.015": 0.0,
			"0.016": 0.0,
			"0.017": 0.0,
			"0.018": 0.0,
			"0.019": 0.0,
			"0.02": 0.0,
			"0.021": 0.0,
			"0.022": 0.0,
			"0.023": 0.0,
			"0.024": 0.0,
			"0.025": 0.0
		}
	}
}
