{
	 "smiles": "OC(=O)C1=C(I)C(Cl)=NC=C1", 
	 "Tm": 492.15, 
	 "num_atms": 14, 
	 "gaussian": { 
		 "optdone": 1, 
		 "sigma_profile": "yes", 
		 "theory": "DFT", 
		 "functional": "B3LYP", 
		 "basiset": "6-31G**", 
		 "properties": { 
			 "R2extent": 2517.9594, 
			 "electric_dipole_moment_norm": 2.482765442, 
			 "electric_quadrupole_moment_norm": 12.9101922244, 
			 "total_energy": -907.214906621, 
			 "HOMO_LUMO_gap": 0.18176, 
			 "cosmo_polarized_energy": -11.18, 
			 "cosmo_cavitation_energy": 24.06, 
			 "cosmo_dispersion_energy": -19.17, 
			 "cosmo_repulsion_energy": 1.51, 
			 "cosmo_total_nonelectrostatic_energy": 6.4, 
			 "SMD_solvation_energy": 3.13 
		},
		"coords": [
			{
				"x": 0.1509504712,
				"y": -2.9470594246,
				"z": -0.6529238414,
				"element": "O" 
			},
			{
				"x": 0.2223037581,
				"y": -1.9309904887,
				"z": 0.2242895645,
				"element": "C" 
			},
			{
				"x": 0.4039863798,
				"y": -2.0842219396,
				"z": 1.4121945748,
				"element": "O" 
			},
			{
				"x": 0.1456146431,
				"y": -0.5728613994,
				"z": -0.4194540241,
				"element": "C" 
			},
			{
				"x": -0.7652667882,
				"y": -0.1712181256,
				"z": -1.4116736819,
				"element": "C" 
			},
			{
				"x": -2.3229737197,
				"y": -1.4215869338,
				"z": -2.097873315,
				"element": "I" 
			},
			{
				"x": -0.6464898208,
				"y": 1.1557924093,
				"z": -1.8827350172,
				"element": "C" 
			},
			{
				"x": -1.7164041883,
				"y": 1.775903021,
				"z": -3.1247178987,
				"element": "Cl" 
			},
			{
				"x": 0.2535808207,
				"y": 2.0178199288,
				"z": -1.4450185933,
				"element": "N" 
			},
			{
				"x": 1.0976998209,
				"y": 1.6320638016,
				"z": -0.4830609747,
				"element": "C" 
			},
			{
				"x": 1.0750787915,
				"y": 0.3575756691,
				"z": 0.0638492541,
				"element": "C" 
			},
			{
				"x": 0.2175829467,
				"y": -3.7664680313,
				"z": -0.1328313747,
				"element": "H" 
			},
			{
				"x": 1.8117137535,
				"y": 2.3778154581,
				"z": -0.1432298305,
				"element": "H" 
			},
			{
				"x": 1.7580231316,
				"y": 0.066836055,
				"z": 0.8534851581,
				"element": "H" 
			}
		],
		 "valence_orbital": [ 
			{
				"type": "occ",
				"energy": -0.30687,
				"method": "rhf"
			},
			{
				"type": "occ",
				"energy": -0.29363,
				"method": "rhf"
			},
			{
				"type": "occ",
				"energy": -0.28702,
				"method": "rhf"
			},
			{
				"type": "occ",
				"energy": -0.26816,
				"method": "rhf"
			},
			{
				"type": "occ",
				"energy": -0.26001,
				"method": "rhf"
			},
			{
				"type": "unocc",
				"energy": -0.07825,
				"method": "rhf"
			},
			{
				"type": "unocc",
				"energy": -0.05858,
				"method": "rhf"
			},
			{
				"type": "unocc",
				"energy": -0.04516,
				"method": "rhf"
			},
			{
				"type": "unocc",
				"energy": 0.0065,
				"method": "rhf"
			},
			{
				"type": "unocc",
				"energy": 0.02371,
				"method": "rhf"
			}
		],
		"cosmo_sigma_profile": { 
			"-0.025": 0.0,
			"-0.024": 0.0,
			"-0.023": 0.0,
			"-0.022": 0.0,
			"-0.021": 0.0,
			"-0.02": 0.0610762474186,
			"-0.019": 0.686641096231,
			"-0.018": 1.01100435175,
			"-0.017": 1.33050707573,
			"-0.016": 0.466811320163,
			"-0.015": 0.596976517915,
			"-0.014": 0.447790834039,
			"-0.013": 1.03929599043,
			"-0.012": 1.10596970562,
			"-0.011": 0.507251005716,
			"-0.01": 0.365519867212,
			"-0.009": 2.37551803354,
			"-0.008": 7.19498760355,
			"-0.007": 6.83228013041,
			"-0.006": 6.04290200871,
			"-0.005": 6.69497272338,
			"-0.004": 6.73121298739,
			"-0.003": 13.6598685648,
			"-0.002": 17.7611952249,
			"-0.001": 17.4293459706,
			"0.0": 13.0332117438,
			"0.001": 12.9198167482,
			"0.002": 13.8854567754,
			"0.003": 18.6680162739,
			"0.004": 15.9384198327,
			"0.005": 6.16690638809,
			"0.006": 5.04763140847,
			"0.007": 4.73379966723,
			"0.008": 3.70529695154,
			"0.009": 3.50271433929,
			"0.01": 5.10531825264,
			"0.011": 4.16956122304,
			"0.012": 1.12419877233,
			"0.013": 0.458518813271,
			"0.014": 0.00942042853589,
			"0.015": 0.0,
			"0.016": 0.0,
			"0.017": 0.0,
			"0.018": 0.0,
			"0.019": 0.0,
			"0.02": 0.0,
			"0.021": 0.0,
			"0.022": 0.0,
			"0.023": 0.0,
			"0.024": 0.0,
			"0.025": 0.0
		}
	}
}
