{
	 "smiles": "CC(C)CC(N)C(O)CC(O)=O", 
	 "Tm": 482.15, 
	 "num_atms": 29, 
	 "gaussian": { 
		 "optdone": 1, 
		 "sigma_profile": "yes", 
		 "theory": "DFT", 
		 "functional": "B3LYP", 
		 "basiset": "6-31G**", 
		 "properties": { 
			 "R2extent": 3611.7173, 
			 "electric_dipole_moment_norm": 2.1358411013, 
			 "electric_quadrupole_moment_norm": 8.44073331471, 
			 "total_energy": -595.538448369, 
			 "HOMO_LUMO_gap": 0.25105, 
			 "cosmo_polarized_energy": -14.48, 
			 "cosmo_cavitation_energy": 30.07, 
			 "cosmo_dispersion_energy": -21.27, 
			 "cosmo_repulsion_energy": 1.73, 
			 "cosmo_total_nonelectrostatic_energy": 10.53, 
			 "SMD_solvation_energy": 5.24 
		},
		"coords": [
			{
				"x": 1.0124335165,
				"y": -3.3251417874,
				"z": 0.9707972356,
				"element": "C" 
			},
			{
				"x": 0.6695821346,
				"y": -1.9974942345,
				"z": 0.2777717604,
				"element": "C" 
			},
			{
				"x": -0.2353766355,
				"y": -2.242288463,
				"z": -0.9394975353,
				"element": "C" 
			},
			{
				"x": 0.0505646967,
				"y": -1.0162881368,
				"z": 1.2970875129,
				"element": "C" 
			},
			{
				"x": -0.294478788,
				"y": 0.3846513296,
				"z": 0.7627697732,
				"element": "C" 
			},
			{
				"x": 0.9192325208,
				"y": 1.0428226064,
				"z": 0.266719462,
				"element": "N" 
			},
			{
				"x": -0.9434364534,
				"y": 1.2965798065,
				"z": 1.8372943304,
				"element": "C" 
			},
			{
				"x": -2.1079391878,
				"y": 0.6944282996,
				"z": 2.3935973756,
				"element": "O" 
			},
			{
				"x": 0.0211997987,
				"y": 1.7661806882,
				"z": 2.9405755076,
				"element": "C" 
			},
			{
				"x": 0.9269361231,
				"y": 2.8971326402,
				"z": 2.506500752,
				"element": "C" 
			},
			{
				"x": 2.0767608736,
				"y": 2.9243814063,
				"z": 3.2166754428,
				"element": "O" 
			},
			{
				"x": 0.6603627744,
				"y": 3.738161077,
				"z": 1.6715154792,
				"element": "O" 
			},
			{
				"x": 0.1062045067,
				"y": -3.8154807015,
				"z": 1.3474524798,
				"element": "H" 
			},
			{
				"x": 1.5006756277,
				"y": -4.0191463564,
				"z": 0.2782627366,
				"element": "H" 
			},
			{
				"x": 1.6856778583,
				"y": -3.170526252,
				"z": 1.8209803163,
				"element": "H" 
			},
			{
				"x": 1.6160265256,
				"y": -1.5649485128,
				"z": -0.0773771538,
				"element": "H" 
			},
			{
				"x": -1.2058214344,
				"y": -2.6490944229,
				"z": -0.6299329218,
				"element": "H" 
			},
			{
				"x": 0.2224691536,
				"y": -2.9634858251,
				"z": -1.625043944,
				"element": "H" 
			},
			{
				"x": -0.4277304738,
				"y": -1.3260888043,
				"z": -1.5069472692,
				"element": "H" 
			},
			{
				"x": 0.7494349636,
				"y": -0.9177562901,
				"z": 2.1375670108,
				"element": "H" 
			},
			{
				"x": -0.8701379831,
				"y": -1.4754693036,
				"z": 1.6837658316,
				"element": "H" 
			},
			{
				"x": -1.072004604,
				"y": 0.2636645406,
				"z": -0.0107353471,
				"element": "H" 
			},
			{
				"x": 0.7059760976,
				"y": 1.983508722,
				"z": -0.0567682757,
				"element": "H" 
			},
			{
				"x": 1.3009215707,
				"y": 0.5340839838,
				"z": -0.5252795181,
				"element": "H" 
			},
			{
				"x": -1.3096251795,
				"y": 2.1961718165,
				"z": 1.3316784503,
				"element": "H" 
			},
			{
				"x": -1.82948368,
				"y": -0.068323539,
				"z": 2.9171052092,
				"element": "H" 
			},
			{
				"x": -0.5929738022,
				"y": 2.1551028827,
				"z": 3.763054779,
				"element": "H" 
			},
			{
				"x": 0.6297525352,
				"y": 0.9539035666,
				"z": 3.346677277,
				"element": "H" 
			},
			{
				"x": 2.5713969443,
				"y": 3.6970592632,
				"z": 2.8947332427,
				"element": "H" 
			}
		],
		 "valence_orbital": [ 
			{
				"type": "occ",
				"energy": -0.31433,
				"method": "rhf"
			},
			{
				"type": "occ",
				"energy": -0.30834,
				"method": "rhf"
			},
			{
				"type": "occ",
				"energy": -0.27281,
				"method": "rhf"
			},
			{
				"type": "occ",
				"energy": -0.27061,
				"method": "rhf"
			},
			{
				"type": "occ",
				"energy": -0.23644,
				"method": "rhf"
			},
			{
				"type": "unocc",
				"energy": 0.01461,
				"method": "rhf"
			},
			{
				"type": "unocc",
				"energy": 0.06865,
				"method": "rhf"
			},
			{
				"type": "unocc",
				"energy": 0.07435,
				"method": "rhf"
			},
			{
				"type": "unocc",
				"energy": 0.08447,
				"method": "rhf"
			},
			{
				"type": "unocc",
				"energy": 0.10097,
				"method": "rhf"
			}
		],
		"cosmo_sigma_profile": { 
			"-0.025": 0.0,
			"-0.024": 0.0,
			"-0.023": 0.0,
			"-0.022": 0.0,
			"-0.021": 0.0,
			"-0.02": 0.0,
			"-0.019": 0.0,
			"-0.018": 0.468650829167,
			"-0.017": 1.08450384058,
			"-0.016": 0.694273847274,
			"-0.015": 0.795957347944,
			"-0.014": 1.67753462159,
			"-0.013": 1.53332095122,
			"-0.012": 1.36688503421,
			"-0.011": 2.30035940053,
			"-0.01": 1.88484874874,
			"-0.009": 2.4835884303,
			"-0.008": 3.20793856956,
			"-0.007": 5.28751607927,
			"-0.006": 8.42979991142,
			"-0.005": 8.74981169871,
			"-0.004": 10.751584324,
			"-0.003": 15.0182021158,
			"-0.002": 27.5465145186,
			"-0.001": 25.550638189,
			"0.0": 22.3227510314,
			"0.001": 22.4311584765,
			"0.002": 13.7290837433,
			"0.003": 5.08075455966,
			"0.004": 5.04822431289,
			"0.005": 3.7466242659,
			"0.006": 4.31261723198,
			"0.007": 4.83638851422,
			"0.008": 5.04355189573,
			"0.009": 5.24970906858,
			"0.01": 4.03966114933,
			"0.011": 4.20833998569,
			"0.012": 5.73201217416,
			"0.013": 3.24614017363,
			"0.014": 2.40687005282,
			"0.015": 0.576032733285,
			"0.016": 0.398256208633,
			"0.017": 0.0276270485698,
			"0.018": 0.0,
			"0.019": 0.0,
			"0.02": 0.0,
			"0.021": 0.0,
			"0.022": 0.0,
			"0.023": 0.0,
			"0.024": 0.0,
			"0.025": 0.0
		}
	}
}
