{
	 "smiles": "NC1=C2C(=O)C3=CC=CC=C3C(=O)C2=C(Br)C=C1Br", 
	 "Tm": 500.15, 
	 "num_atms": 26, 
	 "gaussian": { 
		 "optdone": 1, 
		 "sigma_profile": "yes", 
		 "theory": "DFT", 
		 "functional": "B3LYP", 
		 "basiset": "6-31G**", 
		 "properties": { 
			 "R2extent": 9754.1395, 
			 "electric_dipole_moment_norm": 2.60093075071, 
			 "electric_quadrupole_moment_norm": 19.7800011686, 
			 "total_energy": -5885.73409335, 
			 "HOMO_LUMO_gap": 0.11328, 
			 "cosmo_polarized_energy": -10.31, 
			 "cosmo_cavitation_energy": 34.3, 
			 "cosmo_dispersion_energy": -26.77, 
			 "cosmo_repulsion_energy": 1.98, 
			 "cosmo_total_nonelectrostatic_energy": 9.51, 
			 "SMD_solvation_energy": 3.83 
		},
		"coords": [
			{
				"x": -1.5626189436,
				"y": -2.938629272,
				"z": -0.7687443752,
				"element": "N" 
			},
			{
				"x": -0.543895758,
				"y": -2.5220872448,
				"z": 0.008836915,
				"element": "C" 
			},
			{
				"x": -0.1666215956,
				"y": -1.1434616647,
				"z": 0.1154344895,
				"element": "C" 
			},
			{
				"x": -0.9315647862,
				"y": -0.14766861,
				"z": -0.6622345229,
				"element": "C" 
			},
			{
				"x": -1.881663342,
				"y": -0.4615830692,
				"z": -1.3985150187,
				"element": "O" 
			},
			{
				"x": -0.5562609553,
				"y": 1.2844857823,
				"z": -0.5649421698,
				"element": "C" 
			},
			{
				"x": -1.2792242457,
				"y": 2.2334544598,
				"z": -1.3006819643,
				"element": "C" 
			},
			{
				"x": -0.9400222324,
				"y": 3.580230909,
				"z": -1.2206558411,
				"element": "C" 
			},
			{
				"x": 0.1232489851,
				"y": 3.9906776298,
				"z": -0.405895866,
				"element": "C" 
			},
			{
				"x": 0.8438494766,
				"y": 3.05259023,
				"z": 0.326304672,
				"element": "C" 
			},
			{
				"x": 0.5069404946,
				"y": 1.6948001043,
				"z": 0.2498593999,
				"element": "C" 
			},
			{
				"x": 1.2953019337,
				"y": 0.7142552739,
				"z": 1.0443197293,
				"element": "C" 
			},
			{
				"x": 2.2176384972,
				"y": 1.1103527943,
				"z": 1.7449947287,
				"element": "O" 
			},
			{
				"x": 0.9240137568,
				"y": -0.739916756,
				"z": 0.9541910108,
				"element": "C" 
			},
			{
				"x": 1.6212996082,
				"y": -1.7164788913,
				"z": 1.6735193764,
				"element": "C" 
			},
			{
				"x": 3.0963129888,
				"y": -1.4137966028,
				"z": 2.8445215241,
				"element": "Br" 
			},
			{
				"x": 1.2551762961,
				"y": -3.0680366386,
				"z": 1.5721309466,
				"element": "C" 
			},
			{
				"x": 0.2114711682,
				"y": -3.4569865706,
				"z": 0.7697335399,
				"element": "C" 
			},
			{
				"x": -0.2295644725,
				"y": -5.3137753296,
				"z": 0.6815102587,
				"element": "Br" 
			},
			{
				"x": -1.786127641,
				"y": -3.9199144154,
				"z": -0.8077553915,
				"element": "H" 
			},
			{
				"x": -2.0684533824,
				"y": -2.2298153215,
				"z": -1.2906193043,
				"element": "H" 
			},
			{
				"x": -2.0973036178,
				"y": 1.8896964553,
				"z": -1.9234724841,
				"element": "H" 
			},
			{
				"x": -1.5012487918,
				"y": 4.3142740628,
				"z": -1.7913609253,
				"element": "H" 
			},
			{
				"x": 0.38592645,
				"y": 5.0427156476,
				"z": -0.3453044483,
				"element": "H" 
			},
			{
				"x": 1.6711888948,
				"y": 3.3417209004,
				"z": 0.9647903377,
				"element": "H" 
			},
			{
				"x": 1.8070012142,
				"y": -3.8086038634,
				"z": 2.1366353829,
				"element": "H" 
			}
		],
		 "valence_orbital": [ 
			{
				"type": "occ",
				"energy": -0.27266,
				"method": "rhf"
			},
			{
				"type": "occ",
				"energy": -0.26823,
				"method": "rhf"
			},
			{
				"type": "occ",
				"energy": -0.26756,
				"method": "rhf"
			},
			{
				"type": "occ",
				"energy": -0.24595,
				"method": "rhf"
			},
			{
				"type": "occ",
				"energy": -0.22099,
				"method": "rhf"
			},
			{
				"type": "unocc",
				"energy": -0.10771,
				"method": "rhf"
			},
			{
				"type": "unocc",
				"energy": -0.05655,
				"method": "rhf"
			},
			{
				"type": "unocc",
				"energy": -0.03174,
				"method": "rhf"
			},
			{
				"type": "unocc",
				"energy": -0.02169,
				"method": "rhf"
			},
			{
				"type": "unocc",
				"energy": -0.01116,
				"method": "rhf"
			}
		],
		"cosmo_sigma_profile": { 
			"-0.025": 0.0,
			"-0.024": 0.0,
			"-0.023": 0.0,
			"-0.022": 0.0,
			"-0.021": 0.0,
			"-0.02": 0.0,
			"-0.019": 0.0,
			"-0.018": 0.0,
			"-0.017": 0.0,
			"-0.016": 0.0,
			"-0.015": 0.0,
			"-0.014": 0.0,
			"-0.013": 0.444962373424,
			"-0.012": 0.720184064277,
			"-0.011": 0.86802704302,
			"-0.01": 1.24627415131,
			"-0.009": 2.05059574059,
			"-0.008": 2.9608021755,
			"-0.007": 7.29290409105,
			"-0.006": 11.534277901,
			"-0.005": 15.3536667331,
			"-0.004": 15.5453303069,
			"-0.003": 15.6091907001,
			"-0.002": 20.4667260045,
			"-0.001": 29.3358795043,
			"0.0": 35.3767592164,
			"0.001": 30.7968364468,
			"0.002": 27.9833755392,
			"0.003": 22.5983937978,
			"0.004": 12.6884727482,
			"0.005": 5.89058120799,
			"0.006": 4.2307814224,
			"0.007": 3.50370332576,
			"0.008": 3.45219181658,
			"0.009": 4.46720139976,
			"0.01": 4.12838894195,
			"0.011": 4.45105385475,
			"0.012": 1.02099743729,
			"0.013": 0.0,
			"0.014": 0.0,
			"0.015": 0.0,
			"0.016": 0.0,
			"0.017": 0.0,
			"0.018": 0.0,
			"0.019": 0.0,
			"0.02": 0.0,
			"0.021": 0.0,
			"0.022": 0.0,
			"0.023": 0.0,
			"0.024": 0.0,
			"0.025": 0.0
		}
	}
}
