{
	 "smiles": "CN1C(S)=NN=C1N1CCOCC1", 
	 "Tm": 468.15, 
	 "num_atms": 25, 
	 "gaussian": { 
		 "optdone": 1, 
		 "sigma_profile": "yes", 
		 "theory": "DFT", 
		 "functional": "B3LYP", 
		 "basiset": "6-31G**", 
		 "properties": { 
			 "R2extent": 3875.4082, 
			 "electric_dipole_moment_norm": 4.20137229367, 
			 "electric_quadrupole_moment_norm": 9.17700858014, 
			 "total_energy": -966.343057231, 
			 "HOMO_LUMO_gap": 0.21287, 
			 "cosmo_polarized_energy": -16.67, 
			 "cosmo_cavitation_energy": 28.55, 
			 "cosmo_dispersion_energy": -21.61, 
			 "cosmo_repulsion_energy": 1.66, 
			 "cosmo_total_nonelectrostatic_energy": 8.6, 
			 "SMD_solvation_energy": 1.42 
		},
		"coords": [
			{
				"x": -1.3213377744,
				"y": 0.9802271317,
				"z": 0.5828163525,
				"element": "C" 
			},
			{
				"x": 0.1128319579,
				"y": 1.1869850128,
				"z": 0.4784317751,
				"element": "N" 
			},
			{
				"x": 0.9619385937,
				"y": 1.77132151,
				"z": 1.3866137041,
				"element": "C" 
			},
			{
				"x": 0.3696388217,
				"y": 2.5992209334,
				"z": 2.8337720564,
				"element": "S" 
			},
			{
				"x": 2.2142358818,
				"y": 1.6352764653,
				"z": 1.0294305148,
				"element": "N" 
			},
			{
				"x": 2.2166545903,
				"y": 0.9508270896,
				"z": -0.1776623245,
				"element": "N" 
			},
			{
				"x": 0.9682018253,
				"y": 0.6895120933,
				"z": -0.4914316183,
				"element": "C" 
			},
			{
				"x": 0.4905398319,
				"y": -0.0459834186,
				"z": -1.5737560723,
				"element": "N" 
			},
			{
				"x": -0.2126694238,
				"y": 0.7178710393,
				"z": -2.6299259533,
				"element": "C" 
			},
			{
				"x": 0.7726847126,
				"y": 1.3334985051,
				"z": -3.6271243936,
				"element": "C" 
			},
			{
				"x": 1.601770395,
				"y": 0.3307796776,
				"z": -4.196233819,
				"element": "O" 
			},
			{
				"x": 2.3690071877,
				"y": -0.3342838251,
				"z": -3.1919621161,
				"element": "C" 
			},
			{
				"x": 1.4511483662,
				"y": -0.9996996683,
				"z": -2.1638111221,
				"element": "C" 
			},
			{
				"x": -1.5806956391,
				"y": 0.111675289,
				"z": -0.0255760049,
				"element": "H" 
			},
			{
				"x": -1.8839643286,
				"y": 1.8513402039,
				"z": 0.230842081,
				"element": "H" 
			},
			{
				"x": -1.589663208,
				"y": 0.7814656313,
				"z": 1.6234642441,
				"element": "H" 
			},
			{
				"x": 1.6142208337,
				"y": 2.8089409038,
				"z": 3.3023751858,
				"element": "H" 
			},
			{
				"x": -0.8328428281,
				"y": 1.4934599162,
				"z": -2.1703953767,
				"element": "H" 
			},
			{
				"x": -0.8749958166,
				"y": 0.0219353955,
				"z": -3.1585313078,
				"element": "H" 
			},
			{
				"x": 0.236206884,
				"y": 1.8074871748,
				"z": -4.4556457728,
				"element": "H" 
			},
			{
				"x": 1.3845227726,
				"y": 2.0995969069,
				"z": -3.1232289772,
				"element": "H" 
			},
			{
				"x": 2.9720428783,
				"y": -1.0851238285,
				"z": -3.7117515005,
				"element": "H" 
			},
			{
				"x": 3.0384180151,
				"y": 0.3745156715,
				"z": -2.6854193676,
				"element": "H" 
			},
			{
				"x": 0.8638807143,
				"y": -1.7843025782,
				"z": -2.6573263585,
				"element": "H" 
			},
			{
				"x": 2.0357247566,
				"y": -1.4505432323,
				"z": -1.3589638286,
				"element": "H" 
			}
		],
		 "valence_orbital": [ 
			{
				"type": "occ",
				"energy": -0.2894,
				"method": "rhf"
			},
			{
				"type": "occ",
				"energy": -0.28021,
				"method": "rhf"
			},
			{
				"type": "occ",
				"energy": -0.25238,
				"method": "rhf"
			},
			{
				"type": "occ",
				"energy": -0.24395,
				"method": "rhf"
			},
			{
				"type": "occ",
				"energy": -0.20743,
				"method": "rhf"
			},
			{
				"type": "unocc",
				"energy": 0.00544,
				"method": "rhf"
			},
			{
				"type": "unocc",
				"energy": 0.02265,
				"method": "rhf"
			},
			{
				"type": "unocc",
				"energy": 0.04675,
				"method": "rhf"
			},
			{
				"type": "unocc",
				"energy": 0.0618,
				"method": "rhf"
			},
			{
				"type": "unocc",
				"energy": 0.08064,
				"method": "rhf"
			}
		],
		"cosmo_sigma_profile": { 
			"-0.025": 0.0,
			"-0.024": 0.0,
			"-0.023": 0.0,
			"-0.022": 0.0,
			"-0.021": 0.0,
			"-0.02": 0.0,
			"-0.019": 0.0,
			"-0.018": 0.0,
			"-0.017": 0.0,
			"-0.016": 0.0,
			"-0.015": 0.0,
			"-0.014": 0.0,
			"-0.013": 0.00422830682127,
			"-0.012": 0.98570574426,
			"-0.011": 1.75433363415,
			"-0.01": 1.05917357888,
			"-0.009": 1.41044455957,
			"-0.008": 1.20606059458,
			"-0.007": 5.71188158274,
			"-0.006": 12.6613710912,
			"-0.005": 23.1171705142,
			"-0.004": 32.2334821873,
			"-0.003": 21.0630698337,
			"-0.002": 19.6240511295,
			"-0.001": 13.5847025158,
			"0.0": 10.6660217821,
			"0.001": 10.1401986127,
			"0.002": 8.83881108546,
			"0.003": 8.7509862026,
			"0.004": 7.66653948052,
			"0.005": 6.62857580409,
			"0.006": 5.88562975642,
			"0.007": 4.63054303008,
			"0.008": 3.72505114739,
			"0.009": 3.65307559904,
			"0.01": 2.04185481746,
			"0.011": 2.91274534274,
			"0.012": 4.24447724705,
			"0.013": 4.69800930143,
			"0.014": 3.6258316473,
			"0.015": 2.88489868929,
			"0.016": 1.45014974134,
			"0.017": 0.485462619344,
			"0.018": 0.0,
			"0.019": 0.0,
			"0.02": 0.0,
			"0.021": 0.0,
			"0.022": 0.0,
			"0.023": 0.0,
			"0.024": 0.0,
			"0.025": 0.0
		}
	}
}
