{
	 "smiles": "COCC(=N/OCC(=O)OC)C1=CC(OC2=CC=C(C=C2Cl)C(F)(F)F)=CC=C1N(=O)=O", 
	 "Tm": 331.15, 
	 "num_atms": 48, 
	 "gaussian": { 
		 "optdone": 1, 
		 "sigma_profile": "yes", 
		 "theory": "DFT", 
		 "functional": "B3LYP", 
		 "basiset": "6-31G**", 
		 "properties": { 
			 "R2extent": 19939.3343, 
			 "electric_dipole_moment_norm": 3.0819901898, 
			 "electric_quadrupole_moment_norm": 14.5863411005, 
			 "total_energy": -2129.25837673, 
			 "HOMO_LUMO_gap": 0.15784, 
			 "cosmo_polarized_energy": -19.16, 
			 "cosmo_cavitation_energy": 58.92, 
			 "cosmo_dispersion_energy": -37.9, 
			 "cosmo_repulsion_energy": 2.87, 
			 "cosmo_total_nonelectrostatic_energy": 23.88, 
			 "SMD_solvation_energy": 14.99 
		},
		"coords": [
			{
				"x": -0.4155733127,
				"y": -3.5029854528,
				"z": 2.6456297369,
				"element": "C" 
			},
			{
				"x": -0.5600313696,
				"y": -2.4774906666,
				"z": 1.6809970532,
				"element": "O" 
			},
			{
				"x": 0.5737714498,
				"y": -2.3506661984,
				"z": 0.8513658434,
				"element": "C" 
			},
			{
				"x": 0.2677581928,
				"y": -1.3964672584,
				"z": -0.2821717362,
				"element": "C" 
			},
			{
				"x": 1.1552816596,
				"y": -0.9941445961,
				"z": -1.1170368908,
				"element": "N" 
			},
			{
				"x": 2.4129760191,
				"y": -1.5500510671,
				"z": -0.8085516595,
				"element": "O" 
			},
			{
				"x": 3.2165472764,
				"y": -1.5388001597,
				"z": -1.9729742185,
				"element": "C" 
			},
			{
				"x": 2.8790395885,
				"y": -2.6261802203,
				"z": -2.9910491036,
				"element": "C" 
			},
			{
				"x": 3.4251302014,
				"y": -2.6956694025,
				"z": -4.0704355352,
				"element": "O" 
			},
			{
				"x": 1.9388351315,
				"y": -3.4702887031,
				"z": -2.5453608334,
				"element": "O" 
			},
			{
				"x": 1.5302416253,
				"y": -4.4969565263,
				"z": -3.4670513703,
				"element": "C" 
			},
			{
				"x": -1.0806841058,
				"y": -0.7845108678,
				"z": -0.4427564523,
				"element": "C" 
			},
			{
				"x": -1.1619362278,
				"y": 0.6109516364,
				"z": -0.4937700677,
				"element": "C" 
			},
			{
				"x": -2.4003441279,
				"y": 1.2497678523,
				"z": -0.5982847538,
				"element": "C" 
			},
			{
				"x": -2.5332650274,
				"y": 2.6137275101,
				"z": -0.7143541962,
				"element": "O" 
			},
			{
				"x": -1.6278960186,
				"y": 3.4760766637,
				"z": -0.1483669988,
				"element": "C" 
			},
			{
				"x": -1.1926413176,
				"y": 3.3381200648,
				"z": 1.1737405565,
				"element": "C" 
			},
			{
				"x": -0.3375896683,
				"y": 4.2824354046,
				"z": 1.7311498823,
				"element": "C" 
			},
			{
				"x": 0.0805435063,
				"y": 5.3791613666,
				"z": 0.9725813698,
				"element": "C" 
			},
			{
				"x": -0.3569060706,
				"y": 5.5305183017,
				"z": -0.3433035046,
				"element": "C" 
			},
			{
				"x": -1.2064201607,
				"y": 4.5796808295,
				"z": -0.9046396375,
				"element": "C" 
			},
			{
				"x": -1.7444605408,
				"y": 4.7649923339,
				"z": -2.5537033259,
				"element": "Cl" 
			},
			{
				"x": 0.9569994583,
				"y": 6.4323640371,
				"z": 1.5965764213,
				"element": "C" 
			},
			{
				"x": 1.6831046851,
				"y": 7.094942153,
				"z": 0.6713840232,
				"element": "F" 
			},
			{
				"x": 0.2266898565,
				"y": 7.3551291612,
				"z": 2.2628591897,
				"element": "F" 
			},
			{
				"x": 1.8180432128,
				"y": 5.8952543921,
				"z": 2.488364514,
				"element": "F" 
			},
			{
				"x": -3.5852054068,
				"y": 0.5116746254,
				"z": -0.6487347207,
				"element": "C" 
			},
			{
				"x": -3.5185540237,
				"y": -0.8740846122,
				"z": -0.607867772,
				"element": "C" 
			},
			{
				"x": -2.2819633486,
				"y": -1.5123274761,
				"z": -0.5183317649,
				"element": "C" 
			},
			{
				"x": -2.2857923151,
				"y": -2.9759543985,
				"z": -0.5833188226,
				"element": "N" 
			},
			{
				"x": -3.3229147913,
				"y": -3.5593805841,
				"z": -0.2711390828,
				"element": "O" 
			},
			{
				"x": -1.2661774038,
				"y": -3.5379594965,
				"z": -0.9883668465,
				"element": "O" 
			},
			{
				"x": -1.3368873933,
				"y": -3.5239331159,
				"z": 3.2314255519,
				"element": "H" 
			},
			{
				"x": 0.4332299944,
				"y": -3.3100546364,
				"z": 3.3192858562,
				"element": "H" 
			},
			{
				"x": -0.2700308901,
				"y": -4.483847276,
				"z": 2.1698389911,
				"element": "H" 
			},
			{
				"x": 1.4359579845,
				"y": -1.9606874857,
				"z": 1.4157234474,
				"element": "H" 
			},
			{
				"x": 0.8799533164,
				"y": -3.3137022425,
				"z": 0.418230095,
				"element": "H" 
			},
			{
				"x": 3.15671466,
				"y": -0.5723803008,
				"z": -2.4845959375,
				"element": "H" 
			},
			{
				"x": 4.2457586963,
				"y": -1.6935119351,
				"z": -1.6352873874,
				"element": "H" 
			},
			{
				"x": 1.2496885249,
				"y": -4.0577192456,
				"z": -4.4268344549,
				"element": "H" 
			},
			{
				"x": 0.6751989303,
				"y": -4.9822711174,
				"z": -2.9983370884,
				"element": "H" 
			},
			{
				"x": 2.3433243677,
				"y": -5.2099716978,
				"z": -3.6274364006,
				"element": "H" 
			},
			{
				"x": -0.2455140434,
				"y": 1.1855151019,
				"z": -0.4467990276,
				"element": "H" 
			},
			{
				"x": -1.5316606343,
				"y": 2.4883384154,
				"z": 1.7560641964,
				"element": "H" 
			},
			{
				"x": 0.0038816208,
				"y": 4.1681535738,
				"z": 2.7538052527,
				"element": "H" 
			},
			{
				"x": -0.0311274024,
				"y": 6.3746255064,
				"z": -0.9389714374,
				"element": "H" 
			},
			{
				"x": -4.5333187442,
				"y": 1.0310686007,
				"z": -0.7289161159,
				"element": "H" 
			},
			{
				"x": -4.4142756137,
				"y": -1.4805007909,
				"z": -0.6542748374,
				"element": "H" 
			}
		],
		 "valence_orbital": [ 
			{
				"type": "occ",
				"energy": -0.28013,
				"method": "rhf"
			},
			{
				"type": "occ",
				"energy": -0.27273,
				"method": "rhf"
			},
			{
				"type": "occ",
				"energy": -0.27,
				"method": "rhf"
			},
			{
				"type": "occ",
				"energy": -0.25317,
				"method": "rhf"
			},
			{
				"type": "occ",
				"energy": -0.2485,
				"method": "rhf"
			},
			{
				"type": "unocc",
				"energy": -0.09066,
				"method": "rhf"
			},
			{
				"type": "unocc",
				"energy": -0.04953,
				"method": "rhf"
			},
			{
				"type": "unocc",
				"energy": -0.04502,
				"method": "rhf"
			},
			{
				"type": "unocc",
				"energy": -0.03853,
				"method": "rhf"
			},
			{
				"type": "unocc",
				"energy": -0.01351,
				"method": "rhf"
			}
		],
		"cosmo_sigma_profile": { 
			"-0.025": 0.0,
			"-0.024": 0.0,
			"-0.023": 0.0,
			"-0.022": 0.0,
			"-0.021": 0.0,
			"-0.02": 0.0,
			"-0.019": 0.0,
			"-0.018": 0.0,
			"-0.017": 0.0,
			"-0.016": 0.0,
			"-0.015": 0.0,
			"-0.014": 0.0,
			"-0.013": 0.0,
			"-0.012": 0.0,
			"-0.011": 0.0,
			"-0.01": 0.0,
			"-0.009": 3.19978267404,
			"-0.008": 11.0730847613,
			"-0.007": 16.2335480967,
			"-0.006": 20.205262002,
			"-0.005": 30.5325100005,
			"-0.004": 35.8737637228,
			"-0.003": 38.4227331406,
			"-0.002": 30.8751212158,
			"-0.001": 32.9705675569,
			"0.0": 42.6161184979,
			"0.001": 36.9437937307,
			"0.002": 39.877714022,
			"0.003": 42.1212211708,
			"0.004": 21.6526932096,
			"0.005": 15.2921215545,
			"0.006": 13.2696269362,
			"0.007": 12.0460879104,
			"0.008": 8.59439749009,
			"0.009": 7.10545000541,
			"0.01": 4.92710071136,
			"0.011": 4.85712381692,
			"0.012": 4.02533619003,
			"0.013": 0.331072686638,
			"0.014": 0.0,
			"0.015": 0.0,
			"0.016": 0.0,
			"0.017": 0.0,
			"0.018": 0.0,
			"0.019": 0.0,
			"0.02": 0.0,
			"0.021": 0.0,
			"0.022": 0.0,
			"0.023": 0.0,
			"0.024": 0.0,
			"0.025": 0.0
		}
	}
}
