{
	 "smiles": "SC1=NCC(=O)N1CC1=CC=CC=C1", 
	 "Tm": 290.15, 
	 "num_atms": 24, 
	 "gaussian": { 
		 "optdone": 1, 
		 "sigma_profile": "yes", 
		 "theory": "DFT", 
		 "functional": "B3LYP", 
		 "basiset": "6-31G**", 
		 "properties": { 
			 "R2extent": 3863.6136, 
			 "electric_dipole_moment_norm": 1.97885385261, 
			 "electric_quadrupole_moment_norm": 6.27401046142, 
			 "total_energy": -970.006444499, 
			 "HOMO_LUMO_gap": 0.22077, 
			 "cosmo_polarized_energy": -11.71, 
			 "cosmo_cavitation_energy": 29.53, 
			 "cosmo_dispersion_energy": -21.6, 
			 "cosmo_repulsion_energy": 1.66, 
			 "cosmo_total_nonelectrostatic_energy": 9.6, 
			 "SMD_solvation_energy": 1.63 
		},
		"coords": [
			{
				"x": -3.7757171288,
				"y": 0.38581624,
				"z": 0.7217727893,
				"element": "S" 
			},
			{
				"x": -2.3824237403,
				"y": -0.621954423,
				"z": 1.153886908,
				"element": "C" 
			},
			{
				"x": -2.402901273,
				"y": -1.9013801394,
				"z": 1.2260639857,
				"element": "N" 
			},
			{
				"x": -1.0510301062,
				"y": -2.2954536187,
				"z": 1.6274703939,
				"element": "C" 
			},
			{
				"x": -0.245292631,
				"y": -1.0047430029,
				"z": 1.7689113567,
				"element": "C" 
			},
			{
				"x": 0.9182057115,
				"y": -0.8295318237,
				"z": 2.0756982769,
				"element": "O" 
			},
			{
				"x": -1.163949527,
				"y": -0.00062118,
				"z": 1.458338911,
				"element": "N" 
			},
			{
				"x": -0.829131969,
				"y": 1.4251610178,
				"z": 1.4863623708,
				"element": "C" 
			},
			{
				"x": -0.4393746724,
				"y": 1.9987330477,
				"z": 0.1363974622,
				"element": "C" 
			},
			{
				"x": 0.752095261,
				"y": 1.5907105022,
				"z": -0.4810930568,
				"element": "C" 
			},
			{
				"x": 1.1185061176,
				"y": 2.1168645842,
				"z": -1.7186986694,
				"element": "C" 
			},
			{
				"x": 0.303991874,
				"y": 3.0608133823,
				"z": -2.3509268579,
				"element": "C" 
			},
			{
				"x": -0.8782255548,
				"y": 3.4764021502,
				"z": -1.7388886147,
				"element": "C" 
			},
			{
				"x": -1.2474713505,
				"y": 2.9458769847,
				"z": -0.500403119,
				"element": "C" 
			},
			{
				"x": -4.6094928163,
				"y": -0.6707331113,
				"z": 0.6852494897,
				"element": "H" 
			},
			{
				"x": -0.5922037775,
				"y": -2.9526830124,
				"z": 0.8794548972,
				"element": "H" 
			},
			{
				"x": -1.0632951639,
				"y": -2.8456368742,
				"z": 2.5758623657,
				"element": "H" 
			},
			{
				"x": -1.676583165,
				"y": 1.9724086475,
				"z": 1.9101536016,
				"element": "H" 
			},
			{
				"x": 0.0078341942,
				"y": 1.5038371416,
				"z": 2.1869454708,
				"element": "H" 
			},
			{
				"x": 1.3881523907,
				"y": 0.8644863501,
				"z": 0.0175474382,
				"element": "H" 
			},
			{
				"x": 2.0437587168,
				"y": 1.795388552,
				"z": -2.1883801442,
				"element": "H" 
			},
			{
				"x": 0.5927717877,
				"y": 3.4716070465,
				"z": -3.3141168764,
				"element": "H" 
			},
			{
				"x": -1.5149984911,
				"y": 4.2112674855,
				"z": -2.2229597545,
				"element": "H" 
			},
			{
				"x": -2.1696246867,
				"y": 3.2730640533,
				"z": -0.026448625,
				"element": "H" 
			}
		],
		 "valence_orbital": [ 
			{
				"type": "occ",
				"energy": -0.27833,
				"method": "rhf"
			},
			{
				"type": "occ",
				"energy": -0.25732,
				"method": "rhf"
			},
			{
				"type": "occ",
				"energy": -0.25377,
				"method": "rhf"
			},
			{
				"type": "occ",
				"energy": -0.25297,
				"method": "rhf"
			},
			{
				"type": "occ",
				"energy": -0.24052,
				"method": "rhf"
			},
			{
				"type": "unocc",
				"energy": -0.01975,
				"method": "rhf"
			},
			{
				"type": "unocc",
				"energy": -0.01167,
				"method": "rhf"
			},
			{
				"type": "unocc",
				"energy": -0.00723,
				"method": "rhf"
			},
			{
				"type": "unocc",
				"energy": 0.00702,
				"method": "rhf"
			},
			{
				"type": "unocc",
				"energy": 0.03546,
				"method": "rhf"
			}
		],
		"cosmo_sigma_profile": { 
			"-0.025": 0.0,
			"-0.024": 0.0,
			"-0.023": 0.0,
			"-0.022": 0.0,
			"-0.021": 0.0,
			"-0.02": 0.0,
			"-0.019": 0.0,
			"-0.018": 0.0,
			"-0.017": 0.0,
			"-0.016": 0.0,
			"-0.015": 0.0,
			"-0.014": 0.0,
			"-0.013": 0.0399878553344,
			"-0.012": 1.16522480799,
			"-0.011": 1.46184616413,
			"-0.01": 1.47600105781,
			"-0.009": 0.920454007012,
			"-0.008": 3.86033482969,
			"-0.007": 8.55386393892,
			"-0.006": 15.1149883222,
			"-0.005": 19.2670313888,
			"-0.004": 21.7622938271,
			"-0.003": 18.134302125,
			"-0.002": 14.2288345905,
			"-0.001": 15.6094560401,
			"0.0": 14.5132304563,
			"0.001": 13.2706475003,
			"0.002": 14.2407861278,
			"0.003": 13.8289071574,
			"0.004": 14.3018820915,
			"0.005": 13.994605548,
			"0.006": 9.47786403688,
			"0.007": 2.53288943858,
			"0.008": 2.14518056189,
			"0.009": 2.55462177485,
			"0.01": 2.42370239236,
			"0.011": 3.43052432332,
			"0.012": 5.18624307089,
			"0.013": 2.54173951389,
			"0.014": 0.914464699177,
			"0.015": 0.884856392524,
			"0.016": 0.444851664611,
			"0.017": 0.0179431521561,
			"0.018": 0.0,
			"0.019": 0.0,
			"0.02": 0.0,
			"0.021": 0.0,
			"0.022": 0.0,
			"0.023": 0.0,
			"0.024": 0.0,
			"0.025": 0.0
		}
	}
}
