{
	 "smiles": "CC1=CNC(=O)NC1=O", 
	 "Tm": 589.15, 
	 "num_atms": 15, 
	 "gaussian": { 
		 "optdone": 1, 
		 "sigma_profile": "yes", 
		 "theory": "DFT", 
		 "functional": "B3LYP", 
		 "basiset": "6-31G**", 
		 "properties": { 
			 "R2extent": 1400.2074, 
			 "electric_dipole_moment_norm": 4.12546704508, 
			 "electric_quadrupole_moment_norm": 7.83878025461, 
			 "total_energy": -454.140026855, 
			 "HOMO_LUMO_gap": 0.20364, 
			 "cosmo_polarized_energy": -16.84, 
			 "cosmo_cavitation_energy": 19.47, 
			 "cosmo_dispersion_energy": -14.7, 
			 "cosmo_repulsion_energy": 1.22, 
			 "cosmo_total_nonelectrostatic_energy": 5.99, 
			 "SMD_solvation_energy": 5.39 
		},
		"coords": [
			{
				"x": -1.3874997005,
				"y": -1.5840311893,
				"z": 0.8934309682,
				"element": "C" 
			},
			{
				"x": -0.736616055,
				"y": -0.690738632,
				"z": -0.1217223067,
				"element": "C" 
			},
			{
				"x": 0.4463920959,
				"y": -0.9594197656,
				"z": -0.7187859787,
				"element": "C" 
			},
			{
				"x": 1.0195622186,
				"y": -0.1166015854,
				"z": -1.6497622526,
				"element": "N" 
			},
			{
				"x": 0.4493948277,
				"y": 1.0806565552,
				"z": -2.0661159535,
				"element": "C" 
			},
			{
				"x": 0.9657884176,
				"y": 1.815243396,
				"z": -2.8885122131,
				"element": "O" 
			},
			{
				"x": -0.7621575427,
				"y": 1.3364204635,
				"z": -1.4418887032,
				"element": "N" 
			},
			{
				"x": -1.4319750027,
				"y": 0.5506316977,
				"z": -0.4855090932,
				"element": "C" 
			},
			{
				"x": -2.5031121174,
				"y": 0.915538616,
				"z": -0.0245618335,
				"element": "O" 
			},
			{
				"x": -0.7830709076,
				"y": -2.4747160711,
				"z": 1.0849282764,
				"element": "H" 
			},
			{
				"x": -1.5378895432,
				"y": -1.0528375701,
				"z": 1.8391165173,
				"element": "H" 
			},
			{
				"x": -2.3793794219,
				"y": -1.9001904066,
				"z": 0.553848866,
				"element": "H" 
			},
			{
				"x": 1.0155147592,
				"y": -1.8568210158,
				"z": -0.4994368237,
				"element": "H" 
			},
			{
				"x": 1.9042506108,
				"y": -0.340492888,
				"z": -2.0810669733,
				"element": "H" 
			},
			{
				"x": -1.2196026387,
				"y": 2.1990583957,
				"z": -1.7112624964,
				"element": "H" 
			}
		],
		 "valence_orbital": [ 
			{
				"type": "occ",
				"energy": -0.35729,
				"method": "rhf"
			},
			{
				"type": "occ",
				"energy": -0.29194,
				"method": "rhf"
			},
			{
				"type": "occ",
				"energy": -0.28378,
				"method": "rhf"
			},
			{
				"type": "occ",
				"energy": -0.26302,
				"method": "rhf"
			},
			{
				"type": "occ",
				"energy": -0.24123,
				"method": "rhf"
			},
			{
				"type": "unocc",
				"energy": -0.03759,
				"method": "rhf"
			},
			{
				"type": "unocc",
				"energy": 0.0134,
				"method": "rhf"
			},
			{
				"type": "unocc",
				"energy": 0.0576,
				"method": "rhf"
			},
			{
				"type": "unocc",
				"energy": 0.09904,
				"method": "rhf"
			},
			{
				"type": "unocc",
				"energy": 0.11005,
				"method": "rhf"
			}
		],
		"cosmo_sigma_profile": { 
			"-0.025": 0.0,
			"-0.024": 0.0,
			"-0.023": 0.0,
			"-0.022": 0.0,
			"-0.021": 0.0,
			"-0.02": 0.0,
			"-0.019": 0.0,
			"-0.018": 0.0,
			"-0.017": 0.641790775275,
			"-0.016": 1.97809697157,
			"-0.015": 2.0809620325,
			"-0.014": 2.1063388656,
			"-0.013": 1.93783317592,
			"-0.012": 1.6147711566,
			"-0.011": 2.14838689511,
			"-0.01": 3.45259379663,
			"-0.009": 3.61043911719,
			"-0.008": 2.87575631365,
			"-0.007": 4.08425445109,
			"-0.006": 3.78799159445,
			"-0.005": 3.83537622031,
			"-0.004": 8.81562528142,
			"-0.003": 10.97353433,
			"-0.002": 14.2597517262,
			"-0.001": 16.7540986164,
			"0.0": 15.6292371344,
			"0.001": 7.29712119336,
			"0.002": 3.36171015139,
			"0.003": 2.32210534625,
			"0.004": 2.52928862409,
			"0.005": 1.57780689612,
			"0.006": 2.05631039859,
			"0.007": 3.34375199202,
			"0.008": 1.89951228139,
			"0.009": 2.79686511401,
			"0.01": 2.98526290188,
			"0.011": 3.47978073247,
			"0.012": 6.98262051557,
			"0.013": 11.350179423,
			"0.014": 2.06568523142,
			"0.015": 0.0,
			"0.016": 0.0,
			"0.017": 0.0,
			"0.018": 0.0,
			"0.019": 0.0,
			"0.02": 0.0,
			"0.021": 0.0,
			"0.022": 0.0,
			"0.023": 0.0,
			"0.024": 0.0,
			"0.025": 0.0
		}
	}
}
