{
	 "smiles": "OC1=C(C=CC=N1)C(=O)N1CCCNCC1", 
	 "Tm": 431.15, 
	 "num_atms": 31, 
	 "gaussian": { 
		 "optdone": 1, 
		 "sigma_profile": "yes", 
		 "theory": "DFT", 
		 "functional": "B3LYP", 
		 "basiset": "6-31G**", 
		 "properties": { 
			 "R2extent": 4150.095, 
			 "electric_dipole_moment_norm": 6.65723480583, 
			 "electric_quadrupole_moment_norm": 15.6214095334, 
			 "total_energy": -742.918214452, 
			 "HOMO_LUMO_gap": 0.18251, 
			 "cosmo_polarized_energy": -16.15, 
			 "cosmo_cavitation_energy": 31.64, 
			 "cosmo_dispersion_energy": -23.89, 
			 "cosmo_repulsion_energy": 1.83, 
			 "cosmo_total_nonelectrostatic_energy": 9.58, 
			 "SMD_solvation_energy": 1.68 
		},
		"coords": [
			{
				"x": 0.4915410493,
				"y": 2.684265628,
				"z": 2.6902064008,
				"element": "O" 
			},
			{
				"x": 1.3831070741,
				"y": 1.7980394651,
				"z": 2.2512815459,
				"element": "C" 
			},
			{
				"x": 1.0927222529,
				"y": 0.9138463186,
				"z": 1.1628342558,
				"element": "C" 
			},
			{
				"x": 2.1592861088,
				"y": 0.147529634,
				"z": 0.6777135278,
				"element": "C" 
			},
			{
				"x": 3.3983165558,
				"y": 0.186739887,
				"z": 1.3094825847,
				"element": "C" 
			},
			{
				"x": 3.5228757349,
				"y": 1.0016822254,
				"z": 2.4361767948,
				"element": "C" 
			},
			{
				"x": 2.5550519594,
				"y": 1.7952830961,
				"z": 2.8939090301,
				"element": "N" 
			},
			{
				"x": -0.2782767069,
				"y": 0.9563673898,
				"z": 0.5728161149,
				"element": "C" 
			},
			{
				"x": -0.9443328016,
				"y": 2.0098261176,
				"z": 0.6762025867,
				"element": "O" 
			},
			{
				"x": -0.8324443875,
				"y": -0.1137877343,
				"z": -0.0789229458,
				"element": "N" 
			},
			{
				"x": -2.1551824866,
				"y": 0.160827741,
				"z": -0.6829283204,
				"element": "C" 
			},
			{
				"x": -2.7239052145,
				"y": -0.9638747784,
				"z": -1.553558502,
				"element": "C" 
			},
			{
				"x": -1.7775422184,
				"y": -1.5484951905,
				"z": -2.6142234867,
				"element": "C" 
			},
			{
				"x": -0.9431810564,
				"y": -2.618141411,
				"z": -2.0613981576,
				"element": "N" 
			},
			{
				"x": 0.1257752779,
				"y": -2.1760740514,
				"z": -1.1739565101,
				"element": "C" 
			},
			{
				"x": -0.4082670632,
				"y": -1.5069633945,
				"z": 0.1028403845,
				"element": "C" 
			},
			{
				"x": -0.242464277,
				"y": 2.6862476294,
				"z": 2.0209518088,
				"element": "H" 
			},
			{
				"x": 2.0283868104,
				"y": -0.4638403308,
				"z": -0.2077337184,
				"element": "H" 
			},
			{
				"x": 4.2371319281,
				"y": -0.3966343923,
				"z": 0.9462384565,
				"element": "H" 
			},
			{
				"x": 4.4606097925,
				"y": 1.0321695882,
				"z": 2.9899014349,
				"element": "H" 
			},
			{
				"x": -2.8702997513,
				"y": 0.4099260014,
				"z": 0.1110798763,
				"element": "H" 
			},
			{
				"x": -2.0452461675,
				"y": 1.070657144,
				"z": -1.2796975973,
				"element": "H" 
			},
			{
				"x": -3.0980123908,
				"y": -1.7935371323,
				"z": -0.9443585036,
				"element": "H" 
			},
			{
				"x": -3.5988644219,
				"y": -0.5321061293,
				"z": -2.0539285238,
				"element": "H" 
			},
			{
				"x": -1.1897182832,
				"y": -0.7317062118,
				"z": -3.0759394314,
				"element": "H" 
			},
			{
				"x": -2.3799445062,
				"y": -1.9963241349,
				"z": -3.4114568867,
				"element": "H" 
			},
			{
				"x": -0.5390264653,
				"y": -3.1564242196,
				"z": -2.8221272238,
				"element": "H" 
			},
			{
				"x": 0.6978166082,
				"y": -3.0639904828,
				"z": -0.8788977157,
				"element": "H" 
			},
			{
				"x": 0.8307120551,
				"y": -1.4760796339,
				"z": -1.6620976644,
				"element": "H" 
			},
			{
				"x": -1.2559156182,
				"y": -2.0927096981,
				"z": 0.4762300189,
				"element": "H" 
			},
			{
				"x": 0.3553906092,
				"y": -1.5293189395,
				"z": 0.8787603663,
				"element": "H" 
			}
		],
		 "valence_orbital": [ 
			{
				"type": "occ",
				"energy": -0.27241,
				"method": "rhf"
			},
			{
				"type": "occ",
				"energy": -0.25537,
				"method": "rhf"
			},
			{
				"type": "occ",
				"energy": -0.25423,
				"method": "rhf"
			},
			{
				"type": "occ",
				"energy": -0.237,
				"method": "rhf"
			},
			{
				"type": "occ",
				"energy": -0.23056,
				"method": "rhf"
			},
			{
				"type": "unocc",
				"energy": -0.04805,
				"method": "rhf"
			},
			{
				"type": "unocc",
				"energy": -0.00411,
				"method": "rhf"
			},
			{
				"type": "unocc",
				"energy": 0.03875,
				"method": "rhf"
			},
			{
				"type": "unocc",
				"energy": 0.06521,
				"method": "rhf"
			},
			{
				"type": "unocc",
				"energy": 0.08436,
				"method": "rhf"
			}
		],
		"cosmo_sigma_profile": { 
			"-0.025": 0.0,
			"-0.024": 0.0,
			"-0.023": 0.0,
			"-0.022": 0.0,
			"-0.021": 0.0,
			"-0.02": 0.0,
			"-0.019": 0.0,
			"-0.018": 0.0,
			"-0.017": 0.0,
			"-0.016": 0.0,
			"-0.015": 0.0,
			"-0.014": 0.0,
			"-0.013": 0.0,
			"-0.012": 0.0,
			"-0.011": 0.156897762377,
			"-0.01": 1.42222439714,
			"-0.009": 0.817827030642,
			"-0.008": 1.52275874556,
			"-0.007": 5.54939351559,
			"-0.006": 11.6652440528,
			"-0.005": 16.9074248432,
			"-0.004": 27.4646241761,
			"-0.003": 31.1125570263,
			"-0.002": 28.3120839781,
			"-0.001": 23.9334019601,
			"0.0": 18.3162197624,
			"0.001": 13.3827220296,
			"0.002": 12.3007941408,
			"0.003": 7.24138178981,
			"0.004": 4.9721751122,
			"0.005": 4.24110017121,
			"0.006": 4.29388788967,
			"0.007": 3.79650808175,
			"0.008": 4.19735816165,
			"0.009": 3.97931348544,
			"0.01": 4.89496459163,
			"0.011": 4.25144919635,
			"0.012": 5.63932981494,
			"0.013": 2.96517142352,
			"0.014": 2.20038488647,
			"0.015": 1.61660781467,
			"0.016": 1.39525278308,
			"0.017": 0.477974407783,
			"0.018": 0.0609817600872,
			"0.019": 0.0,
			"0.02": 0.0,
			"0.021": 0.0,
			"0.022": 0.0,
			"0.023": 0.0,
			"0.024": 0.0,
			"0.025": 0.0
		}
	}
}
