{
	 "smiles": "CC1CCC(C(C1)OC(C)=O)C(C)=C", 
	 "Tm": 358.15, 
	 "num_atms": 34, 
	 "gaussian": { 
		 "optdone": 1, 
		 "sigma_profile": "yes", 
		 "theory": "DFT", 
		 "functional": "B3LYP", 
		 "basiset": "6-31G**", 
		 "properties": { 
			 "R2extent": 3436.9752, 
			 "electric_dipole_moment_norm": 1.63088594942, 
			 "electric_quadrupole_moment_norm": 10.3773247367, 
			 "total_energy": -619.788513172, 
			 "HOMO_LUMO_gap": 0.25613, 
			 "cosmo_polarized_energy": -7.25, 
			 "cosmo_cavitation_energy": 34.23, 
			 "cosmo_dispersion_energy": -23.11, 
			 "cosmo_repulsion_energy": 1.84, 
			 "cosmo_total_nonelectrostatic_energy": 12.96, 
			 "SMD_solvation_energy": 7.21 
		},
		"coords": [
			{
				"x": 1.8464106844,
				"y": 1.9018589874,
				"z": 2.1962459026,
				"element": "C" 
			},
			{
				"x": 0.5659939457,
				"y": 1.2530047937,
				"z": 1.6543202055,
				"element": "C" 
			},
			{
				"x": 0.05026804,
				"y": 1.9630165425,
				"z": 0.3695077535,
				"element": "C" 
			},
			{
				"x": 0.507194559,
				"y": 1.2422557119,
				"z": -0.9054266985,
				"element": "C" 
			},
			{
				"x": -0.1077183533,
				"y": -0.1820057041,
				"z": -1.0150959127,
				"element": "C" 
			},
			{
				"x": -0.2475852984,
				"y": -0.7958095651,
				"z": 0.4103391089,
				"element": "C" 
			},
			{
				"x": 0.7865183877,
				"y": -0.2596284276,
				"z": 1.400219031,
				"element": "C" 
			},
			{
				"x": -0.1628507872,
				"y": -2.2402565239,
				"z": 0.3052708822,
				"element": "O" 
			},
			{
				"x": -0.9001086766,
				"y": -2.9710998624,
				"z": 1.1746650468,
				"element": "C" 
			},
			{
				"x": -0.7024722211,
				"y": -4.4482042916,
				"z": 0.925632512,
				"element": "C" 
			},
			{
				"x": -1.6138815156,
				"y": -2.4949907482,
				"z": 2.0311627319,
				"element": "O" 
			},
			{
				"x": 0.6441580226,
				"y": -1.0399775842,
				"z": -2.0261820787,
				"element": "C" 
			},
			{
				"x": 2.0573269645,
				"y": -1.4768117736,
				"z": -1.7164542289,
				"element": "C" 
			},
			{
				"x": 0.0627153221,
				"y": -1.3665944165,
				"z": -3.1855866706,
				"element": "C" 
			},
			{
				"x": 2.2198038513,
				"y": 1.3696564281,
				"z": 3.0782652343,
				"element": "H" 
			},
			{
				"x": 1.671906174,
				"y": 2.9446073692,
				"z": 2.4824716077,
				"element": "H" 
			},
			{
				"x": 2.6433813081,
				"y": 1.8915753194,
				"z": 1.4425483971,
				"element": "H" 
			},
			{
				"x": -0.2101999071,
				"y": 1.3496998016,
				"z": 2.424355914,
				"element": "H" 
			},
			{
				"x": 0.3923959014,
				"y": 3.0044873814,
				"z": 0.3575857504,
				"element": "H" 
			},
			{
				"x": -1.0466015747,
				"y": 2.0046518311,
				"z": 0.380284397,
				"element": "H" 
			},
			{
				"x": 1.6020065577,
				"y": 1.1803403655,
				"z": -0.9082442412,
				"element": "H" 
			},
			{
				"x": 0.2339138922,
				"y": 1.8133322235,
				"z": -1.7986698636,
				"element": "H" 
			},
			{
				"x": -1.125726892,
				"y": -0.0661196938,
				"z": -1.4050521457,
				"element": "H" 
			},
			{
				"x": -1.2417162913,
				"y": -0.5663650613,
				"z": 0.8033321352,
				"element": "H" 
			},
			{
				"x": 0.7066245214,
				"y": -0.8112445212,
				"z": 2.3420646329,
				"element": "H" 
			},
			{
				"x": 1.7962712565,
				"y": -0.4356711432,
				"z": 1.0098243825,
				"element": "H" 
			},
			{
				"x": -0.9054416421,
				"y": -4.6851444833,
				"z": -0.1223827923,
				"element": "H" 
			},
			{
				"x": -1.3640817902,
				"y": -5.0179264661,
				"z": 1.5774211166,
				"element": "H" 
			},
			{
				"x": 0.33796869,
				"y": -4.7224807116,
				"z": 1.1261142651,
				"element": "H" 
			},
			{
				"x": 2.4944006601,
				"y": -2.0110923474,
				"z": -2.5644377808,
				"element": "H" 
			},
			{
				"x": 2.7115839255,
				"y": -0.6274831607,
				"z": -1.4863526792,
				"element": "H" 
			},
			{
				"x": 2.0753783262,
				"y": -2.1430330767,
				"z": -0.8479319158,
				"element": "H" 
			},
			{
				"x": -0.9564904543,
				"y": -1.0702259426,
				"z": -3.4191548704,
				"element": "H" 
			},
			{
				"x": 0.5859544133,
				"y": -1.9441212501,
				"z": -3.9430591288,
				"element": "H" 
			}
		],
		 "valence_orbital": [ 
			{
				"type": "occ",
				"energy": -0.31135,
				"method": "rhf"
			},
			{
				"type": "occ",
				"energy": -0.29924,
				"method": "rhf"
			},
			{
				"type": "occ",
				"energy": -0.28209,
				"method": "rhf"
			},
			{
				"type": "occ",
				"energy": -0.26618,
				"method": "rhf"
			},
			{
				"type": "occ",
				"energy": -0.24051,
				"method": "rhf"
			},
			{
				"type": "unocc",
				"energy": 0.01562,
				"method": "rhf"
			},
			{
				"type": "unocc",
				"energy": 0.02711,
				"method": "rhf"
			},
			{
				"type": "unocc",
				"energy": 0.07449,
				"method": "rhf"
			},
			{
				"type": "unocc",
				"energy": 0.0885,
				"method": "rhf"
			},
			{
				"type": "unocc",
				"energy": 0.09672,
				"method": "rhf"
			}
		],
		"cosmo_sigma_profile": { 
			"-0.025": 0.0,
			"-0.024": 0.0,
			"-0.023": 0.0,
			"-0.022": 0.0,
			"-0.021": 0.0,
			"-0.02": 0.0,
			"-0.019": 0.0,
			"-0.018": 0.0,
			"-0.017": 0.0,
			"-0.016": 0.0,
			"-0.015": 0.0,
			"-0.014": 0.0,
			"-0.013": 0.0,
			"-0.012": 0.0,
			"-0.011": 0.0,
			"-0.01": 0.0,
			"-0.009": 0.0,
			"-0.008": 0.0,
			"-0.007": 0.648296532339,
			"-0.006": 4.00615676994,
			"-0.005": 6.04036531622,
			"-0.004": 18.0811586377,
			"-0.003": 32.1889426559,
			"-0.002": 44.6933491749,
			"-0.001": 40.6788875756,
			"0.0": 33.5203350238,
			"0.001": 27.8162130582,
			"0.002": 13.0134124446,
			"0.003": 8.01883845912,
			"0.004": 5.74851519755,
			"0.005": 4.93467886192,
			"0.006": 5.32998834778,
			"0.007": 4.12858445318,
			"0.008": 2.60065063382,
			"0.009": 2.99156952811,
			"0.01": 1.61873186382,
			"0.011": 2.71267452697,
			"0.012": 4.58322208091,
			"0.013": 1.84402948166,
			"0.014": 0.109098004949,
			"0.015": 0.0,
			"0.016": 0.0,
			"0.017": 0.0,
			"0.018": 0.0,
			"0.019": 0.0,
			"0.02": 0.0,
			"0.021": 0.0,
			"0.022": 0.0,
			"0.023": 0.0,
			"0.024": 0.0,
			"0.025": 0.0
		}
	}
}
