{
	 "smiles": "CS(=O)(=O)NC1=C(F)C=CC(=C1)C(O)=O", 
	 "Tm": 524.15, 
	 "num_atms": 23, 
	 "gaussian": { 
		 "optdone": 1, 
		 "sigma_profile": "yes", 
		 "theory": "DFT", 
		 "functional": "B3LYP", 
		 "basiset": "6-31G**", 
		 "properties": { 
			 "R2extent": 4880.1829, 
			 "electric_dipole_moment_norm": 3.97746122168, 
			 "electric_quadrupole_moment_norm": 30.8996601659, 
			 "total_energy": -1163.28202294, 
			 "HOMO_LUMO_gap": 0.19374, 
			 "cosmo_polarized_energy": -22.03, 
			 "cosmo_cavitation_energy": 29.89, 
			 "cosmo_dispersion_energy": -21.82, 
			 "cosmo_repulsion_energy": 1.64, 
			 "cosmo_total_nonelectrostatic_energy": 9.71, 
			 "SMD_solvation_energy": 6.42 
		},
		"coords": [
			{
				"x": -1.4045624178,
				"y": 2.7112008509,
				"z": -0.4552391694,
				"element": "C" 
			},
			{
				"x": -2.2091748145,
				"y": 1.1051320002,
				"z": -0.3796576458,
				"element": "S" 
			},
			{
				"x": -1.5854388083,
				"y": 0.3435105391,
				"z": 0.7032649204,
				"element": "O" 
			},
			{
				"x": -3.6542295788,
				"y": 1.3067415628,
				"z": -0.4577284241,
				"element": "O" 
			},
			{
				"x": -1.7822452087,
				"y": 0.4221664423,
				"z": -1.8794730547,
				"element": "N" 
			},
			{
				"x": -0.7945476566,
				"y": -0.5634993413,
				"z": -2.0778216321,
				"element": "C" 
			},
			{
				"x": -0.9564633395,
				"y": -1.4265465337,
				"z": -3.1707117097,
				"element": "C" 
			},
			{
				"x": -2.0820138013,
				"y": -1.2848151499,
				"z": -3.9099476304,
				"element": "F" 
			},
			{
				"x": -0.0187386407,
				"y": -2.3859566237,
				"z": -3.5156952588,
				"element": "C" 
			},
			{
				"x": 1.128636375,
				"y": -2.516807921,
				"z": -2.7371846018,
				"element": "C" 
			},
			{
				"x": 1.3072685525,
				"y": -1.6926991607,
				"z": -1.6205403752,
				"element": "C" 
			},
			{
				"x": 0.3616922603,
				"y": -0.7068710597,
				"z": -1.3065644078,
				"element": "C" 
			},
			{
				"x": 2.5482987727,
				"y": -1.8815222681,
				"z": -0.7998063608,
				"element": "C" 
			},
			{
				"x": 2.4927447044,
				"y": -1.4592783791,
				"z": 0.4914036722,
				"element": "O" 
			},
			{
				"x": 3.5599580906,
				"y": -2.3784043258,
				"z": -1.2349304909,
				"element": "O" 
			},
			{
				"x": -0.3291873739,
				"y": 2.5669950498,
				"z": -0.5683313189,
				"element": "H" 
			},
			{
				"x": -1.8144840603,
				"y": 3.2681345424,
				"z": -1.2978046004,
				"element": "H" 
			},
			{
				"x": -1.6231424049,
				"y": 3.2194974167,
				"z": 0.4858592532,
				"element": "H" 
			},
			{
				"x": -2.6094147235,
				"y": 0.3058079386,
				"z": -2.4567015806,
				"element": "H" 
			},
			{
				"x": -0.2026483278,
				"y": -3.0147335122,
				"z": -4.3798669966,
				"element": "H" 
			},
			{
				"x": 1.8884537447,
				"y": -3.2521803942,
				"z": -2.9743510114,
				"element": "H" 
			},
			{
				"x": 0.5174662389,
				"y": -0.0416445674,
				"z": -0.4668160653,
				"element": "H" 
			},
			{
				"x": 1.5774724173,
				"y": -1.2773271059,
				"z": 0.749344489,
				"element": "H" 
			}
		],
		 "valence_orbital": [ 
			{
				"type": "occ",
				"energy": -0.32641,
				"method": "rhf"
			},
			{
				"type": "occ",
				"energy": -0.31949,
				"method": "rhf"
			},
			{
				"type": "occ",
				"energy": -0.28324,
				"method": "rhf"
			},
			{
				"type": "occ",
				"energy": -0.27571,
				"method": "rhf"
			},
			{
				"type": "occ",
				"energy": -0.24909,
				"method": "rhf"
			},
			{
				"type": "unocc",
				"energy": -0.05535,
				"method": "rhf"
			},
			{
				"type": "unocc",
				"energy": -0.03329,
				"method": "rhf"
			},
			{
				"type": "unocc",
				"energy": 0.03002,
				"method": "rhf"
			},
			{
				"type": "unocc",
				"energy": 0.03955,
				"method": "rhf"
			},
			{
				"type": "unocc",
				"energy": 0.05197,
				"method": "rhf"
			}
		],
		"cosmo_sigma_profile": { 
			"-0.025": 0.0,
			"-0.024": 0.0,
			"-0.023": 0.0,
			"-0.022": 0.0,
			"-0.021": 0.0,
			"-0.02": 0.0,
			"-0.019": 0.0,
			"-0.018": 0.0,
			"-0.017": 0.357174965747,
			"-0.016": 0.89376829843,
			"-0.015": 1.17570499257,
			"-0.014": 0.964590825816,
			"-0.013": 2.08003436759,
			"-0.012": 1.57108805005,
			"-0.011": 2.84544434463,
			"-0.01": 3.94381529426,
			"-0.009": 8.9246781627,
			"-0.008": 10.036380462,
			"-0.007": 11.7877989662,
			"-0.006": 11.7150509626,
			"-0.005": 12.1103292571,
			"-0.004": 12.9796967061,
			"-0.003": 10.1722417223,
			"-0.002": 12.3433094109,
			"-0.001": 13.6929454535,
			"0.0": 13.3204411689,
			"0.001": 15.426915075,
			"0.002": 14.3496496123,
			"0.003": 11.8206045288,
			"0.004": 7.060926087,
			"0.005": 3.91989162425,
			"0.006": 4.8363423451,
			"0.007": 5.44675989895,
			"0.008": 6.3392631764,
			"0.009": 7.38867038434,
			"0.01": 13.8597096837,
			"0.011": 12.1505147178,
			"0.012": 4.83598962283,
			"0.013": 1.14729670901,
			"0.014": 0.0,
			"0.015": 0.0,
			"0.016": 0.0,
			"0.017": 0.0,
			"0.018": 0.0,
			"0.019": 0.0,
			"0.02": 0.0,
			"0.021": 0.0,
			"0.022": 0.0,
			"0.023": 0.0,
			"0.024": 0.0,
			"0.025": 0.0
		}
	}
}
