{
	 "smiles": "NC1=C2CC3=CC=CC=C3C2=CC=C1", 
	 "Tm": 399.15, 
	 "num_atms": 25, 
	 "gaussian": { 
		 "optdone": 1, 
		 "sigma_profile": "yes", 
		 "theory": "DFT", 
		 "functional": "B3LYP", 
		 "basiset": "6-31G**", 
		 "properties": { 
			 "R2extent": 3218.4396, 
			 "electric_dipole_moment_norm": 2.00554599299, 
			 "electric_quadrupole_moment_norm": 11.270272994, 
			 "total_energy": -556.785386624, 
			 "HOMO_LUMO_gap": 0.17713, 
			 "cosmo_polarized_energy": -9.9, 
			 "cosmo_cavitation_energy": 27.95, 
			 "cosmo_dispersion_energy": -20.88, 
			 "cosmo_repulsion_energy": 1.61, 
			 "cosmo_total_nonelectrostatic_energy": 8.68, 
			 "SMD_solvation_energy": 3.86 
		},
		"coords": [
			{
				"x": 1.5232405431,
				"y": 0.7866329337,
				"z": 2.6531300258,
				"element": "N" 
			},
			{
				"x": 0.3392560662,
				"y": 0.2925395125,
				"z": 2.0959720022,
				"element": "C" 
			},
			{
				"x": -0.0947173812,
				"y": 0.7129458738,
				"z": 0.8334893329,
				"element": "C" 
			},
			{
				"x": 0.5822858836,
				"y": 1.6651765158,
				"z": -0.1288784392,
				"element": "C" 
			},
			{
				"x": -0.3866117811,
				"y": 1.7004814471,
				"z": -1.2942865349,
				"element": "C" 
			},
			{
				"x": -0.3055433133,
				"y": 2.4032683069,
				"z": -2.491030954,
				"element": "C" 
			},
			{
				"x": -1.3396600517,
				"y": 2.2737811837,
				"z": -3.4256308836,
				"element": "C" 
			},
			{
				"x": -2.4386076889,
				"y": 1.4493908679,
				"z": -3.1597955025,
				"element": "C" 
			},
			{
				"x": -2.5243313531,
				"y": 0.741368568,
				"z": -1.9588767806,
				"element": "C" 
			},
			{
				"x": -1.4935935951,
				"y": 0.8686790664,
				"z": -1.0249471169,
				"element": "C" 
			},
			{
				"x": -1.314635784,
				"y": 0.2572038775,
				"z": 0.3003728721,
				"element": "C" 
			},
			{
				"x": -2.1302019582,
				"y": -0.6249291597,
				"z": 1.0130591027,
				"element": "C" 
			},
			{
				"x": -1.6970499448,
				"y": -1.0407351366,
				"z": 2.2738195112,
				"element": "C" 
			},
			{
				"x": -0.486805459,
				"y": -0.5965747921,
				"z": 2.8095405542,
				"element": "C" 
			},
			{
				"x": 2.2320364964,
				"y": 1.0523311178,
				"z": 1.98281127,
				"element": "H" 
			},
			{
				"x": 1.9100451508,
				"y": 0.2179983944,
				"z": 3.3944043621,
				"element": "H" 
			},
			{
				"x": 0.7309817848,
				"y": 2.6611255861,
				"z": 0.3124439238,
				"element": "H" 
			},
			{
				"x": 1.577745744,
				"y": 1.3146127904,
				"z": -0.4422332397,
				"element": "H" 
			},
			{
				"x": 0.5456117148,
				"y": 3.0457570373,
				"z": -2.7029044926,
				"element": "H" 
			},
			{
				"x": -1.2887889149,
				"y": 2.8176993095,
				"z": -4.3645811157,
				"element": "H" 
			},
			{
				"x": -3.2331731294,
				"y": 1.3596614764,
				"z": -3.8952818255,
				"element": "H" 
			},
			{
				"x": -3.3804763826,
				"y": 0.1030135638,
				"z": -1.7585464707,
				"element": "H" 
			},
			{
				"x": -3.0723555115,
				"y": -0.9778995639,
				"z": 0.6053554765,
				"element": "H" 
			},
			{
				"x": -2.3076472257,
				"y": -1.7272469656,
				"z": 2.8539971924,
				"element": "H" 
			},
			{
				"x": -0.1744039092,
				"y": -0.9365818113,
				"z": 3.79419773,
				"element": "H" 
			}
		],
		 "valence_orbital": [ 
			{
				"type": "occ",
				"energy": -0.30898,
				"method": "rhf"
			},
			{
				"type": "occ",
				"energy": -0.26536,
				"method": "rhf"
			},
			{
				"type": "occ",
				"energy": -0.24003,
				"method": "rhf"
			},
			{
				"type": "occ",
				"energy": -0.21099,
				"method": "rhf"
			},
			{
				"type": "occ",
				"energy": -0.19811,
				"method": "rhf"
			},
			{
				"type": "unocc",
				"energy": -0.02098,
				"method": "rhf"
			},
			{
				"type": "unocc",
				"energy": -0.00044,
				"method": "rhf"
			},
			{
				"type": "unocc",
				"energy": 0.02165,
				"method": "rhf"
			},
			{
				"type": "unocc",
				"energy": 0.05244,
				"method": "rhf"
			},
			{
				"type": "unocc",
				"energy": 0.07735,
				"method": "rhf"
			}
		],
		"cosmo_sigma_profile": { 
			"-0.025": 0.0,
			"-0.024": 0.0,
			"-0.023": 0.0,
			"-0.022": 0.0,
			"-0.021": 0.0,
			"-0.02": 0.0,
			"-0.019": 0.0,
			"-0.018": 0.0,
			"-0.017": 0.0,
			"-0.016": 0.0,
			"-0.015": 0.0,
			"-0.014": 0.0,
			"-0.013": 0.0122487849979,
			"-0.012": 1.54239669167,
			"-0.011": 2.69840620425,
			"-0.01": 2.84727523614,
			"-0.009": 3.34651895179,
			"-0.008": 3.24197971811,
			"-0.007": 2.68540692508,
			"-0.006": 5.87879143773,
			"-0.005": 18.8620956614,
			"-0.004": 19.0090004546,
			"-0.003": 20.1083355945,
			"-0.002": 16.1915463769,
			"-0.001": 12.2577700092,
			"0.0": 11.7647898498,
			"0.001": 11.2806293325,
			"0.002": 11.4844934638,
			"0.003": 13.4079628675,
			"0.004": 16.6779666078,
			"0.005": 16.7465416833,
			"0.006": 17.8842143141,
			"0.007": 8.96378404718,
			"0.008": 1.95226865821,
			"0.009": 0.413388319353,
			"0.01": 0.474640931845,
			"0.011": 0.760049288793,
			"0.012": 1.03953522551,
			"0.013": 0.506244388538,
			"0.014": 0.552830027616,
			"0.015": 0.336780309752,
			"0.016": 0.0,
			"0.017": 0.0,
			"0.018": 0.0,
			"0.019": 0.0,
			"0.02": 0.0,
			"0.021": 0.0,
			"0.022": 0.0,
			"0.023": 0.0,
			"0.024": 0.0,
			"0.025": 0.0
		}
	}
}
