{
	 "smiles": "CC(CS(=O)(=O)C1=CC=C(Br)C=C1)C(O)=O", 
	 "Tm": 418.15, 
	 "num_atms": 27, 
	 "gaussian": { 
		 "optdone": 1, 
		 "sigma_profile": "yes", 
		 "theory": "DFT", 
		 "functional": "B3LYP", 
		 "basiset": "6-31G**", 
		 "properties": { 
			 "R2extent": 7695.0985, 
			 "electric_dipole_moment_norm": 4.24010187849, 
			 "electric_quadrupole_moment_norm": 10.3191687626, 
			 "total_energy": -3658.13503546, 
			 "HOMO_LUMO_gap": 0.21168, 
			 "cosmo_polarized_energy": -18.65, 
			 "cosmo_cavitation_energy": 34.85, 
			 "cosmo_dispersion_energy": -24.43, 
			 "cosmo_repulsion_energy": 1.88, 
			 "cosmo_total_nonelectrostatic_energy": 12.31, 
			 "SMD_solvation_energy": 4.88 
		},
		"coords": [
			{
				"x": -2.9740372278,
				"y": 0.3691257005,
				"z": -1.0279797415,
				"element": "C" 
			},
			{
				"x": -1.5455122723,
				"y": 0.0061847649,
				"z": -0.5596820321,
				"element": "C" 
			},
			{
				"x": -0.6271067927,
				"y": 1.2289370968,
				"z": -0.6197362025,
				"element": "C" 
			},
			{
				"x": 1.1472672437,
				"y": 0.8524023549,
				"z": -0.8283491097,
				"element": "S" 
			},
			{
				"x": 1.2604281287,
				"y": -0.1435101427,
				"z": -1.9092032543,
				"element": "O" 
			},
			{
				"x": 1.8334824375,
				"y": 2.151364635,
				"z": -0.9082388238,
				"element": "O" 
			},
			{
				"x": 1.6650890521,
				"y": 0.0467058706,
				"z": 0.6954332822,
				"element": "C" 
			},
			{
				"x": 1.7820392505,
				"y": -1.3435228899,
				"z": 0.7240439269,
				"element": "C" 
			},
			{
				"x": 2.1945877226,
				"y": -1.9711160464,
				"z": 1.8995702696,
				"element": "C" 
			},
			{
				"x": 2.4809586981,
				"y": -1.1924378008,
				"z": 3.0208641944,
				"element": "C" 
			},
			{
				"x": 3.0391108169,
				"y": -2.0488207972,
				"z": 4.6308946666,
				"element": "Br" 
			},
			{
				"x": 2.3767372818,
				"y": 0.199733963,
				"z": 2.990784258,
				"element": "C" 
			},
			{
				"x": 1.9688918795,
				"y": 0.8243794586,
				"z": 1.8146408948,
				"element": "C" 
			},
			{
				"x": -1.6362429577,
				"y": -0.5355628978,
				"z": 0.8607163487,
				"element": "C" 
			},
			{
				"x": -1.9033624422,
				"y": -1.8601993788,
				"z": 0.873477849,
				"element": "O" 
			},
			{
				"x": -1.5396135857,
				"y": 0.1262261361,
				"z": 1.8714340287,
				"element": "O" 
			},
			{
				"x": -3.3971493189,
				"y": 1.1655504363,
				"z": -0.4080682698,
				"element": "H" 
			},
			{
				"x": -2.9528280627,
				"y": 0.7106165743,
				"z": -2.0665720947,
				"element": "H" 
			},
			{
				"x": -3.6311671478,
				"y": -0.5024269078,
				"z": -0.9671025094,
				"element": "H" 
			},
			{
				"x": -1.1575634582,
				"y": -0.7806477514,
				"z": -1.2134602781,
				"element": "H" 
			},
			{
				"x": -0.833666904,
				"y": 1.8383353045,
				"z": -1.5047471932,
				"element": "H" 
			},
			{
				"x": -0.72805509,
				"y": 1.8513955752,
				"z": 0.2722622972,
				"element": "H" 
			},
			{
				"x": 1.5710405399,
				"y": -1.9201313441,
				"z": -0.169937262,
				"element": "H" 
			},
			{
				"x": 2.2989615782,
				"y": -3.0490827314,
				"z": 1.9420437004,
				"element": "H" 
			},
			{
				"x": 2.6167105606,
				"y": 0.7839411647,
				"z": 3.8713633302,
				"element": "H" 
			},
			{
				"x": 1.9034853488,
				"y": 1.9058272842,
				"z": 1.761211592,
				"element": "H" 
			},
			{
				"x": -1.9974852789,
				"y": -2.1128676314,
				"z": 1.8079361325,
				"element": "H" 
			}
		],
		 "valence_orbital": [ 
			{
				"type": "occ",
				"energy": -0.29946,
				"method": "rhf"
			},
			{
				"type": "occ",
				"energy": -0.29249,
				"method": "rhf"
			},
			{
				"type": "occ",
				"energy": -0.28766,
				"method": "rhf"
			},
			{
				"type": "occ",
				"energy": -0.2826,
				"method": "rhf"
			},
			{
				"type": "occ",
				"energy": -0.26319,
				"method": "rhf"
			},
			{
				"type": "unocc",
				"energy": -0.05151,
				"method": "rhf"
			},
			{
				"type": "unocc",
				"energy": -0.03522,
				"method": "rhf"
			},
			{
				"type": "unocc",
				"energy": -0.00729,
				"method": "rhf"
			},
			{
				"type": "unocc",
				"energy": -0.00657,
				"method": "rhf"
			},
			{
				"type": "unocc",
				"energy": 0.05547,
				"method": "rhf"
			}
		],
		"cosmo_sigma_profile": { 
			"-0.025": 0.0,
			"-0.024": 0.0,
			"-0.023": 0.0,
			"-0.022": 0.0,
			"-0.021": 0.0,
			"-0.02": 0.0,
			"-0.019": 0.155774938039,
			"-0.018": 0.721826306642,
			"-0.017": 1.23985387754,
			"-0.016": 0.567903206085,
			"-0.015": 0.566659195611,
			"-0.014": 1.11314214714,
			"-0.013": 0.670365934594,
			"-0.012": 0.487758093089,
			"-0.011": 0.425697615789,
			"-0.01": 0.597791948805,
			"-0.009": 2.52992589185,
			"-0.008": 10.3054769334,
			"-0.007": 13.209962988,
			"-0.006": 11.6782405839,
			"-0.005": 17.3942144205,
			"-0.004": 20.3188231162,
			"-0.003": 17.2962950038,
			"-0.002": 18.1411068547,
			"-0.001": 19.5016195869,
			"0.0": 23.2376740485,
			"0.001": 22.3161469079,
			"0.002": 14.7056301904,
			"0.003": 14.2605072229,
			"0.004": 14.5814945001,
			"0.005": 4.76273798705,
			"0.006": 5.03045446874,
			"0.007": 5.12096220866,
			"0.008": 5.95251193539,
			"0.009": 5.65458053753,
			"0.01": 7.17637064394,
			"0.011": 11.9978230825,
			"0.012": 7.95748933055,
			"0.013": 0.156644909147,
			"0.014": 0.0,
			"0.015": 0.0,
			"0.016": 0.0,
			"0.017": 0.0,
			"0.018": 0.0,
			"0.019": 0.0,
			"0.02": 0.0,
			"0.021": 0.0,
			"0.022": 0.0,
			"0.023": 0.0,
			"0.024": 0.0,
			"0.025": 0.0
		}
	}
}
