{
	 "smiles": "C1C2=CC=CC=C2OC2=CC=CC=C12", 
	 "Tm": 374.15, 
	 "num_atms": 24, 
	 "gaussian": { 
		 "optdone": 1, 
		 "sigma_profile": "yes", 
		 "theory": "DFT", 
		 "functional": "B3LYP", 
		 "basiset": "6-31G**", 
		 "properties": { 
			 "R2extent": 3408.6826, 
			 "electric_dipole_moment_norm": 1.0243014156, 
			 "electric_quadrupole_moment_norm": 9.38732600638, 
			 "total_energy": -576.639284665, 
			 "HOMO_LUMO_gap": 0.19342, 
			 "cosmo_polarized_energy": -5.62, 
			 "cosmo_cavitation_energy": 27.14, 
			 "cosmo_dispersion_energy": -20.61, 
			 "cosmo_repulsion_energy": 1.58, 
			 "cosmo_total_nonelectrostatic_energy": 8.11, 
			 "SMD_solvation_energy": 4.41 
		},
		"coords": [
			{
				"x": 0.3070620896,
				"y": -1.8883058677,
				"z": -1.3155056586,
				"element": "C" 
			},
			{
				"x": 1.6047858712,
				"y": -1.1772137625,
				"z": -1.630348692,
				"element": "C" 
			},
			{
				"x": 2.7211267967,
				"y": -1.8757938131,
				"z": -2.1064304485,
				"element": "C" 
			},
			{
				"x": 3.9192918504,
				"y": -1.2276791829,
				"z": -2.3985129591,
				"element": "C" 
			},
			{
				"x": 4.0169499159,
				"y": 0.1548380942,
				"z": -2.2140742422,
				"element": "C" 
			},
			{
				"x": 2.9227075224,
				"y": 0.8725313852,
				"z": -1.7422503741,
				"element": "C" 
			},
			{
				"x": 1.7284368744,
				"y": 0.2049617747,
				"z": -1.4545030345,
				"element": "C" 
			},
			{
				"x": 0.7011082341,
				"y": 0.9962447423,
				"z": -0.9932151543,
				"element": "O" 
			},
			{
				"x": -0.5123574581,
				"y": 0.4250025677,
				"z": -0.6841483551,
				"element": "C" 
			},
			{
				"x": -1.4950426197,
				"y": 1.3063180261,
				"z": -0.2233339214,
				"element": "C" 
			},
			{
				"x": -2.753826781,
				"y": 0.819654116,
				"z": 0.1138586792,
				"element": "C" 
			},
			{
				"x": -3.0314958548,
				"y": -0.5451786348,
				"z": -0.0087635072,
				"element": "C" 
			},
			{
				"x": -2.0397591017,
				"y": -1.4083068973,
				"z": -0.4696677232,
				"element": "C" 
			},
			{
				"x": -0.7646040353,
				"y": -0.9445425393,
				"z": -0.8157896902,
				"element": "C" 
			},
			{
				"x": -0.0525099574,
				"y": -2.4155265886,
				"z": -2.2108568947,
				"element": "H" 
			},
			{
				"x": 0.4874361074,
				"y": -2.6729501579,
				"z": -0.5667046498,
				"element": "H" 
			},
			{
				"x": 2.6400162366,
				"y": -2.9512859637,
				"z": -2.2482374662,
				"element": "H" 
			},
			{
				"x": 4.769132232,
				"y": -1.7941769919,
				"z": -2.7664027744,
				"element": "H" 
			},
			{
				"x": 4.9441589178,
				"y": 0.6743139806,
				"z": -2.4372915746,
				"element": "H" 
			},
			{
				"x": 2.9671345787,
				"y": 1.9457043261,
				"z": -1.5887923059,
				"element": "H" 
			},
			{
				"x": -1.248955015,
				"y": 2.3596824768,
				"z": -0.139135714,
				"element": "H" 
			},
			{
				"x": -3.5164417611,
				"y": 1.5050440378,
				"z": 0.4717125187,
				"element": "H" 
			},
			{
				"x": -4.0115910562,
				"y": -0.9319954395,
				"z": 0.2525327407,
				"element": "H" 
			},
			{
				"x": -2.250763587,
				"y": -2.4710396883,
				"z": -0.5668387985,
				"element": "H" 
			}
		],
		 "valence_orbital": [ 
			{
				"type": "occ",
				"energy": -0.32283,
				"method": "rhf"
			},
			{
				"type": "occ",
				"energy": -0.25463,
				"method": "rhf"
			},
			{
				"type": "occ",
				"energy": -0.25119,
				"method": "rhf"
			},
			{
				"type": "occ",
				"energy": -0.24028,
				"method": "rhf"
			},
			{
				"type": "occ",
				"energy": -0.20582,
				"method": "rhf"
			},
			{
				"type": "unocc",
				"energy": -0.0124,
				"method": "rhf"
			},
			{
				"type": "unocc",
				"energy": -0.00573,
				"method": "rhf"
			},
			{
				"type": "unocc",
				"energy": 0.00424,
				"method": "rhf"
			},
			{
				"type": "unocc",
				"energy": 0.02979,
				"method": "rhf"
			},
			{
				"type": "unocc",
				"energy": 0.09518,
				"method": "rhf"
			}
		],
		"cosmo_sigma_profile": { 
			"-0.025": 0.0,
			"-0.024": 0.0,
			"-0.023": 0.0,
			"-0.022": 0.0,
			"-0.021": 0.0,
			"-0.02": 0.0,
			"-0.019": 0.0,
			"-0.018": 0.0,
			"-0.017": 0.0,
			"-0.016": 0.0,
			"-0.015": 0.0,
			"-0.014": 0.0,
			"-0.013": 0.0,
			"-0.012": 0.0,
			"-0.011": 0.0,
			"-0.01": 0.0,
			"-0.009": 0.0,
			"-0.008": 0.0,
			"-0.007": 0.234351030777,
			"-0.006": 8.94551787628,
			"-0.005": 19.0037762415,
			"-0.004": 23.4634500363,
			"-0.003": 23.6404067726,
			"-0.002": 15.2177227862,
			"-0.001": 15.7252586329,
			"0.0": 11.5557213274,
			"0.001": 14.0676866209,
			"0.002": 15.1181301039,
			"0.003": 18.8654558576,
			"0.004": 18.3782299474,
			"0.005": 18.5881913369,
			"0.006": 11.3585577999,
			"0.007": 2.03019492427,
			"0.008": 1.35826334952,
			"0.009": 0.0563085546723,
			"0.01": 0.0,
			"0.011": 0.0,
			"0.012": 0.0,
			"0.013": 0.0,
			"0.014": 0.0,
			"0.015": 0.0,
			"0.016": 0.0,
			"0.017": 0.0,
			"0.018": 0.0,
			"0.019": 0.0,
			"0.02": 0.0,
			"0.021": 0.0,
			"0.022": 0.0,
			"0.023": 0.0,
			"0.024": 0.0,
			"0.025": 0.0
		}
	}
}
