{
	 "smiles": "NS(=O)(=O)C1=CC=C(C=C1)C(F)(F)F", 
	 "Tm": 453.15, 
	 "num_atms": 20, 
	 "gaussian": { 
		 "optdone": 1, 
		 "sigma_profile": "yes", 
		 "theory": "DFT", 
		 "functional": "B3LYP", 
		 "basiset": "6-31G**", 
		 "properties": { 
			 "R2extent": 4076.3717, 
			 "electric_dipole_moment_norm": 4.27528488992, 
			 "electric_quadrupole_moment_norm": 23.0925214485, 
			 "total_energy": -1173.20267564, 
			 "HOMO_LUMO_gap": 0.22184, 
			 "cosmo_polarized_energy": -17.98, 
			 "cosmo_cavitation_energy": 27.59, 
			 "cosmo_dispersion_energy": -20.21, 
			 "cosmo_repulsion_energy": 1.48, 
			 "cosmo_total_nonelectrostatic_energy": 8.86, 
			 "SMD_solvation_energy": 5.59 
		},
		"coords": [
			{
				"x": 1.5558457441,
				"y": 3.6353883052,
				"z": 1.0047648969,
				"element": "N" 
			},
			{
				"x": 1.5584537692,
				"y": 2.0570066718,
				"z": 1.572408005,
				"element": "S" 
			},
			{
				"x": 2.9453315534,
				"y": 1.60666363,
				"z": 1.4850827536,
				"element": "O" 
			},
			{
				"x": 0.7980098423,
				"y": 2.0829964283,
				"z": 2.8193740548,
				"element": "O" 
			},
			{
				"x": 0.6076655114,
				"y": 1.080154458,
				"z": 0.3909413049,
				"element": "C" 
			},
			{
				"x": 1.2628300246,
				"y": 0.4873951899,
				"z": -0.6904186191,
				"element": "C" 
			},
			{
				"x": 0.5213562863,
				"y": -0.2446651796,
				"z": -1.6154771435,
				"element": "C" 
			},
			{
				"x": -0.8599850139,
				"y": -0.3801080103,
				"z": -1.4502172153,
				"element": "C" 
			},
			{
				"x": -1.5049169489,
				"y": 0.2047879164,
				"z": -0.3566425324,
				"element": "C" 
			},
			{
				"x": -0.7696600475,
				"y": 0.9381590949,
				"z": 0.572258297,
				"element": "C" 
			},
			{
				"x": -1.6508454589,
				"y": -1.218024236,
				"z": -2.4229995197,
				"element": "C" 
			},
			{
				"x": -1.1032322057,
				"y": -1.1995969576,
				"z": -3.6570454605,
				"element": "F" 
			},
			{
				"x": -1.7034618723,
				"y": -2.5096562464,
				"z": -2.0306954628,
				"element": "F" 
			},
			{
				"x": -2.9248300097,
				"y": -0.7843214908,
				"z": -2.5331696897,
				"element": "F" 
			},
			{
				"x": 0.6380294872,
				"y": 4.0677274239,
				"z": 1.0123397972,
				"element": "H" 
			},
			{
				"x": 2.0572394703,
				"y": 3.7530642564,
				"z": 0.1306255303,
				"element": "H" 
			},
			{
				"x": 2.3386174767,
				"y": 0.5839666605,
				"z": -0.7891832057,
				"element": "H" 
			},
			{
				"x": 1.0121688028,
				"y": -0.7092871097,
				"z": -2.4635267988,
				"element": "H" 
			},
			{
				"x": -2.5759588037,
				"y": 0.0866685507,
				"z": -0.2344623487,
				"element": "H" 
			},
			{
				"x": -1.248757608,
				"y": 1.3795806443,
				"z": 1.4394433567,
				"element": "H" 
			}
		],
		 "valence_orbital": [ 
			{
				"type": "occ",
				"energy": -0.32759,
				"method": "rhf"
			},
			{
				"type": "occ",
				"energy": -0.31439,
				"method": "rhf"
			},
			{
				"type": "occ",
				"energy": -0.31334,
				"method": "rhf"
			},
			{
				"type": "occ",
				"energy": -0.29117,
				"method": "rhf"
			},
			{
				"type": "occ",
				"energy": -0.28605,
				"method": "rhf"
			},
			{
				"type": "unocc",
				"energy": -0.06421,
				"method": "rhf"
			},
			{
				"type": "unocc",
				"energy": -0.04151,
				"method": "rhf"
			},
			{
				"type": "unocc",
				"energy": 0.04079,
				"method": "rhf"
			},
			{
				"type": "unocc",
				"energy": 0.06662,
				"method": "rhf"
			},
			{
				"type": "unocc",
				"energy": 0.06895,
				"method": "rhf"
			}
		],
		"cosmo_sigma_profile": { 
			"-0.025": 0.0,
			"-0.024": 0.0,
			"-0.023": 0.0,
			"-0.022": 0.0,
			"-0.021": 0.0,
			"-0.02": 0.0,
			"-0.019": 0.0,
			"-0.018": 0.0,
			"-0.017": 0.0,
			"-0.016": 0.643007958938,
			"-0.015": 2.56912045902,
			"-0.014": 2.60214666619,
			"-0.013": 3.34194037992,
			"-0.012": 3.12971750175,
			"-0.011": 1.95329688676,
			"-0.01": 2.17073570866,
			"-0.009": 2.15276697689,
			"-0.008": 6.03311206426,
			"-0.007": 10.8901881298,
			"-0.006": 8.14868027661,
			"-0.005": 7.30549179354,
			"-0.004": 6.9736356858,
			"-0.003": 9.48665137212,
			"-0.002": 9.49610676252,
			"-0.001": 11.8319416729,
			"0.0": 17.7570285281,
			"0.001": 23.5684478209,
			"0.002": 25.01012819,
			"0.003": 21.6419461519,
			"0.004": 2.8702109498,
			"0.005": 3.3196295028,
			"0.006": 3.82864790513,
			"0.007": 4.13542335969,
			"0.008": 4.18490271221,
			"0.009": 4.9298395196,
			"0.01": 8.32478064092,
			"0.011": 10.076101538,
			"0.012": 2.71812364529,
			"0.013": 0.0201336839534,
			"0.014": 0.0,
			"0.015": 0.0,
			"0.016": 0.0,
			"0.017": 0.0,
			"0.018": 0.0,
			"0.019": 0.0,
			"0.02": 0.0,
			"0.021": 0.0,
			"0.022": 0.0,
			"0.023": 0.0,
			"0.024": 0.0,
			"0.025": 0.0
		}
	}
}
