{
	 "smiles": "FC1=CC=C(C=C1)C(=O)CCl", 
	 "Tm": 321.15, 
	 "num_atms": 17, 
	 "gaussian": { 
		 "optdone": 1, 
		 "sigma_profile": "yes", 
		 "theory": "DFT", 
		 "functional": "B3LYP", 
		 "basiset": "6-31G**", 
		 "properties": { 
			 "R2extent": 2800.5557, 
			 "electric_dipole_moment_norm": 2.17630031246, 
			 "electric_quadrupole_moment_norm": 11.1012906371, 
			 "total_energy": -943.714856932, 
			 "HOMO_LUMO_gap": 0.18731, 
			 "cosmo_polarized_energy": -8.17, 
			 "cosmo_cavitation_energy": 23.8, 
			 "cosmo_dispersion_energy": -17.33, 
			 "cosmo_repulsion_energy": 1.37, 
			 "cosmo_total_nonelectrostatic_energy": 7.83, 
			 "SMD_solvation_energy": 4.92 
		},
		"coords": [
			{
				"x": -2.9360803061,
				"y": 0.4320367886,
				"z": -0.1868753694,
				"element": "F" 
			},
			{
				"x": -1.6494165631,
				"y": 0.045044559,
				"z": -0.2268453915,
				"element": "C" 
			},
			{
				"x": -0.8165011277,
				"y": 0.5829047417,
				"z": -1.2031532168,
				"element": "C" 
			},
			{
				"x": 0.5154989394,
				"y": 0.1793757576,
				"z": -1.2398951544,
				"element": "C" 
			},
			{
				"x": 1.0065992972,
				"y": -0.7536318431,
				"z": -0.3114355108,
				"element": "C" 
			},
			{
				"x": 0.1346921334,
				"y": -1.2752998488,
				"z": 0.6608927887,
				"element": "C" 
			},
			{
				"x": -1.1956401315,
				"y": -0.8802887379,
				"z": 0.711110217,
				"element": "C" 
			},
			{
				"x": 2.4107452804,
				"y": -1.2493182739,
				"z": -0.3159694367,
				"element": "C" 
			},
			{
				"x": 2.7934815148,
				"y": -2.1061733505,
				"z": 0.4649121944,
				"element": "O" 
			},
			{
				"x": 3.409330105,
				"y": -0.71510599,
				"z": -1.3481611882,
				"element": "C" 
			},
			{
				"x": 3.8532668337,
				"y": 1.0171332769,
				"z": -1.0312694161,
				"element": "Cl" 
			},
			{
				"x": -1.2143680561,
				"y": 1.3030763642,
				"z": -1.9093062022,
				"element": "H" 
			},
			{
				"x": 1.1704559023,
				"y": 0.6101934723,
				"z": -1.9888195923,
				"element": "H" 
			},
			{
				"x": 0.528257172,
				"y": -1.9963546276,
				"z": 1.3689931037,
				"element": "H" 
			},
			{
				"x": -1.882594788,
				"y": -1.2709185279,
				"z": 1.4537812851,
				"element": "H" 
			},
			{
				"x": 4.3220372122,
				"y": -1.3016308726,
				"z": -1.2641817257,
				"element": "H" 
			},
			{
				"x": 3.0186365821,
				"y": -0.7636428881,
				"z": -2.3664773847,
				"element": "H" 
			}
		],
		 "valence_orbital": [ 
			{
				"type": "occ",
				"energy": -0.3211,
				"method": "rhf"
			},
			{
				"type": "occ",
				"energy": -0.31024,
				"method": "rhf"
			},
			{
				"type": "occ",
				"energy": -0.27824,
				"method": "rhf"
			},
			{
				"type": "occ",
				"energy": -0.26605,
				"method": "rhf"
			},
			{
				"type": "occ",
				"energy": -0.26227,
				"method": "rhf"
			},
			{
				"type": "unocc",
				"energy": -0.07496,
				"method": "rhf"
			},
			{
				"type": "unocc",
				"energy": -0.02688,
				"method": "rhf"
			},
			{
				"type": "unocc",
				"energy": -0.0006,
				"method": "rhf"
			},
			{
				"type": "unocc",
				"energy": 0.04863,
				"method": "rhf"
			},
			{
				"type": "unocc",
				"energy": 0.07852,
				"method": "rhf"
			}
		],
		"cosmo_sigma_profile": { 
			"-0.025": 0.0,
			"-0.024": 0.0,
			"-0.023": 0.0,
			"-0.022": 0.0,
			"-0.021": 0.0,
			"-0.02": 0.0,
			"-0.019": 0.0,
			"-0.018": 0.0,
			"-0.017": 0.0,
			"-0.016": 0.0,
			"-0.015": 0.0,
			"-0.014": 0.0,
			"-0.013": 0.0,
			"-0.012": 0.0,
			"-0.011": 0.0,
			"-0.01": 0.847972786169,
			"-0.009": 3.67503534968,
			"-0.008": 7.02099709145,
			"-0.007": 9.48631111982,
			"-0.006": 10.6095923503,
			"-0.005": 11.0609859987,
			"-0.004": 6.53637869594,
			"-0.003": 8.00250493078,
			"-0.002": 7.17559638497,
			"-0.001": 14.8421117933,
			"0.0": 17.2744052219,
			"0.001": 19.3774057372,
			"0.002": 20.3944716668,
			"0.003": 16.2253882145,
			"0.004": 15.9885276163,
			"0.005": 8.1286918977,
			"0.006": 3.96478070232,
			"0.007": 1.51580400633,
			"0.008": 1.72787214075,
			"0.009": 1.65285354135,
			"0.01": 3.34717290966,
			"0.011": 3.52767526528,
			"0.012": 0.962045253859,
			"0.013": 0.00900893782456,
			"0.014": 0.0,
			"0.015": 0.0,
			"0.016": 0.0,
			"0.017": 0.0,
			"0.018": 0.0,
			"0.019": 0.0,
			"0.02": 0.0,
			"0.021": 0.0,
			"0.022": 0.0,
			"0.023": 0.0,
			"0.024": 0.0,
			"0.025": 0.0
		}
	}
}
