{
	 "smiles": "OCC(C1=CC=CC=C1)C1=CC=CC=C1", 
	 "Tm": 337.65, 
	 "num_atms": 29, 
	 "gaussian": { 
		 "optdone": 1, 
		 "sigma_profile": "yes", 
		 "theory": "DFT", 
		 "functional": "B3LYP", 
		 "basiset": "6-31G**", 
		 "properties": { 
			 "R2extent": 3528.0215, 
			 "electric_dipole_moment_norm": 1.7100774076, 
			 "electric_quadrupole_moment_norm": 6.8242767375, 
			 "total_energy": -617.1424932, 
			 "HOMO_LUMO_gap": 0.22498, 
			 "cosmo_polarized_energy": -9.87, 
			 "cosmo_cavitation_energy": 31.83, 
			 "cosmo_dispersion_energy": -22.47, 
			 "cosmo_repulsion_energy": 1.78, 
			 "cosmo_total_nonelectrostatic_energy": 11.13, 
			 "SMD_solvation_energy": 5.38 
		},
		"coords": [
			{
				"x": -3.0675134459,
				"y": 1.597513983,
				"z": 0.4951350966,
				"element": "O" 
			},
			{
				"x": -1.9391170421,
				"y": 1.7840660957,
				"z": -0.351390754,
				"element": "C" 
			},
			{
				"x": -1.2135989848,
				"y": 0.4416812581,
				"z": -0.5299421301,
				"element": "C" 
			},
			{
				"x": -0.5871701394,
				"y": -0.129017218,
				"z": 0.7445692191,
				"element": "C" 
			},
			{
				"x": 0.1129900052,
				"y": -1.3437751487,
				"z": 0.6634617334,
				"element": "C" 
			},
			{
				"x": 0.7042680998,
				"y": -1.9128088909,
				"z": 1.7891277708,
				"element": "C" 
			},
			{
				"x": 0.6113155068,
				"y": -1.2735262481,
				"z": 3.0281042273,
				"element": "C" 
			},
			{
				"x": -0.0851369403,
				"y": -0.0702116628,
				"z": 3.12430451,
				"element": "C" 
			},
			{
				"x": -0.6825230603,
				"y": 0.4958180906,
				"z": 1.9940471919,
				"element": "C" 
			},
			{
				"x": -0.1999444415,
				"y": 0.5898180525,
				"z": -1.66295865,
				"element": "C" 
			},
			{
				"x": 1.0301782182,
				"y": 1.2302481354,
				"z": -1.4532833646,
				"element": "C" 
			},
			{
				"x": 1.9266483777,
				"y": 1.4161245219,
				"z": -2.5056057219,
				"element": "C" 
			},
			{
				"x": 1.6109080125,
				"y": 0.960099334,
				"z": -3.7875994161,
				"element": "C" 
			},
			{
				"x": 0.3920834515,
				"y": 0.3177588578,
				"z": -4.0082203213,
				"element": "C" 
			},
			{
				"x": -0.5048577024,
				"y": 0.1376148591,
				"z": -2.9531529089,
				"element": "C" 
			},
			{
				"x": -3.5346352098,
				"y": 2.4397399211,
				"z": 0.5600487176,
				"element": "H" 
			},
			{
				"x": -2.2465300758,
				"y": 2.1406899891,
				"z": -1.3452602129,
				"element": "H" 
			},
			{
				"x": -1.2400877269,
				"y": 2.529588962,
				"z": 0.0609822292,
				"element": "H" 
			},
			{
				"x": -1.9829759966,
				"y": -0.2676815124,
				"z": -0.8638570497,
				"element": "H" 
			},
			{
				"x": 0.2016424923,
				"y": -1.8421658485,
				"z": -0.2984854333,
				"element": "H" 
			},
			{
				"x": 1.2402094405,
				"y": -2.8537732709,
				"z": 1.6991248007,
				"element": "H" 
			},
			{
				"x": 1.0728666089,
				"y": -1.7129331939,
				"z": 3.9079311179,
				"element": "H" 
			},
			{
				"x": -0.1734705964,
				"y": 0.4323600521,
				"z": 4.0837703227,
				"element": "H" 
			},
			{
				"x": -1.2571258094,
				"y": 1.4084945832,
				"z": 2.0978373895,
				"element": "H" 
			},
			{
				"x": 1.2914931067,
				"y": 1.5693533102,
				"z": -0.454693871,
				"element": "H" 
			},
			{
				"x": 2.8755909836,
				"y": 1.912997267,
				"z": -2.3233209086,
				"element": "H" 
			},
			{
				"x": 2.3116530306,
				"y": 1.0999858204,
				"z": -4.6057655524,
				"element": "H" 
			},
			{
				"x": 0.1387675675,
				"y": -0.0466041514,
				"z": -4.9999978157,
				"element": "H" 
			},
			{
				"x": -1.4538277304,
				"y": -0.3627559476,
				"z": -3.1321102161,
				"element": "H" 
			}
		],
		 "valence_orbital": [ 
			{
				"type": "occ",
				"energy": -0.27134,
				"method": "rhf"
			},
			{
				"type": "occ",
				"energy": -0.24966,
				"method": "rhf"
			},
			{
				"type": "occ",
				"energy": -0.24621,
				"method": "rhf"
			},
			{
				"type": "occ",
				"energy": -0.23861,
				"method": "rhf"
			},
			{
				"type": "occ",
				"energy": -0.2282,
				"method": "rhf"
			},
			{
				"type": "unocc",
				"energy": -0.00322,
				"method": "rhf"
			},
			{
				"type": "unocc",
				"energy": -0.0008,
				"method": "rhf"
			},
			{
				"type": "unocc",
				"energy": 0.00533,
				"method": "rhf"
			},
			{
				"type": "unocc",
				"energy": 0.01509,
				"method": "rhf"
			},
			{
				"type": "unocc",
				"energy": 0.07371,
				"method": "rhf"
			}
		],
		"cosmo_sigma_profile": { 
			"-0.025": 0.0,
			"-0.024": 0.0,
			"-0.023": 0.0,
			"-0.022": 0.0,
			"-0.021": 0.0,
			"-0.02": 0.0,
			"-0.019": 0.0,
			"-0.018": 0.0,
			"-0.017": 0.0,
			"-0.016": 0.514128674945,
			"-0.015": 0.993920212742,
			"-0.014": 1.34781131293,
			"-0.013": 0.891212789291,
			"-0.012": 0.621203238779,
			"-0.011": 0.68314556872,
			"-0.01": 0.954569121141,
			"-0.009": 0.627963467873,
			"-0.008": 1.04660203769,
			"-0.007": 1.3244392052,
			"-0.006": 4.1027782946,
			"-0.005": 18.5164502774,
			"-0.004": 24.715702329,
			"-0.003": 32.7909168937,
			"-0.002": 22.0110533001,
			"-0.001": 19.3053390091,
			"0.0": 14.368886495,
			"0.001": 13.6747184616,
			"0.002": 13.7137466944,
			"0.003": 14.8090277804,
			"0.004": 16.9821613588,
			"0.005": 15.6812643766,
			"0.006": 17.4016952621,
			"0.007": 5.78338521774,
			"0.008": 1.5027496612,
			"0.009": 1.25997130467,
			"0.01": 1.10210170442,
			"0.011": 1.65226000883,
			"0.012": 1.42469485667,
			"0.013": 1.34879672419,
			"0.014": 1.09247389247,
			"0.015": 0.0317774526671,
			"0.016": 0.0,
			"0.017": 0.0,
			"0.018": 0.0,
			"0.019": 0.0,
			"0.02": 0.0,
			"0.021": 0.0,
			"0.022": 0.0,
			"0.023": 0.0,
			"0.024": 0.0,
			"0.025": 0.0
		}
	}
}
