{
	 "smiles": "NC(=O)CC1CC2CCC1C2", 
	 "Tm": 426.15, 
	 "num_atms": 26, 
	 "gaussian": { 
		 "optdone": 1, 
		 "sigma_profile": "yes", 
		 "theory": "DFT", 
		 "functional": "B3LYP", 
		 "basiset": "6-31G**", 
		 "properties": { 
			 "R2extent": 2137.0932, 
			 "electric_dipole_moment_norm": 3.46816300799, 
			 "electric_quadrupole_moment_norm": 14.3916326433, 
			 "total_energy": -481.994757614, 
			 "HOMO_LUMO_gap": 0.27011, 
			 "cosmo_polarized_energy": -11.98, 
			 "cosmo_cavitation_energy": 26.25, 
			 "cosmo_dispersion_energy": -19.48, 
			 "cosmo_repulsion_energy": 1.58, 
			 "cosmo_total_nonelectrostatic_energy": 8.36, 
			 "SMD_solvation_energy": 4.19 
		},
		"coords": [
			{
				"x": 3.3492741715,
				"y": -0.7034905046,
				"z": 2.0991521813,
				"element": "N" 
			},
			{
				"x": 2.641369979,
				"y": -1.0785673883,
				"z": 0.9885286933,
				"element": "C" 
			},
			{
				"x": 3.196652678,
				"y": -1.416649902,
				"z": -0.0489140085,
				"element": "O" 
			},
			{
				"x": 1.125253042,
				"y": -1.0035992924,
				"z": 1.1279359191,
				"element": "C" 
			},
			{
				"x": 0.5653248172,
				"y": 0.3670140784,
				"z": 0.6836970627,
				"element": "C" 
			},
			{
				"x": 0.8681391716,
				"y": 0.7163093327,
				"z": -0.8152359326,
				"element": "C" 
			},
			{
				"x": -0.5325136096,
				"y": 0.9714801206,
				"z": -1.4174771831,
				"element": "C" 
			},
			{
				"x": -1.0940768196,
				"y": 2.2899535532,
				"z": -0.8345132291,
				"element": "C" 
			},
			{
				"x": -1.4167555677,
				"y": 1.9094034358,
				"z": 0.6486750031,
				"element": "C" 
			},
			{
				"x": -0.987430099,
				"y": 0.4249330019,
				"z": 0.7323342019,
				"element": "C" 
			},
			{
				"x": -1.3802828325,
				"y": -0.0827106617,
				"z": -0.673212813,
				"element": "C" 
			},
			{
				"x": 2.904860595,
				"y": -0.4028686366,
				"z": 2.9506713207,
				"element": "H" 
			},
			{
				"x": 4.3553849119,
				"y": -0.6725013317,
				"z": 2.03429804,
				"element": "H" 
			},
			{
				"x": 0.8224038703,
				"y": -1.2016820324,
				"z": 2.1640943023,
				"element": "H" 
			},
			{
				"x": 0.7129980005,
				"y": -1.7998321579,
				"z": 0.5020093687,
				"element": "H" 
			},
			{
				"x": 0.9844579484,
				"y": 1.1302810054,
				"z": 1.3518121379,
				"element": "H" 
			},
			{
				"x": 1.5271773079,
				"y": 1.5850590758,
				"z": -0.9142535196,
				"element": "H" 
			},
			{
				"x": 1.3692473996,
				"y": -0.1218726797,
				"z": -1.3080570737,
				"element": "H" 
			},
			{
				"x": -0.5550787259,
				"y": 0.9252324196,
				"z": -2.5097978109,
				"element": "H" 
			},
			{
				"x": -1.9995247422,
				"y": 2.5996099775,
				"z": -1.3673517296,
				"element": "H" 
			},
			{
				"x": -0.3749265075,
				"y": 3.1119558636,
				"z": -0.9130680806,
				"element": "H" 
			},
			{
				"x": -2.4867351055,
				"y": 2.0127822741,
				"z": 0.8585896184,
				"element": "H" 
			},
			{
				"x": -0.8835681867,
				"y": 2.5343192842,
				"z": 1.3731370432,
				"element": "H" 
			},
			{
				"x": -1.4203318518,
				"y": -0.1119514541,
				"z": 1.5823553418,
				"element": "H" 
			},
			{
				"x": -1.0675891717,
				"y": -1.112229588,
				"z": -0.8763040356,
				"element": "H" 
			},
			{
				"x": -2.4545306734,
				"y": 0.0003222063,
				"z": -0.872504818,
				"element": "H" 
			}
		],
		 "valence_orbital": [ 
			{
				"type": "occ",
				"energy": -0.3092,
				"method": "rhf"
			},
			{
				"type": "occ",
				"energy": -0.29972,
				"method": "rhf"
			},
			{
				"type": "occ",
				"energy": -0.29236,
				"method": "rhf"
			},
			{
				"type": "occ",
				"energy": -0.26195,
				"method": "rhf"
			},
			{
				"type": "occ",
				"energy": -0.23789,
				"method": "rhf"
			},
			{
				"type": "unocc",
				"energy": 0.03222,
				"method": "rhf"
			},
			{
				"type": "unocc",
				"energy": 0.0676,
				"method": "rhf"
			},
			{
				"type": "unocc",
				"energy": 0.08782,
				"method": "rhf"
			},
			{
				"type": "unocc",
				"energy": 0.11023,
				"method": "rhf"
			},
			{
				"type": "unocc",
				"energy": 0.11783,
				"method": "rhf"
			}
		],
		"cosmo_sigma_profile": { 
			"-0.025": 0.0,
			"-0.024": 0.0,
			"-0.023": 0.0,
			"-0.022": 0.0,
			"-0.021": 0.0,
			"-0.02": 0.0,
			"-0.019": 0.0,
			"-0.018": 0.0,
			"-0.017": 0.0,
			"-0.016": 0.0,
			"-0.015": 0.00622757818888,
			"-0.014": 1.04745011668,
			"-0.013": 2.28794319903,
			"-0.012": 2.32826316879,
			"-0.011": 2.36358092475,
			"-0.01": 2.24108971504,
			"-0.009": 2.80734225274,
			"-0.008": 1.69241392844,
			"-0.007": 2.65994582845,
			"-0.006": 2.09754852382,
			"-0.005": 2.69673806052,
			"-0.004": 5.30548128271,
			"-0.003": 11.6611992279,
			"-0.002": 27.4535283696,
			"-0.001": 33.6093134683,
			"0.0": 27.4367482157,
			"0.001": 25.7190955316,
			"0.002": 16.4660883326,
			"0.003": 4.25745155503,
			"0.004": 3.571793001,
			"0.005": 2.71267363408,
			"0.006": 1.99902319786,
			"0.007": 1.29081837256,
			"0.008": 2.25466901264,
			"0.009": 1.84587978726,
			"0.01": 1.10130492052,
			"0.011": 1.0340138743,
			"0.012": 1.68874944378,
			"0.013": 2.02156843788,
			"0.014": 5.16572892908,
			"0.015": 3.26148955767,
			"0.016": 0.227579855358,
			"0.017": 0.0,
			"0.018": 0.0,
			"0.019": 0.0,
			"0.02": 0.0,
			"0.021": 0.0,
			"0.022": 0.0,
			"0.023": 0.0,
			"0.024": 0.0,
			"0.025": 0.0
		}
	}
}
