{
	 "smiles": "ClCCCCCCl", 
	 "Tm": 200.65, 
	 "num_atms": 17, 
	 "gaussian": { 
		 "optdone": 1, 
		 "sigma_profile": "yes", 
		 "theory": "DFT", 
		 "functional": "B3LYP", 
		 "basiset": "6-31G**", 
		 "properties": { 
			 "R2extent": 2323.1145, 
			 "electric_dipole_moment_norm": 2.89892655133, 
			 "electric_quadrupole_moment_norm": 11.7824010601, 
			 "total_energy": -1116.96139126, 
			 "HOMO_LUMO_gap": 0.31112, 
			 "cosmo_polarized_energy": -6.63, 
			 "cosmo_cavitation_energy": 22.37, 
			 "cosmo_dispersion_energy": -16.57, 
			 "cosmo_repulsion_energy": 1.42, 
			 "cosmo_total_nonelectrostatic_energy": 7.22, 
			 "SMD_solvation_energy": 2.8 
		},
		"coords": [
			{
				"x": 2.7423683674,
				"y": 3.656307535,
				"z": -0.6893241911,
				"element": "Cl" 
			},
			{
				"x": 1.668804863,
				"y": 2.2421205858,
				"z": -1.0940009688,
				"element": "C" 
			},
			{
				"x": 0.2029721619,
				"y": 2.561252567,
				"z": -0.813951473,
				"element": "C" 
			},
			{
				"x": -0.7442865704,
				"y": 1.3767988655,
				"z": -1.1231447063,
				"element": "C" 
			},
			{
				"x": -1.1134507728,
				"y": 0.4922204267,
				"z": 0.0790479891,
				"element": "C" 
			},
			{
				"x": 0.0311931891,
				"y": -0.2174968428,
				"z": 0.7914181146,
				"element": "C" 
			},
			{
				"x": 0.909066946,
				"y": -1.3936829467,
				"z": -0.2919862393,
				"element": "Cl" 
			},
			{
				"x": 2.0437005599,
				"y": 1.4004387053,
				"z": -0.5118341416,
				"element": "H" 
			},
			{
				"x": 1.8339775766,
				"y": 2.0289180178,
				"z": -2.151632836,
				"element": "H" 
			},
			{
				"x": -0.0751572108,
				"y": 3.4258332059,
				"z": -1.4252623564,
				"element": "H" 
			},
			{
				"x": 0.091247575,
				"y": 2.8775602575,
				"z": 0.2302493946,
				"element": "H" 
			},
			{
				"x": -0.318461214,
				"y": 0.7513610692,
				"z": -1.9170240394,
				"element": "H" 
			},
			{
				"x": -1.6809240005,
				"y": 1.7758183716,
				"z": -1.5277529318,
				"element": "H" 
			},
			{
				"x": -1.8470457237,
				"y": -0.257289797,
				"z": -0.2387590158,
				"element": "H" 
			},
			{
				"x": -1.6099952656,
				"y": 1.1105643712,
				"z": 0.8411051951,
				"element": "H" 
			},
			{
				"x": 0.7882291934,
				"y": 0.4766423365,
				"z": 1.1602383911,
				"element": "H" 
			},
			{
				"x": -0.3362396745,
				"y": -0.8088667285,
				"z": 1.631113815,
				"element": "H" 
			}
		],
		 "valence_orbital": [ 
			{
				"type": "occ",
				"energy": -0.34222,
				"method": "rhf"
			},
			{
				"type": "occ",
				"energy": -0.30156,
				"method": "rhf"
			},
			{
				"type": "occ",
				"energy": -0.30079,
				"method": "rhf"
			},
			{
				"type": "occ",
				"energy": -0.29167,
				"method": "rhf"
			},
			{
				"type": "occ",
				"energy": -0.29081,
				"method": "rhf"
			},
			{
				"type": "unocc",
				"energy": 0.02031,
				"method": "rhf"
			},
			{
				"type": "unocc",
				"energy": 0.02563,
				"method": "rhf"
			},
			{
				"type": "unocc",
				"energy": 0.07577,
				"method": "rhf"
			},
			{
				"type": "unocc",
				"energy": 0.09528,
				"method": "rhf"
			},
			{
				"type": "unocc",
				"energy": 0.10911,
				"method": "rhf"
			}
		],
		"cosmo_sigma_profile": { 
			"-0.025": 0.0,
			"-0.024": 0.0,
			"-0.023": 0.0,
			"-0.022": 0.0,
			"-0.021": 0.0,
			"-0.02": 0.0,
			"-0.019": 0.0,
			"-0.018": 0.0,
			"-0.017": 0.0,
			"-0.016": 0.0,
			"-0.015": 0.0,
			"-0.014": 0.0,
			"-0.013": 0.0,
			"-0.012": 0.0,
			"-0.011": 0.0,
			"-0.01": 0.0,
			"-0.009": 0.0,
			"-0.008": 0.749267067745,
			"-0.007": 4.29363758433,
			"-0.006": 7.53964452953,
			"-0.005": 11.3123114254,
			"-0.004": 19.5884888176,
			"-0.003": 20.0085939629,
			"-0.002": 17.8168218106,
			"-0.001": 13.9742856487,
			"0.0": 10.2423600494,
			"0.001": 8.90151272466,
			"0.002": 8.77795014269,
			"0.003": 8.22614413099,
			"0.004": 7.64605505642,
			"0.005": 11.3798161814,
			"0.006": 12.8968977481,
			"0.007": 15.0584145237,
			"0.008": 0.378682706845,
			"0.009": 0.0,
			"0.01": 0.0,
			"0.011": 0.0,
			"0.012": 0.0,
			"0.013": 0.0,
			"0.014": 0.0,
			"0.015": 0.0,
			"0.016": 0.0,
			"0.017": 0.0,
			"0.018": 0.0,
			"0.019": 0.0,
			"0.02": 0.0,
			"0.021": 0.0,
			"0.022": 0.0,
			"0.023": 0.0,
			"0.024": 0.0,
			"0.025": 0.0
		}
	}
}
