{
	 "smiles": "CNC(=NC1=CC=NN1C(C)C)C1=CC=CO1", 
	 "Tm": 507.15, 
	 "num_atms": 33, 
	 "gaussian": { 
		 "optdone": 1, 
		 "sigma_profile": "yes", 
		 "theory": "DFT", 
		 "functional": "B3LYP", 
		 "basiset": "6-31G**", 
		 "properties": { 
			 "R2extent": 4259.135, 
			 "electric_dipole_moment_norm": 5.20852927994, 
			 "electric_quadrupole_moment_norm": 8.50307614749, 
			 "total_energy": -761.0996938, 
			 "HOMO_LUMO_gap": 0.15125, 
			 "cosmo_polarized_energy": -13.36, 
			 "cosmo_cavitation_energy": 36.22, 
			 "cosmo_dispersion_energy": -24.46, 
			 "cosmo_repulsion_energy": 1.94, 
			 "cosmo_total_nonelectrostatic_energy": 13.71, 
			 "SMD_solvation_energy": 5.54 
		},
		"coords": [
			{
				"x": 0.8002524036,
				"y": 3.1115605528,
				"z": -2.2055148203,
				"element": "C" 
			},
			{
				"x": 0.3843779916,
				"y": 1.7165967057,
				"z": -2.0825504116,
				"element": "N" 
			},
			{
				"x": 0.0835572945,
				"y": 1.1037927172,
				"z": -0.8789492151,
				"element": "C" 
			},
			{
				"x": 0.5101401881,
				"y": -0.1059215004,
				"z": -0.7002999722,
				"element": "N" 
			},
			{
				"x": 0.0139007848,
				"y": -0.9616984846,
				"z": 0.268124103,
				"element": "C" 
			},
			{
				"x": -1.2268287965,
				"y": -1.1169727522,
				"z": 0.8903534819,
				"element": "C" 
			},
			{
				"x": -1.0844255174,
				"y": -2.2652766961,
				"z": 1.6863916707,
				"element": "C" 
			},
			{
				"x": 0.134146109,
				"y": -2.7985503965,
				"z": 1.5873053412,
				"element": "N" 
			},
			{
				"x": 0.7929804364,
				"y": -2.002745289,
				"z": 0.7100338045,
				"element": "N" 
			},
			{
				"x": 2.1812564682,
				"y": -2.3454503833,
				"z": 0.3672510706,
				"element": "C" 
			},
			{
				"x": 3.1569096553,
				"y": -1.2275551741,
				"z": 0.7549638998,
				"element": "C" 
			},
			{
				"x": 2.3083461842,
				"y": -2.7630749213,
				"z": -1.1034889644,
				"element": "C" 
			},
			{
				"x": -0.7626366983,
				"y": 1.8854015362,
				"z": 0.0428636584,
				"element": "C" 
			},
			{
				"x": -1.8808308469,
				"y": 2.6549218594,
				"z": -0.1468820491,
				"element": "C" 
			},
			{
				"x": -2.289037126,
				"y": 3.1031844675,
				"z": 1.1476724683,
				"element": "C" 
			},
			{
				"x": -1.3839005945,
				"y": 2.5841131123,
				"z": 2.0261913103,
				"element": "C" 
			},
			{
				"x": -0.4498814555,
				"y": 1.8473372898,
				"z": 1.3729526063,
				"element": "O" 
			},
			{
				"x": 0.6831046503,
				"y": 3.429289128,
				"z": -3.2451034661,
				"element": "H" 
			},
			{
				"x": 0.1681963177,
				"y": 3.744516115,
				"z": -1.5828876327,
				"element": "H" 
			},
			{
				"x": 1.8468882601,
				"y": 3.2701321511,
				"z": -1.9080148992,
				"element": "H" 
			},
			{
				"x": 0.8984654735,
				"y": 1.0730568514,
				"z": -2.6742307396,
				"element": "H" 
			},
			{
				"x": -2.0997925173,
				"y": -0.4962374804,
				"z": 0.7592600283,
				"element": "H" 
			},
			{
				"x": -1.8190501597,
				"y": -2.7310362767,
				"z": 2.3308954477,
				"element": "H" 
			},
			{
				"x": 2.3758345362,
				"y": -3.2161245686,
				"z": 0.9991993465,
				"element": "H" 
			},
			{
				"x": 2.9900206474,
				"y": -0.3342038548,
				"z": 0.1482468761,
				"element": "H" 
			},
			{
				"x": 4.1872070214,
				"y": -1.5645083885,
				"z": 0.5989580948,
				"element": "H" 
			},
			{
				"x": 3.0394268235,
				"y": -0.9604760084,
				"z": 1.8093055426,
				"element": "H" 
			},
			{
				"x": 3.3303570647,
				"y": -3.0993150025,
				"z": -1.3082852158,
				"element": "H" 
			},
			{
				"x": 2.0747832133,
				"y": -1.9253453067,
				"z": -1.7643290405,
				"element": "H" 
			},
			{
				"x": 1.6244127698,
				"y": -3.5867199897,
				"z": -1.3280895425,
				"element": "H" 
			},
			{
				"x": -2.3623141357,
				"y": 2.8490794534,
				"z": -1.0943810835,
				"element": "H" 
			},
			{
				"x": -3.139692192,
				"y": 3.7235814761,
				"z": 1.389700616,
				"element": "H" 
			},
			{
				"x": -1.264774254,
				"y": 2.6501490578,
				"z": 3.0965376857,
				"element": "H" 
			}
		],
		 "valence_orbital": [ 
			{
				"type": "occ",
				"energy": -0.26538,
				"method": "rhf"
			},
			{
				"type": "occ",
				"energy": -0.24896,
				"method": "rhf"
			},
			{
				"type": "occ",
				"energy": -0.23837,
				"method": "rhf"
			},
			{
				"type": "occ",
				"energy": -0.22355,
				"method": "rhf"
			},
			{
				"type": "occ",
				"energy": -0.19012,
				"method": "rhf"
			},
			{
				"type": "unocc",
				"energy": -0.03887,
				"method": "rhf"
			},
			{
				"type": "unocc",
				"energy": 0.0206,
				"method": "rhf"
			},
			{
				"type": "unocc",
				"energy": 0.05815,
				"method": "rhf"
			},
			{
				"type": "unocc",
				"energy": 0.06956,
				"method": "rhf"
			},
			{
				"type": "unocc",
				"energy": 0.08582,
				"method": "rhf"
			}
		],
		"cosmo_sigma_profile": { 
			"-0.025": 0.0,
			"-0.024": 0.0,
			"-0.023": 0.0,
			"-0.022": 0.0,
			"-0.021": 0.0,
			"-0.02": 0.0,
			"-0.019": 0.0,
			"-0.018": 0.0,
			"-0.017": 0.0,
			"-0.016": 0.0,
			"-0.015": 0.0,
			"-0.014": 0.0,
			"-0.013": 0.148403022654,
			"-0.012": 1.0574768284,
			"-0.011": 1.15477745293,
			"-0.01": 0.954943594684,
			"-0.009": 2.87588936669,
			"-0.008": 4.14811420113,
			"-0.007": 6.75991015762,
			"-0.006": 6.4813703922,
			"-0.005": 12.0334496155,
			"-0.004": 21.4679666087,
			"-0.003": 30.7233427433,
			"-0.002": 29.0713432823,
			"-0.001": 27.7552903787,
			"0.0": 25.9969785126,
			"0.001": 25.6602185579,
			"0.002": 17.6649834558,
			"0.003": 14.9617161233,
			"0.004": 13.0528369337,
			"0.005": 9.41190006827,
			"0.006": 10.3536597849,
			"0.007": 8.2077159732,
			"0.008": 5.89515865307,
			"0.009": 2.64575335724,
			"0.01": 1.21898554202,
			"0.011": 1.38544894447,
			"0.012": 1.20518617492,
			"0.013": 0.9456029077,
			"0.014": 1.40454878401,
			"0.015": 0.938461091395,
			"0.016": 1.1044243914,
			"0.017": 0.388100543133,
			"0.018": 0.0,
			"0.019": 0.0,
			"0.02": 0.0,
			"0.021": 0.0,
			"0.022": 0.0,
			"0.023": 0.0,
			"0.024": 0.0,
			"0.025": 0.0
		}
	}
}
