{
	 "smiles": "CNC1=NC(=CS1)C1=C(C=CC=C1)[N+]([O-])=O", 
	 "Tm": 413.15, 
	 "num_atms": 25, 
	 "gaussian": { 
		 "optdone": 1, 
		 "sigma_profile": "yes", 
		 "theory": "DFT", 
		 "functional": "B3LYP", 
		 "basiset": "6-31G**", 
		 "properties": { 
			 "R2extent": 4493.3656, 
			 "electric_dipole_moment_norm": 2.93019241177, 
			 "electric_quadrupole_moment_norm": 19.8377782594, 
			 "total_energy": -1099.26558942, 
			 "HOMO_LUMO_gap": 0.13243, 
			 "cosmo_polarized_energy": -15.23, 
			 "cosmo_cavitation_energy": 31.88, 
			 "cosmo_dispersion_energy": -22.87, 
			 "cosmo_repulsion_energy": 1.74, 
			 "cosmo_total_nonelectrostatic_energy": 10.75, 
			 "SMD_solvation_energy": 6.08 
		},
		"coords": [
			{
				"x": 3.0782722801,
				"y": -0.0604523817,
				"z": -2.7683489264,
				"element": "C" 
			},
			{
				"x": 2.2738982099,
				"y": 1.035501691,
				"z": -3.2989988824,
				"element": "N" 
			},
			{
				"x": 1.1655552517,
				"y": 1.4372088575,
				"z": -2.6086205734,
				"element": "C" 
			},
			{
				"x": 0.8903299587,
				"y": 1.0755693207,
				"z": -1.3886942949,
				"element": "N" 
			},
			{
				"x": -0.2685471673,
				"y": 1.6853636084,
				"z": -0.9419766573,
				"element": "C" 
			},
			{
				"x": -0.8823128312,
				"y": 2.5302887397,
				"z": -1.8225541186,
				"element": "C" 
			},
			{
				"x": 0.0100751417,
				"y": 2.5867494187,
				"z": -3.3217180719,
				"element": "S" 
			},
			{
				"x": -0.7440876116,
				"y": 1.4259917445,
				"z": 0.4330593348,
				"element": "C" 
			},
			{
				"x": -0.7322130593,
				"y": 0.1563745397,
				"z": 1.0387937797,
				"element": "C" 
			},
			{
				"x": -1.0835812471,
				"y": -0.0365405996,
				"z": 2.3734111885,
				"element": "C" 
			},
			{
				"x": -1.5122690746,
				"y": 1.0467866392,
				"z": 3.1358325831,
				"element": "C" 
			},
			{
				"x": -1.5636182219,
				"y": 2.3159103808,
				"z": 2.5570352939,
				"element": "C" 
			},
			{
				"x": -1.1673869456,
				"y": 2.4992863134,
				"z": 1.2334519079,
				"element": "C" 
			},
			{
				"x": -0.4176615843,
				"y": -1.0624249539,
				"z": 0.2714746125,
				"element": "N" 
			},
			{
				"x": -0.8422828848,
				"y": -1.1402566415,
				"z": -0.8773176757,
				"element": "O" 
			},
			{
				"x": 0.2049760939,
				"y": -1.9486573846,
				"z": 0.857385736,
				"element": "O" 
			},
			{
				"x": 3.4258667286,
				"y": 0.1991767491,
				"z": -1.766637734,
				"element": "H" 
			},
			{
				"x": 3.943400907,
				"y": -0.2011189022,
				"z": -3.4196151527,
				"element": "H" 
			},
			{
				"x": 2.5140989038,
				"y": -0.9990576402,
				"z": -2.697859893,
				"element": "H" 
			},
			{
				"x": 2.2202583127,
				"y": 1.1079391417,
				"z": -4.3041439467,
				"element": "H" 
			},
			{
				"x": -1.8104797989,
				"y": 3.0699693753,
				"z": -1.7080584291,
				"element": "H" 
			},
			{
				"x": -1.0316317768,
				"y": -1.0369220464,
				"z": 2.786164487,
				"element": "H" 
			},
			{
				"x": -1.8013950495,
				"y": 0.899066062,
				"z": 4.1713878911,
				"element": "H" 
			},
			{
				"x": -1.8886926078,
				"y": 3.1702544568,
				"z": 3.1431858103,
				"element": "H" 
			},
			{
				"x": -1.1480719273,
				"y": 3.4965935117,
				"z": 0.8059617311,
				"element": "H" 
			}
		],
		 "valence_orbital": [ 
			{
				"type": "occ",
				"energy": -0.28027,
				"method": "rhf"
			},
			{
				"type": "occ",
				"energy": -0.27423,
				"method": "rhf"
			},
			{
				"type": "occ",
				"energy": -0.26289,
				"method": "rhf"
			},
			{
				"type": "occ",
				"energy": -0.25839,
				"method": "rhf"
			},
			{
				"type": "occ",
				"energy": -0.20531,
				"method": "rhf"
			},
			{
				"type": "unocc",
				"energy": -0.07288,
				"method": "rhf"
			},
			{
				"type": "unocc",
				"energy": -0.03196,
				"method": "rhf"
			},
			{
				"type": "unocc",
				"energy": -0.00751,
				"method": "rhf"
			},
			{
				"type": "unocc",
				"energy": 0.00129,
				"method": "rhf"
			},
			{
				"type": "unocc",
				"energy": 0.01305,
				"method": "rhf"
			}
		],
		"cosmo_sigma_profile": { 
			"-0.025": 0.0,
			"-0.024": 0.0,
			"-0.023": 0.0,
			"-0.022": 0.0,
			"-0.021": 0.0,
			"-0.02": 0.0,
			"-0.019": 0.0,
			"-0.018": 0.0,
			"-0.017": 0.0,
			"-0.016": 0.0389320369556,
			"-0.015": 0.987014557381,
			"-0.014": 1.21539126603,
			"-0.013": 1.30132200802,
			"-0.012": 1.47989619486,
			"-0.011": 1.30853938462,
			"-0.01": 1.22318796687,
			"-0.009": 2.21573683455,
			"-0.008": 4.24453123124,
			"-0.007": 11.025077273,
			"-0.006": 15.1194974331,
			"-0.005": 15.8762761065,
			"-0.004": 14.3207159963,
			"-0.003": 15.4659070483,
			"-0.002": 17.283490293,
			"-0.001": 15.0034279448,
			"0.0": 12.0019053456,
			"0.001": 21.4185666392,
			"0.002": 26.2199816013,
			"0.003": 18.1782285098,
			"0.004": 11.427709785,
			"0.005": 7.92328025895,
			"0.006": 6.82815658082,
			"0.007": 9.46188596336,
			"0.008": 13.7874946439,
			"0.009": 7.46173899478,
			"0.01": 3.90653806016,
			"0.011": 0.7734470552,
			"0.012": 0.129274745332,
			"0.013": 0.0,
			"0.014": 0.0,
			"0.015": 0.0,
			"0.016": 0.0,
			"0.017": 0.0,
			"0.018": 0.0,
			"0.019": 0.0,
			"0.02": 0.0,
			"0.021": 0.0,
			"0.022": 0.0,
			"0.023": 0.0,
			"0.024": 0.0,
			"0.025": 0.0
		}
	}
}
