{
	 "smiles": "CN1CCN=C1C(C1=NCCN1C)C1=NCCN1C", 
	 "Tm": 515.15, 
	 "num_atms": 41, 
	 "gaussian": { 
		 "optdone": 1, 
		 "sigma_profile": "yes", 
		 "theory": "DFT", 
		 "functional": "B3LYP", 
		 "basiset": "6-31G**", 
		 "properties": { 
			 "R2extent": 4885.0027, 
			 "electric_dipole_moment_norm": 2.34826260457, 
			 "electric_quadrupole_moment_norm": 10.8084650899, 
			 "total_energy": -837.108598151, 
			 "HOMO_LUMO_gap": 0.20922, 
			 "cosmo_polarized_energy": -16.61, 
			 "cosmo_cavitation_energy": 39.91, 
			 "cosmo_dispersion_energy": -27.3, 
			 "cosmo_repulsion_energy": 2.15, 
			 "cosmo_total_nonelectrostatic_energy": 14.76, 
			 "SMD_solvation_energy": -3.14 
		},
		"coords": [
			{
				"x": -3.2660573296,
				"y": 1.0183963278,
				"z": -0.1292918069,
				"element": "C" 
			},
			{
				"x": -2.0609085259,
				"y": 1.8262936924,
				"z": -0.1903775422,
				"element": "N" 
			},
			{
				"x": -2.0851643124,
				"y": 3.0869345345,
				"z": -0.9390949703,
				"element": "C" 
			},
			{
				"x": -0.574880512,
				"y": 3.4082045747,
				"z": -1.0374160759,
				"element": "C" 
			},
			{
				"x": 0.1213431074,
				"y": 2.1358447116,
				"z": -0.7744178823,
				"element": "N" 
			},
			{
				"x": -0.7673670485,
				"y": 1.3287310585,
				"z": -0.3113239748,
				"element": "C" 
			},
			{
				"x": -0.4549861414,
				"y": -0.0808729598,
				"z": 0.1636703595,
				"element": "C" 
			},
			{
				"x": 0.879485241,
				"y": -0.6214397373,
				"z": -0.313868973,
				"element": "C" 
			},
			{
				"x": 1.7974756953,
				"y": -1.0080277009,
				"z": 0.4987393929,
				"element": "N" 
			},
			{
				"x": 2.9057912556,
				"y": -1.5053812793,
				"z": -0.3334039525,
				"element": "C" 
			},
			{
				"x": 2.3225676756,
				"y": -1.6482781258,
				"z": -1.7585950796,
				"element": "C" 
			},
			{
				"x": 1.1428471634,
				"y": -0.7829926108,
				"z": -1.6697900165,
				"element": "N" 
			},
			{
				"x": 0.1361576434,
				"y": -0.8638023689,
				"z": -2.7054306669,
				"element": "C" 
			},
			{
				"x": -0.6387091139,
				"y": -0.2144007927,
				"z": 1.6679282867,
				"element": "C" 
			},
			{
				"x": -1.5124338273,
				"y": -1.0482539285,
				"z": 2.1218296189,
				"element": "N" 
			},
			{
				"x": -1.5182139767,
				"y": -0.8796173109,
				"z": 3.5859845669,
				"element": "C" 
			},
			{
				"x": -0.2947543928,
				"y": 0.0111546989,
				"z": 3.9072399075,
				"element": "C" 
			},
			{
				"x": -0.0062991868,
				"y": 0.5952640269,
				"z": 2.5930122814,
				"element": "N" 
			},
			{
				"x": 1.2434495914,
				"y": 1.3149903224,
				"z": 2.4149945092,
				"element": "C" 
			},
			{
				"x": -3.1170113684,
				"y": 0.1635371534,
				"z": 0.5337073332,
				"element": "H" 
			},
			{
				"x": -3.5851182116,
				"y": 0.6602669646,
				"z": -1.1230503692,
				"element": "H" 
			},
			{
				"x": -4.0800349163,
				"y": 1.6229116901,
				"z": 0.2834669235,
				"element": "H" 
			},
			{
				"x": -2.541612604,
				"y": 2.9341581697,
				"z": -1.9322222957,
				"element": "H" 
			},
			{
				"x": -2.6669645382,
				"y": 3.8519516606,
				"z": -0.4146171697,
				"element": "H" 
			},
			{
				"x": -0.2876714006,
				"y": 3.816292409,
				"z": -2.0110776184,
				"element": "H" 
			},
			{
				"x": -0.2739670364,
				"y": 4.1398651932,
				"z": -0.2754042278,
				"element": "H" 
			},
			{
				"x": -1.2238392459,
				"y": -0.748793084,
				"z": -0.242090758,
				"element": "H" 
			},
			{
				"x": 3.297705744,
				"y": -2.447115152,
				"z": 0.0624871825,
				"element": "H" 
			},
			{
				"x": 3.7247922004,
				"y": -0.7735547083,
				"z": -0.3118326464,
				"element": "H" 
			},
			{
				"x": 3.00266332,
				"y": -1.3154911117,
				"z": -2.5496779786,
				"element": "H" 
			},
			{
				"x": 2.0232810583,
				"y": -2.6874431076,
				"z": -1.9792356768,
				"element": "H" 
			},
			{
				"x": -0.6043630667,
				"y": -0.073040514,
				"z": -2.5749726514,
				"element": "H" 
			},
			{
				"x": -0.3778086376,
				"y": -1.8400678954,
				"z": -2.7336973844,
				"element": "H" 
			},
			{
				"x": 0.608811225,
				"y": -0.7054575249,
				"z": -3.6799517763,
				"element": "H" 
			},
			{
				"x": -1.4800676714,
				"y": -1.850304825,
				"z": 4.0900453844,
				"element": "H" 
			},
			{
				"x": -2.4571481494,
				"y": -0.3939997521,
				"z": 3.8868429684,
				"element": "H" 
			},
			{
				"x": 0.5681504119,
				"y": -0.5798051132,
				"z": 4.2550119317,
				"element": "H" 
			},
			{
				"x": -0.4956988444,
				"y": 0.7893341599,
				"z": 4.651776003,
				"element": "H" 
			},
			{
				"x": 1.3112064814,
				"y": 1.7103560599,
				"z": 1.4015492745,
				"element": "H" 
			},
			{
				"x": 2.1123993159,
				"y": 0.6687672605,
				"z": 2.5932502013,
				"element": "H" 
			},
			{
				"x": 1.2657529284,
				"y": 2.1556849344,
				"z": 3.1182053681,
				"element": "H" 
			}
		],
		 "valence_orbital": [ 
			{
				"type": "occ",
				"energy": -0.25139,
				"method": "rhf"
			},
			{
				"type": "occ",
				"energy": -0.24757,
				"method": "rhf"
			},
			{
				"type": "occ",
				"energy": -0.20784,
				"method": "rhf"
			},
			{
				"type": "occ",
				"energy": -0.19974,
				"method": "rhf"
			},
			{
				"type": "occ",
				"energy": -0.19274,
				"method": "rhf"
			},
			{
				"type": "unocc",
				"energy": 0.01648,
				"method": "rhf"
			},
			{
				"type": "unocc",
				"energy": 0.03187,
				"method": "rhf"
			},
			{
				"type": "unocc",
				"energy": 0.05072,
				"method": "rhf"
			},
			{
				"type": "unocc",
				"energy": 0.07497,
				"method": "rhf"
			},
			{
				"type": "unocc",
				"energy": 0.09776,
				"method": "rhf"
			}
		],
		"cosmo_sigma_profile": { 
			"-0.025": 0.0,
			"-0.024": 0.0,
			"-0.023": 0.0,
			"-0.022": 0.0,
			"-0.021": 0.0,
			"-0.02": 0.0,
			"-0.019": 0.0,
			"-0.018": 0.0,
			"-0.017": 0.0,
			"-0.016": 0.0,
			"-0.015": 0.0,
			"-0.014": 0.0,
			"-0.013": 0.0,
			"-0.012": 0.0,
			"-0.011": 0.0,
			"-0.01": 0.0,
			"-0.009": 0.0,
			"-0.008": 0.0149026822406,
			"-0.007": 1.11717086712,
			"-0.006": 3.23114510493,
			"-0.005": 12.135467285,
			"-0.004": 40.9578590341,
			"-0.003": 62.4048773653,
			"-0.002": 53.8554730901,
			"-0.001": 36.3476681918,
			"0.0": 14.2842545204,
			"0.001": 9.47063189852,
			"0.002": 8.81082391813,
			"0.003": 8.91128477074,
			"0.004": 7.20094181451,
			"0.005": 6.99517949579,
			"0.006": 6.84512421268,
			"0.007": 6.53825258067,
			"0.008": 5.55549100879,
			"0.009": 4.29754171951,
			"0.01": 3.65159522664,
			"0.011": 3.60242344109,
			"0.012": 2.72976530271,
			"0.013": 2.89495909538,
			"0.014": 2.84631450251,
			"0.015": 1.76059162146,
			"0.016": 1.77033883873,
			"0.017": 2.19052883515,
			"0.018": 1.09150352404,
			"0.019": 0.0875884720338,
			"0.02": 0.0,
			"0.021": 0.0,
			"0.022": 0.0,
			"0.023": 0.0,
			"0.024": 0.0,
			"0.025": 0.0
		}
	}
}
