{
	 "smiles": "COC1=CC(=CC=C1[N+]([O-])=O)C(O)=O", 
	 "Tm": 506.15, 
	 "num_atms": 21, 
	 "gaussian": { 
		 "optdone": 1, 
		 "sigma_profile": "yes", 
		 "theory": "DFT", 
		 "functional": "B3LYP", 
		 "basiset": "6-31G**", 
		 "properties": { 
			 "R2extent": 3808.5748, 
			 "electric_dipole_moment_norm": 5.17188095957, 
			 "electric_quadrupole_moment_norm": 10.6046829349, 
			 "total_energy": -739.834701771, 
			 "HOMO_LUMO_gap": 0.15886, 
			 "cosmo_polarized_energy": -15.52, 
			 "cosmo_cavitation_energy": 26.92, 
			 "cosmo_dispersion_energy": -19.55, 
			 "cosmo_repulsion_energy": 1.54, 
			 "cosmo_total_nonelectrostatic_energy": 8.91, 
			 "SMD_solvation_energy": 9.08 
		},
		"coords": [
			{
				"x": -1.0956727373,
				"y": 1.2838712068,
				"z": -0.9171242101,
				"element": "C" 
			},
			{
				"x": -0.5988952983,
				"y": 0.0339658514,
				"z": -1.3862988268,
				"element": "O" 
			},
			{
				"x": -0.056482292,
				"y": -0.8242657485,
				"z": -0.5015664484,
				"element": "C" 
			},
			{
				"x": 0.0613058854,
				"y": -0.5585443736,
				"z": 0.8703720323,
				"element": "C" 
			},
			{
				"x": 0.603308006,
				"y": -1.5105268945,
				"z": 1.7398163104,
				"element": "C" 
			},
			{
				"x": 1.0251353318,
				"y": -2.7571470955,
				"z": 1.2655298748,
				"element": "C" 
			},
			{
				"x": 0.9034357223,
				"y": -3.0400766726,
				"z": -0.0879474707,
				"element": "C" 
			},
			{
				"x": 0.386880571,
				"y": -2.0862540972,
				"z": -0.9635867156,
				"element": "C" 
			},
			{
				"x": 0.3321253554,
				"y": -2.4528862423,
				"z": -2.3865184995,
				"element": "N" 
			},
			{
				"x": 0.4535594522,
				"y": -1.5624329709,
				"z": -3.2216934655,
				"element": "O" 
			},
			{
				"x": 0.1963905089,
				"y": -3.6507555634,
				"z": -2.6450007058,
				"element": "O" 
			},
			{
				"x": 0.7441531429,
				"y": -1.2363168206,
				"z": 3.1996262324,
				"element": "C" 
			},
			{
				"x": 0.3026934131,
				"y": -0.0047365981,
				"z": 3.5536054666,
				"element": "O" 
			},
			{
				"x": 1.2034667002,
				"y": -2.0192838116,
				"z": 4.0048551086,
				"element": "O" 
			},
			{
				"x": -1.900598891,
				"y": 1.1473046356,
				"z": -0.1851906524,
				"element": "H" 
			},
			{
				"x": -0.2972198511,
				"y": 1.8911196077,
				"z": -0.4750473742,
				"element": "H" 
			},
			{
				"x": -1.487824193,
				"y": 1.7891270806,
				"z": -1.7996164611,
				"element": "H" 
			},
			{
				"x": -0.2682913925,
				"y": 0.3888288702,
				"z": 1.2730424236,
				"element": "H" 
			},
			{
				"x": 1.4374520578,
				"y": -3.4786667301,
				"z": 1.9604434739,
				"element": "H" 
			},
			{
				"x": 1.2041748135,
				"y": -3.996754098,
				"z": -0.4969712551,
				"element": "H" 
			},
			{
				"x": 0.4414036947,
				"y": 0.0635304646,
				"z": 4.5126711625,
				"element": "H" 
			}
		],
		 "valence_orbital": [ 
			{
				"type": "occ",
				"energy": -0.30441,
				"method": "rhf"
			},
			{
				"type": "occ",
				"energy": -0.29672,
				"method": "rhf"
			},
			{
				"type": "occ",
				"energy": -0.29357,
				"method": "rhf"
			},
			{
				"type": "occ",
				"energy": -0.27809,
				"method": "rhf"
			},
			{
				"type": "occ",
				"energy": -0.25329,
				"method": "rhf"
			},
			{
				"type": "unocc",
				"energy": -0.09443,
				"method": "rhf"
			},
			{
				"type": "unocc",
				"energy": -0.04047,
				"method": "rhf"
			},
			{
				"type": "unocc",
				"energy": -0.02176,
				"method": "rhf"
			},
			{
				"type": "unocc",
				"energy": 0.04489,
				"method": "rhf"
			},
			{
				"type": "unocc",
				"energy": 0.05949,
				"method": "rhf"
			}
		],
		"cosmo_sigma_profile": { 
			"-0.025": 0.0,
			"-0.024": 0.0,
			"-0.023": 0.0,
			"-0.022": 0.0,
			"-0.021": 0.0,
			"-0.02": 0.0,
			"-0.019": 0.40697872309,
			"-0.018": 1.00686603967,
			"-0.017": 1.01505017447,
			"-0.016": 0.522918457544,
			"-0.015": 0.924120046013,
			"-0.014": 0.515359623466,
			"-0.013": 0.386251022366,
			"-0.012": 0.693231092076,
			"-0.011": 1.48776933693,
			"-0.01": 0.419740383483,
			"-0.009": 0.589549783365,
			"-0.008": 3.81699403419,
			"-0.007": 10.2966491441,
			"-0.006": 15.6829211052,
			"-0.005": 13.1547572187,
			"-0.004": 15.7013019016,
			"-0.003": 12.4888489914,
			"-0.002": 13.7270804186,
			"-0.001": 15.9033728222,
			"0.0": 18.5447753101,
			"0.001": 12.9557665098,
			"0.002": 7.77588440028,
			"0.003": 5.86301509571,
			"0.004": 6.39897792239,
			"0.005": 6.00019140656,
			"0.006": 6.79626564414,
			"0.007": 9.46139903076,
			"0.008": 10.8739674126,
			"0.009": 8.24810645377,
			"0.01": 6.63142507657,
			"0.011": 5.85297736022,
			"0.012": 1.38450687167,
			"0.013": 0.0,
			"0.014": 0.0,
			"0.015": 0.0,
			"0.016": 0.0,
			"0.017": 0.0,
			"0.018": 0.0,
			"0.019": 0.0,
			"0.02": 0.0,
			"0.021": 0.0,
			"0.022": 0.0,
			"0.023": 0.0,
			"0.024": 0.0,
			"0.025": 0.0
		}
	}
}
