{
	 "smiles": "CC1=C(SC(=C1)C(O)=O)C1=CC=C(F)C=C1", 
	 "Tm": 480.15, 
	 "num_atms": 25, 
	 "gaussian": { 
		 "optdone": 1, 
		 "sigma_profile": "yes", 
		 "theory": "DFT", 
		 "functional": "B3LYP", 
		 "basiset": "6-31G**", 
		 "properties": { 
			 "R2extent": 5903.17, 
			 "electric_dipole_moment_norm": 4.40596966626, 
			 "electric_quadrupole_moment_norm": 32.3800777729, 
			 "total_energy": -1111.17607397, 
			 "HOMO_LUMO_gap": 0.16481, 
			 "cosmo_polarized_energy": -13.94, 
			 "cosmo_cavitation_energy": 31.77, 
			 "cosmo_dispersion_energy": -23.25, 
			 "cosmo_repulsion_energy": 1.74, 
			 "cosmo_total_nonelectrostatic_energy": 10.26, 
			 "SMD_solvation_energy": 6.74 
		},
		"coords": [
			{
				"x": -1.3892031244,
				"y": 1.2642400442,
				"z": -0.2644467758,
				"element": "C" 
			},
			{
				"x": -0.3868028874,
				"y": 1.1014900876,
				"z": 0.8494850146,
				"element": "C" 
			},
			{
				"x": 0.6411235337,
				"y": 0.1714643112,
				"z": 0.8763934869,
				"element": "C" 
			},
			{
				"x": 1.6015163849,
				"y": 0.3403409036,
				"z": 2.331776677,
				"element": "S" 
			},
			{
				"x": 0.6326352587,
				"y": 1.6818338794,
				"z": 2.8883005052,
				"element": "C" 
			},
			{
				"x": -0.3771689727,
				"y": 1.9448793935,
				"z": 1.9968089694,
				"element": "C" 
			},
			{
				"x": 0.8580303435,
				"y": 2.4344195105,
				"z": 4.1425629868,
				"element": "C" 
			},
			{
				"x": 2.0020800239,
				"y": 2.1775611624,
				"z": 4.8332962076,
				"element": "O" 
			},
			{
				"x": 0.0692102129,
				"y": 3.2505152157,
				"z": 4.5603927431,
				"element": "O" 
			},
			{
				"x": 0.9884269906,
				"y": -0.8777989433,
				"z": -0.0961898525,
				"element": "C" 
			},
			{
				"x": -0.0095445802,
				"y": -1.680479465,
				"z": -0.6798646052,
				"element": "C" 
			},
			{
				"x": 0.3133810387,
				"y": -2.6753651296,
				"z": -1.5998011932,
				"element": "C" 
			},
			{
				"x": 1.6493162341,
				"y": -2.8762099548,
				"z": -1.9288178705,
				"element": "C" 
			},
			{
				"x": 1.9677991789,
				"y": -3.838885324,
				"z": -2.8152611876,
				"element": "F" 
			},
			{
				"x": 2.6661800863,
				"y": -2.1125144939,
				"z": -1.3656352024,
				"element": "C" 
			},
			{
				"x": 2.3289563909,
				"y": -1.1158426044,
				"z": -0.4541075431,
				"element": "C" 
			},
			{
				"x": -1.6200110929,
				"y": 2.3228715855,
				"z": -0.416842368,
				"element": "H" 
			},
			{
				"x": -2.3350319675,
				"y": 0.7586492463,
				"z": -0.0343810272,
				"element": "H" 
			},
			{
				"x": -1.0165563393,
				"y": 0.8579636259,
				"z": -1.2074586659,
				"element": "H" 
			},
			{
				"x": -1.0835647502,
				"y": 2.7493419692,
				"z": 2.1672669974,
				"element": "H" 
			},
			{
				"x": 2.5925526086,
				"y": 1.5912882842,
				"z": 4.3386281967,
				"element": "H" 
			},
			{
				"x": -1.0457434376,
				"y": -1.5411756983,
				"z": -0.3919704871,
				"element": "H" 
			},
			{
				"x": -0.4497253739,
				"y": -3.3007940778,
				"z": -2.0500067358,
				"element": "H" 
			},
			{
				"x": 3.6962892841,
				"y": -2.296943135,
				"z": -1.6501399631,
				"element": "H" 
			},
			{
				"x": 3.1137549559,
				"y": -0.499750393,
				"z": -0.0260883073,
				"element": "H" 
			}
		],
		 "valence_orbital": [ 
			{
				"type": "occ",
				"energy": -0.28227,
				"method": "rhf"
			},
			{
				"type": "occ",
				"energy": -0.27764,
				"method": "rhf"
			},
			{
				"type": "occ",
				"energy": -0.27283,
				"method": "rhf"
			},
			{
				"type": "occ",
				"energy": -0.26541,
				"method": "rhf"
			},
			{
				"type": "occ",
				"energy": -0.2323,
				"method": "rhf"
			},
			{
				"type": "unocc",
				"energy": -0.06749,
				"method": "rhf"
			},
			{
				"type": "unocc",
				"energy": -0.0313,
				"method": "rhf"
			},
			{
				"type": "unocc",
				"energy": -0.01841,
				"method": "rhf"
			},
			{
				"type": "unocc",
				"energy": 0.00118,
				"method": "rhf"
			},
			{
				"type": "unocc",
				"energy": 0.0332,
				"method": "rhf"
			}
		],
		"cosmo_sigma_profile": { 
			"-0.025": 0.0,
			"-0.024": 0.0,
			"-0.023": 0.0,
			"-0.022": 0.0,
			"-0.021": 0.0,
			"-0.02": 0.0,
			"-0.019": 0.0221825205124,
			"-0.018": 0.460159209032,
			"-0.017": 0.650623704588,
			"-0.016": 0.630570741803,
			"-0.015": 0.906568182726,
			"-0.014": 0.541197569139,
			"-0.013": 1.13688771313,
			"-0.012": 2.04986277881,
			"-0.011": 0.798718022213,
			"-0.01": 0.328170613588,
			"-0.009": 0.690955858046,
			"-0.008": 2.694095997,
			"-0.007": 8.14216043019,
			"-0.006": 10.5506490891,
			"-0.005": 15.1251222311,
			"-0.004": 15.2414597475,
			"-0.003": 16.1489223326,
			"-0.002": 18.6881809962,
			"-0.001": 19.5618549533,
			"0.0": 23.9008493218,
			"0.001": 25.3358163138,
			"0.002": 26.6841951011,
			"0.003": 21.4765327626,
			"0.004": 13.8523427334,
			"0.005": 3.45266532342,
			"0.006": 2.81546237229,
			"0.007": 2.00998772371,
			"0.008": 3.07727312165,
			"0.009": 3.09112932157,
			"0.01": 4.77280087738,
			"0.011": 5.09088724235,
			"0.012": 5.3194385952,
			"0.013": 1.6095064176,
			"0.014": 0.0461377506185,
			"0.015": 0.0,
			"0.016": 0.0,
			"0.017": 0.0,
			"0.018": 0.0,
			"0.019": 0.0,
			"0.02": 0.0,
			"0.021": 0.0,
			"0.022": 0.0,
			"0.023": 0.0,
			"0.024": 0.0,
			"0.025": 0.0
		}
	}
}
