{
	 "smiles": "OC(=O)C1=CC(=C(Br)C=C1)S(=O)(=O)N1CCOCC1", 
	 "Tm": 441.15, 
	 "num_atms": 31, 
	 "gaussian": { 
		 "optdone": 1, 
		 "sigma_profile": "yes", 
		 "theory": "DFT", 
		 "functional": "B3LYP", 
		 "basiset": "6-31G**", 
		 "properties": { 
			 "R2extent": 7950.3773, 
			 "electric_dipole_moment_norm": 3.2815145741, 
			 "electric_quadrupole_moment_norm": 17.9740066752, 
			 "total_energy": -3826.7659902, 
			 "HOMO_LUMO_gap": 0.18103, 
			 "cosmo_polarized_energy": -21.89, 
			 "cosmo_cavitation_energy": 37.33, 
			 "cosmo_dispersion_energy": -27.26, 
			 "cosmo_repulsion_energy": 2.04, 
			 "cosmo_total_nonelectrostatic_energy": 12.11, 
			 "SMD_solvation_energy": 5.31 
		},
		"coords": [
			{
				"x": 3.2124161295,
				"y": -0.4390316976,
				"z": 4.4727922169,
				"element": "O" 
			},
			{
				"x": 2.3567438695,
				"y": 0.5868852891,
				"z": 4.7015999421,
				"element": "C" 
			},
			{
				"x": 2.6135148075,
				"y": 1.4201988342,
				"z": 5.5380014995,
				"element": "O" 
			},
			{
				"x": 1.1025025521,
				"y": 0.6328608241,
				"z": 3.8761866098,
				"element": "C" 
			},
			{
				"x": 0.9538701875,
				"y": -0.057467846,
				"z": 2.6703092022,
				"element": "C" 
			},
			{
				"x": -0.2274421937,
				"y": 0.0336388091,
				"z": 1.9292300982,
				"element": "C" 
			},
			{
				"x": -1.2790552568,
				"y": 0.8269890929,
				"z": 2.4078973145,
				"element": "C" 
			},
			{
				"x": -2.9329433493,
				"y": 1.0165819772,
				"z": 1.4920076309,
				"element": "Br" 
			},
			{
				"x": -1.1294778326,
				"y": 1.5319320372,
				"z": 3.6059308575,
				"element": "C" 
			},
			{
				"x": 0.0536263826,
				"y": 1.4420180475,
				"z": 4.3293603613,
				"element": "C" 
			},
			{
				"x": -0.2916971161,
				"y": -0.9556361191,
				"z": 0.4090770628,
				"element": "S" 
			},
			{
				"x": 1.0490261207,
				"y": -1.543973407,
				"z": 0.2848853428,
				"element": "O" 
			},
			{
				"x": -1.4791095114,
				"y": -1.8091355109,
				"z": 0.451575079,
				"element": "O" 
			},
			{
				"x": -0.5139415189,
				"y": 0.1869897373,
				"z": -0.7896869359,
				"element": "N" 
			},
			{
				"x": -1.6172079555,
				"y": 0.0233291666,
				"z": -1.7618957752,
				"element": "C" 
			},
			{
				"x": -1.05555176,
				"y": -0.0580770794,
				"z": -3.177204098,
				"element": "C" 
			},
			{
				"x": -0.2867693669,
				"y": 1.0918919924,
				"z": -3.53415368,
				"element": "O" 
			},
			{
				"x": 0.2891637624,
				"y": 1.7884413237,
				"z": -2.4371935479,
				"element": "C" 
			},
			{
				"x": 0.7008144452,
				"y": 0.8611525903,
				"z": -1.2969241059,
				"element": "C" 
			},
			{
				"x": 2.8128520894,
				"y": -1.1050441395,
				"z": 3.8961259909,
				"element": "H" 
			},
			{
				"x": 1.7502438084,
				"y": -0.6617652011,
				"z": 2.2475478318,
				"element": "H" 
			},
			{
				"x": -1.9465330753,
				"y": 2.1489888247,
				"z": 3.9614528146,
				"element": "H" 
			},
			{
				"x": 0.1841417755,
				"y": 1.9946600944,
				"z": 5.2533439709,
				"element": "H" 
			},
			{
				"x": -2.3020493378,
				"y": 0.873941453,
				"z": -1.668876659,
				"element": "H" 
			},
			{
				"x": -2.1753912382,
				"y": -0.8819439974,
				"z": -1.5197686464,
				"element": "H" 
			},
			{
				"x": -1.8780068532,
				"y": -0.130095465,
				"z": -3.8973269959,
				"element": "H" 
			},
			{
				"x": -0.4401989199,
				"y": -0.9646829279,
				"z": -3.2764451832,
				"element": "H" 
			},
			{
				"x": -0.4045798399,
				"y": 2.5528332356,
				"z": -2.0542041434,
				"element": "H" 
			},
			{
				"x": 1.1748266885,
				"y": 2.3043480233,
				"z": -2.8206867751,
				"element": "H" 
			},
			{
				"x": 1.1583017412,
				"y": 1.4491916221,
				"z": -0.4931917854,
				"element": "H" 
			},
			{
				"x": 1.4404107654,
				"y": 0.1330804163,
				"z": -1.6489654943,
				"element": "H" 
			}
		],
		 "valence_orbital": [ 
			{
				"type": "occ",
				"energy": -0.2982,
				"method": "rhf"
			},
			{
				"type": "occ",
				"energy": -0.28898,
				"method": "rhf"
			},
			{
				"type": "occ",
				"energy": -0.27557,
				"method": "rhf"
			},
			{
				"type": "occ",
				"energy": -0.26719,
				"method": "rhf"
			},
			{
				"type": "occ",
				"energy": -0.25943,
				"method": "rhf"
			},
			{
				"type": "unocc",
				"energy": -0.0784,
				"method": "rhf"
			},
			{
				"type": "unocc",
				"energy": -0.05837,
				"method": "rhf"
			},
			{
				"type": "unocc",
				"energy": -0.02396,
				"method": "rhf"
			},
			{
				"type": "unocc",
				"energy": 0.01783,
				"method": "rhf"
			},
			{
				"type": "unocc",
				"energy": 0.0491,
				"method": "rhf"
			}
		],
		"cosmo_sigma_profile": { 
			"-0.025": 0.0,
			"-0.024": 0.0,
			"-0.023": 0.0,
			"-0.022": 0.0,
			"-0.021": 0.0,
			"-0.02": 0.26124642336,
			"-0.019": 0.798692152679,
			"-0.018": 1.16397872391,
			"-0.017": 0.926224992621,
			"-0.016": 0.824238725888,
			"-0.015": 0.611115687275,
			"-0.014": 1.3752934333,
			"-0.013": 1.41694871273,
			"-0.012": 1.01326919514,
			"-0.011": 0.673434690917,
			"-0.01": 0.656135384706,
			"-0.009": 1.86826502022,
			"-0.008": 4.86204685382,
			"-0.007": 7.08611759911,
			"-0.006": 16.5720778103,
			"-0.005": 29.3538199886,
			"-0.004": 28.2796310698,
			"-0.003": 21.2393538499,
			"-0.002": 21.0858731341,
			"-0.001": 23.9481307033,
			"0.0": 19.9246035979,
			"0.001": 11.964474484,
			"0.002": 11.9167454546,
			"0.003": 13.3121220202,
			"0.004": 8.42024491091,
			"0.005": 6.42672058359,
			"0.006": 5.75486315546,
			"0.007": 7.25854702371,
			"0.008": 8.94714228789,
			"0.009": 9.04763763069,
			"0.01": 13.9254364583,
			"0.011": 11.8626877035,
			"0.012": 4.78886191463,
			"0.013": 2.00232074947,
			"0.014": 0.167663434249,
			"0.015": 0.0,
			"0.016": 0.0,
			"0.017": 0.0,
			"0.018": 0.0,
			"0.019": 0.0,
			"0.02": 0.0,
			"0.021": 0.0,
			"0.022": 0.0,
			"0.023": 0.0,
			"0.024": 0.0,
			"0.0": 0.0
		}
	}
}
