{
	 "smiles": "CC1=CC(C)=C(SC(C(O)=O)C2=CC=CC=C2)C=C1", 
	 "Tm": 404.15, 
	 "num_atms": 35, 
	 "gaussian": { 
		 "optdone": 1, 
		 "sigma_profile": "yes", 
		 "theory": "DFT", 
		 "functional": "B3LYP", 
		 "basiset": "6-31G**", 
		 "properties": { 
			 "R2extent": 5747.6233, 
			 "electric_dipole_moment_norm": 1.06383461121, 
			 "electric_quadrupole_moment_norm": 9.2809887108, 
			 "total_energy": -1168.00520622, 
			 "HOMO_LUMO_gap": 0.18741, 
			 "cosmo_polarized_energy": -11.94, 
			 "cosmo_cavitation_energy": 39.23, 
			 "cosmo_dispersion_energy": -26.69, 
			 "cosmo_repulsion_energy": 2.05, 
			 "cosmo_total_nonelectrostatic_energy": 14.58, 
			 "SMD_solvation_energy": 7.12 
		},
		"coords": [
			{
				"x": -3.0857575258,
				"y": -2.2760460927,
				"z": 2.7236296683,
				"element": "C" 
			},
			{
				"x": -1.805383743,
				"y": -2.0107788422,
				"z": 1.9680953548,
				"element": "C" 
			},
			{
				"x": -1.1479401138,
				"y": -0.7804173124,
				"z": 2.0796749476,
				"element": "C" 
			},
			{
				"x": 0.0537459999,
				"y": -0.4988682023,
				"z": 1.4172345344,
				"element": "C" 
			},
			{
				"x": 0.7032348159,
				"y": 0.852812298,
				"z": 1.5949624586,
				"element": "C" 
			},
			{
				"x": 0.6132798511,
				"y": -1.5125234337,
				"z": 0.6079115689,
				"element": "C" 
			},
			{
				"x": 2.196710745,
				"y": -1.2750670232,
				"z": -0.2001668795,
				"element": "S" 
			},
			{
				"x": 1.7750557187,
				"y": -0.8173977259,
				"z": -1.9855142041,
				"element": "C" 
			},
			{
				"x": 1.4093621055,
				"y": -2.0984215492,
				"z": -2.7115597376,
				"element": "C" 
			},
			{
				"x": 2.4824791303,
				"y": -2.603101774,
				"z": -3.3644179151,
				"element": "O" 
			},
			{
				"x": 0.3293888411,
				"y": -2.6514881024,
				"z": -2.7142859571,
				"element": "O" 
			},
			{
				"x": 0.8000124284,
				"y": 0.3237233668,
				"z": -2.1380272283,
				"element": "C" 
			},
			{
				"x": -0.590384875,
				"y": 0.1476499622,
				"z": -2.0718557815,
				"element": "C" 
			},
			{
				"x": -1.4429937487,
				"y": 1.2456566162,
				"z": -2.2005135871,
				"element": "C" 
			},
			{
				"x": -0.9267434554,
				"y": 2.5277378572,
				"z": -2.392288056,
				"element": "C" 
			},
			{
				"x": 0.4563111117,
				"y": 2.7112023995,
				"z": -2.4594612716,
				"element": "C" 
			},
			{
				"x": 1.3103841398,
				"y": 1.6168896951,
				"z": -2.3336340359,
				"element": "C" 
			},
			{
				"x": -0.0286276656,
				"y": -2.7543590023,
				"z": 0.4985185933,
				"element": "C" 
			},
			{
				"x": -1.2279972858,
				"y": -2.9981414827,
				"z": 1.1609791784,
				"element": "C" 
			},
			{
				"x": -3.7619829896,
				"y": -2.9183888335,
				"z": 2.1510450803,
				"element": "H" 
			},
			{
				"x": -3.6141558154,
				"y": -1.3470930308,
				"z": 2.9568006727,
				"element": "H" 
			},
			{
				"x": -2.8840674948,
				"y": -2.7848944513,
				"z": 3.67470909,
				"element": "H" 
			},
			{
				"x": -1.5873515434,
				"y": -0.0057265624,
				"z": 2.7043931639,
				"element": "H" 
			},
			{
				"x": 1.7071278603,
				"y": 0.761907541,
				"z": 2.0220586804,
				"element": "H" 
			},
			{
				"x": 0.8113191577,
				"y": 1.3728878453,
				"z": 0.6389774077,
				"element": "H" 
			},
			{
				"x": 0.1051820815,
				"y": 1.4807047637,
				"z": 2.2609499034,
				"element": "H" 
			},
			{
				"x": 2.7578100172,
				"y": -0.5069106364,
				"z": -2.3463842073,
				"element": "H" 
			},
			{
				"x": 2.1885017023,
				"y": -3.4408833539,
				"z": -3.7607330459,
				"element": "H" 
			},
			{
				"x": -0.9961873038,
				"y": -0.8469947979,
				"z": -1.9371517161,
				"element": "H" 
			},
			{
				"x": -2.5176043127,
				"y": 1.0945442225,
				"z": -2.1507115454,
				"element": "H" 
			},
			{
				"x": -1.5957067866,
				"y": 3.3777213926,
				"z": -2.4925684023,
				"element": "H" 
			},
			{
				"x": 0.869964852,
				"y": 3.7036041145,
				"z": -2.6145366054,
				"element": "H" 
			},
			{
				"x": 2.3863287306,
				"y": 1.7647359498,
				"z": -2.3859732028,
				"element": "H" 
			},
			{
				"x": 0.4135081648,
				"y": -3.5255252425,
				"z": -0.1217337437,
				"element": "H" 
			},
			{
				"x": -1.7147227944,
				"y": -3.9641505728,
				"z": 1.0535768201,
				"element": "H" 
			}
		],
		 "valence_orbital": [ 
			{
				"type": "occ",
				"energy": -0.25212,
				"method": "rhf"
			},
			{
				"type": "occ",
				"energy": -0.24857,
				"method": "rhf"
			},
			{
				"type": "occ",
				"energy": -0.24163,
				"method": "rhf"
			},
			{
				"type": "occ",
				"energy": -0.23612,
				"method": "rhf"
			},
			{
				"type": "occ",
				"energy": -0.2247,
				"method": "rhf"
			},
			{
				"type": "unocc",
				"energy": -0.03729,
				"method": "rhf"
			},
			{
				"type": "unocc",
				"energy": -0.00576,
				"method": "rhf"
			},
			{
				"type": "unocc",
				"energy": 0.00045,
				"method": "rhf"
			},
			{
				"type": "unocc",
				"energy": 0.00475,
				"method": "rhf"
			},
			{
				"type": "unocc",
				"energy": 0.01214,
				"method": "rhf"
			}
		],
		"cosmo_sigma_profile": { 
			"-0.025": 0.0,
			"-0.024": 0.0,
			"-0.023": 0.0,
			"-0.022": 0.0,
			"-0.021": 0.0,
			"-0.02": 0.0,
			"-0.019": 0.125924154919,
			"-0.018": 0.750081822335,
			"-0.017": 1.06444910512,
			"-0.016": 0.542734793295,
			"-0.015": 1.46277271435,
			"-0.014": 0.641761003652,
			"-0.013": 0.412094380971,
			"-0.012": 0.390591405032,
			"-0.011": 0.971038431625,
			"-0.01": 0.442875709927,
			"-0.009": 0.67185272816,
			"-0.008": 3.0381935741,
			"-0.007": 3.86663350647,
			"-0.006": 8.24956142009,
			"-0.005": 17.0693483354,
			"-0.004": 28.2744663449,
			"-0.003": 26.8918407837,
			"-0.002": 22.5094403125,
			"-0.001": 25.2767446923,
			"0.0": 29.0586545801,
			"0.001": 23.6236884792,
			"0.002": 21.7089017448,
			"0.003": 23.1064329125,
			"0.004": 25.3398375569,
			"0.005": 20.638302633,
			"0.006": 8.33931400989,
			"0.007": 4.91851805167,
			"0.008": 4.95311997844,
			"0.009": 2.88317878385,
			"0.01": 1.93153247895,
			"0.011": 2.38393967139,
			"0.012": 1.28981379347,
			"0.013": 0.0,
			"0.014": 0.0,
			"0.015": 0.0,
			"0.016": 0.0,
			"0.017": 0.0,
			"0.018": 0.0,
			"0.019": 0.0,
			"0.02": 0.0,
			"0.021": 0.0,
			"0.022": 0.0,
			"0.023": 0.0,
			"0.024": 0.0,
			"0.025": 0.0
		}
	}
}
