{
	 "smiles": "OC(=O)C1=CC(CN2CCCC2=O)=CC=C1", 
	 "Tm": 423.15, 
	 "num_atms": 29, 
	 "gaussian": { 
		 "optdone": 1, 
		 "sigma_profile": "yes", 
		 "theory": "DFT", 
		 "functional": "B3LYP", 
		 "basiset": "6-31G**", 
		 "properties": { 
			 "R2extent": 4518.2391, 
			 "electric_dipole_moment_norm": 5.35062435516, 
			 "electric_quadrupole_moment_norm": 21.0451618468, 
			 "total_energy": -745.566581367, 
			 "HOMO_LUMO_gap": 0.18919, 
			 "cosmo_polarized_energy": -20.86, 
			 "cosmo_cavitation_energy": 32.77, 
			 "cosmo_dispersion_energy": -23.04, 
			 "cosmo_repulsion_energy": 1.81, 
			 "cosmo_total_nonelectrostatic_energy": 11.54, 
			 "SMD_solvation_energy": 7.09 
		},
		"coords": [
			{
				"x": -2.7176325611,
				"y": -0.2897896577,
				"z": 3.7810662121,
				"element": "O" 
			},
			{
				"x": -2.0151071381,
				"y": -0.4264195392,
				"z": 2.6239237476,
				"element": "C" 
			},
			{
				"x": -1.3795354156,
				"y": -1.4333674256,
				"z": 2.4179936847,
				"element": "O" 
			},
			{
				"x": -2.0868672695,
				"y": 0.7172444277,
				"z": 1.6556080952,
				"element": "C" 
			},
			{
				"x": -1.0547119042,
				"y": 0.8365567084,
				"z": 0.7174922221,
				"element": "C" 
			},
			{
				"x": -1.0609809958,
				"y": 1.8616000716,
				"z": -0.2304480802,
				"element": "C" 
			},
			{
				"x": 0.0833610712,
				"y": 2.0259784955,
				"z": -1.2172657622,
				"element": "C" 
			},
			{
				"x": 0.6754852166,
				"y": 0.7775469954,
				"z": -1.6473365393,
				"element": "N" 
			},
			{
				"x": -0.0214146297,
				"y": -0.191135285,
				"z": -2.4871473903,
				"element": "C" 
			},
			{
				"x": 0.9432408257,
				"y": -1.3967757931,
				"z": -2.5010117366,
				"element": "C" 
			},
			{
				"x": 2.3259719533,
				"y": -0.7673966029,
				"z": -2.2652319009,
				"element": "C" 
			},
			{
				"x": 2.0299182741,
				"y": 0.5423811434,
				"z": -1.5352048929,
				"element": "C" 
			},
			{
				"x": 2.82761815,
				"y": 1.2752071391,
				"z": -0.9726039114,
				"element": "O" 
			},
			{
				"x": -2.1334191556,
				"y": 2.7635648385,
				"z": -0.23895909,
				"element": "C" 
			},
			{
				"x": -3.1727797824,
				"y": 2.6480543372,
				"z": 0.6841658364,
				"element": "C" 
			},
			{
				"x": -3.153737645,
				"y": 1.6268601603,
				"z": 1.6331806331,
				"element": "C" 
			},
			{
				"x": -3.0292160923,
				"y": 0.6212195633,
				"z": 3.8737764998,
				"element": "H" 
			},
			{
				"x": -0.2473303083,
				"y": 0.112516213,
				"z": 0.7397076453,
				"element": "H" 
			},
			{
				"x": 0.9014260851,
				"y": 2.5945115688,
				"z": -0.7589511983,
				"element": "H" 
			},
			{
				"x": -0.2677216286,
				"y": 2.6004691506,
				"z": -2.0869735352,
				"element": "H" 
			},
			{
				"x": -1.0004850659,
				"y": -0.4401412979,
				"z": -2.0659946474,
				"element": "H" 
			},
			{
				"x": -0.1845550164,
				"y": 0.2170662047,
				"z": -3.4971489088,
				"element": "H" 
			},
			{
				"x": 0.693096404,
				"y": -2.071850313,
				"z": -1.6769327523,
				"element": "H" 
			},
			{
				"x": 0.8745086861,
				"y": -1.9653997638,
				"z": -3.4311580451,
				"element": "H" 
			},
			{
				"x": 2.8344981668,
				"y": -0.5171972822,
				"z": -3.2045877357,
				"element": "H" 
			},
			{
				"x": 3.0107654128,
				"y": -1.3843304852,
				"z": -1.6797128895,
				"element": "H" 
			},
			{
				"x": -2.1583808368,
				"y": 3.5591402917,
				"z": -0.9798036745,
				"element": "H" 
			},
			{
				"x": -4.0056518674,
				"y": 3.3440627471,
				"z": 0.6533570209,
				"element": "H" 
			},
			{
				"x": -3.9934629329,
				"y": 1.519723389,
				"z": 2.3155010936,
				"element": "H" 
			}
		],
		 "valence_orbital": [ 
			{
				"type": "occ",
				"energy": -0.27929,
				"method": "rhf"
			},
			{
				"type": "occ",
				"energy": -0.26871,
				"method": "rhf"
			},
			{
				"type": "occ",
				"energy": -0.26587,
				"method": "rhf"
			},
			{
				"type": "occ",
				"energy": -0.24977,
				"method": "rhf"
			},
			{
				"type": "occ",
				"energy": -0.24152,
				"method": "rhf"
			},
			{
				"type": "unocc",
				"energy": -0.05233,
				"method": "rhf"
			},
			{
				"type": "unocc",
				"energy": -0.02507,
				"method": "rhf"
			},
			{
				"type": "unocc",
				"energy": 0.02704,
				"method": "rhf"
			},
			{
				"type": "unocc",
				"energy": 0.04392,
				"method": "rhf"
			},
			{
				"type": "unocc",
				"energy": 0.06143,
				"method": "rhf"
			}
		],
		"cosmo_sigma_profile": { 
			"-0.025": 0.0,
			"-0.024": 0.0,
			"-0.023": 0.0,
			"-0.022": 0.0,
			"-0.021": 0.0,
			"-0.02": 0.0,
			"-0.019": 0.0953679813039,
			"-0.018": 1.05011648966,
			"-0.017": 0.563993353684,
			"-0.016": 1.14919012448,
			"-0.015": 0.986200363567,
			"-0.014": 0.735225876103,
			"-0.013": 0.980996915642,
			"-0.012": 1.31560159642,
			"-0.011": 1.02806622342,
			"-0.01": 1.06395242967,
			"-0.009": 1.0351133811,
			"-0.008": 1.94475426214,
			"-0.007": 5.01811490898,
			"-0.006": 10.579883654,
			"-0.005": 17.9568159443,
			"-0.004": 29.8082167259,
			"-0.003": 33.16635722,
			"-0.002": 26.1072099646,
			"-0.001": 18.1939821944,
			"0.0": 13.6187146759,
			"0.001": 10.5306556994,
			"0.002": 11.0364076266,
			"0.003": 12.5818281849,
			"0.004": 7.34309266098,
			"0.005": 4.32778869749,
			"0.006": 3.10696893148,
			"0.007": 3.63005775287,
			"0.008": 4.70005340764,
			"0.009": 4.67618285084,
			"0.01": 5.62019869796,
			"0.011": 6.32194386967,
			"0.012": 7.30276825424,
			"0.013": 5.50831074859,
			"0.014": 5.21554649901,
			"0.015": 1.25559247518,
			"0.016": 0.0307869878491,
			"0.017": 0.0,
			"0.018": 0.0,
			"0.019": 0.0,
			"0.02": 0.0,
			"0.021": 0.0,
			"0.022": 0.0,
			"0.023": 0.0,
			"0.024": 0.0,
			"0.025": 0.0
		}
	}
}
