{
	 "smiles": "CC(C)(C)C1=CC=CC(=N1)C(C)(C)C", 
	 "Tm": 275.25, 
	 "num_atms": 35, 
	 "gaussian": { 
		 "optdone": 1, 
		 "sigma_profile": "yes", 
		 "theory": "DFT", 
		 "functional": "B3LYP", 
		 "basiset": "6-31G**", 
		 "properties": { 
			 "R2extent": 3869.7791, 
			 "electric_dipole_moment_norm": 1.35510190392, 
			 "electric_quadrupole_moment_norm": 4.06926826592, 
			 "total_energy": -562.822950982, 
			 "HOMO_LUMO_gap": 0.22433, 
			 "cosmo_polarized_energy": -4.49, 
			 "cosmo_cavitation_energy": 34.8, 
			 "cosmo_dispersion_energy": -23.53, 
			 "cosmo_repulsion_energy": 1.84, 
			 "cosmo_total_nonelectrostatic_energy": 13.11, 
			 "SMD_solvation_energy": 5.9 
		},
		"coords": [
			{
				"x": 1.7037085513,
				"y": -1.9448791306,
				"z": 1.1506606138,
				"element": "C" 
			},
			{
				"x": 0.6747809752,
				"y": -0.7920268921,
				"z": 1.2255327596,
				"element": "C" 
			},
			{
				"x": 1.3578908598,
				"y": 0.5129923967,
				"z": 0.7823935272,
				"element": "C" 
			},
			{
				"x": 0.1911402621,
				"y": -0.6316593613,
				"z": 2.6862721171,
				"element": "C" 
			},
			{
				"x": -0.5276876317,
				"y": -1.12481465,
				"z": 0.325624514,
				"element": "C" 
			},
			{
				"x": -1.2988147168,
				"y": -2.2783724074,
				"z": 0.5518946531,
				"element": "C" 
			},
			{
				"x": -2.3747363411,
				"y": -2.5383728841,
				"z": -0.2858195116,
				"element": "C" 
			},
			{
				"x": -2.6640620882,
				"y": -1.6541578421,
				"z": -1.3266501345,
				"element": "C" 
			},
			{
				"x": -1.8553372088,
				"y": -0.5264003802,
				"z": -1.4939291941,
				"element": "C" 
			},
			{
				"x": -0.8139791583,
				"y": -0.2849828093,
				"z": -0.6742953381,
				"element": "N" 
			},
			{
				"x": -2.0716605543,
				"y": 0.5185970386,
				"z": -2.600418038,
				"element": "C" 
			},
			{
				"x": -0.7952543439,
				"y": 0.5840605923,
				"z": -3.4697663106,
				"element": "C" 
			},
			{
				"x": -2.306560378,
				"y": 1.894630396,
				"z": -1.9365978725,
				"element": "C" 
			},
			{
				"x": -3.2746505782,
				"y": 0.1828465785,
				"z": -3.499315785,
				"element": "C" 
			},
			{
				"x": 2.0635812426,
				"y": -2.0833356904,
				"z": 0.1257696002,
				"element": "H" 
			},
			{
				"x": 2.5686506162,
				"y": -1.7218119601,
				"z": 1.7853096813,
				"element": "H" 
			},
			{
				"x": 1.2805338429,
				"y": -2.8959295216,
				"z": 1.489210895,
				"element": "H" 
			},
			{
				"x": 1.7231516619,
				"y": 0.4435708882,
				"z": -0.2452589146,
				"element": "H" 
			},
			{
				"x": 0.668138132,
				"y": 1.3595432355,
				"z": 0.8260055438,
				"element": "H" 
			},
			{
				"x": 2.2085389996,
				"y": 0.7234682468,
				"z": 1.4401391176,
				"element": "H" 
			},
			{
				"x": -0.541212264,
				"y": 0.1780884209,
				"z": 2.7702415957,
				"element": "H" 
			},
			{
				"x": 1.0367273844,
				"y": -0.3917312112,
				"z": 3.340545198,
				"element": "H" 
			},
			{
				"x": -0.2742066305,
				"y": -1.5460548694,
				"z": 3.0677362018,
				"element": "H" 
			},
			{
				"x": -1.0606311004,
				"y": -2.9556067893,
				"z": 1.3652796247,
				"element": "H" 
			},
			{
				"x": -2.987818945,
				"y": -3.42286155,
				"z": -0.1338544974,
				"element": "H" 
			},
			{
				"x": -3.5009513301,
				"y": -1.846854531,
				"z": -1.986504995,
				"element": "H" 
			},
			{
				"x": -0.6152803604,
				"y": -0.3700584785,
				"z": -3.9776998678,
				"element": "H" 
			},
			{
				"x": 0.0769074272,
				"y": 0.8105452022,
				"z": -2.852350333,
				"element": "H" 
			},
			{
				"x": -0.8951793328,
				"y": 1.3614011493,
				"z": -4.2356400702,
				"element": "H" 
			},
			{
				"x": -2.4080857266,
				"y": 2.6738901976,
				"z": -2.7002988378,
				"element": "H" 
			},
			{
				"x": -1.4701150076,
				"y": 2.1516958301,
				"z": -1.2827958331,
				"element": "H" 
			},
			{
				"x": -3.2218101601,
				"y": 1.8902302335,
				"z": -1.3340774792,
				"element": "H" 
			},
			{
				"x": -3.3866248269,
				"y": 0.9538639675,
				"z": -4.2685506739,
				"element": "H" 
			},
			{
				"x": -3.1466645245,
				"y": -0.7764443208,
				"z": -4.0125448203,
				"element": "H" 
			},
			{
				"x": -4.2113267469,
				"y": 0.1465309057,
				"z": -2.9324471362,
				"element": "H" 
			}
		],
		 "valence_orbital": [ 
			{
				"type": "occ",
				"energy": -0.31968,
				"method": "rhf"
			},
			{
				"type": "occ",
				"energy": -0.31105,
				"method": "rhf"
			},
			{
				"type": "occ",
				"energy": -0.27455,
				"method": "rhf"
			},
			{
				"type": "occ",
				"energy": -0.24078,
				"method": "rhf"
			},
			{
				"type": "occ",
				"energy": -0.23955,
				"method": "rhf"
			},
			{
				"type": "unocc",
				"energy": -0.01522,
				"method": "rhf"
			},
			{
				"type": "unocc",
				"energy": -0.0019,
				"method": "rhf"
			},
			{
				"type": "unocc",
				"energy": 0.08069,
				"method": "rhf"
			},
			{
				"type": "unocc",
				"energy": 0.09808,
				"method": "rhf"
			},
			{
				"type": "unocc",
				"energy": 0.11122,
				"method": "rhf"
			}
		],
		"cosmo_sigma_profile": { 
			"-0.025": 0.0,
			"-0.024": 0.0,
			"-0.023": 0.0,
			"-0.022": 0.0,
			"-0.021": 0.0,
			"-0.02": 0.0,
			"-0.019": 0.0,
			"-0.018": 0.0,
			"-0.017": 0.0,
			"-0.016": 0.0,
			"-0.015": 0.0,
			"-0.014": 0.0,
			"-0.013": 0.0,
			"-0.012": 0.0,
			"-0.011": 0.0,
			"-0.01": 0.0,
			"-0.009": 0.0,
			"-0.008": 0.0,
			"-0.007": 0.201896896532,
			"-0.006": 3.98180934312,
			"-0.005": 7.6247007871,
			"-0.004": 8.68703454289,
			"-0.003": 22.1947215347,
			"-0.002": 41.1649182921,
			"-0.001": 34.6368734566,
			"0.0": 36.1488364119,
			"0.001": 44.668272364,
			"0.002": 32.3806634288,
			"0.003": 11.5204831664,
			"0.004": 12.2846986923,
			"0.005": 5.11593177193,
			"0.006": 3.5098181758,
			"0.007": 3.22499594699,
			"0.008": 0.992057906432,
			"0.009": 0.619331452883,
			"0.01": 0.51344842203,
			"0.011": 0.17875758654,
			"0.012": 0.0,
			"0.013": 0.0,
			"0.014": 0.0,
			"0.015": 0.0,
			"0.016": 0.0,
			"0.017": 0.0,
			"0.018": 0.0,
			"0.019": 0.0,
			"0.02": 0.0,
			"0.021": 0.0,
			"0.022": 0.0,
			"0.023": 0.0,
			"0.024": 0.0,
			"0.025": 0.0
		}
	}
}
