{
	 "smiles": "OCC1=NOC(=C1)C1=CC=CO1", 
	 "Tm": 363.65, 
	 "num_atms": 19, 
	 "gaussian": { 
		 "optdone": 1, 
		 "sigma_profile": "yes", 
		 "theory": "DFT", 
		 "functional": "B3LYP", 
		 "basiset": "6-31G**", 
		 "properties": { 
			 "R2extent": 2740.7493, 
			 "electric_dipole_moment_norm": 4.25621235138, 
			 "electric_quadrupole_moment_norm": 5.82095482889, 
			 "total_energy": -589.401654819, 
			 "HOMO_LUMO_gap": 0.17548, 
			 "cosmo_polarized_energy": -10.14, 
			 "cosmo_cavitation_energy": 24.3, 
			 "cosmo_dispersion_energy": -18.26, 
			 "cosmo_repulsion_energy": 1.46, 
			 "cosmo_total_nonelectrostatic_energy": 7.5, 
			 "SMD_solvation_energy": 5.26 
		},
		"coords": [
			{
				"x": -0.9823092475,
				"y": 0.8145581276,
				"z": 3.7806402267,
				"element": "O" 
			},
			{
				"x": -1.2617860701,
				"y": 1.1550593254,
				"z": 2.4417036318,
				"element": "C" 
			},
			{
				"x": -0.4229823287,
				"y": 0.3942567558,
				"z": 1.4484144063,
				"element": "C" 
			},
			{
				"x": 0.6029921718,
				"y": -0.2968414788,
				"z": 1.8910229593,
				"element": "N" 
			},
			{
				"x": 1.2133927202,
				"y": -0.8469376668,
				"z": 0.7605544693,
				"element": "O" 
			},
			{
				"x": 0.5210261871,
				"y": -0.4619048404,
				"z": -0.336948105,
				"element": "C" 
			},
			{
				"x": -0.5313231248,
				"y": 0.3325091174,
				"z": 0.0312458351,
				"element": "C" 
			},
			{
				"x": 0.9956226146,
				"y": -0.9393563313,
				"z": -1.6084141713,
				"element": "C" 
			},
			{
				"x": 2.0459170691,
				"y": -1.7399477168,
				"z": -1.9746952414,
				"element": "C" 
			},
			{
				"x": 1.9880592317,
				"y": -1.8463657305,
				"z": -3.3977801313,
				"element": "C" 
			},
			{
				"x": 0.9126106102,
				"y": -1.1068239921,
				"z": -3.7924617332,
				"element": "C" 
			},
			{
				"x": 0.2948903791,
				"y": -0.5460558843,
				"z": -2.7165929087,
				"element": "O" 
			},
			{
				"x": -0.0654425029,
				"y": 0.5059647809,
				"z": 3.8166799327,
				"element": "H" 
			},
			{
				"x": -2.3234214927,
				"y": 0.950732868,
				"z": 2.2539437828,
				"element": "H" 
			},
			{
				"x": -1.1123929616,
				"y": 2.233616368,
				"z": 2.258584184,
				"element": "H" 
			},
			{
				"x": -1.265815473,
				"y": 0.7923944568,
				"z": -0.6108309472,
				"element": "H" 
			},
			{
				"x": 2.7626993219,
				"y": -2.1910108963,
				"z": -1.3048456102,
				"element": "H" 
			},
			{
				"x": 2.6578690144,
				"y": -2.3998534304,
				"z": -4.0395231558,
				"element": "H" 
			},
			{
				"x": 0.4718938812,
				"y": -0.8870938322,
				"z": -4.7522974238,
				"element": "H" 
			}
		],
		 "valence_orbital": [ 
			{
				"type": "occ",
				"energy": -0.30559,
				"method": "rhf"
			},
			{
				"type": "occ",
				"energy": -0.29686,
				"method": "rhf"
			},
			{
				"type": "occ",
				"energy": -0.29268,
				"method": "rhf"
			},
			{
				"type": "occ",
				"energy": -0.26595,
				"method": "rhf"
			},
			{
				"type": "occ",
				"energy": -0.22492,
				"method": "rhf"
			},
			{
				"type": "unocc",
				"energy": -0.04944,
				"method": "rhf"
			},
			{
				"type": "unocc",
				"energy": 0.02063,
				"method": "rhf"
			},
			{
				"type": "unocc",
				"energy": 0.04729,
				"method": "rhf"
			},
			{
				"type": "unocc",
				"energy": 0.07341,
				"method": "rhf"
			},
			{
				"type": "unocc",
				"energy": 0.10377,
				"method": "rhf"
			}
		],
		"cosmo_sigma_profile": { 
			"-0.025": 0.0,
			"-0.024": 0.0,
			"-0.023": 0.0,
			"-0.022": 0.0,
			"-0.021": 0.0,
			"-0.02": 0.0,
			"-0.019": 0.0,
			"-0.018": 0.0,
			"-0.017": 0.0,
			"-0.016": 0.0,
			"-0.015": 0.0,
			"-0.014": 0.0,
			"-0.013": 0.0584963092233,
			"-0.012": 0.539700588654,
			"-0.011": 0.55769156499,
			"-0.01": 1.3976871341,
			"-0.009": 3.33658934798,
			"-0.008": 5.34006730753,
			"-0.007": 9.04506513367,
			"-0.006": 12.4178837093,
			"-0.005": 14.0991828417,
			"-0.004": 11.2600899547,
			"-0.003": 9.55026110906,
			"-0.002": 9.38478338888,
			"-0.001": 9.49848011908,
			"0.0": 18.1942087106,
			"0.001": 20.067140836,
			"0.002": 15.6742323765,
			"0.003": 11.4550844593,
			"0.004": 8.34314191356,
			"0.005": 5.64779596814,
			"0.006": 5.91776979198,
			"0.007": 5.60304947437,
			"0.008": 4.53895872225,
			"0.009": 2.13986247298,
			"0.01": 3.51351701318,
			"0.011": 2.63543134212,
			"0.012": 1.38237742877,
			"0.013": 2.32175170375,
			"0.014": 1.3287059066,
			"0.015": 0.0,
			"0.016": 0.0,
			"0.017": 0.0,
			"0.018": 0.0,
			"0.019": 0.0,
			"0.02": 0.0,
			"0.021": 0.0,
			"0.022": 0.0,
			"0.023": 0.0,
			"0.024": 0.0,
			"0.025": 0.0
		}
	}
}
