{
	 "smiles": "COC1=C(C=CC=N1)C(N)=S", 
	 "Tm": 388.15, 
	 "num_atms": 19, 
	 "gaussian": { 
		 "optdone": 1, 
		 "sigma_profile": "yes", 
		 "theory": "DFT", 
		 "functional": "B3LYP", 
		 "basiset": "6-31G**", 
		 "properties": { 
			 "R2extent": 3007.7576, 
			 "electric_dipole_moment_norm": 4.73517754789, 
			 "electric_quadrupole_moment_norm": 24.5004296542, 
			 "total_energy": -854.484686092, 
			 "HOMO_LUMO_gap": 0.1387, 
			 "cosmo_polarized_energy": -13.03, 
			 "cosmo_cavitation_energy": 24.41, 
			 "cosmo_dispersion_energy": -18.86, 
			 "cosmo_repulsion_energy": 1.47, 
			 "cosmo_total_nonelectrostatic_energy": 7.02, 
			 "SMD_solvation_energy": 3.4 
		},
		"coords": [
			{
				"x": -2.3239441488,
				"y": -2.5663611442,
				"z": -0.1405235212,
				"element": "C" 
			},
			{
				"x": -0.9509343548,
				"y": -2.4283970032,
				"z": -0.5382940656,
				"element": "O" 
			},
			{
				"x": -0.4796193644,
				"y": -1.1709883434,
				"z": -0.7598070432,
				"element": "C" 
			},
			{
				"x": 0.878889069,
				"y": -1.0011166824,
				"z": -1.1552001312,
				"element": "C" 
			},
			{
				"x": 1.2737305784,
				"y": 0.3270207491,
				"z": -1.3598346211,
				"element": "C" 
			},
			{
				"x": 0.3838374563,
				"y": 1.3824615318,
				"z": -1.1828626059,
				"element": "C" 
			},
			{
				"x": -0.9155946487,
				"y": 1.0792138537,
				"z": -0.7949091335,
				"element": "C" 
			},
			{
				"x": -1.3375568825,
				"y": -0.1741102296,
				"z": -0.587801537,
				"element": "N" 
			},
			{
				"x": 1.8806075379,
				"y": -2.0947885985,
				"z": -1.3612439308,
				"element": "C" 
			},
			{
				"x": 1.4604636606,
				"y": -3.3547995083,
				"z": -1.1565405486,
				"element": "N" 
			},
			{
				"x": 3.4677580521,
				"y": -1.7995608509,
				"z": -1.8274664466,
				"element": "S" 
			},
			{
				"x": -2.9920620335,
				"y": -2.1653514647,
				"z": -0.9058243721,
				"element": "H" 
			},
			{
				"x": -2.4777640132,
				"y": -3.6393418754,
				"z": -0.0202769659,
				"element": "H" 
			},
			{
				"x": -2.5102151017,
				"y": -2.0431465183,
				"z": 0.7998716556,
				"element": "H" 
			},
			{
				"x": 2.3017081826,
				"y": 0.497832462,
				"z": -1.6618927835,
				"element": "H" 
			},
			{
				"x": 0.6924028777,
				"y": 2.4097002412,
				"z": -1.3421128256,
				"element": "H" 
			},
			{
				"x": -1.6557385716,
				"y": 1.8619454635,
				"z": -0.6411324602,
				"element": "H" 
			},
			{
				"x": 0.5093698082,
				"y": -3.5508175264,
				"z": -0.8752609496,
				"element": "H" 
			},
			{
				"x": 2.1301618965,
				"y": -4.096794556,
				"z": -1.293387714,
				"element": "H" 
			}
		],
		 "valence_orbital": [ 
			{
				"type": "occ",
				"energy": -0.29416,
				"method": "rhf"
			},
			{
				"type": "occ",
				"energy": -0.2808,
				"method": "rhf"
			},
			{
				"type": "occ",
				"energy": -0.25387,
				"method": "rhf"
			},
			{
				"type": "occ",
				"energy": -0.21785,
				"method": "rhf"
			},
			{
				"type": "occ",
				"energy": -0.20457,
				"method": "rhf"
			},
			{
				"type": "unocc",
				"energy": -0.06587,
				"method": "rhf"
			},
			{
				"type": "unocc",
				"energy": -0.01755,
				"method": "rhf"
			},
			{
				"type": "unocc",
				"energy": 0.02327,
				"method": "rhf"
			},
			{
				"type": "unocc",
				"energy": 0.0849,
				"method": "rhf"
			},
			{
				"type": "unocc",
				"energy": 0.09553,
				"method": "rhf"
			}
		],
		"cosmo_sigma_profile": { 
			"-0.025": 0.0,
			"-0.024": 0.0,
			"-0.023": 0.0,
			"-0.022": 0.0,
			"-0.021": 0.0,
			"-0.02": 0.0,
			"-0.019": 0.0,
			"-0.018": 0.0,
			"-0.017": 0.0,
			"-0.016": 0.0,
			"-0.015": 0.350015525357,
			"-0.014": 0.905043323297,
			"-0.013": 1.23568680694,
			"-0.012": 1.77121160367,
			"-0.011": 1.5106745571,
			"-0.01": 1.64805494949,
			"-0.009": 1.76360870408,
			"-0.008": 1.95002871308,
			"-0.007": 6.07571395293,
			"-0.006": 9.97557015093,
			"-0.005": 14.5430731351,
			"-0.004": 13.4804301706,
			"-0.003": 14.5929141894,
			"-0.002": 13.1930070644,
			"-0.001": 14.5414572494,
			"0.0": 15.2490137446,
			"0.001": 16.1546859784,
			"0.002": 14.6234141625,
			"0.003": 6.37880937782,
			"0.004": 6.16878260956,
			"0.005": 5.37460553405,
			"0.006": 5.35661931513,
			"0.007": 4.81065402413,
			"0.008": 5.89372964452,
			"0.009": 7.45011987665,
			"0.01": 7.73814998449,
			"0.011": 3.78742638164,
			"0.012": 1.55791433717,
			"0.013": 0.0212073866361,
			"0.014": 0.0,
			"0.015": 0.0,
			"0.016": 0.0,
			"0.017": 0.0,
			"0.018": 0.0,
			"0.019": 0.0,
			"0.02": 0.0,
			"0.021": 0.0,
			"0.022": 0.0,
			"0.023": 0.0,
			"0.024": 0.0,
			"0.025": 0.0
		}
	}
}
