{
	 "smiles": "CNCC1=C(C)N(N=C1C)C1=C(C)C=CC=C1", 
	 "Tm": 315.15, 
	 "num_atms": 36, 
	 "gaussian": { 
		 "optdone": 1, 
		 "sigma_profile": "yes", 
		 "theory": "DFT", 
		 "functional": "B3LYP", 
		 "basiset": "6-31G**", 
		 "properties": { 
			 "R2extent": 5251.6984, 
			 "electric_dipole_moment_norm": 1.74395617491, 
			 "electric_quadrupole_moment_norm": 8.68525872269, 
			 "total_energy": -709.18824552, 
			 "HOMO_LUMO_gap": 0.19592, 
			 "cosmo_polarized_energy": -10.57, 
			 "cosmo_cavitation_energy": 38.06, 
			 "cosmo_dispersion_energy": -25.56, 
			 "cosmo_repulsion_energy": 1.99, 
			 "cosmo_total_nonelectrostatic_energy": 14.49, 
			 "SMD_solvation_energy": 3.46 
		},
		"coords": [
			{
				"x": 2.2931174178,
				"y": -1.5854135048,
				"z": -4.3251155059,
				"element": "C" 
			},
			{
				"x": 0.9321792997,
				"y": -2.0304624921,
				"z": -4.6034052184,
				"element": "N" 
			},
			{
				"x": -0.1100056003,
				"y": -1.0728738457,
				"z": -4.1978476804,
				"element": "C" 
			},
			{
				"x": -0.1958050292,
				"y": -0.7354694274,
				"z": -2.7296983971,
				"element": "C" 
			},
			{
				"x": 0.2808201884,
				"y": 0.3911143782,
				"z": -2.0730943037,
				"element": "C" 
			},
			{
				"x": 0.9605251845,
				"y": 1.6150318781,
				"z": -2.6047453735,
				"element": "C" 
			},
			{
				"x": -0.0356036425,
				"y": 0.2276887446,
				"z": -0.7464055989,
				"element": "N" 
			},
			{
				"x": -0.6903538373,
				"y": -0.9456925416,
				"z": -0.5144556543,
				"element": "N" 
			},
			{
				"x": -0.787275255,
				"y": -1.529319718,
				"z": -1.7045520971,
				"element": "C" 
			},
			{
				"x": -1.4642219606,
				"y": -2.8608419599,
				"z": -1.8352143701,
				"element": "C" 
			},
			{
				"x": 0.2606418264,
				"y": 1.1002239197,
				"z": 0.3447271327,
				"element": "C" 
			},
			{
				"x": -0.7829824071,
				"y": 1.6429521754,
				"z": 1.1197579623,
				"element": "C" 
			},
			{
				"x": -2.2313614446,
				"y": 1.341601603,
				"z": 0.8259034051,
				"element": "C" 
			},
			{
				"x": -0.4265496457,
				"y": 2.4869290733,
				"z": 2.1787344132,
				"element": "C" 
			},
			{
				"x": 0.9053442925,
				"y": 2.7965222918,
				"z": 2.457988689,
				"element": "C" 
			},
			{
				"x": 1.9234740233,
				"y": 2.2535780927,
				"z": 1.6755558409,
				"element": "C" 
			},
			{
				"x": 1.5971616887,
				"y": 1.3983203894,
				"z": 0.6240837132,
				"element": "C" 
			},
			{
				"x": 2.5138425667,
				"y": -0.6981189641,
				"z": -4.9309406167,
				"element": "H" 
			},
			{
				"x": 2.4909103364,
				"y": -1.3279345396,
				"z": -3.2704177575,
				"element": "H" 
			},
			{
				"x": 2.9969441289,
				"y": -2.3688541842,
				"z": -4.6230239088,
				"element": "H" 
			},
			{
				"x": 0.7673927431,
				"y": -2.9150889117,
				"z": -4.1292098502,
				"element": "H" 
			},
			{
				"x": 0.0474145357,
				"y": -0.1574144794,
				"z": -4.7819344579,
				"element": "H" 
			},
			{
				"x": -1.0693894152,
				"y": -1.4861306128,
				"z": -4.5326185082,
				"element": "H" 
			},
			{
				"x": 0.59370325,
				"y": 2.5215105398,
				"z": -2.1140809919,
				"element": "H" 
			},
			{
				"x": 0.7729466243,
				"y": 1.7096558604,
				"z": -3.6770906849,
				"element": "H" 
			},
			{
				"x": 2.0470939976,
				"y": 1.5854607574,
				"z": -2.4640028513,
				"element": "H" 
			},
			{
				"x": -1.90249801,
				"y": -3.1471188619,
				"z": -0.8765861362,
				"element": "H" 
			},
			{
				"x": -0.7625505386,
				"y": -3.6490202239,
				"z": -2.1344997596,
				"element": "H" 
			},
			{
				"x": -2.2619541721,
				"y": -2.83572456,
				"z": -2.5867251471,
				"element": "H" 
			},
			{
				"x": -2.4711798851,
				"y": 1.5359506956,
				"z": -0.2251130463,
				"element": "H" 
			},
			{
				"x": -2.8867083696,
				"y": 1.9573485188,
				"z": 1.4475168979,
				"element": "H" 
			},
			{
				"x": -2.457122527,
				"y": 0.2872442891,
				"z": 1.0060090694,
				"element": "H" 
			},
			{
				"x": -1.2161274889,
				"y": 2.9166285619,
				"z": 2.7896959836,
				"element": "H" 
			},
			{
				"x": 1.1443415493,
				"y": 3.4595117645,
				"z": 3.2844515396,
				"element": "H" 
			},
			{
				"x": 2.964011722,
				"y": 2.4807768413,
				"z": 1.8867792335,
				"element": "H" 
			},
			{
				"x": 2.3757238536,
				"y": 0.9406284522,
				"z": 0.0221740353,
				"element": "H" 
			}
		],
		 "valence_orbital": [ 
			{
				"type": "occ",
				"energy": -0.26235,
				"method": "rhf"
			},
			{
				"type": "occ",
				"energy": -0.24709,
				"method": "rhf"
			},
			{
				"type": "occ",
				"energy": -0.22925,
				"method": "rhf"
			},
			{
				"type": "occ",
				"energy": -0.227,
				"method": "rhf"
			},
			{
				"type": "occ",
				"energy": -0.21008,
				"method": "rhf"
			},
			{
				"type": "unocc",
				"energy": -0.01416,
				"method": "rhf"
			},
			{
				"type": "unocc",
				"energy": -0.00316,
				"method": "rhf"
			},
			{
				"type": "unocc",
				"energy": 0.03339,
				"method": "rhf"
			},
			{
				"type": "unocc",
				"energy": 0.05947,
				"method": "rhf"
			},
			{
				"type": "unocc",
				"energy": 0.08216,
				"method": "rhf"
			}
		],
		"cosmo_sigma_profile": { 
			"-0.025": 0.0,
			"-0.024": 0.0,
			"-0.023": 0.0,
			"-0.022": 0.0,
			"-0.021": 0.0,
			"-0.02": 0.0,
			"-0.019": 0.0,
			"-0.018": 0.0,
			"-0.017": 0.0,
			"-0.016": 0.0,
			"-0.015": 0.0,
			"-0.014": 0.0,
			"-0.013": 0.0,
			"-0.012": 0.0,
			"-0.011": 0.0,
			"-0.01": 0.0,
			"-0.009": 0.299139865813,
			"-0.008": 1.15147200828,
			"-0.007": 2.33307592957,
			"-0.006": 9.01682434622,
			"-0.005": 17.8766261459,
			"-0.004": 27.3899883746,
			"-0.003": 32.1968527375,
			"-0.002": 30.8445067927,
			"-0.001": 35.1452022961,
			"0.0": 37.9449233834,
			"0.001": 23.224233531,
			"0.002": 14.6737332044,
			"0.003": 12.2865348069,
			"0.004": 13.7878171797,
			"0.005": 15.4683417733,
			"0.006": 5.3837053332,
			"0.007": 3.68538752697,
			"0.008": 3.02201878835,
			"0.009": 2.35349849799,
			"0.01": 1.8181773952,
			"0.011": 1.24019234123,
			"0.012": 1.48386285245,
			"0.013": 1.27221233881,
			"0.014": 1.75785832921,
			"0.015": 1.12388374343,
			"0.016": 0.900491472623,
			"0.017": 0.713419525026,
			"0.018": 0.557536340845,
			"0.019": 0.182580456332,
			"0.02": 0.0,
			"0.021": 0.0,
			"0.022": 0.0,
			"0.023": 0.0,
			"0.024": 0.0,
			"0.025": 0.0
		}
	}
}
