{
	 "smiles": "ClC(=O)C1=CC=CC2=C1OCCO2", 
	 "Tm": 371.65, 
	 "num_atms": 20, 
	 "gaussian": { 
		 "optdone": 1, 
		 "sigma_profile": "yes", 
		 "theory": "DFT", 
		 "functional": "B3LYP", 
		 "basiset": "6-31G**", 
		 "properties": { 
			 "R2extent": 2615.0465, 
			 "electric_dipole_moment_norm": 4.79757734904, 
			 "electric_quadrupole_moment_norm": 13.6335338526, 
			 "total_energy": -1033.01985747, 
			 "HOMO_LUMO_gap": 0.16538, 
			 "cosmo_polarized_energy": -9.72, 
			 "cosmo_cavitation_energy": 25.76, 
			 "cosmo_dispersion_energy": -19.42, 
			 "cosmo_repulsion_energy": 1.54, 
			 "cosmo_total_nonelectrostatic_energy": 7.89, 
			 "SMD_solvation_energy": 5.34 
		},
		"coords": [
			{
				"x": -0.5460456771,
				"y": 2.8612266072,
				"z": -0.9560570351,
				"element": "Cl" 
			},
			{
				"x": 0.8880941755,
				"y": 2.0048381244,
				"z": -0.2335567655,
				"element": "C" 
			},
			{
				"x": 1.9589115417,
				"y": 2.5342563374,
				"z": -0.2954557799,
				"element": "O" 
			},
			{
				"x": 0.6075340933,
				"y": 0.7406879664,
				"z": 0.491936335,
				"element": "C" 
			},
			{
				"x": 1.450267952,
				"y": 0.4896047586,
				"z": 1.5909974542,
				"element": "C" 
			},
			{
				"x": 1.2902656619,
				"y": -0.6519251705,
				"z": 2.3657579838,
				"element": "C" 
			},
			{
				"x": 0.2847369185,
				"y": -1.5660547599,
				"z": 2.052115827,
				"element": "C" 
			},
			{
				"x": -0.5462451354,
				"y": -1.3476334939,
				"z": 0.9561781769,
				"element": "C" 
			},
			{
				"x": -0.3840191221,
				"y": -0.2030005967,
				"z": 0.1481156856,
				"element": "C" 
			},
			{
				"x": -1.1400206696,
				"y": -0.0182005989,
				"z": -0.9690018353,
				"element": "O" 
			},
			{
				"x": -1.8743369048,
				"y": -1.165111582,
				"z": -1.4061659001,
				"element": "C" 
			},
			{
				"x": -2.5213651169,
				"y": -1.8490013882,
				"z": -0.2171141041,
				"element": "C" 
			},
			{
				"x": -1.5094181137,
				"y": -2.2874198772,
				"z": 0.6892274421,
				"element": "O" 
			},
			{
				"x": 2.2194613306,
				"y": 1.2176449638,
				"z": 1.8203717294,
				"element": "H" 
			},
			{
				"x": 1.9378932297,
				"y": -0.8289275601,
				"z": 3.2178852004,
				"element": "H" 
			},
			{
				"x": 0.1236581696,
				"y": -2.4624886444,
				"z": 2.6422587391,
				"element": "H" 
			},
			{
				"x": -2.6174429796,
				"y": -0.7954543107,
				"z": -2.1161891768,
				"element": "H" 
			},
			{
				"x": -1.1984882218,
				"y": -1.86082565,
				"z": -1.9201238414,
				"element": "H" 
			},
			{
				"x": -3.2057043406,
				"y": -1.1561061276,
				"z": 0.290652817,
				"element": "H" 
			},
			{
				"x": -3.0747367914,
				"y": -2.7410089976,
				"z": -0.5199329524,
				"element": "H" 
			}
		],
		 "valence_orbital": [ 
			{
				"type": "occ",
				"energy": -0.30883,
				"method": "rhf"
			},
			{
				"type": "occ",
				"energy": -0.30018,
				"method": "rhf"
			},
			{
				"type": "occ",
				"energy": -0.28488,
				"method": "rhf"
			},
			{
				"type": "occ",
				"energy": -0.25622,
				"method": "rhf"
			},
			{
				"type": "occ",
				"energy": -0.22909,
				"method": "rhf"
			},
			{
				"type": "unocc",
				"energy": -0.06371,
				"method": "rhf"
			},
			{
				"type": "unocc",
				"energy": -0.00388,
				"method": "rhf"
			},
			{
				"type": "unocc",
				"energy": 0.01204,
				"method": "rhf"
			},
			{
				"type": "unocc",
				"energy": 0.03827,
				"method": "rhf"
			},
			{
				"type": "unocc",
				"energy": 0.07278,
				"method": "rhf"
			}
		],
		"cosmo_sigma_profile": { 
			"-0.025": 0.0,
			"-0.024": 0.0,
			"-0.023": 0.0,
			"-0.022": 0.0,
			"-0.021": 0.0,
			"-0.02": 0.0,
			"-0.019": 0.0,
			"-0.018": 0.0,
			"-0.017": 0.0,
			"-0.016": 0.0,
			"-0.015": 0.0,
			"-0.014": 0.0,
			"-0.013": 0.0,
			"-0.012": 0.0,
			"-0.011": 0.0,
			"-0.01": 0.0,
			"-0.009": 0.0,
			"-0.008": 2.40567302054,
			"-0.007": 13.1918638405,
			"-0.006": 18.2810438837,
			"-0.005": 15.6394163854,
			"-0.004": 13.5771912693,
			"-0.003": 10.4327488034,
			"-0.002": 9.2858388582,
			"-0.001": 11.5178962089,
			"0.0": 13.9238622689,
			"0.001": 15.3038860877,
			"0.002": 16.7093829173,
			"0.003": 16.4996409415,
			"0.004": 14.235541349,
			"0.005": 10.7100888186,
			"0.006": 5.60042417796,
			"0.007": 6.19757322774,
			"0.008": 7.01015583797,
			"0.009": 6.2235839561,
			"0.01": 1.78876226524,
			"0.011": 0.0,
			"0.012": 0.0,
			"0.013": 0.0,
			"0.014": 0.0,
			"0.015": 0.0,
			"0.016": 0.0,
			"0.017": 0.0,
			"0.018": 0.0,
			"0.019": 0.0,
			"0.02": 0.0,
			"0.021": 0.0,
			"0.022": 0.0,
			"0.023": 0.0,
			"0.024": 0.0,
			"0.025": 0.0
		}
	}
}
