{
	 "smiles": "CCOC(=O)C(C#N)=C(N)C1=CC2=C(OC1=O)C(Br)=CC(Br)=C2", 
	 "Tm": 532.15, 
	 "num_atms": 33, 
	 "gaussian": { 
		 "optdone": 1, 
		 "sigma_profile": "yes", 
		 "theory": "DFT", 
		 "functional": "B3LYP", 
		 "basiset": "6-31G**", 
		 "properties": { 
			 "R2extent": 16058.4006, 
			 "electric_dipole_moment_norm": 4.74027085091, 
			 "electric_quadrupole_moment_norm": 27.7034636862, 
			 "total_energy": -6130.81970316, 
			 "HOMO_LUMO_gap": 0.1451, 
			 "cosmo_polarized_energy": -27.08, 
			 "cosmo_cavitation_energy": 45.01, 
			 "cosmo_dispersion_energy": -31.49, 
			 "cosmo_repulsion_energy": 2.47, 
			 "cosmo_total_nonelectrostatic_energy": 15.99, 
			 "SMD_solvation_energy": 8.41 
		},
		"coords": [
			{
				"x": 3.6769783672,
				"y": 4.4920954008,
				"z": -0.4421330017,
				"element": "C" 
			},
			{
				"x": 2.8354147566,
				"y": 3.3329571055,
				"z": 0.0557672196,
				"element": "C" 
			},
			{
				"x": 2.761590237,
				"y": 2.362959827,
				"z": -1.0153586623,
				"element": "O" 
			},
			{
				"x": 2.0399191024,
				"y": 1.2557246254,
				"z": -0.7610820213,
				"element": "C" 
			},
			{
				"x": 1.481600025,
				"y": 1.0401692277,
				"z": 0.3020744106,
				"element": "O" 
			},
			{
				"x": 2.0307682579,
				"y": 0.3477958141,
				"z": -1.9234412645,
				"element": "C" 
			},
			{
				"x": 2.814493099,
				"y": 0.6404819313,
				"z": -3.0753497268,
				"element": "C" 
			},
			{
				"x": 3.4267059826,
				"y": 0.776793104,
				"z": -4.0584997014,
				"element": "N" 
			},
			{
				"x": 1.3011898376,
				"y": -0.8245084637,
				"z": -1.9254962695,
				"element": "C" 
			},
			{
				"x": 1.3993304971,
				"y": -1.7311879108,
				"z": -2.9309176528,
				"element": "N" 
			},
			{
				"x": 0.4035262897,
				"y": -1.2268755032,
				"z": -0.8094903535,
				"element": "C" 
			},
			{
				"x": 0.6279989652,
				"y": -2.3589488326,
				"z": -0.0992658263,
				"element": "C" 
			},
			{
				"x": -0.2315491848,
				"y": -2.7360365743,
				"z": 0.9940408969,
				"element": "C" 
			},
			{
				"x": -1.3188575445,
				"y": -1.8888519185,
				"z": 1.2807821116,
				"element": "C" 
			},
			{
				"x": -1.5741004355,
				"y": -0.7887970091,
				"z": 0.5298726557,
				"element": "O" 
			},
			{
				"x": -0.7919966049,
				"y": -0.4009842859,
				"z": -0.5556858873,
				"element": "C" 
			},
			{
				"x": -1.1672697544,
				"y": 0.5295130655,
				"z": -1.2191855535,
				"element": "O" 
			},
			{
				"x": -2.172107045,
				"y": -2.1852260219,
				"z": 2.3530338723,
				"element": "C" 
			},
			{
				"x": -3.6367855513,
				"y": -1.0506029112,
				"z": 2.7503201087,
				"element": "Br" 
			},
			{
				"x": -1.9471608174,
				"y": -3.3183913339,
				"z": 3.1280340038,
				"element": "C" 
			},
			{
				"x": -0.8669337056,
				"y": -4.1580668264,
				"z": 2.833650837,
				"element": "C" 
			},
			{
				"x": -0.5783609679,
				"y": -5.7065191624,
				"z": 3.90639909,
				"element": "Br" 
			},
			{
				"x": -0.0102201386,
				"y": -3.8794618123,
				"z": 1.7809540099,
				"element": "C" 
			},
			{
				"x": 3.2240688055,
				"y": 4.9520936675,
				"z": -1.324726686,
				"element": "H" 
			},
			{
				"x": 3.7582677161,
				"y": 5.2523916917,
				"z": 0.3409390856,
				"element": "H" 
			},
			{
				"x": 4.684439828,
				"y": 4.1589126096,
				"z": -0.7066120161,
				"element": "H" 
			},
			{
				"x": 1.8191587206,
				"y": 3.6420546768,
				"z": 0.3187965764,
				"element": "H" 
			},
			{
				"x": 3.2733289292,
				"y": 2.8521042164,
				"z": 0.9362869749,
				"element": "H" 
			},
			{
				"x": 0.6773413026,
				"y": -2.4262301639,
				"z": -3.0363086156,
				"element": "H" 
			},
			{
				"x": 1.9410433902,
				"y": -1.4935155639,
				"z": -3.7527308963,
				"element": "H" 
			},
			{
				"x": 1.4940408703,
				"y": -2.9782301954,
				"z": -0.3176849709,
				"element": "H" 
			},
			{
				"x": -2.6090761763,
				"y": -3.5447677909,
				"z": 3.9541154,
				"element": "H" 
			},
			{
				"x": 0.8288129462,
				"y": -4.5303446829,
				"z": 1.5626018527,
				"element": "H" 
			}
		],
		 "valence_orbital": [ 
			{
				"type": "occ",
				"energy": -0.2956,
				"method": "rhf"
			},
			{
				"type": "occ",
				"energy": -0.28022,
				"method": "rhf"
			},
			{
				"type": "occ",
				"energy": -0.26343,
				"method": "rhf"
			},
			{
				"type": "occ",
				"energy": -0.25174,
				"method": "rhf"
			},
			{
				"type": "occ",
				"energy": -0.24077,
				"method": "rhf"
			},
			{
				"type": "unocc",
				"energy": -0.09567,
				"method": "rhf"
			},
			{
				"type": "unocc",
				"energy": -0.05292,
				"method": "rhf"
			},
			{
				"type": "unocc",
				"energy": -0.03938,
				"method": "rhf"
			},
			{
				"type": "unocc",
				"energy": -0.02929,
				"method": "rhf"
			},
			{
				"type": "unocc",
				"energy": -0.02318,
				"method": "rhf"
			}
		],
		"cosmo_sigma_profile": { 
			"-0.025": 0.0,
			"-0.024": 0.0,
			"-0.023": 0.0,
			"-0.022": 0.0,
			"-0.021": 0.0,
			"-0.02": 0.0,
			"-0.019": 0.0,
			"-0.018": 0.0,
			"-0.017": 0.104774173045,
			"-0.016": 1.24568081855,
			"-0.015": 1.82150129488,
			"-0.014": 2.27799514594,
			"-0.013": 2.70109697348,
			"-0.012": 2.08475650153,
			"-0.011": 3.07844081737,
			"-0.01": 5.37852764677,
			"-0.009": 6.24653330701,
			"-0.008": 7.24900254645,
			"-0.007": 8.66141638992,
			"-0.006": 8.46838322969,
			"-0.005": 16.9105003845,
			"-0.004": 23.9975623119,
			"-0.003": 25.7954283624,
			"-0.002": 30.6674721186,
			"-0.001": 32.8384392254,
			"0.0": 36.4607088474,
			"0.001": 19.2343616933,
			"0.002": 18.6228103661,
			"0.003": 24.8517274827,
			"0.004": 20.297949797,
			"0.005": 7.9743720649,
			"0.006": 8.1275737491,
			"0.007": 10.1850444866,
			"0.008": 9.29890801734,
			"0.009": 7.62892605615,
			"0.01": 8.51238402592,
			"0.011": 9.61472079572,
			"0.012": 5.18385231408,
			"0.013": 2.41612917388,
			"0.014": 0.397050423283,
			"0.015": 0.0,
			"0.016": 0.0,
			"0.017": 0.0,
			"0.018": 0.0,
			"0.019": 0.0,
			"0.02": 0.0,
			"0.021": 0.0,
			"0.022": 0.0,
			"0.023": 0.0,
			"0.024": 0.0,
			"0.025": 0.0
		}
	}
}
