{
	 "smiles": "NC(=S)C1=COC=C1", 
	 "Tm": 377.15, 
	 "num_atms": 13, 
	 "gaussian": { 
		 "optdone": 1, 
		 "sigma_profile": "yes", 
		 "theory": "DFT", 
		 "functional": "B3LYP", 
		 "basiset": "6-31G**", 
		 "properties": { 
			 "R2extent": 2145.328, 
			 "electric_dipole_moment_norm": 4.923162639, 
			 "electric_quadrupole_moment_norm": 19.0684283574, 
			 "total_energy": -721.68361415, 
			 "HOMO_LUMO_gap": 0.15547, 
			 "cosmo_polarized_energy": -15.81, 
			 "cosmo_cavitation_energy": 19.16, 
			 "cosmo_dispersion_energy": -14.85, 
			 "cosmo_repulsion_energy": 1.18, 
			 "cosmo_total_nonelectrostatic_energy": 5.48, 
			 "SMD_solvation_energy": 3.88 
		},
		"coords": [
			{
				"x": -3.0374497865,
				"y": 1.7307696739,
				"z": -0.6537087896,
				"element": "N" 
			},
			{
				"x": -2.0652798424,
				"y": 2.1946318725,
				"z": 0.161697527,
				"element": "C" 
			},
			{
				"x": -2.2889250227,
				"y": 3.5785063492,
				"z": 1.0762087781,
				"element": "S" 
			},
			{
				"x": -0.826312158,
				"y": 1.4068109991,
				"z": 0.1814680008,
				"element": "C" 
			},
			{
				"x": 0.2819736813,
				"y": 1.6968490835,
				"z": 0.9346341686,
				"element": "C" 
			},
			{
				"x": 1.2547532558,
				"y": 0.7817902603,
				"z": 0.7308318087,
				"element": "O" 
			},
			{
				"x": 0.7745678226,
				"y": -0.1252297773,
				"z": -0.1732091639,
				"element": "C" 
			},
			{
				"x": -0.4886020355,
				"y": 0.2022692166,
				"z": -0.5448671657,
				"element": "C" 
			},
			{
				"x": -2.9278820735,
				"y": 0.9003075595,
				"z": -1.214536901,
				"element": "H" 
			},
			{
				"x": -3.9071638005,
				"y": 2.2401270896,
				"z": -0.6998170567,
				"element": "H" 
			},
			{
				"x": 0.4917504461,
				"y": 2.4958126177,
				"z": 1.6273461385,
				"element": "H" 
			},
			{
				"x": 1.4459461145,
				"y": -0.9264493596,
				"z": -0.4393392144,
				"element": "H" 
			},
			{
				"x": -1.0950766012,
				"y": -0.3506955851,
				"z": -1.2484081304,
				"element": "H" 
			}
		],
		 "valence_orbital": [ 
			{
				"type": "occ",
				"energy": -0.35642,
				"method": "rhf"
			},
			{
				"type": "occ",
				"energy": -0.29256,
				"method": "rhf"
			},
			{
				"type": "occ",
				"energy": -0.25388,
				"method": "rhf"
			},
			{
				"type": "occ",
				"energy": -0.22025,
				"method": "rhf"
			},
			{
				"type": "occ",
				"energy": -0.20795,
				"method": "rhf"
			},
			{
				"type": "unocc",
				"energy": -0.05248,
				"method": "rhf"
			},
			{
				"type": "unocc",
				"energy": 0.00616,
				"method": "rhf"
			},
			{
				"type": "unocc",
				"energy": 0.05711,
				"method": "rhf"
			},
			{
				"type": "unocc",
				"energy": 0.08687,
				"method": "rhf"
			},
			{
				"type": "unocc",
				"energy": 0.09686,
				"method": "rhf"
			}
		],
		"cosmo_sigma_profile": { 
			"-0.025": 0.0,
			"-0.024": 0.0,
			"-0.023": 0.0,
			"-0.022": 0.0,
			"-0.021": 0.0,
			"-0.02": 0.0,
			"-0.019": 0.0,
			"-0.018": 0.0,
			"-0.017": 0.0,
			"-0.016": 0.997912804888,
			"-0.015": 2.25143646021,
			"-0.014": 2.56930242874,
			"-0.013": 2.74929092896,
			"-0.012": 2.36289688758,
			"-0.011": 2.12441686267,
			"-0.01": 3.55089810439,
			"-0.009": 5.47430683645,
			"-0.008": 4.88296330704,
			"-0.007": 5.15218938901,
			"-0.006": 5.41920952775,
			"-0.005": 4.22523099127,
			"-0.004": 4.44231962627,
			"-0.003": 5.50096409436,
			"-0.002": 6.14043473267,
			"-0.001": 5.35934752469,
			"0.0": 7.93960928529,
			"0.001": 12.3077998943,
			"0.002": 13.8855484424,
			"0.003": 10.611463477,
			"0.004": 8.09234524334,
			"0.005": 5.927751049,
			"0.006": 4.63966391715,
			"0.007": 5.93415355582,
			"0.008": 4.36801010832,
			"0.009": 6.12226602548,
			"0.01": 8.50940188712,
			"0.011": 3.32161866618,
			"0.012": 1.54081005008,
			"0.013": 0.131707198561,
			"0.014": 0.0,
			"0.015": 0.0,
			"0.016": 0.0,
			"0.017": 0.0,
			"0.018": 0.0,
			"0.019": 0.0,
			"0.02": 0.0,
			"0.021": 0.0,
			"0.022": 0.0,
			"0.023": 0.0,
			"0.024": 0.0,
			"0.025": 0.0
		}
	}
}
