{
	 "smiles": "CC1=CC(O)=NC=C1[N+]([O-])=O", 
	 "Tm": 462.15, 
	 "num_atms": 17, 
	 "gaussian": { 
		 "optdone": 1, 
		 "sigma_profile": "yes", 
		 "theory": "DFT", 
		 "functional": "B3LYP", 
		 "basiset": "6-31G**", 
		 "properties": { 
			 "R2extent": 2215.1072, 
			 "electric_dipole_moment_norm": 3.64646635937, 
			 "electric_quadrupole_moment_norm": 10.7730198798, 
			 "total_energy": -567.334702908, 
			 "HOMO_LUMO_gap": 0.1774, 
			 "cosmo_polarized_energy": -10.4, 
			 "cosmo_cavitation_energy": 21.86, 
			 "cosmo_dispersion_energy": -16.45, 
			 "cosmo_repulsion_energy": 1.31, 
			 "cosmo_total_nonelectrostatic_energy": 6.72, 
			 "SMD_solvation_energy": 5.1 
		},
		"coords": [
			{
				"x": -0.5668322517,
				"y": 0.9084018875,
				"z": -0.7921129168,
				"element": "C" 
			},
			{
				"x": -0.0980407373,
				"y": -0.0784903538,
				"z": 0.2447011011,
				"element": "C" 
			},
			{
				"x": 0.6301791068,
				"y": -1.1911963867,
				"z": -0.1648778225,
				"element": "C" 
			},
			{
				"x": 1.0769957143,
				"y": -2.1232793816,
				"z": 0.7820814672,
				"element": "C" 
			},
			{
				"x": 1.7776701132,
				"y": -3.1873628787,
				"z": 0.3571763247,
				"element": "O" 
			},
			{
				"x": 0.850395056,
				"y": -2.0236467418,
				"z": 2.0936851889,
				"element": "N" 
			},
			{
				"x": 0.1544985777,
				"y": -0.9646201203,
				"z": 2.5046151843,
				"element": "C" 
			},
			{
				"x": -0.3331712814,
				"y": 0.0178223084,
				"z": 1.6395465331,
				"element": "C" 
			},
			{
				"x": -1.0786311264,
				"y": 1.1179264114,
				"z": 2.2479508078,
				"element": "N" 
			},
			{
				"x": -1.2272502124,
				"y": 1.1024375194,
				"z": 3.4713591344,
				"element": "O" 
			},
			{
				"x": -1.5204745722,
				"y": 2.003807281,
				"z": 1.5126501694,
				"element": "O" 
			},
			{
				"x": -1.6547958825,
				"y": 1.0074416218,
				"z": -0.7806346061,
				"element": "H" 
			},
			{
				"x": -0.2449497345,
				"y": 0.5830207189,
				"z": -1.7841498263,
				"element": "H" 
			},
			{
				"x": -0.1713478789,
				"y": 1.9074656173,
				"z": -0.5944652981,
				"element": "H" 
			},
			{
				"x": 0.8591492497,
				"y": -1.3498699504,
				"z": -1.2123162161,
				"element": "H" 
			},
			{
				"x": 1.9936584338,
				"y": -3.7073553869,
				"z": 1.148778077,
				"element": "H" 
			},
			{
				"x": -0.0361525745,
				"y": -0.8725021655,
				"z": 3.5680126979,
				"element": "H" 
			}
		],
		 "valence_orbital": [ 
			{
				"type": "occ",
				"energy": -0.30928,
				"method": "rhf"
			},
			{
				"type": "occ",
				"energy": -0.30358,
				"method": "rhf"
			},
			{
				"type": "occ",
				"energy": -0.2932,
				"method": "rhf"
			},
			{
				"type": "occ",
				"energy": -0.28786,
				"method": "rhf"
			},
			{
				"type": "occ",
				"energy": -0.26509,
				"method": "rhf"
			},
			{
				"type": "unocc",
				"energy": -0.08769,
				"method": "rhf"
			},
			{
				"type": "unocc",
				"energy": -0.04537,
				"method": "rhf"
			},
			{
				"type": "unocc",
				"energy": 0.00027,
				"method": "rhf"
			},
			{
				"type": "unocc",
				"energy": 0.07155,
				"method": "rhf"
			},
			{
				"type": "unocc",
				"energy": 0.09821,
				"method": "rhf"
			}
		],
		"cosmo_sigma_profile": { 
			"-0.025": 0.0,
			"-0.024": 0.0,
			"-0.023": 0.0,
			"-0.022": 0.0,
			"-0.021": 0.0,
			"-0.02": 0.0,
			"-0.019": 0.0,
			"-0.018": 0.547911210922,
			"-0.017": 0.956257390839,
			"-0.016": 0.568250624477,
			"-0.015": 0.804452587326,
			"-0.014": 0.681585647031,
			"-0.013": 0.667235087061,
			"-0.012": 1.04862968835,
			"-0.011": 0.561237003456,
			"-0.01": 0.570355579894,
			"-0.009": 0.231382418246,
			"-0.008": 3.10178161736,
			"-0.007": 4.33342865842,
			"-0.006": 6.53327332058,
			"-0.005": 10.1577122447,
			"-0.004": 12.4234622353,
			"-0.003": 12.4981145769,
			"-0.002": 20.6326022782,
			"-0.001": 20.5081733939,
			"0.0": 12.675043273,
			"0.001": 7.21164493672,
			"0.002": 5.87424698192,
			"0.003": 4.82601882222,
			"0.004": 4.56732361371,
			"0.005": 5.36488434908,
			"0.006": 5.22920390437,
			"0.007": 8.20313880094,
			"0.008": 9.22846741807,
			"0.009": 7.41030086454,
			"0.01": 5.18098157132,
			"0.011": 1.22941626673,
			"0.012": 0.57156025495,
			"0.013": 0.276020879498,
			"0.014": 0.0,
			"0.015": 0.0,
			"0.016": 0.0,
			"0.017": 0.0,
			"0.018": 0.0,
			"0.019": 0.0,
			"0.02": 0.0,
			"0.021": 0.0,
			"0.022": 0.0,
			"0.023": 0.0,
			"0.024": 0.0,
			"0.025": 0.0
		}
	}
}
