{
	 "smiles": "NC(=O)C1=CN(CC(O)=O)C2=C1C=CC=C2", 
	 "Tm": 513.15, 
	 "num_atms": 26, 
	 "gaussian": { 
		 "optdone": 1, 
		 "sigma_profile": "yes", 
		 "theory": "DFT", 
		 "functional": "B3LYP", 
		 "basiset": "6-31G**", 
		 "properties": { 
			 "R2extent": 3896.3878, 
			 "electric_dipole_moment_norm": 6.03303509935, 
			 "electric_quadrupole_moment_norm": 24.2965462404, 
			 "total_energy": -760.393385679, 
			 "HOMO_LUMO_gap": 0.18695, 
			 "cosmo_polarized_energy": -30.61, 
			 "cosmo_cavitation_energy": 31.1, 
			 "cosmo_dispersion_energy": -22.1, 
			 "cosmo_repulsion_energy": 1.73, 
			 "cosmo_total_nonelectrostatic_energy": 10.73, 
			 "SMD_solvation_energy": 7.16 
		},
		"coords": [
			{
				"x": 1.377613408,
				"y": -2.8904575742,
				"z": -2.8895294659,
				"element": "N" 
			},
			{
				"x": 1.9857605491,
				"y": -1.9989831913,
				"z": -2.0296233164,
				"element": "C" 
			},
			{
				"x": 3.2075092707,
				"y": -1.9180745102,
				"z": -1.9439013932,
				"element": "O" 
			},
			{
				"x": 1.0798457379,
				"y": -1.1602516062,
				"z": -1.215572223,
				"element": "C" 
			},
			{
				"x": 1.5453250878,
				"y": -0.0522758431,
				"z": -0.5489589348,
				"element": "C" 
			},
			{
				"x": 0.5132872454,
				"y": 0.5949387408,
				"z": 0.0870699481,
				"element": "N" 
			},
			{
				"x": 0.6408168346,
				"y": 1.7742232225,
				"z": 0.8974577202,
				"element": "C" 
			},
			{
				"x": 0.704434729,
				"y": 1.4826094043,
				"z": 2.4082609711,
				"element": "C" 
			},
			{
				"x": 0.7850223502,
				"y": 2.5956966043,
				"z": 3.183628054,
				"element": "O" 
			},
			{
				"x": 0.6886026139,
				"y": 0.3857525817,
				"z": 2.8924035944,
				"element": "O" 
			},
			{
				"x": -0.6616747795,
				"y": -0.1180337381,
				"z": -0.1325120025,
				"element": "C" 
			},
			{
				"x": -0.3430791987,
				"y": -1.2334223381,
				"z": -0.9547403925,
				"element": "C" 
			},
			{
				"x": -1.3741885312,
				"y": -2.1262403762,
				"z": -1.2966984531,
				"element": "C" 
			},
			{
				"x": -2.6664171548,
				"y": -1.8756023119,
				"z": -0.8493243046,
				"element": "C" 
			},
			{
				"x": -2.9574438224,
				"y": -0.7540497253,
				"z": -0.0507666672,
				"element": "C" 
			},
			{
				"x": -1.9565333778,
				"y": 0.1351085384,
				"z": 0.3262115913,
				"element": "C" 
			},
			{
				"x": 2.0041843461,
				"y": -3.3398006899,
				"z": -3.5427152273,
				"element": "H" 
			},
			{
				"x": 0.4444471507,
				"y": -2.6976526955,
				"z": -3.2211079324,
				"element": "H" 
			},
			{
				"x": 2.5589420813,
				"y": 0.3192799958,
				"z": -0.5056811321,
				"element": "H" 
			},
			{
				"x": 1.5526168729,
				"y": 2.3074856061,
				"z": 0.6048194333,
				"element": "H" 
			},
			{
				"x": -0.2004486713,
				"y": 2.4521068112,
				"z": 0.7012836608,
				"element": "H" 
			},
			{
				"x": 0.7884890295,
				"y": 3.4001338151,
				"z": 2.644343342,
				"element": "H" 
			},
			{
				"x": -1.1651460216,
				"y": -3.0219910398,
				"z": -1.8729754883,
				"element": "H" 
			},
			{
				"x": -3.4644548776,
				"y": -2.5650416645,
				"z": -1.1081568501,
				"element": "H" 
			},
			{
				"x": -3.9745056319,
				"y": -0.5889556772,
				"z": 0.2913429936,
				"element": "H" 
			},
			{
				"x": -2.1794052401,
				"y": 0.9803976611,
				"z": 0.9701424746,
				"element": "H" 
			}
		],
		 "valence_orbital": [ 
			{
				"type": "occ",
				"energy": -0.28098,
				"method": "rhf"
			},
			{
				"type": "occ",
				"energy": -0.26341,
				"method": "rhf"
			},
			{
				"type": "occ",
				"energy": -0.24208,
				"method": "rhf"
			},
			{
				"type": "occ",
				"energy": -0.23246,
				"method": "rhf"
			},
			{
				"type": "occ",
				"energy": -0.2138,
				"method": "rhf"
			},
			{
				"type": "unocc",
				"energy": -0.02685,
				"method": "rhf"
			},
			{
				"type": "unocc",
				"energy": -0.00949,
				"method": "rhf"
			},
			{
				"type": "unocc",
				"energy": 0.00719,
				"method": "rhf"
			},
			{
				"type": "unocc",
				"energy": 0.01329,
				"method": "rhf"
			},
			{
				"type": "unocc",
				"energy": 0.03318,
				"method": "rhf"
			}
		],
		"cosmo_sigma_profile": { 
			"-0.025": 0.0,
			"-0.024": 0.0,
			"-0.023": 0.0,
			"-0.022": 0.0,
			"-0.021": 0.0884999524864,
			"-0.02": 0.987874868272,
			"-0.019": 1.34196354114,
			"-0.018": 1.77829445724,
			"-0.017": 0.761319494448,
			"-0.016": 1.09495986004,
			"-0.015": 1.00280091593,
			"-0.014": 1.19861907307,
			"-0.013": 3.34081940826,
			"-0.012": 4.05730860735,
			"-0.011": 5.76486537713,
			"-0.01": 9.1403203029,
			"-0.009": 8.06704438955,
			"-0.008": 8.11594869061,
			"-0.007": 6.91559984521,
			"-0.006": 8.39672930465,
			"-0.005": 10.8829730265,
			"-0.004": 10.8599568608,
			"-0.003": 10.3132375989,
			"-0.002": 9.06820976262,
			"-0.001": 8.45922915066,
			"0.0": 9.623103804,
			"0.001": 11.8492033611,
			"0.002": 11.3034725281,
			"0.003": 13.7284457263,
			"0.004": 15.6833490267,
			"0.005": 15.7446347668,
			"0.006": 12.1091017909,
			"0.007": 5.6898582042,
			"0.008": 5.39704461625,
			"0.009": 6.36731467227,
			"0.01": 6.98125645925,
			"0.011": 7.19771370685,
			"0.012": 3.9043828607,
			"0.013": 3.32490763675,
			"0.014": 5.76160941216,
			"0.015": 1.73175290603,
			"0.016": 0.0145608668613,
			"0.017": 0.0,
			"0.018": 0.0,
			"0.019": 0.0,
			"0.02": 0.0,
			"0.021": 0.0,
			"0.022": 0.0,
			"0.023": 0.0,
			"0.024": 0.0,
			"0.025": 0.0
		}
	}
}
