{
	 "smiles": "ClCC(=O)C1=CC2=C(NC(=O)CCC2)C=C1", 
	 "Tm": 428.15, 
	 "num_atms": 28, 
	 "gaussian": { 
		 "optdone": 1, 
		 "sigma_profile": "yes", 
		 "theory": "DFT", 
		 "functional": "B3LYP", 
		 "basiset": "6-31G**", 
		 "properties": { 
			 "R2extent": 5572.2836, 
			 "electric_dipole_moment_norm": 1.63951376633, 
			 "electric_quadrupole_moment_norm": 20.2790283231, 
			 "total_energy": -1129.92623504, 
			 "HOMO_LUMO_gap": 0.16302, 
			 "cosmo_polarized_energy": -15.9, 
			 "cosmo_cavitation_energy": 32.82, 
			 "cosmo_dispersion_energy": -23.88, 
			 "cosmo_repulsion_energy": 1.87, 
			 "cosmo_total_nonelectrostatic_energy": 10.81, 
			 "SMD_solvation_energy": 5.97 
		},
		"coords": [
			{
				"x": 0.1476624345,
				"y": -2.6445715526,
				"z": 3.8763635916,
				"element": "Cl" 
			},
			{
				"x": 0.1157170176,
				"y": -3.7055809464,
				"z": 2.4025212323,
				"element": "C" 
			},
			{
				"x": 0.8418684087,
				"y": -3.0631411675,
				"z": 1.215551154,
				"element": "C" 
			},
			{
				"x": 1.8865055609,
				"y": -3.5712277017,
				"z": 0.8374000369,
				"element": "O" 
			},
			{
				"x": 0.2497167051,
				"y": -1.881202959,
				"z": 0.534799084,
				"element": "C" 
			},
			{
				"x": 0.9697395193,
				"y": -1.3080505707,
				"z": -0.5270789579,
				"element": "C" 
			},
			{
				"x": 0.4948762341,
				"y": -0.2102635832,
				"z": -1.2370816899,
				"element": "C" 
			},
			{
				"x": -0.7753085861,
				"y": 0.3091923723,
				"z": -0.8899387428,
				"element": "C" 
			},
			{
				"x": -1.3080501235,
				"y": 1.4106577301,
				"z": -1.5840155371,
				"element": "N" 
			},
			{
				"x": -1.3311296224,
				"y": 1.6249794843,
				"z": -2.9603384822,
				"element": "C" 
			},
			{
				"x": -1.8541447851,
				"y": 2.6301594511,
				"z": -3.412050262,
				"element": "O" 
			},
			{
				"x": -0.7440214311,
				"y": 0.5145609139,
				"z": -3.8182871876,
				"element": "C" 
			},
			{
				"x": 0.7892666849,
				"y": 0.3627929313,
				"z": -3.7294612622,
				"element": "C" 
			},
			{
				"x": 1.3294874778,
				"y": 0.4833518737,
				"z": -2.2900743826,
				"element": "C" 
			},
			{
				"x": -1.4924535865,
				"y": -0.2382099665,
				"z": 0.1835558898,
				"element": "C" 
			},
			{
				"x": -0.9846700094,
				"y": -1.3186376477,
				"z": 0.8943442036,
				"element": "C" 
			},
			{
				"x": -0.9331772081,
				"y": -3.9141456094,
				"z": 2.1827480845,
				"element": "H" 
			},
			{
				"x": 0.6395536359,
				"y": -4.6248086804,
				"z": 2.6570774831,
				"element": "H" 
			},
			{
				"x": 1.9392908345,
				"y": -1.7329560226,
				"z": -0.7681596869,
				"element": "H" 
			},
			{
				"x": -1.8834637834,
				"y": 2.0673762828,
				"z": -1.0703228911,
				"element": "H" 
			},
			{
				"x": -1.0502700416,
				"y": 0.7215178204,
				"z": -4.845250135,
				"element": "H" 
			},
			{
				"x": -1.2139918109,
				"y": -0.4275867894,
				"z": -3.5103102385,
				"element": "H" 
			},
			{
				"x": 1.27411446,
				"y": 1.123612369,
				"z": -4.3506186511,
				"element": "H" 
			},
			{
				"x": 1.0592690411,
				"y": -0.6111098772,
				"z": -4.152990855,
				"element": "H" 
			},
			{
				"x": 1.377362823,
				"y": 1.548764925,
				"z": -2.027671271,
				"element": "H" 
			},
			{
				"x": 2.35534737,
				"y": 0.1051128181,
				"z": -2.2493115008,
				"element": "H" 
			},
			{
				"x": -2.4586467083,
				"y": 0.1830116896,
				"z": 0.4467218345,
				"element": "H" 
			},
			{
				"x": -1.5555505109,
				"y": -1.7153975872,
				"z": 1.7263791393,
				"element": "H" 
			}
		],
		 "valence_orbital": [ 
			{
				"type": "occ",
				"energy": -0.30572,
				"method": "rhf"
			},
			{
				"type": "occ",
				"energy": -0.26838,
				"method": "rhf"
			},
			{
				"type": "occ",
				"energy": -0.26383,
				"method": "rhf"
			},
			{
				"type": "occ",
				"energy": -0.26057,
				"method": "rhf"
			},
			{
				"type": "occ",
				"energy": -0.23897,
				"method": "rhf"
			},
			{
				"type": "unocc",
				"energy": -0.07595,
				"method": "rhf"
			},
			{
				"type": "unocc",
				"energy": -0.02281,
				"method": "rhf"
			},
			{
				"type": "unocc",
				"energy": -0.00936,
				"method": "rhf"
			},
			{
				"type": "unocc",
				"energy": 0.01632,
				"method": "rhf"
			},
			{
				"type": "unocc",
				"energy": 0.04708,
				"method": "rhf"
			}
		],
		"cosmo_sigma_profile": { 
			"-0.025": 0.0,
			"-0.024": 0.0,
			"-0.023": 0.0,
			"-0.022": 0.0,
			"-0.021": 0.0,
			"-0.02": 0.0,
			"-0.019": 0.0,
			"-0.018": 0.0,
			"-0.017": 0.0,
			"-0.016": 0.0,
			"-0.015": 0.226649877288,
			"-0.014": 1.15567709156,
			"-0.013": 1.37284407937,
			"-0.012": 1.28526241141,
			"-0.011": 0.908211254041,
			"-0.01": 1.46125410382,
			"-0.009": 4.22508459582,
			"-0.008": 6.37919301353,
			"-0.007": 7.40543289867,
			"-0.006": 8.81947926125,
			"-0.005": 15.9247988212,
			"-0.004": 21.9471640348,
			"-0.003": 23.26447645,
			"-0.002": 22.2399097203,
			"-0.001": 21.1018201013,
			"0.0": 16.3653359878,
			"0.001": 15.892870095,
			"0.002": 15.3794928592,
			"0.003": 17.1769191495,
			"0.004": 12.045626884,
			"0.005": 10.6094394511,
			"0.006": 5.60377411764,
			"0.007": 2.39809252507,
			"0.008": 2.58962181057,
			"0.009": 3.69742350747,
			"0.01": 4.31409963684,
			"0.011": 5.81915987083,
			"0.012": 4.90639026705,
			"0.013": 5.37230384476,
			"0.014": 2.16492429178,
			"0.015": 0.0712302920936,
			"0.016": 0.0,
			"0.017": 0.0,
			"0.018": 0.0,
			"0.019": 0.0,
			"0.02": 0.0,
			"0.021": 0.0,
			"0.022": 0.0,
			"0.023": 0.0,
			"0.024": 0.0,
			"0.025": 0.0
		}
	}
}
