{
	 "smiles": "CC1=C(OC2=C1C=C1CCCC1=C2)C(O)=O", 
	 "Tm": 539.15, 
	 "num_atms": 28, 
	 "gaussian": { 
		 "optdone": 1, 
		 "sigma_profile": "yes", 
		 "theory": "DFT", 
		 "functional": "B3LYP", 
		 "basiset": "6-31G**", 
		 "properties": { 
			 "R2extent": 4549.6643, 
			 "electric_dipole_moment_norm": 5.69944072432, 
			 "electric_quadrupole_moment_norm": 18.6173345095, 
			 "total_energy": -728.309952118, 
			 "HOMO_LUMO_gap": 0.1701, 
			 "cosmo_polarized_energy": -11.52, 
			 "cosmo_cavitation_energy": 31.31, 
			 "cosmo_dispersion_energy": -23.28, 
			 "cosmo_repulsion_energy": 1.81, 
			 "cosmo_total_nonelectrostatic_energy": 9.83, 
			 "SMD_solvation_energy": 5.98 
		},
		"coords": [
			{
				"x": -2.8369420185,
				"y": 0.5964074427,
				"z": 2.5370596083,
				"element": "C" 
			},
			{
				"x": -1.8635391103,
				"y": 0.8420154474,
				"z": 1.4253009514,
				"element": "C" 
			},
			{
				"x": -1.6275041338,
				"y": 2.0250693462,
				"z": 0.7802680108,
				"element": "C" 
			},
			{
				"x": -0.6553052667,
				"y": 1.8986582269,
				"z": -0.2050531211,
				"element": "O" 
			},
			{
				"x": -0.2630798519,
				"y": 0.5890838744,
				"z": -0.1850301983,
				"element": "C" 
			},
			{
				"x": -0.977524042,
				"y": -0.1149768395,
				"z": 0.8052843557,
				"element": "C" 
			},
			{
				"x": -0.7169437723,
				"y": -1.4851930248,
				"z": 0.995680677,
				"element": "C" 
			},
			{
				"x": 0.2445026069,
				"y": -2.0773150566,
				"z": 0.1904910242,
				"element": "C" 
			},
			{
				"x": 0.7037397178,
				"y": -3.5220838871,
				"z": 0.1763488782,
				"element": "C" 
			},
			{
				"x": 2.0503124122,
				"y": -3.4593651612,
				"z": -0.5857751276,
				"element": "C" 
			},
			{
				"x": 1.9166271446,
				"y": -2.2388157323,
				"z": -1.5295843802,
				"element": "C" 
			},
			{
				"x": 0.9457097683,
				"y": -1.3377661039,
				"z": -0.7957883832,
				"element": "C" 
			},
			{
				"x": 0.7045779658,
				"y": 0.0155588739,
				"z": -1.0057619066,
				"element": "C" 
			},
			{
				"x": -2.2224517996,
				"y": 3.3540938048,
				"z": 0.963562414,
				"element": "C" 
			},
			{
				"x": -1.752253883,
				"y": 4.3239746377,
				"z": 0.1413859787,
				"element": "O" 
			},
			{
				"x": -3.0781643773,
				"y": 3.5830478246,
				"z": 1.7916635744,
				"element": "O" 
			},
			{
				"x": -2.6182890339,
				"y": 1.2348096098,
				"z": 3.3978483593,
				"element": "H" 
			},
			{
				"x": -3.8572115047,
				"y": 0.8379572866,
				"z": 2.2254102882,
				"element": "H" 
			},
			{
				"x": -2.8073142191,
				"y": -0.4474699517,
				"z": 2.8588351971,
				"element": "H" 
			},
			{
				"x": -1.2481132198,
				"y": -2.0549920838,
				"z": 1.7531805752,
				"element": "H" 
			},
			{
				"x": -0.0215214512,
				"y": -4.1446268232,
				"z": -0.3667917296,
				"element": "H" 
			},
			{
				"x": 0.8018211002,
				"y": -3.9526482194,
				"z": 1.1782806652,
				"element": "H" 
			},
			{
				"x": 2.2832802537,
				"y": -4.3856229741,
				"z": -1.1180898072,
				"element": "H" 
			},
			{
				"x": 2.8614905027,
				"y": -3.2763281823,
				"z": 0.1277216234,
				"element": "H" 
			},
			{
				"x": 2.8758708435,
				"y": -1.7556251037,
				"z": -1.7428058319,
				"element": "H" 
			},
			{
				"x": 1.4915202635,
				"y": -2.5396067182,
				"z": -2.4980164308,
				"element": "H" 
			},
			{
				"x": 1.234449616,
				"y": 0.5983298985,
				"z": -1.752233693,
				"element": "H" 
			},
			{
				"x": -1.0776445109,
				"y": 3.9471295882,
				"z": -0.4457915716,
				"element": "H" 
			}
		],
		 "valence_orbital": [ 
			{
				"type": "occ",
				"energy": -0.31116,
				"method": "rhf"
			},
			{
				"type": "occ",
				"energy": -0.29056,
				"method": "rhf"
			},
			{
				"type": "occ",
				"energy": -0.27143,
				"method": "rhf"
			},
			{
				"type": "occ",
				"energy": -0.24083,
				"method": "rhf"
			},
			{
				"type": "occ",
				"energy": -0.22666,
				"method": "rhf"
			},
			{
				"type": "unocc",
				"energy": -0.05656,
				"method": "rhf"
			},
			{
				"type": "unocc",
				"energy": -0.00328,
				"method": "rhf"
			},
			{
				"type": "unocc",
				"energy": 0.0195,
				"method": "rhf"
			},
			{
				"type": "unocc",
				"energy": 0.08683,
				"method": "rhf"
			},
			{
				"type": "unocc",
				"energy": 0.09068,
				"method": "rhf"
			}
		],
		"cosmo_sigma_profile": { 
			"-0.025": 0.0,
			"-0.024": 0.0,
			"-0.023": 0.0,
			"-0.022": 0.0,
			"-0.021": 0.0,
			"-0.02": 0.0,
			"-0.019": 0.0,
			"-0.018": 0.0,
			"-0.017": 0.0409625460058,
			"-0.016": 0.449313233452,
			"-0.015": 0.499137237161,
			"-0.014": 0.689502792642,
			"-0.013": 0.758542398569,
			"-0.012": 0.789535587383,
			"-0.011": 0.69155138921,
			"-0.01": 0.858877930877,
			"-0.009": 0.673282908134,
			"-0.008": 1.3772452929,
			"-0.007": 2.57687875286,
			"-0.006": 7.06431208606,
			"-0.005": 8.85061462062,
			"-0.004": 16.7005012735,
			"-0.003": 25.439343057,
			"-0.002": 29.4266518901,
			"-0.001": 34.038198596,
			"0.0": 28.5435014048,
			"0.001": 20.3600374692,
			"0.002": 12.7966501727,
			"0.003": 13.281144435,
			"0.004": 11.483294204,
			"0.005": 3.88652448235,
			"0.006": 2.42201285474,
			"0.007": 2.09173383394,
			"0.008": 3.60108099954,
			"0.009": 3.40309140875,
			"0.01": 4.69648586263,
			"0.011": 4.10773621868,
			"0.012": 4.70539629241,
			"0.013": 2.01746879547,
			"0.014": 0.201365966413,
			"0.015": 0.0,
			"0.016": 0.0,
			"0.017": 0.0,
			"0.018": 0.0,
			"0.019": 0.0,
			"0.02": 0.0,
			"0.021": 0.0,
			"0.022": 0.0,
			"0.023": 0.0,
			"0.024": 0.0,
			"0.025": 0.0
		}
	}
}
