{
	 "smiles": "CC(O)C(C)C(N)C(O)=O", 
	 "Tm": 473.15, 
	 "num_atms": 23, 
	 "gaussian": { 
		 "optdone": 1, 
		 "sigma_profile": "yes", 
		 "theory": "DFT", 
		 "functional": "B3LYP", 
		 "basiset": "6-31G**", 
		 "properties": { 
			 "R2extent": 1764.372, 
			 "electric_dipole_moment_norm": 4.32130924952, 
			 "electric_quadrupole_moment_norm": 12.6306884868, 
			 "total_energy": -516.910499546, 
			 "HOMO_LUMO_gap": 0.25926, 
			 "cosmo_polarized_energy": -15.45, 
			 "cosmo_cavitation_energy": 24.36, 
			 "cosmo_dispersion_energy": -17.79, 
			 "cosmo_repulsion_energy": 1.45, 
			 "cosmo_total_nonelectrostatic_energy": 8.01, 
			 "SMD_solvation_energy": 4.69 
		},
		"coords": [
			{
				"x": -1.4050592792,
				"y": -1.4930523458,
				"z": -1.8726404291,
				"element": "C" 
			},
			{
				"x": -1.1329588819,
				"y": -0.5319544293,
				"z": -0.7197855015,
				"element": "C" 
			},
			{
				"x": -2.3631787085,
				"y": 0.1097072366,
				"z": -0.2921366495,
				"element": "O" 
			},
			{
				"x": -0.1310184685,
				"y": 0.5923399004,
				"z": -1.0476092217,
				"element": "C" 
			},
			{
				"x": -0.4548687048,
				"y": 1.3263022163,
				"z": -2.3572830467,
				"element": "C" 
			},
			{
				"x": 0.0149150591,
				"y": 1.6417060711,
				"z": 0.1031038784,
				"element": "C" 
			},
			{
				"x": 1.1729149668,
				"y": 2.4897862758,
				"z": -0.1708388961,
				"element": "N" 
			},
			{
				"x": 0.1069777014,
				"y": 1.0040691769,
				"z": 1.5092513546,
				"element": "C" 
			},
			{
				"x": -1.044813918,
				"y": 0.5479988761,
				"z": 2.0383332044,
				"element": "O" 
			},
			{
				"x": 1.1493247151,
				"y": 0.9329521352,
				"z": 2.1220662276,
				"element": "O" 
			},
			{
				"x": -2.0570045494,
				"y": -2.3112744557,
				"z": -1.5436262868,
				"element": "H" 
			},
			{
				"x": -0.4725570659,
				"y": -1.9427753849,
				"z": -2.2281330564,
				"element": "H" 
			},
			{
				"x": -1.8876595944,
				"y": -0.9851957254,
				"z": -2.7111045553,
				"element": "H" 
			},
			{
				"x": -0.7382493856,
				"y": -1.1128492309,
				"z": 0.1257992346,
				"element": "H" 
			},
			{
				"x": -3.0485927561,
				"y": -0.5685096666,
				"z": -0.2208278409,
				"element": "H" 
			},
			{
				"x": 0.8491348469,
				"y": 0.1051668241,
				"z": -1.1480154311,
				"element": "H" 
			},
			{
				"x": -0.3235469107,
				"y": 0.6790479431,
				"z": -3.2292143584,
				"element": "H" 
			},
			{
				"x": 0.2150549473,
				"y": 2.1813934637,
				"z": -2.4626020456,
				"element": "H" 
			},
			{
				"x": -1.4887976838,
				"y": 1.6876592792,
				"z": -2.351405433,
				"element": "H" 
			},
			{
				"x": -0.8852601792,
				"y": 2.2681618816,
				"z": 0.0848947978,
				"element": "H" 
			},
			{
				"x": 1.9906360856,
				"y": 2.0153254314,
				"z": 0.2121742516,
				"element": "H" 
			},
			{
				"x": 1.0938355177,
				"y": 3.3466662943,
				"z": 0.3717828448,
				"element": "H" 
			},
			{
				"x": -1.745527754,
				"y": 0.5682282326,
				"z": 1.3488169581,
				"element": "H" 
			}
		],
		 "valence_orbital": [ 
			{
				"type": "occ",
				"energy": -0.32979,
				"method": "rhf"
			},
			{
				"type": "occ",
				"energy": -0.30373,
				"method": "rhf"
			},
			{
				"type": "occ",
				"energy": -0.30164,
				"method": "rhf"
			},
			{
				"type": "occ",
				"energy": -0.26306,
				"method": "rhf"
			},
			{
				"type": "occ",
				"energy": -0.24133,
				"method": "rhf"
			},
			{
				"type": "unocc",
				"energy": 0.01793,
				"method": "rhf"
			},
			{
				"type": "unocc",
				"energy": 0.04471,
				"method": "rhf"
			},
			{
				"type": "unocc",
				"energy": 0.09233,
				"method": "rhf"
			},
			{
				"type": "unocc",
				"energy": 0.09856,
				"method": "rhf"
			},
			{
				"type": "unocc",
				"energy": 0.11528,
				"method": "rhf"
			}
		],
		"cosmo_sigma_profile": { 
			"-0.025": 0.0,
			"-0.024": 0.0,
			"-0.023": 0.0,
			"-0.022": 0.0,
			"-0.021": 0.0,
			"-0.02": 0.0,
			"-0.019": 0.0,
			"-0.018": 0.0,
			"-0.017": 0.216047306215,
			"-0.016": 0.935249695977,
			"-0.015": 1.24789444682,
			"-0.014": 0.974889381734,
			"-0.013": 0.597927815828,
			"-0.012": 1.11600974359,
			"-0.011": 1.63376680596,
			"-0.01": 2.62990720386,
			"-0.009": 2.81325092321,
			"-0.008": 3.98658078823,
			"-0.007": 6.73840719976,
			"-0.006": 7.08943411133,
			"-0.005": 9.67526526348,
			"-0.004": 16.584686045,
			"-0.003": 14.3576488085,
			"-0.002": 17.6609261341,
			"-0.001": 14.0565943337,
			"0.0": 13.8017933688,
			"0.001": 11.5618436566,
			"0.002": 8.94899610851,
			"0.003": 4.08525101151,
			"0.004": 3.84092624382,
			"0.005": 4.59411820066,
			"0.006": 3.84322784393,
			"0.007": 3.10369930428,
			"0.008": 4.23957599169,
			"0.009": 4.01928670933,
			"0.01": 5.20244737151,
			"0.011": 6.75779811649,
			"0.012": 6.5993439199,
			"0.013": 3.21177358996,
			"0.014": 1.14247018808,
			"0.015": 0.702462854364,
			"0.016": 0.160931593306,
			"0.017": 0.0,
			"0.018": 0.0,
			"0.019": 0.0,
			"0.02": 0.0,
			"0.021": 0.0,
			"0.022": 0.0,
			"0.023": 0.0,
			"0.024": 0.0,
			"0.025": 0.0
		}
	}
}
