{
	 "smiles": "CCOC1=CC=C(C=C1)C1(CC1(Cl)Cl)C(=O)OC(C#N)C1=CC=CC(OC2=CC=CC=C2)=C1", 
	 "Tm": 298.15, 
	 "num_atms": 54, 
	 "gaussian": { 
		 "optdone": 1, 
		 "sigma_profile": "yes", 
		 "theory": "DFT", 
		 "functional": "B3LYP", 
		 "basiset": "6-31G**", 
		 "properties": { 
			 "R2extent": 18244.6443, 
			 "electric_dipole_moment_norm": 6.86441031772, 
			 "electric_quadrupole_moment_norm": 24.3910503931, 
			 "total_energy": -2279.3815928, 
			 "HOMO_LUMO_gap": 0.18723, 
			 "cosmo_polarized_energy": -18.8, 
			 "cosmo_cavitation_energy": 63.47, 
			 "cosmo_dispersion_energy": -37.49, 
			 "cosmo_repulsion_energy": 2.8, 
			 "cosmo_total_nonelectrostatic_energy": 28.78, 
			 "SMD_solvation_energy": 11.65 
		},
		"coords": [
			{
				"x": -4.6843309862,
				"y": -0.4449375396,
				"z": 2.0587933194,
				"element": "C" 
			},
			{
				"x": -3.5349723803,
				"y": -1.18789333,
				"z": 1.4021966056,
				"element": "C" 
			},
			{
				"x": -2.3453006271,
				"y": -0.8827343168,
				"z": 2.1371131022,
				"element": "O" 
			},
			{
				"x": -1.1692610017,
				"y": -1.4399012783,
				"z": 1.7404493535,
				"element": "C" 
			},
			{
				"x": -0.0410989852,
				"y": -1.09445627,
				"z": 2.5011497954,
				"element": "C" 
			},
			{
				"x": 1.2062620587,
				"y": -1.6091521234,
				"z": 2.1727767063,
				"element": "C" 
			},
			{
				"x": 1.3647849117,
				"y": -2.4809338679,
				"z": 1.084654396,
				"element": "C" 
			},
			{
				"x": 0.2359887156,
				"y": -2.8158524599,
				"z": 0.3301686639,
				"element": "C" 
			},
			{
				"x": -1.0241777339,
				"y": -2.3094692955,
				"z": 0.6496571633,
				"element": "C" 
			},
			{
				"x": 2.7384553797,
				"y": -2.9659201662,
				"z": 0.7037666354,
				"element": "C" 
			},
			{
				"x": 3.7163974939,
				"y": -3.4498042559,
				"z": 1.7606153981,
				"element": "C" 
			},
			{
				"x": 3.1392293619,
				"y": -4.4323834461,
				"z": 0.7942681384,
				"element": "C" 
			},
			{
				"x": 1.957656789,
				"y": -5.6193448865,
				"z": 1.3850066131,
				"element": "Cl" 
			},
			{
				"x": 4.2019897536,
				"y": -5.1156880957,
				"z": -0.4595042415,
				"element": "Cl" 
			},
			{
				"x": 3.3567800894,
				"y": -2.1500848484,
				"z": -0.4197871312,
				"element": "C" 
			},
			{
				"x": 4.3136667843,
				"y": -1.4233697806,
				"z": -0.3025863539,
				"element": "O" 
			},
			{
				"x": 2.6568702899,
				"y": -2.3170410433,
				"z": -1.5684258317,
				"element": "O" 
			},
			{
				"x": 2.9638252573,
				"y": -1.4423132865,
				"z": -2.6902033707,
				"element": "C" 
			},
			{
				"x": 4.3738047717,
				"y": -1.5358361895,
				"z": -3.1075425034,
				"element": "C" 
			},
			{
				"x": 5.4513115645,
				"y": -1.6151020606,
				"z": -3.5295159268,
				"element": "N" 
			},
			{
				"x": 2.4740912615,
				"y": -0.0254935689,
				"z": -2.4452050127,
				"element": "C" 
			},
			{
				"x": 3.3234070875,
				"y": 1.0041858197,
				"z": -2.0296941028,
				"element": "C" 
			},
			{
				"x": 2.7932138895,
				"y": 2.2688823771,
				"z": -1.7660955933,
				"element": "C" 
			},
			{
				"x": 1.4287172033,
				"y": 2.5157619747,
				"z": -1.9068855461,
				"element": "C" 
			},
			{
				"x": 0.5867394668,
				"y": 1.479249259,
				"z": -2.322378165,
				"element": "C" 
			},
			{
				"x": -0.7582947112,
				"y": 1.6855748523,
				"z": -2.5585697086,
				"element": "O" 
			},
			{
				"x": -1.5492550741,
				"y": 2.236125015,
				"z": -1.5645126922,
				"element": "C" 
			},
			{
				"x": -2.6053127176,
				"y": 3.0489885866,
				"z": -1.9827333174,
				"element": "C" 
			},
			{
				"x": -3.479504994,
				"y": 3.578269582,
				"z": -1.0339936775,
				"element": "C" 
			},
			{
				"x": -3.3011073247,
				"y": 3.3037102841,
				"z": 0.324457087,
				"element": "C" 
			},
			{
				"x": -2.243293473,
				"y": 2.4859006876,
				"z": 0.7286037115,
				"element": "C" 
			},
			{
				"x": -1.3629948018,
				"y": 1.9442966923,
				"z": -0.2103095946,
				"element": "C" 
			},
			{
				"x": 1.1030466453,
				"y": 0.2149936754,
				"z": -2.5949767282,
				"element": "C" 
			},
			{
				"x": -4.5196435326,
				"y": 0.6346583275,
				"z": 2.0120181309,
				"element": "H" 
			},
			{
				"x": -5.6206070434,
				"y": -0.6741557596,
				"z": 1.5408172618,
				"element": "H" 
			},
			{
				"x": -4.7863436731,
				"y": -0.7392291534,
				"z": 3.1070961815,
				"element": "H" 
			},
			{
				"x": -3.7095366439,
				"y": -2.2726199903,
				"z": 1.4167598679,
				"element": "H" 
			},
			{
				"x": -3.413616636,
				"y": -0.8744059767,
				"z": 0.356828789,
				"element": "H" 
			},
			{
				"x": -0.1689641563,
				"y": -0.423034484,
				"z": 3.3438686911,
				"element": "H" 
			},
			{
				"x": 2.0717020808,
				"y": -1.3266490474,
				"z": 2.7652679475,
				"element": "H" 
			},
			{
				"x": 0.3392975488,
				"y": -3.4813015879,
				"z": -0.5204031963,
				"element": "H" 
			},
			{
				"x": -1.8777904086,
				"y": -2.5955226993,
				"z": 0.0476058482,
				"element": "H" 
			},
			{
				"x": 3.3643479676,
				"y": -3.503012485,
				"z": 2.785416721,
				"element": "H" 
			},
			{
				"x": 4.7569063827,
				"y": -3.169578493,
				"z": 1.6320510662,
				"element": "H" 
			},
			{
				"x": 2.372016466,
				"y": -1.8893241295,
				"z": -3.4942352829,
				"element": "H" 
			},
			{
				"x": 4.3831817857,
				"y": 0.8146006147,
				"z": -1.9048659315,
				"element": "H" 
			},
			{
				"x": 3.4520912148,
				"y": 3.0714163792,
				"z": -1.4490238758,
				"element": "H" 
			},
			{
				"x": 1.013718353,
				"y": 3.4980981748,
				"z": -1.7072332564,
				"element": "H" 
			},
			{
				"x": -2.7245477723,
				"y": 3.2514056245,
				"z": -3.0420197495,
				"element": "H" 
			},
			{
				"x": -4.2990738685,
				"y": 4.2126432074,
				"z": -1.3591405859,
				"element": "H" 
			},
			{
				"x": -3.9794758194,
				"y": 3.7240485019,
				"z": 1.0606598238,
				"element": "H" 
			},
			{
				"x": -2.1031111096,
				"y": 2.2502995654,
				"z": 1.7791744659,
				"element": "H" 
			},
			{
				"x": -0.549330875,
				"y": 1.2995587124,
				"z": 0.1034889782,
				"element": "H" 
			},
			{
				"x": 0.4241457751,
				"y": -0.5694219979,
				"z": -2.9145890865,
				"element": "H" 
			}
		],
		 "valence_orbital": [ 
			{
				"type": "occ",
				"energy": -0.26272,
				"method": "rhf"
			},
			{
				"type": "occ",
				"energy": -0.26186,
				"method": "rhf"
			},
			{
				"type": "occ",
				"energy": -0.25836,
				"method": "rhf"
			},
			{
				"type": "occ",
				"energy": -0.23084,
				"method": "rhf"
			},
			{
				"type": "occ",
				"energy": -0.22795,
				"method": "rhf"
			},
			{
				"type": "unocc",
				"energy": -0.04072,
				"method": "rhf"
			},
			{
				"type": "unocc",
				"energy": -0.03309,
				"method": "rhf"
			},
			{
				"type": "unocc",
				"energy": -0.01816,
				"method": "rhf"
			},
			{
				"type": "unocc",
				"energy": -0.01388,
				"method": "rhf"
			},
			{
				"type": "unocc",
				"energy": -0.01078,
				"method": "rhf"
			}
		],
		"cosmo_sigma_profile": { 
			"-0.025": 0.0,
			"-0.024": 0.0,
			"-0.023": 0.0,
			"-0.022": 0.0,
			"-0.021": 0.0,
			"-0.02": 0.0,
			"-0.019": 0.0,
			"-0.018": 0.0,
			"-0.017": 0.0,
			"-0.016": 0.0,
			"-0.015": 0.0,
			"-0.014": 0.0,
			"-0.013": 0.0,
			"-0.012": 0.654515446855,
			"-0.011": 3.84928662463,
			"-0.01": 2.19933263186,
			"-0.009": 1.900678698,
			"-0.008": 4.32449329448,
			"-0.007": 10.3779676906,
			"-0.006": 24.0100592548,
			"-0.005": 29.2471095557,
			"-0.004": 37.8820940036,
			"-0.003": 37.6306907307,
			"-0.002": 38.1085968118,
			"-0.001": 41.2892611967,
			"0.0": 42.1288233864,
			"0.001": 45.1996292182,
			"0.002": 46.3258202853,
			"0.003": 47.7475336002,
			"0.004": 37.7084785524,
			"0.005": 20.3415175662,
			"0.006": 8.42606624885,
			"0.007": 7.80093010493,
			"0.008": 7.76498795281,
			"0.009": 6.90154648413,
			"0.01": 5.39276437895,
			"0.011": 2.82593037585,
			"0.012": 1.70633251599,
			"0.013": 0.0790455101009,
			"0.014": 0.0,
			"0.015": 0.0,
			"0.016": 0.0,
			"0.017": 0.0,
			"0.018": 0.0,
			"0.019": 0.0,
			"0.02": 0.0,
			"0.021": 0.0,
			"0.022": 0.0,
			"0.023": 0.0,
			"0.024": 0.0,
			"0.025": 0.0
		}
	}
}
