{
	 "smiles": "CC1=CC=C(C=C1)C1(CCCC1)C(O)=O", 
	 "Tm": 455.15, 
	 "num_atms": 31, 
	 "gaussian": { 
		 "optdone": 1, 
		 "sigma_profile": "yes", 
		 "theory": "DFT", 
		 "functional": "B3LYP", 
		 "basiset": "6-31G**", 
		 "properties": { 
			 "R2extent": 3580.0863, 
			 "electric_dipole_moment_norm": 1.50242864057, 
			 "electric_quadrupole_moment_norm": 6.46942305387, 
			 "total_energy": -655.503288582, 
			 "HOMO_LUMO_gap": 0.22287, 
			 "cosmo_polarized_energy": -9.14, 
			 "cosmo_cavitation_energy": 32.42, 
			 "cosmo_dispersion_energy": -23.08, 
			 "cosmo_repulsion_energy": 1.82, 
			 "cosmo_total_nonelectrostatic_energy": 11.15, 
			 "SMD_solvation_energy": 5.99 
		},
		"coords": [
			{
				"x": 3.399825016,
				"y": -1.2963861442,
				"z": 3.3733498264,
				"element": "C" 
			},
			{
				"x": 2.3043773276,
				"y": -0.9603646382,
				"z": 2.3891577181,
				"element": "C" 
			},
			{
				"x": 2.5295552083,
				"y": -0.0864161986,
				"z": 1.3205565002,
				"element": "C" 
			},
			{
				"x": 1.5249326472,
				"y": 0.2036400639,
				"z": 0.3951293721,
				"element": "C" 
			},
			{
				"x": 0.2577237091,
				"y": -0.3795855559,
				"z": 0.5035927419,
				"element": "C" 
			},
			{
				"x": 0.0240220043,
				"y": -1.2436887542,
				"z": 1.5854965333,
				"element": "C" 
			},
			{
				"x": 1.0281549943,
				"y": -1.5286779991,
				"z": 2.5070180171,
				"element": "C" 
			},
			{
				"x": -0.868745959,
				"y": -0.0946312546,
				"z": -0.4951211979,
				"element": "C" 
			},
			{
				"x": -0.4546016942,
				"y": 0.672386275,
				"z": -1.7738305102,
				"element": "C" 
			},
			{
				"x": -1.6404990758,
				"y": 0.4710308415,
				"z": -2.7365691179,
				"element": "C" 
			},
			{
				"x": -2.2325287311,
				"y": -0.9238629842,
				"z": -2.3789548082,
				"element": "C" 
			},
			{
				"x": -1.4989115131,
				"y": -1.3801722667,
				"z": -1.0927757769,
				"element": "C" 
			},
			{
				"x": -1.9485070944,
				"y": 0.6797326279,
				"z": 0.2767224874,
				"element": "C" 
			},
			{
				"x": -1.6408907321,
				"y": 1.9908321078,
				"z": 0.4264528308,
				"element": "O" 
			},
			{
				"x": -2.9591163954,
				"y": 0.202039373,
				"z": 0.7482733632,
				"element": "O" 
			},
			{
				"x": 3.8727186892,
				"y": -2.2561306623,
				"z": 3.1295468924,
				"element": "H" 
			},
			{
				"x": 4.1860430688,
				"y": -0.535789852,
				"z": 3.3724135496,
				"element": "H" 
			},
			{
				"x": 3.0105787481,
				"y": -1.3796460408,
				"z": 4.3932233946,
				"element": "H" 
			},
			{
				"x": 3.5050554883,
				"y": 0.3811982154,
				"z": 1.2091733252,
				"element": "H" 
			},
			{
				"x": 1.739109885,
				"y": 0.8960656991,
				"z": -0.4119195488,
				"element": "H" 
			},
			{
				"x": -0.9588042699,
				"y": -1.6876750443,
				"z": 1.7135864617,
				"element": "H" 
			},
			{
				"x": 0.8163567305,
				"y": -2.2019944424,
				"z": 3.3344709927,
				"element": "H" 
			},
			{
				"x": 0.4446201221,
				"y": 0.1941595155,
				"z": -2.1791809373,
				"element": "H" 
			},
			{
				"x": -0.2226896122,
				"y": 1.7236405216,
				"z": -1.59072582,
				"element": "H" 
			},
			{
				"x": -1.3320105026,
				"y": 0.5447660031,
				"z": -3.7835379175,
				"element": "H" 
			},
			{
				"x": -2.3886260697,
				"y": 1.2552317615,
				"z": -2.5743860802,
				"element": "H" 
			},
			{
				"x": -3.310026087,
				"y": -0.8530355182,
				"z": -2.205214551,
				"element": "H" 
			},
			{
				"x": -2.0887034833,
				"y": -1.6462570092,
				"z": -3.1879995113,
				"element": "H" 
			},
			{
				"x": -0.6853763126,
				"y": -2.0722608398,
				"z": -1.3332355649,
				"element": "H" 
			},
			{
				"x": -2.1651000352,
				"y": -1.8748594772,
				"z": -0.3843233069,
				"element": "H" 
			},
			{
				"x": -2.3553360712,
				"y": 2.3712116763,
				"z": 0.9646106423,
				"element": "H" 
			}
		],
		 "valence_orbital": [ 
			{
				"type": "occ",
				"energy": -0.31609,
				"method": "rhf"
			},
			{
				"type": "occ",
				"energy": -0.31268,
				"method": "rhf"
			},
			{
				"type": "occ",
				"energy": -0.27064,
				"method": "rhf"
			},
			{
				"type": "occ",
				"energy": -0.24614,
				"method": "rhf"
			},
			{
				"type": "occ",
				"energy": -0.23167,
				"method": "rhf"
			},
			{
				"type": "unocc",
				"energy": -0.0088,
				"method": "rhf"
			},
			{
				"type": "unocc",
				"energy": 0.00077,
				"method": "rhf"
			},
			{
				"type": "unocc",
				"energy": 0.02481,
				"method": "rhf"
			},
			{
				"type": "unocc",
				"energy": 0.07404,
				"method": "rhf"
			},
			{
				"type": "unocc",
				"energy": 0.0976,
				"method": "rhf"
			}
		],
		"cosmo_sigma_profile": { 
			"-0.025": 0.0,
			"-0.024": 0.0,
			"-0.023": 0.0,
			"-0.022": 0.0,
			"-0.021": 0.0,
			"-0.02": 0.0,
			"-0.019": 0.0,
			"-0.018": 0.425404392963,
			"-0.017": 1.14159916304,
			"-0.016": 0.821965766258,
			"-0.015": 0.833750994856,
			"-0.014": 0.679849485297,
			"-0.013": 0.726498025174,
			"-0.012": 0.430744381393,
			"-0.011": 0.469119068124,
			"-0.01": 1.52034508021,
			"-0.009": 0.504127513999,
			"-0.008": 0.328726456235,
			"-0.007": 0.403363095401,
			"-0.006": 1.43301842273,
			"-0.005": 7.71140025814,
			"-0.004": 17.0752105527,
			"-0.003": 29.9464670558,
			"-0.002": 31.752131445,
			"-0.001": 31.0180124084,
			"0.0": 29.333224204,
			"0.001": 25.4330772378,
			"0.002": 12.1355741237,
			"0.003": 10.2704964748,
			"0.004": 9.81824291786,
			"0.005": 11.3519459819,
			"0.006": 10.9319007033,
			"0.007": 3.13087211859,
			"0.008": 3.03750251334,
			"0.009": 2.08601595189,
			"0.01": 1.72214372754,
			"0.011": 2.90811803522,
			"0.012": 4.12341982384,
			"0.013": 0.115820718459,
			"0.014": 0.0,
			"0.015": 0.0,
			"0.016": 0.0,
			"0.017": 0.0,
			"0.018": 0.0,
			"0.019": 0.0,
			"0.02": 0.0,
			"0.021": 0.0,
			"0.022": 0.0,
			"0.023": 0.0,
			"0.024": 0.0,
			"0.025": 0.0
		}
	}
}
