{
	 "smiles": "CCOC(=O)C1=C(NC(=O)NC2=CC(Cl)=CC=C2)SC2=C1CCCC2", 
	 "Tm": 437.15, 
	 "num_atms": 44, 
	 "gaussian": { 
		 "optdone": 1, 
		 "sigma_profile": "yes", 
		 "theory": "DFT", 
		 "functional": "B3LYP", 
		 "basiset": "6-31G**", 
		 "properties": { 
			 "R2extent": 14968.9741, 
			 "electric_dipole_moment_norm": 3.29946891029, 
			 "electric_quadrupole_moment_norm": 14.4438027565, 
			 "total_energy": -1890.96478188, 
			 "HOMO_LUMO_gap": 0.17254, 
			 "cosmo_polarized_energy": -21.9, 
			 "cosmo_cavitation_energy": 50.27, 
			 "cosmo_dispersion_energy": -35.63, 
			 "cosmo_repulsion_energy": 2.71, 
			 "cosmo_total_nonelectrostatic_energy": 17.35, 
			 "SMD_solvation_energy": 8.06 
		},
		"coords": [
			{
				"x": -1.81962975,
				"y": -1.325936007,
				"z": -3.2972013934,
				"element": "C" 
			},
			{
				"x": -1.6402552042,
				"y": -0.586613452,
				"z": -1.9795446097,
				"element": "C" 
			},
			{
				"x": -0.3611095371,
				"y": -0.88772636,
				"z": -1.3734882992,
				"element": "O" 
			},
			{
				"x": 0.683166263,
				"y": -0.1274880586,
				"z": -1.771815924,
				"element": "C" 
			},
			{
				"x": 0.6005683589,
				"y": 0.7010613609,
				"z": -2.6605457743,
				"element": "O" 
			},
			{
				"x": 1.9377078699,
				"y": -0.4430595267,
				"z": -1.0440912487,
				"element": "C" 
			},
			{
				"x": 2.01758777,
				"y": -1.0635247506,
				"z": 0.1855935729,
				"element": "C" 
			},
			{
				"x": 1.0043381104,
				"y": -1.4685867789,
				"z": 1.0568808201,
				"element": "N" 
			},
			{
				"x": -0.0057216407,
				"y": -0.6123240845,
				"z": 1.5121447826,
				"element": "C" 
			},
			{
				"x": -0.0670467771,
				"y": 0.5679307292,
				"z": 1.221970231,
				"element": "O" 
			},
			{
				"x": -0.9121195142,
				"y": -1.2842385834,
				"z": 2.3201708981,
				"element": "N" 
			},
			{
				"x": -2.0198535474,
				"y": -0.7483293283,
				"z": 3.0038292548,
				"element": "C" 
			},
			{
				"x": -2.8364373774,
				"y": -1.658310891,
				"z": 3.6953662427,
				"element": "C" 
			},
			{
				"x": -3.9406513701,
				"y": -1.1925525533,
				"z": 4.4003854484,
				"element": "C" 
			},
			{
				"x": -4.9481296126,
				"y": -2.3539393157,
				"z": 5.2570096,
				"element": "Cl" 
			},
			{
				"x": -4.2636875171,
				"y": 0.1618966237,
				"z": 4.4438754445,
				"element": "C" 
			},
			{
				"x": -3.4412441187,
				"y": 1.0518248211,
				"z": 3.7520333859,
				"element": "C" 
			},
			{
				"x": -2.3269829946,
				"y": 0.6213376296,
				"z": 3.0334709302,
				"element": "C" 
			},
			{
				"x": 3.6799935486,
				"y": -1.2696828644,
				"z": 0.6911599357,
				"element": "S" 
			},
			{
				"x": 4.2711873122,
				"y": -0.5562472199,
				"z": -0.7908103393,
				"element": "C" 
			},
			{
				"x": 3.2446618062,
				"y": -0.1322239541,
				"z": -1.5896000725,
				"element": "C" 
			},
			{
				"x": 3.5145144283,
				"y": 0.5332581137,
				"z": -2.9213403268,
				"element": "C" 
			},
			{
				"x": 4.9893700153,
				"y": 0.9440320427,
				"z": -3.0679140458,
				"element": "C" 
			},
			{
				"x": 5.9426456697,
				"y": -0.1625541717,
				"z": -2.5981738487,
				"element": "C" 
			},
			{
				"x": 5.7402851941,
				"y": -0.4567705517,
				"z": -1.1012080145,
				"element": "C" 
			},
			{
				"x": -2.8259794274,
				"y": -1.1459499383,
				"z": -3.6903046408,
				"element": "H" 
			},
			{
				"x": -1.0944463051,
				"y": -0.9745553788,
				"z": -4.0347489121,
				"element": "H" 
			},
			{
				"x": -1.6930023795,
				"y": -2.4042263124,
				"z": -3.1604120676,
				"element": "H" 
			},
			{
				"x": -2.3736106678,
				"y": -0.9091411279,
				"z": -1.2363729674,
				"element": "H" 
			},
			{
				"x": -1.719047087,
				"y": 0.4937006919,
				"z": -2.1186492911,
				"element": "H" 
			},
			{
				"x": 1.1663220938,
				"y": -2.3254284339,
				"z": 1.5670711933,
				"element": "H" 
			},
			{
				"x": -0.8494577462,
				"y": -2.2918975473,
				"z": 2.337487648,
				"element": "H" 
			},
			{
				"x": -2.6132516415,
				"y": -2.7209264967,
				"z": 3.6863572305,
				"element": "H" 
			},
			{
				"x": -5.1286915968,
				"y": 0.5041547037,
				"z": 4.9995474272,
				"element": "H" 
			},
			{
				"x": -3.6745170294,
				"y": 2.1123690727,
				"z": 3.7709402142,
				"element": "H" 
			},
			{
				"x": -1.7029488379,
				"y": 1.3189819141,
				"z": 2.4945010729,
				"element": "H" 
			},
			{
				"x": 2.856765188,
				"y": 1.3970169149,
				"z": -3.0376831722,
				"element": "H" 
			},
			{
				"x": 3.2343030586,
				"y": -0.1552456258,
				"z": -3.7312979872,
				"element": "H" 
			},
			{
				"x": 5.1748277425,
				"y": 1.8500266935,
				"z": -2.4754627088,
				"element": "H" 
			},
			{
				"x": 5.1928380766,
				"y": 1.2059923964,
				"z": -4.112025821,
				"element": "H" 
			},
			{
				"x": 5.7540692405,
				"y": -1.076610749,
				"z": -3.1761627063,
				"element": "H" 
			},
			{
				"x": 6.9857368794,
				"y": 0.1198388825,
				"z": -2.778934756,
				"element": "H" 
			},
			{
				"x": 6.1971937139,
				"y": 0.3436734262,
				"z": -0.5014827087,
				"element": "H" 
			},
			{
				"x": 6.2572393397,
				"y": -1.3824059549,
				"z": -0.8197236968,
				"element": "H" 
			}
		],
		 "valence_orbital": [ 
			{
				"type": "occ",
				"energy": -0.26532,
				"method": "rhf"
			},
			{
				"type": "occ",
				"energy": -0.25212,
				"method": "rhf"
			},
			{
				"type": "occ",
				"energy": -0.24925,
				"method": "rhf"
			},
			{
				"type": "occ",
				"energy": -0.23125,
				"method": "rhf"
			},
			{
				"type": "occ",
				"energy": -0.21313,
				"method": "rhf"
			},
			{
				"type": "unocc",
				"energy": -0.04059,
				"method": "rhf"
			},
			{
				"type": "unocc",
				"energy": -0.01381,
				"method": "rhf"
			},
			{
				"type": "unocc",
				"energy": -0.01039,
				"method": "rhf"
			},
			{
				"type": "unocc",
				"energy": 0.00677,
				"method": "rhf"
			},
			{
				"type": "unocc",
				"energy": 0.01783,
				"method": "rhf"
			}
		],
		"cosmo_sigma_profile": { 
			"-0.025": 0.0,
			"-0.024": 0.0,
			"-0.023": 0.0,
			"-0.022": 0.0,
			"-0.021": 0.0,
			"-0.02": 0.0947318028561,
			"-0.019": 0.944762396874,
			"-0.018": 1.22406985107,
			"-0.017": 1.87960890293,
			"-0.016": 2.16154169154,
			"-0.015": 2.01393092823,
			"-0.014": 1.48749713998,
			"-0.013": 1.53436120998,
			"-0.012": 2.74018538654,
			"-0.011": 1.71027919231,
			"-0.01": 1.22579079377,
			"-0.009": 2.51455813599,
			"-0.008": 2.11085784742,
			"-0.007": 3.30383698668,
			"-0.006": 7.13908460121,
			"-0.005": 11.0658610619,
			"-0.004": 23.3184736025,
			"-0.003": 32.790250013,
			"-0.002": 42.2003377261,
			"-0.001": 41.6172148273,
			"0.0": 38.5145419645,
			"0.001": 32.9205303848,
			"0.002": 30.1195907878,
			"0.003": 35.1128213823,
			"0.004": 32.6262517138,
			"0.005": 15.9962557096,
			"0.006": 5.74716935505,
			"0.007": 5.45150629381,
			"0.008": 3.97859136449,
			"0.009": 4.31781680761,
			"0.01": 4.19038562531,
			"0.011": 4.35442463421,
			"0.012": 4.5927659426,
			"0.013": 1.59969863252,
			"0.014": 0.05226911355,
			"0.015": 0.0,
			"0.016": 0.0,
			"0.017": 0.0,
			"0.018": 0.0,
			"0.019": 0.0,
			"0.02": 0.0,
			"0.021": 0.0,
			"0.022": 0.0,
			"0.023": 0.0,
			"0.024": 0.0,
			"0.025": 0.0
		}
	}
}
