{
	 "smiles": "CC1(C)CC(=O)C2=C(C1)NC1=C(C2C2=CC=C(O)C=C2)C2=C(C=CC=C2)C=C1", 
	 "Tm": 587.15, 
	 "num_atms": 51, 
	 "gaussian": { 
		 "optdone": 1, 
		 "sigma_profile": "yes", 
		 "theory": "DFT", 
		 "functional": "B3LYP", 
		 "basiset": "6-31G**", 
		 "properties": { 
			 "R2extent": 10917.3672, 
			 "electric_dipole_moment_norm": 6.08511902513, 
			 "electric_quadrupole_moment_norm": 6.08594747923, 
			 "total_energy": -1171.75856818, 
			 "HOMO_LUMO_gap": 0.15022, 
			 "cosmo_polarized_energy": -23.47, 
			 "cosmo_cavitation_energy": 51.02, 
			 "cosmo_dispersion_energy": -34.61, 
			 "cosmo_repulsion_energy": 2.57, 
			 "cosmo_total_nonelectrostatic_energy": 18.98, 
			 "SMD_solvation_energy": 8.21 
		},
		"coords": [
			{
				"x": 3.4074607724,
				"y": 2.7660138359,
				"z": -2.1976246085,
				"element": "C" 
			},
			{
				"x": 2.2609262877,
				"y": 1.8425576842,
				"z": -1.7524001981,
				"element": "C" 
			},
			{
				"x": 2.1012337361,
				"y": 0.7063074056,
				"z": -2.7832554568,
				"element": "C" 
			},
			{
				"x": 0.9518237464,
				"y": 2.649851293,
				"z": -1.6309301975,
				"element": "C" 
			},
			{
				"x": -0.2129953941,
				"y": 1.8868535492,
				"z": -0.9995406697,
				"element": "C" 
			},
			{
				"x": -1.3726742988,
				"y": 2.2006182973,
				"z": -1.2696433427,
				"element": "O" 
			},
			{
				"x": 0.1059938236,
				"y": 0.8367249713,
				"z": -0.0359898309,
				"element": "C" 
			},
			{
				"x": 1.4043564201,
				"y": 0.5899277526,
				"z": 0.2979872985,
				"element": "C" 
			},
			{
				"x": 2.5833563026,
				"y": 1.2651757544,
				"z": -0.355847841,
				"element": "C" 
			},
			{
				"x": 1.6955472435,
				"y": -0.277841991,
				"z": 1.3220187562,
				"element": "N" 
			},
			{
				"x": 0.7179225676,
				"y": -0.6874039006,
				"z": 2.2420624177,
				"element": "C" 
			},
			{
				"x": -0.6264735736,
				"y": -0.5080930525,
				"z": 1.9465797372,
				"element": "C" 
			},
			{
				"x": -1.0352106922,
				"y": 0.0402551877,
				"z": 0.5845367334,
				"element": "C" 
			},
			{
				"x": -1.5322110818,
				"y": -1.0562188373,
				"z": -0.3742502596,
				"element": "C" 
			},
			{
				"x": -1.0031019493,
				"y": -2.3512599243,
				"z": -0.3577495557,
				"element": "C" 
			},
			{
				"x": -1.4471939302,
				"y": -3.3261373286,
				"z": -1.2523218824,
				"element": "C" 
			},
			{
				"x": -2.4390267316,
				"y": -3.0164381273,
				"z": -2.1870190722,
				"element": "C" 
			},
			{
				"x": -2.9195792626,
				"y": -3.9292003949,
				"z": -3.0872014472,
				"element": "O" 
			},
			{
				"x": -2.9778065606,
				"y": -1.726049404,
				"z": -2.2200202246,
				"element": "C" 
			},
			{
				"x": -2.5252992216,
				"y": -0.7628854008,
				"z": -1.3229579489,
				"element": "C" 
			},
			{
				"x": -1.5987001691,
				"y": -0.8862383906,
				"z": 2.9270588127,
				"element": "C" 
			},
			{
				"x": -1.1695152429,
				"y": -1.4368244508,
				"z": 4.1818843928,
				"element": "C" 
			},
			{
				"x": -2.1358423768,
				"y": -1.8010560542,
				"z": 5.1549418072,
				"element": "C" 
			},
			{
				"x": -3.4814559521,
				"y": -1.6396891851,
				"z": 4.9126752897,
				"element": "C" 
			},
			{
				"x": -3.911204956,
				"y": -1.1109987076,
				"z": 3.6736454507,
				"element": "C" 
			},
			{
				"x": -2.998252721,
				"y": -0.7485072533,
				"z": 2.7069726038,
				"element": "C" 
			},
			{
				"x": 0.2204830307,
				"y": -1.6135631895,
				"z": 4.4190241511,
				"element": "C" 
			},
			{
				"x": 1.1438520138,
				"y": -1.2500643451,
				"z": 3.4745789662,
				"element": "C" 
			},
			{
				"x": 3.1990664591,
				"y": 3.1954372671,
				"z": -3.1833413556,
				"element": "H" 
			},
			{
				"x": 4.3532290112,
				"y": 2.2159411957,
				"z": -2.2681684343,
				"element": "H" 
			},
			{
				"x": 3.5509780547,
				"y": 3.5947941674,
				"z": -1.4950798273,
				"element": "H" 
			},
			{
				"x": 3.0337561424,
				"y": 0.1387952726,
				"z": -2.8826546616,
				"element": "H" 
			},
			{
				"x": 1.3080150894,
				"y": 0.0075086368,
				"z": -2.5044511832,
				"element": "H" 
			},
			{
				"x": 1.8553586161,
				"y": 1.1165462057,
				"z": -3.7684395325,
				"element": "H" 
			},
			{
				"x": 1.1291752852,
				"y": 3.5390533125,
				"z": -1.0076047024,
				"element": "H" 
			},
			{
				"x": 0.6152990188,
				"y": 3.0164007127,
				"z": -2.6058588361,
				"element": "H" 
			},
			{
				"x": 2.930819693,
				"y": 2.0761163359,
				"z": 0.3023516378,
				"element": "H" 
			},
			{
				"x": 3.4156781531,
				"y": 0.5504233339,
				"z": -0.4264832656,
				"element": "H" 
			},
			{
				"x": 2.6616320147,
				"y": -0.38546035,
				"z": 1.5934393546,
				"element": "H" 
			},
			{
				"x": -1.8642332635,
				"y": 0.744499363,
				"z": 0.7126821202,
				"element": "H" 
			},
			{
				"x": -0.2430302755,
				"y": -2.615410723,
				"z": 0.3714322903,
				"element": "H" 
			},
			{
				"x": -1.0261282199,
				"y": -4.3295715385,
				"z": -1.2174586576,
				"element": "H" 
			},
			{
				"x": -2.4687683986,
				"y": -4.7719273266,
				"z": -2.9480127646,
				"element": "H" 
			},
			{
				"x": -3.7469557192,
				"y": -1.4966834646,
				"z": -2.9505641791,
				"element": "H" 
			},
			{
				"x": -2.9263201246,
				"y": 0.2446468571,
				"z": -1.3674233796,
				"element": "H" 
			},
			{
				"x": -1.7908428266,
				"y": -2.2126151668,
				"z": 6.1003666056,
				"element": "H" 
			},
			{
				"x": -4.2123065703,
				"y": -1.9217598576,
				"z": 5.664809205,
				"element": "H" 
			},
			{
				"x": -4.9735372963,
				"y": -0.9944349549,
				"z": 3.4790697432,
				"element": "H" 
			},
			{
				"x": -3.3540042709,
				"y": -0.367122815,
				"z": 1.7571921676,
				"element": "H" 
			},
			{
				"x": 0.5441051331,
				"y": -2.0383444539,
				"z": 5.3653861154,
				"element": "H" 
			},
			{
				"x": 2.2076024644,
				"y": -1.3764478033,
				"z": 3.6630976585,
				"element": "H" 
			}
		],
		 "valence_orbital": [ 
			{
				"type": "occ",
				"energy": -0.23837,
				"method": "rhf"
			},
			{
				"type": "occ",
				"energy": -0.22714,
				"method": "rhf"
			},
			{
				"type": "occ",
				"energy": -0.22082,
				"method": "rhf"
			},
			{
				"type": "occ",
				"energy": -0.20375,
				"method": "rhf"
			},
			{
				"type": "occ",
				"energy": -0.19367,
				"method": "rhf"
			},
			{
				"type": "unocc",
				"energy": -0.04345,
				"method": "rhf"
			},
			{
				"type": "unocc",
				"energy": -0.02625,
				"method": "rhf"
			},
			{
				"type": "unocc",
				"energy": 0.00155,
				"method": "rhf"
			},
			{
				"type": "unocc",
				"energy": 0.01052,
				"method": "rhf"
			},
			{
				"type": "unocc",
				"energy": 0.02303,
				"method": "rhf"
			}
		],
		"cosmo_sigma_profile": { 
			"-0.025": 0.0,
			"-0.024": 0.0,
			"-0.023": 0.0,
			"-0.022": 0.0,
			"-0.021": 0.0,
			"-0.02": 0.0,
			"-0.019": 0.0,
			"-0.018": 0.134562755737,
			"-0.017": 0.83023748743,
			"-0.016": 1.20510206299,
			"-0.015": 2.01411755389,
			"-0.014": 2.42772486473,
			"-0.013": 2.61327534742,
			"-0.012": 2.0170316904,
			"-0.011": 2.32601220996,
			"-0.01": 2.98947439408,
			"-0.009": 3.15247661364,
			"-0.008": 2.49967146016,
			"-0.007": 3.86731312751,
			"-0.006": 11.6249136428,
			"-0.005": 22.8524994317,
			"-0.004": 28.3566526693,
			"-0.003": 39.106371928,
			"-0.002": 32.1158464403,
			"-0.001": 29.870653406,
			"0.0": 31.422381266,
			"0.001": 32.337458756,
			"0.002": 23.6489836392,
			"0.003": 24.7563023159,
			"0.004": 30.8476824282,
			"0.005": 27.7692088488,
			"0.006": 16.2122344569,
			"0.007": 3.66186546826,
			"0.008": 3.63040158149,
			"0.009": 2.85323867284,
			"0.01": 3.02606543494,
			"0.011": 3.16473988977,
			"0.012": 3.31930197998,
			"0.013": 2.53491960492,
			"0.014": 2.44660491925,
			"0.015": 1.62597082616,
			"0.016": 0.190632030473,
			"0.017": 0.0,
			"0.018": 0.0,
			"0.019": 0.0,
			"0.02": 0.0,
			"0.021": 0.0,
			"0.022": 0.0,
			"0.023": 0.0,
			"0.024": 0.0,
			"0.025": 0.0
		}
	}
}
