{
	 "smiles": "CCOC(=O)C(NC(C)=O)C(C)=O", 
	 "Tm": 318.15, 
	 "num_atms": 26, 
	 "gaussian": { 
		 "optdone": 1, 
		 "sigma_profile": "yes", 
		 "theory": "DFT", 
		 "functional": "B3LYP", 
		 "basiset": "6-31G**", 
		 "properties": { 
			 "R2extent": 3292.4661, 
			 "electric_dipole_moment_norm": 7.54801905535, 
			 "electric_quadrupole_moment_norm": 19.6891358498, 
			 "total_energy": -668.35637466, 
			 "HOMO_LUMO_gap": 0.19151, 
			 "cosmo_polarized_energy": -18.97, 
			 "cosmo_cavitation_energy": 30.33, 
			 "cosmo_dispersion_energy": -20.69, 
			 "cosmo_repulsion_energy": 1.7, 
			 "cosmo_total_nonelectrostatic_energy": 11.35, 
			 "SMD_solvation_energy": 7.54 
		},
		"coords": [
			{
				"x": 2.5875150495,
				"y": -2.4005199996,
				"z": -0.1630906422,
				"element": "C" 
			},
			{
				"x": 2.3461080199,
				"y": -1.1611274659,
				"z": 0.6753832466,
				"element": "C" 
			},
			{
				"x": 1.061765465,
				"y": -0.6056170331,
				"z": 0.280140136,
				"element": "O" 
			},
			{
				"x": 0.6829009085,
				"y": 0.5149567852,
				"z": 0.9271245857,
				"element": "C" 
			},
			{
				"x": 1.3354077561,
				"y": 1.0683903705,
				"z": 1.7781882728,
				"element": "O" 
			},
			{
				"x": -0.6934071787,
				"y": 1.0123697134,
				"z": 0.4134688127,
				"element": "C" 
			},
			{
				"x": -1.0489117388,
				"y": 2.2969332543,
				"z": 0.9406093198,
				"element": "N" 
			},
			{
				"x": -0.4643156116,
				"y": 3.5167809916,
				"z": 0.6731086352,
				"element": "C" 
			},
			{
				"x": 0.5400263629,
				"y": 3.5646852998,
				"z": -0.4668886794,
				"element": "C" 
			},
			{
				"x": -0.7709435315,
				"y": 4.5075930218,
				"z": 1.3172423171,
				"element": "O" 
			},
			{
				"x": -1.7970664977,
				"y": -0.0027202579,
				"z": 0.8304814339,
				"element": "C" 
			},
			{
				"x": -2.0037362379,
				"y": -1.2117199642,
				"z": -0.0479225973,
				"element": "C" 
			},
			{
				"x": -2.4650798518,
				"y": 0.2210261202,
				"z": 1.8179988886,
				"element": "O" 
			},
			{
				"x": 3.5538042471,
				"y": -2.8403364461,
				"z": 0.1018987849,
				"element": "H" 
			},
			{
				"x": 1.8118514107,
				"y": -3.1519621471,
				"z": 0.0109120575,
				"element": "H" 
			},
			{
				"x": 2.6027749934,
				"y": -2.1570693418,
				"z": -1.229261057,
				"element": "H" 
			},
			{
				"x": 3.1141156428,
				"y": -0.398260987,
				"z": 0.517787168,
				"element": "H" 
			},
			{
				"x": 2.3134216668,
				"y": -1.3831673337,
				"z": 1.7459695781,
				"element": "H" 
			},
			{
				"x": -0.6347366848,
				"y": 1.0173655875,
				"z": -0.6816869907,
				"element": "H" 
			},
			{
				"x": -1.6367974508,
				"y": 2.2719180083,
				"z": 1.7668290565,
				"element": "H" 
			},
			{
				"x": 0.1501107039,
				"y": 3.1069804989,
				"z": -1.3826281931,
				"element": "H" 
			},
			{
				"x": 0.7760682178,
				"y": 4.6105309384,
				"z": -0.6609810987,
				"element": "H" 
			},
			{
				"x": 1.4591251809,
				"y": 3.0398573353,
				"z": -0.1868153196,
				"element": "H" 
			},
			{
				"x": -1.0503764687,
				"y": -1.6766296216,
				"z": -0.3081111015,
				"element": "H" 
			},
			{
				"x": -2.6609742981,
				"y": -1.9224587201,
				"z": 0.454536028,
				"element": "H" 
			},
			{
				"x": -2.4763500747,
				"y": -0.8883986072,
				"z": -0.9841926419,
				"element": "H" 
			}
		],
		 "valence_orbital": [ 
			{
				"type": "occ",
				"energy": -0.32289,
				"method": "rhf"
			},
			{
				"type": "occ",
				"energy": -0.29823,
				"method": "rhf"
			},
			{
				"type": "occ",
				"energy": -0.27863,
				"method": "rhf"
			},
			{
				"type": "occ",
				"energy": -0.25058,
				"method": "rhf"
			},
			{
				"type": "occ",
				"energy": -0.23956,
				"method": "rhf"
			},
			{
				"type": "unocc",
				"energy": -0.04805,
				"method": "rhf"
			},
			{
				"type": "unocc",
				"energy": -0.00059,
				"method": "rhf"
			},
			{
				"type": "unocc",
				"energy": 0.03261,
				"method": "rhf"
			},
			{
				"type": "unocc",
				"energy": 0.06891,
				"method": "rhf"
			},
			{
				"type": "unocc",
				"energy": 0.0881,
				"method": "rhf"
			}
		],
		"cosmo_sigma_profile": { 
			"-0.025": 0.0,
			"-0.024": 0.0,
			"-0.023": 0.0,
			"-0.022": 0.0,
			"-0.021": 0.0,
			"-0.02": 0.0,
			"-0.019": 0.0,
			"-0.018": 0.0,
			"-0.017": 0.0,
			"-0.016": 0.0,
			"-0.015": 0.0,
			"-0.014": 0.0,
			"-0.013": 0.0,
			"-0.012": 0.0,
			"-0.011": 0.0,
			"-0.01": 0.95639328422,
			"-0.009": 5.58414421821,
			"-0.008": 4.54433010051,
			"-0.007": 6.36430516119,
			"-0.006": 10.3257710088,
			"-0.005": 19.1607464445,
			"-0.004": 26.2616883861,
			"-0.003": 24.5511441977,
			"-0.002": 27.2755835292,
			"-0.001": 21.0168183232,
			"0.0": 15.0382571419,
			"0.001": 8.28729372457,
			"0.002": 6.31386550078,
			"0.003": 5.96940922143,
			"0.004": 5.49157007429,
			"0.005": 4.67066461558,
			"0.006": 4.21523769704,
			"0.007": 4.79660186134,
			"0.008": 5.33223643211,
			"0.009": 4.841309216,
			"0.01": 7.39861949486,
			"0.011": 6.67516952056,
			"0.012": 2.62896152245,
			"0.013": 4.70116485171,
			"0.014": 4.99140170855,
			"0.015": 0.846255540068,
			"0.016": 0.0,
			"0.017": 0.0,
			"0.018": 0.0,
			"0.019": 0.0,
			"0.02": 0.0,
			"0.021": 0.0,
			"0.022": 0.0,
			"0.023": 0.0,
			"0.024": 0.0,
			"0.025": 0.0
		}
	}
}
