{
	 "smiles": "CC(=N/NC(N)=O)C1=CC=NC=C1", 
	 "Tm": 491.15, 
	 "num_atms": 23, 
	 "gaussian": { 
		 "optdone": 1, 
		 "sigma_profile": "yes", 
		 "theory": "DFT", 
		 "functional": "B3LYP", 
		 "basiset": "6-31G**", 
		 "properties": { 
			 "R2extent": 3309.0899, 
			 "electric_dipole_moment_norm": 1.33732047767, 
			 "electric_quadrupole_moment_norm": 28.4515859707, 
			 "total_energy": -605.101608632, 
			 "HOMO_LUMO_gap": 0.17241, 
			 "cosmo_polarized_energy": -17.29, 
			 "cosmo_cavitation_energy": 27.7, 
			 "cosmo_dispersion_energy": -20.28, 
			 "cosmo_repulsion_energy": 1.62, 
			 "cosmo_total_nonelectrostatic_energy": 9.04, 
			 "SMD_solvation_energy": 4.18 
		},
		"coords": [
			{
				"x": -1.5006316501,
				"y": 1.4915020986,
				"z": -0.0094625195,
				"element": "C" 
			},
			{
				"x": -0.5897863858,
				"y": 0.2865034197,
				"z": 0.0302704512,
				"element": "C" 
			},
			{
				"x": -0.3751242253,
				"y": -0.3928200537,
				"z": 1.1108379144,
				"element": "N" 
			},
			{
				"x": -0.9846468764,
				"y": -0.0306061294,
				"z": 2.2575825002,
				"element": "N" 
			},
			{
				"x": -0.8319896886,
				"y": -0.764516281,
				"z": 3.4433586286,
				"element": "C" 
			},
			{
				"x": 0.0537954872,
				"y": -1.7961021119,
				"z": 3.3599930649,
				"element": "N" 
			},
			{
				"x": -1.4528188411,
				"y": -0.4352935846,
				"z": 4.4428742095,
				"element": "O" 
			},
			{
				"x": 0.1123451903,
				"y": -0.1786348366,
				"z": -1.189106759,
				"element": "C" 
			},
			{
				"x": 1.2583593308,
				"y": -0.9884324924,
				"z": -1.1064387277,
				"element": "C" 
			},
			{
				"x": 1.8792948201,
				"y": -1.4143660995,
				"z": -2.2752927985,
				"element": "C" 
			},
			{
				"x": 1.4554738583,
				"y": -1.1028824615,
				"z": -3.5099930592,
				"element": "N" 
			},
			{
				"x": 0.364146752,
				"y": -0.3346578319,
				"z": -3.5869315862,
				"element": "C" 
			},
			{
				"x": -0.3323108538,
				"y": 0.1494875835,
				"z": -2.4786151834,
				"element": "C" 
			},
			{
				"x": -2.5531112232,
				"y": 1.209974823,
				"z": 0.1269475506,
				"element": "H" 
			},
			{
				"x": -1.416970449,
				"y": 2.0352060857,
				"z": -0.9496534647,
				"element": "H" 
			},
			{
				"x": -1.2409736796,
				"y": 2.1939540239,
				"z": 0.7925131013,
				"element": "H" 
			},
			{
				"x": -1.6583529442,
				"y": 0.7251242027,
				"z": 2.3159699464,
				"element": "H" 
			},
			{
				"x": 0.0738002672,
				"y": -2.4323055418,
				"z": 4.1394095008,
				"element": "H" 
			},
			{
				"x": 0.3867726376,
				"y": -2.0897984673,
				"z": 2.4548709943,
				"element": "H" 
			},
			{
				"x": 1.6587054923,
				"y": -1.263371616,
				"z": -0.1376756175,
				"element": "H" 
			},
			{
				"x": 2.771651439,
				"y": -2.0356114239,
				"z": -2.2198316666,
				"element": "H" 
			},
			{
				"x": 0.0199320538,
				"y": -0.0882485341,
				"z": -4.5901654715,
				"element": "H" 
			},
			{
				"x": -1.2186605113,
				"y": 0.7547952286,
				"z": -2.6355610084,
				"element": "H" 
			}
		],
		 "valence_orbital": [ 
			{
				"type": "occ",
				"energy": -0.27239,
				"method": "rhf"
			},
			{
				"type": "occ",
				"energy": -0.26618,
				"method": "rhf"
			},
			{
				"type": "occ",
				"energy": -0.26607,
				"method": "rhf"
			},
			{
				"type": "occ",
				"energy": -0.25724,
				"method": "rhf"
			},
			{
				"type": "occ",
				"energy": -0.23248,
				"method": "rhf"
			},
			{
				"type": "unocc",
				"energy": -0.06007,
				"method": "rhf"
			},
			{
				"type": "unocc",
				"energy": -0.01454,
				"method": "rhf"
			},
			{
				"type": "unocc",
				"energy": 0.02046,
				"method": "rhf"
			},
			{
				"type": "unocc",
				"energy": 0.06496,
				"method": "rhf"
			},
			{
				"type": "unocc",
				"energy": 0.07215,
				"method": "rhf"
			}
		],
		"cosmo_sigma_profile": { 
			"-0.025": 0.0,
			"-0.024": 0.0,
			"-0.023": 0.0,
			"-0.022": 0.0,
			"-0.021": 0.0,
			"-0.02": 0.0,
			"-0.019": 0.0,
			"-0.018": 0.0,
			"-0.017": 0.0,
			"-0.016": 0.0,
			"-0.015": 0.0,
			"-0.014": 1.34139676967,
			"-0.013": 1.60369873594,
			"-0.012": 3.16882396185,
			"-0.011": 2.94100289941,
			"-0.01": 2.74628300995,
			"-0.009": 3.52044743855,
			"-0.008": 3.70662036493,
			"-0.007": 7.9880808881,
			"-0.006": 12.8588971383,
			"-0.005": 15.6057780521,
			"-0.004": 14.1616630797,
			"-0.003": 12.9684724345,
			"-0.002": 14.7259833083,
			"-0.001": 12.2725594854,
			"0.0": 13.2738452239,
			"0.001": 14.4328910912,
			"0.002": 20.3079204822,
			"0.003": 15.4385395732,
			"0.004": 7.19964269017,
			"0.005": 5.45265115557,
			"0.006": 3.68483458089,
			"0.007": 2.97048248657,
			"0.008": 3.41854608165,
			"0.009": 2.88858596243,
			"0.01": 1.8134328578,
			"0.011": 2.52370308252,
			"0.012": 2.14619199207,
			"0.013": 4.86821333589,
			"0.014": 7.20891103942,
			"0.015": 2.17000935784,
			"0.016": 0.676799595111,
			"0.017": 0.578927401276,
			"0.018": 0.0141046166286,
			"0.019": 0.0,
			"0.02": 0.0,
			"0.021": 0.0,
			"0.022": 0.0,
			"0.023": 0.0,
			"0.024": 0.0,
			"0.025": 0.0
		}
	}
}
