{
	 "smiles": "COC1=CC2=C(C=C1OC)C(Cl)=NC(Cl)=N2", 
	 "Tm": 450.15, 
	 "num_atms": 24, 
	 "gaussian": { 
		 "optdone": 1, 
		 "sigma_profile": "yes", 
		 "theory": "DFT", 
		 "functional": "B3LYP", 
		 "basiset": "6-31G**", 
		 "properties": { 
			 "R2extent": 6327.1817, 
			 "electric_dipole_moment_norm": 6.53692099004, 
			 "electric_quadrupole_moment_norm": 14.3660992945, 
			 "total_energy": -1566.19619904, 
			 "HOMO_LUMO_gap": 0.16232, 
			 "cosmo_polarized_energy": -11.03, 
			 "cosmo_cavitation_energy": 32.24, 
			 "cosmo_dispersion_energy": -23.88, 
			 "cosmo_repulsion_energy": 1.87, 
			 "cosmo_total_nonelectrostatic_energy": 10.23, 
			 "SMD_solvation_energy": 3.57 
		},
		"coords": [
			{
				"x": 1.0166415248,
				"y": -2.2852758973,
				"z": -1.7030845945,
				"element": "C" 
			},
			{
				"x": 1.4632813012,
				"y": -1.6090343469,
				"z": -0.519064639,
				"element": "O" 
			},
			{
				"x": 0.642132323,
				"y": -0.6566820104,
				"z": 0.003663012,
				"element": "C" 
			},
			{
				"x": 0.1334899391,
				"y": -0.8428549052,
				"z": 1.2683551424,
				"element": "C" 
			},
			{
				"x": -0.6657922629,
				"y": 0.1501566555,
				"z": 1.8846267192,
				"element": "C" 
			},
			{
				"x": -0.9461709226,
				"y": 1.351286345,
				"z": 1.1640961443,
				"element": "C" 
			},
			{
				"x": -0.4135404657,
				"y": 1.5424254694,
				"z": -0.1341966555,
				"element": "C" 
			},
			{
				"x": 0.3746311866,
				"y": 0.5665530364,
				"z": -0.709519323,
				"element": "C" 
			},
			{
				"x": 0.9629209701,
				"y": 0.663560921,
				"z": -1.9282902833,
				"element": "O" 
			},
			{
				"x": 0.7836387457,
				"y": 1.8671022567,
				"z": -2.6676198329,
				"element": "C" 
			},
			{
				"x": -1.765539491,
				"y": 2.2700996084,
				"z": 1.8719647373,
				"element": "C" 
			},
			{
				"x": -2.2009694211,
				"y": 3.800560338,
				"z": 1.1224817155,
				"element": "Cl" 
			},
			{
				"x": -2.2348898807,
				"y": 2.059053352,
				"z": 3.0718706316,
				"element": "N" 
			},
			{
				"x": -1.8946598562,
				"y": 0.8809750107,
				"z": 3.6378236564,
				"element": "C" 
			},
			{
				"x": -2.5412618503,
				"y": 0.6283457513,
				"z": 5.2462274081,
				"element": "Cl" 
			},
			{
				"x": -1.1561110508,
				"y": -0.0707751796,
				"z": 3.1378215554,
				"element": "N" 
			},
			{
				"x": 0.0647437914,
				"y": -2.7969433756,
				"z": -1.5162591549,
				"element": "H" 
			},
			{
				"x": 0.909909458,
				"y": -1.5968473214,
				"z": -2.5443691568,
				"element": "H" 
			},
			{
				"x": 1.7855840304,
				"y": -3.0258018825,
				"z": -1.9278134539,
				"element": "H" 
			},
			{
				"x": 0.3491760482,
				"y": -1.7581510981,
				"z": 1.8065787808,
				"element": "H" 
			},
			{
				"x": -0.625819381,
				"y": 2.4677968062,
				"z": -0.6518509254,
				"element": "H" 
			},
			{
				"x": -0.2729110844,
				"y": 2.0342495446,
				"z": -2.9096921075,
				"element": "H" 
			},
			{
				"x": 1.1712742118,
				"y": 2.7319047816,
				"z": -2.1163242491,
				"element": "H" 
			},
			{
				"x": 1.3520421363,
				"y": 1.7384961405,
				"z": -3.5890251272,
				"element": "H" 
			}
		],
		 "valence_orbital": [ 
			{
				"type": "occ",
				"energy": -0.30532,
				"method": "rhf"
			},
			{
				"type": "occ",
				"energy": -0.29975,
				"method": "rhf"
			},
			{
				"type": "occ",
				"energy": -0.27187,
				"method": "rhf"
			},
			{
				"type": "occ",
				"energy": -0.25946,
				"method": "rhf"
			},
			{
				"type": "occ",
				"energy": -0.23933,
				"method": "rhf"
			},
			{
				"type": "unocc",
				"energy": -0.07701,
				"method": "rhf"
			},
			{
				"type": "unocc",
				"energy": -0.03965,
				"method": "rhf"
			},
			{
				"type": "unocc",
				"energy": 0.00158,
				"method": "rhf"
			},
			{
				"type": "unocc",
				"energy": 0.01531,
				"method": "rhf"
			},
			{
				"type": "unocc",
				"energy": 0.04811,
				"method": "rhf"
			}
		],
		"cosmo_sigma_profile": { 
			"-0.025": 0.0,
			"-0.024": 0.0,
			"-0.023": 0.0,
			"-0.022": 0.0,
			"-0.021": 0.0,
			"-0.02": 0.0,
			"-0.019": 0.0,
			"-0.018": 0.0,
			"-0.017": 0.0,
			"-0.016": 0.0,
			"-0.015": 0.0,
			"-0.014": 0.0,
			"-0.013": 0.0,
			"-0.012": 0.0,
			"-0.011": 0.0,
			"-0.01": 0.0,
			"-0.009": 0.0,
			"-0.008": 1.16009043507,
			"-0.007": 6.03531167,
			"-0.006": 14.0449070549,
			"-0.005": 15.9525324587,
			"-0.004": 21.8587269197,
			"-0.003": 25.7310592995,
			"-0.002": 23.9793046493,
			"-0.001": 23.5203280376,
			"0.0": 22.3768305964,
			"0.001": 21.4498279402,
			"0.002": 16.6021167411,
			"0.003": 18.6139966769,
			"0.004": 15.3715138545,
			"0.005": 8.40154335537,
			"0.006": 6.52756316434,
			"0.007": 5.12336399514,
			"0.008": 5.31967344948,
			"0.009": 4.0143031463,
			"0.01": 3.35087031978,
			"0.011": 2.34636997136,
			"0.012": 1.40101123236,
			"0.013": 0.510363203722,
			"0.014": 0.0199460172483,
			"0.015": 0.0,
			"0.016": 0.0,
			"0.017": 0.0,
			"0.018": 0.0,
			"0.019": 0.0,
			"0.02": 0.0,
			"0.021": 0.0,
			"0.022": 0.0,
			"0.023": 0.0,
			"0.024": 0.0,
			"0.025": 0.0
		}
	}
}
