{
	 "smiles": "COC1=C2C=CC(=O)OC2=CC2=C1C=CC(C)(C)O2", 
	 "Tm": 406.15, 
	 "num_atms": 33, 
	 "gaussian": { 
		 "optdone": 1, 
		 "sigma_profile": "yes", 
		 "theory": "DFT", 
		 "functional": "B3LYP", 
		 "basiset": "6-31G**", 
		 "properties": { 
			 "R2extent": 5547.2096, 
			 "electric_dipole_moment_norm": 7.0426455789, 
			 "electric_quadrupole_moment_norm": 20.2967376105, 
			 "total_energy": -880.911296342, 
			 "HOMO_LUMO_gap": 0.15243, 
			 "cosmo_polarized_energy": -13.46, 
			 "cosmo_cavitation_energy": 36.28, 
			 "cosmo_dispersion_energy": -25.74, 
			 "cosmo_repulsion_energy": 1.96, 
			 "cosmo_total_nonelectrostatic_energy": 12.51, 
			 "SMD_solvation_energy": 8.11 
		},
		"coords": [
			{
				"x": 3.3557195278,
				"y": 0.4390943213,
				"z": -0.0591999878,
				"element": "C" 
			},
			{
				"x": 2.4934421524,
				"y": -0.4987449376,
				"z": 0.5950316471,
				"element": "O" 
			},
			{
				"x": 1.1591049485,
				"y": -0.1539078064,
				"z": 0.5888957883,
				"element": "C" 
			},
			{
				"x": 0.6162484474,
				"y": 0.4549011016,
				"z": 1.7406653619,
				"element": "C" 
			},
			{
				"x": 1.3691777763,
				"y": 0.7536436925,
				"z": 2.9261073143,
				"element": "C" 
			},
			{
				"x": 0.7734529394,
				"y": 1.3376507853,
				"z": 3.9934944423,
				"element": "C" 
			},
			{
				"x": -0.6410639174,
				"y": 1.6824551952,
				"z": 3.9859289085,
				"element": "C" 
			},
			{
				"x": -1.2604591253,
				"y": 2.2117511013,
				"z": 4.8780889966,
				"element": "O" 
			},
			{
				"x": -1.3452662516,
				"y": 1.3559842604,
				"z": 2.816214913,
				"element": "O" 
			},
			{
				"x": -0.7601033824,
				"y": 0.7675822178,
				"z": 1.7374320664,
				"element": "C" 
			},
			{
				"x": -1.5734098445,
				"y": 0.505236364,
				"z": 0.6369796466,
				"element": "C" 
			},
			{
				"x": -1.0062622568,
				"y": -0.0964416358,
				"z": -0.483365352,
				"element": "C" 
			},
			{
				"x": 0.3675518998,
				"y": -0.4481504261,
				"z": -0.5230647863,
				"element": "C" 
			},
			{
				"x": 0.8455853859,
				"y": -1.1795925305,
				"z": -1.6888727736,
				"element": "C" 
			},
			{
				"x": 0.0672542176,
				"y": -1.2991056631,
				"z": -2.7725007611,
				"element": "C" 
			},
			{
				"x": -1.2827622281,
				"y": -0.6219973127,
				"z": -2.8527578106,
				"element": "C" 
			},
			{
				"x": -2.317895288,
				"y": -1.5159088329,
				"z": -3.5393389019,
				"element": "C" 
			},
			{
				"x": -1.1716718048,
				"y": 0.7434892816,
				"z": -3.5507588862,
				"element": "C" 
			},
			{
				"x": -1.8314634097,
				"y": -0.3929559449,
				"z": -1.5154405001,
				"element": "O" 
			},
			{
				"x": 4.3670505525,
				"y": 0.0363363806,
				"z": 0.0222289494,
				"element": "H" 
			},
			{
				"x": 3.3127042082,
				"y": 1.4211035617,
				"z": 0.4279155971,
				"element": "H" 
			},
			{
				"x": 3.0920270301,
				"y": 0.5532523603,
				"z": -1.1172836723,
				"element": "H" 
			},
			{
				"x": 2.4211761107,
				"y": 0.4876705991,
				"z": 2.9485187742,
				"element": "H" 
			},
			{
				"x": 1.3089511589,
				"y": 1.5733870235,
				"z": 4.9050443235,
				"element": "H" 
			},
			{
				"x": -2.6262948668,
				"y": 0.757682499,
				"z": 0.6562496243,
				"element": "H" 
			},
			{
				"x": 1.8203603888,
				"y": -1.6530933786,
				"z": -1.6321822651,
				"element": "H" 
			},
			{
				"x": 0.3890449869,
				"y": -1.8647534917,
				"z": -3.6424671816,
				"element": "H" 
			},
			{
				"x": -2.0266292085,
				"y": -1.7047517635,
				"z": -4.5770921723,
				"element": "H" 
			},
			{
				"x": -2.4012327502,
				"y": -2.473577129,
				"z": -3.0190977387,
				"element": "H" 
			},
			{
				"x": -3.2974912241,
				"y": -1.0301539209,
				"z": -3.5359754331,
				"element": "H" 
			},
			{
				"x": -0.7956995532,
				"y": 0.6214010469,
				"z": -4.5716331955,
				"element": "H" 
			},
			{
				"x": -0.4798747326,
				"y": 1.3947872103,
				"z": -3.0092137759,
				"element": "H" 
			},
			{
				"x": -2.1517718872,
				"y": 1.2286257716,
				"z": -3.5941511592,
				"element": "H" 
			}
		],
		 "valence_orbital": [ 
			{
				"type": "occ",
				"energy": -0.29192,
				"method": "rhf"
			},
			{
				"type": "occ",
				"energy": -0.2697,
				"method": "rhf"
			},
			{
				"type": "occ",
				"energy": -0.26686,
				"method": "rhf"
			},
			{
				"type": "occ",
				"energy": -0.23472,
				"method": "rhf"
			},
			{
				"type": "occ",
				"energy": -0.21086,
				"method": "rhf"
			},
			{
				"type": "unocc",
				"energy": -0.05843,
				"method": "rhf"
			},
			{
				"type": "unocc",
				"energy": -0.03974,
				"method": "rhf"
			},
			{
				"type": "unocc",
				"energy": 0.01061,
				"method": "rhf"
			},
			{
				"type": "unocc",
				"energy": 0.03561,
				"method": "rhf"
			},
			{
				"type": "unocc",
				"energy": 0.0747,
				"method": "rhf"
			}
		],
		"cosmo_sigma_profile": { 
			"-0.025": 0.0,
			"-0.024": 0.0,
			"-0.023": 0.0,
			"-0.022": 0.0,
			"-0.021": 0.0,
			"-0.02": 0.0,
			"-0.019": 0.0,
			"-0.018": 0.0,
			"-0.017": 0.0,
			"-0.016": 0.0,
			"-0.015": 0.0,
			"-0.014": 0.0,
			"-0.013": 0.0,
			"-0.012": 0.0,
			"-0.011": 0.0,
			"-0.01": 0.0,
			"-0.009": 0.0,
			"-0.008": 1.10046097568,
			"-0.007": 5.09548031027,
			"-0.006": 10.1182616324,
			"-0.005": 19.3826840232,
			"-0.004": 28.3042855912,
			"-0.003": 32.9878850548,
			"-0.002": 26.2809351718,
			"-0.001": 26.7215638385,
			"0.0": 32.0943174439,
			"0.001": 27.0226373907,
			"0.002": 20.2721826539,
			"0.003": 11.0841606709,
			"0.004": 7.73353551048,
			"0.005": 5.54646995679,
			"0.006": 4.17875456535,
			"0.007": 4.38844652422,
			"0.008": 3.54614862589,
			"0.009": 4.9199773106,
			"0.01": 3.68162808258,
			"0.011": 4.11309720101,
			"0.012": 6.54763174873,
			"0.013": 3.17750229689,
			"0.014": 0.171260750227,
			"0.015": 0.0,
			"0.016": 0.0,
			"0.017": 0.0,
			"0.018": 0.0,
			"0.019": 0.0,
			"0.02": 0.0,
			"0.021": 0.0,
			"0.022": 0.0,
			"0.023": 0.0,
			"0.024": 0.0,
			"0.025": 0.0
		}
	}
}
