{
	 "smiles": "NC1=CC=NC=C1", 
	 "Tm": 432.15, 
	 "num_atms": 13, 
	 "gaussian": { 
		 "optdone": 1, 
		 "sigma_profile": "yes", 
		 "theory": "DFT", 
		 "functional": "B3LYP", 
		 "basiset": "6-31G**", 
		 "properties": { 
			 "R2extent": 801.8128, 
			 "electric_dipole_moment_norm": 3.98131241678, 
			 "electric_quadrupole_moment_norm": 7.40831477935, 
			 "total_energy": -303.649082652, 
			 "HOMO_LUMO_gap": 0.22353, 
			 "cosmo_polarized_energy": -11.59, 
			 "cosmo_cavitation_energy": 16.72, 
			 "cosmo_dispersion_energy": -12.78, 
			 "cosmo_repulsion_energy": 1.08, 
			 "cosmo_total_nonelectrostatic_energy": 5.02, 
			 "SMD_solvation_energy": 1.59 
		},
		"coords": [
			{
				"x": -1.9104647549,
				"y": -0.714745711,
				"z": 0.2938417537,
				"element": "N" 
			},
			{
				"x": -0.6652285659,
				"y": -0.2027893821,
				"z": 0.6103334105,
				"element": "C" 
			},
			{
				"x": 0.3632515123,
				"y": -1.0241467937,
				"z": 1.105160816,
				"element": "C" 
			},
			{
				"x": 1.5787817843,
				"y": -0.4453859766,
				"z": 1.453487762,
				"element": "C" 
			},
			{
				"x": 1.8573318551,
				"y": 0.8621478548,
				"z": 1.3527106976,
				"element": "N" 
			},
			{
				"x": 0.8689291959,
				"y": 1.6352936274,
				"z": 0.8807962845,
				"element": "C" 
			},
			{
				"x": -0.3856443716,
				"y": 1.170936739,
				"z": 0.5010036086,
				"element": "C" 
			},
			{
				"x": -2.487002512,
				"y": -0.1584449595,
				"z": -0.3202858427,
				"element": "H" 
			},
			{
				"x": -1.9592448456,
				"y": -1.7052738424,
				"z": 0.1054489386,
				"element": "H" 
			},
			{
				"x": 0.2119455861,
				"y": -2.094466063,
				"z": 1.2174849395,
				"element": "H" 
			},
			{
				"x": 2.3801154251,
				"y": -1.076535181,
				"z": 1.835674379,
				"element": "H" 
			},
			{
				"x": 1.0923370367,
				"y": 2.6981097161,
				"z": 0.7967538071,
				"element": "H" 
			},
			{
				"x": -1.1377073455,
				"y": 1.8614999719,
				"z": 0.1286894455,
				"element": "H" 
			}
		],
		 "valence_orbital": [ 
			{
				"type": "occ",
				"energy": -0.35172,
				"method": "rhf"
			},
			{
				"type": "occ",
				"energy": -0.33645,
				"method": "rhf"
			},
			{
				"type": "occ",
				"energy": -0.25297,
				"method": "rhf"
			},
			{
				"type": "occ",
				"energy": -0.24229,
				"method": "rhf"
			},
			{
				"type": "occ",
				"energy": -0.22396,
				"method": "rhf"
			},
			{
				"type": "unocc",
				"energy": -0.00043,
				"method": "rhf"
			},
			{
				"type": "unocc",
				"energy": 0.00371,
				"method": "rhf"
			},
			{
				"type": "unocc",
				"energy": 0.07247,
				"method": "rhf"
			},
			{
				"type": "unocc",
				"energy": 0.11177,
				"method": "rhf"
			},
			{
				"type": "unocc",
				"energy": 0.11445,
				"method": "rhf"
			}
		],
		"cosmo_sigma_profile": { 
			"-0.025": 0.0,
			"-0.024": 0.0,
			"-0.023": 0.0,
			"-0.022": 0.0,
			"-0.021": 0.0,
			"-0.02": 0.0,
			"-0.019": 0.0,
			"-0.018": 0.0,
			"-0.017": 0.0,
			"-0.016": 0.0,
			"-0.015": 0.0,
			"-0.014": 0.152924064015,
			"-0.013": 2.23488895701,
			"-0.012": 3.15005941817,
			"-0.011": 2.43006177182,
			"-0.01": 3.5607981942,
			"-0.009": 2.9830413799,
			"-0.008": 2.9031225997,
			"-0.007": 3.59786629289,
			"-0.006": 6.64353587773,
			"-0.005": 8.69904294019,
			"-0.004": 8.51843895441,
			"-0.003": 6.88377521053,
			"-0.002": 5.93218435502,
			"-0.001": 5.7936020431,
			"0.0": 5.17650923187,
			"0.001": 6.49098298087,
			"0.002": 6.56210202241,
			"0.003": 7.86636441722,
			"0.004": 15.5755573371,
			"0.005": 7.06993789899,
			"0.006": 2.9443340239,
			"0.007": 2.68056290772,
			"0.008": 1.95415486878,
			"0.009": 2.43786724511,
			"0.01": 2.3171248408,
			"0.011": 1.17126634067,
			"0.012": 1.67456906221,
			"0.013": 1.12815681411,
			"0.014": 1.11740059852,
			"0.015": 0.87775389208,
			"0.016": 0.907326925858,
			"0.017": 0.953883959164,
			"0.018": 0.779952228397,
			"0.019": 0.0158583965302,
			"0.02": 0.0,
			"0.021": 0.0,
			"0.022": 0.0,
			"0.023": 0.0,
			"0.024": 0.0,
			"0.025": 0.0
		}
	}
}
