{
	 "smiles": "CNC(=O)OC1=CC=CC=C1OC(C)C", 
	 "Tm": 363.95, 
	 "num_atms": 30, 
	 "gaussian": { 
		 "optdone": 1, 
		 "sigma_profile": "yes", 
		 "theory": "DFT", 
		 "functional": "B3LYP", 
		 "basiset": "6-31G**", 
		 "properties": { 
			 "R2extent": 3109.2399, 
			 "electric_dipole_moment_norm": 4.74271886685, 
			 "electric_quadrupole_moment_norm": 13.9665123646, 
			 "total_energy": -708.630422879, 
			 "HOMO_LUMO_gap": 0.21305, 
			 "cosmo_polarized_energy": -15.23, 
			 "cosmo_cavitation_energy": 32.53, 
			 "cosmo_dispersion_energy": -22.24, 
			 "cosmo_repulsion_energy": 1.76, 
			 "cosmo_total_nonelectrostatic_energy": 12.05, 
			 "SMD_solvation_energy": 7.23 
		},
		"coords": [
			{
				"x": 2.4132943416,
				"y": 0.9482823356,
				"z": 1.4946170565,
				"element": "C" 
			},
			{
				"x": 2.3408128185,
				"y": -0.4281699504,
				"z": 1.0066873267,
				"element": "N" 
			},
			{
				"x": 2.3036745017,
				"y": -0.790512103,
				"z": -0.3222977045,
				"element": "C" 
			},
			{
				"x": 2.7879595992,
				"y": -1.8070037458,
				"z": -0.7579896759,
				"element": "O" 
			},
			{
				"x": 1.7303613447,
				"y": 0.1418978299,
				"z": -1.1726209012,
				"element": "O" 
			},
			{
				"x": 0.4783759786,
				"y": 0.6870507689,
				"z": -0.9440958495,
				"element": "C" 
			},
			{
				"x": 0.3073455894,
				"y": 2.0427190696,
				"z": -1.2096792372,
				"element": "C" 
			},
			{
				"x": -0.9491295026,
				"y": 2.6354038818,
				"z": -1.0692560401,
				"element": "C" 
			},
			{
				"x": -2.0314768788,
				"y": 1.8570287082,
				"z": -0.6652458199,
				"element": "C" 
			},
			{
				"x": -1.8694415566,
				"y": 0.4908765044,
				"z": -0.4192683511,
				"element": "C" 
			},
			{
				"x": -0.6167218117,
				"y": -0.1186462415,
				"z": -0.5603087342,
				"element": "C" 
			},
			{
				"x": -0.342819147,
				"y": -1.4442450794,
				"z": -0.426915032,
				"element": "O" 
			},
			{
				"x": -1.0326639711,
				"y": -2.3356328547,
				"z": 0.4825901574,
				"element": "C" 
			},
			{
				"x": -2.330033228,
				"y": -2.8796800195,
				"z": -0.1200904961,
				"element": "C" 
			},
			{
				"x": -1.1860822096,
				"y": -1.7538985118,
				"z": 1.8871630553,
				"element": "C" 
			},
			{
				"x": 1.5159422244,
				"y": 1.5054379964,
				"z": 1.2251260754,
				"element": "H" 
			},
			{
				"x": 3.2893311798,
				"y": 1.4884498331,
				"z": 1.1125152364,
				"element": "H" 
			},
			{
				"x": 2.4751216843,
				"y": 0.91743926,
				"z": 2.5847870327,
				"element": "H" 
			},
			{
				"x": 2.8878172454,
				"y": -1.1013623949,
				"z": 1.5268564571,
				"element": "H" 
			},
			{
				"x": 1.173521885,
				"y": 2.6161873215,
				"z": -1.5240647416,
				"element": "H" 
			},
			{
				"x": -1.0747401688,
				"y": 3.6936795107,
				"z": -1.2747552154,
				"element": "H" 
			},
			{
				"x": -3.0150758039,
				"y": 2.3027966504,
				"z": -0.5515303429,
				"element": "H" 
			},
			{
				"x": -2.7280929,
				"y": -0.1058431582,
				"z": -0.1404929751,
				"element": "H" 
			},
			{
				"x": -0.3225460075,
				"y": -3.1672820434,
				"z": 0.5380582026,
				"element": "H" 
			},
			{
				"x": -2.1586037852,
				"y": -3.2021217803,
				"z": -1.1505159306,
				"element": "H" 
			},
			{
				"x": -2.6655874248,
				"y": -3.7468337525,
				"z": 0.4587320311,
				"element": "H" 
			},
			{
				"x": -3.1415455214,
				"y": -2.1469607022,
				"z": -0.1172623606,
				"element": "H" 
			},
			{
				"x": -0.2214270474,
				"y": -1.3870175238,
				"z": 2.2478588249,
				"element": "H" 
			},
			{
				"x": -1.9057937789,
				"y": -0.9323511039,
				"z": 1.9252437678,
				"element": "H" 
			},
			{
				"x": -1.5350776494,
				"y": -2.5381887051,
				"z": 2.566554184,
				"element": "H" 
			}
		],
		 "valence_orbital": [ 
			{
				"type": "occ",
				"energy": -0.29817,
				"method": "rhf"
			},
			{
				"type": "occ",
				"energy": -0.27225,
				"method": "rhf"
			},
			{
				"type": "occ",
				"energy": -0.25114,
				"method": "rhf"
			},
			{
				"type": "occ",
				"energy": -0.24333,
				"method": "rhf"
			},
			{
				"type": "occ",
				"energy": -0.21639,
				"method": "rhf"
			},
			{
				"type": "unocc",
				"energy": -0.00334,
				"method": "rhf"
			},
			{
				"type": "unocc",
				"energy": 0.00594,
				"method": "rhf"
			},
			{
				"type": "unocc",
				"energy": 0.04039,
				"method": "rhf"
			},
			{
				"type": "unocc",
				"energy": 0.07323,
				"method": "rhf"
			},
			{
				"type": "unocc",
				"energy": 0.07579,
				"method": "rhf"
			}
		],
		"cosmo_sigma_profile": { 
			"-0.025": 0.0,
			"-0.024": 0.0,
			"-0.023": 0.0,
			"-0.022": 0.0,
			"-0.021": 0.0,
			"-0.02": 0.0,
			"-0.019": 0.0,
			"-0.018": 0.0,
			"-0.017": 0.0,
			"-0.016": 0.0,
			"-0.015": 0.0,
			"-0.014": 0.537897002874,
			"-0.013": 1.20211904041,
			"-0.012": 1.34698112941,
			"-0.011": 0.914999450324,
			"-0.01": 0.909224012976,
			"-0.009": 1.14981530477,
			"-0.008": 0.992596977561,
			"-0.007": 4.28096788845,
			"-0.006": 9.87970435124,
			"-0.005": 15.506931957,
			"-0.004": 26.9031743179,
			"-0.003": 25.3836896451,
			"-0.002": 26.1250671925,
			"-0.001": 23.1300643334,
			"0.0": 24.3212163217,
			"0.001": 15.4206871892,
			"0.002": 11.8542664069,
			"0.003": 12.6544601388,
			"0.004": 12.1592306157,
			"0.005": 9.28610230442,
			"0.006": 4.01874650223,
			"0.007": 2.88818925413,
			"0.008": 2.6203349549,
			"0.009": 3.20108197918,
			"0.01": 3.45462265631,
			"0.011": 3.10435141045,
			"0.012": 5.9559028148,
			"0.013": 5.67699216165,
			"0.014": 1.59844890704,
			"0.015": 0.0701978066738,
			"0.016": 0.0,
			"0.017": 0.0,
			"0.018": 0.0,
			"0.019": 0.0,
			"0.02": 0.0,
			"0.021": 0.0,
			"0.022": 0.0,
			"0.023": 0.0,
			"0.024": 0.0,
			"0.025": 0.0
		}
	}
}
