{
	 "smiles": "O=C1CCCO1", 
	 "Tm": 229.85, 
	 "num_atms": 12, 
	 "gaussian": { 
		 "optdone": 1, 
		 "sigma_profile": "yes", 
		 "theory": "DFT", 
		 "functional": "B3LYP", 
		 "basiset": "6-31G**", 
		 "properties": { 
			 "R2extent": 960.1772, 
			 "electric_dipole_moment_norm": 4.47352253375, 
			 "electric_quadrupole_moment_norm": 12.2488884406, 
			 "total_energy": -306.495461464, 
			 "HOMO_LUMO_gap": 0.27737, 
			 "cosmo_polarized_energy": -10.15, 
			 "cosmo_cavitation_energy": 15.09, 
			 "cosmo_dispersion_energy": -11.78, 
			 "cosmo_repulsion_energy": 1.04, 
			 "cosmo_total_nonelectrostatic_energy": 4.35, 
			 "SMD_solvation_energy": 3.75 
		},
		"coords": [
			{
				"x": -0.6550913639,
				"y": 2.2870704598,
				"z": -1.581314548,
				"element": "O" 
			},
			{
				"x": -1.0320621978,
				"y": 1.5716309589,
				"z": -0.6913286648,
				"element": "C" 
			},
			{
				"x": -0.8282692851,
				"y": 0.0669789492,
				"z": -0.5279440838,
				"element": "C" 
			},
			{
				"x": -1.1458411426,
				"y": -0.1780627198,
				"z": 0.9500778823,
				"element": "C" 
			},
			{
				"x": -2.1258005359,
				"y": 0.9671658752,
				"z": 1.2550691786,
				"element": "C" 
			},
			{
				"x": -1.7559991181,
				"y": 2.0414541722,
				"z": 0.368565729,
				"element": "O" 
			},
			{
				"x": -1.5371326411,
				"y": -0.4424021239,
				"z": -1.1923743156,
				"element": "H" 
			},
			{
				"x": 0.1782429415,
				"y": -0.2143525026,
				"z": -0.8415250275,
				"element": "H" 
			},
			{
				"x": -0.2410275576,
				"y": -0.0708111694,
				"z": 1.5567374698,
				"element": "H" 
			},
			{
				"x": -1.5775999959,
				"y": -1.1600494523,
				"z": 1.1572035938,
				"element": "H" 
			},
			{
				"x": -2.0644182368,
				"y": 1.343116684,
				"z": 2.2785931981,
				"element": "H" 
			},
			{
				"x": -3.1649008667,
				"y": 0.6847608688,
				"z": 1.045339588,
				"element": "H" 
			}
		],
		 "valence_orbital": [ 
			{
				"type": "occ",
				"energy": -0.3794,
				"method": "rhf"
			},
			{
				"type": "occ",
				"energy": -0.35614,
				"method": "rhf"
			},
			{
				"type": "occ",
				"energy": -0.35152,
				"method": "rhf"
			},
			{
				"type": "occ",
				"energy": -0.2938,
				"method": "rhf"
			},
			{
				"type": "occ",
				"energy": -0.2649,
				"method": "rhf"
			},
			{
				"type": "unocc",
				"energy": 0.01247,
				"method": "rhf"
			},
			{
				"type": "unocc",
				"energy": 0.07482,
				"method": "rhf"
			},
			{
				"type": "unocc",
				"energy": 0.10355,
				"method": "rhf"
			},
			{
				"type": "unocc",
				"energy": 0.11565,
				"method": "rhf"
			},
			{
				"type": "unocc",
				"energy": 0.13323,
				"method": "rhf"
			}
		],
		"cosmo_sigma_profile": { 
			"-0.025": 0.0,
			"-0.024": 0.0,
			"-0.023": 0.0,
			"-0.022": 0.0,
			"-0.021": 0.0,
			"-0.02": 0.0,
			"-0.019": 0.0,
			"-0.018": 0.0,
			"-0.017": 0.0,
			"-0.016": 0.0,
			"-0.015": 0.0,
			"-0.014": 0.0,
			"-0.013": 0.0,
			"-0.012": 0.0,
			"-0.011": 0.0,
			"-0.01": 0.0,
			"-0.009": 0.0,
			"-0.008": 0.0641022036273,
			"-0.007": 3.63280841932,
			"-0.006": 11.9623760533,
			"-0.005": 18.8544604525,
			"-0.004": 17.623826459,
			"-0.003": 10.7386766705,
			"-0.002": 8.76734110951,
			"-0.001": 6.18900250563,
			"0.0": 2.6949736867,
			"0.001": 1.75404696079,
			"0.002": 1.98747577099,
			"0.003": 2.06924905747,
			"0.004": 1.72724973926,
			"0.005": 2.2220073154,
			"0.006": 2.38643242208,
			"0.007": 2.11780163084,
			"0.008": 2.29343751832,
			"0.009": 2.83379958294,
			"0.01": 5.33857391543,
			"0.011": 4.62157647939,
			"0.012": 6.15483743962,
			"0.013": 2.72338126208,
			"0.014": 0.0884308963519,
			"0.015": 0.0,
			"0.016": 0.0,
			"0.017": 0.0,
			"0.018": 0.0,
			"0.019": 0.0,
			"0.02": 0.0,
			"0.021": 0.0,
			"0.022": 0.0,
			"0.023": 0.0,
			"0.024": 0.0,
			"0.025": 0.0
		}
	}
}
