{
	 "smiles": "OC(=O)C(OC1=C(Cl)C=C(F)C=C1)C1=CC=CC=C1", 
	 "Tm": 408.15, 
	 "num_atms": 29, 
	 "gaussian": { 
		 "optdone": 1, 
		 "sigma_profile": "yes", 
		 "theory": "DFT", 
		 "functional": "B3LYP", 
		 "basiset": "6-31G**", 
		 "properties": { 
			 "R2extent": 6736.5792, 
			 "electric_dipole_moment_norm": 3.97907327527, 
			 "electric_quadrupole_moment_norm": 20.1315209617, 
			 "total_energy": -1325.20999593, 
			 "HOMO_LUMO_gap": 0.20513, 
			 "cosmo_polarized_energy": -13.21, 
			 "cosmo_cavitation_energy": 36.25, 
			 "cosmo_dispersion_energy": -25.06, 
			 "cosmo_repulsion_energy": 1.91, 
			 "cosmo_total_nonelectrostatic_energy": 13.09, 
			 "SMD_solvation_energy": 7.71 
		},
		"coords": [
			{
				"x": 1.85709796,
				"y": 2.4414370389,
				"z": -2.7820447623,
				"element": "O" 
			},
			{
				"x": 0.5770892319,
				"y": 2.1283935789,
				"z": -2.543746964,
				"element": "C" 
			},
			{
				"x": -0.3449016916,
				"y": 2.6104016117,
				"z": -3.1523830051,
				"element": "O" 
			},
			{
				"x": 0.3334532671,
				"y": 1.1082733376,
				"z": -1.4026884109,
				"element": "C" 
			},
			{
				"x": 1.616151315,
				"y": 0.7701856212,
				"z": -0.8606905721,
				"element": "O" 
			},
			{
				"x": 1.7404947955,
				"y": 0.4771110976,
				"z": 0.4725709504,
				"element": "C" 
			},
			{
				"x": 3.0148797026,
				"y": 0.6313432046,
				"z": 1.0443445061,
				"element": "C" 
			},
			{
				"x": 4.3413058911,
				"y": 1.2098303279,
				"z": 0.0584327699,
				"element": "Cl" 
			},
			{
				"x": 3.2380029833,
				"y": 0.3381807298,
				"z": 2.386310951,
				"element": "C" 
			},
			{
				"x": 2.16884513,
				"y": -0.106962041,
				"z": 3.156506795,
				"element": "C" 
			},
			{
				"x": 2.3816388781,
				"y": -0.3865525973,
				"z": 4.4568562132,
				"element": "F" 
			},
			{
				"x": 0.898797819,
				"y": -0.270786371,
				"z": 2.6213756689,
				"element": "C" 
			},
			{
				"x": 0.6896937728,
				"y": 0.0178003215,
				"z": 1.2721402296,
				"element": "C" 
			},
			{
				"x": -0.4388356889,
				"y": -0.1034974761,
				"z": -1.8982710799,
				"element": "C" 
			},
			{
				"x": 0.2106195951,
				"y": -1.3144997814,
				"z": -2.1585150137,
				"element": "C" 
			},
			{
				"x": -0.513719405,
				"y": -2.4084216807,
				"z": -2.6356340866,
				"element": "C" 
			},
			{
				"x": -1.8861146447,
				"y": -2.2978003018,
				"z": -2.8620810116,
				"element": "C" 
			},
			{
				"x": -2.5347394574,
				"y": -1.0868408446,
				"z": -2.6095328036,
				"element": "C" 
			},
			{
				"x": -1.815988853,
				"y": 0.0067605558,
				"z": -2.1282684914,
				"element": "C" 
			},
			{
				"x": 2.4166608851,
				"y": 1.9559997082,
				"z": -2.1478478167,
				"element": "H" 
			},
			{
				"x": -0.2513752939,
				"y": 1.6455680254,
				"z": -0.6454740227,
				"element": "H" 
			},
			{
				"x": 4.2192426128,
				"y": 0.4598068339,
				"z": 2.8285180281,
				"element": "H" 
			},
			{
				"x": 0.0908117916,
				"y": -0.6284153605,
				"z": 3.2492411722,
				"element": "H" 
			},
			{
				"x": -0.2894763321,
				"y": -0.1393284337,
				"z": 0.8357594407,
				"element": "H" 
			},
			{
				"x": 1.2779042948,
				"y": -1.4000445439,
				"z": -1.9834978301,
				"element": "H" 
			},
			{
				"x": -0.0023177567,
				"y": -3.3463188721,
				"z": -2.8317391557,
				"element": "H" 
			},
			{
				"x": -2.4480084024,
				"y": -3.1498515843,
				"z": -3.2332955995,
				"element": "H" 
			},
			{
				"x": -3.602089591,
				"y": -0.9924486228,
				"z": -2.7863897381,
				"element": "H" 
			},
			{
				"x": -2.3170228091,
				"y": 0.9528765181,
				"z": -1.9491563611,
				"element": "H" 
			}
		],
		 "valence_orbital": [ 
			{
				"type": "occ",
				"energy": -0.28208,
				"method": "rhf"
			},
			{
				"type": "occ",
				"energy": -0.27591,
				"method": "rhf"
			},
			{
				"type": "occ",
				"energy": -0.2608,
				"method": "rhf"
			},
			{
				"type": "occ",
				"energy": -0.25656,
				"method": "rhf"
			},
			{
				"type": "occ",
				"energy": -0.2446,
				"method": "rhf"
			},
			{
				"type": "unocc",
				"energy": -0.03947,
				"method": "rhf"
			},
			{
				"type": "unocc",
				"energy": -0.02199,
				"method": "rhf"
			},
			{
				"type": "unocc",
				"energy": -0.01408,
				"method": "rhf"
			},
			{
				"type": "unocc",
				"energy": -0.01253,
				"method": "rhf"
			},
			{
				"type": "unocc",
				"energy": 0.00697,
				"method": "rhf"
			}
		],
		"cosmo_sigma_profile": { 
			"-0.025": 0.0,
			"-0.024": 0.0,
			"-0.023": 0.0,
			"-0.022": 0.0,
			"-0.021": 0.0,
			"-0.02": 0.0,
			"-0.019": 0.0,
			"-0.018": 0.0,
			"-0.017": 0.0,
			"-0.016": 0.0,
			"-0.015": 0.0,
			"-0.014": 0.0,
			"-0.013": 0.0,
			"-0.012": 0.0,
			"-0.011": 0.0,
			"-0.01": 0.81145933305,
			"-0.009": 5.11223161088,
			"-0.008": 9.46171738535,
			"-0.007": 9.85508007431,
			"-0.006": 15.0051884554,
			"-0.005": 17.3278145839,
			"-0.004": 18.7911373473,
			"-0.003": 17.5999263967,
			"-0.002": 17.4308041795,
			"-0.001": 17.9091998785,
			"0.0": 25.8177732397,
			"0.001": 29.4353321664,
			"0.002": 22.7619463444,
			"0.003": 21.0925869574,
			"0.004": 25.569525015,
			"0.005": 12.0163266173,
			"0.006": 3.60255653118,
			"0.007": 3.13570047882,
			"0.008": 4.13727718716,
			"0.009": 4.09302191062,
			"0.01": 4.47376773785,
			"0.011": 4.90783589624,
			"0.012": 2.69676812152,
			"0.013": 0.514375676519,
			"0.014": 0.0,
			"0.015": 0.0,
			"0.016": 0.0,
			"0.017": 0.0,
			"0.018": 0.0,
			"0.019": 0.0,
			"0.02": 0.0,
			"0.021": 0.0,
			"0.022": 0.0,
			"0.023": 0.0,
			"0.024": 0.0,
			"0.025": 0.0
		}
	}
}
