{
	 "smiles": "CC1=C(C)C(C)=C(C#N)C(C)=C1C", 
	 "Tm": 432.15, 
	 "num_atms": 28, 
	 "gaussian": { 
		 "optdone": 1, 
		 "sigma_profile": "yes", 
		 "theory": "DFT", 
		 "functional": "B3LYP", 
		 "basiset": "6-31G**", 
		 "properties": { 
			 "R2extent": 2966.9977, 
			 "electric_dipole_moment_norm": 5.02860771487, 
			 "electric_quadrupole_moment_norm": 22.0026229543, 
			 "total_energy": -521.08293775, 
			 "HOMO_LUMO_gap": 0.20197, 
			 "cosmo_polarized_energy": -8.43, 
			 "cosmo_cavitation_energy": 29.6, 
			 "cosmo_dispersion_energy": -21.09, 
			 "cosmo_repulsion_energy": 1.64, 
			 "cosmo_total_nonelectrostatic_energy": 10.15, 
			 "SMD_solvation_energy": 6.06 
		},
		"coords": [
			{
				"x": -2.0702180535,
				"y": -0.3116799896,
				"z": -0.4401167536,
				"element": "C" 
			},
			{
				"x": -0.6489324707,
				"y": -0.3119527107,
				"z": 0.0832722244,
				"element": "C" 
			},
			{
				"x": 0.2907932944,
				"y": 0.592752394,
				"z": -0.4542680905,
				"element": "C" 
			},
			{
				"x": -0.1429438984,
				"y": 1.5816554133,
				"z": -1.5176301807,
				"element": "C" 
			},
			{
				"x": 1.6211006115,
				"y": 0.5726757414,
				"z": -0.0033242873,
				"element": "C" 
			},
			{
				"x": 2.660173843,
				"y": 1.511313486,
				"z": -0.5766251575,
				"element": "C" 
			},
			{
				"x": 1.976243476,
				"y": -0.3542148372,
				"z": 1.0018784089,
				"element": "C" 
			},
			{
				"x": 3.335640022,
				"y": -0.3871093214,
				"z": 1.4648444741,
				"element": "C" 
			},
			{
				"x": 4.4378838005,
				"y": -0.4138667514,
				"z": 1.8402065634,
				"element": "N" 
			},
			{
				"x": 1.0402552441,
				"y": -1.244992798,
				"z": 1.5729854944,
				"element": "C" 
			},
			{
				"x": 1.4700272103,
				"y": -2.2131632325,
				"z": 2.6534009716,
				"element": "C" 
			},
			{
				"x": -0.2852305827,
				"y": -1.2098545103,
				"z": 1.1089542829,
				"element": "C" 
			},
			{
				"x": -1.3300181489,
				"y": -2.1327542946,
				"z": 1.7034890745,
				"element": "C" 
			},
			{
				"x": -2.5301500408,
				"y": -1.2987940831,
				"z": -0.3669469028,
				"element": "H" 
			},
			{
				"x": -2.1173547567,
				"y": -0.0074758343,
				"z": -1.4872774442,
				"element": "H" 
			},
			{
				"x": -2.7069143395,
				"y": 0.3826482933,
				"z": 0.1255725818,
				"element": "H" 
			},
			{
				"x": -1.0812879299,
				"y": 2.0750925343,
				"z": -1.2464040549,
				"element": "H" 
			},
			{
				"x": 0.5991746552,
				"y": 2.3632896247,
				"z": -1.6777494612,
				"element": "H" 
			},
			{
				"x": -0.3084810246,
				"y": 1.0897900677,
				"z": -2.4850634443,
				"element": "H" 
			},
			{
				"x": 2.4167816294,
				"y": 2.557865473,
				"z": -0.3593596003,
				"element": "H" 
			},
			{
				"x": 3.6500859837,
				"y": 1.3135661707,
				"z": -0.1639986706,
				"element": "H" 
			},
			{
				"x": 2.7278698855,
				"y": 1.4147467903,
				"z": -1.6654255628,
				"element": "H" 
			},
			{
				"x": 2.5424125023,
				"y": -2.1527999948,
				"z": 2.8421780464,
				"element": "H" 
			},
			{
				"x": 0.9577040944,
				"y": -2.0082593142,
				"z": 3.6006362717,
				"element": "H" 
			},
			{
				"x": 1.238120293,
				"y": -3.2474284732,
				"z": 2.3778779617,
				"element": "H" 
			},
			{
				"x": -2.2541237689,
				"y": -1.5944234731,
				"z": 1.9353661316,
				"element": "H" 
			},
			{
				"x": -0.9872585445,
				"y": -2.599600703,
				"z": 2.6264694105,
				"element": "H" 
			},
			{
				"x": -1.5967529865,
				"y": -2.9421256673,
				"z": 1.0113577127,
				"element": "H" 
			}
		],
		 "valence_orbital": [ 
			{
				"type": "occ",
				"energy": -0.33737,
				"method": "rhf"
			},
			{
				"type": "occ",
				"energy": -0.31765,
				"method": "rhf"
			},
			{
				"type": "occ",
				"energy": -0.31517,
				"method": "rhf"
			},
			{
				"type": "occ",
				"energy": -0.23871,
				"method": "rhf"
			},
			{
				"type": "occ",
				"energy": -0.23645,
				"method": "rhf"
			},
			{
				"type": "unocc",
				"energy": -0.03448,
				"method": "rhf"
			},
			{
				"type": "unocc",
				"energy": -0.00788,
				"method": "rhf"
			},
			{
				"type": "unocc",
				"energy": 0.04748,
				"method": "rhf"
			},
			{
				"type": "unocc",
				"energy": 0.07699,
				"method": "rhf"
			},
			{
				"type": "unocc",
				"energy": 0.08042,
				"method": "rhf"
			}
		],
		"cosmo_sigma_profile": { 
			"-0.025": 0.0,
			"-0.024": 0.0,
			"-0.023": 0.0,
			"-0.022": 0.0,
			"-0.021": 0.0,
			"-0.02": 0.0,
			"-0.019": 0.0,
			"-0.018": 0.0,
			"-0.017": 0.0,
			"-0.016": 0.0,
			"-0.015": 0.0,
			"-0.014": 0.0,
			"-0.013": 0.0,
			"-0.012": 0.0,
			"-0.011": 0.0,
			"-0.01": 0.0,
			"-0.009": 0.0,
			"-0.008": 0.0,
			"-0.007": 0.0,
			"-0.006": 0.0,
			"-0.005": 6.16929057291,
			"-0.004": 25.5624868856,
			"-0.003": 31.0644767629,
			"-0.002": 30.5274762365,
			"-0.001": 39.0655618564,
			"0.0": 33.9170800786,
			"0.001": 16.3550341158,
			"0.002": 8.91751730024,
			"0.003": 8.40157064391,
			"0.004": 9.45159553051,
			"0.005": 2.88983375072,
			"0.006": 2.03128869559,
			"0.007": 2.53585672182,
			"0.008": 2.2662075613,
			"0.009": 2.50549152851,
			"0.01": 3.07263465505,
			"0.011": 2.99020310748,
			"0.012": 2.76523485813,
			"0.013": 2.53956166809,
			"0.014": 0.803711317931,
			"0.015": 0.0,
			"0.016": 0.0,
			"0.017": 0.0,
			"0.018": 0.0,
			"0.019": 0.0,
			"0.02": 0.0,
			"0.021": 0.0,
			"0.022": 0.0,
			"0.023": 0.0,
			"0.024": 0.0,
			"0.025": 0.0
		}
	}
}
