{
	 "smiles": "O=CC1=CN=C(S1)N1CCOCC1", 
	 "Tm": 437.15, 
	 "num_atms": 23, 
	 "gaussian": { 
		 "optdone": 1, 
		 "sigma_profile": "yes", 
		 "theory": "DFT", 
		 "functional": "B3LYP", 
		 "basiset": "6-31G**", 
		 "properties": { 
			 "R2extent": 3574.0265, 
			 "electric_dipole_moment_norm": 4.87455546281, 
			 "electric_quadrupole_moment_norm": 18.4703789195, 
			 "total_energy": -968.981566559, 
			 "HOMO_LUMO_gap": 0.15846, 
			 "cosmo_polarized_energy": -13.16, 
			 "cosmo_cavitation_energy": 27.71, 
			 "cosmo_dispersion_energy": -21.22, 
			 "cosmo_repulsion_energy": 1.63, 
			 "cosmo_total_nonelectrostatic_energy": 8.12, 
			 "SMD_solvation_energy": 3.54 
		},
		"coords": [
			{
				"x": -2.9968066427,
				"y": 1.3988684322,
				"z": 4.1477771879,
				"element": "O" 
			},
			{
				"x": -1.8370628244,
				"y": 1.1785788615,
				"z": 3.832608237,
				"element": "C" 
			},
			{
				"x": -1.412669076,
				"y": 0.9044818311,
				"z": 2.4685521042,
				"element": "C" 
			},
			{
				"x": -2.1971809252,
				"y": 0.8499465777,
				"z": 1.3395229729,
				"element": "C" 
			},
			{
				"x": -1.5858070951,
				"y": 0.5766692747,
				"z": 0.1581875939,
				"element": "N" 
			},
			{
				"x": -0.2856385177,
				"y": 0.4179539048,
				"z": 0.3317955028,
				"element": "C" 
			},
			{
				"x": 0.2616707025,
				"y": 0.5743527877,
				"z": 2.0097434538,
				"element": "S" 
			},
			{
				"x": 0.5793247109,
				"y": 0.1781214853,
				"z": -0.6895271206,
				"element": "N" 
			},
			{
				"x": 1.9697562232,
				"y": -0.2053832408,
				"z": -0.4549025514,
				"element": "C" 
			},
			{
				"x": 2.8303746014,
				"y": 0.2346202061,
				"z": -1.6418925137,
				"element": "C" 
			},
			{
				"x": 2.3143794532,
				"y": -0.2562232951,
				"z": -2.8674320157,
				"element": "O" 
			},
			{
				"x": 1.0023868253,
				"y": 0.2429495834,
				"z": -3.0973274924,
				"element": "C" 
			},
			{
				"x": 0.0399512486,
				"y": -0.2055888637,
				"z": -2.0017170448,
				"element": "C" 
			},
			{
				"x": -1.0283935666,
				"y": 1.1772903541,
				"z": 4.5954923752,
				"element": "H" 
			},
			{
				"x": -3.2682919325,
				"y": 1.0150141086,
				"z": 1.3659676777,
				"element": "H" 
			},
			{
				"x": 2.3361126137,
				"y": 0.2799468257,
				"z": 0.4544786749,
				"element": "H" 
			},
			{
				"x": 2.0479035583,
				"y": -1.2949078821,
				"z": -0.3190664435,
				"element": "H" 
			},
			{
				"x": 2.8873858272,
				"y": 1.3350173437,
				"z": -1.6635750908,
				"element": "H" 
			},
			{
				"x": 3.8422949988,
				"y": -0.166478762,
				"z": -1.538521324,
				"element": "H" 
			},
			{
				"x": 1.0191760617,
				"y": 1.3431975867,
				"z": -3.1528520273,
				"element": "H" 
			},
			{
				"x": 0.6805806213,
				"y": -0.15148452,
				"z": -4.0648684936,
				"element": "H" 
			},
			{
				"x": -0.9399118037,
				"y": 0.2582502659,
				"z": -2.1176938867,
				"element": "H" 
			},
			{
				"x": -0.087135062,
				"y": -1.2975928654,
				"z": -2.0431497757,
				"element": "H" 
			}
		],
		 "valence_orbital": [ 
			{
				"type": "occ",
				"energy": -0.29064,
				"method": "rhf"
			},
			{
				"type": "occ",
				"energy": -0.28891,
				"method": "rhf"
			},
			{
				"type": "occ",
				"energy": -0.2747,
				"method": "rhf"
			},
			{
				"type": "occ",
				"energy": -0.24655,
				"method": "rhf"
			},
			{
				"type": "occ",
				"energy": -0.21559,
				"method": "rhf"
			},
			{
				"type": "unocc",
				"energy": -0.05713,
				"method": "rhf"
			},
			{
				"type": "unocc",
				"energy": -0.00053,
				"method": "rhf"
			},
			{
				"type": "unocc",
				"energy": 0.01561,
				"method": "rhf"
			},
			{
				"type": "unocc",
				"energy": 0.06497,
				"method": "rhf"
			},
			{
				"type": "unocc",
				"energy": 0.08463,
				"method": "rhf"
			}
		],
		"cosmo_sigma_profile": { 
			"-0.025": 0.0,
			"-0.024": 0.0,
			"-0.023": 0.0,
			"-0.022": 0.0,
			"-0.021": 0.0,
			"-0.02": 0.0,
			"-0.019": 0.0,
			"-0.018": 0.0,
			"-0.017": 0.0,
			"-0.016": 0.0,
			"-0.015": 0.0,
			"-0.014": 0.0,
			"-0.013": 0.0,
			"-0.012": 0.0,
			"-0.011": 0.0,
			"-0.01": 0.0,
			"-0.009": 0.0444300116751,
			"-0.008": 1.99597523545,
			"-0.007": 6.73645531844,
			"-0.006": 16.9797629554,
			"-0.005": 27.9471302168,
			"-0.004": 24.6727980917,
			"-0.003": 17.3744416215,
			"-0.002": 12.33874108,
			"-0.001": 11.9958133387,
			"0.0": 13.5822139715,
			"0.001": 14.7175048652,
			"0.002": 15.4381689174,
			"0.003": 9.3879332549,
			"0.004": 6.66480105,
			"0.005": 4.31458358051,
			"0.006": 5.02822678629,
			"0.007": 3.53150286013,
			"0.008": 3.3158739788,
			"0.009": 4.45605523153,
			"0.01": 4.18994161325,
			"0.011": 5.99995737019,
			"0.012": 7.01642218301,
			"0.013": 3.77232040785,
			"0.014": 0.396868407696,
			"0.015": 0.0,
			"0.016": 0.0,
			"0.017": 0.0,
			"0.018": 0.0,
			"0.019": 0.0,
			"0.02": 0.0,
			"0.021": 0.0,
			"0.022": 0.0,
			"0.023": 0.0,
			"0.024": 0.0,
			"0.025": 0.0
		}
	}
}
