{
	 "smiles": "CCCC(C)(CO)CO", 
	 "Tm": 335.65, 
	 "num_atms": 25, 
	 "gaussian": { 
		 "optdone": 1, 
		 "sigma_profile": "yes", 
		 "theory": "DFT", 
		 "functional": "B3LYP", 
		 "basiset": "6-31G**", 
		 "properties": { 
			 "R2extent": 1942.0747, 
			 "electric_dipole_moment_norm": 2.34662149057, 
			 "electric_quadrupole_moment_norm": 7.46333351258, 
			 "total_energy": -426.82525061, 
			 "HOMO_LUMO_gap": 0.31846, 
			 "cosmo_polarized_energy": -9.88, 
			 "cosmo_cavitation_energy": 24.75, 
			 "cosmo_dispersion_energy": -17.98, 
			 "cosmo_repulsion_energy": 1.46, 
			 "cosmo_total_nonelectrostatic_energy": 8.24, 
			 "SMD_solvation_energy": 4.03 
		},
		"coords": [
			{
				"x": 2.6527079909,
				"y": 2.0519434795,
				"z": 1.6981961967,
				"element": "C" 
			},
			{
				"x": 1.3969210958,
				"y": 1.4217598919,
				"z": 2.319399213,
				"element": "C" 
			},
			{
				"x": 0.0706772581,
				"y": 1.7236736618,
				"z": 1.5875589313,
				"element": "C" 
			},
			{
				"x": -0.3672939491,
				"y": 0.7964149638,
				"z": 0.4208117195,
				"element": "C" 
			},
			{
				"x": -0.5695114976,
				"y": -0.6505274781,
				"z": 0.9084972866,
				"element": "C" 
			},
			{
				"x": -1.7026779472,
				"y": 1.3383641362,
				"z": -0.1481723464,
				"element": "C" 
			},
			{
				"x": -2.7458153715,
				"y": 1.4558105419,
				"z": 0.812459751,
				"element": "O" 
			},
			{
				"x": 0.6534001177,
				"y": 0.7691723515,
				"z": -0.7375193753,
				"element": "C" 
			},
			{
				"x": 0.9313084542,
				"y": 2.0423594267,
				"z": -1.3051175322,
				"element": "O" 
			},
			{
				"x": 2.8716216443,
				"y": 1.6664290924,
				"z": 0.6966109469,
				"element": "H" 
			},
			{
				"x": 2.5477118759,
				"y": 3.1415726443,
				"z": 1.625698077,
				"element": "H" 
			},
			{
				"x": 3.5370354317,
				"y": 1.8536744034,
				"z": 2.3129043576,
				"element": "H" 
			},
			{
				"x": 1.5431631891,
				"y": 0.3395768313,
				"z": 2.4206388547,
				"element": "H" 
			},
			{
				"x": 1.3088671559,
				"y": 1.8001617825,
				"z": 3.345193682,
				"element": "H" 
			},
			{
				"x": -0.7515803364,
				"y": 1.710599158,
				"z": 2.3099376824,
				"element": "H" 
			},
			{
				"x": 0.099830926,
				"y": 2.7585639661,
				"z": 1.2169292769,
				"element": "H" 
			},
			{
				"x": -1.2821577766,
				"y": -0.6928366119,
				"z": 1.7398915467,
				"element": "H" 
			},
			{
				"x": 0.3628636913,
				"y": -1.1005767666,
				"z": 1.2630547651,
				"element": "H" 
			},
			{
				"x": -0.951147344,
				"y": -1.2876955241,
				"z": 0.1013571067,
				"element": "H" 
			},
			{
				"x": -1.5400658158,
				"y": 2.3440145274,
				"z": -0.5441225344,
				"element": "H" 
			},
			{
				"x": -2.0158093086,
				"y": 0.7027350812,
				"z": -0.9928753711,
				"element": "H" 
			},
			{
				"x": -3.031299889,
				"y": 0.5654741791,
				"z": 1.0519166458,
				"element": "H" 
			},
			{
				"x": 0.2498221334,
				"y": 0.1671134724,
				"z": -1.560508906,
				"element": "H" 
			},
			{
				"x": 1.5756003951,
				"y": 0.2683259029,
				"z": -0.4050268496,
				"element": "H" 
			},
			{
				"x": 1.3961278764,
				"y": 2.5685968862,
				"z": -0.6425131248,
				"element": "H" 
			}
		],
		 "valence_orbital": [ 
			{
				"type": "occ",
				"energy": -0.32562,
				"method": "rhf"
			},
			{
				"type": "occ",
				"energy": -0.31363,
				"method": "rhf"
			},
			{
				"type": "occ",
				"energy": -0.31167,
				"method": "rhf"
			},
			{
				"type": "occ",
				"energy": -0.26903,
				"method": "rhf"
			},
			{
				"type": "occ",
				"energy": -0.25421,
				"method": "rhf"
			},
			{
				"type": "unocc",
				"energy": 0.06425,
				"method": "rhf"
			},
			{
				"type": "unocc",
				"energy": 0.06666,
				"method": "rhf"
			},
			{
				"type": "unocc",
				"energy": 0.10051,
				"method": "rhf"
			},
			{
				"type": "unocc",
				"energy": 0.1144,
				"method": "rhf"
			},
			{
				"type": "unocc",
				"energy": 0.12203,
				"method": "rhf"
			}
		],
		"cosmo_sigma_profile": { 
			"-0.025": 0.0,
			"-0.024": 0.0,
			"-0.023": 0.0,
			"-0.022": 0.0,
			"-0.021": 0.0,
			"-0.02": 0.0,
			"-0.019": 0.0,
			"-0.018": 0.0,
			"-0.017": 0.0,
			"-0.016": 0.0,
			"-0.015": 0.129656168885,
			"-0.014": 0.76810091314,
			"-0.013": 0.969794519894,
			"-0.012": 0.879460205527,
			"-0.011": 1.873707173,
			"-0.01": 1.80921525579,
			"-0.009": 2.37591461101,
			"-0.008": 1.97897858842,
			"-0.007": 1.97186545889,
			"-0.006": 2.45046235913,
			"-0.005": 4.2506352984,
			"-0.004": 10.099666712,
			"-0.003": 24.510124426,
			"-0.002": 21.2858831501,
			"-0.001": 25.5809194654,
			"0.0": 25.2652652121,
			"0.001": 21.1413919398,
			"0.002": 7.50619174535,
			"0.003": 3.66376893379,
			"0.004": 3.75453769435,
			"0.005": 1.80642309457,
			"0.006": 2.16067012744,
			"0.007": 2.50692691938,
			"0.008": 2.73697856435,
			"0.009": 2.03150758188,
			"0.01": 2.34136506159,
			"0.011": 2.40059594639,
			"0.012": 3.09788746282,
			"0.013": 2.50629073847,
			"0.014": 3.89896514368,
			"0.015": 1.72979872146,
			"0.016": 0.0,
			"0.017": 0.0,
			"0.018": 0.0,
			"0.019": 0.0,
			"0.02": 0.0,
			"0.021": 0.0,
			"0.022": 0.0,
			"0.023": 0.0,
			"0.024": 0.0,
			"0.025": 0.0
		}
	}
}
