{
	 "smiles": "CN1C(=O)C2=C(C1=O)C(N)=CC=C2", 
	 "Tm": 473.15, 
	 "num_atms": 21, 
	 "gaussian": { 
		 "optdone": 1, 
		 "sigma_profile": "yes", 
		 "theory": "DFT", 
		 "functional": "B3LYP", 
		 "basiset": "6-31G**", 
		 "properties": { 
			 "R2extent": 2501.2039, 
			 "electric_dipole_moment_norm": 3.30982349076, 
			 "electric_quadrupole_moment_norm": 12.8365101948, 
			 "total_energy": -607.774609309, 
			 "HOMO_LUMO_gap": 0.14598, 
			 "cosmo_polarized_energy": -12.22, 
			 "cosmo_cavitation_energy": 25.33, 
			 "cosmo_dispersion_energy": -18.84, 
			 "cosmo_repulsion_energy": 1.47, 
			 "cosmo_total_nonelectrostatic_energy": 7.96, 
			 "SMD_solvation_energy": 5.55 
		},
		"coords": [
			{
				"x": 2.3459753484,
				"y": 1.0766063605,
				"z": 1.7870742459,
				"element": "C" 
			},
			{
				"x": 1.3546630127,
				"y": 1.0700790532,
				"z": 0.7280893802,
				"element": "N" 
			},
			{
				"x": 1.1501460064,
				"y": 2.1389894317,
				"z": -0.162706547,
				"element": "C" 
			},
			{
				"x": 1.7622288845,
				"y": 3.1888713698,
				"z": -0.1442503314,
				"element": "O" 
			},
			{
				"x": 0.0562127393,
				"y": 1.6947518665,
				"z": -1.0825628254,
				"element": "C" 
			},
			{
				"x": -0.3295747766,
				"y": 0.4107081397,
				"z": -0.6882177326,
				"element": "C" 
			},
			{
				"x": 0.4955898484,
				"y": -0.0045705699,
				"z": 0.4585888009,
				"element": "C" 
			},
			{
				"x": 0.4714255225,
				"y": -1.0622930685,
				"z": 1.0760331069,
				"element": "O" 
			},
			{
				"x": -1.3373922293,
				"y": -0.3040083288,
				"z": -1.3501793503,
				"element": "C" 
			},
			{
				"x": -1.7295642726,
				"y": -1.5394006412,
				"z": -0.9144648595,
				"element": "N" 
			},
			{
				"x": -1.9323290831,
				"y": 0.3541077291,
				"z": -2.4574804945,
				"element": "C" 
			},
			{
				"x": -1.5352940254,
				"y": 1.6321789248,
				"z": -2.8393067029,
				"element": "C" 
			},
			{
				"x": -0.5279924567,
				"y": 2.3409019881,
				"z": -2.1561538745,
				"element": "C" 
			},
			{
				"x": 1.9801360298,
				"y": 0.4660514635,
				"z": 2.6141817733,
				"element": "H" 
			},
			{
				"x": 2.4996851476,
				"y": 2.1070846509,
				"z": 2.111115635,
				"element": "H" 
			},
			{
				"x": 3.3016954708,
				"y": 0.6680932182,
				"z": 1.441497307,
				"element": "H" 
			},
			{
				"x": -1.1573433095,
				"y": -1.9789836815,
				"z": -0.2052859938,
				"element": "H" 
			},
			{
				"x": -2.265151137,
				"y": -2.1339662883,
				"z": -1.5255506035,
				"element": "H" 
			},
			{
				"x": -2.7183423663,
				"y": -0.1524660146,
				"z": -3.0115954974,
				"element": "H" 
			},
			{
				"x": -2.0236231326,
				"y": 2.0923946093,
				"z": -3.6936934133,
				"element": "H" 
			},
			{
				"x": -0.2219512215,
				"y": 3.3366697878,
				"z": -2.4560320232,
				"element": "H" 
			}
		],
		 "valence_orbital": [ 
			{
				"type": "occ",
				"energy": -0.28553,
				"method": "rhf"
			},
			{
				"type": "occ",
				"energy": -0.27802,
				"method": "rhf"
			},
			{
				"type": "occ",
				"energy": -0.26164,
				"method": "rhf"
			},
			{
				"type": "occ",
				"energy": -0.25878,
				"method": "rhf"
			},
			{
				"type": "occ",
				"energy": -0.21962,
				"method": "rhf"
			},
			{
				"type": "unocc",
				"energy": -0.07364,
				"method": "rhf"
			},
			{
				"type": "unocc",
				"energy": -0.01502,
				"method": "rhf"
			},
			{
				"type": "unocc",
				"energy": 0.03783,
				"method": "rhf"
			},
			{
				"type": "unocc",
				"energy": 0.0796,
				"method": "rhf"
			},
			{
				"type": "unocc",
				"energy": 0.08565,
				"method": "rhf"
			}
		],
		"cosmo_sigma_profile": { 
			"-0.025": 0.0,
			"-0.024": 0.0,
			"-0.023": 0.0,
			"-0.022": 0.0,
			"-0.021": 0.0,
			"-0.02": 0.0,
			"-0.019": 0.0,
			"-0.018": 0.0,
			"-0.017": 0.0,
			"-0.016": 0.0,
			"-0.015": 0.0,
			"-0.014": 0.745434304623,
			"-0.013": 1.42433467236,
			"-0.012": 1.72326532861,
			"-0.011": 1.97894896199,
			"-0.01": 1.79495268529,
			"-0.009": 2.52918589285,
			"-0.008": 2.50667579737,
			"-0.007": 4.95190902729,
			"-0.006": 10.2461919002,
			"-0.005": 12.5158651911,
			"-0.004": 14.7495044543,
			"-0.003": 18.2391275775,
			"-0.002": 18.1978078535,
			"-0.001": 11.9657223921,
			"0.0": 10.5653777807,
			"0.001": 13.6878935559,
			"0.002": 14.9738357788,
			"0.003": 14.3455244288,
			"0.004": 8.57350988111,
			"0.005": 4.22277062857,
			"0.006": 3.69820259227,
			"0.007": 3.78436951028,
			"0.008": 3.40574432234,
			"0.009": 4.03870900714,
			"0.01": 4.48165261543,
			"0.011": 7.26440680533,
			"0.012": 5.7169764219,
			"0.013": 0.354078473393,
			"0.014": 0.0,
			"0.015": 0.0,
			"0.016": 0.0,
			"0.017": 0.0,
			"0.018": 0.0,
			"0.019": 0.0,
			"0.02": 0.0,
			"0.021": 0.0,
			"0.022": 0.0,
			"0.023": 0.0,
			"0.024": 0.0,
			"0.025": 0.0
		}
	}
}
