{
	 "smiles": "S=C1NNC(S1)=NCCC1=CC=CS1", 
	 "Tm": 356.15, 
	 "num_atms": 23, 
	 "gaussian": { 
		 "optdone": 1, 
		 "sigma_profile": "yes", 
		 "theory": "DFT", 
		 "functional": "B3LYP", 
		 "basiset": "6-31G**", 
		 "properties": { 
			 "R2extent": 6551.6439, 
			 "electric_dipole_moment_norm": 4.24864487808, 
			 "electric_quadrupole_moment_norm": 26.3090304111, 
			 "total_energy": -1669.02970596, 
			 "HOMO_LUMO_gap": 0.17194, 
			 "cosmo_polarized_energy": -18.86, 
			 "cosmo_cavitation_energy": 32.83, 
			 "cosmo_dispersion_energy": -24.8, 
			 "cosmo_repulsion_energy": 1.85, 
			 "cosmo_total_nonelectrostatic_energy": 9.89, 
			 "SMD_solvation_energy": 1.83 
		},
		"coords": [
			{
				"x": -1.9158305251,
				"y": -2.413431757,
				"z": 5.6675748722,
				"element": "S" 
			},
			{
				"x": -1.3214167044,
				"y": -1.4125065282,
				"z": 4.5003308096,
				"element": "C" 
			},
			{
				"x": -0.0185218255,
				"y": -1.0177870786,
				"z": 4.3927847695,
				"element": "N" 
			},
			{
				"x": 0.3628702149,
				"y": -0.3742367066,
				"z": 3.1917429531,
				"element": "N" 
			},
			{
				"x": -0.770505055,
				"y": -0.0114643959,
				"z": 2.4182780353,
				"element": "C" 
			},
			{
				"x": -2.248774115,
				"y": -0.6901953303,
				"z": 3.1712116988,
				"element": "S" 
			},
			{
				"x": -0.7973305516,
				"y": 0.6778246064,
				"z": 1.361439598,
				"element": "N" 
			},
			{
				"x": 0.4518399198,
				"y": 1.1758401719,
				"z": 0.7986196413,
				"element": "C" 
			},
			{
				"x": 0.2744046895,
				"y": 1.5043039488,
				"z": -0.695911943,
				"element": "C" 
			},
			{
				"x": 0.03709795,
				"y": 0.2929522981,
				"z": -1.5538832801,
				"element": "C" 
			},
			{
				"x": -1.1377291373,
				"y": -0.3744590047,
				"z": -1.7833991766,
				"element": "C" 
			},
			{
				"x": -0.9859768123,
				"y": -1.5303341958,
				"z": -2.609587194,
				"element": "C" 
			},
			{
				"x": 0.3071002815,
				"y": -1.7378566117,
				"z": -3.0008259536,
				"element": "C" 
			},
			{
				"x": 1.3610994576,
				"y": -0.5149718439,
				"z": -2.3637097985,
				"element": "S" 
			},
			{
				"x": 0.6783702609,
				"y": -1.644011082,
				"z": 4.7811878636,
				"element": "H" 
			},
			{
				"x": 0.9497899296,
				"y": 0.4316259354,
				"z": 3.401021894,
				"element": "H" 
			},
			{
				"x": 0.7445553645,
				"y": 2.0985752321,
				"z": 1.325382994,
				"element": "H" 
			},
			{
				"x": 1.2731092721,
				"y": 0.4533950611,
				"z": 0.9238218897,
				"element": "H" 
			},
			{
				"x": 1.1616771144,
				"y": 2.0483122986,
				"z": -1.0394933097,
				"element": "H" 
			},
			{
				"x": -0.5772378496,
				"y": 2.1860144243,
				"z": -0.7937339526,
				"element": "H" 
			},
			{
				"x": -2.0819606175,
				"y": -0.0481233623,
				"z": -1.3628437344,
				"element": "H" 
			},
			{
				"x": -1.8069497501,
				"y": -2.1757118517,
				"z": -2.9015219203,
				"element": "H" 
			},
			{
				"x": 0.7036184887,
				"y": -2.5220542278,
				"z": -3.6304867563,
				"element": "H" 
			}
		],
		 "valence_orbital": [ 
			{
				"type": "occ",
				"energy": -0.25361,
				"method": "rhf"
			},
			{
				"type": "occ",
				"energy": -0.2454,
				"method": "rhf"
			},
			{
				"type": "occ",
				"energy": -0.23789,
				"method": "rhf"
			},
			{
				"type": "occ",
				"energy": -0.23073,
				"method": "rhf"
			},
			{
				"type": "occ",
				"energy": -0.22437,
				"method": "rhf"
			},
			{
				"type": "unocc",
				"energy": -0.05243,
				"method": "rhf"
			},
			{
				"type": "unocc",
				"energy": -0.01165,
				"method": "rhf"
			},
			{
				"type": "unocc",
				"energy": -0.00833,
				"method": "rhf"
			},
			{
				"type": "unocc",
				"energy": -0.00661,
				"method": "rhf"
			},
			{
				"type": "unocc",
				"energy": 0.02966,
				"method": "rhf"
			}
		],
		"cosmo_sigma_profile": { 
			"-0.025": 0.0,
			"-0.024": 0.0,
			"-0.023": 0.0,
			"-0.022": 0.0,
			"-0.021": 0.0,
			"-0.02": 0.0,
			"-0.019": 0.0,
			"-0.018": 0.303781953881,
			"-0.017": 2.13450343398,
			"-0.016": 2.70907277451,
			"-0.015": 1.34045348428,
			"-0.014": 3.13994938571,
			"-0.013": 2.66669532715,
			"-0.012": 2.03372007046,
			"-0.011": 1.84629707554,
			"-0.01": 1.7704639934,
			"-0.009": 2.07743561847,
			"-0.008": 3.16690894546,
			"-0.007": 4.35343021441,
			"-0.006": 7.19050897885,
			"-0.005": 13.8752946148,
			"-0.004": 18.5895311616,
			"-0.003": 16.820040489,
			"-0.002": 15.5805980095,
			"-0.001": 17.0090326807,
			"0.0": 16.9853148308,
			"0.001": 18.9322164687,
			"0.002": 19.2863749768,
			"0.003": 19.4279077311,
			"0.004": 14.2735629227,
			"0.005": 19.4222915475,
			"0.006": 14.8432047857,
			"0.007": 10.5510689628,
			"0.008": 8.58428972181,
			"0.009": 5.47794369503,
			"0.01": 3.0201153309,
			"0.011": 0.682398088259,
			"0.012": 0.732916461839,
			"0.013": 0.306592493039,
			"0.014": 0.0855508482774,
			"0.015": 0.0,
			"0.016": 0.0,
			"0.017": 0.0,
			"0.018": 0.0,
			"0.019": 0.0,
			"0.02": 0.0,
			"0.021": 0.0,
			"0.022": 0.0,
			"0.023": 0.0,
			"0.024": 0.0,
			"0.025": 0.0
		}
	}
}
