{
	 "smiles": "ClC1=CC=C(NC(=O)NC2=C(Br)C=CC=C2)C=C1", 
	 "Tm": 496.15, 
	 "num_atms": 28, 
	 "gaussian": { 
		 "optdone": 1, 
		 "sigma_profile": "yes", 
		 "theory": "DFT", 
		 "functional": "B3LYP", 
		 "basiset": "6-31G**", 
		 "properties": { 
			 "R2extent": 9987.1349, 
			 "electric_dipole_moment_norm": 5.3361064579, 
			 "electric_quadrupole_moment_norm": 10.7151894113, 
			 "total_energy": -3717.76244072, 
			 "HOMO_LUMO_gap": 0.18504, 
			 "cosmo_polarized_energy": -13.71, 
			 "cosmo_cavitation_energy": 36.87, 
			 "cosmo_dispersion_energy": -27.14, 
			 "cosmo_repulsion_energy": 2.09, 
			 "cosmo_total_nonelectrostatic_energy": 11.82, 
			 "SMD_solvation_energy": 5.46 
		},
		"coords": [
			{
				"x": 4.6562609211,
				"y": 5.0687740728,
				"z": -1.7176645373,
				"element": "Cl" 
			},
			{
				"x": 3.5084228333,
				"y": 3.842573002,
				"z": -1.1942438413,
				"element": "C" 
			},
			{
				"x": 2.5730442674,
				"y": 4.1440071213,
				"z": -0.2067326519,
				"element": "C" 
			},
			{
				"x": 1.6598183178,
				"y": 3.1790314447,
				"z": 0.215898623,
				"element": "C" 
			},
			{
				"x": 1.6829945073,
				"y": 1.8983714588,
				"z": -0.3578862387,
				"element": "C" 
			},
			{
				"x": 0.787960682,
				"y": 0.86772025,
				"z": -0.0071492633,
				"element": "N" 
			},
			{
				"x": -0.1601158855,
				"y": 0.8808469137,
				"z": 0.9944207789,
				"element": "C" 
			},
			{
				"x": -0.3442266406,
				"y": 1.8034571372,
				"z": 1.7751490971,
				"element": "O" 
			},
			{
				"x": -0.9317952579,
				"y": -0.2813475536,
				"z": 1.1029677371,
				"element": "N" 
			},
			{
				"x": -0.9885822455,
				"y": -1.4282264348,
				"z": 0.3002130185,
				"element": "C" 
			},
			{
				"x": -1.1155468104,
				"y": -2.7065533064,
				"z": 0.8797665782,
				"element": "C" 
			},
			{
				"x": -1.1823418993,
				"y": -2.8853655456,
				"z": 2.7830192282,
				"element": "Br" 
			},
			{
				"x": -1.2092219378,
				"y": -3.8546101975,
				"z": 0.0980144682,
				"element": "C" 
			},
			{
				"x": -1.1621514667,
				"y": -3.7573931348,
				"z": -1.2925883476,
				"element": "C" 
			},
			{
				"x": -1.0514024322,
				"y": -2.5017304921,
				"z": -1.8894392013,
				"element": "C" 
			},
			{
				"x": -0.9849100746,
				"y": -1.3519863836,
				"z": -1.1054853975,
				"element": "C" 
			},
			{
				"x": 2.6326356008,
				"y": 1.6103020784,
				"z": -1.3512358871,
				"element": "C" 
			},
			{
				"x": 3.5440921913,
				"y": 2.5741629256,
				"z": -1.7708432765,
				"element": "C" 
			},
			{
				"x": 2.5550049268,
				"y": 5.1330055228,
				"z": 0.2379244218,
				"element": "H" 
			},
			{
				"x": 0.9381828752,
				"y": 3.4035747064,
				"z": 0.9880882839,
				"element": "H" 
			},
			{
				"x": 0.9349206234,
				"y": -0.0112523465,
				"z": -0.482610157,
				"element": "H" 
			},
			{
				"x": -1.3871398017,
				"y": -0.3309984648,
				"z": 2.0052336098,
				"element": "H" 
			},
			{
				"x": -1.3085211112,
				"y": -4.8193254602,
				"z": 0.5824742549,
				"element": "H" 
			},
			{
				"x": -1.2236216326,
				"y": -4.6556687943,
				"z": -1.898186452,
				"element": "H" 
			},
			{
				"x": -1.0426318533,
				"y": -2.4085996387,
				"z": -2.971046809,
				"element": "H" 
			},
			{
				"x": -0.9656585062,
				"y": -0.3749938803,
				"z": -1.576593391,
				"element": "H" 
			},
			{
				"x": 2.6620012223,
				"y": 0.6207965258,
				"z": -1.8016311686,
				"element": "H" 
			},
			{
				"x": 4.2745285867,
				"y": 2.3415284739,
				"z": -2.5376334794,
				"element": "H" 
			}
		],
		 "valence_orbital": [ 
			{
				"type": "occ",
				"energy": -0.27538,
				"method": "rhf"
			},
			{
				"type": "occ",
				"energy": -0.26655,
				"method": "rhf"
			},
			{
				"type": "occ",
				"energy": -0.26292,
				"method": "rhf"
			},
			{
				"type": "occ",
				"energy": -0.24211,
				"method": "rhf"
			},
			{
				"type": "occ",
				"energy": -0.21937,
				"method": "rhf"
			},
			{
				"type": "unocc",
				"energy": -0.03433,
				"method": "rhf"
			},
			{
				"type": "unocc",
				"energy": -0.03375,
				"method": "rhf"
			},
			{
				"type": "unocc",
				"energy": -0.01322,
				"method": "rhf"
			},
			{
				"type": "unocc",
				"energy": -0.00971,
				"method": "rhf"
			},
			{
				"type": "unocc",
				"energy": -0.00741,
				"method": "rhf"
			}
		],
		"cosmo_sigma_profile": { 
			"-0.025": 0.0,
			"-0.024": 0.0,
			"-0.023": 0.0,
			"-0.022": 0.0,
			"-0.021": 0.0,
			"-0.02": 0.0,
			"-0.019": 0.0,
			"-0.018": 0.0,
			"-0.017": 0.0,
			"-0.016": 0.0,
			"-0.015": 0.0,
			"-0.014": 0.647205487261,
			"-0.013": 0.633770024756,
			"-0.012": 1.83846731966,
			"-0.011": 1.68740300973,
			"-0.01": 2.60449665365,
			"-0.009": 2.17192722286,
			"-0.008": 3.58627210189,
			"-0.007": 13.4068465724,
			"-0.006": 15.690527206,
			"-0.005": 16.5429257631,
			"-0.004": 15.6043219307,
			"-0.003": 15.1489393585,
			"-0.002": 17.0890859427,
			"-0.001": 18.2431397858,
			"0.0": 20.5754576704,
			"0.001": 27.1754616761,
			"0.002": 32.6820108368,
			"0.003": 35.1543129264,
			"0.004": 33.1139983462,
			"0.005": 11.9139742858,
			"0.006": 2.32967962361,
			"0.007": 1.36860095676,
			"0.008": 2.27501730264,
			"0.009": 1.22448996691,
			"0.01": 0.77944885514,
			"0.011": 1.70454776924,
			"0.012": 3.15648567629,
			"0.013": 3.33876503888,
			"0.014": 0.542827211816,
			"0.015": 0.0,
			"0.016": 0.0,
			"0.017": 0.0,
			"0.018": 0.0,
			"0.019": 0.0,
			"0.02": 0.0,
			"0.021": 0.0,
			"0.022": 0.0,
			"0.023": 0.0,
			"0.024": 0.0,
			"0.025": 0.0
		}
	}
}
