{
	 "smiles": "CC(=O)C1=C(OC(F)F)C=C(F)C=C1", 
	 "Tm": 329.15, 
	 "num_atms": 21, 
	 "gaussian": { 
		 "optdone": 1, 
		 "sigma_profile": "yes", 
		 "theory": "DFT", 
		 "functional": "B3LYP", 
		 "basiset": "6-31G**", 
		 "properties": { 
			 "R2extent": 3520.8509, 
			 "electric_dipole_moment_norm": 1.96009565073, 
			 "electric_quadrupole_moment_norm": 10.1456227897, 
			 "total_energy": -797.130124644, 
			 "HOMO_LUMO_gap": 0.19436, 
			 "cosmo_polarized_energy": -8.68, 
			 "cosmo_cavitation_energy": 27.03, 
			 "cosmo_dispersion_energy": -18.99, 
			 "cosmo_repulsion_energy": 1.42, 
			 "cosmo_total_nonelectrostatic_energy": 9.46, 
			 "SMD_solvation_energy": 7.11 
		},
		"coords": [
			{
				"x": 0.5133318334,
				"y": -3.7150595376,
				"z": 0.2225244531,
				"element": "C" 
			},
			{
				"x": 0.0924242256,
				"y": -2.6378750878,
				"z": 1.2004005362,
				"element": "C" 
			},
			{
				"x": 0.1119144271,
				"y": -2.8653828438,
				"z": 2.401625125,
				"element": "O" 
			},
			{
				"x": -0.3424274333,
				"y": -1.2703129039,
				"z": 0.7298408291,
				"element": "C" 
			},
			{
				"x": -0.4901054728,
				"y": -0.8473644862,
				"z": -0.6072923756,
				"element": "C" 
			},
			{
				"x": -0.1981066256,
				"y": -1.7506534641,
				"z": -1.6119528608,
				"element": "O" 
			},
			{
				"x": -0.8927557075,
				"y": -1.6701253116,
				"z": -2.7991802225,
				"element": "C" 
			},
			{
				"x": -0.3300802607,
				"y": -0.743033722,
				"z": -3.6226971827,
				"element": "F" 
			},
			{
				"x": -0.7718994938,
				"y": -2.8694499163,
				"z": -3.3929124975,
				"element": "F" 
			},
			{
				"x": -0.8936685712,
				"y": 0.4536612657,
				"z": -0.9193900539,
				"element": "C" 
			},
			{
				"x": -1.1749240829,
				"y": 1.3282407068,
				"z": 0.122999326,
				"element": "C" 
			},
			{
				"x": -1.565225289,
				"y": 2.5770727119,
				"z": -0.1824731403,
				"element": "F" 
			},
			{
				"x": -1.0533969831,
				"y": 0.9595871939,
				"z": 1.4581223671,
				"element": "C" 
			},
			{
				"x": -0.6333255514,
				"y": -0.3338038885,
				"z": 1.7372644083,
				"element": "C" 
			},
			{
				"x": 0.8153869867,
				"y": -4.5904537643,
				"z": 0.79856918,
				"element": "H" 
			},
			{
				"x": 1.339645952,
				"y": -3.3746149996,
				"z": -0.4084456004,
				"element": "H" 
			},
			{
				"x": -0.3029576479,
				"y": -3.9765089604,
				"z": -0.4567165449,
				"element": "H" 
			},
			{
				"x": -1.9491462956,
				"y": -1.4163835284,
				"z": -2.6550969683,
				"element": "H" 
			},
			{
				"x": -0.9543344811,
				"y": 0.8004826564,
				"z": -1.9426197548,
				"element": "H" 
			},
			{
				"x": -1.2779673675,
				"y": 1.6744342007,
				"z": 2.2413277451,
				"element": "H" 
			},
			{
				"x": -0.5207821614,
				"y": -0.6719563209,
				"z": 2.7614032319,
				"element": "H" 
			}
		],
		 "valence_orbital": [ 
			{
				"type": "occ",
				"energy": -0.36023,
				"method": "rhf"
			},
			{
				"type": "occ",
				"energy": -0.34407,
				"method": "rhf"
			},
			{
				"type": "occ",
				"energy": -0.27348,
				"method": "rhf"
			},
			{
				"type": "occ",
				"energy": -0.25964,
				"method": "rhf"
			},
			{
				"type": "occ",
				"energy": -0.25536,
				"method": "rhf"
			},
			{
				"type": "unocc",
				"energy": -0.061,
				"method": "rhf"
			},
			{
				"type": "unocc",
				"energy": -0.02579,
				"method": "rhf"
			},
			{
				"type": "unocc",
				"energy": 0.02962,
				"method": "rhf"
			},
			{
				"type": "unocc",
				"energy": 0.0767,
				"method": "rhf"
			},
			{
				"type": "unocc",
				"energy": 0.10406,
				"method": "rhf"
			}
		],
		"cosmo_sigma_profile": { 
			"-0.025": 0.0,
			"-0.024": 0.0,
			"-0.023": 0.0,
			"-0.022": 0.0,
			"-0.021": 0.0,
			"-0.02": 0.0,
			"-0.019": 0.0,
			"-0.018": 0.0,
			"-0.017": 0.0,
			"-0.016": 0.0,
			"-0.015": 0.0,
			"-0.014": 0.0,
			"-0.013": 0.0,
			"-0.012": 0.0,
			"-0.011": 1.99084373096,
			"-0.01": 2.59264539049,
			"-0.009": 2.38331965133,
			"-0.008": 4.2654604761,
			"-0.007": 4.83054642386,
			"-0.006": 7.02128756683,
			"-0.005": 12.44652604,
			"-0.004": 11.13110895,
			"-0.003": 11.7846095282,
			"-0.002": 14.0596186926,
			"-0.001": 21.1695527637,
			"0.0": 23.0050291029,
			"0.001": 19.3261106703,
			"0.002": 19.170337062,
			"0.003": 30.462240122,
			"0.004": 13.1684050329,
			"0.005": 1.79690048549,
			"0.006": 1.54116833842,
			"0.007": 1.35930587977,
			"0.008": 2.02273801824,
			"0.009": 1.79231110533,
			"0.01": 1.80609419517,
			"0.011": 3.20791828297,
			"0.012": 3.36871010472,
			"0.013": 1.09535141041,
			"0.014": 0.0237046253442,
			"0.015": 0.0,
			"0.016": 0.0,
			"0.017": 0.0,
			"0.018": 0.0,
			"0.019": 0.0,
			"0.02": 0.0,
			"0.021": 0.0,
			"0.022": 0.0,
			"0.023": 0.0,
			"0.024": 0.0,
			"0.025": 0.0
		}
	}
}
