{
	 "smiles": "NC1=CC=C(CC#N)C=C1", 
	 "Tm": 318.15, 
	 "num_atms": 18, 
	 "gaussian": { 
		 "optdone": 1, 
		 "sigma_profile": "yes", 
		 "theory": "DFT", 
		 "functional": "B3LYP", 
		 "basiset": "6-31G**", 
		 "properties": { 
			 "R2extent": 1833.2769, 
			 "electric_dipole_moment_norm": 5.86666050577, 
			 "electric_quadrupole_moment_norm": 16.9198264908, 
			 "total_energy": -419.161934241, 
			 "HOMO_LUMO_gap": 0.20078, 
			 "cosmo_polarized_energy": -14.72, 
			 "cosmo_cavitation_energy": 23.12, 
			 "cosmo_dispersion_energy": -16.32, 
			 "cosmo_repulsion_energy": 1.35, 
			 "cosmo_total_nonelectrostatic_energy": 8.14, 
			 "SMD_solvation_energy": 5.38 
		},
		"coords": [
			{
				"x": 3.0817968359,
				"y": -1.3381922356,
				"z": -1.1523166606,
				"element": "N" 
			},
			{
				"x": 1.8093221675,
				"y": -0.9349741982,
				"z": -0.7554196823,
				"element": "C" 
			},
			{
				"x": 1.5222569122,
				"y": 0.4222538397,
				"z": -0.5253164366,
				"element": "C" 
			},
			{
				"x": 0.2359021802,
				"y": 0.8252471135,
				"z": -0.181678831,
				"element": "C" 
			},
			{
				"x": -0.8038781931,
				"y": -0.1020027737,
				"z": -0.0524166957,
				"element": "C" 
			},
			{
				"x": -2.2102342069,
				"y": 0.3468151211,
				"z": 0.314464623,
				"element": "C" 
			},
			{
				"x": -3.0393848472,
				"y": 0.6718365045,
				"z": -0.8565263807,
				"element": "C" 
			},
			{
				"x": -3.6877138658,
				"y": 0.9265293232,
				"z": -1.7852035265,
				"element": "N" 
			},
			{
				"x": -0.5169162062,
				"y": -1.4520940283,
				"z": -0.281683351,
				"element": "C" 
			},
			{
				"x": 0.7651867779,
				"y": -1.8679400591,
				"z": -0.6258910997,
				"element": "C" 
			},
			{
				"x": 3.3101281536,
				"y": -2.3062262,
				"z": -0.9755962714,
				"element": "H" 
			},
			{
				"x": 3.8365911586,
				"y": -0.7138334967,
				"z": -0.9055062065,
				"element": "H" 
			},
			{
				"x": 2.313790373,
				"y": 1.1613447666,
				"z": -0.6202850825,
				"element": "H" 
			},
			{
				"x": 0.0409531547,
				"y": 1.8810098816,
				"z": -0.0095298274,
				"element": "H" 
			},
			{
				"x": -2.7275447171,
				"y": -0.4332365264,
				"z": 0.8851878954,
				"element": "H" 
			},
			{
				"x": -2.1765473452,
				"y": 1.2338628941,
				"z": 0.9577580054,
				"element": "H" 
			},
			{
				"x": -1.3061750148,
				"y": -2.1941600177,
				"z": -0.1885036735,
				"element": "H" 
			},
			{
				"x": 0.9637666827,
				"y": -2.9225399084,
				"z": -0.7996367983,
				"element": "H" 
			}
		],
		 "valence_orbital": [ 
			{
				"type": "occ",
				"energy": -0.31808,
				"method": "rhf"
			},
			{
				"type": "occ",
				"energy": -0.31452,
				"method": "rhf"
			},
			{
				"type": "occ",
				"energy": -0.3102,
				"method": "rhf"
			},
			{
				"type": "occ",
				"energy": -0.25629,
				"method": "rhf"
			},
			{
				"type": "occ",
				"energy": -0.21,
				"method": "rhf"
			},
			{
				"type": "unocc",
				"energy": -0.00922,
				"method": "rhf"
			},
			{
				"type": "unocc",
				"energy": 0.00158,
				"method": "rhf"
			},
			{
				"type": "unocc",
				"energy": 0.04902,
				"method": "rhf"
			},
			{
				"type": "unocc",
				"energy": 0.05047,
				"method": "rhf"
			},
			{
				"type": "unocc",
				"energy": 0.07344,
				"method": "rhf"
			}
		],
		"cosmo_sigma_profile": { 
			"-0.025": 0.0,
			"-0.024": 0.0,
			"-0.023": 0.0,
			"-0.022": 0.0,
			"-0.021": 0.0,
			"-0.02": 0.0,
			"-0.019": 0.0,
			"-0.018": 0.0,
			"-0.017": 0.0,
			"-0.016": 0.0,
			"-0.015": 0.0,
			"-0.014": 0.0,
			"-0.013": 0.385406484196,
			"-0.012": 2.68898458803,
			"-0.011": 2.98092648604,
			"-0.01": 2.39517130679,
			"-0.009": 3.7244980748,
			"-0.008": 8.56091229216,
			"-0.007": 10.3976522276,
			"-0.006": 12.9560887498,
			"-0.005": 12.7152438807,
			"-0.004": 11.2502372865,
			"-0.003": 8.78080166799,
			"-0.002": 7.62666242741,
			"-0.001": 8.50025980766,
			"0.0": 6.6380042515,
			"0.001": 7.23613535259,
			"0.002": 7.66796717105,
			"0.003": 8.94991192933,
			"0.004": 8.73130170297,
			"0.005": 10.0105018712,
			"0.006": 13.93490306,
			"0.007": 4.80531995798,
			"0.008": 4.09689706439,
			"0.009": 4.35590963917,
			"0.01": 3.89063344706,
			"0.011": 4.13047433233,
			"0.012": 3.09824668212,
			"0.013": 2.95526969975,
			"0.014": 1.18942413005,
			"0.015": 0.0218862858287,
			"0.016": 0.0,
			"0.017": 0.0,
			"0.018": 0.0,
			"0.019": 0.0,
			"0.02": 0.0,
			"0.021": 0.0,
			"0.022": 0.0,
			"0.023": 0.0,
			"0.024": 0.0,
			"0.025": 0.0
		}
	}
}
