{
	 "smiles": "O=C1COCC(=O)N1", 
	 "Tm": 415.15, 
	 "num_atms": 13, 
	 "gaussian": { 
		 "optdone": 1, 
		 "sigma_profile": "yes", 
		 "theory": "DFT", 
		 "functional": "B3LYP", 
		 "basiset": "6-31G**", 
		 "properties": { 
			 "R2extent": 949.3164, 
			 "electric_dipole_moment_norm": 1.81645462371, 
			 "electric_quadrupole_moment_norm": 7.32572319229, 
			 "total_energy": -435.864378567, 
			 "HOMO_LUMO_gap": 0.23108, 
			 "cosmo_polarized_energy": -12.87, 
			 "cosmo_cavitation_energy": 17.24, 
			 "cosmo_dispersion_energy": -13.24, 
			 "cosmo_repulsion_energy": 1.12, 
			 "cosmo_total_nonelectrostatic_energy": 5.12, 
			 "SMD_solvation_energy": 4.74 
		},
		"coords": [
			{
				"x": 0.28266545,
				"y": -2.291921329,
				"z": -1.7712232631,
				"element": "O" 
			},
			{
				"x": 0.4052694518,
				"y": -1.2962709645,
				"z": -1.0884372067,
				"element": "C" 
			},
			{
				"x": 0.5507046408,
				"y": 0.109416212,
				"z": -1.6618284165,
				"element": "C" 
			},
			{
				"x": 1.1933666376,
				"y": 1.0031926343,
				"z": -0.7741664989,
				"element": "O" 
			},
			{
				"x": 0.5348295256,
				"y": 1.0952771091,
				"z": 0.4738860525,
				"element": "C" 
			},
			{
				"x": 0.3877775864,
				"y": -0.2537997956,
				"z": 1.1697819108,
				"element": "C" 
			},
			{
				"x": 0.2515630059,
				"y": -0.3808341437,
				"z": 2.3688887236,
				"element": "O" 
			},
			{
				"x": 0.3889162447,
				"y": -1.3460825516,
				"z": 0.3042275872,
				"element": "N" 
			},
			{
				"x": 1.15627308,
				"y": 0.0460217077,
				"z": -2.5672636705,
				"element": "H" 
			},
			{
				"x": -0.4543879695,
				"y": 0.4682319762,
				"z": -1.9446404519,
				"element": "H" 
			},
			{
				"x": -0.471424276,
				"y": 1.5380010162,
				"z": 0.3719770416,
				"element": "H" 
			},
			{
				"x": 1.1290991562,
				"y": 1.746324745,
				"z": 1.116954021,
				"element": "H" 
			},
			{
				"x": 0.2824474665,
				"y": -2.2635566161,
				"z": 0.7269441711,
				"element": "H" 
			}
		],
		 "valence_orbital": [ 
			{
				"type": "occ",
				"energy": -0.37012,
				"method": "rhf"
			},
			{
				"type": "occ",
				"energy": -0.32419,
				"method": "rhf"
			},
			{
				"type": "occ",
				"energy": -0.30035,
				"method": "rhf"
			},
			{
				"type": "occ",
				"energy": -0.27673,
				"method": "rhf"
			},
			{
				"type": "occ",
				"energy": -0.27075,
				"method": "rhf"
			},
			{
				"type": "unocc",
				"energy": -0.03967,
				"method": "rhf"
			},
			{
				"type": "unocc",
				"energy": 0.01644,
				"method": "rhf"
			},
			{
				"type": "unocc",
				"energy": 0.06883,
				"method": "rhf"
			},
			{
				"type": "unocc",
				"energy": 0.10292,
				"method": "rhf"
			},
			{
				"type": "unocc",
				"energy": 0.11669,
				"method": "rhf"
			}
		],
		"cosmo_sigma_profile": { 
			"-0.025": 0.0,
			"-0.024": 0.0,
			"-0.023": 0.0,
			"-0.022": 0.0,
			"-0.021": 0.0,
			"-0.02": 0.0,
			"-0.019": 0.0,
			"-0.018": 0.0,
			"-0.017": 0.0,
			"-0.016": 0.489551533804,
			"-0.015": 1.26651926772,
			"-0.014": 0.939273924138,
			"-0.013": 0.544420511336,
			"-0.012": 0.709591249292,
			"-0.011": 1.4234306915,
			"-0.01": 2.48573243047,
			"-0.009": 3.29103641417,
			"-0.008": 9.0104944114,
			"-0.007": 10.3896728886,
			"-0.006": 8.11227776763,
			"-0.005": 9.55583042629,
			"-0.004": 7.77682786834,
			"-0.003": 8.29793976474,
			"-0.002": 7.11800190912,
			"-0.001": 3.88702193198,
			"0.0": 4.13545849992,
			"0.001": 4.16840899588,
			"0.002": 3.09203376634,
			"0.003": 3.44265944168,
			"0.004": 3.54326182917,
			"0.005": 2.8412232368,
			"0.006": 3.89584657626,
			"0.007": 3.06912954169,
			"0.008": 3.98650048689,
			"0.009": 4.26976739141,
			"0.01": 6.58284366011,
			"0.011": 11.1342625035,
			"0.012": 6.75302388668,
			"0.013": 0.441552528188,
			"0.014": 0.0,
			"0.015": 0.0,
			"0.016": 0.0,
			"0.017": 0.0,
			"0.018": 0.0,
			"0.019": 0.0,
			"0.02": 0.0,
			"0.021": 0.0,
			"0.022": 0.0,
			"0.023": 0.0,
			"0.024": 0.0,
			"0.025": 0.0
		}
	}
}
