{
	 "smiles": "OC(=O)CC1=CSC(=N1)C1=CC(F)=CC=C1", 
	 "Tm": 398.15, 
	 "num_atms": 24, 
	 "gaussian": { 
		 "optdone": 1, 
		 "sigma_profile": "yes", 
		 "theory": "DFT", 
		 "functional": "B3LYP", 
		 "basiset": "6-31G**", 
		 "properties": { 
			 "R2extent": 5289.3317, 
			 "electric_dipole_moment_norm": 5.11006276087, 
			 "electric_quadrupole_moment_norm": 27.9628793439, 
			 "total_energy": -1127.22804606, 
			 "HOMO_LUMO_gap": 0.16276, 
			 "cosmo_polarized_energy": -13.88, 
			 "cosmo_cavitation_energy": 31.18, 
			 "cosmo_dispersion_energy": -23.02, 
			 "cosmo_repulsion_energy": 1.71, 
			 "cosmo_total_nonelectrostatic_energy": 9.87, 
			 "SMD_solvation_energy": 6.33 
		},
		"coords": [
			{
				"x": -2.4576920327,
				"y": 0.8867752505,
				"z": -2.7953780723,
				"element": "O" 
			},
			{
				"x": -2.0056086786,
				"y": 0.5615171825,
				"z": -4.0169125911,
				"element": "C" 
			},
			{
				"x": -2.3921445047,
				"y": 1.1211973295,
				"z": -5.0143579329,
				"element": "O" 
			},
			{
				"x": -1.0225382788,
				"y": -0.6234828459,
				"z": -4.085271607,
				"element": "C" 
			},
			{
				"x": -0.0373608984,
				"y": -0.7318374289,
				"z": -2.9539720471,
				"element": "C" 
			},
			{
				"x": 1.3109751367,
				"y": -0.9302711212,
				"z": -3.059064504,
				"element": "C" 
			},
			{
				"x": 2.030338412,
				"y": -1.0206657101,
				"z": -1.4866043351,
				"element": "S" 
			},
			{
				"x": 0.4488922897,
				"y": -0.7588296759,
				"z": -0.7663474498,
				"element": "C" 
			},
			{
				"x": -0.5043092377,
				"y": -0.6390028002,
				"z": -1.6597121724,
				"element": "N" 
			},
			{
				"x": 0.2344368821,
				"y": -0.7010128686,
				"z": 0.6850760902,
				"element": "C" 
			},
			{
				"x": 1.3126320222,
				"y": -0.5719138244,
				"z": 1.5752525712,
				"element": "C" 
			},
			{
				"x": 1.0593646177,
				"y": -0.5250066469,
				"z": 2.9384759617,
				"element": "C" 
			},
			{
				"x": 2.1008154987,
				"y": -0.3984878118,
				"z": 3.783731919,
				"element": "F" 
			},
			{
				"x": -0.2282449073,
				"y": -0.5962659205,
				"z": 3.4594346485,
				"element": "C" 
			},
			{
				"x": -1.2954541975,
				"y": -0.7219742175,
				"z": 2.5680780507,
				"element": "C" 
			},
			{
				"x": -1.0742325487,
				"y": -0.7759243174,
				"z": 1.1941232887,
				"element": "C" 
			},
			{
				"x": -1.9799289645,
				"y": 0.3609386165,
				"z": -2.1131414614,
				"element": "H" 
			},
			{
				"x": -0.5124595421,
				"y": -0.5635540162,
				"z": -5.0470799644,
				"element": "H" 
			},
			{
				"x": -1.6440842621,
				"y": -1.5303516648,
				"z": -4.1058914969,
				"element": "H" 
			},
			{
				"x": 1.9080372731,
				"y": -1.0289534453,
				"z": -3.954106583,
				"element": "H" 
			},
			{
				"x": 2.338228936,
				"y": -0.4920471851,
				"z": 1.2307448355,
				"element": "H" 
			},
			{
				"x": -0.3765026149,
				"y": -0.5523458169,
				"z": 4.5326619634,
				"element": "H" 
			},
			{
				"x": -2.3091262513,
				"y": -0.7816365157,
				"z": 2.9517729696,
				"element": "H" 
			},
			{
				"x": -1.9037341489,
				"y": -0.8841645455,
				"z": 0.5055879191,
				"element": "H" 
			}
		],
		 "valence_orbital": [ 
			{
				"type": "occ",
				"energy": -0.30382,
				"method": "rhf"
			},
			{
				"type": "occ",
				"energy": -0.29632,
				"method": "rhf"
			},
			{
				"type": "occ",
				"energy": -0.26936,
				"method": "rhf"
			},
			{
				"type": "occ",
				"energy": -0.26045,
				"method": "rhf"
			},
			{
				"type": "occ",
				"energy": -0.2414,
				"method": "rhf"
			},
			{
				"type": "unocc",
				"energy": -0.07864,
				"method": "rhf"
			},
			{
				"type": "unocc",
				"energy": -0.02207,
				"method": "rhf"
			},
			{
				"type": "unocc",
				"energy": -0.00536,
				"method": "rhf"
			},
			{
				"type": "unocc",
				"energy": -0.00063,
				"method": "rhf"
			},
			{
				"type": "unocc",
				"energy": 0.02131,
				"method": "rhf"
			}
		],
		"cosmo_sigma_profile": { 
			"-0.025": 0.0,
			"-0.024": 0.0,
			"-0.023": 0.0,
			"-0.022": 0.0,
			"-0.021": 0.0,
			"-0.02": 0.0,
			"-0.019": 0.0,
			"-0.018": 0.0,
			"-0.017": 0.0,
			"-0.016": 0.0,
			"-0.015": 0.0,
			"-0.014": 0.0,
			"-0.013": 0.0,
			"-0.012": 0.0,
			"-0.011": 0.0,
			"-0.01": 0.981780701571,
			"-0.009": 2.85490625229,
			"-0.008": 7.93962161754,
			"-0.007": 12.1607040908,
			"-0.006": 14.0719229736,
			"-0.005": 15.2701338478,
			"-0.004": 14.8670703424,
			"-0.003": 14.5084806871,
			"-0.002": 16.3133210259,
			"-0.001": 17.9520970875,
			"0.0": 25.4264083054,
			"0.001": 26.4378744344,
			"0.002": 22.0008628002,
			"0.003": 15.9885927493,
			"0.004": 13.2612913189,
			"0.005": 3.71335519842,
			"0.006": 1.85012500766,
			"0.007": 2.63357204682,
			"0.008": 2.61397419797,
			"0.009": 2.62765126826,
			"0.01": 3.81293206543,
			"0.011": 5.89634971408,
			"0.012": 6.27600468829,
			"0.013": 3.48410233206,
			"0.014": 0.376501199527,
			"0.015": 0.0,
			"0.016": 0.0,
			"0.017": 0.0,
			"0.018": 0.0,
			"0.019": 0.0,
			"0.02": 0.0,
			"0.021": 0.0,
			"0.022": 0.0,
			"0.023": 0.0,
			"0.024": 0.0,
			"0.025": 0.0
		}
	}
}
