{
	 "smiles": "CCC1=CC=C(C=C1)C(=O)C1=CC(=CC=C1)S(C)(=O)=O", 
	 "Tm": 371.15, 
	 "num_atms": 36, 
	 "gaussian": { 
		 "optdone": 1, 
		 "sigma_profile": "yes", 
		 "theory": "DFT", 
		 "functional": "B3LYP", 
		 "basiset": "6-31G**", 
		 "properties": { 
			 "R2extent": 11759.9904, 
			 "electric_dipole_moment_norm": 7.85692272649, 
			 "electric_quadrupole_moment_norm": 29.8004561829, 
			 "total_energy": -1243.15363814, 
			 "HOMO_LUMO_gap": 0.17606, 
			 "cosmo_polarized_energy": -20.25, 
			 "cosmo_cavitation_energy": 41.63, 
			 "cosmo_dispersion_energy": -29.64, 
			 "cosmo_repulsion_energy": 2.24, 
			 "cosmo_total_nonelectrostatic_energy": 14.23, 
			 "SMD_solvation_energy": 7.1 
		},
		"coords": [
			{
				"x": -0.4738482613,
				"y": -2.0678190224,
				"z": 4.534947537,
				"element": "C" 
			},
			{
				"x": -1.6343675475,
				"y": -2.1864347676,
				"z": 3.5293781612,
				"element": "C" 
			},
			{
				"x": -1.3960910668,
				"y": -1.3879545609,
				"z": 2.2668561983,
				"element": "C" 
			},
			{
				"x": -0.7672291935,
				"y": -1.9656647627,
				"z": 1.1558879317,
				"element": "C" 
			},
			{
				"x": -0.5009289572,
				"y": -1.2189564706,
				"z": 0.0094052151,
				"element": "C" 
			},
			{
				"x": -0.8717016571,
				"y": 0.1330724638,
				"z": -0.0599687904,
				"element": "C" 
			},
			{
				"x": -1.5285552079,
				"y": 0.7084498227,
				"z": 1.0404377112,
				"element": "C" 
			},
			{
				"x": -1.7733685612,
				"y": -0.0375313303,
				"z": 2.1867175418,
				"element": "C" 
			},
			{
				"x": -0.6882356003,
				"y": 0.9768920894,
				"z": -1.2812870953,
				"element": "C" 
			},
			{
				"x": -1.4425156106,
				"y": 1.9169792725,
				"z": -1.5025713865,
				"element": "O" 
			},
			{
				"x": 0.4243985624,
				"y": 0.687009043,
				"z": -2.2545184802,
				"element": "C" 
			},
			{
				"x": 0.2411372245,
				"y": 1.0943485725,
				"z": -3.584408877,
				"element": "C" 
			},
			{
				"x": 1.2583596363,
				"y": 0.8859103661,
				"z": -4.5102794576,
				"element": "C" 
			},
			{
				"x": 2.4835250561,
				"y": 0.3245788578,
				"z": -4.1388966439,
				"element": "C" 
			},
			{
				"x": 2.6774372225,
				"y": -0.0463560773,
				"z": -2.8091471891,
				"element": "C" 
			},
			{
				"x": 1.6527008369,
				"y": 0.1236877611,
				"z": -1.8757829039,
				"element": "C" 
			},
			{
				"x": 1.0095806793,
				"y": 1.3785664465,
				"z": -6.2284001806,
				"element": "S" 
			},
			{
				"x": 0.1489010115,
				"y": -0.0390889501,
				"z": -6.9518281581,
				"element": "C" 
			},
			{
				"x": 2.3352231701,
				"y": 1.4623126188,
				"z": -6.8617402254,
				"element": "O" 
			},
			{
				"x": 0.0796399179,
				"y": 2.5163800992,
				"z": -6.248536419,
				"element": "O" 
			},
			{
				"x": -0.3189694484,
				"y": -1.0265803251,
				"z": 4.8352379686,
				"element": "H" 
			},
			{
				"x": -0.6786343152,
				"y": -2.6544781544,
				"z": 5.4362175184,
				"element": "H" 
			},
			{
				"x": 0.4623951234,
				"y": -2.4304313184,
				"z": 4.0985470259,
				"element": "H" 
			},
			{
				"x": -1.783126833,
				"y": -3.2415762828,
				"z": 3.2718793062,
				"element": "H" 
			},
			{
				"x": -2.5610206262,
				"y": -1.8462805535,
				"z": 4.0064105933,
				"element": "H" 
			},
			{
				"x": -0.4897303592,
				"y": -3.0164797503,
				"z": 1.186084297,
				"element": "H" 
			},
			{
				"x": -0.0342068285,
				"y": -1.7004671585,
				"z": -0.8436795723,
				"element": "H" 
			},
			{
				"x": -1.8427129163,
				"y": 1.744549528,
				"z": 0.9700318782,
				"element": "H" 
			},
			{
				"x": -2.2744452298,
				"y": 0.4267560609,
				"z": 3.0326700643,
				"element": "H" 
			},
			{
				"x": -0.6831742101,
				"y": 1.5868737077,
				"z": -3.8672441739,
				"element": "H" 
			},
			{
				"x": 3.2673235668,
				"y": 0.2110517004,
				"z": -4.8802602271,
				"element": "H" 
			},
			{
				"x": 3.6308771547,
				"y": -0.460959572,
				"z": -2.4964963276,
				"element": "H" 
			},
			{
				"x": 1.8194759021,
				"y": -0.1560088488,
				"z": -0.8411979166,
				"element": "H" 
			},
			{
				"x": 0.7820165444,
				"y": -0.9238366592,
				"z": -6.8718378986,
				"element": "H" 
			},
			{
				"x": -0.8016629487,
				"y": -0.1838954162,
				"z": -6.4367562311,
				"element": "H" 
			},
			{
				"x": -0.0221662303,
				"y": 0.2125815711,
				"z": -8.0005707939,
				"element": "H" 
			}
		],
		 "valence_orbital": [ 
			{
				"type": "occ",
				"energy": -0.28095,
				"method": "rhf"
			},
			{
				"type": "occ",
				"energy": -0.27845,
				"method": "rhf"
			},
			{
				"type": "occ",
				"energy": -0.26603,
				"method": "rhf"
			},
			{
				"type": "occ",
				"energy": -0.26203,
				"method": "rhf"
			},
			{
				"type": "occ",
				"energy": -0.25158,
				"method": "rhf"
			},
			{
				"type": "unocc",
				"energy": -0.07552,
				"method": "rhf"
			},
			{
				"type": "unocc",
				"energy": -0.04552,
				"method": "rhf"
			},
			{
				"type": "unocc",
				"energy": -0.0256,
				"method": "rhf"
			},
			{
				"type": "unocc",
				"energy": -0.01568,
				"method": "rhf"
			},
			{
				"type": "unocc",
				"energy": 0.03759,
				"method": "rhf"
			}
		],
		"cosmo_sigma_profile": { 
			"-0.025": 0.0,
			"-0.024": 0.0,
			"-0.023": 0.0,
			"-0.022": 0.0,
			"-0.021": 0.0,
			"-0.02": 0.0,
			"-0.019": 0.0,
			"-0.018": 0.0,
			"-0.017": 0.0,
			"-0.016": 0.0,
			"-0.015": 0.0,
			"-0.014": 0.0,
			"-0.013": 0.0,
			"-0.012": 0.0,
			"-0.011": 0.0,
			"-0.01": 0.00891280257393,
			"-0.009": 2.27761989959,
			"-0.008": 8.44448183522,
			"-0.007": 11.148899858,
			"-0.006": 18.8287204086,
			"-0.005": 22.1268076553,
			"-0.004": 28.657462986,
			"-0.003": 30.4293961839,
			"-0.002": 25.6787020333,
			"-0.001": 27.406763895,
			"0.0": 27.8289216047,
			"0.001": 28.6133363416,
			"0.002": 17.8946705831,
			"0.003": 13.2608017725,
			"0.004": 15.2636748572,
			"0.005": 5.13106107947,
			"0.006": 3.55168892643,
			"0.007": 3.53871201939,
			"0.008": 4.9411299008,
			"0.009": 6.18671421904,
			"0.01": 5.81848055447,
			"0.011": 12.9346020248,
			"0.012": 11.13461623,
			"0.013": 0.513714196114,
			"0.014": 0.0,
			"0.015": 0.0,
			"0.016": 0.0,
			"0.017": 0.0,
			"0.018": 0.0,
			"0.019": 0.0,
			"0.02": 0.0,
			"0.021": 0.0,
			"0.022": 0.0,
			"0.023": 0.0,
			"0.024": 0.0,
			"0.025": 0.0
		}
	}
}
