{
	 "smiles": "ClC1=CC2=C(C=C1Cl)C1=C(O2)C(Cl)=C(Cl)C(Cl)=C1", 
	 "Tm": 469.15, 
	 "num_atms": 21, 
	 "gaussian": { 
		 "optdone": 1, 
		 "sigma_profile": "yes", 
		 "theory": "DFT", 
		 "functional": "B3LYP", 
		 "basiset": "6-31G**", 
		 "properties": { 
			 "R2extent": 10033.7232, 
			 "electric_dipole_moment_norm": 0.672454912987, 
			 "electric_quadrupole_moment_norm": 13.2885917708, 
			 "total_energy": -2835.26017033, 
			 "HOMO_LUMO_gap": 0.17185, 
			 "cosmo_polarized_energy": -6.57, 
			 "cosmo_cavitation_energy": 35.22, 
			 "cosmo_dispersion_energy": -26.66, 
			 "cosmo_repulsion_energy": 2.03, 
			 "cosmo_total_nonelectrostatic_energy": 10.59, 
			 "SMD_solvation_energy": 4.58 
		},
		"coords": [
			{
				"x": 0.1169908016,
				"y": 4.317998076,
				"z": -0.35069795,
				"element": "Cl" 
			},
			{
				"x": -0.0720421707,
				"y": 2.5907279027,
				"z": -0.495468456,
				"element": "C" 
			},
			{
				"x": 0.9931103557,
				"y": 1.7787562368,
				"z": -0.0989933314,
				"element": "C" 
			},
			{
				"x": 0.8187949494,
				"y": 0.4110123938,
				"z": -0.2235878588,
				"element": "C" 
			},
			{
				"x": -0.3580451317,
				"y": -0.1761129119,
				"z": -0.7206730498,
				"element": "C" 
			},
			{
				"x": -1.4145667164,
				"y": 0.6475360878,
				"z": -1.1131984822,
				"element": "C" 
			},
			{
				"x": -1.2672958669,
				"y": 2.0292114983,
				"z": -0.9989588593,
				"element": "C" 
			},
			{
				"x": -2.597339954,
				"y": 3.0476724349,
				"z": -1.4938727791,
				"element": "Cl" 
			},
			{
				"x": -0.119213062,
				"y": -1.607000407,
				"z": -0.6815094145,
				"element": "C" 
			},
			{
				"x": 1.180291801,
				"y": -1.7459415254,
				"z": -0.1640297619,
				"element": "C" 
			},
			{
				"x": 1.7566431435,
				"y": -0.5355934741,
				"z": 0.1161955227,
				"element": "O" 
			},
			{
				"x": 1.7862978028,
				"y": -2.9820024565,
				"z": 0.0306042842,
				"element": "C" 
			},
			{
				"x": 3.3936751787,
				"y": -3.0575234118,
				"z": 0.6744296139,
				"element": "Cl" 
			},
			{
				"x": 1.0474000644,
				"y": -4.1282967977,
				"z": -0.312432055,
				"element": "C" 
			},
			{
				"x": 1.7516938019,
				"y": -5.6986786102,
				"z": -0.0916115828,
				"element": "Cl" 
			},
			{
				"x": -0.2613410879,
				"y": -3.9946283997,
				"z": -0.8337826792,
				"element": "C" 
			},
			{
				"x": -1.1895836328,
				"y": -5.4102502062,
				"z": -1.263737483,
				"element": "Cl" 
			},
			{
				"x": -0.849138671,
				"y": -2.7462303138,
				"z": -1.0206316502,
				"element": "C" 
			},
			{
				"x": 1.9097303068,
				"y": 2.2068247634,
				"z": 0.2870058493,
				"element": "H" 
			},
			{
				"x": -2.3406319237,
				"y": 0.2399981491,
				"z": -1.5021970109,
				"element": "H" 
			},
			{
				"x": -1.8534299887,
				"y": -2.6817790285,
				"z": -1.4222528662,
				"element": "H" 
			}
		],
		 "valence_orbital": [ 
			{
				"type": "occ",
				"energy": -0.31614,
				"method": "rhf"
			},
			{
				"type": "occ",
				"energy": -0.29068,
				"method": "rhf"
			},
			{
				"type": "occ",
				"energy": -0.27672,
				"method": "rhf"
			},
			{
				"type": "occ",
				"energy": -0.25106,
				"method": "rhf"
			},
			{
				"type": "occ",
				"energy": -0.24584,
				"method": "rhf"
			},
			{
				"type": "unocc",
				"energy": -0.07399,
				"method": "rhf"
			},
			{
				"type": "unocc",
				"energy": -0.03895,
				"method": "rhf"
			},
			{
				"type": "unocc",
				"energy": -0.02829,
				"method": "rhf"
			},
			{
				"type": "unocc",
				"energy": -0.02584,
				"method": "rhf"
			},
			{
				"type": "unocc",
				"energy": -0.01037,
				"method": "rhf"
			}
		],
		"cosmo_sigma_profile": { 
			"-0.025": 0.0,
			"-0.024": 0.0,
			"-0.023": 0.0,
			"-0.022": 0.0,
			"-0.021": 0.0,
			"-0.02": 0.0,
			"-0.019": 0.0,
			"-0.018": 0.0,
			"-0.017": 0.0,
			"-0.016": 0.0,
			"-0.015": 0.0,
			"-0.014": 0.0,
			"-0.013": 0.0,
			"-0.012": 0.0,
			"-0.011": 0.0,
			"-0.01": 1.1321285166,
			"-0.009": 6.31438475622,
			"-0.008": 4.65700470333,
			"-0.007": 5.12116168815,
			"-0.006": 3.75305199898,
			"-0.005": 4.99137849894,
			"-0.004": 8.9498881573,
			"-0.003": 15.860826108,
			"-0.002": 28.1607651607,
			"-0.001": 40.4625656501,
			"0.0": 44.2788206761,
			"0.001": 28.4977829695,
			"0.002": 25.5336037303,
			"0.003": 39.7513944232,
			"0.004": 30.6062520558,
			"0.005": 6.25735917071,
			"0.006": 1.94875800903,
			"0.007": 0.592406676045,
			"0.008": 0.0,
			"0.009": 0.0,
			"0.01": 0.0,
			"0.011": 0.0,
			"0.012": 0.0,
			"0.013": 0.0,
			"0.014": 0.0,
			"0.015": 0.0,
			"0.016": 0.0,
			"0.017": 0.0,
			"0.018": 0.0,
			"0.019": 0.0,
			"0.02": 0.0,
			"0.021": 0.0,
			"0.022": 0.0,
			"0.023": 0.0,
			"0.024": 0.0,
			"0.025": 0.0
		}
	}
}
