{
	 "smiles": "OC(=O)C1=CC(Cl)=C(C=O)C=C1", 
	 "Tm": 492.15, 
	 "num_atms": 17, 
	 "gaussian": { 
		 "optdone": 1, 
		 "sigma_profile": "yes", 
		 "theory": "DFT", 
		 "functional": "B3LYP", 
		 "basiset": "6-31G**", 
		 "properties": { 
			 "R2extent": 3117.0427, 
			 "electric_dipole_moment_norm": 2.89823631887, 
			 "electric_quadrupole_moment_norm": 12.847418903, 
			 "total_energy": -993.720944649, 
			 "HOMO_LUMO_gap": 0.174, 
			 "cosmo_polarized_energy": -15.67, 
			 "cosmo_cavitation_energy": 24.38, 
			 "cosmo_dispersion_energy": -17.93, 
			 "cosmo_repulsion_energy": 1.42, 
			 "cosmo_total_nonelectrostatic_energy": 7.87, 
			 "SMD_solvation_energy": 6.24 
		},
		"coords": [
			{
				"x": 0.0880089072,
				"y": 2.1540340568,
				"z": -2.3738661674,
				"element": "O" 
			},
			{
				"x": 1.2631902544,
				"y": 1.9410403595,
				"z": -1.729529945,
				"element": "C" 
			},
			{
				"x": 2.2203841105,
				"y": 2.6405034487,
				"z": -1.9556092437,
				"element": "O" 
			},
			{
				"x": 1.3025400787,
				"y": 0.806516155,
				"z": -0.7423194071,
				"element": "C" 
			},
			{
				"x": 0.4235969916,
				"y": -0.2802209312,
				"z": -0.8155083721,
				"element": "C" 
			},
			{
				"x": 0.5199599893,
				"y": -1.3130736315,
				"z": 0.1159953824,
				"element": "C" 
			},
			{
				"x": -0.6056145902,
				"y": -2.6549733919,
				"z": -0.0377913842,
				"element": "Cl" 
			},
			{
				"x": 1.4850508646,
				"y": -1.2818197643,
				"z": 1.1339313096,
				"element": "C" 
			},
			{
				"x": 1.6324126501,
				"y": -2.3487029316,
				"z": 2.1657297959,
				"element": "C" 
			},
			{
				"x": 2.4741453882,
				"y": -2.3017989329,
				"z": 3.0415295532,
				"element": "O" 
			},
			{
				"x": 2.3658800517,
				"y": -0.1874191204,
				"z": 1.1812177913,
				"element": "C" 
			},
			{
				"x": 2.289167363,
				"y": 0.840115809,
				"z": 0.2541081652,
				"element": "C" 
			},
			{
				"x": -0.6233173903,
				"y": 1.6389246547,
				"z": -1.9684774957,
				"element": "H" 
			},
			{
				"x": -0.3122316105,
				"y": -0.3634555316,
				"z": -1.6090906492,
				"element": "H" 
			},
			{
				"x": 0.9273688236,
				"y": -3.1958682898,
				"z": 2.0934442401,
				"element": "H" 
			},
			{
				"x": 3.1093875865,
				"y": -0.1835587214,
				"z": 1.9718415832,
				"element": "H" 
			},
			{
				"x": 2.9763705314,
				"y": 1.6782567629,
				"z": 0.2780948435,
				"element": "H" 
			}
		],
		 "valence_orbital": [ 
			{
				"type": "occ",
				"energy": -0.33355,
				"method": "rhf"
			},
			{
				"type": "occ",
				"energy": -0.29858,
				"method": "rhf"
			},
			{
				"type": "occ",
				"energy": -0.2911,
				"method": "rhf"
			},
			{
				"type": "occ",
				"energy": -0.27916,
				"method": "rhf"
			},
			{
				"type": "occ",
				"energy": -0.27619,
				"method": "rhf"
			},
			{
				"type": "unocc",
				"energy": -0.10219,
				"method": "rhf"
			},
			{
				"type": "unocc",
				"energy": -0.04777,
				"method": "rhf"
			},
			{
				"type": "unocc",
				"energy": -0.02271,
				"method": "rhf"
			},
			{
				"type": "unocc",
				"energy": 0.00035,
				"method": "rhf"
			},
			{
				"type": "unocc",
				"energy": 0.04447,
				"method": "rhf"
			}
		],
		"cosmo_sigma_profile": { 
			"-0.025": 0.0,
			"-0.024": 0.0,
			"-0.023": 0.0,
			"-0.022": 0.0,
			"-0.021": 0.0,
			"-0.02": 0.218979853377,
			"-0.019": 0.761275065571,
			"-0.018": 1.03804620256,
			"-0.017": 1.29242632422,
			"-0.016": 0.660199567568,
			"-0.015": 1.51178487714,
			"-0.014": 1.43080749217,
			"-0.013": 0.876079696023,
			"-0.012": 1.09145918949,
			"-0.011": 1.26355380617,
			"-0.01": 1.26072443144,
			"-0.009": 1.32397394635,
			"-0.008": 2.61888447087,
			"-0.007": 7.02400866807,
			"-0.006": 9.11082686856,
			"-0.005": 10.2990096368,
			"-0.004": 11.0006064821,
			"-0.003": 11.9719982701,
			"-0.002": 12.985848062,
			"-0.001": 19.6540220212,
			"0.0": 19.1711064841,
			"0.001": 13.462802847,
			"0.002": 9.04363050339,
			"0.003": 10.2513333743,
			"0.004": 5.90257435398,
			"0.005": 3.53503551637,
			"0.006": 3.58916342332,
			"0.007": 4.38210072471,
			"0.008": 5.64216262665,
			"0.009": 6.3115684702,
			"0.01": 8.75490248148,
			"0.011": 8.02728333988,
			"0.012": 3.1128290423,
			"0.013": 0.266627868776,
			"0.014": 0.0,
			"0.015": 0.0,
			"0.016": 0.0,
			"0.017": 0.0,
			"0.018": 0.0,
			"0.019": 0.0,
			"0.02": 0.0,
			"0.021": 0.0,
			"0.022": 0.0,
			"0.023": 0.0,
			"0.024": 0.0,
			"0.025": 0.0
		}
	}
}
