{
	 "smiles": "CC(C)(C)OC(=O)N1CCOCC1C(=N)NO", 
	 "Tm": 428.15, 
	 "num_atms": 36, 
	 "gaussian": { 
		 "optdone": 1, 
		 "sigma_profile": "yes", 
		 "theory": "DFT", 
		 "functional": "B3LYP", 
		 "basiset": "6-31G**", 
		 "properties": { 
			 "R2extent": 5026.0182, 
			 "electric_dipole_moment_norm": 5.05504366747, 
			 "electric_quadrupole_moment_norm": 10.5371264907, 
			 "total_energy": -857.615459554, 
			 "HOMO_LUMO_gap": 0.23185, 
			 "cosmo_polarized_energy": -14.24, 
			 "cosmo_cavitation_energy": 35.89, 
			 "cosmo_dispersion_energy": -25.32, 
			 "cosmo_repulsion_energy": 1.97, 
			 "cosmo_total_nonelectrostatic_energy": 12.53, 
			 "SMD_solvation_energy": 6.06 
		},
		"coords": [
			{
				"x": 0.5919256182,
				"y": 2.4628860484,
				"z": -0.7618019698,
				"element": "C" 
			},
			{
				"x": 1.0009403892,
				"y": 1.299012128,
				"z": -1.6692266658,
				"element": "C" 
			},
			{
				"x": 0.0327433999,
				"y": 1.0972480403,
				"z": -2.8387822066,
				"element": "C" 
			},
			{
				"x": 2.4340793239,
				"y": 1.4815515428,
				"z": -2.1751991515,
				"element": "C" 
			},
			{
				"x": 1.1030077907,
				"y": 0.0532442218,
				"z": -0.8806655131,
				"element": "O" 
			},
			{
				"x": 0.0411117612,
				"y": -0.4541107388,
				"z": -0.2252156557,
				"element": "C" 
			},
			{
				"x": -1.097064046,
				"y": 0.0155740919,
				"z": -0.2669480106,
				"element": "O" 
			},
			{
				"x": 0.3896039921,
				"y": -1.5700889983,
				"z": 0.4827814422,
				"element": "N" 
			},
			{
				"x": 1.7355454216,
				"y": -2.1537551103,
				"z": 0.3870644715,
				"element": "C" 
			},
			{
				"x": 1.9699312496,
				"y": -3.1164022929,
				"z": 1.5430402873,
				"element": "C" 
			},
			{
				"x": 0.9959799251,
				"y": -4.1611612072,
				"z": 1.6194870171,
				"element": "O" 
			},
			{
				"x": -0.2630520912,
				"y": -3.8536171639,
				"z": 1.0205671518,
				"element": "C" 
			},
			{
				"x": -0.6561560425,
				"y": -2.3808922272,
				"z": 1.1438225681,
				"element": "C" 
			},
			{
				"x": -0.9092228933,
				"y": -1.944959385,
				"z": 2.5992663148,
				"element": "C" 
			},
			{
				"x": -0.5308129575,
				"y": -2.5313126415,
				"z": 3.6713285656,
				"element": "N" 
			},
			{
				"x": -1.5568506511,
				"y": -0.7127532325,
				"z": 2.7072050367,
				"element": "N" 
			},
			{
				"x": -2.6939311922,
				"y": -0.5536028551,
				"z": 1.8625937982,
				"element": "O" 
			},
			{
				"x": 1.2764706136,
				"y": 2.5418927229,
				"z": 0.0884659318,
				"element": "H" 
			},
			{
				"x": -0.4235953176,
				"y": 2.334463548,
				"z": -0.3874479651,
				"element": "H" 
			},
			{
				"x": 0.643125389,
				"y": 3.3993015689,
				"z": -1.3264605022,
				"element": "H" 
			},
			{
				"x": 0.3341433102,
				"y": 0.2316291715,
				"z": -3.4371391476,
				"element": "H" 
			},
			{
				"x": 0.0541767952,
				"y": 1.979936271,
				"z": -3.4859346325,
				"element": "H" 
			},
			{
				"x": -0.9866250255,
				"y": 0.9457246645,
				"z": -2.4839755441,
				"element": "H" 
			},
			{
				"x": 3.1307142942,
				"y": 1.5847835436,
				"z": -1.3381712127,
				"element": "H" 
			},
			{
				"x": 2.7433751268,
				"y": 0.6241667431,
				"z": -2.77993241,
				"element": "H" 
			},
			{
				"x": 2.5001643295,
				"y": 2.3820604763,
				"z": -2.7925766493,
				"element": "H" 
			},
			{
				"x": 1.8635048832,
				"y": -2.6721408869,
				"z": -0.5732833595,
				"element": "H" 
			},
			{
				"x": 2.4785819466,
				"y": -1.3554970478,
				"z": 0.4280962088,
				"element": "H" 
			},
			{
				"x": 2.9464054818,
				"y": -3.5965122078,
				"z": 1.4239979332,
				"element": "H" 
			},
			{
				"x": 1.9763940295,
				"y": -2.5554700942,
				"z": 2.4875479898,
				"element": "H" 
			},
			{
				"x": -0.2525593821,
				"y": -4.1268387365,
				"z": -0.0444894203,
				"element": "H" 
			},
			{
				"x": -1.0065754736,
				"y": -4.4790751105,
				"z": 1.5218058802,
				"element": "H" 
			},
			{
				"x": -1.5905658294,
				"y": -2.2242821658,
				"z": 0.597702428,
				"element": "H" 
			},
			{
				"x": 0.0506387047,
				"y": -3.3430121314,
				"z": 3.4589029306,
				"element": "H" 
			},
			{
				"x": -1.8536532003,
				"y": -0.5438900686,
				"z": 3.6644024144,
				"element": "H" 
			},
			{
				"x": -2.3056996736,
				"y": -0.1061004808,
				"z": 1.0830716461,
				"element": "H" 
			}
		],
		 "valence_orbital": [ 
			{
				"type": "occ",
				"energy": -0.27972,
				"method": "rhf"
			},
			{
				"type": "occ",
				"energy": -0.27641,
				"method": "rhf"
			},
			{
				"type": "occ",
				"energy": -0.27027,
				"method": "rhf"
			},
			{
				"type": "occ",
				"energy": -0.23921,
				"method": "rhf"
			},
			{
				"type": "occ",
				"energy": -0.22177,
				"method": "rhf"
			},
			{
				"type": "unocc",
				"energy": 0.01008,
				"method": "rhf"
			},
			{
				"type": "unocc",
				"energy": 0.0332,
				"method": "rhf"
			},
			{
				"type": "unocc",
				"energy": 0.06926,
				"method": "rhf"
			},
			{
				"type": "unocc",
				"energy": 0.08569,
				"method": "rhf"
			},
			{
				"type": "unocc",
				"energy": 0.08882,
				"method": "rhf"
			}
		],
		"cosmo_sigma_profile": { 
			"-0.025": 0.0,
			"-0.024": 0.0,
			"-0.023": 0.0,
			"-0.022": 0.0,
			"-0.021": 0.0,
			"-0.02": 0.0,
			"-0.019": 0.0,
			"-0.018": 0.0,
			"-0.017": 0.0,
			"-0.016": 0.0,
			"-0.015": 0.0,
			"-0.014": 0.0,
			"-0.013": 0.30482727458,
			"-0.012": 1.13094884622,
			"-0.011": 0.52617498114,
			"-0.01": 1.04500475116,
			"-0.009": 0.518815769383,
			"-0.008": 0.399596161154,
			"-0.007": 4.0215879651,
			"-0.006": 14.2187100538,
			"-0.005": 21.2794623019,
			"-0.004": 28.1718668865,
			"-0.003": 28.840207873,
			"-0.002": 24.3674556286,
			"-0.001": 23.8682048461,
			"0.0": 31.4854885618,
			"0.001": 21.6652776574,
			"0.002": 10.906837568,
			"0.003": 10.4333956478,
			"0.004": 8.34774361974,
			"0.005": 7.5757261633,
			"0.006": 5.96449466746,
			"0.007": 5.35766844836,
			"0.008": 5.27852176678,
			"0.009": 5.4787635978,
			"0.01": 4.01776154699,
			"0.011": 3.68763929055,
			"0.012": 4.54842820815,
			"0.013": 2.19617712437,
			"0.014": 0.754312589497,
			"0.015": 0.877994746584,
			"0.016": 1.0912270713,
			"0.017": 0.860843092158,
			"0.018": 0.108331107339,
			"0.019": 0.0,
			"0.02": 0.0,
			"0.021": 0.0,
			"0.022": 0.0,
			"0.023": 0.0,
			"0.024": 0.0,
			"0.025": 0.0
		}
	}
}
