{
	 "smiles": "CSC1=CC=C(OC(C)C(O)=O)C=C1", 
	 "Tm": 368.15, 
	 "num_atms": 26, 
	 "gaussian": { 
		 "optdone": 1, 
		 "sigma_profile": "yes", 
		 "theory": "DFT", 
		 "functional": "B3LYP", 
		 "basiset": "6-31G**", 
		 "properties": { 
			 "R2extent": 4618.5608, 
			 "electric_dipole_moment_norm": 3.80701415154, 
			 "electric_quadrupole_moment_norm": 14.6348221018, 
			 "total_energy": -1012.15431526, 
			 "HOMO_LUMO_gap": 0.20685, 
			 "cosmo_polarized_energy": -13.47, 
			 "cosmo_cavitation_energy": 31.33, 
			 "cosmo_dispersion_energy": -22.66, 
			 "cosmo_repulsion_energy": 1.77, 
			 "cosmo_total_nonelectrostatic_energy": 10.45, 
			 "SMD_solvation_energy": 6.64 
		},
		"coords": [
			{
				"x": -3.3572382897,
				"y": 3.9587275751,
				"z": 1.7979462857,
				"element": "C" 
			},
			{
				"x": -2.3433230906,
				"y": 2.8792250031,
				"z": 2.8818150734,
				"element": "S" 
			},
			{
				"x": -1.4455090708,
				"y": 1.9218692998,
				"z": 1.6577637966,
				"element": "C" 
			},
			{
				"x": -0.1902446499,
				"y": 2.3476608524,
				"z": 1.1995617487,
				"element": "C" 
			},
			{
				"x": 0.5163895912,
				"y": 1.5941376734,
				"z": 0.2669572058,
				"element": "C" 
			},
			{
				"x": -0.0178486561,
				"y": 0.3934205405,
				"z": -0.2115731369,
				"element": "C" 
			},
			{
				"x": 0.7951772104,
				"y": -0.3101067433,
				"z": -1.0839144631,
				"element": "O" 
			},
			{
				"x": 0.2259243369,
				"y": -1.1518072131,
				"z": -2.1089385274,
				"element": "C" 
			},
			{
				"x": -0.8462217971,
				"y": -0.4937419373,
				"z": -2.9669096422,
				"element": "C" 
			},
			{
				"x": -0.1966230763,
				"y": -2.5167575129,
				"z": -1.5317597232,
				"element": "C" 
			},
			{
				"x": 0.4579714253,
				"y": -2.8691891886,
				"z": -0.4078461219,
				"element": "O" 
			},
			{
				"x": -0.9987734762,
				"y": -3.242119479,
				"z": -2.0661325299,
				"element": "O" 
			},
			{
				"x": -1.2613287078,
				"y": -0.0545358039,
				"z": 0.2478128838,
				"element": "C" 
			},
			{
				"x": -1.9652760546,
				"y": 0.7145848444,
				"z": 1.176488222,
				"element": "C" 
			},
			{
				"x": -3.9514358521,
				"y": 4.5921535379,
				"z": 2.4610331635,
				"element": "H" 
			},
			{
				"x": -4.0285802198,
				"y": 3.3664343521,
				"z": 1.172538083,
				"element": "H" 
			},
			{
				"x": -2.7242682236,
				"y": 4.5907555586,
				"z": 1.1713838576,
				"element": "H" 
			},
			{
				"x": 0.2301461437,
				"y": 3.2747916965,
				"z": 1.5761191855,
				"element": "H" 
			},
			{
				"x": 1.4858568073,
				"y": 1.9157701977,
				"z": -0.0991744849,
				"element": "H" 
			},
			{
				"x": 1.0948820122,
				"y": -1.3678240513,
				"z": -2.7435941047,
				"element": "H" 
			},
			{
				"x": -1.7339400315,
				"y": -0.2279804562,
				"z": -2.390877802,
				"element": "H" 
			},
			{
				"x": -1.1478663653,
				"y": -1.1975475937,
				"z": -3.7449155955,
				"element": "H" 
			},
			{
				"x": -0.4459862833,
				"y": 0.4094267694,
				"z": -3.434112961,
				"element": "H" 
			},
			{
				"x": 1.0230160818,
				"y": -2.1213865633,
				"z": -0.1448141737,
				"element": "H" 
			},
			{
				"x": -1.6850617912,
				"y": -0.9923918178,
				"z": -0.0927038108,
				"element": "H" 
			},
			{
				"x": -2.9261379731,
				"y": 0.3642304594,
				"z": 1.5398475716,
				"element": "H" 
			}
		],
		 "valence_orbital": [ 
			{
				"type": "occ",
				"energy": -0.31915,
				"method": "rhf"
			},
			{
				"type": "occ",
				"energy": -0.27461,
				"method": "rhf"
			},
			{
				"type": "occ",
				"energy": -0.26889,
				"method": "rhf"
			},
			{
				"type": "occ",
				"energy": -0.24243,
				"method": "rhf"
			},
			{
				"type": "occ",
				"energy": -0.23022,
				"method": "rhf"
			},
			{
				"type": "unocc",
				"energy": -0.02337,
				"method": "rhf"
			},
			{
				"type": "unocc",
				"energy": -0.02017,
				"method": "rhf"
			},
			{
				"type": "unocc",
				"energy": -0.00263,
				"method": "rhf"
			},
			{
				"type": "unocc",
				"energy": 0.04673,
				"method": "rhf"
			},
			{
				"type": "unocc",
				"energy": 0.06578,
				"method": "rhf"
			}
		],
		"cosmo_sigma_profile": { 
			"-0.025": 0.0,
			"-0.024": 0.0,
			"-0.023": 0.0,
			"-0.022": 0.0,
			"-0.021": 0.0,
			"-0.02": 0.0,
			"-0.019": 0.0,
			"-0.018": 0.0,
			"-0.017": 0.0,
			"-0.016": 0.305157816145,
			"-0.015": 0.526848120509,
			"-0.014": 0.341490229124,
			"-0.013": 0.983135660518,
			"-0.012": 0.736254834488,
			"-0.011": 1.15606476056,
			"-0.01": 1.92533620644,
			"-0.009": 4.09411098435,
			"-0.008": 2.77266266678,
			"-0.007": 5.94749129317,
			"-0.006": 12.5633117774,
			"-0.005": 18.2659684073,
			"-0.004": 18.3645928018,
			"-0.003": 18.6153690308,
			"-0.002": 20.3439967575,
			"-0.001": 23.733435944,
			"0.0": 15.3149384425,
			"0.001": 13.3007735432,
			"0.002": 16.2626642617,
			"0.003": 14.9527146379,
			"0.004": 14.0355561269,
			"0.005": 4.96627727937,
			"0.006": 6.80445916362,
			"0.007": 6.8398108748,
			"0.008": 5.00932031983,
			"0.009": 6.74696672247,
			"0.01": 6.39599106596,
			"0.011": 4.99768778378,
			"0.012": 3.55362788513,
			"0.013": 0.529315752796,
			"0.014": 0.0,
			"0.015": 0.0,
			"0.016": 0.0,
			"0.017": 0.0,
			"0.018": 0.0,
			"0.019": 0.0,
			"0.02": 0.0,
			"0.021": 0.0,
			"0.022": 0.0,
			"0.023": 0.0,
			"0.024": 0.0,
			"0.025": 0.0
		}
	}
}
