{
	 "smiles": "CC(O)(CO)C(O)C12NC(=O)C(O)(NC1=O)C(=C)CCO2", 
	 "Tm": 461.15, 
	 "num_atms": 39, 
	 "gaussian": { 
		 "optdone": 1, 
		 "sigma_profile": "yes", 
		 "theory": "DFT", 
		 "functional": "B3LYP", 
		 "basiset": "6-31G**", 
		 "properties": { 
			 "R2extent": 5600.2433, 
			 "electric_dipole_moment_norm": 1.6382252745, 
			 "electric_quadrupole_moment_norm": 12.4343446916, 
			 "total_energy": -1104.15807096, 
			 "HOMO_LUMO_gap": 0.23513, 
			 "cosmo_polarized_energy": -20.67, 
			 "cosmo_cavitation_energy": 37.87, 
			 "cosmo_dispersion_energy": -26.68, 
			 "cosmo_repulsion_energy": 1.97, 
			 "cosmo_total_nonelectrostatic_energy": 13.16, 
			 "SMD_solvation_energy": 7.16 
		},
		"coords": [
			{
				"x": -1.0804192681,
				"y": 1.6333482899,
				"z": -3.4250014777,
				"element": "C" 
			},
			{
				"x": 0.2696534717,
				"y": 0.9093450266,
				"z": -3.4074085744,
				"element": "C" 
			},
			{
				"x": 0.5365468803,
				"y": 0.3535848708,
				"z": -4.7055053912,
				"element": "O" 
			},
			{
				"x": 1.3909286572,
				"y": 1.9365637039,
				"z": -3.2097275045,
				"element": "C" 
			},
			{
				"x": 2.6655050084,
				"y": 1.3324146952,
				"z": -2.9821088748,
				"element": "O" 
			},
			{
				"x": 0.3362693896,
				"y": -0.3434903366,
				"z": -2.4577595548,
				"element": "C" 
			},
			{
				"x": -0.6451649081,
				"y": -1.2698925463,
				"z": -2.8827432121,
				"element": "O" 
			},
			{
				"x": 0.3101533116,
				"y": -0.1855773643,
				"z": -0.9131135336,
				"element": "C" 
			},
			{
				"x": 1.3648470942,
				"y": 0.7147946955,
				"z": -0.4990610155,
				"element": "N" 
			},
			{
				"x": 1.3685029742,
				"y": 1.3266736027,
				"z": 0.7108577904,
				"element": "C" 
			},
			{
				"x": 2.1856833211,
				"y": 2.1588085026,
				"z": 1.0835952632,
				"element": "O" 
			},
			{
				"x": 0.2383414239,
				"y": 0.8815829112,
				"z": 1.6646016041,
				"element": "C" 
			},
			{
				"x": 0.0514855316,
				"y": 1.8759206107,
				"z": 2.6255025057,
				"element": "O" 
			},
			{
				"x": -0.9978189758,
				"y": 0.8158334602,
				"z": 0.8702861379,
				"element": "N" 
			},
			{
				"x": -1.0634554564,
				"y": 0.2508766597,
				"z": -0.354333266,
				"element": "C" 
			},
			{
				"x": -2.1136290237,
				"y": 0.0317352825,
				"z": -0.9586242859,
				"element": "O" 
			},
			{
				"x": 0.5900549573,
				"y": -0.4832609008,
				"z": 2.3170715609,
				"element": "C" 
			},
			{
				"x": -0.1005200159,
				"y": -0.8787463887,
				"z": 3.387361798,
				"element": "C" 
			},
			{
				"x": 1.7706163264,
				"y": -1.2650074083,
				"z": 1.7735308824,
				"element": "C" 
			},
			{
				"x": 1.5971970898,
				"y": -1.885300162,
				"z": 0.3521301358,
				"element": "C" 
			},
			{
				"x": 0.4117532202,
				"y": -1.5037276238,
				"z": -0.3387622742,
				"element": "O" 
			},
			{
				"x": -1.892867586,
				"y": 0.933477169,
				"z": -3.6295376086,
				"element": "H" 
			},
			{
				"x": -1.0680232686,
				"y": 2.3818223277,
				"z": -4.2227599912,
				"element": "H" 
			},
			{
				"x": -1.2991949111,
				"y": 2.1336681285,
				"z": -2.477929233,
				"element": "H" 
			},
			{
				"x": -0.0192942807,
				"y": -0.4410753294,
				"z": -4.7617282634,
				"element": "H" 
			},
			{
				"x": 1.4188572912,
				"y": 2.5702679463,
				"z": -4.1053781518,
				"element": "H" 
			},
			{
				"x": 1.1941927243,
				"y": 2.5765853305,
				"z": -2.3472785766,
				"element": "H" 
			},
			{
				"x": 2.8133265214,
				"y": 0.7285835221,
				"z": -3.7253523484,
				"element": "H" 
			},
			{
				"x": 1.3041415777,
				"y": -0.8114292697,
				"z": -2.6703757954,
				"element": "H" 
			},
			{
				"x": -1.4676908162,
				"y": -1.0196347073,
				"z": -2.4186343347,
				"element": "H" 
			},
			{
				"x": 2.1261054968,
				"y": 0.9078452432,
				"z": -1.1552439214,
				"element": "H" 
			},
			{
				"x": 0.8569159191,
				"y": 2.4261459737,
				"z": 2.5773502264,
				"element": "H" 
			},
			{
				"x": -1.8689588002,
				"y": 0.9713738844,
				"z": 1.3641437788,
				"element": "H" 
			},
			{
				"x": -0.8899152783,
				"y": -0.2683043539,
				"z": 3.8146210228,
				"element": "H" 
			},
			{
				"x": 0.1152805999,
				"y": -1.8208129659,
				"z": 3.882695529,
				"element": "H" 
			},
			{
				"x": 1.9957435394,
				"y": -2.0716169176,
				"z": 2.4779012377,
				"element": "H" 
			},
			{
				"x": 2.6496497903,
				"y": -0.6080612136,
				"z": 1.7765164443,
				"element": "H" 
			},
			{
				"x": 1.4916283764,
				"y": -2.9692336692,
				"z": 0.4393728512,
				"element": "H" 
			},
			{
				"x": 2.4884720951,
				"y": -1.6888806793,
				"z": -0.2565715795,
				"element": "H" 
			}
		],
		 "valence_orbital": [ 
			{
				"type": "occ",
				"energy": -0.2822,
				"method": "rhf"
			},
			{
				"type": "occ",
				"energy": -0.27307,
				"method": "rhf"
			},
			{
				"type": "occ",
				"energy": -0.26688,
				"method": "rhf"
			},
			{
				"type": "occ",
				"energy": -0.2614,
				"method": "rhf"
			},
			{
				"type": "occ",
				"energy": -0.25495,
				"method": "rhf"
			},
			{
				"type": "unocc",
				"energy": -0.01982,
				"method": "rhf"
			},
			{
				"type": "unocc",
				"energy": -0.0107,
				"method": "rhf"
			},
			{
				"type": "unocc",
				"energy": 0.00675,
				"method": "rhf"
			},
			{
				"type": "unocc",
				"energy": 0.06214,
				"method": "rhf"
			},
			{
				"type": "unocc",
				"energy": 0.07856,
				"method": "rhf"
			}
		],
		"cosmo_sigma_profile": { 
			"-0.025": 0.0,
			"-0.024": 0.0,
			"-0.023": 0.0,
			"-0.022": 0.0,
			"-0.021": 0.0,
			"-0.02": 0.0,
			"-0.019": 0.0,
			"-0.018": 0.0,
			"-0.017": 0.0,
			"-0.016": 0.118083035744,
			"-0.015": 0.961029287011,
			"-0.014": 1.48019273517,
			"-0.013": 1.66421753068,
			"-0.012": 1.88089021789,
			"-0.011": 2.21780655992,
			"-0.01": 2.43274294947,
			"-0.009": 3.83329108333,
			"-0.008": 5.02542523432,
			"-0.007": 7.06941924396,
			"-0.006": 15.2148603619,
			"-0.005": 28.2780128272,
			"-0.004": 26.5736288383,
			"-0.003": 26.9665609402,
			"-0.002": 22.8497990463,
			"-0.001": 15.7144740145,
			"0.0": 17.0757930173,
			"0.001": 13.1559750121,
			"0.002": 10.887226533,
			"0.003": 12.23542935,
			"0.004": 7.99015175478,
			"0.005": 9.73453204747,
			"0.006": 7.75978745101,
			"0.007": 8.31286466601,
			"0.008": 6.54242095128,
			"0.009": 8.14315862212,
			"0.01": 9.222522961,
			"0.011": 8.83006746239,
			"0.012": 7.15367577022,
			"0.013": 3.6062564245,
			"0.014": 1.67705437132,
			"0.015": 0.276490534536,
			"0.016": 0.0,
			"0.017": 0.0,
			"0.018": 0.0,
			"0.019": 0.0,
			"0.02": 0.0,
			"0.021": 0.0,
			"0.022": 0.0,
			"0.023": 0.0,
			"0.024": 0.0,
			"0.025": 0.0
		}
	}
}
