{
	 "smiles": "CC1(C)C2CCC1(C)C(=O)C(=CC1=C(C=CC=C1)[N+]([O-])=O)C2=O", 
	 "Tm": 413.15, 
	 "num_atms": 42, 
	 "gaussian": { 
		 "optdone": 1, 
		 "sigma_profile": "yes", 
		 "theory": "DFT", 
		 "functional": "B3LYP", 
		 "basiset": "6-31G**", 
		 "properties": { 
			 "R2extent": 7175.961, 
			 "electric_dipole_moment_norm": 2.17670932602, 
			 "electric_quadrupole_moment_norm": 24.5225199574, 
			 "total_energy": -1052.90006285, 
			 "HOMO_LUMO_gap": 0.13654, 
			 "cosmo_polarized_energy": -15.59, 
			 "cosmo_cavitation_energy": 41.89, 
			 "cosmo_dispersion_energy": -28.78, 
			 "cosmo_repulsion_energy": 2.12, 
			 "cosmo_total_nonelectrostatic_energy": 15.22, 
			 "SMD_solvation_energy": 9.58 
		},
		"coords": [
			{
				"x": -2.7688653287,
				"y": 1.2545453785,
				"z": 1.6797901086,
				"element": "C" 
			},
			{
				"x": -2.2944853355,
				"y": 1.7416636239,
				"z": 0.2977124852,
				"element": "C" 
			},
			{
				"x": -3.516296319,
				"y": 2.3261328172,
				"z": -0.4391663549,
				"element": "C" 
			},
			{
				"x": -1.6497772576,
				"y": 0.619016569,
				"z": -0.5657687338,
				"element": "C" 
			},
			{
				"x": -0.9322074339,
				"y": 1.3863856499,
				"z": -1.717289078,
				"element": "C" 
			},
			{
				"x": -0.5718119599,
				"y": 2.7706929747,
				"z": -1.1172488548,
				"element": "C" 
			},
			{
				"x": -1.1008741381,
				"y": 2.76384633,
				"z": 0.3579898216,
				"element": "C" 
			},
			{
				"x": -1.4457312514,
				"y": 4.162429275,
				"z": 0.8708825712,
				"element": "C" 
			},
			{
				"x": 0.0263675759,
				"y": 2.1623205933,
				"z": 1.2137817446,
				"element": "C" 
			},
			{
				"x": 0.6511731208,
				"y": 2.8345645501,
				"z": 2.0201023319,
				"element": "O" 
			},
			{
				"x": 0.3721661812,
				"y": 0.7093849313,
				"z": 0.9823394292,
				"element": "C" 
			},
			{
				"x": 1.5302503856,
				"y": 0.2722265187,
				"z": 1.5249105465,
				"element": "C" 
			},
			{
				"x": 2.1605110874,
				"y": -1.0605203343,
				"z": 1.5483519557,
				"element": "C" 
			},
			{
				"x": 2.3699176725,
				"y": -1.9452217555,
				"z": 0.4722188156,
				"element": "C" 
			},
			{
				"x": 2.9282093896,
				"y": -3.2072700517,
				"z": 0.6472537605,
				"element": "C" 
			},
			{
				"x": 3.324585686,
				"y": -3.6219651307,
				"z": 1.9172895683,
				"element": "C" 
			},
			{
				"x": 3.1646375445,
				"y": -2.759389852,
				"z": 3.0002765961,
				"element": "C" 
			},
			{
				"x": 2.6014852057,
				"y": -1.4983353292,
				"z": 2.8097937806,
				"element": "C" 
			},
			{
				"x": 2.0771949106,
				"y": -1.5560929701,
				"z": -0.9178105316,
				"element": "N" 
			},
			{
				"x": 1.825854655,
				"y": -2.4522127724,
				"z": -1.7177671989,
				"element": "O" 
			},
			{
				"x": 2.1442474301,
				"y": -0.3595736329,
				"z": -1.2029612091,
				"element": "O" 
			},
			{
				"x": -0.5930549889,
				"y": -0.1392148396,
				"z": 0.2143551796,
				"element": "C" 
			},
			{
				"x": -0.5277941719,
				"y": -1.359646678,
				"z": 0.2062039025,
				"element": "O" 
			},
			{
				"x": -3.559440355,
				"y": 0.5047864422,
				"z": 1.5685403088,
				"element": "H" 
			},
			{
				"x": -3.1818345879,
				"y": 2.0846645805,
				"z": 2.2621719594,
				"element": "H" 
			},
			{
				"x": -1.9711672018,
				"y": 0.8006708986,
				"z": 2.2756548417,
				"element": "H" 
			},
			{
				"x": -3.2650382647,
				"y": 2.752643176,
				"z": -1.4137576289,
				"element": "H" 
			},
			{
				"x": -3.9951210308,
				"y": 3.110384077,
				"z": 0.1546830645,
				"element": "H" 
			},
			{
				"x": -4.2599117579,
				"y": 1.5387212828,
				"z": -0.6036491224,
				"element": "H" 
			},
			{
				"x": -2.3752327977,
				"y": -0.1131431544,
				"z": -0.93044336,
				"element": "H" 
			},
			{
				"x": -1.6120035676,
				"y": 1.4874911511,
				"z": -2.5677918937,
				"element": "H" 
			},
			{
				"x": -0.0529845489,
				"y": 0.8439436004,
				"z": -2.0755618223,
				"element": "H" 
			},
			{
				"x": -1.0616764483,
				"y": 3.5813243305,
				"z": -1.6653560138,
				"element": "H" 
			},
			{
				"x": 0.5023735264,
				"y": 2.9756215125,
				"z": -1.1565082924,
				"element": "H" 
			},
			{
				"x": -0.5498074128,
				"y": 4.7866233357,
				"z": 0.9011463236,
				"element": "H" 
			},
			{
				"x": -1.8459093631,
				"y": 4.1305568422,
				"z": 1.8887116756,
				"element": "H" 
			},
			{
				"x": -2.1816696065,
				"y": 4.6443034667,
				"z": 0.2219738204,
				"element": "H" 
			},
			{
				"x": 2.0522525737,
				"y": 1.0238825068,
				"z": 2.1183368082,
				"element": "H" 
			},
			{
				"x": 3.0516286212,
				"y": -3.8424105612,
				"z": -0.2211133523,
				"element": "H" 
			},
			{
				"x": 3.7670742891,
				"y": -4.6036372153,
				"z": 2.0513604407,
				"element": "H" 
			},
			{
				"x": 3.4810093685,
				"y": -3.0613119397,
				"z": 3.9939017894,
				"element": "H" 
			},
			{
				"x": 2.4720559035,
				"y": -0.8345801976,
				"z": 3.6595598173,
				"element": "H" 
			}
		],
		 "valence_orbital": [ 
			{
				"type": "occ",
				"energy": -0.29107,
				"method": "rhf"
			},
			{
				"type": "occ",
				"energy": -0.27691,
				"method": "rhf"
			},
			{
				"type": "occ",
				"energy": -0.26114,
				"method": "rhf"
			},
			{
				"type": "occ",
				"energy": -0.25166,
				"method": "rhf"
			},
			{
				"type": "occ",
				"energy": -0.23798,
				"method": "rhf"
			},
			{
				"type": "unocc",
				"energy": -0.10144,
				"method": "rhf"
			},
			{
				"type": "unocc",
				"energy": -0.07125,
				"method": "rhf"
			},
			{
				"type": "unocc",
				"energy": -0.02308,
				"method": "rhf"
			},
			{
				"type": "unocc",
				"energy": -0.01419,
				"method": "rhf"
			},
			{
				"type": "unocc",
				"energy": -0.0039,
				"method": "rhf"
			}
		],
		"cosmo_sigma_profile": { 
			"-0.025": 0.0,
			"-0.024": 0.0,
			"-0.023": 0.0,
			"-0.022": 0.0,
			"-0.021": 0.0,
			"-0.02": 0.0,
			"-0.019": 0.0,
			"-0.018": 0.0,
			"-0.017": 0.0,
			"-0.016": 0.0,
			"-0.015": 0.0,
			"-0.014": 0.0,
			"-0.013": 0.0,
			"-0.012": 0.0,
			"-0.011": 0.0,
			"-0.01": 0.0,
			"-0.009": 0.449138681268,
			"-0.008": 6.74242391499,
			"-0.007": 10.7803316554,
			"-0.006": 10.8316909079,
			"-0.005": 12.1578603154,
			"-0.004": 26.6959440979,
			"-0.003": 38.9210840284,
			"-0.002": 34.3109593483,
			"-0.001": 38.9001402784,
			"0.0": 34.9559329597,
			"0.001": 25.3811560749,
			"0.002": 16.7356610197,
			"0.003": 7.24002222949,
			"0.004": 6.02086398723,
			"0.005": 6.70186742784,
			"0.006": 8.34069527965,
			"0.007": 12.1493089885,
			"0.008": 9.01861438619,
			"0.009": 6.71543508011,
			"0.01": 5.62853555727,
			"0.011": 5.85452510582,
			"0.012": 4.16305678362,
			"0.013": 1.01742488123,
			"0.014": 0.023866137697,
			"0.015": 0.0,
			"0.016": 0.0,
			"0.017": 0.0,
			"0.018": 0.0,
			"0.019": 0.0,
			"0.02": 0.0,
			"0.021": 0.0,
			"0.022": 0.0,
			"0.023": 0.0,
			"0.024": 0.0,
			"0.025": 0.0
		}
	}
}
