{
	 "smiles": "COC1=CC(CNC(=O)C2=C(CCO)C3=CC=CC=C3N2)=CC=C1", 
	 "Tm": 424.15, 
	 "num_atms": 44, 
	 "gaussian": { 
		 "optdone": 1, 
		 "sigma_profile": "yes", 
		 "theory": "DFT", 
		 "functional": "B3LYP", 
		 "basiset": "6-31G**", 
		 "properties": { 
			 "R2extent": 10396.0668, 
			 "electric_dipole_moment_norm": 3.66283243133, 
			 "electric_quadrupole_moment_norm": 14.2583847009, 
			 "total_energy": -1071.25679331, 
			 "HOMO_LUMO_gap": 0.17106, 
			 "cosmo_polarized_energy": -18.77, 
			 "cosmo_cavitation_energy": 46.62, 
			 "cosmo_dispersion_energy": -32.08, 
			 "cosmo_repulsion_energy": 2.43, 
			 "cosmo_total_nonelectrostatic_energy": 16.97, 
			 "SMD_solvation_energy": 8.24 
		},
		"coords": [
			{
				"x": -4.3440844718,
				"y": 1.6278479531,
				"z": 4.0996072809,
				"element": "C" 
			},
			{
				"x": -3.0641817431,
				"y": 1.5082852994,
				"z": 4.697765971,
				"element": "O" 
			},
			{
				"x": -2.0887046931,
				"y": 0.8389517305,
				"z": 4.0156099722,
				"element": "C" 
			},
			{
				"x": -2.2622749809,
				"y": 0.2490603483,
				"z": 2.7596501717,
				"element": "C" 
			},
			{
				"x": -1.1934727388,
				"y": -0.4170938664,
				"z": 2.1403777821,
				"element": "C" 
			},
			{
				"x": -1.4113640527,
				"y": -1.0146803615,
				"z": 0.759037759,
				"element": "C" 
			},
			{
				"x": -0.6041137092,
				"y": -2.2022946951,
				"z": 0.5192880204,
				"element": "N" 
			},
			{
				"x": 0.0337219636,
				"y": -2.5884083217,
				"z": -0.6252140299,
				"element": "C" 
			},
			{
				"x": 0.2869240269,
				"y": -3.7777330982,
				"z": -0.8382591994,
				"element": "O" 
			},
			{
				"x": 0.4396137408,
				"y": -1.584554789,
				"z": -1.6521092189,
				"element": "C" 
			},
			{
				"x": 1.0130997361,
				"y": -0.3175477871,
				"z": -1.6550217766,
				"element": "C" 
			},
			{
				"x": 1.4572698186,
				"y": 0.534379358,
				"z": -0.4986137363,
				"element": "C" 
			},
			{
				"x": 2.8409025685,
				"y": 0.1205824308,
				"z": 0.0446291058,
				"element": "C" 
			},
			{
				"x": 2.8458122441,
				"y": -1.1809261944,
				"z": 0.6108937781,
				"element": "O" 
			},
			{
				"x": 1.294779556,
				"y": -0.0128203155,
				"z": -3.0367431619,
				"element": "C" 
			},
			{
				"x": 1.8632910105,
				"y": 1.1006220747,
				"z": -3.685058291,
				"element": "C" 
			},
			{
				"x": 2.0010004572,
				"y": 1.0777721738,
				"z": -5.0651770235,
				"element": "C" 
			},
			{
				"x": 1.5826152447,
				"y": -0.0397496834,
				"z": -5.8213454656,
				"element": "C" 
			},
			{
				"x": 1.015617875,
				"y": -1.1516856572,
				"z": -5.214173049,
				"element": "C" 
			},
			{
				"x": 0.8803141558,
				"y": -1.125928558,
				"z": -3.8193791027,
				"element": "C" 
			},
			{
				"x": 0.3661080349,
				"y": -2.0562179924,
				"z": -2.9551111083,
				"element": "N" 
			},
			{
				"x": 0.0434645148,
				"y": -0.5028359358,
				"z": 2.7838212504,
				"element": "C" 
			},
			{
				"x": 0.2043596041,
				"y": 0.0861998564,
				"z": 4.0437595905,
				"element": "C" 
			},
			{
				"x": -0.8456183661,
				"y": 0.7534101221,
				"z": 4.6611963859,
				"element": "C" 
			},
			{
				"x": -4.9549771881,
				"y": 2.1942849198,
				"z": 4.8042612971,
				"element": "H" 
			},
			{
				"x": -4.2979989374,
				"y": 2.1703369063,
				"z": 3.1461926827,
				"element": "H" 
			},
			{
				"x": -4.8070427893,
				"y": 0.6467963755,
				"z": 3.9303100072,
				"element": "H" 
			},
			{
				"x": -3.2210546341,
				"y": 0.2954839691,
				"z": 2.2541609545,
				"element": "H" 
			},
			{
				"x": -1.1766176766,
				"y": -0.288931049,
				"z": -0.0244774627,
				"element": "H" 
			},
			{
				"x": -2.4769730804,
				"y": -1.2584299066,
				"z": 0.638338601,
				"element": "H" 
			},
			{
				"x": -0.7828656102,
				"y": -2.9936518638,
				"z": 1.1266156964,
				"element": "H" 
			},
			{
				"x": 0.7526206809,
				"y": 0.5044364297,
				"z": 0.3345932916,
				"element": "H" 
			},
			{
				"x": 1.5139296699,
				"y": 1.5810499907,
				"z": -0.8222412899,
				"element": "H" 
			},
			{
				"x": 3.5945801623,
				"y": 0.2098425355,
				"z": -0.7524653938,
				"element": "H" 
			},
			{
				"x": 3.1283759179,
				"y": 0.7997871547,
				"z": 0.8536111631,
				"element": "H" 
			},
			{
				"x": 2.6668947707,
				"y": -1.8127053639,
				"z": -0.0995555749,
				"element": "H" 
			},
			{
				"x": 2.1893975837,
				"y": 1.9662347331,
				"z": -3.1151867742,
				"element": "H" 
			},
			{
				"x": 2.4366729917,
				"y": 1.9306770003,
				"z": -5.5770071754,
				"element": "H" 
			},
			{
				"x": 1.7065996695,
				"y": -0.0276514459,
				"z": -6.9002580488,
				"element": "H" 
			},
			{
				"x": 0.6927213228,
				"y": -2.0098003252,
				"z": -5.7962271138,
				"element": "H" 
			},
			{
				"x": 0.1322580497,
				"y": -3.0178911668,
				"z": -3.1524032496,
				"element": "H" 
			},
			{
				"x": 0.8720745461,
				"y": -1.0153089391,
				"z": 2.3045455574,
				"element": "H" 
			},
			{
				"x": 1.1645507637,
				"y": 0.0197208013,
				"z": 4.5475025391,
				"element": "H" 
			},
			{
				"x": -0.7361260087,
				"y": 1.210885153,
				"z": 5.6389583882,
				"element": "H" 
			}
		],
		 "valence_orbital": [ 
			{
				"type": "occ",
				"energy": -0.25717,
				"method": "rhf"
			},
			{
				"type": "occ",
				"energy": -0.24556,
				"method": "rhf"
			},
			{
				"type": "occ",
				"energy": -0.22419,
				"method": "rhf"
			},
			{
				"type": "occ",
				"energy": -0.22008,
				"method": "rhf"
			},
			{
				"type": "occ",
				"energy": -0.20769,
				"method": "rhf"
			},
			{
				"type": "unocc",
				"energy": -0.03663,
				"method": "rhf"
			},
			{
				"type": "unocc",
				"energy": -0.00584,
				"method": "rhf"
			},
			{
				"type": "unocc",
				"energy": 0.00918,
				"method": "rhf"
			},
			{
				"type": "unocc",
				"energy": 0.01727,
				"method": "rhf"
			},
			{
				"type": "unocc",
				"energy": 0.02607,
				"method": "rhf"
			}
		],
		"cosmo_sigma_profile": { 
			"-0.025": 0.0,
			"-0.024": 0.0,
			"-0.023": 0.0,
			"-0.022": 0.0,
			"-0.021": 0.0,
			"-0.02": 0.0,
			"-0.019": 0.0,
			"-0.018": 0.0,
			"-0.017": 0.0,
			"-0.016": 0.0,
			"-0.015": 0.0973527140522,
			"-0.014": 1.25244439838,
			"-0.013": 1.84602951946,
			"-0.012": 2.0119006101,
			"-0.011": 2.58778882917,
			"-0.01": 3.04597083549,
			"-0.009": 2.57904268995,
			"-0.008": 2.7795434581,
			"-0.007": 4.17602786364,
			"-0.006": 16.5658825436,
			"-0.005": 31.5267527733,
			"-0.004": 33.2279507215,
			"-0.003": 39.1617120909,
			"-0.002": 26.3094966956,
			"-0.001": 23.3973419736,
			"0.0": 19.7387604389,
			"0.001": 19.332280771,
			"0.002": 22.1260389527,
			"0.003": 21.4039698353,
			"0.004": 24.473310973,
			"0.005": 22.438532607,
			"0.006": 18.134881907,
			"0.007": 6.62174247413,
			"0.008": 3.12411059756,
			"0.009": 2.88085971742,
			"0.01": 3.71329583855,
			"0.011": 2.81568986068,
			"0.012": 3.2819668869,
			"0.013": 5.50796362589,
			"0.014": 3.83353533568,
			"0.015": 0.241469395604,
			"0.016": 0.0,
			"0.017": 0.0,
			"0.018": 0.0,
			"0.019": 0.0,
			"0.02": 0.0,
			"0.021": 0.0,
			"0.022": 0.0,
			"0.023": 0.0,
			"0.024": 0.0,
			"0.025": 0.0
		}
	}
}
