{
	 "smiles": "COC1=C(C=CC=C1)C1=NN=C(N)N1", 
	 "Tm": 488.15, 
	 "num_atms": 24, 
	 "gaussian": { 
		 "optdone": 1, 
		 "sigma_profile": "yes", 
		 "theory": "DFT", 
		 "functional": "B3LYP", 
		 "basiset": "6-31G**", 
		 "properties": { 
			 "R2extent": 4183.3499, 
			 "electric_dipole_moment_norm": 6.4433402603, 
			 "electric_quadrupole_moment_norm": 26.0910191459, 
			 "total_energy": -643.192680467, 
			 "HOMO_LUMO_gap": 0.17156, 
			 "cosmo_polarized_energy": -22.03, 
			 "cosmo_cavitation_energy": 28.05, 
			 "cosmo_dispersion_energy": -21.03, 
			 "cosmo_repulsion_energy": 1.65, 
			 "cosmo_total_nonelectrostatic_energy": 8.67, 
			 "SMD_solvation_energy": 3.3 
		},
		"coords": [
			{
				"x": 0.4751953278,
				"y": -0.5620232455,
				"z": -1.7660576701,
				"element": "C" 
			},
			{
				"x": 0.7573324637,
				"y": -0.3070746492,
				"z": -0.3962791915,
				"element": "O" 
			},
			{
				"x": 1.0855278225,
				"y": 0.9762927927,
				"z": -0.0175064856,
				"element": "C" 
			},
			{
				"x": 1.3370459854,
				"y": 1.1917108243,
				"z": 1.3575106442,
				"element": "C" 
			},
			{
				"x": 1.6714360079,
				"y": 2.489662196,
				"z": 1.7753186255,
				"element": "C" 
			},
			{
				"x": 1.7573704693,
				"y": 3.5446340129,
				"z": 0.8727047163,
				"element": "C" 
			},
			{
				"x": 1.5075731945,
				"y": 3.315386814,
				"z": -0.4798304604,
				"element": "C" 
			},
			{
				"x": 1.1722273666,
				"y": 2.0358153392,
				"z": -0.9255292092,
				"element": "C" 
			},
			{
				"x": 1.2625633607,
				"y": 0.1394233706,
				"z": 2.3727764434,
				"element": "C" 
			},
			{
				"x": 1.45615774,
				"y": 0.3193510701,
				"z": 3.6644179402,
				"element": "N" 
			},
			{
				"x": 1.3223197043,
				"y": -0.9007353322,
				"z": 4.2939665339,
				"element": "N" 
			},
			{
				"x": 1.0337548616,
				"y": -1.7861853775,
				"z": 3.3638696422,
				"element": "C" 
			},
			{
				"x": 0.7378311786,
				"y": -3.1289181081,
				"z": 3.5725915303,
				"element": "N" 
			},
			{
				"x": 0.9869222083,
				"y": -1.1919751131,
				"z": 2.1365389918,
				"element": "N" 
			},
			{
				"x": 0.2336761075,
				"y": -1.6241148042,
				"z": -1.8320575258,
				"element": "H" 
			},
			{
				"x": 1.3434275079,
				"y": -0.3495029379,
				"z": -2.401228295,
				"element": "H" 
			},
			{
				"x": -0.3826004088,
				"y": 0.0250298974,
				"z": -2.1150318421,
				"element": "H" 
			},
			{
				"x": 1.8595489083,
				"y": 2.6398195516,
				"z": 2.8327602041,
				"element": "H" 
			},
			{
				"x": 2.0180243733,
				"y": 4.5380814991,
				"z": 1.2236590069,
				"element": "H" 
			},
			{
				"x": 1.570883791,
				"y": 4.1279367191,
				"z": -1.197558793,
				"element": "H" 
			},
			{
				"x": 0.9801419001,
				"y": 1.8738142904,
				"z": -1.9789704414,
				"element": "H" 
			},
			{
				"x": 1.3025917333,
				"y": -3.7620745656,
				"z": 3.0155802847,
				"element": "H" 
			},
			{
				"x": 0.8430696369,
				"y": -3.3471231433,
				"z": 4.5574141797,
				"element": "H" 
			},
			{
				"x": 0.7307787593,
				"y": -1.5764311008,
				"z": 1.2399411709,
				"element": "H" 
			}
		],
		 "valence_orbital": [ 
			{
				"type": "occ",
				"energy": -0.28624,
				"method": "rhf"
			},
			{
				"type": "occ",
				"energy": -0.26593,
				"method": "rhf"
			},
			{
				"type": "occ",
				"energy": -0.23847,
				"method": "rhf"
			},
			{
				"type": "occ",
				"energy": -0.23565,
				"method": "rhf"
			},
			{
				"type": "occ",
				"energy": -0.19817,
				"method": "rhf"
			},
			{
				"type": "unocc",
				"energy": -0.02661,
				"method": "rhf"
			},
			{
				"type": "unocc",
				"energy": 0.0064,
				"method": "rhf"
			},
			{
				"type": "unocc",
				"energy": 0.05765,
				"method": "rhf"
			},
			{
				"type": "unocc",
				"energy": 0.07376,
				"method": "rhf"
			},
			{
				"type": "unocc",
				"energy": 0.07996,
				"method": "rhf"
			}
		],
		"cosmo_sigma_profile": { 
			"-0.025": 0.0,
			"-0.024": 0.0,
			"-0.023": 0.0,
			"-0.022": 0.0,
			"-0.021": 0.0,
			"-0.02": 0.0,
			"-0.019": 0.0,
			"-0.018": 0.0,
			"-0.017": 0.0,
			"-0.016": 0.0,
			"-0.015": 0.0607409288183,
			"-0.014": 1.57635912823,
			"-0.013": 3.93436553335,
			"-0.012": 3.77507840157,
			"-0.011": 3.589083545,
			"-0.01": 2.53438617277,
			"-0.009": 3.49812809404,
			"-0.008": 2.00388665343,
			"-0.007": 4.63607044834,
			"-0.006": 14.4460978701,
			"-0.005": 18.5002284079,
			"-0.004": 17.5389034709,
			"-0.003": 14.6195620389,
			"-0.002": 10.6541547117,
			"-0.001": 10.7327174309,
			"0.0": 11.8284770444,
			"0.001": 13.5060557928,
			"0.002": 13.1653431885,
			"0.003": 14.220014793,
			"0.004": 14.1715842991,
			"0.005": 11.29213225,
			"0.006": 2.95533863304,
			"0.007": 2.35617099403,
			"0.008": 2.62211687966,
			"0.009": 2.90922322449,
			"0.01": 1.94110257506,
			"0.011": 2.81039370855,
			"0.012": 3.28193045627,
			"0.013": 2.93840457391,
			"0.014": 3.58649236762,
			"0.015": 3.61007222082,
			"0.016": 2.6507541746,
			"0.017": 1.73162805116,
			"0.018": 0.286763492961,
			"0.019": 0.0,
			"0.02": 0.0,
			"0.021": 0.0,
			"0.022": 0.0,
			"0.023": 0.0,
			"0.024": 0.0,
			"0.025": 0.0
		}
	}
}
