{
	 "smiles": "FC1=C(Br)C=C(C=C1)C1NC(=O)NC1=O", 
	 "Tm": 447.15, 
	 "num_atms": 21, 
	 "gaussian": { 
		 "optdone": 1, 
		 "sigma_profile": "yes", 
		 "theory": "DFT", 
		 "functional": "B3LYP", 
		 "basiset": "6-31G**", 
		 "properties": { 
			 "R2extent": 6054.2124, 
			 "electric_dipole_moment_norm": 2.59836110077, 
			 "electric_quadrupole_moment_norm": 6.28669324526, 
			 "total_energy": -3277.79602298, 
			 "HOMO_LUMO_gap": 0.21535, 
			 "cosmo_polarized_energy": -17.78, 
			 "cosmo_cavitation_energy": 29.27, 
			 "cosmo_dispersion_energy": -21.43, 
			 "cosmo_repulsion_energy": 1.68, 
			 "cosmo_total_nonelectrostatic_energy": 9.52, 
			 "SMD_solvation_energy": 5.78 
		},
		"coords": [
			{
				"x": 3.2213844218,
				"y": 3.2909778242,
				"z": 1.1310856057,
				"element": "F" 
			},
			{
				"x": 2.1924813382,
				"y": 2.4357368243,
				"z": 1.0418615465,
				"element": "C" 
			},
			{
				"x": 1.3543211048,
				"y": 2.4642386994,
				"z": -0.0711660887,
				"element": "C" 
			},
			{
				"x": 1.6730773959,
				"y": 3.721989699,
				"z": -1.4586197385,
				"element": "Br" 
			},
			{
				"x": 0.2891286038,
				"y": 1.5687056468,
				"z": -0.1559297395,
				"element": "C" 
			},
			{
				"x": 0.0689408504,
				"y": 0.6407112928,
				"z": 0.8645306903,
				"element": "C" 
			},
			{
				"x": 0.9186131341,
				"y": 0.6243265731,
				"z": 1.9778953468,
				"element": "C" 
			},
			{
				"x": 1.9783779448,
				"y": 1.5221619003,
				"z": 2.0689434981,
				"element": "C" 
			},
			{
				"x": -1.0983899829,
				"y": -0.3308541948,
				"z": 0.8089397959,
				"element": "C" 
			},
			{
				"x": -1.7685915333,
				"y": -0.4346991027,
				"z": -0.474767821,
				"element": "N" 
			},
			{
				"x": -3.1335383842,
				"y": -0.2607868539,
				"z": -0.3949475555,
				"element": "C" 
			},
			{
				"x": -3.9601103287,
				"y": -0.3909523846,
				"z": -1.2701250944,
				"element": "O" 
			},
			{
				"x": -3.3860568165,
				"y": 0.1127166395,
				"z": 0.9418373779,
				"element": "N" 
			},
			{
				"x": -2.2634541004,
				"y": 0.1011818441,
				"z": 1.7397233436,
				"element": "C" 
			},
			{
				"x": -2.1887320454,
				"y": 0.3580674798,
				"z": 2.9198376788,
				"element": "O" 
			},
			{
				"x": -0.365948491,
				"y": 1.5972032004,
				"z": -1.0186271884,
				"element": "H" 
			},
			{
				"x": 0.7426756042,
				"y": -0.082376079,
				"z": 2.7823065439,
				"element": "H" 
			},
			{
				"x": 2.6480628524,
				"y": 1.5286537026,
				"z": 2.9220496433,
				"element": "H" 
			},
			{
				"x": -0.7619167137,
				"y": -1.3142435587,
				"z": 1.1685567105,
				"element": "H" 
			},
			{
				"x": -1.3818452246,
				"y": -0.916795234,
				"z": -1.2719999041,
				"element": "H" 
			},
			{
				"x": -4.3118796296,
				"y": 0.3528360814,
				"z": 1.2668153488,
				"element": "H" 
			}
		],
		 "valence_orbital": [ 
			{
				"type": "occ",
				"energy": -0.29656,
				"method": "rhf"
			},
			{
				"type": "occ",
				"energy": -0.28689,
				"method": "rhf"
			},
			{
				"type": "occ",
				"energy": -0.27772,
				"method": "rhf"
			},
			{
				"type": "occ",
				"energy": -0.26594,
				"method": "rhf"
			},
			{
				"type": "occ",
				"energy": -0.25041,
				"method": "rhf"
			},
			{
				"type": "unocc",
				"energy": -0.03506,
				"method": "rhf"
			},
			{
				"type": "unocc",
				"energy": -0.0283,
				"method": "rhf"
			},
			{
				"type": "unocc",
				"energy": -0.01409,
				"method": "rhf"
			},
			{
				"type": "unocc",
				"energy": -0.0031,
				"method": "rhf"
			},
			{
				"type": "unocc",
				"energy": 0.047,
				"method": "rhf"
			}
		],
		"cosmo_sigma_profile": { 
			"-0.025": 0.0,
			"-0.024": 0.0,
			"-0.023": 0.0,
			"-0.022": 0.0,
			"-0.021": 0.0,
			"-0.02": 0.0,
			"-0.019": 0.0,
			"-0.018": 0.0,
			"-0.017": 0.675512403299,
			"-0.016": 1.83979777004,
			"-0.015": 2.32005289166,
			"-0.014": 2.47061173435,
			"-0.013": 2.27470964591,
			"-0.012": 1.30845569791,
			"-0.011": 1.52596689068,
			"-0.01": 2.41469951696,
			"-0.009": 4.85921766693,
			"-0.008": 8.74523644738,
			"-0.007": 8.39169863207,
			"-0.006": 8.55726563705,
			"-0.005": 10.5447879398,
			"-0.004": 10.6821140418,
			"-0.003": 12.1656069478,
			"-0.002": 11.3830096345,
			"-0.001": 13.5979063413,
			"0.0": 16.1552316548,
			"0.001": 19.7875616122,
			"0.002": 18.0485897427,
			"0.003": 18.7905478817,
			"0.004": 19.1969958824,
			"0.005": 6.47705990497,
			"0.006": 2.85234782507,
			"0.007": 3.41945508101,
			"0.008": 2.79457421406,
			"0.009": 2.5156736597,
			"0.01": 4.29180421815,
			"0.011": 7.01376724938,
			"0.012": 8.61402797401,
			"0.013": 4.27301870757,
			"0.014": 0.109520470873,
			"0.015": 0.0,
			"0.016": 0.0,
			"0.017": 0.0,
			"0.018": 0.0,
			"0.019": 0.0,
			"0.02": 0.0,
			"0.021": 0.0,
			"0.022": 0.0,
			"0.023": 0.0,
			"0.024": 0.0,
			"0.025": 0.0
		}
	}
}
