{
	 "smiles": "C1CCC2C(C1)CCC1C3CCCCC3CCC21", 
	 "Tm": 388.15, 
	 "num_atms": 48, 
	 "gaussian": { 
		 "optdone": 1, 
		 "sigma_profile": "yes", 
		 "theory": "DFT", 
		 "functional": "B3LYP", 
		 "basiset": "6-31G**", 
		 "properties": { 
			 "R2extent": 6113.0398, 
			 "electric_dipole_moment_norm": 0.0, 
			 "electric_quadrupole_moment_norm": 1.51034237178, 
			 "total_energy": -704.029185069, 
			 "HOMO_LUMO_gap": 0.33442, 
			 "cosmo_polarized_energy": -0.75, 
			 "cosmo_cavitation_energy": 40.8, 
			 "cosmo_dispersion_energy": -29.58, 
			 "cosmo_repulsion_energy": 2.24, 
			 "cosmo_total_nonelectrostatic_energy": 13.46, 
			 "SMD_solvation_energy": 4.22 
		},
		"coords": [
			{
				"x": -4.1966623277,
				"y": 0.1001753688,
				"z": 0.4779516837,
				"element": "C" 
			},
			{
				"x": -3.8554615198,
				"y": -0.3609243749,
				"z": -0.9616796581,
				"element": "C" 
			},
			{
				"x": -2.4358381882,
				"y": -0.9557759437,
				"z": -1.0624746993,
				"element": "C" 
			},
			{
				"x": -1.4179744316,
				"y": -0.2092277533,
				"z": -0.1798857968,
				"element": "C" 
			},
			{
				"x": -1.8354610564,
				"y": -0.2815591263,
				"z": 1.3298775467,
				"element": "C" 
			},
			{
				"x": -3.3280646121,
				"y": -0.6281056433,
				"z": 1.5101581707,
				"element": "C" 
			},
			{
				"x": -0.9223092769,
				"y": -1.2382590043,
				"z": 2.1010484707,
				"element": "C" 
			},
			{
				"x": 0.5347873034,
				"y": -0.7551932701,
				"z": 2.0735847145,
				"element": "C" 
			},
			{
				"x": 1.0148019054,
				"y": -0.2847834036,
				"z": 0.6646361469,
				"element": "C" 
			},
			{
				"x": 2.4616647633,
				"y": -0.7819143574,
				"z": 0.3935233736,
				"element": "C" 
			},
			{
				"x": 3.4795178348,
				"y": -0.0353655047,
				"z": 1.2761247043,
				"element": "C" 
			},
			{
				"x": 4.8991502688,
				"y": -0.6301954399,
				"z": 1.1753235627,
				"element": "C" 
			},
			{
				"x": 5.2403608429,
				"y": -1.0912682903,
				"z": -0.2643139375,
				"element": "C" 
			},
			{
				"x": 4.3717528776,
				"y": -0.3629856725,
				"z": -1.2965106218,
				"element": "C" 
			},
			{
				"x": 2.8791556595,
				"y": -0.7095625883,
				"z": -1.1162378316,
				"element": "C" 
			},
			{
				"x": 1.9659866121,
				"y": 0.247122392,
				"z": -1.8874066453,
				"element": "C" 
			},
			{
				"x": 0.5089006017,
				"y": -0.23597575,
				"z": -1.859949395,
				"element": "C" 
			},
			{
				"x": 0.0288833809,
				"y": -0.7063741321,
				"z": -0.4509978102,
				"element": "C" 
			},
			{
				"x": -5.26122748,
				"y": -0.0542014664,
				"z": 0.6868831297,
				"element": "H" 
			},
			{
				"x": -4.021158082,
				"y": 1.179704038,
				"z": 0.5761234594,
				"element": "H" 
			},
			{
				"x": -4.5808235578,
				"y": -1.1109340191,
				"z": -1.2992428693,
				"element": "H" 
			},
			{
				"x": -3.9510692461,
				"y": 0.4865195429,
				"z": -1.651307334,
				"element": "H" 
			},
			{
				"x": -2.1090221825,
				"y": -0.9534250949,
				"z": -2.1081755202,
				"element": "H" 
			},
			{
				"x": -2.4521877428,
				"y": -2.0109970942,
				"z": -0.756665069,
				"element": "H" 
			},
			{
				"x": -1.4446372626,
				"y": 0.8504189951,
				"z": -0.475328517,
				"element": "H" 
			},
			{
				"x": -1.6868550602,
				"y": 0.7211630859,
				"z": 1.7580310982,
				"element": "H" 
			},
			{
				"x": -3.6392676379,
				"y": -0.3705864105,
				"z": 2.5298617817,
				"element": "H" 
			},
			{
				"x": -3.4746674626,
				"y": -1.7131762261,
				"z": 1.4133025564,
				"element": "H" 
			},
			{
				"x": -1.2621651335,
				"y": -1.3330539292,
				"z": 3.1402219184,
				"element": "H" 
			},
			{
				"x": -0.9997952404,
				"y": -2.2438915412,
				"z": 1.6652291966,
				"element": "H" 
			},
			{
				"x": 1.185870671,
				"y": -1.5600739211,
				"z": 2.4371967828,
				"element": "H" 
			},
			{
				"x": 0.6454063215,
				"y": 0.0681419578,
				"z": 2.7897225822,
				"element": "H" 
			},
			{
				"x": 1.03787232,
				"y": 0.8154010185,
				"z": 0.6682767231,
				"element": "H" 
			},
			{
				"x": 2.4883370768,
				"y": -1.8415639046,
				"z": 0.6889547883,
				"element": "H" 
			},
			{
				"x": 3.4958536571,
				"y": 1.0198603265,
				"z": 0.9703305832,
				"element": "H" 
			},
			{
				"x": 3.1527004172,
				"y": -0.0377367193,
				"z": 2.3218248562,
				"element": "H" 
			},
			{
				"x": 4.9947692164,
				"y": -1.4776481742,
				"z": 1.8649387982,
				"element": "H" 
			},
			{
				"x": 5.6245002231,
				"y": 0.1198202788,
				"z": 1.5128991881,
				"element": "H" 
			},
			{
				"x": 6.3049239838,
				"y": -0.9368719731,
				"z": -0.4732410514,
				"element": "H" 
			},
			{
				"x": 5.0648731987,
				"y": -2.1707981662,
				"z": -0.3625020039,
				"element": "H" 
			},
			{
				"x": 4.5183366972,
				"y": 0.7220860147,
				"z": -1.1996377867,
				"element": "H" 
			},
			{
				"x": 4.6829622243,
				"y": -0.6204833049,
				"z": -2.3162177885,
				"element": "H" 
			},
			{
				"x": 2.7305720163,
				"y": -1.7122846521,
				"z": -1.5443994009,
				"element": "H" 
			},
			{
				"x": 2.0434492941,
				"y": 1.2527551382,
				"z": -1.4515837888,
				"element": "H" 
			},
			{
				"x": 2.3058430121,
				"y": 0.3419277862,
				"z": -2.9265789957,
				"element": "H" 
			},
			{
				"x": -0.1421972118,
				"y": 0.5688840346,
				"z": -2.2235816039,
				"element": "H" 
			},
			{
				"x": 0.3983087486,
				"y": -1.0593246869,
				"z": -2.576075773,
				"element": "H" 
			},
			{
				"x": 0.0058035842,
				"y": -1.8065584393,
				"z": -0.4546319185,
				"element": "H" 
			}
		],
		 "valence_orbital": [ 
			{
				"type": "occ",
				"energy": -0.28672,
				"method": "rhf"
			},
			{
				"type": "occ",
				"energy": -0.28494,
				"method": "rhf"
			},
			{
				"type": "occ",
				"energy": -0.27664,
				"method": "rhf"
			},
			{
				"type": "occ",
				"energy": -0.26613,
				"method": "rhf"
			},
			{
				"type": "occ",
				"energy": -0.2591,
				"method": "rhf"
			},
			{
				"type": "unocc",
				"energy": 0.07532,
				"method": "rhf"
			},
			{
				"type": "unocc",
				"energy": 0.08172,
				"method": "rhf"
			},
			{
				"type": "unocc",
				"energy": 0.08542,
				"method": "rhf"
			},
			{
				"type": "unocc",
				"energy": 0.09872,
				"method": "rhf"
			},
			{
				"type": "unocc",
				"energy": 0.10684,
				"method": "rhf"
			}
		],
		"cosmo_sigma_profile": { 
			"-0.025": 0.0,
			"-0.024": 0.0,
			"-0.023": 0.0,
			"-0.022": 0.0,
			"-0.021": 0.0,
			"-0.02": 0.0,
			"-0.019": 0.0,
			"-0.018": 0.0,
			"-0.017": 0.0,
			"-0.016": 0.0,
			"-0.015": 0.0,
			"-0.014": 0.0,
			"-0.013": 0.0,
			"-0.012": 0.0,
			"-0.011": 0.0,
			"-0.01": 0.0,
			"-0.009": 0.0,
			"-0.008": 0.0,
			"-0.007": 0.0,
			"-0.006": 0.0,
			"-0.005": 0.0,
			"-0.004": 0.0,
			"-0.003": 0.195769284448,
			"-0.002": 22.0109429646,
			"-0.001": 84.1178234658,
			"0.0": 105.016602003,
			"0.001": 62.5303982124,
			"0.002": 34.4722437905,
			"0.003": 0.622339673582,
			"0.004": 0.0,
			"0.005": 0.0,
			"0.006": 0.0,
			"0.007": 0.0,
			"0.008": 0.0,
			"0.009": 0.0,
			"0.01": 0.0,
			"0.011": 0.0,
			"0.012": 0.0,
			"0.013": 0.0,
			"0.014": 0.0,
			"0.015": 0.0,
			"0.016": 0.0,
			"0.017": 0.0,
			"0.018": 0.0,
			"0.019": 0.0,
			"0.02": 0.0,
			"0.021": 0.0,
			"0.022": 0.0,
			"0.023": 0.0,
			"0.024": 0.0,
			"0.025": 0.0
		}
	}
}
