{
	 "smiles": "N1C=CC2=C1C=CC(=C2)C1=CC=CC=C1", 
	 "Tm": 348.15, 
	 "num_atms": 26, 
	 "gaussian": { 
		 "optdone": 1, 
		 "sigma_profile": "yes", 
		 "theory": "DFT", 
		 "functional": "B3LYP", 
		 "basiset": "6-31G**", 
		 "properties": { 
			 "R2extent": 4043.1405, 
			 "electric_dipole_moment_norm": 2.61949204618, 
			 "electric_quadrupole_moment_norm": 20.258320655, 
			 "total_energy": -594.88075885, 
			 "HOMO_LUMO_gap": 0.18527, 
			 "cosmo_polarized_energy": -10.32, 
			 "cosmo_cavitation_energy": 29.64, 
			 "cosmo_dispersion_energy": -22.09, 
			 "cosmo_repulsion_energy": 1.69, 
			 "cosmo_total_nonelectrostatic_energy": 9.24, 
			 "SMD_solvation_energy": 4.73 
		},
		"coords": [
			{
				"x": 4.0023325912,
				"y": -0.9923063345,
				"z": -2.0887098734,
				"element": "N" 
			},
			{
				"x": 3.5951539404,
				"y": -0.4451429151,
				"z": -3.2929804447,
				"element": "C" 
			},
			{
				"x": 2.3072260253,
				"y": 0.006925107,
				"z": -3.1794832365,
				"element": "C" 
			},
			{
				"x": 1.8788627532,
				"y": -0.2709898962,
				"z": -1.8353317276,
				"element": "C" 
			},
			{
				"x": 2.9721421979,
				"y": -0.8984035973,
				"z": -1.1757296089,
				"element": "C" 
			},
			{
				"x": 2.8956971689,
				"y": -1.3002756917,
				"z": 0.1617381431,
				"element": "C" 
			},
			{
				"x": 1.7072321274,
				"y": -1.0658291086,
				"z": 0.8387075111,
				"element": "C" 
			},
			{
				"x": 0.5941133544,
				"y": -0.4417047319,
				"z": 0.2163253884,
				"element": "C" 
			},
			{
				"x": 0.6911243893,
				"y": -0.0481656838,
				"z": -1.1210405083,
				"element": "C" 
			},
			{
				"x": -0.6571418901,
				"y": -0.2119312571,
				"z": 0.9848174102,
				"element": "C" 
			},
			{
				"x": -0.6184298354,
				"y": 0.1808347675,
				"z": 2.334216313,
				"element": "C" 
			},
			{
				"x": -1.7925448142,
				"y": 0.3982313663,
				"z": 3.0542750248,
				"element": "C" 
			},
			{
				"x": -3.0358332938,
				"y": 0.2320685696,
				"z": 2.4412134,
				"element": "C" 
			},
			{
				"x": -3.0917202608,
				"y": -0.1563680237,
				"z": 1.1012650927,
				"element": "C" 
			},
			{
				"x": -1.9171013348,
				"y": -0.3785883301,
				"z": 0.3837259326,
				"element": "C" 
			},
			{
				"x": 4.9083092457,
				"y": -1.3920805468,
				"z": -1.9080688213,
				"element": "H" 
			},
			{
				"x": 4.2669318183,
				"y": -0.4253037999,
				"z": -4.1392819895,
				"element": "H" 
			},
			{
				"x": 1.7298078858,
				"y": 0.4805070521,
				"z": -3.9605778659,
				"element": "H" 
			},
			{
				"x": 3.7308916957,
				"y": -1.7890950749,
				"z": 0.6557944924,
				"element": "H" 
			},
			{
				"x": 1.6140246279,
				"y": -1.3940519351,
				"z": 1.8692102418,
				"element": "H" 
			},
			{
				"x": -0.1441094557,
				"y": 0.4549616122,
				"z": -1.5996193732,
				"element": "H" 
			},
			{
				"x": 0.3426747802,
				"y": 0.3410960939,
				"z": 2.81414278,
				"element": "H" 
			},
			{
				"x": -1.7354155086,
				"y": 0.7081240698,
				"z": 4.094245902,
				"element": "H" 
			},
			{
				"x": -3.9507003658,
				"y": 0.4024601949,
				"z": 3.0014711428,
				"element": "H" 
			},
			{
				"x": -4.0532069452,
				"y": -0.2982014709,
				"z": 0.61520524,
				"element": "H" 
			},
			{
				"x": -1.9726208971,
				"y": -0.7092704357,
				"z": -0.6493305658,
				"element": "H" 
			}
		],
		 "valence_orbital": [ 
			{
				"type": "occ",
				"energy": -0.27454,
				"method": "rhf"
			},
			{
				"type": "occ",
				"energy": -0.2523,
				"method": "rhf"
			},
			{
				"type": "occ",
				"energy": -0.24149,
				"method": "rhf"
			},
			{
				"type": "occ",
				"energy": -0.20651,
				"method": "rhf"
			},
			{
				"type": "occ",
				"energy": -0.1995,
				"method": "rhf"
			},
			{
				"type": "unocc",
				"energy": -0.01423,
				"method": "rhf"
			},
			{
				"type": "unocc",
				"energy": -0.00154,
				"method": "rhf"
			},
			{
				"type": "unocc",
				"energy": 0.00719,
				"method": "rhf"
			},
			{
				"type": "unocc",
				"energy": 0.0501,
				"method": "rhf"
			},
			{
				"type": "unocc",
				"energy": 0.07245,
				"method": "rhf"
			}
		],
		"cosmo_sigma_profile": { 
			"-0.025": 0.0,
			"-0.024": 0.0,
			"-0.023": 0.0,
			"-0.022": 0.0,
			"-0.021": 0.0,
			"-0.02": 0.0,
			"-0.019": 0.0,
			"-0.018": 0.0,
			"-0.017": 0.0,
			"-0.016": 0.259496120426,
			"-0.015": 1.58945491528,
			"-0.014": 1.43936901345,
			"-0.013": 1.62122611383,
			"-0.012": 1.02462342023,
			"-0.011": 0.75409254384,
			"-0.01": 1.56021614204,
			"-0.009": 1.4361299977,
			"-0.008": 3.10707257094,
			"-0.007": 3.56481852503,
			"-0.006": 6.83684127944,
			"-0.005": 16.9349695468,
			"-0.004": 19.6078002273,
			"-0.003": 21.0204152297,
			"-0.002": 15.7658294282,
			"-0.001": 14.0270353311,
			"0.0": 12.7238081731,
			"0.001": 11.8208093967,
			"0.002": 12.837151152,
			"0.003": 15.2070518084,
			"0.004": 20.8555402716,
			"0.005": 20.7051155558,
			"0.006": 25.1391559135,
			"0.007": 7.95832327034,
			"0.008": 0.230317774337,
			"0.009": 0.0,
			"0.01": 0.0,
			"0.011": 0.0,
			"0.012": 0.0,
			"0.013": 0.0,
			"0.014": 0.0,
			"0.015": 0.0,
			"0.016": 0.0,
			"0.017": 0.0,
			"0.018": 0.0,
			"0.019": 0.0,
			"0.02": 0.0,
			"0.021": 0.0,
			"0.022": 0.0,
			"0.023": 0.0,
			"0.024": 0.0,
			"0.025": 0.0
		}
	}
}
