{
	 "smiles": "CC1=CC=C(C=C1)C1=NN(C=C1C=CC(O)=O)C1=CC=CC=C1", 
	 "Tm": 494.15, 
	 "num_atms": 39, 
	 "gaussian": { 
		 "optdone": 1, 
		 "sigma_profile": "yes", 
		 "theory": "DFT", 
		 "functional": "B3LYP", 
		 "basiset": "6-31G**", 
		 "properties": { 
			 "R2extent": 10130.8155, 
			 "electric_dipole_moment_norm": 3.05016601024, 
			 "electric_quadrupole_moment_norm": 27.5735242642, 
			 "total_energy": -993.607234654, 
			 "HOMO_LUMO_gap": 0.15324, 
			 "cosmo_polarized_energy": -17.53, 
			 "cosmo_cavitation_energy": 43.88, 
			 "cosmo_dispersion_energy": -31.28, 
			 "cosmo_repulsion_energy": 2.36, 
			 "cosmo_total_nonelectrostatic_energy": 14.96, 
			 "SMD_solvation_energy": 7.94 
		},
		"coords": [
			{
				"x": 6.4319778843,
				"y": 2.3672054887,
				"z": 0.7876908839,
				"element": "C" 
			},
			{
				"x": 5.0204107364,
				"y": 1.9213948863,
				"z": 0.4892177632,
				"element": "C" 
			},
			{
				"x": 3.9176808259,
				"y": 2.6820339348,
				"z": 0.8946810667,
				"element": "C" 
			},
			{
				"x": 2.6147398182,
				"y": 2.2832653872,
				"z": 0.5964121361,
				"element": "C" 
			},
			{
				"x": 2.3735575357,
				"y": 1.1054689536,
				"z": -0.1278682346,
				"element": "C" 
			},
			{
				"x": 3.4782744184,
				"y": 0.3320298146,
				"z": -0.5231676582,
				"element": "C" 
			},
			{
				"x": 4.7740132338,
				"y": 0.7347539363,
				"z": -0.2181189609,
				"element": "C" 
			},
			{
				"x": 1.0067555511,
				"y": 0.6507446263,
				"z": -0.4432966607,
				"element": "C" 
			},
			{
				"x": 0.7078580149,
				"y": -0.6404422251,
				"z": -0.3523546255,
				"element": "N" 
			},
			{
				"x": -0.6087517469,
				"y": -0.7334359324,
				"z": -0.6998877452,
				"element": "N" 
			},
			{
				"x": -1.1459345723,
				"y": 0.4689512712,
				"z": -1.0090745181,
				"element": "C" 
			},
			{
				"x": -0.1385840048,
				"y": 1.4208079898,
				"z": -0.8661727427,
				"element": "C" 
			},
			{
				"x": -0.1238688133,
				"y": 2.8309107855,
				"z": -1.168682408,
				"element": "C" 
			},
			{
				"x": -1.0908468002,
				"y": 3.7303008513,
				"z": -1.4884647319,
				"element": "C" 
			},
			{
				"x": -2.5425034503,
				"y": 3.5097289721,
				"z": -1.6015154882,
				"element": "C" 
			},
			{
				"x": -3.2816541689,
				"y": 4.6382396842,
				"z": -1.8130200088,
				"element": "O" 
			},
			{
				"x": -3.1278580231,
				"y": 2.446065579,
				"z": -1.5287761846,
				"element": "O" 
			},
			{
				"x": -1.2536045704,
				"y": -2.0010217049,
				"z": -0.6975384679,
				"element": "C" 
			},
			{
				"x": -2.6508945671,
				"y": -2.0816608587,
				"z": -0.6881665797,
				"element": "C" 
			},
			{
				"x": -3.2651521822,
				"y": -3.332925246,
				"z": -0.7067382139,
				"element": "C" 
			},
			{
				"x": -2.4990823938,
				"y": -4.4997625889,
				"z": -0.7199069783,
				"element": "C" 
			},
			{
				"x": -1.1056747168,
				"y": -4.4074415664,
				"z": -0.7140013218,
				"element": "C" 
			},
			{
				"x": -0.4764596088,
				"y": -3.1644091952,
				"z": -0.7052908029,
				"element": "C" 
			},
			{
				"x": 7.0701322213,
				"y": 1.5203463284,
				"z": 1.0598157513,
				"element": "H" 
			},
			{
				"x": 6.8893754068,
				"y": 2.8476126856,
				"z": -0.086457556,
				"element": "H" 
			},
			{
				"x": 6.4588300715,
				"y": 3.0892035009,
				"z": 1.6088718213,
				"element": "H" 
			},
			{
				"x": 4.0779103376,
				"y": 3.593524873,
				"z": 1.4653045034,
				"element": "H" 
			},
			{
				"x": 1.779384103,
				"y": 2.8725941061,
				"z": 0.9618646645,
				"element": "H" 
			},
			{
				"x": 3.3042814171,
				"y": -0.5879667491,
				"z": -1.0714540771,
				"element": "H" 
			},
			{
				"x": 5.6123184947,
				"y": 0.1192478473,
				"z": -0.5359427388,
				"element": "H" 
			},
			{
				"x": -2.1618202831,
				"y": 0.6089080995,
				"z": -1.3349732425,
				"element": "H" 
			},
			{
				"x": 0.8788298854,
				"y": 3.2522787366,
				"z": -1.1360777614,
				"element": "H" 
			},
			{
				"x": -0.7468641717,
				"y": 4.7462898888,
				"z": -1.6739125236,
				"element": "H" 
			},
			{
				"x": -2.7096988749,
				"y": 5.4173439474,
				"z": -1.8277743962,
				"element": "H" 
			},
			{
				"x": -3.2560283621,
				"y": -1.1826849415,
				"z": -0.6500976742,
				"element": "H" 
			},
			{
				"x": -4.3494195351,
				"y": -3.3910353628,
				"z": -0.6998095484,
				"element": "H" 
			},
			{
				"x": -2.9835779916,
				"y": -5.4712977241,
				"z": -0.7294434797,
				"element": "H" 
			},
			{
				"x": -0.4999105121,
				"y": -5.3088175549,
				"z": -0.7201464925,
				"element": "H" 
			},
			{
				"x": 0.602559393,
				"y": -3.0760505245,
				"z": -0.7000267681,
				"element": "H" 
			}
		],
		 "valence_orbital": [ 
			{
				"type": "occ",
				"energy": -0.25793,
				"method": "rhf"
			},
			{
				"type": "occ",
				"energy": -0.25356,
				"method": "rhf"
			},
			{
				"type": "occ",
				"energy": -0.25259,
				"method": "rhf"
			},
			{
				"type": "occ",
				"energy": -0.2365,
				"method": "rhf"
			},
			{
				"type": "occ",
				"energy": -0.21458,
				"method": "rhf"
			},
			{
				"type": "unocc",
				"energy": -0.06134,
				"method": "rhf"
			},
			{
				"type": "unocc",
				"energy": -0.03208,
				"method": "rhf"
			},
			{
				"type": "unocc",
				"energy": -0.00793,
				"method": "rhf"
			},
			{
				"type": "unocc",
				"energy": -0.00495,
				"method": "rhf"
			},
			{
				"type": "unocc",
				"energy": 0.00143,
				"method": "rhf"
			}
		],
		"cosmo_sigma_profile": { 
			"-0.025": 0.0,
			"-0.024": 0.0,
			"-0.023": 0.0,
			"-0.022": 0.0,
			"-0.021": 0.0,
			"-0.02": 0.0,
			"-0.019": 0.539012662368,
			"-0.018": 0.94992312351,
			"-0.017": 1.66548078279,
			"-0.016": 0.898165867378,
			"-0.015": 0.81160779487,
			"-0.014": 0.874150292023,
			"-0.013": 0.506134290891,
			"-0.012": 1.41143161039,
			"-0.011": 1.32891522887,
			"-0.01": 0.889457997857,
			"-0.009": 0.893541505459,
			"-0.008": 1.88753885689,
			"-0.007": 7.19227252102,
			"-0.006": 13.2299917894,
			"-0.005": 24.4479873583,
			"-0.004": 29.5672798069,
			"-0.003": 24.6031750438,
			"-0.002": 23.8023489509,
			"-0.001": 25.9756711202,
			"0.0": 27.1185263207,
			"0.001": 29.3465843299,
			"0.002": 29.0359121482,
			"0.003": 25.7754044318,
			"0.004": 24.9365353931,
			"0.005": 20.5657900183,
			"0.006": 6.60590396977,
			"0.007": 3.88121915112,
			"0.008": 3.88369351671,
			"0.009": 3.30273048901,
			"0.01": 4.54098465527,
			"0.011": 5.33950135524,
			"0.012": 3.28647250585,
			"0.013": 2.30689797746,
			"0.014": 0.698350522604,
			"0.015": 0.0,
			"0.016": 0.0,
			"0.017": 0.0,
			"0.018": 0.0,
			"0.019": 0.0,
			"0.02": 0.0,
			"0.021": 0.0,
			"0.022": 0.0,
			"0.023": 0.0,
			"0.024": 0.0,
			"0.0": 0.0
		}
	}
}
