{
	 "smiles": "CSC1=C2C(CC(C)(C)CC2=O)=C(Cl)S1", 
	 "Tm": 401.15, 
	 "num_atms": 28, 
	 "gaussian": { 
		 "optdone": 1, 
		 "sigma_profile": "yes", 
		 "theory": "DFT", 
		 "functional": "B3LYP", 
		 "basiset": "6-31G**", 
		 "properties": { 
			 "R2extent": 6328.44, 
			 "electric_dipole_moment_norm": 2.50575862365, 
			 "electric_quadrupole_moment_norm": 8.42622726788, 
			 "total_energy": -1758.79741198, 
			 "HOMO_LUMO_gap": 0.15516, 
			 "cosmo_polarized_energy": -7.68, 
			 "cosmo_cavitation_energy": 34.15, 
			 "cosmo_dispersion_energy": -25.06, 
			 "cosmo_repulsion_energy": 1.87, 
			 "cosmo_total_nonelectrostatic_energy": 10.97, 
			 "SMD_solvation_energy": 5.45 
		},
		"coords": [
			{
				"x": -2.041962756,
				"y": -1.9950804185,
				"z": -2.1704577239,
				"element": "C" 
			},
			{
				"x": -2.8268530264,
				"y": -0.339670765,
				"z": -2.139704647,
				"element": "S" 
			},
			{
				"x": -1.4449938494,
				"y": 0.755383907,
				"z": -2.1682669726,
				"element": "C" 
			},
			{
				"x": -0.4198126753,
				"y": 0.9985533572,
				"z": -1.2616963968,
				"element": "C" 
			},
			{
				"x": 0.4474237016,
				"y": 2.0851043408,
				"z": -1.6520263393,
				"element": "C" 
			},
			{
				"x": 1.596991303,
				"y": 2.555685275,
				"z": -0.7985802318,
				"element": "C" 
			},
			{
				"x": 2.0928161544,
				"y": 1.477274901,
				"z": 0.1947855755,
				"element": "C" 
			},
			{
				"x": 3.0423213215,
				"y": 2.1275084836,
				"z": 1.2149484968,
				"element": "C" 
			},
			{
				"x": 2.8434435066,
				"y": 0.3560996703,
				"z": -0.5517642684,
				"element": "C" 
			},
			{
				"x": 0.8619325735,
				"y": 0.8998068164,
				"z": 0.9330348655,
				"element": "C" 
			},
			{
				"x": -0.1923414593,
				"y": 0.2866658754,
				"z": 0.017735399,
				"element": "C" 
			},
			{
				"x": -0.80836602,
				"y": -0.71719841,
				"z": 0.3507422717,
				"element": "O" 
			},
			{
				"x": 0.0548763115,
				"y": 2.6344291949,
				"z": -2.8404702387,
				"element": "C" 
			},
			{
				"x": 0.7931256731,
				"y": 3.9764280381,
				"z": -3.654483907,
				"element": "Cl" 
			},
			{
				"x": -1.345736895,
				"y": 1.8544568452,
				"z": -3.5193454232,
				"element": "S" 
			},
			{
				"x": -1.4639478654,
				"y": -2.1367646656,
				"z": -1.2582676852,
				"element": "H" 
			},
			{
				"x": -2.8700041981,
				"y": -2.7070931358,
				"z": -2.2088730658,
				"element": "H" 
			},
			{
				"x": -1.4240094593,
				"y": -2.1088955419,
				"z": -3.0627999795,
				"element": "H" 
			},
			{
				"x": 1.2716821923,
				"y": 3.4380315667,
				"z": -0.2282923597,
				"element": "H" 
			},
			{
				"x": 2.4225284911,
				"y": 2.8942713318,
				"z": -1.4347255728,
				"element": "H" 
			},
			{
				"x": 3.9084715705,
				"y": 2.5738533862,
				"z": 0.7135744619,
				"element": "H" 
			},
			{
				"x": 3.4160427629,
				"y": 1.3862375295,
				"z": 1.9294197614,
				"element": "H" 
			},
			{
				"x": 2.5385959969,
				"y": 2.9176740588,
				"z": 1.7828376339,
				"element": "H" 
			},
			{
				"x": 3.1674349314,
				"y": -0.4237109919,
				"z": 0.145746123,
				"element": "H" 
			},
			{
				"x": 2.2218196945,
				"y": -0.1189326408,
				"z": -1.3171498909,
				"element": "H" 
			},
			{
				"x": 3.735286483,
				"y": 0.7532737088,
				"z": -1.0485035833,
				"element": "H" 
			},
			{
				"x": 1.1496776375,
				"y": 0.1325739165,
				"z": 1.6580055238,
				"element": "H" 
			},
			{
				"x": 0.3717578991,
				"y": 1.7076343662,
				"z": 1.4973781735,
				"element": "H" 
			}
		],
		 "valence_orbital": [ 
			{
				"type": "occ",
				"energy": -0.3248,
				"method": "rhf"
			},
			{
				"type": "occ",
				"energy": -0.26629,
				"method": "rhf"
			},
			{
				"type": "occ",
				"energy": -0.25785,
				"method": "rhf"
			},
			{
				"type": "occ",
				"energy": -0.24749,
				"method": "rhf"
			},
			{
				"type": "occ",
				"energy": -0.22213,
				"method": "rhf"
			},
			{
				"type": "unocc",
				"energy": -0.06697,
				"method": "rhf"
			},
			{
				"type": "unocc",
				"energy": -0.01024,
				"method": "rhf"
			},
			{
				"type": "unocc",
				"energy": 0.00523,
				"method": "rhf"
			},
			{
				"type": "unocc",
				"energy": 0.0153,
				"method": "rhf"
			},
			{
				"type": "unocc",
				"energy": 0.03895,
				"method": "rhf"
			}
		],
		"cosmo_sigma_profile": { 
			"-0.025": 0.0,
			"-0.024": 0.0,
			"-0.023": 0.0,
			"-0.022": 0.0,
			"-0.021": 0.0,
			"-0.02": 0.0,
			"-0.019": 0.0,
			"-0.018": 0.0,
			"-0.017": 0.0,
			"-0.016": 0.0,
			"-0.015": 0.0,
			"-0.014": 0.0,
			"-0.013": 0.0,
			"-0.012": 0.0,
			"-0.011": 0.0,
			"-0.01": 0.0,
			"-0.009": 0.0,
			"-0.008": 0.0,
			"-0.007": 1.47885217233,
			"-0.006": 6.99982834333,
			"-0.005": 10.1466462575,
			"-0.004": 17.4441813742,
			"-0.003": 31.8116218159,
			"-0.002": 31.8697396097,
			"-0.001": 34.8847754226,
			"0.0": 38.4011473912,
			"0.001": 35.5726565822,
			"0.002": 17.4279071034,
			"0.003": 14.7930053277,
			"0.004": 8.70094372653,
			"0.005": 4.76172387311,
			"0.006": 3.29981282962,
			"0.007": 3.60949660429,
			"0.008": 2.78375744247,
			"0.009": 2.31330207188,
			"0.01": 2.46955515156,
			"0.011": 3.1473206141,
			"0.012": 2.27516752832,
			"0.013": 1.29675536915,
			"0.014": 0.0482151470002,
			"0.015": 0.0,
			"0.016": 0.0,
			"0.017": 0.0,
			"0.018": 0.0,
			"0.019": 0.0,
			"0.02": 0.0,
			"0.021": 0.0,
			"0.022": 0.0,
			"0.023": 0.0,
			"0.024": 0.0,
			"0.025": 0.0
		}
	}
}
