{
	 "smiles": "NC1=NC(NC2=CC=C(Cl)C=C2)=C(N=N1)C1=CC=CC=C1", 
	 "Tm": 570.15, 
	 "num_atms": 33, 
	 "gaussian": { 
		 "optdone": 1, 
		 "sigma_profile": "yes", 
		 "theory": "DFT", 
		 "functional": "B3LYP", 
		 "basiset": "6-31G**", 
		 "properties": { 
			 "R2extent": 9550.0849, 
			 "electric_dipole_moment_norm": 1.24422254038, 
			 "electric_quadrupole_moment_norm": 28.6694098717, 
			 "total_energy": -1312.76985084, 
			 "HOMO_LUMO_gap": 0.15867, 
			 "cosmo_polarized_energy": -18.07, 
			 "cosmo_cavitation_energy": 39.8, 
			 "cosmo_dispersion_energy": -28.83, 
			 "cosmo_repulsion_energy": 2.2, 
			 "cosmo_total_nonelectrostatic_energy": 13.17, 
			 "SMD_solvation_energy": 3.73 
		},
		"coords": [
			{
				"x": -2.6693128457,
				"y": 2.7559980587,
				"z": -1.0339749779,
				"element": "N" 
			},
			{
				"x": -1.7041346972,
				"y": 2.1563857041,
				"z": -0.2848049758,
				"element": "C" 
			},
			{
				"x": -0.7924948028,
				"y": 1.4097268526,
				"z": -0.9359231042,
				"element": "N" 
			},
			{
				"x": 0.1391838331,
				"y": 0.8429966373,
				"z": -0.1756989227,
				"element": "C" 
			},
			{
				"x": 1.1670570145,
				"y": 0.1394027654,
				"z": -0.7471795475,
				"element": "N" 
			},
			{
				"x": 1.4816912972,
				"y": -0.1388179734,
				"z": -2.0894146919,
				"element": "C" 
			},
			{
				"x": 2.6854204625,
				"y": -0.82976768,
				"z": -2.3197869036,
				"element": "C" 
			},
			{
				"x": 3.0853760881,
				"y": -1.1661428541,
				"z": -3.6076128849,
				"element": "C" 
			},
			{
				"x": 2.2774515071,
				"y": -0.8114675114,
				"z": -4.687780713,
				"element": "C" 
			},
			{
				"x": 2.7739537741,
				"y": -1.2315296328,
				"z": -6.3213243401,
				"element": "Cl" 
			},
			{
				"x": 1.0828115513,
				"y": -0.1269015889,
				"z": -4.4795493308,
				"element": "C" 
			},
			{
				"x": 0.6801487001,
				"y": 0.2112241545,
				"z": -3.1879161965,
				"element": "C" 
			},
			{
				"x": 0.0954526297,
				"y": 1.0003890382,
				"z": 1.2527928577,
				"element": "C" 
			},
			{
				"x": -0.8220394292,
				"y": 1.8007042905,
				"z": 1.7873595556,
				"element": "N" 
			},
			{
				"x": -1.737979782,
				"y": 2.406536422,
				"z": 1.0383672526,
				"element": "N" 
			},
			{
				"x": 1.0497406646,
				"y": 0.3636860568,
				"z": 2.1977713508,
				"element": "C" 
			},
			{
				"x": 1.3908571476,
				"y": -0.9985010567,
				"z": 2.1127616499,
				"element": "C" 
			},
			{
				"x": 2.2720593625,
				"y": -1.5711446576,
				"z": 3.0323101733,
				"element": "C" 
			},
			{
				"x": 2.8194595327,
				"y": -0.7966526025,
				"z": 4.0551679253,
				"element": "C" 
			},
			{
				"x": 2.4714849118,
				"y": 0.5528955841,
				"z": 4.1607189198,
				"element": "C" 
			},
			{
				"x": 1.5958866547,
				"y": 1.1279557577,
				"z": 3.2429701891,
				"element": "C" 
			},
			{
				"x": -2.8039845657,
				"y": 2.4440481456,
				"z": -1.9812987055,
				"element": "H" 
			},
			{
				"x": -3.4424692133,
				"y": 3.1702743336,
				"z": -0.5384936631,
				"element": "H" 
			},
			{
				"x": 1.8542109478,
				"y": -0.1871945036,
				"z": -0.0816577778,
				"element": "H" 
			},
			{
				"x": 3.3177663805,
				"y": -1.1061761673,
				"z": -1.4793738082,
				"element": "H" 
			},
			{
				"x": 4.0159465965,
				"y": -1.6978918777,
				"z": -3.7715667331,
				"element": "H" 
			},
			{
				"x": 0.4616433565,
				"y": 0.1460052032,
				"z": -5.3256954469,
				"element": "H" 
			},
			{
				"x": -0.2426216176,
				"y": 0.7462593917,
				"z": -3.0228212632,
				"element": "H" 
			},
			{
				"x": 0.9346219973,
				"y": -1.6251054659,
				"z": 1.3508399972,
				"element": "H" 
			},
			{
				"x": 2.5164599918,
				"y": -2.6268033729,
				"z": 2.955964835,
				"element": "H" 
			},
			{
				"x": 3.5054608162,
				"y": -1.2417655137,
				"z": 4.7698444899,
				"element": "H" 
			},
			{
				"x": 2.8865499862,
				"y": 1.1599561778,
				"z": 4.9601905656,
				"element": "H" 
			},
			{
				"x": 1.3149417493,
				"y": 2.1724178848,
				"z": 3.3254142251,
				"element": "H" 
			}
		],
		 "valence_orbital": [ 
			{
				"type": "occ",
				"energy": -0.26729,
				"method": "rhf"
			},
			{
				"type": "occ",
				"energy": -0.26061,
				"method": "rhf"
			},
			{
				"type": "occ",
				"energy": -0.23567,
				"method": "rhf"
			},
			{
				"type": "occ",
				"energy": -0.22433,
				"method": "rhf"
			},
			{
				"type": "occ",
				"energy": -0.20994,
				"method": "rhf"
			},
			{
				"type": "unocc",
				"energy": -0.05127,
				"method": "rhf"
			},
			{
				"type": "unocc",
				"energy": -0.03355,
				"method": "rhf"
			},
			{
				"type": "unocc",
				"energy": -0.01716,
				"method": "rhf"
			},
			{
				"type": "unocc",
				"energy": -0.01352,
				"method": "rhf"
			},
			{
				"type": "unocc",
				"energy": 0.00438,
				"method": "rhf"
			}
		],
		"cosmo_sigma_profile": { 
			"-0.025": 0.0,
			"-0.024": 0.0,
			"-0.023": 0.0,
			"-0.022": 0.0,
			"-0.021": 0.0,
			"-0.02": 0.0,
			"-0.019": 0.0,
			"-0.018": 0.0,
			"-0.017": 0.0,
			"-0.016": 0.0,
			"-0.015": 0.0457822999244,
			"-0.014": 1.72557758061,
			"-0.013": 3.08133022213,
			"-0.012": 2.38816011904,
			"-0.011": 3.55300319343,
			"-0.01": 3.00653561548,
			"-0.009": 3.73711620538,
			"-0.008": 3.53372322349,
			"-0.007": 9.85661317633,
			"-0.006": 16.2920552713,
			"-0.005": 17.2060950453,
			"-0.004": 19.5759481643,
			"-0.003": 19.1761546113,
			"-0.002": 18.4190608935,
			"-0.001": 19.9478980865,
			"0.0": 20.7213853938,
			"0.001": 24.6164700528,
			"0.002": 28.0024772125,
			"0.003": 30.2200832364,
			"0.004": 29.6259287673,
			"0.005": 20.6334183004,
			"0.006": 5.22098637965,
			"0.007": 3.4044292905,
			"0.008": 2.20283668316,
			"0.009": 2.47795402239,
			"0.01": 2.07482181231,
			"0.011": 1.8755945719,
			"0.012": 1.98950956574,
			"0.013": 2.20825910831,
			"0.014": 2.66330927193,
			"0.015": 1.99247666408,
			"0.016": 0.978646654358,
			"0.017": 0.106847807515,
			"0.018": 0.0,
			"0.019": 0.0,
			"0.02": 0.0,
			"0.021": 0.0,
			"0.022": 0.0,
			"0.023": 0.0,
			"0.024": 0.0,
			"0.025": 0.0
		}
	}
}
