{
	 "smiles": "COC(=O)C1(O)CCN(CC2=CC=CC=C2)CC1", 
	 "Tm": 349.15, 
	 "num_atms": 37, 
	 "gaussian": { 
		 "optdone": 1, 
		 "sigma_profile": "yes", 
		 "theory": "DFT", 
		 "functional": "B3LYP", 
		 "basiset": "6-31G**", 
		 "properties": { 
			 "R2extent": 6085.0094, 
			 "electric_dipole_moment_norm": 2.50952689964, 
			 "electric_quadrupole_moment_norm": 16.8678808796, 
			 "total_energy": -825.353535893, 
			 "HOMO_LUMO_gap": 0.19472, 
			 "cosmo_polarized_energy": -11.59, 
			 "cosmo_cavitation_energy": 37.95, 
			 "cosmo_dispersion_energy": -26.53, 
			 "cosmo_repulsion_energy": 2.06, 
			 "cosmo_total_nonelectrostatic_energy": 13.49, 
			 "SMD_solvation_energy": 5.6 
		},
		"coords": [
			{
				"x": -4.2964113018,
				"y": -0.9854363766,
				"z": 0.6781488296,
				"element": "C" 
			},
			{
				"x": -2.8766332801,
				"y": -0.9023501899,
				"z": 0.9049618035,
				"element": "O" 
			},
			{
				"x": -2.3557665745,
				"y": -1.864859976,
				"z": 1.6757589909,
				"element": "C" 
			},
			{
				"x": -3.0129981482,
				"y": -2.7648507816,
				"z": 2.1686848107,
				"element": "O" 
			},
			{
				"x": -0.8323691882,
				"y": -1.7773888834,
				"z": 1.8455612317,
				"element": "C" 
			},
			{
				"x": -0.485003924,
				"y": -2.6842632432,
				"z": 2.8808994844,
				"element": "O" 
			},
			{
				"x": -0.3413594726,
				"y": -0.3524358148,
				"z": 2.2347345969,
				"element": "C" 
			},
			{
				"x": 0.6650514237,
				"y": 0.2286872231,
				"z": 1.2326968606,
				"element": "C" 
			},
			{
				"x": 0.1030255746,
				"y": 0.1576677511,
				"z": -0.1104473208,
				"element": "N" 
			},
			{
				"x": 0.6623167413,
				"y": 1.074906373,
				"z": -1.1033115041,
				"element": "C" 
			},
			{
				"x": 2.0876572535,
				"y": 0.7954001495,
				"z": -1.5675771711,
				"element": "C" 
			},
			{
				"x": 2.3340816641,
				"y": 0.0809795778,
				"z": -2.748502556,
				"element": "C" 
			},
			{
				"x": 3.6377231509,
				"y": -0.211519416,
				"z": -3.1554634175,
				"element": "C" 
			},
			{
				"x": 4.7214777152,
				"y": 0.212366142,
				"z": -2.3855832285,
				"element": "C" 
			},
			{
				"x": 4.4929805192,
				"y": 0.9352104727,
				"z": -1.2123139761,
				"element": "C" 
			},
			{
				"x": 3.1885683304,
				"y": 1.22399442,
				"z": -0.8106862295,
				"element": "C" 
			},
			{
				"x": -0.1316177892,
				"y": -1.2043299798,
				"z": -0.6035096719,
				"element": "C" 
			},
			{
				"x": -0.1436809644,
				"y": -2.2358728661,
				"z": 0.5334589735,
				"element": "C" 
			},
			{
				"x": -4.8380521175,
				"y": -0.9228577315,
				"z": 1.6247781647,
				"element": "H" 
			},
			{
				"x": -4.5395594914,
				"y": -0.1377405153,
				"z": 0.0385615974,
				"element": "H" 
			},
			{
				"x": -4.5507388275,
				"y": -1.9270447007,
				"z": 0.1857829743,
				"element": "H" 
			},
			{
				"x": -1.2500983559,
				"y": -3.2751114951,
				"z": 2.9856054605,
				"element": "H" 
			},
			{
				"x": 0.111893464,
				"y": -0.4373722766,
				"z": 3.2264645781,
				"element": "H" 
			},
			{
				"x": -1.1898252326,
				"y": 0.3332825589,
				"z": 2.3038528753,
				"element": "H" 
			},
			{
				"x": 0.832985413,
				"y": 1.2845328135,
				"z": 1.4747053672,
				"element": "H" 
			},
			{
				"x": 1.6464120402,
				"y": -0.2697883083,
				"z": 1.3334972786,
				"element": "H" 
			},
			{
				"x": 0.6103973873,
				"y": 2.086087719,
				"z": -0.6807808328,
				"element": "H" 
			},
			{
				"x": -0.0050669794,
				"y": 1.0611898196,
				"z": -1.9749280372,
				"element": "H" 
			},
			{
				"x": 1.4950798033,
				"y": -0.2369225233,
				"z": -3.3633686071,
				"element": "H" 
			},
			{
				"x": 3.8059282537,
				"y": -0.764369546,
				"z": -4.0756451236,
				"element": "H" 
			},
			{
				"x": 5.7367962178,
				"y": -0.0106552855,
				"z": -2.700834203,
				"element": "H" 
			},
			{
				"x": 5.3317593007,
				"y": 1.2804337021,
				"z": -0.6140367216,
				"element": "H" 
			},
			{
				"x": 3.0222520011,
				"y": 1.8001679609,
				"z": 0.0961992684,
				"element": "H" 
			},
			{
				"x": 0.6459415413,
				"y": -1.522119089,
				"z": -1.3169013442,
				"element": "H" 
			},
			{
				"x": -1.0868513553,
				"y": -1.2188365741,
				"z": -1.1468665301,
				"element": "H" 
			},
			{
				"x": -0.5927530509,
				"y": -3.1726326066,
				"z": 0.1854090213,
				"element": "H" 
			},
			{
				"x": 0.8819582584,
				"y": -2.4785485037,
				"z": 0.8281943073,
				"element": "H" 
			}
		],
		 "valence_orbital": [ 
			{
				"type": "occ",
				"energy": -0.28292,
				"method": "rhf"
			},
			{
				"type": "occ",
				"energy": -0.25788,
				"method": "rhf"
			},
			{
				"type": "occ",
				"energy": -0.24815,
				"method": "rhf"
			},
			{
				"type": "occ",
				"energy": -0.24389,
				"method": "rhf"
			},
			{
				"type": "occ",
				"energy": -0.19723,
				"method": "rhf"
			},
			{
				"type": "unocc",
				"energy": -0.00251,
				"method": "rhf"
			},
			{
				"type": "unocc",
				"energy": -0.00076,
				"method": "rhf"
			},
			{
				"type": "unocc",
				"energy": 0.00353,
				"method": "rhf"
			},
			{
				"type": "unocc",
				"energy": 0.07973,
				"method": "rhf"
			},
			{
				"type": "unocc",
				"energy": 0.09045,
				"method": "rhf"
			}
		],
		"cosmo_sigma_profile": { 
			"-0.025": 0.0,
			"-0.024": 0.0,
			"-0.023": 0.0,
			"-0.022": 0.0,
			"-0.021": 0.0,
			"-0.02": 0.0,
			"-0.019": 0.0,
			"-0.018": 0.0,
			"-0.017": 0.0,
			"-0.016": 0.0,
			"-0.015": 0.0,
			"-0.014": 0.0,
			"-0.013": 0.0,
			"-0.012": 0.0,
			"-0.011": 0.166407681916,
			"-0.01": 0.539962162073,
			"-0.009": 0.100663394929,
			"-0.008": 0.581911593146,
			"-0.007": 2.32909046336,
			"-0.006": 8.69172813382,
			"-0.005": 21.6067138087,
			"-0.004": 36.1494795833,
			"-0.003": 36.8982263519,
			"-0.002": 32.9347897132,
			"-0.001": 32.3165602936,
			"0.0": 20.2830863201,
			"0.001": 15.1909206289,
			"0.002": 12.8871900557,
			"0.003": 13.0105902411,
			"0.004": 11.2887244092,
			"0.005": 11.096337274,
			"0.006": 11.3789886909,
			"0.007": 6.19894921407,
			"0.008": 3.14807449341,
			"0.009": 3.31619285164,
			"0.01": 4.93728203641,
			"0.011": 4.67290353084,
			"0.012": 2.62658555329,
			"0.013": 2.02806408669,
			"0.014": 1.93495949442,
			"0.015": 0.717748267676,
			"0.016": 0.0233440178693,
			"0.017": 0.0,
			"0.018": 0.0,
			"0.019": 0.0,
			"0.02": 0.0,
			"0.021": 0.0,
			"0.022": 0.0,
			"0.023": 0.0,
			"0.024": 0.0,
			"0.025": 0.0
		}
	}
}
