{
	 "smiles": "CCOC(=O)C1=C(N)SC=C1C1=CC=C(C)C(C)=C1", 
	 "Tm": 355.15, 
	 "num_atms": 36, 
	 "gaussian": { 
		 "optdone": 1, 
		 "sigma_profile": "yes", 
		 "theory": "DFT", 
		 "functional": "B3LYP", 
		 "basiset": "6-31G**", 
		 "properties": { 
			 "R2extent": 6870.21, 
			 "electric_dipole_moment_norm": 0.907484220248, 
			 "electric_quadrupole_moment_norm": 11.869867669, 
			 "total_energy": -1185.25785375, 
			 "HOMO_LUMO_gap": 0.179, 
			 "cosmo_polarized_energy": -11.44, 
			 "cosmo_cavitation_energy": 40.68, 
			 "cosmo_dispersion_energy": -27.96, 
			 "cosmo_repulsion_energy": 2.13, 
			 "cosmo_total_nonelectrostatic_energy": 14.85, 
			 "SMD_solvation_energy": 7.41 
		},
		"coords": [
			{
				"x": -3.2631625507,
				"y": 2.2973692718,
				"z": -1.6327973954,
				"element": "C" 
			},
			{
				"x": -1.9648984691,
				"y": 2.872555886,
				"z": -2.1676852926,
				"element": "C" 
			},
			{
				"x": -0.9025270394,
				"y": 2.4080320132,
				"z": -1.3079049499,
				"element": "O" 
			},
			{
				"x": 0.3323489491,
				"y": 2.8719111716,
				"z": -1.5858079294,
				"element": "C" 
			},
			{
				"x": 0.534205676,
				"y": 3.6526582498,
				"z": -2.5186168615,
				"element": "O" 
			},
			{
				"x": 1.3733931054,
				"y": 2.3925639749,
				"z": -0.6789964651,
				"element": "C" 
			},
			{
				"x": 2.6407419341,
				"y": 2.9819363564,
				"z": -0.7480995941,
				"element": "C" 
			},
			{
				"x": 3.0396499185,
				"y": 3.9710302016,
				"z": -1.5868217757,
				"element": "N" 
			},
			{
				"x": 3.7055879794,
				"y": 2.3698915329,
				"z": 0.4952881436,
				"element": "S" 
			},
			{
				"x": 2.4499135802,
				"y": 1.3050777404,
				"z": 1.094623468,
				"element": "C" 
			},
			{
				"x": 1.2853694993,
				"y": 1.409003006,
				"z": 0.3931271299,
				"element": "C" 
			},
			{
				"x": 0.1401222943,
				"y": 0.5204950168,
				"z": 0.7226745905,
				"element": "C" 
			},
			{
				"x": -0.3568702032,
				"y": 0.4651779285,
				"z": 2.0292929047,
				"element": "C" 
			},
			{
				"x": -1.3757319656,
				"y": -0.4295550407,
				"z": 2.3580354264,
				"element": "C" 
			},
			{
				"x": -1.9250401908,
				"y": -1.2946702375,
				"z": 1.408072686,
				"element": "C" 
			},
			{
				"x": -3.0250521364,
				"y": -2.254688147,
				"z": 1.7931667167,
				"element": "C" 
			},
			{
				"x": -1.4274311749,
				"y": -1.2511375619,
				"z": 0.0857228162,
				"element": "C" 
			},
			{
				"x": -1.9766324587,
				"y": -2.1754076997,
				"z": -0.9762789145,
				"element": "C" 
			},
			{
				"x": -0.4110915984,
				"y": -0.3485881915,
				"z": -0.2316016419,
				"element": "C" 
			},
			{
				"x": -4.0988492974,
				"y": 2.6190179905,
				"z": -2.2624889505,
				"element": "H" 
			},
			{
				"x": -3.4482578097,
				"y": 2.6389754431,
				"z": -0.6105535383,
				"element": "H" 
			},
			{
				"x": -3.2327723823,
				"y": 1.2044202032,
				"z": -1.6260249645,
				"element": "H" 
			},
			{
				"x": -1.762301551,
				"y": 2.5461480226,
				"z": -3.1932915388,
				"element": "H" 
			},
			{
				"x": -1.9693123969,
				"y": 3.9669501164,
				"z": -2.1690546594,
				"element": "H" 
			},
			{
				"x": 2.3832570899,
				"y": 4.172869337,
				"z": -2.3362222215,
				"element": "H" 
			},
			{
				"x": 4.0205117627,
				"y": 4.1606101443,
				"z": -1.7119705798,
				"element": "H" 
			},
			{
				"x": 2.6774829113,
				"y": 0.6137333377,
				"z": 1.8925556358,
				"element": "H" 
			},
			{
				"x": 0.0471987689,
				"y": 1.133445865,
				"z": 2.7838339648,
				"element": "H" 
			},
			{
				"x": -1.7545037653,
				"y": -0.4540824156,
				"z": 3.3771428929,
				"element": "H" 
			},
			{
				"x": -2.7322210877,
				"y": -3.2981822256,
				"z": 1.6227269212,
				"element": "H" 
			},
			{
				"x": -3.9368576874,
				"y": -2.0860979508,
				"z": 1.2067902358,
				"element": "H" 
			},
			{
				"x": -3.285764637,
				"y": -2.1511633596,
				"z": 2.8498471877,
				"element": "H" 
			},
			{
				"x": -3.0536791581,
				"y": -2.0292228856,
				"z": -1.12543495,
				"element": "H" 
			},
			{
				"x": -1.48184491,
				"y": -2.0102491394,
				"z": -1.9370049906,
				"element": "H" 
			},
			{
				"x": -1.8390216267,
				"y": -3.230086288,
				"z": -0.7075290155,
				"element": "H" 
			},
			{
				"x": -0.0279593722,
				"y": -0.3244416669,
				"z": -1.2478144913,
				"element": "H" 
			}
		],
		 "valence_orbital": [ 
			{
				"type": "occ",
				"energy": -0.26728,
				"method": "rhf"
			},
			{
				"type": "occ",
				"energy": -0.25468,
				"method": "rhf"
			},
			{
				"type": "occ",
				"energy": -0.23429,
				"method": "rhf"
			},
			{
				"type": "occ",
				"energy": -0.2235,
				"method": "rhf"
			},
			{
				"type": "occ",
				"energy": -0.19302,
				"method": "rhf"
			},
			{
				"type": "unocc",
				"energy": -0.01402,
				"method": "rhf"
			},
			{
				"type": "unocc",
				"energy": -0.00786,
				"method": "rhf"
			},
			{
				"type": "unocc",
				"energy": 0.01014,
				"method": "rhf"
			},
			{
				"type": "unocc",
				"energy": 0.01381,
				"method": "rhf"
			},
			{
				"type": "unocc",
				"energy": 0.03697,
				"method": "rhf"
			}
		],
		"cosmo_sigma_profile": { 
			"-0.025": 0.0,
			"-0.024": 0.0,
			"-0.023": 0.0,
			"-0.022": 0.0,
			"-0.021": 0.0,
			"-0.02": 0.0,
			"-0.019": 0.0,
			"-0.018": 0.0,
			"-0.017": 0.0,
			"-0.016": 0.0,
			"-0.015": 0.52541274015,
			"-0.014": 1.5132629751,
			"-0.013": 1.06640078625,
			"-0.012": 1.43009207343,
			"-0.011": 1.75395846682,
			"-0.01": 1.58687434348,
			"-0.009": 1.74791872614,
			"-0.008": 2.62950283032,
			"-0.007": 3.78608570268,
			"-0.006": 2.95378879722,
			"-0.005": 10.030043967,
			"-0.004": 28.3058579251,
			"-0.003": 32.1409266468,
			"-0.002": 31.8528592732,
			"-0.001": 30.6999588965,
			"0.0": 35.9518811057,
			"0.001": 26.7020771792,
			"0.002": 21.8820043897,
			"0.003": 22.4671744698,
			"0.004": 21.8923901218,
			"0.005": 14.1175462555,
			"0.006": 10.2132686626,
			"0.007": 4.64278376468,
			"0.008": 3.83272314309,
			"0.009": 3.39246338363,
			"0.01": 2.25907940827,
			"0.011": 1.22357023126,
			"0.012": 2.20952665396,
			"0.013": 0.968375870567,
			"0.014": 0.0,
			"0.015": 0.0,
			"0.016": 0.0,
			"0.017": 0.0,
			"0.018": 0.0,
			"0.019": 0.0,
			"0.02": 0.0,
			"0.021": 0.0,
			"0.022": 0.0,
			"0.023": 0.0,
			"0.024": 0.0,
			"0.025": 0.0
		}
	}
}
