{
	 "smiles": "FC(F)(F)COC1=C(C=O)C=CC=C1", 
	 "Tm": 325.15, 
	 "num_atms": 21, 
	 "gaussian": { 
		 "optdone": 1, 
		 "sigma_profile": "yes", 
		 "theory": "DFT", 
		 "functional": "B3LYP", 
		 "basiset": "6-31G**", 
		 "properties": { 
			 "R2extent": 5276.1616, 
			 "electric_dipole_moment_norm": 3.53658747806, 
			 "electric_quadrupole_moment_norm": 7.12706853342, 
			 "total_energy": -797.124068868, 
			 "HOMO_LUMO_gap": 0.18267, 
			 "cosmo_polarized_energy": -8.91, 
			 "cosmo_cavitation_energy": 26.95, 
			 "cosmo_dispersion_energy": -18.81, 
			 "cosmo_repulsion_energy": 1.41, 
			 "cosmo_total_nonelectrostatic_energy": 9.56, 
			 "SMD_solvation_energy": 6.79 
		},
		"coords": [
			{
				"x": 1.1565063848,
				"y": -5.5895633727,
				"z": -0.8210305306,
				"element": "F" 
			},
			{
				"x": 1.5628655364,
				"y": -4.4575279335,
				"z": -1.4227060397,
				"element": "C" 
			},
			{
				"x": 2.1267907457,
				"y": -4.7911353383,
				"z": -2.6041332789,
				"element": "F" 
			},
			{
				"x": 2.5222943828,
				"y": -3.9059050112,
				"z": -0.6470072253,
				"element": "F" 
			},
			{
				"x": 0.4140408438,
				"y": -3.4909007602,
				"z": -1.6599123194,
				"element": "C" 
			},
			{
				"x": -0.1916602703,
				"y": -3.1577720608,
				"z": -0.4198202211,
				"element": "O" 
			},
			{
				"x": 0.1597599411,
				"y": -1.980386337,
				"z": 0.1898057911,
				"element": "C" 
			},
			{
				"x": -0.219889995,
				"y": -0.7141736514,
				"z": -0.316025881,
				"element": "C" 
			},
			{
				"x": -1.0090157039,
				"y": -0.505115418,
				"z": -1.5482893746,
				"element": "C" 
			},
			{
				"x": -1.350311331,
				"y": -1.3539491491,
				"z": -2.3519517029,
				"element": "O" 
			},
			{
				"x": 0.1152501963,
				"y": 0.4312805551,
				"z": 0.428031744,
				"element": "C" 
			},
			{
				"x": 0.7982799743,
				"y": 0.3430512551,
				"z": 1.6351481344,
				"element": "C" 
			},
			{
				"x": 1.1482148882,
				"y": -0.9172048153,
				"z": 2.1283821609,
				"element": "C" 
			},
			{
				"x": 0.8302830119,
				"y": -2.0693882874,
				"z": 1.4109814311,
				"element": "C" 
			},
			{
				"x": -0.3365885928,
				"y": -3.9766190295,
				"z": -2.2851461246,
				"element": "H" 
			},
			{
				"x": 0.7954804035,
				"y": -2.6174814436,
				"z": -2.1911627728,
				"element": "H" 
			},
			{
				"x": -1.2974064563,
				"y": 0.5587725972,
				"z": -1.7027711401,
				"element": "H" 
			},
			{
				"x": -0.182868264,
				"y": 1.4031204675,
				"z": 0.0411722656,
				"element": "H" 
			},
			{
				"x": 1.0479106221,
				"y": 1.2405762643,
				"z": 2.1917236905,
				"element": "H" 
			},
			{
				"x": 1.676393408,
				"y": -1.0049193568,
				"z": 3.0733428792,
				"element": "H" 
			},
			{
				"x": 1.1004702745,
				"y": -3.0545591745,
				"z": 1.7743685142,
				"element": "H" 
			}
		],
		 "valence_orbital": [ 
			{
				"type": "occ",
				"energy": -0.35415,
				"method": "rhf"
			},
			{
				"type": "occ",
				"energy": -0.30571,
				"method": "rhf"
			},
			{
				"type": "occ",
				"energy": -0.27526,
				"method": "rhf"
			},
			{
				"type": "occ",
				"energy": -0.26279,
				"method": "rhf"
			},
			{
				"type": "occ",
				"energy": -0.25417,
				"method": "rhf"
			},
			{
				"type": "unocc",
				"energy": -0.0715,
				"method": "rhf"
			},
			{
				"type": "unocc",
				"energy": -0.01932,
				"method": "rhf"
			},
			{
				"type": "unocc",
				"energy": 0.02987,
				"method": "rhf"
			},
			{
				"type": "unocc",
				"energy": 0.07616,
				"method": "rhf"
			},
			{
				"type": "unocc",
				"energy": 0.09447,
				"method": "rhf"
			}
		],
		"cosmo_sigma_profile": { 
			"-0.025": 0.0,
			"-0.024": 0.0,
			"-0.023": 0.0,
			"-0.022": 0.0,
			"-0.021": 0.0,
			"-0.02": 0.0,
			"-0.019": 0.0,
			"-0.018": 0.0,
			"-0.017": 0.0,
			"-0.016": 0.0,
			"-0.015": 0.0,
			"-0.014": 0.0,
			"-0.013": 0.0,
			"-0.012": 0.0,
			"-0.011": 0.0,
			"-0.01": 0.0,
			"-0.009": 1.36310759403,
			"-0.008": 5.85952869621,
			"-0.007": 11.5251082313,
			"-0.006": 14.5267294555,
			"-0.005": 13.3745676038,
			"-0.004": 12.9359394604,
			"-0.003": 10.5662336639,
			"-0.002": 10.7987576137,
			"-0.001": 10.5175058384,
			"0.0": 12.2624182893,
			"0.001": 15.5058156944,
			"0.002": 29.0808015518,
			"0.003": 38.4709374196,
			"0.004": 5.49599069805,
			"0.005": 3.09618712861,
			"0.006": 2.92800642198,
			"0.007": 2.35165252739,
			"0.008": 3.67611315431,
			"0.009": 4.09279438979,
			"0.01": 2.72790020939,
			"0.011": 2.28270439668,
			"0.012": 1.84738831245,
			"0.013": 0.556812324938,
			"0.014": 0.0,
			"0.015": 0.0,
			"0.016": 0.0,
			"0.017": 0.0,
			"0.018": 0.0,
			"0.019": 0.0,
			"0.02": 0.0,
			"0.021": 0.0,
			"0.022": 0.0,
			"0.023": 0.0,
			"0.024": 0.0,
			"0.025": 0.0
		}
	}
}
