{
	 "smiles": "OC(=O)C1=C(O)C=CC(OC(F)(F)F)=C1", 
	 "Tm": 405.15, 
	 "num_atms": 20, 
	 "gaussian": { 
		 "optdone": 1, 
		 "sigma_profile": "yes", 
		 "theory": "DFT", 
		 "functional": "B3LYP", 
		 "basiset": "6-31G**", 
		 "properties": { 
			 "R2extent": 5073.5362, 
			 "electric_dipole_moment_norm": 1.40694285243, 
			 "electric_quadrupole_moment_norm": 10.6104832406, 
			 "total_energy": -908.306154622, 
			 "HOMO_LUMO_gap": 0.16472, 
			 "cosmo_polarized_energy": -8.54, 
			 "cosmo_cavitation_energy": 26.56, 
			 "cosmo_dispersion_energy": -19.67, 
			 "cosmo_repulsion_energy": 1.47, 
			 "cosmo_total_nonelectrostatic_energy": 8.36, 
			 "SMD_solvation_energy": 7.62 
		},
		"coords": [
			{
				"x": -0.9640582134,
				"y": 2.2485643459,
				"z": -0.4001879164,
				"element": "O" 
			},
			{
				"x": 0.3002396778,
				"y": 2.4629426243,
				"z": -0.8081301267,
				"element": "C" 
			},
			{
				"x": 0.5992952967,
				"y": 3.4762347811,
				"z": -1.4420277125,
				"element": "O" 
			},
			{
				"x": 1.2542731642,
				"y": 1.4117563658,
				"z": -0.4386101408,
				"element": "C" 
			},
			{
				"x": 2.6102019028,
				"y": 1.5566803884,
				"z": -0.8284417419,
				"element": "C" 
			},
			{
				"x": 3.0643902117,
				"y": 2.61184325,
				"z": -1.5210034011,
				"element": "O" 
			},
			{
				"x": 3.523712424,
				"y": 0.5509188839,
				"z": -0.4750376646,
				"element": "C" 
			},
			{
				"x": 3.1193081453,
				"y": -0.5665006313,
				"z": 0.2409637097,
				"element": "C" 
			},
			{
				"x": 1.7751202619,
				"y": -0.6977559217,
				"z": 0.620506718,
				"element": "C" 
			},
			{
				"x": 1.2491984135,
				"y": -1.7761582413,
				"z": 1.3424087127,
				"element": "O" 
			},
			{
				"x": 2.0339157541,
				"y": -2.8040897797,
				"z": 1.7384651798,
				"element": "C" 
			},
			{
				"x": 1.261733382,
				"y": -3.6664806876,
				"z": 2.3960742395,
				"element": "F" 
			},
			{
				"x": 3.0303885102,
				"y": -2.4100042563,
				"z": 2.5582976701,
				"element": "F" 
			},
			{
				"x": 2.6080402648,
				"y": -3.4480540729,
				"z": 0.701115682,
				"element": "F" 
			},
			{
				"x": 0.8524546369,
				"y": 0.2765905649,
				"z": 0.2867229657,
				"element": "C" 
			},
			{
				"x": -1.4831426712,
				"y": 3.0104185312,
				"z": -0.7072737738,
				"element": "H" 
			},
			{
				"x": 2.2957291133,
				"y": 3.2091562764,
				"z": -1.6793997936,
				"element": "H" 
			},
			{
				"x": 4.5584256959,
				"y": 0.6691942244,
				"z": -0.7768018444,
				"element": "H" 
			},
			{
				"x": 3.8478835897,
				"y": -1.3240840041,
				"z": 0.4979167966,
				"element": "H" 
			},
			{
				"x": -0.1818095601,
				"y": 0.1611273586,
				"z": 0.5868424419,
				"element": "H" 
			}
		],
		 "valence_orbital": [ 
			{
				"type": "occ",
				"energy": -0.34202,
				"method": "rhf"
			},
			{
				"type": "occ",
				"energy": -0.33315,
				"method": "rhf"
			},
			{
				"type": "occ",
				"energy": -0.30161,
				"method": "rhf"
			},
			{
				"type": "occ",
				"energy": -0.28104,
				"method": "rhf"
			},
			{
				"type": "occ",
				"energy": -0.2311,
				"method": "rhf"
			},
			{
				"type": "unocc",
				"energy": -0.06638,
				"method": "rhf"
			},
			{
				"type": "unocc",
				"energy": -0.00634,
				"method": "rhf"
			},
			{
				"type": "unocc",
				"energy": 0.03892,
				"method": "rhf"
			},
			{
				"type": "unocc",
				"energy": 0.06128,
				"method": "rhf"
			},
			{
				"type": "unocc",
				"energy": 0.08831,
				"method": "rhf"
			}
		],
		"cosmo_sigma_profile": { 
			"-0.025": 0.0,
			"-0.024": 0.0,
			"-0.023": 0.0,
			"-0.022": 0.0,
			"-0.021": 0.0,
			"-0.02": 0.0103529636366,
			"-0.019": 0.56499665958,
			"-0.018": 1.27486566626,
			"-0.017": 0.695805093775,
			"-0.016": 0.409170051857,
			"-0.015": 1.03914401356,
			"-0.014": 0.643928433571,
			"-0.013": 1.16246759022,
			"-0.012": 0.825480395257,
			"-0.011": 0.43417071624,
			"-0.01": 0.317706390077,
			"-0.009": 0.771721562267,
			"-0.008": 2.56697925151,
			"-0.007": 5.73961405393,
			"-0.006": 6.43973499653,
			"-0.005": 5.85759343653,
			"-0.004": 8.17843021051,
			"-0.003": 10.4554919232,
			"-0.002": 12.4100957212,
			"-0.001": 16.8286448441,
			"0.0": 24.448203948,
			"0.001": 37.9622184087,
			"0.002": 35.5976389503,
			"0.003": 8.35264555244,
			"0.004": 5.49467210454,
			"0.005": 5.57147692895,
			"0.006": 4.78488406738,
			"0.007": 2.82654788641,
			"0.008": 2.60700301294,
			"0.009": 3.2357950745,
			"0.01": 3.93031399359,
			"0.011": 2.26510559613,
			"0.012": 0.0290998343922,
			"0.013": 0.0,
			"0.014": 0.0,
			"0.015": 0.0,
			"0.016": 0.0,
			"0.017": 0.0,
			"0.018": 0.0,
			"0.019": 0.0,
			"0.02": 0.0,
			"0.021": 0.0,
			"0.022": 0.0,
			"0.023": 0.0,
			"0.024": 0.0,
			"0.025": 0.0
		}
	}
}
