{
	 "smiles": "CC1=C(C=C(C=C1)S(Cl)(=O)=O)S(=O)(=O)N1CCCCC1", 
	 "Tm": 385.15, 
	 "num_atms": 36, 
	 "gaussian": { 
		 "optdone": 1, 
		 "sigma_profile": "yes", 
		 "theory": "DFT", 
		 "functional": "B3LYP", 
		 "basiset": "6-31G**", 
		 "properties": { 
			 "R2extent": 12138.8886, 
			 "electric_dipole_moment_norm": 7.42044216607, 
			 "electric_quadrupole_moment_norm": 33.5106843493, 
			 "total_energy": -2078.9990863, 
			 "HOMO_LUMO_gap": 0.16451, 
			 "cosmo_polarized_energy": -16.38, 
			 "cosmo_cavitation_energy": 42.02, 
			 "cosmo_dispersion_energy": -30.08, 
			 "cosmo_repulsion_energy": 2.23, 
			 "cosmo_total_nonelectrostatic_energy": 14.17, 
			 "SMD_solvation_energy": 4.3 
		},
		"coords": [
			{
				"x": 0.0197708477,
				"y": -2.5187414465,
				"z": -0.1646771918,
				"element": "C" 
			},
			{
				"x": -0.890372617,
				"y": -2.1256814058,
				"z": -1.2979649512,
				"element": "C" 
			},
			{
				"x": -0.8160935106,
				"y": -0.8739199703,
				"z": -1.9485961708,
				"element": "C" 
			},
			{
				"x": -1.666498113,
				"y": -0.5404714322,
				"z": -3.0014094285,
				"element": "C" 
			},
			{
				"x": -2.6242872278,
				"y": -1.4695347697,
				"z": -3.4005355696,
				"element": "C" 
			},
			{
				"x": -2.7427787542,
				"y": -2.7136777526,
				"z": -2.7845520024,
				"element": "C" 
			},
			{
				"x": -1.8732977508,
				"y": -3.0232578433,
				"z": -1.742299495,
				"element": "C" 
			},
			{
				"x": -3.7509253825,
				"y": -1.0422183884,
				"z": -4.7193344101,
				"element": "S" 
			},
			{
				"x": -2.6692226062,
				"y": -1.7010251591,
				"z": -6.4317883508,
				"element": "Cl" 
			},
			{
				"x": -4.9299732643,
				"y": -1.8950186931,
				"z": -4.630323167,
				"element": "O" 
			},
			{
				"x": -3.8417961591,
				"y": 0.4079781172,
				"z": -4.8249398749,
				"element": "O" 
			},
			{
				"x": 0.4316600023,
				"y": 0.3645162034,
				"z": -1.5149316426,
				"element": "S" 
			},
			{
				"x": 0.226341365,
				"y": 1.49350686,
				"z": -2.4331534776,
				"element": "O" 
			},
			{
				"x": 1.7439407716,
				"y": -0.2845043925,
				"z": -1.4313844383,
				"element": "O" 
			},
			{
				"x": -0.0004263943,
				"y": 0.7659521542,
				"z": 0.0644613725,
				"element": "N" 
			},
			{
				"x": 1.1498430571,
				"y": 1.0811273396,
				"z": 0.9588098631,
				"element": "C" 
			},
			{
				"x": 0.6057749979,
				"y": 1.6064671685,
				"z": 2.2877255244,
				"element": "C" 
			},
			{
				"x": -0.1444376206,
				"y": 2.9462555952,
				"z": 2.1080388957,
				"element": "C" 
			},
			{
				"x": -0.8253265353,
				"y": 3.0286955426,
				"z": 0.7224243728,
				"element": "C" 
			},
			{
				"x": -1.1995615831,
				"y": 1.6368113027,
				"z": 0.2077844259,
				"element": "C" 
			},
			{
				"x": -0.0931069207,
				"y": -1.8232841312,
				"z": 0.6730850166,
				"element": "H" 
			},
			{
				"x": -0.2103484526,
				"y": -3.5285619154,
				"z": 0.1814032998,
				"element": "H" 
			},
			{
				"x": 1.0670837168,
				"y": -2.4739884839,
				"z": -0.474139925,
				"element": "H" 
			},
			{
				"x": -1.577527226,
				"y": 0.425141897,
				"z": -3.486093527,
				"element": "H" 
			},
			{
				"x": -3.5030049882,
				"y": -3.4153436983,
				"z": -3.1090075633,
				"element": "H" 
			},
			{
				"x": -1.9560676036,
				"y": -3.989419065,
				"z": -1.2537691418,
				"element": "H" 
			},
			{
				"x": 1.8165453138,
				"y": 1.8297194681,
				"z": 0.5094775988,
				"element": "H" 
			},
			{
				"x": 1.7326697974,
				"y": 0.1690299818,
				"z": 1.0976258652,
				"element": "H" 
			},
			{
				"x": -0.060891381,
				"y": 0.8490553122,
				"z": 2.7172326799,
				"element": "H" 
			},
			{
				"x": 1.4393607241,
				"y": 1.7193849525,
				"z": 2.9883956397,
				"element": "H" 
			},
			{
				"x": 0.552111013,
				"y": 3.7841846516,
				"z": 2.2205264776,
				"element": "H" 
			},
			{
				"x": -0.888715646,
				"y": 3.0532237839,
				"z": 2.9047937328,
				"element": "H" 
			},
			{
				"x": -1.7237873193,
				"y": 3.6533612056,
				"z": 0.765608377,
				"element": "H" 
			},
			{
				"x": -0.156140883,
				"y": 3.4925700044,
				"z": -0.0102367653,
				"element": "H" 
			},
			{
				"x": -1.6983544829,
				"y": 1.7123625658,
				"z": -0.7603817551,
				"element": "H" 
			},
			{
				"x": -1.8973591843,
				"y": 1.1453044406,
				"z": 0.8968257057,
				"element": "H" 
			}
		],
		 "valence_orbital": [ 
			{
				"type": "occ",
				"energy": -0.31464,
				"method": "rhf"
			},
			{
				"type": "occ",
				"energy": -0.30947,
				"method": "rhf"
			},
			{
				"type": "occ",
				"energy": -0.29904,
				"method": "rhf"
			},
			{
				"type": "occ",
				"energy": -0.28904,
				"method": "rhf"
			},
			{
				"type": "occ",
				"energy": -0.25733,
				"method": "rhf"
			},
			{
				"type": "unocc",
				"energy": -0.09282,
				"method": "rhf"
			},
			{
				"type": "unocc",
				"energy": -0.06172,
				"method": "rhf"
			},
			{
				"type": "unocc",
				"energy": -0.04738,
				"method": "rhf"
			},
			{
				"type": "unocc",
				"energy": 0.0352,
				"method": "rhf"
			},
			{
				"type": "unocc",
				"energy": 0.05234,
				"method": "rhf"
			}
		],
		"cosmo_sigma_profile": { 
			"-0.025": 0.0,
			"-0.024": 0.0,
			"-0.023": 0.0,
			"-0.022": 0.0,
			"-0.021": 0.0,
			"-0.02": 0.0,
			"-0.019": 0.0,
			"-0.018": 0.0,
			"-0.017": 0.0,
			"-0.016": 0.0,
			"-0.015": 0.0,
			"-0.014": 0.0,
			"-0.013": 0.0,
			"-0.012": 0.0,
			"-0.011": 0.0,
			"-0.01": 0.138712601566,
			"-0.009": 1.31184534685,
			"-0.008": 5.19798293049,
			"-0.007": 6.34796547293,
			"-0.006": 7.39156272163,
			"-0.005": 12.5442715762,
			"-0.004": 28.8585266133,
			"-0.003": 42.6116245637,
			"-0.002": 48.8975462508,
			"-0.001": 40.72154825,
			"0.0": 29.1959437244,
			"0.001": 15.9040729983,
			"0.002": 13.1227796039,
			"0.003": 17.6204396725,
			"0.004": 9.53354193404,
			"0.005": 5.60327039432,
			"0.006": 5.21975866479,
			"0.007": 8.75854719903,
			"0.008": 13.8222359941,
			"0.009": 7.52857497343,
			"0.01": 5.65879768706,
			"0.011": 6.75204921675,
			"0.012": 2.01732870974,
			"0.013": 0.0,
			"0.014": 0.0,
			"0.015": 0.0,
			"0.016": 0.0,
			"0.017": 0.0,
			"0.018": 0.0,
			"0.019": 0.0,
			"0.02": 0.0,
			"0.021": 0.0,
			"0.022": 0.0,
			"0.023": 0.0,
			"0.024": 0.0,
			"0.025": 0.0
		}
	}
}
