{
	 "smiles": "CN1C=NC(C#N)=C1C#N", 
	 "Tm": 358.15, 
	 "num_atms": 14, 
	 "gaussian": { 
		 "optdone": 1, 
		 "sigma_profile": "yes", 
		 "theory": "DFT", 
		 "functional": "B3LYP", 
		 "basiset": "6-31G**", 
		 "properties": { 
			 "R2extent": 1907.3403, 
			 "electric_dipole_moment_norm": 7.7508479549, 
			 "electric_quadrupole_moment_norm": 14.0342374538, 
			 "total_energy": -450.005063714, 
			 "HOMO_LUMO_gap": 0.19499, 
			 "cosmo_polarized_energy": -17.86, 
			 "cosmo_cavitation_energy": 21.31, 
			 "cosmo_dispersion_energy": -14.24, 
			 "cosmo_repulsion_energy": 1.16, 
			 "cosmo_total_nonelectrostatic_energy": 8.23, 
			 "SMD_solvation_energy": 5.32 
		},
		"coords": [
			{
				"x": 0.6100795755,
				"y": 2.1494864762,
				"z": 0.2374190625,
				"element": "C" 
			},
			{
				"x": 0.4060987083,
				"y": 1.0558905095,
				"z": -0.7067712554,
				"element": "N" 
			},
			{
				"x": 1.3627893189,
				"y": 0.3356894818,
				"z": -1.3585174443,
				"element": "C" 
			},
			{
				"x": 0.8612521206,
				"y": -0.5904243626,
				"z": -2.1490838316,
				"element": "N" 
			},
			{
				"x": -0.4965108394,
				"y": -0.476691343,
				"z": -2.012797713,
				"element": "C" 
			},
			{
				"x": -1.4175263498,
				"y": -1.3093623261,
				"z": -2.7105137441,
				"element": "C" 
			},
			{
				"x": -2.1814809388,
				"y": -1.9812386025,
				"z": -3.2730373878,
				"element": "N" 
			},
			{
				"x": -0.8113125197,
				"y": 0.5453956309,
				"z": -1.1167787886,
				"element": "C" 
			},
			{
				"x": -2.0476503312,
				"y": 1.044861178,
				"z": -0.6491348416,
				"element": "C" 
			},
			{
				"x": -3.056140301,
				"y": 1.4705841583,
				"z": -0.252216453,
				"element": "N" 
			},
			{
				"x": 1.6822846513,
				"y": 2.3129488445,
				"z": 0.3499925112,
				"element": "H" 
			},
			{
				"x": 0.1429385548,
				"y": 3.0643301383,
				"z": -0.1347954148,
				"element": "H" 
			},
			{
				"x": 0.1797748146,
				"y": 1.8969005552,
				"z": 1.2093971001,
				"element": "H" 
			},
			{
				"x": 2.4168035359,
				"y": 0.5328296614,
				"z": -1.2162617997,
				"element": "H" 
			}
		],
		 "valence_orbital": [ 
			{
				"type": "occ",
				"energy": -0.36784,
				"method": "rhf"
			},
			{
				"type": "occ",
				"energy": -0.34615,
				"method": "rhf"
			},
			{
				"type": "occ",
				"energy": -0.3166,
				"method": "rhf"
			},
			{
				"type": "occ",
				"energy": -0.31305,
				"method": "rhf"
			},
			{
				"type": "occ",
				"energy": -0.27081,
				"method": "rhf"
			},
			{
				"type": "unocc",
				"energy": -0.07582,
				"method": "rhf"
			},
			{
				"type": "unocc",
				"energy": -0.01109,
				"method": "rhf"
			},
			{
				"type": "unocc",
				"energy": -0.01062,
				"method": "rhf"
			},
			{
				"type": "unocc",
				"energy": 0.01466,
				"method": "rhf"
			},
			{
				"type": "unocc",
				"energy": 0.06422,
				"method": "rhf"
			}
		],
		"cosmo_sigma_profile": { 
			"-0.025": 0.0,
			"-0.024": 0.0,
			"-0.023": 0.0,
			"-0.022": 0.0,
			"-0.021": 0.0,
			"-0.02": 0.0,
			"-0.019": 0.0,
			"-0.018": 0.0,
			"-0.017": 0.0,
			"-0.016": 0.0,
			"-0.015": 0.0,
			"-0.014": 0.0,
			"-0.013": 0.158587003397,
			"-0.012": 2.12785128906,
			"-0.011": 3.0870591236,
			"-0.01": 2.22577075578,
			"-0.009": 4.58507649611,
			"-0.008": 8.94073329113,
			"-0.007": 8.25911260316,
			"-0.006": 10.6814062616,
			"-0.005": 14.9429317394,
			"-0.004": 13.4885528201,
			"-0.003": 10.0171087471,
			"-0.002": 8.16568874678,
			"-0.001": 5.2761080073,
			"0.0": 5.23711294805,
			"0.001": 6.46236215464,
			"0.002": 7.232720202,
			"0.003": 5.61888891249,
			"0.004": 5.62587773009,
			"0.005": 6.8658990517,
			"0.006": 7.03168583674,
			"0.007": 6.97979499732,
			"0.008": 7.34736607584,
			"0.009": 7.04188986294,
			"0.01": 6.14511397026,
			"0.011": 5.60838999878,
			"0.012": 3.33317302521,
			"0.013": 0.889628765356,
			"0.014": 0.680885260901,
			"0.015": 0.116508772166,
			"0.016": 0.0,
			"0.017": 0.0,
			"0.018": 0.0,
			"0.019": 0.0,
			"0.02": 0.0,
			"0.021": 0.0,
			"0.022": 0.0,
			"0.023": 0.0,
			"0.024": 0.0,
			"0.025": 0.0
		}
	}
}
