{
	 "smiles": "OC(=O)CCCOC1=C(F)C=C(C=C1)S(Cl)(=O)=O", 
	 "Tm": 386.15, 
	 "num_atms": 28, 
	 "gaussian": { 
		 "optdone": 1, 
		 "sigma_profile": "yes", 
		 "theory": "DFT", 
		 "functional": "B3LYP", 
		 "basiset": "6-31G**", 
		 "properties": { 
			 "R2extent": 9107.4564, 
			 "electric_dipole_moment_norm": 5.78269089093, 
			 "electric_quadrupole_moment_norm": 29.5715092552, 
			 "total_energy": -1721.3541691, 
			 "HOMO_LUMO_gap": 0.17624, 
			 "cosmo_polarized_energy": -20.57, 
			 "cosmo_cavitation_energy": 36.51, 
			 "cosmo_dispersion_energy": -26.13, 
			 "cosmo_repulsion_energy": 1.96, 
			 "cosmo_total_nonelectrostatic_energy": 12.34, 
			 "SMD_solvation_energy": 6.23 
		},
		"coords": [
			{
				"x": -1.1159292602,
				"y": -2.2971444938,
				"z": -0.3425620727,
				"element": "O" 
			},
			{
				"x": -1.8775948159,
				"y": -2.5633988058,
				"z": 0.7495660984,
				"element": "C" 
			},
			{
				"x": -2.9880995268,
				"y": -3.0185669976,
				"z": 0.6280567943,
				"element": "O" 
			},
			{
				"x": -1.2529117704,
				"y": -2.202064938,
				"z": 2.0939208196,
				"element": "C" 
			},
			{
				"x": -1.5730534817,
				"y": -0.7535379555,
				"z": 2.5250852124,
				"element": "C" 
			},
			{
				"x": -1.2439875483,
				"y": 0.3122432277,
				"z": 1.4829507666,
				"element": "C" 
			},
			{
				"x": 0.076337409,
				"y": 0.0414101927,
				"z": 0.9747083294,
				"element": "O" 
			},
			{
				"x": 0.615052042,
				"y": 0.866956834,
				"z": 0.0464344853,
				"element": "C" 
			},
			{
				"x": 1.7140297596,
				"y": 0.3373699723,
				"z": -0.6576999348,
				"element": "C" 
			},
			{
				"x": 2.0722460098,
				"y": -0.9321700419,
				"z": -0.3836479475,
				"element": "F" 
			},
			{
				"x": 2.3988651812,
				"y": 1.0632684823,
				"z": -1.6089287937,
				"element": "C" 
			},
			{
				"x": 1.9562948504,
				"y": 2.3657212851,
				"z": -1.8691314664,
				"element": "C" 
			},
			{
				"x": 0.8601575584,
				"y": 2.9196962237,
				"z": -1.2135037944,
				"element": "C" 
			},
			{
				"x": 0.1858545376,
				"y": 2.1641351775,
				"z": -0.2528731116,
				"element": "C" 
			},
			{
				"x": 2.8281284709,
				"y": 3.3384244063,
				"z": -3.0797469638,
				"element": "S" 
			},
			{
				"x": 1.8078050476,
				"y": 2.8056408673,
				"z": -4.8749256299,
				"element": "Cl" 
			},
			{
				"x": 4.1847593138,
				"y": 2.8250011282,
				"z": -3.219360635,
				"element": "O" 
			},
			{
				"x": 2.5422867477,
				"y": 4.7497165242,
				"z": -2.855653298,
				"element": "O" 
			},
			{
				"x": -0.2727247256,
				"y": -1.9010727963,
				"z": -0.0706467844,
				"element": "H" 
			},
			{
				"x": -0.1679986428,
				"y": -2.3424556265,
				"z": 2.0641925169,
				"element": "H" 
			},
			{
				"x": -1.6623376309,
				"y": -2.8888438291,
				"z": 2.8376650249,
				"element": "H" 
			},
			{
				"x": -1.0259597159,
				"y": -0.5411877051,
				"z": 3.4494368807,
				"element": "H" 
			},
			{
				"x": -2.6408986561,
				"y": -0.6655758233,
				"z": 2.7530932594,
				"element": "H" 
			},
			{
				"x": -1.2745809525,
				"y": 1.3064467556,
				"z": 1.9426139534,
				"element": "H" 
			},
			{
				"x": -1.9501851699,
				"y": 0.2911881107,
				"z": 0.64379986,
				"element": "H" 
			},
			{
				"x": 3.2464122836,
				"y": 0.6305231091,
				"z": -2.1270457514,
				"element": "H" 
			},
			{
				"x": 0.5436897265,
				"y": 3.9308312889,
				"z": -1.4414001618,
				"element": "H" 
			},
			{
				"x": -0.6646570409,
				"y": 2.5933454273,
				"z": 0.2619023441,
				"element": "H" 
			}
		],
		 "valence_orbital": [ 
			{
				"type": "occ",
				"energy": -0.31822,
				"method": "rhf"
			},
			{
				"type": "occ",
				"energy": -0.31708,
				"method": "rhf"
			},
			{
				"type": "occ",
				"energy": -0.29904,
				"method": "rhf"
			},
			{
				"type": "occ",
				"energy": -0.27393,
				"method": "rhf"
			},
			{
				"type": "occ",
				"energy": -0.27161,
				"method": "rhf"
			},
			{
				"type": "unocc",
				"energy": -0.09537,
				"method": "rhf"
			},
			{
				"type": "unocc",
				"energy": -0.0507,
				"method": "rhf"
			},
			{
				"type": "unocc",
				"energy": -0.0465,
				"method": "rhf"
			},
			{
				"type": "unocc",
				"energy": 0.00034,
				"method": "rhf"
			},
			{
				"type": "unocc",
				"energy": 0.03144,
				"method": "rhf"
			}
		],
		"cosmo_sigma_profile": { 
			"-0.025": 0.0,
			"-0.024": 0.0,
			"-0.023": 0.0,
			"-0.022": 0.0,
			"-0.021": 0.0,
			"-0.02": 0.0,
			"-0.019": 0.0,
			"-0.018": 0.0,
			"-0.017": 0.0,
			"-0.016": 0.0,
			"-0.015": 0.0,
			"-0.014": 0.0,
			"-0.013": 0.000131236516621,
			"-0.012": 0.370874718975,
			"-0.011": 0.533185306228,
			"-0.01": 1.50533786416,
			"-0.009": 6.26911547984,
			"-0.008": 8.21858825658,
			"-0.007": 11.6229829635,
			"-0.006": 20.3444029361,
			"-0.005": 22.1571279362,
			"-0.004": 20.3498758861,
			"-0.003": 18.6834553667,
			"-0.002": 22.0380778183,
			"-0.001": 21.0637573068,
			"0.0": 18.6978198673,
			"0.001": 15.0001758602,
			"0.002": 13.8103059519,
			"0.003": 22.8230538293,
			"0.004": 13.3898867189,
			"0.005": 4.93155380915,
			"0.006": 5.94566466679,
			"0.007": 8.67346666711,
			"0.008": 11.3944514011,
			"0.009": 7.36816214428,
			"0.01": 4.36261751869,
			"0.011": 5.44286923762,
			"0.012": 5.54620671461,
			"0.013": 3.16597231376,
			"0.014": 0.243056080162,
			"0.015": 0.0,
			"0.016": 0.0,
			"0.017": 0.0,
			"0.018": 0.0,
			"0.019": 0.0,
			"0.02": 0.0,
			"0.021": 0.0,
			"0.022": 0.0,
			"0.023": 0.0,
			"0.024": 0.0,
			"0.025": 0.0
		}
	}
}
