{
	 "smiles": "CCN1C=C(N=C1C)S(Cl)(=O)=O", 
	 "Tm": 339.15, 
	 "num_atms": 21, 
	 "gaussian": { 
		 "optdone": 1, 
		 "sigma_profile": "yes", 
		 "theory": "DFT", 
		 "functional": "B3LYP", 
		 "basiset": "6-31G**", 
		 "properties": { 
			 "R2extent": 4817.4875, 
			 "electric_dipole_moment_norm": 9.20947940657, 
			 "electric_quadrupole_moment_norm": 20.9319463732, 
			 "total_energy": -1352.33019803, 
			 "HOMO_LUMO_gap": 0.18799, 
			 "cosmo_polarized_energy": -17.68, 
			 "cosmo_cavitation_energy": 28.7, 
			 "cosmo_dispersion_energy": -20.87, 
			 "cosmo_repulsion_energy": 1.65, 
			 "cosmo_total_nonelectrostatic_energy": 9.48, 
			 "SMD_solvation_energy": 2.11 
		},
		"coords": [
			{
				"x": -2.464091102,
				"y": 2.8262082832,
				"z": -0.4928972007,
				"element": "C" 
			},
			{
				"x": -1.029450832,
				"y": 2.5726314582,
				"z": -0.0256077022,
				"element": "C" 
			},
			{
				"x": -0.8536452472,
				"y": 1.2487840517,
				"z": 0.5794495956,
				"element": "N" 
			},
			{
				"x": -1.0958452904,
				"y": 0.9363273384,
				"z": 1.8925751728,
				"element": "C" 
			},
			{
				"x": -0.8427926451,
				"y": -0.412452486,
				"z": 1.9754613216,
				"element": "C" 
			},
			{
				"x": -0.4705512289,
				"y": -0.9419297095,
				"z": 0.7755110571,
				"element": "N" 
			},
			{
				"x": -0.4838322863,
				"y": 0.0773926925,
				"z": -0.0595578612,
				"element": "C" 
			},
			{
				"x": -0.1302368357,
				"y": -0.0024550159,
				"z": -1.5086147449,
				"element": "C" 
			},
			{
				"x": -0.9513974864,
				"y": -1.3564780413,
				"z": 3.4547739377,
				"element": "S" 
			},
			{
				"x": -2.7046842968,
				"y": -2.5206148352,
				"z": 3.1004019457,
				"element": "Cl" 
			},
			{
				"x": 0.1474608231,
				"y": -2.3045345273,
				"z": 3.5525741361,
				"element": "O" 
			},
			{
				"x": -1.2850428286,
				"y": -0.4340459811,
				"z": 4.5363675499,
				"element": "O" 
			},
			{
				"x": -2.5421731706,
				"y": 3.8261358181,
				"z": -0.930246689,
				"element": "H" 
			},
			{
				"x": -2.7690670235,
				"y": 2.0970782246,
				"z": -1.2489918589,
				"element": "H" 
			},
			{
				"x": -3.1656035606,
				"y": 2.7619928406,
				"z": 0.3437384923,
				"element": "H" 
			},
			{
				"x": -0.7263806407,
				"y": 3.3157936497,
				"z": 0.717402565,
				"element": "H" 
			},
			{
				"x": -0.3283944555,
				"y": 2.6506831891,
				"z": -0.8604425932,
				"element": "H" 
			},
			{
				"x": -1.4003155999,
				"y": 1.6595583001,
				"z": 2.6321070103,
				"element": "H" 
			},
			{
				"x": -0.9592737721,
				"y": 0.3077765443,
				"z": -2.1542239275,
				"element": "H" 
			},
			{
				"x": 0.116487563,
				"y": -1.0394956112,
				"z": -1.7378208076,
				"element": "H" 
			},
			{
				"x": 0.7377299161,
				"y": 0.6204438168,
				"z": -1.7537593989,
				"element": "H" 
			}
		],
		 "valence_orbital": [ 
			{
				"type": "occ",
				"energy": -0.32211,
				"method": "rhf"
			},
			{
				"type": "occ",
				"energy": -0.30097,
				"method": "rhf"
			},
			{
				"type": "occ",
				"energy": -0.30069,
				"method": "rhf"
			},
			{
				"type": "occ",
				"energy": -0.2986,
				"method": "rhf"
			},
			{
				"type": "occ",
				"energy": -0.25883,
				"method": "rhf"
			},
			{
				"type": "unocc",
				"energy": -0.07084,
				"method": "rhf"
			},
			{
				"type": "unocc",
				"energy": -0.01067,
				"method": "rhf"
			},
			{
				"type": "unocc",
				"energy": 0.01339,
				"method": "rhf"
			},
			{
				"type": "unocc",
				"energy": 0.0531,
				"method": "rhf"
			},
			{
				"type": "unocc",
				"energy": 0.07876,
				"method": "rhf"
			}
		],
		"cosmo_sigma_profile": { 
			"-0.025": 0.0,
			"-0.024": 0.0,
			"-0.023": 0.0,
			"-0.022": 0.0,
			"-0.021": 0.0,
			"-0.02": 0.0,
			"-0.019": 0.0,
			"-0.018": 0.0,
			"-0.017": 0.0,
			"-0.016": 0.0,
			"-0.015": 0.0,
			"-0.014": 0.0,
			"-0.013": 0.0,
			"-0.012": 0.00246490969298,
			"-0.011": 1.37397790551,
			"-0.01": 2.12664342877,
			"-0.009": 2.09531284768,
			"-0.008": 3.15501163801,
			"-0.007": 7.83229490926,
			"-0.006": 13.0429017167,
			"-0.005": 16.8388707451,
			"-0.004": 21.3312801347,
			"-0.003": 17.2225679203,
			"-0.002": 19.5201965002,
			"-0.001": 19.2576885908,
			"0.0": 14.9036745138,
			"0.001": 7.65010561863,
			"0.002": 9.08677020546,
			"0.003": 14.477990448,
			"0.004": 17.4633851689,
			"0.005": 4.74699844731,
			"0.006": 4.23229910499,
			"0.007": 5.43512979508,
			"0.008": 13.5975358725,
			"0.009": 9.54381282854,
			"0.01": 1.19238768746,
			"0.011": 1.47790881109,
			"0.012": 0.950338562697,
			"0.013": 0.818729658116,
			"0.014": 0.762312545898,
			"0.015": 0.477651306643,
			"0.016": 0.0196773141131,
			"0.017": 0.0,
			"0.018": 0.0,
			"0.019": 0.0,
			"0.02": 0.0,
			"0.021": 0.0,
			"0.022": 0.0,
			"0.023": 0.0,
			"0.024": 0.0,
			"0.025": 0.0
		}
	}
}
