{
	 "smiles": "C[C@H](NC(=O)C1CCCCC1)C(O)=O", 
	 "Tm": 401.15, 
	 "num_atms": 31, 
	 "gaussian": { 
		 "optdone": 1, 
		 "sigma_profile": "yes", 
		 "theory": "DFT", 
		 "functional": "B3LYP", 
		 "basiset": "6-31G**", 
		 "properties": { 
			 "R2extent": 3979.7203, 
			 "electric_dipole_moment_norm": 2.47368659494, 
			 "electric_quadrupole_moment_norm": 14.50587026, 
			 "total_energy": -671.768476664, 
			 "HOMO_LUMO_gap": 0.23181, 
			 "cosmo_polarized_energy": -16.09, 
			 "cosmo_cavitation_energy": 31.61, 
			 "cosmo_dispersion_energy": -22.19, 
			 "cosmo_repulsion_energy": 1.77, 
			 "cosmo_total_nonelectrostatic_energy": 11.19, 
			 "SMD_solvation_energy": 5.98 
		},
		"coords": [
			{
				"x": -2.7496258084,
				"y": -2.7813757747,
				"z": -2.3670743005,
				"element": "C" 
			},
			{
				"x": -3.1023855391,
				"y": -1.4188737482,
				"z": -1.7586887881,
				"element": "C" 
			},
			{
				"x": -2.0873733335,
				"y": -0.3896929511,
				"z": -1.952430351,
				"element": "N" 
			},
			{
				"x": -0.8276512593,
				"y": -0.2567367827,
				"z": -1.411558733,
				"element": "C" 
			},
			{
				"x": -0.0977963458,
				"y": 0.6468487878,
				"z": -1.808289391,
				"element": "O" 
			},
			{
				"x": -0.3876528527,
				"y": -1.2013316484,
				"z": -0.2942748689,
				"element": "C" 
			},
			{
				"x": -0.3289450188,
				"y": -0.4088753211,
				"z": 1.052228952,
				"element": "C" 
			},
			{
				"x": 1.0624491001,
				"y": 0.1875927531,
				"z": 1.2941085871,
				"element": "C" 
			},
			{
				"x": 2.1288375481,
				"y": -0.923053033,
				"z": 1.4466192808,
				"element": "C" 
			},
			{
				"x": 1.7773514026,
				"y": -2.1841260067,
				"z": 0.6214562571,
				"element": "C" 
			},
			{
				"x": 0.9944961478,
				"y": -1.815936202,
				"z": -0.6445887895,
				"element": "C" 
			},
			{
				"x": -3.564500089,
				"y": -1.5551878525,
				"z": -0.3016601202,
				"element": "C" 
			},
			{
				"x": -3.731319993,
				"y": -0.3548891663,
				"z": 0.295309689,
				"element": "O" 
			},
			{
				"x": -3.8071707238,
				"y": -2.6055665073,
				"z": 0.2495223958,
				"element": "O" 
			},
			{
				"x": -1.8701812746,
				"y": -3.2175645551,
				"z": -1.887517032,
				"element": "H" 
			},
			{
				"x": -2.5374674155,
				"y": -2.6604109824,
				"z": -3.432411412,
				"element": "H" 
			},
			{
				"x": -3.5794914885,
				"y": -3.4804559263,
				"z": -2.2433793181,
				"element": "H" 
			},
			{
				"x": -3.9912586674,
				"y": -1.0367771229,
				"z": -2.2778963197,
				"element": "H" 
			},
			{
				"x": -2.2752690768,
				"y": 0.3198880125,
				"z": -2.648164605,
				"element": "H" 
			},
			{
				"x": -1.1073103618,
				"y": -2.0152879786,
				"z": -0.1709049848,
				"element": "H" 
			},
			{
				"x": -0.5813698391,
				"y": -1.0960503696,
				"z": 1.8700187939,
				"element": "H" 
			},
			{
				"x": -1.0948011282,
				"y": 0.3733307266,
				"z": 1.0586898646,
				"element": "H" 
			},
			{
				"x": 1.3052983314,
				"y": 0.8354315054,
				"z": 0.4457900567,
				"element": "H" 
			},
			{
				"x": 1.0505629323,
				"y": 0.8260308414,
				"z": 2.1847615813,
				"element": "H" 
			},
			{
				"x": 3.1033067179,
				"y": -0.532723207,
				"z": 1.1303011067,
				"element": "H" 
			},
			{
				"x": 2.236884021,
				"y": -1.2002972842,
				"z": 2.5022622459,
				"element": "H" 
			},
			{
				"x": 2.6894770147,
				"y": -2.7304087253,
				"z": 0.3565708222,
				"element": "H" 
			},
			{
				"x": 1.1762986462,
				"y": -2.874787291,
				"z": 1.2278915938,
				"element": "H" 
			},
			{
				"x": 1.561425112,
				"y": -1.0822472739,
				"z": -1.2270855001,
				"element": "H" 
			},
			{
				"x": 0.8558736094,
				"y": -2.6938439609,
				"z": -1.2867160572,
				"element": "H" 
			},
			{
				"x": -4.0499903682,
				"y": -0.5427229556,
				"z": 1.1944093441,
				"element": "H" 
			}
		],
		 "valence_orbital": [ 
			{
				"type": "occ",
				"energy": -0.29694,
				"method": "rhf"
			},
			{
				"type": "occ",
				"energy": -0.29492,
				"method": "rhf"
			},
			{
				"type": "occ",
				"energy": -0.29349,
				"method": "rhf"
			},
			{
				"type": "occ",
				"energy": -0.25094,
				"method": "rhf"
			},
			{
				"type": "occ",
				"energy": -0.24251,
				"method": "rhf"
			},
			{
				"type": "unocc",
				"energy": -0.0107,
				"method": "rhf"
			},
			{
				"type": "unocc",
				"energy": 0.02437,
				"method": "rhf"
			},
			{
				"type": "unocc",
				"energy": 0.06186,
				"method": "rhf"
			},
			{
				"type": "unocc",
				"energy": 0.07576,
				"method": "rhf"
			},
			{
				"type": "unocc",
				"energy": 0.0815,
				"method": "rhf"
			}
		],
		"cosmo_sigma_profile": { 
			"-0.025": 0.0,
			"-0.024": 0.0,
			"-0.023": 0.0,
			"-0.022": 0.0,
			"-0.021": 0.0,
			"-0.02": 0.0,
			"-0.019": 0.258506034258,
			"-0.018": 0.701847168733,
			"-0.017": 0.906830102343,
			"-0.016": 1.22931633851,
			"-0.015": 0.452151262035,
			"-0.014": 0.905682115082,
			"-0.013": 1.86764971324,
			"-0.012": 2.62341907969,
			"-0.011": 2.10662303752,
			"-0.01": 1.97863588116,
			"-0.009": 3.87321245827,
			"-0.008": 3.79816922739,
			"-0.007": 3.16030465475,
			"-0.006": 2.48494579988,
			"-0.005": 4.86459464813,
			"-0.004": 10.9914295511,
			"-0.003": 19.0430976823,
			"-0.002": 29.2428108517,
			"-0.001": 32.18017582,
			"0.0": 36.7201824554,
			"0.001": 22.4668477211,
			"0.002": 10.2260611175,
			"0.003": 4.23761352944,
			"0.004": 4.72566761492,
			"0.005": 4.00985087833,
			"0.006": 3.96823913445,
			"0.007": 4.84510179017,
			"0.008": 4.71075655796,
			"0.009": 3.74615540625,
			"0.01": 4.02809675164,
			"0.011": 5.92625951089,
			"0.012": 4.07249771031,
			"0.013": 2.76417510117,
			"0.014": 4.79120339562,
			"0.015": 0.649600978773,
			"0.016": 0.0,
			"0.017": 0.0,
			"0.018": 0.0,
			"0.019": 0.0,
			"0.02": 0.0,
			"0.021": 0.0,
			"0.022": 0.0,
			"0.023": 0.0,
			"0.024": 0.0,
			"0.025": 0.0
		}
	}
}
