{
	 "smiles": "CC1=C(N)C=C(C=N1)C1=CC=CC=C1", 
	 "Tm": 413.15, 
	 "num_atms": 26, 
	 "gaussian": { 
		 "optdone": 1, 
		 "sigma_profile": "yes", 
		 "theory": "DFT", 
		 "functional": "B3LYP", 
		 "basiset": "6-31G**", 
		 "properties": { 
			 "R2extent": 3899.1862, 
			 "electric_dipole_moment_norm": 3.01410356325, 
			 "electric_quadrupole_moment_norm": 9.89558918003, 
			 "total_energy": -574.026289372, 
			 "HOMO_LUMO_gap": 0.17814, 
			 "cosmo_polarized_energy": -12.13, 
			 "cosmo_cavitation_energy": 29.45, 
			 "cosmo_dispersion_energy": -21.74, 
			 "cosmo_repulsion_energy": 1.7, 
			 "cosmo_total_nonelectrostatic_energy": 9.41, 
			 "SMD_solvation_energy": 3.4 
		},
		"coords": [
			{
				"x": -3.7173918114,
				"y": 0.7490115624,
				"z": 0.7197563249,
				"element": "C" 
			},
			{
				"x": -2.4243345059,
				"y": 0.214646121,
				"z": 0.1591787044,
				"element": "C" 
			},
			{
				"x": -1.1931244376,
				"y": 0.8569556446,
				"z": 0.4394012444,
				"element": "C" 
			},
			{
				"x": -1.1463944205,
				"y": 1.9704549271,
				"z": 1.2791748035,
				"element": "N" 
			},
			{
				"x": -0.0290735159,
				"y": 0.3133010947,
				"z": -0.1112913715,
				"element": "C" 
			},
			{
				"x": -0.0936808872,
				"y": -0.8368293595,
				"z": -0.9067947091,
				"element": "C" 
			},
			{
				"x": -1.3647492396,
				"y": -1.3934518351,
				"z": -1.1136250875,
				"element": "C" 
			},
			{
				"x": -2.4878179264,
				"y": -0.8822823811,
				"z": -0.6013147314,
				"element": "N" 
			},
			{
				"x": 1.1222120711,
				"y": -1.4429021842,
				"z": -1.5012501965,
				"element": "C" 
			},
			{
				"x": 1.0952744431,
				"y": -1.9900091035,
				"z": -2.7956803474,
				"element": "C" 
			},
			{
				"x": 2.2367815778,
				"y": -2.5641555913,
				"z": -3.3535822249,
				"element": "C" 
			},
			{
				"x": 3.4313088286,
				"y": -2.6004106142,
				"z": -2.6316669996,
				"element": "C" 
			},
			{
				"x": 3.4734645922,
				"y": -2.0592432733,
				"z": -1.3452162253,
				"element": "C" 
			},
			{
				"x": 2.3311007303,
				"y": -1.4884847505,
				"z": -0.7858619606,
				"element": "C" 
			},
			{
				"x": -3.9440571933,
				"y": 1.7571232824,
				"z": 0.3433316082,
				"element": "H" 
			},
			{
				"x": -4.5340541886,
				"y": 0.0880078708,
				"z": 0.4270396446,
				"element": "H" 
			},
			{
				"x": -3.685459043,
				"y": 0.8123331285,
				"z": 1.8147831947,
				"element": "H" 
			},
			{
				"x": -1.9785176885,
				"y": 2.5434249799,
				"z": 1.2899912417,
				"element": "H" 
			},
			{
				"x": -0.3061572636,
				"y": 2.5276296833,
				"z": 1.2030570606,
				"element": "H" 
			},
			{
				"x": 0.9269114579,
				"y": 0.8017768337,
				"z": 0.0628385825,
				"element": "H" 
			},
			{
				"x": -1.4746238174,
				"y": -2.3044494473,
				"z": -1.6977737384,
				"element": "H" 
			},
			{
				"x": 0.1781571535,
				"y": -1.9423746078,
				"z": -3.3750909224,
				"element": "H" 
			},
			{
				"x": 2.1949406222,
				"y": -2.9756563441,
				"z": -4.3581959443,
				"element": "H" 
			},
			{
				"x": 4.3207762514,
				"y": -3.0463882109,
				"z": -3.0672001481,
				"element": "H" 
			},
			{
				"x": 4.3955282469,
				"y": -2.0899471114,
				"z": -0.7713642725,
				"element": "H" 
			},
			{
				"x": 2.366579964,
				"y": -1.096180314,
				"z": 0.2264564701,
				"element": "H" 
			}
		],
		 "valence_orbital": [ 
			{
				"type": "occ",
				"energy": -0.28053,
				"method": "rhf"
			},
			{
				"type": "occ",
				"energy": -0.24961,
				"method": "rhf"
			},
			{
				"type": "occ",
				"energy": -0.24276,
				"method": "rhf"
			},
			{
				"type": "occ",
				"energy": -0.23323,
				"method": "rhf"
			},
			{
				"type": "occ",
				"energy": -0.20513,
				"method": "rhf"
			},
			{
				"type": "unocc",
				"energy": -0.02699,
				"method": "rhf"
			},
			{
				"type": "unocc",
				"energy": -0.00275,
				"method": "rhf"
			},
			{
				"type": "unocc",
				"energy": 0.00055,
				"method": "rhf"
			},
			{
				"type": "unocc",
				"energy": 0.03293,
				"method": "rhf"
			},
			{
				"type": "unocc",
				"energy": 0.07295,
				"method": "rhf"
			}
		],
		"cosmo_sigma_profile": { 
			"-0.025": 0.0,
			"-0.024": 0.0,
			"-0.023": 0.0,
			"-0.022": 0.0,
			"-0.021": 0.0,
			"-0.02": 0.0,
			"-0.019": 0.0,
			"-0.018": 0.0,
			"-0.017": 0.0,
			"-0.016": 0.0,
			"-0.015": 0.0,
			"-0.014": 0.0,
			"-0.013": 0.46158927241,
			"-0.012": 2.33626688551,
			"-0.011": 2.63498964139,
			"-0.01": 3.45770776369,
			"-0.009": 3.9875952143,
			"-0.008": 2.36370098414,
			"-0.007": 3.0862667687,
			"-0.006": 7.7361832531,
			"-0.005": 17.5486554741,
			"-0.004": 19.629967478,
			"-0.003": 16.9488058051,
			"-0.002": 16.1774459618,
			"-0.001": 14.9734674214,
			"0.0": 16.2451533955,
			"0.001": 14.4795377349,
			"0.002": 13.9516612571,
			"0.003": 19.929927442,
			"0.004": 19.0244411057,
			"0.005": 13.6339121052,
			"0.006": 9.11985788796,
			"0.007": 2.69950168208,
			"0.008": 2.11334634805,
			"0.009": 2.15957452673,
			"0.01": 1.35528443728,
			"0.011": 2.17126947629,
			"0.012": 1.47985327776,
			"0.013": 1.70779355863,
			"0.014": 1.11571552496,
			"0.015": 0.748883625909,
			"0.016": 0.897200406089,
			"0.017": 0.353913441228,
			"0.018": 0.0,
			"0.019": 0.0,
			"0.02": 0.0,
			"0.021": 0.0,
			"0.022": 0.0,
			"0.023": 0.0,
			"0.024": 0.0,
			"0.025": 0.0
		}
	}
}
