{
	 "smiles": "COCC1=NN=C(O1)C1=CC(=CC=C1)C(O)=O", 
	 "Tm": 413.15, 
	 "num_atms": 27, 
	 "gaussian": { 
		 "optdone": 1, 
		 "sigma_profile": "yes", 
		 "theory": "DFT", 
		 "functional": "B3LYP", 
		 "basiset": "6-31G**", 
		 "properties": { 
			 "R2extent": 8202.0898, 
			 "electric_dipole_moment_norm": 6.21890597533, 
			 "electric_quadrupole_moment_norm": 47.6871753202, 
			 "total_energy": -835.55657746, 
			 "HOMO_LUMO_gap": 0.18561, 
			 "cosmo_polarized_energy": -22.52, 
			 "cosmo_cavitation_energy": 33.16, 
			 "cosmo_dispersion_energy": -23.89, 
			 "cosmo_repulsion_energy": 1.85, 
			 "cosmo_total_nonelectrostatic_energy": 11.12, 
			 "SMD_solvation_energy": 5.77 
		},
		"coords": [
			{
				"x": -2.2018338944,
				"y": -3.7322080435,
				"z": -1.0552442735,
				"element": "C" 
			},
			{
				"x": -2.008389602,
				"y": -2.4189373653,
				"z": -1.5626642236,
				"element": "O" 
			},
			{
				"x": -2.7185121748,
				"y": -1.4278646397,
				"z": -0.8467503686,
				"element": "C" 
			},
			{
				"x": -2.1299816293,
				"y": -1.1412673209,
				"z": 0.5000903031,
				"element": "C" 
			},
			{
				"x": -2.6135304467,
				"y": -1.4195641927,
				"z": 1.6710988605,
				"element": "N" 
			},
			{
				"x": -1.6791923448,
				"y": -0.9792739929,
				"z": 2.6033264073,
				"element": "N" 
			},
			{
				"x": -0.6918991377,
				"y": -0.4719060708,
				"z": 1.9238202078,
				"element": "C" 
			},
			{
				"x": -0.9079993856,
				"y": -0.5371084537,
				"z": 0.5776812007,
				"element": "O" 
			},
			{
				"x": 0.5430542665,
				"y": 0.1245721633,
				"z": 2.4238742203,
				"element": "C" 
			},
			{
				"x": 0.7686580688,
				"y": 0.1726867851,
				"z": 3.8053391408,
				"element": "C" 
			},
			{
				"x": 1.9350124047,
				"y": 0.7563177478,
				"z": 4.3056935457,
				"element": "C" 
			},
			{
				"x": 2.8947685301,
				"y": 1.2632836399,
				"z": 3.4161129071,
				"element": "C" 
			},
			{
				"x": 2.677078975,
				"y": 1.2024291587,
				"z": 2.039846038,
				"element": "C" 
			},
			{
				"x": 1.5035012201,
				"y": 0.6432494742,
				"z": 1.5402682849,
				"element": "C" 
			},
			{
				"x": 2.1193723146,
				"y": 0.7707202976,
				"z": 5.7968619628,
				"element": "C" 
			},
			{
				"x": 2.9792843209,
				"y": 1.6994308357,
				"z": 6.2947314817,
				"element": "O" 
			},
			{
				"x": 1.5508675129,
				"y": 0.0092186656,
				"z": 6.5409212956,
				"element": "O" 
			},
			{
				"x": -3.2624474203,
				"y": -4.0217888682,
				"z": -1.0889222861,
				"element": "H" 
			},
			{
				"x": -1.6268891688,
				"y": -4.4020255062,
				"z": -1.6976960832,
				"element": "H" 
			},
			{
				"x": -1.8476381988,
				"y": -3.8348675829,
				"z": -0.0207084667,
				"element": "H" 
			},
			{
				"x": -3.7694712528,
				"y": -1.7066109416,
				"z": -0.6872427254,
				"element": "H" 
			},
			{
				"x": -2.6830789684,
				"y": -0.523315915,
				"z": -1.4616547967,
				"element": "H" 
			},
			{
				"x": 0.040739435,
				"y": -0.2405924737,
				"z": 4.4942921301,
				"element": "H" 
			},
			{
				"x": 3.8331848962,
				"y": 1.6698182106,
				"z": 3.7847748841,
				"element": "H" 
			},
			{
				"x": 3.4268877413,
				"y": 1.5854458865,
				"z": 1.3549106876,
				"element": "H" 
			},
			{
				"x": 1.3300253861,
				"y": 0.5986156891,
				"z": 0.47057767,
				"element": "H" 
			},
			{
				"x": 3.217228552,
				"y": 2.339042813,
				"z": 5.6094619957,
				"element": "H" 
			}
		],
		 "valence_orbital": [ 
			{
				"type": "occ",
				"energy": -0.28752,
				"method": "rhf"
			},
			{
				"type": "occ",
				"energy": -0.28712,
				"method": "rhf"
			},
			{
				"type": "occ",
				"energy": -0.2775,
				"method": "rhf"
			},
			{
				"type": "occ",
				"energy": -0.2745,
				"method": "rhf"
			},
			{
				"type": "occ",
				"energy": -0.25839,
				"method": "rhf"
			},
			{
				"type": "unocc",
				"energy": -0.07278,
				"method": "rhf"
			},
			{
				"type": "unocc",
				"energy": -0.05342,
				"method": "rhf"
			},
			{
				"type": "unocc",
				"energy": -0.01063,
				"method": "rhf"
			},
			{
				"type": "unocc",
				"energy": 0.02068,
				"method": "rhf"
			},
			{
				"type": "unocc",
				"energy": 0.05441,
				"method": "rhf"
			}
		],
		"cosmo_sigma_profile": { 
			"-0.025": 0.0,
			"-0.024": 0.0,
			"-0.023": 0.0,
			"-0.022": 0.0,
			"-0.021": 0.0,
			"-0.02": 0.0,
			"-0.019": 0.454509642039,
			"-0.018": 1.04243532023,
			"-0.017": 0.963147791894,
			"-0.016": 0.93514127735,
			"-0.015": 1.57158384927,
			"-0.014": 0.658127825328,
			"-0.013": 0.881343796118,
			"-0.012": 1.25210362368,
			"-0.011": 1.31958551382,
			"-0.01": 1.47627161877,
			"-0.009": 1.74326337156,
			"-0.008": 5.40542644628,
			"-0.007": 11.0366340794,
			"-0.006": 13.4253283753,
			"-0.005": 18.9783869026,
			"-0.004": 21.0526957608,
			"-0.003": 21.8609577993,
			"-0.002": 20.6998291386,
			"-0.001": 17.5746729612,
			"0.0": 17.1632955482,
			"0.001": 18.4624315143,
			"0.002": 14.0091199895,
			"0.003": 6.27875842878,
			"0.004": 6.0149699618,
			"0.005": 5.82970033209,
			"0.006": 5.28568195618,
			"0.007": 5.99607498904,
			"0.008": 5.37547956592,
			"0.009": 6.64947996601,
			"0.01": 9.57549075055,
			"0.011": 9.78845935384,
			"0.012": 7.81035563659,
			"0.013": 3.126641586,
			"0.014": 1.6293426605,
			"0.015": 0.376403782242,
			"0.016": 0.0,
			"0.017": 0.0,
			"0.018": 0.0,
			"0.019": 0.0,
			"0.02": 0.0,
			"0.021": 0.0,
			"0.022": 0.0,
			"0.023": 0.0,
			"0.024": 0.0,
			"0.025": 0.0
		}
	}
}
