{
	 "smiles": "NC(=O)C(O)C1CC1", 
	 "Tm": 389.15, 
	 "num_atms": 17, 
	 "gaussian": { 
		 "optdone": 1, 
		 "sigma_profile": "yes", 
		 "theory": "DFT", 
		 "functional": "B3LYP", 
		 "basiset": "6-31G**", 
		 "properties": { 
			 "R2extent": 1062.891, 
			 "electric_dipole_moment_norm": 4.18304097039, 
			 "electric_quadrupole_moment_norm": 6.37159681242, 
			 "total_energy": -401.135961168, 
			 "HOMO_LUMO_gap": 0.27001, 
			 "cosmo_polarized_energy": -13.5, 
			 "cosmo_cavitation_energy": 19.95, 
			 "cosmo_dispersion_energy": -14.88, 
			 "cosmo_repulsion_energy": 1.27, 
			 "cosmo_total_nonelectrostatic_energy": 6.33, 
			 "SMD_solvation_energy": 3.74 
		},
		"coords": [
			{
				"x": -0.3647063449,
				"y": 0.8517059601,
				"z": 2.0579381174,
				"element": "N" 
			},
			{
				"x": -1.1546598206,
				"y": 0.7670102339,
				"z": 0.9579196995,
				"element": "C" 
			},
			{
				"x": -2.1328924316,
				"y": 1.4852514744,
				"z": 0.7721115562,
				"element": "O" 
			},
			{
				"x": -0.8076050699,
				"y": -0.3340107163,
				"z": -0.0676443708,
				"element": "C" 
			},
			{
				"x": -1.6236632624,
				"y": -0.1517921563,
				"z": -1.1962446042,
				"element": "O" 
			},
			{
				"x": 0.6590130049,
				"y": -0.3344674104,
				"z": -0.4569729935,
				"element": "C" 
			},
			{
				"x": 1.2484781403,
				"y": -1.5607808751,
				"z": -1.0959870721,
				"element": "C" 
			},
			{
				"x": 1.6588058319,
				"y": -1.1838417163,
				"z": 0.3064319023,
				"element": "C" 
			},
			{
				"x": -0.543934575,
				"y": 1.5960303681,
				"z": 2.7153112326,
				"element": "H" 
			},
			{
				"x": 0.5138981824,
				"y": 0.3600697385,
				"z": 2.098236943,
				"element": "H" 
			},
			{
				"x": -1.0325136524,
				"y": -1.301181399,
				"z": 0.421112321,
				"element": "H" 
			},
			{
				"x": -2.2672354164,
				"y": 0.5302184907,
				"z": -0.9243835289,
				"element": "H" 
			},
			{
				"x": 1.0154936155,
				"y": 0.6229618565,
				"z": -0.8312433415,
				"element": "H" 
			},
			{
				"x": 1.9670167813,
				"y": -1.4229991241,
				"z": -1.8974539903,
				"element": "H" 
			},
			{
				"x": 0.600702197,
				"y": -2.4232795726,
				"z": -1.2210563877,
				"element": "H" 
			},
			{
				"x": 2.6572998872,
				"y": -0.7875076258,
				"z": 0.4650416523,
				"element": "H" 
			},
			{
				"x": 1.2952029328,
				"y": -1.8103875263,
				"z": 1.1178828649,
				"element": "H" 
			}
		],
		 "valence_orbital": [ 
			{
				"type": "occ",
				"energy": -0.3103,
				"method": "rhf"
			},
			{
				"type": "occ",
				"energy": -0.30585,
				"method": "rhf"
			},
			{
				"type": "occ",
				"energy": -0.28188,
				"method": "rhf"
			},
			{
				"type": "occ",
				"energy": -0.26754,
				"method": "rhf"
			},
			{
				"type": "occ",
				"energy": -0.25402,
				"method": "rhf"
			},
			{
				"type": "unocc",
				"energy": 0.01599,
				"method": "rhf"
			},
			{
				"type": "unocc",
				"energy": 0.06974,
				"method": "rhf"
			},
			{
				"type": "unocc",
				"energy": 0.09404,
				"method": "rhf"
			},
			{
				"type": "unocc",
				"energy": 0.10521,
				"method": "rhf"
			},
			{
				"type": "unocc",
				"energy": 0.10872,
				"method": "rhf"
			}
		],
		"cosmo_sigma_profile": { 
			"-0.025": 0.0,
			"-0.024": 0.0,
			"-0.023": 0.0,
			"-0.022": 0.0,
			"-0.021": 0.0,
			"-0.02": 0.0,
			"-0.019": 0.0,
			"-0.018": 0.0,
			"-0.017": 0.0,
			"-0.016": 0.0,
			"-0.015": 0.0762615204527,
			"-0.014": 1.33335525622,
			"-0.013": 1.35530950385,
			"-0.012": 2.00951704375,
			"-0.011": 2.34742114221,
			"-0.01": 2.19689033873,
			"-0.009": 2.50011885007,
			"-0.008": 2.45909801678,
			"-0.007": 3.43969476105,
			"-0.006": 5.71667867481,
			"-0.005": 12.8250802954,
			"-0.004": 14.8783627724,
			"-0.003": 13.467115335,
			"-0.002": 11.0113435847,
			"-0.001": 10.1746634139,
			"0.0": 9.76860054427,
			"0.001": 7.28046357121,
			"0.002": 6.5175167363,
			"0.003": 5.9341496985,
			"0.004": 5.32850618113,
			"0.005": 4.73178047363,
			"0.006": 3.35591457422,
			"0.007": 2.30471201777,
			"0.008": 2.74899557929,
			"0.009": 2.73542486888,
			"0.01": 2.37758553529,
			"0.011": 3.51925766043,
			"0.012": 4.9804996391,
			"0.013": 4.4098374614,
			"0.014": 3.25088207567,
			"0.015": 0.853364873595,
			"0.016": 0.0,
			"0.017": 0.0,
			"0.018": 0.0,
			"0.019": 0.0,
			"0.02": 0.0,
			"0.021": 0.0,
			"0.022": 0.0,
			"0.023": 0.0,
			"0.024": 0.0,
			"0.025": 0.0
		}
	}
}
