{
	 "smiles": "OC(=O)CC1=CC=C(NC(=O)C2=CSC=N2)C=C1", 
	 "Tm": 458.15, 
	 "num_atms": 28, 
	 "gaussian": { 
		 "optdone": 1, 
		 "sigma_profile": "yes", 
		 "theory": "DFT", 
		 "functional": "B3LYP", 
		 "basiset": "6-31G**", 
		 "properties": { 
			 "R2extent": 6805.6836, 
			 "electric_dipole_moment_norm": 4.8187928312, 
			 "electric_quadrupole_moment_norm": 24.017998951, 
			 "total_energy": -1196.67389433, 
			 "HOMO_LUMO_gap": 0.18492, 
			 "cosmo_polarized_energy": -22.54, 
			 "cosmo_cavitation_energy": 35.77, 
			 "cosmo_dispersion_energy": -25.12, 
			 "cosmo_repulsion_energy": 1.93, 
			 "cosmo_total_nonelectrostatic_energy": 12.59, 
			 "SMD_solvation_energy": 6.45 
		},
		"coords": [
			{
				"x": 4.3537340874,
				"y": 0.1342985242,
				"z": 1.4834369922,
				"element": "O" 
			},
			{
				"x": 3.0906303362,
				"y": 0.0193443408,
				"z": 1.9544985754,
				"element": "C" 
			},
			{
				"x": 2.6359287699,
				"y": -1.0263634452,
				"z": 2.3639482422,
				"element": "O" 
			},
			{
				"x": 2.3290181844,
				"y": 1.3312334727,
				"z": 1.877489175,
				"element": "C" 
			},
			{
				"x": 1.3573423766,
				"y": 1.3414556207,
				"z": 0.7077471499,
				"element": "C" 
			},
			{
				"x": 0.3115586789,
				"y": 0.4100585255,
				"z": 0.6380516988,
				"element": "C" 
			},
			{
				"x": -0.5967088881,
				"y": 0.4273986785,
				"z": -0.4160305714,
				"element": "C" 
			},
			{
				"x": -0.4589412675,
				"y": 1.3663670697,
				"z": -1.4496447854,
				"element": "C" 
			},
			{
				"x": -1.3736234209,
				"y": 1.4423343756,
				"z": -2.5301856771,
				"element": "N" 
			},
			{
				"x": -2.0961597014,
				"y": 0.4503748002,
				"z": -3.1728161112,
				"element": "C" 
			},
			{
				"x": -3.0946859665,
				"y": 0.7262338055,
				"z": -3.818296413,
				"element": "O" 
			},
			{
				"x": -1.5524931915,
				"y": -0.9465745096,
				"z": -3.1427500669,
				"element": "C" 
			},
			{
				"x": -0.2318686312,
				"y": -1.2954579166,
				"z": -3.2655697038,
				"element": "C" 
			},
			{
				"x": -0.0762885817,
				"y": -3.0123001915,
				"z": -3.3624339873,
				"element": "S" 
			},
			{
				"x": -1.819461721,
				"y": -3.1311818341,
				"z": -3.2189668774,
				"element": "C" 
			},
			{
				"x": -2.4444900343,
				"y": -1.9993985117,
				"z": -3.1233852024,
				"element": "N" 
			},
			{
				"x": 0.58538632,
				"y": 2.2969960554,
				"z": -1.3879568589,
				"element": "C" 
			},
			{
				"x": 1.4769486805,
				"y": 2.2860964164,
				"z": -0.3158761947,
				"element": "C" 
			},
			{
				"x": 4.7484389021,
				"y": -0.7524223677,
				"z": 1.546987895,
				"element": "H" 
			},
			{
				"x": 1.7826251368,
				"y": 1.4325595866,
				"z": 2.821218547,
				"element": "H" 
			},
			{
				"x": 3.033287903,
				"y": 2.1612972955,
				"z": 1.7940720583,
				"element": "H" 
			},
			{
				"x": 0.2063943262,
				"y": -0.3308020935,
				"z": 1.4247311404,
				"element": "H" 
			},
			{
				"x": -1.4198613964,
				"y": -0.2782908085,
				"z": -0.4330412413,
				"element": "H" 
			},
			{
				"x": -1.7248602101,
				"y": 2.3638491603,
				"z": -2.7630138069,
				"element": "H" 
			},
			{
				"x": 0.6319093888,
				"y": -0.6484523325,
				"z": -3.3052021229,
				"element": "H" 
			},
			{
				"x": -2.3059274382,
				"y": -4.0993705677,
				"z": -3.2140197476,
				"element": "H" 
			},
			{
				"x": 0.6997863524,
				"y": 3.0253562511,
				"z": -2.1859853147,
				"element": "H" 
			},
			{
				"x": 2.2790810055,
				"y": 3.0185606,
				"z": -0.2834067912,
				"element": "H" 
			}
		],
		 "valence_orbital": [ 
			{
				"type": "occ",
				"energy": -0.28136,
				"method": "rhf"
			},
			{
				"type": "occ",
				"energy": -0.27044,
				"method": "rhf"
			},
			{
				"type": "occ",
				"energy": -0.26109,
				"method": "rhf"
			},
			{
				"type": "occ",
				"energy": -0.25216,
				"method": "rhf"
			},
			{
				"type": "occ",
				"energy": -0.2303,
				"method": "rhf"
			},
			{
				"type": "unocc",
				"energy": -0.04538,
				"method": "rhf"
			},
			{
				"type": "unocc",
				"energy": -0.0269,
				"method": "rhf"
			},
			{
				"type": "unocc",
				"energy": -0.01631,
				"method": "rhf"
			},
			{
				"type": "unocc",
				"energy": -0.00272,
				"method": "rhf"
			},
			{
				"type": "unocc",
				"energy": 0.00832,
				"method": "rhf"
			}
		],
		"cosmo_sigma_profile": { 
			"-0.025": 0.0,
			"-0.024": 0.0,
			"-0.023": 0.0,
			"-0.022": 0.0,
			"-0.021": 0.0,
			"-0.02": 0.0,
			"-0.019": 0.0268038632544,
			"-0.018": 0.732285741283,
			"-0.017": 1.05878495643,
			"-0.016": 0.960672666839,
			"-0.015": 0.922012570058,
			"-0.014": 1.51037540325,
			"-0.013": 1.40815996648,
			"-0.012": 2.07983931605,
			"-0.011": 1.91744285097,
			"-0.01": 5.35533185196,
			"-0.009": 5.73570896148,
			"-0.008": 4.42261121312,
			"-0.007": 9.12408014637,
			"-0.006": 16.2679719017,
			"-0.005": 18.23863463,
			"-0.004": 16.8795236538,
			"-0.003": 18.1323282949,
			"-0.002": 15.9537457814,
			"-0.001": 18.486112021,
			"0.0": 24.04640976,
			"0.001": 22.9765973498,
			"0.002": 17.5209206109,
			"0.003": 13.8688997323,
			"0.004": 13.9627935807,
			"0.005": 6.9466282471,
			"0.006": 4.29565918118,
			"0.007": 5.15317953734,
			"0.008": 3.97584467664,
			"0.009": 4.81359745268,
			"0.01": 5.21628269248,
			"0.011": 6.6923622134,
			"0.012": 8.27780202217,
			"0.013": 6.07906283522,
			"0.014": 3.61148245805,
			"0.015": 1.75528188962,
			"0.016": 0.0,
			"0.017": 0.0,
			"0.018": 0.0,
			"0.019": 0.0,
			"0.02": 0.0,
			"0.021": 0.0,
			"0.022": 0.0,
			"0.023": 0.0,
			"0.024": 0.0,
			"0.025": 0.0
		}
	}
}
