{
	 "smiles": "BrC1=CC=C(OCCN2CCNC(=O)C2)C=C1", 
	 "Tm": 385.15, 
	 "num_atms": 32, 
	 "gaussian": { 
		 "optdone": 1, 
		 "sigma_profile": "yes", 
		 "theory": "DFT", 
		 "functional": "B3LYP", 
		 "basiset": "6-31G**", 
		 "properties": { 
			 "R2extent": 8221.6346, 
			 "electric_dipole_moment_norm": 5.4704686472, 
			 "electric_quadrupole_moment_norm": 9.00739324111, 
			 "total_energy": -3297.6611706, 
			 "HOMO_LUMO_gap": 0.19504, 
			 "cosmo_polarized_energy": -16.08, 
			 "cosmo_cavitation_energy": 35.81, 
			 "cosmo_dispersion_energy": -25.96, 
			 "cosmo_repulsion_energy": 2.0, 
			 "cosmo_total_nonelectrostatic_energy": 11.85, 
			 "SMD_solvation_energy": 2.34 
		},
		"coords": [
			{
				"x": 3.1102540298,
				"y": -2.7453681201,
				"z": 4.1976192201,
				"element": "Br" 
			},
			{
				"x": 1.8707033082,
				"y": -1.9265307133,
				"z": 2.9909179961,
				"element": "C" 
			},
			{
				"x": 1.4826862557,
				"y": -2.6027339879,
				"z": 1.8401225539,
				"element": "C" 
			},
			{
				"x": 0.5779191661,
				"y": -2.0066343308,
				"z": 0.9557218746,
				"element": "C" 
			},
			{
				"x": 0.0692725657,
				"y": -0.7343866947,
				"z": 1.237186755,
				"element": "C" 
			},
			{
				"x": -0.8264658196,
				"y": -0.069729191,
				"z": 0.4457568674,
				"element": "O" 
			},
			{
				"x": -1.1290302561,
				"y": -0.5751074619,
				"z": -0.8477581123,
				"element": "C" 
			},
			{
				"x": -2.0648167657,
				"y": 0.4300392357,
				"z": -1.5365719883,
				"element": "C" 
			},
			{
				"x": -1.6464068265,
				"y": 1.8161263324,
				"z": -1.6646965147,
				"element": "N" 
			},
			{
				"x": -0.5106926691,
				"y": 2.1331741839,
				"z": -2.5137227032,
				"element": "C" 
			},
			{
				"x": 0.8492642856,
				"y": 2.0305646523,
				"z": -1.8022452487,
				"element": "C" 
			},
			{
				"x": 0.7844345246,
				"y": 2.693609483,
				"z": -0.5032153604,
				"element": "N" 
			},
			{
				"x": -0.3431536363,
				"y": 2.8544221959,
				"z": 0.2557918301,
				"element": "C" 
			},
			{
				"x": -0.294284311,
				"y": 3.2282135692,
				"z": 1.4226330702,
				"element": "O" 
			},
			{
				"x": -1.6760616763,
				"y": 2.6517441935,
				"z": -0.4681813314,
				"element": "C" 
			},
			{
				"x": 0.4712780588,
				"y": -0.0565206283,
				"z": 2.3982764324,
				"element": "C" 
			},
			{
				"x": 1.3694878692,
				"y": -0.6535815656,
				"z": 3.2750184381,
				"element": "C" 
			},
			{
				"x": 1.8775705094,
				"y": -3.5898044333,
				"z": 1.6275239532,
				"element": "H" 
			},
			{
				"x": 0.2783021301,
				"y": -2.5463149031,
				"z": 0.0649929308,
				"element": "H" 
			},
			{
				"x": -0.2038925258,
				"y": -0.7248579486,
				"z": -1.4216818063,
				"element": "H" 
			},
			{
				"x": -1.6395892307,
				"y": -1.5478648229,
				"z": -0.779233438,
				"element": "H" 
			},
			{
				"x": -2.273933138,
				"y": 0.037657656,
				"z": -2.5413317303,
				"element": "H" 
			},
			{
				"x": -3.0176566237,
				"y": 0.4270456652,
				"z": -0.9949617976,
				"element": "H" 
			},
			{
				"x": -0.5141068375,
				"y": 1.4806881617,
				"z": -3.3933717113,
				"element": "H" 
			},
			{
				"x": -0.6341128672,
				"y": 3.1648195051,
				"z": -2.8734328939,
				"element": "H" 
			},
			{
				"x": 1.6199151536,
				"y": 2.5153277356,
				"z": -2.4146712687,
				"element": "H" 
			},
			{
				"x": 1.1469458196,
				"y": 0.9795250857,
				"z": -1.6823275846,
				"element": "H" 
			},
			{
				"x": 1.6421586308,
				"y": 2.7940320011,
				"z": 0.025755141,
				"element": "H" 
			},
			{
				"x": -2.0324058299,
				"y": 3.6596979401,
				"z": -0.7362533668,
				"element": "H" 
			},
			{
				"x": -2.3767337514,
				"y": 2.2478042181,
				"z": 0.262879612,
				"element": "H" 
			},
			{
				"x": 0.082034485,
				"y": 0.9401185653,
				"z": 2.5818591223,
				"element": "H" 
			},
			{
				"x": 1.6836159723,
				"y": -0.1314755783,
				"z": 4.1717010593,
				"element": "H" 
			}
		],
		 "valence_orbital": [ 
			{
				"type": "occ",
				"energy": -0.26225,
				"method": "rhf"
			},
			{
				"type": "occ",
				"energy": -0.26033,
				"method": "rhf"
			},
			{
				"type": "occ",
				"energy": -0.24742,
				"method": "rhf"
			},
			{
				"type": "occ",
				"energy": -0.21942,
				"method": "rhf"
			},
			{
				"type": "occ",
				"energy": -0.20654,
				"method": "rhf"
			},
			{
				"type": "unocc",
				"energy": -0.0115,
				"method": "rhf"
			},
			{
				"type": "unocc",
				"energy": 0.00118,
				"method": "rhf"
			},
			{
				"type": "unocc",
				"energy": 0.01319,
				"method": "rhf"
			},
			{
				"type": "unocc",
				"energy": 0.02928,
				"method": "rhf"
			},
			{
				"type": "unocc",
				"energy": 0.06357,
				"method": "rhf"
			}
		],
		"cosmo_sigma_profile": { 
			"-0.025": 0.0,
			"-0.024": 0.0,
			"-0.023": 0.0,
			"-0.022": 0.0,
			"-0.021": 0.0,
			"-0.02": 0.0,
			"-0.019": 0.0,
			"-0.018": 0.0,
			"-0.017": 0.0,
			"-0.016": 0.0,
			"-0.015": 0.0,
			"-0.014": 0.0973530010421,
			"-0.013": 0.789107057478,
			"-0.012": 1.05020697296,
			"-0.011": 1.191330507,
			"-0.01": 0.851057928039,
			"-0.009": 0.761047968669,
			"-0.008": 1.0194560645,
			"-0.007": 5.66284670708,
			"-0.006": 12.2115851918,
			"-0.005": 32.3225156912,
			"-0.004": 32.3558918652,
			"-0.003": 24.2715832915,
			"-0.002": 19.8482602174,
			"-0.001": 15.2944032021,
			"0.0": 12.1457131223,
			"0.001": 13.7080702715,
			"0.002": 19.0345120217,
			"0.003": 24.9335966737,
			"0.004": 24.015382267,
			"0.005": 15.9559147066,
			"0.006": 5.69692266716,
			"0.007": 2.91507744577,
			"0.008": 2.41638506054,
			"0.009": 2.23242655516,
			"0.01": 1.26041832254,
			"0.011": 1.75470946773,
			"0.012": 2.57922021031,
			"0.013": 1.80570887986,
			"0.014": 4.34428486393,
			"0.015": 2.73412512345,
			"0.016": 0.313750475678,
			"0.017": 0.0,
			"0.018": 0.0,
			"0.019": 0.0,
			"0.02": 0.0,
			"0.021": 0.0,
			"0.022": 0.0,
			"0.023": 0.0,
			"0.024": 0.0,
			"0.025": 0.0
		}
	}
}
