{
	 "smiles": "CC12C(CCC1(O)C1CCC3CC(O)CCC3(C)C1CC2O)C1=CC(=O)OC1", 
	 "Tm": 495.15, 
	 "num_atms": 62, 
	 "gaussian": { 
		 "optdone": 1, 
		 "sigma_profile": "yes", 
		 "theory": "DFT", 
		 "functional": "B3LYP", 
		 "basiset": "6-31G**", 
		 "properties": { 
			 "R2extent": 11860.8994, 
			 "electric_dipole_moment_norm": 5.18499783896, 
			 "electric_quadrupole_moment_norm": 29.1315490319, 
			 "total_energy": -1273.03726589, 
			 "HOMO_LUMO_gap": 0.22282, 
			 "cosmo_polarized_energy": -25.4, 
			 "cosmo_cavitation_energy": 52.84, 
			 "cosmo_dispersion_energy": -36.01, 
			 "cosmo_repulsion_energy": 2.63, 
			 "cosmo_total_nonelectrostatic_energy": 19.46, 
			 "SMD_solvation_energy": 8.45 
		},
		"coords": [
			{
				"x": 2.251531595,
				"y": 1.8251357239,
				"z": -1.1768993862,
				"element": "C" 
			},
			{
				"x": 1.7629421174,
				"y": 0.4529868878,
				"z": -0.6750224978,
				"element": "C" 
			},
			{
				"x": 2.774073664,
				"y": -0.668312256,
				"z": -1.2006444377,
				"element": "C" 
			},
			{
				"x": 3.1442736428,
				"y": -1.5051382986,
				"z": 0.0386423797,
				"element": "C" 
			},
			{
				"x": 3.1436712509,
				"y": -0.4754425344,
				"z": 1.1642954715,
				"element": "C" 
			},
			{
				"x": 1.8737255538,
				"y": 0.3623810526,
				"z": 0.9263154223,
				"element": "C" 
			},
			{
				"x": 2.11387852,
				"y": 1.6343516252,
				"z": 1.5312064089,
				"element": "O" 
			},
			{
				"x": 0.6168456311,
				"y": -0.2993944391,
				"z": 1.5658021092,
				"element": "C" 
			},
			{
				"x": 0.7549203585,
				"y": -0.4443068431,
				"z": 3.1062618258,
				"element": "C" 
			},
			{
				"x": -0.6113767792,
				"y": -0.5664481575,
				"z": 3.8240511892,
				"element": "C" 
			},
			{
				"x": -1.6268326016,
				"y": -1.2280386321,
				"z": 2.8899102771,
				"element": "C" 
			},
			{
				"x": -2.8917814143,
				"y": -1.782433532,
				"z": 3.5672148955,
				"element": "C" 
			},
			{
				"x": -3.9432410336,
				"y": -2.2821353793,
				"z": 2.5373007484,
				"element": "C" 
			},
			{
				"x": -4.6220864025,
				"y": -3.4540500585,
				"z": 2.981963896,
				"element": "O" 
			},
			{
				"x": -3.3039283705,
				"y": -2.4915737445,
				"z": 1.1560408921,
				"element": "C" 
			},
			{
				"x": -2.5907560347,
				"y": -1.2341444851,
				"z": 0.58764619,
				"element": "C" 
			},
			{
				"x": -1.9794767449,
				"y": -0.3051793447,
				"z": 1.684970127,
				"element": "C" 
			},
			{
				"x": -3.0152927849,
				"y": 0.7789564861,
				"z": 2.0670761179,
				"element": "C" 
			},
			{
				"x": -0.6840002132,
				"y": 0.4712927357,
				"z": 1.2282747222,
				"element": "C" 
			},
			{
				"x": -0.7038373226,
				"y": 0.9503771582,
				"z": -0.2487179216,
				"element": "C" 
			},
			{
				"x": 0.3057890765,
				"y": 0.2039056973,
				"z": -1.1285504675,
				"element": "C" 
			},
			{
				"x": 0.1899899443,
				"y": 0.6190038587,
				"z": -2.4920371902,
				"element": "O" 
			},
			{
				"x": 2.3477183607,
				"y": -1.4709665832,
				"z": -2.394750694,
				"element": "C" 
			},
			{
				"x": 1.7863025469,
				"y": -2.6883838151,
				"z": -2.4637155496,
				"element": "C" 
			},
			{
				"x": 1.569157752,
				"y": -3.0556819799,
				"z": -3.8794201371,
				"element": "C" 
			},
			{
				"x": 1.0777178328,
				"y": -4.0494507721,
				"z": -4.3558729191,
				"element": "O" 
			},
			{
				"x": 2.0401817447,
				"y": -2.0181481054,
				"z": -4.6557107343,
				"element": "O" 
			},
			{
				"x": 2.5506470309,
				"y": -0.9852989027,
				"z": -3.8093395645,
				"element": "C" 
			},
			{
				"x": 1.5808159719,
				"y": 2.6401600594,
				"z": -0.8910237469,
				"element": "H" 
			},
			{
				"x": 2.3134176387,
				"y": 1.8289254747,
				"z": -2.26700029,
				"element": "H" 
			},
			{
				"x": 3.2355708406,
				"y": 2.0540901147,
				"z": -0.7619658234,
				"element": "H" 
			},
			{
				"x": 3.6806929249,
				"y": -0.124105094,
				"z": -1.497740117,
				"element": "H" 
			},
			{
				"x": 2.3921012568,
				"y": -2.2801901192,
				"z": 0.2262219456,
				"element": "H" 
			},
			{
				"x": 4.1040519628,
				"y": -2.0158080714,
				"z": -0.0842725558,
				"element": "H" 
			},
			{
				"x": 4.0063032446,
				"y": 0.1939389579,
				"z": 1.0676096857,
				"element": "H" 
			},
			{
				"x": 3.1848439573,
				"y": -0.9117643346,
				"z": 2.1643332131,
				"element": "H" 
			},
			{
				"x": 1.3189596605,
				"y": 2.1768124399,
				"z": 1.4462292559,
				"element": "H" 
			},
			{
				"x": 0.5351470641,
				"y": -1.3031609015,
				"z": 1.129611001,
				"element": "H" 
			},
			{
				"x": 1.3518009999,
				"y": -1.3350807547,
				"z": 3.3309071686,
				"element": "H" 
			},
			{
				"x": 1.312616782,
				"y": 0.4145523381,
				"z": 3.4917698431,
				"element": "H" 
			},
			{
				"x": -0.9768945375,
				"y": 0.4188426052,
				"z": 4.1400167835,
				"element": "H" 
			},
			{
				"x": -0.496719078,
				"y": -1.1515846928,
				"z": 4.7440398763,
				"element": "H" 
			},
			{
				"x": -1.1084852848,
				"y": -2.0991584537,
				"z": 2.4635991186,
				"element": "H" 
			},
			{
				"x": -3.3414358634,
				"y": -1.0392226887,
				"z": 4.2358832936,
				"element": "H" 
			},
			{
				"x": -2.6090922237,
				"y": -2.6290653138,
				"z": 4.2065167034,
				"element": "H" 
			},
			{
				"x": -4.7466035138,
				"y": -1.5441733101,
				"z": 2.4438274464,
				"element": "H" 
			},
			{
				"x": -3.9679577255,
				"y": -4.1637991351,
				"z": 3.0441996169,
				"element": "H" 
			},
			{
				"x": -4.0723736446,
				"y": -2.838493082,
				"z": 0.4582650687,
				"element": "H" 
			},
			{
				"x": -2.5810433313,
				"y": -3.315392409,
				"z": 1.2437753099,
				"element": "H" 
			},
			{
				"x": -1.8082589906,
				"y": -1.5782214278,
				"z": -0.0984165268,
				"element": "H" 
			},
			{
				"x": -3.3005550462,
				"y": -0.6624328617,
				"z": -0.0213318197,
				"element": "H" 
			},
			{
				"x": -2.6968043581,
				"y": 1.3512769766,
				"z": 2.9451108086,
				"element": "H" 
			},
			{
				"x": -4.0057172463,
				"y": 0.3707337038,
				"z": 2.278611812,
				"element": "H" 
			},
			{
				"x": -3.1336104235,
				"y": 1.4885365932,
				"z": 1.2400248748,
				"element": "H" 
			},
			{
				"x": -0.6655982493,
				"y": 1.3720169934,
				"z": 1.8576031113,
				"element": "H" 
			},
			{
				"x": -1.7014906741,
				"y": 0.8320463041,
				"z": -0.6852298295,
				"element": "H" 
			},
			{
				"x": -0.4849532055,
				"y": 2.0221681801,
				"z": -0.3159003342,
				"element": "H" 
			},
			{
				"x": 0.100076486,
				"y": -0.8743013488,
				"z": -1.0673646378,
				"element": "H" 
			},
			{
				"x": -0.6731012207,
				"y": 0.3327388297,
				"z": -2.8178014105,
				"element": "H" 
			},
			{
				"x": 1.5140715511,
				"y": -3.3569331413,
				"z": -1.6586280631,
				"element": "H" 
			},
			{
				"x": 2.0020431355,
				"y": -0.0581648015,
				"z": -4.0000519866,
				"element": "H" 
			},
			{
				"x": 3.6131242203,
				"y": -0.8270509913,
				"z": -4.0384199689,
				"element": "H" 
			}
		],
		 "valence_orbital": [ 
			{
				"type": "occ",
				"energy": -0.2781,
				"method": "rhf"
			},
			{
				"type": "occ",
				"energy": -0.27142,
				"method": "rhf"
			},
			{
				"type": "occ",
				"energy": -0.26288,
				"method": "rhf"
			},
			{
				"type": "occ",
				"energy": -0.2606,
				"method": "rhf"
			},
			{
				"type": "occ",
				"energy": -0.25828,
				"method": "rhf"
			},
			{
				"type": "unocc",
				"energy": -0.03546,
				"method": "rhf"
			},
			{
				"type": "unocc",
				"energy": 0.04325,
				"method": "rhf"
			},
			{
				"type": "unocc",
				"energy": 0.04855,
				"method": "rhf"
			},
			{
				"type": "unocc",
				"energy": 0.06144,
				"method": "rhf"
			},
			{
				"type": "unocc",
				"energy": 0.07337,
				"method": "rhf"
			}
		],
		"cosmo_sigma_profile": { 
			"-0.025": 0.0,
			"-0.024": 0.0,
			"-0.023": 0.0,
			"-0.022": 0.0,
			"-0.021": 0.0,
			"-0.02": 0.0,
			"-0.019": 0.0,
			"-0.018": 0.0,
			"-0.017": 0.0,
			"-0.016": 0.0538385685559,
			"-0.015": 0.902132418439,
			"-0.014": 1.80277596006,
			"-0.013": 2.33940178984,
			"-0.012": 2.15436539858,
			"-0.011": 3.61680194052,
			"-0.01": 3.24584988531,
			"-0.009": 3.21532666052,
			"-0.008": 2.65911674083,
			"-0.007": 7.93109508158,
			"-0.006": 11.0577879817,
			"-0.005": 15.4853301924,
			"-0.004": 23.631141375,
			"-0.003": 41.0001333407,
			"-0.002": 51.1519763003,
			"-0.001": 49.4739648459,
			"0.0": 47.7928439641,
			"0.001": 36.2331815869,
			"0.002": 20.5752917238,
			"0.003": 6.90646489596,
			"0.004": 6.64198005504,
			"0.005": 6.00187518358,
			"0.006": 5.79829265515,
			"0.007": 6.25742634223,
			"0.008": 6.31710318223,
			"0.009": 6.31410090666,
			"0.01": 6.39780423123,
			"0.011": 7.35904686408,
			"0.012": 8.88712509037,
			"0.013": 8.51620798664,
			"0.014": 3.87029777646,
			"0.015": 2.20047191365,
			"0.016": 0.0142811415688,
			"0.017": 0.0,
			"0.018": 0.0,
			"0.019": 0.0,
			"0.02": 0.0,
			"0.021": 0.0,
			"0.022": 0.0,
			"0.023": 0.0,
			"0.024": 0.0,
			"0.025": 0.0
		}
	}
}
