{
	 "smiles": "NC1=C(C=C(C(Cl)=C1)C(F)(F)F)[N+]([O-])=O", 
	 "Tm": 387.15, 
	 "num_atms": 19, 
	 "gaussian": { 
		 "optdone": 1, 
		 "sigma_profile": "yes", 
		 "theory": "DFT", 
		 "functional": "B3LYP", 
		 "basiset": "6-31G**", 
		 "properties": { 
			 "R2extent": 4037.8946, 
			 "electric_dipole_moment_norm": 4.62812102154, 
			 "electric_quadrupole_moment_norm": 18.5468968294, 
			 "total_energy": -1288.73021502, 
			 "HOMO_LUMO_gap": 0.14984, 
			 "cosmo_polarized_energy": -11.88, 
			 "cosmo_cavitation_energy": 27.08, 
			 "cosmo_dispersion_energy": -19.89, 
			 "cosmo_repulsion_energy": 1.49, 
			 "cosmo_total_nonelectrostatic_energy": 8.68, 
			 "SMD_solvation_energy": 7.5 
		},
		"coords": [
			{
				"x": -0.5117355458,
				"y": 3.6163551668,
				"z": -1.7070574539,
				"element": "N" 
			},
			{
				"x": -0.4402282392,
				"y": 2.2974476276,
				"z": -1.426217047,
				"element": "C" 
			},
			{
				"x": 0.4243052967,
				"y": 1.7360450818,
				"z": -0.4436576443,
				"element": "C" 
			},
			{
				"x": 0.4452397095,
				"y": 0.358460772,
				"z": -0.2055270322,
				"element": "C" 
			},
			{
				"x": -0.364104009,
				"y": -0.5194861655,
				"z": -0.9045483251,
				"element": "C" 
			},
			{
				"x": -1.2268233999,
				"y": 0.0279514277,
				"z": -1.8840550422,
				"element": "C" 
			},
			{
				"x": -2.2882247388,
				"y": -0.9935066084,
				"z": -2.8225817073,
				"element": "Cl" 
			},
			{
				"x": -1.2623674032,
				"y": 1.3842595327,
				"z": -2.1341870259,
				"element": "C" 
			},
			{
				"x": -0.2993685908,
				"y": -1.9958144551,
				"z": -0.6053833619,
				"element": "C" 
			},
			{
				"x": -1.488805042,
				"y": -2.4783836931,
				"z": -0.1883207191,
				"element": "F" 
			},
			{
				"x": 0.0657223145,
				"y": -2.7141330279,
				"z": -1.6881261979,
				"element": "F" 
			},
			{
				"x": 0.599983951,
				"y": -2.2558153423,
				"z": 0.3677548363,
				"element": "F" 
			},
			{
				"x": 1.3190794385,
				"y": 2.5538520609,
				"z": 0.3525655,
				"element": "N" 
			},
			{
				"x": 1.324477043,
				"y": 3.7849757228,
				"z": 0.1666443976,
				"element": "O" 
			},
			{
				"x": 2.0386118303,
				"y": 2.0001283672,
				"z": 1.1816199523,
				"element": "O" 
			},
			{
				"x": 0.0823557633,
				"y": 4.2492636623,
				"z": -1.1897556561,
				"element": "H" 
			},
			{
				"x": -1.1462357456,
				"y": 3.9481263273,
				"z": -2.4141182863,
				"element": "H" 
			},
			{
				"x": 1.1220055982,
				"y": -0.011213953,
				"z": 0.5524272767,
				"element": "H" 
			},
			{
				"x": -1.9363882304,
				"y": 1.7670874959,
				"z": -2.8925764637,
				"element": "H" 
			}
		],
		 "valence_orbital": [ 
			{
				"type": "occ",
				"energy": -0.31965,
				"method": "rhf"
			},
			{
				"type": "occ",
				"energy": -0.31811,
				"method": "rhf"
			},
			{
				"type": "occ",
				"energy": -0.30174,
				"method": "rhf"
			},
			{
				"type": "occ",
				"energy": -0.2839,
				"method": "rhf"
			},
			{
				"type": "occ",
				"energy": -0.24931,
				"method": "rhf"
			},
			{
				"type": "unocc",
				"energy": -0.09947,
				"method": "rhf"
			},
			{
				"type": "unocc",
				"energy": -0.03621,
				"method": "rhf"
			},
			{
				"type": "unocc",
				"energy": -0.01997,
				"method": "rhf"
			},
			{
				"type": "unocc",
				"energy": 0.00751,
				"method": "rhf"
			},
			{
				"type": "unocc",
				"energy": 0.06199,
				"method": "rhf"
			}
		],
		"cosmo_sigma_profile": { 
			"-0.025": 0.0,
			"-0.024": 0.0,
			"-0.023": 0.0,
			"-0.022": 0.0,
			"-0.021": 0.0,
			"-0.02": 0.0,
			"-0.019": 0.0,
			"-0.018": 0.0,
			"-0.017": 0.0,
			"-0.016": 0.47227328947,
			"-0.015": 1.80556351621,
			"-0.014": 1.97947227011,
			"-0.013": 1.37010990945,
			"-0.012": 1.44696265112,
			"-0.011": 3.01189046604,
			"-0.01": 2.54485155622,
			"-0.009": 2.62021705203,
			"-0.008": 2.65618306147,
			"-0.007": 1.81565076675,
			"-0.006": 4.00238774328,
			"-0.005": 6.34168988155,
			"-0.004": 9.41197927725,
			"-0.003": 11.121005104,
			"-0.002": 16.3905052884,
			"-0.001": 24.5945640749,
			"0.0": 20.333426873,
			"0.001": 14.8629881808,
			"0.002": 28.4233160629,
			"0.003": 31.1757931886,
			"0.004": 8.61718818655,
			"0.005": 2.32389443685,
			"0.006": 3.88193630977,
			"0.007": 4.90598088356,
			"0.008": 5.37061001295,
			"0.009": 4.63180793079,
			"0.01": 3.30584808992,
			"0.011": 0.701411339084,
			"0.012": 0.0,
			"0.013": 0.0,
			"0.014": 0.0,
			"0.015": 0.0,
			"0.016": 0.0,
			"0.017": 0.0,
			"0.018": 0.0,
			"0.019": 0.0,
			"0.02": 0.0,
			"0.021": 0.0,
			"0.022": 0.0,
			"0.023": 0.0,
			"0.024": 0.0,
			"0.025": 0.0
		}
	}
}
