{
	 "smiles": "NC1=NNC2=C1C=C1C=CC=CC1=N2", 
	 "Tm": 588.15, 
	 "num_atms": 22, 
	 "gaussian": { 
		 "optdone": 1, 
		 "sigma_profile": "yes", 
		 "theory": "DFT", 
		 "functional": "B3LYP", 
		 "basiset": "6-31G**", 
		 "properties": { 
			 "R2extent": 3606.8313, 
			 "electric_dipole_moment_norm": 2.31936043986, 
			 "electric_quadrupole_moment_norm": 12.0189181693, 
			 "total_energy": -604.88709463, 
			 "HOMO_LUMO_gap": 0.13482, 
			 "cosmo_polarized_energy": -14.43, 
			 "cosmo_cavitation_energy": 26.34, 
			 "cosmo_dispersion_energy": -20.09, 
			 "cosmo_repulsion_energy": 1.56, 
			 "cosmo_total_nonelectrostatic_energy": 7.81, 
			 "SMD_solvation_energy": 1.35 
		},
		"coords": [
			{
				"x": -2.6842676716,
				"y": -1.3180944727,
				"z": 2.0707754984,
				"element": "N" 
			},
			{
				"x": -1.4881674468,
				"y": -0.8527011848,
				"z": 1.5331597922,
				"element": "C" 
			},
			{
				"x": -0.6676713682,
				"y": -0.0821803483,
				"z": 2.2151631881,
				"element": "N" 
			},
			{
				"x": 0.4434699428,
				"y": 0.1035492688,
				"z": 1.4181356667,
				"element": "N" 
			},
			{
				"x": 0.3320688554,
				"y": -0.5227572592,
				"z": 0.21417852,
				"element": "C" 
			},
			{
				"x": -0.9401944235,
				"y": -1.1881757045,
				"z": 0.2407579878,
				"element": "C" 
			},
			{
				"x": -1.3030382492,
				"y": -1.9315698595,
				"z": -0.8632158605,
				"element": "C" 
			},
			{
				"x": -0.4044545447,
				"y": -1.9761544369,
				"z": -1.9539321159,
				"element": "C" 
			},
			{
				"x": -0.6875657393,
				"y": -2.712210969,
				"z": -3.1403067791,
				"element": "C" 
			},
			{
				"x": 0.2017185768,
				"y": -2.7371853661,
				"z": -4.1862455589,
				"element": "C" 
			},
			{
				"x": 1.4267766784,
				"y": -2.022801573,
				"z": -4.0950974431,
				"element": "C" 
			},
			{
				"x": 1.7392671464,
				"y": -1.3022712683,
				"z": -2.9678762673,
				"element": "C" 
			},
			{
				"x": 0.8447719139,
				"y": -1.250806095,
				"z": -1.8601319162,
				"element": "C" 
			},
			{
				"x": 1.2114850352,
				"y": -0.5261199166,
				"z": -0.7698665206,
				"element": "N" 
			},
			{
				"x": -3.4641550174,
				"y": -1.2774833118,
				"z": 1.4256406918,
				"element": "H" 
			},
			{
				"x": -2.9092826787,
				"y": -0.8521103034,
				"z": 2.9423675995,
				"element": "H" 
			},
			{
				"x": 1.2082582065,
				"y": 0.6669386716,
				"z": 1.7500536121,
				"element": "H" 
			},
			{
				"x": -2.2416127944,
				"y": -2.4786606192,
				"z": -0.9111088651,
				"element": "H" 
			},
			{
				"x": -1.6273408887,
				"y": -3.2559479204,
				"z": -3.2008066865,
				"element": "H" 
			},
			{
				"x": -0.0266008515,
				"y": -3.3016645584,
				"z": -5.0852570918,
				"element": "H" 
			},
			{
				"x": 2.1226768994,
				"y": -2.0499909614,
				"z": -4.9289114129,
				"element": "H" 
			},
			{
				"x": 2.6709584193,
				"y": -0.752701812,
				"z": -2.8816760387,
				"element": "H" 
			}
		],
		 "valence_orbital": [ 
			{
				"type": "occ",
				"energy": -0.2963,
				"method": "rhf"
			},
			{
				"type": "occ",
				"energy": -0.26158,
				"method": "rhf"
			},
			{
				"type": "occ",
				"energy": -0.24076,
				"method": "rhf"
			},
			{
				"type": "occ",
				"energy": -0.24009,
				"method": "rhf"
			},
			{
				"type": "occ",
				"energy": -0.19667,
				"method": "rhf"
			},
			{
				"type": "unocc",
				"energy": -0.06185,
				"method": "rhf"
			},
			{
				"type": "unocc",
				"energy": -0.00047,
				"method": "rhf"
			},
			{
				"type": "unocc",
				"energy": 0.01864,
				"method": "rhf"
			},
			{
				"type": "unocc",
				"energy": 0.0609,
				"method": "rhf"
			},
			{
				"type": "unocc",
				"energy": 0.07348,
				"method": "rhf"
			}
		],
		"cosmo_sigma_profile": { 
			"-0.025": 0.0,
			"-0.024": 0.0,
			"-0.023": 0.0,
			"-0.022": 0.0,
			"-0.021": 0.0,
			"-0.02": 0.0,
			"-0.019": 0.0,
			"-0.018": 0.0,
			"-0.017": 0.0,
			"-0.016": 0.706890975769,
			"-0.015": 1.50256256682,
			"-0.014": 0.818726684062,
			"-0.013": 1.97458362193,
			"-0.012": 3.33381828496,
			"-0.011": 3.46915240483,
			"-0.01": 4.39204275055,
			"-0.009": 3.31339235306,
			"-0.008": 5.19749904847,
			"-0.007": 5.85143880262,
			"-0.006": 9.60649852556,
			"-0.005": 11.7510640971,
			"-0.004": 11.1764258732,
			"-0.003": 9.11178087266,
			"-0.002": 9.85960618034,
			"-0.001": 7.39896043144,
			"0.0": 11.8335030219,
			"0.001": 17.7746193713,
			"0.002": 20.1227975486,
			"0.003": 16.2857793744,
			"0.004": 15.446865498,
			"0.005": 10.5860691345,
			"0.006": 4.82332347087,
			"0.007": 3.29654078228,
			"0.008": 3.56721472643,
			"0.009": 2.53659099641,
			"0.01": 3.4471828923,
			"0.011": 2.77662115603,
			"0.012": 2.20040751081,
			"0.013": 2.51744708759,
			"0.014": 2.41484917906,
			"0.015": 1.87663874628,
			"0.016": 0.383210427963,
			"0.017": 0.0,
			"0.018": 0.0,
			"0.019": 0.0,
			"0.02": 0.0,
			"0.021": 0.0,
			"0.022": 0.0,
			"0.023": 0.0,
			"0.024": 0.0,
			"0.025": 0.0
		}
	}
}
