{
	 "smiles": "COC1=CC(N)=CC=C1C", 
	 "Tm": 330.35, 
	 "num_atms": 21, 
	 "gaussian": { 
		 "optdone": 1, 
		 "sigma_profile": "yes", 
		 "theory": "DFT", 
		 "functional": "B3LYP", 
		 "basiset": "6-31G**", 
		 "properties": { 
			 "R2extent": 1891.0304, 
			 "electric_dipole_moment_norm": 2.33719513306, 
			 "electric_quadrupole_moment_norm": 9.19781690566, 
			 "total_energy": -441.453407469, 
			 "HOMO_LUMO_gap": 0.20597, 
			 "cosmo_polarized_energy": -9.64, 
			 "cosmo_cavitation_energy": 23.94, 
			 "cosmo_dispersion_energy": -17.76, 
			 "cosmo_repulsion_energy": 1.45, 
			 "cosmo_total_nonelectrostatic_energy": 7.64, 
			 "SMD_solvation_energy": 4.87 
		},
		"coords": [
			{
				"x": -2.2229041531,
				"y": -0.2919217032,
				"z": 2.244908115,
				"element": "C" 
			},
			{
				"x": -2.0863457364,
				"y": -0.4801908502,
				"z": 0.8480814137,
				"element": "O" 
			},
			{
				"x": -0.864251436,
				"y": -0.8502715394,
				"z": 0.3519190903,
				"element": "C" 
			},
			{
				"x": 0.2589714684,
				"y": -1.066310749,
				"z": 1.1514927695,
				"element": "C" 
			},
			{
				"x": 1.4814313315,
				"y": -1.4467633343,
				"z": 0.5680286578,
				"element": "C" 
			},
			{
				"x": 2.6198924494,
				"y": -1.603977759,
				"z": 1.3695456199,
				"element": "N" 
			},
			{
				"x": 1.5490857054,
				"y": -1.6045587774,
				"z": -0.8209181013,
				"element": "C" 
			},
			{
				"x": 0.4119803777,
				"y": -1.3817319811,
				"z": -1.5997083215,
				"element": "C" 
			},
			{
				"x": -0.8118736969,
				"y": -1.005106597,
				"z": -1.0494742063,
				"element": "C" 
			},
			{
				"x": -2.0400544797,
				"y": -0.7677626297,
				"z": -1.8905993448,
				"element": "C" 
			},
			{
				"x": -2.0170733453,
				"y": -1.2154442512,
				"z": 2.8023101367,
				"element": "H" 
			},
			{
				"x": -3.2610792412,
				"y": 0.0013432735,
				"z": 2.4110968837,
				"element": "H" 
			},
			{
				"x": -1.5610112561,
				"y": 0.5020585162,
				"z": 2.6151079267,
				"element": "H" 
			},
			{
				"x": 0.2090292189,
				"y": -0.9354862861,
				"z": 2.2268290311,
				"element": "H" 
			},
			{
				"x": 2.4288903967,
				"y": -1.8716704952,
				"z": 2.325856871,
				"element": "H" 
			},
			{
				"x": 3.3370142062,
				"y": -2.1895779043,
				"z": 0.9628690692,
				"element": "H" 
			},
			{
				"x": 2.4858099229,
				"y": -1.8944356294,
				"z": -1.2894685428,
				"element": "H" 
			},
			{
				"x": 0.4794859487,
				"y": -1.5096604243,
				"z": -2.6775840573,
				"element": "H" 
			},
			{
				"x": -2.4171688965,
				"y": 0.2549098139,
				"z": -1.774983892,
				"element": "H" 
			},
			{
				"x": -2.8613840336,
				"y": -1.4348701046,
				"z": -1.6043515582,
				"element": "H" 
			},
			{
				"x": -1.820544751,
				"y": -0.9322705883,
				"z": -2.9493575606,
				"element": "H" 
			}
		],
		 "valence_orbital": [ 
			{
				"type": "occ",
				"energy": -0.33025,
				"method": "rhf"
			},
			{
				"type": "occ",
				"energy": -0.3195,
				"method": "rhf"
			},
			{
				"type": "occ",
				"energy": -0.27685,
				"method": "rhf"
			},
			{
				"type": "occ",
				"energy": -0.21913,
				"method": "rhf"
			},
			{
				"type": "occ",
				"energy": -0.1856,
				"method": "rhf"
			},
			{
				"type": "unocc",
				"energy": 0.02037,
				"method": "rhf"
			},
			{
				"type": "unocc",
				"energy": 0.03043,
				"method": "rhf"
			},
			{
				"type": "unocc",
				"energy": 0.08473,
				"method": "rhf"
			},
			{
				"type": "unocc",
				"energy": 0.105,
				"method": "rhf"
			},
			{
				"type": "unocc",
				"energy": 0.11566,
				"method": "rhf"
			}
		],
		"cosmo_sigma_profile": { 
			"-0.025": 0.0,
			"-0.024": 0.0,
			"-0.023": 0.0,
			"-0.022": 0.0,
			"-0.021": 0.0,
			"-0.02": 0.0,
			"-0.019": 0.0,
			"-0.018": 0.0,
			"-0.017": 0.0,
			"-0.016": 0.0,
			"-0.015": 0.0,
			"-0.014": 0.0,
			"-0.013": 0.02047055437,
			"-0.012": 1.56597889364,
			"-0.011": 2.84012319554,
			"-0.01": 2.73149232751,
			"-0.009": 2.9678368087,
			"-0.008": 2.80463392153,
			"-0.007": 2.9725828944,
			"-0.006": 5.38785047332,
			"-0.005": 12.4018478151,
			"-0.004": 16.3085053134,
			"-0.003": 18.2104512023,
			"-0.002": 14.8171287557,
			"-0.001": 11.7360875481,
			"0.0": 11.2776693035,
			"0.001": 12.8305324042,
			"0.002": 8.77811576313,
			"0.003": 7.88462298253,
			"0.004": 10.0954342081,
			"0.005": 9.36450404407,
			"0.006": 9.30925497342,
			"0.007": 11.4093667017,
			"0.008": 4.70796264783,
			"0.009": 3.16221181598,
			"0.01": 1.34836017107,
			"0.011": 0.817593892904,
			"0.012": 0.527948543325,
			"0.013": 0.775604347892,
			"0.014": 0.654014942592,
			"0.015": 0.552443480839,
			"0.016": 0.102449566326,
			"0.017": 0.0,
			"0.018": 0.0,
			"0.019": 0.0,
			"0.02": 0.0,
			"0.021": 0.0,
			"0.022": 0.0,
			"0.023": 0.0,
			"0.024": 0.0,
			"0.025": 0.0
		}
	}
}
