{
	 "smiles": "[O-][N+](=O)C1=CC(=CC=C1NC1=CC=CC=C1)S(=O)(=O)NC1=CC=CC=C1", 
	 "Tm": 429.15, 
	 "num_atms": 41, 
	 "gaussian": { 
		 "optdone": 1, 
		 "sigma_profile": "yes", 
		 "theory": "DFT", 
		 "functional": "B3LYP", 
		 "basiset": "6-31G**", 
		 "properties": { 
			 "R2extent": 12774.1444, 
			 "electric_dipole_moment_norm": 7.13267843801, 
			 "electric_quadrupole_moment_norm": 27.0809542186, 
			 "total_energy": -1558.12998305, 
			 "HOMO_LUMO_gap": 0.12774, 
			 "cosmo_polarized_energy": -21.46, 
			 "cosmo_cavitation_energy": 47.56, 
			 "cosmo_dispersion_energy": -33.04, 
			 "cosmo_repulsion_energy": 2.46, 
			 "cosmo_total_nonelectrostatic_energy": 16.98, 
			 "SMD_solvation_energy": 8.87 
		},
		"coords": [
			{
				"x": -4.1074239779,
				"y": 0.9718849847,
				"z": 0.7269163433,
				"element": "O" 
			},
			{
				"x": -3.3648074378,
				"y": 0.0435991809,
				"z": 0.4184698423,
				"element": "N" 
			},
			{
				"x": -3.7298421725,
				"y": -0.8909570408,
				"z": -0.3233945238,
				"element": "O" 
			},
			{
				"x": -2.0044164736,
				"y": 0.0402722734,
				"z": 0.9315923942,
				"element": "C" 
			},
			{
				"x": -1.611944482,
				"y": 1.1839226425,
				"z": 1.635998879,
				"element": "C" 
			},
			{
				"x": -0.3298968703,
				"y": 1.2749458527,
				"z": 2.1474954878,
				"element": "C" 
			},
			{
				"x": 0.5792772958,
				"y": 0.2177491416,
				"z": 1.958786979,
				"element": "C" 
			},
			{
				"x": 0.1952859402,
				"y": -0.9173767136,
				"z": 1.2782085528,
				"element": "C" 
			},
			{
				"x": -1.1133042953,
				"y": -1.0642444724,
				"z": 0.7400995905,
				"element": "C" 
			},
			{
				"x": -1.4864864377,
				"y": -2.1846124054,
				"z": 0.0624882649,
				"element": "N" 
			},
			{
				"x": -0.7908739446,
				"y": -3.4127121932,
				"z": -0.0576829326,
				"element": "C" 
			},
			{
				"x": -0.1921608347,
				"y": -4.0452930146,
				"z": 1.0418262921,
				"element": "C" 
			},
			{
				"x": 0.4368354206,
				"y": -5.2788007432,
				"z": 0.8759894232,
				"element": "C" 
			},
			{
				"x": 0.455381647,
				"y": -5.9042219017,
				"z": -0.3721250065,
				"element": "C" 
			},
			{
				"x": -0.1630359128,
				"y": -5.2859029159,
				"z": -1.4606721825,
				"element": "C" 
			},
			{
				"x": -0.7782907892,
				"y": -4.0446191502,
				"z": -1.3091502768,
				"element": "C" 
			},
			{
				"x": 0.1894175742,
				"y": 2.7502153819,
				"z": 3.0131972799,
				"element": "S" 
			},
			{
				"x": -1.0070592547,
				"y": 3.3712189629,
				"z": 3.5768064752,
				"element": "O" 
			},
			{
				"x": 1.358444774,
				"y": 2.4003272734,
				"z": 3.8217436317,
				"element": "O" 
			},
			{
				"x": 0.8122603898,
				"y": 3.8175412173,
				"z": 1.8478960299,
				"element": "N" 
			},
			{
				"x": 0.0620674104,
				"y": 4.2833625094,
				"z": 0.7313582732,
				"element": "C" 
			},
			{
				"x": -1.1729423288,
				"y": 4.9221772093,
				"z": 0.9118922344,
				"element": "C" 
			},
			{
				"x": -1.8705883331,
				"y": 5.3936874616,
				"z": -0.199536034,
				"element": "C" 
			},
			{
				"x": -1.3399929926,
				"y": 5.2659003633,
				"z": -1.4850486938,
				"element": "C" 
			},
			{
				"x": -0.1007624005,
				"y": 4.6475808182,
				"z": -1.6580965719,
				"element": "C" 
			},
			{
				"x": 0.5927398207,
				"y": 4.1442870878,
				"z": -0.5582876225,
				"element": "C" 
			},
			{
				"x": -2.3334905303,
				"y": 1.9774072079,
				"z": 1.778742699,
				"element": "H" 
			},
			{
				"x": 1.5821497691,
				"y": 0.2964137081,
				"z": 2.3653371234,
				"element": "H" 
			},
			{
				"x": 0.9071841489,
				"y": -1.718979707,
				"z": 1.1301972969,
				"element": "H" 
			},
			{
				"x": -2.3922645092,
				"y": -2.0993425731,
				"z": -0.3927840042,
				"element": "H" 
			},
			{
				"x": -0.2412714041,
				"y": -3.5860260728,
				"z": 2.0233719932,
				"element": "H" 
			},
			{
				"x": 0.8977204625,
				"y": -5.7601730841,
				"z": 1.7334718222,
				"element": "H" 
			},
			{
				"x": 0.9405435785,
				"y": -6.8677143357,
				"z": -0.4933872689,
				"element": "H" 
			},
			{
				"x": -0.1607912374,
				"y": -5.7657998043,
				"z": -2.4348049271,
				"element": "H" 
			},
			{
				"x": -1.2463956398,
				"y": -3.5535609254,
				"z": -2.1574250303,
				"element": "H" 
			},
			{
				"x": 1.7743030725,
				"y": 3.5651906892,
				"z": 1.6451579015,
				"element": "H" 
			},
			{
				"x": -1.5678945844,
				"y": 5.0456375085,
				"z": 1.9130285328,
				"element": "H" 
			},
			{
				"x": -2.8301403633,
				"y": 5.8810486343,
				"z": -0.0541156035,
				"element": "H" 
			},
			{
				"x": -1.8849141454,
				"y": 5.6481601025,
				"z": -2.3426560434,
				"element": "H" 
			},
			{
				"x": 0.3250072724,
				"y": 4.5433115795,
				"z": -2.6518256464,
				"element": "H" 
			},
			{
				"x": 1.5491727754,
				"y": 3.6457952626,
				"z": -0.6968809741,
				"element": "H" 
			}
		],
		 "valence_orbital": [ 
			{
				"type": "occ",
				"energy": -0.27891,
				"method": "rhf"
			},
			{
				"type": "occ",
				"energy": -0.27195,
				"method": "rhf"
			},
			{
				"type": "occ",
				"energy": -0.25964,
				"method": "rhf"
			},
			{
				"type": "occ",
				"energy": -0.23755,
				"method": "rhf"
			},
			{
				"type": "occ",
				"energy": -0.22623,
				"method": "rhf"
			},
			{
				"type": "unocc",
				"energy": -0.09849,
				"method": "rhf"
			},
			{
				"type": "unocc",
				"energy": -0.04928,
				"method": "rhf"
			},
			{
				"type": "unocc",
				"energy": -0.02394,
				"method": "rhf"
			},
			{
				"type": "unocc",
				"energy": -0.01769,
				"method": "rhf"
			},
			{
				"type": "unocc",
				"energy": -0.01323,
				"method": "rhf"
			}
		],
		"cosmo_sigma_profile": { 
			"-0.025": 0.0,
			"-0.024": 0.0,
			"-0.023": 0.0,
			"-0.022": 0.0,
			"-0.021": 0.0,
			"-0.02": 0.0,
			"-0.019": 0.0,
			"-0.018": 0.0,
			"-0.017": 0.0,
			"-0.016": 0.317439789574,
			"-0.015": 1.13641136066,
			"-0.014": 1.00361432327,
			"-0.013": 1.31357771278,
			"-0.012": 1.21850897556,
			"-0.011": 1.73706909091,
			"-0.01": 2.11558156153,
			"-0.009": 2.61465543313,
			"-0.008": 4.12735475227,
			"-0.007": 10.0939234387,
			"-0.006": 23.3146498733,
			"-0.005": 28.8126341401,
			"-0.004": 29.2896081904,
			"-0.003": 25.7891775277,
			"-0.002": 26.719718392,
			"-0.001": 29.4637380564,
			"0.0": 27.0387470487,
			"0.001": 24.3418010495,
			"0.002": 20.9071120997,
			"0.003": 21.3808106111,
			"0.004": 24.8197748863,
			"0.005": 21.5048366041,
			"0.006": 8.06375965961,
			"0.007": 9.70046980065,
			"0.008": 9.1892288535,
			"0.009": 8.69068432169,
			"0.01": 10.4244610918,
			"0.011": 7.00088927046,
			"0.012": 0.475496338672,
			"0.013": 0.0,
			"0.014": 0.0,
			"0.015": 0.0,
			"0.016": 0.0,
			"0.017": 0.0,
			"0.018": 0.0,
			"0.019": 0.0,
			"0.02": 0.0,
			"0.021": 0.0,
			"0.022": 0.0,
			"0.023": 0.0,
			"0.024": 0.0,
			"0.025": 0.0
		}
	}
}
