{
	 "smiles": "FC1=C(C#N)C(=CC=C1)S(Cl)(=O)=O", 
	 "Tm": 337.15, 
	 "num_atms": 16, 
	 "gaussian": { 
		 "optdone": 1, 
		 "sigma_profile": "yes", 
		 "theory": "DFT", 
		 "functional": "B3LYP", 
		 "basiset": "6-31G**", 
		 "properties": { 
			 "R2extent": 3882.447, 
			 "electric_dipole_moment_norm": 7.05209474128, 
			 "electric_quadrupole_moment_norm": 18.0768774104, 
			 "total_energy": -1431.86127707, 
			 "HOMO_LUMO_gap": 0.18521, 
			 "cosmo_polarized_energy": -14.29, 
			 "cosmo_cavitation_energy": 25.86, 
			 "cosmo_dispersion_energy": -18.63, 
			 "cosmo_repulsion_energy": 1.4, 
			 "cosmo_total_nonelectrostatic_energy": 8.63, 
			 "SMD_solvation_energy": 4.8 
		},
		"coords": [
			{
				"x": -1.9505464065,
				"y": 0.9020617685,
				"z": 3.4253423056,
				"element": "F" 
			},
			{
				"x": -1.3012044172,
				"y": 0.4403100422,
				"z": 2.3535673623,
				"element": "C" 
			},
			{
				"x": -1.9450438968,
				"y": 0.4961196938,
				"z": 1.1081438335,
				"element": "C" 
			},
			{
				"x": -3.2577180481,
				"y": 1.0606420125,
				"z": 1.048793736,
				"element": "C" 
			},
			{
				"x": -4.3141797962,
				"y": 1.5440652153,
				"z": 1.0640938137,
				"element": "N" 
			},
			{
				"x": -1.2257008995,
				"y": 0.0012227398,
				"z": -0.0004069584,
				"element": "C" 
			},
			{
				"x": 0.0585621749,
				"y": -0.51624432,
				"z": 0.128540867,
				"element": "C" 
			},
			{
				"x": 0.6579056959,
				"y": -0.5540508987,
				"z": 1.3912614334,
				"element": "C" 
			},
			{
				"x": -0.0192169758,
				"y": -0.0757631215,
				"z": 2.5087324482,
				"element": "C" 
			},
			{
				"x": -1.9509174286,
				"y": -0.0369774469,
				"z": -1.6507007194,
				"element": "S" 
			},
			{
				"x": -1.8894400006,
				"y": 2.013464518,
				"z": -2.1654815545,
				"element": "Cl" 
			},
			{
				"x": -1.0154182502,
				"y": -0.7164103038,
				"z": -2.5369440338,
				"element": "O" 
			},
			{
				"x": -3.35069445,
				"y": -0.4188146022,
				"z": -1.5582456489,
				"element": "O" 
			},
			{
				"x": 0.5735906864,
				"y": -0.8867272733,
				"z": -0.7492268525,
				"element": "H" 
			},
			{
				"x": 1.6582242841,
				"y": -0.9598053381,
				"z": 1.4990353232,
				"element": "H" 
			},
			{
				"x": 0.4216977281,
				"y": -0.0916926855,
				"z": 3.4990946445,
				"element": "H" 
			}
		],
		 "valence_orbital": [ 
			{
				"type": "occ",
				"energy": -0.34923,
				"method": "rhf"
			},
			{
				"type": "occ",
				"energy": -0.34273,
				"method": "rhf"
			},
			{
				"type": "occ",
				"energy": -0.32664,
				"method": "rhf"
			},
			{
				"type": "occ",
				"energy": -0.31225,
				"method": "rhf"
			},
			{
				"type": "occ",
				"energy": -0.29618,
				"method": "rhf"
			},
			{
				"type": "unocc",
				"energy": -0.11097,
				"method": "rhf"
			},
			{
				"type": "unocc",
				"energy": -0.08232,
				"method": "rhf"
			},
			{
				"type": "unocc",
				"energy": -0.06044,
				"method": "rhf"
			},
			{
				"type": "unocc",
				"energy": 0.00597,
				"method": "rhf"
			},
			{
				"type": "unocc",
				"energy": 0.02889,
				"method": "rhf"
			}
		],
		"cosmo_sigma_profile": { 
			"-0.025": 0.0,
			"-0.024": 0.0,
			"-0.023": 0.0,
			"-0.022": 0.0,
			"-0.021": 0.0,
			"-0.02": 0.0,
			"-0.019": 0.0,
			"-0.018": 0.0,
			"-0.017": 0.0,
			"-0.016": 0.0,
			"-0.015": 0.0,
			"-0.014": 0.0,
			"-0.013": 0.0,
			"-0.012": 0.0,
			"-0.011": 0.0596874918667,
			"-0.01": 2.84059592422,
			"-0.009": 7.86862046423,
			"-0.008": 6.17113563916,
			"-0.007": 5.64210368852,
			"-0.006": 7.27286731945,
			"-0.005": 11.5143595768,
			"-0.004": 17.2914901509,
			"-0.003": 16.2401637138,
			"-0.002": 14.5014681913,
			"-0.001": 14.2662724878,
			"0.0": 9.833826361,
			"0.001": 13.4673023671,
			"0.002": 24.1134255517,
			"0.003": 11.6531193947,
			"0.004": 4.94059184921,
			"0.005": 5.46406664129,
			"0.006": 8.62841857537,
			"0.007": 12.9253073719,
			"0.008": 9.9321801177,
			"0.009": 2.89811971079,
			"0.01": 2.69378301801,
			"0.011": 2.1026653368,
			"0.012": 0.646485650496,
			"0.013": 0.0,
			"0.014": 0.0,
			"0.015": 0.0,
			"0.016": 0.0,
			"0.017": 0.0,
			"0.018": 0.0,
			"0.019": 0.0,
			"0.02": 0.0,
			"0.021": 0.0,
			"0.022": 0.0,
			"0.023": 0.0,
			"0.024": 0.0,
			"0.025": 0.0
		}
	}
}
