{
	 "smiles": "CC1CC(C)(C)C2=CC(C(C)=O)=C(C)C=C2C1(C)C", 
	 "Tm": 327.65, 
	 "num_atms": 45, 
	 "gaussian": { 
		 "optdone": 1, 
		 "sigma_profile": "yes", 
		 "theory": "DFT", 
		 "functional": "B3LYP", 
		 "basiset": "6-31G**", 
		 "properties": { 
			 "R2extent": 6073.5058, 
			 "electric_dipole_moment_norm": 3.42276321267, 
			 "electric_quadrupole_moment_norm": 15.6812696001, 
			 "total_energy": -776.849405474, 
			 "HOMO_LUMO_gap": 0.18687, 
			 "cosmo_polarized_energy": -7.78, 
			 "cosmo_cavitation_energy": 41.86, 
			 "cosmo_dispersion_energy": -28.56, 
			 "cosmo_repulsion_energy": 2.15, 
			 "cosmo_total_nonelectrostatic_energy": 15.46, 
			 "SMD_solvation_energy": 7.64 
		},
		"coords": [
			{
				"x": 2.5469516094,
				"y": -2.2357373732,
				"z": 0.8497099816,
				"element": "C" 
			},
			{
				"x": 1.2139224837,
				"y": -1.470780731,
				"z": 0.7943864939,
				"element": "C" 
			},
			{
				"x": 0.2766066478,
				"y": -2.1332774328,
				"z": -0.2192288227,
				"element": "C" 
			},
			{
				"x": -1.1730734225,
				"y": -1.6127541916,
				"z": -0.1675897251,
				"element": "C" 
			},
			{
				"x": -1.89788744,
				"y": -2.1247531404,
				"z": -1.4335898367,
				"element": "C" 
			},
			{
				"x": -1.9035576432,
				"y": -2.1765365396,
				"z": 1.0756558039,
				"element": "C" 
			},
			{
				"x": -1.169925566,
				"y": -0.0784729107,
				"z": -0.1098698935,
				"element": "C" 
			},
			{
				"x": -2.3635352321,
				"y": 0.6122015331,
				"z": -0.3530802777,
				"element": "C" 
			},
			{
				"x": -2.477633913,
				"y": 2.0082369348,
				"z": -0.3436668935,
				"element": "C" 
			},
			{
				"x": -3.8026294057,
				"y": 2.6456143415,
				"z": -0.6164994753,
				"element": "C" 
			},
			{
				"x": -5.0112047849,
				"y": 1.7559597942,
				"z": -0.8925665822,
				"element": "C" 
			},
			{
				"x": -3.9488651807,
				"y": 3.861403209,
				"z": -0.6244290979,
				"element": "O" 
			},
			{
				"x": -1.3143004433,
				"y": 2.7761619201,
				"z": -0.0785873675,
				"element": "C" 
			},
			{
				"x": -1.2832622243,
				"y": 4.2853339736,
				"z": -0.0574868385,
				"element": "C" 
			},
			{
				"x": -0.1348195022,
				"y": 2.0797334667,
				"z": 0.1812710952,
				"element": "C" 
			},
			{
				"x": -0.0203169634,
				"y": 0.6786652912,
				"z": 0.1948047861,
				"element": "C" 
			},
			{
				"x": 1.3565390791,
				"y": 0.0603912214,
				"z": 0.5195856799,
				"element": "C" 
			},
			{
				"x": 2.3107529622,
				"y": 0.3402184178,
				"z": -0.6687393379,
				"element": "C" 
			},
			{
				"x": 1.9389794118,
				"y": 0.7267744975,
				"z": 1.7907650267,
				"element": "C" 
			},
			{
				"x": 2.3727802045,
				"y": -3.2578864115,
				"z": 1.2022533309,
				"element": "H" 
			},
			{
				"x": 3.2715081078,
				"y": -1.7771460148,
				"z": 1.5287904457,
				"element": "H" 
			},
			{
				"x": 3.0132966773,
				"y": -2.3085096975,
				"z": -0.1384092552,
				"element": "H" 
			},
			{
				"x": 0.7521171696,
				"y": -1.5607757421,
				"z": 1.7876278672,
				"element": "H" 
			},
			{
				"x": 0.2669627374,
				"y": -3.2191123241,
				"z": -0.0588584931,
				"element": "H" 
			},
			{
				"x": 0.6770558253,
				"y": -1.9820333596,
				"z": -1.2309026826,
				"element": "H" 
			},
			{
				"x": -2.9695596734,
				"y": -1.9048965879,
				"z": -1.4219900416,
				"element": "H" 
			},
			{
				"x": -1.4717200973,
				"y": -1.6820187829,
				"z": -2.3395996266,
				"element": "H" 
			},
			{
				"x": -1.7928284757,
				"y": -3.2132135911,
				"z": -1.5064674128,
				"element": "H" 
			},
			{
				"x": -1.9291517971,
				"y": -3.2720675296,
				"z": 1.0423795663,
				"element": "H" 
			},
			{
				"x": -1.4165248256,
				"y": -1.8756737043,
				"z": 2.00779544,
				"element": "H" 
			},
			{
				"x": -2.9369747566,
				"y": -1.8176098156,
				"z": 1.1174847253,
				"element": "H" 
			},
			{
				"x": -3.250661198,
				"y": 0.0275588291,
				"z": -0.5641664267,
				"element": "H" 
			},
			{
				"x": -4.8534420521,
				"y": 1.1278434663,
				"z": -1.7758647462,
				"element": "H" 
			},
			{
				"x": -5.2206879004,
				"y": 1.0902396361,
				"z": -0.0484348852,
				"element": "H" 
			},
			{
				"x": -5.8721025286,
				"y": 2.4032863546,
				"z": -1.061600364,
				"element": "H" 
			},
			{
				"x": -1.6062968519,
				"y": 4.7090577206,
				"z": -1.0120782736,
				"element": "H" 
			},
			{
				"x": -1.9686023466,
				"y": 4.6925695819,
				"z": 0.6906320727,
				"element": "H" 
			},
			{
				"x": -0.2701866604,
				"y": 4.6362086164,
				"z": 0.1616848087,
				"element": "H" 
			},
			{
				"x": 0.7498836153,
				"y": 2.6742533276,
				"z": 0.3869705573,
				"element": "H" 
			},
			{
				"x": 2.3471331615,
				"y": 1.4114167994,
				"z": -0.8868356243,
				"element": "H" 
			},
			{
				"x": 1.9846225592,
				"y": -0.1665690698,
				"z": -1.5822401108,
				"element": "H" 
			},
			{
				"x": 3.3303315132,
				"y": 0.0136359825,
				"z": -0.4424961064,
				"element": "H" 
			},
			{
				"x": 2.8802770442,
				"y": 0.2498030461,
				"z": 2.0787497295,
				"element": "H" 
			},
			{
				"x": 1.2438532424,
				"y": 0.6413356735,
				"z": 2.6322692665,
				"element": "H" 
			},
			{
				"x": 2.1542768333,
				"y": 1.7877213148,
				"z": 1.6412615204,
				"element": "H" 
			}
		],
		 "valence_orbital": [ 
			{
				"type": "occ",
				"energy": -0.29882,
				"method": "rhf"
			},
			{
				"type": "occ",
				"energy": -0.29584,
				"method": "rhf"
			},
			{
				"type": "occ",
				"energy": -0.24427,
				"method": "rhf"
			},
			{
				"type": "occ",
				"energy": -0.23584,
				"method": "rhf"
			},
			{
				"type": "occ",
				"energy": -0.23341,
				"method": "rhf"
			},
			{
				"type": "unocc",
				"energy": -0.04654,
				"method": "rhf"
			},
			{
				"type": "unocc",
				"energy": 6e-05,
				"method": "rhf"
			},
			{
				"type": "unocc",
				"energy": 0.0441,
				"method": "rhf"
			},
			{
				"type": "unocc",
				"energy": 0.07172,
				"method": "rhf"
			},
			{
				"type": "unocc",
				"energy": 0.08583,
				"method": "rhf"
			}
		],
		"cosmo_sigma_profile": { 
			"-0.025": 0.0,
			"-0.024": 0.0,
			"-0.023": 0.0,
			"-0.022": 0.0,
			"-0.021": 0.0,
			"-0.02": 0.0,
			"-0.019": 0.0,
			"-0.018": 0.0,
			"-0.017": 0.0,
			"-0.016": 0.0,
			"-0.015": 0.0,
			"-0.014": 0.0,
			"-0.013": 0.0,
			"-0.012": 0.0,
			"-0.011": 0.0,
			"-0.01": 0.0,
			"-0.009": 0.0,
			"-0.008": 0.0,
			"-0.007": 0.0,
			"-0.006": 3.3088679148,
			"-0.005": 12.4463837141,
			"-0.004": 14.9182083823,
			"-0.003": 30.3060912279,
			"-0.002": 48.2263957731,
			"-0.001": 48.8488014357,
			"0.0": 46.2027002353,
			"0.001": 51.1481063622,
			"0.002": 24.9224136123,
			"0.003": 9.29736297813,
			"0.004": 8.50795447292,
			"0.005": 9.21212926684,
			"0.006": 2.92578440904,
			"0.007": 1.8936972226,
			"0.008": 1.30095366593,
			"0.009": 1.73559296836,
			"0.01": 1.72347222997,
			"0.011": 1.70011914891,
			"0.012": 2.77918861789,
			"0.013": 2.29543460293,
			"0.014": 0.888663160783,
			"0.015": 0.0,
			"0.016": 0.0,
			"0.017": 0.0,
			"0.018": 0.0,
			"0.019": 0.0,
			"0.02": 0.0,
			"0.021": 0.0,
			"0.022": 0.0,
			"0.023": 0.0,
			"0.024": 0.0,
			"0.025": 0.0
		}
	}
}
