{
	 "smiles": "CC1=NN(C(N)=C1)C1=NN=C(C)C=C1", 
	 "Tm": 393.15, 
	 "num_atms": 25, 
	 "gaussian": { 
		 "optdone": 1, 
		 "sigma_profile": "yes", 
		 "theory": "DFT", 
		 "functional": "B3LYP", 
		 "basiset": "6-31G**", 
		 "properties": { 
			 "R2extent": 3544.2616, 
			 "electric_dipole_moment_norm": 5.6693546564, 
			 "electric_quadrupole_moment_norm": 19.3892936978, 
			 "total_energy": -623.287928622, 
			 "HOMO_LUMO_gap": 0.16086, 
			 "cosmo_polarized_energy": -22.64, 
			 "cosmo_cavitation_energy": 29.35, 
			 "cosmo_dispersion_energy": -21.6, 
			 "cosmo_repulsion_energy": 1.73, 
			 "cosmo_total_nonelectrostatic_energy": 9.48, 
			 "SMD_solvation_energy": 2.84 
		},
		"coords": [
			{
				"x": -0.9887557869,
				"y": 1.435551048,
				"z": 3.6941914452,
				"element": "C" 
			},
			{
				"x": -0.4214626637,
				"y": 0.4672905895,
				"z": 2.7021358802,
				"element": "C" 
			},
			{
				"x": -0.9207995431,
				"y": 0.4012072149,
				"z": 1.4779057805,
				"element": "N" 
			},
			{
				"x": -0.1660145794,
				"y": -0.5574900945,
				"z": 0.840148766,
				"element": "N" 
			},
			{
				"x": 0.7787483265,
				"y": -1.1017047147,
				"z": 1.6819240328,
				"element": "C" 
			},
			{
				"x": 1.6834896091,
				"y": -2.0803444739,
				"z": 1.2549367969,
				"element": "N" 
			},
			{
				"x": 0.6442145367,
				"y": -0.4575632697,
				"z": 2.8926175138,
				"element": "C" 
			},
			{
				"x": -0.4185496948,
				"y": -0.8740526105,
				"z": -0.5131105591,
				"element": "C" 
			},
			{
				"x": -1.7003602198,
				"y": -0.9256155872,
				"z": -0.8777352564,
				"element": "N" 
			},
			{
				"x": -2.0141825885,
				"y": -1.1799777323,
				"z": -2.1465414661,
				"element": "N" 
			},
			{
				"x": -1.0573634519,
				"y": -1.4107570149,
				"z": -3.0561835944,
				"element": "C" 
			},
			{
				"x": -1.5250224136,
				"y": -1.7034839003,
				"z": -4.4567327238,
				"element": "C" 
			},
			{
				"x": 0.305612032,
				"y": -1.3767196191,
				"z": -2.7130532969,
				"element": "C" 
			},
			{
				"x": 0.6446730367,
				"y": -1.0907172213,
				"z": -1.4070459967,
				"element": "C" 
			},
			{
				"x": -1.3741310445,
				"y": 0.9179484316,
				"z": 4.5799981781,
				"element": "H" 
			},
			{
				"x": -1.8076528867,
				"y": 1.9940617845,
				"z": 3.2361662651,
				"element": "H" 
			},
			{
				"x": -0.2290421019,
				"y": 2.1472606556,
				"z": 4.0367517215,
				"element": "H" 
			},
			{
				"x": 1.24180759,
				"y": -2.850015933,
				"z": 0.7613390048,
				"element": "H" 
			},
			{
				"x": 2.2232928514,
				"y": -2.4424372924,
				"z": 2.0314891186,
				"element": "H" 
			},
			{
				"x": 1.2164412614,
				"y": -0.6405678394,
				"z": 3.7907358674,
				"element": "H" 
			},
			{
				"x": -1.1289839216,
				"y": -0.9698918327,
				"z": -5.1680344177,
				"element": "H" 
			},
			{
				"x": -2.6151196271,
				"y": -1.6709943728,
				"z": -4.4883746757,
				"element": "H" 
			},
			{
				"x": -1.1911099955,
				"y": -2.6931005554,
				"z": -4.7889059879,
				"element": "H" 
			},
			{
				"x": 1.0697293779,
				"y": -1.5508926183,
				"z": -3.4653871847,
				"element": "H" 
			},
			{
				"x": 1.6732418974,
				"y": -1.0263930419,
				"z": -1.0717352115,
				"element": "H" 
			}
		],
		 "valence_orbital": [ 
			{
				"type": "occ",
				"energy": -0.28989,
				"method": "rhf"
			},
			{
				"type": "occ",
				"energy": -0.27401,
				"method": "rhf"
			},
			{
				"type": "occ",
				"energy": -0.23408,
				"method": "rhf"
			},
			{
				"type": "occ",
				"energy": -0.22561,
				"method": "rhf"
			},
			{
				"type": "occ",
				"energy": -0.2096,
				"method": "rhf"
			},
			{
				"type": "unocc",
				"energy": -0.04874,
				"method": "rhf"
			},
			{
				"type": "unocc",
				"energy": -0.03003,
				"method": "rhf"
			},
			{
				"type": "unocc",
				"energy": 0.04076,
				"method": "rhf"
			},
			{
				"type": "unocc",
				"energy": 0.06902,
				"method": "rhf"
			},
			{
				"type": "unocc",
				"energy": 0.08068,
				"method": "rhf"
			}
		],
		"cosmo_sigma_profile": { 
			"-0.025": 0.0,
			"-0.024": 0.0,
			"-0.023": 0.0,
			"-0.022": 0.0,
			"-0.021": 0.0,
			"-0.02": 0.0,
			"-0.019": 0.0,
			"-0.018": 0.0,
			"-0.017": 0.0,
			"-0.016": 0.0,
			"-0.015": 0.0,
			"-0.014": 0.581239896249,
			"-0.013": 2.93054285324,
			"-0.012": 2.60067004832,
			"-0.011": 3.50713297729,
			"-0.01": 2.27988569475,
			"-0.009": 3.52437227633,
			"-0.008": 5.2608739755,
			"-0.007": 7.01141104071,
			"-0.006": 8.84201032574,
			"-0.005": 13.0328625177,
			"-0.004": 17.0140603894,
			"-0.003": 18.1318314016,
			"-0.002": 21.4222535065,
			"-0.001": 26.0431473775,
			"0.0": 20.3348864421,
			"0.001": 9.28711731862,
			"0.002": 7.26590891396,
			"0.003": 6.37976130082,
			"0.004": 8.84269848137,
			"0.005": 8.36878357336,
			"0.006": 5.99284801556,
			"0.007": 3.98953221364,
			"0.008": 3.13242453441,
			"0.009": 3.41906313007,
			"0.01": 2.8981773307,
			"0.011": 3.13571038201,
			"0.012": 3.10763292949,
			"0.013": 3.22660951251,
			"0.014": 3.47506422174,
			"0.015": 3.00437789326,
			"0.016": 2.09147867183,
			"0.017": 2.07309670759,
			"0.018": 1.33157334749,
			"0.019": 0.0509843115311,
			"0.02": 0.0,
			"0.021": 0.0,
			"0.022": 0.0,
			"0.023": 0.0,
			"0.024": 0.0,
			"0.025": 0.0
		}
	}
}
