{
	 "smiles": "CC1(C)OC(=O)C(=NNC2=CC(=CC=C2)[N+]([O-])=O)C(=O)O1", 
	 "Tm": 465.15, 
	 "num_atms": 32, 
	 "gaussian": { 
		 "optdone": 1, 
		 "sigma_profile": "yes", 
		 "theory": "DFT", 
		 "functional": "B3LYP", 
		 "basiset": "6-31G**", 
		 "properties": { 
			 "R2extent": 9790.2258, 
			 "electric_dipole_moment_norm": 3.71146887499, 
			 "electric_quadrupole_moment_norm": 29.5244776999, 
			 "total_energy": -1079.39680179, 
			 "HOMO_LUMO_gap": 0.14309, 
			 "cosmo_polarized_energy": -19.38, 
			 "cosmo_cavitation_energy": 38.28, 
			 "cosmo_dispersion_energy": -27.46, 
			 "cosmo_repulsion_energy": 2.09, 
			 "cosmo_total_nonelectrostatic_energy": 12.91, 
			 "SMD_solvation_energy": 10.29 
		},
		"coords": [
			{
				"x": 4.1067666728,
				"y": -0.8598132776,
				"z": -1.0930169441,
				"element": "C" 
			},
			{
				"x": 2.992350158,
				"y": -1.9043176662,
				"z": -1.0999515385,
				"element": "C" 
			},
			{
				"x": 3.422107178,
				"y": -3.2487467484,
				"z": -1.6578326027,
				"element": "C" 
			},
			{
				"x": 2.5307167807,
				"y": -2.148682695,
				"z": 0.2288462546,
				"element": "O" 
			},
			{
				"x": 1.7452378676,
				"y": -1.2201181709,
				"z": 0.8689288481,
				"element": "C" 
			},
			{
				"x": 1.6441411358,
				"y": -1.2455390259,
				"z": 2.0684847467,
				"element": "O" 
			},
			{
				"x": 1.0176787668,
				"y": -0.3050457122,
				"z": -0.0455190458,
				"element": "C" 
			},
			{
				"x": 0.2820281282,
				"y": 0.6170801977,
				"z": 0.5362828694,
				"element": "N" 
			},
			{
				"x": -0.4612401915,
				"y": 1.4245515259,
				"z": -0.1664752023,
				"element": "N" 
			},
			{
				"x": -1.2363251574,
				"y": 2.4129734209,
				"z": 0.4639474773,
				"element": "C" 
			},
			{
				"x": -2.0083656398,
				"y": 3.2518646018,
				"z": -0.3432903235,
				"element": "C" 
			},
			{
				"x": -2.7786578094,
				"y": 4.2318437438,
				"z": 0.2743669792,
				"element": "C" 
			},
			{
				"x": -2.8081018312,
				"y": 4.4058200364,
				"z": 1.6550526903,
				"element": "C" 
			},
			{
				"x": -2.0278783052,
				"y": 3.5545588924,
				"z": 2.4398072862,
				"element": "C" 
			},
			{
				"x": -1.2432567232,
				"y": 2.5614171486,
				"z": 1.8598367732,
				"element": "C" 
			},
			{
				"x": -3.5933717818,
				"y": 5.1187106878,
				"z": -0.5766303631,
				"element": "N" 
			},
			{
				"x": -4.2699352364,
				"y": 5.9786588403,
				"z": -0.0164535116,
				"element": "O" 
			},
			{
				"x": -3.5444368264,
				"y": 4.9422975339,
				"z": -1.7930365561,
				"element": "O" 
			},
			{
				"x": 1.0619984625,
				"y": -0.5116533543,
				"z": -1.5012024232,
				"element": "C" 
			},
			{
				"x": 0.3513121405,
				"y": 0.0949843462,
				"z": -2.2933642246,
				"element": "O" 
			},
			{
				"x": 1.9183210287,
				"y": -1.4481343854,
				"z": -1.9603386348,
				"element": "O" 
			},
			{
				"x": 4.9339396098,
				"y": -1.2112516336,
				"z": -0.4719361301,
				"element": "H" 
			},
			{
				"x": 3.7515310383,
				"y": 0.0918302978,
				"z": -0.6873796506,
				"element": "H" 
			},
			{
				"x": 4.4677263166,
				"y": -0.6917700499,
				"z": -2.1103745357,
				"element": "H" 
			},
			{
				"x": 4.2325005658,
				"y": -3.6574460791,
				"z": -1.0504898042,
				"element": "H" 
			},
			{
				"x": 3.7654633888,
				"y": -3.1333252716,
				"z": -2.6881895769,
				"element": "H" 
			},
			{
				"x": 2.5774438576,
				"y": -3.9402356166,
				"z": -1.636581585,
				"element": "H" 
			},
			{
				"x": -0.4841137555,
				"y": 1.2971876321,
				"z": -1.1865488648,
				"element": "H" 
			},
			{
				"x": -2.0226214266,
				"y": 3.1608885672,
				"z": -1.4230530706,
				"element": "H" 
			},
			{
				"x": -3.4252325152,
				"y": 5.1842368095,
				"z": 2.0843003576,
				"element": "H" 
			},
			{
				"x": -2.0324349489,
				"y": 3.6666347035,
				"z": 3.5191325586,
				"element": "H" 
			},
			{
				"x": -0.6375909478,
				"y": 1.8961407009,
				"z": 2.4635777468,
				"element": "H" 
			}
		],
		 "valence_orbital": [ 
			{
				"type": "occ",
				"energy": -0.30005,
				"method": "rhf"
			},
			{
				"type": "occ",
				"energy": -0.29794,
				"method": "rhf"
			},
			{
				"type": "occ",
				"energy": -0.29424,
				"method": "rhf"
			},
			{
				"type": "occ",
				"energy": -0.28135,
				"method": "rhf"
			},
			{
				"type": "occ",
				"energy": -0.24855,
				"method": "rhf"
			},
			{
				"type": "unocc",
				"energy": -0.10546,
				"method": "rhf"
			},
			{
				"type": "unocc",
				"energy": -0.09353,
				"method": "rhf"
			},
			{
				"type": "unocc",
				"energy": -0.02909,
				"method": "rhf"
			},
			{
				"type": "unocc",
				"energy": -0.01758,
				"method": "rhf"
			},
			{
				"type": "unocc",
				"energy": 0.00124,
				"method": "rhf"
			}
		],
		"cosmo_sigma_profile": { 
			"-0.025": 0.0,
			"-0.024": 0.0,
			"-0.023": 0.0,
			"-0.022": 0.0,
			"-0.021": 0.0,
			"-0.02": 0.0,
			"-0.019": 0.0,
			"-0.018": 0.0,
			"-0.017": 0.0,
			"-0.016": 0.0,
			"-0.015": 0.113154777361,
			"-0.014": 0.656446455568,
			"-0.013": 1.31568447016,
			"-0.012": 1.08724045708,
			"-0.011": 0.58840042768,
			"-0.01": 1.16241919149,
			"-0.009": 1.39015184735,
			"-0.008": 4.98337312582,
			"-0.007": 11.9769880399,
			"-0.006": 24.2577682817,
			"-0.005": 23.01791061,
			"-0.004": 21.1349127016,
			"-0.003": 25.2787913086,
			"-0.002": 30.4596071075,
			"-0.001": 26.1471127487,
			"0.0": 20.348683503,
			"0.001": 15.4983698711,
			"0.002": 8.54766853103,
			"0.003": 7.19507410439,
			"0.004": 6.39530730647,
			"0.005": 8.19254806915,
			"0.006": 8.39419500665,
			"0.007": 14.5596510938,
			"0.008": 11.418483015,
			"0.009": 10.2657763455,
			"0.01": 7.4601964259,
			"0.011": 8.24671518334,
			"0.012": 5.77462012984,
			"0.013": 0.701103899162,
			"0.014": 0.0,
			"0.015": 0.0,
			"0.016": 0.0,
			"0.017": 0.0,
			"0.018": 0.0,
			"0.019": 0.0,
			"0.02": 0.0,
			"0.021": 0.0,
			"0.022": 0.0,
			"0.023": 0.0,
			"0.024": 0.0,
			"0.025": 0.0
		}
	}
}
