{
	 "smiles": "NC1=CC(Cl)=C(C=C1)C(=O)NC1CC1", 
	 "Tm": 432.15, 
	 "num_atms": 25, 
	 "gaussian": { 
		 "optdone": 1, 
		 "sigma_profile": "yes", 
		 "theory": "DFT", 
		 "functional": "B3LYP", 
		 "basiset": "6-31G**", 
		 "properties": { 
			 "R2extent": 3367.4413, 
			 "electric_dipole_moment_norm": 5.45490168289, 
			 "electric_quadrupole_moment_norm": 14.1222392431, 
			 "total_energy": -1032.59217443, 
			 "HOMO_LUMO_gap": 0.19944, 
			 "cosmo_polarized_energy": -17.14, 
			 "cosmo_cavitation_energy": 30.47, 
			 "cosmo_dispersion_energy": -21.47, 
			 "cosmo_repulsion_energy": 1.72, 
			 "cosmo_total_nonelectrostatic_energy": 10.73, 
			 "SMD_solvation_energy": 4.78 
		},
		"coords": [
			{
				"x": -2.298394895,
				"y": -1.9999087364,
				"z": 3.1377144924,
				"element": "N" 
			},
			{
				"x": -1.5657292546,
				"y": -1.3688539117,
				"z": 2.1402590012,
				"element": "C" 
			},
			{
				"x": -1.8105889895,
				"y": -1.6530827617,
				"z": 0.7870045149,
				"element": "C" 
			},
			{
				"x": -1.0433074685,
				"y": -1.048545797,
				"z": -0.2047563398,
				"element": "C" 
			},
			{
				"x": -1.3718138999,
				"y": -1.5322320266,
				"z": -1.8698348989,
				"element": "Cl" 
			},
			{
				"x": -0.0158265999,
				"y": -0.1451832924,
				"z": 0.0921983069,
				"element": "C" 
			},
			{
				"x": 0.2430011656,
				"y": 0.0877030679,
				"z": 1.4529780026,
				"element": "C" 
			},
			{
				"x": -0.5162916352,
				"y": -0.487792018,
				"z": 2.4604467523,
				"element": "C" 
			},
			{
				"x": 0.9126517038,
				"y": 0.5030753796,
				"z": -0.9013894356,
				"element": "C" 
			},
			{
				"x": 2.1241808687,
				"y": 0.3262488358,
				"z": -0.8274953019,
				"element": "O" 
			},
			{
				"x": 0.3799196836,
				"y": 1.3456788884,
				"z": -1.8443133234,
				"element": "N" 
			},
			{
				"x": -0.9703116843,
				"y": 1.8071169777,
				"z": -1.9958584602,
				"element": "C" 
			},
			{
				"x": -1.6239710234,
				"y": 2.5879754864,
				"z": -0.8814177417,
				"element": "C" 
			},
			{
				"x": -1.1884979431,
				"y": 3.2947132102,
				"z": -2.1379100561,
				"element": "C" 
			},
			{
				"x": -2.3036811558,
				"y": -1.5438857538,
				"z": 4.038583238,
				"element": "H" 
			},
			{
				"x": -3.2066636055,
				"y": -2.3510813377,
				"z": 2.8705974728,
				"element": "H" 
			},
			{
				"x": -2.583461171,
				"y": -2.3616451974,
				"z": 0.5078644003,
				"element": "H" 
			},
			{
				"x": 1.0694278286,
				"y": 0.7434328385,
				"z": 1.7086634265,
				"element": "H" 
			},
			{
				"x": -0.2908316383,
				"y": -0.274151054,
				"z": 3.5017077539,
				"element": "H" 
			},
			{
				"x": 1.0752473724,
				"y": 1.6893036892,
				"z": -2.4954201254,
				"element": "H" 
			},
			{
				"x": -1.6201051138,
				"y": 1.1639125212,
				"z": -2.5848424489,
				"element": "H" 
			},
			{
				"x": -1.0401329311,
				"y": 2.7515537638,
				"z": 0.0177234031,
				"element": "H" 
			},
			{
				"x": -2.6833726846,
				"y": 2.4260215143,
				"z": -0.7099339624,
				"element": "H" 
			},
			{
				"x": -1.9425101607,
				"y": 3.6301582286,
				"z": -2.8429951676,
				"element": "H" 
			},
			{
				"x": -0.3124367684,
				"y": 3.9332674852,
				"z": -2.073573503,
				"element": "H" 
			}
		],
		 "valence_orbital": [ 
			{
				"type": "occ",
				"energy": -0.30036,
				"method": "rhf"
			},
			{
				"type": "occ",
				"energy": -0.25055,
				"method": "rhf"
			},
			{
				"type": "occ",
				"energy": -0.24425,
				"method": "rhf"
			},
			{
				"type": "occ",
				"energy": -0.24127,
				"method": "rhf"
			},
			{
				"type": "occ",
				"energy": -0.21203,
				"method": "rhf"
			},
			{
				"type": "unocc",
				"energy": -0.01259,
				"method": "rhf"
			},
			{
				"type": "unocc",
				"energy": -0.0097,
				"method": "rhf"
			},
			{
				"type": "unocc",
				"energy": 0.02905,
				"method": "rhf"
			},
			{
				"type": "unocc",
				"energy": 0.04609,
				"method": "rhf"
			},
			{
				"type": "unocc",
				"energy": 0.07117,
				"method": "rhf"
			}
		],
		"cosmo_sigma_profile": { 
			"-0.025": 0.0,
			"-0.024": 0.0,
			"-0.023": 0.0,
			"-0.022": 0.0,
			"-0.021": 0.0,
			"-0.02": 0.0,
			"-0.019": 0.0,
			"-0.018": 0.0,
			"-0.017": 0.0,
			"-0.016": 0.0,
			"-0.015": 0.0,
			"-0.014": 0.127873809363,
			"-0.013": 2.82908350504,
			"-0.012": 3.97590109868,
			"-0.011": 4.04006847174,
			"-0.01": 4.59323287755,
			"-0.009": 3.47743393279,
			"-0.008": 4.25578562797,
			"-0.007": 5.81833620374,
			"-0.006": 6.5377909646,
			"-0.005": 13.5439426894,
			"-0.004": 17.5292897592,
			"-0.003": 14.9292249683,
			"-0.002": 15.4547017758,
			"-0.001": 14.7761443809,
			"0.0": 17.531591999,
			"0.001": 15.9400194395,
			"0.002": 17.7717824093,
			"0.003": 19.6704407757,
			"0.004": 23.4155270974,
			"0.005": 9.87430414699,
			"0.006": 2.52891845587,
			"0.007": 2.48923469039,
			"0.008": 2.19219413533,
			"0.009": 1.94604649505,
			"0.01": 2.49137549331,
			"0.011": 1.94154389366,
			"0.012": 2.67542238022,
			"0.013": 4.50735463171,
			"0.014": 5.0266957298,
			"0.015": 1.29952192088,
			"0.016": 0.0,
			"0.017": 0.0,
			"0.018": 0.0,
			"0.019": 0.0,
			"0.02": 0.0,
			"0.021": 0.0,
			"0.022": 0.0,
			"0.023": 0.0,
			"0.024": 0.0,
			"0.025": 0.0
		}
	}
}
