{
	 "smiles": "OC(=O)C1=C(C=CC=C1)C1=CC=CN=C1", 
	 "Tm": 461.15, 
	 "num_atms": 24, 
	 "gaussian": { 
		 "optdone": 1, 
		 "sigma_profile": "yes", 
		 "theory": "DFT", 
		 "functional": "B3LYP", 
		 "basiset": "6-31G**", 
		 "properties": { 
			 "R2extent": 3172.173, 
			 "electric_dipole_moment_norm": 3.60068960756, 
			 "electric_quadrupole_moment_norm": 21.3394375819, 
			 "total_energy": -667.904338314, 
			 "HOMO_LUMO_gap": 0.19667, 
			 "cosmo_polarized_energy": -14.64, 
			 "cosmo_cavitation_energy": 28.43, 
			 "cosmo_dispersion_energy": -20.51, 
			 "cosmo_repulsion_energy": 1.59, 
			 "cosmo_total_nonelectrostatic_energy": 9.51, 
			 "SMD_solvation_energy": 4.3 
		},
		"coords": [
			{
				"x": -2.2415943269,
				"y": 0.9688095907,
				"z": 0.3774189822,
				"element": "O" 
			},
			{
				"x": -2.212502755,
				"y": -0.3586394876,
				"z": 0.6433829385,
				"element": "C" 
			},
			{
				"x": -3.1989865431,
				"y": -1.0294609017,
				"z": 0.441874049,
				"element": "O" 
			},
			{
				"x": -0.9543555551,
				"y": -0.9388136488,
				"z": 1.2431909798,
				"element": "C" 
			},
			{
				"x": 0.3556088126,
				"y": -0.4255747735,
				"z": 1.0855706505,
				"element": "C" 
			},
			{
				"x": 1.4052276777,
				"y": -1.0501240637,
				"z": 1.7802106971,
				"element": "C" 
			},
			{
				"x": 1.1815349385,
				"y": -2.1558336112,
				"z": 2.5972774581,
				"element": "C" 
			},
			{
				"x": -0.1070788587,
				"y": -2.6761199813,
				"z": 2.7242526671,
				"element": "C" 
			},
			{
				"x": -1.1596079614,
				"y": -2.0716661417,
				"z": 2.0450556495,
				"element": "C" 
			},
			{
				"x": 0.7038974067,
				"y": 0.7132275393,
				"z": 0.1876777815,
				"element": "C" 
			},
			{
				"x": 0.3758997762,
				"y": 0.723369626,
				"z": -1.1788010081,
				"element": "C" 
			},
			{
				"x": 0.7909317773,
				"y": 1.7901943058,
				"z": -1.9694671085,
				"element": "C" 
			},
			{
				"x": 1.5263636002,
				"y": 2.818224102,
				"z": -1.3751639487,
				"element": "C" 
			},
			{
				"x": 1.8493378069,
				"y": 2.8367361232,
				"z": -0.076552482,
				"element": "N" 
			},
			{
				"x": 1.4441531662,
				"y": 1.8067089532,
				"z": 0.6729859671,
				"element": "C" 
			},
			{
				"x": -1.3943168012,
				"y": 1.3843930013,
				"z": 0.5971467938,
				"element": "H" 
			},
			{
				"x": 2.4147249588,
				"y": -0.6730775195,
				"z": 1.6469400633,
				"element": "H" 
			},
			{
				"x": 2.0146406212,
				"y": -2.6168884137,
				"z": 3.1195793314,
				"element": "H" 
			},
			{
				"x": -0.2908342129,
				"y": -3.5452197076,
				"z": 3.3483707721,
				"element": "H" 
			},
			{
				"x": -2.1710854137,
				"y": -2.4537068186,
				"z": 2.1274098072,
				"element": "H" 
			},
			{
				"x": -0.1851802131,
				"y": -0.1003222799,
				"z": -1.6101305957,
				"element": "H" 
			},
			{
				"x": 0.5563157739,
				"y": 1.8234775641,
				"z": -3.0285042007,
				"element": "H" 
			},
			{
				"x": 1.8704352625,
				"y": 3.6638246252,
				"z": -1.9676241878,
				"element": "H" 
			},
			{
				"x": 1.7108710625,
				"y": 1.8461819181,
				"z": 1.7281989435,
				"element": "H" 
			}
		],
		 "valence_orbital": [ 
			{
				"type": "occ",
				"energy": -0.28997,
				"method": "rhf"
			},
			{
				"type": "occ",
				"energy": -0.27984,
				"method": "rhf"
			},
			{
				"type": "occ",
				"energy": -0.27033,
				"method": "rhf"
			},
			{
				"type": "occ",
				"energy": -0.26478,
				"method": "rhf"
			},
			{
				"type": "occ",
				"energy": -0.257,
				"method": "rhf"
			},
			{
				"type": "unocc",
				"energy": -0.06033,
				"method": "rhf"
			},
			{
				"type": "unocc",
				"energy": -0.0447,
				"method": "rhf"
			},
			{
				"type": "unocc",
				"energy": -0.03331,
				"method": "rhf"
			},
			{
				"type": "unocc",
				"energy": -0.01033,
				"method": "rhf"
			},
			{
				"type": "unocc",
				"energy": 0.04245,
				"method": "rhf"
			}
		],
		"cosmo_sigma_profile": { 
			"-0.025": 0.0,
			"-0.024": 0.0,
			"-0.023": 0.0,
			"-0.022": 0.0,
			"-0.021": 0.0,
			"-0.02": 0.0,
			"-0.019": 0.0,
			"-0.018": 0.0,
			"-0.017": 0.0,
			"-0.016": 0.0,
			"-0.015": 0.0,
			"-0.014": 0.620766162485,
			"-0.013": 1.02041378315,
			"-0.012": 0.956050762938,
			"-0.011": 1.42304460539,
			"-0.01": 1.18556534175,
			"-0.009": 0.632311457556,
			"-0.008": 2.96479858218,
			"-0.007": 11.4668200799,
			"-0.006": 18.5384419565,
			"-0.005": 19.7145906908,
			"-0.004": 16.9479885357,
			"-0.003": 13.2318649277,
			"-0.002": 12.5779095664,
			"-0.001": 13.1059329431,
			"0.0": 15.0813652163,
			"0.001": 18.4228637901,
			"0.002": 17.4309783102,
			"0.003": 15.2627067763,
			"0.004": 6.79093183593,
			"0.005": 3.65669555316,
			"0.006": 3.31607838059,
			"0.007": 3.77064695545,
			"0.008": 4.47257066641,
			"0.009": 4.23650500044,
			"0.01": 4.9324285399,
			"0.011": 6.34819748463,
			"0.012": 5.9128432566,
			"0.013": 2.3038432778,
			"0.014": 0.526820208844,
			"0.015": 1.29810648033,
			"0.016": 0.602345900178,
			"0.017": 0.072158460264,
			"0.018": 0.0,
			"0.019": 0.0,
			"0.02": 0.0,
			"0.021": 0.0,
			"0.022": 0.0,
			"0.023": 0.0,
			"0.024": 0.0,
			"0.025": 0.0
		}
	}
}
