{
	 "smiles": "COC(=O)C1CC(O)CN1C(=O)OC(C)(C)C", 
	 "Tm": 366.65, 
	 "num_atms": 36, 
	 "gaussian": { 
		 "optdone": 1, 
		 "sigma_profile": "yes", 
		 "theory": "DFT", 
		 "functional": "B3LYP", 
		 "basiset": "6-31G**", 
		 "properties": { 
			 "R2extent": 5392.6169, 
			 "electric_dipole_moment_norm": 1.4934543515, 
			 "electric_quadrupole_moment_norm": 10.2287851923, 
			 "total_energy": -861.526637655, 
			 "HOMO_LUMO_gap": 0.24948, 
			 "cosmo_polarized_energy": -16.07, 
			 "cosmo_cavitation_energy": 37.98, 
			 "cosmo_dispersion_energy": -25.72, 
			 "cosmo_repulsion_energy": 2.05, 
			 "cosmo_total_nonelectrostatic_energy": 14.31, 
			 "SMD_solvation_energy": 8.04 
		},
		"coords": [
			{
				"x": 3.3462878962,
				"y": -3.809361098,
				"z": 1.1552371227,
				"element": "C" 
			},
			{
				"x": 1.976320382,
				"y": -3.4791660737,
				"z": 0.8696194792,
				"element": "O" 
			},
			{
				"x": 1.5323982897,
				"y": -2.3347624915,
				"z": 1.4210018794,
				"element": "C" 
			},
			{
				"x": 2.1991593787,
				"y": -1.617439369,
				"z": 2.1350866702,
				"element": "O" 
			},
			{
				"x": 0.0535769432,
				"y": -2.11057919,
				"z": 1.0881622123,
				"element": "C" 
			},
			{
				"x": -0.8476671752,
				"y": -2.5897492307,
				"z": 2.2452551711,
				"element": "C" 
			},
			{
				"x": -0.9407880827,
				"y": -1.3640062482,
				"z": 3.1611735425,
				"element": "C" 
			},
			{
				"x": -2.0826615426,
				"y": -1.4770224983,
				"z": 3.9920108161,
				"element": "O" 
			},
			{
				"x": -1.0036488529,
				"y": -0.1868467023,
				"z": 2.1640019141,
				"element": "C" 
			},
			{
				"x": -0.2561987784,
				"y": -0.6867606414,
				"z": 1.0105128265,
				"element": "N" 
			},
			{
				"x": 0.3247925438,
				"y": 0.0659150484,
				"z": 0.0301926793,
				"element": "C" 
			},
			{
				"x": 1.0475964751,
				"y": -0.4156437775,
				"z": -0.832801946,
				"element": "O" 
			},
			{
				"x": -0.0263526606,
				"y": 1.3666630601,
				"z": 0.1551479607,
				"element": "O" 
			},
			{
				"x": 0.4917980492,
				"y": 2.3791693892,
				"z": -0.7788189883,
				"element": "C" 
			},
			{
				"x": 2.0199965794,
				"y": 2.4455008678,
				"z": -0.6867802429,
				"element": "C" 
			},
			{
				"x": -0.1413284855,
				"y": 3.6701632281,
				"z": -0.2532841326,
				"element": "C" 
			},
			{
				"x": 0.0073716254,
				"y": 2.0753922209,
				"z": -2.2006686945,
				"element": "C" 
			},
			{
				"x": 3.5010563186,
				"y": -3.9151703961,
				"z": 2.2320419674,
				"element": "H" 
			},
			{
				"x": 4.0110736805,
				"y": -3.0293338369,
				"z": 0.7768638218,
				"element": "H" 
			},
			{
				"x": 3.5344274745,
				"y": -4.7539196672,
				"z": 0.6453008656,
				"element": "H" 
			},
			{
				"x": -0.1655713373,
				"y": -2.6160567343,
				"z": 0.1452758016,
				"element": "H" 
			},
			{
				"x": -0.4622571971,
				"y": -3.4776716482,
				"z": 2.7513619477,
				"element": "H" 
			},
			{
				"x": -1.8499183589,
				"y": -2.818352048,
				"z": 1.8678887608,
				"element": "H" 
			},
			{
				"x": -0.0210341844,
				"y": -1.2837196093,
				"z": 3.7558472954,
				"element": "H" 
			},
			{
				"x": -2.0265121781,
				"y": -0.8007686331,
				"z": 4.6785343586,
				"element": "H" 
			},
			{
				"x": -2.0528073077,
				"y": 0.0159939645,
				"z": 1.9112917029,
				"element": "H" 
			},
			{
				"x": -0.5555486508,
				"y": 0.7323272568,
				"z": 2.5497877275,
				"element": "H" 
			},
			{
				"x": 2.3308859293,
				"y": 2.6192424163,
				"z": 0.3482081363,
				"element": "H" 
			},
			{
				"x": 2.4725487441,
				"y": 1.518747003,
				"z": -1.0397514838,
				"element": "H" 
			},
			{
				"x": 2.388687117,
				"y": 3.2763150143,
				"z": -1.297342624,
				"element": "H" 
			},
			{
				"x": 0.1729526084,
				"y": 3.8632068715,
				"z": 0.7766491315,
				"element": "H" 
			},
			{
				"x": -1.2329126326,
				"y": 3.6014750714,
				"z": -0.2740771148,
				"element": "H" 
			},
			{
				"x": 0.16466817,
				"y": 4.5180612684,
				"z": -0.8732945258,
				"element": "H" 
			},
			{
				"x": 0.3017988356,
				"y": 2.8895517798,
				"z": -2.8710206304,
				"element": "H" 
			},
			{
				"x": 0.436834596,
				"y": 1.1427658717,
				"z": -2.5670242417,
				"element": "H" 
			},
			{
				"x": -1.0843242118,
				"y": 1.9966395617,
				"z": -2.2211891661,
				"element": "H" 
			}
		],
		 "valence_orbital": [ 
			{
				"type": "occ",
				"energy": -0.28483,
				"method": "rhf"
			},
			{
				"type": "occ",
				"energy": -0.28182,
				"method": "rhf"
			},
			{
				"type": "occ",
				"energy": -0.27033,
				"method": "rhf"
			},
			{
				"type": "occ",
				"energy": -0.25681,
				"method": "rhf"
			},
			{
				"type": "occ",
				"energy": -0.2379,
				"method": "rhf"
			},
			{
				"type": "unocc",
				"energy": 0.01158,
				"method": "rhf"
			},
			{
				"type": "unocc",
				"energy": 0.05023,
				"method": "rhf"
			},
			{
				"type": "unocc",
				"energy": 0.06966,
				"method": "rhf"
			},
			{
				"type": "unocc",
				"energy": 0.08517,
				"method": "rhf"
			},
			{
				"type": "unocc",
				"energy": 0.09963,
				"method": "rhf"
			}
		],
		"cosmo_sigma_profile": { 
			"-0.025": 0.0,
			"-0.024": 0.0,
			"-0.023": 0.0,
			"-0.022": 0.0,
			"-0.021": 0.0,
			"-0.02": 0.0,
			"-0.019": 0.0,
			"-0.018": 0.0,
			"-0.017": 0.0694897739222,
			"-0.016": 1.14097993635,
			"-0.015": 0.989115571455,
			"-0.014": 1.26122034491,
			"-0.013": 0.702932149633,
			"-0.012": 1.25982690352,
			"-0.011": 0.895442438065,
			"-0.01": 0.247545447413,
			"-0.009": 0.915047319023,
			"-0.008": 1.15299091333,
			"-0.007": 3.11946892048,
			"-0.006": 11.1637756348,
			"-0.005": 17.8680344819,
			"-0.004": 30.8746354579,
			"-0.003": 32.5585688086,
			"-0.002": 26.1494301847,
			"-0.001": 25.7817060429,
			"0.0": 30.7578516915,
			"0.001": 25.189364798,
			"0.002": 10.4101768215,
			"0.003": 8.39004447751,
			"0.004": 8.25055354877,
			"0.005": 8.27457593452,
			"0.006": 8.00198316886,
			"0.007": 8.29581659509,
			"0.008": 5.14381766636,
			"0.009": 4.39256413837,
			"0.01": 4.66438488412,
			"0.011": 5.13038566684,
			"0.012": 7.07422441809,
			"0.013": 4.29027399255,
			"0.014": 0.780819573102,
			"0.015": 0.0,
			"0.016": 0.0,
			"0.017": 0.0,
			"0.018": 0.0,
			"0.019": 0.0,
			"0.02": 0.0,
			"0.021": 0.0,
			"0.022": 0.0,
			"0.023": 0.0,
			"0.024": 0.0,
			"0.025": 0.0
		}
	}
}
