{
	 "smiles": "CCOC1=CC=C(C=C1)N1C(C)=CC(C(=O)CCl)=C1C", 
	 "Tm": 393.15, 
	 "num_atms": 38, 
	 "gaussian": { 
		 "optdone": 1, 
		 "sigma_profile": "yes", 
		 "theory": "DFT", 
		 "functional": "B3LYP", 
		 "basiset": "6-31G**", 
		 "properties": { 
			 "R2extent": 10142.6329, 
			 "electric_dipole_moment_norm": 7.32222302924, 
			 "electric_quadrupole_moment_norm": 12.8848825559, 
			 "total_energy": -1285.94602267, 
			 "HOMO_LUMO_gap": 0.16727, 
			 "cosmo_polarized_energy": -13.37, 
			 "cosmo_cavitation_energy": 43.17, 
			 "cosmo_dispersion_energy": -29.56, 
			 "cosmo_repulsion_energy": 2.32, 
			 "cosmo_total_nonelectrostatic_energy": 15.93, 
			 "SMD_solvation_energy": 8.13 
		},
		"coords": [
			{
				"x": -4.6884874614,
				"y": 2.5265100781,
				"z": 2.3572620116,
				"element": "C" 
			},
			{
				"x": -3.4446485164,
				"y": 2.3635985231,
				"z": 3.2241867363,
				"element": "C" 
			},
			{
				"x": -2.2702910888,
				"y": 2.9018640454,
				"z": 2.606085264,
				"element": "O" 
			},
			{
				"x": -1.5983470101,
				"y": 2.1806120598,
				"z": 1.6676706986,
				"element": "C" 
			},
			{
				"x": -1.9325076721,
				"y": 0.885190863,
				"z": 1.2479656831,
				"element": "C" 
			},
			{
				"x": -1.1465283273,
				"y": 0.243582073,
				"z": 0.2884194931,
				"element": "C" 
			},
			{
				"x": -0.0325160883,
				"y": 0.8773405294,
				"z": -0.26114605,
				"element": "C" 
			},
			{
				"x": 0.2974692902,
				"y": 2.1730968778,
				"z": 0.156855069,
				"element": "C" 
			},
			{
				"x": -0.4771466285,
				"y": 2.8187352996,
				"z": 1.1109704387,
				"element": "C" 
			},
			{
				"x": 0.7640349866,
				"y": 0.2129566665,
				"z": -1.250086728,
				"element": "N" 
			},
			{
				"x": 0.5494671053,
				"y": 0.2915371428,
				"z": -2.6330114092,
				"element": "C" 
			},
			{
				"x": -0.5622011803,
				"y": 1.1002109382,
				"z": -3.2186073031,
				"element": "C" 
			},
			{
				"x": 1.51313907,
				"y": -0.4696929286,
				"z": -3.2357541877,
				"element": "C" 
			},
			{
				"x": 2.3475042698,
				"y": -1.0349780577,
				"z": -2.2106338323,
				"element": "C" 
			},
			{
				"x": 3.4853789745,
				"y": -1.9302200536,
				"z": -2.392029829,
				"element": "C" 
			},
			{
				"x": 4.1421780709,
				"y": -2.4225740984,
				"z": -1.477911421,
				"element": "O" 
			},
			{
				"x": 3.8663989772,
				"y": -2.3264450219,
				"z": -3.8265013075,
				"element": "C" 
			},
			{
				"x": 4.620524373,
				"y": -0.9480028326,
				"z": -4.7438379594,
				"element": "Cl" 
			},
			{
				"x": 1.8503996808,
				"y": -0.5867413166,
				"z": -0.9821754113,
				"element": "C" 
			},
			{
				"x": 2.3151864136,
				"y": -0.8496090036,
				"z": 0.4132245923,
				"element": "C" 
			},
			{
				"x": -5.5701253461,
				"y": 2.1659270852,
				"z": 2.8974870269,
				"element": "H" 
			},
			{
				"x": -4.84262628,
				"y": 3.5808881055,
				"z": 2.1114042524,
				"element": "H" 
			},
			{
				"x": -4.6091714586,
				"y": 1.966350119,
				"z": 1.4216159629,
				"element": "H" 
			},
			{
				"x": -3.2792142093,
				"y": 1.3161989372,
				"z": 3.5058666385,
				"element": "H" 
			},
			{
				"x": -3.5489196858,
				"y": 2.9373937647,
				"z": 4.1489917956,
				"element": "H" 
			},
			{
				"x": -2.7939520886,
				"y": 0.3687102231,
				"z": 1.6530473476,
				"element": "H" 
			},
			{
				"x": -1.402940056,
				"y": -0.7596562437,
				"z": -0.0381270849,
				"element": "H" 
			},
			{
				"x": 1.165064949,
				"y": 2.6665609291,
				"z": -0.270236566,
				"element": "H" 
			},
			{
				"x": -0.2335823044,
				"y": 3.8203998696,
				"z": 1.448725469,
				"element": "H" 
			},
			{
				"x": -0.5346751613,
				"y": 1.0173874117,
				"z": -4.3075736376,
				"element": "H" 
			},
			{
				"x": -0.4833605016,
				"y": 2.1627278374,
				"z": -2.9597264991,
				"element": "H" 
			},
			{
				"x": -1.5476310653,
				"y": 0.7597408751,
				"z": -2.8787860983,
				"element": "H" 
			},
			{
				"x": 1.6282392394,
				"y": -0.5923830938,
				"z": -4.3030830349,
				"element": "H" 
			},
			{
				"x": 3.0012763961,
				"y": -2.6514921499,
				"z": -4.4074457956,
				"element": "H" 
			},
			{
				"x": 4.612448681,
				"y": -3.1170286722,
				"z": -3.7723800158,
				"element": "H" 
			},
			{
				"x": 3.1797433239,
				"y": -1.510285053,
				"z": 0.3770090087,
				"element": "H" 
			},
			{
				"x": 2.5947166034,
				"y": 0.0796844017,
				"z": 0.9236267877,
				"element": "H" 
			},
			{
				"x": 1.5298017254,
				"y": -1.3210961305,
				"z": 1.0158398946,
				"element": "H" 
			}
		],
		 "valence_orbital": [ 
			{
				"type": "occ",
				"energy": -0.27005,
				"method": "rhf"
			},
			{
				"type": "occ",
				"energy": -0.24343,
				"method": "rhf"
			},
			{
				"type": "occ",
				"energy": -0.23667,
				"method": "rhf"
			},
			{
				"type": "occ",
				"energy": -0.23413,
				"method": "rhf"
			},
			{
				"type": "occ",
				"energy": -0.20492,
				"method": "rhf"
			},
			{
				"type": "unocc",
				"energy": -0.03765,
				"method": "rhf"
			},
			{
				"type": "unocc",
				"energy": -0.02195,
				"method": "rhf"
			},
			{
				"type": "unocc",
				"energy": -0.00956,
				"method": "rhf"
			},
			{
				"type": "unocc",
				"energy": 0.03217,
				"method": "rhf"
			},
			{
				"type": "unocc",
				"energy": 0.04703,
				"method": "rhf"
			}
		],
		"cosmo_sigma_profile": { 
			"-0.025": 0.0,
			"-0.024": 0.0,
			"-0.023": 0.0,
			"-0.022": 0.0,
			"-0.021": 0.0,
			"-0.02": 0.0,
			"-0.019": 0.0,
			"-0.018": 0.0,
			"-0.017": 0.0,
			"-0.016": 0.0,
			"-0.015": 0.0,
			"-0.014": 0.0,
			"-0.013": 0.0,
			"-0.012": 0.0,
			"-0.011": 0.0,
			"-0.01": 0.0,
			"-0.009": 0.0323423920329,
			"-0.008": 2.61280929689,
			"-0.007": 8.6024770712,
			"-0.006": 14.3869904434,
			"-0.005": 21.6942615361,
			"-0.004": 29.9445924024,
			"-0.003": 35.0680783596,
			"-0.002": 30.6790934949,
			"-0.001": 31.8305136783,
			"0.0": 31.9588238915,
			"0.001": 20.4677341528,
			"0.002": 20.4558053915,
			"0.003": 22.3753267031,
			"0.004": 21.1378381832,
			"0.005": 15.1550035507,
			"0.006": 16.081634147,
			"0.007": 4.86100115516,
			"0.008": 3.01385741507,
			"0.009": 2.9747936736,
			"0.01": 3.42973063342,
			"0.011": 2.44225297828,
			"0.012": 2.74255838084,
			"0.013": 1.96510948747,
			"0.014": 0.168476639709,
			"0.015": 0.0,
			"0.016": 0.0,
			"0.017": 0.0,
			"0.018": 0.0,
			"0.019": 0.0,
			"0.02": 0.0,
			"0.021": 0.0,
			"0.022": 0.0,
			"0.023": 0.0,
			"0.024": 0.0,
			"0.025": 0.0
		}
	}
}
