{
	 "smiles": "NC1=CC=C(Cl)C=C1C(=O)C1=CC=CC=C1F", 
	 "Tm": 368.15, 
	 "num_atms": 26, 
	 "gaussian": { 
		 "optdone": 1, 
		 "sigma_profile": "yes", 
		 "theory": "DFT", 
		 "functional": "B3LYP", 
		 "basiset": "6-31G**", 
		 "properties": { 
			 "R2extent": 6170.1736, 
			 "electric_dipole_moment_norm": 6.58179214272, 
			 "electric_quadrupole_moment_norm": 13.0042276883, 
			 "total_energy": -1190.80694856, 
			 "HOMO_LUMO_gap": 0.14547, 
			 "cosmo_polarized_energy": -15.18, 
			 "cosmo_cavitation_energy": 32.8, 
			 "cosmo_dispersion_energy": -23.4, 
			 "cosmo_repulsion_energy": 1.79, 
			 "cosmo_total_nonelectrostatic_energy": 11.19, 
			 "SMD_solvation_energy": 5.99 
		},
		"coords": [
			{
				"x": -0.8076011728,
				"y": -0.8965959129,
				"z": 0.0224635891,
				"element": "N" 
			},
			{
				"x": -0.5281089644,
				"y": -0.7987841043,
				"z": 1.3738241147,
				"element": "C" 
			},
			{
				"x": -1.4001708924,
				"y": -1.4307800751,
				"z": 2.2873380124,
				"element": "C" 
			},
			{
				"x": -1.1338163565,
				"y": -1.4690423965,
				"z": 3.6462764593,
				"element": "C" 
			},
			{
				"x": 0.0362442482,
				"y": -0.8795577328,
				"z": 4.1366263562,
				"element": "C" 
			},
			{
				"x": 0.3816144201,
				"y": -0.9320245653,
				"z": 5.860906547,
				"element": "Cl" 
			},
			{
				"x": 0.91482063,
				"y": -0.2570305328,
				"z": 3.268323889,
				"element": "C" 
			},
			{
				"x": 0.6426227779,
				"y": -0.178310811,
				"z": 1.8893194541,
				"element": "C" 
			},
			{
				"x": 1.6893612193,
				"y": 0.5191280076,
				"z": 1.0758319408,
				"element": "C" 
			},
			{
				"x": 2.8601981063,
				"y": 0.5136359326,
				"z": 1.428676504,
				"element": "O" 
			},
			{
				"x": 1.2929381099,
				"y": 1.3313101758,
				"z": -0.1304389948,
				"element": "C" 
			},
			{
				"x": 0.179340469,
				"y": 2.1882675062,
				"z": -0.0904127358,
				"element": "C" 
			},
			{
				"x": -0.1146474892,
				"y": 3.0419893684,
				"z": -1.1526246543,
				"element": "C" 
			},
			{
				"x": 0.6992579413,
				"y": 3.04035791,
				"z": -2.2882743685,
				"element": "C" 
			},
			{
				"x": 1.8046335568,
				"y": 2.1923363525,
				"z": -2.3595971359,
				"element": "C" 
			},
			{
				"x": 2.0928605522,
				"y": 1.3623250346,
				"z": -1.2817097337,
				"element": "C" 
			},
			{
				"x": 3.1521985861,
				"y": 0.5451580038,
				"z": -1.3767660439,
				"element": "F" 
			},
			{
				"x": -0.3854212869,
				"y": -0.2251189913,
				"z": -0.599690077,
				"element": "H" 
			},
			{
				"x": -1.756866439,
				"y": -1.1396489833,
				"z": -0.2183739066,
				"element": "H" 
			},
			{
				"x": -2.2972200254,
				"y": -1.912462362,
				"z": 1.9065726012,
				"element": "H" 
			},
			{
				"x": -1.8247464376,
				"y": -1.956125832,
				"z": 4.325954184,
				"element": "H" 
			},
			{
				"x": 1.8327424616,
				"y": 0.1911801383,
				"z": 3.6303711232,
				"element": "H" 
			},
			{
				"x": -0.4446133972,
				"y": 2.187922338,
				"z": 0.7986282673,
				"element": "H" 
			},
			{
				"x": -0.9701060379,
				"y": 3.7072212781,
				"z": -1.0932164559,
				"element": "H" 
			},
			{
				"x": 0.4750183302,
				"y": 3.6982187668,
				"z": -3.1224750913,
				"element": "H" 
			},
			{
				"x": 2.4503670905,
				"y": 2.1638314867,
				"z": -3.2305338445,
				"element": "H" 
			}
		],
		 "valence_orbital": [ 
			{
				"type": "occ",
				"energy": -0.27756,
				"method": "rhf"
			},
			{
				"type": "occ",
				"energy": -0.26876,
				"method": "rhf"
			},
			{
				"type": "occ",
				"energy": -0.26276,
				"method": "rhf"
			},
			{
				"type": "occ",
				"energy": -0.2502,
				"method": "rhf"
			},
			{
				"type": "occ",
				"energy": -0.21314,
				"method": "rhf"
			},
			{
				"type": "unocc",
				"energy": -0.06767,
				"method": "rhf"
			},
			{
				"type": "unocc",
				"energy": -0.02698,
				"method": "rhf"
			},
			{
				"type": "unocc",
				"energy": -0.01911,
				"method": "rhf"
			},
			{
				"type": "unocc",
				"energy": -0.00236,
				"method": "rhf"
			},
			{
				"type": "unocc",
				"energy": 0.03228,
				"method": "rhf"
			}
		],
		"cosmo_sigma_profile": { 
			"-0.025": 0.0,
			"-0.024": 0.0,
			"-0.023": 0.0,
			"-0.022": 0.0,
			"-0.021": 0.0,
			"-0.02": 0.0,
			"-0.019": 0.0,
			"-0.018": 0.0,
			"-0.017": 0.0,
			"-0.016": 0.0,
			"-0.015": 0.0,
			"-0.014": 0.555343731413,
			"-0.013": 1.36178365866,
			"-0.012": 1.88974131626,
			"-0.011": 1.49310124067,
			"-0.01": 2.31418769406,
			"-0.009": 2.70642092074,
			"-0.008": 3.9159701002,
			"-0.007": 12.2586807093,
			"-0.006": 14.7711556547,
			"-0.005": 15.9254780901,
			"-0.004": 13.1811649402,
			"-0.003": 13.5930769656,
			"-0.002": 13.7093723465,
			"-0.001": 16.7598704954,
			"0.0": 17.1802969675,
			"0.001": 20.9387386431,
			"0.002": 24.6229371701,
			"0.003": 30.4750350973,
			"0.004": 21.538185301,
			"0.005": 12.4966660563,
			"0.006": 4.34025970719,
			"0.007": 2.70039226103,
			"0.008": 2.88455288081,
			"0.009": 2.78309221002,
			"0.01": 3.3483173334,
			"0.011": 4.31946646745,
			"0.012": 3.70131198695,
			"0.013": 0.244997978168,
			"0.014": 0.0,
			"0.015": 0.0,
			"0.016": 0.0,
			"0.017": 0.0,
			"0.018": 0.0,
			"0.019": 0.0,
			"0.02": 0.0,
			"0.021": 0.0,
			"0.022": 0.0,
			"0.023": 0.0,
			"0.024": 0.0,
			"0.025": 0.0
		}
	}
}
