{
	 "smiles": "OC(=O)CN1N=C(OC1=O)C1=CC=CC=C1", 
	 "Tm": 470.15, 
	 "num_atms": 24, 
	 "gaussian": { 
		 "optdone": 1, 
		 "sigma_profile": "yes", 
		 "theory": "DFT", 
		 "functional": "B3LYP", 
		 "basiset": "6-31G**", 
		 "properties": { 
			 "R2extent": 4692.7719, 
			 "electric_dipole_moment_norm": 6.71063646236, 
			 "electric_quadrupole_moment_norm": 11.5282895418, 
			 "total_energy": -796.287215847, 
			 "HOMO_LUMO_gap": 0.17194, 
			 "cosmo_polarized_energy": -16.35, 
			 "cosmo_cavitation_energy": 29.89, 
			 "cosmo_dispersion_energy": -21.89, 
			 "cosmo_repulsion_energy": 1.7, 
			 "cosmo_total_nonelectrostatic_energy": 9.7, 
			 "SMD_solvation_energy": 7.21 
		},
		"coords": [
			{
				"x": -1.4799826224,
				"y": -1.9673102944,
				"z": 1.7340761097,
				"element": "O" 
			},
			{
				"x": -2.6992742789,
				"y": -1.4974248501,
				"z": 2.0382116688,
				"element": "C" 
			},
			{
				"x": -3.559011681,
				"y": -2.1913993598,
				"z": 2.5198602933,
				"element": "O" 
			},
			{
				"x": -2.9452589404,
				"y": 0.0077596173,
				"z": 1.8215489878,
				"element": "C" 
			},
			{
				"x": -2.1775076553,
				"y": 0.6173224358,
				"z": 0.7522190071,
				"element": "N" 
			},
			{
				"x": -0.8015584034,
				"y": 0.4920006096,
				"z": 0.6823273557,
				"element": "N" 
			},
			{
				"x": -0.4622968672,
				"y": 1.1934347398,
				"z": -0.3567478264,
				"element": "C" 
			},
			{
				"x": -1.5258524079,
				"y": 1.784685309,
				"z": -0.9675800964,
				"element": "O" 
			},
			{
				"x": -2.6732596967,
				"y": 1.4157008462,
				"z": -0.2469945542,
				"element": "C" 
			},
			{
				"x": -3.7952432735,
				"y": 1.7624179145,
				"z": -0.5044765768,
				"element": "O" 
			},
			{
				"x": 0.8764291461,
				"y": 1.3908544811,
				"z": -0.8960260591,
				"element": "C" 
			},
			{
				"x": 1.9861488598,
				"y": 0.8283837909,
				"z": -0.2424635259,
				"element": "C" 
			},
			{
				"x": 3.2624325867,
				"y": 1.0160038358,
				"z": -0.7617757447,
				"element": "C" 
			},
			{
				"x": 3.4438030052,
				"y": 1.7633996525,
				"z": -1.9300079046,
				"element": "C" 
			},
			{
				"x": 2.3423191115,
				"y": 2.3246156678,
				"z": -2.5788629523,
				"element": "C" 
			},
			{
				"x": 1.0591570504,
				"y": 2.1420231899,
				"z": -2.0675633254,
				"element": "C" 
			},
			{
				"x": -0.9072075413,
				"y": -1.2508149467,
				"z": 1.3889986144,
				"element": "H" 
			},
			{
				"x": -2.7382804243,
				"y": 0.5184367741,
				"z": 2.7710888589,
				"element": "H" 
			},
			{
				"x": -3.9984237674,
				"y": 0.150833133,
				"z": 1.5801516191,
				"element": "H" 
			},
			{
				"x": 1.8394638271,
				"y": 0.2539340718,
				"z": 0.6661211745,
				"element": "H" 
			},
			{
				"x": 4.1182591302,
				"y": 0.5806521936,
				"z": -0.2552716343,
				"element": "H" 
			},
			{
				"x": 4.4422473654,
				"y": 1.9076384877,
				"z": -2.3317416257,
				"element": "H" 
			},
			{
				"x": 2.4811163084,
				"y": 2.905388678,
				"z": -3.48544027,
				"element": "H" 
			},
			{
				"x": 0.199681169,
				"y": 2.5745640225,
				"z": -2.5677515935,
				"element": "H" 
			}
		],
		 "valence_orbital": [ 
			{
				"type": "occ",
				"energy": -0.30905,
				"method": "rhf"
			},
			{
				"type": "occ",
				"energy": -0.3021,
				"method": "rhf"
			},
			{
				"type": "occ",
				"energy": -0.28089,
				"method": "rhf"
			},
			{
				"type": "occ",
				"energy": -0.27905,
				"method": "rhf"
			},
			{
				"type": "occ",
				"energy": -0.24623,
				"method": "rhf"
			},
			{
				"type": "unocc",
				"energy": -0.07429,
				"method": "rhf"
			},
			{
				"type": "unocc",
				"energy": -0.02959,
				"method": "rhf"
			},
			{
				"type": "unocc",
				"energy": 0.00242,
				"method": "rhf"
			},
			{
				"type": "unocc",
				"energy": 0.02168,
				"method": "rhf"
			},
			{
				"type": "unocc",
				"energy": 0.02663,
				"method": "rhf"
			}
		],
		"cosmo_sigma_profile": { 
			"-0.025": 0.0,
			"-0.024": 0.0,
			"-0.023": 0.0,
			"-0.022": 0.0,
			"-0.021": 0.0,
			"-0.02": 0.0,
			"-0.019": 0.0,
			"-0.018": 0.0,
			"-0.017": 0.0,
			"-0.016": 0.0,
			"-0.015": 0.0,
			"-0.014": 0.0,
			"-0.013": 0.0,
			"-0.012": 0.0,
			"-0.011": 0.0159114965445,
			"-0.01": 2.39906596518,
			"-0.009": 4.52552257385,
			"-0.008": 6.79409253583,
			"-0.007": 15.2978278887,
			"-0.006": 19.893483906,
			"-0.005": 17.7339178517,
			"-0.004": 15.9267364859,
			"-0.003": 14.2924453541,
			"-0.002": 14.1113343613,
			"-0.001": 13.8723597585,
			"0.0": 13.4995843518,
			"0.001": 11.999200213,
			"0.002": 13.7613848202,
			"0.003": 16.2975423615,
			"0.004": 10.5700945325,
			"0.005": 5.57845332822,
			"0.006": 4.01676793907,
			"0.007": 4.5872604389,
			"0.008": 3.6335794628,
			"0.009": 5.9706837931,
			"0.01": 8.37727408305,
			"0.011": 12.2311734423,
			"0.012": 4.89237256607,
			"0.013": 0.57041082992,
			"0.014": 0.0,
			"0.015": 0.0,
			"0.016": 0.0,
			"0.017": 0.0,
			"0.018": 0.0,
			"0.019": 0.0,
			"0.02": 0.0,
			"0.021": 0.0,
			"0.022": 0.0,
			"0.023": 0.0,
			"0.024": 0.0,
			"0.025": 0.0
		}
	}
}
