{
	 "smiles": "N#CCCN1CCN(CCC#N)CC1", 
	 "Tm": 338.15, 
	 "num_atms": 30, 
	 "gaussian": { 
		 "optdone": 1, 
		 "sigma_profile": "yes", 
		 "theory": "DFT", 
		 "functional": "B3LYP", 
		 "basiset": "6-31G**", 
		 "properties": { 
			 "R2extent": 4787.0126, 
			 "electric_dipole_moment_norm": 2.36013522706, 
			 "electric_quadrupole_moment_norm": 46.7351215383, 
			 "total_energy": -609.658481744, 
			 "HOMO_LUMO_gap": 0.24944, 
			 "cosmo_polarized_energy": -19.73, 
			 "cosmo_cavitation_energy": 33.18, 
			 "cosmo_dispersion_energy": -22.31, 
			 "cosmo_repulsion_energy": 1.78, 
			 "cosmo_total_nonelectrostatic_energy": 12.66, 
			 "SMD_solvation_energy": 4.32 
		},
		"coords": [
			{
				"x": -2.6549966473,
				"y": -2.8254769231,
				"z": -3.5478138494,
				"element": "N" 
			},
			{
				"x": -2.6921706644,
				"y": -2.9551315055,
				"z": -2.3952476946,
				"element": "C" 
			},
			{
				"x": -2.7593667927,
				"y": -3.1300920119,
				"z": -0.9417165726,
				"element": "C" 
			},
			{
				"x": -3.101589344,
				"y": -1.8216558985,
				"z": -0.1984045701,
				"element": "C" 
			},
			{
				"x": -2.1158217519,
				"y": -0.7735046122,
				"z": -0.4196543597,
				"element": "N" 
			},
			{
				"x": -0.8848649964,
				"y": -0.9650082017,
				"z": 0.3508547754,
				"element": "C" 
			},
			{
				"x": 0.1529299412,
				"y": 0.1017985853,
				"z": -0.0331632494,
				"element": "C" 
			},
			{
				"x": -0.3383258955,
				"y": 1.4749701119,
				"z": 0.1192816713,
				"element": "N" 
			},
			{
				"x": -0.3176611285,
				"y": 1.9808285094,
				"z": 1.4888449316,
				"element": "C" 
			},
			{
				"x": 1.0784885325,
				"y": 2.5605788288,
				"z": 1.8205662038,
				"element": "C" 
			},
			{
				"x": 1.1547545461,
				"y": 3.0751168851,
				"z": 3.1894720412,
				"element": "C" 
			},
			{
				"x": 1.18662955,
				"y": 3.4762072107,
				"z": 4.2783922886,
				"element": "N" 
			},
			{
				"x": -1.6125435304,
				"y": 1.622972005,
				"z": -0.5897557783,
				"element": "C" 
			},
			{
				"x": -2.6597380383,
				"y": 0.5701292257,
				"z": -0.2016634295,
				"element": "C" 
			},
			{
				"x": -3.521489293,
				"y": -3.8848788769,
				"z": -0.7150795157,
				"element": "H" 
			},
			{
				"x": -1.8041136234,
				"y": -3.5400037109,
				"z": -0.5963567139,
				"element": "H" 
			},
			{
				"x": -4.0686631048,
				"y": -1.462914073,
				"z": -0.5643563442,
				"element": "H" 
			},
			{
				"x": -3.233228343,
				"y": -2.0635343336,
				"z": 0.8734933682,
				"element": "H" 
			},
			{
				"x": -0.4665674728,
				"y": -1.9539608132,
				"z": 0.1344997486,
				"element": "H" 
			},
			{
				"x": -1.0852272229,
				"y": -0.9325205648,
				"z": 1.4411141088,
				"element": "H" 
			},
			{
				"x": 0.4288283572,
				"y": -0.0462959143,
				"z": -1.0841301884,
				"element": "H" 
			},
			{
				"x": 1.0600917926,
				"y": -0.0333578883,
				"z": 0.5650745279,
				"element": "H" 
			},
			{
				"x": -0.5824312211,
				"y": 1.2294853917,
				"z": 2.249758073,
				"element": "H" 
			},
			{
				"x": -1.0539466103,
				"y": 2.7850002903,
				"z": 1.5786960991,
				"element": "H" 
			},
			{
				"x": 1.8505998484,
				"y": 1.7930918987,
				"z": 1.6953851884,
				"element": "H" 
			},
			{
				"x": 1.3122308226,
				"y": 3.3643387708,
				"z": 1.1149419612,
				"element": "H" 
			},
			{
				"x": -2.0065861375,
				"y": 2.6294930485,
				"z": -0.4163287595,
				"element": "H" 
			},
			{
				"x": -1.4110461307,
				"y": 1.5244132101,
				"z": -1.6636769143,
				"element": "H" 
			},
			{
				"x": -2.9760078706,
				"y": 0.7213670091,
				"z": 0.850353821,
				"element": "H" 
			},
			{
				"x": -3.5492675711,
				"y": 0.6935443469,
				"z": -0.8296808686,
				"element": "H" 
			}
		],
		 "valence_orbital": [ 
			{
				"type": "occ",
				"energy": -0.32306,
				"method": "rhf"
			},
			{
				"type": "occ",
				"energy": -0.32235,
				"method": "rhf"
			},
			{
				"type": "occ",
				"energy": -0.32148,
				"method": "rhf"
			},
			{
				"type": "occ",
				"energy": -0.24353,
				"method": "rhf"
			},
			{
				"type": "occ",
				"energy": -0.22028,
				"method": "rhf"
			},
			{
				"type": "unocc",
				"energy": 0.02916,
				"method": "rhf"
			},
			{
				"type": "unocc",
				"energy": 0.03209,
				"method": "rhf"
			},
			{
				"type": "unocc",
				"energy": 0.03754,
				"method": "rhf"
			},
			{
				"type": "unocc",
				"energy": 0.0389,
				"method": "rhf"
			},
			{
				"type": "unocc",
				"energy": 0.06295,
				"method": "rhf"
			}
		],
		"cosmo_sigma_profile": { 
			"-0.025": 0.0,
			"-0.024": 0.0,
			"-0.023": 0.0,
			"-0.022": 0.0,
			"-0.021": 0.0,
			"-0.02": 0.0,
			"-0.019": 0.0,
			"-0.018": 0.0,
			"-0.017": 0.0,
			"-0.016": 0.0,
			"-0.015": 0.0,
			"-0.014": 0.0,
			"-0.013": 0.0,
			"-0.012": 0.0,
			"-0.011": 0.0,
			"-0.01": 0.0,
			"-0.009": 0.194048542452,
			"-0.008": 7.63740116312,
			"-0.007": 12.128891249,
			"-0.006": 14.7544465189,
			"-0.005": 24.2258465489,
			"-0.004": 28.3242835626,
			"-0.003": 29.3611639504,
			"-0.002": 31.215025048,
			"-0.001": 19.0394123317,
			"0.0": 8.9656300867,
			"0.001": 4.64826469278,
			"0.002": 5.33614247284,
			"0.003": 4.7994361943,
			"0.004": 6.07964445935,
			"0.005": 4.91436789891,
			"0.006": 6.57802981333,
			"0.007": 6.85581853232,
			"0.008": 8.31423726054,
			"0.009": 8.972664647,
			"0.01": 7.79608783151,
			"0.011": 7.88854433996,
			"0.012": 6.11301133273,
			"0.013": 4.96107922103,
			"0.014": 1.62680922055,
			"0.015": 0.0,
			"0.016": 0.0,
			"0.017": 0.0,
			"0.018": 0.0,
			"0.019": 0.0,
			"0.02": 0.0,
			"0.021": 0.0,
			"0.022": 0.0,
			"0.023": 0.0,
			"0.024": 0.0,
			"0.025": 0.0
		}
	}
}
