{
	 "smiles": "CC1=C(O)C(CN(CC(O)=O)CC(O)=O)=CC(=C1)C1(OS(=O)(=O)C2=CC=CC=C12)C1=CC(C)=C(O)C(CN(CC(O)=O)CC(O)=O)=C1", 
	 "Tm": 495.15, 
	 "num_atms": 79, 
	 "gaussian": { 
		 "optdone": 1, 
		 "sigma_profile": "yes", 
		 "theory": "DFT", 
		 "functional": "B3LYP", 
		 "basiset": "6-31G**", 
		 "properties": { 
			 "R2extent": 37721.5377, 
			 "electric_dipole_moment_norm": 10.1799603108, 
			 "electric_quadrupole_moment_norm": 83.1499875018, 
			 "total_energy": -2686.13446082, 
			 "HOMO_LUMO_gap": 0.16962, 
			 "cosmo_polarized_energy": -62.26, 
			 "cosmo_cavitation_energy": 81.3, 
			 "cosmo_dispersion_energy": -51.16, 
			 "cosmo_repulsion_energy": 3.84, 
			 "cosmo_total_nonelectrostatic_energy": 33.98, 
			 "SMD_solvation_energy": 14.98 
		},
		"coords": [
			{
				"x": 1.8547496584,
				"y": -1.9755808384,
				"z": -3.1705812128,
				"element": "C" 
			},
			{
				"x": 0.7075296048,
				"y": -1.0480238597,
				"z": -2.8419072394,
				"element": "C" 
			},
			{
				"x": -0.3764577376,
				"y": -0.9181408317,
				"z": -3.7283293381,
				"element": "C" 
			},
			{
				"x": -0.4324874619,
				"y": -1.6278492575,
				"z": -4.9021429365,
				"element": "O" 
			},
			{
				"x": -1.4410967799,
				"y": -0.0453948861,
				"z": -3.456095411,
				"element": "C" 
			},
			{
				"x": -2.6332155888,
				"y": 0.1213310983,
				"z": -4.3903407934,
				"element": "C" 
			},
			{
				"x": -3.6736855012,
				"y": -0.9278784114,
				"z": -4.3587406959,
				"element": "N" 
			},
			{
				"x": -4.0232067444,
				"y": -1.476231288,
				"z": -3.0528035812,
				"element": "C" 
			},
			{
				"x": -4.3374996931,
				"y": -0.5030784838,
				"z": -1.9268663003,
				"element": "C" 
			},
			{
				"x": -4.6852687499,
				"y": 0.7315325278,
				"z": -2.3232366981,
				"element": "O" 
			},
			{
				"x": -4.2859658286,
				"y": -0.8440749244,
				"z": -0.762278322,
				"element": "O" 
			},
			{
				"x": -3.5205615889,
				"y": -1.9721963668,
				"z": -5.3477989557,
				"element": "C" 
			},
			{
				"x": -4.8392508102,
				"y": -2.6378450725,
				"z": -5.7554812385,
				"element": "C" 
			},
			{
				"x": -4.6969849299,
				"y": -3.5735930332,
				"z": -6.7370159563,
				"element": "O" 
			},
			{
				"x": -5.9243099799,
				"y": -2.4198343341,
				"z": -5.2836368061,
				"element": "O" 
			},
			{
				"x": -1.3969389421,
				"y": 0.6958333584,
				"z": -2.2740826323,
				"element": "C" 
			},
			{
				"x": -0.3508156958,
				"y": 0.57524323,
				"z": -1.3571607963,
				"element": "C" 
			},
			{
				"x": 0.6974577232,
				"y": -0.2991456752,
				"z": -1.660345581,
				"element": "C" 
			},
			{
				"x": -0.4246678056,
				"y": 1.2913351653,
				"z": -0.0027014316,
				"element": "C" 
			},
			{
				"x": -1.2977049127,
				"y": 2.4818469381,
				"z": -0.1856770849,
				"element": "O" 
			},
			{
				"x": -2.6789800531,
				"y": 2.5051288703,
				"z": 0.7057751527,
				"element": "S" 
			},
			{
				"x": -2.6068963424,
				"y": 3.5751582011,
				"z": 1.6927339453,
				"element": "O" 
			},
			{
				"x": -3.8229942589,
				"y": 2.4931025286,
				"z": -0.2149582816,
				"element": "O" 
			},
			{
				"x": -2.3871675848,
				"y": 0.9122925176,
				"z": 1.4241005174,
				"element": "C" 
			},
			{
				"x": -3.2404011591,
				"y": 0.2351816248,
				"z": 2.2913817128,
				"element": "C" 
			},
			{
				"x": -2.8310738595,
				"y": -1.0144040482,
				"z": 2.7486206612,
				"element": "C" 
			},
			{
				"x": -1.6064114871,
				"y": -1.5520773914,
				"z": 2.3305536782,
				"element": "C" 
			},
			{
				"x": -0.7753920248,
				"y": -0.8567699936,
				"z": 1.4524103564,
				"element": "C" 
			},
			{
				"x": -1.1726721103,
				"y": 0.4010725548,
				"z": 0.9929464297,
				"element": "C" 
			},
			{
				"x": 0.9118507469,
				"y": 1.8175330694,
				"z": 0.5039173079,
				"element": "C" 
			},
			{
				"x": 1.7869783832,
				"y": 2.4553036211,
				"z": -0.3910092382,
				"element": "C" 
			},
			{
				"x": 2.9823243691,
				"y": 3.0330896187,
				"z": 0.0245386009,
				"element": "C" 
			},
			{
				"x": 3.9239182097,
				"y": 3.7083941442,
				"z": -0.9384514961,
				"element": "C" 
			},
			{
				"x": 3.3133537261,
				"y": 2.9873227412,
				"z": 1.3963397976,
				"element": "C" 
			},
			{
				"x": 4.4853580441,
				"y": 3.5512428187,
				"z": 1.7637971591,
				"element": "O" 
			},
			{
				"x": 2.4388065997,
				"y": 2.379597595,
				"z": 2.3214632682,
				"element": "C" 
			},
			{
				"x": 2.7250115147,
				"y": 2.4451397031,
				"z": 3.8069768073,
				"element": "C" 
			},
			{
				"x": 4.1361950751,
				"y": 2.1407360915,
				"z": 4.1319723841,
				"element": "N" 
			},
			{
				"x": 4.4964021974,
				"y": 2.5250163551,
				"z": 5.4955384962,
				"element": "C" 
			},
			{
				"x": 4.5733430602,
				"y": 4.0246483572,
				"z": 5.7393115454,
				"element": "C" 
			},
			{
				"x": 4.794078266,
				"y": 4.7316479066,
				"z": 4.610505557,
				"element": "O" 
			},
			{
				"x": 4.4898497771,
				"y": 4.525736269,
				"z": 6.836333361,
				"element": "O" 
			},
			{
				"x": 4.4776919576,
				"y": 0.757985388,
				"z": 3.834211003,
				"element": "C" 
			},
			{
				"x": 5.9841549184,
				"y": 0.5257874804,
				"z": 3.7058528001,
				"element": "C" 
			},
			{
				"x": 6.3292134031,
				"y": -0.7506709175,
				"z": 3.3998564031,
				"element": "O" 
			},
			{
				"x": 6.8296881437,
				"y": 1.3676036741,
				"z": 3.8641224572,
				"element": "O" 
			},
			{
				"x": 1.2557379113,
				"y": 1.7957677819,
				"z": 1.8571095724,
				"element": "C" 
			},
			{
				"x": 1.5263726363,
				"y": -3.0185261947,
				"z": -3.2786826655,
				"element": "H" 
			},
			{
				"x": 2.6085457249,
				"y": -1.9579871755,
				"z": -2.3801959861,
				"element": "H" 
			},
			{
				"x": 2.365010242,
				"y": -1.690632868,
				"z": -4.1013230469,
				"element": "H" 
			},
			{
				"x": 0.3779299856,
				"y": -2.1421456941,
				"z": -5.0053021867,
				"element": "H" 
			},
			{
				"x": -3.1147196503,
				"y": 1.0684412697,
				"z": -4.1378052416,
				"element": "H" 
			},
			{
				"x": -2.2849602237,
				"y": 0.1978570334,
				"z": -5.4241552578,
				"element": "H" 
			},
			{
				"x": -3.2453937854,
				"y": -2.1418930715,
				"z": -2.6409703641,
				"element": "H" 
			},
			{
				"x": -4.9279271609,
				"y": -2.0795115359,
				"z": -3.1832361434,
				"element": "H" 
			},
			{
				"x": -4.7158640209,
				"y": 1.2923184216,
				"z": -1.5201582399,
				"element": "H" 
			},
			{
				"x": -2.8261609303,
				"y": -2.781992919,
				"z": -5.0430066146,
				"element": "H" 
			},
			{
				"x": -3.085329064,
				"y": -1.5369413253,
				"z": -6.2545313118,
				"element": "H" 
			},
			{
				"x": -3.7706590811,
				"y": -3.6336300263,
				"z": -7.0128394067,
				"element": "H" 
			},
			{
				"x": -2.2054528478,
				"y": 1.3859514413,
				"z": -2.0715607799,
				"element": "H" 
			},
			{
				"x": 1.5367950554,
				"y": -0.3959038482,
				"z": -0.9777829355,
				"element": "H" 
			},
			{
				"x": -4.1916100322,
				"y": 0.6627775968,
				"z": 2.5890417758,
				"element": "H" 
			},
			{
				"x": -3.4692183395,
				"y": -1.5783759666,
				"z": 3.4210850761,
				"element": "H" 
			},
			{
				"x": -1.3040294045,
				"y": -2.5321088163,
				"z": 2.6874914281,
				"element": "H" 
			},
			{
				"x": 0.1615457383,
				"y": -1.2912696743,
				"z": 1.1198273208,
				"element": "H" 
			},
			{
				"x": 1.5268346083,
				"y": 2.5002448026,
				"z": -1.444167942,
				"element": "H" 
			},
			{
				"x": 3.5483040042,
				"y": 3.6460374106,
				"z": -1.9629333395,
				"element": "H" 
			},
			{
				"x": 4.0581021217,
				"y": 4.7651580029,
				"z": -0.6831079466,
				"element": "H" 
			},
			{
				"x": 4.9199801468,
				"y": 3.2540715708,
				"z": -0.9009421868,
				"element": "H" 
			},
			{
				"x": 4.6824454302,
				"y": 3.3036154339,
				"z": 2.694863708,
				"element": "H" 
			},
			{
				"x": 2.0308203183,
				"y": 1.785571134,
				"z": 4.3550084478,
				"element": "H" 
			},
			{
				"x": 2.5380177668,
				"y": 3.464599041,
				"z": 4.1635110742,
				"element": "H" 
			},
			{
				"x": 5.5011207278,
				"y": 2.1461799672,
				"z": 5.7045603418,
				"element": "H" 
			},
			{
				"x": 3.8149460906,
				"y": 2.112216269,
				"z": 6.256169455,
				"element": "H" 
			},
			{
				"x": 4.8649590425,
				"y": 5.665115361,
				"z": 4.8732785842,
				"element": "H" 
			},
			{
				"x": 4.0780682876,
				"y": 0.0480688789,
				"z": 4.585279969,
				"element": "H" 
			},
			{
				"x": 4.0122003904,
				"y": 0.4933468496,
				"z": 2.8771544409,
				"element": "H" 
			},
			{
				"x": 5.542726545,
				"y": -1.307143698,
				"z": 3.3013481128,
				"element": "H" 
			},
			{
				"x": 0.5887140188,
				"y": 1.337270712,
				"z": 2.5807549139,
				"element": "H" 
			}
		],
		 "valence_orbital": [ 
			{
				"type": "occ",
				"energy": -0.25866,
				"method": "rhf"
			},
			{
				"type": "occ",
				"energy": -0.25321,
				"method": "rhf"
			},
			{
				"type": "occ",
				"energy": -0.2341,
				"method": "rhf"
			},
			{
				"type": "occ",
				"energy": -0.22445,
				"method": "rhf"
			},
			{
				"type": "occ",
				"energy": -0.21552,
				"method": "rhf"
			},
			{
				"type": "unocc",
				"energy": -0.0459,
				"method": "rhf"
			},
			{
				"type": "unocc",
				"energy": -0.03828,
				"method": "rhf"
			},
			{
				"type": "unocc",
				"energy": -0.02603,
				"method": "rhf"
			},
			{
				"type": "unocc",
				"energy": -0.0183,
				"method": "rhf"
			},
			{
				"type": "unocc",
				"energy": -0.01567,
				"method": "rhf"
			}
		],
		"cosmo_sigma_profile": { 
			"-0.025": 0.0,
			"-0.024": 0.0,
			"-0.023": 0.0,
			"-0.022": 0.0,
			"-0.021": 0.0,
			"-0.02": 0.368871235977,
			"-0.019": 2.45106900113,
			"-0.018": 3.06252982443,
			"-0.017": 3.75398872416,
			"-0.016": 2.70267729402,
			"-0.015": 4.85330049751,
			"-0.014": 3.64658415249,
			"-0.013": 3.34415046846,
			"-0.012": 4.34555155395,
			"-0.011": 5.06457377067,
			"-0.01": 4.5027507584,
			"-0.009": 7.13268329679,
			"-0.008": 13.2808974205,
			"-0.007": 27.0554651226,
			"-0.006": 35.5267168974,
			"-0.005": 37.9361823518,
			"-0.004": 38.5884148395,
			"-0.003": 39.0495943898,
			"-0.002": 36.3309940916,
			"-0.001": 38.430261797,
			"0.0": 39.255160785,
			"0.001": 37.2159547789,
			"0.002": 34.3517765244,
			"0.003": 31.683174094,
			"0.004": 30.1275152074,
			"0.005": 21.227017731,
			"0.006": 18.8341841731,
			"0.007": 16.7114607006,
			"0.008": 18.2715335112,
			"0.009": 22.2496023703,
			"0.01": 24.2987506731,
			"0.011": 21.8708058935,
			"0.012": 11.9928254466,
			"0.013": 3.008507038,
			"0.014": 0.734964666011,
			"0.015": 0.1210636926,
			"0.016": 0.0,
			"0.017": 0.0,
			"0.018": 0.0,
			"0.019": 0.0,
			"0.02": 0.0,
			"0.021": 0.0,
			"0.022": 0.0,
			"0.023": 0.0,
			"0.024": 0.0,
			"0.025": 0.0
		}
	}
}
