{
	 "smiles": "CSC1=NC2=CC=C(N)C=C2S1", 
	 "Tm": 379.15, 
	 "num_atms": 20, 
	 "gaussian": { 
		 "optdone": 1, 
		 "sigma_profile": "yes", 
		 "theory": "DFT", 
		 "functional": "B3LYP", 
		 "basiset": "6-31G**", 
		 "properties": { 
			 "R2extent": 3437.057, 
			 "electric_dipole_moment_norm": 2.40714553361, 
			 "electric_quadrupole_moment_norm": 16.9223818929, 
			 "total_energy": -1215.5597012, 
			 "HOMO_LUMO_gap": 0.17404, 
			 "cosmo_polarized_energy": -11.06, 
			 "cosmo_cavitation_energy": 27.23, 
			 "cosmo_dispersion_energy": -21.33, 
			 "cosmo_repulsion_energy": 1.61, 
			 "cosmo_total_nonelectrostatic_energy": 7.51, 
			 "SMD_solvation_energy": 2.81 
		},
		"coords": [
			{
				"x": -3.7328125469,
				"y": 2.4544230138,
				"z": 0.1046694449,
				"element": "C" 
			},
			{
				"x": -3.986452528,
				"y": 0.6463186591,
				"z": 0.0788563424,
				"element": "S" 
			},
			{
				"x": -2.3060295595,
				"y": 0.1159481299,
				"z": 0.1161029214,
				"element": "C" 
			},
			{
				"x": -1.2749229357,
				"y": 0.8918358103,
				"z": 0.1538518613,
				"element": "N" 
			},
			{
				"x": -0.0971655212,
				"y": 0.1545381088,
				"z": 0.1745389419,
				"element": "C" 
			},
			{
				"x": 1.1982209895,
				"y": 0.6863927184,
				"z": 0.2180516537,
				"element": "C" 
			},
			{
				"x": 2.2910559406,
				"y": -0.1678565402,
				"z": 0.2381097952,
				"element": "C" 
			},
			{
				"x": 2.1288903528,
				"y": -1.5723308524,
				"z": 0.2165208735,
				"element": "C" 
			},
			{
				"x": 3.2510204368,
				"y": -2.4045675562,
				"z": 0.1788491877,
				"element": "N" 
			},
			{
				"x": 0.8369088001,
				"y": -2.1181940032,
				"z": 0.1734174476,
				"element": "C" 
			},
			{
				"x": -0.2527765406,
				"y": -1.2508160025,
				"z": 0.1514781799,
				"element": "C" 
			},
			{
				"x": -1.9664516687,
				"y": -1.6416394429,
				"z": 0.1009826121,
				"element": "S" 
			},
			{
				"x": -4.7311599105,
				"y": 2.8957404676,
				"z": 0.0837788403,
				"element": "H" 
			},
			{
				"x": -3.1614019869,
				"y": 2.7681958567,
				"z": -0.7690725251,
				"element": "H" 
			},
			{
				"x": -3.2069763117,
				"y": 2.7493352819,
				"z": 1.0129090685,
				"element": "H" 
			},
			{
				"x": 1.330836589,
				"y": 1.7631987297,
				"z": 0.2373831427,
				"element": "H" 
			},
			{
				"x": 3.2963492228,
				"y": 0.2444182559,
				"z": 0.265382301,
				"element": "H" 
			},
			{
				"x": 3.0972345211,
				"y": -3.3475769024,
				"z": 0.5088407488,
				"element": "H" 
			},
			{
				"x": 4.0915024161,
				"y": -2.0043907497,
				"z": 0.5727873346,
				"element": "H" 
			},
			{
				"x": 0.699930241,
				"y": -3.1953729828,
				"z": 0.1514618275,
				"element": "H" 
			}
		],
		 "valence_orbital": [ 
			{
				"type": "occ",
				"energy": -0.29665,
				"method": "rhf"
			},
			{
				"type": "occ",
				"energy": -0.27359,
				"method": "rhf"
			},
			{
				"type": "occ",
				"energy": -0.25113,
				"method": "rhf"
			},
			{
				"type": "occ",
				"energy": -0.22827,
				"method": "rhf"
			},
			{
				"type": "occ",
				"energy": -0.19223,
				"method": "rhf"
			},
			{
				"type": "unocc",
				"energy": -0.01819,
				"method": "rhf"
			},
			{
				"type": "unocc",
				"energy": -0.00208,
				"method": "rhf"
			},
			{
				"type": "unocc",
				"energy": 0.00303,
				"method": "rhf"
			},
			{
				"type": "unocc",
				"energy": 0.03549,
				"method": "rhf"
			},
			{
				"type": "unocc",
				"energy": 0.04652,
				"method": "rhf"
			}
		],
		"cosmo_sigma_profile": { 
			"-0.025": 0.0,
			"-0.024": 0.0,
			"-0.023": 0.0,
			"-0.022": 0.0,
			"-0.021": 0.0,
			"-0.02": 0.0,
			"-0.019": 0.0,
			"-0.018": 0.0,
			"-0.017": 0.0,
			"-0.016": 0.0,
			"-0.015": 0.0,
			"-0.014": 0.0,
			"-0.013": 0.573605616057,
			"-0.012": 2.93587075776,
			"-0.011": 2.97561425156,
			"-0.01": 3.20310974983,
			"-0.009": 3.46603846339,
			"-0.008": 3.70987090626,
			"-0.007": 7.23147308572,
			"-0.006": 10.9996723648,
			"-0.005": 11.0628025997,
			"-0.004": 11.1762862875,
			"-0.003": 13.2428758985,
			"-0.002": 13.9338016665,
			"-0.001": 12.6143657298,
			"0.0": 11.7566906021,
			"0.001": 15.580670845,
			"0.002": 18.2301459124,
			"0.003": 19.0254563002,
			"0.004": 19.6063281543,
			"0.005": 17.6768142688,
			"0.006": 7.8208612381,
			"0.007": 4.88548355746,
			"0.008": 2.34524008893,
			"0.009": 1.70764723324,
			"0.01": 1.52362502325,
			"0.011": 1.54577332137,
			"0.012": 1.35017142759,
			"0.013": 0.892129349059,
			"0.014": 0.495975480017,
			"0.015": 0.105215105716,
			"0.016": 0.0,
			"0.017": 0.0,
			"0.018": 0.0,
			"0.019": 0.0,
			"0.02": 0.0,
			"0.021": 0.0,
			"0.022": 0.0,
			"0.023": 0.0,
			"0.024": 0.0,
			"0.025": 0.0
		}
	}
}
