{
	 "smiles": "OC(=O)C1CC2COCC(C1)C2=O", 
	 "Tm": 470.15, 
	 "num_atms": 25, 
	 "gaussian": { 
		 "optdone": 1, 
		 "sigma_profile": "yes", 
		 "theory": "DFT", 
		 "functional": "B3LYP", 
		 "basiset": "6-31G**", 
		 "properties": { 
			 "R2extent": 2367.138, 
			 "electric_dipole_moment_norm": 4.07292748033, 
			 "electric_quadrupole_moment_norm": 27.6701300232, 
			 "total_energy": -651.077759481, 
			 "HOMO_LUMO_gap": 0.21179, 
			 "cosmo_polarized_energy": -18.73, 
			 "cosmo_cavitation_energy": 25.63, 
			 "cosmo_dispersion_energy": -19.21, 
			 "cosmo_repulsion_energy": 1.5, 
			 "cosmo_total_nonelectrostatic_energy": 7.92, 
			 "SMD_solvation_energy": 5.4 
		},
		"coords": [
			{
				"x": 2.6349256531,
				"y": -0.1704625355,
				"z": -0.7890797776,
				"element": "O" 
			},
			{
				"x": 2.7753697343,
				"y": 0.4175152107,
				"z": 0.4085071519,
				"element": "C" 
			},
			{
				"x": 3.8093587215,
				"y": 0.9736294977,
				"z": 0.7060430728,
				"element": "O" 
			},
			{
				"x": 1.5953839977,
				"y": 0.3737477326,
				"z": 1.4024285985,
				"element": "C" 
			},
			{
				"x": 0.3452016666,
				"y": 1.1941572014,
				"z": 0.939844655,
				"element": "C" 
			},
			{
				"x": -0.9076519687,
				"y": 0.3976653596,
				"z": 0.4842981661,
				"element": "C" 
			},
			{
				"x": -0.7912929757,
				"y": -0.2365381855,
				"z": -0.9166633438,
				"element": "C" 
			},
			{
				"x": 0.2269198913,
				"y": -1.2410658533,
				"z": -0.9717841955,
				"element": "O" 
			},
			{
				"x": 0.0509865116,
				"y": -2.2849574827,
				"z": -0.0084044508,
				"element": "C" 
			},
			{
				"x": -0.0290847661,
				"y": -1.7401094431,
				"z": 1.432199349,
				"element": "C" 
			},
			{
				"x": 1.2713232919,
				"y": -1.0600363401,
				"z": 1.9400161475,
				"element": "C" 
			},
			{
				"x": -1.1619430932,
				"y": -0.7262387579,
				"z": 1.4767849654,
				"element": "C" 
			},
			{
				"x": -2.1362446265,
				"y": -0.8071505645,
				"z": 2.19731015,
				"element": "O" 
			},
			{
				"x": 1.7449350747,
				"y": -0.5823108439,
				"z": -0.8930124273,
				"element": "H" 
			},
			{
				"x": 2.020042758,
				"y": 0.9220035117,
				"z": 2.2450082876,
				"element": "H" 
			},
			{
				"x": 0.6306807045,
				"y": 1.9020353424,
				"z": 0.152616991,
				"element": "H" 
			},
			{
				"x": 0.024934278,
				"y": 1.8060593052,
				"z": 1.7890459763,
				"element": "H" 
			},
			{
				"x": -1.7743699762,
				"y": 1.0669961529,
				"z": 0.4819132941,
				"element": "H" 
			},
			{
				"x": -0.5157841581,
				"y": 0.5105077679,
				"z": -1.666483039,
				"element": "H" 
			},
			{
				"x": -1.7527003676,
				"y": -0.6832319581,
				"z": -1.2081344601,
				"element": "H" 
			},
			{
				"x": -0.8634418574,
				"y": -2.8457490094,
				"z": -0.2494906061,
				"element": "H" 
			},
			{
				"x": 0.9084161795,
				"y": -2.9528229396,
				"z": -0.1308003278,
				"element": "H" 
			},
			{
				"x": -0.2779950765,
				"y": -2.5744880131,
				"z": 2.0963146385,
				"element": "H" 
			},
			{
				"x": 1.1710874612,
				"y": -0.9849740207,
				"z": 3.0274221799,
				"element": "H" 
			},
			{
				"x": 2.1225429422,
				"y": -1.7284811347,
				"z": 1.7640990044,
				"element": "H" 
			}
		],
		 "valence_orbital": [ 
			{
				"type": "occ",
				"energy": -0.32643,
				"method": "rhf"
			},
			{
				"type": "occ",
				"energy": -0.3008,
				"method": "rhf"
			},
			{
				"type": "occ",
				"energy": -0.29573,
				"method": "rhf"
			},
			{
				"type": "occ",
				"energy": -0.25684,
				"method": "rhf"
			},
			{
				"type": "occ",
				"energy": -0.25115,
				"method": "rhf"
			},
			{
				"type": "unocc",
				"energy": -0.03936,
				"method": "rhf"
			},
			{
				"type": "unocc",
				"energy": 0.02169,
				"method": "rhf"
			},
			{
				"type": "unocc",
				"energy": 0.04873,
				"method": "rhf"
			},
			{
				"type": "unocc",
				"energy": 0.07348,
				"method": "rhf"
			},
			{
				"type": "unocc",
				"energy": 0.09067,
				"method": "rhf"
			}
		],
		"cosmo_sigma_profile": { 
			"-0.025": 0.0,
			"-0.024": 0.0,
			"-0.023": 0.0,
			"-0.022": 0.0,
			"-0.021": 0.0,
			"-0.02": 0.0,
			"-0.019": 0.0,
			"-0.018": 0.0,
			"-0.017": 0.0,
			"-0.016": 0.0,
			"-0.015": 0.0,
			"-0.014": 0.0,
			"-0.013": 0.0,
			"-0.012": 0.0,
			"-0.011": 0.0,
			"-0.01": 0.0,
			"-0.009": 0.288383668773,
			"-0.008": 1.99235696413,
			"-0.007": 10.7094210541,
			"-0.006": 28.1283603666,
			"-0.005": 34.5156713575,
			"-0.004": 18.7786151149,
			"-0.003": 14.527613084,
			"-0.002": 11.0191560826,
			"-0.001": 6.51403956533,
			"0.0": 4.16408238874,
			"0.001": 4.20829889224,
			"0.002": 3.78804853535,
			"0.003": 3.43800359685,
			"0.004": 3.75803233508,
			"0.005": 4.05924784607,
			"0.006": 3.91596317609,
			"0.007": 3.77644176856,
			"0.008": 4.0379572574,
			"0.009": 4.56264493564,
			"0.01": 5.57469986613,
			"0.011": 8.62823797223,
			"0.012": 9.70626766827,
			"0.013": 7.56737514947,
			"0.014": 2.16719618699,
			"0.015": 0.181306269978,
			"0.016": 0.0,
			"0.017": 0.0,
			"0.018": 0.0,
			"0.019": 0.0,
			"0.02": 0.0,
			"0.021": 0.0,
			"0.022": 0.0,
			"0.023": 0.0,
			"0.024": 0.0,
			"0.025": 0.0
		}
	}
}
