{
	 "smiles": "COC1=CC=C(OC)C(C=CC(=O)N2C=NC3=C2N=CN=C3N)=C1", 
	 "Tm": 534.15, 
	 "num_atms": 39, 
	 "gaussian": { 
		 "optdone": 1, 
		 "sigma_profile": "yes", 
		 "theory": "DFT", 
		 "functional": "B3LYP", 
		 "basiset": "6-31G**", 
		 "properties": { 
			 "R2extent": 12111.4997, 
			 "electric_dipole_moment_norm": 4.55866092071, 
			 "electric_quadrupole_moment_norm": 30.1468459916, 
			 "total_energy": -1118.16203123, 
			 "HOMO_LUMO_gap": 0.134, 
			 "cosmo_polarized_energy": -19.37, 
			 "cosmo_cavitation_energy": 44.53, 
			 "cosmo_dispersion_energy": -31.68, 
			 "cosmo_repulsion_energy": 2.32, 
			 "cosmo_total_nonelectrostatic_energy": 15.17, 
			 "SMD_solvation_energy": 6.16 
		},
		"coords": [
			{
				"x": -1.2184232333,
				"y": 1.468280208,
				"z": -6.3727589203,
				"element": "C" 
			},
			{
				"x": -0.8148874465,
				"y": 0.4824129092,
				"z": -5.437987864,
				"element": "O" 
			},
			{
				"x": -0.6589389758,
				"y": 0.861333714,
				"z": -4.1331950686,
				"element": "C" 
			},
			{
				"x": -0.8659242857,
				"y": 2.1516663539,
				"z": -3.6409076176,
				"element": "C" 
			},
			{
				"x": -0.6738722607,
				"y": 2.4200763416,
				"z": -2.2803778371,
				"element": "C" 
			},
			{
				"x": -0.2765961781,
				"y": 1.4180254103,
				"z": -1.3961649436,
				"element": "C" 
			},
			{
				"x": -0.0751567056,
				"y": 1.621546089,
				"z": -0.0667230694,
				"element": "O" 
			},
			{
				"x": -0.2737958108,
				"y": 2.9180795747,
				"z": 0.4741677524,
				"element": "C" 
			},
			{
				"x": -0.0607216859,
				"y": 0.0955472112,
				"z": -1.8804072476,
				"element": "C" 
			},
			{
				"x": 0.3544779401,
				"y": -1.0373121146,
				"z": -1.0641585871,
				"element": "C" 
			},
			{
				"x": 0.6169765525,
				"y": -1.1066878843,
				"z": 0.262079831,
				"element": "C" 
			},
			{
				"x": 1.0217609547,
				"y": -2.4050413119,
				"z": 0.811258371,
				"element": "C" 
			},
			{
				"x": 1.1467919593,
				"y": -3.4435306666,
				"z": 0.1813466655,
				"element": "O" 
			},
			{
				"x": 1.2949852617,
				"y": -2.447868648,
				"z": 2.2230575618,
				"element": "N" 
			},
			{
				"x": 1.6904541229,
				"y": -3.6290255962,
				"z": 2.8558117151,
				"element": "C" 
			},
			{
				"x": 1.8997298641,
				"y": -3.5030945139,
				"z": 4.1366396492,
				"element": "N" 
			},
			{
				"x": 1.6334677014,
				"y": -2.165683623,
				"z": 4.3921757715,
				"element": "C" 
			},
			{
				"x": 1.2549029679,
				"y": -1.480299346,
				"z": 3.2346131352,
				"element": "C" 
			},
			{
				"x": 0.931465589,
				"y": -0.182473688,
				"z": 3.1681368748,
				"element": "N" 
			},
			{
				"x": 1.0064553367,
				"y": 0.4138721295,
				"z": 4.3638911457,
				"element": "C" 
			},
			{
				"x": 1.3497938485,
				"y": -0.1116754142,
				"z": 5.546988537,
				"element": "N" 
			},
			{
				"x": 1.6758802293,
				"y": -1.4173390195,
				"z": 5.5856724162,
				"element": "C" 
			},
			{
				"x": 2.0489807434,
				"y": -1.9657446349,
				"z": 6.7659946042,
				"element": "N" 
			},
			{
				"x": -0.2607285616,
				"y": -0.1437086319,
				"z": -3.2483519615,
				"element": "C" 
			},
			{
				"x": -0.4883257692,
				"y": 2.2857225525,
				"z": -6.4427472028,
				"element": "H" 
			},
			{
				"x": -2.2017621434,
				"y": 1.8882991734,
				"z": -6.1221904987,
				"element": "H" 
			},
			{
				"x": -1.2815992518,
				"y": 0.9625597221,
				"z": -7.3374872096,
				"element": "H" 
			},
			{
				"x": -1.1749298632,
				"y": 2.9590587029,
				"z": -4.2940799975,
				"element": "H" 
			},
			{
				"x": -0.8407996186,
				"y": 3.4289564779,
				"z": -1.9235317537,
				"element": "H" 
			},
			{
				"x": -1.3098532098,
				"y": 3.255028557,
				"z": 0.3425327581,
				"element": "H" 
			},
			{
				"x": -0.0538077104,
				"y": 2.8280023574,
				"z": 1.5382352355,
				"element": "H" 
			},
			{
				"x": 0.4053404205,
				"y": 3.6517142261,
				"z": 0.0215913276,
				"element": "H" 
			},
			{
				"x": 0.4684833792,
				"y": -1.9688011951,
				"z": -1.6169524094,
				"element": "H" 
			},
			{
				"x": 0.5442307509,
				"y": -0.2624611637,
				"z": 0.9309920922,
				"element": "H" 
			},
			{
				"x": 1.7942608068,
				"y": -4.5329591212,
				"z": 2.2748302764,
				"element": "H" 
			},
			{
				"x": 0.7524112898,
				"y": 1.4720261275,
				"z": 4.3811318057,
				"element": "H" 
			},
			{
				"x": 1.9546144004,
				"y": -1.4139855963,
				"z": 7.6032143147,
				"element": "H" 
			},
			{
				"x": 2.1841730165,
				"y": -2.9615395494,
				"z": 6.8295186833,
				"element": "H" 
			},
			{
				"x": -0.1036144251,
				"y": -1.1416761196,
				"z": -3.6453583355,
				"element": "H" 
			}
		],
		 "valence_orbital": [ 
			{
				"type": "occ",
				"energy": -0.2665,
				"method": "rhf"
			},
			{
				"type": "occ",
				"energy": -0.25073,
				"method": "rhf"
			},
			{
				"type": "occ",
				"energy": -0.23835,
				"method": "rhf"
			},
			{
				"type": "occ",
				"energy": -0.22114,
				"method": "rhf"
			},
			{
				"type": "occ",
				"energy": -0.20731,
				"method": "rhf"
			},
			{
				"type": "unocc",
				"energy": -0.07331,
				"method": "rhf"
			},
			{
				"type": "unocc",
				"energy": -0.02163,
				"method": "rhf"
			},
			{
				"type": "unocc",
				"energy": -0.00629,
				"method": "rhf"
			},
			{
				"type": "unocc",
				"energy": 0.00655,
				"method": "rhf"
			},
			{
				"type": "unocc",
				"energy": 0.02166,
				"method": "rhf"
			}
		],
		"cosmo_sigma_profile": { 
			"-0.025": 0.0,
			"-0.024": 0.0,
			"-0.023": 0.0,
			"-0.022": 0.0,
			"-0.021": 0.0,
			"-0.02": 0.0,
			"-0.019": 0.0,
			"-0.018": 0.0,
			"-0.017": 0.0,
			"-0.016": 0.0,
			"-0.015": 0.357001729417,
			"-0.014": 1.44927996637,
			"-0.013": 2.04436967749,
			"-0.012": 2.12084705734,
			"-0.011": 2.03393565712,
			"-0.01": 2.23400899136,
			"-0.009": 2.83136677387,
			"-0.008": 3.67594876803,
			"-0.007": 9.54396116972,
			"-0.006": 19.4902869142,
			"-0.005": 26.4319039761,
			"-0.004": 26.0693293775,
			"-0.003": 30.5256973444,
			"-0.002": 22.738747248,
			"-0.001": 21.3189205983,
			"0.0": 24.2769876207,
			"0.001": 21.8171734904,
			"0.002": 25.7902418574,
			"0.003": 29.3592247525,
			"0.004": 19.7357789631,
			"0.005": 11.8681738858,
			"0.006": 11.2561133114,
			"0.007": 7.55883078107,
			"0.008": 8.04427569009,
			"0.009": 5.5423973187,
			"0.01": 6.09033440909,
			"0.011": 5.51301868555,
			"0.012": 3.43298843893,
			"0.013": 2.04096537432,
			"0.014": 1.26928382514,
			"0.015": 0.770897095802,
			"0.016": 0.0286071256684,
			"0.017": 0.0,
			"0.018": 0.0,
			"0.019": 0.0,
			"0.02": 0.0,
			"0.021": 0.0,
			"0.022": 0.0,
			"0.023": 0.0,
			"0.024": 0.0,
			"0.025": 0.0
		}
	}
}
