{
	 "smiles": "OC1(CCC(=O)CC1)C1=CC=CC=C1", 
	 "Tm": 400.15, 
	 "num_atms": 28, 
	 "gaussian": { 
		 "optdone": 1, 
		 "sigma_profile": "yes", 
		 "theory": "DFT", 
		 "functional": "B3LYP", 
		 "basiset": "6-31G**", 
		 "properties": { 
			 "R2extent": 3871.897, 
			 "electric_dipole_moment_norm": 3.96012259785, 
			 "electric_quadrupole_moment_norm": 17.4252534125, 
			 "total_energy": -616.159082901, 
			 "HOMO_LUMO_gap": 0.22251, 
			 "cosmo_polarized_energy": -13.6, 
			 "cosmo_cavitation_energy": 29.58, 
			 "cosmo_dispersion_energy": -21.43, 
			 "cosmo_repulsion_energy": 1.68, 
			 "cosmo_total_nonelectrostatic_energy": 9.83, 
			 "SMD_solvation_energy": 5.15 
		},
		"coords": [
			{
				"x": -1.0133730862,
				"y": -0.3993371818,
				"z": -2.913838676,
				"element": "O" 
			},
			{
				"x": -0.4793412184,
				"y": -0.4630998651,
				"z": -1.5816650274,
				"element": "C" 
			},
			{
				"x": 0.851938402,
				"y": -1.2506868062,
				"z": -1.6220835416,
				"element": "C" 
			},
			{
				"x": 0.6840993364,
				"y": -2.5478017696,
				"z": -2.4343580586,
				"element": "C" 
			},
			{
				"x": -0.6702763091,
				"y": -3.224327485,
				"z": -2.2235867853,
				"element": "C" 
			},
			{
				"x": -1.0813114029,
				"y": -4.0795771517,
				"z": -2.9819783311,
				"element": "O" 
			},
			{
				"x": -1.4197198038,
				"y": -2.8031715044,
				"z": -0.9691118573,
				"element": "C" 
			},
			{
				"x": -1.5366435384,
				"y": -1.2672761383,
				"z": -0.7872614831,
				"element": "C" 
			},
			{
				"x": -0.321279388,
				"y": 0.9438980371,
				"z": -0.9964035169,
				"element": "C" 
			},
			{
				"x": 0.4696358552,
				"y": 1.183004915,
				"z": 0.1380528978,
				"element": "C" 
			},
			{
				"x": 0.5858291271,
				"y": 2.4662975247,
				"z": 0.6722290217,
				"element": "C" 
			},
			{
				"x": -0.0896399455,
				"y": 3.5372807502,
				"z": 0.0835304528,
				"element": "C" 
			},
			{
				"x": -0.8849357362,
				"y": 3.3103771272,
				"z": -1.0394654582,
				"element": "C" 
			},
			{
				"x": -1.0007375712,
				"y": 2.0249826432,
				"z": -1.5727399262,
				"element": "C" 
			},
			{
				"x": -0.3584135516,
				"y": 0.0362919324,
				"z": -3.4778047145,
				"element": "H" 
			},
			{
				"x": 1.1689597636,
				"y": -1.481876796,
				"z": -0.5990444471,
				"element": "H" 
			},
			{
				"x": 1.6455564833,
				"y": -0.6286427368,
				"z": -2.0532941783,
				"element": "H" 
			},
			{
				"x": 0.7899698955,
				"y": -2.3743109313,
				"z": -3.5080770351,
				"element": "H" 
			},
			{
				"x": 1.4619646549,
				"y": -3.2729834897,
				"z": -2.1615672027,
				"element": "H" 
			},
			{
				"x": -2.3969607802,
				"y": -3.2906010856,
				"z": -0.9671841774,
				"element": "H" 
			},
			{
				"x": -0.8487684325,
				"y": -3.2216758256,
				"z": -0.1268550726,
				"element": "H" 
			},
			{
				"x": -1.4564243334,
				"y": -1.0150467164,
				"z": 0.2736538986,
				"element": "H" 
			},
			{
				"x": -2.5155982539,
				"y": -0.9174613691,
				"z": -1.1269570734,
				"element": "H" 
			},
			{
				"x": 1.0014123185,
				"y": 0.3651070481,
				"z": 0.6154720734,
				"element": "H" 
			},
			{
				"x": 1.2066781917,
				"y": 2.6291504346,
				"z": 1.5488593259,
				"element": "H" 
			},
			{
				"x": 0.0023195394,
				"y": 4.5368740663,
				"z": 0.4984044428,
				"element": "H" 
			},
			{
				"x": -1.4203507802,
				"y": 4.13412419,
				"z": -1.5035376321,
				"element": "H" 
			},
			{
				"x": -1.625789436,
				"y": 1.8477881839,
				"z": -2.441087918,
				"element": "H" 
			}
		],
		 "valence_orbital": [ 
			{
				"type": "occ",
				"energy": -0.32083,
				"method": "rhf"
			},
			{
				"type": "occ",
				"energy": -0.28319,
				"method": "rhf"
			},
			{
				"type": "occ",
				"energy": -0.25389,
				"method": "rhf"
			},
			{
				"type": "occ",
				"energy": -0.24697,
				"method": "rhf"
			},
			{
				"type": "occ",
				"energy": -0.23153,
				"method": "rhf"
			},
			{
				"type": "unocc",
				"energy": -0.00902,
				"method": "rhf"
			},
			{
				"type": "unocc",
				"energy": -0.00562,
				"method": "rhf"
			},
			{
				"type": "unocc",
				"energy": -0.00362,
				"method": "rhf"
			},
			{
				"type": "unocc",
				"energy": 0.06165,
				"method": "rhf"
			},
			{
				"type": "unocc",
				"energy": 0.08949,
				"method": "rhf"
			}
		],
		"cosmo_sigma_profile": { 
			"-0.025": 0.0,
			"-0.024": 0.0,
			"-0.023": 0.0,
			"-0.022": 0.0,
			"-0.021": 0.0,
			"-0.02": 0.0,
			"-0.019": 0.0,
			"-0.018": 0.0,
			"-0.017": 0.0,
			"-0.016": 0.0507738671214,
			"-0.015": 0.594510881553,
			"-0.014": 0.991238085427,
			"-0.013": 0.742001844783,
			"-0.012": 0.960641099465,
			"-0.011": 0.795475619339,
			"-0.01": 0.946147586514,
			"-0.009": 0.797867097409,
			"-0.008": 0.979700683843,
			"-0.007": 2.34427158419,
			"-0.006": 11.2235797815,
			"-0.005": 21.0699560052,
			"-0.004": 24.8663713547,
			"-0.003": 24.2518981342,
			"-0.002": 20.5529386576,
			"-0.001": 20.6376115189,
			"0.0": 11.9334849326,
			"0.001": 10.1035784927,
			"0.002": 9.51509114349,
			"0.003": 11.0492398691,
			"0.004": 8.69418385132,
			"0.005": 10.5247051129,
			"0.006": 10.7863851315,
			"0.007": 4.80710366335,
			"0.008": 3.13978028543,
			"0.009": 1.7958760603,
			"0.01": 3.60997820038,
			"0.011": 3.3750599015,
			"0.012": 5.50710182021,
			"0.013": 4.25880191143,
			"0.014": 1.27492633207,
			"0.015": 0.0,
			"0.016": 0.0,
			"0.017": 0.0,
			"0.018": 0.0,
			"0.019": 0.0,
			"0.02": 0.0,
			"0.021": 0.0,
			"0.022": 0.0,
			"0.023": 0.0,
			"0.024": 0.0,
			"0.025": 0.0
		}
	}
}
