{
	 "smiles": "COC(=O)CCCC(=O)OC", 
	 "Tm": 236.15, 
	 "num_atms": 23, 
	 "gaussian": { 
		 "optdone": 1, 
		 "sigma_profile": "yes", 
		 "theory": "DFT", 
		 "functional": "B3LYP", 
		 "basiset": "6-31G**", 
		 "properties": { 
			 "R2extent": 2037.761, 
			 "electric_dipole_moment_norm": 3.41960162738, 
			 "electric_quadrupole_moment_norm": 15.6086403258, 
			 "total_energy": -574.891173736, 
			 "HOMO_LUMO_gap": 0.26933, 
			 "cosmo_polarized_energy": -12.52, 
			 "cosmo_cavitation_energy": 26.6, 
			 "cosmo_dispersion_energy": -18.24, 
			 "cosmo_repulsion_energy": 1.49, 
			 "cosmo_total_nonelectrostatic_energy": 9.85, 
			 "SMD_solvation_energy": 6.91 
		},
		"coords": [
			{
				"x": 1.338025438,
				"y": 1.7657172484,
				"z": -0.6574720824,
				"element": "C" 
			},
			{
				"x": 0.032985268,
				"y": 1.1727607333,
				"z": -0.7742138865,
				"element": "O" 
			},
			{
				"x": -0.9833211032,
				"y": 1.9382272513,
				"z": -0.3108870268,
				"element": "C" 
			},
			{
				"x": -0.8377340724,
				"y": 3.0689993915,
				"z": 0.0948165544,
				"element": "O" 
			},
			{
				"x": -2.3214243431,
				"y": 1.2294959262,
				"z": -0.4280653525,
				"element": "C" 
			},
			{
				"x": -2.3464372227,
				"y": -0.2769950763,
				"z": -0.1266058493,
				"element": "C" 
			},
			{
				"x": -2.02833047,
				"y": -0.6553671155,
				"z": 1.3393001788,
				"element": "C" 
			},
			{
				"x": -0.5490639831,
				"y": -0.6177709533,
				"z": 1.6688840836,
				"element": "C" 
			},
			{
				"x": 0.0316154811,
				"y": 0.2853191248,
				"z": 2.2331594893,
				"element": "O" 
			},
			{
				"x": 0.0643925987,
				"y": -1.7462906116,
				"z": 1.2425477761,
				"element": "O" 
			},
			{
				"x": 1.4796668172,
				"y": -1.8058685346,
				"z": 1.4753612947,
				"element": "C" 
			},
			{
				"x": 1.5965098854,
				"y": 1.8864092684,
				"z": 0.3972098595,
				"element": "H" 
			},
			{
				"x": 2.0224111985,
				"y": 1.0708952417,
				"z": -1.1454674518,
				"element": "H" 
			},
			{
				"x": 1.3644939761,
				"y": 2.7405167849,
				"z": -1.14940051,
				"element": "H" 
			},
			{
				"x": -2.6647806569,
				"y": 1.3858935682,
				"z": -1.4596029257,
				"element": "H" 
			},
			{
				"x": -3.0155847388,
				"y": 1.7729429919,
				"z": 0.2190470909,
				"element": "H" 
			},
			{
				"x": -3.3547969589,
				"y": -0.640771689,
				"z": -0.3529389028,
				"element": "H" 
			},
			{
				"x": -1.662674474,
				"y": -0.8064282804,
				"z": -0.796481906,
				"element": "H" 
			},
			{
				"x": -2.3875704809,
				"y": -1.6720727979,
				"z": 1.5250839319,
				"element": "H" 
			},
			{
				"x": -2.5382037887,
				"y": 0.0241929122,
				"z": 2.0279291734,
				"element": "H" 
			},
			{
				"x": 1.7932142717,
				"y": -2.7946943466,
				"z": 1.1403932529,
				"element": "H" 
			},
			{
				"x": 1.9966701305,
				"y": -1.0300075945,
				"z": 0.9047795481,
				"element": "H" 
			},
			{
				"x": 1.7028372278,
				"y": -1.6699034431,
				"z": 2.5363236602,
				"element": "H" 
			}
		],
		 "valence_orbital": [ 
			{
				"type": "occ",
				"energy": -0.33832,
				"method": "rhf"
			},
			{
				"type": "occ",
				"energy": -0.30114,
				"method": "rhf"
			},
			{
				"type": "occ",
				"energy": -0.29586,
				"method": "rhf"
			},
			{
				"type": "occ",
				"energy": -0.27022,
				"method": "rhf"
			},
			{
				"type": "occ",
				"energy": -0.26146,
				"method": "rhf"
			},
			{
				"type": "unocc",
				"energy": 0.00787,
				"method": "rhf"
			},
			{
				"type": "unocc",
				"energy": 0.01854,
				"method": "rhf"
			},
			{
				"type": "unocc",
				"energy": 0.08357,
				"method": "rhf"
			},
			{
				"type": "unocc",
				"energy": 0.09827,
				"method": "rhf"
			},
			{
				"type": "unocc",
				"energy": 0.12018,
				"method": "rhf"
			}
		],
		"cosmo_sigma_profile": { 
			"-0.025": 0.0,
			"-0.024": 0.0,
			"-0.023": 0.0,
			"-0.022": 0.0,
			"-0.021": 0.0,
			"-0.02": 0.0,
			"-0.019": 0.0,
			"-0.018": 0.0,
			"-0.017": 0.0,
			"-0.016": 0.0,
			"-0.015": 0.0,
			"-0.014": 0.0,
			"-0.013": 0.0,
			"-0.012": 0.0,
			"-0.011": 0.0,
			"-0.01": 0.0,
			"-0.009": 0.0,
			"-0.008": 0.0,
			"-0.007": 1.88282713304,
			"-0.006": 10.2197533059,
			"-0.005": 22.6788573586,
			"-0.004": 29.9404436079,
			"-0.003": 32.7608497662,
			"-0.002": 20.2519965132,
			"-0.001": 11.8355850391,
			"0.0": 7.59069336307,
			"0.001": 6.93028500253,
			"0.002": 7.31437628993,
			"0.003": 5.9989769017,
			"0.004": 6.89896925747,
			"0.005": 5.76802643461,
			"0.006": 4.28152614655,
			"0.007": 5.34930290985,
			"0.008": 4.82445549806,
			"0.009": 4.53408826207,
			"0.01": 2.81736356579,
			"0.011": 5.51228646978,
			"0.012": 8.2751853462,
			"0.013": 2.30714914694,
			"0.014": 0.0261860215404,
			"0.015": 0.0,
			"0.016": 0.0,
			"0.017": 0.0,
			"0.018": 0.0,
			"0.019": 0.0,
			"0.02": 0.0,
			"0.021": 0.0,
			"0.022": 0.0,
			"0.023": 0.0,
			"0.024": 0.0,
			"0.025": 0.0
		}
	}
}
