{
	 "smiles": "BrC1=CC=C(NN=C(C(=O)C2=CC=CS2)S(=O)(=O)C2=CC=CC=C2)C=C1", 
	 "Tm": 431.15, 
	 "num_atms": 39, 
	 "gaussian": { 
		 "optdone": 1, 
		 "sigma_profile": "yes", 
		 "theory": "DFT", 
		 "functional": "B3LYP", 
		 "basiset": "6-31G**", 
		 "properties": { 
			 "R2extent": 17908.3114, 
			 "electric_dipole_moment_norm": 3.88371333391, 
			 "electric_quadrupole_moment_norm": 28.4658826215, 
			 "total_energy": -4396.58275751, 
			 "HOMO_LUMO_gap": 0.13346, 
			 "cosmo_polarized_energy": -18.53, 
			 "cosmo_cavitation_energy": 49.36, 
			 "cosmo_dispersion_energy": -35.82, 
			 "cosmo_repulsion_energy": 2.61, 
			 "cosmo_total_nonelectrostatic_energy": 16.16, 
			 "SMD_solvation_energy": 6.76 
		},
		"coords": [
			{
				"x": 3.1174570941,
				"y": -2.3478048187,
				"z": -6.4022745622,
				"element": "Br" 
			},
			{
				"x": 2.410341739,
				"y": -1.3653778344,
				"z": -4.9261857734,
				"element": "C" 
			},
			{
				"x": 1.6291840831,
				"y": -0.2347534867,
				"z": -5.1612913328,
				"element": "C" 
			},
			{
				"x": 1.1167717994,
				"y": 0.479328806,
				"z": -4.0819337552,
				"element": "C" 
			},
			{
				"x": 1.3831000887,
				"y": 0.0626656672,
				"z": -2.7701097292,
				"element": "C" 
			},
			{
				"x": 0.8318371665,
				"y": 0.8198269772,
				"z": -1.7247617736,
				"element": "N" 
			},
			{
				"x": 1.1436563141,
				"y": 0.594672957,
				"z": -0.4720070184,
				"element": "N" 
			},
			{
				"x": 0.6273046596,
				"y": 1.2079022983,
				"z": 0.5515872477,
				"element": "C" 
			},
			{
				"x": 1.0847358202,
				"y": 0.8798105663,
				"z": 1.9245924372,
				"element": "C" 
			},
			{
				"x": 0.4555383512,
				"y": 1.3319974099,
				"z": 2.8813234919,
				"element": "O" 
			},
			{
				"x": 2.2738448046,
				"y": 0.0368061526,
				"z": 2.1720571198,
				"element": "C" 
			},
			{
				"x": 2.6560946242,
				"y": -0.3225054653,
				"z": 3.4497496711,
				"element": "C" 
			},
			{
				"x": 3.8516997096,
				"y": -1.0818696186,
				"z": 3.4934896927,
				"element": "C" 
			},
			{
				"x": 4.3818461367,
				"y": -1.2891945577,
				"z": 2.2447277613,
				"element": "C" 
			},
			{
				"x": 3.4233765652,
				"y": -0.5714543971,
				"z": 1.0004784881,
				"element": "S" 
			},
			{
				"x": -0.6391131324,
				"y": 2.5361135284,
				"z": 0.4463898136,
				"element": "S" 
			},
			{
				"x": -0.1484559288,
				"y": 3.7423296806,
				"z": 1.1181759072,
				"element": "O" 
			},
			{
				"x": -0.9807755318,
				"y": 2.5938412486,
				"z": -1.0041946189,
				"element": "O" 
			},
			{
				"x": -2.1212015134,
				"y": 1.9527958616,
				"z": 1.2776968984,
				"element": "C" 
			},
			{
				"x": -3.0426595742,
				"y": 1.1965519267,
				"z": 0.5495479089,
				"element": "C" 
			},
			{
				"x": -4.215859178,
				"y": 0.7790077526,
				"z": 1.1781145096,
				"element": "C" 
			},
			{
				"x": -4.4568297389,
				"y": 1.1270254028,
				"z": 2.5091254759,
				"element": "C" 
			},
			{
				"x": -3.5293502705,
				"y": 1.8946043299,
				"z": 3.2190325569,
				"element": "C" 
			},
			{
				"x": -2.3483227007,
				"y": 2.312032843,
				"z": 2.6074743006,
				"element": "C" 
			},
			{
				"x": 2.1600850306,
				"y": -1.0805861136,
				"z": -2.5429795463,
				"element": "C" 
			},
			{
				"x": 2.6768780726,
				"y": -1.7893253254,
				"z": -3.6239589144,
				"element": "C" 
			},
			{
				"x": 1.4252713133,
				"y": 0.0883213518,
				"z": -6.175500795,
				"element": "H" 
			},
			{
				"x": 0.5149443853,
				"y": 1.3664789226,
				"z": -4.2584454445,
				"element": "H" 
			},
			{
				"x": 0.136216533,
				"y": 1.5486825523,
				"z": -1.918907874,
				"element": "H" 
			},
			{
				"x": 2.0742387138,
				"y": -0.0242374936,
				"z": 4.3128569303,
				"element": "H" 
			},
			{
				"x": 4.3022947656,
				"y": -1.4533485337,
				"z": 4.4063992847,
				"element": "H" 
			},
			{
				"x": 5.2821743167,
				"y": -1.8305633478,
				"z": 1.9852977079,
				"element": "H" 
			},
			{
				"x": -2.8514964726,
				"y": 0.9619171867,
				"z": -0.4915353962,
				"element": "H" 
			},
			{
				"x": -4.943100496,
				"y": 0.1914682774,
				"z": 0.6261497175,
				"element": "H" 
			},
			{
				"x": -5.3732161479,
				"y": 0.803082384,
				"z": 2.9939430088,
				"element": "H" 
			},
			{
				"x": -3.7245873404,
				"y": 2.167946837,
				"z": 4.2513869777,
				"element": "H" 
			},
			{
				"x": -1.6092377457,
				"y": 2.8979253373,
				"z": 3.1388253074,
				"element": "H" 
			},
			{
				"x": 2.35137688,
				"y": -1.4098525943,
				"z": -1.5294723904,
				"element": "H" 
			},
			{
				"x": 3.2790368044,
				"y": -2.6744626706,
				"z": -3.4536632904,
				"element": "H" 
			}
		],
		 "valence_orbital": [ 
			{
				"type": "occ",
				"energy": -0.26941,
				"method": "rhf"
			},
			{
				"type": "occ",
				"energy": -0.26298,
				"method": "rhf"
			},
			{
				"type": "occ",
				"energy": -0.2575,
				"method": "rhf"
			},
			{
				"type": "occ",
				"energy": -0.24695,
				"method": "rhf"
			},
			{
				"type": "occ",
				"energy": -0.22512,
				"method": "rhf"
			},
			{
				"type": "unocc",
				"energy": -0.09166,
				"method": "rhf"
			},
			{
				"type": "unocc",
				"energy": -0.05008,
				"method": "rhf"
			},
			{
				"type": "unocc",
				"energy": -0.03174,
				"method": "rhf"
			},
			{
				"type": "unocc",
				"energy": -0.02585,
				"method": "rhf"
			},
			{
				"type": "unocc",
				"energy": -0.0172,
				"method": "rhf"
			}
		],
		"cosmo_sigma_profile": { 
			"-0.025": 0.0,
			"-0.024": 0.0,
			"-0.023": 0.0,
			"-0.022": 0.0,
			"-0.021": 0.0,
			"-0.02": 0.0,
			"-0.019": 0.0,
			"-0.018": 0.0,
			"-0.017": 0.0,
			"-0.016": 0.0,
			"-0.015": 0.0,
			"-0.014": 0.0,
			"-0.013": 0.0606706082793,
			"-0.012": 0.945394333554,
			"-0.011": 0.90366270164,
			"-0.01": 1.02740540048,
			"-0.009": 3.22537549573,
			"-0.008": 6.90541812967,
			"-0.007": 18.6359378444,
			"-0.006": 24.1116076477,
			"-0.005": 25.2782410643,
			"-0.004": 22.1846535943,
			"-0.003": 23.0572711585,
			"-0.002": 26.4008027638,
			"-0.001": 26.8048195251,
			"0.0": 27.8873356457,
			"0.001": 34.696605443,
			"0.002": 47.1195762595,
			"0.003": 43.8760969654,
			"0.004": 22.1377204847,
			"0.005": 9.50502576983,
			"0.006": 3.95180208345,
			"0.007": 5.05975232112,
			"0.008": 5.00189032979,
			"0.009": 6.24739271509,
			"0.01": 8.75892801818,
			"0.011": 9.00614648249,
			"0.012": 1.14102164323,
			"0.013": 0.0,
			"0.014": 0.0,
			"0.015": 0.0,
			"0.016": 0.0,
			"0.017": 0.0,
			"0.018": 0.0,
			"0.019": 0.0,
			"0.02": 0.0,
			"0.021": 0.0,
			"0.022": 0.0,
			"0.023": 0.0,
			"0.024": 0.0,
			"0.025": 0.0
		}
	}
}
