{
	 "smiles": "FC1=CC=C(C=C1)C(C1=CC=C(F)C=C1)C(Cl)(Cl)Cl", 
	 "Tm": 317.65, 
	 "num_atms": 28, 
	 "gaussian": { 
		 "optdone": 1, 
		 "sigma_profile": "yes", 
		 "theory": "DFT", 
		 "functional": "B3LYP", 
		 "basiset": "6-31G**", 
		 "properties": { 
			 "R2extent": 7228.2256, 
			 "electric_dipole_moment_norm": 1.295561936, 
			 "electric_quadrupole_moment_norm": 14.8803545731, 
			 "total_energy": -2119.14152763, 
			 "HOMO_LUMO_gap": 0.19413, 
			 "cosmo_polarized_energy": -7.58, 
			 "cosmo_cavitation_energy": 37.41, 
			 "cosmo_dispersion_energy": -25.74, 
			 "cosmo_repulsion_energy": 1.93, 
			 "cosmo_total_nonelectrostatic_energy": 13.61, 
			 "SMD_solvation_energy": 6.35 
		},
		"coords": [
			{
				"x": -5.1169382078,
				"y": -1.604847544,
				"z": -0.2493046017,
				"element": "F" 
			},
			{
				"x": -3.8420097469,
				"y": -1.3935124026,
				"z": 0.1340415232,
				"element": "C" 
			},
			{
				"x": -2.8862509859,
				"y": -2.3681590878,
				"z": -0.1245214368,
				"element": "C" 
			},
			{
				"x": -1.5736493005,
				"y": -2.1374764278,
				"z": 0.2818708492,
				"element": "C" 
			},
			{
				"x": -1.2013993071,
				"y": -0.9519085152,
				"z": 0.9333037358,
				"element": "C" 
			},
			{
				"x": -2.1955755376,
				"y": 0.0076755557,
				"z": 1.1755615599,
				"element": "C" 
			},
			{
				"x": -3.5162996868,
				"y": -0.2087695718,
				"z": 0.7818005354,
				"element": "C" 
			},
			{
				"x": 0.2809427238,
				"y": -0.7822759831,
				"z": 1.2734473811,
				"element": "C" 
			},
			{
				"x": 1.0576337589,
				"y": -0.0257552393,
				"z": 0.1936440694,
				"element": "C" 
			},
			{
				"x": 2.2641898658,
				"y": -0.5561417933,
				"z": -0.284619109,
				"element": "C" 
			},
			{
				"x": 2.9938128492,
				"y": 0.0854192293,
				"z": -1.2845230148,
				"element": "C" 
			},
			{
				"x": 2.4997805127,
				"y": 1.2733799522,
				"z": -1.808298365,
				"element": "C" 
			},
			{
				"x": 3.1942044574,
				"y": 1.9026395624,
				"z": -2.7769936089,
				"element": "F" 
			},
			{
				"x": 1.3016892258,
				"y": 1.8251086279,
				"z": -1.3686223749,
				"element": "C" 
			},
			{
				"x": 0.5844102829,
				"y": 1.166883415,
				"z": -0.3719062377,
				"element": "C" 
			},
			{
				"x": 0.5883081692,
				"y": -0.2819650161,
				"z": 2.7251548028,
				"element": "C" 
			},
			{
				"x": 2.3382035859,
				"y": -0.5664275321,
				"z": 3.0972139935,
				"element": "Cl" 
			},
			{
				"x": -0.3836315176,
				"y": -1.2246132292,
				"z": 3.9188398612,
				"element": "Cl" 
			},
			{
				"x": 0.2670546378,
				"y": 1.4771482775,
				"z": 2.9767981258,
				"element": "Cl" 
			},
			{
				"x": -3.173118669,
				"y": -3.2851941266,
				"z": -0.6273308166,
				"element": "H" 
			},
			{
				"x": -0.8226917553,
				"y": -2.8974300701,
				"z": 0.0833339737,
				"element": "H" 
			},
			{
				"x": -1.9563984249,
				"y": 0.928813242,
				"z": 1.6922271163,
				"element": "H" 
			},
			{
				"x": -4.2893442742,
				"y": 0.5270174284,
				"z": 0.9748497307,
				"element": "H" 
			},
			{
				"x": 0.6935942786,
				"y": -1.7956774625,
				"z": 1.2997336923,
				"element": "H" 
			},
			{
				"x": 2.6446093325,
				"y": -1.4845090979,
				"z": 0.1305576399,
				"element": "H" 
			},
			{
				"x": 3.9265324517,
				"y": -0.3219784304,
				"z": -1.6587388862,
				"element": "H" 
			},
			{
				"x": 0.9420001933,
				"y": 2.7478210549,
				"z": -1.8105732263,
				"element": "H" 
			},
			{
				"x": -0.360758912,
				"y": 1.5848351843,
				"z": -0.0459469121,
				"element": "H" 
			}
		],
		 "valence_orbital": [ 
			{
				"type": "occ",
				"energy": -0.30775,
				"method": "rhf"
			},
			{
				"type": "occ",
				"energy": -0.26999,
				"method": "rhf"
			},
			{
				"type": "occ",
				"energy": -0.26779,
				"method": "rhf"
			},
			{
				"type": "occ",
				"energy": -0.25964,
				"method": "rhf"
			},
			{
				"type": "occ",
				"energy": -0.24235,
				"method": "rhf"
			},
			{
				"type": "unocc",
				"energy": -0.04822,
				"method": "rhf"
			},
			{
				"type": "unocc",
				"energy": -0.02601,
				"method": "rhf"
			},
			{
				"type": "unocc",
				"energy": -0.0208,
				"method": "rhf"
			},
			{
				"type": "unocc",
				"energy": -0.01446,
				"method": "rhf"
			},
			{
				"type": "unocc",
				"energy": -0.00975,
				"method": "rhf"
			}
		],
		"cosmo_sigma_profile": { 
			"-0.025": 0.0,
			"-0.024": 0.0,
			"-0.023": 0.0,
			"-0.022": 0.0,
			"-0.021": 0.0,
			"-0.02": 0.0,
			"-0.019": 0.0,
			"-0.018": 0.0,
			"-0.017": 0.0,
			"-0.016": 0.0,
			"-0.015": 0.0,
			"-0.014": 0.0,
			"-0.013": 0.0,
			"-0.012": 0.0,
			"-0.011": 0.0,
			"-0.01": 0.0,
			"-0.009": 0.951571555892,
			"-0.008": 4.85604741113,
			"-0.007": 11.966228486,
			"-0.006": 13.7688813946,
			"-0.005": 17.6164672556,
			"-0.004": 15.6572993068,
			"-0.003": 14.9900937698,
			"-0.002": 15.3740745956,
			"-0.001": 19.4333913468,
			"0.0": 24.4072020044,
			"0.001": 31.504349563,
			"0.002": 34.5876400151,
			"0.003": 51.7138393116,
			"0.004": 42.7358523757,
			"0.005": 6.87022812819,
			"0.006": 0.0,
			"0.007": 0.0,
			"0.008": 0.0,
			"0.009": 0.0,
			"0.01": 0.0,
			"0.011": 0.0,
			"0.012": 0.0,
			"0.013": 0.0,
			"0.014": 0.0,
			"0.015": 0.0,
			"0.016": 0.0,
			"0.017": 0.0,
			"0.018": 0.0,
			"0.019": 0.0,
			"0.02": 0.0,
			"0.021": 0.0,
			"0.022": 0.0,
			"0.023": 0.0,
			"0.024": 0.0,
			"0.025": 0.0
		}
	}
}
