{
	 "smiles": "COC1=C(OC)C=C(CNC2=C(N=CN2C)[N+]([O-])=O)C=C1", 
	 "Tm": 470.15, 
	 "num_atms": 37, 
	 "gaussian": { 
		 "optdone": 1, 
		 "sigma_profile": "yes", 
		 "theory": "DFT", 
		 "functional": "B3LYP", 
		 "basiset": "6-31G**", 
		 "properties": { 
			 "R2extent": 7256.7769, 
			 "electric_dipole_moment_norm": 7.08500979251, 
			 "electric_quadrupole_moment_norm": 29.0214974343, 
			 "total_energy": -1024.78527581, 
			 "HOMO_LUMO_gap": 0.15762, 
			 "cosmo_polarized_energy": -23.79, 
			 "cosmo_cavitation_energy": 41.41, 
			 "cosmo_dispersion_energy": -26.96, 
			 "cosmo_repulsion_energy": 2.04, 
			 "cosmo_total_nonelectrostatic_energy": 16.49, 
			 "SMD_solvation_energy": 7.94 
		},
		"coords": [
			{
				"x": -2.8193637283,
				"y": 3.917675303,
				"z": 2.2834204294,
				"element": "C" 
			},
			{
				"x": -1.4834661876,
				"y": 3.5310625583,
				"z": 2.6292937015,
				"element": "O" 
			},
			{
				"x": -1.0467396346,
				"y": 2.3524014802,
				"z": 2.0748400898,
				"element": "C" 
			},
			{
				"x": -0.8577340979,
				"y": 2.2080763316,
				"z": 0.6852791274,
				"element": "C" 
			},
			{
				"x": -1.1416273039,
				"y": 3.23326961,
				"z": -0.1871667296,
				"element": "O" 
			},
			{
				"x": -0.1823907431,
				"y": 4.3048720481,
				"z": -0.1612450061,
				"element": "C" 
			},
			{
				"x": -0.3944379211,
				"y": 0.997383413,
				"z": 0.1745602831,
				"element": "C" 
			},
			{
				"x": -0.0640852052,
				"y": -0.0702925324,
				"z": 1.021198428,
				"element": "C" 
			},
			{
				"x": 0.5529000467,
				"y": -1.3351865126,
				"z": 0.4621505981,
				"element": "C" 
			},
			{
				"x": 1.98525206,
				"y": -1.1765738666,
				"z": 0.0744995306,
				"element": "N" 
			},
			{
				"x": 2.272333079,
				"y": -0.4583518795,
				"z": -1.0702165857,
				"element": "C" 
			},
			{
				"x": 2.8938443014,
				"y": 0.7710527542,
				"z": -1.2844194278,
				"element": "C" 
			},
			{
				"x": 2.9885894022,
				"y": 1.0756383786,
				"z": -2.6141803298,
				"element": "N" 
			},
			{
				"x": 2.440955892,
				"y": 0.0559422621,
				"z": -3.2196197277,
				"element": "C" 
			},
			{
				"x": 1.9880611531,
				"y": -0.9111710448,
				"z": -2.3400688657,
				"element": "N" 
			},
			{
				"x": 1.4302805634,
				"y": -2.2092297895,
				"z": -2.6873574422,
				"element": "C" 
			},
			{
				"x": 3.3497455053,
				"y": 1.6464840464,
				"z": -0.2579478165,
				"element": "N" 
			},
			{
				"x": 3.6254842731,
				"y": 2.8092743871,
				"z": -0.5432150361,
				"element": "O" 
			},
			{
				"x": 3.4264323388,
				"y": 1.1667986659,
				"z": 0.8918460947,
				"element": "O" 
			},
			{
				"x": -0.2320466908,
				"y": 0.0928974118,
				"z": 2.4005357942,
				"element": "C" 
			},
			{
				"x": -0.7311618667,
				"y": 1.2877907758,
				"z": 2.9196144399,
				"element": "C" 
			},
			{
				"x": -3.5413025452,
				"y": 3.1704277357,
				"z": 2.6367255221,
				"element": "H" 
			},
			{
				"x": -2.9305473288,
				"y": 4.0507963695,
				"z": 1.2036429517,
				"element": "H" 
			},
			{
				"x": -3.002805446,
				"y": 4.8644537611,
				"z": 2.795149161,
				"element": "H" 
			},
			{
				"x": -0.147480201,
				"y": 4.7777694864,
				"z": 0.8253863941,
				"element": "H" 
			},
			{
				"x": -0.5164425782,
				"y": 5.0289623323,
				"z": -0.9067476077,
				"element": "H" 
			},
			{
				"x": 0.8163484615,
				"y": 3.9395855233,
				"z": -0.4278597505,
				"element": "H" 
			},
			{
				"x": -0.2801103103,
				"y": 0.9208558581,
				"z": -0.9026967815,
				"element": "H" 
			},
			{
				"x": 0.001543609,
				"y": -1.6859124274,
				"z": -0.4147011236,
				"element": "H" 
			},
			{
				"x": 0.5144274064,
				"y": -2.1358257755,
				"z": 1.2062876283,
				"element": "H" 
			},
			{
				"x": 2.508025303,
				"y": -0.7433847625,
				"z": 0.8345912323,
				"element": "H" 
			},
			{
				"x": 2.3376397443,
				"y": -0.0641619169,
				"z": -4.2896261937,
				"element": "H" 
			},
			{
				"x": 1.7471653051,
				"y": -2.9393854897,
				"z": -1.9395835502,
				"element": "H" 
			},
			{
				"x": 1.810817442,
				"y": -2.5085543709,
				"z": -3.6658030755,
				"element": "H" 
			},
			{
				"x": 0.3364913803,
				"y": -2.1847172841,
				"z": -2.7255250517,
				"element": "H" 
			},
			{
				"x": 0.0230971365,
				"y": -0.7195616625,
				"z": 3.0762433051,
				"element": "H" 
			},
			{
				"x": -0.8750926142,
				"y": 1.4214388222,
				"z": 3.98701539,
				"element": "H" 
			}
		],
		 "valence_orbital": [ 
			{
				"type": "occ",
				"energy": -0.2734,
				"method": "rhf"
			},
			{
				"type": "occ",
				"energy": -0.26344,
				"method": "rhf"
			},
			{
				"type": "occ",
				"energy": -0.24582,
				"method": "rhf"
			},
			{
				"type": "occ",
				"energy": -0.23453,
				"method": "rhf"
			},
			{
				"type": "occ",
				"energy": -0.22126,
				"method": "rhf"
			},
			{
				"type": "unocc",
				"energy": -0.06364,
				"method": "rhf"
			},
			{
				"type": "unocc",
				"energy": -0.01136,
				"method": "rhf"
			},
			{
				"type": "unocc",
				"energy": -0.00276,
				"method": "rhf"
			},
			{
				"type": "unocc",
				"energy": 0.01132,
				"method": "rhf"
			},
			{
				"type": "unocc",
				"energy": 0.06065,
				"method": "rhf"
			}
		],
		"cosmo_sigma_profile": { 
			"-0.025": 0.0,
			"-0.024": 0.0,
			"-0.023": 0.0,
			"-0.022": 0.0,
			"-0.021": 0.0,
			"-0.02": 0.0,
			"-0.019": 0.0,
			"-0.018": 0.0,
			"-0.017": 0.0,
			"-0.016": 0.0,
			"-0.015": 0.0,
			"-0.014": 0.0,
			"-0.013": 0.0,
			"-0.012": 0.0,
			"-0.011": 0.472830017826,
			"-0.01": 3.49550438956,
			"-0.009": 3.17613579408,
			"-0.008": 6.99222210388,
			"-0.007": 10.7144476128,
			"-0.006": 20.908629124,
			"-0.005": 22.8378418596,
			"-0.004": 28.5805095728,
			"-0.003": 30.2480557409,
			"-0.002": 30.0407476057,
			"-0.001": 25.2857585391,
			"0.0": 22.127971759,
			"0.001": 13.8358429343,
			"0.002": 12.2664337994,
			"0.003": 16.7205907862,
			"0.004": 13.5220495428,
			"0.005": 11.3401629017,
			"0.006": 6.83185114034,
			"0.007": 7.25585022983,
			"0.008": 8.15577671589,
			"0.009": 9.43062506971,
			"0.01": 8.58799824518,
			"0.011": 6.99042540087,
			"0.012": 3.63877610289,
			"0.013": 1.32366132708,
			"0.014": 1.62718265091,
			"0.015": 1.38962645695,
			"0.016": 1.14820212808,
			"0.017": 0.0103279147413,
			"0.018": 0.0,
			"0.019": 0.0,
			"0.02": 0.0,
			"0.021": 0.0,
			"0.022": 0.0,
			"0.023": 0.0,
			"0.024": 0.0,
			"0.025": 0.0
		}
	}
}
