{
	 "smiles": "NC1=CC(CN2C=NN=C2)=CC=C1", 
	 "Tm": 413.15, 
	 "num_atms": 23, 
	 "gaussian": { 
		 "optdone": 1, 
		 "sigma_profile": "yes", 
		 "theory": "DFT", 
		 "functional": "B3LYP", 
		 "basiset": "6-31G**", 
		 "properties": { 
			 "R2extent": 3366.6554, 
			 "electric_dipole_moment_norm": 6.59775661418, 
			 "electric_quadrupole_moment_norm": 19.6904153212, 
			 "total_energy": -567.962622802, 
			 "HOMO_LUMO_gap": 0.19845, 
			 "cosmo_polarized_energy": -21.88, 
			 "cosmo_cavitation_energy": 27.41, 
			 "cosmo_dispersion_energy": -19.61, 
			 "cosmo_repulsion_energy": 1.56, 
			 "cosmo_total_nonelectrostatic_energy": 9.35, 
			 "SMD_solvation_energy": 3.51 
		},
		"coords": [
			{
				"x": -0.4600605277,
				"y": 0.1631241343,
				"z": -2.4219628221,
				"element": "N" 
			},
			{
				"x": -0.7266972014,
				"y": 1.0345134088,
				"z": -1.3710945291,
				"element": "C" 
			},
			{
				"x": 0.2043538426,
				"y": 1.2118917728,
				"z": -0.3339631327,
				"element": "C" 
			},
			{
				"x": -0.0872527167,
				"y": 2.0331312387,
				"z": 0.7570664181,
				"element": "C" 
			},
			{
				"x": 0.9417957327,
				"y": 2.2626896425,
				"z": 1.8504892099,
				"element": "C" 
			},
			{
				"x": 1.7071218825,
				"y": 1.0711639431,
				"z": 2.2114275538,
				"element": "N" 
			},
			{
				"x": 3.0561413661,
				"y": 0.8652428649,
				"z": 2.089842693,
				"element": "C" 
			},
			{
				"x": 3.3922265993,
				"y": -0.3281876893,
				"z": 2.514426333,
				"element": "N" 
			},
			{
				"x": 2.2301194493,
				"y": -0.9497588298,
				"z": 2.9368142349,
				"element": "N" 
			},
			{
				"x": 1.246943267,
				"y": -0.102992989,
				"z": 2.7468480036,
				"element": "C" 
			},
			{
				"x": -1.3175845382,
				"y": 2.6947204635,
				"z": 0.8255766473,
				"element": "C" 
			},
			{
				"x": -2.2417016219,
				"y": 2.5315559774,
				"z": -0.2089738505,
				"element": "C" 
			},
			{
				"x": -1.9579585412,
				"y": 1.7128105548,
				"z": -1.2964685038,
				"element": "C" 
			},
			{
				"x": 0.513202235,
				"y": -0.0518083795,
				"z": -2.5847979602,
				"element": "H" 
			},
			{
				"x": -0.9712931177,
				"y": 0.3299190895,
				"z": -3.2767091316,
				"element": "H" 
			},
			{
				"x": 1.1559184559,
				"y": 0.6877418369,
				"z": -0.3777781763,
				"element": "H" 
			},
			{
				"x": 0.4503036357,
				"y": 2.6554441168,
				"z": 2.7466533282,
				"element": "H" 
			},
			{
				"x": 1.672778849,
				"y": 3.0162364112,
				"z": 1.5365357131,
				"element": "H" 
			},
			{
				"x": 3.7310949558,
				"y": 1.6126926014,
				"z": 1.6961674216,
				"element": "H" 
			},
			{
				"x": 0.203879567,
				"y": -0.2831328889,
				"z": 2.9642210119,
				"element": "H" 
			},
			{
				"x": -1.5513899397,
				"y": 3.3299469243,
				"z": 1.6752808001,
				"element": "H" 
			},
			{
				"x": -3.1992002359,
				"y": 3.0426594649,
				"z": -0.1626866565,
				"element": "H" 
			},
			{
				"x": -2.6904413974,
				"y": 1.5818963306,
				"z": -2.0889146058,
				"element": "H" 
			}
		],
		 "valence_orbital": [ 
			{
				"type": "occ",
				"energy": -0.28546,
				"method": "rhf"
			},
			{
				"type": "occ",
				"energy": -0.25979,
				"method": "rhf"
			},
			{
				"type": "occ",
				"energy": -0.25169,
				"method": "rhf"
			},
			{
				"type": "occ",
				"energy": -0.24459,
				"method": "rhf"
			},
			{
				"type": "occ",
				"energy": -0.21307,
				"method": "rhf"
			},
			{
				"type": "unocc",
				"energy": -0.01462,
				"method": "rhf"
			},
			{
				"type": "unocc",
				"energy": 0.00418,
				"method": "rhf"
			},
			{
				"type": "unocc",
				"energy": 0.02018,
				"method": "rhf"
			},
			{
				"type": "unocc",
				"energy": 0.04951,
				"method": "rhf"
			},
			{
				"type": "unocc",
				"energy": 0.07246,
				"method": "rhf"
			}
		],
		"cosmo_sigma_profile": { 
			"-0.025": 0.0,
			"-0.024": 0.0,
			"-0.023": 0.0,
			"-0.022": 0.0,
			"-0.021": 0.0,
			"-0.02": 0.0,
			"-0.019": 0.0,
			"-0.018": 0.0,
			"-0.017": 0.0,
			"-0.016": 0.0,
			"-0.015": 0.0,
			"-0.014": 0.0,
			"-0.013": 0.513351222809,
			"-0.012": 2.31333072056,
			"-0.011": 3.7484871113,
			"-0.01": 7.14703075485,
			"-0.009": 7.57993957186,
			"-0.008": 8.01456283317,
			"-0.007": 12.471703172,
			"-0.006": 11.7855364361,
			"-0.005": 15.1727394768,
			"-0.004": 14.9013055542,
			"-0.003": 12.456057809,
			"-0.002": 10.7027951507,
			"-0.001": 9.38092743001,
			"0.0": 9.21099941063,
			"0.001": 8.83387401602,
			"0.002": 7.37624895631,
			"0.003": 9.56081800383,
			"0.004": 9.31240505091,
			"0.005": 9.35392474249,
			"0.006": 10.5246358489,
			"0.007": 7.07536633326,
			"0.008": 3.37602987917,
			"0.009": 2.63232336649,
			"0.01": 2.50106777506,
			"0.011": 3.57481763793,
			"0.012": 2.9441070176,
			"0.013": 3.88671985713,
			"0.014": 4.38699346097,
			"0.015": 3.07752201145,
			"0.016": 2.61549359084,
			"0.017": 2.06113041434,
			"0.018": 0.104392973294,
			"0.019": 0.0,
			"0.02": 0.0,
			"0.021": 0.0,
			"0.022": 0.0,
			"0.023": 0.0,
			"0.024": 0.0,
			"0.025": 0.0
		}
	}
}
