{
	 "smiles": "CC1=CC2=NC=C(C=O)N2C=C1", 
	 "Tm": 354.15, 
	 "num_atms": 20, 
	 "gaussian": { 
		 "optdone": 1, 
		 "sigma_profile": "yes", 
		 "theory": "DFT", 
		 "functional": "B3LYP", 
		 "basiset": "6-31G**", 
		 "properties": { 
			 "R2extent": 2669.2311, 
			 "electric_dipole_moment_norm": 2.77126759083, 
			 "electric_quadrupole_moment_norm": 11.2334927436, 
			 "total_energy": -532.505084715, 
			 "HOMO_LUMO_gap": 0.16796, 
			 "cosmo_polarized_energy": -10.51, 
			 "cosmo_cavitation_energy": 24.29, 
			 "cosmo_dispersion_energy": -18.01, 
			 "cosmo_repulsion_energy": 1.4, 
			 "cosmo_total_nonelectrostatic_energy": 7.68, 
			 "SMD_solvation_energy": 3.77 
		},
		"coords": [
			{
				"x": 2.8808208117,
				"y": -1.7603811782,
				"z": -1.5399819313,
				"element": "C" 
			},
			{
				"x": 2.0342341707,
				"y": -0.6044699665,
				"z": -1.071663186,
				"element": "C" 
			},
			{
				"x": 2.4886986583,
				"y": 0.2877308154,
				"z": -0.1201685332,
				"element": "C" 
			},
			{
				"x": 1.6713684258,
				"y": 1.3570937358,
				"z": 0.2951357757,
				"element": "C" 
			},
			{
				"x": 1.9109699385,
				"y": 2.3293537783,
				"z": 1.1961305279,
				"element": "N" 
			},
			{
				"x": 0.7968274683,
				"y": 3.082360414,
				"z": 1.2019525018,
				"element": "C" 
			},
			{
				"x": -0.1779410999,
				"y": 2.6168362041,
				"z": 0.3127492928,
				"element": "C" 
			},
			{
				"x": -1.4920905799,
				"y": 3.1136321547,
				"z": 0.0085359524,
				"element": "C" 
			},
			{
				"x": -2.2715347928,
				"y": 2.6163585877,
				"z": -0.801225466,
				"element": "O" 
			},
			{
				"x": 0.4039628287,
				"y": 1.4907070961,
				"z": -0.2733985226,
				"element": "N" 
			},
			{
				"x": -0.0708016373,
				"y": 0.6194337911,
				"z": -1.2192673323,
				"element": "C" 
			},
			{
				"x": 0.7290967725,
				"y": -0.4168275087,
				"z": -1.6174708734,
				"element": "C" 
			},
			{
				"x": 2.3819018902,
				"y": -2.717071399,
				"z": -1.346627376,
				"element": "H" 
			},
			{
				"x": 3.8502334082,
				"y": -1.7761029384,
				"z": -1.0363592419,
				"element": "H" 
			},
			{
				"x": 3.0598353683,
				"y": -1.7046982877,
				"z": -2.6199873718,
				"element": "H" 
			},
			{
				"x": 3.4706701183,
				"y": 0.1966197461,
				"z": 0.3302411205,
				"element": "H" 
			},
			{
				"x": 0.7056061894,
				"y": 3.9505247048,
				"z": 1.8440427326,
				"element": "H" 
			},
			{
				"x": -1.7689481953,
				"y": 4.0214637249,
				"z": 0.5842126225,
				"element": "H" 
			},
			{
				"x": -1.0673069387,
				"y": 0.8266433021,
				"z": -1.5852149331,
				"element": "H" 
			},
			{
				"x": 0.350597195,
				"y": -1.1047067766,
				"z": -2.3661357586,
				"element": "H" 
			}
		],
		 "valence_orbital": [ 
			{
				"type": "occ",
				"energy": -0.31792,
				"method": "rhf"
			},
			{
				"type": "occ",
				"energy": -0.28419,
				"method": "rhf"
			},
			{
				"type": "occ",
				"energy": -0.25903,
				"method": "rhf"
			},
			{
				"type": "occ",
				"energy": -0.25256,
				"method": "rhf"
			},
			{
				"type": "occ",
				"energy": -0.22351,
				"method": "rhf"
			},
			{
				"type": "unocc",
				"energy": -0.05555,
				"method": "rhf"
			},
			{
				"type": "unocc",
				"energy": -0.03779,
				"method": "rhf"
			},
			{
				"type": "unocc",
				"energy": 0.01232,
				"method": "rhf"
			},
			{
				"type": "unocc",
				"energy": 0.08962,
				"method": "rhf"
			},
			{
				"type": "unocc",
				"energy": 0.09908,
				"method": "rhf"
			}
		],
		"cosmo_sigma_profile": { 
			"-0.025": 0.0,
			"-0.024": 0.0,
			"-0.023": 0.0,
			"-0.022": 0.0,
			"-0.021": 0.0,
			"-0.02": 0.0,
			"-0.019": 0.0,
			"-0.018": 0.0,
			"-0.017": 0.0,
			"-0.016": 0.0,
			"-0.015": 0.0,
			"-0.014": 0.0,
			"-0.013": 0.0,
			"-0.012": 0.0,
			"-0.011": 0.0,
			"-0.01": 0.0,
			"-0.009": 0.283478763067,
			"-0.008": 3.88217350222,
			"-0.007": 9.94107163466,
			"-0.006": 10.6073014354,
			"-0.005": 13.8423920897,
			"-0.004": 13.8748542936,
			"-0.003": 12.4295417213,
			"-0.002": 19.2998587781,
			"-0.001": 22.9511537426,
			"0.0": 18.1933600481,
			"0.001": 15.9678150182,
			"0.002": 13.6689330431,
			"0.003": 4.52235050407,
			"0.004": 4.00399882241,
			"0.005": 3.59738141378,
			"0.006": 2.02636722748,
			"0.007": 3.01492240243,
			"0.008": 3.44780055633,
			"0.009": 1.82993212106,
			"0.01": 3.33175831464,
			"0.011": 3.51966933836,
			"0.012": 3.95214224645,
			"0.013": 3.09542196131,
			"0.014": 1.13819822434,
			"0.015": 1.45412752722,
			"0.016": 0.80125507465,
			"0.017": 0.625765638655,
			"0.018": 0.0,
			"0.019": 0.0,
			"0.02": 0.0,
			"0.021": 0.0,
			"0.022": 0.0,
			"0.023": 0.0,
			"0.024": 0.0,
			"0.025": 0.0
		}
	}
}
