{
	 "smiles": "CCNC(=O)NC(=O)C(=NOC)C#N", 
	 "Tm": 434.15, 
	 "num_atms": 24, 
	 "gaussian": { 
		 "optdone": 1, 
		 "sigma_profile": "yes", 
		 "theory": "DFT", 
		 "functional": "B3LYP", 
		 "basiset": "6-31G**", 
		 "properties": { 
			 "R2extent": 3053.023, 
			 "electric_dipole_moment_norm": 4.96918200613, 
			 "electric_quadrupole_moment_norm": 21.0435613086, 
			 "total_energy": -717.373349461, 
			 "HOMO_LUMO_gap": 0.16864, 
			 "cosmo_polarized_energy": -19.48, 
			 "cosmo_cavitation_energy": 30.41, 
			 "cosmo_dispersion_energy": -19.71, 
			 "cosmo_repulsion_energy": 1.63, 
			 "cosmo_total_nonelectrostatic_energy": 12.33, 
			 "SMD_solvation_energy": 8.93 
		},
		"coords": [
			{
				"x": 2.0123776364,
				"y": 1.242211669,
				"z": 0.5115242316,
				"element": "C" 
			},
			{
				"x": 0.7797690871,
				"y": 1.1199160468,
				"z": 1.4071953231,
				"element": "C" 
			},
			{
				"x": -0.264384329,
				"y": 2.0698990134,
				"z": 1.0183021566,
				"element": "N" 
			},
			{
				"x": -1.6219557724,
				"y": 1.9228874815,
				"z": 1.0794387124,
				"element": "C" 
			},
			{
				"x": -2.3916431855,
				"y": 2.857714781,
				"z": 1.216836748,
				"element": "O" 
			},
			{
				"x": -2.1394754248,
				"y": 0.5918656274,
				"z": 1.0317103822,
				"element": "N" 
			},
			{
				"x": -1.8935456451,
				"y": -0.5081046921,
				"z": 0.2321941924,
				"element": "C" 
			},
			{
				"x": -2.431336712,
				"y": -1.582684313,
				"z": 0.4332706487,
				"element": "O" 
			},
			{
				"x": -0.9867897767,
				"y": -0.347565617,
				"z": -0.9608406566,
				"element": "C" 
			},
			{
				"x": -1.0302160498,
				"y": 0.7665628931,
				"z": -1.6127106725,
				"element": "N" 
			},
			{
				"x": -0.2470622219,
				"y": 0.768335098,
				"z": -2.7242264121,
				"element": "O" 
			},
			{
				"x": -0.4065766431,
				"y": 2.0073288492,
				"z": -3.4366049404,
				"element": "C" 
			},
			{
				"x": -0.2200599127,
				"y": -1.4917536117,
				"z": -1.3673786928,
				"element": "C" 
			},
			{
				"x": 0.4268218402,
				"y": -2.4059831898,
				"z": -1.6777535903,
				"element": "N" 
			},
			{
				"x": 2.7841343731,
				"y": 0.5363278401,
				"z": 0.8322926512,
				"element": "H" 
			},
			{
				"x": 2.4398256241,
				"y": 2.249543558,
				"z": 0.5672202407,
				"element": "H" 
			},
			{
				"x": 1.7648852149,
				"y": 1.0348312315,
				"z": -0.5329623245,
				"element": "H" 
			},
			{
				"x": 1.0603366822,
				"y": 1.2879443393,
				"z": 2.4566799561,
				"element": "H" 
			},
			{
				"x": 0.3727652729,
				"y": 0.1094700177,
				"z": 1.3577136014,
				"element": "H" 
			},
			{
				"x": -0.0141053978,
				"y": 3.0488603381,
				"z": 1.0802147771,
				"element": "H" 
			},
			{
				"x": -3.0036962336,
				"y": 0.5028435464,
				"z": 1.5542946134,
				"element": "H" 
			},
			{
				"x": 0.2964979788,
				"y": 1.9460767766,
				"z": -4.2676519848,
				"element": "H" 
			},
			{
				"x": -1.4292572137,
				"y": 2.1026206675,
				"z": -3.8108208248,
				"element": "H" 
			},
			{
				"x": -0.1631091915,
				"y": 2.8531516489,
				"z": -2.7889381361,
				"element": "H" 
			}
		],
		 "valence_orbital": [ 
			{
				"type": "occ",
				"energy": -0.30859,
				"method": "rhf"
			},
			{
				"type": "occ",
				"energy": -0.29527,
				"method": "rhf"
			},
			{
				"type": "occ",
				"energy": -0.28661,
				"method": "rhf"
			},
			{
				"type": "occ",
				"energy": -0.27643,
				"method": "rhf"
			},
			{
				"type": "occ",
				"energy": -0.26307,
				"method": "rhf"
			},
			{
				"type": "unocc",
				"energy": -0.09443,
				"method": "rhf"
			},
			{
				"type": "unocc",
				"energy": -0.02059,
				"method": "rhf"
			},
			{
				"type": "unocc",
				"energy": 0.01303,
				"method": "rhf"
			},
			{
				"type": "unocc",
				"energy": 0.0316,
				"method": "rhf"
			},
			{
				"type": "unocc",
				"energy": 0.06611,
				"method": "rhf"
			}
		],
		"cosmo_sigma_profile": { 
			"-0.025": 0.0,
			"-0.024": 0.0,
			"-0.023": 0.0,
			"-0.022": 0.0,
			"-0.021": 0.0,
			"-0.02": 0.0,
			"-0.019": 0.0,
			"-0.018": 0.0,
			"-0.017": 0.0,
			"-0.016": 0.480462716129,
			"-0.015": 0.971501261871,
			"-0.014": 1.44373573024,
			"-0.013": 1.94587673459,
			"-0.012": 2.20442714822,
			"-0.011": 2.12381843737,
			"-0.01": 1.61399586594,
			"-0.009": 2.37427425623,
			"-0.008": 4.11041121056,
			"-0.007": 8.21298898812,
			"-0.006": 12.0862079903,
			"-0.005": 17.274954399,
			"-0.004": 24.7463472666,
			"-0.003": 22.8426609539,
			"-0.002": 17.191602867,
			"-0.001": 14.838057129,
			"0.0": 13.4189882233,
			"0.001": 10.334193206,
			"0.002": 6.11108928765,
			"0.003": 6.69924355577,
			"0.004": 8.15942393158,
			"0.005": 9.71446519305,
			"0.006": 8.29159333974,
			"0.007": 6.16817872293,
			"0.008": 5.86545518479,
			"0.009": 5.84319680846,
			"0.01": 7.62792882183,
			"0.011": 8.22278030503,
			"0.012": 5.6355420736,
			"0.013": 4.81572295476,
			"0.014": 0.397563478257,
			"0.015": 0.0,
			"0.016": 0.0,
			"0.017": 0.0,
			"0.018": 0.0,
			"0.019": 0.0,
			"0.02": 0.0,
			"0.021": 0.0,
			"0.022": 0.0,
			"0.023": 0.0,
			"0.024": 0.0,
			"0.025": 0.0
		}
	}
}
