{
	 "smiles": "NCC1=CN=C(S1)C1=CC=C(C=C1)C(F)(F)F", 
	 "Tm": 347.15, 
	 "num_atms": 26, 
	 "gaussian": { 
		 "optdone": 1, 
		 "sigma_profile": "yes", 
		 "theory": "DFT", 
		 "functional": "B3LYP", 
		 "basiset": "6-31G**", 
		 "properties": { 
			 "R2extent": 7310.8815, 
			 "electric_dipole_moment_norm": 2.3257075332, 
			 "electric_quadrupole_moment_norm": 15.0068965416, 
			 "total_energy": -1231.80753229, 
			 "HOMO_LUMO_gap": 0.16076, 
			 "cosmo_polarized_energy": -10.22, 
			 "cosmo_cavitation_energy": 33.66, 
			 "cosmo_dispersion_energy": -24.5, 
			 "cosmo_repulsion_energy": 1.79, 
			 "cosmo_total_nonelectrostatic_energy": 10.95, 
			 "SMD_solvation_energy": 3.83 
		},
		"coords": [
			{
				"x": 0.1143353148,
				"y": 0.7483132853,
				"z": -5.212059424,
				"element": "N" 
			},
			{
				"x": -0.9779913559,
				"y": 1.2443242132,
				"z": -4.3676146953,
				"element": "C" 
			},
			{
				"x": -0.7079250793,
				"y": 1.3121507767,
				"z": -2.8847547454,
				"element": "C" 
			},
			{
				"x": -0.5170574832,
				"y": 2.4213892275,
				"z": -2.1030308466,
				"element": "C" 
			},
			{
				"x": -0.2392202967,
				"y": 2.2108900547,
				"z": -0.7791311799,
				"element": "N" 
			},
			{
				"x": -0.2023309227,
				"y": 0.9360296005,
				"z": -0.4916642767,
				"element": "C" 
			},
			{
				"x": -0.5250697647,
				"y": -0.1073723239,
				"z": -1.8840799232,
				"element": "S" 
			},
			{
				"x": 0.0759001111,
				"y": 0.4065869817,
				"z": 0.8496974108,
				"element": "C" 
			},
			{
				"x": 0.102426664,
				"y": -0.9706413735,
				"z": 1.1216263719,
				"element": "C" 
			},
			{
				"x": 0.3694157571,
				"y": -1.4352577121,
				"z": 2.4054938293,
				"element": "C" 
			},
			{
				"x": 0.6128484671,
				"y": -0.5282058178,
				"z": 3.4396446605,
				"element": "C" 
			},
			{
				"x": 0.5871858385,
				"y": 0.8465228408,
				"z": 3.1814780976,
				"element": "C" 
			},
			{
				"x": 0.3207612131,
				"y": 1.3105776581,
				"z": 1.8994688816,
				"element": "C" 
			},
			{
				"x": 0.9592717715,
				"y": -1.027640502,
				"z": 4.815594959,
				"element": "C" 
			},
			{
				"x": 0.5320448131,
				"y": -0.18191058,
				"z": 5.7791780057,
				"element": "F" 
			},
			{
				"x": 2.2972197815,
				"y": -1.1593354716,
				"z": 4.9757472666,
				"element": "F" 
			},
			{
				"x": 0.413858404,
				"y": -2.2389196341,
				"z": 5.0646582059,
				"element": "F" 
			},
			{
				"x": 0.3159658013,
				"y": -0.2235228992,
				"z": -4.9889745437,
				"element": "H" 
			},
			{
				"x": 0.9650449087,
				"y": 1.2691570054,
				"z": -5.0109998311,
				"element": "H" 
			},
			{
				"x": -1.860050453,
				"y": 0.624445524,
				"z": -4.5645539113,
				"element": "H" 
			},
			{
				"x": -1.2339321567,
				"y": 2.2574193787,
				"z": -4.6985759469,
				"element": "H" 
			},
			{
				"x": -0.5771942249,
				"y": 3.4390073664,
				"z": -2.4747205374,
				"element": "H" 
			},
			{
				"x": -0.0890502417,
				"y": -1.6886613718,
				"z": 0.3295672257,
				"element": "H" 
			},
			{
				"x": 0.380627621,
				"y": -2.5005422531,
				"z": 2.6078409597,
				"element": "H" 
			},
			{
				"x": 0.7674027556,
				"y": 1.5495600174,
				"z": 3.9876604652,
				"element": "H" 
			},
			{
				"x": 0.2940127562,
				"y": 2.3730360088,
				"z": 1.6867035221,
				"element": "H" 
			}
		],
		 "valence_orbital": [ 
			{
				"type": "occ",
				"energy": -0.2897,
				"method": "rhf"
			},
			{
				"type": "occ",
				"energy": -0.28447,
				"method": "rhf"
			},
			{
				"type": "occ",
				"energy": -0.27152,
				"method": "rhf"
			},
			{
				"type": "occ",
				"energy": -0.25461,
				"method": "rhf"
			},
			{
				"type": "occ",
				"energy": -0.23025,
				"method": "rhf"
			},
			{
				"type": "unocc",
				"energy": -0.06949,
				"method": "rhf"
			},
			{
				"type": "unocc",
				"energy": -0.02118,
				"method": "rhf"
			},
			{
				"type": "unocc",
				"energy": 0.00216,
				"method": "rhf"
			},
			{
				"type": "unocc",
				"energy": 0.00643,
				"method": "rhf"
			},
			{
				"type": "unocc",
				"energy": 0.04833,
				"method": "rhf"
			}
		],
		"cosmo_sigma_profile": { 
			"-0.025": 0.0,
			"-0.024": 0.0,
			"-0.023": 0.0,
			"-0.022": 0.0,
			"-0.021": 0.0,
			"-0.02": 0.0,
			"-0.019": 0.0,
			"-0.018": 0.0,
			"-0.017": 0.0,
			"-0.016": 0.0,
			"-0.015": 0.0,
			"-0.014": 0.0,
			"-0.013": 0.0,
			"-0.012": 0.0,
			"-0.011": 0.0378719807144,
			"-0.01": 1.82499001242,
			"-0.009": 2.79812938163,
			"-0.008": 5.10116291263,
			"-0.007": 10.1981003384,
			"-0.006": 15.5047288632,
			"-0.005": 17.0729565166,
			"-0.004": 13.5633991963,
			"-0.003": 14.2352082588,
			"-0.002": 14.0580050605,
			"-0.001": 16.8951037384,
			"0.0": 19.8612621467,
			"0.001": 27.8996369024,
			"0.002": 41.7312265047,
			"0.003": 43.2408990822,
			"0.004": 6.11444849013,
			"0.005": 2.25221775799,
			"0.006": 2.93994192414,
			"0.007": 2.50452019725,
			"0.008": 2.02661054016,
			"0.009": 2.57141417032,
			"0.01": 1.3930353663,
			"0.011": 1.35313000155,
			"0.012": 1.53443868593,
			"0.013": 1.28038435836,
			"0.014": 0.300405894473,
			"0.015": 1.01171142231,
			"0.016": 0.471632312461,
			"0.017": 0.576988250856,
			"0.018": 0.763699964513,
			"0.019": 0.350541210631,
			"0.02": 0.0,
			"0.021": 0.0,
			"0.022": 0.0,
			"0.023": 0.0,
			"0.024": 0.0,
			"0.025": 0.0
		}
	}
}
