{
	 "smiles": "CC1=C(F)C=C(C=C1N)C(N)=O", 
	 "Tm": 462.15, 
	 "num_atms": 21, 
	 "gaussian": { 
		 "optdone": 1, 
		 "sigma_profile": "yes", 
		 "theory": "DFT", 
		 "functional": "B3LYP", 
		 "basiset": "6-31G**", 
		 "properties": { 
			 "R2extent": 2585.3439, 
			 "electric_dipole_moment_norm": 1.99456362646, 
			 "electric_quadrupole_moment_norm": 17.9392391965, 
			 "total_energy": -594.868037852, 
			 "HOMO_LUMO_gap": 0.18012, 
			 "cosmo_polarized_energy": -16.18, 
			 "cosmo_cavitation_energy": 25.28, 
			 "cosmo_dispersion_energy": -18.66, 
			 "cosmo_repulsion_energy": 1.47, 
			 "cosmo_total_nonelectrostatic_energy": 8.1, 
			 "SMD_solvation_energy": 5.52 
		},
		"coords": [
			{
				"x": 0.6567276611,
				"y": 2.6760879023,
				"z": 0.5217964391,
				"element": "C" 
			},
			{
				"x": 0.6346891061,
				"y": 1.1710188321,
				"z": 0.4894108769,
				"element": "C" 
			},
			{
				"x": -0.0248522116,
				"y": 0.4306515244,
				"z": 1.4685749583,
				"element": "C" 
			},
			{
				"x": -0.6759214024,
				"y": 1.1039533982,
				"z": 2.4490462526,
				"element": "F" 
			},
			{
				"x": -0.0626007875,
				"y": -0.9567148741,
				"z": 1.503160819,
				"element": "C" 
			},
			{
				"x": 0.6010079426,
				"y": -1.6567538223,
				"z": 0.4872385638,
				"element": "C" 
			},
			{
				"x": 1.2576743798,
				"y": -0.9578623717,
				"z": -0.5255095268,
				"element": "C" 
			},
			{
				"x": 1.2867097088,
				"y": 0.4439729818,
				"z": -0.5342708937,
				"element": "C" 
			},
			{
				"x": 2.0037684736,
				"y": 1.1259202316,
				"z": -1.5149402513,
				"element": "N" 
			},
			{
				"x": 0.6303225231,
				"y": -3.1577354134,
				"z": 0.4120768068,
				"element": "C" 
			},
			{
				"x": 0.3039461836,
				"y": -3.8281633705,
				"z": 1.5668959576,
				"element": "N" 
			},
			{
				"x": 0.9113020203,
				"y": -3.7530746588,
				"z": -0.62140108,
				"element": "O" 
			},
			{
				"x": 0.1709348506,
				"y": 3.0512496407,
				"z": 1.4226694136,
				"element": "H" 
			},
			{
				"x": 1.6857970166,
				"y": 3.0542482437,
				"z": 0.499486592,
				"element": "H" 
			},
			{
				"x": 0.1310890849,
				"y": 3.1088828516,
				"z": -0.3408336906,
				"element": "H" 
			},
			{
				"x": -0.6380360957,
				"y": -1.4479126993,
				"z": 2.2787513326,
				"element": "H" 
			},
			{
				"x": 1.7446021866,
				"y": -1.5289661784,
				"z": -1.3095263736,
				"element": "H" 
			},
			{
				"x": 1.6741846122,
				"y": 2.0530162247,
				"z": -1.7428710972,
				"element": "H" 
			},
			{
				"x": 2.2213875332,
				"y": 0.5828987171,
				"z": -2.3387709577,
				"element": "H" 
			},
			{
				"x": 0.4468637931,
				"y": -4.8274127188,
				"z": 1.5411917399,
				"element": "H" 
			},
			{
				"x": 0.3975034209,
				"y": -3.374604441,
				"z": 2.4621241185,
				"element": "H" 
			}
		],
		 "valence_orbital": [ 
			{
				"type": "occ",
				"energy": -0.30913,
				"method": "rhf"
			},
			{
				"type": "occ",
				"energy": -0.26942,
				"method": "rhf"
			},
			{
				"type": "occ",
				"energy": -0.24989,
				"method": "rhf"
			},
			{
				"type": "occ",
				"energy": -0.23899,
				"method": "rhf"
			},
			{
				"type": "occ",
				"energy": -0.21178,
				"method": "rhf"
			},
			{
				"type": "unocc",
				"energy": -0.03166,
				"method": "rhf"
			},
			{
				"type": "unocc",
				"energy": 0.01095,
				"method": "rhf"
			},
			{
				"type": "unocc",
				"energy": 0.06302,
				"method": "rhf"
			},
			{
				"type": "unocc",
				"energy": 0.07231,
				"method": "rhf"
			},
			{
				"type": "unocc",
				"energy": 0.08213,
				"method": "rhf"
			}
		],
		"cosmo_sigma_profile": { 
			"-0.025": 0.0,
			"-0.024": 0.0,
			"-0.023": 0.0,
			"-0.022": 0.0,
			"-0.021": 0.0,
			"-0.02": 0.0,
			"-0.019": 0.0,
			"-0.018": 0.0,
			"-0.017": 0.0,
			"-0.016": 0.0,
			"-0.015": 0.0400826108298,
			"-0.014": 1.34757271537,
			"-0.013": 2.65634734848,
			"-0.012": 5.28053968522,
			"-0.011": 4.98867950113,
			"-0.01": 4.44852914942,
			"-0.009": 6.66835047804,
			"-0.008": 6.20800623379,
			"-0.007": 4.26950594909,
			"-0.006": 5.70730866387,
			"-0.005": 6.00359623605,
			"-0.004": 8.22952057341,
			"-0.003": 9.10945419725,
			"-0.002": 9.2810203823,
			"-0.001": 11.9569487657,
			"0.0": 14.3989015351,
			"0.001": 13.6852866998,
			"0.002": 14.1069962657,
			"0.003": 12.943352153,
			"0.004": 20.2402919104,
			"0.005": 10.9492614826,
			"0.006": 3.50688186389,
			"0.007": 2.34567653836,
			"0.008": 3.12924835075,
			"0.009": 1.68588254991,
			"0.01": 2.49544529894,
			"0.011": 2.3308887216,
			"0.012": 2.63765917226,
			"0.013": 4.86352138338,
			"0.014": 4.49433915845,
			"0.015": 0.298219607969,
			"0.016": 0.0,
			"0.017": 0.0,
			"0.018": 0.0,
			"0.019": 0.0,
			"0.02": 0.0,
			"0.021": 0.0,
			"0.022": 0.0,
			"0.023": 0.0,
			"0.024": 0.0,
			"0.025": 0.0
		}
	}
}
