{
	 "smiles": "CC(=O)NC1=CC=C(C=CC2=NC3=CC(=CC=C3N2C2=CC=C(C)C=C2)[N+]([O-])=O)C=C1", 
	 "Tm": 523.15, 
	 "num_atms": 51, 
	 "gaussian": { 
		 "optdone": 1, 
		 "sigma_profile": "yes", 
		 "theory": "DFT", 
		 "functional": "B3LYP", 
		 "basiset": "6-31G**", 
		 "properties": { 
			 "R2extent": 19992.3197, 
			 "electric_dipole_moment_norm": 10.6292288827, 
			 "electric_quadrupole_moment_norm": 27.4963183286, 
			 "total_energy": -1371.21775531, 
			 "HOMO_LUMO_gap": 0.1289, 
			 "cosmo_polarized_energy": -22.3, 
			 "cosmo_cavitation_energy": 56.9, 
			 "cosmo_dispersion_energy": -39.42, 
			 "cosmo_repulsion_energy": 2.94, 
			 "cosmo_total_nonelectrostatic_energy": 20.41, 
			 "SMD_solvation_energy": 11.55 
		},
		"coords": [
			{
				"x": 5.3604365989,
				"y": 0.7605370583,
				"z": -3.2705790335,
				"element": "C" 
			},
			{
				"x": 5.3335757826,
				"y": 2.2597538793,
				"z": -3.4857728297,
				"element": "C" 
			},
			{
				"x": 6.3009164856,
				"y": 2.8704474104,
				"z": -3.9154014633,
				"element": "O" 
			},
			{
				"x": 4.1676746758,
				"y": 2.9660928121,
				"z": -3.2111708815,
				"element": "N" 
			},
			{
				"x": 2.8985720572,
				"y": 2.5866421555,
				"z": -2.7435342569,
				"element": "C" 
			},
			{
				"x": 2.6823200569,
				"y": 1.5411111647,
				"z": -1.8306471301,
				"element": "C" 
			},
			{
				"x": 1.4003991815,
				"y": 1.225937468,
				"z": -1.3940290955,
				"element": "C" 
			},
			{
				"x": 0.2780753675,
				"y": 1.9596956985,
				"z": -1.8302243886,
				"element": "C" 
			},
			{
				"x": -1.1081886898,
				"y": 1.7323021089,
				"z": -1.4376613596,
				"element": "C" 
			},
			{
				"x": -1.7689464879,
				"y": 0.8822564563,
				"z": -0.6051390168,
				"element": "C" 
			},
			{
				"x": -1.3340276781,
				"y": -0.197225966,
				"z": 0.2551981051,
				"element": "C" 
			},
			{
				"x": -0.1273227141,
				"y": -0.7129871634,
				"z": 0.4068392232,
				"element": "N" 
			},
			{
				"x": -0.2580039393,
				"y": -1.7412268952,
				"z": 1.3129928696,
				"element": "C" 
			},
			{
				"x": 0.7117471179,
				"y": -2.607345412,
				"z": 1.8225120655,
				"element": "C" 
			},
			{
				"x": 0.2794970986,
				"y": -3.5585448197,
				"z": 2.7409314528,
				"element": "C" 
			},
			{
				"x": -1.0584022022,
				"y": -3.6747719239,
				"z": 3.1652401222,
				"element": "C" 
			},
			{
				"x": -2.0263709032,
				"y": -2.8164382344,
				"z": 2.6624261117,
				"element": "C" 
			},
			{
				"x": -1.607445496,
				"y": -1.8581589939,
				"z": 1.7331446853,
				"element": "C" 
			},
			{
				"x": -2.2853401981,
				"y": -0.8657435944,
				"z": 1.0548814473,
				"element": "N" 
			},
			{
				"x": -3.6849757184,
				"y": -0.5954901559,
				"z": 1.1833061608,
				"element": "C" 
			},
			{
				"x": -4.6176705566,
				"y": -1.4941261525,
				"z": 0.657477753,
				"element": "C" 
			},
			{
				"x": -5.9805820446,
				"y": -1.2409190287,
				"z": 0.8039846411,
				"element": "C" 
			},
			{
				"x": -6.4397292877,
				"y": -0.0933604804,
				"z": 1.4652186582,
				"element": "C" 
			},
			{
				"x": -7.917450067,
				"y": 0.1618462776,
				"z": 1.6423173179,
				"element": "C" 
			},
			{
				"x": -5.4880604426,
				"y": 0.798957863,
				"z": 1.9791130338,
				"element": "C" 
			},
			{
				"x": -4.1224745861,
				"y": 0.552536291,
				"z": 1.8507054149,
				"element": "C" 
			},
			{
				"x": 1.2676163927,
				"y": -4.4889844363,
				"z": 3.2989861697,
				"element": "N" 
			},
			{
				"x": 0.8736057986,
				"y": -5.3279643089,
				"z": 4.1115519044,
				"element": "O" 
			},
			{
				"x": 2.4360562669,
				"y": -4.3798182368,
				"z": 2.9241399584,
				"element": "O" 
			},
			{
				"x": 0.5152375494,
				"y": 3.0260915739,
				"z": -2.7272899191,
				"element": "C" 
			},
			{
				"x": 1.7882199845,
				"y": 3.3339148098,
				"z": -3.1773217476,
				"element": "C" 
			},
			{
				"x": 6.1616136323,
				"y": 0.3608287191,
				"z": -3.8927955181,
				"element": "H" 
			},
			{
				"x": 5.5963117555,
				"y": 0.5285967831,
				"z": -2.2265477473,
				"element": "H" 
			},
			{
				"x": 4.4127236275,
				"y": 0.2783148565,
				"z": -3.5204851898,
				"element": "H" 
			},
			{
				"x": 4.2570560455,
				"y": 3.9272440145,
				"z": -3.5195689759,
				"element": "H" 
			},
			{
				"x": 3.5197780395,
				"y": 0.9820233584,
				"z": -1.4332956252,
				"element": "H" 
			},
			{
				"x": 1.2563162349,
				"y": 0.4106714181,
				"z": -0.6949487906,
				"element": "H" 
			},
			{
				"x": -1.7827011085,
				"y": 2.4271360458,
				"z": -1.9377646588,
				"element": "H" 
			},
			{
				"x": -2.8436807881,
				"y": 1.0316073325,
				"z": -0.5725968385,
				"element": "H" 
			},
			{
				"x": 1.7512570976,
				"y": -2.5519907247,
				"z": 1.5274933034,
				"element": "H" 
			},
			{
				"x": -1.3068772026,
				"y": -4.4423865311,
				"z": 3.886384756,
				"element": "H" 
			},
			{
				"x": -3.060932336,
				"y": -2.8897877386,
				"z": 2.9787963084,
				"element": "H" 
			},
			{
				"x": -4.2717549524,
				"y": -2.378220331,
				"z": 0.1310847773,
				"element": "H" 
			},
			{
				"x": -6.6989375659,
				"y": -1.9432761807,
				"z": 0.3896827688,
				"element": "H" 
			},
			{
				"x": -8.5010626792,
				"y": -0.2874721513,
				"z": 0.83375427,
				"element": "H" 
			},
			{
				"x": -8.2800805745,
				"y": -0.2679290941,
				"z": 2.5842808157,
				"element": "H" 
			},
			{
				"x": -8.1387094204,
				"y": 1.2327761182,
				"z": 1.6676265533,
				"element": "H" 
			},
			{
				"x": -5.8194992999,
				"y": 1.6969749448,
				"z": 2.4936336343,
				"element": "H" 
			},
			{
				"x": -3.3932538746,
				"y": 1.243195966,
				"z": 2.2623017273,
				"element": "H" 
			},
			{
				"x": -0.3246210215,
				"y": 3.6181592034,
				"z": -3.0821509022,
				"element": "H" 
			},
			{
				"x": 1.9343949878,
				"y": 4.1491167662,
				"z": -3.8810806407,
				"element": "H" 
			}
		],
		 "valence_orbital": [ 
			{
				"type": "occ",
				"energy": -0.26208,
				"method": "rhf"
			},
			{
				"type": "occ",
				"energy": -0.25651,
				"method": "rhf"
			},
			{
				"type": "occ",
				"energy": -0.24869,
				"method": "rhf"
			},
			{
				"type": "occ",
				"energy": -0.24432,
				"method": "rhf"
			},
			{
				"type": "occ",
				"energy": -0.2095,
				"method": "rhf"
			},
			{
				"type": "unocc",
				"energy": -0.0806,
				"method": "rhf"
			},
			{
				"type": "unocc",
				"energy": -0.0673,
				"method": "rhf"
			},
			{
				"type": "unocc",
				"energy": -0.03309,
				"method": "rhf"
			},
			{
				"type": "unocc",
				"energy": -0.03093,
				"method": "rhf"
			},
			{
				"type": "unocc",
				"energy": -0.0166,
				"method": "rhf"
			}
		],
		"cosmo_sigma_profile": { 
			"-0.025": 0.0,
			"-0.024": 0.0,
			"-0.023": 0.0,
			"-0.022": 0.0,
			"-0.021": 0.0,
			"-0.02": 0.0,
			"-0.019": 0.0,
			"-0.018": 0.0,
			"-0.017": 0.0,
			"-0.016": 0.0,
			"-0.015": 0.146735229422,
			"-0.014": 0.759746191281,
			"-0.013": 0.936572911928,
			"-0.012": 1.4760480706,
			"-0.011": 0.959691392031,
			"-0.01": 1.03495396316,
			"-0.009": 1.17608313453,
			"-0.008": 3.7236381204,
			"-0.007": 14.6593200479,
			"-0.006": 23.5950236188,
			"-0.005": 31.5722405581,
			"-0.004": 36.0442323278,
			"-0.003": 34.1140624549,
			"-0.002": 38.6109806511,
			"-0.001": 38.9510036924,
			"0.0": 34.7392470872,
			"0.001": 34.7576017963,
			"0.002": 30.2394157488,
			"0.003": 31.7819435324,
			"0.004": 32.2054303785,
			"0.005": 9.9849424842,
			"0.006": 7.94504162851,
			"0.007": 8.07025722082,
			"0.008": 13.0621090893,
			"0.009": 6.585295484,
			"0.01": 5.17348415663,
			"0.011": 3.1578870789,
			"0.012": 2.58801421186,
			"0.013": 5.57008686917,
			"0.014": 2.5113530499,
			"0.015": 0.192418193986,
			"0.016": 0.0,
			"0.017": 0.0,
			"0.018": 0.0,
			"0.019": 0.0,
			"0.02": 0.0,
			"0.021": 0.0,
			"0.022": 0.0,
			"0.023": 0.0,
			"0.024": 0.0,
			"0.025": 0.0
		}
	}
}
