{
	 "smiles": "CC1=C(CO)C(=NO1)C1=CC=CC=C1", 
	 "Tm": 354.65, 
	 "num_atms": 25, 
	 "gaussian": { 
		 "optdone": 1, 
		 "sigma_profile": "yes", 
		 "theory": "DFT", 
		 "functional": "B3LYP", 
		 "basiset": "6-31G**", 
		 "properties": { 
			 "R2extent": 3252.6403, 
			 "electric_dipole_moment_norm": 2.07925881265, 
			 "electric_quadrupole_moment_norm": 11.6876646474, 
			 "total_energy": -630.947643699, 
			 "HOMO_LUMO_gap": 0.20906, 
			 "cosmo_polarized_energy": -11.91, 
			 "cosmo_cavitation_energy": 28.79, 
			 "cosmo_dispersion_energy": -21.04, 
			 "cosmo_repulsion_energy": 1.67, 
			 "cosmo_total_nonelectrostatic_energy": 9.42, 
			 "SMD_solvation_energy": 5.01 
		},
		"coords": [
			{
				"x": 2.737863583,
				"y": 2.6770662075,
				"z": -1.7136358676,
				"element": "C" 
			},
			{
				"x": 2.1591426171,
				"y": 1.4552669701,
				"z": -1.0867460284,
				"element": "C" 
			},
			{
				"x": 0.8788442797,
				"y": 1.0417722267,
				"z": -0.8296756092,
				"element": "C" 
			},
			{
				"x": -0.4036682119,
				"y": 1.7392300418,
				"z": -1.2004478481,
				"element": "C" 
			},
			{
				"x": -0.34257086,
				"y": 2.4055593761,
				"z": -2.4601624181,
				"element": "O" 
			},
			{
				"x": 1.0611001416,
				"y": -0.2342725571,
				"z": -0.1908741636,
				"element": "C" 
			},
			{
				"x": 2.3394542726,
				"y": -0.5458310111,
				"z": -0.0880130548,
				"element": "N" 
			},
			{
				"x": 3.0333089188,
				"y": 0.5198635078,
				"z": -0.6587853389,
				"element": "O" 
			},
			{
				"x": 0.0462064883,
				"y": -1.1826033662,
				"z": 0.3113505034,
				"element": "C" 
			},
			{
				"x": -1.1299814096,
				"y": -0.7329696108,
				"z": 0.931737071,
				"element": "C" 
			},
			{
				"x": -2.0725881371,
				"y": -1.6446177234,
				"z": 1.4084314114,
				"element": "C" 
			},
			{
				"x": -1.8506712054,
				"y": -3.0159795676,
				"z": 1.2771126106,
				"element": "C" 
			},
			{
				"x": -0.6770926096,
				"y": -3.4727020353,
				"z": 0.6715281163,
				"element": "C" 
			},
			{
				"x": 0.2641035401,
				"y": -2.5653168395,
				"z": 0.1910814689,
				"element": "C" 
			},
			{
				"x": 1.9412089791,
				"y": 3.2546876947,
				"z": -2.1829656524,
				"element": "H" 
			},
			{
				"x": 3.2379941543,
				"y": 3.2992023155,
				"z": -0.9626433619,
				"element": "H" 
			},
			{
				"x": 3.4849271134,
				"y": 2.4087451985,
				"z": -2.4674721705,
				"element": "H" 
			},
			{
				"x": -0.6504709932,
				"y": 2.5257510088,
				"z": -0.477802781,
				"element": "H" 
			},
			{
				"x": -1.2299090575,
				"y": 1.0154509169,
				"z": -1.1765711904,
				"element": "H" 
			},
			{
				"x": -0.1314362473,
				"y": 1.7381186193,
				"z": -3.1269595795,
				"element": "H" 
			},
			{
				"x": -1.2965119217,
				"y": 0.3307407132,
				"z": 1.0704651434,
				"element": "H" 
			},
			{
				"x": -2.9759888763,
				"y": -1.2816943622,
				"z": 1.8899650935,
				"element": "H" 
			},
			{
				"x": -2.5855095986,
				"y": -3.7250625204,
				"z": 1.6471628922,
				"element": "H" 
			},
			{
				"x": -0.4968345059,
				"y": -4.5389849058,
				"z": 0.569611405,
				"element": "H" 
			},
			{
				"x": 1.176079546,
				"y": -2.9128202975,
				"z": -0.2825906515,
				"element": "H" 
			}
		],
		 "valence_orbital": [ 
			{
				"type": "occ",
				"energy": -0.29729,
				"method": "rhf"
			},
			{
				"type": "occ",
				"energy": -0.28456,
				"method": "rhf"
			},
			{
				"type": "occ",
				"energy": -0.25653,
				"method": "rhf"
			},
			{
				"type": "occ",
				"energy": -0.24842,
				"method": "rhf"
			},
			{
				"type": "occ",
				"energy": -0.24084,
				"method": "rhf"
			},
			{
				"type": "unocc",
				"energy": -0.03178,
				"method": "rhf"
			},
			{
				"type": "unocc",
				"energy": -0.00784,
				"method": "rhf"
			},
			{
				"type": "unocc",
				"energy": 0.00425,
				"method": "rhf"
			},
			{
				"type": "unocc",
				"energy": 0.05617,
				"method": "rhf"
			},
			{
				"type": "unocc",
				"energy": 0.08524,
				"method": "rhf"
			}
		],
		"cosmo_sigma_profile": { 
			"-0.025": 0.0,
			"-0.024": 0.0,
			"-0.023": 0.0,
			"-0.022": 0.0,
			"-0.021": 0.0,
			"-0.02": 0.0,
			"-0.019": 0.0,
			"-0.018": 0.0,
			"-0.017": 0.0,
			"-0.016": 0.242175122758,
			"-0.015": 0.996437488369,
			"-0.014": 0.966728237922,
			"-0.013": 0.686539164693,
			"-0.012": 1.13345053343,
			"-0.011": 0.832298980063,
			"-0.01": 0.667173341642,
			"-0.009": 1.04735902748,
			"-0.008": 0.908621468556,
			"-0.007": 2.45035384325,
			"-0.006": 13.7204332755,
			"-0.005": 18.803582389,
			"-0.004": 21.0668015798,
			"-0.003": 18.7985556362,
			"-0.002": 20.056461667,
			"-0.001": 17.4274404093,
			"0.0": 13.4765882895,
			"0.001": 14.8893926596,
			"0.002": 12.7182196006,
			"0.003": 11.8045660839,
			"0.004": 13.7540882434,
			"0.005": 12.385701518,
			"0.006": 4.10823436971,
			"0.007": 4.35908598067,
			"0.008": 5.72175933214,
			"0.009": 4.12097303098,
			"0.01": 2.42529258127,
			"0.011": 2.48046234629,
			"0.012": 2.79154599296,
			"0.013": 2.12514298037,
			"0.014": 2.28123614948,
			"0.015": 0.174617027251,
			"0.016": 0.0,
			"0.017": 0.0,
			"0.018": 0.0,
			"0.019": 0.0,
			"0.02": 0.0,
			"0.021": 0.0,
			"0.022": 0.0,
			"0.023": 0.0,
			"0.024": 0.0,
			"0.025": 0.0
		}
	}
}
