{
	 "smiles": "CC1=C(C)C=C(O1)C(O)=O", 
	 "Tm": 420.15, 
	 "num_atms": 18, 
	 "gaussian": { 
		 "optdone": 1, 
		 "sigma_profile": "yes", 
		 "theory": "DFT", 
		 "functional": "B3LYP", 
		 "basiset": "6-31G**", 
		 "properties": { 
			 "R2extent": 2067.3392, 
			 "electric_dipole_moment_norm": 5.92730814029, 
			 "electric_quadrupole_moment_norm": 23.3195009393, 
			 "total_energy": -497.232222301, 
			 "HOMO_LUMO_gap": 0.19279, 
			 "cosmo_polarized_energy": -16.26, 
			 "cosmo_cavitation_energy": 22.57, 
			 "cosmo_dispersion_energy": -16.61, 
			 "cosmo_repulsion_energy": 1.37, 
			 "cosmo_total_nonelectrostatic_energy": 7.34, 
			 "SMD_solvation_energy": 6.01 
		},
		"coords": [
			{
				"x": -0.7207013346,
				"y": -1.1718998197,
				"z": -2.1833799995,
				"element": "C" 
			},
			{
				"x": 0.0132306434,
				"y": -0.3394159507,
				"z": -1.1913442792,
				"element": "C" 
			},
			{
				"x": -0.3631712461,
				"y": 0.671682964,
				"z": -0.3388802705,
				"element": "C" 
			},
			{
				"x": -1.7261962265,
				"y": 1.2729717228,
				"z": -0.1621189503,
				"element": "C" 
			},
			{
				"x": 0.8299577169,
				"y": 1.0467642884,
				"z": 0.3554211783,
				"element": "C" 
			},
			{
				"x": 1.8395480728,
				"y": 0.2468745072,
				"z": -0.1142547221,
				"element": "C" 
			},
			{
				"x": 1.3429441705,
				"y": -0.5988548851,
				"z": -1.0628229723,
				"element": "O" 
			},
			{
				"x": 3.2836544365,
				"y": 0.1493280024,
				"z": 0.1602153824,
				"element": "C" 
			},
			{
				"x": 3.7203381495,
				"y": 0.8802366857,
				"z": 1.2259424932,
				"element": "O" 
			},
			{
				"x": 4.0563586106,
				"y": -0.5082336023,
				"z": -0.4934861185,
				"element": "O" 
			},
			{
				"x": -0.6641126614,
				"y": -2.2350115222,
				"z": -1.9243451959,
				"element": "H" 
			},
			{
				"x": -0.294993437,
				"y": -1.0553177444,
				"z": -3.1860353113,
				"element": "H" 
			},
			{
				"x": -1.7730631006,
				"y": -0.8839484727,
				"z": -2.221303452,
				"element": "H" 
			},
			{
				"x": -1.7195204932,
				"y": 2.3473088634,
				"z": -0.378098567,
				"element": "H" 
			},
			{
				"x": -2.0874972058,
				"y": 1.1503294625,
				"z": 0.8652439402,
				"element": "H" 
			},
			{
				"x": -2.4598403914,
				"y": 0.8088346456,
				"z": -0.826104512,
				"element": "H" 
			},
			{
				"x": 0.9087810897,
				"y": 1.8354801078,
				"z": 1.0932373334,
				"element": "H" 
			},
			{
				"x": 2.9715832068,
				"y": 1.2514707473,
				"z": 1.7128140232,
				"element": "H" 
			}
		],
		 "valence_orbital": [ 
			{
				"type": "occ",
				"energy": -0.36827,
				"method": "rhf"
			},
			{
				"type": "occ",
				"energy": -0.3111,
				"method": "rhf"
			},
			{
				"type": "occ",
				"energy": -0.2865,
				"method": "rhf"
			},
			{
				"type": "occ",
				"energy": -0.27043,
				"method": "rhf"
			},
			{
				"type": "occ",
				"energy": -0.23455,
				"method": "rhf"
			},
			{
				"type": "unocc",
				"energy": -0.04176,
				"method": "rhf"
			},
			{
				"type": "unocc",
				"energy": 0.03761,
				"method": "rhf"
			},
			{
				"type": "unocc",
				"energy": 0.0574,
				"method": "rhf"
			},
			{
				"type": "unocc",
				"energy": 0.08182,
				"method": "rhf"
			},
			{
				"type": "unocc",
				"energy": 0.10113,
				"method": "rhf"
			}
		],
		"cosmo_sigma_profile": { 
			"-0.025": 0.0,
			"-0.024": 0.0,
			"-0.023": 0.0,
			"-0.022": 0.0,
			"-0.021": 0.0,
			"-0.02": 0.0,
			"-0.019": 0.112434121132,
			"-0.018": 1.16024903528,
			"-0.017": 1.10386638477,
			"-0.016": 1.05219515744,
			"-0.015": 0.776385851207,
			"-0.014": 1.5419553136,
			"-0.013": 0.806204812461,
			"-0.012": 1.20007913426,
			"-0.011": 1.26330571955,
			"-0.01": 0.941676198089,
			"-0.009": 1.71569923939,
			"-0.008": 1.5790498743,
			"-0.007": 1.934522044,
			"-0.006": 5.8916571128,
			"-0.005": 9.90030106023,
			"-0.004": 14.0943672899,
			"-0.003": 15.9179746746,
			"-0.002": 19.4161265638,
			"-0.001": 19.002101009,
			"0.0": 12.0045552855,
			"0.001": 10.9426833337,
			"0.002": 8.85027336009,
			"0.003": 7.67766154195,
			"0.004": 2.42983824744,
			"0.005": 3.22013496646,
			"0.006": 3.26553197265,
			"0.007": 3.00079756667,
			"0.008": 3.06313209458,
			"0.009": 3.96550911103,
			"0.01": 5.14244293289,
			"0.011": 6.04595700674,
			"0.012": 6.68065526824,
			"0.013": 3.42234722767,
			"0.014": 0.269812480629,
			"0.015": 0.0,
			"0.016": 0.0,
			"0.017": 0.0,
			"0.018": 0.0,
			"0.019": 0.0,
			"0.02": 0.0,
			"0.021": 0.0,
			"0.022": 0.0,
			"0.023": 0.0,
			"0.024": 0.0,
			"0.025": 0.0
		}
	}
}
