{
	 "smiles": "CN1N=CC2=C1N=CN=C2N1CCNCC1", 
	 "Tm": 338.15, 
	 "num_atms": 30, 
	 "gaussian": { 
		 "optdone": 1, 
		 "sigma_profile": "yes", 
		 "theory": "DFT", 
		 "functional": "B3LYP", 
		 "basiset": "6-31G**", 
		 "properties": { 
			 "R2extent": 4753.4579, 
			 "electric_dipole_moment_norm": 2.77659303104, 
			 "electric_quadrupole_moment_norm": 10.1540940172, 
			 "total_energy": -717.996075296, 
			 "HOMO_LUMO_gap": 0.18333, 
			 "cosmo_polarized_energy": -12.37, 
			 "cosmo_cavitation_energy": 31.5, 
			 "cosmo_dispersion_energy": -23.9, 
			 "cosmo_repulsion_energy": 1.84, 
			 "cosmo_total_nonelectrostatic_energy": 9.45, 
			 "SMD_solvation_energy": -0.76 
		},
		"coords": [
			{
				"x": 1.5073401256,
				"y": -2.6317392948,
				"z": -4.2019197616,
				"element": "C" 
			},
			{
				"x": 1.0451820343,
				"y": -2.0221253617,
				"z": -2.9718934121,
				"element": "N" 
			},
			{
				"x": -0.2572896778,
				"y": -1.6592091414,
				"z": -2.8158082368,
				"element": "N" 
			},
			{
				"x": -0.3577667418,
				"y": -1.1521578341,
				"z": -1.5984590694,
				"element": "C" 
			},
			{
				"x": 0.8986398914,
				"y": -1.1671055663,
				"z": -0.9151021069,
				"element": "C" 
			},
			{
				"x": 1.7770741948,
				"y": -1.7590294373,
				"z": -1.8566405626,
				"element": "C" 
			},
			{
				"x": 3.0794873008,
				"y": -2.0460926571,
				"z": -1.6872577501,
				"element": "N" 
			},
			{
				"x": 3.4931812892,
				"y": -1.7214908495,
				"z": -0.4669651019,
				"element": "C" 
			},
			{
				"x": 2.7973353722,
				"y": -1.1562028247,
				"z": 0.5297117068,
				"element": "N" 
			},
			{
				"x": 1.5011921524,
				"y": -0.8388662665,
				"z": 0.3405798884,
				"element": "C" 
			},
			{
				"x": 0.8621442409,
				"y": -0.2149990659,
				"z": 1.375795451,
				"element": "N" 
			},
			{
				"x": 1.4518371513,
				"y": -0.1972407988,
				"z": 2.7209069619,
				"element": "C" 
			},
			{
				"x": 1.2584623553,
				"y": 1.1671955202,
				"z": 3.378712893,
				"element": "C" 
			},
			{
				"x": -0.1672855187,
				"y": 1.4970608256,
				"z": 3.3848469101,
				"element": "N" 
			},
			{
				"x": -0.6715859506,
				"y": 1.5964419299,
				"z": 2.0187924729,
				"element": "C" 
			},
			{
				"x": -0.5215065969,
				"y": 0.2443843688,
				"z": 1.3110829806,
				"element": "C" 
			},
			{
				"x": 1.3666129185,
				"y": -1.9455358924,
				"z": -5.0416079176,
				"element": "H" 
			},
			{
				"x": 0.9535122808,
				"y": -3.5538988883,
				"z": -4.3975573586,
				"element": "H" 
			},
			{
				"x": 2.5676900344,
				"y": -2.8550980274,
				"z": -4.0799635265,
				"element": "H" 
			},
			{
				"x": -1.3288064463,
				"y": -0.8194185984,
				"z": -1.2617341101,
				"element": "H" 
			},
			{
				"x": 4.5357627849,
				"y": -1.938639014,
				"z": -0.2392590702,
				"element": "H" 
			},
			{
				"x": 2.5063581728,
				"y": -0.4482739454,
				"z": 2.6269418153,
				"element": "H" 
			},
			{
				"x": 0.9554351649,
				"y": -0.9622377696,
				"z": 3.3360488806,
				"element": "H" 
			},
			{
				"x": 1.8698173655,
				"y": 1.9137477184,
				"z": 2.8382038233,
				"element": "H" 
			},
			{
				"x": 1.6208142947,
				"y": 1.1189964905,
				"z": 4.4110826856,
				"element": "H" 
			},
			{
				"x": -0.3245488738,
				"y": 2.3711676419,
				"z": 3.8781608298,
				"element": "H" 
			},
			{
				"x": -0.1418549715,
				"y": 2.3604350581,
				"z": 1.4185544102,
				"element": "H" 
			},
			{
				"x": -1.7332146634,
				"y": 1.8652121151,
				"z": 2.0424947371,
				"element": "H" 
			},
			{
				"x": -1.1917400351,
				"y": -0.4903328505,
				"z": 1.7820720745,
				"element": "H" 
			},
			{
				"x": -0.8122796488,
				"y": 0.3680524156,
				"z": 0.2706794635,
				"element": "H" 
			}
		],
		 "valence_orbital": [ 
			{
				"type": "occ",
				"energy": -0.26501,
				"method": "rhf"
			},
			{
				"type": "occ",
				"energy": -0.25112,
				"method": "rhf"
			},
			{
				"type": "occ",
				"energy": -0.24717,
				"method": "rhf"
			},
			{
				"type": "occ",
				"energy": -0.23503,
				"method": "rhf"
			},
			{
				"type": "occ",
				"energy": -0.20824,
				"method": "rhf"
			},
			{
				"type": "unocc",
				"energy": -0.02491,
				"method": "rhf"
			},
			{
				"type": "unocc",
				"energy": 0.012,
				"method": "rhf"
			},
			{
				"type": "unocc",
				"energy": 0.04692,
				"method": "rhf"
			},
			{
				"type": "unocc",
				"energy": 0.07671,
				"method": "rhf"
			},
			{
				"type": "unocc",
				"energy": 0.10598,
				"method": "rhf"
			}
		],
		"cosmo_sigma_profile": { 
			"-0.025": 0.0,
			"-0.024": 0.0,
			"-0.023": 0.0,
			"-0.022": 0.0,
			"-0.021": 0.0,
			"-0.02": 0.0,
			"-0.019": 0.0,
			"-0.018": 0.0,
			"-0.017": 0.0,
			"-0.016": 0.0,
			"-0.015": 0.0,
			"-0.014": 0.0,
			"-0.013": 0.0,
			"-0.012": 0.0,
			"-0.011": 0.381349889197,
			"-0.01": 1.39761840881,
			"-0.009": 2.34667722863,
			"-0.008": 3.14123550101,
			"-0.007": 4.55338833351,
			"-0.006": 9.44559033251,
			"-0.005": 14.2552843079,
			"-0.004": 25.9387287211,
			"-0.003": 30.7146309362,
			"-0.002": 28.4977597869,
			"-0.001": 19.1290086326,
			"0.0": 18.6163865514,
			"0.001": 17.116863554,
			"0.002": 12.355796719,
			"0.003": 10.0983542192,
			"0.004": 7.30161948014,
			"0.005": 6.6695998168,
			"0.006": 6.14834212132,
			"0.007": 4.23656712338,
			"0.008": 5.04756322051,
			"0.009": 3.67700883775,
			"0.01": 4.57494989473,
			"0.011": 3.86759006607,
			"0.012": 2.69590166265,
			"0.013": 2.77878627872,
			"0.014": 2.29464010836,
			"0.015": 1.0641252305,
			"0.016": 0.447737625535,
			"0.017": 0.394170658735,
			"0.018": 0.135542683868,
			"0.019": 0.0,
			"0.02": 0.0,
			"0.021": 0.0,
			"0.022": 0.0,
			"0.023": 0.0,
			"0.024": 0.0,
			"0.025": 0.0
		}
	}
}
