{
	 "smiles": "ClP(Cl)(=O)C1CCCCC1", 
	 "Tm": 314.65, 
	 "num_atms": 21, 
	 "gaussian": { 
		 "optdone": 1, 
		 "sigma_profile": "yes", 
		 "theory": "DFT", 
		 "functional": "B3LYP", 
		 "basiset": "6-31G**", 
		 "properties": { 
			 "R2extent": 2647.1102, 
			 "electric_dipole_moment_norm": 4.37900468828, 
			 "electric_quadrupole_moment_norm": 9.08626637239, 
			 "total_energy": -1572.31143305, 
			 "HOMO_LUMO_gap": 0.25762, 
			 "cosmo_polarized_energy": -8.29, 
			 "cosmo_cavitation_energy": 26.47, 
			 "cosmo_dispersion_energy": -19.91, 
			 "cosmo_repulsion_energy": 1.57, 
			 "cosmo_total_nonelectrostatic_energy": 8.13, 
			 "SMD_solvation_energy": 3.67 
		},
		"coords": [
			{
				"x": 0.2503767179,
				"y": -2.1244263191,
				"z": 1.4267735289,
				"element": "Cl" 
			},
			{
				"x": -1.2648759966,
				"y": -0.7328621137,
				"z": 1.6708941487,
				"element": "P" 
			},
			{
				"x": -0.9607378039,
				"y": -0.1218508002,
				"z": 3.6289166849,
				"element": "Cl" 
			},
			{
				"x": -2.609118465,
				"y": -1.3077340007,
				"z": 1.4338691803,
				"element": "O" 
			},
			{
				"x": -0.8921572617,
				"y": 0.7919123373,
				"z": 0.6931892077,
				"element": "C" 
			},
			{
				"x": 0.5198583973,
				"y": 1.4061440924,
				"z": 0.8275761559,
				"element": "C" 
			},
			{
				"x": 1.5710553696,
				"y": 0.8079738154,
				"z": -0.123276896,
				"element": "C" 
			},
			{
				"x": 1.0719420639,
				"y": 0.7550776906,
				"z": -1.5746430342,
				"element": "C" 
			},
			{
				"x": -0.2595428555,
				"y": -0.0026685145,
				"z": -1.6788838864,
				"element": "C" 
			},
			{
				"x": -1.3332475154,
				"y": 0.6310481118,
				"z": -0.7826089844,
				"element": "C" 
			},
			{
				"x": -1.6075101097,
				"y": 1.4644084067,
				"z": 1.1881771843,
				"element": "H" 
			},
			{
				"x": 0.8634644836,
				"y": 1.3617295604,
				"z": 1.8661520655,
				"element": "H" 
			},
			{
				"x": 0.4048926856,
				"y": 2.4729212317,
				"z": 0.5929857995,
				"element": "H" 
			},
			{
				"x": 1.8425312268,
				"y": -0.2009336872,
				"z": 0.2037504176,
				"element": "H" 
			},
			{
				"x": 2.4839317579,
				"y": 1.4109393896,
				"z": -0.056457153,
				"element": "H" 
			},
			{
				"x": 1.8278206664,
				"y": 0.2847639981,
				"z": -2.2135592856,
				"element": "H" 
			},
			{
				"x": 0.9351990088,
				"y": 1.7783945518,
				"z": -1.9532896555,
				"element": "H" 
			},
			{
				"x": -0.6176526101,
				"y": -0.005272842,
				"z": -2.7145760986,
				"element": "H" 
			},
			{
				"x": -0.1085927044,
				"y": -1.0533669638,
				"z": -1.4014883488,
				"element": "H" 
			},
			{
				"x": -2.2739701946,
				"y": 0.0752621044,
				"z": -0.8337764717,
				"element": "H" 
			},
			{
				"x": -1.5464668611,
				"y": 1.644139951,
				"z": -1.1499245591,
				"element": "H" 
			}
		],
		 "valence_orbital": [ 
			{
				"type": "occ",
				"energy": -0.32395,
				"method": "rhf"
			},
			{
				"type": "occ",
				"energy": -0.32278,
				"method": "rhf"
			},
			{
				"type": "occ",
				"energy": -0.32069,
				"method": "rhf"
			},
			{
				"type": "occ",
				"energy": -0.30976,
				"method": "rhf"
			},
			{
				"type": "occ",
				"energy": -0.30573,
				"method": "rhf"
			},
			{
				"type": "unocc",
				"energy": -0.04811,
				"method": "rhf"
			},
			{
				"type": "unocc",
				"energy": 0.0078,
				"method": "rhf"
			},
			{
				"type": "unocc",
				"energy": 0.04727,
				"method": "rhf"
			},
			{
				"type": "unocc",
				"energy": 0.06374,
				"method": "rhf"
			},
			{
				"type": "unocc",
				"energy": 0.08641,
				"method": "rhf"
			}
		],
		"cosmo_sigma_profile": { 
			"-0.025": 0.0,
			"-0.024": 0.0,
			"-0.023": 0.0,
			"-0.022": 0.0,
			"-0.021": 0.0,
			"-0.02": 0.0,
			"-0.019": 0.0,
			"-0.018": 0.0,
			"-0.017": 0.0,
			"-0.016": 0.0,
			"-0.015": 0.0,
			"-0.014": 0.0,
			"-0.013": 0.0,
			"-0.012": 0.0,
			"-0.011": 0.0,
			"-0.01": 0.278985241667,
			"-0.009": 1.08880274878,
			"-0.008": 2.31132280761,
			"-0.007": 2.66174111156,
			"-0.006": 3.23825945078,
			"-0.005": 6.90349634061,
			"-0.004": 10.6381381135,
			"-0.003": 19.898380771,
			"-0.002": 29.6196879666,
			"-0.001": 34.1908888967,
			"0.0": 26.1981726296,
			"0.001": 17.0753138781,
			"0.002": 15.6463012405,
			"0.003": 16.0622145851,
			"0.004": 5.48323022403,
			"0.005": 1.57587642454,
			"0.006": 0.787476554132,
			"0.007": 1.02606877318,
			"0.008": 1.40208619488,
			"0.009": 1.11710268432,
			"0.01": 1.57425357505,
			"0.011": 3.02142568901,
			"0.012": 5.82605436855,
			"0.013": 1.65385629312,
			"0.014": 0.0,
			"0.015": 0.0,
			"0.016": 0.0,
			"0.017": 0.0,
			"0.018": 0.0,
			"0.019": 0.0,
			"0.02": 0.0,
			"0.021": 0.0,
			"0.022": 0.0,
			"0.023": 0.0,
			"0.024": 0.0,
			"0.025": 0.0
		}
	}
}
