{
	 "smiles": "CC1=CC=C(C=C1)N=NC1=C2NC(=O)C=C(C)N2N=C1N", 
	 "Tm": 558.15, 
	 "num_atms": 35, 
	 "gaussian": { 
		 "optdone": 1, 
		 "sigma_profile": "yes", 
		 "theory": "DFT", 
		 "functional": "B3LYP", 
		 "basiset": "6-31G**", 
		 "properties": { 
			 "R2extent": 9330.6346, 
			 "electric_dipole_moment_norm": 3.94979417185, 
			 "electric_quadrupole_moment_norm": 23.7630497176, 
			 "total_energy": -945.639017495, 
			 "HOMO_LUMO_gap": 0.13247, 
			 "cosmo_polarized_energy": -16.89, 
			 "cosmo_cavitation_energy": 40.31, 
			 "cosmo_dispersion_energy": -29.11, 
			 "cosmo_repulsion_energy": 2.23, 
			 "cosmo_total_nonelectrostatic_energy": 13.43, 
			 "SMD_solvation_energy": 5.71 
		},
		"coords": [
			{
				"x": 2.485621739,
				"y": 0.0626167353,
				"z": 5.6870700247,
				"element": "C" 
			},
			{
				"x": 1.7298067923,
				"y": -0.1388171856,
				"z": 4.3960593004,
				"element": "C" 
			},
			{
				"x": 1.9944895342,
				"y": -1.2286280047,
				"z": 3.5586305729,
				"element": "C" 
			},
			{
				"x": 1.2825459261,
				"y": -1.4139423603,
				"z": 2.3752059687,
				"element": "C" 
			},
			{
				"x": 0.2844029641,
				"y": -0.5071720038,
				"z": 1.9954559699,
				"element": "C" 
			},
			{
				"x": 0.0096046866,
				"y": 0.5926115922,
				"z": 2.8295959788,
				"element": "C" 
			},
			{
				"x": 0.7245723426,
				"y": 0.7656590221,
				"z": 4.0059143812,
				"element": "C" 
			},
			{
				"x": -0.3770505429,
				"y": -0.7848680121,
				"z": 0.7793648026,
				"element": "N" 
			},
			{
				"x": -1.2611689817,
				"y": 0.069626104,
				"z": 0.4350208295,
				"element": "N" 
			},
			{
				"x": -1.8929669902,
				"y": -0.2107253808,
				"z": -0.7452028793,
				"element": "C" 
			},
			{
				"x": -1.7174402184,
				"y": -1.2656898283,
				"z": -1.6484350523,
				"element": "C" 
			},
			{
				"x": -0.9032320119,
				"y": -2.3470013047,
				"z": -1.6600289268,
				"element": "N" 
			},
			{
				"x": -0.8920079046,
				"y": -3.2993960118,
				"z": -2.7047899113,
				"element": "C" 
			},
			{
				"x": -0.1332566715,
				"y": -4.256526598,
				"z": -2.663259461,
				"element": "O" 
			},
			{
				"x": -1.8476672497,
				"y": -3.0027474117,
				"z": -3.7689064663,
				"element": "C" 
			},
			{
				"x": -2.6680697503,
				"y": -1.9139114218,
				"z": -3.7576774473,
				"element": "C" 
			},
			{
				"x": -3.6618719138,
				"y": -1.5654530348,
				"z": -4.8198742445,
				"element": "C" 
			},
			{
				"x": -2.5825857382,
				"y": -1.0552740599,
				"z": -2.6805016824,
				"element": "N" 
			},
			{
				"x": -3.3391619053,
				"y": 0.1017722797,
				"z": -2.5173442813,
				"element": "N" 
			},
			{
				"x": -2.9211635577,
				"y": 0.5913045286,
				"z": -1.3561993934,
				"element": "C" 
			},
			{
				"x": -3.4626539112,
				"y": 1.7164585032,
				"z": -0.7976189218,
				"element": "N" 
			},
			{
				"x": 2.8993926214,
				"y": 1.0750799299,
				"z": 5.754322586,
				"element": "H" 
			},
			{
				"x": 1.8310034723,
				"y": -0.0735405392,
				"z": 6.5566441859,
				"element": "H" 
			},
			{
				"x": 3.3130432135,
				"y": -0.6458288706,
				"z": 5.7814188752,
				"element": "H" 
			},
			{
				"x": 2.7668618177,
				"y": -1.9413705078,
				"z": 3.8357762274,
				"element": "H" 
			},
			{
				"x": 1.4891997716,
				"y": -2.260026667,
				"z": 1.7267736686,
				"element": "H" 
			},
			{
				"x": -0.7641473936,
				"y": 1.2929749487,
				"z": 2.5371551162,
				"element": "H" 
			},
			{
				"x": 0.5036718933,
				"y": 1.6194733248,
				"z": 4.6427211272,
				"element": "H" 
			},
			{
				"x": -0.2796475804,
				"y": -2.4501451608,
				"z": -0.8643269063,
				"element": "H" 
			},
			{
				"x": -1.8822286141,
				"y": -3.7020387708,
				"z": -4.5937301308,
				"element": "H" 
			},
			{
				"x": -4.6695447615,
				"y": -1.5096064396,
				"z": -4.3967512293,
				"element": "H" 
			},
			{
				"x": -3.6413168509,
				"y": -2.312120338,
				"z": -5.6147712809,
				"element": "H" 
			},
			{
				"x": -3.4427463787,
				"y": -0.5789453689,
				"z": -5.2398626461,
				"element": "H" 
			},
			{
				"x": -3.948577285,
				"y": 2.3371299111,
				"z": -1.4279494105,
				"element": "H" 
			},
			{
				"x": -2.8968105629,
				"y": 2.1608684015,
				"z": -0.0898993435,
				"element": "H" 
			}
		],
		 "valence_orbital": [ 
			{
				"type": "occ",
				"energy": -0.25967,
				"method": "rhf"
			},
			{
				"type": "occ",
				"energy": -0.25235,
				"method": "rhf"
			},
			{
				"type": "occ",
				"energy": -0.23361,
				"method": "rhf"
			},
			{
				"type": "occ",
				"energy": -0.2148,
				"method": "rhf"
			},
			{
				"type": "occ",
				"energy": -0.20582,
				"method": "rhf"
			},
			{
				"type": "unocc",
				"energy": -0.07335,
				"method": "rhf"
			},
			{
				"type": "unocc",
				"energy": -0.03671,
				"method": "rhf"
			},
			{
				"type": "unocc",
				"energy": -0.00214,
				"method": "rhf"
			},
			{
				"type": "unocc",
				"energy": 0.01264,
				"method": "rhf"
			},
			{
				"type": "unocc",
				"energy": 0.03363,
				"method": "rhf"
			}
		],
		"cosmo_sigma_profile": { 
			"-0.025": 0.0,
			"-0.024": 0.0,
			"-0.023": 0.0,
			"-0.022": 0.0,
			"-0.021": 0.0,
			"-0.02": 0.0,
			"-0.019": 0.0,
			"-0.018": 0.0,
			"-0.017": 0.0,
			"-0.016": 0.0,
			"-0.015": 0.0,
			"-0.014": 0.579856117283,
			"-0.013": 1.73839048198,
			"-0.012": 2.36743421148,
			"-0.011": 2.21266402081,
			"-0.01": 2.92728781746,
			"-0.009": 2.72211163622,
			"-0.008": 3.21434133578,
			"-0.007": 5.85541117471,
			"-0.006": 10.8783699891,
			"-0.005": 18.9604837847,
			"-0.004": 25.640410585,
			"-0.003": 29.2511305947,
			"-0.002": 31.4556819898,
			"-0.001": 27.0124732993,
			"0.0": 25.4262819976,
			"0.001": 19.0024024452,
			"0.002": 19.6081003775,
			"0.003": 21.5308947418,
			"0.004": 19.9375379965,
			"0.005": 15.5760267776,
			"0.006": 4.8213360735,
			"0.007": 4.15840622656,
			"0.008": 3.39363515376,
			"0.009": 3.40561678657,
			"0.01": 2.70887576118,
			"0.011": 3.45105027763,
			"0.012": 3.43686254106,
			"0.013": 6.85779960854,
			"0.014": 3.47414005158,
			"0.015": 0.244509413134,
			"0.016": 0.0,
			"0.017": 0.0,
			"0.018": 0.0,
			"0.019": 0.0,
			"0.02": 0.0,
			"0.021": 0.0,
			"0.022": 0.0,
			"0.023": 0.0,
			"0.024": 0.0,
			"0.025": 0.0
		}
	}
}
