{
	 "smiles": "OC(=O)C1=CSC(=N1)C1=CC=C(C=C1)[N+]([O-])=O", 
	 "Tm": 472.15, 
	 "num_atms": 23, 
	 "gaussian": { 
		 "optdone": 1, 
		 "sigma_profile": "yes", 
		 "theory": "DFT", 
		 "functional": "B3LYP", 
		 "basiset": "6-31G**", 
		 "properties": { 
			 "R2extent": 6555.3208, 
			 "electric_dipole_moment_norm": 2.86766362916, 
			 "electric_quadrupole_moment_norm": 36.8855285554, 
			 "total_energy": -1193.17516866, 
			 "HOMO_LUMO_gap": 0.149, 
			 "cosmo_polarized_energy": -17.01, 
			 "cosmo_cavitation_energy": 31.35, 
			 "cosmo_dispersion_energy": -23.5, 
			 "cosmo_repulsion_energy": 1.74, 
			 "cosmo_total_nonelectrostatic_energy": 9.59, 
			 "SMD_solvation_energy": 8.06 
		},
		"coords": [
			{
				"x": 2.8781413163,
				"y": 2.7082675937,
				"z": 0.7069783631,
				"element": "O" 
			},
			{
				"x": 3.1230579918,
				"y": 1.8944345874,
				"z": 1.7525552788,
				"element": "C" 
			},
			{
				"x": 3.9509171197,
				"y": 2.1434766614,
				"z": 2.5968567854,
				"element": "O" 
			},
			{
				"x": 2.2804879093,
				"y": 0.6610041497,
				"z": 1.7718648438,
				"element": "C" 
			},
			{
				"x": 2.3508737092,
				"y": -0.3106072947,
				"z": 2.7336872814,
				"element": "C" 
			},
			{
				"x": 1.2160626003,
				"y": -1.5565237208,
				"z": 2.3873780597,
				"element": "S" 
			},
			{
				"x": 0.7086626449,
				"y": -0.6736941796,
				"z": 0.9415517193,
				"element": "C" 
			},
			{
				"x": 1.3604743399,
				"y": 0.4492621773,
				"z": 0.7751994857,
				"element": "N" 
			},
			{
				"x": -0.3361536972,
				"y": -1.1654665438,
				"z": 0.0351260926,
				"element": "C" 
			},
			{
				"x": -1.0026399754,
				"y": -2.3821644624,
				"z": 0.2639611114,
				"element": "C" 
			},
			{
				"x": -1.988405302,
				"y": -2.8266460473,
				"z": -0.6087257925,
				"element": "C" 
			},
			{
				"x": -2.3049288519,
				"y": -2.0434757282,
				"z": -1.7165918803,
				"element": "C" 
			},
			{
				"x": -1.6629336282,
				"y": -0.8324596569,
				"z": -1.9719616309,
				"element": "C" 
			},
			{
				"x": -0.6794157454,
				"y": -0.3974949092,
				"z": -1.0936259128,
				"element": "C" 
			},
			{
				"x": -3.3481623832,
				"y": -2.5095234226,
				"z": -2.6441539344,
				"element": "N" 
			},
			{
				"x": -3.6061397182,
				"y": -1.7970713697,
				"z": -3.6129502888,
				"element": "O" 
			},
			{
				"x": -3.8956134332,
				"y": -3.5817626976,
				"z": -2.3911831551,
				"element": "O" 
			},
			{
				"x": 2.1764427942,
				"y": 2.3005909116,
				"z": 0.1676531425,
				"element": "H" 
			},
			{
				"x": 3.0021445177,
				"y": -0.3347638064,
				"z": 3.5951411336,
				"element": "H" 
			},
			{
				"x": -0.7546141688,
				"y": -2.9913584007,
				"z": 1.1278134015,
				"element": "H" 
			},
			{
				"x": -2.5119901023,
				"y": -3.7604846498,
				"z": -0.4485255552,
				"element": "H" 
			},
			{
				"x": -1.9408284239,
				"y": -0.2560001316,
				"z": -2.845282739,
				"element": "H" 
			},
			{
				"x": -0.1648395138,
				"y": 0.5396609401,
				"z": -1.26836581,
				"element": "H" 
			}
		],
		 "valence_orbital": [ 
			{
				"type": "occ",
				"energy": -0.31628,
				"method": "rhf"
			},
			{
				"type": "occ",
				"energy": -0.30307,
				"method": "rhf"
			},
			{
				"type": "occ",
				"energy": -0.29715,
				"method": "rhf"
			},
			{
				"type": "occ",
				"energy": -0.28342,
				"method": "rhf"
			},
			{
				"type": "occ",
				"energy": -0.2643,
				"method": "rhf"
			},
			{
				"type": "unocc",
				"energy": -0.1153,
				"method": "rhf"
			},
			{
				"type": "unocc",
				"energy": -0.07163,
				"method": "rhf"
			},
			{
				"type": "unocc",
				"energy": -0.0488,
				"method": "rhf"
			},
			{
				"type": "unocc",
				"energy": -0.04244,
				"method": "rhf"
			},
			{
				"type": "unocc",
				"energy": -0.01702,
				"method": "rhf"
			}
		],
		"cosmo_sigma_profile": { 
			"-0.025": 0.0,
			"-0.024": 0.0,
			"-0.023": 0.0,
			"-0.022": 0.0,
			"-0.021": 0.0,
			"-0.02": 0.0,
			"-0.019": 0.0,
			"-0.018": 0.0,
			"-0.017": 0.0,
			"-0.016": 0.0,
			"-0.015": 0.00280688810033,
			"-0.014": 0.601446280643,
			"-0.013": 0.269753517344,
			"-0.012": 0.764233450404,
			"-0.011": 2.06815516118,
			"-0.01": 2.72149356121,
			"-0.009": 3.86996832757,
			"-0.008": 7.22974801977,
			"-0.007": 10.2256770291,
			"-0.006": 11.6987363164,
			"-0.005": 11.7165798103,
			"-0.004": 14.5057850117,
			"-0.003": 17.5421832765,
			"-0.002": 22.1286253169,
			"-0.001": 28.1865468116,
			"0.0": 30.226752567,
			"0.001": 17.4261794141,
			"0.002": 6.17851930678,
			"0.003": 5.66657166383,
			"0.004": 5.57949516158,
			"0.005": 4.85453133466,
			"0.006": 5.92939542893,
			"0.007": 11.458544396,
			"0.008": 10.116198819,
			"0.009": 7.73503767826,
			"0.01": 7.07677416047,
			"0.011": 5.07696822705,
			"0.012": 3.91193229524,
			"0.013": 1.00416210528,
			"0.014": 0.0,
			"0.015": 0.0,
			"0.016": 0.0,
			"0.017": 0.0,
			"0.018": 0.0,
			"0.019": 0.0,
			"0.02": 0.0,
			"0.021": 0.0,
			"0.022": 0.0,
			"0.023": 0.0,
			"0.024": 0.0,
			"0.025": 0.0
		}
	}
}
