{
	 "smiles": "CC1=C(N=C(S1)C1=CC=CN=C1)C1=CC=CC=C1", 
	 "Tm": 353.15, 
	 "num_atms": 30, 
	 "gaussian": { 
		 "optdone": 1, 
		 "sigma_profile": "yes", 
		 "theory": "DFT", 
		 "functional": "B3LYP", 
		 "basiset": "6-31G**", 
		 "properties": { 
			 "R2extent": 7753.2568, 
			 "electric_dipole_moment_norm": 2.22271312814, 
			 "electric_quadrupole_moment_norm": 19.7392270203, 
			 "total_energy": -1086.52372879, 
			 "HOMO_LUMO_gap": 0.15559, 
			 "cosmo_polarized_energy": -9.39, 
			 "cosmo_cavitation_energy": 35.64, 
			 "cosmo_dispersion_energy": -26.37, 
			 "cosmo_repulsion_energy": 1.96, 
			 "cosmo_total_nonelectrostatic_energy": 11.23, 
			 "SMD_solvation_energy": 3.16 
		},
		"coords": [
			{
				"x": 1.0315116227,
				"y": -3.810603459,
				"z": -0.8265136195,
				"element": "C" 
			},
			{
				"x": 0.826647934,
				"y": -2.44582369,
				"z": -1.4153045162,
				"element": "C" 
			},
			{
				"x": 0.4362906714,
				"y": -1.2616479812,
				"z": -0.819952998,
				"element": "C" 
			},
			{
				"x": 0.266363467,
				"y": -0.1989522326,
				"z": -1.6851661406,
				"element": "N" 
			},
			{
				"x": 0.5333570593,
				"y": -0.5098275449,
				"z": -2.9230395573,
				"element": "C" 
			},
			{
				"x": 1.0175872523,
				"y": -2.1915033689,
				"z": -3.1298850985,
				"element": "S" 
			},
			{
				"x": 0.451581392,
				"y": 0.4418370156,
				"z": -4.03629845,
				"element": "C" 
			},
			{
				"x": 0.1171546235,
				"y": 1.7831528622,
				"z": -3.7889517046,
				"element": "C" 
			},
			{
				"x": 0.0423403182,
				"y": 2.6653775274,
				"z": -4.859715338,
				"element": "C" 
			},
			{
				"x": 0.3047736964,
				"y": 2.1860170242,
				"z": -6.1456826196,
				"element": "C" 
			},
			{
				"x": 0.6257204049,
				"y": 0.9120475755,
				"z": -6.4047546519,
				"element": "N" 
			},
			{
				"x": 0.6933129854,
				"y": 0.0721956263,
				"z": -5.3695476465,
				"element": "C" 
			},
			{
				"x": 0.1548834099,
				"y": -1.0398409391,
				"z": 0.6157047452,
				"element": "C" 
			},
			{
				"x": 0.8758540014,
				"y": -1.6900263512,
				"z": 1.6309058084,
				"element": "C" 
			},
			{
				"x": 0.5794147999,
				"y": -1.4596443206,
				"z": 2.9748884346,
				"element": "C" 
			},
			{
				"x": -0.4350785018,
				"y": -0.5697918536,
				"z": 3.3288997797,
				"element": "C" 
			},
			{
				"x": -1.1453621274,
				"y": 0.098025857,
				"z": 2.327701724,
				"element": "C" 
			},
			{
				"x": -0.8518380683,
				"y": -0.1307624728,
				"z": 0.9858848037,
				"element": "C" 
			},
			{
				"x": 0.7028539833,
				"y": -4.5930286063,
				"z": -1.5171713746,
				"element": "H" 
			},
			{
				"x": 2.0852470234,
				"y": -4.0049383596,
				"z": -0.5909107881,
				"element": "H" 
			},
			{
				"x": 0.4582928937,
				"y": -3.9128454196,
				"z": 0.0980772699,
				"element": "H" 
			},
			{
				"x": -0.0733521121,
				"y": 2.1002495705,
				"z": -2.7694466073,
				"element": "H" 
			},
			{
				"x": -0.212809987,
				"y": 3.7091986538,
				"z": -4.7054617391,
				"element": "H" 
			},
			{
				"x": 0.2558318052,
				"y": 2.8526568653,
				"z": -7.0046621928,
				"element": "H" 
			},
			{
				"x": 0.9538087412,
				"y": -0.9573269551,
				"z": -5.6138906705,
				"element": "H" 
			},
			{
				"x": 1.695014052,
				"y": -2.3527148744,
				"z": 1.3729860325,
				"element": "H" 
			},
			{
				"x": 1.1525169453,
				"y": -1.9676848757,
				"z": 3.7453633562,
				"element": "H" 
			},
			{
				"x": -0.6643817258,
				"y": -0.390149905,
				"z": 4.3752796729,
				"element": "H" 
			},
			{
				"x": -1.9308915964,
				"y": 0.7997189446,
				"z": 2.5939380575,
				"element": "H" 
			},
			{
				"x": -1.3954449638,
				"y": 0.3914356871,
				"z": 0.2059260285,
				"element": "H" 
			}
		],
		 "valence_orbital": [ 
			{
				"type": "occ",
				"energy": -0.27615,
				"method": "rhf"
			},
			{
				"type": "occ",
				"energy": -0.25763,
				"method": "rhf"
			},
			{
				"type": "occ",
				"energy": -0.25341,
				"method": "rhf"
			},
			{
				"type": "occ",
				"energy": -0.25093,
				"method": "rhf"
			},
			{
				"type": "occ",
				"energy": -0.21454,
				"method": "rhf"
			},
			{
				"type": "unocc",
				"energy": -0.05895,
				"method": "rhf"
			},
			{
				"type": "unocc",
				"energy": -0.02801,
				"method": "rhf"
			},
			{
				"type": "unocc",
				"energy": -0.01901,
				"method": "rhf"
			},
			{
				"type": "unocc",
				"energy": -0.00318,
				"method": "rhf"
			},
			{
				"type": "unocc",
				"energy": 0.01411,
				"method": "rhf"
			}
		],
		"cosmo_sigma_profile": { 
			"-0.025": 0.0,
			"-0.024": 0.0,
			"-0.023": 0.0,
			"-0.022": 0.0,
			"-0.021": 0.0,
			"-0.02": 0.0,
			"-0.019": 0.0,
			"-0.018": 0.0,
			"-0.017": 0.0,
			"-0.016": 0.0,
			"-0.015": 0.0,
			"-0.014": 0.0,
			"-0.013": 0.0,
			"-0.012": 0.0,
			"-0.011": 0.0,
			"-0.01": 0.0,
			"-0.009": 0.0,
			"-0.008": 0.307867833549,
			"-0.007": 4.6313888257,
			"-0.006": 14.3173586368,
			"-0.005": 23.9444960116,
			"-0.004": 24.4658016959,
			"-0.003": 24.5129045837,
			"-0.002": 21.0707706053,
			"-0.001": 21.0797205919,
			"0.0": 22.3928441633,
			"0.001": 32.5870753129,
			"0.002": 29.8975423607,
			"0.003": 18.9413021448,
			"0.004": 12.8254583499,
			"0.005": 15.0542604576,
			"0.006": 7.75024547064,
			"0.007": 3.72003032519,
			"0.008": 2.54084055288,
			"0.009": 1.692254574,
			"0.01": 1.55558094819,
			"0.011": 1.02873388775,
			"0.012": 1.34323876259,
			"0.013": 0.824726096546,
			"0.014": 0.566794065461,
			"0.015": 1.14384929085,
			"0.016": 0.616319148084,
			"0.017": 0.0994514492585,
			"0.018": 0.0,
			"0.019": 0.0,
			"0.02": 0.0,
			"0.021": 0.0,
			"0.022": 0.0,
			"0.023": 0.0,
			"0.024": 0.0,
			"0.025": 0.0
		}
	}
}
