{
	 "smiles": "OC(=O)C1=C(C=C(F)C=C1)C(O)=O", 
	 "Tm": 429.15, 
	 "num_atms": 18, 
	 "gaussian": { 
		 "optdone": 1, 
		 "sigma_profile": "yes", 
		 "theory": "DFT", 
		 "functional": "B3LYP", 
		 "basiset": "6-31G**", 
		 "properties": { 
			 "R2extent": 2355.3978, 
			 "electric_dipole_moment_norm": 2.93188202696, 
			 "electric_quadrupole_moment_norm": 9.18048631882, 
			 "total_energy": -708.617387525, 
			 "HOMO_LUMO_gap": 0.20345, 
			 "cosmo_polarized_energy": -14.69, 
			 "cosmo_cavitation_energy": 24.37, 
			 "cosmo_dispersion_energy": -17.55, 
			 "cosmo_repulsion_energy": 1.38, 
			 "cosmo_total_nonelectrostatic_energy": 8.2, 
			 "SMD_solvation_energy": 7.02 
		},
		"coords": [
			{
				"x": 2.2511451047,
				"y": 0.4195663212,
				"z": -2.6284351311,
				"element": "O" 
			},
			{
				"x": 1.0061604131,
				"y": 0.1378175428,
				"z": -2.1698133157,
				"element": "C" 
			},
			{
				"x": 0.1016229566,
				"y": -0.1867959199,
				"z": -2.9108683806,
				"element": "O" 
			},
			{
				"x": 0.8835021008,
				"y": 0.3181305098,
				"z": -0.6970839341,
				"element": "C" 
			},
			{
				"x": -0.1996036071,
				"y": -0.2497123275,
				"z": 0.005471527,
				"element": "C" 
			},
			{
				"x": -0.3939664876,
				"y": 0.0598837291,
				"z": 1.3518852658,
				"element": "C" 
			},
			{
				"x": 0.5113346896,
				"y": 0.8975767738,
				"z": 1.9933971706,
				"element": "C" 
			},
			{
				"x": 0.3221062314,
				"y": 1.180048405,
				"z": 3.2931116061,
				"element": "F" 
			},
			{
				"x": 1.6044900133,
				"y": 1.4474122534,
				"z": 1.3339844726,
				"element": "C" 
			},
			{
				"x": 1.7781449331,
				"y": 1.1560614779,
				"z": -0.0160293527,
				"element": "C" 
			},
			{
				"x": -1.1805306885,
				"y": -1.2167080727,
				"z": -0.5973158573,
				"element": "C" 
			},
			{
				"x": -0.5728434383,
				"y": -2.2905725747,
				"z": -1.1405497965,
				"element": "O" 
			},
			{
				"x": -2.3823830179,
				"y": -1.0973051966,
				"z": -0.5132792032,
				"element": "O" 
			},
			{
				"x": 2.2052850677,
				"y": 0.3199716554,
				"z": -3.5936876092,
				"element": "H" 
			},
			{
				"x": -1.2337464944,
				"y": -0.3531317167,
				"z": 1.8985334835,
				"element": "H" 
			},
			{
				"x": 2.2874580556,
				"y": 2.0963891481,
				"z": 1.870571352,
				"element": "H" 
			},
			{
				"x": 2.6060351042,
				"y": 1.5938445479,
				"z": -0.5610132607,
				"element": "H" 
			},
			{
				"x": -1.2792109363,
				"y": -2.8370765562,
				"z": -1.5245790363,
				"element": "H" 
			}
		],
		 "valence_orbital": [ 
			{
				"type": "occ",
				"energy": -0.31715,
				"method": "rhf"
			},
			{
				"type": "occ",
				"energy": -0.29434,
				"method": "rhf"
			},
			{
				"type": "occ",
				"energy": -0.28787,
				"method": "rhf"
			},
			{
				"type": "occ",
				"energy": -0.27229,
				"method": "rhf"
			},
			{
				"type": "occ",
				"energy": -0.2663,
				"method": "rhf"
			},
			{
				"type": "unocc",
				"energy": -0.06285,
				"method": "rhf"
			},
			{
				"type": "unocc",
				"energy": -0.039,
				"method": "rhf"
			},
			{
				"type": "unocc",
				"energy": 0.02019,
				"method": "rhf"
			},
			{
				"type": "unocc",
				"energy": 0.04412,
				"method": "rhf"
			},
			{
				"type": "unocc",
				"energy": 0.06749,
				"method": "rhf"
			}
		],
		"cosmo_sigma_profile": { 
			"-0.025": 0.0,
			"-0.024": 0.0,
			"-0.023": 0.0,
			"-0.022": 0.0,
			"-0.021": 0.0,
			"-0.02": 0.0,
			"-0.019": 0.446654635043,
			"-0.018": 2.16171850163,
			"-0.017": 1.33190968597,
			"-0.016": 1.79650474581,
			"-0.015": 1.88306425155,
			"-0.014": 0.881426000309,
			"-0.013": 1.24046855187,
			"-0.012": 1.88944019434,
			"-0.011": 1.54658542856,
			"-0.01": 0.926387221426,
			"-0.009": 1.88444432523,
			"-0.008": 5.8880429779,
			"-0.007": 7.14724003211,
			"-0.006": 7.13985062389,
			"-0.005": 5.38700182866,
			"-0.004": 7.12843368049,
			"-0.003": 8.39669843637,
			"-0.002": 10.4497055207,
			"-0.001": 18.1819338717,
			"0.0": 18.1849361674,
			"0.001": 15.801754996,
			"0.002": 10.5643411027,
			"0.003": 12.6492237985,
			"0.004": 8.42785538292,
			"0.005": 5.76015629116,
			"0.006": 6.04331155632,
			"0.007": 5.54403797396,
			"0.008": 5.26935102686,
			"0.009": 4.63098862966,
			"0.01": 5.61353077062,
			"0.011": 8.63623500284,
			"0.012": 2.62846323188,
			"0.013": 0.0135427676171,
			"0.014": 0.0,
			"0.015": 0.0,
			"0.016": 0.0,
			"0.017": 0.0,
			"0.018": 0.0,
			"0.019": 0.0,
			"0.02": 0.0,
			"0.021": 0.0,
			"0.022": 0.0,
			"0.023": 0.0,
			"0.024": 0.0,
			"0.025": 0.0
		}
	}
}
