{
	 "smiles": "CC(O)C#C", 
	 "Tm": 270.15, 
	 "num_atms": 11, 
	 "gaussian": { 
		 "optdone": 1, 
		 "sigma_profile": "yes", 
		 "theory": "DFT", 
		 "functional": "B3LYP", 
		 "basiset": "6-31G**", 
		 "properties": { 
			 "R2extent": 781.8097, 
			 "electric_dipole_moment_norm": 1.4847574179, 
			 "electric_quadrupole_moment_norm": 4.29628196002, 
			 "total_energy": -231.180470086, 
			 "HOMO_LUMO_gap": 0.29877, 
			 "cosmo_polarized_energy": -7.25, 
			 "cosmo_cavitation_energy": 15.35, 
			 "cosmo_dispersion_energy": -10.68, 
			 "cosmo_repulsion_energy": 0.96, 
			 "cosmo_total_nonelectrostatic_energy": 5.63, 
			 "SMD_solvation_energy": 4.35 
		},
		"coords": [
			{
				"x": 2.5462544873,
				"y": 0.6506257301,
				"z": -0.2607051586,
				"element": "C" 
			},
			{
				"x": 1.7182169183,
				"y": -0.6078606215,
				"z": -0.5584289237,
				"element": "C" 
			},
			{
				"x": 0.9560717166,
				"y": -1.0163540352,
				"z": 0.5771792075,
				"element": "O" 
			},
			{
				"x": 0.8668571639,
				"y": -0.4243585625,
				"z": -1.7463870119,
				"element": "C" 
			},
			{
				"x": 0.1487502243,
				"y": -0.2463667567,
				"z": -2.7016074156,
				"element": "C" 
			},
			{
				"x": 3.1957985386,
				"y": 0.9030768291,
				"z": -1.1042192779,
				"element": "H" 
			},
			{
				"x": 1.8885316328,
				"y": 1.5055790895,
				"z": -0.0717078167,
				"element": "H" 
			},
			{
				"x": 3.1617260155,
				"y": 0.4776162967,
				"z": 0.6260999457,
				"element": "H" 
			},
			{
				"x": 2.4020832793,
				"y": -1.4449059305,
				"z": -0.7449265804,
				"element": "H" 
			},
			{
				"x": 0.2504303388,
				"y": -0.3662647849,
				"z": 0.6989823025,
				"element": "H" 
			},
			{
				"x": -0.4824203154,
				"y": -0.1027872539,
				"z": -3.5479792709,
				"element": "H" 
			}
		],
		 "valence_orbital": [ 
			{
				"type": "occ",
				"energy": -0.3807,
				"method": "rhf"
			},
			{
				"type": "occ",
				"energy": -0.34719,
				"method": "rhf"
			},
			{
				"type": "occ",
				"energy": -0.28995,
				"method": "rhf"
			},
			{
				"type": "occ",
				"energy": -0.27087,
				"method": "rhf"
			},
			{
				"type": "occ",
				"energy": -0.26583,
				"method": "rhf"
			},
			{
				"type": "unocc",
				"energy": 0.03294,
				"method": "rhf"
			},
			{
				"type": "unocc",
				"energy": 0.05011,
				"method": "rhf"
			},
			{
				"type": "unocc",
				"energy": 0.09554,
				"method": "rhf"
			},
			{
				"type": "unocc",
				"energy": 0.1229,
				"method": "rhf"
			},
			{
				"type": "unocc",
				"energy": 0.12933,
				"method": "rhf"
			}
		],
		"cosmo_sigma_profile": { 
			"-0.025": 0.0,
			"-0.024": 0.0,
			"-0.023": 0.0,
			"-0.022": 0.0,
			"-0.021": 0.0,
			"-0.02": 0.0,
			"-0.019": 0.0,
			"-0.018": 0.0,
			"-0.017": 0.0,
			"-0.016": 0.320209300388,
			"-0.015": 1.07136888276,
			"-0.014": 0.80388049493,
			"-0.013": 0.853073424071,
			"-0.012": 0.770572089593,
			"-0.011": 2.44197112595,
			"-0.01": 1.85052696316,
			"-0.009": 1.39488560683,
			"-0.008": 2.62546142992,
			"-0.007": 2.29921142243,
			"-0.006": 4.42342174724,
			"-0.005": 5.36892015444,
			"-0.004": 8.90242711417,
			"-0.003": 9.14610451547,
			"-0.002": 8.66898646321,
			"-0.001": 8.89713294442,
			"0.0": 9.77750699604,
			"0.001": 6.26191430311,
			"0.002": 4.76635343813,
			"0.003": 4.89120043033,
			"0.004": 5.01340476886,
			"0.005": 6.25570127731,
			"0.006": 8.51695765203,
			"0.007": 6.63216778326,
			"0.008": 1.18170441817,
			"0.009": 0.808779222555,
			"0.01": 1.09583527434,
			"0.011": 1.51548050906,
			"0.012": 1.77923185726,
			"0.013": 1.97332129773,
			"0.014": 1.33324129684,
			"0.015": 0.0,
			"0.016": 0.0,
			"0.017": 0.0,
			"0.018": 0.0,
			"0.019": 0.0,
			"0.02": 0.0,
			"0.021": 0.0,
			"0.022": 0.0,
			"0.023": 0.0,
			"0.024": 0.0,
			"0.025": 0.0
		}
	}
}
