{
	 "smiles": "CCSC1=C2C(CC(C)(C)CC2=O)=C(S1)C#N", 
	 "Tm": 425.15, 
	 "num_atms": 32, 
	 "gaussian": { 
		 "optdone": 1, 
		 "sigma_profile": "yes", 
		 "theory": "DFT", 
		 "functional": "B3LYP", 
		 "basiset": "6-31G**", 
		 "properties": { 
			 "R2extent": 5601.5104, 
			 "electric_dipole_moment_norm": 3.32750206612, 
			 "electric_quadrupole_moment_norm": 21.9847317527, 
			 "total_energy": -1430.7677176, 
			 "HOMO_LUMO_gap": 0.15217, 
			 "cosmo_polarized_energy": -11.71, 
			 "cosmo_cavitation_energy": 37.49, 
			 "cosmo_dispersion_energy": -25.96, 
			 "cosmo_repulsion_energy": 1.94, 
			 "cosmo_total_nonelectrostatic_energy": 13.47, 
			 "SMD_solvation_energy": 7.09 
		},
		"coords": [
			{
				"x": 0.7059215656,
				"y": 1.5474609345,
				"z": 4.4088040006,
				"element": "C" 
			},
			{
				"x": 0.1054844903,
				"y": 2.6999472738,
				"z": 3.6123236117,
				"element": "C" 
			},
			{
				"x": 1.1880178452,
				"y": 3.3318813503,
				"z": 2.2549055759,
				"element": "S" 
			},
			{
				"x": 1.3455034943,
				"y": 1.9613287565,
				"z": 1.1577214774,
				"element": "C" 
			},
			{
				"x": 0.4223461707,
				"y": 1.2607828524,
				"z": 0.3793660124,
				"element": "C" 
			},
			{
				"x": 1.0352195,
				"y": 0.2881384392,
				"z": -0.4779723497,
				"element": "C" 
			},
			{
				"x": 0.2488492511,
				"y": -0.5488819942,
				"z": -1.4531666585,
				"element": "C" 
			},
			{
				"x": -1.2407962585,
				"y": -0.6935249827,
				"z": -1.0600574563,
				"element": "C" 
			},
			{
				"x": -2.0183664075,
				"y": -1.3019079833,
				"z": -2.2392247071,
				"element": "C" 
			},
			{
				"x": -1.3918846382,
				"y": -1.6084460957,
				"z": 0.1718515573,
				"element": "C" 
			},
			{
				"x": -1.7921535297,
				"y": 0.7190764723,
				"z": -0.7537118035,
				"element": "C" 
			},
			{
				"x": -1.045608234,
				"y": 1.4699128425,
				"z": 0.3433764489,
				"element": "C" 
			},
			{
				"x": -1.6399042732,
				"y": 2.2078901164,
				"z": 1.1171593121,
				"element": "O" 
			},
			{
				"x": 2.4085243269,
				"y": 0.2573437466,
				"z": -0.3421845899,
				"element": "C" 
			},
			{
				"x": 2.9637878684,
				"y": 1.4113453409,
				"z": 0.8493355988,
				"element": "S" 
			},
			{
				"x": 3.3126292322,
				"y": -0.5708568596,
				"z": -1.0485240883,
				"element": "C" 
			},
			{
				"x": 4.0491985125,
				"y": -1.2613195226,
				"z": -1.6310298519,
				"element": "N" 
			},
			{
				"x": 0.0211472015,
				"y": 1.2628100869,
				"z": 5.2158620461,
				"element": "H" 
			},
			{
				"x": 0.8600427367,
				"y": 0.6664963897,
				"z": 3.778485096,
				"element": "H" 
			},
			{
				"x": 1.6666068155,
				"y": 1.8207039758,
				"z": 4.8544503051,
				"element": "H" 
			},
			{
				"x": -0.8563729371,
				"y": 2.4508513013,
				"z": 3.1637135647,
				"element": "H" 
			},
			{
				"x": -0.0249649841,
				"y": 3.5901820319,
				"z": 4.2365704359,
				"element": "H" 
			},
			{
				"x": 0.3070917311,
				"y": -0.0703561965,
				"z": -2.4416475806,
				"element": "H" 
			},
			{
				"x": 0.7161863833,
				"y": -1.5336057362,
				"z": -1.5663520874,
				"element": "H" 
			},
			{
				"x": -3.078438183,
				"y": -1.4177865804,
				"z": -1.9897753374,
				"element": "H" 
			},
			{
				"x": -1.9499451732,
				"y": -0.6704346738,
				"z": -3.1319667268,
				"element": "H" 
			},
			{
				"x": -1.6259765026,
				"y": -2.2918884534,
				"z": -2.4967964151,
				"element": "H" 
			},
			{
				"x": -2.4436469364,
				"y": -1.6896915033,
				"z": 0.4660024129,
				"element": "H" 
			},
			{
				"x": -0.8327454744,
				"y": -1.2362059589,
				"z": 1.0361721665,
				"element": "H" 
			},
			{
				"x": -1.0268300875,
				"y": -2.6170489704,
				"z": -0.0494782986,
				"element": "H" 
			},
			{
				"x": -1.7288421555,
				"y": 1.3336263269,
				"z": -1.6646439308,
				"element": "H" 
			},
			{
				"x": -2.8468813505,
				"y": 0.6868772731,
				"z": -0.4648677404,
				"element": "H" 
			}
		],
		 "valence_orbital": [ 
			{
				"type": "occ",
				"energy": -0.32678,
				"method": "rhf"
			},
			{
				"type": "occ",
				"energy": -0.27773,
				"method": "rhf"
			},
			{
				"type": "occ",
				"energy": -0.27012,
				"method": "rhf"
			},
			{
				"type": "occ",
				"energy": -0.25845,
				"method": "rhf"
			},
			{
				"type": "occ",
				"energy": -0.23442,
				"method": "rhf"
			},
			{
				"type": "unocc",
				"energy": -0.08225,
				"method": "rhf"
			},
			{
				"type": "unocc",
				"energy": -0.04663,
				"method": "rhf"
			},
			{
				"type": "unocc",
				"energy": -0.00731,
				"method": "rhf"
			},
			{
				"type": "unocc",
				"energy": 0.00714,
				"method": "rhf"
			},
			{
				"type": "unocc",
				"energy": 0.02904,
				"method": "rhf"
			}
		],
		"cosmo_sigma_profile": { 
			"-0.025": 0.0,
			"-0.024": 0.0,
			"-0.023": 0.0,
			"-0.022": 0.0,
			"-0.021": 0.0,
			"-0.02": 0.0,
			"-0.019": 0.0,
			"-0.018": 0.0,
			"-0.017": 0.0,
			"-0.016": 0.0,
			"-0.015": 0.0,
			"-0.014": 0.0,
			"-0.013": 0.0,
			"-0.012": 0.0,
			"-0.011": 0.0,
			"-0.01": 0.0,
			"-0.009": 0.0,
			"-0.008": 0.0,
			"-0.007": 2.52698499572,
			"-0.006": 9.8732695596,
			"-0.005": 13.1113160977,
			"-0.004": 25.686150597,
			"-0.003": 36.7766011016,
			"-0.002": 42.1353938505,
			"-0.001": 42.7644840313,
			"0.0": 36.7383036905,
			"0.001": 21.6726374029,
			"0.002": 9.13253537157,
			"0.003": 6.8936391132,
			"0.004": 6.05725993532,
			"0.005": 7.20015438464,
			"0.006": 5.58859221336,
			"0.007": 5.89483337508,
			"0.008": 5.97282231069,
			"0.009": 5.50248698005,
			"0.01": 5.48865171105,
			"0.011": 5.31095078978,
			"0.012": 4.12377812196,
			"0.013": 1.8589687655,
			"0.014": 0.0408060090591,
			"0.015": 0.0,
			"0.016": 0.0,
			"0.017": 0.0,
			"0.018": 0.0,
			"0.019": 0.0,
			"0.02": 0.0,
			"0.021": 0.0,
			"0.022": 0.0,
			"0.023": 0.0,
			"0.024": 0.0,
			"0.025": 0.0
		}
	}
}
