{
	 "smiles": "CC(N)C1=CC=C(NC(=O)NC2=CC=CC=C2)C=C1", 
	 "Tm": 439.15, 
	 "num_atms": 36, 
	 "gaussian": { 
		 "optdone": 1, 
		 "sigma_profile": "yes", 
		 "theory": "DFT", 
		 "functional": "B3LYP", 
		 "basiset": "6-31G**", 
		 "properties": { 
			 "R2extent": 8481.6843, 
			 "electric_dipole_moment_norm": 5.19264138373, 
			 "electric_quadrupole_moment_norm": 6.54591912568, 
			 "total_energy": -821.3512821, 
			 "HOMO_LUMO_gap": 0.19276, 
			 "cosmo_polarized_energy": -16.67, 
			 "cosmo_cavitation_energy": 39.32, 
			 "cosmo_dispersion_energy": -28.25, 
			 "cosmo_repulsion_energy": 2.18, 
			 "cosmo_total_nonelectrostatic_energy": 13.25, 
			 "SMD_solvation_energy": 6.46 
		},
		"coords": [
			{
				"x": 2.8029343423,
				"y": 1.5747901382,
				"z": -2.7132852877,
				"element": "C" 
			},
			{
				"x": 3.2276203265,
				"y": 0.5297143477,
				"z": -1.6682428985,
				"element": "C" 
			},
			{
				"x": 3.5776440597,
				"y": -0.7766470089,
				"z": -2.2523484382,
				"element": "N" 
			},
			{
				"x": 2.2065236926,
				"y": 0.3169793946,
				"z": -0.5500196404,
				"element": "C" 
			},
			{
				"x": 1.1628645253,
				"y": 1.2113507092,
				"z": -0.2889762933,
				"element": "C" 
			},
			{
				"x": 0.2736900246,
				"y": 1.0091869505,
				"z": 0.769481913,
				"element": "C" 
			},
			{
				"x": 0.3872907955,
				"y": -0.1275780883,
				"z": 1.5822590395,
				"element": "C" 
			},
			{
				"x": -0.4793129802,
				"y": -0.3634256215,
				"z": 2.6718600321,
				"element": "N" 
			},
			{
				"x": -1.8683004726,
				"y": -0.2734780773,
				"z": 2.7758706571,
				"element": "C" 
			},
			{
				"x": -2.413307316,
				"y": -0.4922470771,
				"z": 3.8506342689,
				"element": "O" 
			},
			{
				"x": -2.5220297884,
				"y": 0.0479744633,
				"z": 1.6050929088,
				"element": "N" 
			},
			{
				"x": -3.9060364135,
				"y": 0.2272369399,
				"z": 1.4054136564,
				"element": "C" 
			},
			{
				"x": -4.3336599456,
				"y": 0.46602638,
				"z": 0.0886296359,
				"element": "C" 
			},
			{
				"x": -5.6822670338,
				"y": 0.6672884911,
				"z": -0.1917849661,
				"element": "C" 
			},
			{
				"x": -6.6278918283,
				"y": 0.6349299233,
				"z": 0.8347006119,
				"element": "C" 
			},
			{
				"x": -6.2005206195,
				"y": 0.3970837793,
				"z": 2.141672846,
				"element": "C" 
			},
			{
				"x": -4.8532743414,
				"y": 0.1925398568,
				"z": 2.440846468,
				"element": "C" 
			},
			{
				"x": 1.4333563972,
				"y": -1.0295501587,
				"z": 1.3289357434,
				"element": "C" 
			},
			{
				"x": 2.3278162225,
				"y": -0.8030631069,
				"z": 0.2895076101,
				"element": "C" 
			},
			{
				"x": 1.8576582662,
				"y": 1.2941150048,
				"z": -3.1924183205,
				"element": "H" 
			},
			{
				"x": 2.6831972404,
				"y": 2.5742686404,
				"z": -2.282158746,
				"element": "H" 
			},
			{
				"x": 3.5684064083,
				"y": 1.6478102102,
				"z": -3.4928797439,
				"element": "H" 
			},
			{
				"x": 4.1513267017,
				"y": 0.8976914694,
				"z": -1.1963219761,
				"element": "H" 
			},
			{
				"x": 4.316793428,
				"y": -0.654113146,
				"z": -2.9409180843,
				"element": "H" 
			},
			{
				"x": 2.7730150616,
				"y": -1.1504668441,
				"z": -2.7533336672,
				"element": "H" 
			},
			{
				"x": 1.0383727191,
				"y": 2.1009869511,
				"z": -0.8969882805,
				"element": "H" 
			},
			{
				"x": -0.4871020006,
				"y": 1.7533514151,
				"z": 0.9825384177,
				"element": "H" 
			},
			{
				"x": -0.0876577222,
				"y": -0.8059625686,
				"z": 3.4914285333,
				"element": "H" 
			},
			{
				"x": -1.9567560812,
				"y": 0.0849730012,
				"z": 0.7686456088,
				"element": "H" 
			},
			{
				"x": -3.6031232977,
				"y": 0.4921701966,
				"z": -0.717346581,
				"element": "H" 
			},
			{
				"x": -5.9916152881,
				"y": 0.8494150907,
				"z": -1.2171489443,
				"element": "H" 
			},
			{
				"x": -7.6802812829,
				"y": 0.7910334244,
				"z": 0.6182450316,
				"element": "H" 
			},
			{
				"x": -6.9250073165,
				"y": 0.3672116533,
				"z": 2.9509176719,
				"element": "H" 
			},
			{
				"x": -4.5250756785,
				"y": 0.0010231906,
				"z": 3.4523607174,
				"element": "H" 
			},
			{
				"x": 1.5325918801,
				"y": -1.9162079732,
				"z": 1.9497102093,
				"element": "H" 
			},
			{
				"x": 3.1245173153,
				"y": -1.5126119509,
				"z": 0.0938202872,
				"element": "H" 
			}
		],
		 "valence_orbital": [ 
			{
				"type": "occ",
				"energy": -0.25987,
				"method": "rhf"
			},
			{
				"type": "occ",
				"energy": -0.24564,
				"method": "rhf"
			},
			{
				"type": "occ",
				"energy": -0.24359,
				"method": "rhf"
			},
			{
				"type": "occ",
				"energy": -0.2263,
				"method": "rhf"
			},
			{
				"type": "occ",
				"energy": -0.20878,
				"method": "rhf"
			},
			{
				"type": "unocc",
				"energy": -0.01602,
				"method": "rhf"
			},
			{
				"type": "unocc",
				"energy": -0.01379,
				"method": "rhf"
			},
			{
				"type": "unocc",
				"energy": 0.00584,
				"method": "rhf"
			},
			{
				"type": "unocc",
				"energy": 0.00931,
				"method": "rhf"
			},
			{
				"type": "unocc",
				"energy": 0.06971,
				"method": "rhf"
			}
		],
		"cosmo_sigma_profile": { 
			"-0.025": 0.0,
			"-0.024": 0.0,
			"-0.023": 0.0,
			"-0.022": 0.0,
			"-0.021": 0.0,
			"-0.02": 0.0,
			"-0.019": 0.0,
			"-0.018": 0.0,
			"-0.017": 0.0,
			"-0.016": 0.0,
			"-0.015": 0.0158840287327,
			"-0.014": 0.798325892025,
			"-0.013": 1.14622815334,
			"-0.012": 1.94460434669,
			"-0.011": 1.63314924874,
			"-0.01": 2.27862535096,
			"-0.009": 5.88910394056,
			"-0.008": 5.41475266098,
			"-0.007": 6.68999661567,
			"-0.006": 11.6335027411,
			"-0.005": 19.5690968833,
			"-0.004": 23.0347490027,
			"-0.003": 26.6349952208,
			"-0.002": 23.9617856988,
			"-0.001": 22.7159562263,
			"0.0": 20.9032892233,
			"0.001": 21.2846527332,
			"0.002": 19.3991275564,
			"0.003": 18.6750459614,
			"0.004": 19.7480307394,
			"0.005": 20.4694657626,
			"0.006": 13.1674508661,
			"0.007": 4.49253299179,
			"0.008": 2.18008291073,
			"0.009": 2.72889133064,
			"0.01": 1.91779540775,
			"0.011": 2.21926790049,
			"0.012": 2.86854583104,
			"0.013": 4.13835689019,
			"0.014": 2.99839400042,
			"0.015": 0.740828676817,
			"0.016": 0.390452231152,
			"0.017": 0.0310115899014,
			"0.018": 0.0,
			"0.019": 0.0,
			"0.02": 0.0,
			"0.021": 0.0,
			"0.022": 0.0,
			"0.023": 0.0,
			"0.024": 0.0,
			"0.025": 0.0
		}
	}
}
