{
	 "smiles": "BrCC1=CC=C(C=C1)C1=CSN=N1", 
	 "Tm": 409.15, 
	 "num_atms": 20, 
	 "gaussian": { 
		 "optdone": 1, 
		 "sigma_profile": "yes", 
		 "theory": "DFT", 
		 "functional": "B3LYP", 
		 "basiset": "6-31G**", 
		 "properties": { 
			 "R2extent": 6609.5016, 
			 "electric_dipole_moment_norm": 3.17563281725, 
			 "electric_quadrupole_moment_norm": 16.0438979244, 
			 "total_energy": -3426.23632114, 
			 "HOMO_LUMO_gap": 0.16711, 
			 "cosmo_polarized_energy": -11.58, 
			 "cosmo_cavitation_energy": 28.87, 
			 "cosmo_dispersion_energy": -22.07, 
			 "cosmo_repulsion_energy": 1.68, 
			 "cosmo_total_nonelectrostatic_energy": 8.48, 
			 "SMD_solvation_energy": 1.9 
		},
		"coords": [
			{
				"x": -1.7141412084,
				"y": 3.6500999646,
				"z": -3.354174883,
				"element": "Br" 
			},
			{
				"x": -1.0257561548,
				"y": 1.7701678664,
				"z": -3.5227156918,
				"element": "C" 
			},
			{
				"x": -0.520669261,
				"y": 1.2357503595,
				"z": -2.2240167653,
				"element": "C" 
			},
			{
				"x": -1.3849868068,
				"y": 0.584592334,
				"z": -1.3322317781,
				"element": "C" 
			},
			{
				"x": -0.9134548815,
				"y": 0.0725789553,
				"z": -0.1292943973,
				"element": "C" 
			},
			{
				"x": 0.440590917,
				"y": 0.1992000222,
				"z": 0.2233132057,
				"element": "C" 
			},
			{
				"x": 1.3075470415,
				"y": 0.8503937673,
				"z": -0.6703194775,
				"element": "C" 
			},
			{
				"x": 0.8301570751,
				"y": 1.3606151502,
				"z": -1.872819958,
				"element": "C" 
			},
			{
				"x": 0.9596364162,
				"y": -0.3333525034,
				"z": 1.4939325668,
				"element": "C" 
			},
			{
				"x": 0.2572897778,
				"y": -0.8949829129,
				"z": 2.5396722851,
				"element": "C" 
			},
			{
				"x": 1.3290402294,
				"y": -1.3493931001,
				"z": 3.779884118,
				"element": "S" 
			},
			{
				"x": 2.7057473931,
				"y": -0.7659984166,
				"z": 2.8540498781,
				"element": "N" 
			},
			{
				"x": 2.3197388243,
				"y": -0.2945102944,
				"z": 1.7430556538,
				"element": "N" 
			},
			{
				"x": -1.8765991696,
				"y": 1.2110817985,
				"z": -3.907744773,
				"element": "H" 
			},
			{
				"x": -0.2483514807,
				"y": 1.8380658606,
				"z": -4.2812984447,
				"element": "H" 
			},
			{
				"x": -2.4366833258,
				"y": 0.4794944103,
				"z": -1.5846951229,
				"element": "H" 
			},
			{
				"x": -1.6061523948,
				"y": -0.4369631639,
				"z": 0.5335429296,
				"element": "H" 
			},
			{
				"x": 2.3551551646,
				"y": 0.9486081615,
				"z": -0.4098283066,
				"element": "H" 
			},
			{
				"x": 1.5151383193,
				"y": 1.8656926865,
				"z": -2.5486300229,
				"element": "H" 
			},
			{
				"x": -0.8103464748,
				"y": -1.0396409456,
				"z": 2.6166189839,
				"element": "H" 
			}
		],
		 "valence_orbital": [ 
			{
				"type": "occ",
				"energy": -0.27464,
				"method": "rhf"
			},
			{
				"type": "occ",
				"energy": -0.27427,
				"method": "rhf"
			},
			{
				"type": "occ",
				"energy": -0.26886,
				"method": "rhf"
			},
			{
				"type": "occ",
				"energy": -0.26597,
				"method": "rhf"
			},
			{
				"type": "occ",
				"energy": -0.23799,
				"method": "rhf"
			},
			{
				"type": "unocc",
				"energy": -0.07088,
				"method": "rhf"
			},
			{
				"type": "unocc",
				"energy": -0.05046,
				"method": "rhf"
			},
			{
				"type": "unocc",
				"energy": -0.01896,
				"method": "rhf"
			},
			{
				"type": "unocc",
				"energy": -0.01596,
				"method": "rhf"
			},
			{
				"type": "unocc",
				"energy": 0.00376,
				"method": "rhf"
			}
		],
		"cosmo_sigma_profile": { 
			"-0.025": 0.0,
			"-0.024": 0.0,
			"-0.023": 0.0,
			"-0.022": 0.0,
			"-0.021": 0.0,
			"-0.02": 0.0,
			"-0.019": 0.0,
			"-0.018": 0.0,
			"-0.017": 0.0,
			"-0.016": 0.0,
			"-0.015": 0.0,
			"-0.014": 0.0,
			"-0.013": 0.0,
			"-0.012": 0.53785570756,
			"-0.011": 2.47896788102,
			"-0.01": 2.36655643108,
			"-0.009": 2.62300382407,
			"-0.008": 5.01276141576,
			"-0.007": 11.06566432,
			"-0.006": 11.9430393676,
			"-0.005": 12.2691939448,
			"-0.004": 12.2169424913,
			"-0.003": 11.7552676714,
			"-0.002": 14.8447902343,
			"-0.001": 19.7178335276,
			"0.0": 23.2884225881,
			"0.001": 18.4715318911,
			"0.002": 13.1954879357,
			"0.003": 16.3281888509,
			"0.004": 17.9607090108,
			"0.005": 10.0318678294,
			"0.006": 12.8882690974,
			"0.007": 6.88639176885,
			"0.008": 2.40650369963,
			"0.009": 3.89464075605,
			"0.01": 2.89726016809,
			"0.011": 1.81701493776,
			"0.012": 1.13752461178,
			"0.013": 0.221774945941,
			"0.014": 0.0,
			"0.015": 0.0,
			"0.016": 0.0,
			"0.017": 0.0,
			"0.018": 0.0,
			"0.019": 0.0,
			"0.02": 0.0,
			"0.021": 0.0,
			"0.022": 0.0,
			"0.023": 0.0,
			"0.024": 0.0,
			"0.025": 0.0
		}
	}
}
