{
	 "smiles": "OC(=O)CC1=CC(=CC=C1)[N+]([O-])=O", 
	 "Tm": 392.15, 
	 "num_atms": 20, 
	 "gaussian": { 
		 "optdone": 1, 
		 "sigma_profile": "yes", 
		 "theory": "DFT", 
		 "functional": "B3LYP", 
		 "basiset": "6-31G**", 
		 "properties": { 
			 "R2extent": 2960.5002, 
			 "electric_dipole_moment_norm": 3.42023488229, 
			 "electric_quadrupole_moment_norm": 28.7936596095, 
			 "total_energy": -664.624667011, 
			 "HOMO_LUMO_gap": 0.16715, 
			 "cosmo_polarized_energy": -18.04, 
			 "cosmo_cavitation_energy": 25.76, 
			 "cosmo_dispersion_energy": -18.42, 
			 "cosmo_repulsion_energy": 1.47, 
			 "cosmo_total_nonelectrostatic_energy": 8.81, 
			 "SMD_solvation_energy": 7.86 
		},
		"coords": [
			{
				"x": 1.3778991153,
				"y": 2.0025097217,
				"z": -0.7170798237,
				"element": "O" 
			},
			{
				"x": 0.9674758572,
				"y": 2.2335094412,
				"z": 0.5520682223,
				"element": "C" 
			},
			{
				"x": 1.0605507892,
				"y": 3.3289349553,
				"z": 1.042920493,
				"element": "O" 
			},
			{
				"x": 0.4346002625,
				"y": 1.017403931,
				"z": 1.3295709825,
				"element": "C" 
			},
			{
				"x": -0.3066070079,
				"y": -0.0075694473,
				"z": 0.4994271353,
				"element": "C" 
			},
			{
				"x": 0.326315762,
				"y": -1.1801939429,
				"z": 0.0730097771,
				"element": "C" 
			},
			{
				"x": -0.3793845574,
				"y": -2.0925049543,
				"z": -0.711236775,
				"element": "C" 
			},
			{
				"x": -1.7013254689,
				"y": -1.8839048861,
				"z": -1.0897534727,
				"element": "C" 
			},
			{
				"x": -2.3308045893,
				"y": -0.713948269,
				"z": -0.663215464,
				"element": "C" 
			},
			{
				"x": -1.6424741131,
				"y": 0.2120662774,
				"z": 0.1194813083,
				"element": "C" 
			},
			{
				"x": 0.3021424898,
				"y": -3.3263361193,
				"z": -1.1462403608,
				"element": "N" 
			},
			{
				"x": 1.4740011406,
				"y": -3.4782905243,
				"z": -0.8046542078,
				"element": "O" 
			},
			{
				"x": -0.3434775599,
				"y": -4.1230492687,
				"z": -1.8238884585,
				"element": "O" 
			},
			{
				"x": 1.1934068717,
				"y": 1.0842274972,
				"z": -0.9679330191,
				"element": "H" 
			},
			{
				"x": 1.3014189154,
				"y": 0.5525159177,
				"z": 1.8148060419,
				"element": "H" 
			},
			{
				"x": -0.1962685877,
				"y": 1.4187522586,
				"z": 2.1255568038,
				"element": "H" 
			},
			{
				"x": 1.3491107264,
				"y": -1.4089508176,
				"z": 0.3510260531,
				"element": "H" 
			},
			{
				"x": -2.2078059161,
				"y": -2.6239699061,
				"z": -1.6962504958,
				"element": "H" 
			},
			{
				"x": -3.3626718685,
				"y": -0.5265546811,
				"z": -0.9422795733,
				"element": "H" 
			},
			{
				"x": -2.1449022614,
				"y": 1.1185528165,
				"z": 0.4462648335,
				"element": "H" 
			}
		],
		 "valence_orbital": [ 
			{
				"type": "occ",
				"energy": -0.32144,
				"method": "rhf"
			},
			{
				"type": "occ",
				"energy": -0.30597,
				"method": "rhf"
			},
			{
				"type": "occ",
				"energy": -0.30382,
				"method": "rhf"
			},
			{
				"type": "occ",
				"energy": -0.30072,
				"method": "rhf"
			},
			{
				"type": "occ",
				"energy": -0.27266,
				"method": "rhf"
			},
			{
				"type": "unocc",
				"energy": -0.10551,
				"method": "rhf"
			},
			{
				"type": "unocc",
				"energy": -0.04989,
				"method": "rhf"
			},
			{
				"type": "unocc",
				"energy": -0.02188,
				"method": "rhf"
			},
			{
				"type": "unocc",
				"energy": 0.00128,
				"method": "rhf"
			},
			{
				"type": "unocc",
				"energy": 0.06161,
				"method": "rhf"
			}
		],
		"cosmo_sigma_profile": { 
			"-0.025": 0.0,
			"-0.024": 0.0,
			"-0.023": 0.0,
			"-0.022": 0.0,
			"-0.021": 0.0,
			"-0.02": 0.0,
			"-0.019": 0.0,
			"-0.018": 0.0,
			"-0.017": 0.0,
			"-0.016": 0.243133742865,
			"-0.015": 0.689938424292,
			"-0.014": 0.618124769757,
			"-0.013": 1.7944969263,
			"-0.012": 1.48670455127,
			"-0.011": 1.64184730558,
			"-0.01": 2.10937273402,
			"-0.009": 3.29238738748,
			"-0.008": 9.22558953981,
			"-0.007": 13.7453819665,
			"-0.006": 13.5333109143,
			"-0.005": 11.6079996439,
			"-0.004": 11.9984766827,
			"-0.003": 10.9953233172,
			"-0.002": 11.9275377778,
			"-0.001": 11.7196475445,
			"0.0": 12.2902864138,
			"0.001": 12.2709600827,
			"0.002": 7.3678301235,
			"0.003": 4.14074450567,
			"0.004": 4.83230810303,
			"0.005": 5.71565352778,
			"0.006": 5.55222560585,
			"0.007": 10.0577479452,
			"0.008": 10.1101863908,
			"0.009": 8.3893039634,
			"0.01": 6.85553651604,
			"0.011": 4.98784287519,
			"0.012": 5.26107011116,
			"0.013": 1.63740580541,
			"0.014": 0.0101495792214,
			"0.015": 0.0,
			"0.016": 0.0,
			"0.017": 0.0,
			"0.018": 0.0,
			"0.019": 0.0,
			"0.02": 0.0,
			"0.021": 0.0,
			"0.022": 0.0,
			"0.023": 0.0,
			"0.024": 0.0,
			"0.025": 0.0
		}
	}
}
