{
	 "smiles": "OC(=O)CSC1=C(C#N)C(=CC(=O)N1)C(F)(F)F", 
	 "Tm": 475.15, 
	 "num_atms": 23, 
	 "gaussian": { 
		 "optdone": 1, 
		 "sigma_profile": "yes", 
		 "theory": "DFT", 
		 "functional": "B3LYP", 
		 "basiset": "6-31G**", 
		 "properties": { 
			 "R2extent": 6156.6445, 
			 "electric_dipole_moment_norm": 3.46116355147, 
			 "electric_quadrupole_moment_norm": 15.115309803, 
			 "total_energy": -1378.84437956, 
			 "HOMO_LUMO_gap": 0.1635, 
			 "cosmo_polarized_energy": -21.71, 
			 "cosmo_cavitation_energy": 32.82, 
			 "cosmo_dispersion_energy": -22.93, 
			 "cosmo_repulsion_energy": 1.69, 
			 "cosmo_total_nonelectrostatic_energy": 11.57, 
			 "SMD_solvation_energy": 9.4 
		},
		"coords": [
			{
				"x": 2.3839986167,
				"y": 3.354093965,
				"z": -0.0839161411,
				"element": "O" 
			},
			{
				"x": 1.0443156988,
				"y": 3.2500941594,
				"z": 0.001858469,
				"element": "C" 
			},
			{
				"x": 0.3013230447,
				"y": 4.1845504311,
				"z": 0.1946697582,
				"element": "O" 
			},
			{
				"x": 0.6120232948,
				"y": 1.8069666733,
				"z": -0.1633330975,
				"element": "C" 
			},
			{
				"x": -1.2273034418,
				"y": 1.7861739786,
				"z": -0.1739014253,
				"element": "S" 
			},
			{
				"x": -1.5636181176,
				"y": 0.0856546474,
				"z": -0.5856832612,
				"element": "C" 
			},
			{
				"x": -1.1185579553,
				"y": -1.0393231212,
				"z": 0.0945589284,
				"element": "C" 
			},
			{
				"x": -0.2903688348,
				"y": -0.8979906096,
				"z": 1.2450685235,
				"element": "C" 
			},
			{
				"x": 0.3963570339,
				"y": -0.7445723927,
				"z": 2.1725294179,
				"element": "N" 
			},
			{
				"x": -1.5552645211,
				"y": -2.3340904389,
				"z": -0.3776480901,
				"element": "C" 
			},
			{
				"x": -2.4170401863,
				"y": -2.4589284823,
				"z": -1.4212738394,
				"element": "C" 
			},
			{
				"x": -2.9340988527,
				"y": -1.2987011015,
				"z": -2.1275374387,
				"element": "C" 
			},
			{
				"x": -3.7100364118,
				"y": -1.296906857,
				"z": -3.0689208173,
				"element": "O" 
			},
			{
				"x": -2.4165595456,
				"y": -0.0736589294,
				"z": -1.6337889859,
				"element": "N" 
			},
			{
				"x": -1.0415965502,
				"y": -3.5768983688,
				"z": 0.3236492636,
				"element": "C" 
			},
			{
				"x": 0.3039689182,
				"y": -3.62983335,
				"z": 0.2728091145,
				"element": "F" 
			},
			{
				"x": -1.4035332414,
				"y": -3.5798971595,
				"z": 1.6204590078,
				"element": "F" 
			},
			{
				"x": -1.5186095879,
				"y": -4.7016131077,
				"z": -0.2390946321,
				"element": "F" 
			},
			{
				"x": 2.6025362804,
				"y": 4.2920731466,
				"z": 0.0514852399,
				"element": "H" 
			},
			{
				"x": 1.0065357618,
				"y": 1.2187474008,
				"z": 0.6688316065,
				"element": "H" 
			},
			{
				"x": 1.0097917854,
				"y": 1.4027858334,
				"z": -1.0971869072,
				"element": "H" 
			},
			{
				"x": -2.7443980169,
				"y": -3.4285869162,
				"z": -1.7714536783,
				"element": "H" 
			},
			{
				"x": -2.7147651711,
				"y": 0.7487605991,
				"z": -2.1484810152,
				"element": "H" 
			}
		],
		 "valence_orbital": [ 
			{
				"type": "occ",
				"energy": -0.33736,
				"method": "rhf"
			},
			{
				"type": "occ",
				"energy": -0.31017,
				"method": "rhf"
			},
			{
				"type": "occ",
				"energy": -0.29357,
				"method": "rhf"
			},
			{
				"type": "occ",
				"energy": -0.28203,
				"method": "rhf"
			},
			{
				"type": "occ",
				"energy": -0.25304,
				"method": "rhf"
			},
			{
				"type": "unocc",
				"energy": -0.08954,
				"method": "rhf"
			},
			{
				"type": "unocc",
				"energy": -0.06581,
				"method": "rhf"
			},
			{
				"type": "unocc",
				"energy": -0.02017,
				"method": "rhf"
			},
			{
				"type": "unocc",
				"energy": -0.00323,
				"method": "rhf"
			},
			{
				"type": "unocc",
				"energy": 0.00652,
				"method": "rhf"
			}
		],
		"cosmo_sigma_profile": { 
			"-0.025": 0.0,
			"-0.024": 0.0,
			"-0.023": 0.0,
			"-0.022": 0.0,
			"-0.021": 0.0,
			"-0.02": 0.0886829926023,
			"-0.019": 0.668143957684,
			"-0.018": 1.30494801218,
			"-0.017": 1.24834046433,
			"-0.016": 1.89335165746,
			"-0.015": 1.67414688911,
			"-0.014": 1.11659097983,
			"-0.013": 1.29634330977,
			"-0.012": 2.84166008024,
			"-0.011": 1.1334199541,
			"-0.01": 4.03625527271,
			"-0.009": 5.51327747119,
			"-0.008": 7.4011798466,
			"-0.007": 8.40472151445,
			"-0.006": 10.9019119393,
			"-0.005": 13.3293131396,
			"-0.004": 15.1880437745,
			"-0.003": 17.81033784,
			"-0.002": 14.2270890484,
			"-0.001": 11.3479449089,
			"0.0": 12.8539384189,
			"0.001": 20.2175490379,
			"0.002": 29.8926595594,
			"0.003": 12.3782886529,
			"0.004": 8.43879446037,
			"0.005": 8.90136311297,
			"0.006": 6.94270382007,
			"0.007": 5.66419055794,
			"0.008": 6.72845755825,
			"0.009": 6.78487934434,
			"0.01": 8.57662634988,
			"0.011": 7.85960725751,
			"0.012": 7.33538292686,
			"0.013": 2.27484384748,
			"0.014": 0.0546649391346,
			"0.015": 0.0,
			"0.016": 0.0,
			"0.017": 0.0,
			"0.018": 0.0,
			"0.019": 0.0,
			"0.02": 0.0,
			"0.021": 0.0,
			"0.022": 0.0,
			"0.023": 0.0,
			"0.024": 0.0,
			"0.025": 0.0
		}
	}
}
