{
	 "smiles": "CC(C=C(/C)C1=CC=C(C)C=C1)=NNC1=CC=C(C=C1[N+]([O-])=O)[N+]([O-])=O", 
	 "Tm": 456.15, 
	 "num_atms": 44, 
	 "gaussian": { 
		 "optdone": 1, 
		 "sigma_profile": "yes", 
		 "theory": "DFT", 
		 "functional": "B3LYP", 
		 "basiset": "6-31G**", 
		 "properties": { 
			 "R2extent": 14518.7286, 
			 "electric_dipole_moment_norm": 10.4169470576, 
			 "electric_quadrupole_moment_norm": 23.9934461643, 
			 "total_energy": -1216.42363436, 
			 "HOMO_LUMO_gap": 0.136, 
			 "cosmo_polarized_energy": -20.75, 
			 "cosmo_cavitation_energy": 50.09, 
			 "cosmo_dispersion_energy": -33.7, 
			 "cosmo_repulsion_energy": 2.56, 
			 "cosmo_total_nonelectrostatic_energy": 18.95, 
			 "SMD_solvation_energy": 12.94 
		},
		"coords": [
			{
				"x": -0.8762989935,
				"y": -1.4356660515,
				"z": 3.4238119355,
				"element": "C" 
			},
			{
				"x": -0.6016293064,
				"y": -0.8413278294,
				"z": 2.0680864343,
				"element": "C" 
			},
			{
				"x": -0.934022369,
				"y": 0.5915658698,
				"z": 1.8658551659,
				"element": "C" 
			},
			{
				"x": -0.0711807411,
				"y": 1.596224805,
				"z": 1.5830688242,
				"element": "C" 
			},
			{
				"x": 1.4228088136,
				"y": 1.3684103355,
				"z": 1.5060962793,
				"element": "C" 
			},
			{
				"x": -0.5640119239,
				"y": 2.9858826523,
				"z": 1.3868595281,
				"element": "C" 
			},
			{
				"x": 0.2340256796,
				"y": 4.099041045,
				"z": 1.7007840927,
				"element": "C" 
			},
			{
				"x": -0.2388750328,
				"y": 5.3985433405,
				"z": 1.5261663365,
				"element": "C" 
			},
			{
				"x": -1.5206218451,
				"y": 5.6453543024,
				"z": 1.0209210634,
				"element": "C" 
			},
			{
				"x": -2.0412621549,
				"y": 7.0522030484,
				"z": 0.8532375078,
				"element": "C" 
			},
			{
				"x": -2.311374476,
				"y": 4.5365689644,
				"z": 0.6854980982,
				"element": "C" 
			},
			{
				"x": -1.8450000785,
				"y": 3.2381108327,
				"z": 0.8604028559,
				"element": "C" 
			},
			{
				"x": -0.1509483047,
				"y": -1.6474174797,
				"z": 1.1644715598,
				"element": "N" 
			},
			{
				"x": 0.0604385774,
				"y": -1.1657184471,
				"z": -0.0908437208,
				"element": "N" 
			},
			{
				"x": 0.5450602919,
				"y": -1.9588494667,
				"z": -1.0957391451,
				"element": "C" 
			},
			{
				"x": 1.1323249118,
				"y": -1.3262129253,
				"z": -2.2182436324,
				"element": "C" 
			},
			{
				"x": 1.735933566,
				"y": -2.0507606174,
				"z": -3.2271236717,
				"element": "C" 
			},
			{
				"x": 1.7886608577,
				"y": -3.4456007357,
				"z": -3.1298892276,
				"element": "C" 
			},
			{
				"x": 1.2019630737,
				"y": -4.1102155861,
				"z": -2.059917168,
				"element": "C" 
			},
			{
				"x": 0.549883392,
				"y": -3.3763738444,
				"z": -1.0778293212,
				"element": "C" 
			},
			{
				"x": -0.2357994647,
				"y": -4.16337987,
				"z": -0.1133090101,
				"element": "N" 
			},
			{
				"x": -1.4012457332,
				"y": -3.8234935841,
				"z": 0.0651091345,
				"element": "O" 
			},
			{
				"x": 0.3051748455,
				"y": -5.1503745906,
				"z": 0.3807223383,
				"element": "O" 
			},
			{
				"x": 2.4542280102,
				"y": -4.2167888399,
				"z": -4.1734580401,
				"element": "N" 
			},
			{
				"x": 2.9473572285,
				"y": -3.5922319841,
				"z": -5.1157360927,
				"element": "O" 
			},
			{
				"x": 2.4846361941,
				"y": -5.4423528877,
				"z": -4.0513113237,
				"element": "O" 
			},
			{
				"x": -0.6603544405,
				"y": -2.5054246327,
				"z": 3.4158542553,
				"element": "H" 
			},
			{
				"x": -0.2724584988,
				"y": -0.94586495,
				"z": 4.1967873703,
				"element": "H" 
			},
			{
				"x": -1.9276318632,
				"y": -1.2878041199,
				"z": 3.7003937286,
				"element": "H" 
			},
			{
				"x": -1.9797983587,
				"y": 0.8403269898,
				"z": 2.0427089873,
				"element": "H" 
			},
			{
				"x": 1.9342103888,
				"y": 1.9053459648,
				"z": 2.3131162874,
				"element": "H" 
			},
			{
				"x": 1.8392554729,
				"y": 1.7481994087,
				"z": 0.5661177789,
				"element": "H" 
			},
			{
				"x": 1.6799496656,
				"y": 0.3130745101,
				"z": 1.6062786107,
				"element": "H" 
			},
			{
				"x": 1.232876882,
				"y": 3.9580449255,
				"z": 2.1002324654,
				"element": "H" 
			},
			{
				"x": 0.4028560628,
				"y": 6.2363686983,
				"z": 1.7871814788,
				"element": "H" 
			},
			{
				"x": -1.2247403729,
				"y": 7.7761273089,
				"z": 0.7799858186,
				"element": "H" 
			},
			{
				"x": -2.6603451386,
				"y": 7.1458527192,
				"z": -0.0444577038,
				"element": "H" 
			},
			{
				"x": -2.6642278814,
				"y": 7.3464935582,
				"z": 1.7072152846,
				"element": "H" 
			},
			{
				"x": -3.3022449809,
				"y": 4.693676536,
				"z": 0.2663347805,
				"element": "H" 
			},
			{
				"x": -2.472082592,
				"y": 2.4057386706,
				"z": 0.55544945,
				"element": "H" 
			},
			{
				"x": -0.0694103795,
				"y": -0.174308612,
				"z": -0.2727570505,
				"element": "H" 
			},
			{
				"x": 1.1341236488,
				"y": -0.2408022665,
				"z": -2.2599225708,
				"element": "H" 
			},
			{
				"x": 2.193091674,
				"y": -1.5614147617,
				"z": -4.0778912603,
				"element": "H" 
			},
			{
				"x": 1.2211056932,
				"y": -5.1910704037,
				"z": -2.0082185119,
				"element": "H" 
			}
		],
		 "valence_orbital": [ 
			{
				"type": "occ",
				"energy": -0.28609,
				"method": "rhf"
			},
			{
				"type": "occ",
				"energy": -0.27574,
				"method": "rhf"
			},
			{
				"type": "occ",
				"energy": -0.26666,
				"method": "rhf"
			},
			{
				"type": "occ",
				"energy": -0.24452,
				"method": "rhf"
			},
			{
				"type": "occ",
				"energy": -0.22425,
				"method": "rhf"
			},
			{
				"type": "unocc",
				"energy": -0.08825,
				"method": "rhf"
			},
			{
				"type": "unocc",
				"energy": -0.0756,
				"method": "rhf"
			},
			{
				"type": "unocc",
				"energy": -0.05505,
				"method": "rhf"
			},
			{
				"type": "unocc",
				"energy": -0.02794,
				"method": "rhf"
			},
			{
				"type": "unocc",
				"energy": -0.01905,
				"method": "rhf"
			}
		],
		"cosmo_sigma_profile": { 
			"-0.025": 0.0,
			"-0.024": 0.0,
			"-0.023": 0.0,
			"-0.022": 0.0,
			"-0.021": 0.0,
			"-0.02": 0.0,
			"-0.019": 0.0,
			"-0.018": 0.0,
			"-0.017": 0.0,
			"-0.016": 0.0,
			"-0.015": 0.026014584979,
			"-0.014": 0.957955417098,
			"-0.013": 1.10701667193,
			"-0.012": 1.23306114942,
			"-0.011": 1.14316557104,
			"-0.01": 1.4321800037,
			"-0.009": 2.42777092211,
			"-0.008": 4.94354250508,
			"-0.007": 7.07434155714,
			"-0.006": 14.4963775468,
			"-0.005": 24.6819393491,
			"-0.004": 33.220095482,
			"-0.003": 35.0868251665,
			"-0.002": 40.5748122006,
			"-0.001": 47.3064084866,
			"0.0": 34.3195809987,
			"0.001": 20.5129475889,
			"0.002": 14.7087284361,
			"0.003": 15.7544829806,
			"0.004": 14.0509464369,
			"0.005": 18.1635181235,
			"0.006": 13.5818556287,
			"0.007": 15.2291312612,
			"0.008": 20.7111859721,
			"0.009": 10.2203845428,
			"0.01": 5.65251232743,
			"0.011": 0.719229725868,
			"0.012": 0.0,
			"0.013": 0.0,
			"0.014": 0.0,
			"0.015": 0.0,
			"0.016": 0.0,
			"0.017": 0.0,
			"0.018": 0.0,
			"0.019": 0.0,
			"0.02": 0.0,
			"0.021": 0.0,
			"0.022": 0.0,
			"0.023": 0.0,
			"0.024": 0.0,
			"0.025": 0.0
		}
	}
}
