{
	 "smiles": "N#CCCCCCCC#N", 
	 "Tm": 269.9, 
	 "num_atms": 22, 
	 "gaussian": { 
		 "optdone": 1, 
		 "sigma_profile": "yes", 
		 "theory": "DFT", 
		 "functional": "B3LYP", 
		 "basiset": "6-31G**", 
		 "properties": { 
			 "R2extent": 3529.9892, 
			 "electric_dipole_moment_norm": 6.00854516335, 
			 "electric_quadrupole_moment_norm": 19.4515301825, 
			 "total_energy": -421.567633723, 
			 "HOMO_LUMO_gap": 0.34202, 
			 "cosmo_polarized_energy": -16.31, 
			 "cosmo_cavitation_energy": 26.99, 
			 "cosmo_dispersion_energy": -18.0, 
			 "cosmo_repulsion_energy": 1.52, 
			 "cosmo_total_nonelectrostatic_energy": 10.52, 
			 "SMD_solvation_energy": 6.93 
		},
		"coords": [
			{
				"x": -4.7912095368,
				"y": -3.6069545735,
				"z": 0.7054051491,
				"element": "N" 
			},
			{
				"x": -4.0329714337,
				"y": -2.9653569632,
				"z": 0.1047724133,
				"element": "C" 
			},
			{
				"x": -3.077553971,
				"y": -2.1359157471,
				"z": -0.6340481217,
				"element": "C" 
			},
			{
				"x": -2.7827527777,
				"y": -0.7999528604,
				"z": 0.0839301799,
				"element": "C" 
			},
			{
				"x": -1.8367418909,
				"y": 0.1193358718,
				"z": -0.7032528124,
				"element": "C" 
			},
			{
				"x": -0.4068867854,
				"y": -0.4165872487,
				"z": -0.8624543645,
				"element": "C" 
			},
			{
				"x": 0.5170406467,
				"y": 0.5769577172,
				"z": -1.5769416003,
				"element": "C" 
			},
			{
				"x": 1.9595679055,
				"y": 0.0575409592,
				"z": -1.7623955072,
				"element": "C" 
			},
			{
				"x": 2.0272532044,
				"y": -1.1462124493,
				"z": -2.5974950511,
				"element": "C" 
			},
			{
				"x": 2.0541145044,
				"y": -2.0991538761,
				"z": -3.2599761485,
				"element": "N" 
			},
			{
				"x": -2.1602533959,
				"y": -2.7182256636,
				"z": -0.7749976602,
				"element": "H" 
			},
			{
				"x": -3.4870914418,
				"y": -1.9460954458,
				"z": -1.6340336734,
				"element": "H" 
			},
			{
				"x": -3.7319897305,
				"y": -0.2812235263,
				"z": 0.25552592,
				"element": "H" 
			},
			{
				"x": -2.361140462,
				"y": -1.0126068795,
				"z": 1.0735184782,
				"element": "H" 
			},
			{
				"x": -1.7993311693,
				"y": 1.0883718157,
				"z": -0.1889151561,
				"element": "H" 
			},
			{
				"x": -2.2647291567,
				"y": 0.3194309604,
				"z": -1.695596518,
				"element": "H" 
			},
			{
				"x": -0.4132656797,
				"y": -1.3589521185,
				"z": -1.4239154837,
				"element": "H" 
			},
			{
				"x": 0.0067763648,
				"y": -0.6495530307,
				"z": 0.1290445806,
				"element": "H" 
			},
			{
				"x": 0.1021620947,
				"y": 0.8318403553,
				"z": -2.5593543251,
				"element": "H" 
			},
			{
				"x": 0.5725014396,
				"y": 1.5119740536,
				"z": -1.0065446625,
				"element": "H" 
			},
			{
				"x": 2.408884178,
				"y": -0.1755196981,
				"z": -0.7892562868,
				"element": "H" 
			},
			{
				"x": 2.5856170935,
				"y": 0.8297583476,
				"z": -2.2236193495,
				"element": "H" 
			}
		],
		 "valence_orbital": [ 
			{
				"type": "occ",
				"energy": -0.3498,
				"method": "rhf"
			},
			{
				"type": "occ",
				"energy": -0.32805,
				"method": "rhf"
			},
			{
				"type": "occ",
				"energy": -0.32682,
				"method": "rhf"
			},
			{
				"type": "occ",
				"energy": -0.3212,
				"method": "rhf"
			},
			{
				"type": "occ",
				"energy": -0.31792,
				"method": "rhf"
			},
			{
				"type": "unocc",
				"energy": 0.0241,
				"method": "rhf"
			},
			{
				"type": "unocc",
				"energy": 0.03178,
				"method": "rhf"
			},
			{
				"type": "unocc",
				"energy": 0.03509,
				"method": "rhf"
			},
			{
				"type": "unocc",
				"energy": 0.0396,
				"method": "rhf"
			},
			{
				"type": "unocc",
				"energy": 0.07242,
				"method": "rhf"
			}
		],
		"cosmo_sigma_profile": { 
			"-0.025": 0.0,
			"-0.024": 0.0,
			"-0.023": 0.0,
			"-0.022": 0.0,
			"-0.021": 0.0,
			"-0.02": 0.0,
			"-0.019": 0.0,
			"-0.018": 0.0,
			"-0.017": 0.0,
			"-0.016": 0.0,
			"-0.015": 0.0,
			"-0.014": 0.0,
			"-0.013": 0.0,
			"-0.012": 0.0,
			"-0.011": 0.0,
			"-0.01": 0.0,
			"-0.009": 0.0,
			"-0.008": 3.29309062982,
			"-0.007": 11.5580182316,
			"-0.006": 11.1737756118,
			"-0.005": 16.4659379395,
			"-0.004": 29.5198987028,
			"-0.003": 27.4927533137,
			"-0.002": 21.9025312869,
			"-0.001": 16.4564564271,
			"0.0": 9.01016697848,
			"0.001": 3.55916899886,
			"0.002": 3.63800692904,
			"0.003": 3.21558200465,
			"0.004": 4.62882595762,
			"0.005": 3.26229653593,
			"0.006": 5.05550965247,
			"0.007": 4.91400613384,
			"0.008": 5.91764937361,
			"0.009": 7.24621774946,
			"0.01": 6.80897549467,
			"0.011": 6.61929249716,
			"0.012": 5.01131146823,
			"0.013": 4.59611202828,
			"0.014": 1.5520927216,
			"0.015": 0.0,
			"0.016": 0.0,
			"0.017": 0.0,
			"0.018": 0.0,
			"0.019": 0.0,
			"0.02": 0.0,
			"0.021": 0.0,
			"0.022": 0.0,
			"0.023": 0.0,
			"0.024": 0.0,
			"0.025": 0.0
		}
	}
}
