{
	 "smiles": "CC(CC(C)(C)C1CCCCC1)C1CCCCC1", 
	 "Tm": 243.15, 
	 "num_atms": 52, 
	 "gaussian": { 
		 "optdone": 1, 
		 "sigma_profile": "yes", 
		 "theory": "DFT", 
		 "functional": "B3LYP", 
		 "basiset": "6-31G**", 
		 "properties": { 
			 "R2extent": 6504.7767, 
			 "electric_dipole_moment_norm": 0.169552292818, 
			 "electric_quadrupole_moment_norm": 0.47132401806, 
			 "total_energy": -706.435272264, 
			 "HOMO_LUMO_gap": 0.33875, 
			 "cosmo_polarized_energy": -1.14, 
			 "cosmo_cavitation_energy": 43.68, 
			 "cosmo_dispersion_energy": -30.75, 
			 "cosmo_repulsion_energy": 2.35, 
			 "cosmo_total_nonelectrostatic_energy": 15.27, 
			 "SMD_solvation_energy": 5.62 
		},
		"coords": [
			{
				"x": 1.0010900971,
				"y": -2.2267347086,
				"z": 0.444574917,
				"element": "C" 
			},
			{
				"x": 0.4324959373,
				"y": -0.8146017145,
				"z": 0.6753193952,
				"element": "C" 
			},
			{
				"x": -1.0554388802,
				"y": -0.7391504338,
				"z": 0.215957151,
				"element": "C" 
			},
			{
				"x": -1.4251872045,
				"y": -0.2950825043,
				"z": -1.2429996154,
				"element": "C" 
			},
			{
				"x": -2.8482863978,
				"y": -0.8524594903,
				"z": -1.4915608674,
				"element": "C" 
			},
			{
				"x": -0.4800645337,
				"y": -0.9045340075,
				"z": -2.2967899191,
				"element": "C" 
			},
			{
				"x": -1.4916902227,
				"y": 1.2731883477,
				"z": -1.3546725307,
				"element": "C" 
			},
			{
				"x": -0.221362489,
				"y": 2.0243772441,
				"z": -0.8860410676,
				"element": "C" 
			},
			{
				"x": -0.3032413677,
				"y": 3.5179619552,
				"z": -1.2362873517,
				"element": "C" 
			},
			{
				"x": -0.2798785646,
				"y": 3.7443405434,
				"z": -2.7675778824,
				"element": "C" 
			},
			{
				"x": -0.7929233499,
				"y": 2.5048508039,
				"z": -3.5290299695,
				"element": "C" 
			},
			{
				"x": -1.9245310605,
				"y": 1.8005110478,
				"z": -2.7651283403,
				"element": "C" 
			},
			{
				"x": 0.5844121355,
				"y": -0.2641455684,
				"z": 2.1295196326,
				"element": "C" 
			},
			{
				"x": -0.1681179422,
				"y": -1.0488857553,
				"z": 3.238085041,
				"element": "C" 
			},
			{
				"x": 0.6189546886,
				"y": -2.20349758,
				"z": 3.8843628907,
				"element": "C" 
			},
			{
				"x": 1.9949482975,
				"y": -1.738433042,
				"z": 4.3789254373,
				"element": "C" 
			},
			{
				"x": 2.8057095496,
				"y": -1.1233429017,
				"z": 3.2306783278,
				"element": "C" 
			},
			{
				"x": 2.0446077537,
				"y": 0.0359810499,
				"z": 2.562850403,
				"element": "C" 
			},
			{
				"x": 2.0591421037,
				"y": -2.2918382639,
				"z": 0.7111520805,
				"element": "H" 
			},
			{
				"x": 0.4590594919,
				"y": -2.9783137584,
				"z": 1.0278904191,
				"element": "H" 
			},
			{
				"x": 0.9152657756,
				"y": -2.5133392859,
				"z": -0.6067889068,
				"element": "H" 
			},
			{
				"x": 1.025642426,
				"y": -0.1328793789,
				"z": 0.0553274118,
				"element": "H" 
			},
			{
				"x": -1.4971000228,
				"y": -1.7318534414,
				"z": 0.3735179837,
				"element": "H" 
			},
			{
				"x": -1.6095269441,
				"y": -0.0726338739,
				"z": 0.8904585956,
				"element": "H" 
			},
			{
				"x": -2.8456009733,
				"y": -1.9469070246,
				"z": -1.4432595141,
				"element": "H" 
			},
			{
				"x": -3.5498665948,
				"y": -0.4879577664,
				"z": -0.7318614393,
				"element": "H" 
			},
			{
				"x": -3.2451821492,
				"y": -0.5716166291,
				"z": -2.4712098114,
				"element": "H" 
			},
			{
				"x": -0.7852108687,
				"y": -0.6215087599,
				"z": -3.3092717355,
				"element": "H" 
			},
			{
				"x": -0.5019173672,
				"y": -1.9984976941,
				"z": -2.2518659249,
				"element": "H" 
			},
			{
				"x": 0.5587234342,
				"y": -0.5875591465,
				"z": -2.1647815453,
				"element": "H" 
			},
			{
				"x": -2.2850441081,
				"y": 1.5674469551,
				"z": -0.6518522726,
				"element": "H" 
			},
			{
				"x": 0.6785119568,
				"y": 1.6005520965,
				"z": -1.3496406232,
				"element": "H" 
			},
			{
				"x": -0.0966922262,
				"y": 1.9073676668,
				"z": 0.194273612,
				"element": "H" 
			},
			{
				"x": 0.5148191751,
				"y": 4.0673703966,
				"z": -0.7569382844,
				"element": "H" 
			},
			{
				"x": -1.2310698798,
				"y": 3.9243951491,
				"z": -0.8119453406,
				"element": "H" 
			},
			{
				"x": -0.8938893324,
				"y": 4.6174548675,
				"z": -3.019557226,
				"element": "H" 
			},
			{
				"x": 0.7381461823,
				"y": 3.9803426758,
				"z": -3.0999960732,
				"element": "H" 
			},
			{
				"x": 0.0315599037,
				"y": 1.7984357099,
				"z": -3.6849678117,
				"element": "H" 
			},
			{
				"x": -1.1372378673,
				"y": 2.7911922104,
				"z": -4.5296991815,
				"element": "H" 
			},
			{
				"x": -2.7524723507,
				"y": 2.5105216024,
				"z": -2.6426255715,
				"element": "H" 
			},
			{
				"x": -2.3253395093,
				"y": 0.9907700783,
				"z": -3.3811890369,
				"element": "H" 
			},
			{
				"x": 0.0929728869,
				"y": 0.7176626334,
				"z": 2.0803249036,
				"element": "H" 
			},
			{
				"x": -1.1280186126,
				"y": -1.415633366,
				"z": 2.8563930157,
				"element": "H" 
			},
			{
				"x": -0.4178632084,
				"y": -0.3363971882,
				"z": 4.0370719803,
				"element": "H" 
			},
			{
				"x": 0.7545194737,
				"y": -3.0255094089,
				"z": 3.1715839621,
				"element": "H" 
			},
			{
				"x": 0.0348662952,
				"y": -2.6134435238,
				"z": 4.7178585116,
				"element": "H" 
			},
			{
				"x": 1.8610390568,
				"y": -0.9883200982,
				"z": 5.172280625,
				"element": "H" 
			},
			{
				"x": 2.5431462049,
				"y": -2.5747321064,
				"z": 4.8294926499,
				"element": "H" 
			},
			{
				"x": 3.7698937906,
				"y": -0.7534250074,
				"z": 3.6013720899,
				"element": "H" 
			},
			{
				"x": 3.0406750943,
				"y": -1.9066066182,
				"z": 2.5002568729,
				"element": "H" 
			},
			{
				"x": 2.0095346667,
				"y": 0.8614192101,
				"z": 3.2881004858,
				"element": "H" 
			},
			{
				"x": 2.6124176498,
				"y": 0.415697803,
				"z": 1.7035094481,
				"element": "H" 
			}
		],
		 "valence_orbital": [ 
			{
				"type": "occ",
				"energy": -0.29012,
				"method": "rhf"
			},
			{
				"type": "occ",
				"energy": -0.28559,
				"method": "rhf"
			},
			{
				"type": "occ",
				"energy": -0.28489,
				"method": "rhf"
			},
			{
				"type": "occ",
				"energy": -0.27596,
				"method": "rhf"
			},
			{
				"type": "occ",
				"energy": -0.27327,
				"method": "rhf"
			},
			{
				"type": "unocc",
				"energy": 0.06548,
				"method": "rhf"
			},
			{
				"type": "unocc",
				"energy": 0.086,
				"method": "rhf"
			},
			{
				"type": "unocc",
				"energy": 0.09066,
				"method": "rhf"
			},
			{
				"type": "unocc",
				"energy": 0.09905,
				"method": "rhf"
			},
			{
				"type": "unocc",
				"energy": 0.10733,
				"method": "rhf"
			}
		],
		"cosmo_sigma_profile": { 
			"-0.025": 0.0,
			"-0.024": 0.0,
			"-0.023": 0.0,
			"-0.022": 0.0,
			"-0.021": 0.0,
			"-0.02": 0.0,
			"-0.019": 0.0,
			"-0.018": 0.0,
			"-0.017": 0.0,
			"-0.016": 0.0,
			"-0.015": 0.0,
			"-0.014": 0.0,
			"-0.013": 0.0,
			"-0.012": 0.0,
			"-0.011": 0.0,
			"-0.01": 0.0,
			"-0.009": 0.0,
			"-0.008": 0.0,
			"-0.007": 0.0,
			"-0.006": 0.0,
			"-0.005": 0.0,
			"-0.004": 0.059481968532,
			"-0.003": 5.08879979564,
			"-0.002": 38.5554729591,
			"-0.001": 77.4837479715,
			"0.0": 94.3302804405,
			"0.001": 67.0341221404,
			"0.002": 46.2263036545,
			"0.003": 3.44544725984,
			"0.004": 0.0,
			"0.005": 0.0,
			"0.006": 0.0,
			"0.007": 0.0,
			"0.008": 0.0,
			"0.009": 0.0,
			"0.01": 0.0,
			"0.011": 0.0,
			"0.012": 0.0,
			"0.013": 0.0,
			"0.014": 0.0,
			"0.015": 0.0,
			"0.016": 0.0,
			"0.017": 0.0,
			"0.018": 0.0,
			"0.019": 0.0,
			"0.02": 0.0,
			"0.021": 0.0,
			"0.022": 0.0,
			"0.023": 0.0,
			"0.024": 0.0,
			"0.025": 0.0
		}
	}
}
