{
	 "smiles": "BrC1=CC2=C(OCC(=O)N2CC#C)C=C1", 
	 "Tm": 385.15, 
	 "num_atms": 23, 
	 "gaussian": { 
		 "optdone": 1, 
		 "sigma_profile": "yes", 
		 "theory": "DFT", 
		 "functional": "B3LYP", 
		 "basiset": "6-31G**", 
		 "properties": { 
			 "R2extent": 4642.2283, 
			 "electric_dipole_moment_norm": 0.862065223751, 
			 "electric_quadrupole_moment_norm": 12.9109687549, 
			 "total_energy": -3200.51644586, 
			 "HOMO_LUMO_gap": 0.19252, 
			 "cosmo_polarized_energy": -10.83, 
			 "cosmo_cavitation_energy": 30.43, 
			 "cosmo_dispersion_energy": -21.8, 
			 "cosmo_repulsion_energy": 1.69, 
			 "cosmo_total_nonelectrostatic_energy": 10.32, 
			 "SMD_solvation_energy": 6.0 
		},
		"coords": [
			{
				"x": 0.0542488281,
				"y": -2.9969722596,
				"z": 2.1918861499,
				"element": "Br" 
			},
			{
				"x": 0.6045039332,
				"y": -1.4781036407,
				"z": 1.1703317805,
				"element": "C" 
			},
			{
				"x": -0.3302054767,
				"y": -0.843252752,
				"z": 0.353196151,
				"element": "C" 
			},
			{
				"x": 0.0584069708,
				"y": 0.2731637252,
				"z": -0.3949666685,
				"element": "C" 
			},
			{
				"x": 1.3944323822,
				"y": 0.7127518782,
				"z": -0.3293980199,
				"element": "C" 
			},
			{
				"x": 1.796155147,
				"y": 1.8149159534,
				"z": -1.0349281307,
				"element": "O" 
			},
			{
				"x": 1.1020296733,
				"y": 2.0010596755,
				"z": -2.2661159017,
				"element": "C" 
			},
			{
				"x": -0.4124687408,
				"y": 1.9188578345,
				"z": -2.1264713162,
				"element": "C" 
			},
			{
				"x": -1.160281437,
				"y": 2.5824895683,
				"z": -2.8264860303,
				"element": "O" 
			},
			{
				"x": -0.8556484951,
				"y": 1.0140343234,
				"z": -1.1805516209,
				"element": "N" 
			},
			{
				"x": -2.3066413686,
				"y": 0.8459619745,
				"z": -1.0207751407,
				"element": "C" 
			},
			{
				"x": -2.8382248421,
				"y": -0.3681676116,
				"z": -1.6470196748,
				"element": "C" 
			},
			{
				"x": -3.2941666279,
				"y": -1.3673562497,
				"z": -2.147712452,
				"element": "C" 
			},
			{
				"x": 2.3118059484,
				"y": 0.0641003107,
				"z": 0.4901937143,
				"element": "C" 
			},
			{
				"x": 1.9207232229,
				"y": -1.0341783515,
				"z": 1.2568402042,
				"element": "C" 
			},
			{
				"x": -1.3407474561,
				"y": -1.2245366642,
				"z": 0.2913529032,
				"element": "H" 
			},
			{
				"x": 1.4290423501,
				"y": 1.2558281417,
				"z": -3.0079654908,
				"element": "H" 
			},
			{
				"x": 1.3551843678,
				"y": 2.9957871637,
				"z": -2.631394171,
				"element": "H" 
			},
			{
				"x": -2.7606436758,
				"y": 1.7278251818,
				"z": -1.4803729646,
				"element": "H" 
			},
			{
				"x": -2.540450466,
				"y": 0.8542793472,
				"z": 0.0499470521,
				"element": "H" 
			},
			{
				"x": -3.6896046671,
				"y": -2.2470257245,
				"z": -2.6011356654,
				"element": "H" 
			},
			{
				"x": 3.3296560912,
				"y": 0.4376637333,
				"z": 0.5237912081,
				"element": "H" 
			},
			{
				"x": 2.632194338,
				"y": -1.5401255575,
				"z": 1.8981540841,
				"element": "H" 
			}
		],
		 "valence_orbital": [ 
			{
				"type": "occ",
				"energy": -0.28971,
				"method": "rhf"
			},
			{
				"type": "occ",
				"energy": -0.28168,
				"method": "rhf"
			},
			{
				"type": "occ",
				"energy": -0.26916,
				"method": "rhf"
			},
			{
				"type": "occ",
				"energy": -0.25074,
				"method": "rhf"
			},
			{
				"type": "occ",
				"energy": -0.22331,
				"method": "rhf"
			},
			{
				"type": "unocc",
				"energy": -0.03079,
				"method": "rhf"
			},
			{
				"type": "unocc",
				"energy": -0.01757,
				"method": "rhf"
			},
			{
				"type": "unocc",
				"energy": 0.00281,
				"method": "rhf"
			},
			{
				"type": "unocc",
				"energy": 0.01176,
				"method": "rhf"
			},
			{
				"type": "unocc",
				"energy": 0.03046,
				"method": "rhf"
			}
		],
		"cosmo_sigma_profile": { 
			"-0.025": 0.0,
			"-0.024": 0.0,
			"-0.023": 0.0,
			"-0.022": 0.0,
			"-0.021": 0.0,
			"-0.02": 0.0,
			"-0.019": 0.0,
			"-0.018": 0.0,
			"-0.017": 0.0,
			"-0.016": 0.0,
			"-0.015": 0.0,
			"-0.014": 0.0,
			"-0.013": 0.0,
			"-0.012": 0.881172070201,
			"-0.011": 1.31287749672,
			"-0.01": 1.29288037342,
			"-0.009": 1.94469438014,
			"-0.008": 10.5353662908,
			"-0.007": 12.6295622535,
			"-0.006": 13.1371749347,
			"-0.005": 14.6032909826,
			"-0.004": 13.5423221032,
			"-0.003": 12.2208484875,
			"-0.002": 13.5747819537,
			"-0.001": 11.634348911,
			"0.0": 15.1477834085,
			"0.001": 18.9669237104,
			"0.002": 26.8525983576,
			"0.003": 23.2937303284,
			"0.004": 18.2177786101,
			"0.005": 13.5153831423,
			"0.006": 7.70585370582,
			"0.007": 2.35289126583,
			"0.008": 2.83343570804,
			"0.009": 2.4088760606,
			"0.01": 2.23234821218,
			"0.011": 3.41186023538,
			"0.012": 3.74813621152,
			"0.013": 0.883010189073,
			"0.014": 0.0,
			"0.015": 0.0,
			"0.016": 0.0,
			"0.017": 0.0,
			"0.018": 0.0,
			"0.019": 0.0,
			"0.02": 0.0,
			"0.021": 0.0,
			"0.022": 0.0,
			"0.023": 0.0,
			"0.024": 0.0,
			"0.025": 0.0
		}
	}
}
