{
	 "smiles": "CN1C=C(CC(O)=O)C=N1", 
	 "Tm": 395.15, 
	 "num_atms": 18, 
	 "gaussian": { 
		 "optdone": 1, 
		 "sigma_profile": "yes", 
		 "theory": "DFT", 
		 "functional": "B3LYP", 
		 "basiset": "6-31G**", 
		 "properties": { 
			 "R2extent": 2212.8401, 
			 "electric_dipole_moment_norm": 5.32969070772, 
			 "electric_quadrupole_moment_norm": 14.8197720748, 
			 "total_energy": -493.396136246, 
			 "HOMO_LUMO_gap": 0.24198, 
			 "cosmo_polarized_energy": -16.36, 
			 "cosmo_cavitation_energy": 22.55, 
			 "cosmo_dispersion_energy": -16.37, 
			 "cosmo_repulsion_energy": 1.35, 
			 "cosmo_total_nonelectrostatic_energy": 7.54, 
			 "SMD_solvation_energy": 4.75 
		},
		"coords": [
			{
				"x": -1.6800075031,
				"y": 1.8698280633,
				"z": -0.7935543669,
				"element": "C" 
			},
			{
				"x": -0.3528878831,
				"y": 1.2970353425,
				"z": -0.937111318,
				"element": "N" 
			},
			{
				"x": -0.0064599842,
				"y": -0.0151011034,
				"z": -0.953130417,
				"element": "C" 
			},
			{
				"x": 1.3783153861,
				"y": -0.0732447703,
				"z": -1.0560546573,
				"element": "C" 
			},
			{
				"x": 2.2528959731,
				"y": -1.2918018796,
				"z": -1.1123453424,
				"element": "C" 
			},
			{
				"x": 2.7488401831,
				"y": -1.8399902256,
				"z": 0.2385041068,
				"element": "C" 
			},
			{
				"x": 2.5885400158,
				"y": -1.0326470599,
				"z": 1.3101302281,
				"element": "O" 
			},
			{
				"x": 3.2751531429,
				"y": -2.920019784,
				"z": 0.3410734537,
				"element": "O" 
			},
			{
				"x": 1.764470392,
				"y": 1.2919139216,
				"z": -1.0873016231,
				"element": "C" 
			},
			{
				"x": 0.7181587008,
				"y": 2.1141087119,
				"z": -1.0126177051,
				"element": "N" 
			},
			{
				"x": -1.8297640301,
				"y": 2.2521041864,
				"z": 0.2205932562,
				"element": "H" 
			},
			{
				"x": -2.4253271431,
				"y": 1.101151942,
				"z": -1.004251758,
				"element": "H" 
			},
			{
				"x": -1.7918437805,
				"y": 2.6909773401,
				"z": -1.5034178716,
				"element": "H" 
			},
			{
				"x": -0.7484604493,
				"y": -0.7995343667,
				"z": -0.9025922465,
				"element": "H" 
			},
			{
				"x": 1.7530381685,
				"y": -2.1252750392,
				"z": -1.6136402964,
				"element": "H" 
			},
			{
				"x": 3.1541238931,
				"y": -1.086154166,
				"z": -1.7020435215,
				"element": "H" 
			},
			{
				"x": 2.1221429691,
				"y": -0.2272278242,
				"z": 1.0286581466,
				"element": "H" 
			},
			{
				"x": 2.7630719489,
				"y": 1.7008767113,
				"z": -1.1784980674,
				"element": "H" 
			}
		],
		 "valence_orbital": [ 
			{
				"type": "occ",
				"energy": -0.30674,
				"method": "rhf"
			},
			{
				"type": "occ",
				"energy": -0.30136,
				"method": "rhf"
			},
			{
				"type": "occ",
				"energy": -0.28022,
				"method": "rhf"
			},
			{
				"type": "occ",
				"energy": -0.26873,
				"method": "rhf"
			},
			{
				"type": "occ",
				"energy": -0.24595,
				"method": "rhf"
			},
			{
				"type": "unocc",
				"energy": -0.00397,
				"method": "rhf"
			},
			{
				"type": "unocc",
				"energy": 0.0191,
				"method": "rhf"
			},
			{
				"type": "unocc",
				"energy": 0.04195,
				"method": "rhf"
			},
			{
				"type": "unocc",
				"energy": 0.08298,
				"method": "rhf"
			},
			{
				"type": "unocc",
				"energy": 0.09102,
				"method": "rhf"
			}
		],
		"cosmo_sigma_profile": { 
			"-0.025": 0.0,
			"-0.024": 0.0,
			"-0.023": 0.0,
			"-0.022": 0.0,
			"-0.021": 0.0,
			"-0.02": 0.0,
			"-0.019": 0.0,
			"-0.018": 0.0,
			"-0.017": 0.0,
			"-0.016": 0.0,
			"-0.015": 0.0,
			"-0.014": 0.0125689795452,
			"-0.013": 0.680473699802,
			"-0.012": 0.451244203175,
			"-0.011": 0.616084101266,
			"-0.01": 1.26237747455,
			"-0.009": 3.923516265,
			"-0.008": 5.911366735,
			"-0.007": 13.1172328772,
			"-0.006": 17.1871747821,
			"-0.005": 14.4331070491,
			"-0.004": 14.7687542072,
			"-0.003": 14.9170915846,
			"-0.002": 10.206299548,
			"-0.001": 6.5809679463,
			"0.0": 6.22834061916,
			"0.001": 5.18927279653,
			"0.002": 5.01604751645,
			"0.003": 5.76006062809,
			"0.004": 6.27842991744,
			"0.005": 4.85237185065,
			"0.006": 4.06982679909,
			"0.007": 2.64039839665,
			"0.008": 4.70209010353,
			"0.009": 4.51690341975,
			"0.01": 5.31863158357,
			"0.011": 6.08032946888,
			"0.012": 6.91087539372,
			"0.013": 4.86236776582,
			"0.014": 1.22162514551,
			"0.015": 1.19261624872,
			"0.016": 0.408641207671,
			"0.017": 0.0,
			"0.018": 0.0,
			"0.019": 0.0,
			"0.02": 0.0,
			"0.021": 0.0,
			"0.022": 0.0,
			"0.023": 0.0,
			"0.024": 0.0,
			"0.025": 0.0
		}
	}
}
