{
	 "smiles": "CN1CCNC2=C1N=CC=C2", 
	 "Tm": 363.15, 
	 "num_atms": 22, 
	 "gaussian": { 
		 "optdone": 1, 
		 "sigma_profile": "yes", 
		 "theory": "DFT", 
		 "functional": "B3LYP", 
		 "basiset": "6-31G**", 
		 "properties": { 
			 "R2extent": 1952.2732, 
			 "electric_dipole_moment_norm": 2.97449354008, 
			 "electric_quadrupole_moment_norm": 9.28575135032, 
			 "total_energy": -475.733026539, 
			 "HOMO_LUMO_gap": 0.17733, 
			 "cosmo_polarized_energy": -9.39, 
			 "cosmo_cavitation_energy": 23.85, 
			 "cosmo_dispersion_energy": -18.33, 
			 "cosmo_repulsion_energy": 1.46, 
			 "cosmo_total_nonelectrostatic_energy": 6.98, 
			 "SMD_solvation_energy": 1.22 
		},
		"coords": [
			{
				"x": 0.399134531,
				"y": -2.9801190629,
				"z": -2.0754552267,
				"element": "C" 
			},
			{
				"x": 0.4816474982,
				"y": -1.5540438427,
				"z": -1.809065103,
				"element": "N" 
			},
			{
				"x": -0.2508393761,
				"y": -0.6775866688,
				"z": -2.7090178944,
				"element": "C" 
			},
			{
				"x": 0.2365143419,
				"y": 0.7614153438,
				"z": -2.549662852,
				"element": "C" 
			},
			{
				"x": 0.0603834717,
				"y": 1.1529720914,
				"z": -1.1598075545,
				"element": "N" 
			},
			{
				"x": 0.5278607091,
				"y": 0.2637501284,
				"z": -0.1847137672,
				"element": "C" 
			},
			{
				"x": 0.6904260878,
				"y": -1.1202503866,
				"z": -0.5002712555,
				"element": "C" 
			},
			{
				"x": 1.0682221771,
				"y": -2.0175978796,
				"z": 0.4095138769,
				"element": "N" 
			},
			{
				"x": 1.3275752149,
				"y": -1.6076686524,
				"z": 1.6621931818,
				"element": "C" 
			},
			{
				"x": 1.2104570978,
				"y": -0.2867718209,
				"z": 2.0677140703,
				"element": "C" 
			},
			{
				"x": 0.8018565961,
				"y": 0.6595533752,
				"z": 1.1192736979,
				"element": "C" 
			},
			{
				"x": 0.6065436719,
				"y": -3.1559876399,
				"z": -3.1359996821,
				"element": "H" 
			},
			{
				"x": 1.1354537715,
				"y": -3.5029139473,
				"z": -1.4669251974,
				"element": "H" 
			},
			{
				"x": -0.5929359246,
				"y": -3.3981816319,
				"z": -1.8401019536,
				"element": "H" 
			},
			{
				"x": -0.0706902175,
				"y": -1.011017983,
				"z": -3.7370432815,
				"element": "H" 
			},
			{
				"x": -1.3390020892,
				"y": -0.7179719011,
				"z": -2.5330613804,
				"element": "H" 
			},
			{
				"x": 1.2852168889,
				"y": 0.8218428626,
				"z": -2.8834735958,
				"element": "H" 
			},
			{
				"x": -0.3596272727,
				"y": 1.4254042318,
				"z": -3.1842326114,
				"element": "H" 
			},
			{
				"x": 0.2669296565,
				"y": 2.1238756514,
				"z": -0.9634735382,
				"element": "H" 
			},
			{
				"x": 1.6362750858,
				"y": -2.3826348876,
				"z": 2.3608566598,
				"element": "H" 
			},
			{
				"x": 1.4254156324,
				"y": 0.0051703959,
				"z": 3.09026262,
				"element": "H" 
			},
			{
				"x": 0.6892824475,
				"y": 1.7065622241,
				"z": 1.392690787,
				"element": "H" 
			}
		],
		 "valence_orbital": [ 
			{
				"type": "occ",
				"energy": -0.30482,
				"method": "rhf"
			},
			{
				"type": "occ",
				"energy": -0.28327,
				"method": "rhf"
			},
			{
				"type": "occ",
				"energy": -0.24085,
				"method": "rhf"
			},
			{
				"type": "occ",
				"energy": -0.22696,
				"method": "rhf"
			},
			{
				"type": "occ",
				"energy": -0.17369,
				"method": "rhf"
			},
			{
				"type": "unocc",
				"energy": 0.00364,
				"method": "rhf"
			},
			{
				"type": "unocc",
				"energy": 0.02515,
				"method": "rhf"
			},
			{
				"type": "unocc",
				"energy": 0.07947,
				"method": "rhf"
			},
			{
				"type": "unocc",
				"energy": 0.10681,
				"method": "rhf"
			},
			{
				"type": "unocc",
				"energy": 0.11682,
				"method": "rhf"
			}
		],
		"cosmo_sigma_profile": { 
			"-0.025": 0.0,
			"-0.024": 0.0,
			"-0.023": 0.0,
			"-0.022": 0.0,
			"-0.021": 0.0,
			"-0.02": 0.0,
			"-0.019": 0.0,
			"-0.018": 0.0,
			"-0.017": 0.0,
			"-0.016": 0.0,
			"-0.015": 0.0,
			"-0.014": 0.0,
			"-0.013": 0.490151558652,
			"-0.012": 1.29732160427,
			"-0.011": 1.36003037885,
			"-0.01": 1.28888602027,
			"-0.009": 1.6024945749,
			"-0.008": 1.60579124916,
			"-0.007": 2.03569185613,
			"-0.006": 3.35027138975,
			"-0.005": 12.7167961505,
			"-0.004": 16.1939336739,
			"-0.003": 22.8728926014,
			"-0.002": 22.5710964517,
			"-0.001": 17.9470011036,
			"0.0": 10.9580721865,
			"0.001": 7.54699450571,
			"0.002": 7.56872438245,
			"0.003": 9.07280556704,
			"0.004": 7.84048706854,
			"0.005": 10.899371044,
			"0.006": 10.1276307296,
			"0.007": 5.49765801126,
			"0.008": 2.8688973541,
			"0.009": 2.31203281512,
			"0.01": 2.15626918241,
			"0.011": 2.23201017814,
			"0.012": 1.65467905338,
			"0.013": 1.24829380084,
			"0.014": 0.631493400254,
			"0.015": 0.0438512876059,
			"0.016": 0.0,
			"0.017": 0.0,
			"0.018": 0.0,
			"0.019": 0.0,
			"0.02": 0.0,
			"0.021": 0.0,
			"0.022": 0.0,
			"0.023": 0.0,
			"0.024": 0.0,
			"0.025": 0.0
		}
	}
}
