{
	 "smiles": "CC(O)C(C)C(C)(C)C", 
	 "Tm": 300.15, 
	 "num_atms": 27, 
	 "gaussian": { 
		 "optdone": 1, 
		 "sigma_profile": "yes", 
		 "theory": "DFT", 
		 "functional": "B3LYP", 
		 "basiset": "6-31G**", 
		 "properties": { 
			 "R2extent": 1518.7732, 
			 "electric_dipole_moment_norm": 1.52939073817, 
			 "electric_quadrupole_moment_norm": 3.55639037649, 
			 "total_energy": -390.929756563, 
			 "HOMO_LUMO_gap": 0.32436, 
			 "cosmo_polarized_energy": -5.42, 
			 "cosmo_cavitation_energy": 25.56, 
			 "cosmo_dispersion_energy": -18.45, 
			 "cosmo_repulsion_energy": 1.48, 
			 "cosmo_total_nonelectrostatic_energy": 8.58, 
			 "SMD_solvation_energy": 4.71 
		},
		"coords": [
			{
				"x": -1.7431248457,
				"y": -0.3747144103,
				"z": 0.5906584573,
				"element": "C" 
			},
			{
				"x": -0.6590316936,
				"y": 0.670227219,
				"z": 0.3050907042,
				"element": "C" 
			},
			{
				"x": 0.235046818,
				"y": 0.78959568,
				"z": 1.4160961456,
				"element": "O" 
			},
			{
				"x": 0.1970442353,
				"y": 0.4899635451,
				"z": -0.9766139667,
				"element": "C" 
			},
			{
				"x": -0.6528079429,
				"y": 0.9076024318,
				"z": -2.193747639,
				"element": "C" 
			},
			{
				"x": 0.9739372839,
				"y": -0.8618636269,
				"z": -1.2024716025,
				"element": "C" 
			},
			{
				"x": 1.6674531057,
				"y": -1.3521399765,
				"z": 0.0868837176,
				"element": "C" 
			},
			{
				"x": 0.0785238157,
				"y": -1.9946662354,
				"z": -1.7521086032,
				"element": "C" 
			},
			{
				"x": 2.0925678942,
				"y": -0.6005016851,
				"z": -2.2399616952,
				"element": "C" 
			},
			{
				"x": -2.3548019768,
				"y": -0.0515364113,
				"z": 1.4425928762,
				"element": "H" 
			},
			{
				"x": -2.4196296912,
				"y": -0.5026897297,
				"z": -0.2599480952,
				"element": "H" 
			},
			{
				"x": -1.3114203023,
				"y": -1.3459459946,
				"z": 0.8424933265,
				"element": "H" 
			},
			{
				"x": -1.1744105606,
				"y": 1.636643171,
				"z": 0.1663716745,
				"element": "H" 
			},
			{
				"x": -0.29889177,
				"y": 0.9281795395,
				"z": 2.2089986586,
				"element": "H" 
			},
			{
				"x": 0.9787794256,
				"y": 1.2526688328,
				"z": -0.8554052304,
				"element": "H" 
			},
			{
				"x": -1.0017788722,
				"y": 1.9396064532,
				"z": -2.0810200682,
				"element": "H" 
			},
			{
				"x": -1.5383757371,
				"y": 0.2753443527,
				"z": -2.3163197371,
				"element": "H" 
			},
			{
				"x": -0.0856048476,
				"y": 0.858631847,
				"z": -3.1262743606,
				"element": "H" 
			},
			{
				"x": 2.3161522815,
				"y": -0.5792391392,
				"z": 0.5079412265,
				"element": "H" 
			},
			{
				"x": 2.282128399,
				"y": -2.2317399631,
				"z": -0.1394213859,
				"element": "H" 
			},
			{
				"x": 0.9557567621,
				"y": -1.628807331,
				"z": 0.8669051337,
				"element": "H" 
			},
			{
				"x": -0.7283387158,
				"y": -2.2634167211,
				"z": -1.0658675531,
				"element": "H" 
			},
			{
				"x": -0.3730815251,
				"y": -1.7307061336,
				"z": -2.7135964627,
				"element": "H" 
			},
			{
				"x": 0.6809742806,
				"y": -2.8957705747,
				"z": -1.9141565607,
				"element": "H" 
			},
			{
				"x": 2.6778606227,
				"y": -1.5122820287,
				"z": -2.4033382578,
				"element": "H" 
			},
			{
				"x": 1.6995227092,
				"y": -0.2894335062,
				"z": -3.2128507841,
				"element": "H" 
			},
			{
				"x": 2.7809508473,
				"y": 0.1770903956,
				"z": -1.8903299184,
				"element": "H" 
			}
		],
		 "valence_orbital": [ 
			{
				"type": "occ",
				"energy": -0.32437,
				"method": "rhf"
			},
			{
				"type": "occ",
				"energy": -0.30586,
				"method": "rhf"
			},
			{
				"type": "occ",
				"energy": -0.29937,
				"method": "rhf"
			},
			{
				"type": "occ",
				"energy": -0.29157,
				"method": "rhf"
			},
			{
				"type": "occ",
				"energy": -0.25665,
				"method": "rhf"
			},
			{
				"type": "unocc",
				"energy": 0.06771,
				"method": "rhf"
			},
			{
				"type": "unocc",
				"energy": 0.09148,
				"method": "rhf"
			},
			{
				"type": "unocc",
				"energy": 0.11608,
				"method": "rhf"
			},
			{
				"type": "unocc",
				"energy": 0.12155,
				"method": "rhf"
			},
			{
				"type": "unocc",
				"energy": 0.12754,
				"method": "rhf"
			}
		],
		"cosmo_sigma_profile": { 
			"-0.025": 0.0,
			"-0.024": 0.0,
			"-0.023": 0.0,
			"-0.022": 0.0,
			"-0.021": 0.0,
			"-0.02": 0.0,
			"-0.019": 0.0,
			"-0.018": 0.0,
			"-0.017": 0.0,
			"-0.016": 0.0,
			"-0.015": 0.198166285319,
			"-0.014": 0.86258670868,
			"-0.013": 1.08043121972,
			"-0.012": 1.11867737502,
			"-0.011": 0.225640967456,
			"-0.01": 1.47433495187,
			"-0.009": 1.05169664182,
			"-0.008": 0.875661366646,
			"-0.007": 0.550698005649,
			"-0.006": 1.23628088711,
			"-0.005": 1.4467364381,
			"-0.004": 2.94265317144,
			"-0.003": 12.6301507848,
			"-0.002": 27.4782187335,
			"-0.001": 36.4199786422,
			"0.0": 29.6888892017,
			"0.001": 28.990317055,
			"0.002": 24.3733594683,
			"0.003": 6.54319454544,
			"0.004": 1.79662503045,
			"0.005": 1.44367189729,
			"0.006": 1.65088038993,
			"0.007": 1.63488972992,
			"0.008": 1.11488406993,
			"0.009": 1.40973485854,
			"0.01": 1.96707830126,
			"0.011": 1.62223983519,
			"0.012": 1.18731031341,
			"0.013": 0.876885127644,
			"0.014": 0.712924382286,
			"0.015": 0.467486291375,
			"0.016": 0.0,
			"0.017": 0.0,
			"0.018": 0.0,
			"0.019": 0.0,
			"0.02": 0.0,
			"0.021": 0.0,
			"0.022": 0.0,
			"0.023": 0.0,
			"0.024": 0.0,
			"0.025": 0.0
		}
	}
}
