{
	 "smiles": "CCOC(=O)C1=C(N)N(N=C1SC)C(=O)C1=CC=CC=C1", 
	 "Tm": 368.15, 
	 "num_atms": 36, 
	 "gaussian": { 
		 "optdone": 1, 
		 "sigma_profile": "yes", 
		 "theory": "DFT", 
		 "functional": "B3LYP", 
		 "basiset": "6-31G**", 
		 "properties": { 
			 "R2extent": 8552.4329, 
			 "electric_dipole_moment_norm": 6.99536731988, 
			 "electric_quadrupole_moment_norm": 10.5430440457, 
			 "total_energy": -1330.64745251, 
			 "HOMO_LUMO_gap": 0.141, 
			 "cosmo_polarized_energy": -22.35, 
			 "cosmo_cavitation_energy": 42.1, 
			 "cosmo_dispersion_energy": -30.05, 
			 "cosmo_repulsion_energy": 2.3, 
			 "cosmo_total_nonelectrostatic_energy": 14.35, 
			 "SMD_solvation_energy": 8.3 
		},
		"coords": [
			{
				"x": 4.2022879138,
				"y": 1.4822557428,
				"z": 1.3191346533,
				"element": "C" 
			},
			{
				"x": 2.831886985,
				"y": 1.8415454784,
				"z": 1.8620507553,
				"element": "C" 
			},
			{
				"x": 1.8461237274,
				"y": 1.348994344,
				"z": 0.9261154746,
				"element": "O" 
			},
			{
				"x": 0.5375552947,
				"y": 1.5843442978,
				"z": 1.2706366368,
				"element": "C" 
			},
			{
				"x": 0.2302787233,
				"y": 2.1703997827,
				"z": 2.2923579269,
				"element": "O" 
			},
			{
				"x": -0.3956272502,
				"y": 1.0657897762,
				"z": 0.2889867821,
				"element": "C" 
			},
			{
				"x": -0.13025962,
				"y": 0.3734908373,
				"z": -0.8940427601,
				"element": "C" 
			},
			{
				"x": 1.0740214366,
				"y": -0.017376623,
				"z": -1.3896649886,
				"element": "N" 
			},
			{
				"x": -1.3558796162,
				"y": 0.1240695643,
				"z": -1.4868796947,
				"element": "N" 
			},
			{
				"x": -2.4025665711,
				"y": 0.6785521976,
				"z": -0.7450982862,
				"element": "N" 
			},
			{
				"x": -1.827290466,
				"y": 1.2082712114,
				"z": 0.3101670315,
				"element": "C" 
			},
			{
				"x": -2.7501453433,
				"y": 1.9947949304,
				"z": 1.5833005069,
				"element": "S" 
			},
			{
				"x": -4.4305437606,
				"y": 1.8058441944,
				"z": 0.8886898701,
				"element": "C" 
			},
			{
				"x": -1.6650759358,
				"y": -0.3352807741,
				"z": -2.8022970043,
				"element": "C" 
			},
			{
				"x": -2.6151417672,
				"y": 0.1183603214,
				"z": -3.4025951618,
				"element": "O" 
			},
			{
				"x": -0.8100985399,
				"y": -1.4212493321,
				"z": -3.3725912367,
				"element": "C" 
			},
			{
				"x": -0.2887024669,
				"y": -2.4604270382,
				"z": -2.585810828,
				"element": "C" 
			},
			{
				"x": 0.4036404739,
				"y": -3.5101258326,
				"z": -3.189110998,
				"element": "C" 
			},
			{
				"x": 0.5898380877,
				"y": -3.5230896246,
				"z": -4.5731796996,
				"element": "C" 
			},
			{
				"x": 0.0681440818,
				"y": -2.4926669802,
				"z": -5.3612767123,
				"element": "C" 
			},
			{
				"x": -0.6420455301,
				"y": -1.4534571579,
				"z": -4.7661778761,
				"element": "C" 
			},
			{
				"x": 4.374519014,
				"y": 1.9478687503,
				"z": 0.3436542282,
				"element": "H" 
			},
			{
				"x": 4.3115361655,
				"y": 0.3986576165,
				"z": 1.2123256933,
				"element": "H" 
			},
			{
				"x": 4.977519284,
				"y": 1.8366532613,
				"z": 2.0054204172,
				"element": "H" 
			},
			{
				"x": 2.7049794139,
				"y": 2.9227154352,
				"z": 1.97300172,
				"element": "H" 
			},
			{
				"x": 2.6466090423,
				"y": 1.3875005559,
				"z": 2.8401242982,
				"element": "H" 
			},
			{
				"x": 1.1590717382,
				"y": -0.2586745225,
				"z": -2.3635754031,
				"element": "H" 
			},
			{
				"x": 1.8680015054,
				"y": 0.4047111738,
				"z": -0.9277680676,
				"element": "H" 
			},
			{
				"x": -4.6887024042,
				"y": 0.7518929645,
				"z": 0.7790766328,
				"element": "H" 
			},
			{
				"x": -5.1014195914,
				"y": 2.2838664009,
				"z": 1.6054027188,
				"element": "H" 
			},
			{
				"x": -4.5049748344,
				"y": 2.2980123584,
				"z": -0.0817050271,
				"element": "H" 
			},
			{
				"x": -0.4390516808,
				"y": -2.4529441128,
				"z": -1.5115687553,
				"element": "H" 
			},
			{
				"x": 0.7931560461,
				"y": -4.3193499203,
				"z": -2.5789420067,
				"element": "H" 
			},
			{
				"x": 1.1347586104,
				"y": -4.3391690268,
				"z": -5.0388625302,
				"element": "H" 
			},
			{
				"x": 0.206351288,
				"y": -2.5067952794,
				"z": -6.4381529751,
				"element": "H" 
			},
			{
				"x": -1.082653454,
				"y": -0.6616849711,
				"z": -5.3630453346,
				"element": "H" 
			}
		],
		 "valence_orbital": [ 
			{
				"type": "occ",
				"energy": -0.2753,
				"method": "rhf"
			},
			{
				"type": "occ",
				"energy": -0.26992,
				"method": "rhf"
			},
			{
				"type": "occ",
				"energy": -0.2648,
				"method": "rhf"
			},
			{
				"type": "occ",
				"energy": -0.22655,
				"method": "rhf"
			},
			{
				"type": "occ",
				"energy": -0.20843,
				"method": "rhf"
			},
			{
				"type": "unocc",
				"energy": -0.06743,
				"method": "rhf"
			},
			{
				"type": "unocc",
				"energy": -0.02408,
				"method": "rhf"
			},
			{
				"type": "unocc",
				"energy": -0.0135,
				"method": "rhf"
			},
			{
				"type": "unocc",
				"energy": 0.00905,
				"method": "rhf"
			},
			{
				"type": "unocc",
				"energy": 0.04928,
				"method": "rhf"
			}
		],
		"cosmo_sigma_profile": { 
			"-0.025": 0.0,
			"-0.024": 0.0,
			"-0.023": 0.0,
			"-0.022": 0.0,
			"-0.021": 0.0,
			"-0.02": 0.0,
			"-0.019": 0.0,
			"-0.018": 0.0,
			"-0.017": 0.0,
			"-0.016": 0.0,
			"-0.015": 0.0,
			"-0.014": 0.0698060257389,
			"-0.013": 1.11164780056,
			"-0.012": 1.53792835402,
			"-0.011": 2.35136675389,
			"-0.01": 2.26004453513,
			"-0.009": 2.19509439772,
			"-0.008": 2.12142179226,
			"-0.007": 8.23426959643,
			"-0.006": 16.9291541641,
			"-0.005": 25.5444330544,
			"-0.004": 29.7356035322,
			"-0.003": 29.9512784336,
			"-0.002": 30.5917329488,
			"-0.001": 27.312449852,
			"0.0": 24.6341105077,
			"0.001": 20.5441139691,
			"0.002": 20.9009369493,
			"0.003": 20.6854846812,
			"0.004": 10.7713071137,
			"0.005": 7.39577085852,
			"0.006": 6.87322323017,
			"0.007": 6.36978251681,
			"0.008": 7.55548011973,
			"0.009": 5.00063876844,
			"0.01": 6.43354801256,
			"0.011": 7.74142364102,
			"0.012": 6.95251731943,
			"0.013": 2.63132942406,
			"0.014": 1.44140006544,
			"0.015": 1.00943370093,
			"0.016": 0.440645907147,
			"0.017": 0.0,
			"0.018": 0.0,
			"0.019": 0.0,
			"0.02": 0.0,
			"0.021": 0.0,
			"0.022": 0.0,
			"0.023": 0.0,
			"0.024": 0.0,
			"0.025": 0.0
		}
	}
}
