{
	 "smiles": "CCN(CC)C(=O)C1=CC=C(O)C=C1", 
	 "Tm": 394.15, 
	 "num_atms": 29, 
	 "gaussian": { 
		 "optdone": 1, 
		 "sigma_profile": "yes", 
		 "theory": "DFT", 
		 "functional": "B3LYP", 
		 "basiset": "6-31G**", 
		 "properties": { 
			 "R2extent": 4094.2872, 
			 "electric_dipole_moment_norm": 4.28011912217, 
			 "electric_quadrupole_moment_norm": 11.414316361, 
			 "total_energy": -633.425122997, 
			 "HOMO_LUMO_gap": 0.20588, 
			 "cosmo_polarized_energy": -15.23, 
			 "cosmo_cavitation_energy": 31.84, 
			 "cosmo_dispersion_energy": -22.2, 
			 "cosmo_repulsion_energy": 1.78, 
			 "cosmo_total_nonelectrostatic_energy": 11.42, 
			 "SMD_solvation_energy": 6.19 
		},
		"coords": [
			{
				"x": 2.0658442091,
				"y": -1.8478411298,
				"z": -0.7714644467,
				"element": "C" 
			},
			{
				"x": 1.6306511039,
				"y": -0.3771362281,
				"z": -0.7902933421,
				"element": "C" 
			},
			{
				"x": 0.1816116466,
				"y": -0.1933844656,
				"z": -0.6432817101,
				"element": "N" 
			},
			{
				"x": -0.6570827282,
				"y": -0.5627950582,
				"z": -1.7968536624,
				"element": "C" 
			},
			{
				"x": -1.458706033,
				"y": 0.6238470495,
				"z": -2.3357272337,
				"element": "C" 
			},
			{
				"x": -0.4655834016,
				"y": -0.1131027795,
				"z": 0.5731375434,
				"element": "C" 
			},
			{
				"x": -1.6590438028,
				"y": -0.3970062351,
				"z": 0.6817477631,
				"element": "O" 
			},
			{
				"x": 0.2920537974,
				"y": 0.3768807049,
				"z": 1.7763923874,
				"element": "C" 
			},
			{
				"x": 0.0760528085,
				"y": -0.2732196066,
				"z": 3.0015301325,
				"element": "C" 
			},
			{
				"x": 0.6752492124,
				"y": 0.1782882528,
				"z": 4.1702874775,
				"element": "C" 
			},
			{
				"x": 1.4821125044,
				"y": 1.3231698343,
				"z": 4.1396205083,
				"element": "C" 
			},
			{
				"x": 2.0413236468,
				"y": 1.729069383,
				"z": 5.3158369656,
				"element": "O" 
			},
			{
				"x": 1.6771642109,
				"y": 2.0056549552,
				"z": 2.9338363872,
				"element": "C" 
			},
			{
				"x": 1.0869392845,
				"y": 1.5299437852,
				"z": 1.7635659234,
				"element": "C" 
			},
			{
				"x": 3.1484902515,
				"y": -1.9247187532,
				"z": -0.9192893303,
				"element": "H" 
			},
			{
				"x": 1.8183648473,
				"y": -2.3093434913,
				"z": 0.1895754206,
				"element": "H" 
			},
			{
				"x": 1.5772121348,
				"y": -2.4266051733,
				"z": -1.561453332,
				"element": "H" 
			},
			{
				"x": 2.1403762164,
				"y": 0.1570246054,
				"z": 0.0101819094,
				"element": "H" 
			},
			{
				"x": 1.9352996009,
				"y": 0.0957771521,
				"z": -1.7314796671,
				"element": "H" 
			},
			{
				"x": -1.3392735487,
				"y": -1.3644233101,
				"z": -1.4987584247,
				"element": "H" 
			},
			{
				"x": 0.0054735857,
				"y": -0.9543423279,
				"z": -2.5741212556,
				"element": "H" 
			},
			{
				"x": -2.0555365902,
				"y": 0.3169919373,
				"z": -3.2014307374,
				"element": "H" 
			},
			{
				"x": -2.1387901834,
				"y": 0.9973640224,
				"z": -1.5669457885,
				"element": "H" 
			},
			{
				"x": -0.797386392,
				"y": 1.4392116246,
				"z": -2.6470064521,
				"element": "H" 
			},
			{
				"x": -0.5803303179,
				"y": -1.1370654621,
				"z": 3.0239716322,
				"element": "H" 
			},
			{
				"x": 0.5222668344,
				"y": -0.3292980573,
				"z": 5.1168813606,
				"element": "H" 
			},
			{
				"x": 2.5567827166,
				"y": 2.5317684966,
				"z": 5.1633047875,
				"element": "H" 
			},
			{
				"x": 2.280278093,
				"y": 2.9110761055,
				"z": 2.9114898678,
				"element": "H" 
			},
			{
				"x": 1.2261862927,
				"y": 2.0808141691,
				"z": 0.8379453166,
				"element": "H" 
			}
		],
		 "valence_orbital": [ 
			{
				"type": "occ",
				"energy": -0.32582,
				"method": "rhf"
			},
			{
				"type": "occ",
				"energy": -0.25814,
				"method": "rhf"
			},
			{
				"type": "occ",
				"energy": -0.24577,
				"method": "rhf"
			},
			{
				"type": "occ",
				"energy": -0.2314,
				"method": "rhf"
			},
			{
				"type": "occ",
				"energy": -0.22082,
				"method": "rhf"
			},
			{
				"type": "unocc",
				"energy": -0.01494,
				"method": "rhf"
			},
			{
				"type": "unocc",
				"energy": -0.00711,
				"method": "rhf"
			},
			{
				"type": "unocc",
				"energy": 0.05411,
				"method": "rhf"
			},
			{
				"type": "unocc",
				"energy": 0.06622,
				"method": "rhf"
			},
			{
				"type": "unocc",
				"energy": 0.08713,
				"method": "rhf"
			}
		],
		"cosmo_sigma_profile": { 
			"-0.025": 0.0,
			"-0.024": 0.0,
			"-0.023": 0.0,
			"-0.022": 0.0,
			"-0.021": 0.0,
			"-0.02": 0.0,
			"-0.019": 0.0,
			"-0.018": 0.447128612525,
			"-0.017": 1.17022009636,
			"-0.016": 1.35690404902,
			"-0.015": 1.03709362697,
			"-0.014": 0.863861562722,
			"-0.013": 1.33613980396,
			"-0.012": 0.672413476759,
			"-0.011": 1.04551459774,
			"-0.01": 0.945617918592,
			"-0.009": 1.35046732839,
			"-0.008": 1.18805696048,
			"-0.007": 1.95119258212,
			"-0.006": 5.97933444052,
			"-0.005": 11.8284231539,
			"-0.004": 18.0754917933,
			"-0.003": 25.9476702031,
			"-0.002": 28.7075441077,
			"-0.001": 26.3849500331,
			"0.0": 22.434046198,
			"0.001": 20.3107580167,
			"0.002": 13.2895782838,
			"0.003": 12.4599689996,
			"0.004": 13.6719979534,
			"0.005": 7.6582302596,
			"0.006": 3.62033511548,
			"0.007": 3.19409850234,
			"0.008": 3.26696355726,
			"0.009": 3.41783369015,
			"0.01": 3.44528409619,
			"0.011": 3.09069211924,
			"0.012": 2.38257631684,
			"0.013": 1.61713867321,
			"0.014": 4.5258665774,
			"0.015": 1.63917038914,
			"0.016": 0.124590599472,
			"0.017": 0.0,
			"0.018": 0.0,
			"0.019": 0.0,
			"0.02": 0.0,
			"0.021": 0.0,
			"0.022": 0.0,
			"0.023": 0.0,
			"0.024": 0.0,
			"0.025": 0.0
		}
	}
}
