{
	 "smiles": "FC1=CC(=CC=C1)C1=CSC(=O)N1", 
	 "Tm": 472.15, 
	 "num_atms": 19, 
	 "gaussian": { 
		 "optdone": 1, 
		 "sigma_profile": "yes", 
		 "theory": "DFT", 
		 "functional": "B3LYP", 
		 "basiset": "6-31G**", 
		 "properties": { 
			 "R2extent": 4100.1222, 
			 "electric_dipole_moment_norm": 4.43028323474, 
			 "electric_quadrupole_moment_norm": 17.1848528033, 
			 "total_energy": -974.578503836, 
			 "HOMO_LUMO_gap": 0.16598, 
			 "cosmo_polarized_energy": -12.1, 
			 "cosmo_cavitation_energy": 26.13, 
			 "cosmo_dispersion_energy": -19.7, 
			 "cosmo_repulsion_energy": 1.47, 
			 "cosmo_total_nonelectrostatic_energy": 7.9, 
			 "SMD_solvation_energy": 5.68 
		},
		"coords": [
			{
				"x": 2.468383641,
				"y": -1.1481174812,
				"z": 1.9141674608,
				"element": "F" 
			},
			{
				"x": 1.3550431399,
				"y": -0.6154219633,
				"z": 1.3726366139,
				"element": "C" 
			},
			{
				"x": 1.0077334064,
				"y": -0.9811281741,
				"z": 0.0784929811,
				"element": "C" 
			},
			{
				"x": -0.146679514,
				"y": -0.4309248666,
				"z": -0.5034396664,
				"element": "C" 
			},
			{
				"x": -0.9211167129,
				"y": 0.4735597101,
				"z": 0.2442780871,
				"element": "C" 
			},
			{
				"x": -0.5413254603,
				"y": 0.8281126825,
				"z": 1.5366475808,
				"element": "C" 
			},
			{
				"x": 0.6043230447,
				"y": 0.2835920329,
				"z": 2.1207343262,
				"element": "C" 
			},
			{
				"x": -0.5370823982,
				"y": -0.7887704174,
				"z": -1.8746147203,
				"element": "C" 
			},
			{
				"x": -1.1894237878,
				"y": -0.015943252,
				"z": -2.7761793898,
				"element": "C" 
			},
			{
				"x": -1.4196862417,
				"y": -0.8247692401,
				"z": -4.3150551076,
				"element": "S" 
			},
			{
				"x": -0.5892129135,
				"y": -2.3207739638,
				"z": -3.695176805,
				"element": "C" 
			},
			{
				"x": -0.4233610933,
				"y": -3.3563363045,
				"z": -4.2984101386,
				"element": "O" 
			},
			{
				"x": -0.2003027215,
				"y": -2.0405558283,
				"z": -2.3982526613,
				"element": "N" 
			},
			{
				"x": 1.6602163186,
				"y": -1.6553610351,
				"z": -0.4659243921,
				"element": "H" 
			},
			{
				"x": -1.8336338111,
				"y": 0.8755285086,
				"z": -0.182819724,
				"element": "H" 
			},
			{
				"x": -1.1509313579,
				"y": 1.5247330901,
				"z": 2.1038952213,
				"element": "H" 
			},
			{
				"x": 0.9146858927,
				"y": 0.5380279044,
				"z": 3.1279036203,
				"element": "H" 
			},
			{
				"x": -1.4956396361,
				"y": 1.0097303973,
				"z": -2.6358957454,
				"element": "H" 
			},
			{
				"x": 0.1778102049,
				"y": -2.7931817992,
				"z": -1.8400875409,
				"element": "H" 
			}
		],
		 "valence_orbital": [ 
			{
				"type": "occ",
				"energy": -0.30407,
				"method": "rhf"
			},
			{
				"type": "occ",
				"energy": -0.28176,
				"method": "rhf"
			},
			{
				"type": "occ",
				"energy": -0.27277,
				"method": "rhf"
			},
			{
				"type": "occ",
				"energy": -0.26393,
				"method": "rhf"
			},
			{
				"type": "occ",
				"energy": -0.21513,
				"method": "rhf"
			},
			{
				"type": "unocc",
				"energy": -0.04915,
				"method": "rhf"
			},
			{
				"type": "unocc",
				"energy": -0.02075,
				"method": "rhf"
			},
			{
				"type": "unocc",
				"energy": 0.00876,
				"method": "rhf"
			},
			{
				"type": "unocc",
				"energy": 0.01361,
				"method": "rhf"
			},
			{
				"type": "unocc",
				"energy": 0.04525,
				"method": "rhf"
			}
		],
		"cosmo_sigma_profile": { 
			"-0.025": 0.0,
			"-0.024": 0.0,
			"-0.023": 0.0,
			"-0.022": 0.0,
			"-0.021": 0.0,
			"-0.02": 0.0,
			"-0.019": 0.0,
			"-0.018": 0.0,
			"-0.017": 0.0894107524284,
			"-0.016": 1.0491891562,
			"-0.015": 0.939356357104,
			"-0.014": 1.28251550685,
			"-0.013": 1.3267898848,
			"-0.012": 1.17089748906,
			"-0.011": 1.20064420204,
			"-0.01": 1.20908408281,
			"-0.009": 3.58020238832,
			"-0.008": 4.18527806605,
			"-0.007": 8.52017822622,
			"-0.006": 9.53678568965,
			"-0.005": 10.6279843978,
			"-0.004": 7.79458093884,
			"-0.003": 7.97034742288,
			"-0.002": 10.7839503242,
			"-0.001": 13.3034290846,
			"0.0": 18.7023317509,
			"0.001": 22.2686128809,
			"0.002": 23.856708991,
			"0.003": 20.4106099819,
			"0.004": 19.6701903579,
			"0.005": 5.15589405715,
			"0.006": 1.198300842,
			"0.007": 0.929923313694,
			"0.008": 1.64392462834,
			"0.009": 1.79371267057,
			"0.01": 1.47226296866,
			"0.011": 3.24524462779,
			"0.012": 6.42047749251,
			"0.013": 1.6624089709,
			"0.014": 0.0,
			"0.015": 0.0,
			"0.016": 0.0,
			"0.017": 0.0,
			"0.018": 0.0,
			"0.019": 0.0,
			"0.02": 0.0,
			"0.021": 0.0,
			"0.022": 0.0,
			"0.023": 0.0,
			"0.024": 0.0,
			"0.025": 0.0
		}
	}
}
