{
	 "smiles": "CC1=CC2=C(NCC(=O)N2)N=C1", 
	 "Tm": 523.15, 
	 "num_atms": 21, 
	 "gaussian": { 
		 "optdone": 1, 
		 "sigma_profile": "yes", 
		 "theory": "DFT", 
		 "functional": "B3LYP", 
		 "basiset": "6-31G**", 
		 "properties": { 
			 "R2extent": 2563.3371, 
			 "electric_dipole_moment_norm": 2.23111271118, 
			 "electric_quadrupole_moment_norm": 13.3385067335, 
			 "total_energy": -549.778784988, 
			 "HOMO_LUMO_gap": 0.17891, 
			 "cosmo_polarized_energy": -14.09, 
			 "cosmo_cavitation_energy": 24.63, 
			 "cosmo_dispersion_energy": -18.73, 
			 "cosmo_repulsion_energy": 1.49, 
			 "cosmo_total_nonelectrostatic_energy": 7.39, 
			 "SMD_solvation_energy": 2.33 
		},
		"coords": [
			{
				"x": 1.2516546096,
				"y": -2.4970800308,
				"z": -0.3804318332,
				"element": "C" 
			},
			{
				"x": 0.814687481,
				"y": -1.1254971643,
				"z": 0.0693234791,
				"element": "C" 
			},
			{
				"x": 0.0618340853,
				"y": -0.2831717797,
				"z": -0.7684418168,
				"element": "C" 
			},
			{
				"x": -0.3162397978,
				"y": 0.9722078045,
				"z": -0.3211300853,
				"element": "C" 
			},
			{
				"x": 0.0609542804,
				"y": 1.3628819145,
				"z": 0.9864178895,
				"element": "C" 
			},
			{
				"x": -0.2735903799,
				"y": 2.6387527984,
				"z": 1.4069627072,
				"element": "N" 
			},
			{
				"x": -1.4769013141,
				"y": 3.2619882759,
				"z": 0.8757533124,
				"element": "C" 
			},
			{
				"x": -1.6147967859,
				"y": 3.04379557,
				"z": -0.6306525894,
				"element": "C" 
			},
			{
				"x": -2.2431092675,
				"y": 3.8037247916,
				"z": -1.3477744604,
				"element": "O" 
			},
			{
				"x": -1.0285463922,
				"y": 1.8937080301,
				"z": -1.1054853233,
				"element": "N" 
			},
			{
				"x": 0.7656920455,
				"y": 0.5764862104,
				"z": 1.7930272578,
				"element": "N" 
			},
			{
				"x": 1.1346432704,
				"y": -0.6306932407,
				"z": 1.3324999577,
				"element": "C" 
			},
			{
				"x": 1.8792144029,
				"y": -2.4472939667,
				"z": -1.2781290619,
				"element": "H" 
			},
			{
				"x": 0.3941018475,
				"y": -3.1364354399,
				"z": -0.6213652116,
				"element": "H" 
			},
			{
				"x": 1.8298746143,
				"y": -2.9996996821,
				"z": 0.3999217087,
				"element": "H" 
			},
			{
				"x": -0.2174533939,
				"y": -0.6078271455,
				"z": -1.7688546256,
				"element": "H" 
			},
			{
				"x": -0.0764719465,
				"y": 2.7961743432,
				"z": 2.3871519334,
				"element": "H" 
			},
			{
				"x": -2.4063554104,
				"y": 2.8863139639,
				"z": 1.3410803224,
				"element": "H" 
			},
			{
				"x": -1.4436165531,
				"y": 4.3410949976,
				"z": 1.038926872,
				"element": "H" 
			},
			{
				"x": -1.1737665447,
				"y": 1.7088843307,
				"z": -2.0901688869,
				"element": "H" 
			},
			{
				"x": 1.7193911492,
				"y": -1.2386145815,
				"z": 2.0209684543,
				"element": "H" 
			}
		],
		 "valence_orbital": [ 
			{
				"type": "occ",
				"energy": -0.30351,
				"method": "rhf"
			},
			{
				"type": "occ",
				"energy": -0.26558,
				"method": "rhf"
			},
			{
				"type": "occ",
				"energy": -0.2624,
				"method": "rhf"
			},
			{
				"type": "occ",
				"energy": -0.25065,
				"method": "rhf"
			},
			{
				"type": "occ",
				"energy": -0.20181,
				"method": "rhf"
			},
			{
				"type": "unocc",
				"energy": -0.0229,
				"method": "rhf"
			},
			{
				"type": "unocc",
				"energy": -0.00442,
				"method": "rhf"
			},
			{
				"type": "unocc",
				"energy": 0.03223,
				"method": "rhf"
			},
			{
				"type": "unocc",
				"energy": 0.07904,
				"method": "rhf"
			},
			{
				"type": "unocc",
				"energy": 0.09352,
				"method": "rhf"
			}
		],
		"cosmo_sigma_profile": { 
			"-0.025": 0.0,
			"-0.024": 0.0,
			"-0.023": 0.0,
			"-0.022": 0.0,
			"-0.021": 0.0,
			"-0.02": 0.0,
			"-0.019": 0.0,
			"-0.018": 0.0,
			"-0.017": 0.0,
			"-0.016": 0.145371616332,
			"-0.015": 0.930118807403,
			"-0.014": 1.48493168252,
			"-0.013": 2.19700289836,
			"-0.012": 2.04609224371,
			"-0.011": 2.63725453007,
			"-0.01": 1.59683209326,
			"-0.009": 2.30356608953,
			"-0.008": 1.90477978731,
			"-0.007": 5.687255772,
			"-0.006": 10.3062982567,
			"-0.005": 11.2866105209,
			"-0.004": 15.7751194246,
			"-0.003": 13.9558612459,
			"-0.002": 13.6641331074,
			"-0.001": 13.0361794405,
			"0.0": 15.4483378387,
			"0.001": 11.9127897702,
			"0.002": 10.8480016181,
			"0.003": 10.9705058406,
			"0.004": 9.90137437372,
			"0.005": 3.55609003468,
			"0.006": 4.23661661728,
			"0.007": 3.40485410747,
			"0.008": 3.04835725214,
			"0.009": 3.10948851768,
			"0.01": 2.64497095675,
			"0.011": 3.00492913645,
			"0.012": 4.49043699593,
			"0.013": 6.76487583643,
			"0.014": 1.92965176545,
			"0.015": 0.531977658763,
			"0.016": 0.609951477152,
			"0.017": 0.0,
			"0.018": 0.0,
			"0.019": 0.0,
			"0.02": 0.0,
			"0.021": 0.0,
			"0.022": 0.0,
			"0.023": 0.0,
			"0.024": 0.0,
			"0.025": 0.0
		}
	}
}
