{
	 "smiles": "ClC1=CC(Cl)=C(NN=C(/C#N)C2=NC3=C(N2)C=CC=C3)C(Cl)=C1", 
	 "Tm": 536.15, 
	 "num_atms": 31, 
	 "gaussian": { 
		 "optdone": 1, 
		 "sigma_profile": "yes", 
		 "theory": "DFT", 
		 "functional": "B3LYP", 
		 "basiset": "6-31G**", 
		 "properties": { 
			 "R2extent": 14449.2107, 
			 "electric_dipole_moment_norm": 4.74576079675, 
			 "electric_quadrupole_moment_norm": 19.3613664048, 
			 "total_energy": -2230.70338946, 
			 "HOMO_LUMO_gap": 0.12851, 
			 "cosmo_polarized_energy": -16.83, 
			 "cosmo_cavitation_energy": 43.87, 
			 "cosmo_dispersion_energy": -30.89, 
			 "cosmo_repulsion_energy": 2.33, 
			 "cosmo_total_nonelectrostatic_energy": 15.31, 
			 "SMD_solvation_energy": 5.09 
		},
		"coords": [
			{
				"x": -4.1353817583,
				"y": -0.6429769583,
				"z": -6.4429777852,
				"element": "Cl" 
			},
			{
				"x": -3.0431420691,
				"y": -1.0993479816,
				"z": -5.1554653845,
				"element": "C" 
			},
			{
				"x": -1.9013843163,
				"y": -1.8384782086,
				"z": -5.452482622,
				"element": "C" 
			},
			{
				"x": -1.037008163,
				"y": -2.1752100629,
				"z": -4.4178242578,
				"element": "C" 
			},
			{
				"x": 0.407226248,
				"y": -3.0892482974,
				"z": -4.8149730929,
				"element": "Cl" 
			},
			{
				"x": -1.2762979832,
				"y": -1.8097708484,
				"z": -3.0744703114,
				"element": "C" 
			},
			{
				"x": -0.3680961777,
				"y": -2.210334331,
				"z": -2.0926631532,
				"element": "N" 
			},
			{
				"x": -0.074838932,
				"y": -1.4327853532,
				"z": -1.0507786873,
				"element": "N" 
			},
			{
				"x": 0.8494015631,
				"y": -1.8024030233,
				"z": -0.2084506541,
				"element": "C" 
			},
			{
				"x": 1.5912138597,
				"y": -3.0216442201,
				"z": -0.3804343396,
				"element": "C" 
			},
			{
				"x": 2.10299216,
				"y": -4.0296449895,
				"z": -0.6571711136,
				"element": "N" 
			},
			{
				"x": 1.1348795331,
				"y": -0.9469635942,
				"z": 0.9326788688,
				"element": "C" 
			},
			{
				"x": 2.0659606399,
				"y": -1.1798286741,
				"z": 1.8331411082,
				"element": "N" 
			},
			{
				"x": 1.9722227575,
				"y": -0.1181160371,
				"z": 2.7148769276,
				"element": "C" 
			},
			{
				"x": 0.9417610039,
				"y": 0.7726653693,
				"z": 2.3113977191,
				"element": "C" 
			},
			{
				"x": 0.4241920218,
				"y": 0.2103128314,
				"z": 1.1604347103,
				"element": "N" 
			},
			{
				"x": 0.6310665852,
				"y": 1.9316126467,
				"z": 3.0256021676,
				"element": "C" 
			},
			{
				"x": 1.3862103083,
				"y": 2.1815539398,
				"z": 4.168305595,
				"element": "C" 
			},
			{
				"x": 2.4139685304,
				"y": 1.3083368273,
				"z": 4.5841409979,
				"element": "C" 
			},
			{
				"x": 2.7190185028,
				"y": 0.1561802949,
				"z": 3.8697460901,
				"element": "C" 
			},
			{
				"x": -2.4687299861,
				"y": -1.0991222177,
				"z": -2.8159042196,
				"element": "C" 
			},
			{
				"x": -2.9753429801,
				"y": -0.7017431788,
				"z": -1.1882079286,
				"element": "Cl" 
			},
			{
				"x": -3.3327979559,
				"y": -0.7299918015,
				"z": -3.8454583429,
				"element": "C" 
			},
			{
				"x": -1.6757245128,
				"y": -2.1358511799,
				"z": -6.4686708884,
				"element": "H" 
			},
			{
				"x": 0.2407478579,
				"y": -2.9979083773,
				"z": -2.3132118281,
				"element": "H" 
			},
			{
				"x": -0.3341170718,
				"y": 0.5418722619,
				"z": 0.583262007,
				"element": "H" 
			},
			{
				"x": -0.1582499093,
				"y": 2.6069677019,
				"z": 2.7103497488,
				"element": "H" 
			},
			{
				"x": 1.1787955728,
				"y": 3.0717609116,
				"z": 4.7546030053,
				"element": "H" 
			},
			{
				"x": 2.9754962278,
				"y": 1.5463428638,
				"z": 5.482437468,
				"element": "H" 
			},
			{
				"x": 3.5073975785,
				"y": -0.5203397389,
				"z": 4.1825770432,
				"element": "H" 
			},
			{
				"x": -4.2361391353,
				"y": -0.180096575,
				"z": -3.6136088478,
				"element": "H" 
			}
		],
		 "valence_orbital": [ 
			{
				"type": "occ",
				"energy": -0.284,
				"method": "rhf"
			},
			{
				"type": "occ",
				"energy": -0.27801,
				"method": "rhf"
			},
			{
				"type": "occ",
				"energy": -0.25741,
				"method": "rhf"
			},
			{
				"type": "occ",
				"energy": -0.23404,
				"method": "rhf"
			},
			{
				"type": "occ",
				"energy": -0.21853,
				"method": "rhf"
			},
			{
				"type": "unocc",
				"energy": -0.09002,
				"method": "rhf"
			},
			{
				"type": "unocc",
				"energy": -0.05214,
				"method": "rhf"
			},
			{
				"type": "unocc",
				"energy": -0.03691,
				"method": "rhf"
			},
			{
				"type": "unocc",
				"energy": -0.02994,
				"method": "rhf"
			},
			{
				"type": "unocc",
				"energy": -0.012,
				"method": "rhf"
			}
		],
		"cosmo_sigma_profile": { 
			"-0.025": 0.0,
			"-0.024": 0.0,
			"-0.023": 0.0,
			"-0.022": 0.0,
			"-0.021": 0.0,
			"-0.02": 0.0,
			"-0.019": 0.0,
			"-0.018": 0.0,
			"-0.017": 0.0,
			"-0.016": 0.0,
			"-0.015": 0.226399787516,
			"-0.014": 0.878454663193,
			"-0.013": 0.944882968167,
			"-0.012": 1.55450726299,
			"-0.011": 1.52006001742,
			"-0.01": 2.92585423362,
			"-0.009": 4.72849018154,
			"-0.008": 6.25529777339,
			"-0.007": 7.78650903511,
			"-0.006": 11.7246738519,
			"-0.005": 16.2093805377,
			"-0.004": 18.7619439166,
			"-0.003": 26.6180514401,
			"-0.002": 27.9345052573,
			"-0.001": 37.841951982,
			"0.0": 38.736219838,
			"0.001": 26.2841749204,
			"0.002": 28.3517741074,
			"0.003": 32.9197789471,
			"0.004": 24.1779444949,
			"0.005": 13.1644689817,
			"0.006": 8.64553468429,
			"0.007": 5.00404430343,
			"0.008": 3.78067633944,
			"0.009": 3.70035601472,
			"0.01": 3.81140025348,
			"0.011": 4.10119372099,
			"0.012": 1.16930093831,
			"0.013": 0.690749766892,
			"0.014": 1.25087580955,
			"0.015": 0.57243412456,
			"0.016": 0.294740514359,
			"0.017": 0.0,
			"0.018": 0.0,
			"0.019": 0.0,
			"0.02": 0.0,
			"0.021": 0.0,
			"0.022": 0.0,
			"0.023": 0.0,
			"0.024": 0.0,
			"0.025": 0.0
		}
	}
}
