{
	 "smiles": "COC1=CC=C(C=C1)C1=CSN=N1", 
	 "Tm": 364.15, 
	 "num_atms": 21, 
	 "gaussian": { 
		 "optdone": 1, 
		 "sigma_profile": "yes", 
		 "theory": "DFT", 
		 "functional": "B3LYP", 
		 "basiset": "6-31G**", 
		 "properties": { 
			 "R2extent": 4164.1182, 
			 "electric_dipole_moment_norm": 3.15064468641, 
			 "electric_quadrupole_moment_norm": 16.5570607316, 
			 "total_energy": -930.640498559, 
			 "HOMO_LUMO_gap": 0.15575, 
			 "cosmo_polarized_energy": -10.32, 
			 "cosmo_cavitation_energy": 27.2, 
			 "cosmo_dispersion_energy": -20.94, 
			 "cosmo_repulsion_energy": 1.58, 
			 "cosmo_total_nonelectrostatic_energy": 7.84, 
			 "SMD_solvation_energy": 3.74 
		},
		"coords": [
			{
				"x": 3.5722975782,
				"y": 2.488253036,
				"z": 1.6420996128,
				"element": "C" 
			},
			{
				"x": 3.4031486181,
				"y": 1.6922917457,
				"z": 0.4783443749,
				"element": "O" 
			},
			{
				"x": 2.3613318646,
				"y": 0.8160261527,
				"z": 0.4408362407,
				"element": "C" 
			},
			{
				"x": 1.4306510625,
				"y": 0.6339730918,
				"z": 1.47087304,
				"element": "C" 
			},
			{
				"x": 0.4021958154,
				"y": -0.2956024411,
				"z": 1.3196941967,
				"element": "C" 
			},
			{
				"x": 0.2740372803,
				"y": -1.0604467385,
				"z": 0.1520457407,
				"element": "C" 
			},
			{
				"x": 1.2187967144,
				"y": -0.8638496939,
				"z": -0.872719608,
				"element": "C" 
			},
			{
				"x": 2.2453291383,
				"y": 0.0566981458,
				"z": -0.7347936579,
				"element": "C" 
			},
			{
				"x": -0.8210808574,
				"y": -2.0337063933,
				"z": 0.0207776351,
				"element": "C" 
			},
			{
				"x": -1.1085406329,
				"y": -2.8684176956,
				"z": -1.0391050345,
				"element": "C" 
			},
			{
				"x": -2.4882350052,
				"y": -3.80179265,
				"z": -0.6858426249,
				"element": "S" 
			},
			{
				"x": -2.645265403,
				"y": -3.0410371034,
				"z": 0.8892575307,
				"element": "N" 
			},
			{
				"x": -1.7230277678,
				"y": -2.1876136609,
				"z": 1.0594117199,
				"element": "N" 
			},
			{
				"x": 4.4521631,
				"y": 3.1064225584,
				"z": 1.4582976123,
				"element": "H" 
			},
			{
				"x": 3.7444292458,
				"y": 1.8706185768,
				"z": 2.5326842679,
				"element": "H" 
			},
			{
				"x": 2.7050353181,
				"y": 3.137390177,
				"z": 1.8174096061,
				"element": "H" 
			},
			{
				"x": 1.4947004488,
				"y": 1.2052783106,
				"z": 2.3891876238,
				"element": "H" 
			},
			{
				"x": -0.3170702148,
				"y": -0.4344668787,
				"z": 2.1190592276,
				"element": "H" 
			},
			{
				"x": 1.1544195917,
				"y": -1.4367045605,
				"z": -1.7931058542,
				"element": "H" 
			},
			{
				"x": 2.9740969924,
				"y": 0.2091179476,
				"z": -1.523907299,
				"element": "H" 
			},
			{
				"x": -0.5750128876,
				"y": -2.9583319264,
				"z": -1.9738043506,
				"element": "H" 
			}
		],
		 "valence_orbital": [ 
			{
				"type": "occ",
				"energy": -0.30827,
				"method": "rhf"
			},
			{
				"type": "occ",
				"energy": -0.27969,
				"method": "rhf"
			},
			{
				"type": "occ",
				"energy": -0.25963,
				"method": "rhf"
			},
			{
				"type": "occ",
				"energy": -0.25904,
				"method": "rhf"
			},
			{
				"type": "occ",
				"energy": -0.2134,
				"method": "rhf"
			},
			{
				"type": "unocc",
				"energy": -0.05765,
				"method": "rhf"
			},
			{
				"type": "unocc",
				"energy": -0.02067,
				"method": "rhf"
			},
			{
				"type": "unocc",
				"energy": -0.00967,
				"method": "rhf"
			},
			{
				"type": "unocc",
				"energy": -0.00617,
				"method": "rhf"
			},
			{
				"type": "unocc",
				"energy": 0.07056,
				"method": "rhf"
			}
		],
		"cosmo_sigma_profile": { 
			"-0.025": 0.0,
			"-0.024": 0.0,
			"-0.023": 0.0,
			"-0.022": 0.0,
			"-0.021": 0.0,
			"-0.02": 0.0,
			"-0.019": 0.0,
			"-0.018": 0.0,
			"-0.017": 0.0,
			"-0.016": 0.0,
			"-0.015": 0.0,
			"-0.014": 0.0,
			"-0.013": 0.0,
			"-0.012": 0.0,
			"-0.011": 1.77420669506,
			"-0.01": 2.95800857708,
			"-0.009": 2.14855983845,
			"-0.008": 2.47276096602,
			"-0.007": 3.1808817198,
			"-0.006": 11.6309819415,
			"-0.005": 16.5576189129,
			"-0.004": 15.885762746,
			"-0.003": 17.5704097311,
			"-0.002": 12.9273506412,
			"-0.001": 15.7745705502,
			"0.0": 20.0150599139,
			"0.001": 19.0360830626,
			"0.002": 14.4946200286,
			"0.003": 15.1189590314,
			"0.004": 14.898457092,
			"0.005": 10.1364194331,
			"0.006": 3.66984985603,
			"0.007": 3.0521282329,
			"0.008": 4.79381020111,
			"0.009": 4.54564624188,
			"0.01": 4.60390269292,
			"0.011": 2.31511726857,
			"0.012": 1.27551197851,
			"0.013": 0.417463107193,
			"0.014": 0.0,
			"0.015": 0.0,
			"0.016": 0.0,
			"0.017": 0.0,
			"0.018": 0.0,
			"0.019": 0.0,
			"0.02": 0.0,
			"0.021": 0.0,
			"0.022": 0.0,
			"0.023": 0.0,
			"0.024": 0.0,
			"0.025": 0.0
		}
	}
}
