{
	 "smiles": "C[C@]1(O)CC[C@H]2[C@@H]3CCC4=CC(=O)CC[C@]4(C)[C@@]3(F)[C@@H](O)C[C@]12C", 
	 "Tm": 543.15, 
	 "num_atms": 53, 
	 "gaussian": { 
		 "optdone": 1, 
		 "sigma_profile": "yes", 
		 "theory": "DFT", 
		 "functional": "B3LYP", 
		 "basiset": "6-31G**", 
		 "properties": { 
			 "R2extent": 8363.783, 
			 "electric_dipole_moment_norm": 4.86790563795, 
			 "electric_quadrupole_moment_norm": 43.243572106, 
			 "total_energy": -1105.11395668, 
			 "HOMO_LUMO_gap": 0.18639, 
			 "cosmo_polarized_energy": -18.28, 
			 "cosmo_cavitation_energy": 45.42, 
			 "cosmo_dispersion_energy": -31.98, 
			 "cosmo_repulsion_energy": 2.3, 
			 "cosmo_total_nonelectrostatic_energy": 15.74, 
			 "SMD_solvation_energy": 7.51 
		},
		"coords": [
			{
				"x": -2.8448435594,
				"y": -3.3381280484,
				"z": -0.6723615675,
				"element": "C" 
			},
			{
				"x": -1.3285292238,
				"y": -3.5215356886,
				"z": -0.8387325451,
				"element": "C" 
			},
			{
				"x": -1.111770223,
				"y": -4.5327632759,
				"z": -1.8294790879,
				"element": "O" 
			},
			{
				"x": -0.6713469229,
				"y": -4.0304491175,
				"z": 0.4822147885,
				"element": "C" 
			},
			{
				"x": 0.0529575745,
				"y": -2.823970187,
				"z": 1.1428277223,
				"element": "C" 
			},
			{
				"x": -0.3980460664,
				"y": -1.6163110283,
				"z": 0.3009157711,
				"element": "C" 
			},
			{
				"x": 0.3946314868,
				"y": -0.3025553864,
				"z": 0.3935204458,
				"element": "C" 
			},
			{
				"x": 0.4199355768,
				"y": 0.2073888946,
				"z": 1.8464164197,
				"element": "C" 
			},
			{
				"x": 1.0585300607,
				"y": 1.5953840096,
				"z": 1.9821488201,
				"element": "C" 
			},
			{
				"x": 0.4884470196,
				"y": 2.6026503811,
				"z": 1.0146497355,
				"element": "C" 
			},
			{
				"x": 0.1267356639,
				"y": 3.8320672212,
				"z": 1.4342005279,
				"element": "C" 
			},
			{
				"x": -0.2692974286,
				"y": 4.9318780712,
				"z": 0.5377283564,
				"element": "C" 
			},
			{
				"x": -0.6318566941,
				"y": 6.0187731922,
				"z": 0.967954389,
				"element": "O" 
			},
			{
				"x": -0.1211461215,
				"y": 4.6536009806,
				"z": -0.9491596997,
				"element": "C" 
			},
			{
				"x": -0.4028495771,
				"y": 3.185436384,
				"z": -1.2850196074,
				"element": "C" 
			},
			{
				"x": 0.4422084609,
				"y": 2.1797100639,
				"z": -0.4585790672,
				"element": "C" 
			},
			{
				"x": 1.9076316958,
				"y": 2.1685688293,
				"z": -0.9773782085,
				"element": "C" 
			},
			{
				"x": -0.2535390704,
				"y": 0.7639721155,
				"z": -0.5279123981,
				"element": "C" 
			},
			{
				"x": -1.5595590199,
				"y": 0.9694823176,
				"z": 0.0085933492,
				"element": "F" 
			},
			{
				"x": -0.5650863331,
				"y": 0.2583996717,
				"z": -1.9659887735,
				"element": "C" 
			},
			{
				"x": 0.6383315085,
				"y": 0.2763206903,
				"z": -2.7329862836,
				"element": "O" 
			},
			{
				"x": -1.256425044,
				"y": -1.1232495493,
				"z": -1.9768555787,
				"element": "C" 
			},
			{
				"x": -0.5364860724,
				"y": -2.1868167069,
				"z": -1.1296238207,
				"element": "C" 
			},
			{
				"x": 0.823513786,
				"y": -2.5703726571,
				"z": -1.7574799367,
				"element": "C" 
			},
			{
				"x": -3.1037452196,
				"y": -2.6067223647,
				"z": 0.0985571605,
				"element": "H" 
			},
			{
				"x": -3.2878071052,
				"y": -4.2978263815,
				"z": -0.3904831137,
				"element": "H" 
			},
			{
				"x": -3.3165166119,
				"y": -3.0139292194,
				"z": -1.6080248264,
				"element": "H" 
			},
			{
				"x": -1.6359310393,
				"y": -4.3029984503,
				"z": -2.608575233,
				"element": "H" 
			},
			{
				"x": -1.4281494719,
				"y": -4.4619648622,
				"z": 1.144165636,
				"element": "H" 
			},
			{
				"x": 0.0237838594,
				"y": -4.8354159117,
				"z": 0.2314725728,
				"element": "H" 
			},
			{
				"x": -0.2082630884,
				"y": -2.7142520504,
				"z": 2.1992128494,
				"element": "H" 
			},
			{
				"x": 1.14100368,
				"y": -2.9470379556,
				"z": 1.0965292942,
				"element": "H" 
			},
			{
				"x": -1.413360577,
				"y": -1.3596486512,
				"z": 0.6300760269,
				"element": "H" 
			},
			{
				"x": 1.4230153468,
				"y": -0.4672092673,
				"z": 0.0502129793,
				"element": "H" 
			},
			{
				"x": 0.9587529939,
				"y": -0.5073579468,
				"z": 2.4771342476,
				"element": "H" 
			},
			{
				"x": -0.6101895403,
				"y": 0.2502344201,
				"z": 2.2170037397,
				"element": "H" 
			},
			{
				"x": 2.1382491559,
				"y": 1.5093769187,
				"z": 1.7904767521,
				"element": "H" 
			},
			{
				"x": 0.9576415185,
				"y": 1.9660069086,
				"z": 3.0072366323,
				"element": "H" 
			},
			{
				"x": 0.1695702863,
				"y": 4.0883119624,
				"z": 2.4906477322,
				"element": "H" 
			},
			{
				"x": 0.9044914939,
				"y": 4.9298956468,
				"z": -1.2313605111,
				"element": "H" 
			},
			{
				"x": -0.7879341515,
				"y": 5.3253444472,
				"z": -1.4972970129,
				"element": "H" 
			},
			{
				"x": -1.4605611549,
				"y": 2.986597587,
				"z": -1.0884058383,
				"element": "H" 
			},
			{
				"x": -0.2283866376,
				"y": 3.0106256617,
				"z": -2.3517090593,
				"element": "H" 
			},
			{
				"x": 2.3680852878,
				"y": 3.1415830295,
				"z": -0.7819139185,
				"element": "H" 
			},
			{
				"x": 2.5206194383,
				"y": 1.4151121382,
				"z": -0.4774476875,
				"element": "H" 
			},
			{
				"x": 1.9405747316,
				"y": 1.9660842009,
				"z": -2.0461650472,
				"element": "H" 
			},
			{
				"x": -1.2774905393,
				"y": 0.9790568498,
				"z": -2.3902465342,
				"element": "H" 
			},
			{
				"x": 0.4671924698,
				"y": -0.1938730688,
				"z": -3.5587735001,
				"element": "H" 
			},
			{
				"x": -2.2704325178,
				"y": -0.9675361876,
				"z": -1.5967658203,
				"element": "H" 
			},
			{
				"x": -1.3637621849,
				"y": -1.4388970402,
				"z": -3.0267331979,
				"element": "H" 
			},
			{
				"x": 1.3284775923,
				"y": -3.3545329754,
				"z": -1.1888886773,
				"element": "H" 
			},
			{
				"x": 0.6685639703,
				"y": -2.9741254625,
				"z": -2.7623213547,
				"element": "H" 
			},
			{
				"x": 1.4887665379,
				"y": -1.7111831526,
				"z": -1.8386280417,
				"element": "H" 
			}
		],
		 "valence_orbital": [ 
			{
				"type": "occ",
				"energy": -0.29149,
				"method": "rhf"
			},
			{
				"type": "occ",
				"energy": -0.27702,
				"method": "rhf"
			},
			{
				"type": "occ",
				"energy": -0.25845,
				"method": "rhf"
			},
			{
				"type": "occ",
				"energy": -0.25082,
				"method": "rhf"
			},
			{
				"type": "occ",
				"energy": -0.22663,
				"method": "rhf"
			},
			{
				"type": "unocc",
				"energy": -0.04024,
				"method": "rhf"
			},
			{
				"type": "unocc",
				"energy": 0.051,
				"method": "rhf"
			},
			{
				"type": "unocc",
				"energy": 0.05775,
				"method": "rhf"
			},
			{
				"type": "unocc",
				"energy": 0.06443,
				"method": "rhf"
			},
			{
				"type": "unocc",
				"energy": 0.08639,
				"method": "rhf"
			}
		],
		"cosmo_sigma_profile": { 
			"-0.025": 0.0,
			"-0.024": 0.0,
			"-0.023": 0.0,
			"-0.022": 0.0,
			"-0.021": 0.0,
			"-0.02": 0.0,
			"-0.019": 0.0,
			"-0.018": 0.0,
			"-0.017": 0.0,
			"-0.016": 0.0525456908364,
			"-0.015": 0.742930760703,
			"-0.014": 1.49400318746,
			"-0.013": 1.4351447895,
			"-0.012": 1.96990830097,
			"-0.011": 2.29827593114,
			"-0.01": 1.79758812131,
			"-0.009": 1.26266964693,
			"-0.008": 2.63165111499,
			"-0.007": 2.79599690761,
			"-0.006": 4.18267572357,
			"-0.005": 11.8620407503,
			"-0.004": 21.3267647433,
			"-0.003": 35.7778383414,
			"-0.002": 54.9605487854,
			"-0.001": 51.3385877211,
			"0.0": 35.6568428996,
			"0.001": 25.7843957346,
			"0.002": 17.9713271887,
			"0.003": 12.6373794902,
			"0.004": 8.00975100733,
			"0.005": 7.85521835214,
			"0.006": 9.42812675153,
			"0.007": 6.22253270287,
			"0.008": 3.23833578212,
			"0.009": 3.692030842,
			"0.01": 3.36163013458,
			"0.011": 2.72657280989,
			"0.012": 4.67573988293,
			"0.013": 5.8619555767,
			"0.014": 4.86574815404,
			"0.015": 1.16206735813,
			"0.016": 0.0,
			"0.017": 0.0,
			"0.018": 0.0,
			"0.019": 0.0,
			"0.02": 0.0,
			"0.021": 0.0,
			"0.022": 0.0,
			"0.023": 0.0,
			"0.024": 0.0,
			"0.025": 0.0
		}
	}
}
