{
	 "smiles": "CC(C)(C(O)=O)S(=O)(=O)C1=CC=C(Br)C=C1", 
	 "Tm": 436.15, 
	 "num_atms": 27, 
	 "gaussian": { 
		 "optdone": 1, 
		 "sigma_profile": "yes", 
		 "theory": "DFT", 
		 "functional": "B3LYP", 
		 "basiset": "6-31G**", 
		 "properties": { 
			 "R2extent": 9243.2983, 
			 "electric_dipole_moment_norm": 3.62072138392, 
			 "electric_quadrupole_moment_norm": 11.5498888622, 
			 "total_energy": -3658.12956004, 
			 "HOMO_LUMO_gap": 0.20809, 
			 "cosmo_polarized_energy": -18.84, 
			 "cosmo_cavitation_energy": 34.11, 
			 "cosmo_dispersion_energy": -24.5, 
			 "cosmo_repulsion_energy": 1.86, 
			 "cosmo_total_nonelectrostatic_energy": 11.46, 
			 "SMD_solvation_energy": 5.19 
		},
		"coords": [
			{
				"x": 0.5217411286,
				"y": 2.5163367794,
				"z": -0.8697036875,
				"element": "C" 
			},
			{
				"x": 0.5876090291,
				"y": 1.1747282185,
				"z": -0.12652798,
				"element": "C" 
			},
			{
				"x": -0.5831732014,
				"y": 0.9716645137,
				"z": 0.8373069771,
				"element": "C" 
			},
			{
				"x": 1.9065480876,
				"y": 1.0420706499,
				"z": 0.6534024648,
				"element": "C" 
			},
			{
				"x": 2.983901901,
				"y": 1.2346351261,
				"z": -0.1314443471,
				"element": "O" 
			},
			{
				"x": 1.9771104996,
				"y": 0.8249964978,
				"z": 1.8404843734,
				"element": "O" 
			},
			{
				"x": 0.6203757679,
				"y": -0.2277268156,
				"z": -1.3931286315,
				"element": "S" 
			},
			{
				"x": 1.4189303714,
				"y": 0.2053664968,
				"z": -2.5501468775,
				"element": "O" 
			},
			{
				"x": 0.9480723446,
				"y": -1.4514688363,
				"z": -0.6413747584,
				"element": "O" 
			},
			{
				"x": -1.0797931162,
				"y": -0.3928206297,
				"z": -1.9748966837,
				"element": "C" 
			},
			{
				"x": -1.4996118029,
				"y": 0.3551052427,
				"z": -3.0774280602,
				"element": "C" 
			},
			{
				"x": -2.8009447526,
				"y": 0.2018332098,
				"z": -3.5539549699,
				"element": "C" 
			},
			{
				"x": -3.6538777626,
				"y": -0.7058266309,
				"z": -2.9241331896,
				"element": "C" 
			},
			{
				"x": -5.4332443845,
				"y": -0.9159659718,
				"z": -3.5739997534,
				"element": "Br" 
			},
			{
				"x": -3.2300000994,
				"y": -1.4716120593,
				"z": -1.8365522919,
				"element": "C" 
			},
			{
				"x": -1.9297770038,
				"y": -1.3141731025,
				"z": -1.3594080913,
				"element": "C" 
			},
			{
				"x": -0.4275801292,
				"y": 2.609421554,
				"z": -1.4053187283,
				"element": "H" 
			},
			{
				"x": 1.3444281607,
				"y": 2.6159495178,
				"z": -1.5778404171,
				"element": "H" 
			},
			{
				"x": 0.5748766504,
				"y": 3.3345542715,
				"z": -0.144077331,
				"element": "H" 
			},
			{
				"x": -0.5391945948,
				"y": -0.0104909705,
				"z": 1.3111849906,
				"element": "H" 
			},
			{
				"x": -1.5392707047,
				"y": 1.0905600149,
				"z": 0.3238082827,
				"element": "H" 
			},
			{
				"x": -0.5184664317,
				"y": 1.720864433,
				"z": 1.6302430262,
				"element": "H" 
			},
			{
				"x": 3.7650816286,
				"y": 1.1028269951,
				"z": 0.4321634191,
				"element": "H" 
			},
			{
				"x": -0.8061891502,
				"y": 1.0261982027,
				"z": -3.5722771143,
				"element": "H" 
			},
			{
				"x": -3.1453778204,
				"y": 0.7706223069,
				"z": -4.4097725256,
				"element": "H" 
			},
			{
				"x": -3.9038671712,
				"y": -2.1843362698,
				"z": -1.3755304262,
				"element": "H" 
			},
			{
				"x": -1.5669074436,
				"y": -1.9134127442,
				"z": -0.5315776691,
				"element": "H" 
			}
		],
		 "valence_orbital": [ 
			{
				"type": "occ",
				"energy": -0.30248,
				"method": "rhf"
			},
			{
				"type": "occ",
				"energy": -0.29536,
				"method": "rhf"
			},
			{
				"type": "occ",
				"energy": -0.28804,
				"method": "rhf"
			},
			{
				"type": "occ",
				"energy": -0.28172,
				"method": "rhf"
			},
			{
				"type": "occ",
				"energy": -0.26695,
				"method": "rhf"
			},
			{
				"type": "unocc",
				"energy": -0.05886,
				"method": "rhf"
			},
			{
				"type": "unocc",
				"energy": -0.03921,
				"method": "rhf"
			},
			{
				"type": "unocc",
				"energy": -0.01662,
				"method": "rhf"
			},
			{
				"type": "unocc",
				"energy": -0.00951,
				"method": "rhf"
			},
			{
				"type": "unocc",
				"energy": 0.05585,
				"method": "rhf"
			}
		],
		"cosmo_sigma_profile": { 
			"-0.025": 0.0,
			"-0.024": 0.0,
			"-0.023": 0.0,
			"-0.022": 0.0,
			"-0.021": 0.0,
			"-0.02": 0.0420732010551,
			"-0.019": 0.606202002215,
			"-0.018": 1.21796725334,
			"-0.017": 0.955577592105,
			"-0.016": 0.611156752345,
			"-0.015": 0.869027375101,
			"-0.014": 0.876322683788,
			"-0.013": 0.486653590197,
			"-0.012": 0.819751455368,
			"-0.011": 0.708408053418,
			"-0.01": 0.349737126813,
			"-0.009": 1.1940468493,
			"-0.008": 7.45866036952,
			"-0.007": 11.4278231608,
			"-0.006": 12.4113674861,
			"-0.005": 17.7750463374,
			"-0.004": 18.3232670443,
			"-0.003": 17.5148318315,
			"-0.002": 21.7960746735,
			"-0.001": 20.4609187044,
			"0.0": 21.5283340618,
			"0.001": 23.7422360412,
			"0.002": 11.6757423279,
			"0.003": 13.5450445885,
			"0.004": 12.5384614586,
			"0.005": 6.17882242773,
			"0.006": 5.98664194663,
			"0.007": 5.50967646876,
			"0.008": 4.8198579024,
			"0.009": 6.49238939608,
			"0.01": 11.7133173429,
			"0.011": 10.842872329,
			"0.012": 3.4512017332,
			"0.013": 0.0556378587429,
			"0.014": 0.0,
			"0.015": 0.0,
			"0.016": 0.0,
			"0.017": 0.0,
			"0.018": 0.0,
			"0.019": 0.0,
			"0.02": 0.0,
			"0.021": 0.0,
			"0.022": 0.0,
			"0.023": 0.0,
			"0.024": 0.0,
			"0.025": 0.0
		}
	}
}
