{
	 "smiles": "CNCC1=C(N=C(S1)C1=CC=CC=C1)C1=CC=CC=C1", 
	 "Tm": 360.65, 
	 "num_atms": 36, 
	 "gaussian": { 
		 "optdone": 1, 
		 "sigma_profile": "yes", 
		 "theory": "DFT", 
		 "functional": "B3LYP", 
		 "basiset": "6-31G**", 
		 "properties": { 
			 "R2extent": 7854.9035, 
			 "electric_dipole_moment_norm": 1.6197574695, 
			 "electric_quadrupole_moment_norm": 9.94692862496, 
			 "total_energy": -1165.14344189, 
			 "HOMO_LUMO_gap": 0.15862, 
			 "cosmo_polarized_energy": -10.42, 
			 "cosmo_cavitation_energy": 40.92, 
			 "cosmo_dispersion_energy": -29.83, 
			 "cosmo_repulsion_energy": 2.26, 
			 "cosmo_total_nonelectrostatic_energy": 13.34, 
			 "SMD_solvation_energy": 3.99 
		},
		"coords": [
			{
				"x": -3.11637895,
				"y": -3.0750556923,
				"z": 1.8056446918,
				"element": "C" 
			},
			{
				"x": -2.6213450585,
				"y": -1.9288377322,
				"z": 1.0514174787,
				"element": "N" 
			},
			{
				"x": -1.1626319015,
				"y": -1.8465900617,
				"z": 1.0158659371,
				"element": "C" 
			},
			{
				"x": -0.707240058,
				"y": -0.7077509815,
				"z": 0.1484822674,
				"element": "C" 
			},
			{
				"x": 0.3993860655,
				"y": 0.1133652781,
				"z": 0.2403287078,
				"element": "C" 
			},
			{
				"x": 0.4661547292,
				"y": 1.110590143,
				"z": -0.7119328536,
				"element": "N" 
			},
			{
				"x": -0.537329981,
				"y": 1.0716649539,
				"z": -1.5466959868,
				"element": "C" 
			},
			{
				"x": -1.6886417639,
				"y": -0.2190433236,
				"z": -1.2086597679,
				"element": "S" 
			},
			{
				"x": -0.7058642281,
				"y": 2.0132735877,
				"z": -2.6636553614,
				"element": "C" 
			},
			{
				"x": -1.8185522651,
				"y": 1.9648260917,
				"z": -3.5191451061,
				"element": "C" 
			},
			{
				"x": -1.9462272835,
				"y": 2.8739636586,
				"z": -4.5673149634,
				"element": "C" 
			},
			{
				"x": -0.9658991057,
				"y": 3.8455493547,
				"z": -4.7784914099,
				"element": "C" 
			},
			{
				"x": 0.145223571,
				"y": 3.9006580932,
				"z": -3.9323931876,
				"element": "C" 
			},
			{
				"x": 0.2773630935,
				"y": 2.9944066429,
				"z": -2.8844490526,
				"element": "C" 
			},
			{
				"x": 1.4771066594,
				"y": 0.0468726402,
				"z": 1.2514934241,
				"element": "C" 
			},
			{
				"x": 1.9256279624,
				"y": -1.168827676,
				"z": 1.7940238793,
				"element": "C" 
			},
			{
				"x": 2.9395453469,
				"y": -1.1912772356,
				"z": 2.7527544563,
				"element": "C" 
			},
			{
				"x": 3.5304543107,
				"y": -0.001698775,
				"z": 3.1791704226,
				"element": "C" 
			},
			{
				"x": 3.107572299,
				"y": 1.2121432368,
				"z": 2.6304201816,
				"element": "C" 
			},
			{
				"x": 2.0956065957,
				"y": 1.236924146,
				"z": 1.6743456062,
				"element": "C" 
			},
			{
				"x": -2.821481866,
				"y": -4.0003264422,
				"z": 1.2979746837,
				"element": "H" 
			},
			{
				"x": -2.7457165658,
				"y": -3.1316108157,
				"z": 2.8447833255,
				"element": "H" 
			},
			{
				"x": -4.2092617885,
				"y": -3.0457342846,
				"z": 1.8340579548,
				"element": "H" 
			},
			{
				"x": -2.991900236,
				"y": -1.0688477762,
				"z": 1.4485827131,
				"element": "H" 
			},
			{
				"x": -0.7970736388,
				"y": -2.8022508316,
				"z": 0.6105823583,
				"element": "H" 
			},
			{
				"x": -0.7006389398,
				"y": -1.7398413127,
				"z": 2.0132522272,
				"element": "H" 
			},
			{
				"x": -2.5906782378,
				"y": 1.21556756,
				"z": -3.367266642,
				"element": "H" 
			},
			{
				"x": -2.8131533214,
				"y": 2.8229100552,
				"z": -5.2196105503,
				"element": "H" 
			},
			{
				"x": -1.0663573789,
				"y": 4.5533369548,
				"z": -5.596182021,
				"element": "H" 
			},
			{
				"x": 0.9128430298,
				"y": 4.6527270495,
				"z": -4.0913686701,
				"element": "H" 
			},
			{
				"x": 1.1358829658,
				"y": 3.0247474416,
				"z": -2.2229223799,
				"element": "H" 
			},
			{
				"x": 1.5091564381,
				"y": -2.1059300245,
				"z": 1.4397913715,
				"element": "H" 
			},
			{
				"x": 3.276363356,
				"y": -2.1424419146,
				"z": 3.1554237976,
				"element": "H" 
			},
			{
				"x": 4.3206227021,
				"y": -0.0198957803,
				"z": 3.924280417,
				"element": "H" 
			},
			{
				"x": 3.5688070875,
				"y": 2.1428363029,
				"z": 2.9490342118,
				"element": "H" 
			},
			{
				"x": 1.7698563561,
				"y": 2.1753974697,
				"z": 1.2389778393,
				"element": "H" 
			}
		],
		 "valence_orbital": [ 
			{
				"type": "occ",
				"energy": -0.25192,
				"method": "rhf"
			},
			{
				"type": "occ",
				"energy": -0.24915,
				"method": "rhf"
			},
			{
				"type": "occ",
				"energy": -0.24296,
				"method": "rhf"
			},
			{
				"type": "occ",
				"energy": -0.22953,
				"method": "rhf"
			},
			{
				"type": "occ",
				"energy": -0.20633,
				"method": "rhf"
			},
			{
				"type": "unocc",
				"energy": -0.04771,
				"method": "rhf"
			},
			{
				"type": "unocc",
				"energy": -0.01839,
				"method": "rhf"
			},
			{
				"type": "unocc",
				"energy": -0.00051,
				"method": "rhf"
			},
			{
				"type": "unocc",
				"energy": 0.00108,
				"method": "rhf"
			},
			{
				"type": "unocc",
				"energy": 0.03116,
				"method": "rhf"
			}
		],
		"cosmo_sigma_profile": { 
			"-0.025": 0.0,
			"-0.024": 0.0,
			"-0.023": 0.0,
			"-0.022": 0.0,
			"-0.021": 0.0,
			"-0.02": 0.0,
			"-0.019": 0.0,
			"-0.018": 0.0,
			"-0.017": 0.0,
			"-0.016": 0.0,
			"-0.015": 0.0,
			"-0.014": 0.0,
			"-0.013": 0.0,
			"-0.012": 0.0,
			"-0.011": 0.198423007147,
			"-0.01": 1.22075250942,
			"-0.009": 1.33377692266,
			"-0.008": 0.889627078355,
			"-0.007": 2.2096524227,
			"-0.006": 14.5513074488,
			"-0.005": 22.975993006,
			"-0.004": 31.2971978633,
			"-0.003": 29.8105809189,
			"-0.002": 27.7769013857,
			"-0.001": 25.5580637605,
			"0.0": 21.6908123381,
			"0.001": 24.0130895699,
			"0.002": 27.4931131932,
			"0.003": 27.7526473447,
			"0.004": 25.543054566,
			"0.005": 22.9919676522,
			"0.006": 8.6619855468,
			"0.007": 3.52414212383,
			"0.008": 2.60136661141,
			"0.009": 1.58194739548,
			"0.01": 1.72396962269,
			"0.011": 1.25572614927,
			"0.012": 0.803128084478,
			"0.013": 0.620509060102,
			"0.014": 0.391692560745,
			"0.015": 0.209190980552,
			"0.016": 0.0,
			"0.017": 0.0,
			"0.018": 0.0,
			"0.019": 0.0,
			"0.02": 0.0,
			"0.021": 0.0,
			"0.022": 0.0,
			"0.023": 0.0,
			"0.024": 0.0,
			"0.025": 0.0
		}
	}
}
