{
	 "smiles": "NC1CN(C(=O)C1)C1=CC=C(OC2=CC=CC=C2)C=C1", 
	 "Tm": 386.15, 
	 "num_atms": 36, 
	 "gaussian": { 
		 "optdone": 1, 
		 "sigma_profile": "yes", 
		 "theory": "DFT", 
		 "functional": "B3LYP", 
		 "basiset": "6-31G**", 
		 "properties": { 
			 "R2extent": 8830.7108, 
			 "electric_dipole_moment_norm": 4.46674831841, 
			 "electric_quadrupole_moment_norm": 11.9958348205, 
			 "total_energy": -879.299895646, 
			 "HOMO_LUMO_gap": 0.19168, 
			 "cosmo_polarized_energy": -16.62, 
			 "cosmo_cavitation_energy": 39.22, 
			 "cosmo_dispersion_energy": -28.41, 
			 "cosmo_repulsion_energy": 2.18, 
			 "cosmo_total_nonelectrostatic_energy": 12.98, 
			 "SMD_solvation_energy": 5.71 
		},
		"coords": [
			{
				"x": -3.0818266801,
				"y": -3.1960616126,
				"z": -2.4907414531,
				"element": "N" 
			},
			{
				"x": -3.4736756625,
				"y": -3.0974518935,
				"z": -1.0851884465,
				"element": "C" 
			},
			{
				"x": -2.4101718841,
				"y": -2.4793986091,
				"z": -0.1387332698,
				"element": "C" 
			},
			{
				"x": -2.6910929986,
				"y": -1.0405409108,
				"z": -0.1695550151,
				"element": "N" 
			},
			{
				"x": -3.9857083257,
				"y": -0.7758106972,
				"z": -0.6080438607,
				"element": "C" 
			},
			{
				"x": -4.5133478711,
				"y": 0.3198494287,
				"z": -0.701640412,
				"element": "O" 
			},
			{
				"x": -4.6403124704,
				"y": -2.1144230332,
				"z": -0.9365232025,
				"element": "C" 
			},
			{
				"x": -1.7736520653,
				"y": -0.0929395019,
				"z": 0.3489745951,
				"element": "C" 
			},
			{
				"x": -1.9511040786,
				"y": 1.2908423902,
				"z": 0.1622683851,
				"element": "C" 
			},
			{
				"x": -1.0171698437,
				"y": 2.1901325047,
				"z": 0.6672552751,
				"element": "C" 
			},
			{
				"x": 0.1019059879,
				"y": 1.7374514863,
				"z": 1.3671161195,
				"element": "C" 
			},
			{
				"x": 0.9405521658,
				"y": 2.6922955836,
				"z": 1.9115173127,
				"element": "O" 
			},
			{
				"x": 2.3115735392,
				"y": 2.540880109,
				"z": 1.8588988068,
				"element": "C" 
			},
			{
				"x": 3.0372675093,
				"y": 3.0915390709,
				"z": 2.9186603436,
				"element": "C" 
			},
			{
				"x": 4.4302884575,
				"y": 3.0406019389,
				"z": 2.899195955,
				"element": "C" 
			},
			{
				"x": 5.1021404301,
				"y": 2.4380526246,
				"z": 1.8328672128,
				"element": "C" 
			},
			{
				"x": 4.366595168,
				"y": 1.892844132,
				"z": 0.7787482601,
				"element": "C" 
			},
			{
				"x": 2.9717920326,
				"y": 1.9429344191,
				"z": 0.780614075,
				"element": "C" 
			},
			{
				"x": 0.2841235687,
				"y": 0.3693133735,
				"z": 1.5700647101,
				"element": "C" 
			},
			{
				"x": -0.645615861,
				"y": -0.5357005422,
				"z": 1.0609851233,
				"element": "C" 
			},
			{
				"x": -2.260996544,
				"y": -3.7889405909,
				"z": -2.5895484698,
				"element": "H" 
			},
			{
				"x": -2.823346596,
				"y": -2.2786488782,
				"z": -2.8497640719,
				"element": "H" 
			},
			{
				"x": -3.7351856753,
				"y": -4.1038299924,
				"z": -0.744799922,
				"element": "H" 
			},
			{
				"x": -2.4985468913,
				"y": -2.8732836008,
				"z": 0.8846144058,
				"element": "H" 
			},
			{
				"x": -1.3936958547,
				"y": -2.6818861759,
				"z": -0.4921491246,
				"element": "H" 
			},
			{
				"x": -5.2968101755,
				"y": -2.3853172874,
				"z": -0.1010137517,
				"element": "H" 
			},
			{
				"x": -5.2541826551,
				"y": -2.0419167739,
				"z": -1.8362420581,
				"element": "H" 
			},
			{
				"x": -2.8220603245,
				"y": 1.6472411366,
				"z": -0.3679817318,
				"element": "H" 
			},
			{
				"x": -1.1501292069,
				"y": 3.2576791003,
				"z": 0.5255833771,
				"element": "H" 
			},
			{
				"x": 2.4963843749,
				"y": 3.55383737,
				"z": 3.7378095236,
				"element": "H" 
			},
			{
				"x": 4.9912495937,
				"y": 3.4701753901,
				"z": 3.724295447,
				"element": "H" 
			},
			{
				"x": 6.1869214959,
				"y": 2.3961467806,
				"z": 1.8223334556,
				"element": "H" 
			},
			{
				"x": 4.8791940103,
				"y": 1.4299421439,
				"z": -0.0599003528,
				"element": "H" 
			},
			{
				"x": 2.4010947307,
				"y": 1.5294275666,
				"z": -0.0435811624,
				"element": "H" 
			},
			{
				"x": 1.1427563799,
				"y": 0.010485311,
				"z": 2.1272199852,
				"element": "H" 
			},
			{
				"x": -0.48850778,
				"y": -1.5920217605,
				"z": 1.2445839364,
				"element": "H" 
			}
		],
		 "valence_orbital": [ 
			{
				"type": "occ",
				"energy": -0.254,
				"method": "rhf"
			},
			{
				"type": "occ",
				"energy": -0.25148,
				"method": "rhf"
			},
			{
				"type": "occ",
				"energy": -0.24748,
				"method": "rhf"
			},
			{
				"type": "occ",
				"energy": -0.23557,
				"method": "rhf"
			},
			{
				"type": "occ",
				"energy": -0.20517,
				"method": "rhf"
			},
			{
				"type": "unocc",
				"energy": -0.01349,
				"method": "rhf"
			},
			{
				"type": "unocc",
				"energy": -0.01074,
				"method": "rhf"
			},
			{
				"type": "unocc",
				"energy": 0.00163,
				"method": "rhf"
			},
			{
				"type": "unocc",
				"energy": 0.00808,
				"method": "rhf"
			},
			{
				"type": "unocc",
				"energy": 0.04144,
				"method": "rhf"
			}
		],
		"cosmo_sigma_profile": { 
			"-0.025": 0.0,
			"-0.024": 0.0,
			"-0.023": 0.0,
			"-0.022": 0.0,
			"-0.021": 0.0,
			"-0.02": 0.0,
			"-0.019": 0.0,
			"-0.018": 0.0,
			"-0.017": 0.0,
			"-0.016": 0.0,
			"-0.015": 0.0,
			"-0.014": 0.0,
			"-0.013": 0.0,
			"-0.012": 0.0,
			"-0.011": 0.0529794294072,
			"-0.01": 1.92074181702,
			"-0.009": 3.05332380647,
			"-0.008": 3.31012324098,
			"-0.007": 7.04329174054,
			"-0.006": 22.7013768945,
			"-0.005": 32.9783810791,
			"-0.004": 29.6987772075,
			"-0.003": 22.6867874446,
			"-0.002": 18.415684311,
			"-0.001": 16.8136786477,
			"0.0": 16.3561758306,
			"0.001": 17.5314088066,
			"0.002": 18.8097564692,
			"0.003": 21.8429306006,
			"0.004": 24.5881211068,
			"0.005": 17.7162491839,
			"0.006": 8.0177057743,
			"0.007": 4.68382162735,
			"0.008": 3.37963451523,
			"0.009": 2.55085132571,
			"0.01": 2.20667755824,
			"0.011": 2.71695635867,
			"0.012": 3.53039971344,
			"0.013": 3.98090537907,
			"0.014": 2.47177384842,
			"0.015": 0.615921490189,
			"0.016": 0.4966962008,
			"0.017": 0.209148701577,
			"0.018": 0.890965826676,
			"0.019": 0.35710516782,
			"0.02": 0.0,
			"0.021": 0.0,
			"0.022": 0.0,
			"0.023": 0.0,
			"0.024": 0.0,
			"0.025": 0.0
		}
	}
}
