{
	 "smiles": "OC(=O)C1=C2NC(=O)C(=O)C2=CC=C1", 
	 "Tm": 545.15, 
	 "num_atms": 19, 
	 "gaussian": { 
		 "optdone": 1, 
		 "sigma_profile": "yes", 
		 "theory": "DFT", 
		 "functional": "B3LYP", 
		 "basiset": "6-31G**", 
		 "properties": { 
			 "R2extent": 3106.4386, 
			 "electric_dipole_moment_norm": 6.84799861419, 
			 "electric_quadrupole_moment_norm": 18.6665286127, 
			 "total_energy": -701.629049337, 
			 "HOMO_LUMO_gap": 0.14322, 
			 "cosmo_polarized_energy": -21.29, 
			 "cosmo_cavitation_energy": 24.79, 
			 "cosmo_dispersion_energy": -18.51, 
			 "cosmo_repulsion_energy": 1.43, 
			 "cosmo_total_nonelectrostatic_energy": 7.71, 
			 "SMD_solvation_energy": 6.61 
		},
		"coords": [
			{
				"x": 2.2268902541,
				"y": -2.4582089649,
				"z": 0.5853464773,
				"element": "O" 
			},
			{
				"x": 1.6107476463,
				"y": -1.4530185196,
				"z": -0.0772761628,
				"element": "C" 
			},
			{
				"x": 2.2848501819,
				"y": -0.6339117898,
				"z": -0.672353371,
				"element": "O" 
			},
			{
				"x": 0.1231125943,
				"y": -1.4005652426,
				"z": -0.0497856774,
				"element": "C" 
			},
			{
				"x": -0.5397838762,
				"y": -0.4972019571,
				"z": -0.8961736939,
				"element": "C" 
			},
			{
				"x": 0.0162217712,
				"y": 0.4031955506,
				"z": -1.7925391902,
				"element": "N" 
			},
			{
				"x": -0.9546616555,
				"y": 1.1336774392,
				"z": -2.4688469029,
				"element": "C" 
			},
			{
				"x": -0.779911811,
				"y": 1.9960786039,
				"z": -3.2961145199,
				"element": "O" 
			},
			{
				"x": -2.3219322885,
				"y": 0.5969844202,
				"z": -1.9153405332,
				"element": "C" 
			},
			{
				"x": -3.4138057607,
				"y": 0.9834232515,
				"z": -2.2665361904,
				"element": "O" 
			},
			{
				"x": -1.9493449694,
				"y": -0.4278133736,
				"z": -0.920780929,
				"element": "C" 
			},
			{
				"x": -2.7251038019,
				"y": -1.2296441116,
				"z": -0.0966010562,
				"element": "C" 
			},
			{
				"x": -2.0820887518,
				"y": -2.1175558225,
				"z": 0.7754651666,
				"element": "C" 
			},
			{
				"x": -0.6901966988,
				"y": -2.1905603232,
				"z": 0.7900955014,
				"element": "C" 
			},
			{
				"x": 1.5895833537,
				"y": -3.1150478762,
				"z": 0.8964517268,
				"element": "H" 
			},
			{
				"x": 1.0206099964,
				"y": 0.5198310847,
				"z": -1.8668880243,
				"element": "H" 
			},
			{
				"x": -3.8075928718,
				"y": -1.1530207147,
				"z": -0.1321593329,
				"element": "H" 
			},
			{
				"x": -2.6606012818,
				"y": -2.7448777463,
				"z": 1.4446794782,
				"element": "H" 
			},
			{
				"x": -0.2282920306,
				"y": -2.8701639083,
				"z": 1.5029572337,
				"element": "H" 
			}
		],
		 "valence_orbital": [ 
			{
				"type": "occ",
				"energy": -0.32031,
				"method": "rhf"
			},
			{
				"type": "occ",
				"energy": -0.30385,
				"method": "rhf"
			},
			{
				"type": "occ",
				"energy": -0.29786,
				"method": "rhf"
			},
			{
				"type": "occ",
				"energy": -0.25564,
				"method": "rhf"
			},
			{
				"type": "occ",
				"energy": -0.25466,
				"method": "rhf"
			},
			{
				"type": "unocc",
				"energy": -0.11144,
				"method": "rhf"
			},
			{
				"type": "unocc",
				"energy": -0.0736,
				"method": "rhf"
			},
			{
				"type": "unocc",
				"energy": -0.01343,
				"method": "rhf"
			},
			{
				"type": "unocc",
				"energy": 0.02634,
				"method": "rhf"
			},
			{
				"type": "unocc",
				"energy": 0.03301,
				"method": "rhf"
			}
		],
		"cosmo_sigma_profile": { 
			"-0.025": 0.0,
			"-0.024": 0.0,
			"-0.023": 0.0,
			"-0.022": 0.0,
			"-0.021": 0.0,
			"-0.02": 0.221265781711,
			"-0.019": 1.34117638098,
			"-0.018": 0.579468128617,
			"-0.017": 1.40278092633,
			"-0.016": 1.27275117284,
			"-0.015": 1.0387465234,
			"-0.014": 0.753420277196,
			"-0.013": 1.56295417861,
			"-0.012": 1.98169167574,
			"-0.011": 1.78795555166,
			"-0.01": 2.17321285875,
			"-0.009": 2.74645724052,
			"-0.008": 6.5739931939,
			"-0.007": 10.2869521679,
			"-0.006": 9.05739640931,
			"-0.005": 9.58200998,
			"-0.004": 11.037472853,
			"-0.003": 12.5024963788,
			"-0.002": 14.2056136158,
			"-0.001": 14.5452373736,
			"0.0": 12.2966843496,
			"0.001": 10.2175340309,
			"0.002": 7.27239611963,
			"0.003": 3.88376534645,
			"0.004": 4.60731112584,
			"0.005": 4.06866110717,
			"0.006": 5.11699311053,
			"0.007": 5.53888654197,
			"0.008": 6.47231382384,
			"0.009": 10.1853403698,
			"0.01": 13.7466997901,
			"0.011": 8.79747460234,
			"0.012": 3.15536862166,
			"0.013": 0.577884722467,
			"0.014": 0.0,
			"0.015": 0.0,
			"0.016": 0.0,
			"0.017": 0.0,
			"0.018": 0.0,
			"0.019": 0.0,
			"0.02": 0.0,
			"0.021": 0.0,
			"0.022": 0.0,
			"0.023": 0.0,
			"0.024": 0.0,
			"0.025": 0.0
		}
	}
}
