{
	 "smiles": "O=C(NC1CC1)N1C=CN=C1", 
	 "Tm": 363.15, 
	 "num_atms": 20, 
	 "gaussian": { 
		 "optdone": 1, 
		 "sigma_profile": "yes", 
		 "theory": "DFT", 
		 "functional": "B3LYP", 
		 "basiset": "6-31G**", 
		 "properties": { 
			 "R2extent": 1928.7009, 
			 "electric_dipole_moment_norm": 5.50549260739, 
			 "electric_quadrupole_moment_norm": 6.0629932723, 
			 "total_energy": -511.612248624, 
			 "HOMO_LUMO_gap": 0.21684, 
			 "cosmo_polarized_energy": -14.49, 
			 "cosmo_cavitation_energy": 23.86, 
			 "cosmo_dispersion_energy": -17.21, 
			 "cosmo_repulsion_energy": 1.37, 
			 "cosmo_total_nonelectrostatic_energy": 8.02, 
			 "SMD_solvation_energy": 3.4 
		},
		"coords": [
			{
				"x": -0.011468088,
				"y": 0.3780686603,
				"z": -3.1440689462,
				"element": "O" 
			},
			{
				"x": 0.0979929897,
				"y": 0.3460187607,
				"z": -1.9302813279,
				"element": "C" 
			},
			{
				"x": 1.1455731071,
				"y": 0.9354984274,
				"z": -1.2721322731,
				"element": "N" 
			},
			{
				"x": 1.6580405482,
				"y": 0.7216895463,
				"z": 0.0546656885,
				"element": "C" 
			},
			{
				"x": 1.9782271353,
				"y": -0.675383616,
				"z": 0.5270449479,
				"element": "C" 
			},
			{
				"x": 3.09501145,
				"y": 0.2746394194,
				"z": 0.1868836329,
				"element": "C" 
			},
			{
				"x": -0.8859015061,
				"y": -0.3150617758,
				"z": -1.1421130058,
				"element": "N" 
			},
			{
				"x": -1.2761718389,
				"y": -0.1574137557,
				"z": 0.1885780135,
				"element": "C" 
			},
			{
				"x": -2.3464921944,
				"y": -0.9886121492,
				"z": 0.3538679797,
				"element": "C" 
			},
			{
				"x": -2.6406057715,
				"y": -1.6615285931,
				"z": -0.8204364948,
				"element": "N" 
			},
			{
				"x": -1.7679330999,
				"y": -1.230611494,
				"z": -1.6918364768,
				"element": "C" 
			},
			{
				"x": 1.7401546815,
				"y": 1.4331230719,
				"z": -1.9221449765,
				"element": "H" 
			},
			{
				"x": 1.3075074569,
				"y": 1.4291244135,
				"z": 0.80488569,
				"element": "H" 
			},
			{
				"x": 1.7852495658,
				"y": -0.9096413802,
				"z": 1.5688462625,
				"element": "H" 
			},
			{
				"x": 1.7793013447,
				"y": -1.4895864166,
				"z": -0.1615025925,
				"element": "H" 
			},
			{
				"x": 3.6453138594,
				"y": 0.0930170196,
				"z": -0.7315789526,
				"element": "H" 
			},
			{
				"x": 3.6839793061,
				"y": 0.7047627444,
				"z": 0.9905304393,
				"element": "H" 
			},
			{
				"x": -0.7891865896,
				"y": 0.5285588461,
				"z": 0.8585179951,
				"element": "H" 
			},
			{
				"x": -2.9303540588,
				"y": -1.1420082474,
				"z": 1.2510352341,
				"element": "H" 
			},
			{
				"x": -1.6889382974,
				"y": -1.5148534817,
				"z": -2.7302608375,
				"element": "H" 
			}
		],
		 "valence_orbital": [ 
			{
				"type": "occ",
				"energy": -0.28866,
				"method": "rhf"
			},
			{
				"type": "occ",
				"energy": -0.28138,
				"method": "rhf"
			},
			{
				"type": "occ",
				"energy": -0.26864,
				"method": "rhf"
			},
			{
				"type": "occ",
				"energy": -0.26784,
				"method": "rhf"
			},
			{
				"type": "occ",
				"energy": -0.23451,
				"method": "rhf"
			},
			{
				"type": "unocc",
				"energy": -0.01767,
				"method": "rhf"
			},
			{
				"type": "unocc",
				"energy": 0.05888,
				"method": "rhf"
			},
			{
				"type": "unocc",
				"energy": 0.06542,
				"method": "rhf"
			},
			{
				"type": "unocc",
				"energy": 0.0764,
				"method": "rhf"
			},
			{
				"type": "unocc",
				"energy": 0.07696,
				"method": "rhf"
			}
		],
		"cosmo_sigma_profile": { 
			"-0.025": 0.0,
			"-0.024": 0.0,
			"-0.023": 0.0,
			"-0.022": 0.0,
			"-0.021": 0.0,
			"-0.02": 0.0,
			"-0.019": 0.0,
			"-0.018": 0.0,
			"-0.017": 0.0,
			"-0.016": 0.0,
			"-0.015": 0.0143242139496,
			"-0.014": 0.770147832763,
			"-0.013": 0.88652496761,
			"-0.012": 0.89766256607,
			"-0.011": 1.10776267237,
			"-0.01": 0.826251049633,
			"-0.009": 2.94849070399,
			"-0.008": 4.459435594,
			"-0.007": 6.21431397628,
			"-0.006": 11.426697801,
			"-0.005": 16.400378582,
			"-0.004": 15.9448022015,
			"-0.003": 14.9736792896,
			"-0.002": 12.2552522494,
			"-0.001": 13.6453459153,
			"0.0": 12.3651375784,
			"0.001": 10.7419628866,
			"0.002": 10.1974789195,
			"0.003": 8.78320218091,
			"0.004": 8.17720952527,
			"0.005": 4.84661271903,
			"0.006": 3.68039992348,
			"0.007": 2.33366819975,
			"0.008": 2.55031743173,
			"0.009": 3.09038706198,
			"0.01": 3.25429410297,
			"0.011": 2.6746425271,
			"0.012": 6.25667285088,
			"0.013": 3.75558856059,
			"0.014": 1.18506142934,
			"0.015": 1.34627191654,
			"0.016": 0.952252623739,
			"0.017": 0.799432180808,
			"0.018": 0.154440261892,
			"0.019": 0.0,
			"0.02": 0.0,
			"0.021": 0.0,
			"0.022": 0.0,
			"0.023": 0.0,
			"0.024": 0.0,
			"0.025": 0.0
		}
	}
}
