{
	 "smiles": "NCC1=CC=C(NC(=O)C2=CC=C(F)C=C2)C=C1", 
	 "Tm": 409.15, 
	 "num_atms": 31, 
	 "gaussian": { 
		 "optdone": 1, 
		 "sigma_profile": "yes", 
		 "theory": "DFT", 
		 "functional": "B3LYP", 
		 "basiset": "6-31G**", 
		 "properties": { 
			 "R2extent": 6163.3496, 
			 "electric_dipole_moment_norm": 4.2543882592, 
			 "electric_quadrupole_moment_norm": 5.35153477051, 
			 "total_energy": -825.89668554, 
			 "HOMO_LUMO_gap": 0.18308, 
			 "cosmo_polarized_energy": -14.28, 
			 "cosmo_cavitation_energy": 35.83, 
			 "cosmo_dispersion_energy": -25.15, 
			 "cosmo_repulsion_energy": 1.96, 
			 "cosmo_total_nonelectrostatic_energy": 12.64, 
			 "SMD_solvation_energy": 6.26 
		},
		"coords": [
			{
				"x": -2.062092074,
				"y": 3.368187155,
				"z": -2.3877455088,
				"element": "N" 
			},
			{
				"x": -2.4264594074,
				"y": 1.9491921595,
				"z": -2.339941248,
				"element": "C" 
			},
			{
				"x": -1.2351365031,
				"y": 1.0734043514,
				"z": -1.9992766085,
				"element": "C" 
			},
			{
				"x": 0.0520057891,
				"y": 1.4004273077,
				"z": -2.4448745506,
				"element": "C" 
			},
			{
				"x": 1.1387972657,
				"y": 0.5806905923,
				"z": -2.1509161003,
				"element": "C" 
			},
			{
				"x": 0.962122038,
				"y": -0.6018288757,
				"z": -1.4187228713,
				"element": "C" 
			},
			{
				"x": 2.0909554031,
				"y": -1.4316350032,
				"z": -1.1863056875,
				"element": "N" 
			},
			{
				"x": 2.378469918,
				"y": -2.3002211596,
				"z": -0.1466304912,
				"element": "C" 
			},
			{
				"x": 3.1471876048,
				"y": -3.2378291548,
				"z": -0.3347854035,
				"element": "O" 
			},
			{
				"x": 1.8079761455,
				"y": -2.0351753823,
				"z": 1.2141181128,
				"element": "C" 
			},
			{
				"x": 1.536132462,
				"y": -0.7475736834,
				"z": 1.7004385512,
				"element": "C" 
			},
			{
				"x": 1.0980798506,
				"y": -0.5632171447,
				"z": 3.0101492599,
				"element": "C" 
			},
			{
				"x": 0.927635775,
				"y": -1.6803015823,
				"z": 3.8215476038,
				"element": "C" 
			},
			{
				"x": 0.4933033728,
				"y": -1.5065731495,
				"z": 5.0853640565,
				"element": "F" 
			},
			{
				"x": 1.1983862465,
				"y": -2.9695009321,
				"z": 3.3732335154,
				"element": "C" 
			},
			{
				"x": 1.653108641,
				"y": -3.1368050316,
				"z": 2.0685934071,
				"element": "C" 
			},
			{
				"x": -0.3248830731,
				"y": -0.9476108327,
				"z": -0.9869087296,
				"element": "C" 
			},
			{
				"x": -1.4002097816,
				"y": -0.1041960129,
				"z": -1.2612104592,
				"element": "C" 
			},
			{
				"x": -2.8511113496,
				"y": 3.9196019981,
				"z": -2.7137474745,
				"element": "H" 
			},
			{
				"x": -1.836334452,
				"y": 3.6996116536,
				"z": -1.4528041043,
				"element": "H" 
			},
			{
				"x": -2.7957759083,
				"y": 1.6783843014,
				"z": -3.3390850099,
				"element": "H" 
			},
			{
				"x": -3.2466927589,
				"y": 1.7130883976,
				"z": -1.6398624665,
				"element": "H" 
			},
			{
				"x": 0.1920703849,
				"y": 2.3181135313,
				"z": -3.0066957328,
				"element": "H" 
			},
			{
				"x": 2.1365338087,
				"y": 0.8547836968,
				"z": -2.4834803706,
				"element": "H" 
			},
			{
				"x": 2.665461915,
				"y": -1.6367446142,
				"z": -1.9956451428,
				"element": "H" 
			},
			{
				"x": 1.6787003723,
				"y": 0.1170066642,
				"z": 1.0622075907,
				"element": "H" 
			},
			{
				"x": 0.8930217854,
				"y": 0.4243768181,
				"z": 3.408518653,
				"element": "H" 
			},
			{
				"x": 1.0622179623,
				"y": -3.8106963864,
				"z": 4.044078937,
				"element": "H" 
			},
			{
				"x": 1.9054131386,
				"y": -4.1224609746,
				"z": 1.6929510082,
				"element": "H" 
			},
			{
				"x": -0.4823311117,
				"y": -1.8692835231,
				"z": -0.4378002331,
				"element": "H" 
			},
			{
				"x": -2.3906534595,
				"y": -0.3804151839,
				"z": -0.9068625025,
				"element": "H" 
			}
		],
		 "valence_orbital": [ 
			{
				"type": "occ",
				"energy": -0.26204,
				"method": "rhf"
			},
			{
				"type": "occ",
				"energy": -0.25437,
				"method": "rhf"
			},
			{
				"type": "occ",
				"energy": -0.24562,
				"method": "rhf"
			},
			{
				"type": "occ",
				"energy": -0.24363,
				"method": "rhf"
			},
			{
				"type": "occ",
				"energy": -0.22181,
				"method": "rhf"
			},
			{
				"type": "unocc",
				"energy": -0.03873,
				"method": "rhf"
			},
			{
				"type": "unocc",
				"energy": -0.01886,
				"method": "rhf"
			},
			{
				"type": "unocc",
				"energy": -0.00513,
				"method": "rhf"
			},
			{
				"type": "unocc",
				"energy": -0.00307,
				"method": "rhf"
			},
			{
				"type": "unocc",
				"energy": 0.05707,
				"method": "rhf"
			}
		],
		"cosmo_sigma_profile": { 
			"-0.025": 0.0,
			"-0.024": 0.0,
			"-0.023": 0.0,
			"-0.022": 0.0,
			"-0.021": 0.0,
			"-0.02": 0.0,
			"-0.019": 0.0,
			"-0.018": 0.0,
			"-0.017": 0.0,
			"-0.016": 0.0,
			"-0.015": 0.0431031343031,
			"-0.014": 0.609335836825,
			"-0.013": 0.866011735932,
			"-0.012": 0.923885667063,
			"-0.011": 1.18353907592,
			"-0.01": 2.51300734858,
			"-0.009": 3.70497936457,
			"-0.008": 4.75521459467,
			"-0.007": 7.71654882278,
			"-0.006": 14.0484041088,
			"-0.005": 19.1769846113,
			"-0.004": 20.0091645401,
			"-0.003": 19.5562273587,
			"-0.002": 20.0978008063,
			"-0.001": 21.0628159544,
			"0.0": 21.7739787204,
			"0.001": 19.7889455549,
			"0.002": 23.1011870082,
			"0.003": 24.3152830692,
			"0.004": 19.5442480097,
			"0.005": 11.7097441747,
			"0.006": 4.32283826376,
			"0.007": 2.0813300613,
			"0.008": 2.40593775759,
			"0.009": 2.3119801634,
			"0.01": 2.11094081389,
			"0.011": 2.56912235363,
			"0.012": 2.97272219097,
			"0.013": 6.22519209788,
			"0.014": 2.35978710602,
			"0.015": 0.271281608826,
			"0.016": 0.823081643304,
			"0.017": 0.104515977097,
			"0.018": 0.0,
			"0.019": 0.0,
			"0.02": 0.0,
			"0.021": 0.0,
			"0.022": 0.0,
			"0.023": 0.0,
			"0.024": 0.0,
			"0.025": 0.0
		}
	}
}
