{
	 "smiles": "ON=C1CCN2CCCCC12", 
	 "Tm": 370.15, 
	 "num_atms": 25, 
	 "gaussian": { 
		 "optdone": 1, 
		 "sigma_profile": "yes", 
		 "theory": "DFT", 
		 "functional": "B3LYP", 
		 "basiset": "6-31G**", 
		 "properties": { 
			 "R2extent": 2317.8997, 
			 "electric_dipole_moment_norm": 0.804233131623, 
			 "electric_quadrupole_moment_norm": 4.89691165532, 
			 "total_energy": -497.94843062, 
			 "HOMO_LUMO_gap": 0.20867, 
			 "cosmo_polarized_energy": -7.54, 
			 "cosmo_cavitation_energy": 25.33, 
			 "cosmo_dispersion_energy": -19.17, 
			 "cosmo_repulsion_energy": 1.55, 
			 "cosmo_total_nonelectrostatic_energy": 7.71, 
			 "SMD_solvation_energy": 0.64 
		},
		"coords": [
			{
				"x": -0.5578854089,
				"y": -1.4427800887,
				"z": 2.0835228872,
				"element": "O" 
			},
			{
				"x": 0.2514809146,
				"y": -0.2853276507,
				"z": 2.1967381814,
				"element": "N" 
			},
			{
				"x": -0.1680837966,
				"y": 0.6532276618,
				"z": 1.4412417232,
				"element": "C" 
			},
			{
				"x": 0.4919038268,
				"y": 2.0152338537,
				"z": 1.4415136258,
				"element": "C" 
			},
			{
				"x": -0.0540459532,
				"y": 2.6384216737,
				"z": 0.1523918162,
				"element": "C" 
			},
			{
				"x": -1.395332075,
				"y": 2.0655691737,
				"z": 0.0208609084,
				"element": "N" 
			},
			{
				"x": -1.9886064912,
				"y": 2.2572868338,
				"z": -1.3048895855,
				"element": "C" 
			},
			{
				"x": -3.0801127303,
				"y": 1.2151029588,
				"z": -1.5579427774,
				"element": "C" 
			},
			{
				"x": -2.4860090655,
				"y": -0.2139060915,
				"z": -1.5914116638,
				"element": "C" 
			},
			{
				"x": -1.2341168336,
				"y": -0.3379547151,
				"z": -0.6895294724,
				"element": "C" 
			},
			{
				"x": -1.3443851346,
				"y": 0.6557933492,
				"z": 0.4858472576,
				"element": "C" 
			},
			{
				"x": -0.1199744306,
				"y": -2.0511643484,
				"z": 2.6926833775,
				"element": "H" 
			},
			{
				"x": 0.1532353051,
				"y": 2.5825587345,
				"z": 2.3168652819,
				"element": "H" 
			},
			{
				"x": 1.5822896181,
				"y": 1.9573296408,
				"z": 1.4784494352,
				"element": "H" 
			},
			{
				"x": 0.5982686177,
				"y": 2.3738561064,
				"z": -0.7038694625,
				"element": "H" 
			},
			{
				"x": -0.1050836153,
				"y": 3.7325451984,
				"z": 0.1919263196,
				"element": "H" 
			},
			{
				"x": -1.2249773577,
				"y": 2.176452821,
				"z": -2.1043821331,
				"element": "H" 
			},
			{
				"x": -2.3966642284,
				"y": 3.2744927082,
				"z": -1.3693603753,
				"element": "H" 
			},
			{
				"x": -3.8276851894,
				"y": 1.2979405404,
				"z": -0.7600830982,
				"element": "H" 
			},
			{
				"x": -3.5985701099,
				"y": 1.4401337383,
				"z": -2.4957910499,
				"element": "H" 
			},
			{
				"x": -2.2179329462,
				"y": -0.4840322042,
				"z": -2.6194353589,
				"element": "H" 
			},
			{
				"x": -3.2496819738,
				"y": -0.9323166855,
				"z": -1.2723787164,
				"element": "H" 
			},
			{
				"x": -1.1150837464,
				"y": -1.3543926616,
				"z": -0.309932983,
				"element": "H" 
			},
			{
				"x": -0.3292807771,
				"y": -0.102241704,
				"z": -1.2629095002,
				"element": "H" 
			},
			{
				"x": -2.2553664186,
				"y": 0.4126711572,
				"z": 1.0518753627,
				"element": "H" 
			}
		],
		 "valence_orbital": [ 
			{
				"type": "occ",
				"energy": -0.32391,
				"method": "rhf"
			},
			{
				"type": "occ",
				"energy": -0.30779,
				"method": "rhf"
			},
			{
				"type": "occ",
				"energy": -0.26229,
				"method": "rhf"
			},
			{
				"type": "occ",
				"energy": -0.24259,
				"method": "rhf"
			},
			{
				"type": "occ",
				"energy": -0.20235,
				"method": "rhf"
			},
			{
				"type": "unocc",
				"energy": 0.00632,
				"method": "rhf"
			},
			{
				"type": "unocc",
				"energy": 0.07221,
				"method": "rhf"
			},
			{
				"type": "unocc",
				"energy": 0.08897,
				"method": "rhf"
			},
			{
				"type": "unocc",
				"energy": 0.10697,
				"method": "rhf"
			},
			{
				"type": "unocc",
				"energy": 0.11634,
				"method": "rhf"
			}
		],
		"cosmo_sigma_profile": { 
			"-0.025": 0.0,
			"-0.024": 0.0,
			"-0.023": 0.0,
			"-0.022": 0.0,
			"-0.021": 0.0,
			"-0.02": 0.0,
			"-0.019": 0.0,
			"-0.018": 0.0,
			"-0.017": 0.500767715296,
			"-0.016": 1.11086511745,
			"-0.015": 1.02577245686,
			"-0.014": 0.539979745859,
			"-0.013": 0.619656059363,
			"-0.012": 0.703385786209,
			"-0.011": 0.41948059962,
			"-0.01": 0.52940056048,
			"-0.009": 0.824721896419,
			"-0.008": 0.830284560309,
			"-0.007": 0.66669108745,
			"-0.006": 0.799006493909,
			"-0.005": 4.00888393016,
			"-0.004": 6.06729867874,
			"-0.003": 21.4649167104,
			"-0.002": 34.9866202544,
			"-0.001": 37.3691747188,
			"0.0": 22.8878944392,
			"0.001": 14.6980835028,
			"0.002": 5.86748221188,
			"0.003": 4.0429899538,
			"0.004": 4.19328670178,
			"0.005": 4.64736051575,
			"0.006": 6.09175813051,
			"0.007": 4.8551484097,
			"0.008": 3.6304072566,
			"0.009": 3.12483919812,
			"0.01": 2.15447205361,
			"0.011": 2.54219926801,
			"0.012": 0.931959775739,
			"0.013": 1.44043510587,
			"0.014": 1.19934876582,
			"0.015": 0.329994690965,
			"0.016": 0.375131208737,
			"0.017": 0.14160574649,
			"0.018": 0.0,
			"0.019": 0.0,
			"0.02": 0.0,
			"0.021": 0.0,
			"0.022": 0.0,
			"0.023": 0.0,
			"0.024": 0.0,
			"0.025": 0.0
		}
	}
}
