{
	 "smiles": "NNC1=NC(=NO1)C1=CC=NC=C1", 
	 "Tm": 463.15, 
	 "num_atms": 20, 
	 "gaussian": { 
		 "optdone": 1, 
		 "sigma_profile": "yes", 
		 "theory": "DFT", 
		 "functional": "B3LYP", 
		 "basiset": "6-31G**", 
		 "properties": { 
			 "R2extent": 3845.5031, 
			 "electric_dipole_moment_norm": 3.71120928135, 
			 "electric_quadrupole_moment_norm": 10.0904606045, 
			 "total_energy": -619.867486217, 
			 "HOMO_LUMO_gap": 0.1908, 
			 "cosmo_polarized_energy": -14.5, 
			 "cosmo_cavitation_energy": 25.59, 
			 "cosmo_dispersion_energy": -19.26, 
			 "cosmo_repulsion_energy": 1.52, 
			 "cosmo_total_nonelectrostatic_energy": 7.84, 
			 "SMD_solvation_energy": 1.89 
		},
		"coords": [
			{
				"x": 2.3285940326,
				"y": -1.53424227,
				"z": 1.9860212434,
				"element": "N" 
			},
			{
				"x": 0.9263143799,
				"y": -1.4752272933,
				"z": 1.9525850562,
				"element": "N" 
			},
			{
				"x": 0.2404369445,
				"y": -0.5839865776,
				"z": 1.1995969185,
				"element": "C" 
			},
			{
				"x": -1.0415668837,
				"y": -0.3206080637,
				"z": 1.2418520488,
				"element": "N" 
			},
			{
				"x": -1.1593999884,
				"y": 0.620199907,
				"z": 0.2450253304,
				"element": "C" 
			},
			{
				"x": -0.0439782167,
				"y": 0.9348932171,
				"z": -0.3763783068,
				"element": "N" 
			},
			{
				"x": 0.9212561267,
				"y": 0.1132452684,
				"z": 0.2738760742,
				"element": "O" 
			},
			{
				"x": -2.4450384622,
				"y": 1.2428354678,
				"z": -0.1085294012,
				"element": "C" 
			},
			{
				"x": -3.6131031385,
				"y": 0.8826968416,
				"z": 0.5713139467,
				"element": "C" 
			},
			{
				"x": -4.8113911864,
				"y": 1.4959558108,
				"z": 0.2063249818,
				"element": "C" 
			},
			{
				"x": -4.9162252161,
				"y": 2.4150372937,
				"z": -0.7614270666,
				"element": "N" 
			},
			{
				"x": -3.7888765535,
				"y": 2.7507246626,
				"z": -1.4050640196,
				"element": "C" 
			},
			{
				"x": -2.5395560809,
				"y": 2.2034864711,
				"z": -1.123901964,
				"element": "C" 
			},
			{
				"x": 2.7123600368,
				"y": -0.5947661595,
				"z": 2.079486618,
				"element": "H" 
			},
			{
				"x": 2.6602946339,
				"y": -1.9167168783,
				"z": 1.1035321921,
				"element": "H" 
			},
			{
				"x": 0.4449551132,
				"y": -1.8714283004,
				"z": 2.7460615194,
				"element": "H" 
			},
			{
				"x": -3.577217128,
				"y": 0.1424016989,
				"z": 1.3623456528,
				"element": "H" 
			},
			{
				"x": -5.7348078458,
				"y": 1.2335411379,
				"z": 0.7196506872,
				"element": "H" 
			},
			{
				"x": -3.8905655915,
				"y": 3.4989179146,
				"z": -2.1890261747,
				"element": "H" 
			},
			{
				"x": -1.658584976,
				"y": 2.5114398512,
				"z": -1.6761453367,
				"element": "H" 
			}
		],
		 "valence_orbital": [ 
			{
				"type": "occ",
				"energy": -0.29805,
				"method": "rhf"
			},
			{
				"type": "occ",
				"energy": -0.2788,
				"method": "rhf"
			},
			{
				"type": "occ",
				"energy": -0.26427,
				"method": "rhf"
			},
			{
				"type": "occ",
				"energy": -0.25524,
				"method": "rhf"
			},
			{
				"type": "occ",
				"energy": -0.24635,
				"method": "rhf"
			},
			{
				"type": "unocc",
				"energy": -0.05555,
				"method": "rhf"
			},
			{
				"type": "unocc",
				"energy": -0.01229,
				"method": "rhf"
			},
			{
				"type": "unocc",
				"energy": 0.01391,
				"method": "rhf"
			},
			{
				"type": "unocc",
				"energy": 0.05229,
				"method": "rhf"
			},
			{
				"type": "unocc",
				"energy": 0.06411,
				"method": "rhf"
			}
		],
		"cosmo_sigma_profile": { 
			"-0.025": 0.0,
			"-0.024": 0.0,
			"-0.023": 0.0,
			"-0.022": 0.0,
			"-0.021": 0.0,
			"-0.02": 0.0,
			"-0.019": 0.0,
			"-0.018": 0.0,
			"-0.017": 0.0,
			"-0.016": 0.640469654696,
			"-0.015": 1.08283715474,
			"-0.014": 0.704824839415,
			"-0.013": 1.68781921331,
			"-0.012": 4.36119071771,
			"-0.011": 3.53655735194,
			"-0.01": 3.29475224903,
			"-0.009": 3.19867691865,
			"-0.008": 3.47644214743,
			"-0.007": 7.22309949538,
			"-0.006": 10.6252742617,
			"-0.005": 9.92222229824,
			"-0.004": 10.1207402561,
			"-0.003": 10.4107036545,
			"-0.002": 8.49576506994,
			"-0.001": 13.2944811082,
			"0.0": 15.2705069545,
			"0.001": 23.9322561214,
			"0.002": 14.4235007034,
			"0.003": 6.79589398028,
			"0.004": 7.60212957081,
			"0.005": 6.36320633747,
			"0.006": 6.07596069091,
			"0.007": 5.85411127672,
			"0.008": 5.80660729504,
			"0.009": 3.50647722,
			"0.01": 4.63502754913,
			"0.011": 3.27710555619,
			"0.012": 3.93675218506,
			"0.013": 1.9237356237,
			"0.014": 1.42534309956,
			"0.015": 1.59168954549,
			"0.016": 0.738339309873,
			"0.017": 0.0673645784017,
			"0.018": 0.0,
			"0.019": 0.0,
			"0.02": 0.0,
			"0.021": 0.0,
			"0.022": 0.0,
			"0.023": 0.0,
			"0.024": 0.0,
			"0.025": 0.0
		}
	}
}
