{
	 "smiles": "C1CCSCC1", 
	 "Tm": 292.15, 
	 "num_atms": 16, 
	 "gaussian": { 
		 "optdone": 1, 
		 "sigma_profile": "yes", 
		 "theory": "DFT", 
		 "functional": "B3LYP", 
		 "basiset": "6-31G**", 
		 "properties": { 
			 "R2extent": 885.6574, 
			 "electric_dipole_moment_norm": 2.01988269461, 
			 "electric_quadrupole_moment_norm": 5.76002705115, 
			 "total_energy": -594.751420166, 
			 "HOMO_LUMO_gap": 0.25531, 
			 "cosmo_polarized_energy": -4.06, 
			 "cosmo_cavitation_energy": 18.32, 
			 "cosmo_dispersion_energy": -14.81, 
			 "cosmo_repulsion_energy": 1.21, 
			 "cosmo_total_nonelectrostatic_energy": 4.73, 
			 "SMD_solvation_energy": 2.07 
		},
		"coords": [
			{
				"x": 0.1469286104,
				"y": -1.0662735497,
				"z": 0.0952813093,
				"element": "C" 
			},
			{
				"x": 1.2290007889,
				"y": -0.9809689078,
				"z": 1.2003515477,
				"element": "C" 
			},
			{
				"x": 1.828035756,
				"y": 0.4264216583,
				"z": 1.3653416774,
				"element": "C" 
			},
			{
				"x": 0.5708955684,
				"y": 1.7572689514,
				"z": 1.2336372356,
				"element": "S" 
			},
			{
				"x": -0.0184508288,
				"y": 1.4169778325,
				"z": -0.4918870476,
				"element": "C" 
			},
			{
				"x": 0.3282820088,
				"y": 0.0037364358,
				"z": -0.9912923903,
				"element": "C" 
			},
			{
				"x": 0.1599140692,
				"y": -2.0648868693,
				"z": -0.3547665827,
				"element": "H" 
			},
			{
				"x": -0.8463960823,
				"y": -0.9409235896,
				"z": 0.5421390675,
				"element": "H" 
			},
			{
				"x": 0.800777945,
				"y": -1.3093389494,
				"z": 2.1532061711,
				"element": "H" 
			},
			{
				"x": 2.0526843661,
				"y": -1.6701001567,
				"z": 0.9705981449,
				"element": "H" 
			},
			{
				"x": 2.2834429831,
				"y": 0.5489472609,
				"z": 2.3516742888,
				"element": "H" 
			},
			{
				"x": 2.6144160071,
				"y": 0.6122498867,
				"z": 0.6273467826,
				"element": "H" 
			},
			{
				"x": 0.3886582916,
				"y": 2.1767839368,
				"z": -1.1653607908,
				"element": "H" 
			},
			{
				"x": -1.1044188828,
				"y": 1.5469364911,
				"z": -0.4578763438,
				"element": "H" 
			},
			{
				"x": 1.3591502427,
				"y": -0.018154036,
				"z": -1.3658326955,
				"element": "H" 
			},
			{
				"x": -0.3124208434,
				"y": -0.2176763949,
				"z": -1.853360374,
				"element": "H" 
			}
		],
		 "valence_orbital": [ 
			{
				"type": "occ",
				"energy": -0.34605,
				"method": "rhf"
			},
			{
				"type": "occ",
				"energy": -0.33238,
				"method": "rhf"
			},
			{
				"type": "occ",
				"energy": -0.31197,
				"method": "rhf"
			},
			{
				"type": "occ",
				"energy": -0.28818,
				"method": "rhf"
			},
			{
				"type": "occ",
				"energy": -0.21051,
				"method": "rhf"
			},
			{
				"type": "unocc",
				"energy": 0.0448,
				"method": "rhf"
			},
			{
				"type": "unocc",
				"energy": 0.07657,
				"method": "rhf"
			},
			{
				"type": "unocc",
				"energy": 0.08581,
				"method": "rhf"
			},
			{
				"type": "unocc",
				"energy": 0.10958,
				"method": "rhf"
			},
			{
				"type": "unocc",
				"energy": 0.12483,
				"method": "rhf"
			}
		],
		"cosmo_sigma_profile": { 
			"-0.025": 0.0,
			"-0.024": 0.0,
			"-0.023": 0.0,
			"-0.022": 0.0,
			"-0.021": 0.0,
			"-0.02": 0.0,
			"-0.019": 0.0,
			"-0.018": 0.0,
			"-0.017": 0.0,
			"-0.016": 0.0,
			"-0.015": 0.0,
			"-0.014": 0.0,
			"-0.013": 0.0,
			"-0.012": 0.0,
			"-0.011": 0.0,
			"-0.01": 0.0,
			"-0.009": 0.0,
			"-0.008": 0.0,
			"-0.007": 0.0,
			"-0.006": 0.288262131519,
			"-0.005": 2.97552962021,
			"-0.004": 10.6789854245,
			"-0.003": 20.3565406596,
			"-0.002": 26.5954728966,
			"-0.001": 27.3668314301,
			"0.0": 16.9063943451,
			"0.001": 8.90774979875,
			"0.002": 3.13551636167,
			"0.003": 2.87350249825,
			"0.004": 3.10144864206,
			"0.005": 2.87379094438,
			"0.006": 3.31087686627,
			"0.007": 3.39476778213,
			"0.008": 3.04686468142,
			"0.009": 2.30438081359,
			"0.01": 2.40653896156,
			"0.011": 1.67570436837,
			"0.012": 1.51783161644,
			"0.013": 0.0428885814033,
			"0.014": 0.0,
			"0.015": 0.0,
			"0.016": 0.0,
			"0.017": 0.0,
			"0.018": 0.0,
			"0.019": 0.0,
			"0.02": 0.0,
			"0.021": 0.0,
			"0.022": 0.0,
			"0.023": 0.0,
			"0.024": 0.0,
			"0.025": 0.0
		}
	}
}
