{
	 "smiles": "OC(=O)C1=CC=C(CN(CC2=CC=CC=C2)S(=O)(=O)C2=CC=C(Cl)C=C2)C=C1", 
	 "Tm": 477.15, 
	 "num_atms": 46, 
	 "gaussian": { 
		 "optdone": 1, 
		 "sigma_profile": "yes", 
		 "theory": "DFT", 
		 "functional": "B3LYP", 
		 "basiset": "6-31G**", 
		 "properties": { 
			 "R2extent": 14296.0479, 
			 "electric_dipole_moment_norm": 2.44764424498, 
			 "electric_quadrupole_moment_norm": 39.2768880313, 
			 "total_energy": -2025.04506808, 
			 "HOMO_LUMO_gap": 0.19154, 
			 "cosmo_polarized_energy": -24.99, 
			 "cosmo_cavitation_energy": 53.36, 
			 "cosmo_dispersion_energy": -34.79, 
			 "cosmo_repulsion_energy": 2.58, 
			 "cosmo_total_nonelectrostatic_energy": 21.15, 
			 "SMD_solvation_energy": 8.61 
		},
		"coords": [
			{
				"x": 4.7251876677,
				"y": -0.6886615336,
				"z": -2.2312334073,
				"element": "O" 
			},
			{
				"x": 3.8105513373,
				"y": -0.2012081146,
				"z": -3.1121397272,
				"element": "C" 
			},
			{
				"x": 4.1732553629,
				"y": 0.2377407221,
				"z": -4.178025736,
				"element": "O" 
			},
			{
				"x": 2.3735562415,
				"y": -0.2404056252,
				"z": -2.6848795719,
				"element": "C" 
			},
			{
				"x": 1.8921108367,
				"y": -1.0953544972,
				"z": -1.680980019,
				"element": "C" 
			},
			{
				"x": 0.5450156862,
				"y": -1.0888461215,
				"z": -1.3341057335,
				"element": "C" 
			},
			{
				"x": -0.3522197229,
				"y": -0.2283568583,
				"z": -1.9801798772,
				"element": "C" 
			},
			{
				"x": -1.8255745931,
				"y": -0.2390320894,
				"z": -1.6250208667,
				"element": "C" 
			},
			{
				"x": -2.0608343458,
				"y": 0.0062979238,
				"z": -0.1885651636,
				"element": "N" 
			},
			{
				"x": -1.7413744352,
				"y": 1.3776655274,
				"z": 0.3084299529,
				"element": "C" 
			},
			{
				"x": -0.5477098234,
				"y": 1.4173655612,
				"z": 1.2433044204,
				"element": "C" 
			},
			{
				"x": 0.6916608382,
				"y": 1.8969282036,
				"z": 0.8046397074,
				"element": "C" 
			},
			{
				"x": 1.7846898955,
				"y": 1.9475618132,
				"z": 1.672655034,
				"element": "C" 
			},
			{
				"x": 1.6498599513,
				"y": 1.5157766477,
				"z": 2.99265301,
				"element": "C" 
			},
			{
				"x": 0.4149264324,
				"y": 1.0406650467,
				"z": 3.4418439804,
				"element": "C" 
			},
			{
				"x": -0.6780415437,
				"y": 0.9965696712,
				"z": 2.5756538566,
				"element": "C" 
			},
			{
				"x": -3.4935660218,
				"y": -0.6890265332,
				"z": 0.4054444835,
				"element": "S" 
			},
			{
				"x": -4.5583190925,
				"y": -0.6685991803,
				"z": -0.6069541022,
				"element": "O" 
			},
			{
				"x": -3.7185281898,
				"y": -0.0927569212,
				"z": 1.727510302,
				"element": "O" 
			},
			{
				"x": -3.0014748311,
				"y": -2.4032161594,
				"z": 0.6206914073,
				"element": "C" 
			},
			{
				"x": -1.9506414079,
				"y": -2.7150124229,
				"z": 1.4888682212,
				"element": "C" 
			},
			{
				"x": -1.6053856728,
				"y": -4.0480557717,
				"z": 1.6917526725,
				"element": "C" 
			},
			{
				"x": -2.3225385682,
				"y": -5.0481532951,
				"z": 1.0272178753,
				"element": "C" 
			},
			{
				"x": -1.8846058874,
				"y": -6.7249345961,
				"z": 1.2824996587,
				"element": "Cl" 
			},
			{
				"x": -3.3762449352,
				"y": -4.7398794641,
				"z": 0.1675052642,
				"element": "C" 
			},
			{
				"x": -3.719614343,
				"y": -3.4023161128,
				"z": -0.0351319459,
				"element": "C" 
			},
			{
				"x": 0.1279072191,
				"y": 0.6121611233,
				"z": -2.9918210636,
				"element": "C" 
			},
			{
				"x": 1.4744686005,
				"y": 0.6016839783,
				"z": -3.3490680846,
				"element": "C" 
			},
			{
				"x": 4.3106668198,
				"y": -0.8495390752,
				"z": -1.3724043557,
				"element": "H" 
			},
			{
				"x": 2.554929987,
				"y": -1.8012471062,
				"z": -1.1858680096,
				"element": "H" 
			},
			{
				"x": 0.1823677032,
				"y": -1.7513985239,
				"z": -0.5546041045,
				"element": "H" 
			},
			{
				"x": -2.24352711,
				"y": -1.2214074834,
				"z": -1.8680165036,
				"element": "H" 
			},
			{
				"x": -2.3677395231,
				"y": 0.4910734843,
				"z": -2.2408386701,
				"element": "H" 
			},
			{
				"x": -2.6182998409,
				"y": 1.783199306,
				"z": 0.8175852438,
				"element": "H" 
			},
			{
				"x": -1.553769161,
				"y": 2.0059423841,
				"z": -0.5678587137,
				"element": "H" 
			},
			{
				"x": 0.8043072864,
				"y": 2.2314833522,
				"z": -0.2233850831,
				"element": "H" 
			},
			{
				"x": 2.7384696155,
				"y": 2.3283901766,
				"z": 1.3179983531,
				"element": "H" 
			},
			{
				"x": 2.4980571398,
				"y": 1.557293367,
				"z": 3.6701090607,
				"element": "H" 
			},
			{
				"x": 0.2992737691,
				"y": 0.7168686312,
				"z": 4.4725341277,
				"element": "H" 
			},
			{
				"x": -1.6444262765,
				"y": 0.6474264611,
				"z": 2.9281695651,
				"element": "H" 
			},
			{
				"x": -1.4056163378,
				"y": -1.9246611748,
				"z": 1.9946675611,
				"element": "H" 
			},
			{
				"x": -0.7938159308,
				"y": -4.3147329372,
				"z": 2.3592898425,
				"element": "H" 
			},
			{
				"x": -3.9198692826,
				"y": -5.5324237996,
				"z": -0.3340043279,
				"element": "H" 
			},
			{
				"x": -4.5373450062,
				"y": -3.1302172795,
				"z": -0.6932800183,
				"element": "H" 
			},
			{
				"x": -0.5595975624,
				"y": 1.277668262,
				"z": -3.5074976349,
				"element": "H" 
			},
			{
				"x": 1.8519170547,
				"y": 1.2421810335,
				"z": -4.1388608803,
				"element": "H" 
			}
		],
		 "valence_orbital": [ 
			{
				"type": "occ",
				"energy": -0.27892,
				"method": "rhf"
			},
			{
				"type": "occ",
				"energy": -0.27114,
				"method": "rhf"
			},
			{
				"type": "occ",
				"energy": -0.26055,
				"method": "rhf"
			},
			{
				"type": "occ",
				"energy": -0.25649,
				"method": "rhf"
			},
			{
				"type": "occ",
				"energy": -0.2533,
				"method": "rhf"
			},
			{
				"type": "unocc",
				"energy": -0.06176,
				"method": "rhf"
			},
			{
				"type": "unocc",
				"energy": -0.05641,
				"method": "rhf"
			},
			{
				"type": "unocc",
				"energy": -0.04124,
				"method": "rhf"
			},
			{
				"type": "unocc",
				"energy": -0.0317,
				"method": "rhf"
			},
			{
				"type": "unocc",
				"energy": -0.01535,
				"method": "rhf"
			}
		],
		"cosmo_sigma_profile": { 
			"-0.025": 0.0,
			"-0.024": 0.0,
			"-0.023": 0.0,
			"-0.022": 0.0,
			"-0.021": 0.0,
			"-0.02": 0.0,
			"-0.019": 0.17765352396,
			"-0.018": 0.591580926304,
			"-0.017": 0.768087148521,
			"-0.016": 1.32497602018,
			"-0.015": 0.733776267443,
			"-0.014": 0.806649220134,
			"-0.013": 1.14146443782,
			"-0.012": 1.38413707381,
			"-0.011": 1.0703075392,
			"-0.01": 1.3835430226,
			"-0.009": 1.53023062703,
			"-0.008": 6.31504926719,
			"-0.007": 14.0189135495,
			"-0.006": 21.6732410072,
			"-0.005": 30.8138627906,
			"-0.004": 32.1205962456,
			"-0.003": 33.6394221232,
			"-0.002": 29.3503415975,
			"-0.001": 28.6845867483,
			"0.0": 33.917398823,
			"0.001": 37.5882840889,
			"0.002": 25.5494123178,
			"0.003": 26.9680753782,
			"0.004": 23.5366908641,
			"0.005": 13.4427115567,
			"0.006": 11.2332089333,
			"0.007": 5.07602384317,
			"0.008": 6.51497345057,
			"0.009": 7.6811402136,
			"0.01": 10.1760854966,
			"0.011": 12.2974162849,
			"0.012": 6.40262219408,
			"0.013": 1.46590998445,
			"0.014": 0.0490452405561,
			"0.015": 0.0,
			"0.016": 0.0,
			"0.017": 0.0,
			"0.018": 0.0,
			"0.019": 0.0,
			"0.02": 0.0,
			"0.021": 0.0,
			"0.022": 0.0,
			"0.023": 0.0,
			"0.024": 0.0,
			"0.025": 0.0
		}
	}
}
