{
	 "smiles": "CCC(C)C1CC(C(C)CC)C(=C1)C(O)CC(O)C(O)C(O)=O", 
	 "Tm": 469.15, 
	 "num_atms": 55, 
	 "gaussian": { 
		 "optdone": 1, 
		 "sigma_profile": "yes", 
		 "theory": "DFT", 
		 "functional": "B3LYP", 
		 "basiset": "6-31G**", 
		 "properties": { 
			 "R2extent": 10059.9652, 
			 "electric_dipole_moment_norm": 2.91600521776, 
			 "electric_quadrupole_moment_norm": 17.1270618843, 
			 "total_energy": -1081.32753408, 
			 "HOMO_LUMO_gap": 0.20282, 
			 "cosmo_polarized_energy": -16.92, 
			 "cosmo_cavitation_energy": 52.37, 
			 "cosmo_dispersion_energy": -33.77, 
			 "cosmo_repulsion_energy": 2.63, 
			 "cosmo_total_nonelectrostatic_energy": 21.22, 
			 "SMD_solvation_energy": 9.11 
		},
		"coords": [
			{
				"x": -5.38205508,
				"y": 0.9129249271,
				"z": 0.6471420165,
				"element": "C" 
			},
			{
				"x": -4.5848316962,
				"y": 0.9561916887,
				"z": -0.6620629218,
				"element": "C" 
			},
			{
				"x": -3.2753404936,
				"y": 1.7750068467,
				"z": -0.6121133108,
				"element": "C" 
			},
			{
				"x": -2.7541952867,
				"y": 2.0192049961,
				"z": -2.0374284172,
				"element": "C" 
			},
			{
				"x": -2.2046699009,
				"y": 1.1320998805,
				"z": 0.3104841598,
				"element": "C" 
			},
			{
				"x": -1.0198333715,
				"y": 2.0638249171,
				"z": 0.6889728156,
				"element": "C" 
			},
			{
				"x": 0.2556812119,
				"y": 1.1728711151,
				"z": 0.7465859503,
				"element": "C" 
			},
			{
				"x": 1.5624928336,
				"y": 1.864867245,
				"z": 0.2663987128,
				"element": "C" 
			},
			{
				"x": 1.5162517959,
				"y": 2.2943648045,
				"z": -1.2083981726,
				"element": "C" 
			},
			{
				"x": 1.950705988,
				"y": 3.0613481476,
				"z": 1.1625260394,
				"element": "C" 
			},
			{
				"x": 2.2572042615,
				"y": 2.7182599256,
				"z": 2.6255084398,
				"element": "C" 
			},
			{
				"x": -0.1777353107,
				"y": -0.0849157344,
				"z": -0.0092197749,
				"element": "C" 
			},
			{
				"x": -1.4963276011,
				"y": -0.0843918884,
				"z": -0.2398034246,
				"element": "C" 
			},
			{
				"x": 0.7130234155,
				"y": -1.2733449598,
				"z": -0.2892460396,
				"element": "C" 
			},
			{
				"x": 1.8040264053,
				"y": -0.8669996292,
				"z": -1.110750108,
				"element": "O" 
			},
			{
				"x": 1.1968683662,
				"y": -1.9142966112,
				"z": 1.0295887644,
				"element": "C" 
			},
			{
				"x": 1.8451469696,
				"y": -3.3143967065,
				"z": 0.9543304037,
				"element": "C" 
			},
			{
				"x": 0.9842707546,
				"y": -4.2758690638,
				"z": 0.360635827,
				"element": "O" 
			},
			{
				"x": 3.2374970436,
				"y": -3.4428326377,
				"z": 0.2936835057,
				"element": "C" 
			},
			{
				"x": 3.1212142835,
				"y": -3.3372768619,
				"z": -1.120970254,
				"element": "O" 
			},
			{
				"x": 4.3009764997,
				"y": -2.4643447993,
				"z": 0.7659230115,
				"element": "C" 
			},
			{
				"x": 4.3459324773,
				"y": -2.326277507,
				"z": 2.100591257,
				"element": "O" 
			},
			{
				"x": 5.0680894907,
				"y": -1.9189324623,
				"z": -0.0002818341,
				"element": "O" 
			},
			{
				"x": -5.6307230557,
				"y": 1.9239514582,
				"z": 0.9904343675,
				"element": "H" 
			},
			{
				"x": -4.8327866909,
				"y": 0.4166733818,
				"z": 1.4536740243,
				"element": "H" 
			},
			{
				"x": -6.3228667671,
				"y": 0.3686238899,
				"z": 0.5131429097,
				"element": "H" 
			},
			{
				"x": -4.3609177549,
				"y": -0.0681005987,
				"z": -0.9914905905,
				"element": "H" 
			},
			{
				"x": -5.2250024896,
				"y": 1.3844352553,
				"z": -1.4445744285,
				"element": "H" 
			},
			{
				"x": -3.5229042056,
				"y": 2.7533236388,
				"z": -0.1709288559,
				"element": "H" 
			},
			{
				"x": -1.8225339586,
				"y": 2.5922892777,
				"z": -2.0459644854,
				"element": "H" 
			},
			{
				"x": -3.4908867809,
				"y": 2.574484499,
				"z": -2.6281814942,
				"element": "H" 
			},
			{
				"x": -2.5575821024,
				"y": 1.0726379531,
				"z": -2.5528992748,
				"element": "H" 
			},
			{
				"x": -2.7178473331,
				"y": 0.8325255011,
				"z": 1.2372053655,
				"element": "H" 
			},
			{
				"x": -1.2015592868,
				"y": 2.5895739838,
				"z": 1.6314275725,
				"element": "H" 
			},
			{
				"x": -0.8988729553,
				"y": 2.8323349235,
				"z": -0.0804265449,
				"element": "H" 
			},
			{
				"x": 0.4270601205,
				"y": 0.8736760074,
				"z": 1.7925240201,
				"element": "H" 
			},
			{
				"x": 2.3609918321,
				"y": 1.116408642,
				"z": 0.3475803978,
				"element": "H" 
			},
			{
				"x": 0.7934017669,
				"y": 3.1000699457,
				"z": -1.3819482605,
				"element": "H" 
			},
			{
				"x": 1.2624987581,
				"y": 1.4502014922,
				"z": -1.8524541945,
				"element": "H" 
			},
			{
				"x": 2.4967813239,
				"y": 2.6708857687,
				"z": -1.5208298744,
				"element": "H" 
			},
			{
				"x": 1.1582842255,
				"y": 3.8215110728,
				"z": 1.1241445495,
				"element": "H" 
			},
			{
				"x": 2.8373690746,
				"y": 3.5363528872,
				"z": 0.7221443869,
				"element": "H" 
			},
			{
				"x": 2.6149004442,
				"y": 3.5997901431,
				"z": 3.1683684419,
				"element": "H" 
			},
			{
				"x": 3.0360440777,
				"y": 1.9491643125,
				"z": 2.696098451,
				"element": "H" 
			},
			{
				"x": 1.3763259042,
				"y": 2.3452331616,
				"z": 3.1583409572,
				"element": "H" 
			},
			{
				"x": -2.0268379031,
				"y": -0.9110693346,
				"z": -0.7070131685,
				"element": "H" 
			},
			{
				"x": 0.0961466889,
				"y": -2.0196137651,
				"z": -0.8171275089,
				"element": "H" 
			},
			{
				"x": 2.289134955,
				"y": -1.6745845559,
				"z": -1.3488332953,
				"element": "H" 
			},
			{
				"x": 0.3249672197,
				"y": -2.0337036226,
				"z": 1.6826242275,
				"element": "H" 
			},
			{
				"x": 1.8826453042,
				"y": -1.2251459524,
				"z": 1.5357822969,
				"element": "H" 
			},
			{
				"x": 1.9858422936,
				"y": -3.6447422096,
				"z": 1.9893462222,
				"element": "H" 
			},
			{
				"x": 1.0449877477,
				"y": -4.1657027394,
				"z": -0.5987040505,
				"element": "H" 
			},
			{
				"x": 3.6034031256,
				"y": -4.4498283113,
				"z": 0.5511786653,
				"element": "H" 
			},
			{
				"x": 3.9839621247,
				"y": -3.0159806549,
				"z": -1.4382564934,
				"element": "H" 
			},
			{
				"x": 5.0771812408,
				"y": -1.7166610835,
				"z": 2.3008190188,
				"element": "H" 
			}
		],
		 "valence_orbital": [ 
			{
				"type": "occ",
				"energy": -0.2902,
				"method": "rhf"
			},
			{
				"type": "occ",
				"energy": -0.28304,
				"method": "rhf"
			},
			{
				"type": "occ",
				"energy": -0.27776,
				"method": "rhf"
			},
			{
				"type": "occ",
				"energy": -0.25114,
				"method": "rhf"
			},
			{
				"type": "occ",
				"energy": -0.22349,
				"method": "rhf"
			},
			{
				"type": "unocc",
				"energy": -0.02067,
				"method": "rhf"
			},
			{
				"type": "unocc",
				"energy": 0.02715,
				"method": "rhf"
			},
			{
				"type": "unocc",
				"energy": 0.04902,
				"method": "rhf"
			},
			{
				"type": "unocc",
				"energy": 0.05707,
				"method": "rhf"
			},
			{
				"type": "unocc",
				"energy": 0.08414,
				"method": "rhf"
			}
		],
		"cosmo_sigma_profile": { 
			"-0.025": 0.0,
			"-0.024": 0.0,
			"-0.023": 0.0,
			"-0.022": 0.0,
			"-0.021": 0.0,
			"-0.02": 0.0879979769913,
			"-0.019": 0.96425102113,
			"-0.018": 1.27879514026,
			"-0.017": 0.4113937212,
			"-0.016": 0.704919713346,
			"-0.015": 0.962745814048,
			"-0.014": 1.10723706985,
			"-0.013": 1.44865177345,
			"-0.012": 1.60120324035,
			"-0.011": 3.42265080855,
			"-0.01": 2.23639007342,
			"-0.009": 3.04273553592,
			"-0.008": 6.60152122889,
			"-0.007": 5.50300693914,
			"-0.006": 5.46120708427,
			"-0.005": 5.43094441707,
			"-0.004": 10.2822665241,
			"-0.003": 23.3990748514,
			"-0.002": 44.0889341184,
			"-0.001": 58.0644162573,
			"0.0": 61.84373862,
			"0.001": 54.7816583508,
			"0.002": 39.1146479635,
			"0.003": 13.6734819632,
			"0.004": 7.47559083117,
			"0.005": 7.84977128493,
			"0.006": 7.61971841831,
			"0.007": 6.57722990883,
			"0.008": 5.59645626877,
			"0.009": 5.37190300628,
			"0.01": 5.96431925833,
			"0.011": 5.54651409544,
			"0.012": 2.45671121396,
			"0.013": 2.12668838383,
			"0.014": 1.1981009215,
			"0.015": 0.0,
			"0.016": 0.0,
			"0.017": 0.0,
			"0.018": 0.0,
			"0.019": 0.0,
			"0.02": 0.0,
			"0.021": 0.0,
			"0.022": 0.0,
			"0.023": 0.0,
			"0.024": 0.0,
			"0.025": 0.0
		}
	}
}
