{
	 "smiles": "CC1=CC(C)=C(N1)C=O", 
	 "Tm": 363.65, 
	 "num_atms": 18, 
	 "gaussian": { 
		 "optdone": 1, 
		 "sigma_profile": "yes", 
		 "theory": "DFT", 
		 "functional": "B3LYP", 
		 "basiset": "6-31G**", 
		 "properties": { 
			 "R2extent": 1398.7303, 
			 "electric_dipole_moment_norm": 3.25441992527, 
			 "electric_quadrupole_moment_norm": 9.03576351561, 
			 "total_energy": -402.147949455, 
			 "HOMO_LUMO_gap": 0.17443, 
			 "cosmo_polarized_energy": -9.32, 
			 "cosmo_cavitation_energy": 22.02, 
			 "cosmo_dispersion_energy": -15.94, 
			 "cosmo_repulsion_energy": 1.33, 
			 "cosmo_total_nonelectrostatic_energy": 7.4, 
			 "SMD_solvation_energy": 4.93 
		},
		"coords": [
			{
				"x": -2.4967577201,
				"y": 1.4430223447,
				"z": -0.7081176344,
				"element": "C" 
			},
			{
				"x": -1.4245260931,
				"y": 0.7727063832,
				"z": 0.089276679,
				"element": "C" 
			},
			{
				"x": -1.4915806417,
				"y": 0.1148690717,
				"z": 1.3173003473,
				"element": "C" 
			},
			{
				"x": -0.1990273394,
				"y": -0.350058848,
				"z": 1.6519879046,
				"element": "C" 
			},
			{
				"x": 0.1850365551,
				"y": -1.1112497756,
				"z": 2.8892593273,
				"element": "C" 
			},
			{
				"x": 0.6434519033,
				"y": 0.0405743874,
				"z": 0.6033947351,
				"element": "C" 
			},
			{
				"x": -0.1304071526,
				"y": 0.7165551231,
				"z": -0.3231373579,
				"element": "N" 
			},
			{
				"x": 2.0526132226,
				"y": -0.1316570775,
				"z": 0.3573658306,
				"element": "C" 
			},
			{
				"x": 2.6214657006,
				"y": 0.2945999074,
				"z": -0.6453560346,
				"element": "O" 
			},
			{
				"x": -3.4540867694,
				"y": 1.3669027422,
				"z": -0.1881758763,
				"element": "H" 
			},
			{
				"x": -2.2831581188,
				"y": 2.5074920556,
				"z": -0.8630732795,
				"element": "H" 
			},
			{
				"x": -2.6150657763,
				"y": 0.9843126557,
				"z": -1.6972176223,
				"element": "H" 
			},
			{
				"x": -2.3902048331,
				"y": -0.012112037,
				"z": 1.9067936868,
				"element": "H" 
			},
			{
				"x": -0.6882254512,
				"y": -1.2697759022,
				"z": 3.5276693892,
				"element": "H" 
			},
			{
				"x": 0.9346159317,
				"y": -0.5764030188,
				"z": 3.4832257105,
				"element": "H" 
			},
			{
				"x": 0.6023894189,
				"y": -2.0961240159,
				"z": 2.6514046206,
				"element": "H" 
			},
			{
				"x": 0.2696890166,
				"y": 1.0935576137,
				"z": -1.1708098901,
				"element": "H" 
			},
			{
				"x": 2.6092781468,
				"y": -0.6824116097,
				"z": 1.1433094642,
				"element": "H" 
			}
		],
		 "valence_orbital": [ 
			{
				"type": "occ",
				"energy": -0.35827,
				"method": "rhf"
			},
			{
				"type": "occ",
				"energy": -0.3549,
				"method": "rhf"
			},
			{
				"type": "occ",
				"energy": -0.2467,
				"method": "rhf"
			},
			{
				"type": "occ",
				"energy": -0.24218,
				"method": "rhf"
			},
			{
				"type": "occ",
				"energy": -0.2142,
				"method": "rhf"
			},
			{
				"type": "unocc",
				"energy": -0.03977,
				"method": "rhf"
			},
			{
				"type": "unocc",
				"energy": 0.05756,
				"method": "rhf"
			},
			{
				"type": "unocc",
				"energy": 0.08708,
				"method": "rhf"
			},
			{
				"type": "unocc",
				"energy": 0.10423,
				"method": "rhf"
			},
			{
				"type": "unocc",
				"energy": 0.10753,
				"method": "rhf"
			}
		],
		"cosmo_sigma_profile": { 
			"-0.025": 0.0,
			"-0.024": 0.0,
			"-0.023": 0.0,
			"-0.022": 0.0,
			"-0.021": 0.0,
			"-0.02": 0.0,
			"-0.019": 0.0,
			"-0.018": 0.0,
			"-0.017": 0.0,
			"-0.016": 0.0,
			"-0.015": 0.213687589014,
			"-0.014": 0.727827109195,
			"-0.013": 0.904777395946,
			"-0.012": 0.510574427787,
			"-0.011": 1.18104657733,
			"-0.01": 1.02684115467,
			"-0.009": 0.757252909653,
			"-0.008": 1.20384049476,
			"-0.007": 0.83736883806,
			"-0.006": 2.52806472879,
			"-0.005": 13.570931075,
			"-0.004": 20.253173932,
			"-0.003": 18.6198721961,
			"-0.002": 16.0958505532,
			"-0.001": 17.6133744107,
			"0.0": 15.2431528703,
			"0.001": 9.18540109363,
			"0.002": 9.50586942753,
			"0.003": 7.27485252975,
			"0.004": 6.58444022563,
			"0.005": 7.1871989555,
			"0.006": 4.95334671586,
			"0.007": 1.97004500606,
			"0.008": 1.20934280253,
			"0.009": 1.99647264604,
			"0.01": 1.32238648545,
			"0.011": 1.87835344088,
			"0.012": 3.54442479209,
			"0.013": 3.90181991705,
			"0.014": 1.92693887895,
			"0.015": 0.485859573592,
			"0.016": 0.0,
			"0.017": 0.0,
			"0.018": 0.0,
			"0.019": 0.0,
			"0.02": 0.0,
			"0.021": 0.0,
			"0.022": 0.0,
			"0.023": 0.0,
			"0.024": 0.0,
			"0.025": 0.0
		}
	}
}
