{
	 "smiles": "COC(=O)C1=CC=CC=C1", 
	 "Tm": 259.65, 
	 "num_atms": 18, 
	 "gaussian": { 
		 "optdone": 1, 
		 "sigma_profile": "yes", 
		 "theory": "DFT", 
		 "functional": "B3LYP", 
		 "basiset": "6-31G**", 
		 "properties": { 
			 "R2extent": 1677.3156, 
			 "electric_dipole_moment_norm": 1.84805254525, 
			 "electric_quadrupole_moment_norm": 9.20163626047, 
			 "total_energy": -460.131765625, 
			 "HOMO_LUMO_gap": 0.21351, 
			 "cosmo_polarized_energy": -7.01, 
			 "cosmo_cavitation_energy": 22.29, 
			 "cosmo_dispersion_energy": -16.55, 
			 "cosmo_repulsion_energy": 1.34, 
			 "cosmo_total_nonelectrostatic_energy": 7.09, 
			 "SMD_solvation_energy": 5.51 
		},
		"coords": [
			{
				"x": -0.4787013515,
				"y": -1.4055258089,
				"z": 3.019698652,
				"element": "C" 
			},
			{
				"x": -0.6727026517,
				"y": -0.7778500214,
				"z": 1.7437090368,
				"element": "O" 
			},
			{
				"x": 0.3735871317,
				"y": -0.0425086478,
				"z": 1.2994744369,
				"element": "C" 
			},
			{
				"x": 1.4070060748,
				"y": 0.0838465559,
				"z": 1.9279029575,
				"element": "O" 
			},
			{
				"x": 0.1098386318,
				"y": 0.5819393029,
				"z": -0.0277865738,
				"element": "C" 
			},
			{
				"x": 1.1234177927,
				"y": 1.3695819887,
				"z": -0.5908297486,
				"element": "C" 
			},
			{
				"x": 0.9293507486,
				"y": 1.9763491346,
				"z": -1.829147024,
				"element": "C" 
			},
			{
				"x": -0.2775087838,
				"y": 1.7998405872,
				"z": -2.5115151155,
				"element": "C" 
			},
			{
				"x": -1.2899149403,
				"y": 1.0154278791,
				"z": -1.9532603538,
				"element": "C" 
			},
			{
				"x": -1.100119416,
				"y": 0.4061028568,
				"z": -0.7139324958,
				"element": "C" 
			},
			{
				"x": 0.3715884438,
				"y": -2.0915600339,
				"z": 2.9867373811,
				"element": "H" 
			},
			{
				"x": -1.4014143564,
				"y": -1.9484288636,
				"z": 3.2243165748,
				"element": "H" 
			},
			{
				"x": -0.2938099054,
				"y": -0.6564069147,
				"z": 3.7938779705,
				"element": "H" 
			},
			{
				"x": 2.0504850573,
				"y": 1.4905725605,
				"z": -0.0406674528,
				"element": "H" 
			},
			{
				"x": 1.7162269292,
				"y": 2.5861391343,
				"z": -2.2632683825,
				"element": "H" 
			},
			{
				"x": -0.428961737,
				"y": 2.2731854744,
				"z": -3.4775768772,
				"element": "H" 
			},
			{
				"x": -2.2274218222,
				"y": 0.878839463,
				"z": -2.484318302,
				"element": "H" 
			},
			{
				"x": -1.8800458457,
				"y": -0.2041446471,
				"z": -0.2733146835,
				"element": "H" 
			}
		],
		 "valence_orbital": [ 
			{
				"type": "occ",
				"energy": -0.34485,
				"method": "rhf"
			},
			{
				"type": "occ",
				"energy": -0.3002,
				"method": "rhf"
			},
			{
				"type": "occ",
				"energy": -0.27174,
				"method": "rhf"
			},
			{
				"type": "occ",
				"energy": -0.25851,
				"method": "rhf"
			},
			{
				"type": "occ",
				"energy": -0.25727,
				"method": "rhf"
			},
			{
				"type": "unocc",
				"energy": -0.04376,
				"method": "rhf"
			},
			{
				"type": "unocc",
				"energy": -0.00681,
				"method": "rhf"
			},
			{
				"type": "unocc",
				"energy": 0.05956,
				"method": "rhf"
			},
			{
				"type": "unocc",
				"energy": 0.09168,
				"method": "rhf"
			},
			{
				"type": "unocc",
				"energy": 0.116,
				"method": "rhf"
			}
		],
		"cosmo_sigma_profile": { 
			"-0.025": 0.0,
			"-0.024": 0.0,
			"-0.023": 0.0,
			"-0.022": 0.0,
			"-0.021": 0.0,
			"-0.02": 0.0,
			"-0.019": 0.0,
			"-0.018": 0.0,
			"-0.017": 0.0,
			"-0.016": 0.0,
			"-0.015": 0.0,
			"-0.014": 0.0,
			"-0.013": 0.0,
			"-0.012": 0.0,
			"-0.011": 0.0,
			"-0.01": 0.0,
			"-0.009": 0.0,
			"-0.008": 0.0,
			"-0.007": 1.70183536824,
			"-0.006": 12.131804693,
			"-0.005": 16.6756360128,
			"-0.004": 18.980985093,
			"-0.003": 15.2985683351,
			"-0.002": 14.5090994763,
			"-0.001": 9.57274105996,
			"0.0": 11.0941989269,
			"0.001": 13.4075157857,
			"0.002": 13.2402323648,
			"0.003": 14.62090027,
			"0.004": 15.0403917129,
			"0.005": 4.90622156455,
			"0.006": 3.18605774163,
			"0.007": 1.31202372067,
			"0.008": 1.7289626133,
			"0.009": 1.67024829553,
			"0.01": 1.48200700635,
			"0.011": 2.77207812112,
			"0.012": 4.54918848101,
			"0.013": 0.347444605061,
			"0.014": 0.0,
			"0.015": 0.0,
			"0.016": 0.0,
			"0.017": 0.0,
			"0.018": 0.0,
			"0.019": 0.0,
			"0.02": 0.0,
			"0.021": 0.0,
			"0.022": 0.0,
			"0.023": 0.0,
			"0.024": 0.0,
			"0.025": 0.0
		}
	}
}
