{
	 "smiles": "CC(C)(C)C1=NOC(=N1)C1=C(N)C=CC(Cl)=C1", 
	 "Tm": 406.15, 
	 "num_atms": 31, 
	 "gaussian": { 
		 "optdone": 1, 
		 "sigma_profile": "yes", 
		 "theory": "DFT", 
		 "functional": "B3LYP", 
		 "basiset": "6-31G**", 
		 "properties": { 
			 "R2extent": 6498.0054, 
			 "electric_dipole_moment_norm": 4.59452114045, 
			 "electric_quadrupole_moment_norm": 11.8510994979, 
			 "total_energy": -1165.38164649, 
			 "HOMO_LUMO_gap": 0.15171, 
			 "cosmo_polarized_energy": -10.07, 
			 "cosmo_cavitation_energy": 35.94, 
			 "cosmo_dispersion_energy": -25.84, 
			 "cosmo_repulsion_energy": 2.0, 
			 "cosmo_total_nonelectrostatic_energy": 12.1, 
			 "SMD_solvation_energy": 5.12 
		},
		"coords": [
			{
				"x": -0.3987930486,
				"y": -1.7897021789,
				"z": 2.9853144971,
				"element": "C" 
			},
			{
				"x": 0.9928976596,
				"y": -1.7936928183,
				"z": 2.3133818916,
				"element": "C" 
			},
			{
				"x": 1.5048385152,
				"y": -3.2383753098,
				"z": 2.1744067063,
				"element": "C" 
			},
			{
				"x": 1.981108502,
				"y": -0.9630298527,
				"z": 3.1629655128,
				"element": "C" 
			},
			{
				"x": 0.8689352285,
				"y": -1.1433591917,
				"z": 0.9529059298,
				"element": "C" 
			},
			{
				"x": 1.1684666431,
				"y": -1.7563615191,
				"z": -0.1644226999,
				"element": "N" 
			},
			{
				"x": 0.9063547966,
				"y": -0.7877644411,
				"z": -1.15601315,
				"element": "O" 
			},
			{
				"x": 0.4717922364,
				"y": 0.3170289886,
				"z": -0.5195875427,
				"element": "C" 
			},
			{
				"x": 0.4298390066,
				"y": 0.1533533293,
				"z": 0.7837547694,
				"element": "N" 
			},
			{
				"x": 0.1141757696,
				"y": 1.4876283506,
				"z": -1.2993559457,
				"element": "C" 
			},
			{
				"x": -0.3347720781,
				"y": 2.6815704552,
				"z": -0.6614044237,
				"element": "C" 
			},
			{
				"x": -0.4073760777,
				"y": 2.7922796347,
				"z": 0.6951629796,
				"element": "N" 
			},
			{
				"x": -0.6867212932,
				"y": 3.7740175678,
				"z": -1.4880930141,
				"element": "C" 
			},
			{
				"x": -0.5954691084,
				"y": 3.7011298592,
				"z": -2.8666730664,
				"element": "C" 
			},
			{
				"x": -0.1444454994,
				"y": 2.5218247355,
				"z": -3.4756853714,
				"element": "C" 
			},
			{
				"x": -0.0288705743,
				"y": 2.4377989276,
				"z": -5.2285899488,
				"element": "Cl" 
			},
			{
				"x": 0.2052350253,
				"y": 1.4294450108,
				"z": -2.7045231006,
				"element": "C" 
			},
			{
				"x": -0.7906812455,
				"y": -0.7729103403,
				"z": 3.0769732603,
				"element": "H" 
			},
			{
				"x": -1.1166323729,
				"y": -2.3815474139,
				"z": 2.4083083411,
				"element": "H" 
			},
			{
				"x": -0.3289597375,
				"y": -2.2239071415,
				"z": 3.9881928191,
				"element": "H" 
			},
			{
				"x": 2.4877032234,
				"y": -3.2686862253,
				"z": 1.6961967195,
				"element": "H" 
			},
			{
				"x": 0.8239668673,
				"y": -3.8464793156,
				"z": 1.5724820564,
				"element": "H" 
			},
			{
				"x": 1.5895500027,
				"y": -3.6945926138,
				"z": 3.1659771727,
				"element": "H" 
			},
			{
				"x": 2.979823493,
				"y": -0.9599685058,
				"z": 2.7146328257,
				"element": "H" 
			},
			{
				"x": 1.6468321504,
				"y": 0.0738578525,
				"z": 3.2572670252,
				"element": "H" 
			},
			{
				"x": 2.060876744,
				"y": -1.3926462578,
				"z": 4.1671063825,
				"element": "H" 
			},
			{
				"x": -0.2403183268,
				"y": 1.9680484685,
				"z": 1.2609733365,
				"element": "H" 
			},
			{
				"x": -0.8581698631,
				"y": 3.5951285362,
				"z": 1.1005960355,
				"element": "H" 
			},
			{
				"x": -1.0321021726,
				"y": 4.6922563282,
				"z": -1.0210156176,
				"element": "H" 
			},
			{
				"x": -0.8710039624,
				"y": 4.5538716808,
				"z": -3.4777865473,
				"element": "H" 
			},
			{
				"x": 0.5491194967,
				"y": 0.5155833999,
				"z": -3.1739478329,
				"element": "H" 
			}
		],
		 "valence_orbital": [ 
			{
				"type": "occ",
				"energy": -0.30848,
				"method": "rhf"
			},
			{
				"type": "occ",
				"energy": -0.29831,
				"method": "rhf"
			},
			{
				"type": "occ",
				"energy": -0.29526,
				"method": "rhf"
			},
			{
				"type": "occ",
				"energy": -0.25616,
				"method": "rhf"
			},
			{
				"type": "occ",
				"energy": -0.20885,
				"method": "rhf"
			},
			{
				"type": "unocc",
				"energy": -0.05714,
				"method": "rhf"
			},
			{
				"type": "unocc",
				"energy": -0.00125,
				"method": "rhf"
			},
			{
				"type": "unocc",
				"energy": 0.01657,
				"method": "rhf"
			},
			{
				"type": "unocc",
				"energy": 0.03154,
				"method": "rhf"
			},
			{
				"type": "unocc",
				"energy": 0.05636,
				"method": "rhf"
			}
		],
		"cosmo_sigma_profile": { 
			"-0.025": 0.0,
			"-0.024": 0.0,
			"-0.023": 0.0,
			"-0.022": 0.0,
			"-0.021": 0.0,
			"-0.02": 0.0,
			"-0.019": 0.0,
			"-0.018": 0.0,
			"-0.017": 0.0,
			"-0.016": 0.0,
			"-0.015": 0.0,
			"-0.014": 0.986022027016,
			"-0.013": 1.45848812703,
			"-0.012": 1.65396133195,
			"-0.011": 1.18928713918,
			"-0.01": 1.10894197862,
			"-0.009": 1.880204049,
			"-0.008": 3.02163585844,
			"-0.007": 5.61213659062,
			"-0.006": 5.76652973839,
			"-0.005": 5.9311872059,
			"-0.004": 10.6185694615,
			"-0.003": 28.2375846059,
			"-0.002": 26.2862457541,
			"-0.001": 30.0644100579,
			"0.0": 35.0122749297,
			"0.001": 31.7907388752,
			"0.002": 25.7662188906,
			"0.003": 23.1201918737,
			"0.004": 15.7409833171,
			"0.005": 13.3759406485,
			"0.006": 5.07356900785,
			"0.007": 4.36149379239,
			"0.008": 2.29790554297,
			"0.009": 1.53526651455,
			"0.01": 1.43169411905,
			"0.011": 1.28777413108,
			"0.012": 1.1600618251,
			"0.013": 0.93864557657,
			"0.014": 0.110658730206,
			"0.015": 0.0,
			"0.016": 0.0,
			"0.017": 0.0,
			"0.018": 0.0,
			"0.019": 0.0,
			"0.02": 0.0,
			"0.021": 0.0,
			"0.022": 0.0,
			"0.023": 0.0,
			"0.024": 0.0,
			"0.025": 0.0
		}
	}
}
