{
	 "smiles": "CCCCCCCCCCOC1=CC=C(C=C1)N=NC1=CC=C(CCCC)C=C1", 
	 "Tm": 337.95, 
	 "num_atms": 67, 
	 "gaussian": { 
		 "optdone": 1, 
		 "sigma_profile": "yes", 
		 "theory": "DFT", 
		 "functional": "B3LYP", 
		 "basiset": "6-31G**", 
		 "properties": { 
			 "R2extent": 39753.2991, 
			 "electric_dipole_moment_norm": 1.60691276988, 
			 "electric_quadrupole_moment_norm": 17.6844762297, 
			 "total_energy": -1198.40213529, 
			 "HOMO_LUMO_gap": 0.13456, 
			 "cosmo_polarized_energy": -9.31, 
			 "cosmo_cavitation_energy": 68.74, 
			 "cosmo_dispersion_energy": -47.86, 
			 "cosmo_repulsion_energy": 3.73, 
			 "cosmo_total_nonelectrostatic_energy": 24.61, 
			 "SMD_solvation_energy": 8.86 
		},
		"coords": [
			{
				"x": -1.3733951366,
				"y": 4.9032790309,
				"z": -9.6641013586,
				"element": "C" 
			},
			{
				"x": -0.1313390235,
				"y": 4.069067296,
				"z": -9.3346305189,
				"element": "C" 
			},
			{
				"x": -0.444634987,
				"y": 2.8164971568,
				"z": -8.5062570354,
				"element": "C" 
			},
			{
				"x": 0.7936356629,
				"y": 1.9753852025,
				"z": -8.1718594262,
				"element": "C" 
			},
			{
				"x": 0.4800661617,
				"y": 0.7214570869,
				"z": -7.3451656757,
				"element": "C" 
			},
			{
				"x": 1.726017015,
				"y": -0.1129757787,
				"z": -7.0155073907,
				"element": "C" 
			},
			{
				"x": 1.4461643517,
				"y": -1.4198754614,
				"z": -6.2552774414,
				"element": "C" 
			},
			{
				"x": 0.9011566096,
				"y": -1.2291611315,
				"z": -4.8330899647,
				"element": "C" 
			},
			{
				"x": 0.7090675496,
				"y": -2.5561149084,
				"z": -4.0876089783,
				"element": "C" 
			},
			{
				"x": 0.1738595591,
				"y": -2.39542061,
				"z": -2.671087654,
				"element": "C" 
			},
			{
				"x": 1.1505532118,
				"y": -1.6815467233,
				"z": -1.908347628,
				"element": "O" 
			},
			{
				"x": 0.8956525533,
				"y": -1.3937691136,
				"z": -0.6046358227,
				"element": "C" 
			},
			{
				"x": -0.2799781872,
				"y": -1.7589215248,
				"z": 0.0763910161,
				"element": "C" 
			},
			{
				"x": -0.4405959766,
				"y": -1.4153707025,
				"z": 1.4135168828,
				"element": "C" 
			},
			{
				"x": 0.5606749151,
				"y": -0.7056729141,
				"z": 2.0954677375,
				"element": "C" 
			},
			{
				"x": 1.7312436088,
				"y": -0.3467642053,
				"z": 1.4055477864,
				"element": "C" 
			},
			{
				"x": 1.901303839,
				"y": -0.6842504365,
				"z": 0.0722459132,
				"element": "C" 
			},
			{
				"x": 0.4961118968,
				"y": -0.3096423746,
				"z": 3.4483858724,
				"element": "N" 
			},
			{
				"x": -0.5626039233,
				"y": -0.6393304146,
				"z": 4.0533117313,
				"element": "N" 
			},
			{
				"x": -0.6200155729,
				"y": -0.2395763694,
				"z": 5.4103970284,
				"element": "C" 
			},
			{
				"x": 0.3861956822,
				"y": 0.4711918586,
				"z": 6.0856088679,
				"element": "C" 
			},
			{
				"x": 0.2136993745,
				"y": 0.8106537892,
				"z": 7.4221334939,
				"element": "C" 
			},
			{
				"x": -0.9510421637,
				"y": 0.4578875663,
				"z": 8.1264878608,
				"element": "C" 
			},
			{
				"x": -1.1260374415,
				"y": 0.8116467305,
				"z": 9.5880193633,
				"element": "C" 
			},
			{
				"x": -0.943707939,
				"y": -0.3867425203,
				"z": 10.549666031,
				"element": "C" 
			},
			{
				"x": 0.4661816712,
				"y": -0.9983213136,
				"z": 10.5801922436,
				"element": "C" 
			},
			{
				"x": 1.5426705073,
				"y": -0.0766977979,
				"z": 11.165787462,
				"element": "C" 
			},
			{
				"x": -1.9489476135,
				"y": -0.2487101916,
				"z": 7.4385039469,
				"element": "C" 
			},
			{
				"x": -1.7880824402,
				"y": -0.5940295664,
				"z": 6.1002810529,
				"element": "C" 
			},
			{
				"x": -1.8737519144,
				"y": 5.246618096,
				"z": -8.7513107102,
				"element": "H" 
			},
			{
				"x": -1.1170139372,
				"y": 5.7886829366,
				"z": -10.255171622,
				"element": "H" 
			},
			{
				"x": -2.1018459693,
				"y": 4.3196508589,
				"z": -10.2387562695,
				"element": "H" 
			},
			{
				"x": 0.3670480968,
				"y": 3.7702734992,
				"z": -10.2669996952,
				"element": "H" 
			},
			{
				"x": 0.5931553755,
				"y": 4.6902108674,
				"z": -8.7903778494,
				"element": "H" 
			},
			{
				"x": -1.1702496802,
				"y": 2.1950216016,
				"z": -9.0507884505,
				"element": "H" 
			},
			{
				"x": -0.9439274174,
				"y": 3.1155733091,
				"z": -7.5732995656,
				"element": "H" 
			},
			{
				"x": 1.517712536,
				"y": 2.5972965221,
				"z": -7.6261392087,
				"element": "H" 
			},
			{
				"x": 1.2938516385,
				"y": 1.6786433835,
				"z": -9.1049748852,
				"element": "H" 
			},
			{
				"x": -0.0258846341,
				"y": 1.0231690846,
				"z": -6.4185044942,
				"element": "H" 
			},
			{
				"x": -0.2386234034,
				"y": 0.0954204481,
				"z": -7.8940957306,
				"element": "H" 
			},
			{
				"x": 2.4295311567,
				"y": 0.4995768914,
				"z": -6.4336329163,
				"element": "H" 
			},
			{
				"x": 2.243249653,
				"y": -0.3572304444,
				"z": -7.9533026935,
				"element": "H" 
			},
			{
				"x": 0.7424222984,
				"y": -2.0334993595,
				"z": -6.8365605433,
				"element": "H" 
			},
			{
				"x": 2.377216497,
				"y": -2.000194534,
				"z": -6.1991319316,
				"element": "H" 
			},
			{
				"x": -0.0594027071,
				"y": -0.6979645429,
				"z": -4.8654029402,
				"element": "H" 
			},
			{
				"x": 1.5862444205,
				"y": -0.5937116547,
				"z": -4.258962222,
				"element": "H" 
			},
			{
				"x": 1.6596891902,
				"y": -3.1023345607,
				"z": -4.0417938135,
				"element": "H" 
			},
			{
				"x": 0.0058794416,
				"y": -3.1962197609,
				"z": -4.6371116685,
				"element": "H" 
			},
			{
				"x": -0.0099326589,
				"y": -3.3762333312,
				"z": -2.211159953,
				"element": "H" 
			},
			{
				"x": -0.774130159,
				"y": -1.8381064038,
				"z": -2.6744579899,
				"element": "H" 
			},
			{
				"x": -1.0652035884,
				"y": -2.3075323913,
				"z": -0.4300050314,
				"element": "H" 
			},
			{
				"x": -1.3407708778,
				"y": -1.689540598,
				"z": 1.9519612698,
				"element": "H" 
			},
			{
				"x": 2.4966997923,
				"y": 0.2014540479,
				"z": 1.945706658,
				"element": "H" 
			},
			{
				"x": 2.799746706,
				"y": -0.4132990896,
				"z": -0.472091085,
				"element": "H" 
			},
			{
				"x": 1.2844832885,
				"y": 0.7458012665,
				"z": 5.5444718354,
				"element": "H" 
			},
			{
				"x": 0.994146781,
				"y": 1.3670821592,
				"z": 7.9358212476,
				"element": "H" 
			},
			{
				"x": -0.4280595181,
				"y": 1.6123564651,
				"z": 9.8569261819,
				"element": "H" 
			},
			{
				"x": -2.1333490859,
				"y": 1.2192989252,
				"z": 9.7404198565,
				"element": "H" 
			},
			{
				"x": -1.6644757026,
				"y": -1.1663800066,
				"z": 10.2721722065,
				"element": "H" 
			},
			{
				"x": -1.2175835101,
				"y": -0.0608282878,
				"z": 11.5624525147,
				"element": "H" 
			},
			{
				"x": 0.7534244409,
				"y": -1.3020834612,
				"z": 9.5659143438,
				"element": "H" 
			},
			{
				"x": 0.427864952,
				"y": -1.9203719649,
				"z": 11.1740003724,
				"element": "H" 
			},
			{
				"x": 1.2853420724,
				"y": 0.235028569,
				"z": 12.1850103778,
				"element": "H" 
			},
			{
				"x": 2.512531616,
				"y": -0.5830143149,
				"z": 11.2085092997,
				"element": "H" 
			},
			{
				"x": 1.6766938204,
				"y": 0.8311341206,
				"z": 10.5681028379,
				"element": "H" 
			},
			{
				"x": -2.863643697,
				"y": -0.5249917451,
				"z": 7.9576504021,
				"element": "H" 
			},
			{
				"x": -2.5574590771,
				"y": -1.1371282597,
				"z": 5.5601364696,
				"element": "H" 
			}
		],
		 "valence_orbital": [ 
			{
				"type": "occ",
				"energy": -0.25544,
				"method": "rhf"
			},
			{
				"type": "occ",
				"energy": -0.24895,
				"method": "rhf"
			},
			{
				"type": "occ",
				"energy": -0.24611,
				"method": "rhf"
			},
			{
				"type": "occ",
				"energy": -0.21585,
				"method": "rhf"
			},
			{
				"type": "occ",
				"energy": -0.20449,
				"method": "rhf"
			},
			{
				"type": "unocc",
				"energy": -0.06993,
				"method": "rhf"
			},
			{
				"type": "unocc",
				"energy": -0.00194,
				"method": "rhf"
			},
			{
				"type": "unocc",
				"energy": 0.00182,
				"method": "rhf"
			},
			{
				"type": "unocc",
				"energy": 0.01981,
				"method": "rhf"
			},
			{
				"type": "unocc",
				"energy": 0.05553,
				"method": "rhf"
			}
		],
		"cosmo_sigma_profile": { 
			"-0.025": 0.0,
			"-0.024": 0.0,
			"-0.023": 0.0,
			"-0.022": 0.0,
			"-0.021": 0.0,
			"-0.02": 0.0,
			"-0.019": 0.0,
			"-0.018": 0.0,
			"-0.017": 0.0,
			"-0.016": 0.0,
			"-0.015": 0.0,
			"-0.014": 0.0,
			"-0.013": 0.0,
			"-0.012": 0.0,
			"-0.011": 0.0,
			"-0.01": 0.0,
			"-0.009": 0.0,
			"-0.008": 0.0,
			"-0.007": 1.24705213933,
			"-0.006": 8.70871944215,
			"-0.005": 18.1532057084,
			"-0.004": 27.6540095551,
			"-0.003": 34.7965684079,
			"-0.002": 59.9072644046,
			"-0.001": 83.058400267,
			"0.0": 86.8128605275,
			"0.001": 71.7967584215,
			"0.002": 50.4134790013,
			"0.003": 33.4037114492,
			"0.004": 31.505203192,
			"0.005": 12.5841515448,
			"0.006": 5.43794184847,
			"0.007": 4.95606731315,
			"0.008": 3.36951883687,
			"0.009": 1.93549758922,
			"0.01": 0.0364005666024,
			"0.011": 0.0,
			"0.012": 0.0,
			"0.013": 0.0,
			"0.014": 0.0,
			"0.015": 0.0,
			"0.016": 0.0,
			"0.017": 0.0,
			"0.018": 0.0,
			"0.019": 0.0,
			"0.02": 0.0,
			"0.021": 0.0,
			"0.022": 0.0,
			"0.023": 0.0,
			"0.024": 0.0,
			"0.025": 0.0
		}
	}
}
