{
	 "smiles": "CCOC(=O)C1=C(CCl)NC(=O)NC1C1=CC=CO1", 
	 "Tm": 290.15, 
	 "num_atms": 32, 
	 "gaussian": { 
		 "optdone": 1, 
		 "sigma_profile": "yes", 
		 "theory": "DFT", 
		 "functional": "B3LYP", 
		 "basiset": "6-31G**", 
		 "properties": { 
			 "R2extent": 6738.6626, 
			 "electric_dipole_moment_norm": 5.03004916477, 
			 "electric_quadrupole_moment_norm": 14.389186567, 
			 "total_energy": -1335.7097568, 
			 "HOMO_LUMO_gap": 0.17402, 
			 "cosmo_polarized_energy": -16.89, 
			 "cosmo_cavitation_energy": 38.24, 
			 "cosmo_dispersion_energy": -26.27, 
			 "cosmo_repulsion_energy": 2.08, 
			 "cosmo_total_nonelectrostatic_energy": 14.06, 
			 "SMD_solvation_energy": 8.02 
		},
		"coords": [
			{
				"x": -3.8674535764,
				"y": -0.7250233837,
				"z": -0.0659467508,
				"element": "C" 
			},
			{
				"x": -3.0818339666,
				"y": -0.4747949985,
				"z": 1.2073144794,
				"element": "C" 
			},
			{
				"x": -1.8466363336,
				"y": 0.175287906,
				"z": 0.8331796159,
				"element": "O" 
			},
			{
				"x": -0.9803023279,
				"y": 0.4277686696,
				"z": 1.8463547309,
				"element": "C" 
			},
			{
				"x": -1.2424011157,
				"y": 0.1335855733,
				"z": 3.004335848,
				"element": "O" 
			},
			{
				"x": 0.2443300182,
				"y": 1.0770898215,
				"z": 1.349351031,
				"element": "C" 
			},
			{
				"x": 1.2251722054,
				"y": 1.545379053,
				"z": 2.1745946699,
				"element": "C" 
			},
			{
				"x": 1.2379167931,
				"y": 1.3629177745,
				"z": 3.6713982383,
				"element": "C" 
			},
			{
				"x": 1.8658327639,
				"y": 2.8277750671,
				"z": 4.556111301,
				"element": "Cl" 
			},
			{
				"x": 2.3346249624,
				"y": 2.16423463,
				"z": 1.6468532713,
				"element": "N" 
			},
			{
				"x": 2.4370966096,
				"y": 2.6213466509,
				"z": 0.3254496007,
				"element": "C" 
			},
			{
				"x": 3.3802250046,
				"y": 3.3033099501,
				"z": -0.0386452521,
				"element": "O" 
			},
			{
				"x": 1.3680863003,
				"y": 2.281126002,
				"z": -0.4587283213,
				"element": "N" 
			},
			{
				"x": 0.4472339745,
				"y": 1.1748494424,
				"z": -0.1600321256,
				"element": "C" 
			},
			{
				"x": 0.9029438693,
				"y": -0.1228720725,
				"z": -0.770621551,
				"element": "C" 
			},
			{
				"x": 0.3839907312,
				"y": -0.9279589209,
				"z": -1.7423592601,
				"element": "C" 
			},
			{
				"x": 1.3052420871,
				"y": -2.0147364293,
				"z": -1.9079311488,
				"element": "C" 
			},
			{
				"x": 2.316286104,
				"y": -1.7873589909,
				"z": -1.025922674,
				"element": "C" 
			},
			{
				"x": 2.0880076099,
				"y": -0.6407783657,
				"z": -0.3234910958,
				"element": "O" 
			},
			{
				"x": -3.3081883651,
				"y": -1.371073503,
				"z": -0.7489052615,
				"element": "H" 
			},
			{
				"x": -4.0903828636,
				"y": 0.2139306421,
				"z": -0.58118803,
				"element": "H" 
			},
			{
				"x": -4.8148527997,
				"y": -1.2173787509,
				"z": 0.1741097445,
				"element": "H" 
			},
			{
				"x": -2.8459211359,
				"y": -1.4033600394,
				"z": 1.7357858729,
				"element": "H" 
			},
			{
				"x": -3.6236354874,
				"y": 0.171282767,
				"z": 1.9052354076,
				"element": "H" 
			},
			{
				"x": 1.9105832607,
				"y": 0.5441107334,
				"z": 3.9384342531,
				"element": "H" 
			},
			{
				"x": 0.2425397882,
				"y": 1.1451875151,
				"z": 4.04239114,
				"element": "H" 
			},
			{
				"x": 3.0118326946,
				"y": 2.5764668941,
				"z": 2.275285134,
				"element": "H" 
			},
			{
				"x": 1.5087680327,
				"y": 2.5090010593,
				"z": -1.433818638,
				"element": "H" 
			},
			{
				"x": -0.5128791476,
				"y": 1.411624248,
				"z": -0.6239903488,
				"element": "H" 
			},
			{
				"x": -0.5446022043,
				"y": -0.7684210639,
				"z": -2.2716583926,
				"element": "H" 
			},
			{
				"x": 1.2225663252,
				"y": -2.8474534623,
				"z": -2.5913830416,
				"element": "H" 
			},
			{
				"x": 3.227210189,
				"y": -2.3127644183,
				"z": -0.7844624463,
				"element": "H" 
			}
		],
		 "valence_orbital": [ 
			{
				"type": "occ",
				"energy": -0.27936,
				"method": "rhf"
			},
			{
				"type": "occ",
				"energy": -0.27319,
				"method": "rhf"
			},
			{
				"type": "occ",
				"energy": -0.26425,
				"method": "rhf"
			},
			{
				"type": "occ",
				"energy": -0.23983,
				"method": "rhf"
			},
			{
				"type": "occ",
				"energy": -0.22876,
				"method": "rhf"
			},
			{
				"type": "unocc",
				"energy": -0.05474,
				"method": "rhf"
			},
			{
				"type": "unocc",
				"energy": -0.00071,
				"method": "rhf"
			},
			{
				"type": "unocc",
				"energy": 0.01898,
				"method": "rhf"
			},
			{
				"type": "unocc",
				"energy": 0.04913,
				"method": "rhf"
			},
			{
				"type": "unocc",
				"energy": 0.06568,
				"method": "rhf"
			}
		],
		"cosmo_sigma_profile": { 
			"-0.025": 0.0,
			"-0.024": 0.0,
			"-0.023": 0.0,
			"-0.022": 0.0,
			"-0.021": 0.0,
			"-0.02": 0.0,
			"-0.019": 0.0,
			"-0.018": 0.0,
			"-0.017": 0.0,
			"-0.016": 0.0,
			"-0.015": 0.502512012773,
			"-0.014": 1.15356009016,
			"-0.013": 1.23693690232,
			"-0.012": 1.43531159135,
			"-0.011": 2.05054187862,
			"-0.01": 2.13440381292,
			"-0.009": 6.32902012493,
			"-0.008": 5.80636871787,
			"-0.007": 9.69990824489,
			"-0.006": 10.0780842114,
			"-0.005": 15.3096761033,
			"-0.004": 22.0062737527,
			"-0.003": 23.3932639374,
			"-0.002": 26.5834484379,
			"-0.001": 24.1292172198,
			"0.0": 20.8676595786,
			"0.001": 20.0702005254,
			"0.002": 19.0503130309,
			"0.003": 19.445150808,
			"0.004": 19.3807698118,
			"0.005": 18.9252766498,
			"0.006": 8.61449457585,
			"0.007": 3.15621635093,
			"0.008": 1.99290669151,
			"0.009": 2.4714331523,
			"0.01": 2.98370819083,
			"0.011": 4.23093216769,
			"0.012": 4.96160211939,
			"0.013": 6.63557463861,
			"0.014": 1.65294679403,
			"0.015": 0.0,
			"0.016": 0.0,
			"0.017": 0.0,
			"0.018": 0.0,
			"0.019": 0.0,
			"0.02": 0.0,
			"0.021": 0.0,
			"0.022": 0.0,
			"0.023": 0.0,
			"0.024": 0.0,
			"0.025": 0.0
		}
	}
}
