{
	 "smiles": "CCS(=O)(=O)NCC(O)=O", 
	 "Tm": 359.15, 
	 "num_atms": 19, 
	 "gaussian": { 
		 "optdone": 1, 
		 "sigma_profile": "yes", 
		 "theory": "DFT", 
		 "functional": "B3LYP", 
		 "basiset": "6-31G**", 
		 "properties": { 
			 "R2extent": 2041.7937, 
			 "electric_dipole_moment_norm": 7.06231341488, 
			 "electric_quadrupole_moment_norm": 4.29047236677, 
			 "total_energy": -911.628445533, 
			 "HOMO_LUMO_gap": 0.26699, 
			 "cosmo_polarized_energy": -20.87, 
			 "cosmo_cavitation_energy": 23.7, 
			 "cosmo_dispersion_energy": -17.96, 
			 "cosmo_repulsion_energy": 1.41, 
			 "cosmo_total_nonelectrostatic_energy": 7.15, 
			 "SMD_solvation_energy": 4.13 
		},
		"coords": [
			{
				"x": 2.7255267896,
				"y": -2.2295221969,
				"z": 0.6535769429,
				"element": "C" 
			},
			{
				"x": 2.8204194042,
				"y": -0.8229071091,
				"z": 1.2379885405,
				"element": "C" 
			},
			{
				"x": 1.7177256628,
				"y": 0.3761421446,
				"z": 0.4540225488,
				"element": "S" 
			},
			{
				"x": 1.8100571982,
				"y": 1.6555825235,
				"z": 1.1577545963,
				"element": "O" 
			},
			{
				"x": 1.9481732783,
				"y": 0.3270419606,
				"z": -1.0104490354,
				"element": "O" 
			},
			{
				"x": 0.1824479248,
				"y": -0.2632306482,
				"z": 0.7799396996,
				"element": "N" 
			},
			{
				"x": -0.9459501627,
				"y": 0.6811285624,
				"z": 0.7198700004,
				"element": "C" 
			},
			{
				"x": -1.5446803827,
				"y": 0.9972435941,
				"z": -0.6644763144,
				"element": "C" 
			},
			{
				"x": -0.7573468655,
				"y": 0.9096534442,
				"z": -1.7492764475,
				"element": "O" 
			},
			{
				"x": -2.7040745548,
				"y": 1.3235775792,
				"z": -0.7514900262,
				"element": "O" 
			},
			{
				"x": 3.4910262386,
				"y": -2.8599411143,
				"z": 1.1143639036,
				"element": "H" 
			},
			{
				"x": 1.7544847774,
				"y": -2.68795039,
				"z": 0.8613674784,
				"element": "H" 
			},
			{
				"x": 2.8946694547,
				"y": -2.2187020898,
				"z": -0.4257099816,
				"element": "H" 
			},
			{
				"x": 2.5803385633,
				"y": -0.7823227431,
				"z": 2.3027320078,
				"element": "H" 
			},
			{
				"x": 3.8118704532,
				"y": -0.3847559257,
				"z": 1.0864586393,
				"element": "H" 
			},
			{
				"x": 0.0302845547,
				"y": -1.0895199647,
				"z": 0.2049008608,
				"element": "H" 
			},
			{
				"x": -1.7608523666,
				"y": 0.2832428822,
				"z": 1.3278983512,
				"element": "H" 
			},
			{
				"x": -0.6224907597,
				"y": 1.6183536566,
				"z": 1.1830696533,
				"element": "H" 
			},
			{
				"x": 0.1869707925,
				"y": 0.7280858345,
				"z": -1.5602414178,
				"element": "H" 
			}
		],
		 "valence_orbital": [ 
			{
				"type": "occ",
				"energy": -0.33505,
				"method": "rhf"
			},
			{
				"type": "occ",
				"energy": -0.32956,
				"method": "rhf"
			},
			{
				"type": "occ",
				"energy": -0.31014,
				"method": "rhf"
			},
			{
				"type": "occ",
				"energy": -0.30168,
				"method": "rhf"
			},
			{
				"type": "occ",
				"energy": -0.26347,
				"method": "rhf"
			},
			{
				"type": "unocc",
				"energy": 0.00352,
				"method": "rhf"
			},
			{
				"type": "unocc",
				"energy": 0.03434,
				"method": "rhf"
			},
			{
				"type": "unocc",
				"energy": 0.03799,
				"method": "rhf"
			},
			{
				"type": "unocc",
				"energy": 0.05927,
				"method": "rhf"
			},
			{
				"type": "unocc",
				"energy": 0.0624,
				"method": "rhf"
			}
		],
		"cosmo_sigma_profile": { 
			"-0.025": 0.0,
			"-0.024": 0.0,
			"-0.023": 0.0,
			"-0.022": 0.0,
			"-0.021": 0.0,
			"-0.02": 0.0,
			"-0.019": 0.0,
			"-0.018": 0.0,
			"-0.017": 0.083231657317,
			"-0.016": 1.0953542271,
			"-0.015": 1.46486411904,
			"-0.014": 1.85008238077,
			"-0.013": 1.16152183493,
			"-0.012": 1.62939465479,
			"-0.011": 1.79446137667,
			"-0.01": 2.44501684316,
			"-0.009": 5.0582628913,
			"-0.008": 8.29840864905,
			"-0.007": 9.74064922374,
			"-0.006": 10.2996123882,
			"-0.005": 15.3045895905,
			"-0.004": 12.7007036377,
			"-0.003": 11.6221317162,
			"-0.002": 10.9315680894,
			"-0.001": 8.79573372227,
			"0.0": 5.33202185692,
			"0.001": 5.12452076233,
			"0.002": 4.80500484563,
			"0.003": 4.78243382315,
			"0.004": 4.62913491354,
			"0.005": 4.70775871635,
			"0.006": 4.01866058801,
			"0.007": 5.84305950183,
			"0.008": 6.64583794805,
			"0.009": 7.79448972273,
			"0.01": 10.818820213,
			"0.011": 9.96816738026,
			"0.012": 5.87204482923,
			"0.013": 2.06947144072,
			"0.014": 0.11087210003,
			"0.015": 0.0,
			"0.016": 0.0,
			"0.017": 0.0,
			"0.018": 0.0,
			"0.019": 0.0,
			"0.02": 0.0,
			"0.021": 0.0,
			"0.022": 0.0,
			"0.023": 0.0,
			"0.024": 0.0,
			"0.025": 0.0
		}
	}
}
