{
	 "smiles": "OC(=O)C1=C(F)C=CC(I)=C1", 
	 "Tm": 436.15, 
	 "num_atms": 15, 
	 "gaussian": { 
		 "optdone": 1, 
		 "sigma_profile": "no", 
		 "theory": "DFT", 
		 "functional": "B3LYP", 
		 "basiset": "6-31G**", 
		 "properties": { 
			 "R2extent": 1998.7354, 
			 "electric_dipole_moment_norm": 1.88535000995, 
			 "electric_quadrupole_moment_norm": 5.77481406541, 
			 "total_energy": -530.833904997, 
			 "HOMO_LUMO_gap": 0.18217, 
			 "cosmo_polarized_energy": -96810.89, 
			 "cosmo_cavitation_energy": 23.8, 
			 "cosmo_dispersion_energy": -18.94, 
			 "cosmo_repulsion_energy": 1.47, 
			 "cosmo_total_nonelectrostatic_energy": 6.33, 
			 "SMD_solvation_energy": 4.96 
		},
		"coords": [
			{
				"x": -2.0687099826,
				"y": 2.9225444226,
				"z": -0.5371721794,
				"element": "O" 
			},
			{
				"x": -1.9593988584,
				"y": 1.7695965309,
				"z": 0.1538798747,
				"element": "C" 
			},
			{
				"x": -2.7900416269,
				"y": 1.4167573032,
				"z": 0.9678975576,
				"element": "O" 
			},
			{
				"x": -0.7383391987,
				"y": 0.9744944447,
				"z": -0.1684321806,
				"element": "C" 
			},
			{
				"x": 0.2491821435,
				"y": 1.3327476999,
				"z": -1.0959186006,
				"element": "C" 
			},
			{
				"x": 0.1622184214,
				"y": 2.4726876285,
				"z": -1.7942691922,
				"element": "F" 
			},
			{
				"x": 1.3565628194,
				"y": 0.521451427,
				"z": -1.3280423085,
				"element": "C" 
			},
			{
				"x": 1.4982129615,
				"y": -0.6746406633,
				"z": -0.6302209659,
				"element": "C" 
			},
			{
				"x": 0.5216671651,
				"y": -1.048434512,
				"z": 0.2998850083,
				"element": "C" 
			},
			{
				"x": 0.7296641801,
				"y": -2.866357596,
				"z": 1.3655464476,
				"element": "I" 
			},
			{
				"x": -0.58183877,
				"y": -0.236014633,
				"z": 0.5285553827,
				"element": "C" 
			},
			{
				"x": -2.896475191,
				"y": 3.330868432,
				"z": -0.2316981379,
				"element": "H" 
			},
			{
				"x": 2.0949519596,
				"y": 0.8403741549,
				"z": -2.0554586783,
				"element": "H" 
			},
			{
				"x": 2.3607259857,
				"y": -1.3059496207,
				"z": -0.8114190739,
				"element": "H" 
			},
			{
				"x": -1.3514820088,
				"y": -0.5025250188,
				"z": 1.2428670465,
				"element": "H" 
			}
		],
		 "valence_orbital": [ 
			{
				"type": "occ",
				"energy": -0.30203,
				"method": "rhf"
			},
			{
				"type": "occ",
				"energy": -0.29042,
				"method": "rhf"
			},
			{
				"type": "occ",
				"energy": -0.28458,
				"method": "rhf"
			},
			{
				"type": "occ",
				"energy": -0.27643,
				"method": "rhf"
			},
			{
				"type": "occ",
				"energy": -0.24778,
				"method": "rhf"
			},
			{
				"type": "unocc",
				"energy": -0.06561,
				"method": "rhf"
			},
			{
				"type": "unocc",
				"energy": -0.04744,
				"method": "rhf"
			},
			{
				"type": "unocc",
				"energy": -0.02758,
				"method": "rhf"
			},
			{
				"type": "unocc",
				"energy": 0.03443,
				"method": "rhf"
			},
			{
				"type": "unocc",
				"energy": 0.04087,
				"method": "rhf"
			}
		],
		"cosmo_sigma_profile": { 
			"0.0": 0.0,
			"0.0": 0.0,
			"0.0": 0.0,
			"0.0": 0.0,
			"0.0": 0.0,
			"0.0": 0.0,
			"0.0": 0.0,
			"0.0": 0.0,
			"0.0": 0.0,
			"0.0": 0.0,
			"0.0": 0.0,
			"0.0": 0.0,
			"0.0": 0.0,
			"0.0": 0.0,
			"0.0": 0.0,
			"0.0": 0.0,
			"0.0": 0.0,
			"0.0": 0.0,
			"0.0": 0.0,
			"0.0": 0.0,
			"0.0": 0.0,
			"0.0": 0.0,
			"0.0": 0.0,
			"0.0": 0.0,
			"0.0": 0.0,
			"0.0": 0.0,
			"0.0": 0.0,
			"0.0": 0.0,
			"0.0": 0.0,
			"0.0": 0.0,
			"0.0": 0.0,
			"0.0": 0.0,
			"0.0": 0.0,
			"0.0": 0.0,
			"0.0": 0.0,
			"0.0": 0.0,
			"0.0": 0.0,
			"0.0": 0.0,
			"0.0": 0.0,
			"0.0": 0.0,
			"0.0": 0.0,
			"0.0": 0.0,
			"0.0": 0.0,
			"0.0": 0.0,
			"0.0": 0.0,
			"0.0": 0.0,
			"0.0": 0.0,
			"0.0": 0.0,
			"0.0": 0.0,
			"0.0": 0.0,
			"0.0": 0.0
		}
	}
}
