{
	 "smiles": "NC(=O)CNC(=O)C1=CC=C(N)C=C1", 
	 "Tm": 490.15, 
	 "num_atms": 25, 
	 "gaussian": { 
		 "optdone": 1, 
		 "sigma_profile": "yes", 
		 "theory": "DFT", 
		 "functional": "B3LYP", 
		 "basiset": "6-31G**", 
		 "properties": { 
			 "R2extent": 4601.831, 
			 "electric_dipole_moment_norm": 6.60273321057, 
			 "electric_quadrupole_moment_norm": 10.9338669642, 
			 "total_energy": -664.332887001, 
			 "HOMO_LUMO_gap": 0.18396, 
			 "cosmo_polarized_energy": -21.95, 
			 "cosmo_cavitation_energy": 29.26, 
			 "cosmo_dispersion_energy": -21.73, 
			 "cosmo_repulsion_energy": 1.73, 
			 "cosmo_total_nonelectrostatic_energy": 9.26, 
			 "SMD_solvation_energy": 5.54 
		},
		"coords": [
			{
				"x": -4.3508218328,
				"y": -2.4323899157,
				"z": -0.6361616392,
				"element": "N" 
			},
			{
				"x": -3.6974414571,
				"y": -2.7200062015,
				"z": -1.7923148733,
				"element": "C" 
			},
			{
				"x": -3.7199231388,
				"y": -3.8094245384,
				"z": -2.3490354122,
				"element": "O" 
			},
			{
				"x": -2.9184548836,
				"y": -1.5239103391,
				"z": -2.377769491,
				"element": "C" 
			},
			{
				"x": -1.773782268,
				"y": -1.1180775696,
				"z": -1.5696429068,
				"element": "N" 
			},
			{
				"x": -1.9061345153,
				"y": -0.2967908791,
				"z": -0.4882314407,
				"element": "C" 
			},
			{
				"x": -3.024599807,
				"y": 0.0978988949,
				"z": -0.1263209267,
				"element": "O" 
			},
			{
				"x": -0.6648461149,
				"y": 0.1162743184,
				"z": 0.2279245167,
				"element": "C" 
			},
			{
				"x": -0.7794966763,
				"y": 1.1495839228,
				"z": 1.171741554,
				"element": "C" 
			},
			{
				"x": 0.3213753546,
				"y": 1.605369377,
				"z": 1.8798375845,
				"element": "C" 
			},
			{
				"x": 1.5911441053,
				"y": 1.0297453739,
				"z": 1.6776695601,
				"element": "C" 
			},
			{
				"x": 2.6850955389,
				"y": 1.4443110895,
				"z": 2.4198769285,
				"element": "N" 
			},
			{
				"x": 1.709369393,
				"y": -0.0183011017,
				"z": 0.744530892,
				"element": "C" 
			},
			{
				"x": 0.6003911331,
				"y": -0.461676927,
				"z": 0.036083133,
				"element": "C" 
			},
			{
				"x": -4.2168636098,
				"y": -1.5295278565,
				"z": -0.1909410964,
				"element": "H" 
			},
			{
				"x": -4.8199272232,
				"y": -3.1850457778,
				"z": -0.1554981081,
				"element": "H" 
			},
			{
				"x": -2.5632472302,
				"y": -1.8264939752,
				"z": -3.3629869555,
				"element": "H" 
			},
			{
				"x": -3.5893994511,
				"y": -0.6644099845,
				"z": -2.4785768397,
				"element": "H" 
			},
			{
				"x": -0.8592967467,
				"y": -1.4179850971,
				"z": -1.8647950481,
				"element": "H" 
			},
			{
				"x": -1.7592256121,
				"y": 1.5869796887,
				"z": 1.3301056282,
				"element": "H" 
			},
			{
				"x": 0.2079828179,
				"y": 2.4094379209,
				"z": 2.6026713329,
				"element": "H" 
			},
			{
				"x": 3.5968198477,
				"y": 1.2366000777,
				"z": 2.0396350711,
				"element": "H" 
			},
			{
				"x": 2.6255468143,
				"y": 2.3608989722,
				"z": 2.8386526648,
				"element": "H" 
			},
			{
				"x": 2.6760405303,
				"y": -0.4900407433,
				"z": 0.5884858126,
				"element": "H" 
			},
			{
				"x": 0.741195032,
				"y": -1.2900187295,
				"z": -0.6534399407,
				"element": "H" 
			}
		],
		 "valence_orbital": [ 
			{
				"type": "occ",
				"energy": -0.26103,
				"method": "rhf"
			},
			{
				"type": "occ",
				"energy": -0.25985,
				"method": "rhf"
			},
			{
				"type": "occ",
				"energy": -0.25134,
				"method": "rhf"
			},
			{
				"type": "occ",
				"energy": -0.23065,
				"method": "rhf"
			},
			{
				"type": "occ",
				"energy": -0.21487,
				"method": "rhf"
			},
			{
				"type": "unocc",
				"energy": -0.03091,
				"method": "rhf"
			},
			{
				"type": "unocc",
				"energy": -0.01012,
				"method": "rhf"
			},
			{
				"type": "unocc",
				"energy": 0.03419,
				"method": "rhf"
			},
			{
				"type": "unocc",
				"energy": 0.06004,
				"method": "rhf"
			},
			{
				"type": "unocc",
				"energy": 0.06872,
				"method": "rhf"
			}
		],
		"cosmo_sigma_profile": { 
			"-0.025": 0.0,
			"-0.024": 0.0,
			"-0.023": 0.0,
			"-0.022": 0.0,
			"-0.021": 0.0,
			"-0.02": 0.0,
			"-0.019": 0.0,
			"-0.018": 0.0,
			"-0.017": 0.0,
			"-0.016": 0.096126066797,
			"-0.015": 1.1961450283,
			"-0.014": 1.52937982624,
			"-0.013": 4.21856859365,
			"-0.012": 5.7456106408,
			"-0.011": 4.96899117339,
			"-0.01": 5.731841911,
			"-0.009": 5.45708461091,
			"-0.008": 6.31409287342,
			"-0.007": 7.19160889938,
			"-0.006": 10.8414127497,
			"-0.005": 11.6456891542,
			"-0.004": 12.3522329301,
			"-0.003": 11.3278867856,
			"-0.002": 9.43762399397,
			"-0.001": 9.59637557644,
			"0.0": 11.5712281346,
			"0.001": 14.4339541177,
			"0.002": 13.7865378756,
			"0.003": 11.927712638,
			"0.004": 13.7579088016,
			"0.005": 16.1687475232,
			"0.006": 6.74900298083,
			"0.007": 3.76687876373,
			"0.008": 3.2469246989,
			"0.009": 4.01358313623,
			"0.01": 2.22307289014,
			"0.011": 3.18598209242,
			"0.012": 5.14767242845,
			"0.013": 6.42571725226,
			"0.014": 5.9513142943,
			"0.015": 1.91514500012,
			"0.016": 0.0,
			"0.017": 0.0,
			"0.018": 0.0,
			"0.019": 0.0,
			"0.02": 0.0,
			"0.021": 0.0,
			"0.022": 0.0,
			"0.023": 0.0,
			"0.024": 0.0,
			"0.025": 0.0
		}
	}
}
