{
	 "smiles": "CC(C)(C)S(=O)CC1=CC(N)=CC=C1", 
	 "Tm": 395.15, 
	 "num_atms": 31, 
	 "gaussian": { 
		 "optdone": 1, 
		 "sigma_profile": "yes", 
		 "theory": "DFT", 
		 "functional": "B3LYP", 
		 "basiset": "6-31G**", 
		 "properties": { 
			 "R2extent": 3685.576, 
			 "electric_dipole_moment_norm": 2.69576966746, 
			 "electric_quadrupole_moment_norm": 12.8630188992, 
			 "total_energy": -957.55047046, 
			 "HOMO_LUMO_gap": 0.19306, 
			 "cosmo_polarized_energy": -15.5, 
			 "cosmo_cavitation_energy": 32.96, 
			 "cosmo_dispersion_energy": -23.36, 
			 "cosmo_repulsion_energy": 1.78, 
			 "cosmo_total_nonelectrostatic_energy": 11.38, 
			 "SMD_solvation_energy": 4.97 
		},
		"coords": [
			{
				"x": -0.6425664393,
				"y": -0.1736164617,
				"z": -1.6433650483,
				"element": "C" 
			},
			{
				"x": -1.0263036087,
				"y": -1.6362862095,
				"z": -1.4152029942,
				"element": "C" 
			},
			{
				"x": -2.2162644367,
				"y": -1.8134722204,
				"z": -0.4689084658,
				"element": "C" 
			},
			{
				"x": -1.2928255911,
				"y": -2.3330906761,
				"z": -2.7617821875,
				"element": "C" 
			},
			{
				"x": 0.4601433143,
				"y": -2.6093330306,
				"z": -0.7396664881,
				"element": "S" 
			},
			{
				"x": 1.6848319014,
				"y": -2.1040213998,
				"z": -1.486534458,
				"element": "O" 
			},
			{
				"x": 0.6148781718,
				"y": -2.045123033,
				"z": 1.0447711351,
				"element": "C" 
			},
			{
				"x": 0.915453659,
				"y": -0.5977162325,
				"z": 1.3082505253,
				"element": "C" 
			},
			{
				"x": 2.0945187043,
				"y": -0.0294803791,
				"z": 0.8135542392,
				"element": "C" 
			},
			{
				"x": 2.3907997909,
				"y": 1.3244148326,
				"z": 1.039554044,
				"element": "C" 
			},
			{
				"x": 3.5875636058,
				"y": 1.8694417543,
				"z": 0.5741276883,
				"element": "N" 
			},
			{
				"x": 1.4911019361,
				"y": 2.1020851075,
				"z": 1.7908078214,
				"element": "C" 
			},
			{
				"x": 0.3253252284,
				"y": 1.5310881282,
				"z": 2.2938856439,
				"element": "C" 
			},
			{
				"x": 0.0264818875,
				"y": 0.1884680426,
				"z": 2.0573298027,
				"element": "C" 
			},
			{
				"x": 0.3369814371,
				"y": -0.119497822,
				"z": -2.1272326184,
				"element": "H" 
			},
			{
				"x": -1.3818259117,
				"y": 0.3004013427,
				"z": -2.2998891595,
				"element": "H" 
			},
			{
				"x": -0.5990985227,
				"y": 0.3898664542,
				"z": -0.7098698787,
				"element": "H" 
			},
			{
				"x": -2.3835086856,
				"y": -2.8675899856,
				"z": -0.2166294261,
				"element": "H" 
			},
			{
				"x": -3.1266835475,
				"y": -1.4494995064,
				"z": -0.9590094469,
				"element": "H" 
			},
			{
				"x": -2.0911255502,
				"y": -1.2448895468,
				"z": 0.4559649626,
				"element": "H" 
			},
			{
				"x": -2.1238178399,
				"y": -1.8342282504,
				"z": -3.2726681974,
				"element": "H" 
			},
			{
				"x": -1.5597212819,
				"y": -3.3866577389,
				"z": -2.6271845977,
				"element": "H" 
			},
			{
				"x": -0.4123094221,
				"y": -2.2800699372,
				"z": -3.4085437421,
				"element": "H" 
			},
			{
				"x": 1.4387274676,
				"y": -2.6853352482,
				"z": 1.3784769592,
				"element": "H" 
			},
			{
				"x": -0.2927647647,
				"y": -2.3840570383,
				"z": 1.5517916607,
				"element": "H" 
			},
			{
				"x": 2.7661046153,
				"y": -0.637884618,
				"z": 0.2163651853,
				"element": "H" 
			},
			{
				"x": 4.0009874656,
				"y": 1.3842083668,
				"z": -0.2103742531,
				"element": "H" 
			},
			{
				"x": 3.5832995993,
				"y": 2.8711474383,
				"z": 0.4409037462,
				"element": "H" 
			},
			{
				"x": 1.7166075452,
				"y": 3.1478545343,
				"z": 1.9848728757,
				"element": "H" 
			},
			{
				"x": -0.357487631,
				"y": 2.1413597348,
				"z": 2.8787761617,
				"element": "H" 
			},
			{
				"x": -0.8817030965,
				"y": -0.2493864017,
				"z": 2.4622285106,
				"element": "H" 
			}
		],
		 "valence_orbital": [ 
			{
				"type": "occ",
				"energy": -0.30252,
				"method": "rhf"
			},
			{
				"type": "occ",
				"energy": -0.25687,
				"method": "rhf"
			},
			{
				"type": "occ",
				"energy": -0.23531,
				"method": "rhf"
			},
			{
				"type": "occ",
				"energy": -0.21374,
				"method": "rhf"
			},
			{
				"type": "occ",
				"energy": -0.19869,
				"method": "rhf"
			},
			{
				"type": "unocc",
				"energy": -0.00563,
				"method": "rhf"
			},
			{
				"type": "unocc",
				"energy": 0.0145,
				"method": "rhf"
			},
			{
				"type": "unocc",
				"energy": 0.04831,
				"method": "rhf"
			},
			{
				"type": "unocc",
				"energy": 0.05549,
				"method": "rhf"
			},
			{
				"type": "unocc",
				"energy": 0.07722,
				"method": "rhf"
			}
		],
		"cosmo_sigma_profile": { 
			"-0.025": 0.0,
			"-0.024": 0.0,
			"-0.023": 0.0,
			"-0.022": 0.0,
			"-0.021": 0.0,
			"-0.02": 0.0,
			"-0.019": 0.0,
			"-0.018": 0.0,
			"-0.017": 0.0,
			"-0.016": 0.0,
			"-0.015": 0.0,
			"-0.014": 0.0,
			"-0.013": 0.0427871774669,
			"-0.012": 2.31779662106,
			"-0.011": 2.51421439289,
			"-0.01": 2.53075243463,
			"-0.009": 3.20733028899,
			"-0.008": 3.15811344881,
			"-0.007": 5.52642789541,
			"-0.006": 10.4631670794,
			"-0.005": 12.9899226082,
			"-0.004": 24.9060928404,
			"-0.003": 23.27684869,
			"-0.002": 21.0624208942,
			"-0.001": 23.358683537,
			"0.0": 27.1982800135,
			"0.001": 16.2904774055,
			"0.002": 9.69373677122,
			"0.003": 10.867934761,
			"0.004": 11.5377235495,
			"0.005": 9.64406519842,
			"0.006": 9.7196100799,
			"0.007": 5.80044307449,
			"0.008": 2.43081119193,
			"0.009": 2.50474199851,
			"0.01": 2.15140544301,
			"0.011": 2.10136047873,
			"0.012": 2.23670631424,
			"0.013": 2.47069997163,
			"0.014": 3.63158596872,
			"0.015": 2.62316761688,
			"0.016": 2.03194902264,
			"0.017": 0.25051125176,
			"0.018": 0.0,
			"0.019": 0.0,
			"0.02": 0.0,
			"0.021": 0.0,
			"0.022": 0.0,
			"0.023": 0.0,
			"0.024": 0.0,
			"0.025": 0.0
		}
	}
}
