{
	 "smiles": "SC1=NN=C(N1CC1=CC=CO1)C1=CC=C(Cl)C=C1", 
	 "Tm": 391.15, 
	 "num_atms": 29, 
	 "gaussian": { 
		 "optdone": 1, 
		 "sigma_profile": "yes", 
		 "theory": "DFT", 
		 "functional": "B3LYP", 
		 "basiset": "6-31G**", 
		 "properties": { 
			 "R2extent": 7232.0638, 
			 "electric_dipole_moment_norm": 5.5526199969, 
			 "electric_quadrupole_moment_norm": 20.5983452644, 
			 "total_energy": -1599.21325504, 
			 "HOMO_LUMO_gap": 0.18702, 
			 "cosmo_polarized_energy": -17.77, 
			 "cosmo_cavitation_energy": 37.35, 
			 "cosmo_dispersion_energy": -26.69, 
			 "cosmo_repulsion_energy": 2.0, 
			 "cosmo_total_nonelectrostatic_energy": 12.66, 
			 "SMD_solvation_energy": 4.28 
		},
		"coords": [
			{
				"x": 1.606247481,
				"y": -0.6680288029,
				"z": 3.7547263283,
				"element": "S" 
			},
			{
				"x": 1.5682116026,
				"y": -0.7178412929,
				"z": 1.9904653566,
				"element": "C" 
			},
			{
				"x": 2.5983310209,
				"y": -1.0287375649,
				"z": 1.2383680961,
				"element": "N" 
			},
			{
				"x": 2.1573961453,
				"y": -1.0711954759,
				"z": -0.0606284106,
				"element": "N" 
			},
			{
				"x": 0.8712513283,
				"y": -0.7728813556,
				"z": -0.0729527732,
				"element": "C" 
			},
			{
				"x": 0.4340228646,
				"y": -0.5483265387,
				"z": 1.2190220988,
				"element": "N" 
			},
			{
				"x": -0.9196144225,
				"y": -0.3496849722,
				"z": 1.7173709074,
				"element": "C" 
			},
			{
				"x": -1.202380697,
				"y": 1.088313447,
				"z": 2.0364728002,
				"element": "C" 
			},
			{
				"x": -0.5210164704,
				"y": 2.2569270267,
				"z": 1.8541260723,
				"element": "C" 
			},
			{
				"x": -1.3547739977,
				"y": 3.2944172677,
				"z": 2.3958630619,
				"element": "C" 
			},
			{
				"x": -2.4721649217,
				"y": 2.6785218261,
				"z": 2.8635233929,
				"element": "C" 
			},
			{
				"x": -2.3952990117,
				"y": 1.3290377772,
				"z": 2.6536390229,
				"element": "O" 
			},
			{
				"x": 0.0612269188,
				"y": -0.7135453403,
				"z": -1.2970961597,
				"element": "C" 
			},
			{
				"x": -0.9922668833,
				"y": 0.197083486,
				"z": -1.4775953908,
				"element": "C" 
			},
			{
				"x": -1.7141055285,
				"y": 0.2236579322,
				"z": -2.6702176812,
				"element": "C" 
			},
			{
				"x": -1.372601923,
				"y": -0.6577104858,
				"z": -3.6944311363,
				"element": "C" 
			},
			{
				"x": -2.2809138582,
				"y": -0.6300521944,
				"z": -5.1962485907,
				"element": "Cl" 
			},
			{
				"x": -0.3151579023,
				"y": -1.5573151076,
				"z": -3.5467122018,
				"element": "C" 
			},
			{
				"x": 0.3949689362,
				"y": -1.5817049911,
				"z": -2.3510967132,
				"element": "C" 
			},
			{
				"x": 1.0598135728,
				"y": 0.561495765,
				"z": 3.8833561382,
				"element": "H" 
			},
			{
				"x": -1.6179913588,
				"y": -0.731256089,
				"z": 0.9660577449,
				"element": "H" 
			},
			{
				"x": -1.0440818969,
				"y": -0.9610551857,
				"z": 2.618415697,
				"element": "H" 
			},
			{
				"x": 0.4489925584,
				"y": 2.3695210461,
				"z": 1.3918242868,
				"element": "H" 
			},
			{
				"x": -1.1402916051,
				"y": 4.3526593993,
				"z": 2.4281372214,
				"element": "H" 
			},
			{
				"x": -3.3707895347,
				"y": 3.0260651307,
				"z": 3.3485713755,
				"element": "H" 
			},
			{
				"x": -1.2339944947,
				"y": 0.918596028,
				"z": -0.7038046609,
				"element": "H" 
			},
			{
				"x": -2.5242426421,
				"y": 0.9309017371,
				"z": -2.8081613215,
				"element": "H" 
			},
			{
				"x": -0.057335709,
				"y": -2.2309779058,
				"z": -4.3562216629,
				"element": "H" 
			},
			{
				"x": 1.2213604289,
				"y": -2.2711845663,
				"z": -2.2186728986,
				"element": "H" 
			}
		],
		 "valence_orbital": [ 
			{
				"type": "occ",
				"energy": -0.27532,
				"method": "rhf"
			},
			{
				"type": "occ",
				"energy": -0.26966,
				"method": "rhf"
			},
			{
				"type": "occ",
				"energy": -0.25934,
				"method": "rhf"
			},
			{
				"type": "occ",
				"energy": -0.24685,
				"method": "rhf"
			},
			{
				"type": "occ",
				"energy": -0.23369,
				"method": "rhf"
			},
			{
				"type": "unocc",
				"energy": -0.04667,
				"method": "rhf"
			},
			{
				"type": "unocc",
				"energy": -0.02589,
				"method": "rhf"
			},
			{
				"type": "unocc",
				"energy": -0.01161,
				"method": "rhf"
			},
			{
				"type": "unocc",
				"energy": -0.00317,
				"method": "rhf"
			},
			{
				"type": "unocc",
				"energy": 0.02288,
				"method": "rhf"
			}
		],
		"cosmo_sigma_profile": { 
			"-0.025": 0.0,
			"-0.024": 0.0,
			"-0.023": 0.0,
			"-0.022": 0.0,
			"-0.021": 0.0,
			"-0.02": 0.0,
			"-0.019": 0.0,
			"-0.018": 0.0,
			"-0.017": 0.0,
			"-0.016": 0.0,
			"-0.015": 0.0,
			"-0.014": 0.0,
			"-0.013": 0.0,
			"-0.012": 0.0127721138199,
			"-0.011": 0.715539871172,
			"-0.01": 1.34920951022,
			"-0.009": 2.25486948074,
			"-0.008": 8.65455002441,
			"-0.007": 17.9821261581,
			"-0.006": 20.7787072067,
			"-0.005": 19.9307407935,
			"-0.004": 17.597028753,
			"-0.003": 16.3849462963,
			"-0.002": 19.0268746701,
			"-0.001": 18.3562505621,
			"0.0": 19.0440600202,
			"0.001": 23.7988371489,
			"0.002": 31.234488985,
			"0.003": 23.9124140385,
			"0.004": 18.9610646993,
			"0.005": 11.5005761759,
			"0.006": 6.36297069677,
			"0.007": 4.89324201722,
			"0.008": 4.16449817338,
			"0.009": 2.36209470795,
			"0.01": 1.47694608263,
			"0.011": 2.20453678568,
			"0.012": 3.37971623453,
			"0.013": 3.53484379797,
			"0.014": 2.63023355481,
			"0.015": 2.22856054096,
			"0.016": 1.23738850827,
			"0.017": 0.0756007719473,
			"0.018": 0.0,
			"0.019": 0.0,
			"0.02": 0.0,
			"0.021": 0.0,
			"0.022": 0.0,
			"0.023": 0.0,
			"0.024": 0.0,
			"0.025": 0.0
		}
	}
}
