{
	 "smiles": "NC1=C(Cl)C=C(C=C1Cl)S(Cl)(=O)=O", 
	 "Tm": 408.15, 
	 "num_atms": 17, 
	 "gaussian": { 
		 "optdone": 1, 
		 "sigma_profile": "yes", 
		 "theory": "DFT", 
		 "functional": "B3LYP", 
		 "basiset": "6-31G**", 
		 "properties": { 
			 "R2extent": 5241.9633, 
			 "electric_dipole_moment_norm": 6.50969582546, 
			 "electric_quadrupole_moment_norm": 9.61476466119, 
			 "total_energy": -2214.94901347, 
			 "HOMO_LUMO_gap": 0.15822, 
			 "cosmo_polarized_energy": -11.79, 
			 "cosmo_cavitation_energy": 28.57, 
			 "cosmo_dispersion_energy": -21.88, 
			 "cosmo_repulsion_energy": 1.7, 
			 "cosmo_total_nonelectrostatic_energy": 8.4, 
			 "SMD_solvation_energy": 2.97 
		},
		"coords": [
			{
				"x": -0.3803674636,
				"y": -0.2082377061,
				"z": 2.1582339004,
				"element": "N" 
			},
			{
				"x": 0.1371919053,
				"y": -0.1457672598,
				"z": 0.9066983894,
				"element": "C" 
			},
			{
				"x": 1.3743849871,
				"y": -0.7579222692,
				"z": 0.5765818165,
				"element": "C" 
			},
			{
				"x": 2.2561062533,
				"y": -1.5917337088,
				"z": 1.8450087433,
				"element": "Cl" 
			},
			{
				"x": 1.9013305399,
				"y": -0.7234181709,
				"z": -0.7024764411,
				"element": "C" 
			},
			{
				"x": 1.1842307738,
				"y": -0.0638336717,
				"z": -1.7027003963,
				"element": "C" 
			},
			{
				"x": -0.0358690964,
				"y": 0.5620792466,
				"z": -1.439410115,
				"element": "C" 
			},
			{
				"x": -0.5407747773,
				"y": 0.5129817465,
				"z": -0.1519715266,
				"element": "C" 
			},
			{
				"x": -2.0785644891,
				"y": 1.2847608205,
				"z": 0.1960149646,
				"element": "Cl" 
			},
			{
				"x": 1.845072726,
				"y": -0.0098317775,
				"z": -3.3459093119,
				"element": "S" 
			},
			{
				"x": 3.013999845,
				"y": 1.7813810789,
				"z": -3.2972917186,
				"element": "Cl" 
			},
			{
				"x": 2.7976271202,
				"y": -1.0996436018,
				"z": -3.518118052,
				"element": "O" 
			},
			{
				"x": 0.7655553704,
				"y": 0.247450328,
				"z": -4.290979814,
				"element": "O" 
			},
			{
				"x": -1.2002780249,
				"y": 0.3306911331,
				"z": 2.3843113107,
				"element": "H" 
			},
			{
				"x": 0.1770100012,
				"y": -0.5831968503,
				"z": 2.9082647497,
				"element": "H" 
			},
			{
				"x": 2.8447005316,
				"y": -1.2079200406,
				"z": -0.9234035487,
				"element": "H" 
			},
			{
				"x": -0.5824562024,
				"y": 1.066260703,
				"z": -2.2271529503,
				"element": "H" 
			}
		],
		 "valence_orbital": [ 
			{
				"type": "occ",
				"energy": -0.33556,
				"method": "rhf"
			},
			{
				"type": "occ",
				"energy": -0.32535,
				"method": "rhf"
			},
			{
				"type": "occ",
				"energy": -0.31229,
				"method": "rhf"
			},
			{
				"type": "occ",
				"energy": -0.2809,
				"method": "rhf"
			},
			{
				"type": "occ",
				"energy": -0.24839,
				"method": "rhf"
			},
			{
				"type": "unocc",
				"energy": -0.09017,
				"method": "rhf"
			},
			{
				"type": "unocc",
				"energy": -0.04987,
				"method": "rhf"
			},
			{
				"type": "unocc",
				"energy": -0.04132,
				"method": "rhf"
			},
			{
				"type": "unocc",
				"energy": -0.01619,
				"method": "rhf"
			},
			{
				"type": "unocc",
				"energy": 0.02232,
				"method": "rhf"
			}
		],
		"cosmo_sigma_profile": { 
			"-0.025": 0.0,
			"-0.024": 0.0,
			"-0.023": 0.0,
			"-0.022": 0.0,
			"-0.021": 0.0,
			"-0.02": 0.0,
			"-0.019": 0.0,
			"-0.018": 0.0,
			"-0.017": 0.0,
			"-0.016": 0.0,
			"-0.015": 0.159865509513,
			"-0.014": 1.49972417715,
			"-0.013": 2.17037539103,
			"-0.012": 1.68897256724,
			"-0.011": 1.75618580376,
			"-0.01": 2.36520416703,
			"-0.009": 3.17299742079,
			"-0.008": 5.10456189821,
			"-0.007": 4.07976548878,
			"-0.006": 6.18611594641,
			"-0.005": 7.00952301855,
			"-0.004": 6.85027748091,
			"-0.003": 11.8568641936,
			"-0.002": 18.7231168566,
			"-0.001": 28.7672318426,
			"0.0": 27.8334074656,
			"0.001": 17.054445005,
			"0.002": 18.5670424072,
			"0.003": 25.643640941,
			"0.004": 18.6757668463,
			"0.005": 3.80928027242,
			"0.006": 3.58265895669,
			"0.007": 5.67091682022,
			"0.008": 9.42591945493,
			"0.009": 5.31661110802,
			"0.01": 0.0729501254578,
			"0.011": 0.0,
			"0.012": 0.0,
			"0.013": 0.0,
			"0.014": 0.0,
			"0.015": 0.0,
			"0.016": 0.0,
			"0.017": 0.0,
			"0.018": 0.0,
			"0.019": 0.0,
			"0.02": 0.0,
			"0.021": 0.0,
			"0.022": 0.0,
			"0.023": 0.0,
			"0.024": 0.0,
			"0.025": 0.0
		}
	}
}
