{
	 "smiles": "OC(=O)C1=CC(Cl)=CN1", 
	 "Tm": 456.15, 
	 "num_atms": 13, 
	 "gaussian": { 
		 "optdone": 1, 
		 "sigma_profile": "yes", 
		 "theory": "DFT", 
		 "functional": "B3LYP", 
		 "basiset": "6-31G**", 
		 "properties": { 
			 "R2extent": 2066.7403, 
			 "electric_dipole_moment_norm": 1.9450387554, 
			 "electric_quadrupole_moment_norm": 20.7309500364, 
			 "total_energy": -858.332452556, 
			 "HOMO_LUMO_gap": 0.19646, 
			 "cosmo_polarized_energy": -15.01, 
			 "cosmo_cavitation_energy": 19.9, 
			 "cosmo_dispersion_energy": -15.12, 
			 "cosmo_repulsion_energy": 1.25, 
			 "cosmo_total_nonelectrostatic_energy": 6.03, 
			 "SMD_solvation_energy": 4.65 
		},
		"coords": [
			{
				"x": 3.0553792565,
				"y": -1.0113215747,
				"z": -2.8063465375,
				"element": "O" 
			},
			{
				"x": 2.8036860042,
				"y": 0.0866751719,
				"z": -2.0539076809,
				"element": "C" 
			},
			{
				"x": 3.4780294648,
				"y": 1.089002892,
				"z": -2.174076506,
				"element": "O" 
			},
			{
				"x": 1.6905219846,
				"y": 0.0083239872,
				"z": -1.0987363985,
				"element": "C" 
			},
			{
				"x": 0.766415924,
				"y": -0.9696793726,
				"z": -0.7443231074,
				"element": "C" 
			},
			{
				"x": -0.050266337,
				"y": -0.4005716237,
				"z": 0.2574950452,
				"element": "C" 
			},
			{
				"x": -1.3752581984,
				"y": -1.181464523,
				"z": 1.0641426967,
				"element": "Cl" 
			},
			{
				"x": 0.3813181482,
				"y": 0.8959734381,
				"z": 0.4954510023,
				"element": "C" 
			},
			{
				"x": 1.4344999061,
				"y": 1.1211410695,
				"z": -0.3356157538,
				"element": "N" 
			},
			{
				"x": 2.4334406272,
				"y": -1.7209897603,
				"z": -2.5925693121,
				"element": "H" 
			},
			{
				"x": 0.6719281875,
				"y": -1.9708824034,
				"z": -1.1410638518,
				"element": "H" 
			},
			{
				"x": 0.0111979993,
				"y": 1.6401506946,
				"z": 1.1830956343,
				"element": "H" 
			},
			{
				"x": 1.9887070329,
				"y": 1.9618420044,
				"z": -0.4259452305,
				"element": "H" 
			}
		],
		 "valence_orbital": [ 
			{
				"type": "occ",
				"energy": -0.32272,
				"method": "rhf"
			},
			{
				"type": "occ",
				"energy": -0.32264,
				"method": "rhf"
			},
			{
				"type": "occ",
				"energy": -0.28604,
				"method": "rhf"
			},
			{
				"type": "occ",
				"energy": -0.2696,
				"method": "rhf"
			},
			{
				"type": "occ",
				"energy": -0.24022,
				"method": "rhf"
			},
			{
				"type": "unocc",
				"energy": -0.04376,
				"method": "rhf"
			},
			{
				"type": "unocc",
				"energy": 0.02708,
				"method": "rhf"
			},
			{
				"type": "unocc",
				"energy": 0.03484,
				"method": "rhf"
			},
			{
				"type": "unocc",
				"energy": 0.04882,
				"method": "rhf"
			},
			{
				"type": "unocc",
				"energy": 0.09386,
				"method": "rhf"
			}
		],
		"cosmo_sigma_profile": { 
			"-0.025": 0.0,
			"-0.024": 0.0,
			"-0.023": 0.0,
			"-0.022": 0.0,
			"-0.021": 0.0,
			"-0.02": 0.0,
			"-0.019": 0.50478656258,
			"-0.018": 0.967814670249,
			"-0.017": 1.28732415024,
			"-0.016": 1.91064021256,
			"-0.015": 1.87445494733,
			"-0.014": 2.25434756909,
			"-0.013": 2.2445932535,
			"-0.012": 1.43071779285,
			"-0.011": 1.79635075453,
			"-0.01": 3.70646180561,
			"-0.009": 4.52606233905,
			"-0.008": 4.25688743812,
			"-0.007": 4.41273038124,
			"-0.006": 4.02808025583,
			"-0.005": 3.52847075409,
			"-0.004": 2.64911788686,
			"-0.003": 6.26797223696,
			"-0.002": 7.99259162637,
			"-0.001": 8.89217050117,
			"0.0": 8.92997111653,
			"0.001": 9.73789310391,
			"0.002": 13.2785568866,
			"0.003": 17.5343043145,
			"0.004": 14.1846890193,
			"0.005": 8.14720251984,
			"0.006": 2.09991304206,
			"0.007": 2.28109857773,
			"0.008": 2.7518177634,
			"0.009": 3.08805487543,
			"0.01": 4.70494642371,
			"0.011": 4.55706646095,
			"0.012": 4.05988304895,
			"0.013": 1.9976052894,
			"0.014": 0.193864156474,
			"0.015": 0.0,
			"0.016": 0.0,
			"0.017": 0.0,
			"0.018": 0.0,
			"0.019": 0.0,
			"0.02": 0.0,
			"0.021": 0.0,
			"0.022": 0.0,
			"0.023": 0.0,
			"0.024": 0.0,
			"0.025": 0.0
		}
	}
}
