{
	 "smiles": "CC1CCC(CC1)N1CC(CC1=O)C(O)=O", 
	 "Tm": 417.15, 
	 "num_atms": 35, 
	 "gaussian": { 
		 "optdone": 1, 
		 "sigma_profile": "yes", 
		 "theory": "DFT", 
		 "functional": "B3LYP", 
		 "basiset": "6-31G**", 
		 "properties": { 
			 "R2extent": 4823.4993, 
			 "electric_dipole_moment_norm": 2.41168020268, 
			 "electric_quadrupole_moment_norm": 20.8651877276, 
			 "total_energy": -749.188945768, 
			 "HOMO_LUMO_gap": 0.23642, 
			 "cosmo_polarized_energy": -19.94, 
			 "cosmo_cavitation_energy": 35.34, 
			 "cosmo_dispersion_energy": -24.87, 
			 "cosmo_repulsion_energy": 1.95, 
			 "cosmo_total_nonelectrostatic_energy": 12.42, 
			 "SMD_solvation_energy": 6.52 
		},
		"coords": [
			{
				"x": -1.0957746638,
				"y": -3.9528321271,
				"z": -0.9764733071,
				"element": "C" 
			},
			{
				"x": -1.5028325306,
				"y": -2.6267429122,
				"z": -1.6322601813,
				"element": "C" 
			},
			{
				"x": -2.5562657154,
				"y": -1.856137082,
				"z": -0.7832600027,
				"element": "C" 
			},
			{
				"x": -1.9201710077,
				"y": -0.7376514183,
				"z": 0.0532533542,
				"element": "C" 
			},
			{
				"x": -1.3319603764,
				"y": 0.3533422339,
				"z": -0.8696429004,
				"element": "C" 
			},
			{
				"x": -0.6378825822,
				"y": -0.271578171,
				"z": -2.1146355235,
				"element": "C" 
			},
			{
				"x": -0.2607386513,
				"y": -1.7444387691,
				"z": -1.9049699226,
				"element": "C" 
			},
			{
				"x": -0.4543786678,
				"y": 1.2704907763,
				"z": -0.1386303149,
				"element": "N" 
			},
			{
				"x": 0.8199632858,
				"y": 0.8804171959,
				"z": 0.4568180259,
				"element": "C" 
			},
			{
				"x": 1.4506368891,
				"y": 2.2273728677,
				"z": 0.8651215595,
				"element": "C" 
			},
			{
				"x": 0.2339489877,
				"y": 3.1562560867,
				"z": 1.0775956642,
				"element": "C" 
			},
			{
				"x": -0.8617947523,
				"y": 2.5340744584,
				"z": 0.2041634034,
				"element": "C" 
			},
			{
				"x": -1.9152600409,
				"y": 3.0661801078,
				"z": -0.1089858382,
				"element": "O" 
			},
			{
				"x": 2.3799180659,
				"y": 2.1087188132,
				"z": 2.0651680697,
				"element": "C" 
			},
			{
				"x": 2.9336279282,
				"y": 3.277410526,
				"z": 2.4835128962,
				"element": "O" 
			},
			{
				"x": 2.6394203912,
				"y": 1.0782367172,
				"z": 2.6349108787,
				"element": "O" 
			},
			{
				"x": -0.6854402086,
				"y": -3.7859077913,
				"z": 0.0271489567,
				"element": "H" 
			},
			{
				"x": -1.9528399377,
				"y": -4.6275567628,
				"z": -0.8769884503,
				"element": "H" 
			},
			{
				"x": -0.328607558,
				"y": -4.4696917089,
				"z": -1.5640908726,
				"element": "H" 
			},
			{
				"x": -1.9625303927,
				"y": -2.8604022536,
				"z": -2.6020543719,
				"element": "H" 
			},
			{
				"x": -3.0949888983,
				"y": -2.5538290513,
				"z": -0.1321569475,
				"element": "H" 
			},
			{
				"x": -3.3137479987,
				"y": -1.4113108881,
				"z": -1.4413843489,
				"element": "H" 
			},
			{
				"x": -2.6537865008,
				"y": -0.2824032678,
				"z": 0.7267791838,
				"element": "H" 
			},
			{
				"x": -1.1322991474,
				"y": -1.1599602015,
				"z": 0.6897678406,
				"element": "H" 
			},
			{
				"x": -2.1510209221,
				"y": 0.9954271557,
				"z": -1.2049524382,
				"element": "H" 
			},
			{
				"x": 0.239828684,
				"y": 0.3258107415,
				"z": -2.3847239227,
				"element": "H" 
			},
			{
				"x": -1.3223500603,
				"y": -0.200333077,
				"z": -2.9686149656,
				"element": "H" 
			},
			{
				"x": 0.4363171721,
				"y": -1.8299204623,
				"z": -1.0600303034,
				"element": "H" 
			},
			{
				"x": 0.2798039148,
				"y": -2.1259098418,
				"z": -2.7789709322,
				"element": "H" 
			},
			{
				"x": 0.6934363881,
				"y": 0.2383108071,
				"z": 1.3366330076,
				"element": "H" 
			},
			{
				"x": 1.44494286,
				"y": 0.3404605221,
				"z": -0.2606108576,
				"element": "H" 
			},
			{
				"x": 2.0422268528,
				"y": 2.6144809792,
				"z": 0.0245894192,
				"element": "H" 
			},
			{
				"x": -0.1148810659,
				"y": 3.1459448942,
				"z": 2.1174019288,
				"element": "H" 
			},
			{
				"x": 0.3941679672,
				"y": 4.1986580047,
				"z": 0.7908812228,
				"element": "H" 
			},
			{
				"x": 2.6228122921,
				"y": 4.0133128988,
				"z": 1.9367909899,
				"element": "H" 
			}
		],
		 "valence_orbital": [ 
			{
				"type": "occ",
				"energy": -0.30859,
				"method": "rhf"
			},
			{
				"type": "occ",
				"energy": -0.30556,
				"method": "rhf"
			},
			{
				"type": "occ",
				"energy": -0.28507,
				"method": "rhf"
			},
			{
				"type": "occ",
				"energy": -0.25192,
				"method": "rhf"
			},
			{
				"type": "occ",
				"energy": -0.23908,
				"method": "rhf"
			},
			{
				"type": "unocc",
				"energy": -0.00266,
				"method": "rhf"
			},
			{
				"type": "unocc",
				"energy": 0.0211,
				"method": "rhf"
			},
			{
				"type": "unocc",
				"energy": 0.04483,
				"method": "rhf"
			},
			{
				"type": "unocc",
				"energy": 0.06556,
				"method": "rhf"
			},
			{
				"type": "unocc",
				"energy": 0.08194,
				"method": "rhf"
			}
		],
		"cosmo_sigma_profile": { 
			"-0.025": 0.0,
			"-0.024": 0.0,
			"-0.023": 0.0,
			"-0.022": 0.0,
			"-0.021": 0.0,
			"-0.02": 0.0,
			"-0.019": 0.257959642863,
			"-0.018": 1.2267915809,
			"-0.017": 0.704193575462,
			"-0.016": 1.16345706717,
			"-0.015": 1.28312056957,
			"-0.014": 1.57685653179,
			"-0.013": 0.940184043147,
			"-0.012": 0.968149324677,
			"-0.011": 1.15291476974,
			"-0.01": 1.46492562238,
			"-0.009": 1.60934503962,
			"-0.008": 3.63000355539,
			"-0.007": 8.78327670922,
			"-0.006": 9.19793481009,
			"-0.005": 8.98424682208,
			"-0.004": 12.6962262953,
			"-0.003": 24.6648774108,
			"-0.002": 33.5159486374,
			"-0.001": 34.0540395163,
			"0.0": 34.0251287457,
			"0.001": 23.3384267744,
			"0.002": 10.9077246031,
			"0.003": 3.3092596978,
			"0.004": 3.95761063852,
			"0.005": 3.09096711611,
			"0.006": 3.60352020669,
			"0.007": 3.52957108372,
			"0.008": 4.94298099678,
			"0.009": 4.3456367316,
			"0.01": 7.1804194603,
			"0.011": 6.0339553364,
			"0.012": 5.99519303285,
			"0.013": 4.25482161203,
			"0.014": 6.01589731602,
			"0.015": 1.25014537113,
			"0.016": 0.0,
			"0.017": 0.0,
			"0.018": 0.0,
			"0.019": 0.0,
			"0.02": 0.0,
			"0.021": 0.0,
			"0.022": 0.0,
			"0.023": 0.0,
			"0.024": 0.0,
			"0.025": 0.0
		}
	}
}
