{
	 "smiles": "COC1=CC=C(C=C1)C1N(CCC2=C1C=C(OC)C(OC)=C2)C(C)=O", 
	 "Tm": 379.15, 
	 "num_atms": 48, 
	 "gaussian": { 
		 "optdone": 1, 
		 "sigma_profile": "yes", 
		 "theory": "DFT", 
		 "functional": "B3LYP", 
		 "basiset": "6-31G**", 
		 "properties": { 
			 "R2extent": 10497.0824, 
			 "electric_dipole_moment_norm": 4.48265047712, 
			 "electric_quadrupole_moment_norm": 26.2549416265, 
			 "total_energy": -1131.6167085, 
			 "HOMO_LUMO_gap": 0.20235, 
			 "cosmo_polarized_energy": -16.74, 
			 "cosmo_cavitation_energy": 49.29, 
			 "cosmo_dispersion_energy": -33.61, 
			 "cosmo_repulsion_energy": 2.57, 
			 "cosmo_total_nonelectrostatic_energy": 18.25, 
			 "SMD_solvation_energy": 10.48 
		},
		"coords": [
			{
				"x": -5.9460271967,
				"y": 0.4454878288,
				"z": 0.5553876377,
				"element": "C" 
			},
			{
				"x": -5.2068597267,
				"y": 1.654037184,
				"z": 0.6049345372,
				"element": "O" 
			},
			{
				"x": -3.8451270339,
				"y": 1.5812121012,
				"z": 0.5263211856,
				"element": "C" 
			},
			{
				"x": -3.1160782599,
				"y": 0.3952014135,
				"z": 0.3992294774,
				"element": "C" 
			},
			{
				"x": -1.719216934,
				"y": 0.447122289,
				"z": 0.3221128076,
				"element": "C" 
			},
			{
				"x": -1.0298018391,
				"y": 1.6599988883,
				"z": 0.3727318609,
				"element": "C" 
			},
			{
				"x": -1.780387428,
				"y": 2.8435243499,
				"z": 0.5007260906,
				"element": "C" 
			},
			{
				"x": -3.1651674852,
				"y": 2.8088127545,
				"z": 0.5756357224,
				"element": "C" 
			},
			{
				"x": 0.4986968126,
				"y": 1.755479969,
				"z": 0.3443247175,
				"element": "C" 
			},
			{
				"x": 1.0374274864,
				"y": 1.9528972172,
				"z": 1.7044021816,
				"element": "N" 
			},
			{
				"x": 1.1791602931,
				"y": 0.735483083,
				"z": 2.4919298389,
				"element": "C" 
			},
			{
				"x": 2.2266625851,
				"y": -0.1788806428,
				"z": 1.8503006699,
				"element": "C" 
			},
			{
				"x": 1.9895584466,
				"y": -0.3329820436,
				"z": 0.3609353926,
				"element": "C" 
			},
			{
				"x": 1.1870416866,
				"y": 0.5802634699,
				"z": -0.3401743718,
				"element": "C" 
			},
			{
				"x": 1.0048637276,
				"y": 0.4103042377,
				"z": -1.7201980981,
				"element": "C" 
			},
			{
				"x": 1.6115289732,
				"y": -0.6316915604,
				"z": -2.412568808,
				"element": "C" 
			},
			{
				"x": 1.4246799551,
				"y": -0.7326442547,
				"z": -3.7743805603,
				"element": "O" 
			},
			{
				"x": 0.6354474138,
				"y": -1.8540198084,
				"z": -4.1871976536,
				"element": "C" 
			},
			{
				"x": 2.4374508915,
				"y": -1.5351596571,
				"z": -1.7136654157,
				"element": "C" 
			},
			{
				"x": 3.044891122,
				"y": -2.597642677,
				"z": -2.3464337678,
				"element": "O" 
			},
			{
				"x": 4.0894326867,
				"y": -2.2354542095,
				"z": -3.2579374308,
				"element": "C" 
			},
			{
				"x": 2.6074055211,
				"y": -1.3770075557,
				"z": -0.3423757708,
				"element": "C" 
			},
			{
				"x": 1.3447206521,
				"y": 3.2256404046,
				"z": 2.1174396654,
				"element": "C" 
			},
			{
				"x": 1.9241861536,
				"y": 3.3948625042,
				"z": 3.5166667981,
				"element": "C" 
			},
			{
				"x": 1.1626088956,
				"y": 4.2048820063,
				"z": 1.3953307111,
				"element": "O" 
			},
			{
				"x": -5.6915456986,
				"y": -0.2212792725,
				"z": 1.3897950832,
				"element": "H" 
			},
			{
				"x": -6.9967115959,
				"y": 0.7299805777,
				"z": 0.6325298409,
				"element": "H" 
			},
			{
				"x": -5.7865667743,
				"y": -0.0899950266,
				"z": -0.3897691642,
				"element": "H" 
			},
			{
				"x": -3.6144217097,
				"y": -0.5660584151,
				"z": 0.3533241373,
				"element": "H" 
			},
			{
				"x": -1.1682744509,
				"y": -0.4810609747,
				"z": 0.2034865799,
				"element": "H" 
			},
			{
				"x": -1.2582156979,
				"y": 3.7946094331,
				"z": 0.5502447304,
				"element": "H" 
			},
			{
				"x": -3.7478866135,
				"y": 3.7197006859,
				"z": 0.6688116787,
				"element": "H" 
			},
			{
				"x": 0.760968434,
				"y": 2.6709240843,
				"z": -0.1917147994,
				"element": "H" 
			},
			{
				"x": 0.2058959159,
				"y": 0.2273275965,
				"z": 2.5260453103,
				"element": "H" 
			},
			{
				"x": 1.4502247783,
				"y": 0.9791932671,
				"z": 3.5184714559,
				"element": "H" 
			},
			{
				"x": 3.2252533257,
				"y": 0.2469298655,
				"z": 2.0216481933,
				"element": "H" 
			},
			{
				"x": 2.2168436364,
				"y": -1.1602296524,
				"z": 2.3400530177,
				"element": "H" 
			},
			{
				"x": 0.3755690237,
				"y": 1.0958893544,
				"z": -2.2803914751,
				"element": "H" 
			},
			{
				"x": 0.5796262916,
				"y": -1.8049565093,
				"z": -5.2766770103,
				"element": "H" 
			},
			{
				"x": 1.09531533,
				"y": -2.7995701154,
				"z": -3.8825953867,
				"element": "H" 
			},
			{
				"x": -0.3777142147,
				"y": -1.7898038982,
				"z": -3.7703938324,
				"element": "H" 
			},
			{
				"x": 4.4635646988,
				"y": -3.1700529562,
				"z": -3.6810623381,
				"element": "H" 
			},
			{
				"x": 3.7147808632,
				"y": -1.5898748937,
				"z": -4.0580757199,
				"element": "H" 
			},
			{
				"x": 4.9049880045,
				"y": -1.7255294838,
				"z": -2.7296653144,
				"element": "H" 
			},
			{
				"x": 3.2402972926,
				"y": -2.0920383949,
				"z": 0.1765430336,
				"element": "H" 
			},
			{
				"x": 1.1998864256,
				"y": 3.1118945577,
				"z": 4.288020158,
				"element": "H" 
			},
			{
				"x": 2.1694207899,
				"y": 4.4495873928,
				"z": 3.6368425894,
				"element": "H" 
			},
			{
				"x": 2.828504546,
				"y": 2.796985486,
				"z": 3.668151814,
				"element": "H" 
			}
		],
		 "valence_orbital": [ 
			{
				"type": "occ",
				"energy": -0.24376,
				"method": "rhf"
			},
			{
				"type": "occ",
				"energy": -0.24201,
				"method": "rhf"
			},
			{
				"type": "occ",
				"energy": -0.23077,
				"method": "rhf"
			},
			{
				"type": "occ",
				"energy": -0.22409,
				"method": "rhf"
			},
			{
				"type": "occ",
				"energy": -0.21036,
				"method": "rhf"
			},
			{
				"type": "unocc",
				"energy": -0.00801,
				"method": "rhf"
			},
			{
				"type": "unocc",
				"energy": 0.00124,
				"method": "rhf"
			},
			{
				"type": "unocc",
				"energy": 0.00516,
				"method": "rhf"
			},
			{
				"type": "unocc",
				"energy": 0.01365,
				"method": "rhf"
			},
			{
				"type": "unocc",
				"energy": 0.03418,
				"method": "rhf"
			}
		],
		"cosmo_sigma_profile": { 
			"-0.025": 0.0,
			"-0.024": 0.0,
			"-0.023": 0.0,
			"-0.022": 0.0,
			"-0.021": 0.0,
			"-0.02": 0.0,
			"-0.019": 0.0,
			"-0.018": 0.0,
			"-0.017": 0.0,
			"-0.016": 0.0,
			"-0.015": 0.0,
			"-0.014": 0.0,
			"-0.013": 0.0,
			"-0.012": 0.0,
			"-0.011": 0.0,
			"-0.01": 0.0,
			"-0.009": 0.0,
			"-0.008": 0.0,
			"-0.007": 0.586555314322,
			"-0.006": 15.7354442041,
			"-0.005": 33.5484328995,
			"-0.004": 44.0749902566,
			"-0.003": 50.4801963462,
			"-0.002": 42.6343759185,
			"-0.001": 30.8838630304,
			"0.0": 25.2340657413,
			"0.001": 20.3608156248,
			"0.002": 20.7722153119,
			"0.003": 22.6795277878,
			"0.004": 21.2616808264,
			"0.005": 17.0890431859,
			"0.006": 10.6851537209,
			"0.007": 4.71147897592,
			"0.008": 4.87351517102,
			"0.009": 4.01074417926,
			"0.01": 4.90136758483,
			"0.011": 4.38900782314,
			"0.012": 2.94357801268,
			"0.013": 2.05976341357,
			"0.014": 3.61641908632,
			"0.015": 1.67796539749,
			"0.016": 0.0976137230004,
			"0.017": 0.0,
			"0.018": 0.0,
			"0.019": 0.0,
			"0.02": 0.0,
			"0.021": 0.0,
			"0.022": 0.0,
			"0.023": 0.0,
			"0.024": 0.0,
			"0.025": 0.0
		}
	}
}
