{
	 "smiles": "OC(=O)C1=C(C=CC=C1)N1CCOCC1", 
	 "Tm": 332.15, 
	 "num_atms": 28, 
	 "gaussian": { 
		 "optdone": 1, 
		 "sigma_profile": "yes", 
		 "theory": "DFT", 
		 "functional": "B3LYP", 
		 "basiset": "6-31G**", 
		 "properties": { 
			 "R2extent": 3786.4585, 
			 "electric_dipole_moment_norm": 1.45374474376, 
			 "electric_quadrupole_moment_norm": 7.37776836177, 
			 "total_energy": -707.41236872, 
			 "HOMO_LUMO_gap": 0.16259, 
			 "cosmo_polarized_energy": -12.46, 
			 "cosmo_cavitation_energy": 29.74, 
			 "cosmo_dispersion_energy": -22.2, 
			 "cosmo_repulsion_energy": 1.73, 
			 "cosmo_total_nonelectrostatic_energy": 9.26, 
			 "SMD_solvation_energy": 5.07 
		},
		"coords": [
			{
				"x": -0.3952372055,
				"y": 2.4565649791,
				"z": 3.7545870583,
				"element": "O" 
			},
			{
				"x": -0.3553638261,
				"y": 2.0399664128,
				"z": 2.45591202,
				"element": "C" 
			},
			{
				"x": -0.8122228878,
				"y": 2.7407751536,
				"z": 1.5695528152,
				"element": "O" 
			},
			{
				"x": 0.3453471577,
				"y": 0.7452766322,
				"z": 2.2886421319,
				"element": "C" 
			},
			{
				"x": 0.2262196457,
				"y": -0.0517387551,
				"z": 1.1068246977,
				"element": "C" 
			},
			{
				"x": 1.1897073604,
				"y": -1.0726998544,
				"z": 0.9157536292,
				"element": "C" 
			},
			{
				"x": 2.1581643475,
				"y": -1.3502300066,
				"z": 1.8698332104,
				"element": "C" 
			},
			{
				"x": 2.2130458093,
				"y": -0.6291495296,
				"z": 3.0664506185,
				"element": "C" 
			},
			{
				"x": 1.3119150603,
				"y": 0.4073556088,
				"z": 3.2570749078,
				"element": "C" 
			},
			{
				"x": -0.7825459187,
				"y": 0.1195423867,
				"z": 0.1746253128,
				"element": "N" 
			},
			{
				"x": -0.6640247465,
				"y": -0.4887921463,
				"z": -1.150538881,
				"element": "C" 
			},
			{
				"x": -1.7501634608,
				"y": 0.0693580732,
				"z": -2.0649337256,
				"element": "C" 
			},
			{
				"x": -3.0619457934,
				"y": -0.2432868711,
				"z": -1.6083379345,
				"element": "O" 
			},
			{
				"x": -3.1630619516,
				"y": -0.3634702424,
				"z": -0.1912411404,
				"element": "C" 
			},
			{
				"x": -2.1492648573,
				"y": 0.5043030423,
				"z": 0.5518786656,
				"element": "C" 
			},
			{
				"x": -0.786446994,
				"y": 3.3446855971,
				"z": 3.7199627802,
				"element": "H" 
			},
			{
				"x": 1.1467498982,
				"y": -1.6879018818,
				"z": 0.0260044695,
				"element": "H" 
			},
			{
				"x": 2.8634345199,
				"y": -2.1562624872,
				"z": 1.6853111488,
				"element": "H" 
			},
			{
				"x": 2.9582644098,
				"y": -0.8575914374,
				"z": 3.8211801482,
				"element": "H" 
			},
			{
				"x": 1.3670004602,
				"y": 1.0158883408,
				"z": 4.1518456896,
				"element": "H" 
			},
			{
				"x": 0.318914721,
				"y": -0.2524601424,
				"z": -1.5734570575,
				"element": "H" 
			},
			{
				"x": -0.7539263653,
				"y": -1.5873809477,
				"z": -1.1180235973,
				"element": "H" 
			},
			{
				"x": -1.6485524718,
				"y": -0.3641885194,
				"z": -3.065258154,
				"element": "H" 
			},
			{
				"x": -1.6234773915,
				"y": 1.1589481141,
				"z": -2.1530956833,
				"element": "H" 
			},
			{
				"x": -3.0415052185,
				"y": -1.4167091268,
				"z": 0.1073024961,
				"element": "H" 
			},
			{
				"x": -4.1775888834,
				"y": -0.0552911389,
				"z": 0.0835336818,
				"element": "H" 
			},
			{
				"x": -2.2794192619,
				"y": 0.3531753657,
				"z": 1.628609686,
				"element": "H" 
			},
			{
				"x": -2.3300161559,
				"y": 1.5647133807,
				"z": 0.3519010059,
				"element": "H" 
			}
		],
		 "valence_orbital": [ 
			{
				"type": "occ",
				"energy": -0.28525,
				"method": "rhf"
			},
			{
				"type": "occ",
				"energy": -0.26762,
				"method": "rhf"
			},
			{
				"type": "occ",
				"energy": -0.25433,
				"method": "rhf"
			},
			{
				"type": "occ",
				"energy": -0.24998,
				"method": "rhf"
			},
			{
				"type": "occ",
				"energy": -0.20004,
				"method": "rhf"
			},
			{
				"type": "unocc",
				"energy": -0.03745,
				"method": "rhf"
			},
			{
				"type": "unocc",
				"energy": 0.00523,
				"method": "rhf"
			},
			{
				"type": "unocc",
				"energy": 0.05394,
				"method": "rhf"
			},
			{
				"type": "unocc",
				"energy": 0.08049,
				"method": "rhf"
			},
			{
				"type": "unocc",
				"energy": 0.08597,
				"method": "rhf"
			}
		],
		"cosmo_sigma_profile": { 
			"-0.025": 0.0,
			"-0.024": 0.0,
			"-0.023": 0.0,
			"-0.022": 0.0,
			"-0.021": 0.0,
			"-0.02": 0.0,
			"-0.019": 0.0,
			"-0.018": 0.131626223448,
			"-0.017": 1.06369085754,
			"-0.016": 0.788068123695,
			"-0.015": 0.58385860015,
			"-0.014": 0.846902236502,
			"-0.013": 0.759696384984,
			"-0.012": 0.432025386672,
			"-0.011": 0.578985046064,
			"-0.01": 0.91531705797,
			"-0.009": 0.382734137323,
			"-0.008": 0.228937458406,
			"-0.007": 1.42396121835,
			"-0.006": 10.0719071911,
			"-0.005": 22.6749705828,
			"-0.004": 30.5200415646,
			"-0.003": 24.2107652336,
			"-0.002": 16.739536025,
			"-0.001": 15.0726626026,
			"0.0": 10.8652191161,
			"0.001": 11.3204187767,
			"0.002": 11.7957895371,
			"0.003": 11.568402386,
			"0.004": 13.642066631,
			"0.005": 13.4064273839,
			"0.006": 6.35702937158,
			"0.007": 4.34852284609,
			"0.008": 3.83223963727,
			"0.009": 3.74742249714,
			"0.01": 2.89658832579,
			"0.011": 3.17363812754,
			"0.012": 5.81233341236,
			"0.013": 3.58370998112,
			"0.014": 0.729518175551,
			"0.015": 0.0,
			"0.016": 0.0,
			"0.017": 0.0,
			"0.018": 0.0,
			"0.019": 0.0,
			"0.02": 0.0,
			"0.021": 0.0,
			"0.022": 0.0,
			"0.023": 0.0,
			"0.024": 0.0,
			"0.025": 0.0
		}
	}
}
