{
	 "smiles": "NC1=NC(=CS1)C1=C(O)C=CC=C1", 
	 "Tm": 414.15, 
	 "num_atms": 21, 
	 "gaussian": { 
		 "optdone": 1, 
		 "sigma_profile": "yes", 
		 "theory": "DFT", 
		 "functional": "B3LYP", 
		 "basiset": "6-31G**", 
		 "properties": { 
			 "R2extent": 3280.6568, 
			 "electric_dipole_moment_norm": 1.11310587547, 
			 "electric_quadrupole_moment_norm": 20.8109179745, 
			 "total_energy": -930.689847635, 
			 "HOMO_LUMO_gap": 0.17247, 
			 "cosmo_polarized_energy": -14.97, 
			 "cosmo_cavitation_energy": 26.69, 
			 "cosmo_dispersion_energy": -20.84, 
			 "cosmo_repulsion_energy": 1.6, 
			 "cosmo_total_nonelectrostatic_energy": 7.45, 
			 "SMD_solvation_energy": 3.56 
		},
		"coords": [
			{
				"x": 1.4290409432,
				"y": -4.1477619378,
				"z": -1.5519999184,
				"element": "N" 
			},
			{
				"x": 0.8474972287,
				"y": -3.0620509951,
				"z": -0.9307104117,
				"element": "C" 
			},
			{
				"x": 0.9091352821,
				"y": -1.8481666081,
				"z": -1.3816332149,
				"element": "N" 
			},
			{
				"x": 0.3029593653,
				"y": -0.9444419468,
				"z": -0.5107143227,
				"element": "C" 
			},
			{
				"x": -0.2340141324,
				"y": -1.5080648608,
				"z": 0.6169196879,
				"element": "C" 
			},
			{
				"x": 0.0318992676,
				"y": -3.2327783494,
				"z": 0.6292336992,
				"element": "S" 
			},
			{
				"x": 0.3017273851,
				"y": 0.4786994157,
				"z": -0.8993123838,
				"element": "C" 
			},
			{
				"x": -0.2880551986,
				"y": 1.5045062518,
				"z": -0.1272536429,
				"element": "C" 
			},
			{
				"x": -0.8992997582,
				"y": 1.1723814998,
				"z": 1.0535575235,
				"element": "O" 
			},
			{
				"x": -0.2508351544,
				"y": 2.8339500635,
				"z": -0.556895806,
				"element": "C" 
			},
			{
				"x": 0.3691367647,
				"y": 3.1767491483,
				"z": -1.7564435812,
				"element": "C" 
			},
			{
				"x": 0.9581710537,
				"y": 2.1803985055,
				"z": -2.5351818911,
				"element": "C" 
			},
			{
				"x": 0.919413462,
				"y": 0.8572044878,
				"z": -2.105079061,
				"element": "C" 
			},
			{
				"x": 1.6861530313,
				"y": -3.9526090184,
				"z": -2.5111422011,
				"element": "H" 
			},
			{
				"x": 0.9644079757,
				"y": -5.0368208723,
				"z": -1.4320428132,
				"element": "H" 
			},
			{
				"x": -0.7613974536,
				"y": -1.026552788,
				"z": 1.4216570068,
				"element": "H" 
			},
			{
				"x": -1.2449066433,
				"y": 1.9772538256,
				"z": 1.460506238,
				"element": "H" 
			},
			{
				"x": -0.7143683805,
				"y": 3.6022012653,
				"z": 0.0598520161,
				"element": "H" 
			},
			{
				"x": 0.3888262577,
				"y": 4.2149173027,
				"z": -2.0746719416,
				"element": "H" 
			},
			{
				"x": 1.4456607268,
				"y": 2.4311294961,
				"z": -3.4722234345,
				"element": "H" 
			},
			{
				"x": 1.3725479773,
				"y": 0.0717561147,
				"z": -2.6981215476,
				"element": "H" 
			}
		],
		 "valence_orbital": [ 
			{
				"type": "occ",
				"energy": -0.27818,
				"method": "rhf"
			},
			{
				"type": "occ",
				"energy": -0.26583,
				"method": "rhf"
			},
			{
				"type": "occ",
				"energy": -0.2433,
				"method": "rhf"
			},
			{
				"type": "occ",
				"energy": -0.22418,
				"method": "rhf"
			},
			{
				"type": "occ",
				"energy": -0.1924,
				"method": "rhf"
			},
			{
				"type": "unocc",
				"energy": -0.01993,
				"method": "rhf"
			},
			{
				"type": "unocc",
				"energy": 0.00943,
				"method": "rhf"
			},
			{
				"type": "unocc",
				"energy": 0.01797,
				"method": "rhf"
			},
			{
				"type": "unocc",
				"energy": 0.02711,
				"method": "rhf"
			},
			{
				"type": "unocc",
				"energy": 0.06653,
				"method": "rhf"
			}
		],
		"cosmo_sigma_profile": { 
			"-0.025": 0.0,
			"-0.024": 0.0,
			"-0.023": 0.0,
			"-0.022": 0.0,
			"-0.021": 0.0,
			"-0.02": 0.0,
			"-0.019": 0.0,
			"-0.018": 0.344913996907,
			"-0.017": 1.09871980817,
			"-0.016": 1.40360954229,
			"-0.015": 1.33062397867,
			"-0.014": 2.47426295412,
			"-0.013": 3.92424423921,
			"-0.012": 3.24564667462,
			"-0.011": 3.32644490246,
			"-0.01": 4.09800914602,
			"-0.009": 2.76148643688,
			"-0.008": 2.66431914686,
			"-0.007": 3.89186855724,
			"-0.006": 6.22061019008,
			"-0.005": 8.69657065359,
			"-0.004": 9.96486692968,
			"-0.003": 10.3978490277,
			"-0.002": 10.1416154168,
			"-0.001": 10.2801241332,
			"0.0": 7.81586456499,
			"0.001": 11.2703422946,
			"0.002": 15.2844015248,
			"0.003": 20.0518310252,
			"0.004": 24.6390642165,
			"0.005": 21.6364951784,
			"0.006": 13.7291908975,
			"0.007": 4.66022472181,
			"0.008": 3.34309726487,
			"0.009": 2.72934218187,
			"0.01": 2.38250715791,
			"0.011": 1.61416614018,
			"0.012": 0.465407632752,
			"0.013": 0.0294291440444,
			"0.014": 0.0,
			"0.015": 0.0,
			"0.016": 0.0,
			"0.017": 0.0,
			"0.018": 0.0,
			"0.019": 0.0,
			"0.02": 0.0,
			"0.021": 0.0,
			"0.022": 0.0,
			"0.023": 0.0,
			"0.024": 0.0,
			"0.025": 0.0
		}
	}
}
