{
	 "smiles": "COC(=O)C1(CC2=CC(C)=CC=C2C(=O)O1)C(=O)OC", 
	 "Tm": 408.15, 
	 "num_atms": 34, 
	 "gaussian": { 
		 "optdone": 1, 
		 "sigma_profile": "yes", 
		 "theory": "DFT", 
		 "functional": "B3LYP", 
		 "basiset": "6-31G**", 
		 "properties": { 
			 "R2extent": 5858.751, 
			 "electric_dipole_moment_norm": 6.61351366295, 
			 "electric_quadrupole_moment_norm": 24.3532530398, 
			 "total_energy": -993.291679269, 
			 "HOMO_LUMO_gap": 0.20416, 
			 "cosmo_polarized_energy": -19.39, 
			 "cosmo_cavitation_energy": 38.64, 
			 "cosmo_dispersion_energy": -26.33, 
			 "cosmo_repulsion_energy": 2.07, 
			 "cosmo_total_nonelectrostatic_energy": 14.38, 
			 "SMD_solvation_energy": 10.31 
		},
		"coords": [
			{
				"x": -0.551929689,
				"y": 4.2521079486,
				"z": -2.445323912,
				"element": "C" 
			},
			{
				"x": -0.0493438303,
				"y": 3.0657263917,
				"z": -1.7999369534,
				"element": "O" 
			},
			{
				"x": -0.7173792794,
				"y": 1.9364826884,
				"z": -2.0772012561,
				"element": "C" 
			},
			{
				"x": -1.7030912616,
				"y": 1.8731332837,
				"z": -2.7744701982,
				"element": "O" 
			},
			{
				"x": -0.0393484778,
				"y": 0.7122798779,
				"z": -1.4251038185,
				"element": "C" 
			},
			{
				"x": 0.4103658229,
				"y": 0.9588199405,
				"z": 0.0229672119,
				"element": "C" 
			},
			{
				"x": 1.2451325154,
				"y": -0.2087822594,
				"z": 0.4884368127,
				"element": "C" 
			},
			{
				"x": 1.2863558352,
				"y": -0.620267989,
				"z": 1.8223965049,
				"element": "C" 
			},
			{
				"x": 2.0897087556,
				"y": -1.691819479,
				"z": 2.2292418808,
				"element": "C" 
			},
			{
				"x": 2.1117522943,
				"y": -2.1435082605,
				"z": 3.6694797671,
				"element": "C" 
			},
			{
				"x": 2.8672157959,
				"y": -2.3530003603,
				"z": 1.2629206753,
				"element": "C" 
			},
			{
				"x": 2.8378976598,
				"y": -1.9555291577,
				"z": -0.0671655411,
				"element": "C" 
			},
			{
				"x": 2.0239094325,
				"y": -0.8860416891,
				"z": -0.4619859868,
				"element": "C" 
			},
			{
				"x": 2.0402435595,
				"y": -0.4564720143,
				"z": -1.8844113354,
				"element": "C" 
			},
			{
				"x": 2.8566478874,
				"y": -0.8138646393,
				"z": -2.6982157228,
				"element": "O" 
			},
			{
				"x": 1.0861972043,
				"y": 0.4575723207,
				"z": -2.2718896632,
				"element": "O" 
			},
			{
				"x": -1.0195975943,
				"y": -0.480536689,
				"z": -1.5162157468,
				"element": "C" 
			},
			{
				"x": -0.8420857907,
				"y": -1.4671145474,
				"z": -2.1859229739,
				"element": "O" 
			},
			{
				"x": -2.0814011569,
				"y": -0.2671065424,
				"z": -0.7198400422,
				"element": "O" 
			},
			{
				"x": -3.1001065978,
				"y": -1.2837435688,
				"z": -0.7709693433,
				"element": "C" 
			},
			{
				"x": -0.5068468823,
				"y": 4.1385726338,
				"z": -3.5306547639,
				"element": "H" 
			},
			{
				"x": -1.5864321823,
				"y": 4.4381475714,
				"z": -2.1477536035,
				"element": "H" 
			},
			{
				"x": 0.0978748824,
				"y": 5.0614878456,
				"z": -2.114909787,
				"element": "H" 
			},
			{
				"x": -0.4640563417,
				"y": 1.1046390423,
				"z": 0.661699143,
				"element": "H" 
			},
			{
				"x": 0.9951797491,
				"y": 1.8847301372,
				"z": 0.0407355923,
				"element": "H" 
			},
			{
				"x": 0.680457185,
				"y": -0.0972232036,
				"z": 2.5588169531,
				"element": "H" 
			},
			{
				"x": 1.6012947537,
				"y": -1.4310746252,
				"z": 4.3228931329,
				"element": "H" 
			},
			{
				"x": 1.6164853214,
				"y": -3.115199586,
				"z": 3.7844069654,
				"element": "H" 
			},
			{
				"x": 3.1382225054,
				"y": -2.2622597063,
				"z": 4.0322755565,
				"element": "H" 
			},
			{
				"x": 3.4993477436,
				"y": -3.184647321,
				"z": 1.5631997125,
				"element": "H" 
			},
			{
				"x": 3.4387223027,
				"y": -2.4542733369,
				"z": -0.8201504589,
				"element": "H" 
			},
			{
				"x": -3.5051834684,
				"y": -1.358818296,
				"z": -1.7825144786,
				"element": "H" 
			},
			{
				"x": -3.8709999286,
				"y": -0.9620412887,
				"z": -0.0715248904,
				"element": "H" 
			},
			{
				"x": -2.6882087251,
				"y": -2.2515751215,
				"z": -0.4761094323,
				"element": "H" 
			}
		],
		 "valence_orbital": [ 
			{
				"type": "occ",
				"energy": -0.29152,
				"method": "rhf"
			},
			{
				"type": "occ",
				"energy": -0.28164,
				"method": "rhf"
			},
			{
				"type": "occ",
				"energy": -0.26652,
				"method": "rhf"
			},
			{
				"type": "occ",
				"energy": -0.25977,
				"method": "rhf"
			},
			{
				"type": "occ",
				"energy": -0.25266,
				"method": "rhf"
			},
			{
				"type": "unocc",
				"energy": -0.0485,
				"method": "rhf"
			},
			{
				"type": "unocc",
				"energy": -0.02175,
				"method": "rhf"
			},
			{
				"type": "unocc",
				"energy": -0.01001,
				"method": "rhf"
			},
			{
				"type": "unocc",
				"energy": 0.00374,
				"method": "rhf"
			},
			{
				"type": "unocc",
				"energy": 0.0526,
				"method": "rhf"
			}
		],
		"cosmo_sigma_profile": { 
			"-0.025": 0.0,
			"-0.024": 0.0,
			"-0.023": 0.0,
			"-0.022": 0.0,
			"-0.021": 0.0,
			"-0.02": 0.0,
			"-0.019": 0.0,
			"-0.018": 0.0,
			"-0.017": 0.0,
			"-0.016": 0.0,
			"-0.015": 0.0,
			"-0.014": 0.0,
			"-0.013": 0.0,
			"-0.012": 0.0,
			"-0.011": 0.0,
			"-0.01": 0.0,
			"-0.009": 0.0,
			"-0.008": 0.262137690648,
			"-0.007": 10.4654294687,
			"-0.006": 24.8316024979,
			"-0.005": 29.8737236238,
			"-0.004": 35.3214727959,
			"-0.003": 24.7716064668,
			"-0.002": 21.0426079319,
			"-0.001": 20.1781629015,
			"0.0": 18.7208330779,
			"0.001": 15.8834052595,
			"0.002": 16.3959902227,
			"0.003": 19.1556853711,
			"0.004": 9.5008850854,
			"0.005": 8.20118492135,
			"0.006": 7.00494988806,
			"0.007": 6.0653659433,
			"0.008": 8.00864465967,
			"0.009": 7.37739604534,
			"0.01": 11.1354673535,
			"0.011": 8.8946786588,
			"0.012": 3.08477375148,
			"0.013": 0.48627245374,
			"0.014": 0.0,
			"0.015": 0.0,
			"0.016": 0.0,
			"0.017": 0.0,
			"0.018": 0.0,
			"0.019": 0.0,
			"0.02": 0.0,
			"0.021": 0.0,
			"0.022": 0.0,
			"0.023": 0.0,
			"0.024": 0.0,
			"0.025": 0.0
		}
	}
}
