{
	 "smiles": "NC1=NC=C(S1)C(O)(C(F)(F)F)C(F)(F)F", 
	 "Tm": 458.15, 
	 "num_atms": 20, 
	 "gaussian": { 
		 "optdone": 1, 
		 "sigma_profile": "yes", 
		 "theory": "DFT", 
		 "functional": "B3LYP", 
		 "basiset": "6-31G**", 
		 "properties": { 
			 "R2extent": 3784.8371, 
			 "electric_dipole_moment_norm": 3.54981523604, 
			 "electric_quadrupole_moment_norm": 12.4491889551, 
			 "total_energy": -1412.99131952, 
			 "HOMO_LUMO_gap": 0.19955, 
			 "cosmo_polarized_energy": -12.92, 
			 "cosmo_cavitation_energy": 28.13, 
			 "cosmo_dispersion_energy": -20.13, 
			 "cosmo_repulsion_energy": 1.42, 
			 "cosmo_total_nonelectrostatic_energy": 9.42, 
			 "SMD_solvation_energy": 5.03 
		},
		"coords": [
			{
				"x": 0.8294253695,
				"y": -3.8902470372,
				"z": -1.1081901228,
				"element": "N" 
			},
			{
				"x": 0.9557033871,
				"y": -2.5289980196,
				"z": -0.9945932899,
				"element": "C" 
			},
			{
				"x": 1.8356978699,
				"y": -1.8282803865,
				"z": -1.6591012313,
				"element": "N" 
			},
			{
				"x": 1.7803220624,
				"y": -0.5087142083,
				"z": -1.2827236728,
				"element": "C" 
			},
			{
				"x": 0.867137412,
				"y": -0.172167155,
				"z": -0.3250328597,
				"element": "C" 
			},
			{
				"x": -0.0229095153,
				"y": -1.6166455505,
				"z": 0.1555994327,
				"element": "S" 
			},
			{
				"x": 0.476737923,
				"y": 1.1613090612,
				"z": 0.2661585228,
				"element": "C" 
			},
			{
				"x": -0.2414508975,
				"y": 1.0104371278,
				"z": 1.4726834884,
				"element": "O" 
			},
			{
				"x": 1.7300267037,
				"y": 2.0286547167,
				"z": 0.5713143198,
				"element": "C" 
			},
			{
				"x": 2.5204946707,
				"y": 2.208082419,
				"z": -0.5012345849,
				"element": "F" 
			},
			{
				"x": 2.4554591459,
				"y": 1.4030254232,
				"z": 1.5273306746,
				"element": "F" 
			},
			{
				"x": 1.3966872779,
				"y": 3.2361934934,
				"z": 1.0433457523,
				"element": "F" 
			},
			{
				"x": -0.495525001,
				"y": 1.9122636787,
				"z": -0.6839838554,
				"element": "C" 
			},
			{
				"x": 0.1332526149,
				"y": 2.2160071552,
				"z": -1.8360573861,
				"element": "F" 
			},
			{
				"x": -1.5508467829,
				"y": 1.1348111244,
				"z": -0.9728219181,
				"element": "F" 
			},
			{
				"x": -0.9546588091,
				"y": 3.049701171,
				"z": -0.1459781196,
				"element": "F" 
			},
			{
				"x": 1.3074881646,
				"y": -4.2703898604,
				"z": -1.914560301,
				"element": "H" 
			},
			{
				"x": -0.0775129317,
				"y": -4.2950291347,
				"z": -0.9278202892,
				"element": "H" 
			},
			{
				"x": 2.4492890336,
				"y": 0.1951203678,
				"z": -1.7598804461,
				"element": "H" 
			},
			{
				"x": 0.3526823023,
				"y": 0.5958656138,
				"z": 2.1154458864,
				"element": "H" 
			}
		],
		 "valence_orbital": [ 
			{
				"type": "occ",
				"energy": -0.33647,
				"method": "rhf"
			},
			{
				"type": "occ",
				"energy": -0.32533,
				"method": "rhf"
			},
			{
				"type": "occ",
				"energy": -0.28755,
				"method": "rhf"
			},
			{
				"type": "occ",
				"energy": -0.27983,
				"method": "rhf"
			},
			{
				"type": "occ",
				"energy": -0.22468,
				"method": "rhf"
			},
			{
				"type": "unocc",
				"energy": -0.02513,
				"method": "rhf"
			},
			{
				"type": "unocc",
				"energy": -0.00087,
				"method": "rhf"
			},
			{
				"type": "unocc",
				"energy": 0.03702,
				"method": "rhf"
			},
			{
				"type": "unocc",
				"energy": 0.04879,
				"method": "rhf"
			},
			{
				"type": "unocc",
				"energy": 0.07315,
				"method": "rhf"
			}
		],
		"cosmo_sigma_profile": { 
			"-0.025": 0.0,
			"-0.024": 0.0,
			"-0.023": 0.0,
			"-0.022": 0.0,
			"-0.021": 0.0,
			"-0.02": 0.0,
			"-0.019": 0.0,
			"-0.018": 0.117385514674,
			"-0.017": 0.745508512907,
			"-0.016": 0.938097052271,
			"-0.015": 1.61946028663,
			"-0.014": 3.26174325424,
			"-0.013": 3.71411936702,
			"-0.012": 3.11721854803,
			"-0.011": 3.81388443679,
			"-0.01": 3.87567677624,
			"-0.009": 2.17793181575,
			"-0.008": 2.54648564513,
			"-0.007": 3.7648943372,
			"-0.006": 3.75032011267,
			"-0.005": 4.09581584059,
			"-0.004": 4.06178695834,
			"-0.003": 6.32571991801,
			"-0.002": 8.52130482097,
			"-0.001": 10.7814542305,
			"0.0": 16.1413058711,
			"0.001": 40.2672457841,
			"0.002": 54.250101027,
			"0.003": 16.1705859359,
			"0.004": 7.6048034326,
			"0.005": 4.81914369542,
			"0.006": 3.46160893971,
			"0.007": 3.74366510592,
			"0.008": 3.15644917616,
			"0.009": 3.38829088299,
			"0.01": 1.92608943023,
			"0.011": 1.15448875907,
			"0.012": 0.928205033551,
			"0.013": 0.991637617341,
			"0.014": 0.899142966422,
			"0.015": 0.743349209882,
			"0.016": 0.0498114565987,
			"0.017": 0.0,
			"0.018": 0.0,
			"0.019": 0.0,
			"0.02": 0.0,
			"0.021": 0.0,
			"0.022": 0.0,
			"0.023": 0.0,
			"0.024": 0.0,
			"0.025": 0.0
		}
	}
}
