{
	 "smiles": "NC(=O)NC1=CC=CC=C1", 
	 "Tm": 420.15, 
	 "num_atms": 18, 
	 "gaussian": { 
		 "optdone": 1, 
		 "sigma_profile": "yes", 
		 "theory": "DFT", 
		 "functional": "B3LYP", 
		 "basiset": "6-31G**", 
		 "properties": { 
			 "R2extent": 1818.2029, 
			 "electric_dipole_moment_norm": 3.46229931837, 
			 "electric_quadrupole_moment_norm": 11.3374939771, 
			 "total_energy": -456.319764266, 
			 "HOMO_LUMO_gap": 0.21021, 
			 "cosmo_polarized_energy": -13.41, 
			 "cosmo_cavitation_energy": 22.01, 
			 "cosmo_dispersion_energy": -16.52, 
			 "cosmo_repulsion_energy": 1.35, 
			 "cosmo_total_nonelectrostatic_energy": 6.84, 
			 "SMD_solvation_energy": 4.82 
		},
		"coords": [
			{
				"x": 2.8701864542,
				"y": 0.653978782,
				"z": 0.2929261846,
				"element": "N" 
			},
			{
				"x": 2.36217487,
				"y": 0.3290096813,
				"z": -0.9504787047,
				"element": "C" 
			},
			{
				"x": 3.071950081,
				"y": 0.0307030693,
				"z": -1.9007525794,
				"element": "O" 
			},
			{
				"x": 0.9782916764,
				"y": 0.3746310934,
				"z": -1.0903931073,
				"element": "N" 
			},
			{
				"x": -0.0416589821,
				"y": 0.7330917325,
				"z": -0.1867281029,
				"element": "C" 
			},
			{
				"x": 0.1082445968,
				"y": 1.766260067,
				"z": 0.7534894597,
				"element": "C" 
			},
			{
				"x": -0.945690356,
				"y": 2.087861067,
				"z": 1.6100318421,
				"element": "C" 
			},
			{
				"x": -2.1651896185,
				"y": 1.415279135,
				"z": 1.5295215982,
				"element": "C" 
			},
			{
				"x": -2.3244853394,
				"y": 0.4067230973,
				"z": 0.5761696682,
				"element": "C" 
			},
			{
				"x": -1.2729596922,
				"y": 0.061258563,
				"z": -0.2685946269,
				"element": "C" 
			},
			{
				"x": 2.2960362395,
				"y": 0.4971573953,
				"z": 1.1094552274,
				"element": "H" 
			},
			{
				"x": 3.8438559418,
				"y": 0.4037570909,
				"z": 0.3864593905,
				"element": "H" 
			},
			{
				"x": 0.6932682161,
				"y": -0.0039507867,
				"z": -1.9826129427,
				"element": "H" 
			},
			{
				"x": 1.0328870494,
				"y": 2.3307438077,
				"z": 0.7914851013,
				"element": "H" 
			},
			{
				"x": -0.8130299796,
				"y": 2.8886108284,
				"z": 2.3321677232,
				"element": "H" 
			},
			{
				"x": -2.982597108,
				"y": 1.6772172476,
				"z": 2.1940051571,
				"element": "H" 
			},
			{
				"x": -3.2690469741,
				"y": -0.1236184695,
				"z": 0.4953779421,
				"element": "H" 
			},
			{
				"x": -1.3948370753,
				"y": -0.7379134015,
				"z": -0.9951292306,
				"element": "H" 
			}
		],
		 "valence_orbital": [ 
			{
				"type": "occ",
				"energy": -0.30358,
				"method": "rhf"
			},
			{
				"type": "occ",
				"energy": -0.27317,
				"method": "rhf"
			},
			{
				"type": "occ",
				"energy": -0.26022,
				"method": "rhf"
			},
			{
				"type": "occ",
				"energy": -0.25584,
				"method": "rhf"
			},
			{
				"type": "occ",
				"energy": -0.2225,
				"method": "rhf"
			},
			{
				"type": "unocc",
				"energy": -0.01229,
				"method": "rhf"
			},
			{
				"type": "unocc",
				"energy": -0.0094,
				"method": "rhf"
			},
			{
				"type": "unocc",
				"energy": 0.06367,
				"method": "rhf"
			},
			{
				"type": "unocc",
				"energy": 0.08434,
				"method": "rhf"
			},
			{
				"type": "unocc",
				"energy": 0.09542,
				"method": "rhf"
			}
		],
		"cosmo_sigma_profile": { 
			"-0.025": 0.0,
			"-0.024": 0.0,
			"-0.023": 0.0,
			"-0.022": 0.0,
			"-0.021": 0.0,
			"-0.02": 0.0,
			"-0.019": 0.0,
			"-0.018": 0.0,
			"-0.017": 0.0,
			"-0.016": 0.0,
			"-0.015": 0.0,
			"-0.014": 0.803018450817,
			"-0.013": 2.56065998153,
			"-0.012": 2.54742175598,
			"-0.011": 3.24166132049,
			"-0.01": 3.95448847518,
			"-0.009": 3.23944457647,
			"-0.008": 2.97940476052,
			"-0.007": 3.66786884301,
			"-0.006": 7.14402326584,
			"-0.005": 13.0128418161,
			"-0.004": 12.6474493754,
			"-0.003": 11.4947167783,
			"-0.002": 8.81264608272,
			"-0.001": 10.4038618292,
			"0.0": 8.61852985223,
			"0.001": 9.53215958038,
			"0.002": 9.94055602822,
			"0.003": 11.1665311249,
			"0.004": 11.084836356,
			"0.005": 10.9587184223,
			"0.006": 6.85687739718,
			"0.007": 1.39327096944,
			"0.008": 1.56403225525,
			"0.009": 1.95399778996,
			"0.01": 1.47966164834,
			"0.011": 1.06587110267,
			"0.012": 1.90192276074,
			"0.013": 2.15914408433,
			"0.014": 6.83894302083,
			"0.015": 2.10113563175,
			"0.016": 0.0,
			"0.017": 0.0,
			"0.018": 0.0,
			"0.019": 0.0,
			"0.02": 0.0,
			"0.021": 0.0,
			"0.022": 0.0,
			"0.023": 0.0,
			"0.024": 0.0,
			"0.025": 0.0
		}
	}
}
