{
	 "smiles": "NNC(=O)CN1CCCC1=O", 
	 "Tm": 373.15, 
	 "num_atms": 22, 
	 "gaussian": { 
		 "optdone": 1, 
		 "sigma_profile": "yes", 
		 "theory": "DFT", 
		 "functional": "B3LYP", 
		 "basiset": "6-31G**", 
		 "properties": { 
			 "R2extent": 2362.9531, 
			 "electric_dipole_moment_norm": 4.32293087037, 
			 "electric_quadrupole_moment_norm": 26.4213137734, 
			 "total_energy": -549.965288175, 
			 "HOMO_LUMO_gap": 0.25329, 
			 "cosmo_polarized_energy": -19.8, 
			 "cosmo_cavitation_energy": 25.25, 
			 "cosmo_dispersion_energy": -18.57, 
			 "cosmo_repulsion_energy": 1.56, 
			 "cosmo_total_nonelectrostatic_energy": 8.24, 
			 "SMD_solvation_energy": 5.94 
		},
		"coords": [
			{
				"x": 3.0715591578,
				"y": -0.6570183468,
				"z": -2.2562221636,
				"element": "N" 
			},
			{
				"x": 2.5969383817,
				"y": -1.1026817427,
				"z": -1.0173972704,
				"element": "N" 
			},
			{
				"x": 1.5651821959,
				"y": -0.4801073281,
				"z": -0.3597754136,
				"element": "C" 
			},
			{
				"x": 1.2412559541,
				"y": -0.8324795434,
				"z": 0.7650246775,
				"element": "O" 
			},
			{
				"x": 0.8572924785,
				"y": 0.6338771268,
				"z": -1.1399035118,
				"element": "C" 
			},
			{
				"x": -0.1772496799,
				"y": 1.263184595,
				"z": -0.3636840412,
				"element": "N" 
			},
			{
				"x": -1.4175720906,
				"y": 0.6026849908,
				"z": 0.0282025063,
				"element": "C" 
			},
			{
				"x": -2.006562721,
				"y": 1.5671356757,
				"z": 1.0809990774,
				"element": "C" 
			},
			{
				"x": -1.4090127014,
				"y": 2.9344277617,
				"z": 0.7119627469,
				"element": "C" 
			},
			{
				"x": -0.1123707205,
				"y": 2.5922109974,
				"z": -0.0227315558,
				"element": "C" 
			},
			{
				"x": 0.8082484036,
				"y": 3.3497017603,
				"z": -0.2934508223,
				"element": "O" 
			},
			{
				"x": 3.0824906727,
				"y": -1.4239795022,
				"z": -2.9229293347,
				"element": "H" 
			},
			{
				"x": 4.0131157033,
				"y": -0.2817117892,
				"z": -2.1679184334,
				"element": "H" 
			},
			{
				"x": 3.0990960964,
				"y": -1.7994114441,
				"z": -0.475018432,
				"element": "H" 
			},
			{
				"x": 0.4636494427,
				"y": 0.2198910654,
				"z": -2.0779488015,
				"element": "H" 
			},
			{
				"x": 1.5740006849,
				"y": 1.4126358135,
				"z": -1.4140262387,
				"element": "H" 
			},
			{
				"x": -1.2066036097,
				"y": -0.3867091355,
				"z": 0.4390834361,
				"element": "H" 
			},
			{
				"x": -2.0855777384,
				"y": 0.4875973197,
				"z": -0.8404572471,
				"element": "H" 
			},
			{
				"x": -1.6611618629,
				"y": 1.2665357824,
				"z": 2.0747140197,
				"element": "H" 
			},
			{
				"x": -3.0991407186,
				"y": 1.5535412764,
				"z": 1.0861780041,
				"element": "H" 
			},
			{
				"x": -1.2016472317,
				"y": 3.58328596,
				"z": 1.5654522644,
				"element": "H" 
			},
			{
				"x": -2.0499300969,
				"y": 3.4969887068,
				"z": 0.0214465336,
				"element": "H" 
			}
		],
		 "valence_orbital": [ 
			{
				"type": "occ",
				"energy": -0.29203,
				"method": "rhf"
			},
			{
				"type": "occ",
				"energy": -0.26362,
				"method": "rhf"
			},
			{
				"type": "occ",
				"energy": -0.25763,
				"method": "rhf"
			},
			{
				"type": "occ",
				"energy": -0.23455,
				"method": "rhf"
			},
			{
				"type": "occ",
				"energy": -0.22669,
				"method": "rhf"
			},
			{
				"type": "unocc",
				"energy": 0.0266,
				"method": "rhf"
			},
			{
				"type": "unocc",
				"energy": 0.04162,
				"method": "rhf"
			},
			{
				"type": "unocc",
				"energy": 0.05843,
				"method": "rhf"
			},
			{
				"type": "unocc",
				"energy": 0.09704,
				"method": "rhf"
			},
			{
				"type": "unocc",
				"energy": 0.09923,
				"method": "rhf"
			}
		],
		"cosmo_sigma_profile": { 
			"-0.025": 0.0,
			"-0.024": 0.0,
			"-0.023": 0.0,
			"-0.022": 0.0,
			"-0.021": 0.0,
			"-0.02": 0.0,
			"-0.019": 0.0,
			"-0.018": 0.0,
			"-0.017": 0.0,
			"-0.016": 0.0,
			"-0.015": 0.0,
			"-0.014": 0.158615252574,
			"-0.013": 1.76491499056,
			"-0.012": 3.72418533045,
			"-0.011": 5.41058787293,
			"-0.01": 4.41042111786,
			"-0.009": 5.12245607176,
			"-0.008": 2.98621150539,
			"-0.007": 3.02429955958,
			"-0.006": 4.62161339548,
			"-0.005": 9.64201809047,
			"-0.004": 17.7015938349,
			"-0.003": 24.8803439884,
			"-0.002": 19.8401100712,
			"-0.001": 16.0982404007,
			"0.0": 9.0593651404,
			"0.001": 6.05601292266,
			"0.002": 6.03673190482,
			"0.003": 5.5938008465,
			"0.004": 4.72478351468,
			"0.005": 3.29783906829,
			"0.006": 3.21676935127,
			"0.007": 3.83237381575,
			"0.008": 3.51973670022,
			"0.009": 4.08547621872,
			"0.01": 2.33562852974,
			"0.011": 3.38410256944,
			"0.012": 4.95038317933,
			"0.013": 6.80120173239,
			"0.014": 8.89509121938,
			"0.015": 1.83374952736,
			"0.016": 0.175240552839,
			"0.017": 0.0,
			"0.018": 0.0,
			"0.019": 0.0,
			"0.02": 0.0,
			"0.021": 0.0,
			"0.022": 0.0,
			"0.023": 0.0,
			"0.024": 0.0,
			"0.025": 0.0
		}
	}
}
