{
	 "smiles": "COC(=O)C1(C)CCC(C(O)=O)C1(C)C", 
	 "Tm": 349.15, 
	 "num_atms": 33, 
	 "gaussian": { 
		 "optdone": 1, 
		 "sigma_profile": "yes", 
		 "theory": "DFT", 
		 "functional": "B3LYP", 
		 "basiset": "6-31G**", 
		 "properties": { 
			 "R2extent": 3179.8063, 
			 "electric_dipole_moment_norm": 6.8076386251, 
			 "electric_quadrupole_moment_norm": 17.2517093446, 
			 "total_energy": -730.94636367, 
			 "HOMO_LUMO_gap": 0.22358, 
			 "cosmo_polarized_energy": -14.23, 
			 "cosmo_cavitation_energy": 32.02, 
			 "cosmo_dispersion_energy": -22.55, 
			 "cosmo_repulsion_energy": 1.73, 
			 "cosmo_total_nonelectrostatic_energy": 11.2, 
			 "SMD_solvation_energy": 7.38 
		},
		"coords": [
			{
				"x": -1.5767224561,
				"y": 3.7367793284,
				"z": -1.8130182498,
				"element": "C" 
			},
			{
				"x": -1.208122432,
				"y": 2.996813176,
				"z": -0.6314752482,
				"element": "O" 
			},
			{
				"x": -1.128994612,
				"y": 1.6677946281,
				"z": -0.770311189,
				"element": "C" 
			},
			{
				"x": -1.3726070501,
				"y": 1.1326155524,
				"z": -1.84583894,
				"element": "O" 
			},
			{
				"x": -0.7463232001,
				"y": 0.9291570614,
				"z": 0.5160009292,
				"element": "C" 
			},
			{
				"x": -0.5859734732,
				"y": 1.9206910247,
				"z": 1.6805798597,
				"element": "C" 
			},
			{
				"x": -1.8670863808,
				"y": -0.1109540995,
				"z": 0.8043298625,
				"element": "C" 
			},
			{
				"x": -1.6009674707,
				"y": -1.3002790898,
				"z": -0.1288672855,
				"element": "C" 
			},
			{
				"x": -0.0584220867,
				"y": -1.3619679073,
				"z": -0.3034437585,
				"element": "C" 
			},
			{
				"x": 0.4094494382,
				"y": -1.7624384364,
				"z": -1.7086323838,
				"element": "C" 
			},
			{
				"x": -0.1171644613,
				"y": -1.0995000597,
				"z": -2.7553406005,
				"element": "O" 
			},
			{
				"x": 1.2204380315,
				"y": -2.6456899852,
				"z": -1.8819787497,
				"element": "O" 
			},
			{
				"x": 0.5309928944,
				"y": 0.0078469705,
				"z": 0.253176548,
				"element": "C" 
			},
			{
				"x": 1.2410299396,
				"y": -0.3207838227,
				"z": 1.5861399046,
				"element": "C" 
			},
			{
				"x": 1.5778775719,
				"y": 0.6714291386,
				"z": -0.662762279,
				"element": "C" 
			},
			{
				"x": -1.5759809319,
				"y": 4.7831161602,
				"z": -1.5101428204,
				"element": "H" 
			},
			{
				"x": -2.56732572,
				"y": 3.4336431412,
				"z": -2.1585285189,
				"element": "H" 
			},
			{
				"x": -0.8529053569,
				"y": 3.563062285,
				"z": -2.6119951101,
				"element": "H" 
			},
			{
				"x": 0.248591552,
				"y": 2.609288579,
				"z": 1.5224800868,
				"element": "H" 
			},
			{
				"x": -0.4185300365,
				"y": 1.3851962541,
				"z": 2.616567768,
				"element": "H" 
			},
			{
				"x": -1.4886665955,
				"y": 2.5248247919,
				"z": 1.7980772988,
				"element": "H" 
			},
			{
				"x": -2.8716844114,
				"y": 0.3088749872,
				"z": 0.6856255186,
				"element": "H" 
			},
			{
				"x": -1.7747237445,
				"y": -0.4160118446,
				"z": 1.8526633458,
				"element": "H" 
			},
			{
				"x": -1.9914837054,
				"y": -2.2361452401,
				"z": 0.2813454473,
				"element": "H" 
			},
			{
				"x": -2.0980158978,
				"y": -1.1449428165,
				"z": -1.0882542027,
				"element": "H" 
			},
			{
				"x": 0.3420369141,
				"y": -2.161908731,
				"z": 0.3212762643,
				"element": "H" 
			},
			{
				"x": -0.6792567816,
				"y": -0.3535399729,
				"z": -2.4528916886,
				"element": "H" 
			},
			{
				"x": 0.5648701498,
				"y": -0.7716870496,
				"z": 2.31978497,
				"element": "H" 
			},
			{
				"x": 1.6963753497,
				"y": 0.5648338708,
				"z": 2.0384434555,
				"element": "H" 
			},
			{
				"x": 2.0413283527,
				"y": -1.0416972434,
				"z": 1.3928059539,
				"element": "H" 
			},
			{
				"x": 1.1966269331,
				"y": 0.8896436254,
				"z": -1.6618187026,
				"element": "H" 
			},
			{
				"x": 1.935595291,
				"y": 1.6069849133,
				"z": -0.2183091723,
				"element": "H" 
			},
			{
				"x": 2.4422443865,
				"y": 0.0115508107,
				"z": -0.7839883136,
				"element": "H" 
			}
		],
		 "valence_orbital": [ 
			{
				"type": "occ",
				"energy": -0.32041,
				"method": "rhf"
			},
			{
				"type": "occ",
				"energy": -0.3175,
				"method": "rhf"
			},
			{
				"type": "occ",
				"energy": -0.29331,
				"method": "rhf"
			},
			{
				"type": "occ",
				"energy": -0.2851,
				"method": "rhf"
			},
			{
				"type": "occ",
				"energy": -0.24215,
				"method": "rhf"
			},
			{
				"type": "unocc",
				"energy": -0.01857,
				"method": "rhf"
			},
			{
				"type": "unocc",
				"energy": 0.02695,
				"method": "rhf"
			},
			{
				"type": "unocc",
				"energy": 0.06709,
				"method": "rhf"
			},
			{
				"type": "unocc",
				"energy": 0.08102,
				"method": "rhf"
			},
			{
				"type": "unocc",
				"energy": 0.0983,
				"method": "rhf"
			}
		],
		"cosmo_sigma_profile": { 
			"-0.025": 0.0,
			"-0.024": 0.0,
			"-0.023": 0.0,
			"-0.022": 0.0,
			"-0.021": 0.0,
			"-0.02": 0.0,
			"-0.019": 0.0,
			"-0.018": 0.0,
			"-0.017": 0.0,
			"-0.016": 0.0,
			"-0.015": 0.0,
			"-0.014": 0.0,
			"-0.013": 0.0,
			"-0.012": 0.0,
			"-0.011": 0.0,
			"-0.01": 0.0,
			"-0.009": 0.0,
			"-0.008": 0.0,
			"-0.007": 1.57652286417,
			"-0.006": 6.32527269207,
			"-0.005": 12.5788544225,
			"-0.004": 30.6995997453,
			"-0.003": 41.9222920898,
			"-0.002": 32.1858805693,
			"-0.001": 26.6792739628,
			"0.0": 24.6206408845,
			"0.001": 14.8388045411,
			"0.002": 6.27500686084,
			"0.003": 4.69736226991,
			"0.004": 4.39969103805,
			"0.005": 4.81533010544,
			"0.006": 5.28071654515,
			"0.007": 2.98898407157,
			"0.008": 3.57421085174,
			"0.009": 3.52384680145,
			"0.01": 3.55058845403,
			"0.011": 4.0056610832,
			"0.012": 6.28224069985,
			"0.013": 5.49649181638,
			"0.014": 1.96214893784,
			"0.015": 0.107618937001,
			"0.016": 0.0,
			"0.017": 0.0,
			"0.018": 0.0,
			"0.019": 0.0,
			"0.02": 0.0,
			"0.021": 0.0,
			"0.022": 0.0,
			"0.023": 0.0,
			"0.024": 0.0,
			"0.025": 0.0
		}
	}
}
