{
	 "smiles": "NC1=CC(=CC=C1)N1C(=O)C2=C(C=CC=C2)C1=O", 
	 "Tm": 463.15, 
	 "num_atms": 28, 
	 "gaussian": { 
		 "optdone": 1, 
		 "sigma_profile": "yes", 
		 "theory": "DFT", 
		 "functional": "B3LYP", 
		 "basiset": "6-31G**", 
		 "properties": { 
			 "R2extent": 5393.3339, 
			 "electric_dipole_moment_norm": 2.29305684404, 
			 "electric_quadrupole_moment_norm": 27.6662894988, 
			 "total_energy": -799.499738626, 
			 "HOMO_LUMO_gap": 0.11993, 
			 "cosmo_polarized_energy": -15.7, 
			 "cosmo_cavitation_energy": 33.06, 
			 "cosmo_dispersion_energy": -24.04, 
			 "cosmo_repulsion_energy": 1.82, 
			 "cosmo_total_nonelectrostatic_energy": 10.84, 
			 "SMD_solvation_energy": 6.65 
		},
		"coords": [
			{
				"x": 3.5058207812,
				"y": -2.3585995247,
				"z": 0.0181962346,
				"element": "N" 
			},
			{
				"x": 2.9908446325,
				"y": -1.0609001688,
				"z": -0.022256661,
				"element": "C" 
			},
			{
				"x": 1.6459535572,
				"y": -0.8472557142,
				"z": -0.3613067298,
				"element": "C" 
			},
			{
				"x": 1.1400530043,
				"y": 0.4516550812,
				"z": -0.4411683481,
				"element": "C" 
			},
			{
				"x": 1.9606018606,
				"y": 1.5599464759,
				"z": -0.2008820846,
				"element": "C" 
			},
			{
				"x": 3.2999565634,
				"y": 1.3384881472,
				"z": 0.1162504203,
				"element": "C" 
			},
			{
				"x": 3.8184661781,
				"y": 0.0501474193,
				"z": 0.2111536425,
				"element": "C" 
			},
			{
				"x": -0.2380679269,
				"y": 0.6446632855,
				"z": -0.7686885987,
				"element": "N" 
			},
			{
				"x": -0.7222269705,
				"y": 1.6694114609,
				"z": -1.6239530334,
				"element": "C" 
			},
			{
				"x": -0.0517785025,
				"y": 2.5065663475,
				"z": -2.1900976566,
				"element": "O" 
			},
			{
				"x": -2.2014351019,
				"y": 1.4951774365,
				"z": -1.6715423733,
				"element": "C" 
			},
			{
				"x": -2.5457089506,
				"y": 0.4090207653,
				"z": -0.8701757918,
				"element": "C" 
			},
			{
				"x": -3.8650792969,
				"y": 0.0062399725,
				"z": -0.7182807339,
				"element": "C" 
			},
			{
				"x": -4.8430335292,
				"y": 0.7362432278,
				"z": -1.4061845314,
				"element": "C" 
			},
			{
				"x": -4.4964093541,
				"y": 1.8278671778,
				"z": -2.2140020108,
				"element": "C" 
			},
			{
				"x": -3.1608614733,
				"y": 2.225277266,
				"z": -2.3587957961,
				"element": "C" 
			},
			{
				"x": -1.3006143257,
				"y": -0.1572577666,
				"z": -0.279151607,
				"element": "C" 
			},
			{
				"x": -1.1963957694,
				"y": -1.1091650429,
				"z": 0.4667902105,
				"element": "O" 
			},
			{
				"x": 2.8244258865,
				"y": -3.0818665393,
				"z": 0.2039372007,
				"element": "H" 
			},
			{
				"x": 4.3343204224,
				"y": -2.4705381428,
				"z": 0.5861787006,
				"element": "H" 
			},
			{
				"x": 0.9944182562,
				"y": -1.6932568886,
				"z": -0.5430282225,
				"element": "H" 
			},
			{
				"x": 1.5641762923,
				"y": 2.5633074718,
				"z": -0.2757152382,
				"element": "H" 
			},
			{
				"x": 3.9499651406,
				"y": 2.1889305866,
				"z": 0.3006298477,
				"element": "H" 
			},
			{
				"x": 4.8647681186,
				"y": -0.1024111327,
				"z": 0.4632910505,
				"element": "H" 
			},
			{
				"x": -4.11994831,
				"y": -0.8413277122,
				"z": -0.090422642,
				"element": "H" 
			},
			{
				"x": -5.8873917816,
				"y": 0.4532257396,
				"z": -1.3141721008,
				"element": "H" 
			},
			{
				"x": -5.2777803686,
				"y": 2.3733203065,
				"z": -2.7347532534,
				"element": "H" 
			},
			{
				"x": -2.8790390327,
				"y": 3.068790465,
				"z": -2.9805498938,
				"element": "H" 
			}
		],
		 "valence_orbital": [ 
			{
				"type": "occ",
				"energy": -0.2772,
				"method": "rhf"
			},
			{
				"type": "occ",
				"energy": -0.27655,
				"method": "rhf"
			},
			{
				"type": "occ",
				"energy": -0.26562,
				"method": "rhf"
			},
			{
				"type": "occ",
				"energy": -0.23255,
				"method": "rhf"
			},
			{
				"type": "occ",
				"energy": -0.20081,
				"method": "rhf"
			},
			{
				"type": "unocc",
				"energy": -0.08088,
				"method": "rhf"
			},
			{
				"type": "unocc",
				"energy": -0.04399,
				"method": "rhf"
			},
			{
				"type": "unocc",
				"energy": 0.00307,
				"method": "rhf"
			},
			{
				"type": "unocc",
				"energy": 0.01845,
				"method": "rhf"
			},
			{
				"type": "unocc",
				"energy": 0.02891,
				"method": "rhf"
			}
		],
		"cosmo_sigma_profile": { 
			"-0.025": 0.0,
			"-0.024": 0.0,
			"-0.023": 0.0,
			"-0.022": 0.0,
			"-0.021": 0.0,
			"-0.02": 0.0,
			"-0.019": 0.0,
			"-0.018": 0.0,
			"-0.017": 0.0,
			"-0.016": 0.0,
			"-0.015": 0.0,
			"-0.014": 0.0,
			"-0.013": 0.565453777179,
			"-0.012": 2.92355316779,
			"-0.011": 2.37105539395,
			"-0.01": 2.89548294976,
			"-0.009": 3.13841881329,
			"-0.008": 5.14455021658,
			"-0.007": 11.7635977657,
			"-0.006": 15.8920225491,
			"-0.005": 17.9315132494,
			"-0.004": 16.8805257802,
			"-0.003": 18.227323754,
			"-0.002": 15.1984731073,
			"-0.001": 16.750081883,
			"0.0": 18.581548271,
			"0.001": 18.670779524,
			"0.002": 18.4041074109,
			"0.003": 11.4967539292,
			"0.004": 9.3670473486,
			"0.005": 12.9311621137,
			"0.006": 11.6092124023,
			"0.007": 5.07488452581,
			"0.008": 4.47174862706,
			"0.009": 5.4436098045,
			"0.01": 6.96875663698,
			"0.011": 9.80271818207,
			"0.012": 1.9010656416,
			"0.013": 0.739503365768,
			"0.014": 0.555175962681,
			"0.015": 0.167497671697,
			"0.016": 0.0,
			"0.017": 0.0,
			"0.018": 0.0,
			"0.019": 0.0,
			"0.02": 0.0,
			"0.021": 0.0,
			"0.022": 0.0,
			"0.023": 0.0,
			"0.024": 0.0,
			"0.025": 0.0
		}
	}
}
