{
	 "smiles": "[O-][N+](=O)C1=CC=CC(=C1)C1=NOC(CCl)=N1", 
	 "Tm": 334.15, 
	 "num_atms": 22, 
	 "gaussian": { 
		 "optdone": 1, 
		 "sigma_profile": "yes", 
		 "theory": "DFT", 
		 "functional": "B3LYP", 
		 "basiset": "6-31G**", 
		 "properties": { 
			 "R2extent": 6286.4274, 
			 "electric_dipole_moment_norm": 5.35400323496, 
			 "electric_quadrupole_moment_norm": 12.2159858219, 
			 "total_energy": -1196.55302767, 
			 "HOMO_LUMO_gap": 0.17822, 
			 "cosmo_polarized_energy": -12.91, 
			 "cosmo_cavitation_energy": 30.64, 
			 "cosmo_dispersion_energy": -22.55, 
			 "cosmo_repulsion_energy": 1.76, 
			 "cosmo_total_nonelectrostatic_energy": 9.85, 
			 "SMD_solvation_energy": 5.63 
		},
		"coords": [
			{
				"x": -4.7846920576,
				"y": -0.0108147596,
				"z": 0.2495072471,
				"element": "O" 
			},
			{
				"x": -3.7568095087,
				"y": 0.4670911803,
				"z": -0.2281971056,
				"element": "N" 
			},
			{
				"x": -3.6963770054,
				"y": 1.5217889277,
				"z": -0.8564019613,
				"element": "O" 
			},
			{
				"x": -2.5024453419,
				"y": -0.2838681469,
				"z": -0.0305346055,
				"element": "C" 
			},
			{
				"x": -2.5428150438,
				"y": -1.4831138983,
				"z": 0.6806636368,
				"element": "C" 
			},
			{
				"x": -1.3535346504,
				"y": -2.185061244,
				"z": 0.8633266248,
				"element": "C" 
			},
			{
				"x": -0.1564398805,
				"y": -1.6918174168,
				"z": 0.3436190343,
				"element": "C" 
			},
			{
				"x": -0.1372137757,
				"y": -0.4834291311,
				"z": -0.3688772316,
				"element": "C" 
			},
			{
				"x": -1.326274636,
				"y": 0.2319295848,
				"z": -0.5599069604,
				"element": "C" 
			},
			{
				"x": 1.1316139629,
				"y": 0.0224122948,
				"z": -0.9106686135,
				"element": "C" 
			},
			{
				"x": 1.2191377762,
				"y": 1.13994676,
				"z": -1.5999477295,
				"element": "N" 
			},
			{
				"x": 2.5792306978,
				"y": 1.2298441074,
				"z": -1.9045226493,
				"element": "O" 
			},
			{
				"x": 3.1653212435,
				"y": 0.1484057292,
				"z": -1.3648266942,
				"element": "C" 
			},
			{
				"x": 4.6316054697,
				"y": -0.0242832371,
				"z": -1.5374211767,
				"element": "C" 
			},
			{
				"x": 5.0333517554,
				"y": -0.7121792352,
				"z": -3.1679621891,
				"element": "Cl" 
			},
			{
				"x": 2.3361181202,
				"y": -0.6317974581,
				"z": -0.7392029369,
				"element": "N" 
			},
			{
				"x": -3.4879773451,
				"y": -1.8385662749,
				"z": 1.0710634608,
				"element": "H" 
			},
			{
				"x": -1.3594527216,
				"y": -3.1208392246,
				"z": 1.4126233841,
				"element": "H" 
			},
			{
				"x": 0.7724850585,
				"y": -2.2339976938,
				"z": 0.4816963734,
				"element": "H" 
			},
			{
				"x": -1.3416339485,
				"y": 1.1667489387,
				"z": -1.1057717111,
				"element": "H" 
			},
			{
				"x": 5.1482125114,
				"y": 0.9323140516,
				"z": -1.4613540495,
				"element": "H" 
			},
			{
				"x": 5.0018893195,
				"y": -0.721613854,
				"z": -0.7884041474,
				"element": "H" 
			}
		],
		 "valence_orbital": [ 
			{
				"type": "occ",
				"energy": -0.3149,
				"method": "rhf"
			},
			{
				"type": "occ",
				"energy": -0.31281,
				"method": "rhf"
			},
			{
				"type": "occ",
				"energy": -0.29682,
				"method": "rhf"
			},
			{
				"type": "occ",
				"energy": -0.29187,
				"method": "rhf"
			},
			{
				"type": "occ",
				"energy": -0.2739,
				"method": "rhf"
			},
			{
				"type": "unocc",
				"energy": -0.09568,
				"method": "rhf"
			},
			{
				"type": "unocc",
				"energy": -0.07709,
				"method": "rhf"
			},
			{
				"type": "unocc",
				"energy": -0.05142,
				"method": "rhf"
			},
			{
				"type": "unocc",
				"energy": -0.01356,
				"method": "rhf"
			},
			{
				"type": "unocc",
				"energy": 0.02358,
				"method": "rhf"
			}
		],
		"cosmo_sigma_profile": { 
			"-0.025": 0.0,
			"-0.024": 0.0,
			"-0.023": 0.0,
			"-0.022": 0.0,
			"-0.021": 0.0,
			"-0.02": 0.0,
			"-0.019": 0.0,
			"-0.018": 0.0,
			"-0.017": 0.0,
			"-0.016": 0.0,
			"-0.015": 0.0,
			"-0.014": 0.0,
			"-0.013": 0.0,
			"-0.012": 0.0,
			"-0.011": 0.704407060635,
			"-0.01": 4.62579677828,
			"-0.009": 4.40619393438,
			"-0.008": 7.75687531231,
			"-0.007": 12.0948354879,
			"-0.006": 10.8239820704,
			"-0.005": 10.1552055959,
			"-0.004": 11.4344901216,
			"-0.003": 14.559164739,
			"-0.002": 20.5975272348,
			"-0.001": 22.7889913676,
			"0.0": 22.3377114925,
			"0.001": 17.0164736834,
			"0.002": 11.158684075,
			"0.003": 9.67967477734,
			"0.004": 14.6709484267,
			"0.005": 16.1157997754,
			"0.006": 8.37184217637,
			"0.007": 11.7840151241,
			"0.008": 7.99286146995,
			"0.009": 6.47193048314,
			"0.01": 3.40498421853,
			"0.011": 0.787818516052,
			"0.012": 0.0506479835871,
			"0.013": 0.0,
			"0.014": 0.0,
			"0.015": 0.0,
			"0.016": 0.0,
			"0.017": 0.0,
			"0.018": 0.0,
			"0.019": 0.0,
			"0.02": 0.0,
			"0.021": 0.0,
			"0.022": 0.0,
			"0.023": 0.0,
			"0.024": 0.0,
			"0.025": 0.0
		}
	}
}
