{
	 "smiles": "CCOC(=O)C(C)C(=O)CC(O)CC1CC=C(C)C1(C)C", 
	 "Tm": 405.15, 
	 "num_atms": 49, 
	 "gaussian": { 
		 "optdone": 1, 
		 "sigma_profile": "yes", 
		 "theory": "DFT", 
		 "functional": "B3LYP", 
		 "basiset": "6-31G**", 
		 "properties": { 
			 "R2extent": 9765.6451, 
			 "electric_dipole_moment_norm": 3.19048436918, 
			 "electric_quadrupole_moment_norm": 10.945949671, 
			 "total_energy": -965.593021527, 
			 "HOMO_LUMO_gap": 0.18749, 
			 "cosmo_polarized_energy": -14.69, 
			 "cosmo_cavitation_energy": 49.43, 
			 "cosmo_dispersion_energy": -31.88, 
			 "cosmo_repulsion_energy": 2.51, 
			 "cosmo_total_nonelectrostatic_energy": 20.05, 
			 "SMD_solvation_energy": 9.51 
		},
		"coords": [
			{
				"x": -0.5810607491,
				"y": -0.0676020704,
				"z": 5.5576428208,
				"element": "C" 
			},
			{
				"x": -0.5416529739,
				"y": -1.1485466698,
				"z": 4.4951812777,
				"element": "C" 
			},
			{
				"x": 0.8218395422,
				"y": -1.2297594105,
				"z": 4.0088516677,
				"element": "O" 
			},
			{
				"x": 1.0519148517,
				"y": -2.1413861516,
				"z": 3.0505412359,
				"element": "C" 
			},
			{
				"x": 0.1945562803,
				"y": -2.8725612646,
				"z": 2.5944899091,
				"element": "O" 
			},
			{
				"x": 2.5069265761,
				"y": -2.1351092264,
				"z": 2.5717793729,
				"element": "C" 
			},
			{
				"x": 3.4886796137,
				"y": -1.4119715532,
				"z": 3.4942340774,
				"element": "C" 
			},
			{
				"x": 2.5177544268,
				"y": -1.5307504944,
				"z": 1.1414149654,
				"element": "C" 
			},
			{
				"x": 2.8910916872,
				"y": -0.3883973978,
				"z": 0.9592167462,
				"element": "O" 
			},
			{
				"x": 2.0674155102,
				"y": -2.4464255241,
				"z": 0.0208597978,
				"element": "C" 
			},
			{
				"x": 1.8848479383,
				"y": -1.7725168601,
				"z": -1.3477719278,
				"element": "C" 
			},
			{
				"x": 1.8555666811,
				"y": -2.7736277896,
				"z": -2.3690446498,
				"element": "O" 
			},
			{
				"x": 0.6609098458,
				"y": -0.8471989297,
				"z": -1.3890418667,
				"element": "C" 
			},
			{
				"x": 0.4939838196,
				"y": -0.0657236628,
				"z": -2.6993348362,
				"element": "C" 
			},
			{
				"x": 0.0383096891,
				"y": -0.8827035926,
				"z": -3.9348919688,
				"element": "C" 
			},
			{
				"x": -0.6288348865,
				"y": 0.1630461294,
				"z": -4.7913751856,
				"element": "C" 
			},
			{
				"x": -0.9069338778,
				"y": 1.2831860949,
				"z": -4.1140321261,
				"element": "C" 
			},
			{
				"x": -1.5914843241,
				"y": 2.5037842448,
				"z": -4.6557222619,
				"element": "C" 
			},
			{
				"x": -0.4934230724,
				"y": 1.1557090073,
				"z": -2.641468952,
				"element": "C" 
			},
			{
				"x": -1.7521096532,
				"y": 0.8666097561,
				"z": -1.7897361187,
				"element": "C" 
			},
			{
				"x": 0.2067024794,
				"y": 2.413631626,
				"z": -2.0989292845,
				"element": "C" 
			},
			{
				"x": -1.5980014474,
				"y": 0.0264578765,
				"z": 5.9509246591,
				"element": "H" 
			},
			{
				"x": -0.2811240518,
				"y": 0.899141588,
				"z": 5.1436314478,
				"element": "H" 
			},
			{
				"x": 0.0879303852,
				"y": -0.3098853481,
				"z": 6.3882468641,
				"element": "H" 
			},
			{
				"x": -0.8313917538,
				"y": -2.1278625725,
				"z": 4.8881561198,
				"element": "H" 
			},
			{
				"x": -1.2000471369,
				"y": -0.9241154942,
				"z": 3.6504557567,
				"element": "H" 
			},
			{
				"x": 2.7654247526,
				"y": -3.1960916483,
				"z": 2.4727978159,
				"element": "H" 
			},
			{
				"x": 3.2643126625,
				"y": -0.3458139158,
				"z": 3.5336121744,
				"element": "H" 
			},
			{
				"x": 3.4436996628,
				"y": -1.8187063865,
				"z": 4.5072896752,
				"element": "H" 
			},
			{
				"x": 4.5085078039,
				"y": -1.5288381801,
				"z": 3.1171752893,
				"element": "H" 
			},
			{
				"x": 1.1562221701,
				"y": -2.9664416943,
				"z": 0.3458355554,
				"element": "H" 
			},
			{
				"x": 2.8337414059,
				"y": -3.2288436586,
				"z": -0.0793537799,
				"element": "H" 
			},
			{
				"x": 2.7808392556,
				"y": -1.1803117876,
				"z": -1.5614451358,
				"element": "H" 
			},
			{
				"x": 1.0139245451,
				"y": -3.2437596984,
				"z": -2.2926586227,
				"element": "H" 
			},
			{
				"x": -0.2399392257,
				"y": -1.4446310152,
				"z": -1.1810006841,
				"element": "H" 
			},
			{
				"x": 0.7631856558,
				"y": -0.1406667028,
				"z": -0.5569074669,
				"element": "H" 
			},
			{
				"x": 1.4746025484,
				"y": 0.3605255493,
				"z": -2.954224952,
				"element": "H" 
			},
			{
				"x": 0.8749079616,
				"y": -1.3912993383,
				"z": -4.4226631378,
				"element": "H" 
			},
			{
				"x": -0.6777235911,
				"y": -1.6734318652,
				"z": -3.6549935223,
				"element": "H" 
			},
			{
				"x": -0.8781062739,
				"y": 0.0004305193,
				"z": -5.8372293632,
				"element": "H" 
			},
			{
				"x": -2.5065079918,
				"y": 2.7383033001,
				"z": -4.0963977567,
				"element": "H" 
			},
			{
				"x": -0.9493385394,
				"y": 3.390907084,
				"z": -4.5876866963,
				"element": "H" 
			},
			{
				"x": -1.867187619,
				"y": 2.3691397871,
				"z": -5.7057273742,
				"element": "H" 
			},
			{
				"x": -2.4772108327,
				"y": 1.6824086039,
				"z": -1.8832794882,
				"element": "H" 
			},
			{
				"x": -1.5048547752,
				"y": 0.7728312307,
				"z": -0.7266701934,
				"element": "H" 
			},
			{
				"x": -2.2497035625,
				"y": -0.0553735657,
				"z": -2.1075272181,
				"element": "H" 
			},
			{
				"x": 0.5889218775,
				"y": 2.2417686054,
				"z": -1.0860881135,
				"element": "H" 
			},
			{
				"x": -0.4792655491,
				"y": 3.2666671721,
				"z": -2.0477055731,
				"element": "H" 
			},
			{
				"x": 1.0544822586,
				"y": 2.6992052944,
				"z": -2.7311289719,
				"element": "H" 
			}
		],
		 "valence_orbital": [ 
			{
				"type": "occ",
				"energy": -0.29467,
				"method": "rhf"
			},
			{
				"type": "occ",
				"energy": -0.2792,
				"method": "rhf"
			},
			{
				"type": "occ",
				"energy": -0.26811,
				"method": "rhf"
			},
			{
				"type": "occ",
				"energy": -0.24875,
				"method": "rhf"
			},
			{
				"type": "occ",
				"energy": -0.2203,
				"method": "rhf"
			},
			{
				"type": "unocc",
				"energy": -0.03281,
				"method": "rhf"
			},
			{
				"type": "unocc",
				"energy": 0.01622,
				"method": "rhf"
			},
			{
				"type": "unocc",
				"energy": 0.03733,
				"method": "rhf"
			},
			{
				"type": "unocc",
				"energy": 0.07336,
				"method": "rhf"
			},
			{
				"type": "unocc",
				"energy": 0.08531,
				"method": "rhf"
			}
		],
		"cosmo_sigma_profile": { 
			"-0.025": 0.0,
			"-0.024": 0.0,
			"-0.023": 0.0,
			"-0.022": 0.0,
			"-0.021": 0.0,
			"-0.02": 0.0,
			"-0.019": 0.0,
			"-0.018": 0.0,
			"-0.017": 0.0,
			"-0.016": 0.0,
			"-0.015": 0.157805658432,
			"-0.014": 0.796233492438,
			"-0.013": 1.31282716852,
			"-0.012": 0.393262578266,
			"-0.011": 1.1813100168,
			"-0.01": 1.35362945537,
			"-0.009": 1.14340719488,
			"-0.008": 1.93379926448,
			"-0.007": 5.63529770005,
			"-0.006": 7.37273462053,
			"-0.005": 15.9650823899,
			"-0.004": 26.4342256259,
			"-0.003": 37.9099618165,
			"-0.002": 51.0764769035,
			"-0.001": 47.9138408355,
			"0.0": 43.7358375555,
			"0.001": 38.160658367,
			"0.002": 23.1002387048,
			"0.003": 12.5801434063,
			"0.004": 10.0031744967,
			"0.005": 7.90323409321,
			"0.006": 8.95135610596,
			"0.007": 7.13786009773,
			"0.008": 4.31795840887,
			"0.009": 4.3360041649,
			"0.01": 5.21535522402,
			"0.011": 7.44276148655,
			"0.012": 5.26829819217,
			"0.013": 1.40699773835,
			"0.014": 1.53055184216,
			"0.015": 0.486485320685,
			"0.016": 0.0,
			"0.017": 0.0,
			"0.018": 0.0,
			"0.019": 0.0,
			"0.02": 0.0,
			"0.021": 0.0,
			"0.022": 0.0,
			"0.023": 0.0,
			"0.024": 0.0,
			"0.025": 0.0
		}
	}
}
