{
	 "smiles": "CC1=NN(CC2=CC(Br)=CC=C2)C=C1C(O)=O", 
	 "Tm": 438.15, 
	 "num_atms": 28, 
	 "gaussian": { 
		 "optdone": 1, 
		 "sigma_profile": "yes", 
		 "theory": "DFT", 
		 "functional": "B3LYP", 
		 "basiset": "6-31G**", 
		 "properties": { 
			 "R2extent": 8019.9485, 
			 "electric_dipole_moment_norm": 3.94429356666, 
			 "electric_quadrupole_moment_norm": 31.4873206034, 
			 "total_energy": -3295.25991674, 
			 "HOMO_LUMO_gap": 0.2209, 
			 "cosmo_polarized_energy": -18.52, 
			 "cosmo_cavitation_energy": 35.43, 
			 "cosmo_dispersion_energy": -25.26, 
			 "cosmo_repulsion_energy": 1.98, 
			 "cosmo_total_nonelectrostatic_energy": 12.15, 
			 "SMD_solvation_energy": 5.2 
		},
		"coords": [
			{
				"x": 3.4383910992,
				"y": 1.3539032473,
				"z": -1.0046308893,
				"element": "C" 
			},
			{
				"x": 2.1842828105,
				"y": 0.5472232285,
				"z": -0.8381936935,
				"element": "C" 
			},
			{
				"x": 1.8804028955,
				"y": 0.0547744835,
				"z": 0.3609817529,
				"element": "N" 
			},
			{
				"x": 0.7166570155,
				"y": -0.6273078542,
				"z": 0.1885494475,
				"element": "N" 
			},
			{
				"x": 0.0634805416,
				"y": -1.2311364646,
				"z": 1.3469403137,
				"element": "C" 
			},
			{
				"x": -0.8822268766,
				"y": -0.2900255742,
				"z": 2.0728580926,
				"element": "C" 
			},
			{
				"x": -0.4056905878,
				"y": 0.9265031807,
				"z": 2.5801806764,
				"element": "C" 
			},
			{
				"x": -1.2793681903,
				"y": 1.771348197,
				"z": 3.2570408857,
				"element": "C" 
			},
			{
				"x": -0.6275996939,
				"y": 3.4313682769,
				"z": 3.9467081286,
				"element": "Br" 
			},
			{
				"x": -2.6201520669,
				"y": 1.4346364524,
				"z": 3.4486442772,
				"element": "C" 
			},
			{
				"x": -3.0858387054,
				"y": 0.2218967301,
				"z": 2.9434772645,
				"element": "C" 
			},
			{
				"x": -2.2238101693,
				"y": -0.6358863709,
				"z": 2.2568767247,
				"element": "C" 
			},
			{
				"x": 0.2753290203,
				"y": -0.5716953563,
				"z": -1.0826068585,
				"element": "C" 
			},
			{
				"x": 1.1967709355,
				"y": 0.1779077413,
				"z": -1.8017587467,
				"element": "C" 
			},
			{
				"x": 1.0512037234,
				"y": 0.4297149213,
				"z": -3.2491151412,
				"element": "C" 
			},
			{
				"x": 2.0000298413,
				"y": 1.201812369,
				"z": -3.8474115998,
				"element": "O" 
			},
			{
				"x": 0.1384093134,
				"y": -0.0163729301,
				"z": -3.9081068268,
				"element": "O" 
			},
			{
				"x": 3.2252230846,
				"y": 2.3821771845,
				"z": -1.3244260383,
				"element": "H" 
			},
			{
				"x": 3.9617604709,
				"y": 1.4112049459,
				"z": -0.0482818162,
				"element": "H" 
			},
			{
				"x": 4.1242560683,
				"y": 0.9007687562,
				"z": -1.7314308144,
				"element": "H" 
			},
			{
				"x": 0.8687991465,
				"y": -1.560970813,
				"z": 2.0086911571,
				"element": "H" 
			},
			{
				"x": -0.4752629373,
				"y": -2.1177689088,
				"z": 1.002922697,
				"element": "H" 
			},
			{
				"x": 0.6319454121,
				"y": 1.2054969372,
				"z": 2.4344677379,
				"element": "H" 
			},
			{
				"x": -3.2820471762,
				"y": 2.1083788728,
				"z": 3.9803734891,
				"element": "H" 
			},
			{
				"x": -4.1274034475,
				"y": -0.0516415317,
				"z": 3.0827258986,
				"element": "H" 
			},
			{
				"x": -2.5981414923,
				"y": -1.5776433457,
				"z": 1.8643488072,
				"element": "H" 
			},
			{
				"x": -0.6344969499,
				"y": -1.0492182648,
				"z": -1.4142941224,
				"element": "H" 
			},
			{
				"x": 2.6556969148,
				"y": 1.5046518897,
				"z": -3.2052308037,
				"element": "H" 
			}
		],
		 "valence_orbital": [ 
			{
				"type": "occ",
				"energy": -0.27338,
				"method": "rhf"
			},
			{
				"type": "occ",
				"energy": -0.26583,
				"method": "rhf"
			},
			{
				"type": "occ",
				"energy": -0.26412,
				"method": "rhf"
			},
			{
				"type": "occ",
				"energy": -0.25912,
				"method": "rhf"
			},
			{
				"type": "occ",
				"energy": -0.25147,
				"method": "rhf"
			},
			{
				"type": "unocc",
				"energy": -0.03057,
				"method": "rhf"
			},
			{
				"type": "unocc",
				"energy": -0.02595,
				"method": "rhf"
			},
			{
				"type": "unocc",
				"energy": -0.02151,
				"method": "rhf"
			},
			{
				"type": "unocc",
				"energy": 0.00189,
				"method": "rhf"
			},
			{
				"type": "unocc",
				"energy": 0.00757,
				"method": "rhf"
			}
		],
		"cosmo_sigma_profile": { 
			"-0.025": 0.0,
			"-0.024": 0.0,
			"-0.023": 0.0,
			"-0.022": 0.0,
			"-0.021": 0.0,
			"-0.02": 0.0,
			"-0.019": 0.0,
			"-0.018": 0.0,
			"-0.017": 0.0,
			"-0.016": 0.0,
			"-0.015": 0.141571098233,
			"-0.014": 1.46375294056,
			"-0.013": 1.5124534268,
			"-0.012": 1.74861587706,
			"-0.011": 1.26244500502,
			"-0.01": 3.74560331735,
			"-0.009": 4.46022726799,
			"-0.008": 7.7586383326,
			"-0.007": 11.4377116563,
			"-0.006": 14.7749018028,
			"-0.005": 15.8863382606,
			"-0.004": 16.3419340839,
			"-0.003": 16.6658395599,
			"-0.002": 17.0851853388,
			"-0.001": 18.5855887768,
			"0.0": 16.8619799724,
			"0.001": 22.3892608717,
			"0.002": 26.3288600885,
			"0.003": 23.1229253942,
			"0.004": 19.4210002542,
			"0.005": 9.90503448925,
			"0.006": 3.32645905491,
			"0.007": 2.94863111989,
			"0.008": 4.51347440405,
			"0.009": 3.27689781929,
			"0.01": 4.72123217258,
			"0.011": 5.44672930891,
			"0.012": 6.54710396513,
			"0.013": 4.06674510758,
			"0.014": 0.923364582592,
			"0.015": 0.0,
			"0.016": 0.0,
			"0.017": 0.0,
			"0.018": 0.0,
			"0.019": 0.0,
			"0.02": 0.0,
			"0.021": 0.0,
			"0.022": 0.0,
			"0.023": 0.0,
			"0.024": 0.0,
			"0.025": 0.0
		}
	}
}
