{
	 "smiles": "CC1=NN(C(C)=C1C(O)=O)C1=CC=C(Cl)C=C1", 
	 "Tm": 493.15, 
	 "num_atms": 28, 
	 "gaussian": { 
		 "optdone": 1, 
		 "sigma_profile": "yes", 
		 "theory": "DFT", 
		 "functional": "B3LYP", 
		 "basiset": "6-31G**", 
		 "properties": { 
			 "R2extent": 6787.2146, 
			 "electric_dipole_moment_norm": 2.59916561419, 
			 "electric_quadrupole_moment_norm": 13.2506121576, 
			 "total_energy": -1184.0665335, 
			 "HOMO_LUMO_gap": 0.19381, 
			 "cosmo_polarized_energy": -12.82, 
			 "cosmo_cavitation_energy": 34.17, 
			 "cosmo_dispersion_energy": -24.82, 
			 "cosmo_repulsion_energy": 1.93, 
			 "cosmo_total_nonelectrostatic_energy": 11.28, 
			 "SMD_solvation_energy": 5.92 
		},
		"coords": [
			{
				"x": 1.96742938,
				"y": 3.3177998309,
				"z": -2.2642095333,
				"element": "C" 
			},
			{
				"x": 1.5253133658,
				"y": 2.0097319064,
				"z": -1.6901080843,
				"element": "C" 
			},
			{
				"x": 0.3042600594,
				"y": 1.5554965595,
				"z": -1.9165327359,
				"element": "N" 
			},
			{
				"x": 0.2350984732,
				"y": 0.3468757583,
				"z": -1.2672086897,
				"element": "N" 
			},
			{
				"x": 1.3923240495,
				"y": 0.0352978102,
				"z": -0.6123314608,
				"element": "C" 
			},
			{
				"x": 1.566338462,
				"y": -1.1815762536,
				"z": 0.2413374674,
				"element": "C" 
			},
			{
				"x": 2.2640744993,
				"y": 1.0947916757,
				"z": -0.8768595667,
				"element": "C" 
			},
			{
				"x": 3.6426264071,
				"y": 1.2995988112,
				"z": -0.4429587868,
				"element": "C" 
			},
			{
				"x": 4.1467063064,
				"y": 0.2715526573,
				"z": 0.2987949734,
				"element": "O" 
			},
			{
				"x": 4.3184252069,
				"y": 2.2799390565,
				"z": -0.7015061452,
				"element": "O" 
			},
			{
				"x": -0.9940523096,
				"y": -0.3662074626,
				"z": -1.3217535505,
				"element": "C" 
			},
			{
				"x": -1.0212536237,
				"y": -1.7521075399,
				"z": -1.5056880001,
				"element": "C" 
			},
			{
				"x": -2.2408683739,
				"y": -2.4264666225,
				"z": -1.5578767745,
				"element": "C" 
			},
			{
				"x": -3.4275745532,
				"y": -1.7041655228,
				"z": -1.4484180716,
				"element": "C" 
			},
			{
				"x": -4.964443824,
				"y": -2.5497259619,
				"z": -1.5196697526,
				"element": "Cl" 
			},
			{
				"x": -3.4117551593,
				"y": -0.3171010624,
				"z": -1.2921119016,
				"element": "C" 
			},
			{
				"x": -2.1926253358,
				"y": 0.3505137413,
				"z": -1.2259597896,
				"element": "C" 
			},
			{
				"x": 2.8378120024,
				"y": 3.1864392669,
				"z": -2.9135201701,
				"element": "H" 
			},
			{
				"x": 1.1497942344,
				"y": 3.7594262857,
				"z": -2.8377491793,
				"element": "H" 
			},
			{
				"x": 2.2745717531,
				"y": 4.008216595,
				"z": -1.4735222516,
				"element": "H" 
			},
			{
				"x": 2.2685222917,
				"y": -0.9641669972,
				"z": 1.0453678929,
				"element": "H" 
			},
			{
				"x": 1.9827031666,
				"y": -2.0204098629,
				"z": -0.3289007333,
				"element": "H" 
			},
			{
				"x": 0.6141505626,
				"y": -1.5042319049,
				"z": 0.6687615748,
				"element": "H" 
			},
			{
				"x": 5.0537177112,
				"y": 0.5406413148,
				"z": 0.5201795778,
				"element": "H" 
			},
			{
				"x": -0.0984864628,
				"y": -2.3055434048,
				"z": -1.6336366979,
				"element": "H" 
			},
			{
				"x": -2.2678535794,
				"y": -3.500781206,
				"z": -1.7006012731,
				"element": "H" 
			},
			{
				"x": -4.3434547697,
				"y": 0.2321688451,
				"z": -1.216965995,
				"element": "H" 
			},
			{
				"x": -2.1546999403,
				"y": 1.4270936867,
				"z": -1.1114523427,
				"element": "H" 
			}
		],
		 "valence_orbital": [ 
			{
				"type": "occ",
				"energy": -0.28,
				"method": "rhf"
			},
			{
				"type": "occ",
				"energy": -0.27658,
				"method": "rhf"
			},
			{
				"type": "occ",
				"energy": -0.27333,
				"method": "rhf"
			},
			{
				"type": "occ",
				"energy": -0.25245,
				"method": "rhf"
			},
			{
				"type": "occ",
				"energy": -0.23623,
				"method": "rhf"
			},
			{
				"type": "unocc",
				"energy": -0.04242,
				"method": "rhf"
			},
			{
				"type": "unocc",
				"energy": -0.02717,
				"method": "rhf"
			},
			{
				"type": "unocc",
				"energy": -0.01126,
				"method": "rhf"
			},
			{
				"type": "unocc",
				"energy": 0.01996,
				"method": "rhf"
			},
			{
				"type": "unocc",
				"energy": 0.02607,
				"method": "rhf"
			}
		],
		"cosmo_sigma_profile": { 
			"-0.025": 0.0,
			"-0.024": 0.0,
			"-0.023": 0.0,
			"-0.022": 0.0,
			"-0.021": 0.0,
			"-0.02": 0.0,
			"-0.019": 0.0,
			"-0.018": 0.391111381984,
			"-0.017": 0.715858410619,
			"-0.016": 0.800340078442,
			"-0.015": 1.05600358256,
			"-0.014": 0.664385875849,
			"-0.013": 0.650776860093,
			"-0.012": 0.578710872446,
			"-0.011": 0.677914212781,
			"-0.01": 0.726889343472,
			"-0.009": 0.338783273452,
			"-0.008": 4.83227451241,
			"-0.007": 8.92549425507,
			"-0.006": 11.1834132259,
			"-0.005": 11.6874989915,
			"-0.004": 15.8664954283,
			"-0.003": 18.5022883532,
			"-0.002": 21.0919091086,
			"-0.001": 25.5597394505,
			"0.0": 27.5873515951,
			"0.001": 26.1298327451,
			"0.002": 25.9559444885,
			"0.003": 17.433453819,
			"0.004": 16.9530825433,
			"0.005": 9.05560580107,
			"0.006": 4.32963019198,
			"0.007": 3.85942745733,
			"0.008": 3.59798498056,
			"0.009": 2.82805105843,
			"0.01": 2.37840317126,
			"0.011": 3.63713683242,
			"0.012": 4.54243514415,
			"0.013": 2.05258710029,
			"0.014": 0.486572444498,
			"0.015": 0.0762666478208,
			"0.016": 0.0,
			"0.017": 0.0,
			"0.018": 0.0,
			"0.019": 0.0,
			"0.02": 0.0,
			"0.021": 0.0,
			"0.022": 0.0,
			"0.023": 0.0,
			"0.024": 0.0,
			"0.025": 0.0
		}
	}
}
