{
	 "smiles": "OC(=O)CN1N=C(C=CC1=O)C1=CC=CC=C1", 
	 "Tm": 511.15, 
	 "num_atms": 27, 
	 "gaussian": { 
		 "optdone": 1, 
		 "sigma_profile": "yes", 
		 "theory": "DFT", 
		 "functional": "B3LYP", 
		 "basiset": "6-31G**", 
		 "properties": { 
			 "R2extent": 5045.2231, 
			 "electric_dipole_moment_norm": 7.06070355205, 
			 "electric_quadrupole_moment_norm": 9.7197153091, 
			 "total_energy": -798.474087431, 
			 "HOMO_LUMO_gap": 0.15419, 
			 "cosmo_polarized_energy": -16.76, 
			 "cosmo_cavitation_energy": 31.85, 
			 "cosmo_dispersion_energy": -23.28, 
			 "cosmo_repulsion_energy": 1.78, 
			 "cosmo_total_nonelectrostatic_energy": 10.35, 
			 "SMD_solvation_energy": 6.25 
		},
		"coords": [
			{
				"x": 1.8535805286,
				"y": 1.6500503871,
				"z": -2.7075252007,
				"element": "O" 
			},
			{
				"x": 0.6972486343,
				"y": 2.1122189257,
				"z": -2.2250384164,
				"element": "C" 
			},
			{
				"x": -0.2365214554,
				"y": 2.4149929535,
				"z": -2.9283741986,
				"element": "O" 
			},
			{
				"x": 0.6323675103,
				"y": 2.285589236,
				"z": -0.6911932924,
				"element": "C" 
			},
			{
				"x": 0.8371661314,
				"y": 1.0435514745,
				"z": 0.0740681822,
				"element": "N" 
			},
			{
				"x": -0.2705045749,
				"y": 0.5339406088,
				"z": 0.6371774062,
				"element": "N" 
			},
			{
				"x": -0.1636917457,
				"y": -0.542748724,
				"z": 1.3873887698,
				"element": "C" 
			},
			{
				"x": 1.1136286124,
				"y": -1.1557693374,
				"z": 1.6155225342,
				"element": "C" 
			},
			{
				"x": 2.2280567003,
				"y": -0.6266717435,
				"z": 1.04527284,
				"element": "C" 
			},
			{
				"x": 2.1289522423,
				"y": 0.5299477169,
				"z": 0.1896058102,
				"element": "C" 
			},
			{
				"x": 3.0743181782,
				"y": 1.0589978885,
				"z": -0.4239496174,
				"element": "O" 
			},
			{
				"x": -1.4183326453,
				"y": -1.0823007385,
				"z": 1.9664546247,
				"element": "C" 
			},
			{
				"x": -2.6524043941,
				"y": -0.8076350962,
				"z": 1.3529268608,
				"element": "C" 
			},
			{
				"x": -3.8350200208,
				"y": -1.3080549186,
				"z": 1.8901642858,
				"element": "C" 
			},
			{
				"x": -3.8086155006,
				"y": -2.0903158919,
				"z": 3.0478907298,
				"element": "C" 
			},
			{
				"x": -2.5890698907,
				"y": -2.3645195911,
				"z": 3.6676490614,
				"element": "C" 
			},
			{
				"x": -1.4023311211,
				"y": -1.8648374792,
				"z": 3.1320668594,
				"element": "C" 
			},
			{
				"x": 2.4883873037,
				"y": 1.4897511678,
				"z": -1.9625942443,
				"element": "H" 
			},
			{
				"x": -0.3568287778,
				"y": 2.6536956453,
				"z": -0.433459062,
				"element": "H" 
			},
			{
				"x": 1.4027208535,
				"y": 2.9988264663,
				"z": -0.3795473148,
				"element": "H" 
			},
			{
				"x": 1.1793971477,
				"y": -2.0521742366,
				"z": 2.2222022075,
				"element": "H" 
			},
			{
				"x": 3.2155676033,
				"y": -1.0548771399,
				"z": 1.173042045,
				"element": "H" 
			},
			{
				"x": -2.669130104,
				"y": -0.2053416541,
				"z": 0.4513716838,
				"element": "H" 
			},
			{
				"x": -4.7799258247,
				"y": -1.0924625987,
				"z": 1.4002329743,
				"element": "H" 
			},
			{
				"x": -4.7321344127,
				"y": -2.4822717105,
				"z": 3.463548039,
				"element": "H" 
			},
			{
				"x": -2.5590897572,
				"y": -2.9627552344,
				"z": 4.5734701662,
				"element": "H" 
			},
			{
				"x": -0.4668912208,
				"y": -2.0673263759,
				"z": 3.6447262662,
				"element": "H" 
			}
		],
		 "valence_orbital": [ 
			{
				"type": "occ",
				"energy": -0.28639,
				"method": "rhf"
			},
			{
				"type": "occ",
				"energy": -0.28354,
				"method": "rhf"
			},
			{
				"type": "occ",
				"energy": -0.26792,
				"method": "rhf"
			},
			{
				"type": "occ",
				"energy": -0.26405,
				"method": "rhf"
			},
			{
				"type": "occ",
				"energy": -0.24095,
				"method": "rhf"
			},
			{
				"type": "unocc",
				"energy": -0.08676,
				"method": "rhf"
			},
			{
				"type": "unocc",
				"energy": -0.05185,
				"method": "rhf"
			},
			{
				"type": "unocc",
				"energy": -0.01753,
				"method": "rhf"
			},
			{
				"type": "unocc",
				"energy": 0.00734,
				"method": "rhf"
			},
			{
				"type": "unocc",
				"energy": 0.01356,
				"method": "rhf"
			}
		],
		"cosmo_sigma_profile": { 
			"-0.025": 0.0,
			"-0.024": 0.0,
			"-0.023": 0.0,
			"-0.022": 0.0,
			"-0.021": 0.0,
			"-0.02": 0.0,
			"-0.019": 0.0,
			"-0.018": 0.0,
			"-0.017": 0.0,
			"-0.016": 0.0,
			"-0.015": 0.0,
			"-0.014": 0.0,
			"-0.013": 0.0,
			"-0.012": 0.0,
			"-0.011": 0.0,
			"-0.01": 1.25926005535,
			"-0.009": 6.28436175038,
			"-0.008": 7.68080641669,
			"-0.007": 10.1862738984,
			"-0.006": 16.7603105682,
			"-0.005": 21.0082113503,
			"-0.004": 19.9771562987,
			"-0.003": 17.6514288466,
			"-0.002": 17.9444504435,
			"-0.001": 16.4024349177,
			"0.0": 15.5733084022,
			"0.001": 11.9891244379,
			"0.002": 13.291502598,
			"0.003": 12.186067221,
			"0.004": 15.6539682012,
			"0.005": 11.4800067501,
			"0.006": 4.80352437847,
			"0.007": 4.11206508351,
			"0.008": 3.85243947275,
			"0.009": 4.27083233508,
			"0.01": 6.37992962806,
			"0.011": 7.84600411862,
			"0.012": 6.8713990838,
			"0.013": 2.64210841043,
			"0.014": 0.110981085952,
			"0.015": 0.0,
			"0.016": 0.0,
			"0.017": 0.0,
			"0.018": 0.0,
			"0.019": 0.0,
			"0.02": 0.0,
			"0.021": 0.0,
			"0.022": 0.0,
			"0.023": 0.0,
			"0.024": 0.0,
			"0.025": 0.0
		}
	}
}
