{
	 "smiles": "O=C(NC1=CC=CC=C1)C(=O)NC1=CC=CC=C1", 
	 "Tm": 527.15, 
	 "num_atms": 30, 
	 "gaussian": { 
		 "optdone": 1, 
		 "sigma_profile": "yes", 
		 "theory": "DFT", 
		 "functional": "B3LYP", 
		 "basiset": "6-31G**", 
		 "properties": { 
			 "R2extent": 4786.4384, 
			 "electric_dipole_moment_norm": 4.89464503309, 
			 "electric_quadrupole_moment_norm": 11.8346821575, 
			 "total_energy": -800.687798556, 
			 "HOMO_LUMO_gap": 0.2088, 
			 "cosmo_polarized_energy": -16.67, 
			 "cosmo_cavitation_energy": 35.09, 
			 "cosmo_dispersion_energy": -23.85, 
			 "cosmo_repulsion_energy": 1.88, 
			 "cosmo_total_nonelectrostatic_energy": 13.11, 
			 "SMD_solvation_energy": 6.92 
		},
		"coords": [
			{
				"x": 0.6321856718,
				"y": -3.0034864092,
				"z": 0.2367709648,
				"element": "O" 
			},
			{
				"x": -0.162181554,
				"y": -2.1657516379,
				"z": 0.6452179968,
				"element": "C" 
			},
			{
				"x": -1.4513029209,
				"y": -2.1067295165,
				"z": 0.1914024722,
				"element": "N" 
			},
			{
				"x": -2.5090180483,
				"y": -1.2110440978,
				"z": 0.5117734122,
				"element": "C" 
			},
			{
				"x": -2.8195271252,
				"y": -0.8741817516,
				"z": 1.8353717438,
				"element": "C" 
			},
			{
				"x": -3.8832629814,
				"y": -0.0075328963,
				"z": 2.0912842563,
				"element": "C" 
			},
			{
				"x": -4.6593905148,
				"y": 0.4991299858,
				"z": 1.0482078345,
				"element": "C" 
			},
			{
				"x": -4.3619896033,
				"y": 0.139431457,
				"z": -0.2682313031,
				"element": "C" 
			},
			{
				"x": -3.2872610914,
				"y": -0.7047809533,
				"z": -0.538556508,
				"element": "C" 
			},
			{
				"x": 0.2669183461,
				"y": -1.1919659569,
				"z": 1.7516766372,
				"element": "C" 
			},
			{
				"x": 0.0828388,
				"y": -1.491633963,
				"z": 2.9246879655,
				"element": "O" 
			},
			{
				"x": 0.9054276108,
				"y": -0.0376388712,
				"z": 1.3895693774,
				"element": "N" 
			},
			{
				"x": 1.1922210603,
				"y": 0.5014313052,
				"z": 0.1047064834,
				"element": "C" 
			},
			{
				"x": 0.9635297667,
				"y": 1.8685718066,
				"z": -0.1045010209,
				"element": "C" 
			},
			{
				"x": 1.2727585278,
				"y": 2.4490708283,
				"z": -1.332597191,
				"element": "C" 
			},
			{
				"x": 1.7961317133,
				"y": 1.6694860232,
				"z": -2.3666009768,
				"element": "C" 
			},
			{
				"x": 2.0234670488,
				"y": 0.3091864955,
				"z": -2.1544899553,
				"element": "C" 
			},
			{
				"x": 1.7413847976,
				"y": -0.278990961,
				"z": -0.9205555839,
				"element": "C" 
			},
			{
				"x": -1.6180561073,
				"y": -2.7683345992,
				"z": -0.5587162548,
				"element": "H" 
			},
			{
				"x": -2.2385417593,
				"y": -1.2928559849,
				"z": 2.6483354902,
				"element": "H" 
			},
			{
				"x": -4.1162838691,
				"y": 0.2536137979,
				"z": 3.1194808896,
				"element": "H" 
			},
			{
				"x": -5.4929525826,
				"y": 1.1624275587,
				"z": 1.2582968991,
				"element": "H" 
			},
			{
				"x": -4.9605671508,
				"y": 0.5236579295,
				"z": -1.0889653244,
				"element": "H" 
			},
			{
				"x": -3.0398532177,
				"y": -0.9691177964,
				"z": -1.5630964272,
				"element": "H" 
			},
			{
				"x": 1.1144230735,
				"y": 0.5458985895,
				"z": 2.1920701,
				"element": "H" 
			},
			{
				"x": 0.5358972077,
				"y": 2.4677367013,
				"z": 0.6948071441,
				"element": "H" 
			},
			{
				"x": 1.0946908249,
				"y": 3.5097737142,
				"z": -1.4833618138,
				"element": "H" 
			},
			{
				"x": 2.0308995322,
				"y": 2.1206832287,
				"z": -3.3258899265,
				"element": "H" 
			},
			{
				"x": 2.4449415302,
				"y": -0.3021792422,
				"z": -2.9471268154,
				"element": "H" 
			},
			{
				"x": 1.9491730141,
				"y": -1.3279747844,
				"z": -0.746770566,
				"element": "H" 
			}
		],
		 "valence_orbital": [ 
			{
				"type": "occ",
				"energy": -0.26063,
				"method": "rhf"
			},
			{
				"type": "occ",
				"energy": -0.26038,
				"method": "rhf"
			},
			{
				"type": "occ",
				"energy": -0.25057,
				"method": "rhf"
			},
			{
				"type": "occ",
				"energy": -0.23503,
				"method": "rhf"
			},
			{
				"type": "occ",
				"energy": -0.23347,
				"method": "rhf"
			},
			{
				"type": "unocc",
				"energy": -0.02467,
				"method": "rhf"
			},
			{
				"type": "unocc",
				"energy": -0.0204,
				"method": "rhf"
			},
			{
				"type": "unocc",
				"energy": -0.01122,
				"method": "rhf"
			},
			{
				"type": "unocc",
				"energy": -0.00963,
				"method": "rhf"
			},
			{
				"type": "unocc",
				"energy": 0.01523,
				"method": "rhf"
			}
		],
		"cosmo_sigma_profile": { 
			"-0.025": 0.0,
			"-0.024": 0.0,
			"-0.023": 0.0,
			"-0.022": 0.0,
			"-0.021": 0.0,
			"-0.02": 0.0,
			"-0.019": 0.0,
			"-0.018": 0.0,
			"-0.017": 0.0,
			"-0.016": 0.140929081405,
			"-0.015": 1.65143423856,
			"-0.014": 2.52307556423,
			"-0.013": 2.00031979063,
			"-0.012": 1.67526730091,
			"-0.011": 2.82557700095,
			"-0.01": 2.3816446376,
			"-0.009": 1.79215102735,
			"-0.008": 2.68220638197,
			"-0.007": 4.91074786489,
			"-0.006": 16.0335361021,
			"-0.005": 17.4469301805,
			"-0.004": 23.0535522691,
			"-0.003": 17.1393533625,
			"-0.002": 16.1385154211,
			"-0.001": 17.5522211437,
			"0.0": 18.0957973665,
			"0.001": 22.2808181471,
			"0.002": 19.4149311771,
			"0.003": 20.3713017747,
			"0.004": 20.628282703,
			"0.005": 19.0819675075,
			"0.006": 4.08303867215,
			"0.007": 2.03374392486,
			"0.008": 3.31398309596,
			"0.009": 2.54210282881,
			"0.01": 3.00460023087,
			"0.011": 5.34546912646,
			"0.012": 8.76075302543,
			"0.013": 2.28513011704,
			"0.014": 0.0,
			"0.015": 0.0,
			"0.016": 0.0,
			"0.017": 0.0,
			"0.018": 0.0,
			"0.019": 0.0,
			"0.02": 0.0,
			"0.021": 0.0,
			"0.022": 0.0,
			"0.023": 0.0,
			"0.024": 0.0,
			"0.025": 0.0
		}
	}
}
