{
	 "smiles": "OC(=O)C1=CC=C(CN2CCC3=C2C=CC=C3)C=C1", 
	 "Tm": 456.15, 
	 "num_atms": 34, 
	 "gaussian": { 
		 "optdone": 1, 
		 "sigma_profile": "yes", 
		 "theory": "DFT", 
		 "functional": "B3LYP", 
		 "basiset": "6-31G**", 
		 "properties": { 
			 "R2extent": 6514.7093, 
			 "electric_dipole_moment_norm": 4.31460647684, 
			 "electric_quadrupole_moment_norm": 30.3004146523, 
			 "total_energy": -823.95217379, 
			 "HOMO_LUMO_gap": 0.13834, 
			 "cosmo_polarized_energy": -16.6, 
			 "cosmo_cavitation_energy": 36.93, 
			 "cosmo_dispersion_energy": -26.46, 
			 "cosmo_repulsion_energy": 2.03, 
			 "cosmo_total_nonelectrostatic_energy": 12.5, 
			 "SMD_solvation_energy": 5.63 
		},
		"coords": [
			{
				"x": -0.7694313122,
				"y": -3.4792237817,
				"z": 3.5031049618,
				"element": "O" 
			},
			{
				"x": 0.4230988453,
				"y": -2.8267136945,
				"z": 3.564374785,
				"element": "C" 
			},
			{
				"x": 1.2210053371,
				"y": -3.1109133219,
				"z": 4.4268172968,
				"element": "O" 
			},
			{
				"x": 0.6717817174,
				"y": -1.7734958468,
				"z": 2.527484013,
				"element": "C" 
			},
			{
				"x": -0.3524986538,
				"y": -1.153565009,
				"z": 1.7963286245,
				"element": "C" 
			},
			{
				"x": -0.0579621064,
				"y": -0.1700990319,
				"z": 0.85489967,
				"element": "C" 
			},
			{
				"x": 1.269526353,
				"y": 0.215519278,
				"z": 0.6179729557,
				"element": "C" 
			},
			{
				"x": 1.6138931472,
				"y": 1.3012836588,
				"z": -0.3988890643,
				"element": "C" 
			},
			{
				"x": 0.9925225661,
				"y": 1.1800241335,
				"z": -1.7016503275,
				"element": "N" 
			},
			{
				"x": 1.2566221898,
				"y": -0.0113512122,
				"z": -2.5237255381,
				"element": "C" 
			},
			{
				"x": 0.3234360329,
				"y": 0.1621005032,
				"z": -3.7452314374,
				"element": "C" 
			},
			{
				"x": -0.7401040872,
				"y": 1.10292044,
				"z": -3.2161606581,
				"element": "C" 
			},
			{
				"x": -0.2748187978,
				"y": 1.6766991704,
				"z": -2.0157732865,
				"element": "C" 
			},
			{
				"x": -1.0448649188,
				"y": 2.6271824152,
				"z": -1.3386539905,
				"element": "C" 
			},
			{
				"x": -2.2814616389,
				"y": 2.9939615729,
				"z": -1.8865876327,
				"element": "C" 
			},
			{
				"x": -2.7467813161,
				"y": 2.4297057199,
				"z": -3.0741411968,
				"element": "C" 
			},
			{
				"x": -1.9637941948,
				"y": 1.4774718943,
				"z": -3.7464073819,
				"element": "C" 
			},
			{
				"x": 2.2877883737,
				"y": -0.4041234971,
				"z": 1.3549486332,
				"element": "C" 
			},
			{
				"x": 1.9963006985,
				"y": -1.3760331336,
				"z": 2.3074729025,
				"element": "C" 
			},
			{
				"x": -1.2273069212,
				"y": -3.2614773408,
				"z": 2.6796495429,
				"element": "H" 
			},
			{
				"x": -1.3961204248,
				"y": -1.3984459037,
				"z": 1.9815198653,
				"element": "H" 
			},
			{
				"x": -0.8645737535,
				"y": 0.3058339863,
				"z": 0.306662421,
				"element": "H" 
			},
			{
				"x": 2.7025924056,
				"y": 1.3145879314,
				"z": -0.5361055608,
				"element": "H" 
			},
			{
				"x": 1.3503450672,
				"y": 2.2840784006,
				"z": 0.0088278175,
				"element": "H" 
			},
			{
				"x": 2.3165671883,
				"y": -0.0618315183,
				"z": -2.7952641647,
				"element": "H" 
			},
			{
				"x": 1.0075977611,
				"y": -0.930220321,
				"z": -1.9695714175,
				"element": "H" 
			},
			{
				"x": -0.0711189814,
				"y": -0.7942793805,
				"z": -4.1005986961,
				"element": "H" 
			},
			{
				"x": 0.8622593819,
				"y": 0.6246901651,
				"z": -4.5826621245,
				"element": "H" 
			},
			{
				"x": -0.7073682276,
				"y": 3.074035757,
				"z": -0.4085477578,
				"element": "H" 
			},
			{
				"x": -2.8889140026,
				"y": 3.7291805544,
				"z": -1.365864751,
				"element": "H" 
			},
			{
				"x": -3.7110629872,
				"y": 2.7234901917,
				"z": -3.4766662073,
				"element": "H" 
			},
			{
				"x": -2.3179067757,
				"y": 1.0344237209,
				"z": -4.6741023785,
				"element": "H" 
			},
			{
				"x": 3.3223975362,
				"y": -0.11806839,
				"z": 1.1814886261,
				"element": "H" 
			},
			{
				"x": 2.7811544989,
				"y": -1.8481481102,
				"z": 2.8886514567,
				"element": "H" 
			}
		],
		 "valence_orbital": [ 
			{
				"type": "occ",
				"energy": -0.27507,
				"method": "rhf"
			},
			{
				"type": "occ",
				"energy": -0.27201,
				"method": "rhf"
			},
			{
				"type": "occ",
				"energy": -0.26192,
				"method": "rhf"
			},
			{
				"type": "occ",
				"energy": -0.24451,
				"method": "rhf"
			},
			{
				"type": "occ",
				"energy": -0.19049,
				"method": "rhf"
			},
			{
				"type": "unocc",
				"energy": -0.05215,
				"method": "rhf"
			},
			{
				"type": "unocc",
				"energy": -0.02386,
				"method": "rhf"
			},
			{
				"type": "unocc",
				"energy": -0.0021,
				"method": "rhf"
			},
			{
				"type": "unocc",
				"energy": 0.01654,
				"method": "rhf"
			},
			{
				"type": "unocc",
				"energy": 0.04671,
				"method": "rhf"
			}
		],
		"cosmo_sigma_profile": { 
			"-0.025": 0.0,
			"-0.024": 0.0,
			"-0.023": 0.0,
			"-0.022": 0.0,
			"-0.021": 0.0,
			"-0.02": 0.0,
			"-0.019": 0.0,
			"-0.018": 0.951277674839,
			"-0.017": 0.841850637641,
			"-0.016": 1.15633541532,
			"-0.015": 1.08735243788,
			"-0.014": 0.299067042919,
			"-0.013": 1.40332163734,
			"-0.012": 1.20513418688,
			"-0.011": 1.13771455939,
			"-0.01": 1.00160359186,
			"-0.009": 1.0237178227,
			"-0.008": 1.99726710012,
			"-0.007": 4.74492077619,
			"-0.006": 10.9862779945,
			"-0.005": 17.1085022889,
			"-0.004": 25.5547823835,
			"-0.003": 29.0976807343,
			"-0.002": 29.447654041,
			"-0.001": 25.051596247,
			"0.0": 20.6189451163,
			"0.001": 14.7978501304,
			"0.002": 15.8666139163,
			"0.003": 19.2752816865,
			"0.004": 13.6480138876,
			"0.005": 9.5528538717,
			"0.006": 10.903970521,
			"0.007": 9.0330873723,
			"0.008": 5.51012158664,
			"0.009": 3.59919904827,
			"0.01": 4.65906748967,
			"0.011": 5.27439940617,
			"0.012": 5.26525714149,
			"0.013": 1.85070220926,
			"0.014": 0.135740073075,
			"0.015": 0.0,
			"0.016": 0.0,
			"0.017": 0.0,
			"0.018": 0.0,
			"0.019": 0.0,
			"0.02": 0.0,
			"0.021": 0.0,
			"0.022": 0.0,
			"0.023": 0.0,
			"0.024": 0.0,
			"0.025": 0.0
		}
	}
}
