{
	 "smiles": "OC1=CC=CC(C=O)=C1O", 
	 "Tm": 379.15, 
	 "num_atms": 16, 
	 "gaussian": { 
		 "optdone": 1, 
		 "sigma_profile": "yes", 
		 "theory": "DFT", 
		 "functional": "B3LYP", 
		 "basiset": "6-31G**", 
		 "properties": { 
			 "R2extent": 1465.1469, 
			 "electric_dipole_moment_norm": 5.690201246, 
			 "electric_quadrupole_moment_norm": 6.56990556858, 
			 "total_energy": -496.014244826, 
			 "HOMO_LUMO_gap": 0.16945, 
			 "cosmo_polarized_energy": -13.95, 
			 "cosmo_cavitation_energy": 20.64, 
			 "cosmo_dispersion_energy": -15.53, 
			 "cosmo_repulsion_energy": 1.25, 
			 "cosmo_total_nonelectrostatic_energy": 6.37, 
			 "SMD_solvation_energy": 5.31 
		},
		"coords": [
			{
				"x": 0.4908786159,
				"y": -2.1598611708,
				"z": 1.1958056083,
				"element": "O" 
			},
			{
				"x": -0.354646166,
				"y": -1.2588315646,
				"z": 0.5901235464,
				"element": "C" 
			},
			{
				"x": -1.7364818016,
				"y": -1.373058041,
				"z": 0.5391536303,
				"element": "C" 
			},
			{
				"x": -2.4984227469,
				"y": -0.3877415728,
				"z": -0.109360363,
				"element": "C" 
			},
			{
				"x": -1.8669931958,
				"y": 0.6966826523,
				"z": -0.6969733601,
				"element": "C" 
			},
			{
				"x": -0.4656050542,
				"y": 0.8248968611,
				"z": -0.6525846071,
				"element": "C" 
			},
			{
				"x": 0.1862393554,
				"y": 1.9919143331,
				"z": -1.2873231945,
				"element": "C" 
			},
			{
				"x": -0.426983925,
				"y": 2.8752493266,
				"z": -1.8625229604,
				"element": "O" 
			},
			{
				"x": 0.2950358708,
				"y": -0.1594802563,
				"z": -0.0046792634,
				"element": "C" 
			},
			{
				"x": 1.6488503092,
				"y": -0.0651118617,
				"z": 0.0557671659,
				"element": "O" 
			},
			{
				"x": -0.0158958587,
				"y": -2.8847499158,
				"z": 1.581348721,
				"element": "H" 
			},
			{
				"x": -2.2230306685,
				"y": -2.2282921822,
				"z": 1.0035323928,
				"element": "H" 
			},
			{
				"x": -3.5786134455,
				"y": -0.4845355791,
				"z": -0.1447862124,
				"element": "H" 
			},
			{
				"x": -2.4244440072,
				"y": 1.4756872578,
				"z": -1.2058398245,
				"element": "H" 
			},
			{
				"x": 1.2896413036,
				"y": 2.0218827284,
				"z": -1.2106354603,
				"element": "H" 
			},
			{
				"x": 1.9749714146,
				"y": -0.838351015,
				"z": 0.5413741807,
				"element": "H" 
			}
		],
		 "valence_orbital": [ 
			{
				"type": "occ",
				"energy": -0.36399,
				"method": "rhf"
			},
			{
				"type": "occ",
				"energy": -0.33498,
				"method": "rhf"
			},
			{
				"type": "occ",
				"energy": -0.25215,
				"method": "rhf"
			},
			{
				"type": "occ",
				"energy": -0.24405,
				"method": "rhf"
			},
			{
				"type": "occ",
				"energy": -0.22482,
				"method": "rhf"
			},
			{
				"type": "unocc",
				"energy": -0.05537,
				"method": "rhf"
			},
			{
				"type": "unocc",
				"energy": 0.00513,
				"method": "rhf"
			},
			{
				"type": "unocc",
				"energy": 0.04053,
				"method": "rhf"
			},
			{
				"type": "unocc",
				"energy": 0.04689,
				"method": "rhf"
			},
			{
				"type": "unocc",
				"energy": 0.08177,
				"method": "rhf"
			}
		],
		"cosmo_sigma_profile": { 
			"-0.025": 0.0,
			"-0.024": 0.0,
			"-0.023": 0.0,
			"-0.022": 0.0,
			"-0.021": 0.0,
			"-0.02": 0.0,
			"-0.019": 0.481528912617,
			"-0.018": 1.20651358843,
			"-0.017": 0.770574318902,
			"-0.016": 1.26818142042,
			"-0.015": 1.60243099671,
			"-0.014": 1.54585984595,
			"-0.013": 1.99072301265,
			"-0.012": 1.34536508909,
			"-0.011": 1.57646949413,
			"-0.01": 1.85106621502,
			"-0.009": 1.59647983223,
			"-0.008": 2.1130971865,
			"-0.007": 2.37084024826,
			"-0.006": 6.36193399199,
			"-0.005": 9.06234920402,
			"-0.004": 8.06986783653,
			"-0.003": 9.16480923805,
			"-0.002": 7.91459618589,
			"-0.001": 9.25329465077,
			"0.0": 9.98887795314,
			"0.001": 12.9069964075,
			"0.002": 14.9751120875,
			"0.003": 13.4898292187,
			"0.004": 10.3775168485,
			"0.005": 7.3418291507,
			"0.006": 5.33393500768,
			"0.007": 2.75101509431,
			"0.008": 4.04605463244,
			"0.009": 3.22753801766,
			"0.01": 2.36568180596,
			"0.011": 3.09698822825,
			"0.012": 4.1772869034,
			"0.013": 1.36163427396,
			"0.014": 0.136429457086,
			"0.015": 0.0,
			"0.016": 0.0,
			"0.017": 0.0,
			"0.018": 0.0,
			"0.019": 0.0,
			"0.02": 0.0,
			"0.021": 0.0,
			"0.022": 0.0,
			"0.023": 0.0,
			"0.024": 0.0,
			"0.025": 0.0
		}
	}
}
