{
	 "smiles": "OC(=O)CCC1=CC=CC(Cl)=C1", 
	 "Tm": 346.15, 
	 "num_atms": 21, 
	 "gaussian": { 
		 "optdone": 1, 
		 "sigma_profile": "yes", 
		 "theory": "DFT", 
		 "functional": "B3LYP", 
		 "basiset": "6-31G**", 
		 "properties": { 
			 "R2extent": 4309.8342, 
			 "electric_dipole_moment_norm": 2.78862908434, 
			 "electric_quadrupole_moment_norm": 17.6900922883, 
			 "total_energy": -959.037994565, 
			 "HOMO_LUMO_gap": 0.22888, 
			 "cosmo_polarized_energy": -15.01, 
			 "cosmo_cavitation_energy": 26.98, 
			 "cosmo_dispersion_energy": -19.58, 
			 "cosmo_repulsion_energy": 1.59, 
			 "cosmo_total_nonelectrostatic_energy": 8.98, 
			 "SMD_solvation_energy": 5.19 
		},
		"coords": [
			{
				"x": 2.6143883877,
				"y": 0.3033295389,
				"z": 0.3423313187,
				"element": "O" 
			},
			{
				"x": 1.3522808117,
				"y": 0.5960466743,
				"z": -0.0653633739,
				"element": "C" 
			},
			{
				"x": 0.6209712387,
				"y": 1.2314642732,
				"z": 0.6536556924,
				"element": "O" 
			},
			{
				"x": 0.9888497861,
				"y": 0.1203574965,
				"z": -1.4692111274,
				"element": "C" 
			},
			{
				"x": -0.5254789439,
				"y": 0.1447216925,
				"z": -1.7481671701,
				"element": "C" 
			},
			{
				"x": -1.2779781839,
				"y": -1.0081829323,
				"z": -1.1122714542,
				"element": "C" 
			},
			{
				"x": -1.7478214087,
				"y": -0.933609764,
				"z": 0.2066727578,
				"element": "C" 
			},
			{
				"x": -2.4176435456,
				"y": -2.0147417629,
				"z": 0.7799734686,
				"element": "C" 
			},
			{
				"x": -2.6328854164,
				"y": -3.1887235426,
				"z": 0.056339414,
				"element": "C" 
			},
			{
				"x": -2.1635699132,
				"y": -3.2559148833,
				"z": -1.2539236958,
				"element": "C" 
			},
			{
				"x": -2.4261895868,
				"y": -4.7230507894,
				"z": -2.1927635508,
				"element": "Cl" 
			},
			{
				"x": -1.4941590223,
				"y": -2.1846929639,
				"z": -1.8424802793,
				"element": "C" 
			},
			{
				"x": 3.0716231367,
				"y": -0.2222206976,
				"z": -0.3294472191,
				"element": "H" 
			},
			{
				"x": 1.3943283679,
				"y": -0.8852665204,
				"z": -1.6392835272,
				"element": "H" 
			},
			{
				"x": 1.5083488865,
				"y": 0.789023557,
				"z": -2.1701024357,
				"element": "H" 
			},
			{
				"x": -0.9207405078,
				"y": 1.0975351452,
				"z": -1.3846872999,
				"element": "H" 
			},
			{
				"x": -0.6745922378,
				"y": 0.1199925045,
				"z": -2.8325646403,
				"element": "H" 
			},
			{
				"x": -1.5759767602,
				"y": -0.0287311025,
				"z": 0.779643598,
				"element": "H" 
			},
			{
				"x": -2.7794998514,
				"y": -1.945081479,
				"z": 1.8016531036,
				"element": "H" 
			},
			{
				"x": -3.1550855815,
				"y": -4.0321042065,
				"z": 0.4940429726,
				"element": "H" 
			},
			{
				"x": -1.1506696559,
				"y": -2.2663502376,
				"z": -2.8692465519,
				"element": "H" 
			}
		],
		 "valence_orbital": [ 
			{
				"type": "occ",
				"energy": -0.32267,
				"method": "rhf"
			},
			{
				"type": "occ",
				"energy": -0.31109,
				"method": "rhf"
			},
			{
				"type": "occ",
				"energy": -0.28056,
				"method": "rhf"
			},
			{
				"type": "occ",
				"energy": -0.25765,
				"method": "rhf"
			},
			{
				"type": "occ",
				"energy": -0.24375,
				"method": "rhf"
			},
			{
				"type": "unocc",
				"energy": -0.01487,
				"method": "rhf"
			},
			{
				"type": "unocc",
				"energy": -0.01246,
				"method": "rhf"
			},
			{
				"type": "unocc",
				"energy": 0.00257,
				"method": "rhf"
			},
			{
				"type": "unocc",
				"energy": 0.03013,
				"method": "rhf"
			},
			{
				"type": "unocc",
				"energy": 0.04971,
				"method": "rhf"
			}
		],
		"cosmo_sigma_profile": { 
			"-0.025": 0.0,
			"-0.024": 0.0,
			"-0.023": 0.0,
			"-0.022": 0.0,
			"-0.021": 0.0,
			"-0.02": 0.0326706327848,
			"-0.019": 0.722320472739,
			"-0.018": 0.960238742522,
			"-0.017": 1.2249529317,
			"-0.016": 1.26479993178,
			"-0.015": 0.845969111487,
			"-0.014": 0.816827787233,
			"-0.013": 1.13169584809,
			"-0.012": 1.16466863201,
			"-0.011": 1.43972380928,
			"-0.01": 1.12644218018,
			"-0.009": 1.01395322599,
			"-0.008": 2.59395390068,
			"-0.007": 6.22693196354,
			"-0.006": 10.866920913,
			"-0.005": 13.5648844735,
			"-0.004": 14.3748326988,
			"-0.003": 14.0097232566,
			"-0.002": 12.5167031174,
			"-0.001": 12.748906994,
			"0.0": 11.5483465797,
			"0.001": 12.6296633331,
			"0.002": 16.2447122095,
			"0.003": 17.5934781917,
			"0.004": 19.7209065067,
			"0.005": 15.1351054439,
			"0.006": 2.37353620184,
			"0.007": 2.42472666645,
			"0.008": 2.56976776522,
			"0.009": 3.43785312896,
			"0.01": 4.24844518811,
			"0.011": 4.86607616911,
			"0.012": 3.40062908616,
			"0.013": 1.60922946291,
			"0.014": 0.0681557632296,
			"0.015": 0.0,
			"0.016": 0.0,
			"0.017": 0.0,
			"0.018": 0.0,
			"0.019": 0.0,
			"0.02": 0.0,
			"0.021": 0.0,
			"0.022": 0.0,
			"0.023": 0.0,
			"0.024": 0.0,
			"0.025": 0.0
		}
	}
}
