{
	 "smiles": "OC(=O)CC1=C(C=CC=C1)C(F)(F)F", 
	 "Tm": 374.15, 
	 "num_atms": 21, 
	 "gaussian": { 
		 "optdone": 1, 
		 "sigma_profile": "yes", 
		 "theory": "DFT", 
		 "functional": "B3LYP", 
		 "basiset": "6-31G**", 
		 "properties": { 
			 "R2extent": 3101.5166, 
			 "electric_dipole_moment_norm": 2.06013927685, 
			 "electric_quadrupole_moment_norm": 9.23598226124, 
			 "total_energy": -797.169267743, 
			 "HOMO_LUMO_gap": 0.23062, 
			 "cosmo_polarized_energy": -10.94, 
			 "cosmo_cavitation_energy": 26.59, 
			 "cosmo_dispersion_energy": -18.67, 
			 "cosmo_repulsion_energy": 1.42, 
			 "cosmo_total_nonelectrostatic_energy": 9.34, 
			 "SMD_solvation_energy": 6.61 
		},
		"coords": [
			{
				"x": 2.0769341424,
				"y": -2.9850701923,
				"z": 2.2296817567,
				"element": "O" 
			},
			{
				"x": 1.0639348663,
				"y": -2.336742035,
				"z": 1.607708223,
				"element": "C" 
			},
			{
				"x": 0.5180012056,
				"y": -2.7642086007,
				"z": 0.6178005953,
				"element": "O" 
			},
			{
				"x": 0.7013353307,
				"y": -1.0617792778,
				"z": 2.3569285847,
				"element": "C" 
			},
			{
				"x": -0.1076176826,
				"y": -0.0922624946,
				"z": 1.5240052322,
				"element": "C" 
			},
			{
				"x": 0.4911472659,
				"y": 0.887595584,
				"z": 0.7081810584,
				"element": "C" 
			},
			{
				"x": -0.2951247245,
				"y": 1.7570024966,
				"z": -0.0516250263,
				"element": "C" 
			},
			{
				"x": -1.6855071201,
				"y": 1.6635011148,
				"z": -0.0166622012,
				"element": "C" 
			},
			{
				"x": -2.290103244,
				"y": 0.695433839,
				"z": 0.7826593294,
				"element": "C" 
			},
			{
				"x": -1.5029265775,
				"y": -0.169653148,
				"z": 1.5427110467,
				"element": "C" 
			},
			{
				"x": 1.991498303,
				"y": 1.0236264373,
				"z": 0.6518028923,
				"element": "C" 
			},
			{
				"x": 2.596128946,
				"y": -0.1473357726,
				"z": 0.3325843018,
				"element": "F" 
			},
			{
				"x": 2.393383637,
				"y": 1.9354010858,
				"z": -0.2560033214,
				"element": "F" 
			},
			{
				"x": 2.5084123006,
				"y": 1.406322134,
				"z": 1.8486578677,
				"element": "F" 
			},
			{
				"x": 2.232316803,
				"y": -3.7965265706,
				"z": 1.7175232692,
				"element": "H" 
			},
			{
				"x": 1.6175098302,
				"y": -0.6146801192,
				"z": 2.7451583744,
				"element": "H" 
			},
			{
				"x": 0.117988418,
				"y": -1.3733156683,
				"z": 3.2320271807,
				"element": "H" 
			},
			{
				"x": 0.1871012402,
				"y": 2.5041495926,
				"z": -0.6708100014,
				"element": "H" 
			},
			{
				"x": -2.2885809705,
				"y": 2.3432103342,
				"z": -0.6105395023,
				"element": "H" 
			},
			{
				"x": -3.372256091,
				"y": 0.6113640376,
				"z": 0.8171931195,
				"element": "H" 
			},
			{
				"x": -1.9783758787,
				"y": -0.9244327769,
				"z": 2.1628172206,
				"element": "H" 
			}
		],
		 "valence_orbital": [ 
			{
				"type": "occ",
				"energy": -0.35229,
				"method": "rhf"
			},
			{
				"type": "occ",
				"energy": -0.32014,
				"method": "rhf"
			},
			{
				"type": "occ",
				"energy": -0.27893,
				"method": "rhf"
			},
			{
				"type": "occ",
				"energy": -0.26845,
				"method": "rhf"
			},
			{
				"type": "occ",
				"energy": -0.26065,
				"method": "rhf"
			},
			{
				"type": "unocc",
				"energy": -0.03003,
				"method": "rhf"
			},
			{
				"type": "unocc",
				"energy": -0.01781,
				"method": "rhf"
			},
			{
				"type": "unocc",
				"energy": 0.01135,
				"method": "rhf"
			},
			{
				"type": "unocc",
				"energy": 0.07809,
				"method": "rhf"
			},
			{
				"type": "unocc",
				"energy": 0.08915,
				"method": "rhf"
			}
		],
		"cosmo_sigma_profile": { 
			"-0.025": 0.0,
			"-0.024": 0.0,
			"-0.023": 0.0,
			"-0.022": 0.0,
			"-0.021": 0.0,
			"-0.02": 0.0,
			"-0.019": 0.0215817459673,
			"-0.018": 1.11916139116,
			"-0.017": 0.743172034377,
			"-0.016": 0.435698495748,
			"-0.015": 1.02662407763,
			"-0.014": 0.781020607128,
			"-0.013": 0.626296498311,
			"-0.012": 0.326939572659,
			"-0.011": 1.1825339936,
			"-0.01": 0.860063588805,
			"-0.009": 0.512051297523,
			"-0.008": 3.81315680548,
			"-0.007": 7.25248453633,
			"-0.006": 11.8110439165,
			"-0.005": 12.8507559738,
			"-0.004": 11.5216701673,
			"-0.003": 10.4766324093,
			"-0.002": 12.5638217891,
			"-0.001": 11.5117720026,
			"0.0": 12.3791366268,
			"0.001": 16.802571299,
			"0.002": 27.5812089665,
			"0.003": 29.6010222269,
			"0.004": 9.52917266522,
			"0.005": 2.91136592642,
			"0.006": 3.42379422114,
			"0.007": 3.30683343639,
			"0.008": 3.11803020312,
			"0.009": 3.15129302,
			"0.01": 3.14466616281,
			"0.011": 4.36133821522,
			"0.012": 3.56135907234,
			"0.013": 0.0890071637996,
			"0.014": 0.0,
			"0.015": 0.0,
			"0.016": 0.0,
			"0.017": 0.0,
			"0.018": 0.0,
			"0.019": 0.0,
			"0.02": 0.0,
			"0.021": 0.0,
			"0.022": 0.0,
			"0.023": 0.0,
			"0.024": 0.0,
			"0.025": 0.0
		}
	}
}
