{
	 "smiles": "C=CCN1C(=O)CSC1=S", 
	 "Tm": 317.65, 
	 "num_atms": 17, 
	 "gaussian": { 
		 "optdone": 1, 
		 "sigma_profile": "yes", 
		 "theory": "DFT", 
		 "functional": "B3LYP", 
		 "basiset": "6-31G**", 
		 "properties": { 
			 "R2extent": 1958.174, 
			 "electric_dipole_moment_norm": 1.99350537747, 
			 "electric_quadrupole_moment_norm": 13.7348686248, 
			 "total_energy": -1159.19616142, 
			 "HOMO_LUMO_gap": 0.16319, 
			 "cosmo_polarized_energy": -11.76, 
			 "cosmo_cavitation_energy": 24.34, 
			 "cosmo_dispersion_energy": -18.08, 
			 "cosmo_repulsion_energy": 1.38, 
			 "cosmo_total_nonelectrostatic_energy": 7.65, 
			 "SMD_solvation_energy": 4.2 
		},
		"coords": [
			{
				"x": -2.4808671613,
				"y": -0.1021612334,
				"z": 2.3498440556,
				"element": "C" 
			},
			{
				"x": -2.0403439049,
				"y": 1.1516182301,
				"z": 2.2932433301,
				"element": "C" 
			},
			{
				"x": -0.940788513,
				"y": 1.6847753726,
				"z": 1.4099374378,
				"element": "C" 
			},
			{
				"x": -0.3008867635,
				"y": 0.6751241555,
				"z": 0.5617921371,
				"element": "N" 
			},
			{
				"x": 0.8316593069,
				"y": 0.0021324476,
				"z": 1.0387567563,
				"element": "C" 
			},
			{
				"x": 1.341198944,
				"y": 0.2158699038,
				"z": 2.1165047141,
				"element": "O" 
			},
			{
				"x": 1.3386815459,
				"y": -1.0164323678,
				"z": 0.0276542649,
				"element": "C" 
			},
			{
				"x": 0.2535707774,
				"y": -0.8999484868,
				"z": -1.4367441171,
				"element": "S" 
			},
			{
				"x": -0.7464698018,
				"y": 0.3731782139,
				"z": -0.7129359581,
				"element": "C" 
			},
			{
				"x": -2.0086570989,
				"y": 1.0674905645,
				"z": -1.5062646973,
				"element": "S" 
			},
			{
				"x": -3.2818963766,
				"y": -0.3847349583,
				"z": 3.0247616861,
				"element": "H" 
			},
			{
				"x": -2.0695209054,
				"y": -0.8900999524,
				"z": 1.725865354,
				"element": "H" 
			},
			{
				"x": -2.4874338373,
				"y": 1.9121024579,
				"z": 2.9322469544,
				"element": "H" 
			},
			{
				"x": -1.3323179032,
				"y": 2.4640220333,
				"z": 0.748870734,
				"element": "H" 
			},
			{
				"x": -0.1455290123,
				"y": 2.1157156734,
				"z": 2.0264363378,
				"element": "H" 
			},
			{
				"x": 2.3758016779,
				"y": -0.7855699756,
				"z": -0.2271961918,
				"element": "H" 
			},
			{
				"x": 1.3034990262,
				"y": -2.0147820782,
				"z": 0.471127202,
				"element": "H" 
			}
		],
		 "valence_orbital": [ 
			{
				"type": "occ",
				"energy": -0.29526,
				"method": "rhf"
			},
			{
				"type": "occ",
				"energy": -0.28035,
				"method": "rhf"
			},
			{
				"type": "occ",
				"energy": -0.27019,
				"method": "rhf"
			},
			{
				"type": "occ",
				"energy": -0.24886,
				"method": "rhf"
			},
			{
				"type": "occ",
				"energy": -0.23435,
				"method": "rhf"
			},
			{
				"type": "unocc",
				"energy": -0.07116,
				"method": "rhf"
			},
			{
				"type": "unocc",
				"energy": -0.00533,
				"method": "rhf"
			},
			{
				"type": "unocc",
				"energy": -0.00138,
				"method": "rhf"
			},
			{
				"type": "unocc",
				"energy": 0.01101,
				"method": "rhf"
			},
			{
				"type": "unocc",
				"energy": 0.04589,
				"method": "rhf"
			}
		],
		"cosmo_sigma_profile": { 
			"-0.025": 0.0,
			"-0.024": 0.0,
			"-0.023": 0.0,
			"-0.022": 0.0,
			"-0.021": 0.0,
			"-0.02": 0.0,
			"-0.019": 0.0,
			"-0.018": 0.0,
			"-0.017": 0.0,
			"-0.016": 0.0,
			"-0.015": 0.0,
			"-0.014": 0.0,
			"-0.013": 0.0,
			"-0.012": 0.0,
			"-0.011": 0.0,
			"-0.01": 3.27466228809,
			"-0.009": 6.93307764694,
			"-0.008": 6.2738879006,
			"-0.007": 8.93353621467,
			"-0.006": 14.8603596084,
			"-0.005": 13.1883900184,
			"-0.004": 13.6533986969,
			"-0.003": 8.78122436833,
			"-0.002": 8.42977079914,
			"-0.001": 7.84002082056,
			"0.0": 9.62840083686,
			"0.001": 11.6921236808,
			"0.002": 12.3275922883,
			"0.003": 12.728484768,
			"0.004": 11.564875934,
			"0.005": 12.5440087688,
			"0.006": 11.9706466987,
			"0.007": 8.45113606985,
			"0.008": 4.76819861683,
			"0.009": 3.98993802756,
			"0.01": 4.14162155433,
			"0.011": 3.13934026712,
			"0.012": 0.286600391895,
			"0.013": 0.0,
			"0.014": 0.0,
			"0.015": 0.0,
			"0.016": 0.0,
			"0.017": 0.0,
			"0.018": 0.0,
			"0.019": 0.0,
			"0.02": 0.0,
			"0.021": 0.0,
			"0.022": 0.0,
			"0.023": 0.0,
			"0.024": 0.0,
			"0.025": 0.0
		}
	}
}
