{
	 "smiles": "CC1=CC=C(C=C1)C1=CSC(N)=N1", 
	 "Tm": 410.15, 
	 "num_atms": 23, 
	 "gaussian": { 
		 "optdone": 1, 
		 "sigma_profile": "yes", 
		 "theory": "DFT", 
		 "functional": "B3LYP", 
		 "basiset": "6-31G**", 
		 "properties": { 
			 "R2extent": 4001.1366, 
			 "electric_dipole_moment_norm": 1.51504387725, 
			 "electric_quadrupole_moment_norm": 19.0013834581, 
			 "total_energy": -894.790501137, 
			 "HOMO_LUMO_gap": 0.17117, 
			 "cosmo_polarized_energy": -11.41, 
			 "cosmo_cavitation_energy": 28.54, 
			 "cosmo_dispersion_energy": -21.82, 
			 "cosmo_repulsion_energy": 1.68, 
			 "cosmo_total_nonelectrostatic_energy": 8.4, 
			 "SMD_solvation_energy": 3.52 
		},
		"coords": [
			{
				"x": -1.4849468291,
				"y": 0.840545299,
				"z": 3.6849297184,
				"element": "C" 
			},
			{
				"x": -0.8978940381,
				"y": 0.4572673498,
				"z": 2.3474489362,
				"element": "C" 
			},
			{
				"x": -1.6340028629,
				"y": 0.6176771394,
				"z": 1.1636996216,
				"element": "C" 
			},
			{
				"x": -1.0911456664,
				"y": 0.2913766142,
				"z": -0.0741791825,
				"element": "C" 
			},
			{
				"x": 0.2165095968,
				"y": -0.2131133192,
				"z": -0.1793038174,
				"element": "C" 
			},
			{
				"x": 0.9536459163,
				"y": -0.3782970527,
				"z": 1.0033619998,
				"element": "C" 
			},
			{
				"x": 0.4025430506,
				"y": -0.0492364737,
				"z": 2.2401994323,
				"element": "C" 
			},
			{
				"x": 0.8178379409,
				"y": -0.5701385002,
				"z": -1.4783039492,
				"element": "C" 
			},
			{
				"x": 0.2245710494,
				"y": -0.4586814626,
				"z": -2.7071224702,
				"element": "C" 
			},
			{
				"x": 1.3044743479,
				"y": -1.0030544283,
				"z": -3.9650116435,
				"element": "S" 
			},
			{
				"x": 2.5077768643,
				"y": -1.3277149518,
				"z": -2.7081943848,
				"element": "C" 
			},
			{
				"x": 3.7247395312,
				"y": -1.893195507,
				"z": -3.0205049368,
				"element": "N" 
			},
			{
				"x": 2.1183986392,
				"y": -1.0610561017,
				"z": -1.4992224845,
				"element": "N" 
			},
			{
				"x": -1.4222606344,
				"y": 1.9234853624,
				"z": 3.8521084352,
				"element": "H" 
			},
			{
				"x": -0.9557548587,
				"y": 0.3524054598,
				"z": 4.5085375003,
				"element": "H" 
			},
			{
				"x": -2.5428080526,
				"y": 0.5659961322,
				"z": 3.7526142004,
				"element": "H" 
			},
			{
				"x": -2.6499609015,
				"y": 1.0026002869,
				"z": 1.2143065249,
				"element": "H" 
			},
			{
				"x": -1.696450015,
				"y": 0.4272650214,
				"z": -0.9656262549,
				"element": "H" 
			},
			{
				"x": 1.9615148308,
				"y": -0.7717754572,
				"z": 0.9363080404,
				"element": "H" 
			},
			{
				"x": 0.9955366843,
				"y": -0.1908744417,
				"z": 3.1408210922,
				"element": "H" 
			},
			{
				"x": -0.7586504419,
				"y": -0.0936085986,
				"z": -2.9613023414,
				"element": "H" 
			},
			{
				"x": 4.3825204238,
				"y": -1.8509831016,
				"z": -2.2527416183,
				"element": "H" 
			},
			{
				"x": 4.125605425,
				"y": -1.6434892689,
				"z": -3.913422418,
				"element": "H" 
			}
		],
		 "valence_orbital": [ 
			{
				"type": "occ",
				"energy": -0.27915,
				"method": "rhf"
			},
			{
				"type": "occ",
				"energy": -0.27036,
				"method": "rhf"
			},
			{
				"type": "occ",
				"energy": -0.24355,
				"method": "rhf"
			},
			{
				"type": "occ",
				"energy": -0.23855,
				"method": "rhf"
			},
			{
				"type": "occ",
				"energy": -0.19559,
				"method": "rhf"
			},
			{
				"type": "unocc",
				"energy": -0.02442,
				"method": "rhf"
			},
			{
				"type": "unocc",
				"energy": 0.00551,
				"method": "rhf"
			},
			{
				"type": "unocc",
				"energy": 0.01195,
				"method": "rhf"
			},
			{
				"type": "unocc",
				"energy": 0.02161,
				"method": "rhf"
			},
			{
				"type": "unocc",
				"energy": 0.0715,
				"method": "rhf"
			}
		],
		"cosmo_sigma_profile": { 
			"-0.025": 0.0,
			"-0.024": 0.0,
			"-0.023": 0.0,
			"-0.022": 0.0,
			"-0.021": 0.0,
			"-0.02": 0.0,
			"-0.019": 0.0,
			"-0.018": 0.0,
			"-0.017": 0.0,
			"-0.016": 0.0,
			"-0.015": 0.150091168061,
			"-0.014": 1.87319882218,
			"-0.013": 2.36020883365,
			"-0.012": 2.8684963615,
			"-0.011": 3.17424543316,
			"-0.01": 2.19913531223,
			"-0.009": 2.77715287521,
			"-0.008": 4.62588024472,
			"-0.007": 3.88600143807,
			"-0.006": 4.79938135175,
			"-0.005": 8.37527789009,
			"-0.004": 14.9362740134,
			"-0.003": 17.1761061658,
			"-0.002": 14.6503724983,
			"-0.001": 14.9795951631,
			"0.0": 18.9583997009,
			"0.001": 14.5138750289,
			"0.002": 15.3267115358,
			"0.003": 17.4244328448,
			"0.004": 22.4112661013,
			"0.005": 17.1590297769,
			"0.006": 12.5554279003,
			"0.007": 3.39551356545,
			"0.008": 2.45095185451,
			"0.009": 1.67537016822,
			"0.01": 2.49200525828,
			"0.011": 2.23008970379,
			"0.012": 0.522886152795,
			"0.013": 0.0,
			"0.014": 0.0,
			"0.015": 0.0,
			"0.016": 0.0,
			"0.017": 0.0,
			"0.018": 0.0,
			"0.019": 0.0,
			"0.02": 0.0,
			"0.021": 0.0,
			"0.022": 0.0,
			"0.023": 0.0,
			"0.024": 0.0,
			"0.025": 0.0
		}
	}
}
