{
	 "smiles": "COC(=O)C1=CC=CC(=N1)C(=O)OC", 
	 "Tm": 396.15, 
	 "num_atms": 23, 
	 "gaussian": { 
		 "optdone": 1, 
		 "sigma_profile": "yes", 
		 "theory": "DFT", 
		 "functional": "B3LYP", 
		 "basiset": "6-31G**", 
		 "properties": { 
			 "R2extent": 3912.9608, 
			 "electric_dipole_moment_norm": 5.18233831972, 
			 "electric_quadrupole_moment_norm": 19.785894627, 
			 "total_energy": -704.030094808, 
			 "HOMO_LUMO_gap": 0.20506, 
			 "cosmo_polarized_energy": -18.83, 
			 "cosmo_cavitation_energy": 28.93, 
			 "cosmo_dispersion_energy": -21.01, 
			 "cosmo_repulsion_energy": 1.67, 
			 "cosmo_total_nonelectrostatic_energy": 9.6, 
			 "SMD_solvation_energy": 7.27 
		},
		"coords": [
			{
				"x": -1.1010318252,
				"y": -3.6753437788,
				"z": -3.975607779,
				"element": "C" 
			},
			{
				"x": -0.6578889236,
				"y": -2.4266210662,
				"z": -3.4214208406,
				"element": "O" 
			},
			{
				"x": -0.5843883104,
				"y": -2.3968820738,
				"z": -2.0674219097,
				"element": "C" 
			},
			{
				"x": -0.864749814,
				"y": -3.3353804388,
				"z": -1.3607634291,
				"element": "O" 
			},
			{
				"x": -0.1115122768,
				"y": -1.0499001326,
				"z": -1.5793528185,
				"element": "C" 
			},
			{
				"x": 0.1932344778,
				"y": -0.0128395348,
				"z": -2.4731720959,
				"element": "C" 
			},
			{
				"x": 0.6242802741,
				"y": 1.2037925547,
				"z": -1.9508741318,
				"element": "C" 
			},
			{
				"x": 0.7354355252,
				"y": 1.3429164196,
				"z": -0.569905997,
				"element": "C" 
			},
			{
				"x": 0.406155806,
				"y": 0.2446417833,
				"z": 0.23795886,
				"element": "C" 
			},
			{
				"x": -0.0082186436,
				"y": -0.9263928819,
				"z": -0.253288737,
				"element": "N" 
			},
			{
				"x": 0.5006009218,
				"y": 0.3167424396,
				"z": 1.7419788284,
				"element": "C" 
			},
			{
				"x": 0.2344731737,
				"y": -0.5840709311,
				"z": 2.501228252,
				"element": "O" 
			},
			{
				"x": 0.9286620524,
				"y": 1.5387973416,
				"z": 2.1456269611,
				"element": "O" 
			},
			{
				"x": 1.0485655673,
				"y": 1.6980697317,
				"z": 3.5679739869,
				"element": "C" 
			},
			{
				"x": -1.1046859933,
				"y": -3.5341070788,
				"z": -5.056328102,
				"element": "H" 
			},
			{
				"x": -2.1033789496,
				"y": -3.9207686743,
				"z": -3.6158437718,
				"element": "H" 
			},
			{
				"x": -0.4202693986,
				"y": -4.4829262703,
				"z": -3.6950074698,
				"element": "H" 
			},
			{
				"x": 0.0913026472,
				"y": -0.1684859381,
				"z": -3.5398217791,
				"element": "H" 
			},
			{
				"x": 0.8698742614,
				"y": 2.0309722421,
				"z": -2.6100614552,
				"element": "H" 
			},
			{
				"x": 1.0662572888,
				"y": 2.2693357933,
				"z": -0.1175099582,
				"element": "H" 
			},
			{
				"x": 1.7647450341,
				"y": 0.9802058413,
				"z": 3.9755530518,
				"element": "H" 
			},
			{
				"x": 0.0821033859,
				"y": 1.5438247292,
				"z": 4.0543124154,
				"element": "H" 
			},
			{
				"x": 1.3977337195,
				"y": 2.7189199229,
				"z": 3.7224479191,
				"element": "H" 
			}
		],
		 "valence_orbital": [ 
			{
				"type": "occ",
				"energy": -0.29817,
				"method": "rhf"
			},
			{
				"type": "occ",
				"energy": -0.27793,
				"method": "rhf"
			},
			{
				"type": "occ",
				"energy": -0.27705,
				"method": "rhf"
			},
			{
				"type": "occ",
				"energy": -0.27231,
				"method": "rhf"
			},
			{
				"type": "occ",
				"energy": -0.26803,
				"method": "rhf"
			},
			{
				"type": "unocc",
				"energy": -0.06297,
				"method": "rhf"
			},
			{
				"type": "unocc",
				"energy": -0.05837,
				"method": "rhf"
			},
			{
				"type": "unocc",
				"energy": 0.02347,
				"method": "rhf"
			},
			{
				"type": "unocc",
				"energy": 0.07542,
				"method": "rhf"
			},
			{
				"type": "unocc",
				"energy": 0.09071,
				"method": "rhf"
			}
		],
		"cosmo_sigma_profile": { 
			"-0.025": 0.0,
			"-0.024": 0.0,
			"-0.023": 0.0,
			"-0.022": 0.0,
			"-0.021": 0.0,
			"-0.02": 0.0,
			"-0.019": 0.0,
			"-0.018": 0.0,
			"-0.017": 0.0,
			"-0.016": 0.0,
			"-0.015": 0.0,
			"-0.014": 0.0,
			"-0.013": 0.0,
			"-0.012": 0.0,
			"-0.011": 0.0,
			"-0.01": 0.0,
			"-0.009": 0.408343645276,
			"-0.008": 4.29784005749,
			"-0.007": 8.41697296717,
			"-0.006": 16.3730312397,
			"-0.005": 18.0977089994,
			"-0.004": 26.5798761664,
			"-0.003": 24.4437995764,
			"-0.002": 19.0687970872,
			"-0.001": 21.9222968901,
			"0.0": 17.791590365,
			"0.001": 8.95651780473,
			"0.002": 7.26782593672,
			"0.003": 6.03858014793,
			"0.004": 7.12910179008,
			"0.005": 4.86851613829,
			"0.006": 2.68498252886,
			"0.007": 2.89276424944,
			"0.008": 2.69683294522,
			"0.009": 3.27374223626,
			"0.01": 4.917191878,
			"0.011": 8.65470713131,
			"0.012": 5.55684405136,
			"0.013": 2.38208991687,
			"0.014": 1.70459942983,
			"0.015": 1.91137026573,
			"0.016": 1.68986413447,
			"0.017": 1.29026028158,
			"0.018": 0.232991743241,
			"0.019": 0.0,
			"0.02": 0.0,
			"0.021": 0.0,
			"0.022": 0.0,
			"0.023": 0.0,
			"0.024": 0.0,
			"0.025": 0.0
		}
	}
}
