{
	 "smiles": "CC(C)(C)C1=CC(=CC(N)=C1)C(C)(C)C", 
	 "Tm": 329.15, 
	 "num_atms": 38, 
	 "gaussian": { 
		 "optdone": 1, 
		 "sigma_profile": "yes", 
		 "theory": "DFT", 
		 "functional": "B3LYP", 
		 "basiset": "6-31G**", 
		 "properties": { 
			 "R2extent": 4160.2052, 
			 "electric_dipole_moment_norm": 1.45041146231, 
			 "electric_quadrupole_moment_norm": 10.7988075434, 
			 "total_energy": -602.136013983, 
			 "HOMO_LUMO_gap": 0.20604, 
			 "cosmo_polarized_energy": -7.87, 
			 "cosmo_cavitation_energy": 37.07, 
			 "cosmo_dispersion_energy": -25.22, 
			 "cosmo_repulsion_energy": 1.98, 
			 "cosmo_total_nonelectrostatic_energy": 13.82, 
			 "SMD_solvation_energy": 6.47 
		},
		"coords": [
			{
				"x": 1.9300370243,
				"y": -0.5633839462,
				"z": 3.0199239711,
				"element": "C" 
			},
			{
				"x": 1.1271754766,
				"y": -1.2026029817,
				"z": 1.8709039009,
				"element": "C" 
			},
			{
				"x": 1.816738099,
				"y": -2.5340593341,
				"z": 1.4889320604,
				"element": "C" 
			},
			{
				"x": -0.300654662,
				"y": -1.4957096635,
				"z": 2.3899388749,
				"element": "C" 
			},
			{
				"x": 1.045824006,
				"y": -0.2926634988,
				"z": 0.6285773247,
				"element": "C" 
			},
			{
				"x": 0.3482172805,
				"y": -0.7318615994,
				"z": -0.5065589359,
				"element": "C" 
			},
			{
				"x": 0.2397990053,
				"y": 0.0511534117,
				"z": -1.6655439957,
				"element": "C" 
			},
			{
				"x": 0.8513279707,
				"y": 1.3081634076,
				"z": -1.6743702341,
				"element": "C" 
			},
			{
				"x": 1.5562304714,
				"y": 1.7757093432,
				"z": -0.5551771292,
				"element": "C" 
			},
			{
				"x": 2.2131131313,
				"y": 3.0117334394,
				"z": -0.6007634311,
				"element": "N" 
			},
			{
				"x": 1.6465121587,
				"y": 0.9689876092,
				"z": 0.5889911312,
				"element": "C" 
			},
			{
				"x": -0.5419776799,
				"y": -0.4905661111,
				"z": -2.8793024659,
				"element": "C" 
			},
			{
				"x": 0.1117974108,
				"y": -1.8053796308,
				"z": -3.3672334509,
				"element": "C" 
			},
			{
				"x": -0.559736354,
				"y": 0.4987638636,
				"z": -4.0601776812,
				"element": "C" 
			},
			{
				"x": -2.0069252491,
				"y": -0.7692593469,
				"z": -2.4667230131,
				"element": "C" 
			},
			{
				"x": 2.9645669896,
				"y": -0.3556424939,
				"z": 2.72750452,
				"element": "H" 
			},
			{
				"x": 1.9598871261,
				"y": -1.2472845967,
				"z": 3.8746243703,
				"element": "H" 
			},
			{
				"x": 1.4761777187,
				"y": 0.3723839226,
				"z": 3.3628349727,
				"element": "H" 
			},
			{
				"x": 1.8798285957,
				"y": -3.1959054625,
				"z": 2.3605439102,
				"element": "H" 
			},
			{
				"x": 1.2692545007,
				"y": -3.0655496776,
				"z": 0.7053289684,
				"element": "H" 
			},
			{
				"x": 2.8331964839,
				"y": -2.3560260658,
				"z": 1.1227419879,
				"element": "H" 
			},
			{
				"x": -0.8108518873,
				"y": -0.5692531868,
				"z": 2.6738791642,
				"element": "H" 
			},
			{
				"x": -0.9138322182,
				"y": -1.994702656,
				"z": 1.6341047465,
				"element": "H" 
			},
			{
				"x": -0.2614517869,
				"y": -2.1462152261,
				"z": 3.2714157997,
				"element": "H" 
			},
			{
				"x": -0.1233740567,
				"y": -1.7086541342,
				"z": -0.4873389486,
				"element": "H" 
			},
			{
				"x": 0.7967622982,
				"y": 1.9450579082,
				"z": -2.5508833862,
				"element": "H" 
			},
			{
				"x": 1.8232641371,
				"y": 3.6730328665,
				"z": -1.2589255597,
				"element": "H" 
			},
			{
				"x": 2.371622319,
				"y": 3.4391895966,
				"z": 0.3018056595,
				"element": "H" 
			},
			{
				"x": 2.1995880519,
				"y": 1.3465978961,
				"z": 1.4424587122,
				"element": "H" 
			},
			{
				"x": 0.1151360635,
				"y": -2.5719307895,
				"z": -2.5870825363,
				"element": "H" 
			},
			{
				"x": -0.4341874793,
				"y": -2.2073190558,
				"z": -4.2286647783,
				"element": "H" 
			},
			{
				"x": 1.1498195312,
				"y": -1.635524205,
				"z": -3.6715839624,
				"element": "H" 
			},
			{
				"x": 0.4497296309,
				"y": 0.717722722,
				"z": -4.423446488,
				"element": "H" 
			},
			{
				"x": -1.0402556792,
				"y": 1.4454349433,
				"z": -3.7915519151,
				"element": "H" 
			},
			{
				"x": -1.1240524697,
				"y": 0.0682220922,
				"z": -4.8940342099,
				"element": "H" 
			},
			{
				"x": -2.4967241777,
				"y": 0.1475484455,
				"z": -2.1220530342,
				"element": "H" 
			},
			{
				"x": -2.5765246521,
				"y": -1.1597599513,
				"z": -3.3180406293,
				"element": "H" 
			},
			{
				"x": -2.069457129,
				"y": -1.5035478541,
				"z": -1.6585542896,
				"element": "H" 
			}
		],
		 "valence_orbital": [ 
			{
				"type": "occ",
				"energy": -0.30502,
				"method": "rhf"
			},
			{
				"type": "occ",
				"energy": -0.30072,
				"method": "rhf"
			},
			{
				"type": "occ",
				"energy": -0.28398,
				"method": "rhf"
			},
			{
				"type": "occ",
				"energy": -0.22757,
				"method": "rhf"
			},
			{
				"type": "occ",
				"energy": -0.19104,
				"method": "rhf"
			},
			{
				"type": "unocc",
				"energy": 0.015,
				"method": "rhf"
			},
			{
				"type": "unocc",
				"energy": 0.02236,
				"method": "rhf"
			},
			{
				"type": "unocc",
				"energy": 0.07704,
				"method": "rhf"
			},
			{
				"type": "unocc",
				"energy": 0.08934,
				"method": "rhf"
			},
			{
				"type": "unocc",
				"energy": 0.09842,
				"method": "rhf"
			}
		],
		"cosmo_sigma_profile": { 
			"-0.025": 0.0,
			"-0.024": 0.0,
			"-0.023": 0.0,
			"-0.022": 0.0,
			"-0.021": 0.0,
			"-0.02": 0.0,
			"-0.019": 0.0,
			"-0.018": 0.0,
			"-0.017": 0.0,
			"-0.016": 0.0,
			"-0.015": 0.0,
			"-0.014": 0.0,
			"-0.013": 0.0,
			"-0.012": 1.05168847073,
			"-0.011": 2.85425515974,
			"-0.01": 2.37142073106,
			"-0.009": 2.73232616096,
			"-0.008": 3.36196924644,
			"-0.007": 2.56136266634,
			"-0.006": 2.16627161884,
			"-0.005": 3.96416844636,
			"-0.004": 7.6507938137,
			"-0.003": 21.4869779848,
			"-0.002": 45.6867258208,
			"-0.001": 37.1690225003,
			"0.0": 33.9840925856,
			"0.001": 43.0237019816,
			"0.002": 30.2663557058,
			"0.003": 7.4198956755,
			"0.004": 6.01269740696,
			"0.005": 6.48137939841,
			"0.006": 6.12546003089,
			"0.007": 7.73523315701,
			"0.008": 6.54524787171,
			"0.009": 1.13830606373,
			"0.01": 0.741212508968,
			"0.011": 0.845942809512,
			"0.012": 0.757703437953,
			"0.013": 0.901278523059,
			"0.014": 0.505181832751,
			"0.015": 0.538128394732,
			"0.016": 0.154202368813,
			"0.017": 0.0,
			"0.018": 0.0,
			"0.019": 0.0,
			"0.02": 0.0,
			"0.021": 0.0,
			"0.022": 0.0,
			"0.023": 0.0,
			"0.024": 0.0,
			"0.025": 0.0
		}
	}
}
