{
	 "smiles": "NC1CCC(CC1)C1=NC(=NN1)C1=CC=CC=C1", 
	 "Tm": 437.15, 
	 "num_atms": 36, 
	 "gaussian": { 
		 "optdone": 1, 
		 "sigma_profile": "yes", 
		 "theory": "DFT", 
		 "functional": "B3LYP", 
		 "basiset": "6-31G**", 
		 "properties": { 
			 "R2extent": 7504.7548, 
			 "electric_dipole_moment_norm": 4.88856368374, 
			 "electric_quadrupole_moment_norm": 11.7496916125, 
			 "total_energy": -763.361420055, 
			 "HOMO_LUMO_gap": 0.19868, 
			 "cosmo_polarized_energy": -15.26, 
			 "cosmo_cavitation_energy": 37.7, 
			 "cosmo_dispersion_energy": -27.54, 
			 "cosmo_repulsion_energy": 2.14, 
			 "cosmo_total_nonelectrostatic_energy": 12.3, 
			 "SMD_solvation_energy": 2.31 
		},
		"coords": [
			{
				"x": -3.5176360108,
				"y": 1.6295324058,
				"z": 2.697928385,
				"element": "N" 
			},
			{
				"x": -2.1216018436,
				"y": 2.0005825642,
				"z": 2.9813624263,
				"element": "C" 
			},
			{
				"x": -1.3139045932,
				"y": 0.7324339028,
				"z": 3.3105465771,
				"element": "C" 
			},
			{
				"x": -1.1996095642,
				"y": -0.2192271513,
				"z": 2.1114390066,
				"element": "C" 
			},
			{
				"x": -0.5964490219,
				"y": 0.4965974911,
				"z": 0.8798255761,
				"element": "C" 
			},
			{
				"x": -1.4087620051,
				"y": 1.7674220286,
				"z": 0.5376837754,
				"element": "C" 
			},
			{
				"x": -1.5211556351,
				"y": 2.7024483515,
				"z": 1.7500437621,
				"element": "C" 
			},
			{
				"x": -0.4710861208,
				"y": -0.4241780751,
				"z": -0.2973448982,
				"element": "C" 
			},
			{
				"x": 0.6489588085,
				"y": -0.8036330532,
				"z": -0.8907097538,
				"element": "N" 
			},
			{
				"x": 0.2239386572,
				"y": -1.6359189007,
				"z": -1.8958424405,
				"element": "C" 
			},
			{
				"x": -1.0970689508,
				"y": -1.7906120573,
				"z": -1.9549676992,
				"element": "N" 
			},
			{
				"x": -1.5202350578,
				"y": -1.0110767283,
				"z": -0.9284194792,
				"element": "N" 
			},
			{
				"x": 1.1458213778,
				"y": -2.3005171879,
				"z": -2.8284209954,
				"element": "C" 
			},
			{
				"x": 2.5285392952,
				"y": -2.0976677051,
				"z": -2.7096167419,
				"element": "C" 
			},
			{
				"x": 3.4087070362,
				"y": -2.7248235435,
				"z": -3.5902087825,
				"element": "C" 
			},
			{
				"x": 2.9209676358,
				"y": -3.5599082191,
				"z": -4.5976301188,
				"element": "C" 
			},
			{
				"x": 1.5437461688,
				"y": -3.76493642,
				"z": -4.7198975472,
				"element": "C" 
			},
			{
				"x": 0.6600938165,
				"y": -3.1408054674,
				"z": -3.8427132993,
				"element": "C" 
			},
			{
				"x": -3.9319835764,
				"y": 1.1927095759,
				"z": 3.5184850194,
				"element": "H" 
			},
			{
				"x": -4.0662082442,
				"y": 2.4664778785,
				"z": 2.5124402218,
				"element": "H" 
			},
			{
				"x": -2.0355786719,
				"y": 2.689886293,
				"z": 3.8401588427,
				"element": "H" 
			},
			{
				"x": -0.3111114291,
				"y": 1.035498881,
				"z": 3.6391820012,
				"element": "H" 
			},
			{
				"x": -1.7718488355,
				"y": 0.2097708357,
				"z": 4.1606227194,
				"element": "H" 
			},
			{
				"x": -2.1977094748,
				"y": -0.5964957271,
				"z": 1.8608847707,
				"element": "H" 
			},
			{
				"x": -0.5817288074,
				"y": -1.085476834,
				"z": 2.3728602929,
				"element": "H" 
			},
			{
				"x": 0.4308257134,
				"y": 0.7956321339,
				"z": 1.1214122022,
				"element": "H" 
			},
			{
				"x": -2.4168661717,
				"y": 1.4808391557,
				"z": 0.2166937926,
				"element": "H" 
			},
			{
				"x": -0.9378349997,
				"y": 2.2908904789,
				"z": -0.3018368522,
				"element": "H" 
			},
			{
				"x": -0.5263701156,
				"y": 3.0821216044,
				"z": 2.0178400911,
				"element": "H" 
			},
			{
				"x": -2.1265291263,
				"y": 3.5808039724,
				"z": 1.4902294705,
				"element": "H" 
			},
			{
				"x": -2.5064469685,
				"y": -0.9345307078,
				"z": -0.7301291305,
				"element": "H" 
			},
			{
				"x": 2.8953570425,
				"y": -1.4468360087,
				"z": -1.9231688852,
				"element": "H" 
			},
			{
				"x": 4.4780860572,
				"y": -2.5610837027,
				"z": -3.489486377,
				"element": "H" 
			},
			{
				"x": 3.6082145009,
				"y": -4.0479169993,
				"z": -5.2830861935,
				"element": "H" 
			},
			{
				"x": 1.1576854488,
				"y": -4.4133640978,
				"z": -5.5015644681,
				"element": "H" 
			},
			{
				"x": -0.4101163348,
				"y": -3.2956389672,
				"z": -3.9320952703,
				"element": "H" 
			}
		],
		 "valence_orbital": [ 
			{
				"type": "occ",
				"energy": -0.2654,
				"method": "rhf"
			},
			{
				"type": "occ",
				"energy": -0.2642,
				"method": "rhf"
			},
			{
				"type": "occ",
				"energy": -0.24329,
				"method": "rhf"
			},
			{
				"type": "occ",
				"energy": -0.23818,
				"method": "rhf"
			},
			{
				"type": "occ",
				"energy": -0.21449,
				"method": "rhf"
			},
			{
				"type": "unocc",
				"energy": -0.01581,
				"method": "rhf"
			},
			{
				"type": "unocc",
				"energy": 0.01039,
				"method": "rhf"
			},
			{
				"type": "unocc",
				"energy": 0.02768,
				"method": "rhf"
			},
			{
				"type": "unocc",
				"energy": 0.05942,
				"method": "rhf"
			},
			{
				"type": "unocc",
				"energy": 0.07091,
				"method": "rhf"
			}
		],
		"cosmo_sigma_profile": { 
			"-0.025": 0.0,
			"-0.024": 0.0,
			"-0.023": 0.0,
			"-0.022": 0.0,
			"-0.021": 0.0,
			"-0.02": 0.0,
			"-0.019": 0.0,
			"-0.018": 0.0,
			"-0.017": 0.382784753483,
			"-0.016": 1.29764201182,
			"-0.015": 0.514773977381,
			"-0.014": 0.483928310266,
			"-0.013": 0.97374291072,
			"-0.012": 1.19940095365,
			"-0.011": 2.02744262123,
			"-0.01": 1.67198390479,
			"-0.009": 3.28267125002,
			"-0.008": 3.73918142487,
			"-0.007": 4.24831550274,
			"-0.006": 8.9666007279,
			"-0.005": 11.5483334743,
			"-0.004": 16.2832662087,
			"-0.003": 29.5263251995,
			"-0.002": 29.3843603148,
			"-0.001": 33.6426166402,
			"0.0": 29.7872022702,
			"0.001": 20.2864643771,
			"0.002": 13.5581277886,
			"0.003": 16.6449533854,
			"0.004": 17.0348311104,
			"0.005": 15.3749613341,
			"0.006": 8.45807022629,
			"0.007": 4.15679926149,
			"0.008": 3.3792181259,
			"0.009": 3.74427291153,
			"0.01": 2.78259838345,
			"0.011": 2.79086797171,
			"0.012": 2.61239521169,
			"0.013": 2.47488650197,
			"0.014": 1.83158600726,
			"0.015": 0.838901516896,
			"0.016": 0.556067981443,
			"0.017": 0.127031534297,
			"0.018": 0.0,
			"0.019": 0.0,
			"0.02": 0.0,
			"0.021": 0.0,
			"0.022": 0.0,
			"0.023": 0.0,
			"0.024": 0.0,
			"0.025": 0.0
		}
	}
}
