{
	 "smiles": "OC1=CC2=C(C=C1)C1=CC=CC=C1N2", 
	 "Tm": 545.15, 
	 "num_atms": 23, 
	 "gaussian": { 
		 "optdone": 1, 
		 "sigma_profile": "yes", 
		 "theory": "DFT", 
		 "functional": "B3LYP", 
		 "basiset": "6-31G**", 
		 "properties": { 
			 "R2extent": 3125.9359, 
			 "electric_dipole_moment_norm": 2.86246472991, 
			 "electric_quadrupole_moment_norm": 12.6968800569, 
			 "total_energy": -592.694351269, 
			 "HOMO_LUMO_gap": 0.17759, 
			 "cosmo_polarized_energy": -13.76, 
			 "cosmo_cavitation_energy": 26.89, 
			 "cosmo_dispersion_energy": -20.34, 
			 "cosmo_repulsion_energy": 1.56, 
			 "cosmo_total_nonelectrostatic_energy": 8.12, 
			 "SMD_solvation_energy": 4.16 
		},
		"coords": [
			{
				"x": 4.1276912693,
				"y": 1.817295634,
				"z": -1.421459673,
				"element": "O" 
			},
			{
				"x": 2.859000907,
				"y": 1.5981895498,
				"z": -0.9578603383,
				"element": "C" 
			},
			{
				"x": 2.3826419022,
				"y": 0.3162334333,
				"z": -0.6768115245,
				"element": "C" 
			},
			{
				"x": 1.0711981044,
				"y": 0.2051372273,
				"z": -0.2078860879,
				"element": "C" 
			},
			{
				"x": 0.2367263363,
				"y": 1.3375199607,
				"z": -0.0167905487,
				"element": "C" 
			},
			{
				"x": 0.7490003606,
				"y": 2.6080088275,
				"z": -0.3093813676,
				"element": "C" 
			},
			{
				"x": 2.0504339835,
				"y": 2.7377883815,
				"z": -0.7764678166,
				"element": "C" 
			},
			{
				"x": -1.0354798587,
				"y": 0.8425074858,
				"z": 0.4726490046,
				"element": "C" 
			},
			{
				"x": -2.2427168047,
				"y": 1.4478800878,
				"z": 0.8411587023,
				"element": "C" 
			},
			{
				"x": -3.2968504666,
				"y": 0.650006307,
				"z": 1.2812334919,
				"element": "C" 
			},
			{
				"x": -3.1595234596,
				"y": -0.7463589178,
				"z": 1.3577231118,
				"element": "C" 
			},
			{
				"x": -1.9687734906,
				"y": -1.3761578452,
				"z": 0.9971705443,
				"element": "C" 
			},
			{
				"x": -0.9176433116,
				"y": -0.5708048803,
				"z": 0.5574505377,
				"element": "C" 
			},
			{
				"x": 0.359514826,
				"y": -0.9295850564,
				"z": 0.1424197409,
				"element": "N" 
			},
			{
				"x": 4.5845522369,
				"y": 0.9706678025,
				"z": -1.5058566991,
				"element": "H" 
			},
			{
				"x": 3.0126407088,
				"y": -0.5589637632,
				"z": -0.819267591,
				"element": "H" 
			},
			{
				"x": 0.1346502663,
				"y": 3.4935444277,
				"z": -0.1733288373,
				"element": "H" 
			},
			{
				"x": 2.4720014801,
				"y": 3.7090320713,
				"z": -1.0106589854,
				"element": "H" 
			},
			{
				"x": -2.3567921794,
				"y": 2.5269098201,
				"z": 0.7848518915,
				"element": "H" 
			},
			{
				"x": -4.2369869376,
				"y": 1.1108767375,
				"z": 1.5691444831,
				"element": "H" 
			},
			{
				"x": -3.9948492856,
				"y": -1.3481482392,
				"z": 1.7037501802,
				"element": "H" 
			},
			{
				"x": -1.8655435444,
				"y": -2.4559825068,
				"z": 1.0573766205,
				"element": "H" 
			},
			{
				"x": 0.7117069574,
				"y": -1.8716965449,
				"z": 0.1031411606,
				"element": "H" 
			}
		],
		 "valence_orbital": [ 
			{
				"type": "occ",
				"energy": -0.31376,
				"method": "rhf"
			},
			{
				"type": "occ",
				"energy": -0.26134,
				"method": "rhf"
			},
			{
				"type": "occ",
				"energy": -0.24969,
				"method": "rhf"
			},
			{
				"type": "occ",
				"energy": -0.20146,
				"method": "rhf"
			},
			{
				"type": "occ",
				"energy": -0.19597,
				"method": "rhf"
			},
			{
				"type": "unocc",
				"energy": -0.01838,
				"method": "rhf"
			},
			{
				"type": "unocc",
				"energy": 0.00816,
				"method": "rhf"
			},
			{
				"type": "unocc",
				"energy": 0.03443,
				"method": "rhf"
			},
			{
				"type": "unocc",
				"energy": 0.05405,
				"method": "rhf"
			},
			{
				"type": "unocc",
				"energy": 0.07055,
				"method": "rhf"
			}
		],
		"cosmo_sigma_profile": { 
			"-0.025": 0.0,
			"-0.024": 0.0,
			"-0.023": 0.0,
			"-0.022": 0.0,
			"-0.021": 0.0,
			"-0.02": 0.0,
			"-0.019": 0.0,
			"-0.018": 0.22730108298,
			"-0.017": 0.982531913465,
			"-0.016": 1.54134889122,
			"-0.015": 2.03325851457,
			"-0.014": 2.8806608173,
			"-0.013": 1.85950618336,
			"-0.012": 2.15060400421,
			"-0.011": 1.49639469822,
			"-0.01": 2.75017697387,
			"-0.009": 3.13385053104,
			"-0.008": 2.7256253519,
			"-0.007": 3.50021397185,
			"-0.006": 6.74467907495,
			"-0.005": 13.6963001369,
			"-0.004": 12.3533888773,
			"-0.003": 14.4151738248,
			"-0.002": 10.9109330372,
			"-0.001": 10.7542094771,
			"0.0": 9.31071134331,
			"0.001": 8.42909161806,
			"0.002": 10.192336226,
			"0.003": 15.479474623,
			"0.004": 21.6768512025,
			"0.005": 23.1715754235,
			"0.006": 17.9884794415,
			"0.007": 7.24618581383,
			"0.008": 1.64297498361,
			"0.009": 1.5138586572,
			"0.01": 1.55103229116,
			"0.011": 2.00632554478,
			"0.012": 1.15883290333,
			"0.013": 0.0,
			"0.014": 0.0,
			"0.015": 0.0,
			"0.016": 0.0,
			"0.017": 0.0,
			"0.018": 0.0,
			"0.019": 0.0,
			"0.02": 0.0,
			"0.021": 0.0,
			"0.022": 0.0,
			"0.023": 0.0,
			"0.024": 0.0,
			"0.025": 0.0
		}
	}
}
