{
	 "smiles": "FC(F)(F)F", 
	 "Tm": 89.15, 
	 "num_atms": 5, 
	 "gaussian": { 
		 "optdone": 1, 
		 "sigma_profile": "yes", 
		 "theory": "DFT", 
		 "functional": "B3LYP", 
		 "basiset": "6-31G**", 
		 "properties": { 
			 "R2extent": 683.8041, 
			 "electric_dipole_moment_norm": 0.0001, 
			 "electric_quadrupole_moment_norm": 0.0002, 
			 "total_energy": -437.472351327, 
			 "HOMO_LUMO_gap": 0.60753, 
			 "cosmo_polarized_energy": -0.49, 
			 "cosmo_cavitation_energy": 10.96, 
			 "cosmo_dispersion_energy": -7.72, 
			 "cosmo_repulsion_energy": 0.63, 
			 "cosmo_total_nonelectrostatic_energy": 3.87, 
			 "SMD_solvation_energy": 4.1 
		},
		"coords": [
			{
				"x": -0.8168455678,
				"y": -1.6636595679,
				"z": -0.3503658487,
				"element": "F" 
			},
			{
				"x": -1.1784147464,
				"y": -0.5560048791,
				"z": -0.9903519378,
				"element": "C" 
			},
			{
				"x": -0.3625053791,
				"y": -0.352759583,
				"z": -2.0199844327,
				"element": "F" 
			},
			{
				"x": -2.4253979267,
				"y": -0.686513297,
				"z": -1.4321896795,
				"element": "F" 
			},
			{
				"x": -1.1089363801,
				"y": 0.4789373269,
				"z": -0.1589081012,
				"element": "F" 
			}
		],
		 "valence_orbital": [ 
			{
				"type": "occ",
				"energy": -0.47139,
				"method": "rhf"
			},
			{
				"type": "occ",
				"energy": -0.47139,
				"method": "rhf"
			},
			{
				"type": "occ",
				"energy": -0.42815,
				"method": "rhf"
			},
			{
				"type": "occ",
				"energy": -0.42814,
				"method": "rhf"
			},
			{
				"type": "occ",
				"energy": -0.42814,
				"method": "rhf"
			},
			{
				"type": "unocc",
				"energy": 0.17939,
				"method": "rhf"
			},
			{
				"type": "unocc",
				"energy": 0.18791,
				"method": "rhf"
			},
			{
				"type": "unocc",
				"energy": 0.18791,
				"method": "rhf"
			},
			{
				"type": "unocc",
				"energy": 0.18792,
				"method": "rhf"
			},
			{
				"type": "unocc",
				"energy": 0.47088,
				"method": "rhf"
			}
		],
		"cosmo_sigma_profile": { 
			"-0.025": 0.0,
			"-0.024": 0.0,
			"-0.023": 0.0,
			"-0.022": 0.0,
			"-0.021": 0.0,
			"-0.02": 0.0,
			"-0.019": 0.0,
			"-0.018": 0.0,
			"-0.017": 0.0,
			"-0.016": 0.0,
			"-0.015": 0.0,
			"-0.014": 0.0,
			"-0.013": 0.0,
			"-0.012": 0.0,
			"-0.011": 0.0,
			"-0.01": 0.0,
			"-0.009": 0.0,
			"-0.008": 0.0,
			"-0.007": 0.0,
			"-0.006": 0.0,
			"-0.005": 1.33447079828,
			"-0.004": 3.31664283897,
			"-0.003": 3.95328885808,
			"-0.002": 6.49011539944,
			"-0.001": 9.56555634569,
			"0.0": 17.4306819394,
			"0.001": 40.209760492,
			"0.002": 6.11235702211,
			"0.003": 0.0,
			"0.004": 0.0,
			"0.005": 0.0,
			"0.006": 0.0,
			"0.007": 0.0,
			"0.008": 0.0,
			"0.009": 0.0,
			"0.01": 0.0,
			"0.011": 0.0,
			"0.012": 0.0,
			"0.013": 0.0,
			"0.014": 0.0,
			"0.015": 0.0,
			"0.016": 0.0,
			"0.017": 0.0,
			"0.018": 0.0,
			"0.019": 0.0,
			"0.02": 0.0,
			"0.021": 0.0,
			"0.022": 0.0,
			"0.023": 0.0,
			"0.024": 0.0,
			"0.025": 0.0
		}
	}
}
