{
	 "smiles": "OC(=O)C1=C(C=CC(OC2=CC=C(C=C2Cl)C(F)(F)F)=C1)[N+]([O-])=O", 
	 "Tm": 428.15, 
	 "num_atms": 31, 
	 "gaussian": { 
		 "optdone": 1, 
		 "sigma_profile": "yes", 
		 "theory": "DFT", 
		 "functional": "B3LYP", 
		 "basiset": "6-31G**", 
		 "properties": { 
			 "R2extent": 11449.9506, 
			 "electric_dipole_moment_norm": 2.34918631445, 
			 "electric_quadrupole_moment_norm": 23.5565880248, 
			 "total_energy": -1728.19067608, 
			 "HOMO_LUMO_gap": 0.16406, 
			 "cosmo_polarized_energy": -16.6, 
			 "cosmo_cavitation_energy": 41.83, 
			 "cosmo_dispersion_energy": -28.48, 
			 "cosmo_repulsion_energy": 2.12, 
			 "cosmo_total_nonelectrostatic_energy": 15.47, 
			 "SMD_solvation_energy": 11.52 
		},
		"coords": [
			{
				"x": 3.8060144674,
				"y": 1.7204089915,
				"z": 1.9983480557,
				"element": "O" 
			},
			{
				"x": 3.0094130388,
				"y": 1.5290927661,
				"z": 0.9309800481,
				"element": "C" 
			},
			{
				"x": 3.3585342398,
				"y": 0.9751757322,
				"z": -0.0865156351,
				"element": "O" 
			},
			{
				"x": 1.59252371,
				"y": 1.9612838512,
				"z": 1.1932026341,
				"element": "C" 
			},
			{
				"x": 1.2105117171,
				"y": 3.2185096125,
				"z": 1.6810891587,
				"element": "C" 
			},
			{
				"x": -0.1214155257,
				"y": 3.5018541928,
				"z": 1.9834200804,
				"element": "C" 
			},
			{
				"x": -1.0986216052,
				"y": 2.5401640959,
				"z": 1.7690361474,
				"element": "C" 
			},
			{
				"x": -0.7343656313,
				"y": 1.294598679,
				"z": 1.2460927617,
				"element": "C" 
			},
			{
				"x": -1.7536987758,
				"y": 0.3909890954,
				"z": 1.0924226144,
				"element": "O" 
			},
			{
				"x": -1.640832994,
				"y": -0.6842976153,
				"z": 0.2410036462,
				"element": "C" 
			},
			{
				"x": -1.298691901,
				"y": -0.5253519269,
				"z": -1.1048825042,
				"element": "C" 
			},
			{
				"x": -1.2766144467,
				"y": -1.62633827,
				"z": -1.9544491329,
				"element": "C" 
			},
			{
				"x": -1.609515131,
				"y": -2.8915629638,
				"z": -1.4632800933,
				"element": "C" 
			},
			{
				"x": -1.9609653718,
				"y": -3.0571039109,
				"z": -0.1235658472,
				"element": "C" 
			},
			{
				"x": -1.9725330327,
				"y": -1.9556177203,
				"z": 0.7297858326,
				"element": "C" 
			},
			{
				"x": -2.3990491946,
				"y": -2.163277462,
				"z": 2.4084378657,
				"element": "Cl" 
			},
			{
				"x": -1.6477353555,
				"y": -4.0730983857,
				"z": -2.3972952012,
				"element": "C" 
			},
			{
				"x": -2.8431539221,
				"y": -4.170917317,
				"z": -3.0210446346,
				"element": "F" 
			},
			{
				"x": -1.4455145522,
				"y": -5.2360798321,
				"z": -1.7427103785,
				"element": "F" 
			},
			{
				"x": -0.7074368564,
				"y": -3.9728398155,
				"z": -3.3606444111,
				"element": "F" 
			},
			{
				"x": 0.6042235023,
				"y": 1.0026196129,
				"z": 0.9662982659,
				"element": "C" 
			},
			{
				"x": 2.1805432324,
				"y": 4.3122454421,
				"z": 1.8015771658,
				"element": "N" 
			},
			{
				"x": 1.9123280785,
				"y": 5.2249508372,
				"z": 2.5817891181,
				"element": "O" 
			},
			{
				"x": 3.1805034924,
				"y": 4.2646537532,
				"z": 1.0863286807,
				"element": "O" 
			},
			{
				"x": 4.697411528,
				"y": 1.4336040194,
				"z": 1.7364753124,
				"element": "H" 
			},
			{
				"x": -0.3723721521,
				"y": 4.4844163897,
				"z": 2.3635177243,
				"element": "H" 
			},
			{
				"x": -2.1423338275,
				"y": 2.7377486576,
				"z": 1.9855750463,
				"element": "H" 
			},
			{
				"x": -1.0523275461,
				"y": 0.4637383974,
				"z": -1.4755587181,
				"element": "H" 
			},
			{
				"x": -1.001220323,
				"y": -1.5028774837,
				"z": -2.9956455891,
				"element": "H" 
			},
			{
				"x": -2.212321235,
				"y": -4.0370988069,
				"z": 0.2635785314,
				"element": "H" 
			},
			{
				"x": 0.8944123731,
				"y": 0.0312073841,
				"z": 0.5849334554,
				"element": "H" 
			}
		],
		 "valence_orbital": [ 
			{
				"type": "occ",
				"energy": -0.30405,
				"method": "rhf"
			},
			{
				"type": "occ",
				"energy": -0.29372,
				"method": "rhf"
			},
			{
				"type": "occ",
				"energy": -0.28573,
				"method": "rhf"
			},
			{
				"type": "occ",
				"energy": -0.27795,
				"method": "rhf"
			},
			{
				"type": "occ",
				"energy": -0.26139,
				"method": "rhf"
			},
			{
				"type": "unocc",
				"energy": -0.09733,
				"method": "rhf"
			},
			{
				"type": "unocc",
				"energy": -0.05955,
				"method": "rhf"
			},
			{
				"type": "unocc",
				"energy": -0.05037,
				"method": "rhf"
			},
			{
				"type": "unocc",
				"energy": -0.04352,
				"method": "rhf"
			},
			{
				"type": "unocc",
				"energy": -0.01922,
				"method": "rhf"
			}
		],
		"cosmo_sigma_profile": { 
			"-0.025": 0.0,
			"-0.024": 0.0,
			"-0.023": 0.0,
			"-0.022": 0.0,
			"-0.021": 0.0,
			"-0.02": 0.0662528238295,
			"-0.019": 0.712664014238,
			"-0.018": 0.886106077814,
			"-0.017": 0.960481503914,
			"-0.016": 0.630821544109,
			"-0.015": 0.899678096215,
			"-0.014": 0.711454409948,
			"-0.013": 0.457103726523,
			"-0.012": 0.895715701205,
			"-0.011": 0.498541672242,
			"-0.01": 0.576379607366,
			"-0.009": 4.01597472406,
			"-0.008": 11.2695042799,
			"-0.007": 12.9615879096,
			"-0.006": 12.6849037622,
			"-0.005": 12.8224274929,
			"-0.004": 14.8524447862,
			"-0.003": 15.5041577505,
			"-0.002": 22.4129000129,
			"-0.001": 33.8426942604,
			"0.0": 33.3328196801,
			"0.001": 25.3876469208,
			"0.002": 32.553643085,
			"0.003": 34.6024859353,
			"0.004": 13.3132180919,
			"0.005": 7.61139704392,
			"0.006": 9.48460655948,
			"0.007": 11.662856192,
			"0.008": 8.19603779382,
			"0.009": 5.64687166111,
			"0.01": 4.95391226058,
			"0.011": 4.40795303871,
			"0.012": 0.629237840266,
			"0.013": 0.0,
			"0.014": 0.0,
			"0.015": 0.0,
			"0.016": 0.0,
			"0.017": 0.0,
			"0.018": 0.0,
			"0.019": 0.0,
			"0.02": 0.0,
			"0.021": 0.0,
			"0.022": 0.0,
			"0.023": 0.0,
			"0.024": 0.0,
			"0.025": 0.0
		}
	}
}
