{
	 "smiles": "NC1=C(Br)C(=O)N(N=C1)C1=CC=CC=C1", 
	 "Tm": 497.15, 
	 "num_atms": 23, 
	 "gaussian": { 
		 "optdone": 1, 
		 "sigma_profile": "yes", 
		 "theory": "DFT", 
		 "functional": "B3LYP", 
		 "basiset": "6-31G**", 
		 "properties": { 
			 "R2extent": 6649.277, 
			 "electric_dipole_moment_norm": 4.73034201829, 
			 "electric_quadrupole_moment_norm": 27.2883486431, 
			 "total_energy": -3196.74447059, 
			 "HOMO_LUMO_gap": 0.16387, 
			 "cosmo_polarized_energy": -17.62, 
			 "cosmo_cavitation_energy": 29.67, 
			 "cosmo_dispersion_energy": -22.56, 
			 "cosmo_repulsion_energy": 1.75, 
			 "cosmo_total_nonelectrostatic_energy": 8.87, 
			 "SMD_solvation_energy": 4.17 
		},
		"coords": [
			{
				"x": 3.6098516793,
				"y": 2.0894301305,
				"z": -3.3412128807,
				"element": "N" 
			},
			{
				"x": 2.7866348389,
				"y": 1.6213305025,
				"z": -2.3582906823,
				"element": "C" 
			},
			{
				"x": 2.1472837066,
				"y": 2.4132296783,
				"z": -1.4325345735,
				"element": "C" 
			},
			{
				"x": 2.4152113084,
				"y": 4.2903051965,
				"z": -1.4236808747,
				"element": "Br" 
			},
			{
				"x": 1.2427803411,
				"y": 1.8830806364,
				"z": -0.4337439647,
				"element": "C" 
			},
			{
				"x": 0.6372110952,
				"y": 2.5447449122,
				"z": 0.3977306987,
				"element": "O" 
			},
			{
				"x": 1.1110268538,
				"y": 0.4570989372,
				"z": -0.4941843198,
				"element": "N" 
			},
			{
				"x": 1.7245158269,
				"y": -0.3281220594,
				"z": -1.3951882246,
				"element": "N" 
			},
			{
				"x": 2.5125257713,
				"y": 0.2115217474,
				"z": -2.2751649521,
				"element": "C" 
			},
			{
				"x": 0.2149111981,
				"y": -0.240722124,
				"z": 0.3933664883,
				"element": "C" 
			},
			{
				"x": 0.1137178639,
				"y": 0.1118413425,
				"z": 1.7431448013,
				"element": "C" 
			},
			{
				"x": -0.7421367457,
				"y": -0.6110513018,
				"z": 2.5739724123,
				"element": "C" 
			},
			{
				"x": -1.4905377959,
				"y": -1.6773911698,
				"z": 2.0735526815,
				"element": "C" 
			},
			{
				"x": -1.3804113569,
				"y": -2.0232749224,
				"z": 0.7255889913,
				"element": "C" 
			},
			{
				"x": -0.5331362708,
				"y": -1.3066814794,
				"z": -0.1170527492,
				"element": "C" 
			},
			{
				"x": 3.917258737,
				"y": 3.0489303678,
				"z": -3.2726270548,
				"element": "H" 
			},
			{
				"x": 4.2361224788,
				"y": 1.4439970944,
				"z": -3.7956979598,
				"element": "H" 
			},
			{
				"x": 2.9782017211,
				"y": -0.477068358,
				"z": -2.9756864497,
				"element": "H" 
			},
			{
				"x": 0.6833426494,
				"y": 0.9448004225,
				"z": 2.1303298767,
				"element": "H" 
			},
			{
				"x": -0.8191982518,
				"y": -0.3354438964,
				"z": 3.6215647777,
				"element": "H" 
			},
			{
				"x": -2.1554745286,
				"y": -2.2332863647,
				"z": 2.7279305876,
				"element": "H" 
			},
			{
				"x": -1.9591230937,
				"y": -2.8496407657,
				"z": 0.323443833,
				"element": "H" 
			},
			{
				"x": -0.4369780264,
				"y": -1.5701285266,
				"z": -1.1636604624,
				"element": "H" 
			}
		],
		 "valence_orbital": [ 
			{
				"type": "occ",
				"energy": -0.28032,
				"method": "rhf"
			},
			{
				"type": "occ",
				"energy": -0.25521,
				"method": "rhf"
			},
			{
				"type": "occ",
				"energy": -0.24665,
				"method": "rhf"
			},
			{
				"type": "occ",
				"energy": -0.23405,
				"method": "rhf"
			},
			{
				"type": "occ",
				"energy": -0.22229,
				"method": "rhf"
			},
			{
				"type": "unocc",
				"energy": -0.05842,
				"method": "rhf"
			},
			{
				"type": "unocc",
				"energy": -0.00585,
				"method": "rhf"
			},
			{
				"type": "unocc",
				"energy": 0.00098,
				"method": "rhf"
			},
			{
				"type": "unocc",
				"energy": 0.00593,
				"method": "rhf"
			},
			{
				"type": "unocc",
				"energy": 0.01423,
				"method": "rhf"
			}
		],
		"cosmo_sigma_profile": { 
			"-0.025": 0.0,
			"-0.024": 0.0,
			"-0.023": 0.0,
			"-0.022": 0.0,
			"-0.021": 0.0,
			"-0.02": 0.0,
			"-0.019": 0.0,
			"-0.018": 0.0,
			"-0.017": 0.0,
			"-0.016": 0.0868520020298,
			"-0.015": 1.71712068272,
			"-0.014": 1.98659454444,
			"-0.013": 2.50160178508,
			"-0.012": 2.69058696998,
			"-0.011": 3.15385416215,
			"-0.01": 2.47810961212,
			"-0.009": 2.62135773946,
			"-0.008": 3.89879928829,
			"-0.007": 2.53734378481,
			"-0.006": 8.47522917099,
			"-0.005": 13.7703320616,
			"-0.004": 15.7477480356,
			"-0.003": 16.7643277068,
			"-0.002": 17.474119304,
			"-0.001": 17.402051566,
			"0.0": 16.9197566723,
			"0.001": 14.9907854759,
			"0.002": 16.3630444897,
			"0.003": 15.4140308933,
			"0.004": 19.6674919371,
			"0.005": 15.2583656523,
			"0.006": 5.23334607784,
			"0.007": 3.35740164131,
			"0.008": 3.56809351187,
			"0.009": 3.26547226413,
			"0.01": 2.36176905896,
			"0.011": 2.7139167808,
			"0.012": 2.54446303808,
			"0.013": 4.48731989908,
			"0.014": 2.28950865353,
			"0.015": 0.0113288557197,
			"0.016": 0.0,
			"0.017": 0.0,
			"0.018": 0.0,
			"0.019": 0.0,
			"0.02": 0.0,
			"0.021": 0.0,
			"0.022": 0.0,
			"0.023": 0.0,
			"0.024": 0.0,
			"0.025": 0.0
		}
	}
}
