{
	 "smiles": "NC(=NO)C1=CC=C(Cl)C=C1", 
	 "Tm": 405.15, 
	 "num_atms": 18, 
	 "gaussian": { 
		 "optdone": 1, 
		 "sigma_profile": "yes", 
		 "theory": "DFT", 
		 "functional": "B3LYP", 
		 "basiset": "6-31G**", 
		 "properties": { 
			 "R2extent": 2511.9911, 
			 "electric_dipole_moment_norm": 2.25227377776, 
			 "electric_quadrupole_moment_norm": 6.5013024772, 
			 "total_energy": -915.827304327, 
			 "HOMO_LUMO_gap": 0.17614, 
			 "cosmo_polarized_energy": -10.97, 
			 "cosmo_cavitation_energy": 24.27, 
			 "cosmo_dispersion_energy": -18.24, 
			 "cosmo_repulsion_energy": 1.49, 
			 "cosmo_total_nonelectrostatic_energy": 7.53, 
			 "SMD_solvation_energy": 4.02 
		},
		"coords": [
			{
				"x": -2.8191391984,
				"y": -1.5239003247,
				"z": -0.8449963092,
				"element": "N" 
			},
			{
				"x": -2.4444165395,
				"y": -0.3717988414,
				"z": -0.1392770883,
				"element": "C" 
			},
			{
				"x": -3.4176748772,
				"y": 0.3375517521,
				"z": 0.3263786313,
				"element": "N" 
			},
			{
				"x": -3.0004053845,
				"y": 1.5810398379,
				"z": 0.854849768,
				"element": "O" 
			},
			{
				"x": -0.9842403293,
				"y": -0.106107403,
				"z": -0.0808988283,
				"element": "C" 
			},
			{
				"x": -0.1620693082,
				"y": -0.5608824979,
				"z": -1.1255321398,
				"element": "C" 
			},
			{
				"x": 1.2174638753,
				"y": -0.3689226337,
				"z": -1.0918069027,
				"element": "C" 
			},
			{
				"x": 1.7841262326,
				"y": 0.2771589252,
				"z": 0.0055798541,
				"element": "C" 
			},
			{
				"x": 3.5234262512,
				"y": 0.5202189813,
				"z": 0.0628062855,
				"element": "Cl" 
			},
			{
				"x": 0.9920675726,
				"y": 0.7352599861,
				"z": 1.0588317483,
				"element": "C" 
			},
			{
				"x": -0.3865667693,
				"y": 0.5468573725,
				"z": 1.010433699,
				"element": "C" 
			},
			{
				"x": -2.3057461707,
				"y": -2.3550166954,
				"z": -0.5731883643,
				"element": "H" 
			},
			{
				"x": -3.821727247,
				"y": -1.6716057011,
				"z": -0.8063278902,
				"element": "H" 
			},
			{
				"x": -3.8463355733,
				"y": 1.9744764892,
				"z": 1.1033478063,
				"element": "H" 
			},
			{
				"x": -0.6153438864,
				"y": -1.054929786,
				"z": -1.9781738933,
				"element": "H" 
			},
			{
				"x": 1.8453080899,
				"y": -0.7131459044,
				"z": -1.906138485,
				"element": "H" 
			},
			{
				"x": 1.450612301,
				"y": 1.2339248865,
				"z": 1.9055046933,
				"element": "H" 
			},
			{
				"x": -1.0061390389,
				"y": 0.9104215568,
				"z": 1.8194074152,
				"element": "H" 
			}
		],
		 "valence_orbital": [ 
			{
				"type": "occ",
				"energy": -0.3132,
				"method": "rhf"
			},
			{
				"type": "occ",
				"energy": -0.27153,
				"method": "rhf"
			},
			{
				"type": "occ",
				"energy": -0.26382,
				"method": "rhf"
			},
			{
				"type": "occ",
				"energy": -0.25301,
				"method": "rhf"
			},
			{
				"type": "occ",
				"energy": -0.21406,
				"method": "rhf"
			},
			{
				"type": "unocc",
				"energy": -0.03792,
				"method": "rhf"
			},
			{
				"type": "unocc",
				"energy": -0.01448,
				"method": "rhf"
			},
			{
				"type": "unocc",
				"energy": 0.02966,
				"method": "rhf"
			},
			{
				"type": "unocc",
				"energy": 0.04948,
				"method": "rhf"
			},
			{
				"type": "unocc",
				"energy": 0.07383,
				"method": "rhf"
			}
		],
		"cosmo_sigma_profile": { 
			"-0.025": 0.0,
			"-0.024": 0.0,
			"-0.023": 0.0,
			"-0.022": 0.0,
			"-0.021": 0.0,
			"-0.02": 0.0,
			"-0.019": 0.0,
			"-0.018": 0.0,
			"-0.017": 0.412232204996,
			"-0.016": 0.971116690584,
			"-0.015": 1.05666915528,
			"-0.014": 0.705877458761,
			"-0.013": 0.874896272932,
			"-0.012": 3.41647657194,
			"-0.011": 2.15313258918,
			"-0.01": 3.53884398514,
			"-0.009": 2.6840207236,
			"-0.008": 4.10125956396,
			"-0.007": 6.31457229526,
			"-0.006": 7.49387543085,
			"-0.005": 9.46722728095,
			"-0.004": 7.65306357462,
			"-0.003": 9.18189914918,
			"-0.002": 8.43859589601,
			"-0.001": 10.9601482677,
			"0.0": 11.5999791208,
			"0.001": 16.1378171055,
			"0.002": 18.0173331514,
			"0.003": 20.5522322544,
			"0.004": 15.4537442754,
			"0.005": 9.71660537817,
			"0.006": 5.71842746024,
			"0.007": 4.50455427126,
			"0.008": 3.47857562581,
			"0.009": 2.50502658126,
			"0.01": 2.756744793,
			"0.011": 2.75016681802,
			"0.012": 2.10847903515,
			"0.013": 0.648831956974,
			"0.014": 0.334172575593,
			"0.015": 0.0,
			"0.016": 0.0,
			"0.017": 0.0,
			"0.018": 0.0,
			"0.019": 0.0,
			"0.02": 0.0,
			"0.021": 0.0,
			"0.022": 0.0,
			"0.023": 0.0,
			"0.024": 0.0,
			"0.025": 0.0
		}
	}
}
