{
	 "smiles": "OC(=O)C1=CC(=CC=C1)C1=NC=CS1", 
	 "Tm": 434.15, 
	 "num_atms": 21, 
	 "gaussian": { 
		 "optdone": 1, 
		 "sigma_profile": "yes", 
		 "theory": "DFT", 
		 "functional": "B3LYP", 
		 "basiset": "6-31G**", 
		 "properties": { 
			 "R2extent": 3916.0306, 
			 "electric_dipole_moment_norm": 4.74539521326, 
			 "electric_quadrupole_moment_norm": 24.6482404108, 
			 "total_energy": -988.671264246, 
			 "HOMO_LUMO_gap": 0.16787, 
			 "cosmo_polarized_energy": -15.54, 
			 "cosmo_cavitation_energy": 27.71, 
			 "cosmo_dispersion_energy": -20.99, 
			 "cosmo_repulsion_energy": 1.58, 
			 "cosmo_total_nonelectrostatic_energy": 8.3, 
			 "SMD_solvation_energy": 4.71 
		},
		"coords": [
			{
				"x": 0.0435457511,
				"y": 4.5128701957,
				"z": 0.2495825442,
				"element": "O" 
			},
			{
				"x": 0.0153451971,
				"y": 3.9899604162,
				"z": -1.0060805471,
				"element": "C" 
			},
			{
				"x": -0.1225286883,
				"y": 4.7171486983,
				"z": -1.9607517811,
				"element": "O" 
			},
			{
				"x": 0.1618112409,
				"y": 2.5008582373,
				"z": -1.12190659,
				"element": "C" 
			},
			{
				"x": -0.137866644,
				"y": 1.6284052963,
				"z": -0.069947913,
				"element": "C" 
			},
			{
				"x": -0.0020449732,
				"y": 0.2412177157,
				"z": -0.22532635,
				"element": "C" 
			},
			{
				"x": 0.4467349608,
				"y": -0.2604840361,
				"z": -1.4596587379,
				"element": "C" 
			},
			{
				"x": 0.7327641713,
				"y": 0.6063907727,
				"z": -2.5117285095,
				"element": "C" 
			},
			{
				"x": 0.5832074668,
				"y": 1.9825849278,
				"z": -2.353576316,
				"element": "C" 
			},
			{
				"x": -0.3167285223,
				"y": -0.7042042591,
				"z": 0.8553026942,
				"element": "C" 
			},
			{
				"x": -0.1903270638,
				"y": -2.0014518984,
				"z": 0.7448651953,
				"element": "N" 
			},
			{
				"x": -0.5485621167,
				"y": -2.6455333486,
				"z": 1.8998624914,
				"element": "C" 
			},
			{
				"x": -0.9602135715,
				"y": -1.8470696356,
				"z": 2.9291569065,
				"element": "C" 
			},
			{
				"x": -0.9035874887,
				"y": -0.1871114974,
				"z": 2.4414180503,
				"element": "S" 
			},
			{
				"x": 0.3378835577,
				"y": 3.8449783677,
				"z": 0.8841634034,
				"element": "H" 
			},
			{
				"x": -0.5229973851,
				"y": 2.0210347412,
				"z": 0.868333667,
				"element": "H" 
			},
			{
				"x": 0.5549796807,
				"y": -1.3333390185,
				"z": -1.5719418203,
				"element": "H" 
			},
			{
				"x": 1.0706355085,
				"y": 0.2041853067,
				"z": -3.461952912,
				"element": "H" 
			},
			{
				"x": 0.7869194242,
				"y": 2.6735935761,
				"z": -3.1641064755,
				"element": "H" 
			},
			{
				"x": -0.4908950969,
				"y": -3.726885143,
				"z": 1.9428879243,
				"element": "H" 
			},
			{
				"x": -1.2866754086,
				"y": -2.1309494149,
				"z": 3.9192050759,
				"element": "H" 
			}
		],
		 "valence_orbital": [ 
			{
				"type": "occ",
				"energy": -0.29338,
				"method": "rhf"
			},
			{
				"type": "occ",
				"energy": -0.28787,
				"method": "rhf"
			},
			{
				"type": "occ",
				"energy": -0.28098,
				"method": "rhf"
			},
			{
				"type": "occ",
				"energy": -0.27258,
				"method": "rhf"
			},
			{
				"type": "occ",
				"energy": -0.23831,
				"method": "rhf"
			},
			{
				"type": "unocc",
				"energy": -0.07044,
				"method": "rhf"
			},
			{
				"type": "unocc",
				"energy": -0.05339,
				"method": "rhf"
			},
			{
				"type": "unocc",
				"energy": 0.00213,
				"method": "rhf"
			},
			{
				"type": "unocc",
				"energy": 0.00538,
				"method": "rhf"
			},
			{
				"type": "unocc",
				"energy": 0.03185,
				"method": "rhf"
			}
		],
		"cosmo_sigma_profile": { 
			"-0.025": 0.0,
			"-0.024": 0.0,
			"-0.023": 0.0,
			"-0.022": 0.0,
			"-0.021": 0.0,
			"-0.02": 0.0,
			"-0.019": 0.423546369905,
			"-0.018": 1.03686957681,
			"-0.017": 1.00156233202,
			"-0.016": 1.08380434475,
			"-0.015": 1.10753993915,
			"-0.014": 0.549022016052,
			"-0.013": 1.3422950795,
			"-0.012": 0.862453917694,
			"-0.011": 1.11938852527,
			"-0.01": 1.73778752152,
			"-0.009": 3.64408542453,
			"-0.008": 4.31363177315,
			"-0.007": 7.86088854792,
			"-0.006": 11.1185753447,
			"-0.005": 11.9264988668,
			"-0.004": 12.0588274272,
			"-0.003": 9.82918986642,
			"-0.002": 12.487228508,
			"-0.001": 12.7705541181,
			"0.0": 16.9199983098,
			"0.001": 24.5502079859,
			"0.002": 26.9781144576,
			"0.003": 15.2469347341,
			"0.004": 6.07155682466,
			"0.005": 4.63133813979,
			"0.006": 3.56054827165,
			"0.007": 4.32963266123,
			"0.008": 3.81584069275,
			"0.009": 5.10358118278,
			"0.01": 5.89359315286,
			"0.011": 6.30501545631,
			"0.012": 5.07366175203,
			"0.013": 1.16189254255,
			"0.014": 0.006525043452,
			"0.015": 0.0,
			"0.016": 0.0,
			"0.017": 0.0,
			"0.018": 0.0,
			"0.019": 0.0,
			"0.02": 0.0,
			"0.021": 0.0,
			"0.022": 0.0,
			"0.023": 0.0,
			"0.024": 0.0,
			"0.025": 0.0
		}
	}
}
