{
	 "smiles": "ClS(=O)(=O)C1=CC2=C(NC(=O)C2=O)C=C1", 
	 "Tm": 458.15, 
	 "num_atms": 19, 
	 "gaussian": { 
		 "optdone": 1, 
		 "sigma_profile": "yes", 
		 "theory": "DFT", 
		 "functional": "B3LYP", 
		 "basiset": "6-31G**", 
		 "properties": { 
			 "R2extent": 5431.0203, 
			 "electric_dipole_moment_norm": 5.81854673007, 
			 "electric_quadrupole_moment_norm": 24.3492777447, 
			 "total_energy": -1521.21555579, 
			 "HOMO_LUMO_gap": 0.14666, 
			 "cosmo_polarized_energy": -20.98, 
			 "cosmo_cavitation_energy": 28.75, 
			 "cosmo_dispersion_energy": -21.4, 
			 "cosmo_repulsion_energy": 1.63, 
			 "cosmo_total_nonelectrostatic_energy": 8.98, 
			 "SMD_solvation_energy": 4.97 
		},
		"coords": [
			{
				"x": -1.7899431024,
				"y": 3.2243221676,
				"z": -3.4235061085,
				"element": "Cl" 
			},
			{
				"x": 0.1991962887,
				"y": 2.9582216354,
				"z": -2.7009809553,
				"element": "S" 
			},
			{
				"x": 0.5914600435,
				"y": 4.2361672317,
				"z": -2.119951853,
				"element": "O" 
			},
			{
				"x": 0.9425149412,
				"y": 2.3244650087,
				"z": -3.7815633363,
				"element": "O" 
			},
			{
				"x": -0.052231916,
				"y": 1.7753615764,
				"z": -1.3922892223,
				"element": "C" 
			},
			{
				"x": 0.0311371409,
				"y": 0.4110991425,
				"z": -1.6851528184,
				"element": "C" 
			},
			{
				"x": -0.1584478202,
				"y": -0.4726457415,
				"z": -0.6335864018,
				"element": "C" 
			},
			{
				"x": -0.4245282508,
				"y": -0.0082119472,
				"z": 0.6745271305,
				"element": "C" 
			},
			{
				"x": -0.5738580457,
				"y": -1.0811436843,
				"z": 1.547845694,
				"element": "N" 
			},
			{
				"x": -0.4200467179,
				"y": -2.3109206743,
				"z": 0.9069792923,
				"element": "C" 
			},
			{
				"x": -0.4953371287,
				"y": -3.4046611763,
				"z": 1.4098842749,
				"element": "O" 
			},
			{
				"x": -0.1316020917,
				"y": -1.9483408179,
				"z": -0.5918173128,
				"element": "C" 
			},
			{
				"x": 0.0617935768,
				"y": -2.7538215572,
				"z": -1.4718278556,
				"element": "O" 
			},
			{
				"x": -0.5029975257,
				"y": 1.3549238093,
				"z": 0.9560218599,
				"element": "C" 
			},
			{
				"x": -0.314196219,
				"y": 2.2480779872,
				"z": -0.0991599508,
				"element": "C" 
			},
			{
				"x": 0.2438280373,
				"y": 0.0551542319,
				"z": -2.6876515867,
				"element": "H" 
			},
			{
				"x": -0.7678831468,
				"y": -1.0028392729,
				"z": 2.5362858157,
				"element": "H" 
			},
			{
				"x": -0.6993619212,
				"y": 1.7184457597,
				"z": 1.9590877572,
				"element": "H" 
			},
			{
				"x": -0.3579961422,
				"y": 3.3174463212,
				"z": 0.0765555772,
				"element": "H" 
			}
		],
		 "valence_orbital": [ 
			{
				"type": "occ",
				"energy": -0.33635,
				"method": "rhf"
			},
			{
				"type": "occ",
				"energy": -0.32171,
				"method": "rhf"
			},
			{
				"type": "occ",
				"energy": -0.31391,
				"method": "rhf"
			},
			{
				"type": "occ",
				"energy": -0.27473,
				"method": "rhf"
			},
			{
				"type": "occ",
				"energy": -0.27331,
				"method": "rhf"
			},
			{
				"type": "unocc",
				"energy": -0.12665,
				"method": "rhf"
			},
			{
				"type": "unocc",
				"energy": -0.09791,
				"method": "rhf"
			},
			{
				"type": "unocc",
				"energy": -0.05795,
				"method": "rhf"
			},
			{
				"type": "unocc",
				"energy": -0.0331,
				"method": "rhf"
			},
			{
				"type": "unocc",
				"energy": 0.04315,
				"method": "rhf"
			}
		],
		"cosmo_sigma_profile": { 
			"-0.025": 0.0,
			"-0.024": 0.0,
			"-0.023": 0.0,
			"-0.022": 0.0,
			"-0.021": 0.0,
			"-0.02": 0.0,
			"-0.019": 0.0,
			"-0.018": 0.681342003138,
			"-0.017": 1.44701070243,
			"-0.016": 1.53492259782,
			"-0.015": 0.943934468368,
			"-0.014": 1.54233152751,
			"-0.013": 1.29136791915,
			"-0.012": 1.17950169212,
			"-0.011": 1.45810426794,
			"-0.01": 2.72130072249,
			"-0.009": 7.8725288803,
			"-0.008": 7.43760870138,
			"-0.007": 8.13558796752,
			"-0.006": 9.27578821943,
			"-0.005": 7.80433719312,
			"-0.004": 10.6207888421,
			"-0.003": 17.2037186751,
			"-0.002": 20.4023459966,
			"-0.001": 16.2038088529,
			"0.0": 11.8237010439,
			"0.001": 8.29778928606,
			"0.002": 11.0582717267,
			"0.003": 16.402975768,
			"0.004": 9.99692320388,
			"0.005": 5.41028772389,
			"0.006": 6.45990883628,
			"0.007": 10.2096449997,
			"0.008": 13.7525382721,
			"0.009": 10.9480112385,
			"0.01": 8.90137231269,
			"0.011": 3.96632510272,
			"0.012": 0.26009573326,
			"0.013": 0.0,
			"0.014": 0.0,
			"0.015": 0.0,
			"0.016": 0.0,
			"0.017": 0.0,
			"0.018": 0.0,
			"0.019": 0.0,
			"0.02": 0.0,
			"0.021": 0.0,
			"0.022": 0.0,
			"0.023": 0.0,
			"0.024": 0.0,
			"0.025": 0.0
		}
	}
}
