{
	 "smiles": "CC(C)OC1=CC=C(C=C1)N1N=NC(C(O)=O)=C1C", 
	 "Tm": 433.15, 
	 "num_atms": 34, 
	 "gaussian": { 
		 "optdone": 1, 
		 "sigma_profile": "yes", 
		 "theory": "DFT", 
		 "functional": "B3LYP", 
		 "basiset": "6-31G**", 
		 "properties": { 
			 "R2extent": 7921.646, 
			 "electric_dipole_moment_norm": 8.96749043434, 
			 "electric_quadrupole_moment_norm": 33.7456786595, 
			 "total_energy": -894.312651004, 
			 "HOMO_LUMO_gap": 0.20345, 
			 "cosmo_polarized_energy": -25.78, 
			 "cosmo_cavitation_energy": 38.26, 
			 "cosmo_dispersion_energy": -26.79, 
			 "cosmo_repulsion_energy": 2.06, 
			 "cosmo_total_nonelectrostatic_energy": 13.53, 
			 "SMD_solvation_energy": 6.27 
		},
		"coords": [
			{
				"x": -0.7506720476,
				"y": -2.124554591,
				"z": -4.2632789298,
				"element": "C" 
			},
			{
				"x": -2.0470741722,
				"y": -1.462129291,
				"z": -3.8005607674,
				"element": "C" 
			},
			{
				"x": -2.8342793624,
				"y": -2.3274978538,
				"z": -2.8182313245,
				"element": "C" 
			},
			{
				"x": -1.826197164,
				"y": -0.1177698458,
				"z": -3.2864805714,
				"element": "O" 
			},
			{
				"x": -1.0761159504,
				"y": 0.0584548382,
				"z": -2.1512789037,
				"element": "C" 
			},
			{
				"x": 0.3102740578,
				"y": 0.2498600313,
				"z": -2.2371893896,
				"element": "C" 
			},
			{
				"x": 1.0569966766,
				"y": 0.5217251045,
				"z": -1.0948666885,
				"element": "C" 
			},
			{
				"x": 0.4184819275,
				"y": 0.601493737,
				"z": 0.1466668684,
				"element": "C" 
			},
			{
				"x": -0.9622890889,
				"y": 0.4102562911,
				"z": 0.2446574371,
				"element": "C" 
			},
			{
				"x": -1.7069955612,
				"y": 0.151255888,
				"z": -0.9041561443,
				"element": "C" 
			},
			{
				"x": 1.2043574228,
				"y": 0.8595979401,
				"z": 1.3083680775,
				"element": "N" 
			},
			{
				"x": 2.3851652224,
				"y": 0.1808453542,
				"z": 1.4840227672,
				"element": "N" 
			},
			{
				"x": 2.937659609,
				"y": 0.6261151502,
				"z": 2.5622341903,
				"element": "N" 
			},
			{
				"x": 2.1348714296,
				"y": 1.583388987,
				"z": 3.1211265485,
				"element": "C" 
			},
			{
				"x": 2.5576198108,
				"y": 2.3109361356,
				"z": 4.3454857364,
				"element": "C" 
			},
			{
				"x": 1.537350922,
				"y": 2.8239330763,
				"z": 5.1025336007,
				"element": "O" 
			},
			{
				"x": 3.70237783,
				"y": 2.4853294193,
				"z": 4.6714690203,
				"element": "O" 
			},
			{
				"x": 1.0119527592,
				"y": 1.7559721658,
				"z": 2.3180623042,
				"element": "C" 
			},
			{
				"x": -0.126296602,
				"y": 2.7255067655,
				"z": 2.3828823065,
				"element": "C" 
			},
			{
				"x": -0.0875053959,
				"y": -2.3453288886,
				"z": -3.4211801967,
				"element": "H" 
			},
			{
				"x": -0.2173219564,
				"y": -1.4826580345,
				"z": -4.9702213098,
				"element": "H" 
			},
			{
				"x": -0.9776861385,
				"y": -3.0699622279,
				"z": -4.7664810529,
				"element": "H" 
			},
			{
				"x": -2.6730822274,
				"y": -1.2637102565,
				"z": -4.6763768638,
				"element": "H" 
			},
			{
				"x": -2.250322522,
				"y": -2.5469339923,
				"z": -1.9188819982,
				"element": "H" 
			},
			{
				"x": -3.7621525333,
				"y": -1.8309153638,
				"z": -2.5200687476,
				"element": "H" 
			},
			{
				"x": -3.094329546,
				"y": -3.2808740316,
				"z": -3.2892257477,
				"element": "H" 
			},
			{
				"x": 0.7902975277,
				"y": 0.2075789127,
				"z": -3.2083617436,
				"element": "H" 
			},
			{
				"x": 2.1289230549,
				"y": 0.672594262,
				"z": -1.151364647,
				"element": "H" 
			},
			{
				"x": -1.4514297043,
				"y": 0.4442735046,
				"z": 1.2121799863,
				"element": "H" 
			},
			{
				"x": -2.7816277898,
				"y": 0.019176185,
				"z": -0.8456919728,
				"element": "H" 
			},
			{
				"x": 0.6992197954,
				"y": 2.4142695083,
				"z": 4.8481670085,
				"element": "H" 
			},
			{
				"x": 0.1598112612,
				"y": 3.5949220703,
				"z": 2.978754479,
				"element": "H" 
			},
			{
				"x": -1.0244229578,
				"y": 2.2861893555,
				"z": 2.8338574268,
				"element": "H" 
			},
			{
				"x": -0.403758587,
				"y": 3.0696596947,
				"z": 1.3829292415,
				"element": "H" 
			}
		],
		 "valence_orbital": [ 
			{
				"type": "occ",
				"energy": -0.2792,
				"method": "rhf"
			},
			{
				"type": "occ",
				"energy": -0.27775,
				"method": "rhf"
			},
			{
				"type": "occ",
				"energy": -0.27476,
				"method": "rhf"
			},
			{
				"type": "occ",
				"energy": -0.26732,
				"method": "rhf"
			},
			{
				"type": "occ",
				"energy": -0.25013,
				"method": "rhf"
			},
			{
				"type": "unocc",
				"energy": -0.04668,
				"method": "rhf"
			},
			{
				"type": "unocc",
				"energy": -0.02974,
				"method": "rhf"
			},
			{
				"type": "unocc",
				"energy": -0.02098,
				"method": "rhf"
			},
			{
				"type": "unocc",
				"energy": 0.00044,
				"method": "rhf"
			},
			{
				"type": "unocc",
				"energy": 0.04689,
				"method": "rhf"
			}
		],
		"cosmo_sigma_profile": { 
			"-0.025": 0.0,
			"-0.024": 0.0,
			"-0.023": 0.0,
			"-0.022": 0.0,
			"-0.021": 0.0,
			"-0.02": 0.0,
			"-0.019": 0.00717612890694,
			"-0.018": 0.745287843314,
			"-0.017": 1.03338307026,
			"-0.016": 0.969034111568,
			"-0.015": 1.16985431288,
			"-0.014": 0.800215812065,
			"-0.013": 0.917994941924,
			"-0.012": 1.24461393076,
			"-0.011": 1.42500246832,
			"-0.01": 0.888500560792,
			"-0.009": 1.74393649203,
			"-0.008": 6.02402542487,
			"-0.007": 9.18832378566,
			"-0.006": 13.5898532698,
			"-0.005": 17.6898901024,
			"-0.004": 25.8693550024,
			"-0.003": 33.7881687653,
			"-0.002": 27.5369446096,
			"-0.001": 22.5626584449,
			"0.0": 23.316770098,
			"0.001": 15.2066993539,
			"0.002": 13.3757882815,
			"0.003": 15.117891053,
			"0.004": 6.17295546819,
			"0.005": 5.21107845799,
			"0.006": 4.42861961094,
			"0.007": 5.34118778788,
			"0.008": 6.94439199546,
			"0.009": 8.01990233989,
			"0.01": 9.73678993689,
			"0.011": 10.5965287703,
			"0.012": 7.90259218284,
			"0.013": 3.29945684938,
			"0.014": 1.22053694759,
			"0.015": 0.370521662386,
			"0.016": 0.0,
			"0.017": 0.0,
			"0.018": 0.0,
			"0.019": 0.0,
			"0.02": 0.0,
			"0.021": 0.0,
			"0.022": 0.0,
			"0.023": 0.0,
			"0.024": 0.0,
			"0.025": 0.0
		}
	}
}
