{
	 "smiles": "N1C=CN=C1C1=CN=CC=C1", 
	 "Tm": 482.15, 
	 "num_atms": 18, 
	 "gaussian": { 
		 "optdone": 1, 
		 "sigma_profile": "yes", 
		 "theory": "DFT", 
		 "functional": "B3LYP", 
		 "basiset": "6-31G**", 
		 "properties": { 
			 "R2extent": 2012.6143, 
			 "electric_dipole_moment_norm": 5.23073807507, 
			 "electric_quadrupole_moment_norm": 7.83603006056, 
			 "total_energy": -473.316156931, 
			 "HOMO_LUMO_gap": 0.1752, 
			 "cosmo_polarized_energy": -16.21, 
			 "cosmo_cavitation_energy": 22.4, 
			 "cosmo_dispersion_energy": -16.97, 
			 "cosmo_repulsion_energy": 1.33, 
			 "cosmo_total_nonelectrostatic_energy": 6.77, 
			 "SMD_solvation_energy": 1.33 
		},
		"coords": [
			{
				"x": -1.6898201912,
				"y": 0.0485465035,
				"z": 0.450507436,
				"element": "N" 
			},
			{
				"x": -2.6443982136,
				"y": -0.8691486256,
				"z": 0.8291782538,
				"element": "C" 
			},
			{
				"x": -1.9490794631,
				"y": -1.8637550403,
				"z": 1.4750004342,
				"element": "C" 
			},
			{
				"x": -0.6089058742,
				"y": -1.5798978016,
				"z": 1.4997820774,
				"element": "N" 
			},
			{
				"x": -0.4689137049,
				"y": -0.4193798426,
				"z": 0.8756855031,
				"element": "C" 
			},
			{
				"x": 0.8006400318,
				"y": 0.2756415517,
				"z": 0.6631254651,
				"element": "C" 
			},
			{
				"x": 1.9906279666,
				"y": -0.3031552177,
				"z": 1.145986137,
				"element": "C" 
			},
			{
				"x": 3.1983370963,
				"y": 0.2454620617,
				"z": 1.0061992921,
				"element": "N" 
			},
			{
				"x": 3.2788492616,
				"y": 1.420063514,
				"z": 0.3659301336,
				"element": "C" 
			},
			{
				"x": 2.168011897,
				"y": 2.0849576481,
				"z": -0.1538524451,
				"element": "C" 
			},
			{
				"x": 0.9120270054,
				"y": 1.5042325969,
				"z": -0.0028256886,
				"element": "C" 
			},
			{
				"x": -1.8672695467,
				"y": 0.9059491474,
				"z": -0.0485363032,
				"element": "H" 
			},
			{
				"x": -3.6921567029,
				"y": -0.7324534965,
				"z": 0.6109617374,
				"element": "H" 
			},
			{
				"x": -2.3434599859,
				"y": -2.7659093065,
				"z": 1.9213552255,
				"element": "H" 
			},
			{
				"x": 1.9339877045,
				"y": -1.2553772816,
				"z": 1.6662209054,
				"element": "H" 
			},
			{
				"x": 4.2748188761,
				"y": 1.8471796999,
				"z": 0.2646755513,
				"element": "H" 
			},
			{
				"x": 2.2848252005,
				"y": 3.0354810891,
				"z": -0.6648956033,
				"element": "H" 
			},
			{
				"x": 0.0369786428,
				"y": 2.0107628003,
				"z": -0.4026981116,
				"element": "H" 
			}
		],
		 "valence_orbital": [ 
			{
				"type": "occ",
				"energy": -0.28858,
				"method": "rhf"
			},
			{
				"type": "occ",
				"energy": -0.27414,
				"method": "rhf"
			},
			{
				"type": "occ",
				"energy": -0.27381,
				"method": "rhf"
			},
			{
				"type": "occ",
				"energy": -0.25006,
				"method": "rhf"
			},
			{
				"type": "occ",
				"energy": -0.2154,
				"method": "rhf"
			},
			{
				"type": "unocc",
				"energy": -0.0402,
				"method": "rhf"
			},
			{
				"type": "unocc",
				"energy": -0.02017,
				"method": "rhf"
			},
			{
				"type": "unocc",
				"energy": 0.0448,
				"method": "rhf"
			},
			{
				"type": "unocc",
				"energy": 0.0513,
				"method": "rhf"
			},
			{
				"type": "unocc",
				"energy": 0.07411,
				"method": "rhf"
			}
		],
		"cosmo_sigma_profile": { 
			"-0.025": 0.0,
			"-0.024": 0.0,
			"-0.023": 0.0,
			"-0.022": 0.0,
			"-0.021": 0.0,
			"-0.02": 0.0,
			"-0.019": 0.0,
			"-0.018": 0.0,
			"-0.017": 0.807815634951,
			"-0.016": 1.61240493246,
			"-0.015": 1.34157368142,
			"-0.014": 2.10883165992,
			"-0.013": 1.07251801008,
			"-0.012": 1.35595899473,
			"-0.011": 1.33857282036,
			"-0.01": 1.45305672533,
			"-0.009": 2.92638267073,
			"-0.008": 4.35853937976,
			"-0.007": 6.03120370437,
			"-0.006": 10.3906188755,
			"-0.005": 9.7842183075,
			"-0.004": 8.97505349537,
			"-0.003": 8.83608410815,
			"-0.002": 8.39310050798,
			"-0.001": 8.01734012387,
			"0.0": 9.90985272416,
			"0.001": 14.6091857172,
			"0.002": 20.9669489276,
			"0.003": 12.5512957611,
			"0.004": 7.97096919708,
			"0.005": 7.91194167177,
			"0.006": 4.69576717135,
			"0.007": 3.38821891304,
			"0.008": 2.92315324788,
			"0.009": 2.74403237757,
			"0.01": 2.18920991466,
			"0.011": 2.83639939186,
			"0.012": 2.04192037941,
			"0.013": 1.75397420982,
			"0.014": 2.30380671807,
			"0.015": 1.67036673974,
			"0.016": 1.22012305782,
			"0.017": 0.34981574937,
			"0.018": 0.0,
			"0.019": 0.0,
			"0.02": 0.0,
			"0.021": 0.0,
			"0.022": 0.0,
			"0.023": 0.0,
			"0.024": 0.0,
			"0.025": 0.0
		}
	}
}
