{
	 "smiles": "FC(F)(F)C(Cl)=O", 
	 "Tm": 419.15, 
	 "num_atms": 7, 
	 "gaussian": { 
		 "optdone": 1, 
		 "sigma_profile": "yes", 
		 "theory": "DFT", 
		 "functional": "B3LYP", 
		 "basiset": "6-31G**", 
		 "properties": { 
			 "R2extent": 1853.3109, 
			 "electric_dipole_moment_norm": 0.692790805366, 
			 "electric_quadrupole_moment_norm": 1.61635495174, 
			 "total_energy": -911.133524662, 
			 "HOMO_LUMO_gap": 0.24614, 
			 "cosmo_polarized_energy": -2.26, 
			 "cosmo_cavitation_energy": 15.37, 
			 "cosmo_dispersion_energy": -10.97, 
			 "cosmo_repulsion_energy": 0.9, 
			 "cosmo_total_nonelectrostatic_energy": 5.3, 
			 "SMD_solvation_energy": 4.82 
		},
		"coords": [
			{
				"x": -0.8329328864,
				"y": -2.1687590895,
				"z": 1.7519348242,
				"element": "F" 
			},
			{
				"x": -1.4043877949,
				"y": -0.9588690129,
				"z": 1.8044167432,
				"element": "C" 
			},
			{
				"x": -2.2710110065,
				"y": -0.8392379022,
				"z": 0.7997414524,
				"element": "F" 
			},
			{
				"x": -2.057718519,
				"y": -0.8371555833,
				"z": 2.9669610668,
				"element": "F" 
			},
			{
				"x": -0.3211643974,
				"y": 0.1459103198,
				"z": 1.6854686423,
				"element": "C" 
			},
			{
				"x": 0.8789539543,
				"y": 0.0543315058,
				"z": 2.9947627559,
				"element": "Cl" 
			},
			{
				"x": -0.2976393501,
				"y": 0.9569797624,
				"z": 0.8200145152,
				"element": "O" 
			}
		],
		 "valence_orbital": [ 
			{
				"type": "occ",
				"energy": -0.4465,
				"method": "rhf"
			},
			{
				"type": "occ",
				"energy": -0.43337,
				"method": "rhf"
			},
			{
				"type": "occ",
				"energy": -0.35479,
				"method": "rhf"
			},
			{
				"type": "occ",
				"energy": -0.35223,
				"method": "rhf"
			},
			{
				"type": "occ",
				"energy": -0.33078,
				"method": "rhf"
			},
			{
				"type": "unocc",
				"energy": -0.08464,
				"method": "rhf"
			},
			{
				"type": "unocc",
				"energy": -0.00382,
				"method": "rhf"
			},
			{
				"type": "unocc",
				"energy": 0.12236,
				"method": "rhf"
			},
			{
				"type": "unocc",
				"energy": 0.17661,
				"method": "rhf"
			},
			{
				"type": "unocc",
				"energy": 0.1783,
				"method": "rhf"
			}
		],
		"cosmo_sigma_profile": { 
			"-0.025": 0.0,
			"-0.024": 0.0,
			"-0.023": 0.0,
			"-0.022": 0.0,
			"-0.021": 0.0,
			"-0.02": 0.0,
			"-0.019": 0.0,
			"-0.018": 0.0,
			"-0.017": 0.0,
			"-0.016": 0.0,
			"-0.015": 0.0,
			"-0.014": 0.0,
			"-0.013": 0.0,
			"-0.012": 0.0,
			"-0.011": 0.0,
			"-0.01": 0.195308211338,
			"-0.009": 1.85691107685,
			"-0.008": 1.83265894669,
			"-0.007": 1.92177391645,
			"-0.006": 2.53700522289,
			"-0.005": 3.19586002823,
			"-0.004": 3.73060510789,
			"-0.003": 6.82274577269,
			"-0.002": 8.00969127643,
			"-0.001": 10.6113096266,
			"0.0": 20.2254360404,
			"0.001": 38.3773825617,
			"0.002": 12.0310524834,
			"0.003": 3.1053464492,
			"0.004": 2.74600857561,
			"0.005": 2.78125254057,
			"0.006": 4.57272732325,
			"0.007": 1.96032653416,
			"0.008": 0.0343752756421,
			"0.009": 0.0,
			"0.01": 0.0,
			"0.011": 0.0,
			"0.012": 0.0,
			"0.013": 0.0,
			"0.014": 0.0,
			"0.015": 0.0,
			"0.016": 0.0,
			"0.017": 0.0,
			"0.018": 0.0,
			"0.019": 0.0,
			"0.02": 0.0,
			"0.021": 0.0,
			"0.022": 0.0,
			"0.023": 0.0,
			"0.024": 0.0,
			"0.025": 0.0
		}
	}
}
