{
	 "smiles": "NC1=NC2=C(S1)C=CC(Cl)=C2", 
	 "Tm": 471.15, 
	 "num_atms": 16, 
	 "gaussian": { 
		 "optdone": 1, 
		 "sigma_profile": "yes", 
		 "theory": "DFT", 
		 "functional": "B3LYP", 
		 "basiset": "6-31G**", 
		 "properties": { 
			 "R2extent": 3567.4371, 
			 "electric_dipole_moment_norm": 4.04159608818, 
			 "electric_quadrupole_moment_norm": 11.3374478627, 
			 "total_energy": -1237.65419378, 
			 "HOMO_LUMO_gap": 0.19616, 
			 "cosmo_polarized_energy": -11.16, 
			 "cosmo_cavitation_energy": 23.88, 
			 "cosmo_dispersion_energy": -18.79, 
			 "cosmo_repulsion_energy": 1.46, 
			 "cosmo_total_nonelectrostatic_energy": 6.55, 
			 "SMD_solvation_energy": 1.57 
		},
		"coords": [
			{
				"x": -2.6779313712,
				"y": -0.357494653,
				"z": -1.8749892628,
				"element": "N" 
			},
			{
				"x": -1.4497854013,
				"y": 0.1724564418,
				"z": -1.5908453659,
				"element": "C" 
			},
			{
				"x": -0.3267493164,
				"y": -0.4288190064,
				"z": -1.8304450036,
				"element": "N" 
			},
			{
				"x": 0.7394388358,
				"y": 0.3261697712,
				"z": -1.3703975973,
				"element": "C" 
			},
			{
				"x": 0.4076899994,
				"y": 1.5629218134,
				"z": -0.7628939284,
				"element": "C" 
			},
			{
				"x": -1.3433746707,
				"y": 1.7560458653,
				"z": -0.7625977208,
				"element": "S" 
			},
			{
				"x": 1.3871599096,
				"y": 2.4214875835,
				"z": -0.271476522,
				"element": "C" 
			},
			{
				"x": 2.7255173298,
				"y": 2.0434540992,
				"z": -0.382252301,
				"element": "C" 
			},
			{
				"x": 3.0520920504,
				"y": 0.8202095567,
				"z": -0.9812314757,
				"element": "C" 
			},
			{
				"x": 4.7485997647,
				"y": 0.3667999293,
				"z": -1.1085604099,
				"element": "Cl" 
			},
			{
				"x": 2.0852568304,
				"y": -0.0468067055,
				"z": -1.4783011248,
				"element": "C" 
			},
			{
				"x": -2.6506368602,
				"y": -1.1577216466,
				"z": -2.4922622907,
				"element": "H" 
			},
			{
				"x": -3.4487153061,
				"y": 0.2763055365,
				"z": -2.0230480023,
				"element": "H" 
			},
			{
				"x": 1.1269670071,
				"y": 3.3675495546,
				"z": 0.191951324,
				"element": "H" 
			},
			{
				"x": 3.5116001278,
				"y": 2.6888482078,
				"z": -0.0081100858,
				"element": "H" 
			},
			{
				"x": 2.3519710709,
				"y": -0.9898063476,
				"z": -1.939840233,
				"element": "H" 
			}
		],
		 "valence_orbital": [ 
			{
				"type": "occ",
				"energy": -0.30497,
				"method": "rhf"
			},
			{
				"type": "occ",
				"energy": -0.29048,
				"method": "rhf"
			},
			{
				"type": "occ",
				"energy": -0.2831,
				"method": "rhf"
			},
			{
				"type": "occ",
				"energy": -0.23478,
				"method": "rhf"
			},
			{
				"type": "occ",
				"energy": -0.21952,
				"method": "rhf"
			},
			{
				"type": "unocc",
				"energy": -0.02336,
				"method": "rhf"
			},
			{
				"type": "unocc",
				"energy": -0.01104,
				"method": "rhf"
			},
			{
				"type": "unocc",
				"energy": -0.00628,
				"method": "rhf"
			},
			{
				"type": "unocc",
				"energy": 0.03698,
				"method": "rhf"
			},
			{
				"type": "unocc",
				"energy": 0.03856,
				"method": "rhf"
			}
		],
		"cosmo_sigma_profile": { 
			"-0.025": 0.0,
			"-0.024": 0.0,
			"-0.023": 0.0,
			"-0.022": 0.0,
			"-0.021": 0.0,
			"-0.02": 0.0,
			"-0.019": 0.0,
			"-0.018": 0.0,
			"-0.017": 0.0,
			"-0.016": 0.0858191133756,
			"-0.015": 1.52485095768,
			"-0.014": 2.58928004299,
			"-0.013": 2.67839712363,
			"-0.012": 2.15763526896,
			"-0.011": 3.22417251721,
			"-0.01": 2.17300697395,
			"-0.009": 1.27782492445,
			"-0.008": 3.31841104178,
			"-0.007": 7.8112663946,
			"-0.006": 6.95693834234,
			"-0.005": 6.22346465462,
			"-0.004": 6.77989495062,
			"-0.003": 6.23683122512,
			"-0.002": 8.77901035453,
			"-0.001": 9.22231697722,
			"0.0": 13.2800369143,
			"0.001": 16.5615534684,
			"0.002": 23.5402023665,
			"0.003": 25.7710290549,
			"0.004": 20.2567948111,
			"0.005": 12.4346167978,
			"0.006": 2.50930765128,
			"0.007": 1.5197234624,
			"0.008": 2.05358313389,
			"0.009": 2.11884754365,
			"0.01": 1.12213316487,
			"0.011": 1.59972246977,
			"0.012": 0.677017033156,
			"0.013": 0.832507477097,
			"0.014": 0.661039365976,
			"0.015": 0.562973065357,
			"0.016": 0.0103043114475,
			"0.017": 0.0,
			"0.018": 0.0,
			"0.019": 0.0,
			"0.02": 0.0,
			"0.021": 0.0,
			"0.022": 0.0,
			"0.023": 0.0,
			"0.024": 0.0,
			"0.025": 0.0
		}
	}
}
