{
	 "smiles": "CC1=C(CSCC(O)=O)C(C)=NO1", 
	 "Tm": 366.15, 
	 "num_atms": 24, 
	 "gaussian": { 
		 "optdone": 1, 
		 "sigma_profile": "yes", 
		 "theory": "DFT", 
		 "functional": "B3LYP", 
		 "basiset": "6-31G**", 
		 "properties": { 
			 "R2extent": 2799.7833, 
			 "electric_dipole_moment_norm": 2.50000896998, 
			 "electric_quadrupole_moment_norm": 9.92511069913, 
			 "total_energy": -990.066247521, 
			 "HOMO_LUMO_gap": 0.22157, 
			 "cosmo_polarized_energy": -15.9, 
			 "cosmo_cavitation_energy": 29.17, 
			 "cosmo_dispersion_energy": -20.26, 
			 "cosmo_repulsion_energy": 1.56, 
			 "cosmo_total_nonelectrostatic_energy": 10.46, 
			 "SMD_solvation_energy": 5.56 
		},
		"coords": [
			{
				"x": -0.2307891654,
				"y": -2.0396572922,
				"z": 0.291896653,
				"element": "C" 
			},
			{
				"x": 0.0628204465,
				"y": -0.7335631402,
				"z": 0.944798617,
				"element": "C" 
			},
			{
				"x": 0.5274335668,
				"y": 0.4717911896,
				"z": 0.490275549,
				"element": "C" 
			},
			{
				"x": 0.9376942535,
				"y": 0.8435939564,
				"z": -0.8952129891,
				"element": "C" 
			},
			{
				"x": -0.1349186004,
				"y": 2.0928466378,
				"z": -1.7491245976,
				"element": "S" 
			},
			{
				"x": -1.7091706272,
				"y": 1.1767953556,
				"z": -1.923170235,
				"element": "C" 
			},
			{
				"x": -2.4837073007,
				"y": 0.8673305904,
				"z": -0.6532314148,
				"element": "C" 
			},
			{
				"x": -2.6648522773,
				"y": 1.9465025939,
				"z": 0.1313023428,
				"element": "O" 
			},
			{
				"x": -2.9373794809,
				"y": -0.2271718382,
				"z": -0.3921471157,
				"element": "O" 
			},
			{
				"x": 0.5214946981,
				"y": 1.3017903665,
				"z": 1.6625913895,
				"element": "C" 
			},
			{
				"x": 0.9229629814,
				"y": 2.7383141453,
				"z": 1.7822303881,
				"element": "C" 
			},
			{
				"x": 0.0944400352,
				"y": 0.6477853779,
				"z": 2.7171920717,
				"element": "N" 
			},
			{
				"x": -0.198414354,
				"y": -0.6491309488,
				"z": 2.2647243816,
				"element": "O" 
			},
			{
				"x": 0.0503388537,
				"y": -2.8669323217,
				"z": 0.9491293855,
				"element": "H" 
			},
			{
				"x": -1.3008052663,
				"y": -2.1173691503,
				"z": 0.0707842847,
				"element": "H" 
			},
			{
				"x": 0.320337337,
				"y": -2.1370183015,
				"z": -0.6467659415,
				"element": "H" 
			},
			{
				"x": 1.012691927,
				"y": -0.0410575589,
				"z": -1.5341167022,
				"element": "H" 
			},
			{
				"x": 1.9193982518,
				"y": 1.3295624077,
				"z": -0.9034970859,
				"element": "H" 
			},
			{
				"x": -1.5586585026,
				"y": 0.2358557779,
				"z": -2.4558095985,
				"element": "H" 
			},
			{
				"x": -2.3301635477,
				"y": 1.8281735159,
				"z": -2.5476910001,
				"element": "H" 
			},
			{
				"x": -3.1582798465,
				"y": 1.6393375678,
				"z": 0.9106999257,
				"element": "H" 
			},
			{
				"x": 1.9562198633,
				"y": 2.8871659023,
				"z": 1.4490541686,
				"element": "H" 
			},
			{
				"x": 0.281158739,
				"y": 3.3685084779,
				"z": 1.1589379793,
				"element": "H" 
			},
			{
				"x": 0.8433480157,
				"y": 3.0617466888,
				"z": 2.8220495439,
				"element": "H" 
			}
		],
		 "valence_orbital": [ 
			{
				"type": "occ",
				"energy": -0.29628,
				"method": "rhf"
			},
			{
				"type": "occ",
				"energy": -0.28697,
				"method": "rhf"
			},
			{
				"type": "occ",
				"energy": -0.27688,
				"method": "rhf"
			},
			{
				"type": "occ",
				"energy": -0.24809,
				"method": "rhf"
			},
			{
				"type": "occ",
				"energy": -0.23554,
				"method": "rhf"
			},
			{
				"type": "unocc",
				"energy": -0.01397,
				"method": "rhf"
			},
			{
				"type": "unocc",
				"energy": -0.00369,
				"method": "rhf"
			},
			{
				"type": "unocc",
				"energy": 0.01913,
				"method": "rhf"
			},
			{
				"type": "unocc",
				"energy": 0.058,
				"method": "rhf"
			},
			{
				"type": "unocc",
				"energy": 0.06433,
				"method": "rhf"
			}
		],
		"cosmo_sigma_profile": { 
			"-0.025": 0.0,
			"-0.024": 0.0,
			"-0.023": 0.0,
			"-0.022": 0.0,
			"-0.021": 0.0,
			"-0.02": 0.0,
			"-0.019": 0.121194896568,
			"-0.018": 0.796209484211,
			"-0.017": 0.851110334752,
			"-0.016": 0.640896151167,
			"-0.015": 0.976490866733,
			"-0.014": 0.688747273594,
			"-0.013": 0.312587525006,
			"-0.012": 0.853492387109,
			"-0.011": 1.04946108299,
			"-0.01": 0.845168742856,
			"-0.009": 2.64882145474,
			"-0.008": 5.13569255236,
			"-0.007": 9.66902791043,
			"-0.006": 13.3832626354,
			"-0.005": 14.5338859144,
			"-0.004": 15.4394567877,
			"-0.003": 17.5665661551,
			"-0.002": 19.8628956561,
			"-0.001": 19.8960223106,
			"0.0": 11.6526434437,
			"0.001": 11.1975855614,
			"0.002": 10.1485893175,
			"0.003": 7.24060369268,
			"0.004": 9.77728953888,
			"0.005": 8.94532703672,
			"0.006": 7.84816089205,
			"0.007": 6.36445834622,
			"0.008": 9.00436993921,
			"0.009": 8.84361498288,
			"0.01": 4.48139008667,
			"0.011": 4.62593029812,
			"0.012": 2.95466159396,
			"0.013": 1.39438276808,
			"0.014": 1.24588309549,
			"0.015": 0.767977291519,
			"0.016": 0.00696544710328,
			"0.017": 0.0,
			"0.018": 0.0,
			"0.019": 0.0,
			"0.02": 0.0,
			"0.021": 0.0,
			"0.022": 0.0,
			"0.023": 0.0,
			"0.024": 0.0,
			"0.025": 0.0
		}
	}
}
