{
	 "smiles": "IC1=CC=C(CC2=CC=CC=C2)C=C1", 
	 "Tm": 312.15, 
	 "num_atms": 25, 
	 "gaussian": { 
		 "optdone": 1, 
		 "sigma_profile": "no", 
		 "theory": "DFT", 
		 "functional": "B3LYP", 
		 "basiset": "6-31G**", 
		 "properties": { 
			 "R2extent": 4092.2059, 
			 "electric_dipole_moment_norm": 2.16503395123, 
			 "electric_quadrupole_moment_norm": 9.67486718048, 
			 "total_energy": -513.406390696, 
			 "HOMO_LUMO_gap": 0.19574, 
			 "cosmo_polarized_energy": -104904.07, 
			 "cosmo_cavitation_energy": 32.13, 
			 "cosmo_dispersion_energy": -24.32, 
			 "cosmo_repulsion_energy": 1.89, 
			 "cosmo_total_nonelectrostatic_energy": 9.71, 
			 "SMD_solvation_energy": 4.25 
		},
		"coords": [
			{
				"x": -3.9661309813,
				"y": -2.5285194106,
				"z": 2.8010484523,
				"element": "I" 
			},
			{
				"x": -2.7323873582,
				"y": -1.4382670334,
				"z": 1.4606637412,
				"element": "C" 
			},
			{
				"x": -1.7357540321,
				"y": -2.1004751728,
				"z": 0.7459691535,
				"element": "C" 
			},
			{
				"x": -0.9298203947,
				"y": -1.3710404571,
				"z": -0.1321439454,
				"element": "C" 
			},
			{
				"x": -1.1028781082,
				"y": 0.0057798517,
				"z": -0.3085939529,
				"element": "C" 
			},
			{
				"x": -0.2397123178,
				"y": 0.7830012819,
				"z": -1.2896674722,
				"element": "C" 
			},
			{
				"x": 0.4123553106,
				"y": 2.0277879118,
				"z": -0.7110635165,
				"element": "C" 
			},
			{
				"x": 0.1601239101,
				"y": 3.2916384016,
				"z": -1.2566762628,
				"element": "C" 
			},
			{
				"x": 0.7709451547,
				"y": 4.4343036594,
				"z": -0.7330863706,
				"element": "C" 
			},
			{
				"x": 1.6453161596,
				"y": 4.326199182,
				"z": 0.3476761615,
				"element": "C" 
			},
			{
				"x": 1.9041270365,
				"y": 3.0693656643,
				"z": 0.9019571001,
				"element": "C" 
			},
			{
				"x": 1.2918421399,
				"y": 1.9324151416,
				"z": 0.3777595686,
				"element": "C" 
			},
			{
				"x": -2.1104878238,
				"y": 0.645661075,
				"z": 0.4267799553,
				"element": "C" 
			},
			{
				"x": -2.9263392829,
				"y": -0.0633973586,
				"z": 1.3069573104,
				"element": "C" 
			},
			{
				"x": -1.5821166816,
				"y": -3.1669201069,
				"z": 0.8675907133,
				"element": "H" 
			},
			{
				"x": -0.1540520018,
				"y": -1.8907140039,
				"z": -0.6891865766,
				"element": "H" 
			},
			{
				"x": 0.534909193,
				"y": 0.1123998847,
				"z": -1.681516218,
				"element": "H" 
			},
			{
				"x": -0.8508804345,
				"y": 1.0741741362,
				"z": -2.1533728815,
				"element": "H" 
			},
			{
				"x": -0.5177617499,
				"y": 3.382804553,
				"z": -2.1021668429,
				"element": "H" 
			},
			{
				"x": 0.5618218309,
				"y": 5.4063186354,
				"z": -1.1710747044,
				"element": "H" 
			},
			{
				"x": 2.1218567275,
				"y": 5.2123582869,
				"z": 0.7568583006,
				"element": "H" 
			},
			{
				"x": 2.5838275017,
				"y": 2.9759283843,
				"z": 1.7443931558,
				"element": "H" 
			},
			{
				"x": 1.4919557816,
				"y": 0.9591214123,
				"z": 0.8187899375,
				"element": "H" 
			},
			{
				"x": -2.2557835841,
				"y": 1.7169437974,
				"z": 0.317240472,
				"element": "H" 
			},
			{
				"x": -3.7004759952,
				"y": 0.4507322837,
				"z": 1.8656647217,
				"element": "H" 
			}
		],
		 "valence_orbital": [ 
			{
				"type": "occ",
				"energy": -0.26556,
				"method": "rhf"
			},
			{
				"type": "occ",
				"energy": -0.2621,
				"method": "rhf"
			},
			{
				"type": "occ",
				"energy": -0.25167,
				"method": "rhf"
			},
			{
				"type": "occ",
				"energy": -0.24668,
				"method": "rhf"
			},
			{
				"type": "occ",
				"energy": -0.23161,
				"method": "rhf"
			},
			{
				"type": "unocc",
				"energy": -0.03587,
				"method": "rhf"
			},
			{
				"type": "unocc",
				"energy": -0.01757,
				"method": "rhf"
			},
			{
				"type": "unocc",
				"energy": -0.01492,
				"method": "rhf"
			},
			{
				"type": "unocc",
				"energy": -0.00577,
				"method": "rhf"
			},
			{
				"type": "unocc",
				"energy": 0.00283,
				"method": "rhf"
			}
		],
		"cosmo_sigma_profile": { 
			"0.0": 0.0,
			"0.0": 0.0,
			"0.0": 0.0,
			"0.0": 0.0,
			"0.0": 0.0,
			"0.0": 0.0,
			"0.0": 0.0,
			"0.0": 0.0,
			"0.0": 0.0,
			"0.0": 0.0,
			"0.0": 0.0,
			"0.0": 0.0,
			"0.0": 0.0,
			"0.0": 0.0,
			"0.0": 0.0,
			"0.0": 0.0,
			"0.0": 0.0,
			"0.0": 0.0,
			"0.0": 0.0,
			"0.0": 0.0,
			"0.0": 0.0,
			"0.0": 0.0,
			"0.0": 0.0,
			"0.0": 0.0,
			"0.0": 0.0,
			"0.0": 0.0,
			"0.0": 0.0,
			"0.0": 0.0,
			"0.0": 0.0,
			"0.0": 0.0,
			"0.0": 0.0,
			"0.0": 0.0,
			"0.0": 0.0,
			"0.0": 0.0,
			"0.0": 0.0,
			"0.0": 0.0,
			"0.0": 0.0,
			"0.0": 0.0,
			"0.0": 0.0,
			"0.0": 0.0,
			"0.0": 0.0,
			"0.0": 0.0,
			"0.0": 0.0,
			"0.0": 0.0,
			"0.0": 0.0,
			"0.0": 0.0,
			"0.0": 0.0,
			"0.0": 0.0,
			"0.0": 0.0,
			"0.0": 0.0,
			"0.0": 0.0
		}
	}
}
