{
	 "smiles": "O=C1C=C(NCC2=CC=NC=C2)C(=O)C2=CC=CC=C12", 
	 "Tm": 439.15, 
	 "num_atms": 32, 
	 "gaussian": { 
		 "optdone": 1, 
		 "sigma_profile": "yes", 
		 "theory": "DFT", 
		 "functional": "B3LYP", 
		 "basiset": "6-31G**", 
		 "properties": { 
			 "R2extent": 6365.812, 
			 "electric_dipole_moment_norm": 2.41249425492, 
			 "electric_quadrupole_moment_norm": 25.0094707893, 
			 "total_energy": -876.873250058, 
			 "HOMO_LUMO_gap": 0.1224, 
			 "cosmo_polarized_energy": -19.0, 
			 "cosmo_cavitation_energy": 36.75, 
			 "cosmo_dispersion_energy": -26.07, 
			 "cosmo_repulsion_energy": 1.97, 
			 "cosmo_total_nonelectrostatic_energy": 12.65, 
			 "SMD_solvation_energy": 5.06 
		},
		"coords": [
			{
				"x": 2.9847020506,
				"y": 1.314000641,
				"z": -3.3950323646,
				"element": "O" 
			},
			{
				"x": 2.2467624465,
				"y": 1.2395627553,
				"z": -2.4110856821,
				"element": "C" 
			},
			{
				"x": 2.7534999251,
				"y": 0.8767943047,
				"z": -1.0984734093,
				"element": "C" 
			},
			{
				"x": 1.9772915337,
				"y": 0.7793523734,
				"z": 0.0252233709,
				"element": "C" 
			},
			{
				"x": 2.5272135772,
				"y": 0.4660783442,
				"z": 1.2392871221,
				"element": "N" 
			},
			{
				"x": 1.8698980408,
				"y": 0.0830318438,
				"z": 2.4856562894,
				"element": "C" 
			},
			{
				"x": 1.1902737332,
				"y": -1.2784268225,
				"z": 2.4809109767,
				"element": "C" 
			},
			{
				"x": 1.6254471048,
				"y": -2.3340921127,
				"z": 1.6759253411,
				"element": "C" 
			},
			{
				"x": 0.9804051212,
				"y": -3.5683261137,
				"z": 1.7689309946,
				"element": "C" 
			},
			{
				"x": -0.0437951372,
				"y": -3.8165013104,
				"z": 2.5937761513,
				"element": "N" 
			},
			{
				"x": -0.4570386371,
				"y": -2.7988363958,
				"z": 3.360400812,
				"element": "C" 
			},
			{
				"x": 0.1159226354,
				"y": -1.5279133692,
				"z": 3.3397985205,
				"element": "C" 
			},
			{
				"x": 0.5011474891,
				"y": 1.0825352692,
				"z": -0.0620072033,
				"element": "C" 
			},
			{
				"x": -0.2126268421,
				"y": 1.0557129383,
				"z": 0.9346569957,
				"element": "O" 
			},
			{
				"x": -0.0510283446,
				"y": 1.4259931245,
				"z": -1.398828159,
				"element": "C" 
			},
			{
				"x": -1.4234798937,
				"y": 1.6785156978,
				"z": -1.5189125832,
				"element": "C" 
			},
			{
				"x": -1.9632358253,
				"y": 2.0095672486,
				"z": -2.7597760497,
				"element": "C" 
			},
			{
				"x": -1.1354983723,
				"y": 2.0920437584,
				"z": -3.8848395766,
				"element": "C" 
			},
			{
				"x": 0.2321387173,
				"y": 1.8431676532,
				"z": -3.7699840042,
				"element": "C" 
			},
			{
				"x": 0.7790988155,
				"y": 1.5093288313,
				"z": -2.5301663153,
				"element": "C" 
			},
			{
				"x": 3.8212004901,
				"y": 0.6758494325,
				"z": -1.0520367109,
				"element": "H" 
			},
			{
				"x": 3.5190959211,
				"y": 0.2809887285,
				"z": 1.2010461951,
				"element": "H" 
			},
			{
				"x": 2.6602209573,
				"y": 0.0770533008,
				"z": 3.2460671107,
				"element": "H" 
			},
			{
				"x": 1.1464125398,
				"y": 0.8442637385,
				"z": 2.7747196961,
				"element": "H" 
			},
			{
				"x": 2.4463632186,
				"y": -2.2031343295,
				"z": 0.977703924,
				"element": "H" 
			},
			{
				"x": 1.3066341123,
				"y": -4.4000044664,
				"z": 1.1463272548,
				"element": "H" 
			},
			{
				"x": -1.2961920298,
				"y": -3.0073920464,
				"z": 4.0220843605,
				"element": "H" 
			},
			{
				"x": -0.2788809917,
				"y": -0.7418402534,
				"z": 3.9774683678,
				"element": "H" 
			},
			{
				"x": -2.0440973948,
				"y": 1.6097873037,
				"z": -0.6319689429,
				"element": "H" 
			},
			{
				"x": -3.0276452199,
				"y": 2.203763835,
				"z": -2.852341828,
				"element": "H" 
			},
			{
				"x": -1.55904513,
				"y": 2.3507291432,
				"z": -4.8510377892,
				"element": "H" 
			},
			{
				"x": 0.8981353889,
				"y": 1.899946954,
				"z": -4.6244928648,
				"element": "H" 
			}
		],
		 "valence_orbital": [ 
			{
				"type": "occ",
				"energy": -0.26483,
				"method": "rhf"
			},
			{
				"type": "occ",
				"energy": -0.26355,
				"method": "rhf"
			},
			{
				"type": "occ",
				"energy": -0.25477,
				"method": "rhf"
			},
			{
				"type": "occ",
				"energy": -0.24871,
				"method": "rhf"
			},
			{
				"type": "occ",
				"energy": -0.22804,
				"method": "rhf"
			},
			{
				"type": "unocc",
				"energy": -0.10564,
				"method": "rhf"
			},
			{
				"type": "unocc",
				"energy": -0.03548,
				"method": "rhf"
			},
			{
				"type": "unocc",
				"energy": -0.02597,
				"method": "rhf"
			},
			{
				"type": "unocc",
				"energy": -0.01496,
				"method": "rhf"
			},
			{
				"type": "unocc",
				"energy": -0.00928,
				"method": "rhf"
			}
		],
		"cosmo_sigma_profile": { 
			"-0.025": 0.0,
			"-0.024": 0.0,
			"-0.023": 0.0,
			"-0.022": 0.0,
			"-0.021": 0.0,
			"-0.02": 0.0,
			"-0.019": 0.0,
			"-0.018": 0.0,
			"-0.017": 0.0,
			"-0.016": 0.0,
			"-0.015": 1.09829491108,
			"-0.014": 1.49395928786,
			"-0.013": 1.60775808115,
			"-0.012": 1.50516960916,
			"-0.011": 0.947686848473,
			"-0.01": 2.40916246457,
			"-0.009": 1.93920069724,
			"-0.008": 2.71101236436,
			"-0.007": 9.84458907425,
			"-0.006": 19.8424344446,
			"-0.005": 22.8459590332,
			"-0.004": 20.3182995764,
			"-0.003": 18.7065100605,
			"-0.002": 17.5157442632,
			"-0.001": 18.5848219978,
			"0.0": 18.1020276215,
			"0.001": 23.0191297871,
			"0.002": 30.0749062902,
			"0.003": 26.0795395075,
			"0.004": 8.738041926,
			"0.005": 6.53926954367,
			"0.006": 4.60004120913,
			"0.007": 5.66544504413,
			"0.008": 4.97623393802,
			"0.009": 3.78348375252,
			"0.01": 4.38193462289,
			"0.011": 3.87970874329,
			"0.012": 4.15463310762,
			"0.013": 5.11351124294,
			"0.014": 2.55622914273,
			"0.015": 0.856538595145,
			"0.016": 0.948110797028,
			"0.017": 0.45274193506,
			"0.018": 0.00231515460645,
			"0.019": 0.0,
			"0.02": 0.0,
			"0.021": 0.0,
			"0.022": 0.0,
			"0.023": 0.0,
			"0.024": 0.0,
			"0.025": 0.0
		}
	}
}
