{
	 "smiles": "CC(N1C(N)=NC2=C1C=CC=C2)C1=CC=CC=C1", 
	 "Tm": 398.15, 
	 "num_atms": 33, 
	 "gaussian": { 
		 "optdone": 1, 
		 "sigma_profile": "yes", 
		 "theory": "DFT", 
		 "functional": "B3LYP", 
		 "basiset": "6-31G**", 
		 "properties": { 
			 "R2extent": 4612.5027, 
			 "electric_dipole_moment_norm": 3.87798904717, 
			 "electric_quadrupole_moment_norm": 11.5528863177, 
			 "total_energy": -744.910681679, 
			 "HOMO_LUMO_gap": 0.19026, 
			 "cosmo_polarized_energy": -15.23, 
			 "cosmo_cavitation_energy": 35.42, 
			 "cosmo_dispersion_energy": -25.07, 
			 "cosmo_repulsion_energy": 1.92, 
			 "cosmo_total_nonelectrostatic_energy": 12.28, 
			 "SMD_solvation_energy": 3.72 
		},
		"coords": [
			{
				"x": 0.197078289,
				"y": 0.630672252,
				"z": 2.5723195722,
				"element": "C" 
			},
			{
				"x": 0.3005684938,
				"y": -0.2385998035,
				"z": 1.3081947492,
				"element": "C" 
			},
			{
				"x": 1.3461124631,
				"y": 0.2078709234,
				"z": 0.3705587043,
				"element": "N" 
			},
			{
				"x": 1.7288222802,
				"y": 1.4753833912,
				"z": -0.0492157394,
				"element": "C" 
			},
			{
				"x": 1.1716724225,
				"y": 2.6444638642,
				"z": 0.4638605236,
				"element": "N" 
			},
			{
				"x": 2.6062641914,
				"y": 1.4775447137,
				"z": -1.0236408876,
				"element": "N" 
			},
			{
				"x": 2.8253808495,
				"y": 0.1377837656,
				"z": -1.3097210284,
				"element": "C" 
			},
			{
				"x": 2.050049445,
				"y": -0.6775858567,
				"z": -0.4538942127,
				"element": "C" 
			},
			{
				"x": 2.0820491006,
				"y": -2.0693687711,
				"z": -0.5215741654,
				"element": "C" 
			},
			{
				"x": 2.9284404897,
				"y": -2.6386492339,
				"z": -1.4756977133,
				"element": "C" 
			},
			{
				"x": 3.710949872,
				"y": -1.8410365884,
				"z": -2.3281605315,
				"element": "C" 
			},
			{
				"x": 3.6691025914,
				"y": -0.4492813662,
				"z": -2.2571061312,
				"element": "C" 
			},
			{
				"x": -1.0574632008,
				"y": -0.424382266,
				"z": 0.6360688785,
				"element": "C" 
			},
			{
				"x": -1.6542332286,
				"y": 0.6101578837,
				"z": -0.0983593885,
				"element": "C" 
			},
			{
				"x": -2.9104642123,
				"y": 0.4285586104,
				"z": -0.6761726216,
				"element": "C" 
			},
			{
				"x": -3.5894227514,
				"y": -0.7832295637,
				"z": -0.5252041702,
				"element": "C" 
			},
			{
				"x": -3.0034057164,
				"y": -1.8158350548,
				"z": 0.2066087044,
				"element": "C" 
			},
			{
				"x": -1.7433571281,
				"y": -1.6351832246,
				"z": 0.7808880746,
				"element": "C" 
			},
			{
				"x": 1.1840966588,
				"y": 0.8047083629,
				"z": 3.0143798763,
				"element": "H" 
			},
			{
				"x": -0.2927468636,
				"y": 1.5855493415,
				"z": 2.3698106979,
				"element": "H" 
			},
			{
				"x": -0.4164357315,
				"y": 0.1065124963,
				"z": 3.3099477904,
				"element": "H" 
			},
			{
				"x": 0.6412948037,
				"y": -1.2249575053,
				"z": 1.6393796814,
				"element": "H" 
			},
			{
				"x": 1.2050118501,
				"y": 2.7200902268,
				"z": 1.4730776135,
				"element": "H" 
			},
			{
				"x": 1.6327506747,
				"y": 3.4366791125,
				"z": 0.0299531943,
				"element": "H" 
			},
			{
				"x": 1.4702285851,
				"y": -2.6955585695,
				"z": 0.1200521967,
				"element": "H" 
			},
			{
				"x": 2.9764916303,
				"y": -3.7201391107,
				"z": -1.5622896051,
				"element": "H" 
			},
			{
				"x": 4.3570112823,
				"y": -2.320635323,
				"z": -3.0578223798,
				"element": "H" 
			},
			{
				"x": 4.2685615461,
				"y": 0.1733321061,
				"z": -2.9135900438,
				"element": "H" 
			},
			{
				"x": -1.1321859024,
				"y": 1.5551132876,
				"z": -0.219024758,
				"element": "H" 
			},
			{
				"x": -3.3603260943,
				"y": 1.2356473243,
				"z": -1.2475483812,
				"element": "H" 
			},
			{
				"x": -4.5668566352,
				"y": -0.9215343065,
				"z": -0.9783324439,
				"element": "H" 
			},
			{
				"x": -3.5204635671,
				"y": -2.7637775781,
				"z": 0.3254245975,
				"element": "H" 
			},
			{
				"x": -1.2887764876,
				"y": -2.4463135403,
				"z": 1.3457293469,
				"element": "H" 
			}
		],
		 "valence_orbital": [ 
			{
				"type": "occ",
				"energy": -0.26307,
				"method": "rhf"
			},
			{
				"type": "occ",
				"energy": -0.25259,
				"method": "rhf"
			},
			{
				"type": "occ",
				"energy": -0.24829,
				"method": "rhf"
			},
			{
				"type": "occ",
				"energy": -0.21314,
				"method": "rhf"
			},
			{
				"type": "occ",
				"energy": -0.19861,
				"method": "rhf"
			},
			{
				"type": "unocc",
				"energy": -0.00835,
				"method": "rhf"
			},
			{
				"type": "unocc",
				"energy": -0.00419,
				"method": "rhf"
			},
			{
				"type": "unocc",
				"energy": 0.00437,
				"method": "rhf"
			},
			{
				"type": "unocc",
				"energy": 0.03149,
				"method": "rhf"
			},
			{
				"type": "unocc",
				"energy": 0.06595,
				"method": "rhf"
			}
		],
		"cosmo_sigma_profile": { 
			"-0.025": 0.0,
			"-0.024": 0.0,
			"-0.023": 0.0,
			"-0.022": 0.0,
			"-0.021": 0.0,
			"-0.02": 0.0,
			"-0.019": 0.0,
			"-0.018": 0.0,
			"-0.017": 0.0,
			"-0.016": 0.0,
			"-0.015": 0.0,
			"-0.014": 0.0186174284919,
			"-0.013": 1.11466632165,
			"-0.012": 2.48828148576,
			"-0.011": 2.64270651645,
			"-0.01": 3.04651800074,
			"-0.009": 2.34624893177,
			"-0.008": 2.58593942909,
			"-0.007": 5.21663477874,
			"-0.006": 11.4843782008,
			"-0.005": 21.1104105203,
			"-0.004": 24.1358204072,
			"-0.003": 24.319153686,
			"-0.002": 19.4785092868,
			"-0.001": 19.9624761836,
			"0.0": 16.760676121,
			"0.001": 15.1362417708,
			"0.002": 16.3852034516,
			"0.003": 16.8890054018,
			"0.004": 19.2311727558,
			"0.005": 19.303078889,
			"0.006": 18.0272332615,
			"0.007": 8.10300037966,
			"0.008": 2.30232894706,
			"0.009": 1.68143919207,
			"0.01": 1.03875989091,
			"0.011": 1.48487324109,
			"0.012": 1.35843217693,
			"0.013": 0.266733346299,
			"0.014": 0.967104119852,
			"0.015": 1.3925898129,
			"0.016": 0.601567419762,
			"0.017": 0.999683346626,
			"0.018": 0.332658392856,
			"0.019": 0.0,
			"0.02": 0.0,
			"0.021": 0.0,
			"0.022": 0.0,
			"0.023": 0.0,
			"0.024": 0.0,
			"0.025": 0.0
		}
	}
}
