{
	 "smiles": "CCOC(=O)C1=C(N(C)N=C1)C1=CC=CC=C1", 
	 "Tm": 333.15, 
	 "num_atms": 31, 
	 "gaussian": { 
		 "optdone": 1, 
		 "sigma_profile": "yes", 
		 "theory": "DFT", 
		 "functional": "B3LYP", 
		 "basiset": "6-31G**", 
		 "properties": { 
			 "R2extent": 4889.8178, 
			 "electric_dipole_moment_norm": 1.42409717716, 
			 "electric_quadrupole_moment_norm": 13.5622669915, 
			 "total_energy": -763.775078132, 
			 "HOMO_LUMO_gap": 0.19673, 
			 "cosmo_polarized_energy": -11.92, 
			 "cosmo_cavitation_energy": 35.02, 
			 "cosmo_dispersion_energy": -24.82, 
			 "cosmo_repulsion_energy": 1.95, 
			 "cosmo_total_nonelectrostatic_energy": 12.14, 
			 "SMD_solvation_energy": 6.04 
		},
		"coords": [
			{
				"x": 2.461781923,
				"y": 4.2836417286,
				"z": -2.7826835952,
				"element": "C" 
			},
			{
				"x": 1.4676685269,
				"y": 3.664622552,
				"z": -1.8178448248,
				"element": "C" 
			},
			{
				"x": 1.7003081162,
				"y": 2.2409260665,
				"z": -1.8109387618,
				"element": "O" 
			},
			{
				"x": 0.884402925,
				"y": 1.5151654106,
				"z": -1.0027468618,
				"element": "C" 
			},
			{
				"x": 0.0152167714,
				"y": 2.022576202,
				"z": -0.3166012445,
				"element": "O" 
			},
			{
				"x": 1.2020525483,
				"y": 0.0861019563,
				"z": -1.0927179392,
				"element": "C" 
			},
			{
				"x": 0.6807814361,
				"y": -0.9720511331,
				"z": -0.3305786987,
				"element": "C" 
			},
			{
				"x": 1.318242067,
				"y": -2.0908033234,
				"z": -0.7845260525,
				"element": "N" 
			},
			{
				"x": 1.1257036811,
				"y": -3.4797187322,
				"z": -0.3967752672,
				"element": "C" 
			},
			{
				"x": 2.2112515496,
				"y": -1.830728024,
				"z": -1.7758963479,
				"element": "N" 
			},
			{
				"x": 2.1461435098,
				"y": -0.5205873017,
				"z": -1.9555703014,
				"element": "C" 
			},
			{
				"x": -0.3103626451,
				"y": -1.0054495553,
				"z": 0.7627317657,
				"element": "C" 
			},
			{
				"x": -1.5604763762,
				"y": -0.3835070667,
				"z": 0.6138512463,
				"element": "C" 
			},
			{
				"x": -2.4990688931,
				"y": -0.4334207866,
				"z": 1.6420417695,
				"element": "C" 
			},
			{
				"x": -2.2054403797,
				"y": -1.0969030092,
				"z": 2.8355376722,
				"element": "C" 
			},
			{
				"x": -0.961310159,
				"y": -1.7074224633,
				"z": 2.9994338449,
				"element": "C" 
			},
			{
				"x": -0.0202400993,
				"y": -1.6617084278,
				"z": 1.9713131688,
				"element": "C" 
			},
			{
				"x": 2.320242795,
				"y": 5.368430254,
				"z": -2.8179014244,
				"element": "H" 
			},
			{
				"x": 2.3262826543,
				"y": 3.8861601434,
				"z": -3.7927991213,
				"element": "H" 
			},
			{
				"x": 3.4897602446,
				"y": 4.0808744946,
				"z": -2.4685027082,
				"element": "H" 
			},
			{
				"x": 1.5889694633,
				"y": 4.0502928079,
				"z": -0.8003943055,
				"element": "H" 
			},
			{
				"x": 0.4317503417,
				"y": 3.8556333181,
				"z": -2.1168334595,
				"element": "H" 
			},
			{
				"x": 1.875608528,
				"y": -3.7928308333,
				"z": 0.3365880477,
				"element": "H" 
			},
			{
				"x": 0.1308510375,
				"y": -3.6087581014,
				"z": 0.0289299032,
				"element": "H" 
			},
			{
				"x": 1.2318991993,
				"y": -4.0918662915,
				"z": -1.2928267269,
				"element": "H" 
			},
			{
				"x": 2.766560567,
				"y": -0.0372743334,
				"z": -2.6965853761,
				"element": "H" 
			},
			{
				"x": -1.7835096638,
				"y": 0.1483561155,
				"z": -0.3028000651,
				"element": "H" 
			},
			{
				"x": -3.4622833555,
				"y": 0.0508965426,
				"z": 1.5114210529,
				"element": "H" 
			},
			{
				"x": -2.9392512103,
				"y": -1.1312274071,
				"z": 3.6356344848,
				"element": "H" 
			},
			{
				"x": -0.7182099797,
				"y": -2.2128053713,
				"z": 3.9296047815,
				"element": "H" 
			},
			{
				"x": 0.9552748765,
				"y": -2.1165154308,
				"z": 2.1154353445,
				"element": "H" 
			}
		],
		 "valence_orbital": [ 
			{
				"type": "occ",
				"energy": -0.27294,
				"method": "rhf"
			},
			{
				"type": "occ",
				"energy": -0.26351,
				"method": "rhf"
			},
			{
				"type": "occ",
				"energy": -0.25251,
				"method": "rhf"
			},
			{
				"type": "occ",
				"energy": -0.25104,
				"method": "rhf"
			},
			{
				"type": "occ",
				"energy": -0.23125,
				"method": "rhf"
			},
			{
				"type": "unocc",
				"energy": -0.03452,
				"method": "rhf"
			},
			{
				"type": "unocc",
				"energy": -0.0047,
				"method": "rhf"
			},
			{
				"type": "unocc",
				"energy": 0.00512,
				"method": "rhf"
			},
			{
				"type": "unocc",
				"energy": 0.02819,
				"method": "rhf"
			},
			{
				"type": "unocc",
				"energy": 0.08495,
				"method": "rhf"
			}
		],
		"cosmo_sigma_profile": { 
			"-0.025": 0.0,
			"-0.024": 0.0,
			"-0.023": 0.0,
			"-0.022": 0.0,
			"-0.021": 0.0,
			"-0.02": 0.0,
			"-0.019": 0.0,
			"-0.018": 0.0,
			"-0.017": 0.0,
			"-0.016": 0.0,
			"-0.015": 0.0,
			"-0.014": 0.0,
			"-0.013": 0.0,
			"-0.012": 0.0,
			"-0.011": 0.0,
			"-0.01": 0.0,
			"-0.009": 0.0,
			"-0.008": 0.238964769498,
			"-0.007": 4.71153936695,
			"-0.006": 15.0958920265,
			"-0.005": 21.868588761,
			"-0.004": 30.2721257347,
			"-0.003": 28.7399015265,
			"-0.002": 25.3070221907,
			"-0.001": 21.8546942744,
			"0.0": 21.1132143501,
			"0.001": 19.1925670645,
			"0.002": 15.9567174606,
			"0.003": 17.0002947566,
			"0.004": 13.1013414011,
			"0.005": 11.9322027192,
			"0.006": 6.33069030943,
			"0.007": 4.13975297174,
			"0.008": 3.76224997125,
			"0.009": 2.44448500068,
			"0.01": 2.96474475091,
			"0.011": 3.97369686117,
			"0.012": 4.3879154596,
			"0.013": 2.43311450874,
			"0.014": 1.18163582175,
			"0.015": 0.616612299444,
			"0.016": 0.0,
			"0.017": 0.0,
			"0.018": 0.0,
			"0.019": 0.0,
			"0.02": 0.0,
			"0.021": 0.0,
			"0.022": 0.0,
			"0.023": 0.0,
			"0.024": 0.0,
			"0.025": 0.0
		}
	}
}
