{
	 "smiles": "OC(=O)C1=NOC(=N1)C1=C(F)C=CC=C1", 
	 "Tm": 463.15, 
	 "num_atms": 20, 
	 "gaussian": { 
		 "optdone": 1, 
		 "sigma_profile": "yes", 
		 "theory": "DFT", 
		 "functional": "B3LYP", 
		 "basiset": "6-31G**", 
		 "properties": { 
			 "R2extent": 4088.7664, 
			 "electric_dipole_moment_norm": 8.12554473805, 
			 "electric_quadrupole_moment_norm": 13.9067322395, 
			 "total_energy": -780.941088471, 
			 "HOMO_LUMO_gap": 0.18547, 
			 "cosmo_polarized_energy": -14.51, 
			 "cosmo_cavitation_energy": 26.86, 
			 "cosmo_dispersion_energy": -19.86, 
			 "cosmo_repulsion_energy": 1.52, 
			 "cosmo_total_nonelectrostatic_energy": 8.52, 
			 "SMD_solvation_energy": 5.19 
		},
		"coords": [
			{
				"x": -2.9524537795,
				"y": 2.6552337787,
				"z": 1.4610214402,
				"element": "O" 
			},
			{
				"x": -2.7910671558,
				"y": 3.0419428627,
				"z": 0.1806292948,
				"element": "C" 
			},
			{
				"x": -3.3383562593,
				"y": 4.0013605389,
				"z": -0.2956571265,
				"element": "O" 
			},
			{
				"x": -1.8553480207,
				"y": 2.1428621492,
				"z": -0.5779555849,
				"element": "C" 
			},
			{
				"x": -1.5425623736,
				"y": 2.3164363011,
				"z": -1.8380592751,
				"element": "N" 
			},
			{
				"x": -0.66648972,
				"y": 1.2576379455,
				"z": -2.0872492898,
				"element": "O" 
			},
			{
				"x": -0.5433916817,
				"y": 0.553476714,
				"z": -0.943603492,
				"element": "C" 
			},
			{
				"x": -1.2631283905,
				"y": 1.0629862387,
				"z": 0.0262182353,
				"element": "N" 
			},
			{
				"x": 0.3109920964,
				"y": -0.6255059481,
				"z": -0.8761885667,
				"element": "C" 
			},
			{
				"x": 1.0512198708,
				"y": -1.1058381933,
				"z": -1.9676026627,
				"element": "C" 
			},
			{
				"x": 0.9914851467,
				"y": -0.4706824241,
				"z": -3.1468639088,
				"element": "F" 
			},
			{
				"x": 1.8560807111,
				"y": -2.234229046,
				"z": -1.8663887004,
				"element": "C" 
			},
			{
				"x": 1.9318652784,
				"y": -2.9086747858,
				"z": -0.6495381563,
				"element": "C" 
			},
			{
				"x": 1.205492547,
				"y": -2.4539338339,
				"z": 0.4566337922,
				"element": "C" 
			},
			{
				"x": 0.4047099459,
				"y": -1.3249915893,
				"z": 0.3426277148,
				"element": "C" 
			},
			{
				"x": -2.4137736348,
				"y": 1.8585165937,
				"z": 1.6167086168,
				"element": "H" 
			},
			{
				"x": 2.406590304,
				"y": -2.5617710184,
				"z": -2.7411533172,
				"element": "H" 
			},
			{
				"x": 2.5592112672,
				"y": -3.790610358,
				"z": -0.5654778704,
				"element": "H" 
			},
			{
				"x": 1.2656139238,
				"y": -2.9802441151,
				"z": 1.403341465,
				"element": "H" 
			},
			{
				"x": -0.1648900756,
				"y": -0.9585718105,
				"z": 1.1892573916,
				"element": "H" 
			}
		],
		 "valence_orbital": [ 
			{
				"type": "occ",
				"energy": -0.33042,
				"method": "rhf"
			},
			{
				"type": "occ",
				"energy": -0.32175,
				"method": "rhf"
			},
			{
				"type": "occ",
				"energy": -0.28681,
				"method": "rhf"
			},
			{
				"type": "occ",
				"energy": -0.28325,
				"method": "rhf"
			},
			{
				"type": "occ",
				"energy": -0.27233,
				"method": "rhf"
			},
			{
				"type": "unocc",
				"energy": -0.08686,
				"method": "rhf"
			},
			{
				"type": "unocc",
				"energy": -0.05659,
				"method": "rhf"
			},
			{
				"type": "unocc",
				"energy": -0.0314,
				"method": "rhf"
			},
			{
				"type": "unocc",
				"energy": 0.01982,
				"method": "rhf"
			},
			{
				"type": "unocc",
				"energy": 0.06126,
				"method": "rhf"
			}
		],
		"cosmo_sigma_profile": { 
			"-0.025": 0.0,
			"-0.024": 0.0,
			"-0.023": 0.0,
			"-0.022": 0.0,
			"-0.021": 0.0,
			"-0.02": 0.0,
			"-0.019": 0.0,
			"-0.018": 0.0,
			"-0.017": 0.0,
			"-0.016": 0.0876424018717,
			"-0.015": 0.635599135312,
			"-0.014": 0.59530998612,
			"-0.013": 0.452211533642,
			"-0.012": 0.891186078526,
			"-0.011": 1.00229118142,
			"-0.01": 0.852175187903,
			"-0.009": 1.41966347362,
			"-0.008": 4.94803348116,
			"-0.007": 11.8076036174,
			"-0.006": 15.0436467834,
			"-0.005": 14.5631706014,
			"-0.004": 11.2736430242,
			"-0.003": 11.9812102211,
			"-0.002": 12.3701351528,
			"-0.001": 16.2278176885,
			"0.0": 15.5503145138,
			"0.001": 15.8406960059,
			"0.002": 16.5210497522,
			"0.003": 12.8766249354,
			"0.004": 9.24210005738,
			"0.005": 7.44866890197,
			"0.006": 5.4146206485,
			"0.007": 4.76141162491,
			"0.008": 6.18297779778,
			"0.009": 6.89127079308,
			"0.01": 7.42254485502,
			"0.011": 4.93749103186,
			"0.012": 0.695111048816,
			"0.013": 0.0,
			"0.014": 0.0,
			"0.015": 0.0,
			"0.016": 0.0,
			"0.017": 0.0,
			"0.018": 0.0,
			"0.019": 0.0,
			"0.02": 0.0,
			"0.021": 0.0,
			"0.022": 0.0,
			"0.023": 0.0,
			"0.024": 0.0,
			"0.025": 0.0
		}
	}
}
