{
	 "smiles": "NC1=C(C=CC(F)=C1F)C#N", 
	 "Tm": 366.15, 
	 "num_atms": 15, 
	 "gaussian": { 
		 "optdone": 1, 
		 "sigma_profile": "yes", 
		 "theory": "DFT", 
		 "functional": "B3LYP", 
		 "basiset": "6-31G**", 
		 "properties": { 
			 "R2extent": 2094.1227, 
			 "electric_dipole_moment_norm": 1.99502577928, 
			 "electric_quadrupole_moment_norm": 18.7851081397, 
			 "total_energy": -578.307724886, 
			 "HOMO_LUMO_gap": 0.18469, 
			 "cosmo_polarized_energy": -10.05, 
			 "cosmo_cavitation_energy": 21.55, 
			 "cosmo_dispersion_energy": -15.27, 
			 "cosmo_repulsion_energy": 1.18, 
			 "cosmo_total_nonelectrostatic_energy": 7.47, 
			 "SMD_solvation_energy": 5.91 
		},
		"coords": [
			{
				"x": 0.0763011102,
				"y": 2.4046943599,
				"z": -0.8626213244,
				"element": "N" 
			},
			{
				"x": -0.4474328775,
				"y": 1.4249014924,
				"z": -0.0638115492,
				"element": "C" 
			},
			{
				"x": 0.2935841711,
				"y": 0.2898801498,
				"z": 0.3601674178,
				"element": "C" 
			},
			{
				"x": -0.3133522204,
				"y": -0.7118833181,
				"z": 1.1392133271,
				"element": "C" 
			},
			{
				"x": -1.6450079698,
				"y": -0.6165773761,
				"z": 1.5169176166,
				"element": "C" 
			},
			{
				"x": -2.3714302743,
				"y": 0.502881223,
				"z": 1.1080440463,
				"element": "C" 
			},
			{
				"x": -3.6577954626,
				"y": 0.6377735136,
				"z": 1.4586217835,
				"element": "F" 
			},
			{
				"x": -1.7899611327,
				"y": 1.4970742387,
				"z": 0.338446357,
				"element": "C" 
			},
			{
				"x": -2.5104619388,
				"y": 2.5762196475,
				"z": -0.0382627992,
				"element": "F" 
			},
			{
				"x": 1.6671437467,
				"y": 0.2027095213,
				"z": -0.0168180974,
				"element": "C" 
			},
			{
				"x": 2.7848206759,
				"y": 0.1878655228,
				"z": -0.3454105927,
				"element": "N" 
			},
			{
				"x": -0.4336366599,
				"y": 3.2711591096,
				"z": -0.9299796426,
				"element": "H" 
			},
			{
				"x": 1.0791089429,
				"y": 2.4561558988,
				"z": -0.9621117587,
				"element": "H" 
			},
			{
				"x": 0.2804147657,
				"y": -1.5658567524,
				"z": 1.4452028127,
				"element": "H" 
			},
			{
				"x": -2.1311948763,
				"y": -1.3762972306,
				"z": 2.1166024031,
				"element": "H" 
			}
		],
		 "valence_orbital": [ 
			{
				"type": "occ",
				"energy": -0.35405,
				"method": "rhf"
			},
			{
				"type": "occ",
				"energy": -0.33988,
				"method": "rhf"
			},
			{
				"type": "occ",
				"energy": -0.33471,
				"method": "rhf"
			},
			{
				"type": "occ",
				"energy": -0.2609,
				"method": "rhf"
			},
			{
				"type": "occ",
				"energy": -0.23224,
				"method": "rhf"
			},
			{
				"type": "unocc",
				"energy": -0.04755,
				"method": "rhf"
			},
			{
				"type": "unocc",
				"energy": -0.01466,
				"method": "rhf"
			},
			{
				"type": "unocc",
				"energy": 0.02037,
				"method": "rhf"
			},
			{
				"type": "unocc",
				"energy": 0.0566,
				"method": "rhf"
			},
			{
				"type": "unocc",
				"energy": 0.07799,
				"method": "rhf"
			}
		],
		"cosmo_sigma_profile": { 
			"-0.025": 0.0,
			"-0.024": 0.0,
			"-0.023": 0.0,
			"-0.022": 0.0,
			"-0.021": 0.0,
			"-0.02": 0.0,
			"-0.019": 0.0,
			"-0.018": 0.0,
			"-0.017": 0.0,
			"-0.016": 0.0,
			"-0.015": 0.052735341518,
			"-0.014": 0.869668968561,
			"-0.013": 2.00366808259,
			"-0.012": 1.98603967957,
			"-0.011": 1.94945442986,
			"-0.01": 2.02418959364,
			"-0.009": 3.09242923938,
			"-0.008": 5.55827147745,
			"-0.007": 6.04114207648,
			"-0.006": 6.696021341,
			"-0.005": 5.08943664535,
			"-0.004": 5.63945701141,
			"-0.003": 5.21575082783,
			"-0.002": 11.0501001252,
			"-0.001": 19.1521384838,
			"0.0": 16.9513412172,
			"0.001": 12.9854450517,
			"0.002": 13.813601811,
			"0.003": 20.418129596,
			"0.004": 8.64712838684,
			"0.005": 2.58148371229,
			"0.006": 3.30473767865,
			"0.007": 2.59959115679,
			"0.008": 3.31233671223,
			"0.009": 3.80711827634,
			"0.01": 2.88614646826,
			"0.011": 2.76919372844,
			"0.012": 2.61565707496,
			"0.013": 1.6110839151,
			"0.014": 0.0127580795708,
			"0.015": 0.0,
			"0.016": 0.0,
			"0.017": 0.0,
			"0.018": 0.0,
			"0.019": 0.0,
			"0.02": 0.0,
			"0.021": 0.0,
			"0.022": 0.0,
			"0.023": 0.0,
			"0.024": 0.0,
			"0.025": 0.0
		}
	}
}
