{
	 "smiles": "CC1=C(F)C(=CC=C1)[N+]([O-])=O", 
	 "Tm": 293.15, 
	 "num_atms": 17, 
	 "gaussian": { 
		 "optdone": 1, 
		 "sigma_profile": "yes", 
		 "theory": "DFT", 
		 "functional": "B3LYP", 
		 "basiset": "6-31G**", 
		 "properties": { 
			 "R2extent": 1730.2603, 
			 "electric_dipole_moment_norm": 5.27300448796, 
			 "electric_quadrupole_moment_norm": 4.65196881008, 
			 "total_energy": -575.291624867, 
			 "HOMO_LUMO_gap": 0.1782, 
			 "cosmo_polarized_energy": -8.54, 
			 "cosmo_cavitation_energy": 22.15, 
			 "cosmo_dispersion_energy": -16.29, 
			 "cosmo_repulsion_energy": 1.29, 
			 "cosmo_total_nonelectrostatic_energy": 7.15, 
			 "SMD_solvation_energy": 6.57 
		},
		"coords": [
			{
				"x": 1.8415071463,
				"y": -1.0453356602,
				"z": 2.0233853786,
				"element": "C" 
			},
			{
				"x": 1.5205288717,
				"y": -0.6243597355,
				"z": 0.611778159,
				"element": "C" 
			},
			{
				"x": 0.3033841676,
				"y": 0.0148792242,
				"z": 0.3455708151,
				"element": "C" 
			},
			{
				"x": -0.5110474039,
				"y": 0.2281315052,
				"z": 1.3851588594,
				"element": "F" 
			},
			{
				"x": -0.0292085994,
				"y": 0.4297098666,
				"z": -0.9502064902,
				"element": "C" 
			},
			{
				"x": 0.8639480435,
				"y": 0.2103961298,
				"z": -2.0032345613,
				"element": "C" 
			},
			{
				"x": 2.0711062775,
				"y": -0.4288609456,
				"z": -1.7567162066,
				"element": "C" 
			},
			{
				"x": 2.3908412116,
				"y": -0.840716965,
				"z": -0.4592723787,
				"element": "C" 
			},
			{
				"x": -1.3038053531,
				"y": 1.0941581313,
				"z": -1.2556516725,
				"element": "N" 
			},
			{
				"x": -2.1885613302,
				"y": 1.0744303659,
				"z": -0.4047655018,
				"element": "O" 
			},
			{
				"x": -1.4053025722,
				"y": 1.6243447237,
				"z": -2.3633268834,
				"element": "O" 
			},
			{
				"x": 2.817526705,
				"y": -1.5334687566,
				"z": 2.0687356941,
				"element": "H" 
			},
			{
				"x": 1.8552859193,
				"y": -0.1846373919,
				"z": 2.7001095991,
				"element": "H" 
			},
			{
				"x": 1.0898360753,
				"y": -1.7410613172,
				"z": 2.4103252947,
				"element": "H" 
			},
			{
				"x": 0.581593717,
				"y": 0.5505151389,
				"z": -2.9913751139,
				"element": "H" 
			},
			{
				"x": 2.7644057959,
				"y": -0.6075798146,
				"z": -2.5717471336,
				"element": "H" 
			},
			{
				"x": 3.3374613282,
				"y": -1.3388444987,
				"z": -0.269067858,
				"element": "H" 
			}
		],
		 "valence_orbital": [ 
			{
				"type": "occ",
				"energy": -0.30776,
				"method": "rhf"
			},
			{
				"type": "occ",
				"energy": -0.30519,
				"method": "rhf"
			},
			{
				"type": "occ",
				"energy": -0.29127,
				"method": "rhf"
			},
			{
				"type": "occ",
				"energy": -0.28085,
				"method": "rhf"
			},
			{
				"type": "occ",
				"energy": -0.26616,
				"method": "rhf"
			},
			{
				"type": "unocc",
				"energy": -0.08796,
				"method": "rhf"
			},
			{
				"type": "unocc",
				"energy": -0.02597,
				"method": "rhf"
			},
			{
				"type": "unocc",
				"energy": -0.0033,
				"method": "rhf"
			},
			{
				"type": "unocc",
				"energy": 0.06586,
				"method": "rhf"
			},
			{
				"type": "unocc",
				"energy": 0.0925,
				"method": "rhf"
			}
		],
		"cosmo_sigma_profile": { 
			"-0.025": 0.0,
			"-0.024": 0.0,
			"-0.023": 0.0,
			"-0.022": 0.0,
			"-0.021": 0.0,
			"-0.02": 0.0,
			"-0.019": 0.0,
			"-0.018": 0.0,
			"-0.017": 0.0,
			"-0.016": 0.0,
			"-0.015": 0.0,
			"-0.014": 0.0,
			"-0.013": 0.0,
			"-0.012": 0.0,
			"-0.011": 0.0,
			"-0.01": 0.0,
			"-0.009": 0.0,
			"-0.008": 1.32588926974,
			"-0.007": 7.64159938185,
			"-0.006": 9.51553934777,
			"-0.005": 13.1284402991,
			"-0.004": 11.4245308636,
			"-0.003": 13.8107157846,
			"-0.002": 17.3500067646,
			"-0.001": 19.1931346643,
			"0.0": 14.6233800086,
			"0.001": 11.8820980362,
			"0.002": 10.4311528321,
			"0.003": 9.51253069017,
			"0.004": 4.15031076695,
			"0.005": 3.82044819622,
			"0.006": 4.10283339285,
			"0.007": 8.20162425217,
			"0.008": 9.8836575712,
			"0.009": 5.02773435999,
			"0.01": 2.38261912689,
			"0.011": 0.109845074032,
			"0.012": 0.0,
			"0.013": 0.0,
			"0.014": 0.0,
			"0.015": 0.0,
			"0.016": 0.0,
			"0.017": 0.0,
			"0.018": 0.0,
			"0.019": 0.0,
			"0.02": 0.0,
			"0.021": 0.0,
			"0.022": 0.0,
			"0.023": 0.0,
			"0.024": 0.0,
			"0.025": 0.0
		}
	}
}
