{
	 "smiles": "CC(=O)C1=CC=C(F)C(Br)=C1", 
	 "Tm": 329.15, 
	 "num_atms": 17, 
	 "gaussian": { 
		 "optdone": 1, 
		 "sigma_profile": "yes", 
		 "theory": "DFT", 
		 "functional": "B3LYP", 
		 "basiset": "6-31G**", 
		 "properties": { 
			 "R2extent": 3426.8548, 
			 "electric_dipole_moment_norm": 1.00228637624, 
			 "electric_quadrupole_moment_norm": 11.2035755007, 
			 "total_energy": -3054.92961717, 
			 "HOMO_LUMO_gap": 0.18955, 
			 "cosmo_polarized_energy": -7.68, 
			 "cosmo_cavitation_energy": 24.37, 
			 "cosmo_dispersion_energy": -18.04, 
			 "cosmo_repulsion_energy": 1.42, 
			 "cosmo_total_nonelectrostatic_energy": 7.76, 
			 "SMD_solvation_energy": 4.29 
		},
		"coords": [
			{
				"x": 0.1611644412,
				"y": 1.0249735188,
				"z": 2.7758569403,
				"element": "C" 
			},
			{
				"x": -0.6652331507,
				"y": 0.1261896308,
				"z": 1.8732866239,
				"element": "C" 
			},
			{
				"x": -1.7169840128,
				"y": -0.3559413633,
				"z": 2.263731722,
				"element": "O" 
			},
			{
				"x": -0.1698903557,
				"y": -0.1645220428,
				"z": 0.4865518578,
				"element": "C" 
			},
			{
				"x": -0.9469140114,
				"y": -0.9976328229,
				"z": -0.3339451284,
				"element": "C" 
			},
			{
				"x": -0.5370656631,
				"y": -1.3004413183,
				"z": -1.6259536138,
				"element": "C" 
			},
			{
				"x": 0.6579901366,
				"y": -0.7680657529,
				"z": -2.1042856982,
				"element": "C" 
			},
			{
				"x": 1.0492428969,
				"y": -1.0624463496,
				"z": -3.3500132942,
				"element": "F" 
			},
			{
				"x": 1.4459124871,
				"y": 0.0622680356,
				"z": -1.3059699088,
				"element": "C" 
			},
			{
				"x": 3.0692256119,
				"y": 0.7680954835,
				"z": -1.9964850673,
				"element": "Br" 
			},
			{
				"x": 1.0302021607,
				"y": 0.3625596924,
				"z": -0.0114897047,
				"element": "C" 
			},
			{
				"x": 0.2892414028,
				"y": 2.0184870525,
				"z": 2.3319727441,
				"element": "H" 
			},
			{
				"x": -0.3502475406,
				"y": 1.1207505741,
				"z": 3.7337703465,
				"element": "H" 
			},
			{
				"x": 1.1611645114,
				"y": 0.6077761307,
				"z": 2.938504094,
				"element": "H" 
			},
			{
				"x": -1.871726846,
				"y": -1.395545593,
				"z": 0.0689192181,
				"element": "H" 
			},
			{
				"x": -1.120050665,
				"y": -1.941422143,
				"z": -2.278646059,
				"element": "H" 
			},
			{
				"x": 1.6523685968,
				"y": 1.0085172674,
				"z": 0.5961949274,
				"element": "H" 
			}
		],
		 "valence_orbital": [ 
			{
				"type": "occ",
				"energy": -0.32596,
				"method": "rhf"
			},
			{
				"type": "occ",
				"energy": -0.30043,
				"method": "rhf"
			},
			{
				"type": "occ",
				"energy": -0.27474,
				"method": "rhf"
			},
			{
				"type": "occ",
				"energy": -0.25885,
				"method": "rhf"
			},
			{
				"type": "occ",
				"energy": -0.25511,
				"method": "rhf"
			},
			{
				"type": "unocc",
				"energy": -0.06556,
				"method": "rhf"
			},
			{
				"type": "unocc",
				"energy": -0.03281,
				"method": "rhf"
			},
			{
				"type": "unocc",
				"energy": -0.00847,
				"method": "rhf"
			},
			{
				"type": "unocc",
				"energy": 0.02868,
				"method": "rhf"
			},
			{
				"type": "unocc",
				"energy": 0.09303,
				"method": "rhf"
			}
		],
		"cosmo_sigma_profile": { 
			"-0.025": 0.0,
			"-0.024": 0.0,
			"-0.023": 0.0,
			"-0.022": 0.0,
			"-0.021": 0.0,
			"-0.02": 0.0,
			"-0.019": 0.0,
			"-0.018": 0.0,
			"-0.017": 0.0,
			"-0.016": 0.0,
			"-0.015": 0.0,
			"-0.014": 0.0,
			"-0.013": 0.0,
			"-0.012": 0.0,
			"-0.011": 0.0,
			"-0.01": 0.0,
			"-0.009": 0.211403088728,
			"-0.008": 3.64674036624,
			"-0.007": 8.18341391083,
			"-0.006": 11.5089953445,
			"-0.005": 10.3825106681,
			"-0.004": 10.649351262,
			"-0.003": 11.3561238059,
			"-0.002": 16.4831390134,
			"-0.001": 19.8794146801,
			"0.0": 20.6147047675,
			"0.001": 19.39377643,
			"0.002": 14.058499866,
			"0.003": 17.9506050164,
			"0.004": 14.9701918488,
			"0.005": 3.39641394308,
			"0.006": 1.42819916511,
			"0.007": 1.70378225328,
			"0.008": 1.72910962117,
			"0.009": 1.40464134647,
			"0.01": 2.33440611898,
			"0.011": 3.65896364395,
			"0.012": 2.9971742602,
			"0.013": 0.9645327583,
			"0.014": 0.0212507060267,
			"0.015": 0.0,
			"0.016": 0.0,
			"0.017": 0.0,
			"0.018": 0.0,
			"0.019": 0.0,
			"0.02": 0.0,
			"0.021": 0.0,
			"0.022": 0.0,
			"0.023": 0.0,
			"0.024": 0.0,
			"0.025": 0.0
		}
	}
}
