{
	 "smiles": "COC1=CC=C(C=C1)C(=O)OC1=C(OC)C=C(C=O)C=C1", 
	 "Tm": 369.65, 
	 "num_atms": 35, 
	 "gaussian": { 
		 "optdone": 1, 
		 "sigma_profile": "yes", 
		 "theory": "DFT", 
		 "functional": "B3LYP", 
		 "basiset": "6-31G**", 
		 "properties": { 
			 "R2extent": 9842.8651, 
			 "electric_dipole_moment_norm": 5.26874951957, 
			 "electric_quadrupole_moment_norm": 24.1782727032, 
			 "total_energy": -994.237639215, 
			 "HOMO_LUMO_gap": 0.16198, 
			 "cosmo_polarized_energy": -14.33, 
			 "cosmo_cavitation_energy": 40.81, 
			 "cosmo_dispersion_energy": -28.96, 
			 "cosmo_repulsion_energy": 2.18, 
			 "cosmo_total_nonelectrostatic_energy": 14.03, 
			 "SMD_solvation_energy": 10.59 
		},
		"coords": [
			{
				"x": 1.7189840446,
				"y": -2.2817500742,
				"z": -5.815154902,
				"element": "C" 
			},
			{
				"x": 1.5985034395,
				"y": -3.1239402035,
				"z": -4.6762085982,
				"element": "O" 
			},
			{
				"x": 1.407376942,
				"y": -2.5514176863,
				"z": -3.460079484,
				"element": "C" 
			},
			{
				"x": 1.2966954377,
				"y": -3.4451447004,
				"z": -2.3795143454,
				"element": "C" 
			},
			{
				"x": 1.1002898007,
				"y": -2.9608455584,
				"z": -1.0985538551,
				"element": "C" 
			},
			{
				"x": 1.0093522204,
				"y": -1.576785348,
				"z": -0.8626329555,
				"element": "C" 
			},
			{
				"x": 1.1204710832,
				"y": -0.6913739687,
				"z": -1.9426832808,
				"element": "C" 
			},
			{
				"x": 1.3183833985,
				"y": -1.1692692903,
				"z": -3.2363006572,
				"element": "C" 
			},
			{
				"x": 0.7989424212,
				"y": -1.1224236947,
				"z": 0.5294168098,
				"element": "C" 
			},
			{
				"x": 0.6997466993,
				"y": -1.8537887108,
				"z": 1.492573169,
				"element": "O" 
			},
			{
				"x": 0.731072883,
				"y": 0.2471683151,
				"z": 0.5811533825,
				"element": "O" 
			},
			{
				"x": 0.544380729,
				"y": 1.0093642745,
				"z": 1.7118565489,
				"element": "C" 
			},
			{
				"x": 0.5387200193,
				"y": 2.4069829561,
				"z": 1.4445602167,
				"element": "C" 
			},
			{
				"x": 0.7168258696,
				"y": 2.7621488636,
				"z": 0.1432476429,
				"element": "O" 
			},
			{
				"x": 0.7174411406,
				"y": 4.1494263075,
				"z": -0.16743904,
				"element": "C" 
			},
			{
				"x": 0.3573638163,
				"y": 3.2957522436,
				"z": 2.4949451432,
				"element": "C" 
			},
			{
				"x": 0.1817724074,
				"y": 2.8149449592,
				"z": 3.8045106541,
				"element": "C" 
			},
			{
				"x": -0.0100702029,
				"y": 3.7718268861,
				"z": 4.9117959032,
				"element": "C" 
			},
			{
				"x": -0.0302562821,
				"y": 4.9833520049,
				"z": 4.7857310177,
				"element": "O" 
			},
			{
				"x": 0.1889965807,
				"y": 1.442890445,
				"z": 4.0538440955,
				"element": "C" 
			},
			{
				"x": 0.3700341773,
				"y": 0.5318748625,
				"z": 3.0104132225,
				"element": "C" 
			},
			{
				"x": 1.8632906719,
				"y": -2.9484825749,
				"z": -6.6661471833,
				"element": "H" 
			},
			{
				"x": 2.5827821397,
				"y": -1.6109342904,
				"z": -5.7303425972,
				"element": "H" 
			},
			{
				"x": 0.8120084032,
				"y": -1.6851140137,
				"z": -5.9724509484,
				"element": "H" 
			},
			{
				"x": 1.3690063688,
				"y": -4.5089210017,
				"z": -2.5792580181,
				"element": "H" 
			},
			{
				"x": 1.0132936257,
				"y": -3.6390577786,
				"z": -0.2565291464,
				"element": "H" 
			},
			{
				"x": 1.0513631445,
				"y": 0.3757348202,
				"z": -1.7649618575,
				"element": "H" 
			},
			{
				"x": 1.4013907896,
				"y": -0.4657694465,
				"z": -4.0557813871,
				"element": "H" 
			},
			{
				"x": 1.5288648783,
				"y": 4.677130749,
				"z": 0.3486745887,
				"element": "H" 
			},
			{
				"x": 0.8722369264,
				"y": 4.2138313757,
				"z": -1.2451906441,
				"element": "H" 
			},
			{
				"x": -0.2388882458,
				"y": 4.6202408151,
				"z": 0.0914566977,
				"element": "H" 
			},
			{
				"x": 0.345065626,
				"y": 4.3684107942,
				"z": 2.3451340371,
				"element": "H" 
			},
			{
				"x": -0.1407617126,
				"y": 3.3003960659,
				"z": 5.9112218462,
				"element": "H" 
			},
			{
				"x": 0.0528624564,
				"y": 1.075611811,
				"z": 5.0676281427,
				"element": "H" 
			},
			{
				"x": 0.3785583026,
				"y": -0.5322702081,
				"z": 3.1884657821,
				"element": "H" 
			}
		],
		 "valence_orbital": [ 
			{
				"type": "occ",
				"energy": -0.26468,
				"method": "rhf"
			},
			{
				"type": "occ",
				"energy": -0.25431,
				"method": "rhf"
			},
			{
				"type": "occ",
				"energy": -0.25059,
				"method": "rhf"
			},
			{
				"type": "occ",
				"energy": -0.23683,
				"method": "rhf"
			},
			{
				"type": "occ",
				"energy": -0.22546,
				"method": "rhf"
			},
			{
				"type": "unocc",
				"energy": -0.06348,
				"method": "rhf"
			},
			{
				"type": "unocc",
				"energy": -0.03835,
				"method": "rhf"
			},
			{
				"type": "unocc",
				"energy": -0.01186,
				"method": "rhf"
			},
			{
				"type": "unocc",
				"energy": -0.00108,
				"method": "rhf"
			},
			{
				"type": "unocc",
				"energy": 0.04362,
				"method": "rhf"
			}
		],
		"cosmo_sigma_profile": { 
			"-0.025": 0.0,
			"-0.024": 0.0,
			"-0.023": 0.0,
			"-0.022": 0.0,
			"-0.021": 0.0,
			"-0.02": 0.0,
			"-0.019": 0.0,
			"-0.018": 0.0,
			"-0.017": 0.0,
			"-0.016": 0.0,
			"-0.015": 0.0,
			"-0.014": 0.0,
			"-0.013": 0.0,
			"-0.012": 0.0,
			"-0.011": 0.0,
			"-0.01": 0.0,
			"-0.009": 0.0,
			"-0.008": 0.825770764277,
			"-0.007": 9.44758693533,
			"-0.006": 25.4207640609,
			"-0.005": 29.0178201539,
			"-0.004": 28.9617819487,
			"-0.003": 25.8461408405,
			"-0.002": 19.0641941524,
			"-0.001": 19.0791454894,
			"0.0": 22.3479660293,
			"0.001": 27.3447164642,
			"0.002": 29.6900634114,
			"0.003": 28.0100183407,
			"0.004": 14.3565744849,
			"0.005": 7.87957242446,
			"0.006": 6.33528508697,
			"0.007": 6.16184435463,
			"0.008": 6.02247748066,
			"0.009": 5.78511418285,
			"0.01": 4.71986430161,
			"0.011": 6.60162039842,
			"0.012": 3.21959771434,
			"0.013": 0.990228997739,
			"0.014": 0.00308952537609,
			"0.015": 0.0,
			"0.016": 0.0,
			"0.017": 0.0,
			"0.018": 0.0,
			"0.019": 0.0,
			"0.02": 0.0,
			"0.021": 0.0,
			"0.022": 0.0,
			"0.023": 0.0,
			"0.024": 0.0,
			"0.0": 0.0
		}
	}
}
