{
	 "smiles": "COC1=C(OCC(O)=O)C=CC(=C1)C#N", 
	 "Tm": 428.15, 
	 "num_atms": 24, 
	 "gaussian": { 
		 "optdone": 1, 
		 "sigma_profile": "yes", 
		 "theory": "DFT", 
		 "functional": "B3LYP", 
		 "basiset": "6-31G**", 
		 "properties": { 
			 "R2extent": 4426.3132, 
			 "electric_dipole_moment_norm": 6.91635155338, 
			 "electric_quadrupole_moment_norm": 21.4985646174, 
			 "total_energy": -742.085581236, 
			 "HOMO_LUMO_gap": 0.20183, 
			 "cosmo_polarized_energy": -22.07, 
			 "cosmo_cavitation_energy": 30.26, 
			 "cosmo_dispersion_energy": -20.78, 
			 "cosmo_repulsion_energy": 1.66, 
			 "cosmo_total_nonelectrostatic_energy": 11.14, 
			 "SMD_solvation_energy": 8.74 
		},
		"coords": [
			{
				"x": -0.4581417026,
				"y": 1.6549254559,
				"z": -0.9620908222,
				"element": "C" 
			},
			{
				"x": -1.3458339985,
				"y": 0.5527789151,
				"z": -0.7208506717,
				"element": "O" 
			},
			{
				"x": -0.7114387907,
				"y": -0.6477098707,
				"z": -0.4908856676,
				"element": "C" 
			},
			{
				"x": -0.1305016488,
				"y": -0.9260519001,
				"z": 0.7612341304,
				"element": "C" 
			},
			{
				"x": -0.1036017348,
				"y": 0.033719393,
				"z": 1.7515662127,
				"element": "O" 
			},
			{
				"x": -1.3511730404,
				"y": 0.3773751565,
				"z": 2.3251287322,
				"element": "C" 
			},
			{
				"x": -1.8154701598,
				"y": -0.6534889771,
				"z": 3.3596210739,
				"element": "C" 
			},
			{
				"x": -3.0180829095,
				"y": -0.3724956629,
				"z": 3.9252247299,
				"element": "O" 
			},
			{
				"x": -1.1932976107,
				"y": -1.6301818618,
				"z": 3.6800524293,
				"element": "O" 
			},
			{
				"x": 0.4865284676,
				"y": -2.1560983518,
				"z": 0.9906101907,
				"element": "C" 
			},
			{
				"x": 0.5256020449,
				"y": -3.1173823959,
				"z": -0.0142946477,
				"element": "C" 
			},
			{
				"x": -0.0687507109,
				"y": -2.852211293,
				"z": -1.2595890732,
				"element": "C" 
			},
			{
				"x": -0.686152222,
				"y": -1.6123252584,
				"z": -1.4935256379,
				"element": "C" 
			},
			{
				"x": -0.0431294555,
				"y": -3.8415415602,
				"z": -2.2969807478,
				"element": "C" 
			},
			{
				"x": -0.0206807696,
				"y": -4.6427424642,
				"z": -3.1402410044,
				"element": "N" 
			},
			{
				"x": 0.2066092386,
				"y": 1.8226924873,
				"z": -0.1083702024,
				"element": "H" 
			},
			{
				"x": 0.1413081799,
				"y": 1.4787198869,
				"z": -1.8630374786,
				"element": "H" 
			},
			{
				"x": -1.0919415404,
				"y": 2.5303614103,
				"z": -1.1149221454,
				"element": "H" 
			},
			{
				"x": -2.1212546005,
				"y": 0.5170137501,
				"z": 1.5552048148,
				"element": "H" 
			},
			{
				"x": -1.2036186801,
				"y": 1.3378565062,
				"z": 2.832821139,
				"element": "H" 
			},
			{
				"x": -3.4054396048,
				"y": 0.4285175264,
				"z": 3.5418643793,
				"element": "H" 
			},
			{
				"x": 0.9029305348,
				"y": -2.3438048699,
				"z": 1.9728698005,
				"element": "H" 
			},
			{
				"x": 0.9979518813,
				"y": -4.0770951901,
				"z": 0.1632865018,
				"element": "H" 
			},
			{
				"x": -1.1467211677,
				"y": -1.3897308316,
				"z": -2.4495960358,
				"element": "H" 
			}
		],
		 "valence_orbital": [ 
			{
				"type": "occ",
				"energy": -0.32222,
				"method": "rhf"
			},
			{
				"type": "occ",
				"energy": -0.29744,
				"method": "rhf"
			},
			{
				"type": "occ",
				"energy": -0.28655,
				"method": "rhf"
			},
			{
				"type": "occ",
				"energy": -0.26944,
				"method": "rhf"
			},
			{
				"type": "occ",
				"energy": -0.25278,
				"method": "rhf"
			},
			{
				"type": "unocc",
				"energy": -0.05095,
				"method": "rhf"
			},
			{
				"type": "unocc",
				"energy": -0.0244,
				"method": "rhf"
			},
			{
				"type": "unocc",
				"energy": -0.00577,
				"method": "rhf"
			},
			{
				"type": "unocc",
				"energy": 0.03396,
				"method": "rhf"
			},
			{
				"type": "unocc",
				"energy": 0.03727,
				"method": "rhf"
			}
		],
		"cosmo_sigma_profile": { 
			"-0.025": 0.0,
			"-0.024": 0.0,
			"-0.023": 0.0,
			"-0.022": 0.0,
			"-0.021": 0.0,
			"-0.02": 0.911661258822,
			"-0.019": 1.01677955906,
			"-0.018": 1.4718911098,
			"-0.017": 1.49373715589,
			"-0.016": 1.11231926592,
			"-0.015": 0.796360088089,
			"-0.014": 1.17561055944,
			"-0.013": 1.3776628512,
			"-0.012": 1.42495145061,
			"-0.011": 1.73401764425,
			"-0.01": 2.01742957068,
			"-0.009": 3.3662861634,
			"-0.008": 6.82296193694,
			"-0.007": 8.23882483359,
			"-0.006": 10.5873598592,
			"-0.005": 12.1398017874,
			"-0.004": 15.8884885951,
			"-0.003": 18.2172086081,
			"-0.002": 14.9071204421,
			"-0.001": 16.7108066644,
			"0.0": 14.568985884,
			"0.001": 17.7941379548,
			"0.002": 10.6016878874,
			"0.003": 6.98879191467,
			"0.004": 6.60262462538,
			"0.005": 6.65875755213,
			"0.006": 8.2817587703,
			"0.007": 6.91158342988,
			"0.008": 9.41670860942,
			"0.009": 9.15294370826,
			"0.01": 10.7647470409,
			"0.011": 6.73288306314,
			"0.012": 4.73080525407,
			"0.013": 1.85941916431,
			"0.014": 0.0682064963024,
			"0.015": 0.0,
			"0.016": 0.0,
			"0.017": 0.0,
			"0.018": 0.0,
			"0.019": 0.0,
			"0.02": 0.0,
			"0.021": 0.0,
			"0.022": 0.0,
			"0.023": 0.0,
			"0.024": 0.0,
			"0.025": 0.0
		}
	}
}
