{
	 "smiles": "COC1=C(C=CC(N)=C1)S(=O)(=O)N1CCCC1", 
	 "Tm": 419.15, 
	 "num_atms": 33, 
	 "gaussian": { 
		 "optdone": 1, 
		 "sigma_profile": "yes", 
		 "theory": "DFT", 
		 "functional": "B3LYP", 
		 "basiset": "6-31G**", 
		 "properties": { 
			 "R2extent": 5516.5159, 
			 "electric_dipole_moment_norm": 6.75162160225, 
			 "electric_quadrupole_moment_norm": 29.5583850684, 
			 "total_energy": -1162.09325341, 
			 "HOMO_LUMO_gap": 0.20113, 
			 "cosmo_polarized_energy": -19.34, 
			 "cosmo_cavitation_energy": 35.61, 
			 "cosmo_dispersion_energy": -25.79, 
			 "cosmo_repulsion_energy": 1.98, 
			 "cosmo_total_nonelectrostatic_energy": 11.8, 
			 "SMD_solvation_energy": 4.9 
		},
		"coords": [
			{
				"x": -1.1628289661,
				"y": -0.1078442982,
				"z": -2.247697551,
				"element": "C" 
			},
			{
				"x": -0.5005070126,
				"y": -0.0725563216,
				"z": -0.9731627215,
				"element": "O" 
			},
			{
				"x": -1.1364329602,
				"y": 0.663549234,
				"z": -0.0023466385,
				"element": "C" 
			},
			{
				"x": -0.7043680361,
				"y": 1.9633419828,
				"z": 0.3177242595,
				"element": "C" 
			},
			{
				"x": -1.3392979071,
				"y": 2.6485634944,
				"z": 1.3610730256,
				"element": "C" 
			},
			{
				"x": -2.3809236289,
				"y": 2.0684044119,
				"z": 2.0718390943,
				"element": "C" 
			},
			{
				"x": -2.8200116167,
				"y": 0.7690473013,
				"z": 1.7543782137,
				"element": "C" 
			},
			{
				"x": -3.8887993866,
				"y": 0.1970551229,
				"z": 2.4259503292,
				"element": "N" 
			},
			{
				"x": -2.1800496662,
				"y": 0.0787552167,
				"z": 0.7098173458,
				"element": "C" 
			},
			{
				"x": 0.611653809,
				"y": 2.8009440359,
				"z": -0.5798750149,
				"element": "S" 
			},
			{
				"x": 0.3934882618,
				"y": 2.6202507636,
				"z": -2.019236353,
				"element": "O" 
			},
			{
				"x": 0.6895836816,
				"y": 4.1408739329,
				"z": 0.0131638377,
				"element": "O" 
			},
			{
				"x": 2.043488985,
				"y": 2.0513805128,
				"z": -0.2196605462,
				"element": "N" 
			},
			{
				"x": 2.5790807007,
				"y": 0.9070897643,
				"z": -0.983483804,
				"element": "C" 
			},
			{
				"x": 3.9244469227,
				"y": 0.6789805372,
				"z": -0.2845256697,
				"element": "C" 
			},
			{
				"x": 3.6015434006,
				"y": 0.9641950723,
				"z": 1.1934081533,
				"element": "C" 
			},
			{
				"x": 2.6122941096,
				"y": 2.1453350514,
				"z": 1.1415431315,
				"element": "C" 
			},
			{
				"x": -2.1861798495,
				"y": -0.48870152,
				"z": -2.1451400464,
				"element": "H" 
			},
			{
				"x": -0.5827963971,
				"y": -0.7913084355,
				"z": -2.8703027135,
				"element": "H" 
			},
			{
				"x": -1.1693452621,
				"y": 0.8875917993,
				"z": -2.6990848356,
				"element": "H" 
			},
			{
				"x": -1.0059956059,
				"y": 3.6535386635,
				"z": 1.5938570887,
				"element": "H" 
			},
			{
				"x": -2.8647895286,
				"y": 2.6204345045,
				"z": 2.8728366046,
				"element": "H" 
			},
			{
				"x": -3.9642359495,
				"y": -0.8086610168,
				"z": 2.3844742872,
				"element": "H" 
			},
			{
				"x": -4.1033182562,
				"y": 0.5766752697,
				"z": 3.336382957,
				"element": "H" 
			},
			{
				"x": -2.4813692561,
				"y": -0.9320758087,
				"z": 0.4497824095,
				"element": "H" 
			},
			{
				"x": 1.9305114271,
				"y": 0.0269602731,
				"z": -0.9026678583,
				"element": "H" 
			},
			{
				"x": 2.6715212961,
				"y": 1.1755776696,
				"z": -2.0372921898,
				"element": "H" 
			},
			{
				"x": 4.3114953436,
				"y": -0.3302606083,
				"z": -0.4508521621,
				"element": "H" 
			},
			{
				"x": 4.6651388007,
				"y": 1.3946997013,
				"z": -0.6575929505,
				"element": "H" 
			},
			{
				"x": 4.4865954061,
				"y": 1.1946433622,
				"z": 1.792575161,
				"element": "H" 
			},
			{
				"x": 3.1146687965,
				"y": 0.0904739862,
				"z": 1.6407986387,
				"element": "H" 
			},
			{
				"x": 1.8360607011,
				"y": 2.0625034269,
				"z": 1.9119070171,
				"element": "H" 
			},
			{
				"x": 3.1077776434,
				"y": 3.1133429185,
				"z": 1.2674095008,
				"element": "H" 
			}
		],
		 "valence_orbital": [ 
			{
				"type": "occ",
				"energy": -0.28087,
				"method": "rhf"
			},
			{
				"type": "occ",
				"energy": -0.27618,
				"method": "rhf"
			},
			{
				"type": "occ",
				"energy": -0.2505,
				"method": "rhf"
			},
			{
				"type": "occ",
				"energy": -0.23982,
				"method": "rhf"
			},
			{
				"type": "occ",
				"energy": -0.2137,
				"method": "rhf"
			},
			{
				"type": "unocc",
				"energy": -0.01257,
				"method": "rhf"
			},
			{
				"type": "unocc",
				"energy": -0.00849,
				"method": "rhf"
			},
			{
				"type": "unocc",
				"energy": 0.06308,
				"method": "rhf"
			},
			{
				"type": "unocc",
				"energy": 0.08218,
				"method": "rhf"
			},
			{
				"type": "unocc",
				"energy": 0.0856,
				"method": "rhf"
			}
		],
		"cosmo_sigma_profile": { 
			"-0.025": 0.0,
			"-0.024": 0.0,
			"-0.023": 0.0,
			"-0.022": 0.0,
			"-0.021": 0.0,
			"-0.02": 0.0,
			"-0.019": 0.0,
			"-0.018": 0.0,
			"-0.017": 0.0,
			"-0.016": 0.0,
			"-0.015": 0.0,
			"-0.014": 0.221870882207,
			"-0.013": 2.62240718524,
			"-0.012": 2.72247692913,
			"-0.011": 2.86237428021,
			"-0.01": 4.17533863305,
			"-0.009": 2.67162261803,
			"-0.008": 2.92353787908,
			"-0.007": 4.23908688592,
			"-0.006": 5.46539039117,
			"-0.005": 11.9359887936,
			"-0.004": 24.8435587916,
			"-0.003": 34.0067612805,
			"-0.002": 35.1153541469,
			"-0.001": 21.4081779585,
			"0.0": 17.3642480552,
			"0.001": 11.9614635135,
			"0.002": 12.2412781683,
			"0.003": 15.3489670759,
			"0.004": 14.3776302606,
			"0.005": 8.35030068649,
			"0.006": 6.35510012638,
			"0.007": 6.93931401658,
			"0.008": 4.65240070221,
			"0.009": 5.59707394965,
			"0.01": 5.62041259629,
			"0.011": 6.60665898465,
			"0.012": 7.30466454115,
			"0.013": 2.43530637001,
			"0.014": 0.0,
			"0.015": 0.0,
			"0.016": 0.0,
			"0.017": 0.0,
			"0.018": 0.0,
			"0.019": 0.0,
			"0.02": 0.0,
			"0.021": 0.0,
			"0.022": 0.0,
			"0.023": 0.0,
			"0.024": 0.0,
			"0.025": 0.0
		}
	}
}
