{
	 "smiles": "CCNC(=S)NC1=CC=CC=C1", 
	 "Tm": 376.15, 
	 "num_atms": 24, 
	 "gaussian": { 
		 "optdone": 1, 
		 "sigma_profile": "yes", 
		 "theory": "DFT", 
		 "functional": "B3LYP", 
		 "basiset": "6-31G**", 
		 "properties": { 
			 "R2extent": 2984.2038, 
			 "electric_dipole_moment_norm": 5.18997565794, 
			 "electric_quadrupole_moment_norm": 11.1205642802, 
			 "total_energy": -857.896675256, 
			 "HOMO_LUMO_gap": 0.17155, 
			 "cosmo_polarized_energy": -14.52, 
			 "cosmo_cavitation_energy": 28.75, 
			 "cosmo_dispersion_energy": -21.01, 
			 "cosmo_repulsion_energy": 1.66, 
			 "cosmo_total_nonelectrostatic_energy": 9.39, 
			 "SMD_solvation_energy": 3.55 
		},
		"coords": [
			{
				"x": 3.0652516508,
				"y": 0.3714864268,
				"z": 0.5537827525,
				"element": "C" 
			},
			{
				"x": 1.7174852941,
				"y": 0.2319958656,
				"z": -0.1524345279,
				"element": "C" 
			},
			{
				"x": 0.8124007459,
				"y": -0.6146602763,
				"z": 0.6330267855,
				"element": "N" 
			},
			{
				"x": -0.4940512599,
				"y": -0.3700328203,
				"z": 0.9200832337,
				"element": "C" 
			},
			{
				"x": -1.2210707633,
				"y": -0.9592925839,
				"z": 2.3195955715,
				"element": "S" 
			},
			{
				"x": -1.2055930371,
				"y": 0.4128050809,
				"z": 0.0365305232,
				"element": "N" 
			},
			{
				"x": -1.1433469093,
				"y": 0.4368782272,
				"z": -1.3832245269,
				"element": "C" 
			},
			{
				"x": -0.6203574638,
				"y": -0.6249160797,
				"z": -2.1346747896,
				"element": "C" 
			},
			{
				"x": -0.6284026566,
				"y": -0.5576320739,
				"z": -3.5282405006,
				"element": "C" 
			},
			{
				"x": -1.1709776408,
				"y": 0.5468430938,
				"z": -4.1868698032,
				"element": "C" 
			},
			{
				"x": -1.7084556945,
				"y": 1.5949136979,
				"z": -3.436304431,
				"element": "C" 
			},
			{
				"x": -1.6895662581,
				"y": 1.5467248429,
				"z": -2.0440777373,
				"element": "C" 
			},
			{
				"x": 3.7441400816,
				"y": 0.9814419268,
				"z": -0.0493178147,
				"element": "H" 
			},
			{
				"x": 2.9525397974,
				"y": 0.8464657798,
				"z": 1.5329060163,
				"element": "H" 
			},
			{
				"x": 3.5398287866,
				"y": -0.6058539277,
				"z": 0.6975613077,
				"element": "H" 
			},
			{
				"x": 1.2503448429,
				"y": 1.2126111323,
				"z": -0.279061814,
				"element": "H" 
			},
			{
				"x": 1.8576770111,
				"y": -0.1853423038,
				"z": -1.1571820231,
				"element": "H" 
			},
			{
				"x": 1.2456777126,
				"y": -1.2114849142,
				"z": 1.3251542602,
				"element": "H" 
			},
			{
				"x": -2.0986284512,
				"y": 0.6838565559,
				"z": 0.4278874371,
				"element": "H" 
			},
			{
				"x": -0.2270678157,
				"y": -1.5000026108,
				"z": -1.6292704212,
				"element": "H" 
			},
			{
				"x": -0.2216190575,
				"y": -1.3864040223,
				"z": -4.1006725952,
				"element": "H" 
			},
			{
				"x": -1.1792410031,
				"y": 0.5887504867,
				"z": -5.2715741495,
				"element": "H" 
			},
			{
				"x": -2.1376919647,
				"y": 2.4592904762,
				"z": -3.9346117264,
				"element": "H" 
			},
			{
				"x": -2.0933759473,
				"y": 2.3686580203,
				"z": -1.459211027,
				"element": "H" 
			}
		],
		 "valence_orbital": [ 
			{
				"type": "occ",
				"energy": -0.29663,
				"method": "rhf"
			},
			{
				"type": "occ",
				"energy": -0.26227,
				"method": "rhf"
			},
			{
				"type": "occ",
				"energy": -0.23634,
				"method": "rhf"
			},
			{
				"type": "occ",
				"energy": -0.21389,
				"method": "rhf"
			},
			{
				"type": "occ",
				"energy": -0.19859,
				"method": "rhf"
			},
			{
				"type": "unocc",
				"energy": -0.02704,
				"method": "rhf"
			},
			{
				"type": "unocc",
				"energy": -0.01407,
				"method": "rhf"
			},
			{
				"type": "unocc",
				"energy": 0.01224,
				"method": "rhf"
			},
			{
				"type": "unocc",
				"energy": 0.06901,
				"method": "rhf"
			},
			{
				"type": "unocc",
				"energy": 0.08602,
				"method": "rhf"
			}
		],
		"cosmo_sigma_profile": { 
			"-0.025": 0.0,
			"-0.024": 0.0,
			"-0.023": 0.0,
			"-0.022": 0.0,
			"-0.021": 0.0,
			"-0.02": 0.0,
			"-0.019": 0.0,
			"-0.018": 0.0,
			"-0.017": 0.0,
			"-0.016": 0.0,
			"-0.015": 0.0,
			"-0.014": 0.606845656678,
			"-0.013": 1.10022576182,
			"-0.012": 1.87670406567,
			"-0.011": 2.09614594499,
			"-0.01": 2.29069068161,
			"-0.009": 1.98166316713,
			"-0.008": 2.35144740664,
			"-0.007": 2.50725512646,
			"-0.006": 9.35392606373,
			"-0.005": 13.7298491231,
			"-0.004": 24.7378105197,
			"-0.003": 25.324983525,
			"-0.002": 19.085283452,
			"-0.001": 17.9142394722,
			"0.0": 15.9767106875,
			"0.001": 13.0877916917,
			"0.002": 9.92045445589,
			"0.003": 9.78299284048,
			"0.004": 9.76680030801,
			"0.005": 11.1207864647,
			"0.006": 5.21029119038,
			"0.007": 3.31061434148,
			"0.008": 2.83811050723,
			"0.009": 4.60391201794,
			"0.01": 5.20962754826,
			"0.011": 7.46901383537,
			"0.012": 5.35667767853,
			"0.013": 1.79854034979,
			"0.014": 0.0,
			"0.015": 0.0,
			"0.016": 0.0,
			"0.017": 0.0,
			"0.018": 0.0,
			"0.019": 0.0,
			"0.02": 0.0,
			"0.021": 0.0,
			"0.022": 0.0,
			"0.023": 0.0,
			"0.024": 0.0,
			"0.025": 0.0
		}
	}
}
