{
	 "smiles": "CC1=CC(=C(F)C=C1)[N+]([O-])=O", 
	 "Tm": 302.15, 
	 "num_atms": 17, 
	 "gaussian": { 
		 "optdone": 1, 
		 "sigma_profile": "yes", 
		 "theory": "DFT", 
		 "functional": "B3LYP", 
		 "basiset": "6-31G**", 
		 "properties": { 
			 "R2extent": 1984.2075, 
			 "electric_dipole_moment_norm": 5.51868741006, 
			 "electric_quadrupole_moment_norm": 10.1228155145, 
			 "total_energy": -575.290347473, 
			 "HOMO_LUMO_gap": 0.1744, 
			 "cosmo_polarized_energy": -8.76, 
			 "cosmo_cavitation_energy": 22.31, 
			 "cosmo_dispersion_energy": -16.35, 
			 "cosmo_repulsion_energy": 1.29, 
			 "cosmo_total_nonelectrostatic_energy": 7.25, 
			 "SMD_solvation_energy": 6.66 
		},
		"coords": [
			{
				"x": 2.1659518195,
				"y": -1.3176571624,
				"z": -0.8158115795,
				"element": "C" 
			},
			{
				"x": 0.798913585,
				"y": -0.7153989023,
				"z": -0.593976743,
				"element": "C" 
			},
			{
				"x": 0.6373044976,
				"y": 0.651748752,
				"z": -0.3808525274,
				"element": "C" 
			},
			{
				"x": -0.6288779313,
				"y": 1.2137561604,
				"z": -0.1846966691,
				"element": "C" 
			},
			{
				"x": -1.7641103148,
				"y": 0.3934917625,
				"z": -0.1947271544,
				"element": "C" 
			},
			{
				"x": -2.9963564517,
				"y": 0.8663220153,
				"z": 0.0004425178,
				"element": "F" 
			},
			{
				"x": -1.6172611295,
				"y": -0.9762882269,
				"z": -0.4016573433,
				"element": "C" 
			},
			{
				"x": -0.3533354146,
				"y": -1.519950477,
				"z": -0.6003270203,
				"element": "C" 
			},
			{
				"x": -0.7113713241,
				"y": 2.6657162517,
				"z": 0.0248039787,
				"element": "N" 
			},
			{
				"x": -1.8239577993,
				"y": 3.1831658755,
				"z": 0.0660371535,
				"element": "O" 
			},
			{
				"x": 0.3520785283,
				"y": 3.2774973452,
				"z": 0.1411930318,
				"element": "O" 
			},
			{
				"x": 2.9524105855,
				"y": -0.565428975,
				"z": -0.7186104664,
				"element": "H" 
			},
			{
				"x": 2.2472813778,
				"y": -1.759429112,
				"z": -1.8154641775,
				"element": "H" 
			},
			{
				"x": 2.3711718033,
				"y": -2.1141666938,
				"z": -0.0922600612,
				"element": "H" 
			},
			{
				"x": 1.4881189681,
				"y": 1.3220397915,
				"z": -0.3598325157,
				"element": "H" 
			},
			{
				"x": -2.5094087312,
				"y": -1.5929431122,
				"z": -0.4004654634,
				"element": "H" 
			},
			{
				"x": -0.2589520685,
				"y": -2.5905752926,
				"z": -0.7615949605,
				"element": "H" 
			}
		],
		 "valence_orbital": [ 
			{
				"type": "occ",
				"energy": -0.30774,
				"method": "rhf"
			},
			{
				"type": "occ",
				"energy": -0.30517,
				"method": "rhf"
			},
			{
				"type": "occ",
				"energy": -0.29079,
				"method": "rhf"
			},
			{
				"type": "occ",
				"energy": -0.28571,
				"method": "rhf"
			},
			{
				"type": "occ",
				"energy": -0.2636,
				"method": "rhf"
			},
			{
				"type": "unocc",
				"energy": -0.0892,
				"method": "rhf"
			},
			{
				"type": "unocc",
				"energy": -0.02403,
				"method": "rhf"
			},
			{
				"type": "unocc",
				"energy": -0.00622,
				"method": "rhf"
			},
			{
				"type": "unocc",
				"energy": 0.06261,
				"method": "rhf"
			},
			{
				"type": "unocc",
				"energy": 0.10374,
				"method": "rhf"
			}
		],
		"cosmo_sigma_profile": { 
			"-0.025": 0.0,
			"-0.024": 0.0,
			"-0.023": 0.0,
			"-0.022": 0.0,
			"-0.021": 0.0,
			"-0.02": 0.0,
			"-0.019": 0.0,
			"-0.018": 0.0,
			"-0.017": 0.0,
			"-0.016": 0.0,
			"-0.015": 0.0,
			"-0.014": 0.0,
			"-0.013": 0.0,
			"-0.012": 0.0,
			"-0.011": 0.0,
			"-0.01": 0.0,
			"-0.009": 0.213974713948,
			"-0.008": 2.555343875,
			"-0.007": 6.69835675253,
			"-0.006": 8.05867275897,
			"-0.005": 11.6644616172,
			"-0.004": 14.7836707788,
			"-0.003": 12.9413767564,
			"-0.002": 15.965810114,
			"-0.001": 19.7497060798,
			"0.0": 17.6170633626,
			"0.001": 13.5468449241,
			"0.002": 8.58455937321,
			"0.003": 8.47835869104,
			"0.004": 4.40236119015,
			"0.005": 3.70358155132,
			"0.006": 4.38675337001,
			"0.007": 7.70989516711,
			"0.008": 9.79681833646,
			"0.009": 5.29627711276,
			"0.01": 2.49883899634,
			"0.011": 0.139974225309,
			"0.012": 0.0,
			"0.013": 0.0,
			"0.014": 0.0,
			"0.015": 0.0,
			"0.016": 0.0,
			"0.017": 0.0,
			"0.018": 0.0,
			"0.019": 0.0,
			"0.02": 0.0,
			"0.021": 0.0,
			"0.022": 0.0,
			"0.023": 0.0,
			"0.024": 0.0,
			"0.025": 0.0
		}
	}
}
