{
	 "smiles": "CC12CCC3C(CC[C@@H]4CC5(CCC34C)OCCO5)[C@H]1CC[C@]2(O)C#C", 
	 "Tm": 471.15, 
	 "num_atms": 60, 
	 "gaussian": { 
		 "optdone": 1, 
		 "sigma_profile": "yes", 
		 "theory": "DFT", 
		 "functional": "B3LYP", 
		 "basiset": "6-31G**", 
		 "properties": { 
			 "R2extent": 10807.2252, 
			 "electric_dipole_moment_norm": 1.88094549097, 
			 "electric_quadrupole_moment_norm": 12.1566231236, 
			 "total_energy": -1122.52345052, 
			 "HOMO_LUMO_gap": 0.27515, 
			 "cosmo_polarized_energy": -11.58, 
			 "cosmo_cavitation_energy": 50.69, 
			 "cosmo_dispersion_energy": -34.62, 
			 "cosmo_repulsion_energy": 2.51, 
			 "cosmo_total_nonelectrostatic_energy": 18.57, 
			 "SMD_solvation_energy": 8.29 
		},
		"coords": [
			{
				"x": 2.9881090397,
				"y": 1.672980889,
				"z": 1.0741138055,
				"element": "C" 
			},
			{
				"x": 1.5084496026,
				"y": 1.9055148383,
				"z": 0.6987479363,
				"element": "C" 
			},
			{
				"x": 1.320439999,
				"y": 1.7813434509,
				"z": -0.8220533082,
				"element": "C" 
			},
			{
				"x": 1.4967475507,
				"y": 0.3194012846,
				"z": -1.2879061099,
				"element": "C" 
			},
			{
				"x": 0.6390845742,
				"y": -0.751110747,
				"z": -0.5507405089,
				"element": "C" 
			},
			{
				"x": 0.748875706,
				"y": -0.5424841207,
				"z": 0.9947999029,
				"element": "C" 
			},
			{
				"x": -0.1814822651,
				"y": -1.5189002783,
				"z": 1.7201654212,
				"element": "C" 
			},
			{
				"x": -1.666949456,
				"y": -1.2910068919,
				"z": 1.3925380339,
				"element": "C" 
			},
			{
				"x": -1.9555046061,
				"y": -0.7319513572,
				"z": -0.0318601548,
				"element": "C" 
			},
			{
				"x": -3.3563420024,
				"y": -1.2032508388,
				"z": -0.5029396665,
				"element": "C" 
			},
			{
				"x": -3.4228436111,
				"y": -2.6532606695,
				"z": -1.0063961004,
				"element": "C" 
			},
			{
				"x": -2.3077206529,
				"y": -2.9633052476,
				"z": -2.0055653856,
				"element": "C" 
			},
			{
				"x": -0.9285535064,
				"y": -2.5266401669,
				"z": -1.4904577875,
				"element": "C" 
			},
			{
				"x": -0.8431892284,
				"y": -1.0217595705,
				"z": -1.0978254891,
				"element": "C" 
			},
			{
				"x": -1.1383897851,
				"y": -0.17226791,
				"z": -2.3561910532,
				"element": "C" 
			},
			{
				"x": -4.7130723224,
				"y": -2.8476798526,
				"z": -1.6083492788,
				"element": "O" 
			},
			{
				"x": -5.3147312702,
				"y": -3.9997062831,
				"z": -1.0298635466,
				"element": "C" 
			},
			{
				"x": -4.6602917436,
				"y": -4.0571056219,
				"z": 0.3462930866,
				"element": "C" 
			},
			{
				"x": -3.3398485435,
				"y": -3.6069723084,
				"z": 0.0657130158,
				"element": "O" 
			},
			{
				"x": 0.5299627814,
				"y": 0.9253387463,
				"z": 1.3905847289,
				"element": "C" 
			},
			{
				"x": 0.595477943,
				"y": 1.3192476449,
				"z": 2.8808293351,
				"element": "C" 
			},
			{
				"x": 0.8450027203,
				"y": 2.8536000324,
				"z": 2.8638718689,
				"element": "C" 
			},
			{
				"x": 1.0550836703,
				"y": 3.2604348735,
				"z": 1.3685769668,
				"element": "C" 
			},
			{
				"x": 2.0399477013,
				"y": 4.2969026332,
				"z": 1.3306888257,
				"element": "O" 
			},
			{
				"x": -0.1997404651,
				"y": 3.7727429759,
				"z": 0.7857348529,
				"element": "C" 
			},
			{
				"x": -1.2100283315,
				"y": 4.23215499,
				"z": 0.3054054005,
				"element": "C" 
			},
			{
				"x": 3.3458601522,
				"y": 0.7012032507,
				"z": 0.7278679232,
				"element": "H" 
			},
			{
				"x": 3.1606029359,
				"y": 1.719756182,
				"z": 2.1519170719,
				"element": "H" 
			},
			{
				"x": 3.6125688946,
				"y": 2.4456453033,
				"z": 0.6189378187,
				"element": "H" 
			},
			{
				"x": 0.3235532656,
				"y": 2.1473873281,
				"z": -1.0884779258,
				"element": "H" 
			},
			{
				"x": 2.0402232171,
				"y": 2.415201043,
				"z": -1.3587704865,
				"element": "H" 
			},
			{
				"x": 1.3446842158,
				"y": 0.263373381,
				"z": -2.3686765832,
				"element": "H" 
			},
			{
				"x": 2.5457316127,
				"y": 0.0380800153,
				"z": -1.1363389326,
				"element": "H" 
			},
			{
				"x": 1.1665175853,
				"y": -1.6950794074,
				"z": -0.7388840697,
				"element": "H" 
			},
			{
				"x": 1.7790351514,
				"y": -0.8066129172,
				"z": 1.273377183,
				"element": "H" 
			},
			{
				"x": -0.0274064139,
				"y": -1.4610341556,
				"z": 2.8042325666,
				"element": "H" 
			},
			{
				"x": 0.1088369171,
				"y": -2.5377084745,
				"z": 1.433059387,
				"element": "H" 
			},
			{
				"x": -2.2032816047,
				"y": -2.2320343085,
				"z": 1.5304475417,
				"element": "H" 
			},
			{
				"x": -2.0999599198,
				"y": -0.5857077596,
				"z": 2.1130765581,
				"element": "H" 
			},
			{
				"x": -2.0240635892,
				"y": 0.3596750347,
				"z": 0.0512835033,
				"element": "H" 
			},
			{
				"x": -3.7255678007,
				"y": -0.5722965762,
				"z": -1.3174096718,
				"element": "H" 
			},
			{
				"x": -4.0753884716,
				"y": -1.0898059558,
				"z": 0.3171001676,
				"element": "H" 
			},
			{
				"x": -2.5533231749,
				"y": -2.4563120911,
				"z": -2.9437463915,
				"element": "H" 
			},
			{
				"x": -2.3180340317,
				"y": -4.0392719237,
				"z": -2.2092720258,
				"element": "H" 
			},
			{
				"x": -0.1719544882,
				"y": -2.7416063887,
				"z": -2.2561457422,
				"element": "H" 
			},
			{
				"x": -0.6701438881,
				"y": -3.1433063282,
				"z": -0.6218622118,
				"element": "H" 
			},
			{
				"x": -1.0329147274,
				"y": 0.8972351739,
				"z": -2.156835412,
				"element": "H" 
			},
			{
				"x": -2.1547903544,
				"y": -0.326430985,
				"z": -2.7230926617,
				"element": "H" 
			},
			{
				"x": -0.4661411434,
				"y": -0.4295509017,
				"z": -3.1807545163,
				"element": "H" 
			},
			{
				"x": -5.090485906,
				"y": -4.9039599586,
				"z": -1.6147420702,
				"element": "H" 
			},
			{
				"x": -6.398493394,
				"y": -3.852941708,
				"z": -1.0016471315,
				"element": "H" 
			},
			{
				"x": -4.5994234622,
				"y": -5.0606766548,
				"z": 0.7757059563,
				"element": "H" 
			},
			{
				"x": -5.1695976451,
				"y": -3.3909584292,
				"z": 1.0586801869,
				"element": "H" 
			},
			{
				"x": -0.4671565653,
				"y": 1.2194803478,
				"z": 1.039975124,
				"element": "H" 
			},
			{
				"x": -0.3228450773,
				"y": 1.0594611879,
				"z": 3.4152409958,
				"element": "H" 
			},
			{
				"x": 1.4148724232,
				"y": 0.7972793776,
				"z": 3.3881609254,
				"element": "H" 
			},
			{
				"x": 1.7534950134,
				"y": 3.1310022144,
				"z": 3.4046427682,
				"element": "H" 
			},
			{
				"x": 0.0219196829,
				"y": 3.4201523438,
				"z": 3.3041617367,
				"element": "H" 
			},
			{
				"x": 2.0340129777,
				"y": 4.6740682142,
				"z": 0.4403811522,
				"element": "H" 
			},
			{
				"x": -2.1042358858,
				"y": 4.6376340312,
				"z": -0.1085075251,
				"element": "H" 
			}
		],
		 "valence_orbital": [ 
			{
				"type": "occ",
				"energy": -0.26829,
				"method": "rhf"
			},
			{
				"type": "occ",
				"energy": -0.26645,
				"method": "rhf"
			},
			{
				"type": "occ",
				"energy": -0.26412,
				"method": "rhf"
			},
			{
				"type": "occ",
				"energy": -0.25061,
				"method": "rhf"
			},
			{
				"type": "occ",
				"energy": -0.24039,
				"method": "rhf"
			},
			{
				"type": "unocc",
				"energy": 0.03476,
				"method": "rhf"
			},
			{
				"type": "unocc",
				"energy": 0.0523,
				"method": "rhf"
			},
			{
				"type": "unocc",
				"energy": 0.06594,
				"method": "rhf"
			},
			{
				"type": "unocc",
				"energy": 0.08387,
				"method": "rhf"
			},
			{
				"type": "unocc",
				"energy": 0.08939,
				"method": "rhf"
			}
		],
		"cosmo_sigma_profile": { 
			"-0.025": 0.0,
			"-0.024": 0.0,
			"-0.023": 0.0,
			"-0.022": 0.0,
			"-0.021": 0.0,
			"-0.02": 0.0,
			"-0.019": 0.0,
			"-0.018": 0.0,
			"-0.017": 0.0,
			"-0.016": 0.034139554777,
			"-0.015": 0.560094842223,
			"-0.014": 0.75736911883,
			"-0.013": 0.786229792365,
			"-0.012": 0.759696748078,
			"-0.011": 2.08870431441,
			"-0.01": 1.22493342903,
			"-0.009": 1.84888056425,
			"-0.008": 2.81353211127,
			"-0.007": 2.23433482007,
			"-0.006": 4.34784192026,
			"-0.005": 9.49713686232,
			"-0.004": 19.6690833372,
			"-0.003": 32.0271579064,
			"-0.002": 50.1790537089,
			"-0.001": 62.8356505026,
			"0.0": 58.4442131091,
			"0.001": 43.8410289414,
			"0.002": 27.184014238,
			"0.003": 13.9341470446,
			"0.004": 10.4052172168,
			"0.005": 9.52719720037,
			"0.006": 9.04290588878,
			"0.007": 6.01896603919,
			"0.008": 3.76462912758,
			"0.009": 2.95146830557,
			"0.01": 3.51220901233,
			"0.011": 3.1884505197,
			"0.012": 3.57079346722,
			"0.013": 2.88987269166,
			"0.014": 0.471843329757,
			"0.015": 0.0,
			"0.016": 0.0,
			"0.017": 0.0,
			"0.018": 0.0,
			"0.019": 0.0,
			"0.02": 0.0,
			"0.021": 0.0,
			"0.022": 0.0,
			"0.023": 0.0,
			"0.024": 0.0,
			"0.025": 0.0
		}
	}
}
