{
	 "smiles": "[O-][N+](=O)C1=CC(=C(Cl)C=C1)S(=O)(=O)N1CCOCC1", 
	 "Tm": 423.15, 
	 "num_atms": 30, 
	 "gaussian": { 
		 "optdone": 1, 
		 "sigma_profile": "yes", 
		 "theory": "DFT", 
		 "functional": "B3LYP", 
		 "basiset": "6-31G**", 
		 "properties": { 
			 "R2extent": 6699.755, 
			 "electric_dipole_moment_norm": 4.9212005903, 
			 "electric_quadrupole_moment_norm": 13.6888197778, 
			 "total_energy": -1731.49544022, 
			 "HOMO_LUMO_gap": 0.15283, 
			 "cosmo_polarized_energy": -17.39, 
			 "cosmo_cavitation_energy": 36.68, 
			 "cosmo_dispersion_energy": -26.25, 
			 "cosmo_repulsion_energy": 1.96, 
			 "cosmo_total_nonelectrostatic_energy": 12.39, 
			 "SMD_solvation_energy": 7.04 
		},
		"coords": [
			{
				"x": 1.0913767469,
				"y": 3.3675171955,
				"z": -3.0076001825,
				"element": "O" 
			},
			{
				"x": 1.5362084515,
				"y": 3.6700351852,
				"z": -1.9032803479,
				"element": "N" 
			},
			{
				"x": 1.8074803572,
				"y": 4.8119556678,
				"z": -1.5357360919,
				"element": "O" 
			},
			{
				"x": 1.7605048355,
				"y": 2.5801240067,
				"z": -0.938261874,
				"element": "C" 
			},
			{
				"x": 1.4778891802,
				"y": 1.2738132984,
				"z": -1.321210617,
				"element": "C" 
			},
			{
				"x": 1.6792634906,
				"y": 0.2380693699,
				"z": -0.4092548396,
				"element": "C" 
			},
			{
				"x": 2.1722861119,
				"y": 0.5305981843,
				"z": 0.8751525339,
				"element": "C" 
			},
			{
				"x": 2.4541657779,
				"y": -0.7014922986,
				"z": 2.0715498691,
				"element": "Cl" 
			},
			{
				"x": 2.4510467014,
				"y": 1.8532101635,
				"z": 1.2357763864,
				"element": "C" 
			},
			{
				"x": 2.2468748223,
				"y": 2.887343636,
				"z": 0.329123033,
				"element": "C" 
			},
			{
				"x": 1.3411213084,
				"y": -1.4395920463,
				"z": -1.0135277436,
				"element": "S" 
			},
			{
				"x": 2.5040648052,
				"y": -2.2837195812,
				"z": -0.7449189493,
				"element": "O" 
			},
			{
				"x": 0.833449782,
				"y": -1.2693930935,
				"z": -2.3793347375,
				"element": "O" 
			},
			{
				"x": 0.1026070801,
				"y": -1.9298628213,
				"z": 0.0234440397,
				"element": "N" 
			},
			{
				"x": -1.260552641,
				"y": -1.5231184293,
				"z": -0.3716722921,
				"element": "C" 
			},
			{
				"x": -2.1874962736,
				"y": -1.7543521888,
				"z": 0.8230161794,
				"element": "C" 
			},
			{
				"x": -2.1387583393,
				"y": -3.1009370918,
				"z": 1.2651717526,
				"element": "O" 
			},
			{
				"x": -0.8231575247,
				"y": -3.4614067574,
				"z": 1.6632278385,
				"element": "C" 
			},
			{
				"x": 0.166014727,
				"y": -3.3252873655,
				"z": 0.5075232654,
				"element": "C" 
			},
			{
				"x": 1.1090544823,
				"y": 1.0578248229,
				"z": -2.3161946819,
				"element": "H" 
			},
			{
				"x": 2.8295877765,
				"y": 2.0610112977,
				"z": 2.229937842,
				"element": "H" 
			},
			{
				"x": 2.4568337141,
				"y": 3.917545949,
				"z": 0.5880154191,
				"element": "H" 
			},
			{
				"x": -1.261252925,
				"y": -0.4631438402,
				"z": -0.641274898,
				"element": "H" 
			},
			{
				"x": -1.6066527728,
				"y": -2.0989807364,
				"z": -1.2400403517,
				"element": "H" 
			},
			{
				"x": -3.2232393067,
				"y": -1.5539423666,
				"z": 0.5350296493,
				"element": "H" 
			},
			{
				"x": -1.9082123766,
				"y": -1.070931321,
				"z": 1.641067679,
				"element": "H" 
			},
			{
				"x": -0.4924068466,
				"y": -2.8346397245,
				"z": 2.5064105883,
				"element": "H" 
			},
			{
				"x": -0.8697347707,
				"y": -4.5026960988,
				"z": 1.9938181311,
				"element": "H" 
			},
			{
				"x": -0.1005220291,
				"y": -4.0321906358,
				"z": -0.2912275385,
				"element": "H" 
			},
			{
				"x": 1.1831556551,
				"y": -3.5383623799,
				"z": 0.8386709384,
				"element": "H" 
			}
		],
		 "valence_orbital": [ 
			{
				"type": "occ",
				"energy": -0.30815,
				"method": "rhf"
			},
			{
				"type": "occ",
				"energy": -0.30687,
				"method": "rhf"
			},
			{
				"type": "occ",
				"energy": -0.29168,
				"method": "rhf"
			},
			{
				"type": "occ",
				"energy": -0.28339,
				"method": "rhf"
			},
			{
				"type": "occ",
				"energy": -0.26171,
				"method": "rhf"
			},
			{
				"type": "unocc",
				"energy": -0.10888,
				"method": "rhf"
			},
			{
				"type": "unocc",
				"energy": -0.06661,
				"method": "rhf"
			},
			{
				"type": "unocc",
				"energy": -0.03078,
				"method": "rhf"
			},
			{
				"type": "unocc",
				"energy": -0.00653,
				"method": "rhf"
			},
			{
				"type": "unocc",
				"energy": 0.04922,
				"method": "rhf"
			}
		],
		"cosmo_sigma_profile": { 
			"-0.025": 0.0,
			"-0.024": 0.0,
			"-0.023": 0.0,
			"-0.022": 0.0,
			"-0.021": 0.0,
			"-0.02": 0.0,
			"-0.019": 0.0,
			"-0.018": 0.0,
			"-0.017": 0.0,
			"-0.016": 0.0,
			"-0.015": 0.0,
			"-0.014": 0.0,
			"-0.013": 0.0,
			"-0.012": 0.0,
			"-0.011": 0.0,
			"-0.01": 0.928228194161,
			"-0.009": 3.72559364681,
			"-0.008": 4.46693292062,
			"-0.007": 7.42722885294,
			"-0.006": 17.8148850978,
			"-0.005": 25.818687032,
			"-0.004": 31.0014145596,
			"-0.003": 30.9026788687,
			"-0.002": 25.976069024,
			"-0.001": 19.8515776412,
			"0.0": 13.2107930052,
			"0.001": 12.2960817663,
			"0.002": 14.0741261987,
			"0.003": 9.06640224734,
			"0.004": 8.31027719772,
			"0.005": 8.72414366038,
			"0.006": 8.73785621115,
			"0.007": 12.6849270555,
			"0.008": 10.9252430378,
			"0.009": 9.71476746138,
			"0.01": 10.0382855161,
			"0.011": 5.73904815893,
			"0.012": 1.51041979753,
			"0.013": 0.992938640217,
			"0.014": 0.0,
			"0.015": 0.0,
			"0.016": 0.0,
			"0.017": 0.0,
			"0.018": 0.0,
			"0.019": 0.0,
			"0.02": 0.0,
			"0.021": 0.0,
			"0.022": 0.0,
			"0.023": 0.0,
			"0.024": 0.0,
			"0.025": 0.0
		}
	}
}
