{
	 "smiles": "COC1=CC=C(NC(N)=S)C=C1", 
	 "Tm": 482.15, 
	 "num_atms": 22, 
	 "gaussian": { 
		 "optdone": 1, 
		 "sigma_profile": "yes", 
		 "theory": "DFT", 
		 "functional": "B3LYP", 
		 "basiset": "6-31G**", 
		 "properties": { 
			 "R2extent": 3513.8833, 
			 "electric_dipole_moment_norm": 6.74234035777, 
			 "electric_quadrupole_moment_norm": 18.7462227307, 
			 "total_energy": -893.79745309, 
			 "HOMO_LUMO_gap": 0.17646, 
			 "cosmo_polarized_energy": -18.58, 
			 "cosmo_cavitation_energy": 27.72, 
			 "cosmo_dispersion_energy": -20.95, 
			 "cosmo_repulsion_energy": 1.64, 
			 "cosmo_total_nonelectrostatic_energy": 8.42, 
			 "SMD_solvation_energy": 4.68 
		},
		"coords": [
			{
				"x": 3.3125852471,
				"y": -3.4728826954,
				"z": 0.0037226405,
				"element": "C" 
			},
			{
				"x": 3.1973742947,
				"y": -2.1451590925,
				"z": 0.4931235989,
				"element": "O" 
			},
			{
				"x": 2.0001312121,
				"y": -1.5085909821,
				"z": 0.3589370645,
				"element": "C" 
			},
			{
				"x": 0.8608368931,
				"y": -2.0647978604,
				"z": -0.2359165862,
				"element": "C" 
			},
			{
				"x": -0.3095034696,
				"y": -1.309950795,
				"z": -0.3324058542,
				"element": "C" 
			},
			{
				"x": -0.3732426357,
				"y": -0.0097131835,
				"z": 0.1768912287,
				"element": "C" 
			},
			{
				"x": -1.5998020144,
				"y": 0.7051328076,
				"z": 0.1092702058,
				"element": "N" 
			},
			{
				"x": -1.8250704661,
				"y": 1.9852523998,
				"z": -0.3146084244,
				"element": "C" 
			},
			{
				"x": -0.7425119064,
				"y": 2.6885276852,
				"z": -0.7419450327,
				"element": "N" 
			},
			{
				"x": -3.3718144638,
				"y": 2.6473988849,
				"z": -0.2829233053,
				"element": "S" 
			},
			{
				"x": 0.7664906778,
				"y": 0.5322347003,
				"z": 0.7970318254,
				"element": "C" 
			},
			{
				"x": 1.9418643804,
				"y": -0.2034324233,
				"z": 0.8712454266,
				"element": "C" 
			},
			{
				"x": 3.1380111314,
				"y": -3.5217750734,
				"z": -1.0787861103,
				"element": "H" 
			},
			{
				"x": 2.6163877956,
				"y": -4.1528760619,
				"z": 0.5111788322,
				"element": "H" 
			},
			{
				"x": 4.3363163413,
				"y": -3.7839083218,
				"z": 0.2160452929,
				"element": "H" 
			},
			{
				"x": 0.8738198685,
				"y": -3.0713259809,
				"z": -0.6363043627,
				"element": "H" 
			},
			{
				"x": -1.184786666,
				"y": -1.7373249842,
				"z": -0.8134486056,
				"element": "H" 
			},
			{
				"x": -2.4508504379,
				"y": 0.2104742651,
				"z": 0.337526884,
				"element": "H" 
			},
			{
				"x": -0.9432994677,
				"y": 3.5737783314,
				"z": -1.1793039288,
				"element": "H" 
			},
			{
				"x": 0.1121050873,
				"y": 2.2129326158,
				"z": -0.9969714104,
				"element": "H" 
			},
			{
				"x": 0.7205926396,
				"y": 1.5239357166,
				"z": 1.2345333089,
				"element": "H" 
			},
			{
				"x": 2.8272659588,
				"y": 0.2057700477,
				"z": 1.3464073122,
				"element": "H" 
			}
		],
		 "valence_orbital": [ 
			{
				"type": "occ",
				"energy": -0.28496,
				"method": "rhf"
			},
			{
				"type": "occ",
				"energy": -0.2702,
				"method": "rhf"
			},
			{
				"type": "occ",
				"energy": -0.23214,
				"method": "rhf"
			},
			{
				"type": "occ",
				"energy": -0.20273,
				"method": "rhf"
			},
			{
				"type": "occ",
				"energy": -0.19998,
				"method": "rhf"
			},
			{
				"type": "unocc",
				"energy": -0.02352,
				"method": "rhf"
			},
			{
				"type": "unocc",
				"energy": -0.01843,
				"method": "rhf"
			},
			{
				"type": "unocc",
				"energy": 0.02097,
				"method": "rhf"
			},
			{
				"type": "unocc",
				"energy": 0.07342,
				"method": "rhf"
			},
			{
				"type": "unocc",
				"energy": 0.08254,
				"method": "rhf"
			}
		],
		"cosmo_sigma_profile": { 
			"-0.025": 0.0,
			"-0.024": 0.0,
			"-0.023": 0.0,
			"-0.022": 0.0,
			"-0.021": 0.0,
			"-0.02": 0.0,
			"-0.019": 0.0,
			"-0.018": 0.0,
			"-0.017": 0.0,
			"-0.016": 0.0,
			"-0.015": 0.155155429175,
			"-0.014": 2.21919461631,
			"-0.013": 3.08198575503,
			"-0.012": 2.85249612598,
			"-0.011": 2.62855643243,
			"-0.01": 3.17661497356,
			"-0.009": 3.13744148107,
			"-0.008": 3.11481098923,
			"-0.007": 5.81998127457,
			"-0.006": 14.2172325992,
			"-0.005": 18.5759180035,
			"-0.004": 16.6449409594,
			"-0.003": 15.5939990706,
			"-0.002": 10.6213419632,
			"-0.001": 9.70898235792,
			"0.0": 10.5559004732,
			"0.001": 11.0865794922,
			"0.002": 11.0576964294,
			"0.003": 14.0687170219,
			"0.004": 14.4163279055,
			"0.005": 7.60427515551,
			"0.006": 5.59529998525,
			"0.007": 4.16848245049,
			"0.008": 4.08414718736,
			"0.009": 5.44967284787,
			"0.01": 6.17057086073,
			"0.011": 7.4777671881,
			"0.012": 7.37257599543,
			"0.013": 2.46567161513,
			"0.014": 0.0,
			"0.015": 0.0,
			"0.016": 0.0,
			"0.017": 0.0,
			"0.018": 0.0,
			"0.019": 0.0,
			"0.02": 0.0,
			"0.021": 0.0,
			"0.022": 0.0,
			"0.023": 0.0,
			"0.024": 0.0,
			"0.025": 0.0
		}
	}
}
