{
	 "smiles": "[O-][N+](=O)C1=CC(Br)=CN=C1", 
	 "Tm": 373.15, 
	 "num_atms": 13, 
	 "gaussian": { 
		 "optdone": 1, 
		 "sigma_profile": "yes", 
		 "theory": "DFT", 
		 "functional": "B3LYP", 
		 "basiset": "6-31G**", 
		 "properties": { 
			 "R2extent": 2796.3118, 
			 "electric_dipole_moment_norm": 2.55660560314, 
			 "electric_quadrupole_moment_norm": 4.78653846741, 
			 "total_energy": -3023.57748606, 
			 "HOMO_LUMO_gap": 0.17094, 
			 "cosmo_polarized_energy": -7.8, 
			 "cosmo_cavitation_energy": 21.07, 
			 "cosmo_dispersion_energy": -16.04, 
			 "cosmo_repulsion_energy": 1.29, 
			 "cosmo_total_nonelectrostatic_energy": 6.32, 
			 "SMD_solvation_energy": 3.49 
		},
		"coords": [
			{
				"x": -1.3825751107,
				"y": 1.4834040191,
				"z": -1.8448899262,
				"element": "O" 
			},
			{
				"x": -0.6988696579,
				"y": 1.6896715693,
				"z": -0.8445130578,
				"element": "N" 
			},
			{
				"x": -0.4231715514,
				"y": 2.7959229508,
				"z": -0.3863789384,
				"element": "O" 
			},
			{
				"x": -0.1659175923,
				"y": 0.5151696657,
				"z": -0.136209946,
				"element": "C" 
			},
			{
				"x": -0.4533945633,
				"y": -0.7575173725,
				"z": -0.620202779,
				"element": "C" 
			},
			{
				"x": 0.0768346665,
				"y": -1.8276977348,
				"z": 0.0897841192,
				"element": "C" 
			},
			{
				"x": -0.2446354374,
				"y": -3.6144785019,
				"z": -0.470586369,
				"element": "Br" 
			},
			{
				"x": 0.8544695378,
				"y": -1.5831095109,
				"z": 1.2279722587,
				"element": "C" 
			},
			{
				"x": 1.1184902912,
				"y": -0.3520029942,
				"z": 1.6757974529,
				"element": "N" 
			},
			{
				"x": 0.6164702043,
				"y": 0.6889343297,
				"z": 1.0051238966,
				"element": "C" 
			},
			{
				"x": -1.0613768776,
				"y": -0.8846496442,
				"z": -1.5066681103,
				"element": "H" 
			},
			{
				"x": 1.2739748089,
				"y": -2.4128696732,
				"z": 1.7905365626,
				"element": "H" 
			},
			{
				"x": 0.833801282,
				"y": 1.6859228972,
				"z": 1.3729348367,
				"element": "H" 
			}
		],
		 "valence_orbital": [ 
			{
				"type": "occ",
				"energy": -0.32546,
				"method": "rhf"
			},
			{
				"type": "occ",
				"energy": -0.31998,
				"method": "rhf"
			},
			{
				"type": "occ",
				"energy": -0.31063,
				"method": "rhf"
			},
			{
				"type": "occ",
				"energy": -0.2909,
				"method": "rhf"
			},
			{
				"type": "occ",
				"energy": -0.28166,
				"method": "rhf"
			},
			{
				"type": "unocc",
				"energy": -0.11072,
				"method": "rhf"
			},
			{
				"type": "unocc",
				"energy": -0.06396,
				"method": "rhf"
			},
			{
				"type": "unocc",
				"energy": -0.02649,
				"method": "rhf"
			},
			{
				"type": "unocc",
				"energy": -0.02117,
				"method": "rhf"
			},
			{
				"type": "unocc",
				"energy": 0.09649,
				"method": "rhf"
			}
		],
		"cosmo_sigma_profile": { 
			"-0.025": 0.0,
			"-0.024": 0.0,
			"-0.023": 0.0,
			"-0.022": 0.0,
			"-0.021": 0.0,
			"-0.02": 0.0,
			"-0.019": 0.0,
			"-0.018": 0.0,
			"-0.017": 0.0,
			"-0.016": 0.0,
			"-0.015": 0.0,
			"-0.014": 0.0,
			"-0.013": 0.0,
			"-0.012": 0.0,
			"-0.011": 0.0,
			"-0.01": 0.191547788158,
			"-0.009": 3.52864064428,
			"-0.008": 5.15200351654,
			"-0.007": 5.6547173035,
			"-0.006": 8.34506232255,
			"-0.005": 8.99419575277,
			"-0.004": 13.7944060935,
			"-0.003": 18.3835908795,
			"-0.002": 15.7141046646,
			"-0.001": 10.3663372865,
			"0.0": 8.82240773763,
			"0.001": 9.10215231855,
			"0.002": 10.0735756938,
			"0.003": 14.775173048,
			"0.004": 5.65492174049,
			"0.005": 4.95827809294,
			"0.006": 7.31132251699,
			"0.007": 9.42288816713,
			"0.008": 5.18393073654,
			"0.009": 3.92099248853,
			"0.01": 1.47093695437,
			"0.011": 1.02511321753,
			"0.012": 0.761431753046,
			"0.013": 0.708232503896,
			"0.014": 0.553779613635,
			"0.015": 0.0,
			"0.016": 0.0,
			"0.017": 0.0,
			"0.018": 0.0,
			"0.019": 0.0,
			"0.02": 0.0,
			"0.021": 0.0,
			"0.022": 0.0,
			"0.023": 0.0,
			"0.024": 0.0,
			"0.025": 0.0
		}
	}
}
