{
	 "smiles": "OC(=O)CC(CC(O)=O)C1=CC=CC=C1", 
	 "Tm": 414.65, 
	 "num_atms": 27, 
	 "gaussian": { 
		 "optdone": 1, 
		 "sigma_profile": "yes", 
		 "theory": "DFT", 
		 "functional": "B3LYP", 
		 "basiset": "6-31G**", 
		 "properties": { 
			 "R2extent": 3587.3089, 
			 "electric_dipole_moment_norm": 3.76609227317, 
			 "electric_quadrupole_moment_norm": 29.1429027044, 
			 "total_energy": -727.323499813, 
			 "HOMO_LUMO_gap": 0.2309, 
			 "cosmo_polarized_energy": -19.54, 
			 "cosmo_cavitation_energy": 30.61, 
			 "cosmo_dispersion_energy": -21.17, 
			 "cosmo_repulsion_energy": 1.68, 
			 "cosmo_total_nonelectrostatic_energy": 11.11, 
			 "SMD_solvation_energy": 7.26 
		},
		"coords": [
			{
				"x": -2.9489417124,
				"y": -2.1528622628,
				"z": 0.4511339776,
				"element": "O" 
			},
			{
				"x": -2.0677414106,
				"y": -2.1868378178,
				"z": -0.5857181841,
				"element": "C" 
			},
			{
				"x": -1.5585931559,
				"y": -3.2178655248,
				"z": -0.9598853566,
				"element": "O" 
			},
			{
				"x": -1.8485898742,
				"y": -0.8248053333,
				"z": -1.2130438216,
				"element": "C" 
			},
			{
				"x": -1.3265285344,
				"y": 0.3148993856,
				"z": -0.2895891783,
				"element": "C" 
			},
			{
				"x": -2.4058252008,
				"y": 0.8094622618,
				"z": 0.708709008,
				"element": "C" 
			},
			{
				"x": -2.1182944097,
				"y": 2.1730259345,
				"z": 1.3339861141,
				"element": "C" 
			},
			{
				"x": -0.9526482506,
				"y": 2.2974238929,
				"z": 2.0158825054,
				"element": "O" 
			},
			{
				"x": -2.8786228629,
				"y": 3.1072018582,
				"z": 1.2579701879,
				"element": "O" 
			},
			{
				"x": 0.0105928222,
				"y": -0.0508566488,
				"z": 0.3505648082,
				"element": "C" 
			},
			{
				"x": 0.0960683401,
				"y": -0.9160329365,
				"z": 1.4557268887,
				"element": "C" 
			},
			{
				"x": 1.3351926716,
				"y": -1.2546947741,
				"z": 2.0048920192,
				"element": "C" 
			},
			{
				"x": 2.5110504825,
				"y": -0.7381754547,
				"z": 1.4599851452,
				"element": "C" 
			},
			{
				"x": 2.4411872875,
				"y": 0.1227557673,
				"z": 0.3632656288,
				"element": "C" 
			},
			{
				"x": 1.2031906773,
				"y": 0.4633494189,
				"z": -0.1815527284,
				"element": "C" 
			},
			{
				"x": -3.0384900673,
				"y": -3.0726688819,
				"z": 0.7544023384,
				"element": "H" 
			},
			{
				"x": -1.137712868,
				"y": -0.9820956939,
				"z": -2.0265810186,
				"element": "H" 
			},
			{
				"x": -2.8015899448,
				"y": -0.5069318778,
				"z": -1.6542463307,
				"element": "H" 
			},
			{
				"x": -1.1321420201,
				"y": 1.1482811637,
				"z": -0.9759139957,
				"element": "H" 
			},
			{
				"x": -3.3610816196,
				"y": 0.9155075888,
				"z": 0.1909647747,
				"element": "H" 
			},
			{
				"x": -2.5587022756,
				"y": 0.0754569038,
				"z": 1.5061144355,
				"element": "H" 
			},
			{
				"x": -0.435063422,
				"y": 1.4774734376,
				"z": 1.9615556445,
				"element": "H" 
			},
			{
				"x": -0.8078422304,
				"y": -1.3371726434,
				"z": 1.8857595825,
				"element": "H" 
			},
			{
				"x": 1.3783279556,
				"y": -1.9251461176,
				"z": 2.858221123,
				"element": "H" 
			},
			{
				"x": 3.4734065937,
				"y": -1.0008795039,
				"z": 1.8887596787,
				"element": "H" 
			},
			{
				"x": 3.3498221759,
				"y": 0.5353517622,
				"z": -0.0652003027,
				"element": "H" 
			},
			{
				"x": 1.1576708528,
				"y": 1.1412360961,
				"z": -1.0302629435,
				"element": "H" 
			}
		],
		 "valence_orbital": [ 
			{
				"type": "occ",
				"energy": -0.30597,
				"method": "rhf"
			},
			{
				"type": "occ",
				"energy": -0.2864,
				"method": "rhf"
			},
			{
				"type": "occ",
				"energy": -0.27083,
				"method": "rhf"
			},
			{
				"type": "occ",
				"energy": -0.26654,
				"method": "rhf"
			},
			{
				"type": "occ",
				"energy": -0.25949,
				"method": "rhf"
			},
			{
				"type": "unocc",
				"energy": -0.02859,
				"method": "rhf"
			},
			{
				"type": "unocc",
				"energy": -0.02414,
				"method": "rhf"
			},
			{
				"type": "unocc",
				"energy": -0.00518,
				"method": "rhf"
			},
			{
				"type": "unocc",
				"energy": 0.01786,
				"method": "rhf"
			},
			{
				"type": "unocc",
				"energy": 0.05919,
				"method": "rhf"
			}
		],
		"cosmo_sigma_profile": { 
			"-0.025": 0.0,
			"-0.024": 0.0,
			"-0.023": 0.0,
			"-0.022": 0.0,
			"-0.021": 0.0,
			"-0.02": 0.0,
			"-0.019": 0.0,
			"-0.018": 0.476471216039,
			"-0.017": 1.37376298704,
			"-0.016": 0.659976203218,
			"-0.015": 0.515553708486,
			"-0.014": 0.640567948038,
			"-0.013": 0.983402999233,
			"-0.012": 0.797726298863,
			"-0.011": 0.699889102177,
			"-0.01": 1.40799019594,
			"-0.009": 2.56910331165,
			"-0.008": 3.02087530599,
			"-0.007": 8.90746304911,
			"-0.006": 21.9989920603,
			"-0.005": 23.5859855621,
			"-0.004": 20.0115514033,
			"-0.003": 17.0053006351,
			"-0.002": 14.9143224676,
			"-0.001": 10.633736252,
			"0.0": 11.3075259693,
			"0.001": 10.356193681,
			"0.002": 10.4801535062,
			"0.003": 12.633310507,
			"0.004": 10.8349790081,
			"0.005": 8.25241797219,
			"0.006": 4.58884695036,
			"0.007": 4.38341195586,
			"0.008": 3.96302283992,
			"0.009": 4.97140169081,
			"0.01": 5.87703628262,
			"0.011": 10.221366162,
			"0.012": 9.92362174651,
			"0.013": 3.78469998997,
			"0.014": 0.2703871429,
			"0.015": 0.0,
			"0.016": 0.0,
			"0.017": 0.0,
			"0.018": 0.0,
			"0.019": 0.0,
			"0.02": 0.0,
			"0.021": 0.0,
			"0.022": 0.0,
			"0.023": 0.0,
			"0.024": 0.0,
			"0.025": 0.0
		}
	}
}
