{
	 "smiles": "[N-]=[N+]=NC(=O)C1=CC=CO1", 
	 "Tm": 334.15, 
	 "num_atms": 13, 
	 "gaussian": { 
		 "optdone": 1, 
		 "sigma_profile": "yes", 
		 "theory": "DFT", 
		 "functional": "B3LYP", 
		 "basiset": "6-31G**", 
		 "properties": { 
			 "R2extent": 1665.7199, 
			 "electric_dipole_moment_norm": 3.83796273171, 
			 "electric_quadrupole_moment_norm": 6.41904672829, 
			 "total_energy": -506.948151926, 
			 "HOMO_LUMO_gap": 0.18013, 
			 "cosmo_polarized_energy": -8.45, 
			 "cosmo_cavitation_energy": 20.19, 
			 "cosmo_dispersion_energy": -14.42, 
			 "cosmo_repulsion_energy": 1.19, 
			 "cosmo_total_nonelectrostatic_energy": 6.96, 
			 "SMD_solvation_energy": 3.73 
		},
		"coords": [
			{
				"x": 1.2578212487,
				"y": -2.1534946169,
				"z": 3.3175786961,
				"element": "N" 
			},
			{
				"x": 0.939810657,
				"y": -1.3910260293,
				"z": 2.5413514027,
				"element": "N" 
			},
			{
				"x": 0.5252142345,
				"y": -0.5007131691,
				"z": 1.7757420635,
				"element": "N" 
			},
			{
				"x": 1.0117518646,
				"y": -0.5987917341,
				"z": 0.4264874287,
				"element": "C" 
			},
			{
				"x": 1.7654456312,
				"y": -1.4645153998,
				"z": 0.0317090095,
				"element": "O" 
			},
			{
				"x": 0.4654771674,
				"y": 0.4884818819,
				"z": -0.3783692542,
				"element": "C" 
			},
			{
				"x": -0.3824678144,
				"y": 1.5324502122,
				"z": -0.0994474015,
				"element": "C" 
			},
			{
				"x": -0.537340353,
				"y": 2.2566233768,
				"z": -1.3149595553,
				"element": "C" 
			},
			{
				"x": 0.226434452,
				"y": 1.6005326714,
				"z": -2.2410828189,
				"element": "C" 
			},
			{
				"x": 0.8401741907,
				"y": 0.5286644216,
				"z": -1.6921711348,
				"element": "O" 
			},
			{
				"x": -0.8303867601,
				"y": 1.741685677,
				"z": 0.8603661673,
				"element": "H" 
			},
			{
				"x": -1.1326115894,
				"y": 3.1423447524,
				"z": -1.4819180913,
				"element": "H" 
			},
			{
				"x": 0.4246770706,
				"y": 1.7701579559,
				"z": -3.2884865119,
				"element": "H" 
			}
		],
		 "valence_orbital": [ 
			{
				"type": "occ",
				"energy": -0.35398,
				"method": "rhf"
			},
			{
				"type": "occ",
				"energy": -0.30317,
				"method": "rhf"
			},
			{
				"type": "occ",
				"energy": -0.2905,
				"method": "rhf"
			},
			{
				"type": "occ",
				"energy": -0.27956,
				"method": "rhf"
			},
			{
				"type": "occ",
				"energy": -0.25243,
				"method": "rhf"
			},
			{
				"type": "unocc",
				"energy": -0.0723,
				"method": "rhf"
			},
			{
				"type": "unocc",
				"energy": -0.04786,
				"method": "rhf"
			},
			{
				"type": "unocc",
				"energy": -0.00277,
				"method": "rhf"
			},
			{
				"type": "unocc",
				"energy": 0.03451,
				"method": "rhf"
			},
			{
				"type": "unocc",
				"energy": 0.10355,
				"method": "rhf"
			}
		],
		"cosmo_sigma_profile": { 
			"-0.025": 0.0,
			"-0.024": 0.0,
			"-0.023": 0.0,
			"-0.022": 0.0,
			"-0.021": 0.0,
			"-0.02": 0.0,
			"-0.019": 0.0,
			"-0.018": 0.0,
			"-0.017": 0.0,
			"-0.016": 0.0,
			"-0.015": 0.0,
			"-0.014": 0.0,
			"-0.013": 0.0,
			"-0.012": 0.0,
			"-0.011": 0.359625670499,
			"-0.01": 1.84050822008,
			"-0.009": 2.38554352639,
			"-0.008": 5.20905872757,
			"-0.007": 5.63232330066,
			"-0.006": 10.0538847282,
			"-0.005": 9.13367515788,
			"-0.004": 9.55070227343,
			"-0.003": 10.5080645413,
			"-0.002": 8.68743341734,
			"-0.001": 12.2288227218,
			"0.0": 15.8808897345,
			"0.001": 14.6713791635,
			"0.002": 12.6744145126,
			"0.003": 9.95890125552,
			"0.004": 7.37903776124,
			"0.005": 6.04738537206,
			"0.006": 4.26478084057,
			"0.007": 2.46855739339,
			"0.008": 3.07099731157,
			"0.009": 1.94635863776,
			"0.01": 4.55967278869,
			"0.011": 4.78451024071,
			"0.012": 1.3593813497,
			"0.013": 0.0,
			"0.014": 0.0,
			"0.015": 0.0,
			"0.016": 0.0,
			"0.017": 0.0,
			"0.018": 0.0,
			"0.019": 0.0,
			"0.02": 0.0,
			"0.021": 0.0,
			"0.022": 0.0,
			"0.023": 0.0,
			"0.024": 0.0,
			"0.025": 0.0
		}
	}
}
