{
	 "smiles": "CCOC(=O)CC(=O)C=P(C1=CC=CC=C1)(C1=CC=CC=C1)C1=CC=CC=C1", 
	 "Tm": 377.15, 
	 "num_atms": 51, 
	 "gaussian": { 
		 "optdone": 1, 
		 "sigma_profile": "yes", 
		 "theory": "DFT", 
		 "functional": "B3LYP", 
		 "basiset": "6-31G**", 
		 "properties": { 
			 "R2extent": 12012.3787, 
			 "electric_dipole_moment_norm": 4.2215925585, 
			 "electric_quadrupole_moment_norm": 12.4286772888, 
			 "total_energy": -1495.43026794, 
			 "HOMO_LUMO_gap": 0.15021, 
			 "cosmo_polarized_energy": -20.69, 
			 "cosmo_cavitation_energy": 55.3, 
			 "cosmo_dispersion_energy": -35.95, 
			 "cosmo_repulsion_energy": 2.74, 
			 "cosmo_total_nonelectrostatic_energy": 22.09, 
			 "SMD_solvation_energy": 11.23 
		},
		"coords": [
			{
				"x": -2.2469978175,
				"y": -5.4476501331,
				"z": -1.0483003128,
				"element": "C" 
			},
			{
				"x": -1.9646502511,
				"y": -4.9678064226,
				"z": -2.4642659002,
				"element": "C" 
			},
			{
				"x": -0.7300130767,
				"y": -4.2148847509,
				"z": -2.5234536711,
				"element": "O" 
			},
			{
				"x": -0.8107450481,
				"y": -2.898585594,
				"z": -2.2309647571,
				"element": "C" 
			},
			{
				"x": -1.8509304951,
				"y": -2.3339971381,
				"z": -1.9529105119,
				"element": "O" 
			},
			{
				"x": 0.5455020591,
				"y": -2.2252725188,
				"z": -2.324039852,
				"element": "C" 
			},
			{
				"x": 0.7642635219,
				"y": -1.3237181183,
				"z": -1.0942965323,
				"element": "C" 
			},
			{
				"x": 0.9534921719,
				"y": -1.8890688165,
				"z": 0.0042318688,
				"element": "O" 
			},
			{
				"x": 0.6839430733,
				"y": 0.0703280229,
				"z": -1.2904654054,
				"element": "C" 
			},
			{
				"x": 0.5952629043,
				"y": 1.1245990538,
				"z": 0.0796561012,
				"element": "P" 
			},
			{
				"x": -0.7722942959,
				"y": 0.7205311463,
				"z": 1.2291168289,
				"element": "C" 
			},
			{
				"x": -0.7841585367,
				"y": 1.2008829856,
				"z": 2.5476866122,
				"element": "C" 
			},
			{
				"x": -1.8629554662,
				"y": 0.9165669581,
				"z": 3.3850522114,
				"element": "C" 
			},
			{
				"x": -2.9259174441,
				"y": 0.1417105228,
				"z": 2.9150200705,
				"element": "C" 
			},
			{
				"x": -2.9085699791,
				"y": -0.3491968548,
				"z": 1.6081682949,
				"element": "C" 
			},
			{
				"x": -1.8368650246,
				"y": -0.0634889841,
				"z": 0.7613912853,
				"element": "C" 
			},
			{
				"x": 0.2793245657,
				"y": 2.796082371,
				"z": -0.5936746284,
				"element": "C" 
			},
			{
				"x": -0.7717103409,
				"y": 3.5972431834,
				"z": -0.1280087647,
				"element": "C" 
			},
			{
				"x": -0.9885070889,
				"y": 4.8618815288,
				"z": -0.6796204143,
				"element": "C" 
			},
			{
				"x": -0.1598450156,
				"y": 5.3356761972,
				"z": -1.6967684689,
				"element": "C" 
			},
			{
				"x": 0.8906522654,
				"y": 4.5424065581,
				"z": -2.1653667602,
				"element": "C" 
			},
			{
				"x": 1.11182773,
				"y": 3.27976065,
				"z": -1.6178934322,
				"element": "C" 
			},
			{
				"x": 2.0956618751,
				"y": 1.271759464,
				"z": 1.1305172179,
				"element": "C" 
			},
			{
				"x": 2.61040906,
				"y": 2.5255055515,
				"z": 1.4957529567,
				"element": "C" 
			},
			{
				"x": 3.7516539539,
				"y": 2.609724493,
				"z": 2.2959830332,
				"element": "C" 
			},
			{
				"x": 4.3867498691,
				"y": 1.4468183117,
				"z": 2.7327968957,
				"element": "C" 
			},
			{
				"x": 3.8781243946,
				"y": 0.1973771944,
				"z": 2.3693810189,
				"element": "C" 
			},
			{
				"x": 2.7369259466,
				"y": 0.1007412069,
				"z": 1.5737550334,
				"element": "C" 
			},
			{
				"x": -3.1462314663,
				"y": -6.0731508919,
				"z": -1.0387333946,
				"element": "H" 
			},
			{
				"x": -1.4107100927,
				"y": -6.0387484433,
				"z": -0.6641958564,
				"element": "H" 
			},
			{
				"x": -2.4101445564,
				"y": -4.5971753057,
				"z": -0.3822338883,
				"element": "H" 
			},
			{
				"x": -2.7790044196,
				"y": -4.3428238691,
				"z": -2.8388252001,
				"element": "H" 
			},
			{
				"x": -1.8053561536,
				"y": -5.8060155229,
				"z": -3.1473323999,
				"element": "H" 
			},
			{
				"x": 0.5678050553,
				"y": -1.6527637972,
				"z": -3.2579156217,
				"element": "H" 
			},
			{
				"x": 1.3272806735,
				"y": -2.9866305104,
				"z": -2.3588179799,
				"element": "H" 
			},
			{
				"x": 0.4835114034,
				"y": 0.5125065996,
				"z": -2.2577411407,
				"element": "H" 
			},
			{
				"x": 0.0497183216,
				"y": 1.7863473854,
				"z": 2.9232969771,
				"element": "H" 
			},
			{
				"x": -1.8681614237,
				"y": 1.2909556306,
				"z": 4.4047056643,
				"element": "H" 
			},
			{
				"x": -3.7620327993,
				"y": -0.085661144,
				"z": 3.5705121956,
				"element": "H" 
			},
			{
				"x": -3.7257822498,
				"y": -0.9651195359,
				"z": 1.2447439568,
				"element": "H" 
			},
			{
				"x": -1.8164248118,
				"y": -0.4649912092,
				"z": -0.2475967158,
				"element": "H" 
			},
			{
				"x": -1.424499738,
				"y": 3.2332872249,
				"z": 0.6580806805,
				"element": "H" 
			},
			{
				"x": -1.8087288692,
				"y": 5.4731094137,
				"z": -0.3147975562,
				"element": "H" 
			},
			{
				"x": -0.3313999696,
				"y": 6.3190071094,
				"z": -2.1250607526,
				"element": "H" 
			},
			{
				"x": 1.5379053308,
				"y": 4.9063893716,
				"z": -2.9578842856,
				"element": "H" 
			},
			{
				"x": 1.9275160203,
				"y": 2.6654446746,
				"z": -1.9867579356,
				"element": "H" 
			},
			{
				"x": 2.1285073918,
				"y": 3.4364493794,
				"z": 1.1563357591,
				"element": "H" 
			},
			{
				"x": 4.1428600583,
				"y": 3.5843022612,
				"z": 2.5739385462,
				"element": "H" 
			},
			{
				"x": 5.2760333481,
				"y": 1.513751737,
				"z": 3.3534096317,
				"element": "H" 
			},
			{
				"x": 4.371792423,
				"y": -0.7096612988,
				"z": 2.706368732,
				"element": "H" 
			},
			{
				"x": 2.3310130134,
				"y": -0.8641353271,
				"z": 1.2817205665,
				"element": "H" 
			}
		],
		 "valence_orbital": [ 
			{
				"type": "occ",
				"energy": -0.25547,
				"method": "rhf"
			},
			{
				"type": "occ",
				"energy": -0.25255,
				"method": "rhf"
			},
			{
				"type": "occ",
				"energy": -0.25029,
				"method": "rhf"
			},
			{
				"type": "occ",
				"energy": -0.20627,
				"method": "rhf"
			},
			{
				"type": "occ",
				"energy": -0.18504,
				"method": "rhf"
			},
			{
				"type": "unocc",
				"energy": -0.03483,
				"method": "rhf"
			},
			{
				"type": "unocc",
				"energy": -0.02684,
				"method": "rhf"
			},
			{
				"type": "unocc",
				"energy": -0.02173,
				"method": "rhf"
			},
			{
				"type": "unocc",
				"energy": -0.0193,
				"method": "rhf"
			},
			{
				"type": "unocc",
				"energy": -0.0038,
				"method": "rhf"
			}
		],
		"cosmo_sigma_profile": { 
			"-0.025": 0.0,
			"-0.024": 0.0,
			"-0.023": 0.0,
			"-0.022": 0.0,
			"-0.021": 0.0,
			"-0.02": 0.0,
			"-0.019": 0.0,
			"-0.018": 0.0,
			"-0.017": 0.0,
			"-0.016": 0.0,
			"-0.015": 0.0,
			"-0.014": 0.0,
			"-0.013": 0.0,
			"-0.012": 0.0,
			"-0.011": 0.0,
			"-0.01": 0.0,
			"-0.009": 0.0,
			"-0.008": 0.0434505861123,
			"-0.007": 5.75178584246,
			"-0.006": 28.2816949146,
			"-0.005": 38.1975472408,
			"-0.004": 43.4838498178,
			"-0.003": 37.1979956739,
			"-0.002": 36.416636049,
			"-0.001": 35.4680814914,
			"0.0": 33.7361362112,
			"0.001": 29.9702670215,
			"0.002": 30.2640273576,
			"0.003": 31.3736762398,
			"0.004": 32.427966586,
			"0.005": 13.6592534476,
			"0.006": 8.88803439254,
			"0.007": 6.08643395533,
			"0.008": 6.22250116321,
			"0.009": 6.07515058737,
			"0.01": 2.96992094415,
			"0.011": 4.19141095873,
			"0.012": 2.80770374361,
			"0.013": 1.28352361085,
			"0.014": 1.80126605863,
			"0.015": 1.92412052055,
			"0.016": 1.79466096922,
			"0.017": 0.305894219945,
			"0.018": 0.0,
			"0.019": 0.0,
			"0.02": 0.0,
			"0.021": 0.0,
			"0.022": 0.0,
			"0.023": 0.0,
			"0.024": 0.0,
			"0.025": 0.0
		}
	}
}
