{
	 "smiles": "OC1=NC(O)=C2N=CNC2=N1", 
	 "Tm": 573.15, 
	 "num_atms": 15, 
	 "gaussian": { 
		 "optdone": 1, 
		 "sigma_profile": "yes", 
		 "theory": "DFT", 
		 "functional": "B3LYP", 
		 "basiset": "6-31G**", 
		 "properties": { 
			 "R2extent": 2030.3468, 
			 "electric_dipole_moment_norm": 5.48035247133, 
			 "electric_quadrupole_moment_norm": 13.6361607592, 
			 "total_energy": -562.4118007, 
			 "HOMO_LUMO_gap": 0.20252, 
			 "cosmo_polarized_energy": -20.21, 
			 "cosmo_cavitation_energy": 20.16, 
			 "cosmo_dispersion_energy": -15.86, 
			 "cosmo_repulsion_energy": 1.27, 
			 "cosmo_total_nonelectrostatic_energy": 5.57, 
			 "SMD_solvation_energy": -0.27 
		},
		"coords": [
			{
				"x": -2.2588920432,
				"y": 3.3326209608,
				"z": 1.0303626791,
				"element": "O" 
			},
			{
				"x": -1.2636900367,
				"y": 2.5156886868,
				"z": 0.6424835253,
				"element": "C" 
			},
			{
				"x": -0.076562507,
				"y": 3.1213863738,
				"z": 0.4856536682,
				"element": "N" 
			},
			{
				"x": 0.9472073816,
				"y": 2.3715902791,
				"z": 0.1040097582,
				"element": "C" 
			},
			{
				"x": 2.1327424038,
				"y": 2.9784448343,
				"z": -0.0521647183,
				"element": "O" 
			},
			{
				"x": 0.7742129771,
				"y": 0.9954625039,
				"z": -0.1226558317,
				"element": "C" 
			},
			{
				"x": 1.6409001948,
				"y": -0.0103468757,
				"z": -0.517742053,
				"element": "N" 
			},
			{
				"x": 0.8873190641,
				"y": -1.0797297806,
				"z": -0.5508657008,
				"element": "C" 
			},
			{
				"x": -0.4308803043,
				"y": -0.8342243703,
				"z": -0.1989800006,
				"element": "N" 
			},
			{
				"x": -0.5219047432,
				"y": 0.5091737761,
				"z": 0.0823956827,
				"element": "C" 
			},
			{
				"x": -1.5823817958,
				"y": 1.2255093458,
				"z": 0.4660438867,
				"element": "N" 
			},
			{
				"x": -3.0498402198,
				"y": 2.7776383697,
				"z": 1.1054478188,
				"element": "H" 
			},
			{
				"x": 2.7739715802,
				"y": 2.3054040997,
				"z": -0.3305575744,
				"element": "H" 
			},
			{
				"x": 1.221125647,
				"y": -2.0727385106,
				"z": -0.8203623819,
				"element": "H" 
			},
			{
				"x": -1.1853275987,
				"y": -1.502679693,
				"z": -0.1543687583,
				"element": "H" 
			}
		],
		 "valence_orbital": [ 
			{
				"type": "occ",
				"energy": -0.31316,
				"method": "rhf"
			},
			{
				"type": "occ",
				"energy": -0.29972,
				"method": "rhf"
			},
			{
				"type": "occ",
				"energy": -0.27597,
				"method": "rhf"
			},
			{
				"type": "occ",
				"energy": -0.26191,
				"method": "rhf"
			},
			{
				"type": "occ",
				"energy": -0.22989,
				"method": "rhf"
			},
			{
				"type": "unocc",
				"energy": -0.02737,
				"method": "rhf"
			},
			{
				"type": "unocc",
				"energy": 0.0059,
				"method": "rhf"
			},
			{
				"type": "unocc",
				"energy": 0.03479,
				"method": "rhf"
			},
			{
				"type": "unocc",
				"energy": 0.06565,
				"method": "rhf"
			},
			{
				"type": "unocc",
				"energy": 0.08024,
				"method": "rhf"
			}
		],
		"cosmo_sigma_profile": { 
			"-0.025": 0.0,
			"-0.024": 0.0,
			"-0.023": 0.0,
			"-0.022": 0.0,
			"-0.021": 0.0,
			"-0.02": 0.0,
			"-0.019": 0.0,
			"-0.018": 0.740670418588,
			"-0.017": 2.88726199942,
			"-0.016": 3.51648177132,
			"-0.015": 2.55695661022,
			"-0.014": 1.88432106738,
			"-0.013": 2.47171862224,
			"-0.012": 2.91649852567,
			"-0.011": 3.13520337601,
			"-0.01": 5.08853225859,
			"-0.009": 2.99968546403,
			"-0.008": 4.17439757357,
			"-0.007": 4.08713074368,
			"-0.006": 3.76200718538,
			"-0.005": 2.65978365034,
			"-0.004": 3.26348683894,
			"-0.003": 6.31264206206,
			"-0.002": 9.64688255946,
			"-0.001": 14.8597716088,
			"0.0": 10.7429855015,
			"0.001": 7.4574562259,
			"0.002": 6.07734627125,
			"0.003": 5.00791429656,
			"0.004": 5.08463676253,
			"0.005": 5.04766944376,
			"0.006": 5.70995969524,
			"0.007": 5.3307199532,
			"0.008": 5.30791376724,
			"0.009": 5.3840614236,
			"0.01": 7.44900476703,
			"0.011": 6.85708055901,
			"0.012": 3.09483292727,
			"0.013": 3.42647019495,
			"0.014": 1.92356519699,
			"0.015": 1.33262596469,
			"0.016": 0.0470016875544,
			"0.017": 0.0,
			"0.018": 0.0,
			"0.019": 0.0,
			"0.02": 0.0,
			"0.021": 0.0,
			"0.022": 0.0,
			"0.023": 0.0,
			"0.024": 0.0,
			"0.025": 0.0
		}
	}
}
