{
	 "smiles": "OC1=CC=C(CNCC2=CC=CO2)C=C1", 
	 "Tm": 381.15, 
	 "num_atms": 28, 
	 "gaussian": { 
		 "optdone": 1, 
		 "sigma_profile": "yes", 
		 "theory": "DFT", 
		 "functional": "B3LYP", 
		 "basiset": "6-31G**", 
		 "properties": { 
			 "R2extent": 4919.78, 
			 "electric_dipole_moment_norm": 1.87248174624, 
			 "electric_quadrupole_moment_norm": 12.3032222881, 
			 "total_energy": -670.270168087, 
			 "HOMO_LUMO_gap": 0.20653, 
			 "cosmo_polarized_energy": -13.56, 
			 "cosmo_cavitation_energy": 32.43, 
			 "cosmo_dispersion_energy": -23.01, 
			 "cosmo_repulsion_energy": 1.82, 
			 "cosmo_total_nonelectrostatic_energy": 11.24, 
			 "SMD_solvation_energy": 4.28 
		},
		"coords": [
			{
				"x": 4.4869726323,
				"y": -1.1113413634,
				"z": 2.3800698753,
				"element": "O" 
			},
			{
				"x": 3.5402295433,
				"y": -0.3039657154,
				"z": 1.8141748567,
				"element": "C" 
			},
			{
				"x": 2.7167355739,
				"y": 0.5404619028,
				"z": 2.5637857632,
				"element": "C" 
			},
			{
				"x": 1.7713255057,
				"y": 1.3403355627,
				"z": 1.9186307731,
				"element": "C" 
			},
			{
				"x": 1.6241704631,
				"y": 1.3193356157,
				"z": 0.5274990976,
				"element": "C" 
			},
			{
				"x": 0.5692722236,
				"y": 2.1576909931,
				"z": -0.1786197694,
				"element": "C" 
			},
			{
				"x": -0.6556979277,
				"y": 1.4573994288,
				"z": -0.5892859132,
				"element": "N" 
			},
			{
				"x": -1.4323134517,
				"y": 0.8987602929,
				"z": 0.5226610829,
				"element": "C" 
			},
			{
				"x": -2.6569264407,
				"y": 0.1963276933,
				"z": 0.0425384084,
				"element": "C" 
			},
			{
				"x": -3.0226032648,
				"y": -1.1192097795,
				"z": 0.0183815743,
				"element": "C" 
			},
			{
				"x": -4.3249814144,
				"y": -1.1747776453,
				"z": -0.579552519,
				"element": "C" 
			},
			{
				"x": -4.6538651255,
				"y": 0.112450165,
				"z": -0.8750109758,
				"element": "C" 
			},
			{
				"x": -3.6532833941,
				"y": 0.9594362357,
				"z": -0.5044675202,
				"element": "O" 
			},
			{
				"x": 2.4655377845,
				"y": 0.4658376518,
				"z": -0.204424565,
				"element": "C" 
			},
			{
				"x": 3.4127389986,
				"y": -0.338524928,
				"z": 0.4199768906,
				"element": "C" 
			},
			{
				"x": 4.4762284754,
				"y": -0.9873165935,
				"z": 3.3379455673,
				"element": "H" 
			},
			{
				"x": 2.8148121083,
				"y": 0.5760531659,
				"z": 3.6471780655,
				"element": "H" 
			},
			{
				"x": 1.1427986624,
				"y": 1.9988932118,
				"z": 2.5136798075,
				"element": "H" 
			},
			{
				"x": 0.2700209965,
				"y": 2.9909231381,
				"z": 0.4694207152,
				"element": "H" 
			},
			{
				"x": 1.0002373236,
				"y": 2.6022357264,
				"z": -1.0835146567,
				"element": "H" 
			},
			{
				"x": -0.4187908933,
				"y": 0.7054904234,
				"z": -1.2333888888,
				"element": "H" 
			},
			{
				"x": -0.8669982509,
				"y": 0.189661326,
				"z": 1.150548142,
				"element": "H" 
			},
			{
				"x": -1.7194481727,
				"y": 1.7357282237,
				"z": 1.1743141139,
				"element": "H" 
			},
			{
				"x": -2.4342940249,
				"y": -1.9484964886,
				"z": 0.3854499333,
				"element": "H" 
			},
			{
				"x": -4.9287269825,
				"y": -2.0523884039,
				"z": -0.7608828989,
				"element": "H" 
			},
			{
				"x": -5.5182791995,
				"y": 0.5748112055,
				"z": -1.3261667656,
				"element": "H" 
			},
			{
				"x": 2.3828826395,
				"y": 0.4362528945,
				"z": -1.2892060355,
				"element": "H" 
			},
			{
				"x": 4.0660456118,
				"y": -0.9913639394,
				"z": -0.1497341588,
				"element": "H" 
			}
		],
		 "valence_orbital": [ 
			{
				"type": "occ",
				"energy": -0.26972,
				"method": "rhf"
			},
			{
				"type": "occ",
				"energy": -0.25374,
				"method": "rhf"
			},
			{
				"type": "occ",
				"energy": -0.22747,
				"method": "rhf"
			},
			{
				"type": "occ",
				"energy": -0.21788,
				"method": "rhf"
			},
			{
				"type": "occ",
				"energy": -0.21175,
				"method": "rhf"
			},
			{
				"type": "unocc",
				"energy": -0.00522,
				"method": "rhf"
			},
			{
				"type": "unocc",
				"energy": 0.00758,
				"method": "rhf"
			},
			{
				"type": "unocc",
				"energy": 0.02034,
				"method": "rhf"
			},
			{
				"type": "unocc",
				"energy": 0.06901,
				"method": "rhf"
			},
			{
				"type": "unocc",
				"energy": 0.07798,
				"method": "rhf"
			}
		],
		"cosmo_sigma_profile": { 
			"-0.025": 0.0,
			"-0.024": 0.0,
			"-0.023": 0.0,
			"-0.022": 0.0,
			"-0.021": 0.0,
			"-0.02": 0.0,
			"-0.019": 0.0,
			"-0.018": 0.253625198168,
			"-0.017": 1.08142175594,
			"-0.016": 0.974971637528,
			"-0.015": 0.783084620486,
			"-0.014": 1.38918442061,
			"-0.013": 0.963951586217,
			"-0.012": 0.771323992325,
			"-0.011": 0.780188860551,
			"-0.01": 1.17706946435,
			"-0.009": 2.58251158183,
			"-0.008": 4.13373160783,
			"-0.007": 5.89142090947,
			"-0.006": 10.9076073519,
			"-0.005": 14.9302353836,
			"-0.004": 24.6003957967,
			"-0.003": 21.6285616817,
			"-0.002": 17.2896189528,
			"-0.001": 18.3814122452,
			"0.0": 13.5982898681,
			"0.001": 12.530540021,
			"0.002": 13.2497865461,
			"0.003": 16.3174635854,
			"0.004": 18.5807606908,
			"0.005": 17.4382103481,
			"0.006": 14.8463625835,
			"0.007": 3.35101867217,
			"0.008": 3.06206748518,
			"0.009": 4.0664696675,
			"0.01": 3.09992626714,
			"0.011": 2.77110928767,
			"0.012": 2.17046992122,
			"0.013": 0.840048294258,
			"0.014": 0.859739484981,
			"0.015": 0.709904575136,
			"0.016": 0.529623714299,
			"0.017": 0.420240835611,
			"0.018": 0.180527169602,
			"0.019": 0.0,
			"0.02": 0.0,
			"0.021": 0.0,
			"0.022": 0.0,
			"0.023": 0.0,
			"0.024": 0.0,
			"0.025": 0.0
		}
	}
}
