{
	 "smiles": "CN(CC1=C(F)C=CC(=C1)C#N)C(=O)CCl", 
	 "Tm": 377.15, 
	 "num_atms": 26, 
	 "gaussian": { 
		 "optdone": 1, 
		 "sigma_profile": "yes", 
		 "theory": "DFT", 
		 "functional": "B3LYP", 
		 "basiset": "6-31G**", 
		 "properties": { 
			 "R2extent": 5350.5881, 
			 "electric_dipole_moment_norm": 2.65927111254, 
			 "electric_quadrupole_moment_norm": 26.6635249695, 
			 "total_energy": -1169.94212928, 
			 "HOMO_LUMO_gap": 0.19928, 
			 "cosmo_polarized_energy": -17.47, 
			 "cosmo_cavitation_energy": 33.41, 
			 "cosmo_dispersion_energy": -22.74, 
			 "cosmo_repulsion_energy": 1.76, 
			 "cosmo_total_nonelectrostatic_energy": 12.44, 
			 "SMD_solvation_energy": 7.78 
		},
		"coords": [
			{
				"x": -0.5942870438,
				"y": 1.0020667862,
				"z": -1.8021751753,
				"element": "C" 
			},
			{
				"x": 0.3484599769,
				"y": -0.0553007937,
				"z": -1.4595347359,
				"element": "N" 
			},
			{
				"x": 0.9599710319,
				"y": 0.0317659807,
				"z": -0.1310984097,
				"element": "C" 
			},
			{
				"x": -0.0248007698,
				"y": -0.1924719076,
				"z": 0.9985414594,
				"element": "C" 
			},
			{
				"x": -0.6596030269,
				"y": -1.4296729591,
				"z": 1.1661990365,
				"element": "C" 
			},
			{
				"x": -0.3878687081,
				"y": -2.4150678154,
				"z": 0.2941245208,
				"element": "F" 
			},
			{
				"x": -1.5556607167,
				"y": -1.6865757781,
				"z": 2.1976314827,
				"element": "C" 
			},
			{
				"x": -1.8420589879,
				"y": -0.6775411127,
				"z": 3.1118805268,
				"element": "C" 
			},
			{
				"x": -1.2259069119,
				"y": 0.5772613485,
				"z": 2.9793769899,
				"element": "C" 
			},
			{
				"x": -0.3253407902,
				"y": 0.8067727765,
				"z": 1.9239205717,
				"element": "C" 
			},
			{
				"x": -1.5153816653,
				"y": 1.6255159928,
				"z": 3.9130085991,
				"element": "C" 
			},
			{
				"x": -1.7511113626,
				"y": 2.4781469285,
				"z": 4.6685062376,
				"element": "N" 
			},
			{
				"x": 0.8315112913,
				"y": -1.0089270765,
				"z": -2.3219088235,
				"element": "C" 
			},
			{
				"x": 1.6917956666,
				"y": -1.8206980938,
				"z": -2.0036919301,
				"element": "O" 
			},
			{
				"x": 0.2400899535,
				"y": -1.0803618139,
				"z": -3.731658025,
				"element": "C" 
			},
			{
				"x": 0.7714059484,
				"y": 0.3019978587,
				"z": -4.784440979,
				"element": "Cl" 
			},
			{
				"x": -1.3353582128,
				"y": 1.1049355861,
				"z": -1.0033241727,
				"element": "H" 
			},
			{
				"x": -1.1216103772,
				"y": 0.7811856819,
				"z": -2.7273578925,
				"element": "H" 
			},
			{
				"x": -0.0816375957,
				"y": 1.9643963524,
				"z": -1.9277345914,
				"element": "H" 
			},
			{
				"x": 1.7492858734,
				"y": -0.7219979454,
				"z": -0.1084481812,
				"element": "H" 
			},
			{
				"x": 1.4217663609,
				"y": 1.0198511196,
				"z": -0.0096335379,
				"element": "H" 
			},
			{
				"x": -2.0096042336,
				"y": -2.6683324791,
				"z": 2.2730095622,
				"element": "H" 
			},
			{
				"x": -2.5368318237,
				"y": -0.8551955506,
				"z": 3.9252936099,
				"element": "H" 
			},
			{
				"x": 0.1479732566,
				"y": 1.7796041068,
				"z": 1.8317430975,
				"element": "H" 
			},
			{
				"x": 0.6279415654,
				"y": -1.9887661697,
				"z": -4.1857309495,
				"element": "H" 
			},
			{
				"x": -0.8509386989,
				"y": -1.0927910232,
				"z": -3.7417982903,
				"element": "H" 
			}
		],
		 "valence_orbital": [ 
			{
				"type": "occ",
				"energy": -0.31135,
				"method": "rhf"
			},
			{
				"type": "occ",
				"energy": -0.29231,
				"method": "rhf"
			},
			{
				"type": "occ",
				"energy": -0.27066,
				"method": "rhf"
			},
			{
				"type": "occ",
				"energy": -0.26333,
				"method": "rhf"
			},
			{
				"type": "occ",
				"energy": -0.25837,
				"method": "rhf"
			},
			{
				"type": "unocc",
				"energy": -0.05909,
				"method": "rhf"
			},
			{
				"type": "unocc",
				"energy": -0.04296,
				"method": "rhf"
			},
			{
				"type": "unocc",
				"energy": -0.02593,
				"method": "rhf"
			},
			{
				"type": "unocc",
				"energy": 0.0281,
				"method": "rhf"
			},
			{
				"type": "unocc",
				"energy": 0.04364,
				"method": "rhf"
			}
		],
		"cosmo_sigma_profile": { 
			"-0.025": 0.0,
			"-0.024": 0.0,
			"-0.023": 0.0,
			"-0.022": 0.0,
			"-0.021": 0.0,
			"-0.02": 0.0,
			"-0.019": 0.0,
			"-0.018": 0.0,
			"-0.017": 0.0,
			"-0.016": 0.0,
			"-0.015": 0.0,
			"-0.014": 0.0,
			"-0.013": 0.0,
			"-0.012": 0.0,
			"-0.011": 0.0,
			"-0.01": 1.29807355662,
			"-0.009": 5.12873522351,
			"-0.008": 11.9492378099,
			"-0.007": 12.4905512442,
			"-0.006": 13.4559905648,
			"-0.005": 17.4921230603,
			"-0.004": 18.5239160549,
			"-0.003": 19.7799490376,
			"-0.002": 18.6505806837,
			"-0.001": 20.410952764,
			"0.0": 20.6641907435,
			"0.001": 18.253471674,
			"0.002": 11.0339386606,
			"0.003": 11.9920130089,
			"0.004": 13.7105502995,
			"0.005": 11.6953298693,
			"0.006": 7.8557553381,
			"0.007": 4.36518683934,
			"0.008": 4.58293544096,
			"0.009": 5.75971316111,
			"0.01": 4.74520553572,
			"0.011": 4.76278988079,
			"0.012": 5.17064452816,
			"0.013": 5.28411137603,
			"0.014": 0.918000355457,
			"0.015": 0.0,
			"0.016": 0.0,
			"0.017": 0.0,
			"0.018": 0.0,
			"0.019": 0.0,
			"0.02": 0.0,
			"0.021": 0.0,
			"0.022": 0.0,
			"0.023": 0.0,
			"0.024": 0.0,
			"0.025": 0.0
		}
	}
}
