{
	 "smiles": "OC(=O)C1=CC(F)=CC(=C1)[N+]([O-])=O", 
	 "Tm": 398.15, 
	 "num_atms": 17, 
	 "gaussian": { 
		 "optdone": 1, 
		 "sigma_profile": "yes", 
		 "theory": "DFT", 
		 "functional": "B3LYP", 
		 "basiset": "6-31G**", 
		 "properties": { 
			 "R2extent": 2946.22, 
			 "electric_dipole_moment_norm": 4.36804920416, 
			 "electric_quadrupole_moment_norm": 9.60494947983, 
			 "total_energy": -724.548775383, 
			 "HOMO_LUMO_gap": 0.1798, 
			 "cosmo_polarized_energy": -12.02, 
			 "cosmo_cavitation_energy": 24.01, 
			 "cosmo_dispersion_energy": -17.41, 
			 "cosmo_repulsion_energy": 1.35, 
			 "cosmo_total_nonelectrostatic_energy": 7.95, 
			 "SMD_solvation_energy": 8.3 
		},
		"coords": [
			{
				"x": 1.1630000001,
				"y": -2.1644838008,
				"z": -3.709830022,
				"element": "O" 
			},
			{
				"x": 0.6069778881,
				"y": -2.3758780632,
				"z": -2.494760582,
				"element": "C" 
			},
			{
				"x": 0.4413910505,
				"y": -3.482781709,
				"z": -2.0287346591,
				"element": "O" 
			},
			{
				"x": 0.2279151606,
				"y": -1.1065287111,
				"z": -1.8064357409,
				"element": "C" 
			},
			{
				"x": 0.4442356834,
				"y": 0.145383301,
				"z": -2.3956094302,
				"element": "C" 
			},
			{
				"x": 0.0670557292,
				"y": 1.2882658114,
				"z": -1.6985978349,
				"element": "C" 
			},
			{
				"x": 0.2734501597,
				"y": 2.4903361084,
				"z": -2.2615555275,
				"element": "F" 
			},
			{
				"x": -0.5160219526,
				"y": 1.2299783035,
				"z": -0.4396939565,
				"element": "C" 
			},
			{
				"x": -0.715483173,
				"y": -0.0332303606,
				"z": 0.1144106178,
				"element": "C" 
			},
			{
				"x": -0.3570637424,
				"y": -1.2051148585,
				"z": -0.5395411439,
				"element": "C" 
			},
			{
				"x": -1.3342141663,
				"y": -0.1200260844,
				"z": 1.4527366434,
				"element": "N" 
			},
			{
				"x": -1.6389878969,
				"y": 0.9360011523,
				"z": 2.0035629663,
				"element": "O" 
			},
			{
				"x": -1.5029266323,
				"y": -1.2402739905,
				"z": 1.9266131146,
				"element": "O" 
			},
			{
				"x": 1.3714507122,
				"y": -3.0423951545,
				"z": -4.0701857348,
				"element": "H" 
			},
			{
				"x": 0.8963015406,
				"y": 0.2335067093,
				"z": -3.3757156882,
				"element": "H" 
			},
			{
				"x": -0.8059021983,
				"y": 2.1253847595,
				"z": 0.0943208008,
				"element": "H" 
			},
			{
				"x": -0.5243781624,
				"y": -2.1722434131,
				"z": -0.0839838227,
				"element": "H" 
			}
		],
		 "valence_orbital": [ 
			{
				"type": "occ",
				"energy": -0.32019,
				"method": "rhf"
			},
			{
				"type": "occ",
				"energy": -0.30412,
				"method": "rhf"
			},
			{
				"type": "occ",
				"energy": -0.30393,
				"method": "rhf"
			},
			{
				"type": "occ",
				"energy": -0.3009,
				"method": "rhf"
			},
			{
				"type": "occ",
				"energy": -0.28451,
				"method": "rhf"
			},
			{
				"type": "unocc",
				"energy": -0.10471,
				"method": "rhf"
			},
			{
				"type": "unocc",
				"energy": -0.07446,
				"method": "rhf"
			},
			{
				"type": "unocc",
				"energy": -0.01596,
				"method": "rhf"
			},
			{
				"type": "unocc",
				"energy": 0.03674,
				"method": "rhf"
			},
			{
				"type": "unocc",
				"energy": 0.05528,
				"method": "rhf"
			}
		],
		"cosmo_sigma_profile": { 
			"-0.025": 0.0,
			"-0.024": 0.0,
			"-0.023": 0.0,
			"-0.022": 0.0,
			"-0.021": 0.0,
			"-0.02": 0.0,
			"-0.019": 0.480870439893,
			"-0.018": 1.12392423984,
			"-0.017": 0.904462006922,
			"-0.016": 0.656262199566,
			"-0.015": 0.939372297156,
			"-0.014": 0.798664284855,
			"-0.013": 0.563043410546,
			"-0.012": 0.4757774846,
			"-0.011": 0.850350839443,
			"-0.01": 1.12644051484,
			"-0.009": 2.37865073702,
			"-0.008": 3.1354654434,
			"-0.007": 5.86849644271,
			"-0.006": 4.62215450268,
			"-0.005": 7.80690229486,
			"-0.004": 10.6995091345,
			"-0.003": 18.0088975821,
			"-0.002": 28.6090246667,
			"-0.001": 15.0538865977,
			"0.0": 7.51612588203,
			"0.001": 8.11472216465,
			"0.002": 7.83803748559,
			"0.003": 13.6457806312,
			"0.004": 8.24725670231,
			"0.005": 5.67318576194,
			"0.006": 7.30070492069,
			"0.007": 10.8286861343,
			"0.008": 6.74055066228,
			"0.009": 5.08969638736,
			"0.01": 3.55370072692,
			"0.011": 4.58949429042,
			"0.012": 0.357889587908,
			"0.013": 0.0,
			"0.014": 0.0,
			"0.015": 0.0,
			"0.016": 0.0,
			"0.017": 0.0,
			"0.018": 0.0,
			"0.019": 0.0,
			"0.02": 0.0,
			"0.021": 0.0,
			"0.022": 0.0,
			"0.023": 0.0,
			"0.024": 0.0,
			"0.025": 0.0
		}
	}
}
