{
	 "smiles": "ClC1=CC2=C(SCCCN2)C=C1", 
	 "Tm": 325.15, 
	 "num_atms": 22, 
	 "gaussian": { 
		 "optdone": 1, 
		 "sigma_profile": "yes", 
		 "theory": "DFT", 
		 "functional": "B3LYP", 
		 "basiset": "6-31G**", 
		 "properties": { 
			 "R2extent": 4245.2931, 
			 "electric_dipole_moment_norm": 3.35345577875, 
			 "electric_quadrupole_moment_norm": 11.5596895529, 
			 "total_energy": -1262.11490664, 
			 "HOMO_LUMO_gap": 0.18367, 
			 "cosmo_polarized_energy": -8.31, 
			 "cosmo_cavitation_energy": 27.11, 
			 "cosmo_dispersion_energy": -21.2, 
			 "cosmo_repulsion_energy": 1.63, 
			 "cosmo_total_nonelectrostatic_energy": 7.54, 
			 "SMD_solvation_energy": 2.75 
		},
		"coords": [
			{
				"x": 4.8762962179,
				"y": 0.8444684982,
				"z": 2.7608217135,
				"element": "Cl" 
			},
			{
				"x": 3.3437092324,
				"y": 0.2304202641,
				"z": 2.1499259358,
				"element": "C" 
			},
			{
				"x": 2.3122998875,
				"y": 1.1256903402,
				"z": 1.9006522523,
				"element": "C" 
			},
			{
				"x": 1.0655527172,
				"y": 0.6837067476,
				"z": 1.4157673115,
				"element": "C" 
			},
			{
				"x": 0.8984312314,
				"y": -0.7039201213,
				"z": 1.1667388997,
				"element": "C" 
			},
			{
				"x": -0.5964968772,
				"y": -1.4802021568,
				"z": 0.5434196135,
				"element": "S" 
			},
			{
				"x": -1.2532318249,
				"y": -0.1989385567,
				"z": -0.6000654278,
				"element": "C" 
			},
			{
				"x": -2.0481383026,
				"y": 0.9012314068,
				"z": 0.1111676021,
				"element": "C" 
			},
			{
				"x": -1.3396975214,
				"y": 1.4023784568,
				"z": 1.3761341091,
				"element": "C" 
			},
			{
				"x": 0.0896699369,
				"y": 1.6496614523,
				"z": 1.1535873325,
				"element": "N" 
			},
			{
				"x": 1.9613346464,
				"y": -1.5757360055,
				"z": 1.4360172742,
				"element": "C" 
			},
			{
				"x": 3.1844234113,
				"y": -1.1356822335,
				"z": 1.9360624099,
				"element": "C" 
			},
			{
				"x": 2.4622704391,
				"y": 2.1831088394,
				"z": 2.0967554281,
				"element": "H" 
			},
			{
				"x": -1.8792391619,
				"y": -0.7416995465,
				"z": -1.3139573185,
				"element": "H" 
			},
			{
				"x": -0.4082854466,
				"y": 0.218070246,
				"z": -1.1517224285,
				"element": "H" 
			},
			{
				"x": -2.1937740098,
				"y": 1.7308080825,
				"z": -0.5927202816,
				"element": "H" 
			},
			{
				"x": -3.0427127392,
				"y": 0.5332423045,
				"z": 0.3897140974,
				"element": "H" 
			},
			{
				"x": -1.481301953,
				"y": 0.6829563739,
				"z": 2.1907216972,
				"element": "H" 
			},
			{
				"x": -1.7935631984,
				"y": 2.3433925463,
				"z": 1.7025547546,
				"element": "H" 
			},
			{
				"x": 0.3850183387,
				"y": 2.5722307976,
				"z": 1.4381224926,
				"element": "H" 
			},
			{
				"x": 1.826776569,
				"y": -2.6327938523,
				"z": 1.2266617221,
				"element": "H" 
			},
			{
				"x": 3.9933584074,
				"y": -1.8293938836,
				"z": 2.1308408105,
				"element": "H" 
			}
		],
		 "valence_orbital": [ 
			{
				"type": "occ",
				"energy": -0.30846,
				"method": "rhf"
			},
			{
				"type": "occ",
				"energy": -0.29265,
				"method": "rhf"
			},
			{
				"type": "occ",
				"energy": -0.26549,
				"method": "rhf"
			},
			{
				"type": "occ",
				"energy": -0.22805,
				"method": "rhf"
			},
			{
				"type": "occ",
				"energy": -0.19459,
				"method": "rhf"
			},
			{
				"type": "unocc",
				"energy": -0.01092,
				"method": "rhf"
			},
			{
				"type": "unocc",
				"energy": -0.00073,
				"method": "rhf"
			},
			{
				"type": "unocc",
				"energy": 0.02813,
				"method": "rhf"
			},
			{
				"type": "unocc",
				"energy": 0.04663,
				"method": "rhf"
			},
			{
				"type": "unocc",
				"energy": 0.06805,
				"method": "rhf"
			}
		],
		"cosmo_sigma_profile": { 
			"-0.025": 0.0,
			"-0.024": 0.0,
			"-0.023": 0.0,
			"-0.022": 0.0,
			"-0.021": 0.0,
			"-0.02": 0.0,
			"-0.019": 0.0,
			"-0.018": 0.0,
			"-0.017": 0.0,
			"-0.016": 0.0,
			"-0.015": 0.0,
			"-0.014": 0.00373868678487,
			"-0.013": 1.24070515039,
			"-0.012": 1.61869532845,
			"-0.011": 1.54445300332,
			"-0.01": 1.78735398434,
			"-0.009": 1.09709651544,
			"-0.008": 2.14107816444,
			"-0.007": 3.24718973583,
			"-0.006": 7.69759498301,
			"-0.005": 10.9265476448,
			"-0.004": 13.6511817505,
			"-0.003": 19.2757094324,
			"-0.002": 21.9741870466,
			"-0.001": 17.4565905747,
			"0.0": 12.3207364888,
			"0.001": 11.8538133026,
			"0.002": 15.9637596113,
			"0.003": 17.976079648,
			"0.004": 22.4107791866,
			"0.005": 20.9178957486,
			"0.006": 5.22171813708,
			"0.007": 3.11435720159,
			"0.008": 2.84839176805,
			"0.009": 2.02445912721,
			"0.01": 0.45803507024,
			"0.011": 0.0,
			"0.012": 0.0,
			"0.013": 0.0,
			"0.014": 0.0,
			"0.015": 0.0,
			"0.016": 0.0,
			"0.017": 0.0,
			"0.018": 0.0,
			"0.019": 0.0,
			"0.02": 0.0,
			"0.021": 0.0,
			"0.022": 0.0,
			"0.023": 0.0,
			"0.024": 0.0,
			"0.025": 0.0
		}
	}
}
