{
	 "smiles": "COC(=O)C(CC(C)C)NC(N)=O", 
	 "Tm": 342.15, 
	 "num_atms": 29, 
	 "gaussian": { 
		 "optdone": 1, 
		 "sigma_profile": "yes", 
		 "theory": "DFT", 
		 "functional": "B3LYP", 
		 "basiset": "6-31G**", 
		 "properties": { 
			 "R2extent": 2917.6459, 
			 "electric_dipole_moment_norm": 5.51764439865, 
			 "electric_quadrupole_moment_norm": 13.6619714551, 
			 "total_energy": -649.711105527, 
			 "HOMO_LUMO_gap": 0.23362, 
			 "cosmo_polarized_energy": -17.64, 
			 "cosmo_cavitation_energy": 31.52, 
			 "cosmo_dispersion_energy": -21.49, 
			 "cosmo_repulsion_energy": 1.74, 
			 "cosmo_total_nonelectrostatic_energy": 11.78, 
			 "SMD_solvation_energy": 7.45 
		},
		"coords": [
			{
				"x": 2.6884178472,
				"y": 2.2265875022,
				"z": 0.3347317392,
				"element": "C" 
			},
			{
				"x": 2.0484701082,
				"y": 0.9580359728,
				"z": 0.0963136334,
				"element": "O" 
			},
			{
				"x": 0.7448053065,
				"y": 1.0202922171,
				"z": -0.2257880235,
				"element": "C" 
			},
			{
				"x": 0.1182792419,
				"y": 2.0528334421,
				"z": -0.3352310257,
				"element": "O" 
			},
			{
				"x": 0.1571526412,
				"y": -0.3779273111,
				"z": -0.4016092212,
				"element": "C" 
			},
			{
				"x": 0.1146217702,
				"y": -1.1335579068,
				"z": 0.9602890521,
				"element": "C" 
			},
			{
				"x": -0.4361255001,
				"y": -0.3817851294,
				"z": 2.1902036538,
				"element": "C" 
			},
			{
				"x": -1.8971555809,
				"y": 0.0719156984,
				"z": 2.0451116637,
				"element": "C" 
			},
			{
				"x": -0.2698798105,
				"y": -1.2704783276,
				"z": 3.4340815286,
				"element": "C" 
			},
			{
				"x": -1.1139036894,
				"y": -0.2261698494,
				"z": -1.0813695159,
				"element": "N" 
			},
			{
				"x": -1.9173869255,
				"y": -1.211461076,
				"z": -1.6075199296,
				"element": "C" 
			},
			{
				"x": -1.3552961798,
				"y": -2.4869059726,
				"z": -1.6598410275,
				"element": "N" 
			},
			{
				"x": -3.0614963467,
				"y": -0.9901375396,
				"z": -1.98170137,
				"element": "O" 
			},
			{
				"x": 3.7223928006,
				"y": 1.9901084419,
				"z": 0.5834032289,
				"element": "H" 
			},
			{
				"x": 2.6400359405,
				"y": 2.8519523041,
				"z": -0.559636936,
				"element": "H" 
			},
			{
				"x": 2.202999513,
				"y": 2.7505590375,
				"z": 1.1613282523,
				"element": "H" 
			},
			{
				"x": 0.863732146,
				"y": -0.9221240102,
				"z": -1.0454016573,
				"element": "H" 
			},
			{
				"x": 1.1428474407,
				"y": -1.4447977639,
				"z": 1.1801800109,
				"element": "H" 
			},
			{
				"x": -0.4668224154,
				"y": -2.0484400883,
				"z": 0.7979287393,
				"element": "H" 
			},
			{
				"x": 0.1823779984,
				"y": 0.5151161955,
				"z": 2.3448676248,
				"element": "H" 
			},
			{
				"x": -2.0174183656,
				"y": 0.8282509423,
				"z": 1.2668237401,
				"element": "H" 
			},
			{
				"x": -2.2537877958,
				"y": 0.5069821411,
				"z": 2.985236524,
				"element": "H" 
			},
			{
				"x": -2.5513832561,
				"y": -0.7716851356,
				"z": 1.7975904246,
				"element": "H" 
			},
			{
				"x": -0.597753433,
				"y": -0.7450633303,
				"z": 4.3371096475,
				"element": "H" 
			},
			{
				"x": 0.7734651196,
				"y": -1.5714586344,
				"z": 3.5801756068,
				"element": "H" 
			},
			{
				"x": -0.8714049219,
				"y": -2.1831788273,
				"z": 3.345142584,
				"element": "H" 
			},
			{
				"x": -1.5402058659,
				"y": 0.6896781773,
				"z": -1.0432596002,
				"element": "H" 
			},
			{
				"x": -0.3580632194,
				"y": -2.5671983976,
				"z": -1.8049857685,
				"element": "H" 
			},
			{
				"x": -1.905714568,
				"y": -3.1083427724,
				"z": -2.2360735785,
				"element": "H" 
			}
		],
		 "valence_orbital": [ 
			{
				"type": "occ",
				"energy": -0.31908,
				"method": "rhf"
			},
			{
				"type": "occ",
				"energy": -0.29064,
				"method": "rhf"
			},
			{
				"type": "occ",
				"energy": -0.26844,
				"method": "rhf"
			},
			{
				"type": "occ",
				"energy": -0.24682,
				"method": "rhf"
			},
			{
				"type": "occ",
				"energy": -0.23938,
				"method": "rhf"
			},
			{
				"type": "unocc",
				"energy": -0.00576,
				"method": "rhf"
			},
			{
				"type": "unocc",
				"energy": 0.06147,
				"method": "rhf"
			},
			{
				"type": "unocc",
				"energy": 0.06534,
				"method": "rhf"
			},
			{
				"type": "unocc",
				"energy": 0.08082,
				"method": "rhf"
			},
			{
				"type": "unocc",
				"energy": 0.10072,
				"method": "rhf"
			}
		],
		"cosmo_sigma_profile": { 
			"-0.025": 0.0,
			"-0.024": 0.0,
			"-0.023": 0.0,
			"-0.022": 0.0,
			"-0.021": 0.0,
			"-0.02": 0.0,
			"-0.019": 0.0,
			"-0.018": 0.0,
			"-0.017": 0.0,
			"-0.016": 0.0,
			"-0.015": 0.0,
			"-0.014": 0.623428305058,
			"-0.013": 2.10400296269,
			"-0.012": 3.03657922004,
			"-0.011": 2.35820744279,
			"-0.01": 2.85959006554,
			"-0.009": 3.68862474619,
			"-0.008": 3.26087527884,
			"-0.007": 4.25614210267,
			"-0.006": 9.55503720893,
			"-0.005": 11.4110890201,
			"-0.004": 14.8029958964,
			"-0.003": 21.2570760651,
			"-0.002": 25.2695671747,
			"-0.001": 24.4681259996,
			"0.0": 22.5091496453,
			"0.001": 22.4191849578,
			"0.002": 15.8367028183,
			"0.003": 6.34121933981,
			"0.004": 5.4165487607,
			"0.005": 4.32391694149,
			"0.006": 5.43440170753,
			"0.007": 4.30491471954,
			"0.008": 3.05290779346,
			"0.009": 3.94254598222,
			"0.01": 3.26029915444,
			"0.011": 4.23381847913,
			"0.012": 1.91179579543,
			"0.013": 2.00041297475,
			"0.014": 5.00143822219,
			"0.015": 5.48869981849,
			"0.016": 0.413789912734,
			"0.017": 0.0,
			"0.018": 0.0,
			"0.019": 0.0,
			"0.02": 0.0,
			"0.021": 0.0,
			"0.022": 0.0,
			"0.023": 0.0,
			"0.024": 0.0,
			"0.025": 0.0
		}
	}
}
