{
	 "smiles": "CC(C)(CC1=CC(Cl)=CC=C1)C(O)=O", 
	 "Tm": 330.15, 
	 "num_atms": 27, 
	 "gaussian": { 
		 "optdone": 1, 
		 "sigma_profile": "yes", 
		 "theory": "DFT", 
		 "functional": "B3LYP", 
		 "basiset": "6-31G**", 
		 "properties": { 
			 "R2extent": 4411.3077, 
			 "electric_dipole_moment_norm": 5.29874003231, 
			 "electric_quadrupole_moment_norm": 14.5665123887, 
			 "total_energy": -1037.66598321, 
			 "HOMO_LUMO_gap": 0.22565, 
			 "cosmo_polarized_energy": -16.31, 
			 "cosmo_cavitation_energy": 31.29, 
			 "cosmo_dispersion_energy": -21.75, 
			 "cosmo_repulsion_energy": 1.71, 
			 "cosmo_total_nonelectrostatic_energy": 11.25, 
			 "SMD_solvation_energy": 5.8 
		},
		"coords": [
			{
				"x": -1.9583721587,
				"y": 2.3250729788,
				"z": -0.8522279244,
				"element": "C" 
			},
			{
				"x": -1.9753256865,
				"y": 0.8187886287,
				"z": -0.498010234,
				"element": "C" 
			},
			{
				"x": -3.2727239849,
				"y": 0.1849183424,
				"z": -1.0194226605,
				"element": "C" 
			},
			{
				"x": -0.7229389954,
				"y": 0.1413310639,
				"z": -1.1463320127,
				"element": "C" 
			},
			{
				"x": -0.5667382387,
				"y": -1.3486984461,
				"z": -0.9140630861,
				"element": "C" 
			},
			{
				"x": -0.0051533594,
				"y": -1.8315203631,
				"z": 0.2769281392,
				"element": "C" 
			},
			{
				"x": 0.1349437837,
				"y": -3.2041789639,
				"z": 0.4704291161,
				"element": "C" 
			},
			{
				"x": 0.852407106,
				"y": -3.7895839814,
				"z": 1.9650759298,
				"element": "Cl" 
			},
			{
				"x": -0.2714639972,
				"y": -4.1231363803,
				"z": -0.4961737759,
				"element": "C" 
			},
			{
				"x": -0.8278304905,
				"y": -3.6411798636,
				"z": -1.6806651727,
				"element": "C" 
			},
			{
				"x": -0.9719125424,
				"y": -2.2694396259,
				"z": -1.8895829674,
				"element": "C" 
			},
			{
				"x": -1.9372901126,
				"y": 0.6671081981,
				"z": 1.0359487303,
				"element": "C" 
			},
			{
				"x": -0.8409549052,
				"y": 1.1846955614,
				"z": 1.6663258701,
				"element": "O" 
			},
			{
				"x": -2.7995178704,
				"y": 0.1421851667,
				"z": 1.6927626204,
				"element": "O" 
			},
			{
				"x": -1.0333145469,
				"y": 2.8252689512,
				"z": -0.5421861026,
				"element": "H" 
			},
			{
				"x": -2.7955085342,
				"y": 2.8481748175,
				"z": -0.3803892991,
				"element": "H" 
			},
			{
				"x": -2.047342336,
				"y": 2.4535830066,
				"z": -1.935638227,
				"element": "H" 
			},
			{
				"x": -4.1436164423,
				"y": 0.6766673935,
				"z": -0.5798186431,
				"element": "H" 
			},
			{
				"x": -3.3282971406,
				"y": -0.8740225845,
				"z": -0.7622455065,
				"element": "H" 
			},
			{
				"x": -3.3287796649,
				"y": 0.2863382389,
				"z": -2.1085420548,
				"element": "H" 
			},
			{
				"x": -0.782583935,
				"y": 0.3319212433,
				"z": -2.2239277003,
				"element": "H" 
			},
			{
				"x": 0.1861962433,
				"y": 0.655911195,
				"z": -0.8067460465,
				"element": "H" 
			},
			{
				"x": 0.3196648788,
				"y": -1.1468096542,
				"z": 1.0530637776,
				"element": "H" 
			},
			{
				"x": -0.1497965954,
				"y": -5.1865567354,
				"z": -0.3238804475,
				"element": "H" 
			},
			{
				"x": -1.145520174,
				"y": -4.3425819304,
				"z": -2.4464853873,
				"element": "H" 
			},
			{
				"x": -1.3986853712,
				"y": -1.9086217607,
				"z": -2.821270261,
				"element": "H" 
			},
			{
				"x": -0.2486449296,
				"y": 1.6043655036,
				"z": 1.0270733262,
				"element": "H" 
			}
		],
		 "valence_orbital": [ 
			{
				"type": "occ",
				"energy": -0.31719,
				"method": "rhf"
			},
			{
				"type": "occ",
				"energy": -0.31003,
				"method": "rhf"
			},
			{
				"type": "occ",
				"energy": -0.26921,
				"method": "rhf"
			},
			{
				"type": "occ",
				"energy": -0.26011,
				"method": "rhf"
			},
			{
				"type": "occ",
				"energy": -0.24672,
				"method": "rhf"
			},
			{
				"type": "unocc",
				"energy": -0.02107,
				"method": "rhf"
			},
			{
				"type": "unocc",
				"energy": -0.01663,
				"method": "rhf"
			},
			{
				"type": "unocc",
				"energy": 0.01028,
				"method": "rhf"
			},
			{
				"type": "unocc",
				"energy": 0.03005,
				"method": "rhf"
			},
			{
				"type": "unocc",
				"energy": 0.03784,
				"method": "rhf"
			}
		],
		"cosmo_sigma_profile": { 
			"-0.025": 0.0,
			"-0.024": 0.0,
			"-0.023": 0.0,
			"-0.022": 0.0,
			"-0.021": 0.0,
			"-0.02": 0.0,
			"-0.019": 0.0,
			"-0.018": 0.267181107783,
			"-0.017": 0.927900986951,
			"-0.016": 1.20191618919,
			"-0.015": 1.28087279826,
			"-0.014": 0.765561442732,
			"-0.013": 0.527292354121,
			"-0.012": 1.68903341956,
			"-0.011": 1.23053565577,
			"-0.01": 1.39763873479,
			"-0.009": 0.946797405637,
			"-0.008": 1.59902138745,
			"-0.007": 3.86720422672,
			"-0.006": 8.70776502443,
			"-0.005": 17.1146115613,
			"-0.004": 20.5009425193,
			"-0.003": 17.7990750989,
			"-0.002": 19.6267180747,
			"-0.001": 19.466682822,
			"0.0": 20.4514474268,
			"0.001": 17.5457425693,
			"0.002": 16.4381929213,
			"0.003": 17.3870546605,
			"0.004": 20.0935895245,
			"0.005": 11.1844487226,
			"0.006": 2.14744760198,
			"0.007": 2.29882360625,
			"0.008": 2.53545833607,
			"0.009": 3.29187458562,
			"0.01": 4.01978628183,
			"0.011": 5.60984627789,
			"0.012": 5.13867004651,
			"0.013": 1.64576464068,
			"0.014": 0.0315639535372,
			"0.015": 0.0,
			"0.016": 0.0,
			"0.017": 0.0,
			"0.018": 0.0,
			"0.019": 0.0,
			"0.02": 0.0,
			"0.021": 0.0,
			"0.022": 0.0,
			"0.023": 0.0,
			"0.024": 0.0,
			"0.025": 0.0
		}
	}
}
