{
	 "smiles": "FC1=C(F)C=C(C#N)C(Cl)=C1", 
	 "Tm": 308.15, 
	 "num_atms": 13, 
	 "gaussian": { 
		 "optdone": 1, 
		 "sigma_profile": "yes", 
		 "theory": "DFT", 
		 "functional": "B3LYP", 
		 "basiset": "6-31G**", 
		 "properties": { 
			 "R2extent": 2698.4158, 
			 "electric_dipole_moment_norm": 3.08382399952, 
			 "electric_quadrupole_moment_norm": 16.4869764078, 
			 "total_energy": -982.529343438, 
			 "HOMO_LUMO_gap": 0.19789, 
			 "cosmo_polarized_energy": -8.08, 
			 "cosmo_cavitation_energy": 22.03, 
			 "cosmo_dispersion_energy": -15.46, 
			 "cosmo_repulsion_energy": 1.2, 
			 "cosmo_total_nonelectrostatic_energy": 7.77, 
			 "SMD_solvation_energy": 5.92 
		},
		"coords": [
			{
				"x": 1.5482995456,
				"y": 2.3910680102,
				"z": 0.912595943,
				"element": "F" 
			},
			{
				"x": 0.4751175591,
				"y": 1.5960250058,
				"z": 0.8748086891,
				"element": "C" 
			},
			{
				"x": -0.2837399321,
				"y": 1.5345736004,
				"z": -0.2967186859,
				"element": "C" 
			},
			{
				"x": 0.0832044869,
				"y": 2.2731891883,
				"z": -1.350824481,
				"element": "F" 
			},
			{
				"x": -1.3987357668,
				"y": 0.7191364502,
				"z": -0.3603460791,
				"element": "C" 
			},
			{
				"x": -1.7718922984,
				"y": -0.0516224649,
				"z": 0.7565965895,
				"element": "C" 
			},
			{
				"x": -2.9293669077,
				"y": -0.8884653302,
				"z": 0.6683518107,
				"element": "C" 
			},
			{
				"x": -3.8747559245,
				"y": -1.5569269275,
				"z": 0.5618681063,
				"element": "N" 
			},
			{
				"x": -0.9972521176,
				"y": 0.0207173401,
				"z": 1.9306511857,
				"element": "C" 
			},
			{
				"x": -1.4281680761,
				"y": -0.9183041383,
				"z": 3.3325422637,
				"element": "Cl" 
			},
			{
				"x": 0.1258333099,
				"y": 0.844864277,
				"z": 1.9882474187,
				"element": "C" 
			},
			{
				"x": -1.9793790462,
				"y": 0.6798084322,
				"z": -1.2744107314,
				"element": "H" 
			},
			{
				"x": 0.7294351681,
				"y": 0.9089365567,
				"z": 2.8853379707,
				"element": "H" 
			}
		],
		 "valence_orbital": [ 
			{
				"type": "occ",
				"energy": -0.35061,
				"method": "rhf"
			},
			{
				"type": "occ",
				"energy": -0.34783,
				"method": "rhf"
			},
			{
				"type": "occ",
				"energy": -0.3381,
				"method": "rhf"
			},
			{
				"type": "occ",
				"energy": -0.2927,
				"method": "rhf"
			},
			{
				"type": "occ",
				"energy": -0.27006,
				"method": "rhf"
			},
			{
				"type": "unocc",
				"energy": -0.07217,
				"method": "rhf"
			},
			{
				"type": "unocc",
				"energy": -0.04867,
				"method": "rhf"
			},
			{
				"type": "unocc",
				"energy": -0.00302,
				"method": "rhf"
			},
			{
				"type": "unocc",
				"energy": 0.01961,
				"method": "rhf"
			},
			{
				"type": "unocc",
				"energy": 0.06153,
				"method": "rhf"
			}
		],
		"cosmo_sigma_profile": { 
			"-0.025": 0.0,
			"-0.024": 0.0,
			"-0.023": 0.0,
			"-0.022": 0.0,
			"-0.021": 0.0,
			"-0.02": 0.0,
			"-0.019": 0.0,
			"-0.018": 0.0,
			"-0.017": 0.0,
			"-0.016": 0.0,
			"-0.015": 0.0,
			"-0.014": 0.0,
			"-0.013": 0.0,
			"-0.012": 0.0,
			"-0.011": 0.586588472018,
			"-0.01": 3.91405756801,
			"-0.009": 2.98861026359,
			"-0.008": 3.85496863129,
			"-0.007": 2.87732301455,
			"-0.006": 3.45651694167,
			"-0.005": 4.26785268802,
			"-0.004": 11.2230514285,
			"-0.003": 20.4564916429,
			"-0.002": 22.1309061727,
			"-0.001": 14.6981305757,
			"0.0": 9.56721291721,
			"0.001": 10.2089502114,
			"0.002": 23.0817576479,
			"0.003": 22.8103673934,
			"0.004": 3.12758349793,
			"0.005": 2.97087209755,
			"0.006": 2.64633712371,
			"0.007": 3.16897891618,
			"0.008": 3.37724821408,
			"0.009": 3.16092714653,
			"0.01": 2.89283461415,
			"0.011": 2.52424245471,
			"0.012": 1.83209886682,
			"0.013": 0.273047761389,
			"0.014": 0.0,
			"0.015": 0.0,
			"0.016": 0.0,
			"0.017": 0.0,
			"0.018": 0.0,
			"0.019": 0.0,
			"0.02": 0.0,
			"0.021": 0.0,
			"0.022": 0.0,
			"0.023": 0.0,
			"0.024": 0.0,
			"0.025": 0.0
		}
	}
}
