{
	 "smiles": "CC(C(O)=O)C1=C(C)NN=C1C", 
	 "Tm": 455.15, 
	 "num_atms": 24, 
	 "gaussian": { 
		 "optdone": 1, 
		 "sigma_profile": "yes", 
		 "theory": "DFT", 
		 "functional": "B3LYP", 
		 "basiset": "6-31G**", 
		 "properties": { 
			 "R2extent": 2738.3098, 
			 "electric_dipole_moment_norm": 3.56834161341, 
			 "electric_quadrupole_moment_norm": 20.1540940384, 
			 "total_energy": -572.04324376, 
			 "HOMO_LUMO_gap": 0.25198, 
			 "cosmo_polarized_energy": -17.16, 
			 "cosmo_cavitation_energy": 27.1, 
			 "cosmo_dispersion_energy": -18.94, 
			 "cosmo_repulsion_energy": 1.53, 
			 "cosmo_total_nonelectrostatic_energy": 9.68, 
			 "SMD_solvation_energy": 4.97 
		},
		"coords": [
			{
				"x": 0.3014747624,
				"y": -3.7944930832,
				"z": -0.503605926,
				"element": "C" 
			},
			{
				"x": 0.5393467547,
				"y": -2.2941528582,
				"z": -0.745512195,
				"element": "C" 
			},
			{
				"x": -0.2846283123,
				"y": -1.8084513334,
				"z": -1.9552393381,
				"element": "C" 
			},
			{
				"x": -0.4984085807,
				"y": -0.4704335621,
				"z": -2.0164445193,
				"element": "O" 
			},
			{
				"x": -0.6901219736,
				"y": -2.5352376047,
				"z": -2.8288094286,
				"element": "O" 
			},
			{
				"x": 0.3599894506,
				"y": -1.4385091439,
				"z": 0.4870745537,
				"element": "C" 
			},
			{
				"x": -0.8281234527,
				"y": -1.1155169241,
				"z": 1.1451357005,
				"element": "C" 
			},
			{
				"x": -2.2619432252,
				"y": -1.4298275894,
				"z": 0.8488851035,
				"element": "C" 
			},
			{
				"x": -0.4540267403,
				"y": -0.3831451525,
				"z": 2.2256325751,
				"element": "N" 
			},
			{
				"x": 0.8816638512,
				"y": -0.2005419008,
				"z": 2.331453751,
				"element": "N" 
			},
			{
				"x": 1.3870633101,
				"y": -0.842211007,
				"z": 1.2790150625,
				"element": "C" 
			},
			{
				"x": 2.8693129507,
				"y": -0.8736381307,
				"z": 1.0558430285,
				"element": "C" 
			},
			{
				"x": 0.4550583981,
				"y": -4.3558745381,
				"z": -1.4271709925,
				"element": "H" 
			},
			{
				"x": 0.98477999,
				"y": -4.1665109372,
				"z": 0.2644081054,
				"element": "H" 
			},
			{
				"x": -0.7228431694,
				"y": -3.980029977,
				"z": -0.1673784794,
				"element": "H" 
			},
			{
				"x": 1.5831168937,
				"y": -2.1716193092,
				"z": -1.0707736688,
				"element": "H" 
			},
			{
				"x": -0.1533421572,
				"y": -0.0706818492,
				"z": -1.1994770002,
				"element": "H" 
			},
			{
				"x": -2.9317247843,
				"y": -0.8583895549,
				"z": 1.4988872241,
				"element": "H" 
			},
			{
				"x": -2.4817477565,
				"y": -2.4926529998,
				"z": 0.9969932845,
				"element": "H" 
			},
			{
				"x": -2.5130282872,
				"y": -1.1822776599,
				"z": -0.1868968498,
				"element": "H" 
			},
			{
				"x": -1.0605393017,
				"y": 0.0302995363,
				"z": 2.9175988948,
				"element": "H" 
			},
			{
				"x": 3.3668971763,
				"y": -0.295120537,
				"z": 1.8368510839,
				"element": "H" 
			},
			{
				"x": 3.1457686673,
				"y": -0.4461399722,
				"z": 0.0851207691,
				"element": "H" 
			},
			{
				"x": 3.2614055361,
				"y": -1.896643912,
				"z": 1.0849092612,
				"element": "H" 
			}
		],
		 "valence_orbital": [ 
			{
				"type": "occ",
				"energy": -0.31,
				"method": "rhf"
			},
			{
				"type": "occ",
				"energy": -0.2952,
				"method": "rhf"
			},
			{
				"type": "occ",
				"energy": -0.27169,
				"method": "rhf"
			},
			{
				"type": "occ",
				"energy": -0.25327,
				"method": "rhf"
			},
			{
				"type": "occ",
				"energy": -0.24166,
				"method": "rhf"
			},
			{
				"type": "unocc",
				"energy": 0.01032,
				"method": "rhf"
			},
			{
				"type": "unocc",
				"energy": 0.01291,
				"method": "rhf"
			},
			{
				"type": "unocc",
				"energy": 0.04397,
				"method": "rhf"
			},
			{
				"type": "unocc",
				"energy": 0.0669,
				"method": "rhf"
			},
			{
				"type": "unocc",
				"energy": 0.07227,
				"method": "rhf"
			}
		],
		"cosmo_sigma_profile": { 
			"-0.025": 0.0,
			"-0.024": 0.0,
			"-0.023": 0.0,
			"-0.022": 0.0,
			"-0.021": 0.0,
			"-0.02": 0.0,
			"-0.019": 0.0,
			"-0.018": 0.0,
			"-0.017": 0.0,
			"-0.016": 0.937451814099,
			"-0.015": 1.66105659927,
			"-0.014": 1.81992944069,
			"-0.013": 1.37074274519,
			"-0.012": 1.74054991453,
			"-0.011": 1.90228401321,
			"-0.01": 3.16519185478,
			"-0.009": 2.05817244763,
			"-0.008": 2.55138217385,
			"-0.007": 4.40470816189,
			"-0.006": 6.20991576956,
			"-0.005": 11.1666586194,
			"-0.004": 19.4299813126,
			"-0.003": 21.5907213388,
			"-0.002": 21.9257264059,
			"-0.001": 18.1792723265,
			"0.0": 16.7961043263,
			"0.001": 10.6525667916,
			"0.002": 6.29605995226,
			"0.003": 5.4599256418,
			"0.004": 5.99577025503,
			"0.005": 4.24659779192,
			"0.006": 4.80625601835,
			"0.007": 4.16393812819,
			"0.008": 4.12988797985,
			"0.009": 4.87791472501,
			"0.01": 5.53072325056,
			"0.011": 5.96267316635,
			"0.012": 6.94805016352,
			"0.013": 3.14071641936,
			"0.014": 1.42858591714,
			"0.015": 0.77658075494,
			"0.016": 1.27847608362,
			"0.017": 0.199287443474,
			"0.018": 0.0,
			"0.019": 0.0,
			"0.02": 0.0,
			"0.021": 0.0,
			"0.022": 0.0,
			"0.023": 0.0,
			"0.024": 0.0,
			"0.025": 0.0
		}
	}
}
