{
	 "smiles": "OC(=O)C1CC2CCC1O2", 
	 "Tm": 318.15, 
	 "num_atms": 20, 
	 "gaussian": { 
		 "optdone": 1, 
		 "sigma_profile": "yes", 
		 "theory": "DFT", 
		 "functional": "B3LYP", 
		 "basiset": "6-31G**", 
		 "properties": { 
			 "R2extent": 2272.0987, 
			 "electric_dipole_moment_norm": 2.46911373169, 
			 "electric_quadrupole_moment_norm": 14.8716869897, 
			 "total_energy": -498.435302851, 
			 "HOMO_LUMO_gap": 0.26289, 
			 "cosmo_polarized_energy": -14.64, 
			 "cosmo_cavitation_energy": 21.65, 
			 "cosmo_dispersion_energy": -16.54, 
			 "cosmo_repulsion_energy": 1.34, 
			 "cosmo_total_nonelectrostatic_energy": 6.46, 
			 "SMD_solvation_energy": 3.99 
		},
		"coords": [
			{
				"x": -0.3055226868,
				"y": -2.0600237157,
				"z": -0.0937566443,
				"element": "O" 
			},
			{
				"x": 0.6611187546,
				"y": -1.7738349828,
				"z": 0.8214071479,
				"element": "C" 
			},
			{
				"x": 1.6767915703,
				"y": -2.4259824707,
				"z": 0.8411763285,
				"element": "O" 
			},
			{
				"x": 0.3716206801,
				"y": -0.5805812846,
				"z": 1.7171862836,
				"element": "C" 
			},
			{
				"x": 1.245319613,
				"y": -0.5059983918,
				"z": 3.0003502274,
				"element": "C" 
			},
			{
				"x": 1.8590558106,
				"y": 0.9069800475,
				"z": 2.8700265396,
				"element": "C" 
			},
			{
				"x": 2.979962203,
				"y": 0.9022024431,
				"z": 1.8085485458,
				"element": "C" 
			},
			{
				"x": 2.1460649029,
				"y": 0.8195292366,
				"z": 0.4942234566,
				"element": "C" 
			},
			{
				"x": 0.7082455557,
				"y": 0.8053325561,
				"z": 1.0582106453,
				"element": "C" 
			},
			{
				"x": 0.8046838464,
				"y": 1.644841691,
				"z": 2.2118363824,
				"element": "O" 
			},
			{
				"x": -1.0620916401,
				"y": -1.4686013459,
				"z": 0.025141435,
				"element": "H" 
			},
			{
				"x": -0.6929186252,
				"y": -0.5750305696,
				"z": 1.9796088226,
				"element": "H" 
			},
			{
				"x": 0.625280207,
				"y": -0.5833647044,
				"z": 3.8966808089,
				"element": "H" 
			},
			{
				"x": 1.9947218057,
				"y": -1.2998900337,
				"z": 3.0181234691,
				"element": "H" 
			},
			{
				"x": 2.1054820415,
				"y": 1.3950051601,
				"z": 3.8138209985,
				"element": "H" 
			},
			{
				"x": 3.6651152121,
				"y": 0.0592130816,
				"z": 1.9282248187,
				"element": "H" 
			},
			{
				"x": 3.5596049903,
				"y": 1.8277294428,
				"z": 1.8552042343,
				"element": "H" 
			},
			{
				"x": 2.3869149993,
				"y": -0.0585736164,
				"z": -0.1082347397,
				"element": "H" 
			},
			{
				"x": 2.2867343725,
				"y": 1.7087909953,
				"z": -0.1252569919,
				"element": "H" 
			},
			{
				"x": -0.0634836129,
				"y": 1.1866564617,
				"z": 0.3865782317,
				"element": "H" 
			}
		],
		 "valence_orbital": [ 
			{
				"type": "occ",
				"energy": -0.32979,
				"method": "rhf"
			},
			{
				"type": "occ",
				"energy": -0.31749,
				"method": "rhf"
			},
			{
				"type": "occ",
				"energy": -0.31246,
				"method": "rhf"
			},
			{
				"type": "occ",
				"energy": -0.27969,
				"method": "rhf"
			},
			{
				"type": "occ",
				"energy": -0.26128,
				"method": "rhf"
			},
			{
				"type": "unocc",
				"energy": 0.00161,
				"method": "rhf"
			},
			{
				"type": "unocc",
				"energy": 0.04475,
				"method": "rhf"
			},
			{
				"type": "unocc",
				"energy": 0.08275,
				"method": "rhf"
			},
			{
				"type": "unocc",
				"energy": 0.0966,
				"method": "rhf"
			},
			{
				"type": "unocc",
				"energy": 0.12808,
				"method": "rhf"
			}
		],
		"cosmo_sigma_profile": { 
			"-0.025": 0.0,
			"-0.024": 0.0,
			"-0.023": 0.0,
			"-0.022": 0.0,
			"-0.021": 0.0,
			"-0.02": 0.0,
			"-0.019": 0.527296567666,
			"-0.018": 0.777266282668,
			"-0.017": 1.5463295542,
			"-0.016": 0.949881198462,
			"-0.015": 1.09340406754,
			"-0.014": 1.16610088788,
			"-0.013": 0.782035786223,
			"-0.012": 1.63103635974,
			"-0.011": 1.49955479468,
			"-0.01": 1.03981137112,
			"-0.009": 1.20894017156,
			"-0.008": 1.87376746556,
			"-0.007": 3.11623635377,
			"-0.006": 5.22129478065,
			"-0.005": 5.76006711181,
			"-0.004": 13.6070282633,
			"-0.003": 21.7589632189,
			"-0.002": 17.1001514745,
			"-0.001": 15.4950852114,
			"0.0": 13.385455261,
			"0.001": 6.98279878822,
			"0.002": 3.92503076312,
			"0.003": 3.38748423646,
			"0.004": 3.36109099581,
			"0.005": 4.19580958881,
			"0.006": 3.51190779839,
			"0.007": 4.05784463291,
			"0.008": 3.17107389301,
			"0.009": 4.08777131025,
			"0.01": 5.88163734546,
			"0.011": 6.15178683494,
			"0.012": 6.16993492964,
			"0.013": 3.74399154496,
			"0.014": 0.678801449374,
			"0.015": 0.0,
			"0.016": 0.0,
			"0.017": 0.0,
			"0.018": 0.0,
			"0.019": 0.0,
			"0.02": 0.0,
			"0.021": 0.0,
			"0.022": 0.0,
			"0.023": 0.0,
			"0.024": 0.0,
			"0.025": 0.0
		}
	}
}
