{
	 "smiles": "CC(O)(CCCC1=CC=CC=C1)C1=CC=CC=C1", 
	 "Tm": 468.15, 
	 "num_atms": 38, 
	 "gaussian": { 
		 "optdone": 1, 
		 "sigma_profile": "yes", 
		 "theory": "DFT", 
		 "functional": "B3LYP", 
		 "basiset": "6-31G**", 
		 "properties": { 
			 "R2extent": 6234.4914, 
			 "electric_dipole_moment_norm": 1.38791086529, 
			 "electric_quadrupole_moment_norm": 8.45310291668, 
			 "total_energy": -735.098888186, 
			 "HOMO_LUMO_gap": 0.23171, 
			 "cosmo_polarized_energy": -8.27, 
			 "cosmo_cavitation_energy": 38.7, 
			 "cosmo_dispersion_energy": -26.62, 
			 "cosmo_repulsion_energy": 2.05, 
			 "cosmo_total_nonelectrostatic_energy": 14.13, 
			 "SMD_solvation_energy": 6.05 
		},
		"coords": [
			{
				"x": -2.0826011943,
				"y": -3.0616678711,
				"z": -0.5849888522,
				"element": "C" 
			},
			{
				"x": -1.189331761,
				"y": -1.8455716032,
				"z": -0.2632223185,
				"element": "C" 
			},
			{
				"x": -0.7832054896,
				"y": -1.2501979845,
				"z": -1.5050814585,
				"element": "O" 
			},
			{
				"x": -1.9884789986,
				"y": -0.823283327,
				"z": 0.586066359,
				"element": "C" 
			},
			{
				"x": -1.2455846437,
				"y": 0.4250742457,
				"z": 1.0909753376,
				"element": "C" 
			},
			{
				"x": -0.7603603465,
				"y": 1.4304985937,
				"z": 0.0219515247,
				"element": "C" 
			},
			{
				"x": -1.8489336247,
				"y": 1.9696358241,
				"z": -0.8870617704,
				"element": "C" 
			},
			{
				"x": -2.9466892438,
				"y": 2.6733458024,
				"z": -0.3669570832,
				"element": "C" 
			},
			{
				"x": -3.9462206209,
				"y": 3.1698448328,
				"z": -1.2035370622,
				"element": "C" 
			},
			{
				"x": -3.8694120693,
				"y": 2.975079815,
				"z": -2.5850564157,
				"element": "C" 
			},
			{
				"x": -2.7817251106,
				"y": 2.284543159,
				"z": -3.1192811617,
				"element": "C" 
			},
			{
				"x": -1.783598378,
				"y": 1.7874899658,
				"z": -2.2764266053,
				"element": "C" 
			},
			{
				"x": 0.0849269316,
				"y": -2.3082499463,
				"z": 0.4463689854,
				"element": "C" 
			},
			{
				"x": 0.0125202324,
				"y": -2.9136146738,
				"z": 1.7105892114,
				"element": "C" 
			},
			{
				"x": 1.1639027048,
				"y": -3.354290285,
				"z": 2.3622221313,
				"element": "C" 
			},
			{
				"x": 2.4141209471,
				"y": -3.2004967406,
				"z": 1.7593171951,
				"element": "C" 
			},
			{
				"x": 2.497144755,
				"y": -2.6027689261,
				"z": 0.5021873376,
				"element": "C" 
			},
			{
				"x": 1.3433540913,
				"y": -2.1599108197,
				"z": -0.1492866977,
				"element": "C" 
			},
			{
				"x": -1.5447570117,
				"y": -3.7487905442,
				"z": -1.2432692453,
				"element": "H" 
			},
			{
				"x": -2.9970922203,
				"y": -2.7357149225,
				"z": -1.0952454103,
				"element": "H" 
			},
			{
				"x": -2.376835792,
				"y": -3.60495861,
				"z": 0.3177313673,
				"element": "H" 
			},
			{
				"x": -1.5664341565,
				"y": -0.8450910003,
				"z": -1.9006274806,
				"element": "H" 
			},
			{
				"x": -2.3945787637,
				"y": -1.3515097508,
				"z": 1.4571228784,
				"element": "H" 
			},
			{
				"x": -2.8636520415,
				"y": -0.5162895126,
				"z": -0.0039186952,
				"element": "H" 
			},
			{
				"x": -0.3794014024,
				"y": 0.1145975121,
				"z": 1.6863595128,
				"element": "H" 
			},
			{
				"x": -1.9180874785,
				"y": 0.9453505705,
				"z": 1.7852134423,
				"element": "H" 
			},
			{
				"x": 0.0165321556,
				"y": 0.963535531,
				"z": -0.5870216681,
				"element": "H" 
			},
			{
				"x": -0.2887427536,
				"y": 2.2709047173,
				"z": 0.5492908275,
				"element": "H" 
			},
			{
				"x": -3.0164610632,
				"y": 2.8399067766,
				"z": 0.7053794994,
				"element": "H" 
			},
			{
				"x": -4.7851225715,
				"y": 3.7135319927,
				"z": -0.7773945194,
				"element": "H" 
			},
			{
				"x": -4.6471013652,
				"y": 3.3628829878,
				"z": -3.2367263012,
				"element": "H" 
			},
			{
				"x": -2.7050734651,
				"y": 2.1342201857,
				"z": -4.1928236186,
				"element": "H" 
			},
			{
				"x": -0.9301190515,
				"y": 1.2643732136,
				"z": -2.7008328293,
				"element": "H" 
			},
			{
				"x": -0.9507815476,
				"y": -3.044819988,
				"z": 2.1962690821,
				"element": "H" 
			},
			{
				"x": 1.0833973961,
				"y": -3.8188046576,
				"z": 3.3411975579,
				"element": "H" 
			},
			{
				"x": 3.3120098604,
				"y": -3.5440283192,
				"z": 2.2651575531,
				"element": "H" 
			},
			{
				"x": 3.4639466367,
				"y": -2.4787860561,
				"z": 0.0216731826,
				"element": "H" 
			},
			{
				"x": 1.4098264542,
				"y": -1.6991701872,
				"z": -1.127113792,
				"element": "H" 
			}
		],
		 "valence_orbital": [ 
			{
				"type": "occ",
				"energy": -0.26528,
				"method": "rhf"
			},
			{
				"type": "occ",
				"energy": -0.24836,
				"method": "rhf"
			},
			{
				"type": "occ",
				"energy": -0.24282,
				"method": "rhf"
			},
			{
				"type": "occ",
				"energy": -0.23952,
				"method": "rhf"
			},
			{
				"type": "occ",
				"energy": -0.23467,
				"method": "rhf"
			},
			{
				"type": "unocc",
				"energy": -0.00296,
				"method": "rhf"
			},
			{
				"type": "unocc",
				"energy": 0.00067,
				"method": "rhf"
			},
			{
				"type": "unocc",
				"energy": 0.0032,
				"method": "rhf"
			},
			{
				"type": "unocc",
				"energy": 0.00745,
				"method": "rhf"
			},
			{
				"type": "unocc",
				"energy": 0.0723,
				"method": "rhf"
			}
		],
		"cosmo_sigma_profile": { 
			"-0.025": 0.0,
			"-0.024": 0.0,
			"-0.023": 0.0,
			"-0.022": 0.0,
			"-0.021": 0.0,
			"-0.02": 0.0,
			"-0.019": 0.0,
			"-0.018": 0.0,
			"-0.017": 0.0,
			"-0.016": 0.0,
			"-0.015": 0.0,
			"-0.014": 0.0,
			"-0.013": 0.0,
			"-0.012": 0.0476872667538,
			"-0.011": 0.56382002424,
			"-0.01": 1.26518713963,
			"-0.009": 0.974024302141,
			"-0.008": 0.923763930209,
			"-0.007": 1.33173780843,
			"-0.006": 5.26409465065,
			"-0.005": 20.9043660957,
			"-0.004": 24.0500060009,
			"-0.003": 33.1997853779,
			"-0.002": 29.3906801575,
			"-0.001": 30.2069313004,
			"0.0": 29.9573262826,
			"0.001": 27.0824683132,
			"0.002": 19.9181463268,
			"0.003": 17.6412790226,
			"0.004": 17.1661475108,
			"0.005": 16.9817531291,
			"0.006": 16.7289855524,
			"0.007": 5.76673706322,
			"0.008": 1.57657571303,
			"0.009": 1.09123081279,
			"0.01": 0.576048372435,
			"0.011": 0.690753440231,
			"0.012": 0.644568634233,
			"0.013": 0.544680320196,
			"0.014": 0.0,
			"0.015": 0.0,
			"0.016": 0.0,
			"0.017": 0.0,
			"0.018": 0.0,
			"0.019": 0.0,
			"0.02": 0.0,
			"0.021": 0.0,
			"0.022": 0.0,
			"0.023": 0.0,
			"0.024": 0.0,
			"0.025": 0.0
		}
	}
}
