{
	 "smiles": "ClC1=C(Cl)C(Cl)(Cl)C(Cl)=C1Cl", 
	 "Tm": 264.15, 
	 "num_atms": 11, 
	 "gaussian": { 
		 "optdone": 1, 
		 "sigma_profile": "yes", 
		 "theory": "DFT", 
		 "functional": "B3LYP", 
		 "basiset": "6-31G**", 
		 "properties": { 
			 "R2extent": 4462.3122, 
			 "electric_dipole_moment_norm": 0.841017960569, 
			 "electric_quadrupole_moment_norm": 2.0796190805, 
			 "total_energy": -2951.61943444, 
			 "HOMO_LUMO_gap": 0.14834, 
			 "cosmo_polarized_energy": -2.31, 
			 "cosmo_cavitation_energy": 26.5, 
			 "cosmo_dispersion_energy": -19.47, 
			 "cosmo_repulsion_energy": 1.58, 
			 "cosmo_total_nonelectrostatic_energy": 8.61, 
			 "SMD_solvation_energy": 2.84 
		},
		"coords": [
			{
				"x": -1.9188856681,
				"y": 0.4347555359,
				"z": -0.6192424197,
				"element": "Cl" 
			},
			{
				"x": -0.2117454991,
				"y": 0.5357092219,
				"z": -0.7253327757,
				"element": "C" 
			},
			{
				"x": 0.6899794374,
				"y": -0.1331224408,
				"z": 0.015974993,
				"element": "C" 
			},
			{
				"x": 0.4057899866,
				"y": -1.2648813887,
				"z": 1.264407721,
				"element": "Cl" 
			},
			{
				"x": 2.088816897,
				"y": 0.269887023,
				"z": -0.4238203323,
				"element": "C" 
			},
			{
				"x": 2.9927516128,
				"y": 1.037187449,
				"z": 0.9342459617,
				"element": "Cl" 
			},
			{
				"x": 3.0012147083,
				"y": -1.1537136787,
				"z": -1.0488118569,
				"element": "Cl" 
			},
			{
				"x": 1.8243231418,
				"y": 1.2745055042,
				"z": -1.5343916662,
				"element": "C" 
			},
			{
				"x": 3.0805111315,
				"y": 2.0543209012,
				"z": -2.3911813395,
				"element": "Cl" 
			},
			{
				"x": 0.4954416293,
				"y": 1.4132642279,
				"z": -1.691887299,
				"element": "C" 
			},
			{
				"x": -0.3144973775,
				"y": 2.4256876452,
				"z": -2.8120609863,
				"element": "Cl" 
			}
		],
		 "valence_orbital": [ 
			{
				"type": "occ",
				"energy": -0.33497,
				"method": "rhf"
			},
			{
				"type": "occ",
				"energy": -0.32983,
				"method": "rhf"
			},
			{
				"type": "occ",
				"energy": -0.32659,
				"method": "rhf"
			},
			{
				"type": "occ",
				"energy": -0.30729,
				"method": "rhf"
			},
			{
				"type": "occ",
				"energy": -0.24877,
				"method": "rhf"
			},
			{
				"type": "unocc",
				"energy": -0.10043,
				"method": "rhf"
			},
			{
				"type": "unocc",
				"energy": -0.05141,
				"method": "rhf"
			},
			{
				"type": "unocc",
				"energy": -0.00797,
				"method": "rhf"
			},
			{
				"type": "unocc",
				"energy": 0.019,
				"method": "rhf"
			},
			{
				"type": "unocc",
				"energy": 0.03093,
				"method": "rhf"
			}
		],
		"cosmo_sigma_profile": { 
			"-0.025": 0.0,
			"-0.024": 0.0,
			"-0.023": 0.0,
			"-0.022": 0.0,
			"-0.021": 0.0,
			"-0.02": 0.0,
			"-0.019": 0.0,
			"-0.018": 0.0,
			"-0.017": 0.0,
			"-0.016": 0.0,
			"-0.015": 0.0,
			"-0.014": 0.0,
			"-0.013": 0.0,
			"-0.012": 0.0,
			"-0.011": 0.0,
			"-0.01": 0.0,
			"-0.009": 0.0,
			"-0.008": 0.0,
			"-0.007": 0.0,
			"-0.006": 0.507820140227,
			"-0.005": 7.9700197035,
			"-0.004": 13.8567497421,
			"-0.003": 18.3675217986,
			"-0.002": 21.7232738137,
			"-0.001": 21.2530421791,
			"0.0": 26.2202605529,
			"0.001": 35.1023220864,
			"0.002": 61.5537315793,
			"0.003": 20.7069539342,
			"0.004": 0.0630571498609,
			"0.005": 0.0,
			"0.006": 0.0,
			"0.007": 0.0,
			"0.008": 0.0,
			"0.009": 0.0,
			"0.01": 0.0,
			"0.011": 0.0,
			"0.012": 0.0,
			"0.013": 0.0,
			"0.014": 0.0,
			"0.015": 0.0,
			"0.016": 0.0,
			"0.017": 0.0,
			"0.018": 0.0,
			"0.019": 0.0,
			"0.02": 0.0,
			"0.021": 0.0,
			"0.022": 0.0,
			"0.023": 0.0,
			"0.024": 0.0,
			"0.025": 0.0
		}
	}
}
