{
	 "smiles": "C1C2=CC=CC=C2C2=CC3=CC=CC=C3C=C12", 
	 "Tm": 483.15, 
	 "num_atms": 29, 
	 "gaussian": { 
		 "optdone": 1, 
		 "sigma_profile": "yes", 
		 "theory": "DFT", 
		 "functional": "B3LYP", 
		 "basiset": "6-31G**", 
		 "properties": { 
			 "R2extent": 5107.9887, 
			 "electric_dipole_moment_norm": 0.605341829052, 
			 "electric_quadrupole_moment_norm": 10.605482651, 
			 "total_energy": -655.072040804, 
			 "HOMO_LUMO_gap": 0.15842, 
			 "cosmo_polarized_energy": -6.56, 
			 "cosmo_cavitation_energy": 32.08, 
			 "cosmo_dispersion_energy": -23.89, 
			 "cosmo_repulsion_energy": 1.79, 
			 "cosmo_total_nonelectrostatic_energy": 9.98, 
			 "SMD_solvation_energy": 4.32 
		},
		"coords": [
			{
				"x": 1.5298321213,
				"y": 1.9905889056,
				"z": -2.0870140654,
				"element": "C" 
			},
			{
				"x": 1.7035722162,
				"y": 2.6975192472,
				"z": -0.756459225,
				"element": "C" 
			},
			{
				"x": 2.5715940896,
				"y": 3.7292611875,
				"z": -0.4152624128,
				"element": "C" 
			},
			{
				"x": 2.5537183921,
				"y": 4.2289644983,
				"z": 0.8917129502,
				"element": "C" 
			},
			{
				"x": 1.6751514634,
				"y": 3.6990449553,
				"z": 1.8437783351,
				"element": "C" 
			},
			{
				"x": 0.8018086447,
				"y": 2.6635202659,
				"z": 1.5070425193,
				"element": "C" 
			},
			{
				"x": 0.8178372757,
				"y": 2.1628081492,
				"z": 0.2023383864,
				"element": "C" 
			},
			{
				"x": 0.0267110179,
				"y": 1.0965862177,
				"z": -0.4258230923,
				"element": "C" 
			},
			{
				"x": -0.9590948191,
				"y": 0.2803512382,
				"z": 0.0838368042,
				"element": "C" 
			},
			{
				"x": -1.5772604661,
				"y": -0.6892479477,
				"z": -0.7510423827,
				"element": "C" 
			},
			{
				"x": -2.5986671503,
				"y": -1.5540793179,
				"z": -0.2710963697,
				"element": "C" 
			},
			{
				"x": -3.1856669089,
				"y": -2.4874523769,
				"z": -1.0957553762,
				"element": "C" 
			},
			{
				"x": -2.7778609346,
				"y": -2.6019853476,
				"z": -2.4470592178,
				"element": "C" 
			},
			{
				"x": -1.7909620196,
				"y": -1.7799522815,
				"z": -2.9450870602,
				"element": "C" 
			},
			{
				"x": -1.1637835313,
				"y": -0.8063070243,
				"z": -2.1235629756,
				"element": "C" 
			},
			{
				"x": -0.1412081331,
				"y": 0.0532580395,
				"z": -2.6197885373,
				"element": "C" 
			},
			{
				"x": 0.4378305373,
				"y": 0.979550551,
				"z": -1.7920970873,
				"element": "C" 
			},
			{
				"x": 2.4581880213,
				"y": 1.5067864518,
				"z": -2.4186802646,
				"element": "H" 
			},
			{
				"x": 1.2402297851,
				"y": 2.6859389149,
				"z": -2.8860940584,
				"element": "H" 
			},
			{
				"x": 3.2563855229,
				"y": 4.1451313663,
				"z": -1.1501376491,
				"element": "H" 
			},
			{
				"x": 3.2270819937,
				"y": 5.0346677762,
				"z": 1.1697934346,
				"element": "H" 
			},
			{
				"x": 1.6730990436,
				"y": 4.0975961771,
				"z": 2.8543586684,
				"element": "H" 
			},
			{
				"x": 0.1221118032,
				"y": 2.2562631885,
				"z": 2.2505616011,
				"element": "H" 
			},
			{
				"x": -1.2777410334,
				"y": 0.3621427908,
				"z": 1.1202809067,
				"element": "H" 
			},
			{
				"x": -2.9103887046,
				"y": -1.4646098637,
				"z": 0.766664091,
				"element": "H" 
			},
			{
				"x": -3.9645887117,
				"y": -3.1396427609,
				"z": -0.7112159874,
				"element": "H" 
			},
			{
				"x": -3.2463644851,
				"y": -3.3411257564,
				"z": -3.0905177812,
				"element": "H" 
			},
			{
				"x": -1.4763621242,
				"y": -1.866259603,
				"z": -3.9823174596,
				"element": "H" 
			},
			{
				"x": 0.1651970939,
				"y": -0.0424176413,
				"z": -3.6593566942,
				"element": "H" 
			}
		],
		 "valence_orbital": [ 
			{
				"type": "occ",
				"energy": -0.28325,
				"method": "rhf"
			},
			{
				"type": "occ",
				"energy": -0.26316,
				"method": "rhf"
			},
			{
				"type": "occ",
				"energy": -0.24502,
				"method": "rhf"
			},
			{
				"type": "occ",
				"energy": -0.2217,
				"method": "rhf"
			},
			{
				"type": "occ",
				"energy": -0.2031,
				"method": "rhf"
			},
			{
				"type": "unocc",
				"energy": -0.04468,
				"method": "rhf"
			},
			{
				"type": "unocc",
				"energy": -0.01709,
				"method": "rhf"
			},
			{
				"type": "unocc",
				"energy": 0.00056,
				"method": "rhf"
			},
			{
				"type": "unocc",
				"energy": 0.02179,
				"method": "rhf"
			},
			{
				"type": "unocc",
				"energy": 0.04292,
				"method": "rhf"
			}
		],
		"cosmo_sigma_profile": { 
			"-0.025": 0.0,
			"-0.024": 0.0,
			"-0.023": 0.0,
			"-0.022": 0.0,
			"-0.021": 0.0,
			"-0.02": 0.0,
			"-0.019": 0.0,
			"-0.018": 0.0,
			"-0.017": 0.0,
			"-0.016": 0.0,
			"-0.015": 0.0,
			"-0.014": 0.0,
			"-0.013": 0.0,
			"-0.012": 0.0,
			"-0.011": 0.0,
			"-0.01": 0.0,
			"-0.009": 0.0,
			"-0.008": 0.0,
			"-0.007": 0.0,
			"-0.006": 10.6189508528,
			"-0.005": 28.1763556265,
			"-0.004": 23.1321634633,
			"-0.003": 26.8122090999,
			"-0.002": 19.6913071722,
			"-0.001": 15.8516009984,
			"0.0": 13.8505905484,
			"0.001": 15.3062490734,
			"0.002": 15.089335092,
			"0.003": 20.3840540524,
			"0.004": 30.2730894352,
			"0.005": 27.1043361561,
			"0.006": 11.2406439491,
			"0.007": 0.144997553197,
			"0.008": 0.0,
			"0.009": 0.0,
			"0.01": 0.0,
			"0.011": 0.0,
			"0.012": 0.0,
			"0.013": 0.0,
			"0.014": 0.0,
			"0.015": 0.0,
			"0.016": 0.0,
			"0.017": 0.0,
			"0.018": 0.0,
			"0.019": 0.0,
			"0.02": 0.0,
			"0.021": 0.0,
			"0.022": 0.0,
			"0.023": 0.0,
			"0.024": 0.0,
			"0.025": 0.0
		}
	}
}
