{
	 "smiles": "OCC1=CC=CC=C1Br", 
	 "Tm": 353.65, 
	 "num_atms": 16, 
	 "gaussian": { 
		 "optdone": 1, 
		 "sigma_profile": "yes", 
		 "theory": "DFT", 
		 "functional": "B3LYP", 
		 "basiset": "6-31G**", 
		 "properties": { 
			 "R2extent": 2302.6713, 
			 "electric_dipole_moment_norm": 2.1736201209, 
			 "electric_quadrupole_moment_norm": 10.640171266, 
			 "total_energy": -2917.58084693, 
			 "HOMO_LUMO_gap": 0.22779, 
			 "cosmo_polarized_energy": -6.8, 
			 "cosmo_cavitation_energy": 21.54, 
			 "cosmo_dispersion_energy": -16.56, 
			 "cosmo_repulsion_energy": 1.35, 
			 "cosmo_total_nonelectrostatic_energy": 6.32, 
			 "SMD_solvation_energy": 2.6 
		},
		"coords": [
			{
				"x": -2.0110216327,
				"y": -1.1054417208,
				"z": 2.7231921507,
				"element": "O" 
			},
			{
				"x": -1.1863292388,
				"y": -1.436349058,
				"z": 1.6159552209,
				"element": "C" 
			},
			{
				"x": -0.0667626542,
				"y": -0.4408357258,
				"z": 1.370269913,
				"element": "C" 
			},
			{
				"x": 1.2636838006,
				"y": -0.7869146828,
				"z": 1.6430345949,
				"element": "C" 
			},
			{
				"x": 2.3140524843,
				"y": 0.1049071728,
				"z": 1.427273385,
				"element": "C" 
			},
			{
				"x": 2.0492123458,
				"y": 1.3808334258,
				"z": 0.9307184017,
				"element": "C" 
			},
			{
				"x": 0.7351127133,
				"y": 1.7597446843,
				"z": 0.6522961322,
				"element": "C" 
			},
			{
				"x": -0.2941370722,
				"y": 0.8490661398,
				"z": 0.8745889182,
				"element": "C" 
			},
			{
				"x": -2.0915184616,
				"y": 1.4212004697,
				"z": 0.4775345622,
				"element": "Br" 
			},
			{
				"x": -2.5106831201,
				"y": -0.3134918221,
				"z": 2.4792693419,
				"element": "H" 
			},
			{
				"x": -0.7488637279,
				"y": -2.4114891394,
				"z": 1.8473112205,
				"element": "H" 
			},
			{
				"x": -1.7791980861,
				"y": -1.5508075491,
				"z": 0.6961893282,
				"element": "H" 
			},
			{
				"x": 1.4703774006,
				"y": -1.7795967007,
				"z": 2.0343280123,
				"element": "H" 
			},
			{
				"x": 3.3338638636,
				"y": -0.1951510359,
				"z": 1.6482605446,
				"element": "H" 
			},
			{
				"x": 2.8574309041,
				"y": 2.0853724415,
				"z": 0.7591118415,
				"element": "H" 
			},
			{
				"x": 0.5112804811,
				"y": 2.7481531008,
				"z": 0.2673664323,
				"element": "H" 
			}
		],
		 "valence_orbital": [ 
			{
				"type": "occ",
				"energy": -0.31757,
				"method": "rhf"
			},
			{
				"type": "occ",
				"energy": -0.29851,
				"method": "rhf"
			},
			{
				"type": "occ",
				"energy": -0.26934,
				"method": "rhf"
			},
			{
				"type": "occ",
				"energy": -0.26154,
				"method": "rhf"
			},
			{
				"type": "occ",
				"energy": -0.24899,
				"method": "rhf"
			},
			{
				"type": "unocc",
				"energy": -0.0212,
				"method": "rhf"
			},
			{
				"type": "unocc",
				"energy": -0.01715,
				"method": "rhf"
			},
			{
				"type": "unocc",
				"energy": -0.00184,
				"method": "rhf"
			},
			{
				"type": "unocc",
				"energy": 0.09796,
				"method": "rhf"
			},
			{
				"type": "unocc",
				"energy": 0.10188,
				"method": "rhf"
			}
		],
		"cosmo_sigma_profile": { 
			"-0.025": 0.0,
			"-0.024": 0.0,
			"-0.023": 0.0,
			"-0.022": 0.0,
			"-0.021": 0.0,
			"-0.02": 0.0,
			"-0.019": 0.0,
			"-0.018": 0.0,
			"-0.017": 0.0,
			"-0.016": 0.0,
			"-0.015": 0.0,
			"-0.014": 0.0,
			"-0.013": 0.0,
			"-0.012": 0.00630573657824,
			"-0.011": 0.448120586353,
			"-0.01": 0.75351223883,
			"-0.009": 0.782595925791,
			"-0.008": 0.905596897325,
			"-0.007": 4.85841672323,
			"-0.006": 11.3637923931,
			"-0.005": 12.814015002,
			"-0.004": 14.3117411324,
			"-0.003": 13.5244255204,
			"-0.002": 13.3777469279,
			"-0.001": 11.079915631,
			"0.0": 11.3368015606,
			"0.001": 12.5347823601,
			"0.002": 15.0192836154,
			"0.003": 16.0499167435,
			"0.004": 18.0964897704,
			"0.005": 3.59795068512,
			"0.006": 1.36638249997,
			"0.007": 1.41461909947,
			"0.008": 1.3775807741,
			"0.009": 1.14125918554,
			"0.01": 1.44007925623,
			"0.011": 1.05068922626,
			"0.012": 1.68049163523,
			"0.013": 1.79091134447,
			"0.014": 2.37681709433,
			"0.015": 0.187125914401,
			"0.016": 0.0,
			"0.017": 0.0,
			"0.018": 0.0,
			"0.019": 0.0,
			"0.02": 0.0,
			"0.021": 0.0,
			"0.022": 0.0,
			"0.023": 0.0,
			"0.024": 0.0,
			"0.025": 0.0
		}
	}
}
