{
	 "smiles": "COC1=CC2=C(C=C1)C=C(C(=O)C1=CC=CC=C1)C(=O)O2", 
	 "Tm": 425.15, 
	 "num_atms": 33, 
	 "gaussian": { 
		 "optdone": 1, 
		 "sigma_profile": "yes", 
		 "theory": "DFT", 
		 "functional": "B3LYP", 
		 "basiset": "6-31G**", 
		 "properties": { 
			 "R2extent": 8334.9466, 
			 "electric_dipole_moment_norm": 4.74164570271, 
			 "electric_quadrupole_moment_norm": 23.0651349131, 
			 "total_energy": -955.928857225, 
			 "HOMO_LUMO_gap": 0.14653, 
			 "cosmo_polarized_energy": -16.57, 
			 "cosmo_cavitation_energy": 38.19, 
			 "cosmo_dispersion_energy": -27.81, 
			 "cosmo_repulsion_energy": 2.09, 
			 "cosmo_total_nonelectrostatic_energy": 12.47, 
			 "SMD_solvation_energy": 8.53 
		},
		"coords": [
			{
				"x": -6.0315826417,
				"y": 1.6621324744,
				"z": -2.1401044049,
				"element": "C" 
			},
			{
				"x": -4.9232214103,
				"y": 2.4616880777,
				"z": -2.5400767711,
				"element": "O" 
			},
			{
				"x": -3.7019285945,
				"y": 2.1822779106,
				"z": -2.0277481944,
				"element": "C" 
			},
			{
				"x": -3.4474977612,
				"y": 1.1482465814,
				"z": -1.1235319478,
				"element": "C" 
			},
			{
				"x": -2.1398005297,
				"y": 0.9671512578,
				"z": -0.6690758034,
				"element": "C" 
			},
			{
				"x": -1.079231901,
				"y": 1.7884225646,
				"z": -1.0964160083,
				"element": "C" 
			},
			{
				"x": -1.3714743381,
				"y": 2.8261065126,
				"z": -2.0111712137,
				"element": "C" 
			},
			{
				"x": -2.6550527898,
				"y": 3.0247210199,
				"z": -2.4714138958,
				"element": "C" 
			},
			{
				"x": 0.2180746092,
				"y": 1.5084987073,
				"z": -0.5753881224,
				"element": "C" 
			},
			{
				"x": 0.4531750098,
				"y": 0.4668490842,
				"z": 0.2774513231,
				"element": "C" 
			},
			{
				"x": 1.8602748231,
				"y": 0.2979790811,
				"z": 0.7901652293,
				"element": "C" 
			},
			{
				"x": 2.5535636934,
				"y": 1.3048048492,
				"z": 0.9042274925,
				"element": "O" 
			},
			{
				"x": 2.4403222352,
				"y": -1.0459686197,
				"z": 1.0875110241,
				"element": "C" 
			},
			{
				"x": 1.9514597735,
				"y": -2.2345428245,
				"z": 0.5261604439,
				"element": "C" 
			},
			{
				"x": 2.5995780558,
				"y": -3.4441345753,
				"z": 0.7693178742,
				"element": "C" 
			},
			{
				"x": 3.7303684045,
				"y": -3.4814560506,
				"z": 1.5876072358,
				"element": "C" 
			},
			{
				"x": 4.2244598929,
				"y": -2.3013325488,
				"z": 2.1510828183,
				"element": "C" 
			},
			{
				"x": 3.5908923127,
				"y": -1.0900763693,
				"z": 1.8916967134,
				"element": "C" 
			},
			{
				"x": -0.6658419979,
				"y": -0.3445361206,
				"z": 0.7616003306,
				"element": "C" 
			},
			{
				"x": -0.6384048596,
				"y": -1.2248039387,
				"z": 1.5879167565,
				"element": "O" 
			},
			{
				"x": -1.926527948,
				"y": -0.0399738696,
				"z": 0.2163862333,
				"element": "O" 
			},
			{
				"x": -6.2024723603,
				"y": 1.7287023281,
				"z": -1.0591080136,
				"element": "H" 
			},
			{
				"x": -6.8956655967,
				"y": 2.0649084782,
				"z": -2.6691281554,
				"element": "H" 
			},
			{
				"x": -5.8888177964,
				"y": 0.6120948915,
				"z": -2.4217530589,
				"element": "H" 
			},
			{
				"x": -4.219700496,
				"y": 0.4847862197,
				"z": -0.757587636,
				"element": "H" 
			},
			{
				"x": -0.5648320872,
				"y": 3.4703022048,
				"z": -2.3489625882,
				"element": "H" 
			},
			{
				"x": -2.894656682,
				"y": 3.8164543506,
				"z": -3.1720997415,
				"element": "H" 
			},
			{
				"x": 1.0587514046,
				"y": 2.1360296765,
				"z": -0.8596451267,
				"element": "H" 
			},
			{
				"x": 1.0720022077,
				"y": -2.2191950207,
				"z": -0.1064191665,
				"element": "H" 
			},
			{
				"x": 2.2184856501,
				"y": -4.3584718391,
				"z": 0.3243342178,
				"element": "H" 
			},
			{
				"x": 4.2266830883,
				"y": -4.4276001933,
				"z": 1.7847485275,
				"element": "H" 
			},
			{
				"x": 5.1051356089,
				"y": -2.3277067469,
				"z": 2.7862082238,
				"element": "H" 
			},
			{
				"x": 3.9699830206,
				"y": -0.1597575532,
				"z": 2.3007154046,
				"element": "H" 
			}
		],
		 "valence_orbital": [ 
			{
				"type": "occ",
				"energy": -0.26131,
				"method": "rhf"
			},
			{
				"type": "occ",
				"energy": -0.25552,
				"method": "rhf"
			},
			{
				"type": "occ",
				"energy": -0.2488,
				"method": "rhf"
			},
			{
				"type": "occ",
				"energy": -0.2458,
				"method": "rhf"
			},
			{
				"type": "occ",
				"energy": -0.22776,
				"method": "rhf"
			},
			{
				"type": "unocc",
				"energy": -0.08123,
				"method": "rhf"
			},
			{
				"type": "unocc",
				"energy": -0.04275,
				"method": "rhf"
			},
			{
				"type": "unocc",
				"energy": -0.01865,
				"method": "rhf"
			},
			{
				"type": "unocc",
				"energy": 0.00143,
				"method": "rhf"
			},
			{
				"type": "unocc",
				"energy": 0.00375,
				"method": "rhf"
			}
		],
		"cosmo_sigma_profile": { 
			"-0.025": 0.0,
			"-0.024": 0.0,
			"-0.023": 0.0,
			"-0.022": 0.0,
			"-0.021": 0.0,
			"-0.02": 0.0,
			"-0.019": 0.0,
			"-0.018": 0.0,
			"-0.017": 0.0,
			"-0.016": 0.0,
			"-0.015": 0.0,
			"-0.014": 0.0,
			"-0.013": 0.0,
			"-0.012": 0.0,
			"-0.011": 0.0,
			"-0.01": 0.0,
			"-0.009": 1.09141160112,
			"-0.008": 5.23837807556,
			"-0.007": 11.5210162932,
			"-0.006": 23.3171753753,
			"-0.005": 26.5474541522,
			"-0.004": 25.0367784771,
			"-0.003": 22.7388843029,
			"-0.002": 20.2258130177,
			"-0.001": 18.6347611817,
			"0.0": 22.2517859705,
			"0.001": 24.0186490576,
			"0.002": 21.7634756342,
			"0.003": 16.2265656285,
			"0.004": 16.8759970051,
			"0.005": 7.64281897096,
			"0.006": 6.30101665365,
			"0.007": 5.87294336373,
			"0.008": 4.51002725443,
			"0.009": 6.15701774308,
			"0.01": 5.1248129331,
			"0.011": 7.55957057396,
			"0.012": 7.60938519428,
			"0.013": 1.06748262905,
			"0.014": 0.0,
			"0.015": 0.0,
			"0.016": 0.0,
			"0.017": 0.0,
			"0.018": 0.0,
			"0.019": 0.0,
			"0.02": 0.0,
			"0.021": 0.0,
			"0.022": 0.0,
			"0.023": 0.0,
			"0.024": 0.0,
			"0.025": 0.0
		}
	}
}
