{
	 "smiles": "OC(C1CCNCC1)(C1=CC=CC=C1)C1=CC=CC=C1", 
	 "Tm": 433.15, 
	 "num_atms": 41, 
	 "gaussian": { 
		 "optdone": 1, 
		 "sigma_profile": "yes", 
		 "theory": "DFT", 
		 "functional": "B3LYP", 
		 "basiset": "6-31G**", 
		 "properties": { 
			 "R2extent": 6025.0273, 
			 "electric_dipole_moment_norm": 2.23832888111, 
			 "electric_quadrupole_moment_norm": 5.79591243033, 
			 "total_energy": -828.531030732, 
			 "HOMO_LUMO_gap": 0.19339, 
			 "cosmo_polarized_energy": -11.68, 
			 "cosmo_cavitation_energy": 40.07, 
			 "cosmo_dispersion_energy": -28.04, 
			 "cosmo_repulsion_energy": 2.15, 
			 "cosmo_total_nonelectrostatic_energy": 14.18, 
			 "SMD_solvation_energy": 3.71 
		},
		"coords": [
			{
				"x": -0.7351910561,
				"y": -1.1867982344,
				"z": -1.1885393185,
				"element": "O" 
			},
			{
				"x": 0.0398900942,
				"y": -1.028224234,
				"z": 0.0098470371,
				"element": "C" 
			},
			{
				"x": 0.1488827137,
				"y": 0.4961464006,
				"z": 0.3407717977,
				"element": "C" 
			},
			{
				"x": 0.8621189173,
				"y": 1.3068369863,
				"z": -0.7862364108,
				"element": "C" 
			},
			{
				"x": -0.1343917542,
				"y": 2.1570274278,
				"z": -1.5922439445,
				"element": "C" 
			},
			{
				"x": -0.8956613996,
				"y": 3.1119240305,
				"z": -0.7775580747,
				"element": "N" 
			},
			{
				"x": -1.1893938346,
				"y": 2.6400792091,
				"z": 0.588476575,
				"element": "C" 
			},
			{
				"x": -1.2387944113,
				"y": 1.1115210139,
				"z": 0.6392982029,
				"element": "C" 
			},
			{
				"x": -0.7260664705,
				"y": -1.7648703653,
				"z": 1.1210469945,
				"element": "C" 
			},
			{
				"x": -0.1796540023,
				"y": -1.8645616287,
				"z": 2.4088266629,
				"element": "C" 
			},
			{
				"x": -0.8733095531,
				"y": -2.5096259449,
				"z": 3.4315929872,
				"element": "C" 
			},
			{
				"x": -2.1261472092,
				"y": -3.0748908171,
				"z": 3.1831101897,
				"element": "C" 
			},
			{
				"x": -2.6733938525,
				"y": -2.9871925006,
				"z": 1.9037057314,
				"element": "C" 
			},
			{
				"x": -1.9806581144,
				"y": -2.3364037569,
				"z": 0.8796199986,
				"element": "C" 
			},
			{
				"x": 1.410075032,
				"y": -1.7108362878,
				"z": -0.1878476705,
				"element": "C" 
			},
			{
				"x": 1.4674543713,
				"y": -2.8817527567,
				"z": -0.9603447912,
				"element": "C" 
			},
			{
				"x": 2.6693015154,
				"y": -3.5634007216,
				"z": -1.1451158425,
				"element": "C" 
			},
			{
				"x": 3.8442097694,
				"y": -3.090011268,
				"z": -0.5575642236,
				"element": "C" 
			},
			{
				"x": 3.801516212,
				"y": -1.9298868918,
				"z": 0.2147722261,
				"element": "C" 
			},
			{
				"x": 2.5964615626,
				"y": -1.2470386923,
				"z": 0.3975716256,
				"element": "C" 
			},
			{
				"x": -0.1878331331,
				"y": -0.8865992505,
				"z": -1.9256203429,
				"element": "H" 
			},
			{
				"x": 0.7410145916,
				"y": 0.5885530489,
				"z": 1.2582300673,
				"element": "H" 
			},
			{
				"x": 1.6117996367,
				"y": 1.9721079187,
				"z": -0.3404644184,
				"element": "H" 
			},
			{
				"x": 1.422598853,
				"y": 0.6451609794,
				"z": -1.4586545713,
				"element": "H" 
			},
			{
				"x": -0.8359894782,
				"y": 1.488209206,
				"z": -2.1088199299,
				"element": "H" 
			},
			{
				"x": 0.3877669165,
				"y": 2.7162878181,
				"z": -2.3760506866,
				"element": "H" 
			},
			{
				"x": -0.3949520295,
				"y": 3.9928711606,
				"z": -0.7310026171,
				"element": "H" 
			},
			{
				"x": -2.1536301905,
				"y": 3.0535526992,
				"z": 0.9119157749,
				"element": "H" 
			},
			{
				"x": -0.4397344802,
				"y": 2.9887903572,
				"z": 1.3216166589,
				"element": "H" 
			},
			{
				"x": -1.9701728951,
				"y": 0.7473753359,
				"z": -0.0895731884,
				"element": "H" 
			},
			{
				"x": -1.5880737575,
				"y": 0.7903183444,
				"z": 1.6242383054,
				"element": "H" 
			},
			{
				"x": 0.8032843042,
				"y": -1.4504490243,
				"z": 2.6136141222,
				"element": "H" 
			},
			{
				"x": -0.430783398,
				"y": -2.5768516442,
				"z": 4.4216471898,
				"element": "H" 
			},
			{
				"x": -2.666072632,
				"y": -3.5811874921,
				"z": 3.9782219617,
				"element": "H" 
			},
			{
				"x": -3.6458448701,
				"y": -3.4256719406,
				"z": 1.6964053432,
				"element": "H" 
			},
			{
				"x": -2.4094144046,
				"y": -2.2695134015,
				"z": -0.1125734295,
				"element": "H" 
			},
			{
				"x": 0.5547289269,
				"y": -3.2547163627,
				"z": -1.4129541492,
				"element": "H" 
			},
			{
				"x": 2.6868630464,
				"y": -4.4679987041,
				"z": -1.7467828077,
				"element": "H" 
			},
			{
				"x": 4.7818365414,
				"y": -3.6193605956,
				"z": -0.700553723,
				"element": "H" 
			},
			{
				"x": 4.7083348843,
				"y": -1.5475656518,
				"z": 0.6752531211,
				"element": "H" 
			},
			{
				"x": 2.5961250374,
				"y": -0.342253769,
				"z": 0.9961175671,
				"element": "H" 
			}
		],
		 "valence_orbital": [ 
			{
				"type": "occ",
				"energy": -0.25108,
				"method": "rhf"
			},
			{
				"type": "occ",
				"energy": -0.24691,
				"method": "rhf"
			},
			{
				"type": "occ",
				"energy": -0.24204,
				"method": "rhf"
			},
			{
				"type": "occ",
				"energy": -0.23145,
				"method": "rhf"
			},
			{
				"type": "occ",
				"energy": -0.2045,
				"method": "rhf"
			},
			{
				"type": "unocc",
				"energy": -0.01111,
				"method": "rhf"
			},
			{
				"type": "unocc",
				"energy": -0.00509,
				"method": "rhf"
			},
			{
				"type": "unocc",
				"energy": 0.00559,
				"method": "rhf"
			},
			{
				"type": "unocc",
				"energy": 0.01302,
				"method": "rhf"
			},
			{
				"type": "unocc",
				"energy": 0.06592,
				"method": "rhf"
			}
		],
		"cosmo_sigma_profile": { 
			"-0.025": 0.0,
			"-0.024": 0.0,
			"-0.023": 0.0,
			"-0.022": 0.0,
			"-0.021": 0.0,
			"-0.02": 0.0,
			"-0.019": 0.0,
			"-0.018": 0.0,
			"-0.017": 0.0,
			"-0.016": 0.0,
			"-0.015": 0.0341774553672,
			"-0.014": 0.441060832376,
			"-0.013": 0.698000934116,
			"-0.012": 0.638278786014,
			"-0.011": 1.14060172736,
			"-0.01": 1.01525029599,
			"-0.009": 2.10074198139,
			"-0.008": 3.00883991663,
			"-0.007": 2.09845403665,
			"-0.006": 9.08509498132,
			"-0.005": 19.3110632393,
			"-0.004": 24.6956762725,
			"-0.003": 29.9843139856,
			"-0.002": 34.4215761506,
			"-0.001": 31.9408061252,
			"0.0": 25.596729216,
			"0.001": 21.9934236989,
			"0.002": 17.1109487983,
			"0.003": 18.8338414251,
			"0.004": 18.9006515111,
			"0.005": 19.5024055423,
			"0.006": 16.6617851123,
			"0.007": 4.30100223025,
			"0.008": 2.25464344721,
			"0.009": 2.07463503119,
			"0.01": 1.73229717559,
			"0.011": 0.645859837498,
			"0.012": 0.605909197316,
			"0.013": 0.796253977943,
			"0.014": 0.155688567324,
			"0.015": 0.719978149753,
			"0.016": 0.75611788265,
			"0.017": 0.450192685137,
			"0.018": 0.487592255629,
			"0.019": 0.388338607593,
			"0.02": 0.0612188474666,
			"0.021": 0.0,
			"0.022": 0.0,
			"0.023": 0.0,
			"0.024": 0.0,
			"0.025": 0.0
		}
	}
}
