{
	 "smiles": "NC1=CC2=C(CCN2CC#N)C=C1", 
	 "Tm": 361.15, 
	 "num_atms": 24, 
	 "gaussian": { 
		 "optdone": 1, 
		 "sigma_profile": "yes", 
		 "theory": "DFT", 
		 "functional": "B3LYP", 
		 "basiset": "6-31G**", 
		 "properties": { 
			 "R2extent": 2547.8611, 
			 "electric_dipole_moment_norm": 2.94048614008, 
			 "electric_quadrupole_moment_norm": 20.4851474464, 
			 "total_energy": -551.92393506, 
			 "HOMO_LUMO_gap": 0.19507, 
			 "cosmo_polarized_energy": -14.94, 
			 "cosmo_cavitation_energy": 27.68, 
			 "cosmo_dispersion_energy": -19.84, 
			 "cosmo_repulsion_energy": 1.58, 
			 "cosmo_total_nonelectrostatic_energy": 9.42, 
			 "SMD_solvation_energy": 4.12 
		},
		"coords": [
			{
				"x": 2.7152270437,
				"y": -2.1080993773,
				"z": -0.9871598998,
				"element": "N" 
			},
			{
				"x": 1.5413719675,
				"y": -1.6539232057,
				"z": -0.3794482112,
				"element": "C" 
			},
			{
				"x": 0.8671561518,
				"y": -0.5362538524,
				"z": -0.9133513545,
				"element": "C" 
			},
			{
				"x": -0.3290432308,
				"y": -0.1400328051,
				"z": -0.3241833171,
				"element": "C" 
			},
			{
				"x": -0.8801748827,
				"y": -0.8245156978,
				"z": 0.7718929792,
				"element": "C" 
			},
			{
				"x": -2.1563556285,
				"y": -0.1256400583,
				"z": 1.1885399283,
				"element": "C" 
			},
			{
				"x": -2.4727981701,
				"y": 0.7225475789,
				"z": -0.0621337218,
				"element": "C" 
			},
			{
				"x": -1.1485918806,
				"y": 0.9519633103,
				"z": -0.6773780944,
				"element": "N" 
			},
			{
				"x": -1.1457240117,
				"y": 1.4398118778,
				"z": -2.0426873228,
				"element": "C" 
			},
			{
				"x": 0.025164459,
				"y": 2.2833247903,
				"z": -2.3479652148,
				"element": "C" 
			},
			{
				"x": 0.9449092722,
				"y": 2.939825882,
				"z": -2.6108593599,
				"element": "N" 
			},
			{
				"x": -0.209491544,
				"y": -1.9206343539,
				"z": 1.2923933099,
				"element": "C" 
			},
			{
				"x": 0.9963310371,
				"y": -2.3396458763,
				"z": 0.719616442,
				"element": "C" 
			},
			{
				"x": 3.3163575394,
				"y": -2.6582469937,
				"z": -0.3890819904,
				"element": "H" 
			},
			{
				"x": 3.2357556845,
				"y": -1.401308445,
				"z": -1.4889845894,
				"element": "H" 
			},
			{
				"x": 1.2924080845,
				"y": -0.0023427394,
				"z": -1.7575279331,
				"element": "H" 
			},
			{
				"x": -1.9873976553,
				"y": 0.5240177707,
				"z": 2.058167154,
				"element": "H" 
			},
			{
				"x": -2.9771214588,
				"y": -0.8041864171,
				"z": 1.4393096117,
				"element": "H" 
			},
			{
				"x": -3.1256744949,
				"y": 0.1564708051,
				"z": -0.7486006776,
				"element": "H" 
			},
			{
				"x": -2.9589572657,
				"y": 1.6755138873,
				"z": 0.1676255872,
				"element": "H" 
			},
			{
				"x": -1.1816074151,
				"y": 0.6256533856,
				"z": -2.788290239,
				"element": "H" 
			},
			{
				"x": -2.0386031638,
				"y": 2.0555434974,
				"z": -2.1945466264,
				"element": "H" 
			},
			{
				"x": -0.6168050801,
				"y": -2.464361888,
				"z": 2.1412213952,
				"element": "H" 
			},
			{
				"x": 1.5163646425,
				"y": -3.2058810755,
				"z": 1.1195321447,
				"element": "H" 
			}
		],
		 "valence_orbital": [ 
			{
				"type": "occ",
				"energy": -0.3295,
				"method": "rhf"
			},
			{
				"type": "occ",
				"energy": -0.31377,
				"method": "rhf"
			},
			{
				"type": "occ",
				"energy": -0.27197,
				"method": "rhf"
			},
			{
				"type": "occ",
				"energy": -0.21573,
				"method": "rhf"
			},
			{
				"type": "occ",
				"energy": -0.18654,
				"method": "rhf"
			},
			{
				"type": "unocc",
				"energy": 0.00853,
				"method": "rhf"
			},
			{
				"type": "unocc",
				"energy": 0.0205,
				"method": "rhf"
			},
			{
				"type": "unocc",
				"energy": 0.02413,
				"method": "rhf"
			},
			{
				"type": "unocc",
				"energy": 0.03818,
				"method": "rhf"
			},
			{
				"type": "unocc",
				"energy": 0.08381,
				"method": "rhf"
			}
		],
		"cosmo_sigma_profile": { 
			"-0.025": 0.0,
			"-0.024": 0.0,
			"-0.023": 0.0,
			"-0.022": 0.0,
			"-0.021": 0.0,
			"-0.02": 0.0,
			"-0.019": 0.0,
			"-0.018": 0.0,
			"-0.017": 0.0,
			"-0.016": 0.0,
			"-0.015": 0.0,
			"-0.014": 0.0,
			"-0.013": 0.0,
			"-0.012": 1.62295320041,
			"-0.011": 2.62106141709,
			"-0.01": 4.43809154457,
			"-0.009": 5.7882189197,
			"-0.008": 7.05091441821,
			"-0.007": 9.17709859239,
			"-0.006": 9.3392619385,
			"-0.005": 13.4576970166,
			"-0.004": 16.6365424888,
			"-0.003": 18.5347589554,
			"-0.002": 16.4970478767,
			"-0.001": 12.0896511574,
			"0.0": 9.89577953142,
			"0.001": 7.12593786663,
			"0.002": 7.78470077477,
			"0.003": 8.13943752592,
			"0.004": 10.0226537308,
			"0.005": 9.72952814484,
			"0.006": 11.5583913766,
			"0.007": 12.3275257352,
			"0.008": 7.21525239979,
			"0.009": 4.80789759167,
			"0.01": 4.15308662727,
			"0.011": 3.6926911241,
			"0.012": 2.89946904047,
			"0.013": 1.8810129557,
			"0.014": 0.738881103026,
			"0.015": 0.525209865057,
			"0.016": 0.0,
			"0.017": 0.0,
			"0.018": 0.0,
			"0.019": 0.0,
			"0.02": 0.0,
			"0.021": 0.0,
			"0.022": 0.0,
			"0.023": 0.0,
			"0.024": 0.0,
			"0.025": 0.0
		}
	}
}
