{
	 "smiles": "NNC(=O)CC(=O)NN", 
	 "Tm": 427.15, 
	 "num_atms": 17, 
	 "gaussian": { 
		 "optdone": 1, 
		 "sigma_profile": "yes", 
		 "theory": "DFT", 
		 "functional": "B3LYP", 
		 "basiset": "6-31G**", 
		 "properties": { 
			 "R2extent": 1532.4842, 
			 "electric_dipole_moment_norm": 2.43350025478, 
			 "electric_quadrupole_moment_norm": 8.1039303014, 
			 "total_energy": -488.555973606, 
			 "HOMO_LUMO_gap": 0.23958, 
			 "cosmo_polarized_energy": -18.05, 
			 "cosmo_cavitation_energy": 21.33, 
			 "cosmo_dispersion_energy": -15.58, 
			 "cosmo_repulsion_energy": 1.32, 
			 "cosmo_total_nonelectrostatic_energy": 7.07, 
			 "SMD_solvation_energy": 5.81 
		},
		"coords": [
			{
				"x": -0.7394877136,
				"y": -1.7139694025,
				"z": 2.0534681043,
				"element": "N" 
			},
			{
				"x": -0.9676952198,
				"y": -2.1395801913,
				"z": 0.7310981614,
				"element": "N" 
			},
			{
				"x": -0.710084887,
				"y": -1.4465160445,
				"z": -0.4177710105,
				"element": "C" 
			},
			{
				"x": -0.7681343291,
				"y": -1.9658971615,
				"z": -1.5242296218,
				"element": "O" 
			},
			{
				"x": -0.314885323,
				"y": 0.0276948,
				"z": -0.2478859591,
				"element": "C" 
			},
			{
				"x": 1.174934265,
				"y": 0.129969123,
				"z": 0.061242338,
				"element": "C" 
			},
			{
				"x": 1.6352219894,
				"y": -0.0524563392,
				"z": 1.1887701277,
				"element": "O" 
			},
			{
				"x": 1.9674031087,
				"y": 0.4041319958,
				"z": -1.0108194845,
				"element": "N" 
			},
			{
				"x": 3.3721215644,
				"y": 0.335244742,
				"z": -0.9225151841,
				"element": "N" 
			},
			{
				"x": -1.490652991,
				"y": -1.0946757126,
				"z": 2.3499039823,
				"element": "H" 
			},
			{
				"x": 0.1491094518,
				"y": -1.2146231728,
				"z": 2.1036542832,
				"element": "H" 
			},
			{
				"x": -1.1259287495,
				"y": -3.1323745971,
				"z": 0.613058396,
				"element": "H" 
			},
			{
				"x": -0.8548599226,
				"y": 0.5004492495,
				"z": 0.5753916242,
				"element": "H" 
			},
			{
				"x": -0.5696042686,
				"y": 0.5275361301,
				"z": -1.1840452589,
				"element": "H" 
			},
			{
				"x": 1.5941366606,
				"y": 0.3029878183,
				"z": -1.944972788,
				"element": "H" 
			},
			{
				"x": 3.6952203478,
				"y": 1.1962061767,
				"z": -0.483025632,
				"element": "H" 
			},
			{
				"x": 3.5943860165,
				"y": -0.4110274139,
				"z": -0.2628220782,
				"element": "H" 
			}
		],
		 "valence_orbital": [ 
			{
				"type": "occ",
				"energy": -0.29557,
				"method": "rhf"
			},
			{
				"type": "occ",
				"energy": -0.27157,
				"method": "rhf"
			},
			{
				"type": "occ",
				"energy": -0.27015,
				"method": "rhf"
			},
			{
				"type": "occ",
				"energy": -0.25739,
				"method": "rhf"
			},
			{
				"type": "occ",
				"energy": -0.24752,
				"method": "rhf"
			},
			{
				"type": "unocc",
				"energy": -0.00794,
				"method": "rhf"
			},
			{
				"type": "unocc",
				"energy": 0.03093,
				"method": "rhf"
			},
			{
				"type": "unocc",
				"energy": 0.07278,
				"method": "rhf"
			},
			{
				"type": "unocc",
				"energy": 0.08021,
				"method": "rhf"
			},
			{
				"type": "unocc",
				"energy": 0.0888,
				"method": "rhf"
			}
		],
		"cosmo_sigma_profile": { 
			"-0.025": 0.0,
			"-0.024": 0.0,
			"-0.023": 0.0,
			"-0.022": 0.0,
			"-0.021": 0.0,
			"-0.02": 0.0,
			"-0.019": 0.0,
			"-0.018": 0.0,
			"-0.017": 0.0,
			"-0.016": 0.0,
			"-0.015": 0.470135286198,
			"-0.014": 1.52600961024,
			"-0.013": 1.40585142704,
			"-0.012": 3.91344815842,
			"-0.011": 5.15301796349,
			"-0.01": 6.95305709213,
			"-0.009": 6.73816993581,
			"-0.008": 6.39040155444,
			"-0.007": 7.26325735281,
			"-0.006": 6.94582752084,
			"-0.005": 7.51257747119,
			"-0.004": 8.7214233985,
			"-0.003": 9.54803368401,
			"-0.002": 8.5298314981,
			"-0.001": 7.52323333934,
			"0.0": 7.49480842862,
			"0.001": 6.88514836542,
			"0.002": 5.94721002561,
			"0.003": 5.82960184036,
			"0.004": 5.28372167479,
			"0.005": 3.54616121226,
			"0.006": 3.6888200739,
			"0.007": 3.51151940476,
			"0.008": 2.95496040543,
			"0.009": 2.98125089547,
			"0.01": 4.24927369992,
			"0.011": 4.90060503525,
			"0.012": 5.91244043294,
			"0.013": 7.46573551185,
			"0.014": 5.07854341101,
			"0.015": 1.36828277575,
			"0.016": 0.903899729953,
			"0.017": 0.177790537128,
			"0.018": 0.0,
			"0.019": 0.0,
			"0.02": 0.0,
			"0.021": 0.0,
			"0.022": 0.0,
			"0.023": 0.0,
			"0.024": 0.0,
			"0.025": 0.0
		}
	}
}
