{
	 "smiles": "O=CC1=C(N=C2C=CC=CN12)C1=CC=CC=C1", 
	 "Tm": 418.15, 
	 "num_atms": 27, 
	 "gaussian": { 
		 "optdone": 1, 
		 "sigma_profile": "yes", 
		 "theory": "DFT", 
		 "functional": "B3LYP", 
		 "basiset": "6-31G**", 
		 "properties": { 
			 "R2extent": 4540.827, 
			 "electric_dipole_moment_norm": 1.72251449341, 
			 "electric_quadrupole_moment_norm": 23.7348059982, 
			 "total_energy": -724.245656507, 
			 "HOMO_LUMO_gap": 0.16363, 
			 "cosmo_polarized_energy": -11.07, 
			 "cosmo_cavitation_energy": 31.4, 
			 "cosmo_dispersion_energy": -23.17, 
			 "cosmo_repulsion_energy": 1.74, 
			 "cosmo_total_nonelectrostatic_energy": 9.97, 
			 "SMD_solvation_energy": 4.81 
		},
		"coords": [
			{
				"x": 2.4506104384,
				"y": 1.4589676702,
				"z": 0.0754911225,
				"element": "O" 
			},
			{
				"x": 1.4765798843,
				"y": 0.930887702,
				"z": -0.4601432088,
				"element": "C" 
			},
			{
				"x": 0.2462959035,
				"y": 0.5938190801,
				"z": 0.2095978688,
				"element": "C" 
			},
			{
				"x": -0.9405569031,
				"y": -0.0281670431,
				"z": -0.2427775863,
				"element": "C" 
			},
			{
				"x": -1.7765033389,
				"y": -0.3038109113,
				"z": 0.7852988362,
				"element": "N" 
			},
			{
				"x": -1.1642472242,
				"y": 0.1439271621,
				"z": 1.8906480776,
				"element": "C" 
			},
			{
				"x": -1.592282543,
				"y": 0.1201642456,
				"z": 3.2331921635,
				"element": "C" 
			},
			{
				"x": -0.77391346,
				"y": 0.6490443181,
				"z": 4.2068809563,
				"element": "C" 
			},
			{
				"x": 0.4828402001,
				"y": 1.2093637011,
				"z": 3.8620677656,
				"element": "C" 
			},
			{
				"x": 0.8990079779,
				"y": 1.2366417271,
				"z": 2.5559098595,
				"element": "C" 
			},
			{
				"x": 0.0766166741,
				"y": 0.7107382034,
				"z": 1.5924753148,
				"element": "N" 
			},
			{
				"x": -1.3172238669,
				"y": -0.3789856363,
				"z": -1.6222720262,
				"element": "C" 
			},
			{
				"x": -0.9323604875,
				"y": 0.401437255,
				"z": -2.7252979036,
				"element": "C" 
			},
			{
				"x": -1.3115589014,
				"y": 0.0371311737,
				"z": -4.0169659604,
				"element": "C" 
			},
			{
				"x": -2.0867423468,
				"y": -1.1046680782,
				"z": -4.2253309722,
				"element": "C" 
			},
			{
				"x": -2.4924258978,
				"y": -1.8753706047,
				"z": -3.1322859715,
				"element": "C" 
			},
			{
				"x": -2.1161041277,
				"y": -1.5144808512,
				"z": -1.8413646281,
				"element": "C" 
			},
			{
				"x": 1.5031730527,
				"y": 0.6553057912,
				"z": -1.5308658956,
				"element": "H" 
			},
			{
				"x": -2.5579127136,
				"y": -0.3184435469,
				"z": 3.4545344887,
				"element": "H" 
			},
			{
				"x": -1.0889656954,
				"y": 0.6389184847,
				"z": 5.2453173749,
				"element": "H" 
			},
			{
				"x": 1.1304248936,
				"y": 1.6259089347,
				"z": 4.6247202023,
				"element": "H" 
			},
			{
				"x": 1.8358031124,
				"y": 1.6392428808,
				"z": 2.1968833523,
				"element": "H" 
			},
			{
				"x": -0.3687057997,
				"y": 1.3155414815,
				"z": -2.5702093882,
				"element": "H" 
			},
			{
				"x": -1.0115070743,
				"y": 0.6540579276,
				"z": -4.8589777443,
				"element": "H" 
			},
			{
				"x": -2.3819557664,
				"y": -1.3868457,
				"z": -5.2318046782,
				"element": "H" 
			},
			{
				"x": -3.1036560522,
				"y": -2.7598193818,
				"z": -3.2873124603,
				"element": "H" 
			},
			{
				"x": -2.4306299379,
				"y": -2.1017059853,
				"z": -0.9854089594,
				"element": "H" 
			}
		],
		 "valence_orbital": [ 
			{
				"type": "occ",
				"energy": -0.28043,
				"method": "rhf"
			},
			{
				"type": "occ",
				"energy": -0.25761,
				"method": "rhf"
			},
			{
				"type": "occ",
				"energy": -0.24907,
				"method": "rhf"
			},
			{
				"type": "occ",
				"energy": -0.23486,
				"method": "rhf"
			},
			{
				"type": "occ",
				"energy": -0.22494,
				"method": "rhf"
			},
			{
				"type": "unocc",
				"energy": -0.06131,
				"method": "rhf"
			},
			{
				"type": "unocc",
				"energy": -0.04762,
				"method": "rhf"
			},
			{
				"type": "unocc",
				"energy": -0.00632,
				"method": "rhf"
			},
			{
				"type": "unocc",
				"energy": -0.00076,
				"method": "rhf"
			},
			{
				"type": "unocc",
				"energy": 0.01916,
				"method": "rhf"
			}
		],
		"cosmo_sigma_profile": { 
			"-0.025": 0.0,
			"-0.024": 0.0,
			"-0.023": 0.0,
			"-0.022": 0.0,
			"-0.021": 0.0,
			"-0.02": 0.0,
			"-0.019": 0.0,
			"-0.018": 0.0,
			"-0.017": 0.0,
			"-0.016": 0.0,
			"-0.015": 0.0,
			"-0.014": 0.0,
			"-0.013": 0.0,
			"-0.012": 0.0,
			"-0.011": 0.0,
			"-0.01": 0.0,
			"-0.009": 0.0,
			"-0.008": 3.08623009712,
			"-0.007": 9.90887210288,
			"-0.006": 17.6787798863,
			"-0.005": 19.279450102,
			"-0.004": 17.7576127791,
			"-0.003": 16.5038375307,
			"-0.002": 21.2350462743,
			"-0.001": 20.8790727485,
			"0.0": 21.5176913449,
			"0.001": 20.3499274922,
			"0.002": 19.9821991685,
			"0.003": 13.7156492029,
			"0.004": 13.9391826936,
			"0.005": 11.3785375731,
			"0.006": 3.1199848787,
			"0.007": 2.6288985937,
			"0.008": 3.54203594252,
			"0.009": 2.97766584119,
			"0.01": 3.11729577206,
			"0.011": 3.17980270231,
			"0.012": 3.34544834911,
			"0.013": 2.35635867993,
			"0.014": 1.70650484288,
			"0.015": 0.712982475622,
			"0.016": 0.099784734861,
			"0.017": 0.0,
			"0.018": 0.0,
			"0.019": 0.0,
			"0.02": 0.0,
			"0.021": 0.0,
			"0.022": 0.0,
			"0.023": 0.0,
			"0.024": 0.0,
			"0.0": 0.0
		}
	}
}
