{
	 "smiles": "OC1=C(C=CC=C1Cl)[N+]([O-])=O", 
	 "Tm": 343.15, 
	 "num_atms": 15, 
	 "gaussian": { 
		 "optdone": 1, 
		 "sigma_profile": "yes", 
		 "theory": "DFT", 
		 "functional": "B3LYP", 
		 "basiset": "6-31G**", 
		 "properties": { 
			 "R2extent": 2123.0034, 
			 "electric_dipole_moment_norm": 3.13549618083, 
			 "electric_quadrupole_moment_norm": 8.42233146759, 
			 "total_energy": -971.563884559, 
			 "HOMO_LUMO_gap": 0.14403, 
			 "cosmo_polarized_energy": -8.11, 
			 "cosmo_cavitation_energy": 21.67, 
			 "cosmo_dispersion_energy": -16.7, 
			 "cosmo_repulsion_energy": 1.33, 
			 "cosmo_total_nonelectrostatic_energy": 6.3, 
			 "SMD_solvation_energy": 5.97 
		},
		"coords": [
			{
				"x": -0.7235371781,
				"y": -0.6775173573,
				"z": 2.2316778649,
				"element": "O" 
			},
			{
				"x": -0.4533676872,
				"y": -0.3336259118,
				"z": 0.976719786,
				"element": "C" 
			},
			{
				"x": -0.1547957237,
				"y": -1.2571082122,
				"z": -0.0579403629,
				"element": "C" 
			},
			{
				"x": 0.1237821522,
				"y": -0.8427733418,
				"z": -1.3682654118,
				"element": "C" 
			},
			{
				"x": 0.1103698799,
				"y": 0.5052920932,
				"z": -1.6749342125,
				"element": "C" 
			},
			{
				"x": -0.1813578182,
				"y": 1.4444806891,
				"z": -0.6737748614,
				"element": "C" 
			},
			{
				"x": -0.4568801869,
				"y": 1.0354382798,
				"z": 0.6219690662,
				"element": "C" 
			},
			{
				"x": -0.8179047991,
				"y": 2.2131370054,
				"z": 1.8567288751,
				"element": "Cl" 
			},
			{
				"x": -0.1307601037,
				"y": -2.6789845104,
				"z": 0.223080529,
				"element": "N" 
			},
			{
				"x": 0.1290406122,
				"y": -3.4611534514,
				"z": -0.6819078119,
				"element": "O" 
			},
			{
				"x": -0.3790076013,
				"y": -3.0575397229,
				"z": 1.3920607597,
				"element": "O" 
			},
			{
				"x": -0.6687454149,
				"y": -1.6653414649,
				"z": 2.262521356,
				"element": "H" 
			},
			{
				"x": 0.3438257729,
				"y": -1.5994584405,
				"z": -2.1103143126,
				"element": "H" 
			},
			{
				"x": 0.3239152342,
				"y": 0.8395457568,
				"z": -2.683924051,
				"element": "H" 
			},
			{
				"x": -0.1951771384,
				"y": 2.5050085888,
				"z": -0.9008972129,
				"element": "H" 
			}
		],
		 "valence_orbital": [ 
			{
				"type": "occ",
				"energy": -0.33085,
				"method": "rhf"
			},
			{
				"type": "occ",
				"energy": -0.32584,
				"method": "rhf"
			},
			{
				"type": "occ",
				"energy": -0.31362,
				"method": "rhf"
			},
			{
				"type": "occ",
				"energy": -0.28559,
				"method": "rhf"
			},
			{
				"type": "occ",
				"energy": -0.2532,
				"method": "rhf"
			},
			{
				"type": "unocc",
				"energy": -0.10917,
				"method": "rhf"
			},
			{
				"type": "unocc",
				"energy": -0.02862,
				"method": "rhf"
			},
			{
				"type": "unocc",
				"energy": -0.01405,
				"method": "rhf"
			},
			{
				"type": "unocc",
				"energy": 0.01262,
				"method": "rhf"
			},
			{
				"type": "unocc",
				"energy": 0.09172,
				"method": "rhf"
			}
		],
		"cosmo_sigma_profile": { 
			"-0.025": 0.0,
			"-0.024": 0.0,
			"-0.023": 0.0,
			"-0.022": 0.0,
			"-0.021": 0.0,
			"-0.02": 0.0,
			"-0.019": 0.0,
			"-0.018": 0.0,
			"-0.017": 0.0,
			"-0.016": 0.0,
			"-0.015": 0.0,
			"-0.014": 0.0,
			"-0.013": 0.0,
			"-0.012": 0.0,
			"-0.011": 0.330525296691,
			"-0.01": 0.28716561131,
			"-0.009": 1.95998888757,
			"-0.008": 7.76428366772,
			"-0.007": 9.66200981385,
			"-0.006": 9.3506648997,
			"-0.005": 7.54271322513,
			"-0.004": 7.97210363369,
			"-0.003": 9.33395321348,
			"-0.002": 12.9231373492,
			"-0.001": 15.5322068725,
			"0.0": 15.6408241224,
			"0.001": 13.7505743962,
			"0.002": 9.78071649722,
			"0.003": 10.1881071629,
			"0.004": 11.2574058389,
			"0.005": 6.50423927772,
			"0.006": 6.62471464299,
			"0.007": 7.82678673729,
			"0.008": 6.26853649335,
			"0.009": 5.21929707245,
			"0.01": 1.3943358128,
			"0.011": 0.0,
			"0.012": 0.0,
			"0.013": 0.0,
			"0.014": 0.0,
			"0.015": 0.0,
			"0.016": 0.0,
			"0.017": 0.0,
			"0.018": 0.0,
			"0.019": 0.0,
			"0.02": 0.0,
			"0.021": 0.0,
			"0.022": 0.0,
			"0.023": 0.0,
			"0.024": 0.0,
			"0.025": 0.0
		}
	}
}
