{
	 "smiles": "C1CNCC(C1)N1C=NC2=C1C=CC=C2", 
	 "Tm": 378.15, 
	 "num_atms": 30, 
	 "gaussian": { 
		 "optdone": 1, 
		 "sigma_profile": "yes", 
		 "theory": "DFT", 
		 "functional": "B3LYP", 
		 "basiset": "6-31G**", 
		 "properties": { 
			 "R2extent": 3930.2095, 
			 "electric_dipole_moment_norm": 5.12645999204, 
			 "electric_quadrupole_moment_norm": 5.11411914214, 
			 "total_energy": -630.572809841, 
			 "HOMO_LUMO_gap": 0.20564, 
			 "cosmo_polarized_energy": -12.27, 
			 "cosmo_cavitation_energy": 31.09, 
			 "cosmo_dispersion_energy": -22.93, 
			 "cosmo_repulsion_energy": 1.77, 
			 "cosmo_total_nonelectrostatic_energy": 9.93, 
			 "SMD_solvation_energy": 1.69 
		},
		"coords": [
			{
				"x": 2.2113084115,
				"y": 1.8904574965,
				"z": 1.584903102,
				"element": "C" 
			},
			{
				"x": 1.2971138177,
				"y": 2.9821255025,
				"z": 0.981169974,
				"element": "C" 
			},
			{
				"x": 0.3949931545,
				"y": 2.3869123594,
				"z": -0.0183278679,
				"element": "N" 
			},
			{
				"x": 1.0619318899,
				"y": 1.3787133695,
				"z": -0.8367510698,
				"element": "C" 
			},
			{
				"x": 1.3005742134,
				"y": 0.1121544603,
				"z": 0.0244229726,
				"element": "C" 
			},
			{
				"x": 1.5419407268,
				"y": 0.5131791663,
				"z": 1.5028133823,
				"element": "C" 
			},
			{
				"x": 0.198659183,
				"y": -0.8449703901,
				"z": -0.0919874074,
				"element": "N" 
			},
			{
				"x": -1.1429255544,
				"y": -0.5811843133,
				"z": 0.1034251287,
				"element": "C" 
			},
			{
				"x": -1.9223003359,
				"y": -1.6247011214,
				"z": -0.040228571,
				"element": "N" 
			},
			{
				"x": -1.0567358253,
				"y": -2.6655353026,
				"z": -0.3452598089,
				"element": "C" 
			},
			{
				"x": 0.2821791875,
				"y": -2.2003266629,
				"z": -0.380239702,
				"element": "C" 
			},
			{
				"x": 1.3579468164,
				"y": -3.0474414666,
				"z": -0.6629269096,
				"element": "C" 
			},
			{
				"x": 1.0589764566,
				"y": -4.3839505869,
				"z": -0.9153563282,
				"element": "C" 
			},
			{
				"x": -0.2672027465,
				"y": -4.8616657709,
				"z": -0.8860453112,
				"element": "C" 
			},
			{
				"x": -1.3333526839,
				"y": -4.0147078758,
				"z": -0.6027085519,
				"element": "C" 
			},
			{
				"x": 3.1678231718,
				"y": 1.8614157651,
				"z": 1.0482767574,
				"element": "H" 
			},
			{
				"x": 2.4517800886,
				"y": 2.1405719753,
				"z": 2.622853665,
				"element": "H" 
			},
			{
				"x": 1.9253859699,
				"y": 3.7864360407,
				"z": 0.5606488818,
				"element": "H" 
			},
			{
				"x": 0.6795026972,
				"y": 3.4340723751,
				"z": 1.766532013,
				"element": "H" 
			},
			{
				"x": -0.0209478056,
				"y": 3.1085517651,
				"z": -0.59766473,
				"element": "H" 
			},
			{
				"x": 0.4284383598,
				"y": 1.1254776351,
				"z": -1.6910970225,
				"element": "H" 
			},
			{
				"x": 2.0314978517,
				"y": 1.7206448418,
				"z": -1.2435356706,
				"element": "H" 
			},
			{
				"x": 2.1844513818,
				"y": -0.4005208872,
				"z": -0.3664546967,
				"element": "H" 
			},
			{
				"x": 2.1439179999,
				"y": -0.2522424593,
				"z": 2.0028933817,
				"element": "H" 
			},
			{
				"x": 0.5766864666,
				"y": 0.5464456636,
				"z": 2.0172056631,
				"element": "H" 
			},
			{
				"x": -1.4680361091,
				"y": 0.4230350302,
				"z": 0.3434640709,
				"element": "H" 
			},
			{
				"x": 2.3841696641,
				"y": -2.6923788079,
				"z": -0.6851317664,
				"element": "H" 
			},
			{
				"x": 1.8673523506,
				"y": -5.0742252177,
				"z": -1.1387339507,
				"element": "H" 
			},
			{
				"x": -0.4546658414,
				"y": -5.9121065952,
				"z": -1.088677406,
				"element": "H" 
			},
			{
				"x": -2.3572629572,
				"y": -4.3739359889,
				"z": -0.5773822218,
				"element": "H" 
			}
		],
		 "valence_orbital": [ 
			{
				"type": "occ",
				"energy": -0.285,
				"method": "rhf"
			},
			{
				"type": "occ",
				"energy": -0.25703,
				"method": "rhf"
			},
			{
				"type": "occ",
				"energy": -0.23347,
				"method": "rhf"
			},
			{
				"type": "occ",
				"energy": -0.21554,
				"method": "rhf"
			},
			{
				"type": "occ",
				"energy": -0.2112,
				"method": "rhf"
			},
			{
				"type": "unocc",
				"energy": -0.00556,
				"method": "rhf"
			},
			{
				"type": "unocc",
				"energy": 0.03169,
				"method": "rhf"
			},
			{
				"type": "unocc",
				"energy": 0.05832,
				"method": "rhf"
			},
			{
				"type": "unocc",
				"energy": 0.06286,
				"method": "rhf"
			},
			{
				"type": "unocc",
				"energy": 0.08993,
				"method": "rhf"
			}
		],
		"cosmo_sigma_profile": { 
			"-0.025": 0.0,
			"-0.024": 0.0,
			"-0.023": 0.0,
			"-0.022": 0.0,
			"-0.021": 0.0,
			"-0.02": 0.0,
			"-0.019": 0.0,
			"-0.018": 0.0,
			"-0.017": 0.0,
			"-0.016": 0.0,
			"-0.015": 0.0,
			"-0.014": 0.0,
			"-0.013": 0.0,
			"-0.012": 0.0,
			"-0.011": 0.231087558763,
			"-0.01": 1.4239729483,
			"-0.009": 1.38997049743,
			"-0.008": 0.745206657516,
			"-0.007": 4.27537843512,
			"-0.006": 7.41792897803,
			"-0.005": 14.5607392111,
			"-0.004": 18.7360498469,
			"-0.003": 31.1828664388,
			"-0.002": 33.3829096055,
			"-0.001": 27.2497367653,
			"0.0": 20.6866917678,
			"0.001": 11.0255295942,
			"0.002": 9.01450957546,
			"0.003": 9.88640312849,
			"0.004": 10.1617054835,
			"0.005": 11.7308403342,
			"0.006": 11.832557366,
			"0.007": 4.61109376722,
			"0.008": 2.2573084597,
			"0.009": 2.40353103842,
			"0.01": 1.49736231591,
			"0.011": 1.45437385399,
			"0.012": 1.53009994003,
			"0.013": 0.970019859841,
			"0.014": 1.10782105364,
			"0.015": 1.32176807014,
			"0.016": 0.815444653362,
			"0.017": 1.1797849671,
			"0.018": 0.730317905784,
			"0.019": 0.00509380831442,
			"0.02": 0.0,
			"0.021": 0.0,
			"0.022": 0.0,
			"0.023": 0.0,
			"0.024": 0.0,
			"0.025": 0.0
		}
	}
}
