{
	 "smiles": "SC1=CC2=C(OCCCO2)C=C1", 
	 "Tm": 315.15, 
	 "num_atms": 22, 
	 "gaussian": { 
		 "optdone": 1, 
		 "sigma_profile": "yes", 
		 "theory": "DFT", 
		 "functional": "B3LYP", 
		 "basiset": "6-31G**", 
		 "properties": { 
			 "R2extent": 3345.5403, 
			 "electric_dipole_moment_norm": 2.36480457121, 
			 "electric_quadrupole_moment_norm": 16.1539408758, 
			 "total_energy": -897.591635962, 
			 "HOMO_LUMO_gap": 0.20056, 
			 "cosmo_polarized_energy": -8.48, 
			 "cosmo_cavitation_energy": 26.16, 
			 "cosmo_dispersion_energy": -20.45, 
			 "cosmo_repulsion_energy": 1.58, 
			 "cosmo_total_nonelectrostatic_energy": 7.29, 
			 "SMD_solvation_energy": 4.01 
		},
		"coords": [
			{
				"x": -3.6531992836,
				"y": 0.3118925311,
				"z": -3.0617552481,
				"element": "S" 
			},
			{
				"x": -2.3365607599,
				"y": 0.1717202613,
				"z": -1.8550884539,
				"element": "C" 
			},
			{
				"x": -2.5441140747,
				"y": 0.7363849154,
				"z": -0.5942555276,
				"element": "C" 
			},
			{
				"x": -1.5786014057,
				"y": 0.6295092286,
				"z": 0.4097044812,
				"element": "C" 
			},
			{
				"x": -0.3765668032,
				"y": -0.0610751737,
				"z": 0.1509099976,
				"element": "C" 
			},
			{
				"x": 0.6301372627,
				"y": -0.2266340192,
				"z": 1.0756225787,
				"element": "O" 
			},
			{
				"x": 0.2127039702,
				"y": -0.4690075412,
				"z": 2.426352647,
				"element": "C" 
			},
			{
				"x": -0.0314321325,
				"y": 0.8363474061,
				"z": 3.1870925875,
				"element": "C" 
			},
			{
				"x": -0.7920154706,
				"y": 1.8363118377,
				"z": 2.3144555527,
				"element": "C" 
			},
			{
				"x": -1.8812859151,
				"y": 1.2153240622,
				"z": 1.6159816785,
				"element": "O" 
			},
			{
				"x": -0.1690388464,
				"y": -0.5982784842,
				"z": -1.1211605272,
				"element": "C" 
			},
			{
				"x": -1.1323374471,
				"y": -0.4911908023,
				"z": -2.1208135955,
				"element": "C" 
			},
			{
				"x": -2.8906930879,
				"y": 0.1211312876,
				"z": -4.155336407,
				"element": "H" 
			},
			{
				"x": -3.4478019521,
				"y": 1.2916012814,
				"z": -0.3655026519,
				"element": "H" 
			},
			{
				"x": -0.6926022328,
				"y": -1.0868767371,
				"z": 2.422133242,
				"element": "H" 
			},
			{
				"x": 1.0173257073,
				"y": -1.0482912618,
				"z": 2.8880959589,
				"element": "H" 
			},
			{
				"x": 0.9181423341,
				"y": 1.2918966061,
				"z": 3.4922025473,
				"element": "H" 
			},
			{
				"x": -0.5946059006,
				"y": 0.6103928905,
				"z": 4.100290579,
				"element": "H" 
			},
			{
				"x": -0.1169312519,
				"y": 2.3063873081,
				"z": 1.5904935888,
				"element": "H" 
			},
			{
				"x": -1.2421014542,
				"y": 2.6259858272,
				"z": 2.9224678231,
				"element": "H" 
			},
			{
				"x": 0.7633890987,
				"y": -1.123787399,
				"z": -1.3012205179,
				"element": "H" 
			},
			{
				"x": -0.950410355,
				"y": -0.9414440247,
				"z": -3.0914703331,
				"element": "H" 
			}
		],
		 "valence_orbital": [ 
			{
				"type": "occ",
				"energy": -0.31684,
				"method": "rhf"
			},
			{
				"type": "occ",
				"energy": -0.29618,
				"method": "rhf"
			},
			{
				"type": "occ",
				"energy": -0.26448,
				"method": "rhf"
			},
			{
				"type": "occ",
				"energy": -0.23308,
				"method": "rhf"
			},
			{
				"type": "occ",
				"energy": -0.20217,
				"method": "rhf"
			},
			{
				"type": "unocc",
				"energy": -0.00161,
				"method": "rhf"
			},
			{
				"type": "unocc",
				"energy": 0.00296,
				"method": "rhf"
			},
			{
				"type": "unocc",
				"energy": 0.02649,
				"method": "rhf"
			},
			{
				"type": "unocc",
				"energy": 0.0709,
				"method": "rhf"
			},
			{
				"type": "unocc",
				"energy": 0.08155,
				"method": "rhf"
			}
		],
		"cosmo_sigma_profile": { 
			"-0.025": 0.0,
			"-0.024": 0.0,
			"-0.023": 0.0,
			"-0.022": 0.0,
			"-0.021": 0.0,
			"-0.02": 0.0,
			"-0.019": 0.0,
			"-0.018": 0.0,
			"-0.017": 0.0,
			"-0.016": 0.0,
			"-0.015": 0.0,
			"-0.014": 0.0,
			"-0.013": 0.0,
			"-0.012": 0.0,
			"-0.011": 0.192128565098,
			"-0.01": 2.46463150657,
			"-0.009": 2.2807880155,
			"-0.008": 1.93312032921,
			"-0.007": 3.47175839566,
			"-0.006": 8.09905541536,
			"-0.005": 16.6008288723,
			"-0.004": 25.6879848649,
			"-0.003": 20.8369988288,
			"-0.002": 14.5967220885,
			"-0.001": 11.3036404272,
			"0.0": 9.35435222349,
			"0.001": 9.16036216822,
			"0.002": 11.5703145146,
			"0.003": 14.9184716719,
			"0.004": 16.9152870482,
			"0.005": 15.2777057251,
			"0.006": 5.99533856065,
			"0.007": 4.99336813318,
			"0.008": 5.00774192033,
			"0.009": 3.8767498128,
			"0.01": 2.66740199621,
			"0.011": 2.26754735416,
			"0.012": 0.189472975159,
			"0.013": 0.0,
			"0.014": 0.0,
			"0.015": 0.0,
			"0.016": 0.0,
			"0.017": 0.0,
			"0.018": 0.0,
			"0.019": 0.0,
			"0.02": 0.0,
			"0.021": 0.0,
			"0.022": 0.0,
			"0.023": 0.0,
			"0.024": 0.0,
			"0.025": 0.0
		}
	}
}
