{
	 "smiles": "O=C1N(CN2CCOCC2)C(=S)SC1=CC1=CC=CC=C1", 
	 "Tm": 394.15, 
	 "num_atms": 37, 
	 "gaussian": { 
		 "optdone": 1, 
		 "sigma_profile": "yes", 
		 "theory": "DFT", 
		 "functional": "B3LYP", 
		 "basiset": "6-31G**", 
		 "properties": { 
			 "R2extent": 10268.4323, 
			 "electric_dipole_moment_norm": 3.95812205345, 
			 "electric_quadrupole_moment_norm": 18.3698896028, 
			 "total_energy": -1637.5406025, 
			 "HOMO_LUMO_gap": 0.11988, 
			 "cosmo_polarized_energy": -12.92, 
			 "cosmo_cavitation_energy": 42.73, 
			 "cosmo_dispersion_energy": -31.38, 
			 "cosmo_repulsion_energy": 2.29, 
			 "cosmo_total_nonelectrostatic_energy": 13.64, 
			 "SMD_solvation_energy": 4.67 
		},
		"coords": [
			{
				"x": -1.4997102424,
				"y": 0.4016908435,
				"z": -1.5307522035,
				"element": "O" 
			},
			{
				"x": -0.5392006437,
				"y": 0.3030777449,
				"z": -0.7847295702,
				"element": "C" 
			},
			{
				"x": -0.6324956682,
				"y": 0.4220342101,
				"z": 0.614059644,
				"element": "N" 
			},
			{
				"x": -1.9606055236,
				"y": 0.6491812858,
				"z": 1.252944557,
				"element": "C" 
			},
			{
				"x": -2.5769937542,
				"y": -0.5571970516,
				"z": 1.7080074983,
				"element": "N" 
			},
			{
				"x": -3.0729441675,
				"y": -0.5542981785,
				"z": 3.0867100125,
				"element": "C" 
			},
			{
				"x": -3.7579238163,
				"y": -1.8852643095,
				"z": 3.3715606726,
				"element": "C" 
			},
			{
				"x": -4.8942932675,
				"y": -2.1137199899,
				"z": 2.5375137898,
				"element": "O" 
			},
			{
				"x": -4.8433563317,
				"y": -1.452790693,
				"z": 1.2759775262,
				"element": "C" 
			},
			{
				"x": -3.4157337282,
				"y": -1.2992939213,
				"z": 0.7531475187,
				"element": "C" 
			},
			{
				"x": 0.5240296193,
				"y": 0.2801374931,
				"z": 1.3358953523,
				"element": "C" 
			},
			{
				"x": 0.714606883,
				"y": 0.3801566931,
				"z": 2.9700770891,
				"element": "S" 
			},
			{
				"x": 1.8950051035,
				"y": -0.0249253175,
				"z": 0.2405092459,
				"element": "S" 
			},
			{
				"x": 0.8661492759,
				"y": 0.0472995901,
				"z": -1.1926236912,
				"element": "C" 
			},
			{
				"x": 1.1689515964,
				"y": -0.0887269865,
				"z": -2.5053561525,
				"element": "C" 
			},
			{
				"x": 2.4280143701,
				"y": -0.3386148888,
				"z": -3.1883063453,
				"element": "C" 
			},
			{
				"x": 2.3968396162,
				"y": -0.4274935746,
				"z": -4.5967699897,
				"element": "C" 
			},
			{
				"x": 3.554641897,
				"y": -0.6646740696,
				"z": -5.3297840683,
				"element": "C" 
			},
			{
				"x": 4.7770247419,
				"y": -0.8195319315,
				"z": -4.6716062924,
				"element": "C" 
			},
			{
				"x": 4.8289917647,
				"y": -0.7349203625,
				"z": -3.2775211341,
				"element": "C" 
			},
			{
				"x": 3.6719033402,
				"y": -0.4976277148,
				"z": -2.5417477673,
				"element": "C" 
			},
			{
				"x": -1.7780843272,
				"y": 1.3147113603,
				"z": 2.0978689149,
				"element": "H" 
			},
			{
				"x": -2.5384488848,
				"y": 1.1757621123,
				"z": 0.4846450062,
				"element": "H" 
			},
			{
				"x": -3.7913463529,
				"y": 0.262685034,
				"z": 3.2810724871,
				"element": "H" 
			},
			{
				"x": -2.2291816803,
				"y": -0.420921332,
				"z": 3.7728438094,
				"element": "H" 
			},
			{
				"x": -4.1128952898,
				"y": -1.9100541624,
				"z": 4.4071683027,
				"element": "H" 
			},
			{
				"x": -3.0272919636,
				"y": -2.6987699872,
				"z": 3.24465352,
				"element": "H" 
			},
			{
				"x": -5.4390652404,
				"y": -2.0539036504,
				"z": 0.5804357028,
				"element": "H" 
			},
			{
				"x": -5.3183337822,
				"y": -0.4607791333,
				"z": 1.3473055361,
				"element": "H" 
			},
			{
				"x": -3.4274488582,
				"y": -0.7771405031,
				"z": -0.2092523296,
				"element": "H" 
			},
			{
				"x": -2.9933587475,
				"y": -2.2974794714,
				"z": 0.5684101157,
				"element": "H" 
			},
			{
				"x": 0.2972829275,
				"y": 0.0104271169,
				"z": -3.1509739415,
				"element": "H" 
			},
			{
				"x": 1.4468307452,
				"y": -0.3072884432,
				"z": -5.1103537011,
				"element": "H" 
			},
			{
				"x": 3.5051654566,
				"y": -0.7288852589,
				"z": -6.4126080258,
				"element": "H" 
			},
			{
				"x": 5.6835555251,
				"y": -1.0048619864,
				"z": -5.2400518719,
				"element": "H" 
			},
			{
				"x": 5.7765380785,
				"y": -0.854496024,
				"z": -2.7608662536,
				"element": "H" 
			},
			{
				"x": 3.7445813289,
				"y": -0.4371045422,
				"z": -1.462002963,
				"element": "H" 
			}
		],
		 "valence_orbital": [ 
			{
				"type": "occ",
				"energy": -0.26225,
				"method": "rhf"
			},
			{
				"type": "occ",
				"energy": -0.24593,
				"method": "rhf"
			},
			{
				"type": "occ",
				"energy": -0.23285,
				"method": "rhf"
			},
			{
				"type": "occ",
				"energy": -0.22762,
				"method": "rhf"
			},
			{
				"type": "occ",
				"energy": -0.21544,
				"method": "rhf"
			},
			{
				"type": "unocc",
				"energy": -0.09556,
				"method": "rhf"
			},
			{
				"type": "unocc",
				"energy": -0.04123,
				"method": "rhf"
			},
			{
				"type": "unocc",
				"energy": -0.01885,
				"method": "rhf"
			},
			{
				"type": "unocc",
				"energy": -0.0,
				"method": "rhf"
			},
			{
				"type": "unocc",
				"energy": 0.00992,
				"method": "rhf"
			}
		],
		"cosmo_sigma_profile": { 
			"-0.025": 0.0,
			"-0.024": 0.0,
			"-0.023": 0.0,
			"-0.022": 0.0,
			"-0.021": 0.0,
			"-0.02": 0.0,
			"-0.019": 0.0,
			"-0.018": 0.0,
			"-0.017": 0.0,
			"-0.016": 0.0,
			"-0.015": 0.0,
			"-0.014": 0.0,
			"-0.013": 0.0,
			"-0.012": 0.0,
			"-0.011": 0.0,
			"-0.01": 0.0,
			"-0.009": 0.337851548547,
			"-0.008": 2.04509117674,
			"-0.007": 5.3069022991,
			"-0.006": 15.3014838487,
			"-0.005": 26.0881083694,
			"-0.004": 34.7457662535,
			"-0.003": 37.3086197231,
			"-0.002": 30.328012785,
			"-0.001": 25.5617075401,
			"0.0": 24.9846525255,
			"0.001": 23.971842715,
			"0.002": 23.6851015513,
			"0.003": 24.6019346642,
			"0.004": 20.8102505613,
			"0.005": 10.9475833014,
			"0.006": 9.58073351344,
			"0.007": 6.09222696655,
			"0.008": 5.93335234038,
			"0.009": 5.13393620169,
			"0.01": 3.10378791932,
			"0.011": 3.78918815135,
			"0.012": 2.46109228853,
			"0.013": 1.50954903896,
			"0.014": 1.12303864879,
			"0.015": 0.0,
			"0.016": 0.0,
			"0.017": 0.0,
			"0.018": 0.0,
			"0.019": 0.0,
			"0.02": 0.0,
			"0.021": 0.0,
			"0.022": 0.0,
			"0.023": 0.0,
			"0.024": 0.0,
			"0.025": 0.0
		}
	}
}
