{
	 "smiles": "COC1=CC=CC=C1C=C(C(N)=O)C1=NC2=C(S1)C=CC=C2", 
	 "Tm": 447.15, 
	 "num_atms": 36, 
	 "gaussian": { 
		 "optdone": 1, 
		 "sigma_profile": "yes", 
		 "theory": "DFT", 
		 "functional": "B3LYP", 
		 "basiset": "6-31G**", 
		 "properties": { 
			 "R2extent": 8235.5385, 
			 "electric_dipole_moment_norm": 3.74896115344, 
			 "electric_quadrupole_moment_norm": 28.1466204053, 
			 "total_energy": -1314.38931727, 
			 "HOMO_LUMO_gap": 0.1468, 
			 "cosmo_polarized_energy": -15.86, 
			 "cosmo_cavitation_energy": 41.82, 
			 "cosmo_dispersion_energy": -29.83, 
			 "cosmo_repulsion_energy": 2.26, 
			 "cosmo_total_nonelectrostatic_energy": 14.25, 
			 "SMD_solvation_energy": 6.83 
		},
		"coords": [
			{
				"x": 2.0030535433,
				"y": 5.0528779804,
				"z": 2.5172887507,
				"element": "C" 
			},
			{
				"x": 1.6519685553,
				"y": 3.7447001492,
				"z": 2.090392083,
				"element": "O" 
			},
			{
				"x": 0.3351212052,
				"y": 3.4325119897,
				"z": 1.9447792461,
				"element": "C" 
			},
			{
				"x": -0.7093878978,
				"y": 4.3481706334,
				"z": 2.1096958924,
				"element": "C" 
			},
			{
				"x": -2.0305615393,
				"y": 3.9320758578,
				"z": 1.9338465511,
				"element": "C" 
			},
			{
				"x": -2.3207635096,
				"y": 2.6087624902,
				"z": 1.6019392387,
				"element": "C" 
			},
			{
				"x": -1.2781735628,
				"y": 1.7009036328,
				"z": 1.4344577271,
				"element": "C" 
			},
			{
				"x": 0.0634375323,
				"y": 2.0862572957,
				"z": 1.5879153658,
				"element": "C" 
			},
			{
				"x": 1.1745908977,
				"y": 1.1371141088,
				"z": 1.5117286551,
				"element": "C" 
			},
			{
				"x": 1.3337315599,
				"y": 0.0436414655,
				"z": 0.7271471174,
				"element": "C" 
			},
			{
				"x": 2.5349353187,
				"y": -0.8290834721,
				"z": 1.0823608941,
				"element": "C" 
			},
			{
				"x": 2.5953638379,
				"y": -2.0436404849,
				"z": 0.4750525411,
				"element": "N" 
			},
			{
				"x": 3.3888771018,
				"y": -0.4389903381,
				"z": 1.8726308096,
				"element": "O" 
			},
			{
				"x": 0.4941993373,
				"y": -0.2972839579,
				"z": -0.4344052976,
				"element": "C" 
			},
			{
				"x": 0.1122119312,
				"y": -1.5037629035,
				"z": -0.7505397538,
				"element": "N" 
			},
			{
				"x": -0.5864011674,
				"y": -1.53540619,
				"z": -1.944651395,
				"element": "C" 
			},
			{
				"x": -0.7331392851,
				"y": -0.2825468686,
				"z": -2.5882293352,
				"element": "C" 
			},
			{
				"x": 0.0530804116,
				"y": 0.9523024785,
				"z": -1.6330105238,
				"element": "S" 
			},
			{
				"x": -1.4204636909,
				"y": -0.1660342032,
				"z": -3.7997682739,
				"element": "C" 
			},
			{
				"x": -1.9577834022,
				"y": -1.3201317078,
				"z": -4.3638957806,
				"element": "C" 
			},
			{
				"x": -1.8177434459,
				"y": -2.5693310303,
				"z": -3.7332514949,
				"element": "C" 
			},
			{
				"x": -1.1371262664,
				"y": -2.686649646,
				"z": -2.5279193994,
				"element": "C" 
			},
			{
				"x": 1.5578878263,
				"y": 5.2929847452,
				"z": 3.4908609364,
				"element": "H" 
			},
			{
				"x": 3.0900369081,
				"y": 5.0555749637,
				"z": 2.6062471073,
				"element": "H" 
			},
			{
				"x": 1.6985668654,
				"y": 5.8100609266,
				"z": 1.7839666519,
				"element": "H" 
			},
			{
				"x": -0.5029811546,
				"y": 5.3787877811,
				"z": 2.3716739921,
				"element": "H" 
			},
			{
				"x": -2.8342334255,
				"y": 4.6507202072,
				"z": 2.0667209842,
				"element": "H" 
			},
			{
				"x": -3.3495887071,
				"y": 2.2832624483,
				"z": 1.4866015778,
				"element": "H" 
			},
			{
				"x": -1.4979252546,
				"y": 0.6622761908,
				"z": 1.2103146675,
				"element": "H" 
			},
			{
				"x": 1.9890805413,
				"y": 1.2990732472,
				"z": 2.2141158594,
				"element": "H" 
			},
			{
				"x": 3.326068068,
				"y": -2.6640178183,
				"z": 0.7882965897,
				"element": "H" 
			},
			{
				"x": 1.7867173285,
				"y": -2.4054081298,
				"z": -0.0164121563,
				"element": "H" 
			},
			{
				"x": -1.5321507811,
				"y": 0.7955482147,
				"z": -4.2903268806,
				"element": "H" 
			},
			{
				"x": -2.49364339,
				"y": -1.2522453874,
				"z": -5.3059166985,
				"element": "H" 
			},
			{
				"x": -2.2487222044,
				"y": -3.4522452489,
				"z": -4.1953963436,
				"element": "H" 
			},
			{
				"x": -1.023840085,
				"y": -3.6431294199,
				"z": -2.0280099052,
				"element": "H" 
			}
		],
		 "valence_orbital": [ 
			{
				"type": "occ",
				"energy": -0.2539,
				"method": "rhf"
			},
			{
				"type": "occ",
				"energy": -0.24488,
				"method": "rhf"
			},
			{
				"type": "occ",
				"energy": -0.23501,
				"method": "rhf"
			},
			{
				"type": "occ",
				"energy": -0.23062,
				"method": "rhf"
			},
			{
				"type": "occ",
				"energy": -0.21457,
				"method": "rhf"
			},
			{
				"type": "unocc",
				"energy": -0.06777,
				"method": "rhf"
			},
			{
				"type": "unocc",
				"energy": -0.02601,
				"method": "rhf"
			},
			{
				"type": "unocc",
				"energy": -0.0091,
				"method": "rhf"
			},
			{
				"type": "unocc",
				"energy": 0.00388,
				"method": "rhf"
			},
			{
				"type": "unocc",
				"energy": 0.0145,
				"method": "rhf"
			}
		],
		"cosmo_sigma_profile": { 
			"-0.025": 0.0,
			"-0.024": 0.0,
			"-0.023": 0.0,
			"-0.022": 0.0,
			"-0.021": 0.0,
			"-0.02": 0.0,
			"-0.019": 0.0,
			"-0.018": 0.0,
			"-0.017": 0.0,
			"-0.016": 0.0,
			"-0.015": 0.0,
			"-0.014": 0.545428671304,
			"-0.013": 1.30960613739,
			"-0.012": 0.783031643502,
			"-0.011": 0.882752952291,
			"-0.01": 0.667292171875,
			"-0.009": 2.48076254523,
			"-0.008": 1.69637861986,
			"-0.007": 7.24317519806,
			"-0.006": 22.7554501789,
			"-0.005": 26.570731361,
			"-0.004": 27.0468757194,
			"-0.003": 21.7605559055,
			"-0.002": 20.2968506551,
			"-0.001": 20.3329607734,
			"0.0": 25.2654649307,
			"0.001": 29.7765159,
			"0.002": 29.8843986588,
			"0.003": 26.2458607152,
			"0.004": 27.4385770609,
			"0.005": 16.058401264,
			"0.006": 5.30787935549,
			"0.007": 3.4819214282,
			"0.008": 2.8338746375,
			"0.009": 1.7034473767,
			"0.01": 3.04575564339,
			"0.011": 1.50088265452,
			"0.012": 1.33739235154,
			"0.013": 4.39626939952,
			"0.014": 4.24568671848,
			"0.015": 0.46143674617,
			"0.016": 0.0,
			"0.017": 0.0,
			"0.018": 0.0,
			"0.019": 0.0,
			"0.02": 0.0,
			"0.021": 0.0,
			"0.022": 0.0,
			"0.023": 0.0,
			"0.024": 0.0,
			"0.025": 0.0
		}
	}
}
