{
	 "smiles": "NNC(=O)C1=CC2=C(OCCO2)C=C1", 
	 "Tm": 416.15, 
	 "num_atms": 24, 
	 "gaussian": { 
		 "optdone": 1, 
		 "sigma_profile": "yes", 
		 "theory": "DFT", 
		 "functional": "B3LYP", 
		 "basiset": "6-31G**", 
		 "properties": { 
			 "R2extent": 3815.812, 
			 "electric_dipole_moment_norm": 5.38270221171, 
			 "electric_quadrupole_moment_norm": 10.5976418462, 
			 "total_energy": -684.11371232, 
			 "HOMO_LUMO_gap": 0.18936, 
			 "cosmo_polarized_energy": -16.8, 
			 "cosmo_cavitation_energy": 27.68, 
			 "cosmo_dispersion_energy": -20.79, 
			 "cosmo_repulsion_energy": 1.65, 
			 "cosmo_total_nonelectrostatic_energy": 8.54, 
			 "SMD_solvation_energy": 6.09 
		},
		"coords": [
			{
				"x": 2.5598488444,
				"y": 2.3730544757,
				"z": -3.0708133656,
				"element": "N" 
			},
			{
				"x": 2.8760827385,
				"y": 1.0809298256,
				"z": -3.5510124869,
				"element": "N" 
			},
			{
				"x": 2.180206132,
				"y": -0.0837642727,
				"z": -3.271478242,
				"element": "C" 
			},
			{
				"x": 2.1763561094,
				"y": -1.0000949501,
				"z": -4.0866164712,
				"element": "O" 
			},
			{
				"x": 1.4581783633,
				"y": -0.1978702308,
				"z": -1.9625035343,
				"element": "C" 
			},
			{
				"x": 1.9283277817,
				"y": 0.3628284502,
				"z": -0.7680288068,
				"element": "C" 
			},
			{
				"x": 1.2479051374,
				"y": 0.1524581191,
				"z": 0.429218481,
				"element": "C" 
			},
			{
				"x": 0.0796750709,
				"y": -0.6308217669,
				"z": 0.4431293383,
				"element": "C" 
			},
			{
				"x": -0.614276806,
				"y": -0.873099205,
				"z": 1.5989421694,
				"element": "O" 
			},
			{
				"x": 0.1197532021,
				"y": -0.5825533144,
				"z": 2.7905646491,
				"element": "C" 
			},
			{
				"x": 0.8256629891,
				"y": 0.7567027501,
				"z": 2.6577810501,
				"element": "C" 
			},
			{
				"x": 1.7552155771,
				"y": 0.7183153404,
				"z": 1.5744086879,
				"element": "O" 
			},
			{
				"x": -0.3934455064,
				"y": -1.1872762503,
				"z": -0.747672165,
				"element": "C" 
			},
			{
				"x": 0.2940705026,
				"y": -0.9818534481,
				"z": -1.9374630578,
				"element": "C" 
			},
			{
				"x": 1.5634704035,
				"y": 2.4403222657,
				"z": -2.8763947237,
				"element": "H" 
			},
			{
				"x": 3.0570503805,
				"y": 2.5447126418,
				"z": -2.2018995826,
				"element": "H" 
			},
			{
				"x": 3.2247379356,
				"y": 1.0879239542,
				"z": -4.5027594523,
				"element": "H" 
			},
			{
				"x": 2.8443090197,
				"y": 0.941524879,
				"z": -0.7285712754,
				"element": "H" 
			},
			{
				"x": 0.8546354807,
				"y": -1.3771448927,
				"z": 2.9765340705,
				"element": "H" 
			},
			{
				"x": -0.6071768629,
				"y": -0.5704863091,
				"z": 3.6063254504,
				"element": "H" 
			},
			{
				"x": 1.4041192184,
				"y": 0.9911527013,
				"z": 3.5547863376,
				"element": "H" 
			},
			{
				"x": 0.0877174005,
				"y": 1.5531179546,
				"z": 2.489404876,
				"element": "H" 
			},
			{
				"x": -1.2936394938,
				"y": -1.7920873878,
				"z": -0.7097772887,
				"element": "H" 
			},
			{
				"x": -0.0462836184,
				"y": -1.4378913299,
				"z": -2.8602046583,
				"element": "H" 
			}
		],
		 "valence_orbital": [ 
			{
				"type": "occ",
				"energy": -0.29302,
				"method": "rhf"
			},
			{
				"type": "occ",
				"energy": -0.25144,
				"method": "rhf"
			},
			{
				"type": "occ",
				"energy": -0.24647,
				"method": "rhf"
			},
			{
				"type": "occ",
				"energy": -0.24174,
				"method": "rhf"
			},
			{
				"type": "occ",
				"energy": -0.21957,
				"method": "rhf"
			},
			{
				"type": "unocc",
				"energy": -0.03021,
				"method": "rhf"
			},
			{
				"type": "unocc",
				"energy": -0.00372,
				"method": "rhf"
			},
			{
				"type": "unocc",
				"energy": 0.05337,
				"method": "rhf"
			},
			{
				"type": "unocc",
				"energy": 0.06844,
				"method": "rhf"
			},
			{
				"type": "unocc",
				"energy": 0.0822,
				"method": "rhf"
			}
		],
		"cosmo_sigma_profile": { 
			"-0.025": 0.0,
			"-0.024": 0.0,
			"-0.023": 0.0,
			"-0.022": 0.0,
			"-0.021": 0.0,
			"-0.02": 0.0,
			"-0.019": 0.0,
			"-0.018": 0.0,
			"-0.017": 0.0,
			"-0.016": 0.0,
			"-0.015": 0.0,
			"-0.014": 0.0,
			"-0.013": 0.537592668796,
			"-0.012": 2.66824115789,
			"-0.011": 3.86172622755,
			"-0.01": 3.08616439723,
			"-0.009": 3.72193834246,
			"-0.008": 4.62541205694,
			"-0.007": 10.8536376037,
			"-0.006": 18.1951113703,
			"-0.005": 17.7847927922,
			"-0.004": 14.0020019961,
			"-0.003": 10.7343896103,
			"-0.002": 9.73616167696,
			"-0.001": 10.4370040323,
			"0.0": 9.09547254852,
			"0.001": 11.800646755,
			"0.002": 13.2691827878,
			"0.003": 14.5798089994,
			"0.004": 11.8707857886,
			"0.005": 9.01019848677,
			"0.006": 4.92480385755,
			"0.007": 4.63377597209,
			"0.008": 4.3595594298,
			"0.009": 4.60662244628,
			"0.01": 4.70659291264,
			"0.011": 2.45108264529,
			"0.012": 2.96964849971,
			"0.013": 5.7320121968,
			"0.014": 3.9491114979,
			"0.015": 0.671570804311,
			"0.016": 0.413410143708,
			"0.017": 0.0957678621203,
			"0.018": 0.0,
			"0.019": 0.0,
			"0.02": 0.0,
			"0.021": 0.0,
			"0.022": 0.0,
			"0.023": 0.0,
			"0.024": 0.0,
			"0.025": 0.0
		}
	}
}
