{
	 "smiles": "COC1=C(CC(C)=CC(O)=O)C=CC=C1", 
	 "Tm": 370.15, 
	 "num_atms": 29, 
	 "gaussian": { 
		 "optdone": 1, 
		 "sigma_profile": "yes", 
		 "theory": "DFT", 
		 "functional": "B3LYP", 
		 "basiset": "6-31G**", 
		 "properties": { 
			 "R2extent": 3891.7997, 
			 "electric_dipole_moment_norm": 5.30875867317, 
			 "electric_quadrupole_moment_norm": 27.0661059297, 
			 "total_energy": -691.373774332, 
			 "HOMO_LUMO_gap": 0.18509, 
			 "cosmo_polarized_energy": -16.42, 
			 "cosmo_cavitation_energy": 32.7, 
			 "cosmo_dispersion_energy": -22.55, 
			 "cosmo_repulsion_energy": 1.78, 
			 "cosmo_total_nonelectrostatic_energy": 11.92, 
			 "SMD_solvation_energy": 7.54 
		},
		"coords": [
			{
				"x": 2.6453782869,
				"y": 0.1950773908,
				"z": 0.8873593195,
				"element": "C" 
			},
			{
				"x": 1.2503912226,
				"y": 0.3965818549,
				"z": 0.7234810481,
				"element": "O" 
			},
			{
				"x": 0.8243931812,
				"y": 1.2133539723,
				"z": -0.2882533843,
				"element": "C" 
			},
			{
				"x": -0.5744993821,
				"y": 1.3729040151,
				"z": -0.3980685244,
				"element": "C" 
			},
			{
				"x": -1.5052703686,
				"y": 0.6431391428,
				"z": 0.5546228073,
				"element": "C" 
			},
			{
				"x": -1.7493967886,
				"y": -0.8117462068,
				"z": 0.1745425077,
				"element": "C" 
			},
			{
				"x": -2.5360119916,
				"y": -1.0347547678,
				"z": -1.0865527887,
				"element": "C" 
			},
			{
				"x": -1.2734762716,
				"y": -1.7873474422,
				"z": 0.9750696708,
				"element": "C" 
			},
			{
				"x": -1.4194231794,
				"y": -3.2503973678,
				"z": 0.7750450392,
				"element": "C" 
			},
			{
				"x": -0.8359462956,
				"y": -4.0126490332,
				"z": 1.7491492971,
				"element": "O" 
			},
			{
				"x": -1.9869960902,
				"y": -3.813270603,
				"z": -0.1364832113,
				"element": "O" 
			},
			{
				"x": -1.066082306,
				"y": 2.211693324,
				"z": -1.39955212,
				"element": "C" 
			},
			{
				"x": -0.2144851629,
				"y": 2.8768270475,
				"z": -2.2862904576,
				"element": "C" 
			},
			{
				"x": 1.1608665777,
				"y": 2.7025993441,
				"z": -2.1664985183,
				"element": "C" 
			},
			{
				"x": 1.6857193337,
				"y": 1.8764612604,
				"z": -1.168628311,
				"element": "C" 
			},
			{
				"x": 3.1681519751,
				"y": 1.1352707047,
				"z": 1.104568027,
				"element": "H" 
			},
			{
				"x": 2.7553516324,
				"y": -0.4798033255,
				"z": 1.7377701221,
				"element": "H" 
			},
			{
				"x": 3.0938785082,
				"y": -0.2688041911,
				"z": -0.0000394366,
				"element": "H" 
			},
			{
				"x": -2.4716891393,
				"y": 1.1633178658,
				"z": 0.5563100537,
				"element": "H" 
			},
			{
				"x": -1.1028940422,
				"y": 0.6941359745,
				"z": 1.5701521899,
				"element": "H" 
			},
			{
				"x": -2.6386267671,
				"y": -2.0917630342,
				"z": -1.3200964936,
				"element": "H" 
			},
			{
				"x": -3.5347873598,
				"y": -0.5903978164,
				"z": -0.9796310525,
				"element": "H" 
			},
			{
				"x": -2.0534308393,
				"y": -0.5151881375,
				"z": -1.9222750804,
				"element": "H" 
			},
			{
				"x": -0.7116629921,
				"y": -1.4762395402,
				"z": 1.8543831432,
				"element": "H" 
			},
			{
				"x": -0.4258262199,
				"y": -3.4450848895,
				"z": 2.4155814431,
				"element": "H" 
			},
			{
				"x": -2.1414478553,
				"y": 2.3494233697,
				"z": -1.4812489212,
				"element": "H" 
			},
			{
				"x": -0.6245414446,
				"y": 3.5233922303,
				"z": -3.0556800529,
				"element": "H" 
			},
			{
				"x": 1.8395824812,
				"y": 3.2109002095,
				"z": -2.8453235193,
				"element": "H" 
			},
			{
				"x": 2.7592812972,
				"y": 1.7562686488,
				"z": -1.0867127964,
				"element": "H" 
			}
		],
		 "valence_orbital": [ 
			{
				"type": "occ",
				"energy": -0.3037,
				"method": "rhf"
			},
			{
				"type": "occ",
				"energy": -0.25897,
				"method": "rhf"
			},
			{
				"type": "occ",
				"energy": -0.2581,
				"method": "rhf"
			},
			{
				"type": "occ",
				"energy": -0.25179,
				"method": "rhf"
			},
			{
				"type": "occ",
				"energy": -0.22448,
				"method": "rhf"
			},
			{
				"type": "unocc",
				"energy": -0.03939,
				"method": "rhf"
			},
			{
				"type": "unocc",
				"energy": -0.00389,
				"method": "rhf"
			},
			{
				"type": "unocc",
				"energy": 0.00554,
				"method": "rhf"
			},
			{
				"type": "unocc",
				"energy": 0.06427,
				"method": "rhf"
			},
			{
				"type": "unocc",
				"energy": 0.08554,
				"method": "rhf"
			}
		],
		"cosmo_sigma_profile": { 
			"-0.025": 0.0,
			"-0.024": 0.0,
			"-0.023": 0.0,
			"-0.022": 0.0,
			"-0.021": 0.0,
			"-0.02": 0.0,
			"-0.019": 0.0607389275821,
			"-0.018": 1.2696961711,
			"-0.017": 0.843956084447,
			"-0.016": 1.14312319283,
			"-0.015": 1.05974646833,
			"-0.014": 0.908275759019,
			"-0.013": 0.936242595149,
			"-0.012": 1.1749883723,
			"-0.011": 0.835257289807,
			"-0.01": 0.892949803966,
			"-0.009": 0.976831773878,
			"-0.008": 0.599955943844,
			"-0.007": 1.35412947848,
			"-0.006": 8.83064891383,
			"-0.005": 23.9614037779,
			"-0.004": 24.3357041373,
			"-0.003": 25.0669894183,
			"-0.002": 17.5674984407,
			"-0.001": 19.7598924393,
			"0.0": 18.8512098991,
			"0.001": 15.2386411046,
			"0.002": 14.3261759598,
			"0.003": 15.1644716074,
			"0.004": 12.0220499195,
			"0.005": 12.6099271031,
			"0.006": 10.8037491763,
			"0.007": 4.6179238199,
			"0.008": 3.18855783115,
			"0.009": 2.9835098257,
			"0.01": 3.7916484379,
			"0.011": 5.13249801973,
			"0.012": 4.57854534192,
			"0.013": 3.01748788335,
			"0.014": 0.973396120462,
			"0.015": 0.0,
			"0.016": 0.0,
			"0.017": 0.0,
			"0.018": 0.0,
			"0.019": 0.0,
			"0.02": 0.0,
			"0.021": 0.0,
			"0.022": 0.0,
			"0.023": 0.0,
			"0.024": 0.0,
			"0.025": 0.0
		}
	}
}
