{
	 "smiles": "[O-][N+](=O)C1=CC(OC2=CC=C(C=C2)C#N)=CC=C1", 
	 "Tm": 398.15, 
	 "num_atms": 26, 
	 "gaussian": { 
		 "optdone": 1, 
		 "sigma_profile": "yes", 
		 "theory": "DFT", 
		 "functional": "B3LYP", 
		 "basiset": "6-31G**", 
		 "properties": { 
			 "R2extent": 6832.0454, 
			 "electric_dipole_moment_norm": 3.09986399218, 
			 "electric_quadrupole_moment_norm": 46.6080005895, 
			 "total_energy": -835.251362696, 
			 "HOMO_LUMO_gap": 0.15171, 
			 "cosmo_polarized_energy": -15.52, 
			 "cosmo_cavitation_energy": 33.57, 
			 "cosmo_dispersion_energy": -23.51, 
			 "cosmo_repulsion_energy": 1.8, 
			 "cosmo_total_nonelectrostatic_energy": 11.86, 
			 "SMD_solvation_energy": 9.66 
		},
		"coords": [
			{
				"x": -5.6252029369,
				"y": 1.0677722239,
				"z": 0.8515179208,
				"element": "O" 
			},
			{
				"x": -4.5022230478,
				"y": 1.5490759106,
				"z": 0.7135126441,
				"element": "N" 
			},
			{
				"x": -4.120915853,
				"y": 2.6043133959,
				"z": 1.216208292,
				"element": "O" 
			},
			{
				"x": -3.53920426,
				"y": 0.8021742363,
				"z": -0.118196646,
				"element": "C" 
			},
			{
				"x": -2.2593981311,
				"y": 1.3260660284,
				"z": -0.2800331827,
				"element": "C" 
			},
			{
				"x": -1.3571617082,
				"y": 0.615844853,
				"z": -1.06822596,
				"element": "C" 
			},
			{
				"x": -0.1260480782,
				"y": 1.1998570065,
				"z": -1.2892281002,
				"element": "O" 
			},
			{
				"x": 1.0362267013,
				"y": 0.4714088305,
				"z": -1.1845453034,
				"element": "C" 
			},
			{
				"x": 2.1177705302,
				"y": 0.9318589873,
				"z": -1.9433456914,
				"element": "C" 
			},
			{
				"x": 3.3459304466,
				"y": 0.2908616569,
				"z": -1.8521003823,
				"element": "C" 
			},
			{
				"x": 3.50298261,
				"y": -0.8198617497,
				"z": -1.0034682694,
				"element": "C" 
			},
			{
				"x": 2.4104878328,
				"y": -1.2682060336,
				"z": -0.2424347741,
				"element": "C" 
			},
			{
				"x": 1.1799082448,
				"y": -0.6253798182,
				"z": -0.3271685418,
				"element": "C" 
			},
			{
				"x": 4.7670218256,
				"y": -1.4880077859,
				"z": -0.9141755328,
				"element": "C" 
			},
			{
				"x": 5.7931286548,
				"y": -2.0319031352,
				"z": -0.8429999699,
				"element": "N" 
			},
			{
				"x": -1.7297524289,
				"y": -0.587345963,
				"z": -1.6794836058,
				"element": "C" 
			},
			{
				"x": -3.0181493096,
				"y": -1.0869762172,
				"z": -1.4868911237,
				"element": "C" 
			},
			{
				"x": -3.9413296584,
				"y": -0.3960891633,
				"z": -0.7024633574,
				"element": "C" 
			},
			{
				"x": -1.9791445737,
				"y": 2.2605065065,
				"z": 0.1880203725,
				"element": "H" 
			},
			{
				"x": 1.9762162303,
				"y": 1.7889256588,
				"z": -2.5924579583,
				"element": "H" 
			},
			{
				"x": 4.1881873411,
				"y": 0.6411286782,
				"z": -2.4389377184,
				"element": "H" 
			},
			{
				"x": 2.5327177692,
				"y": -2.117371297,
				"z": 0.4214194765,
				"element": "H" 
			},
			{
				"x": 0.3437235425,
				"y": -0.9666849504,
				"z": 0.2720736763,
				"element": "H" 
			},
			{
				"x": -1.0178108466,
				"y": -1.1186313754,
				"z": -2.301911885,
				"element": "H" 
			},
			{
				"x": -3.3070462922,
				"y": -2.0188437179,
				"z": -1.9620640814,
				"element": "H" 
			},
			{
				"x": -4.9480146048,
				"y": -0.7590927659,
				"z": -0.5416202981,
				"element": "H" 
			}
		],
		 "valence_orbital": [ 
			{
				"type": "occ",
				"energy": -0.30145,
				"method": "rhf"
			},
			{
				"type": "occ",
				"energy": -0.29884,
				"method": "rhf"
			},
			{
				"type": "occ",
				"energy": -0.28948,
				"method": "rhf"
			},
			{
				"type": "occ",
				"energy": -0.28433,
				"method": "rhf"
			},
			{
				"type": "occ",
				"energy": -0.25251,
				"method": "rhf"
			},
			{
				"type": "unocc",
				"energy": -0.1008,
				"method": "rhf"
			},
			{
				"type": "unocc",
				"energy": -0.05795,
				"method": "rhf"
			},
			{
				"type": "unocc",
				"energy": -0.03996,
				"method": "rhf"
			},
			{
				"type": "unocc",
				"energy": -0.03446,
				"method": "rhf"
			},
			{
				"type": "unocc",
				"energy": -0.01154,
				"method": "rhf"
			}
		],
		"cosmo_sigma_profile": { 
			"-0.025": 0.0,
			"-0.024": 0.0,
			"-0.023": 0.0,
			"-0.022": 0.0,
			"-0.021": 0.0,
			"-0.02": 0.0,
			"-0.019": 0.0,
			"-0.018": 0.0,
			"-0.017": 0.0,
			"-0.016": 0.0,
			"-0.015": 0.0,
			"-0.014": 0.0,
			"-0.013": 0.0,
			"-0.012": 0.0,
			"-0.011": 0.0,
			"-0.01": 0.0,
			"-0.009": 0.680059214094,
			"-0.008": 11.2089692439,
			"-0.007": 16.8195849829,
			"-0.006": 17.1682937538,
			"-0.005": 14.8450091282,
			"-0.004": 14.8948122271,
			"-0.003": 15.4887950615,
			"-0.002": 18.6333056295,
			"-0.001": 22.9793209582,
			"0.0": 27.1409006894,
			"0.001": 26.9166586839,
			"0.002": 16.8525581745,
			"0.003": 6.03442351253,
			"0.004": 5.81961827511,
			"0.005": 6.32645664666,
			"0.006": 7.83661426737,
			"0.007": 12.6443697604,
			"0.008": 9.90652206106,
			"0.009": 7.44102948313,
			"0.01": 5.34244659691,
			"0.011": 2.66587049877,
			"0.012": 2.63877091089,
			"0.013": 1.76363169674,
			"0.014": 0.121076423499,
			"0.015": 0.0,
			"0.016": 0.0,
			"0.017": 0.0,
			"0.018": 0.0,
			"0.019": 0.0,
			"0.02": 0.0,
			"0.021": 0.0,
			"0.022": 0.0,
			"0.023": 0.0,
			"0.024": 0.0,
			"0.025": 0.0
		}
	}
}
