{
	 "smiles": "CC(C)(C)C(Br)C(=O)NC(C)(C)C1=CC=CC=C1", 
	 "Tm": 453.15, 
	 "num_atms": 40, 
	 "gaussian": { 
		 "optdone": 1, 
		 "sigma_profile": "yes", 
		 "theory": "DFT", 
		 "functional": "B3LYP", 
		 "basiset": "6-31G**", 
		 "properties": { 
			 "R2extent": 6475.8537, 
			 "electric_dipole_moment_norm": 2.63708723026, 
			 "electric_quadrupole_moment_norm": 9.8444424804, 
			 "total_energy": -3286.27187614, 
			 "HOMO_LUMO_gap": 0.20358, 
			 "cosmo_polarized_energy": -10.9, 
			 "cosmo_cavitation_energy": 41.45, 
			 "cosmo_dispersion_energy": -28.15, 
			 "cosmo_repulsion_energy": 2.17, 
			 "cosmo_total_nonelectrostatic_energy": 15.48, 
			 "SMD_solvation_energy": 6.25 
		},
		"coords": [
			{
				"x": -1.1966141319,
				"y": -3.3269461677,
				"z": -1.748667746,
				"element": "C" 
			},
			{
				"x": -1.6368878205,
				"y": -2.042605256,
				"z": -2.4752631646,
				"element": "C" 
			},
			{
				"x": -3.1079839537,
				"y": -2.1806974633,
				"z": -2.9186159104,
				"element": "C" 
			},
			{
				"x": -0.7683014372,
				"y": -1.8278472425,
				"z": -3.7403304339,
				"element": "C" 
			},
			{
				"x": -1.4920598886,
				"y": -0.7715135952,
				"z": -1.6058806685,
				"element": "C" 
			},
			{
				"x": -2.592274261,
				"y": -0.8546262571,
				"z": 0.0844626087,
				"element": "Br" 
			},
			{
				"x": -0.0661858669,
				"y": -0.3660638004,
				"z": -1.1648908195,
				"element": "C" 
			},
			{
				"x": 0.8806229866,
				"y": -1.1452113434,
				"z": -1.2183478791,
				"element": "O" 
			},
			{
				"x": 0.0169215897,
				"y": 0.9394848061,
				"z": -0.7815956271,
				"element": "N" 
			},
			{
				"x": 1.1916164154,
				"y": 1.687039903,
				"z": -0.2500218695,
				"element": "C" 
			},
			{
				"x": 2.4670380628,
				"y": 1.3379041837,
				"z": -1.0442035481,
				"element": "C" 
			},
			{
				"x": 0.8588916694,
				"y": 3.1672500715,
				"z": -0.5162472195,
				"element": "C" 
			},
			{
				"x": 1.388440895,
				"y": 1.384521437,
				"z": 1.2506729615,
				"element": "C" 
			},
			{
				"x": 1.3230356585,
				"y": 2.3809980847,
				"z": 2.2334013057,
				"element": "C" 
			},
			{
				"x": 1.5172863685,
				"y": 2.0766747071,
				"z": 3.5839668179,
				"element": "C" 
			},
			{
				"x": 1.7789562833,
				"y": 0.7667297243,
				"z": 3.9784700473,
				"element": "C" 
			},
			{
				"x": 1.8456007042,
				"y": -0.237166044,
				"z": 3.0095251664,
				"element": "C" 
			},
			{
				"x": 1.6559834794,
				"y": 0.0670447348,
				"z": 1.6630230337,
				"element": "C" 
			},
			{
				"x": -0.1517501938,
				"y": -3.266528724,
				"z": -1.4437034311,
				"element": "H" 
			},
			{
				"x": -1.810672564,
				"y": -3.5036672655,
				"z": -0.8608670141,
				"element": "H" 
			},
			{
				"x": -1.3203878376,
				"y": -4.1846437299,
				"z": -2.4186847883,
				"element": "H" 
			},
			{
				"x": -3.4519388741,
				"y": -1.2885407588,
				"z": -3.4555275339,
				"element": "H" 
			},
			{
				"x": -3.2103661096,
				"y": -3.0357722003,
				"z": -3.594441684,
				"element": "H" 
			},
			{
				"x": -3.7727494753,
				"y": -2.3406332069,
				"z": -2.0660749995,
				"element": "H" 
			},
			{
				"x": 0.2925171427,
				"y": -1.7782994226,
				"z": -3.4912304642,
				"element": "H" 
			},
			{
				"x": -1.050170707,
				"y": -0.9091393461,
				"z": -4.2691999948,
				"element": "H" 
			},
			{
				"x": -0.9236343378,
				"y": -2.6633263229,
				"z": -4.4307133119,
				"element": "H" 
			},
			{
				"x": -1.950876416,
				"y": 0.0674582303,
				"z": -2.1339192482,
				"element": "H" 
			},
			{
				"x": -0.8710144414,
				"y": 1.385624584,
				"z": -0.5901481474,
				"element": "H" 
			},
			{
				"x": 3.2846825598,
				"y": 1.9736505702,
				"z": -0.6918127163,
				"element": "H" 
			},
			{
				"x": 2.7509364343,
				"y": 0.2948035777,
				"z": -0.9246418415,
				"element": "H" 
			},
			{
				"x": 2.3118926284,
				"y": 1.5303955405,
				"z": -2.1107694803,
				"element": "H" 
			},
			{
				"x": 1.6752046849,
				"y": 3.8154566364,
				"z": -0.1890453387,
				"element": "H" 
			},
			{
				"x": 0.7127572076,
				"y": 3.3193476414,
				"z": -1.5890079721,
				"element": "H" 
			},
			{
				"x": -0.0533389506,
				"y": 3.4830849856,
				"z": 0.0022761148,
				"element": "H" 
			},
			{
				"x": 1.1209650592,
				"y": 3.4109702029,
				"z": 1.9616849337,
				"element": "H" 
			},
			{
				"x": 1.4612117172,
				"y": 2.8699643393,
				"z": 4.3243326419,
				"element": "H" 
			},
			{
				"x": 1.9291235838,
				"y": 0.5286659243,
				"z": 5.0276602509,
				"element": "H" 
			},
			{
				"x": 2.0470827633,
				"y": -1.2639372499,
				"z": 3.3020934297,
				"element": "H" 
			},
			{
				"x": 1.7049393728,
				"y": -0.7245044886,
				"z": 0.9231835407,
				"element": "H" 
			}
		],
		 "valence_orbital": [ 
			{
				"type": "occ",
				"energy": -0.27841,
				"method": "rhf"
			},
			{
				"type": "occ",
				"energy": -0.26111,
				"method": "rhf"
			},
			{
				"type": "occ",
				"energy": -0.25015,
				"method": "rhf"
			},
			{
				"type": "occ",
				"energy": -0.24557,
				"method": "rhf"
			},
			{
				"type": "occ",
				"energy": -0.23865,
				"method": "rhf"
			},
			{
				"type": "unocc",
				"energy": -0.03507,
				"method": "rhf"
			},
			{
				"type": "unocc",
				"energy": -0.00097,
				"method": "rhf"
			},
			{
				"type": "unocc",
				"energy": 0.00348,
				"method": "rhf"
			},
			{
				"type": "unocc",
				"energy": 0.04249,
				"method": "rhf"
			},
			{
				"type": "unocc",
				"energy": 0.07293,
				"method": "rhf"
			}
		],
		"cosmo_sigma_profile": { 
			"-0.025": 0.0,
			"-0.024": 0.0,
			"-0.023": 0.0,
			"-0.022": 0.0,
			"-0.021": 0.0,
			"-0.02": 0.0,
			"-0.019": 0.0,
			"-0.018": 0.0,
			"-0.017": 0.0,
			"-0.016": 0.0,
			"-0.015": 0.0,
			"-0.014": 0.0,
			"-0.013": 0.0303784161089,
			"-0.012": 1.38749303611,
			"-0.011": 1.73982997058,
			"-0.01": 1.18405878119,
			"-0.009": 2.11036003618,
			"-0.008": 1.84110910655,
			"-0.007": 3.31323725565,
			"-0.006": 5.5949445638,
			"-0.005": 12.6361546055,
			"-0.004": 22.5157475118,
			"-0.003": 33.4999995348,
			"-0.002": 29.1225765558,
			"-0.001": 33.2368596198,
			"0.0": 35.8965036611,
			"0.001": 39.8951390727,
			"0.002": 24.2531372708,
			"0.003": 19.1505791188,
			"0.004": 17.8978228398,
			"0.005": 17.0430551051,
			"0.006": 13.7516611546,
			"0.007": 3.40137604691,
			"0.008": 2.29407663362,
			"0.009": 0.92870319109,
			"0.01": 1.31714509172,
			"0.011": 1.40072414718,
			"0.012": 1.19126933893,
			"0.013": 0.366676889822,
			"0.014": 0.0,
			"0.015": 0.0,
			"0.016": 0.0,
			"0.017": 0.0,
			"0.018": 0.0,
			"0.019": 0.0,
			"0.02": 0.0,
			"0.021": 0.0,
			"0.022": 0.0,
			"0.023": 0.0,
			"0.024": 0.0,
			"0.025": 0.0
		}
	}
}
