{
	 "smiles": "O[Si](C1=CC=CC=C1)(C1=CC=CC=C1)C1=CC=CC=C1", 
	 "Tm": 426.15, 
	 "num_atms": 36, 
	 "gaussian": { 
		 "optdone": 1, 
		 "sigma_profile": "yes", 
		 "theory": "DFT", 
		 "functional": "B3LYP", 
		 "basiset": "6-31G**", 
		 "properties": { 
			 "R2extent": 6245.545, 
			 "electric_dipole_moment_norm": 1.43256824968, 
			 "electric_quadrupole_moment_norm": 4.1302177485, 
			 "total_energy": -1060.34701243, 
			 "HOMO_LUMO_gap": 0.22051, 
			 "cosmo_polarized_energy": -10.55, 
			 "cosmo_cavitation_energy": 41.29, 
			 "cosmo_dispersion_energy": -26.63, 
			 "cosmo_repulsion_energy": 2.14, 
			 "cosmo_total_nonelectrostatic_energy": 16.8, 
			 "SMD_solvation_energy": 7.23 
		},
		"coords": [
			{
				"x": -1.3661759701,
				"y": -1.8557682398,
				"z": 0.9082975434,
				"element": "O" 
			},
			{
				"x": -0.7396247164,
				"y": -0.4935519171,
				"z": 0.155086552,
				"element": "Si" 
			},
			{
				"x": -1.9935182835,
				"y": 0.2179425964,
				"z": -1.0613189381,
				"element": "C" 
			},
			{
				"x": -2.9212994952,
				"y": 1.1956516949,
				"z": -0.6542353011,
				"element": "C" 
			},
			{
				"x": -3.8931387682,
				"y": 1.6811742462,
				"z": -1.5302639942,
				"element": "C" 
			},
			{
				"x": -3.9580717119,
				"y": 1.1980257937,
				"z": -2.83882982,
				"element": "C" 
			},
			{
				"x": -3.0470394034,
				"y": 0.2305841558,
				"z": -3.2671223159,
				"element": "C" 
			},
			{
				"x": -2.0759905027,
				"y": -0.2505477696,
				"z": -2.3870791986,
				"element": "C" 
			},
			{
				"x": 0.8431235164,
				"y": -0.9532758701,
				"z": -0.754838571,
				"element": "C" 
			},
			{
				"x": 1.378389128,
				"y": -0.1602519756,
				"z": -1.7876346993,
				"element": "C" 
			},
			{
				"x": 2.5839296047,
				"y": -0.4960051204,
				"z": -2.4071311158,
				"element": "C" 
			},
			{
				"x": 3.2782649322,
				"y": -1.6398459066,
				"z": -2.0084029431,
				"element": "C" 
			},
			{
				"x": 2.76276312,
				"y": -2.444857049,
				"z": -0.9904107864,
				"element": "C" 
			},
			{
				"x": 1.5596635445,
				"y": -2.1025046675,
				"z": -0.3712288266,
				"element": "C" 
			},
			{
				"x": -0.4022285122,
				"y": 0.6985208084,
				"z": 1.5660731216,
				"element": "C" 
			},
			{
				"x": -1.1594240328,
				"y": 0.6384668922,
				"z": 2.7509302709,
				"element": "C" 
			},
			{
				"x": -0.9420273008,
				"y": 1.5435140188,
				"z": 3.7917071321,
				"element": "C" 
			},
			{
				"x": 0.0397597584,
				"y": 2.5283272938,
				"z": 3.6679107749,
				"element": "C" 
			},
			{
				"x": 0.8068780232,
				"y": 2.6008724882,
				"z": 2.5032602326,
				"element": "C" 
			},
			{
				"x": 0.5877611273,
				"y": 1.6930078312,
				"z": 1.4664775684,
				"element": "C" 
			},
			{
				"x": -1.8936332513,
				"y": -2.4364599796,
				"z": 0.3492018582,
				"element": "H" 
			},
			{
				"x": -2.8787470388,
				"y": 1.5854339666,
				"z": 0.3595452696,
				"element": "H" 
			},
			{
				"x": -4.5967886182,
				"y": 2.4379575863,
				"z": -1.1941499883,
				"element": "H" 
			},
			{
				"x": -4.7127601462,
				"y": 1.5765279066,
				"z": -3.5228945182,
				"element": "H" 
			},
			{
				"x": -3.0901182766,
				"y": -0.1449774023,
				"z": -4.2859655008,
				"element": "H" 
			},
			{
				"x": -1.3649579865,
				"y": -0.9929825473,
				"z": -2.7419085743,
				"element": "H" 
			},
			{
				"x": 0.842756185,
				"y": 0.7248713361,
				"z": -2.1230335564,
				"element": "H" 
			},
			{
				"x": 2.9782006164,
				"y": 0.1307280864,
				"z": -3.2025578604,
				"element": "H" 
			},
			{
				"x": 4.2152285689,
				"y": -1.9042741416,
				"z": -2.4910305864,
				"element": "H" 
			},
			{
				"x": 3.2979750969,
				"y": -3.3381953587,
				"z": -0.679814135,
				"element": "H" 
			},
			{
				"x": 1.1645022883,
				"y": -2.7361839126,
				"z": 0.4185666499,
				"element": "H" 
			},
			{
				"x": -1.9143635667,
				"y": -0.1347155547,
				"z": 2.8626892487,
				"element": "H" 
			},
			{
				"x": -1.5351849988,
				"y": 1.4776178826,
				"z": 4.6999304265,
				"element": "H" 
			},
			{
				"x": 0.2107485934,
				"y": 3.2326058139,
				"z": 4.4776178319,
				"element": "H" 
			},
			{
				"x": 1.5785799405,
				"y": 3.3597017483,
				"z": 2.4059143824,
				"element": "H" 
			},
			{
				"x": 1.2055685362,
				"y": 1.7532652665,
				"z": 0.5735423669,
				"element": "H" 
			}
		],
		 "valence_orbital": [ 
			{
				"type": "occ",
				"energy": -0.25103,
				"method": "rhf"
			},
			{
				"type": "occ",
				"energy": -0.24808,
				"method": "rhf"
			},
			{
				"type": "occ",
				"energy": -0.24722,
				"method": "rhf"
			},
			{
				"type": "occ",
				"energy": -0.24434,
				"method": "rhf"
			},
			{
				"type": "occ",
				"energy": -0.2415,
				"method": "rhf"
			},
			{
				"type": "unocc",
				"energy": -0.02099,
				"method": "rhf"
			},
			{
				"type": "unocc",
				"energy": -0.0163,
				"method": "rhf"
			},
			{
				"type": "unocc",
				"energy": -0.00457,
				"method": "rhf"
			},
			{
				"type": "unocc",
				"energy": -0.00389,
				"method": "rhf"
			},
			{
				"type": "unocc",
				"energy": 0.00301,
				"method": "rhf"
			}
		],
		"cosmo_sigma_profile": { 
			"-0.025": 0.0,
			"-0.024": 0.0,
			"-0.023": 0.0,
			"-0.022": 0.0,
			"-0.021": 0.0,
			"-0.02": 0.0,
			"-0.019": 0.0,
			"-0.018": 0.0,
			"-0.017": 0.161667540253,
			"-0.016": 0.850753422355,
			"-0.015": 0.747183572013,
			"-0.014": 1.05154864872,
			"-0.013": 0.657053696722,
			"-0.012": 0.826769512889,
			"-0.011": 0.59198559254,
			"-0.01": 0.480797103967,
			"-0.009": 0.218247758726,
			"-0.008": 1.07792097272,
			"-0.007": 1.0515959208,
			"-0.006": 10.2835693551,
			"-0.005": 24.3334149048,
			"-0.004": 33.3970102965,
			"-0.003": 32.9179505665,
			"-0.002": 21.8030313676,
			"-0.001": 22.9238653623,
			"0.0": 22.8044835481,
			"0.001": 22.96552476,
			"0.002": 21.0287300525,
			"0.003": 26.6233510501,
			"0.004": 25.645232761,
			"0.005": 27.376886297,
			"0.006": 18.5645050999,
			"0.007": 1.33053054545,
			"0.008": 1.20490499178,
			"0.009": 1.2150966549,
			"0.01": 1.03995685208,
			"0.011": 0.544553801169,
			"0.012": 0.958791381036,
			"0.013": 0.825840955502,
			"0.014": 0.513860589339,
			"0.015": 0.0646971674683,
			"0.016": 0.0,
			"0.017": 0.0,
			"0.018": 0.0,
			"0.019": 0.0,
			"0.02": 0.0,
			"0.021": 0.0,
			"0.022": 0.0,
			"0.023": 0.0,
			"0.024": 0.0,
			"0.025": 0.0
		}
	}
}
