{
	 "smiles": "CC(=O)NC1=CC=C(C=CC2=CC=C(NC(C)=O)C=C2)C=C1", 
	 "Tm": 595.15, 
	 "num_atms": 40, 
	 "gaussian": { 
		 "optdone": 1, 
		 "sigma_profile": "yes", 
		 "theory": "DFT", 
		 "functional": "B3LYP", 
		 "basiset": "6-31G**", 
		 "properties": { 
			 "R2extent": 16831.6263, 
			 "electric_dipole_moment_norm": 0.290078851349, 
			 "electric_quadrupole_moment_norm": 52.1567249731, 
			 "total_energy": -956.745251509, 
			 "HOMO_LUMO_gap": 0.13772, 
			 "cosmo_polarized_energy": -22.18, 
			 "cosmo_cavitation_energy": 45.0, 
			 "cosmo_dispersion_energy": -32.21, 
			 "cosmo_repulsion_energy": 2.43, 
			 "cosmo_total_nonelectrostatic_energy": 15.22, 
			 "SMD_solvation_energy": 9.12 
		},
		"coords": [
			{
				"x": 5.7062935643,
				"y": 2.3587984501,
				"z": 5.260895832,
				"element": "C" 
			},
			{
				"x": 5.33041407,
				"y": 3.724319413,
				"z": 4.719526387,
				"element": "C" 
			},
			{
				"x": 5.8851267001,
				"y": 4.7457691721,
				"z": 5.0978569196,
				"element": "O" 
			},
			{
				"x": 4.3405153109,
				"y": 3.8136359842,
				"z": 3.751080488,
				"element": "N" 
			},
			{
				"x": 3.5492769337,
				"y": 2.8409752491,
				"z": 3.1078791151,
				"element": "C" 
			},
			{
				"x": 3.2373625497,
				"y": 3.0270911767,
				"z": 1.7484831316,
				"element": "C" 
			},
			{
				"x": 2.4332351073,
				"y": 2.124687512,
				"z": 1.069423537,
				"element": "C" 
			},
			{
				"x": 1.9098751863,
				"y": 0.9827316079,
				"z": 1.7100854507,
				"element": "C" 
			},
			{
				"x": 1.0674436858,
				"y": -0.0121907063,
				"z": 1.0464003435,
				"element": "C" 
			},
			{
				"x": 0.6804359237,
				"y": -0.0197763246,
				"z": -0.2468425991,
				"element": "C" 
			},
			{
				"x": -0.1612683461,
				"y": -1.01517429,
				"z": -0.9107291965,
				"element": "C" 
			},
			{
				"x": -0.7237280169,
				"y": -2.1317089627,
				"z": -0.2584998438,
				"element": "C" 
			},
			{
				"x": -1.5040593335,
				"y": -3.0495945709,
				"z": -0.9445168083,
				"element": "C" 
			},
			{
				"x": -1.7733599465,
				"y": -2.8912354136,
				"z": -2.3164909531,
				"element": "C" 
			},
			{
				"x": -2.6044332518,
				"y": -3.8381148203,
				"z": -2.9477527443,
				"element": "N" 
			},
			{
				"x": -2.5849025059,
				"y": -4.4043343136,
				"z": -4.2145368292,
				"element": "C" 
			},
			{
				"x": -1.4994460605,
				"y": -3.9879207589,
				"z": -5.1878805352,
				"element": "C" 
			},
			{
				"x": -3.4317400704,
				"y": -5.2361235503,
				"z": -4.506432798,
				"element": "O" 
			},
			{
				"x": -1.2477340918,
				"y": -1.7694070269,
				"z": -2.9725049386,
				"element": "C" 
			},
			{
				"x": -0.4478881455,
				"y": -0.8654879159,
				"z": -2.2796436684,
				"element": "C" 
			},
			{
				"x": 2.222557274,
				"y": 0.8160480274,
				"z": 3.0713151336,
				"element": "C" 
			},
			{
				"x": 3.0109432957,
				"y": 1.7273767351,
				"z": 3.7675936532,
				"element": "C" 
			},
			{
				"x": 5.0617286162,
				"y": 2.0947347918,
				"z": 6.1061146163,
				"element": "H" 
			},
			{
				"x": 6.7295643644,
				"y": 2.4299528749,
				"z": 5.6310641915,
				"element": "H" 
			},
			{
				"x": 5.6296790749,
				"y": 1.5664604251,
				"z": 4.5130961188,
				"element": "H" 
			},
			{
				"x": 4.2745397632,
				"y": 4.7576599172,
				"z": 3.3891086164,
				"element": "H" 
			},
			{
				"x": 3.6440126386,
				"y": 3.8885055048,
				"z": 1.2250236437,
				"element": "H" 
			},
			{
				"x": 2.2177861623,
				"y": 2.3077961727,
				"z": 0.0215449719,
				"element": "H" 
			},
			{
				"x": 0.7374968615,
				"y": -0.8211816446,
				"z": 1.6961239637,
				"element": "H" 
			},
			{
				"x": 1.0146887398,
				"y": 0.78641904,
				"z": -0.8978335978,
				"element": "H" 
			},
			{
				"x": -0.5422579165,
				"y": -2.2926830822,
				"z": 0.7993987159,
				"element": "H" 
			},
			{
				"x": -1.908821747,
				"y": -3.9122031941,
				"z": -0.4215565562,
				"element": "H" 
			},
			{
				"x": -3.2967025073,
				"y": -4.2897520456,
				"z": -2.3617959773,
				"element": "H" 
			},
			{
				"x": -1.8125959755,
				"y": -3.1013487647,
				"z": -5.7496064503,
				"element": "H" 
			},
			{
				"x": -0.5493249527,
				"y": -3.7633166264,
				"z": -4.6982751457,
				"element": "H" 
			},
			{
				"x": -1.3732625844,
				"y": -4.8056615345,
				"z": -5.8981936959,
				"element": "H" 
			},
			{
				"x": -1.4813774774,
				"y": -1.5855010888,
				"z": -4.0140106097,
				"element": "H" 
			},
			{
				"x": -0.0491348615,
				"y": -0.0048162138,
				"z": -2.8106237595,
				"element": "H" 
			},
			{
				"x": 1.818882624,
				"y": -0.0414598988,
				"z": 3.6036935707,
				"element": "H" 
			},
			{
				"x": 3.183479345,
				"y": 1.5831306932,
				"z": 4.8271183067,
				"element": "H" 
			}
		],
		 "valence_orbital": [ 
			{
				"type": "occ",
				"energy": -0.26603,
				"method": "rhf"
			},
			{
				"type": "occ",
				"energy": -0.2557,
				"method": "rhf"
			},
			{
				"type": "occ",
				"energy": -0.25553,
				"method": "rhf"
			},
			{
				"type": "occ",
				"energy": -0.23836,
				"method": "rhf"
			},
			{
				"type": "occ",
				"energy": -0.19965,
				"method": "rhf"
			},
			{
				"type": "unocc",
				"energy": -0.06193,
				"method": "rhf"
			},
			{
				"type": "unocc",
				"energy": -0.01644,
				"method": "rhf"
			},
			{
				"type": "unocc",
				"energy": -0.01533,
				"method": "rhf"
			},
			{
				"type": "unocc",
				"energy": -0.00766,
				"method": "rhf"
			},
			{
				"type": "unocc",
				"energy": 0.01941,
				"method": "rhf"
			}
		],
		"cosmo_sigma_profile": { 
			"-0.025": 0.0,
			"-0.024": 0.0,
			"-0.023": 0.0,
			"-0.022": 0.0,
			"-0.021": 0.0,
			"-0.02": 0.0,
			"-0.019": 0.0,
			"-0.018": 0.0,
			"-0.017": 0.0,
			"-0.016": 0.0,
			"-0.015": 0.00275653051471,
			"-0.014": 1.18020712952,
			"-0.013": 2.75526413377,
			"-0.012": 1.47896572516,
			"-0.011": 1.68179985081,
			"-0.01": 2.97960964493,
			"-0.009": 2.57581077951,
			"-0.008": 5.64034313278,
			"-0.007": 14.3454686661,
			"-0.006": 22.9659529923,
			"-0.005": 25.8434898683,
			"-0.004": 27.3932688658,
			"-0.003": 23.9510469108,
			"-0.002": 29.1273262511,
			"-0.001": 24.1633071607,
			"0.0": 19.0628060585,
			"0.001": 18.8231010488,
			"0.002": 19.7097690204,
			"0.003": 22.3777336689,
			"0.004": 28.8892644,
			"0.005": 23.2796907024,
			"0.006": 3.24200735656,
			"0.007": 2.89900383576,
			"0.008": 2.42356463111,
			"0.009": 2.50649519243,
			"0.01": 2.33418320347,
			"0.011": 3.26879573943,
			"0.012": 4.74121681757,
			"0.013": 10.0172024348,
			"0.014": 7.73369805198,
			"0.015": 1.09875941073,
			"0.016": 0.0,
			"0.017": 0.0,
			"0.018": 0.0,
			"0.019": 0.0,
			"0.02": 0.0,
			"0.021": 0.0,
			"0.022": 0.0,
			"0.023": 0.0,
			"0.024": 0.0,
			"0.025": 0.0
		}
	}
}
