{
	 "smiles": "OC(=O)CCC(=O)NC1=C(C(=O)NCC2CCCO2)C2=C(CCCC2)S1", 
	 "Tm": 425.15, 
	 "num_atms": 50, 
	 "gaussian": { 
		 "optdone": 1, 
		 "sigma_profile": "yes", 
		 "theory": "DFT", 
		 "functional": "B3LYP", 
		 "basiset": "6-31G**", 
		 "properties": { 
			 "R2extent": 12147.1805, 
			 "electric_dipole_moment_norm": 3.86954047272, 
			 "electric_quadrupole_moment_norm": 22.595843123, 
			 "total_energy": -1584.23675576, 
			 "HOMO_LUMO_gap": 0.1853, 
			 "cosmo_polarized_energy": -24.77, 
			 "cosmo_cavitation_energy": 51.89, 
			 "cosmo_dispersion_energy": -35.39, 
			 "cosmo_repulsion_energy": 2.68, 
			 "cosmo_total_nonelectrostatic_energy": 19.19, 
			 "SMD_solvation_energy": 8.45 
		},
		"coords": [
			{
				"x": -2.5076752572,
				"y": -0.3256703937,
				"z": 2.4449210563,
				"element": "O" 
			},
			{
				"x": -3.6579522291,
				"y": 0.1192634375,
				"z": 3.0314055018,
				"element": "C" 
			},
			{
				"x": -4.4166358504,
				"y": -0.6381238462,
				"z": 3.5890949306,
				"element": "O" 
			},
			{
				"x": -3.8577328967,
				"y": 1.6147811599,
				"z": 2.9125863472,
				"element": "C" 
			},
			{
				"x": -2.9661473817,
				"y": 2.333510939,
				"z": 1.8971877252,
				"element": "C" 
			},
			{
				"x": -1.5577114,
				"y": 2.5382337843,
				"z": 2.4485848396,
				"element": "C" 
			},
			{
				"x": -1.3387417108,
				"y": 2.6828478824,
				"z": 3.6419414423,
				"element": "O" 
			},
			{
				"x": -0.5133134911,
				"y": 2.5634328164,
				"z": 1.5421004183,
				"element": "N" 
			},
			{
				"x": -0.5581638154,
				"y": 2.4487675456,
				"z": 0.1405977349,
				"element": "C" 
			},
			{
				"x": 0.0226257562,
				"y": 1.478880634,
				"z": -0.6497137871,
				"element": "C" 
			},
			{
				"x": 0.8103822535,
				"y": 0.3025455914,
				"z": -0.1418416898,
				"element": "C" 
			},
			{
				"x": 1.7987979698,
				"y": -0.1111990192,
				"z": -0.7472541289,
				"element": "O" 
			},
			{
				"x": 0.379884208,
				"y": -0.2685704941,
				"z": 1.0208550094,
				"element": "N" 
			},
			{
				"x": 1.103619802,
				"y": -1.3737699548,
				"z": 1.6328249686,
				"element": "C" 
			},
			{
				"x": 0.6554584115,
				"y": -2.7470537421,
				"z": 1.1226636031,
				"element": "C" 
			},
			{
				"x": -0.7543071377,
				"y": -3.1963114779,
				"z": 1.5274405645,
				"element": "C" 
			},
			{
				"x": -0.6215251084,
				"y": -4.7249778386,
				"z": 1.4731018058,
				"element": "C" 
			},
			{
				"x": 0.8185308084,
				"y": -4.936355275,
				"z": 1.9708880627,
				"element": "C" 
			},
			{
				"x": 1.5319047295,
				"y": -3.7243420521,
				"z": 1.6939056185,
				"element": "O" 
			},
			{
				"x": -0.1211755901,
				"y": 1.7578120678,
				"z": -2.0603738195,
				"element": "C" 
			},
			{
				"x": -0.815852072,
				"y": 2.9141109728,
				"z": -2.305949074,
				"element": "C" 
			},
			{
				"x": -1.1801206467,
				"y": 3.4518115945,
				"z": -3.6645720802,
				"element": "C" 
			},
			{
				"x": -1.0090988161,
				"y": 2.356886367,
				"z": -4.7329611616,
				"element": "C" 
			},
			{
				"x": 0.3173822937,
				"y": 1.6090715762,
				"z": -4.5426860397,
				"element": "C" 
			},
			{
				"x": 0.3737472199,
				"y": 0.8809139969,
				"z": -3.1896705217,
				"element": "C" 
			},
			{
				"x": -1.2583874973,
				"y": 3.7312256153,
				"z": -0.830965213,
				"element": "S" 
			},
			{
				"x": -2.4855115693,
				"y": -1.2863052415,
				"z": 2.5955314695,
				"element": "H" 
			},
			{
				"x": -3.6723924977,
				"y": 2.0349813801,
				"z": 3.907645421,
				"element": "H" 
			},
			{
				"x": -4.9176849644,
				"y": 1.767299719,
				"z": 2.6925553882,
				"element": "H" 
			},
			{
				"x": -2.9436708462,
				"y": 1.8119507969,
				"z": 0.937981804,
				"element": "H" 
			},
			{
				"x": -3.3838963365,
				"y": 3.3285937914,
				"z": 1.7013391744,
				"element": "H" 
			},
			{
				"x": 0.3902339308,
				"y": 2.6957120651,
				"z": 1.9842335441,
				"element": "H" 
			},
			{
				"x": -0.481142056,
				"y": 0.0475437904,
				"z": 1.4447715519,
				"element": "H" 
			},
			{
				"x": 0.9739533637,
				"y": -1.3264125854,
				"z": 2.7194089606,
				"element": "H" 
			},
			{
				"x": 2.1647370023,
				"y": -1.2524989917,
				"z": 1.4056302804,
				"element": "H" 
			},
			{
				"x": 0.7508152265,
				"y": -2.7535793143,
				"z": 0.025493845,
				"element": "H" 
			},
			{
				"x": -0.957587026,
				"y": -2.8771571179,
				"z": 2.560477071,
				"element": "H" 
			},
			{
				"x": -1.5346479017,
				"y": -2.8017993486,
				"z": 0.8702696935,
				"element": "H" 
			},
			{
				"x": -0.7283423335,
				"y": -5.0738003462,
				"z": 0.4403271811,
				"element": "H" 
			},
			{
				"x": -1.3618937873,
				"y": -5.2503487261,
				"z": 2.0825143396,
				"element": "H" 
			},
			{
				"x": 1.317165865,
				"y": -5.7749938669,
				"z": 1.4702976166,
				"element": "H" 
			},
			{
				"x": 0.8473337274,
				"y": -5.1235311581,
				"z": 3.0532713907,
				"element": "H" 
			},
			{
				"x": -2.2089129978,
				"y": 3.8316342222,
				"z": -3.6662248644,
				"element": "H" 
			},
			{
				"x": -0.5370190962,
				"y": 4.3097510345,
				"z": -3.9075879731,
				"element": "H" 
			},
			{
				"x": -1.8421619093,
				"y": 1.6455793147,
				"z": -4.6599613473,
				"element": "H" 
			},
			{
				"x": -1.0622313061,
				"y": 2.8077692455,
				"z": -5.7300145989,
				"element": "H" 
			},
			{
				"x": 1.1457086356,
				"y": 2.3275804522,
				"z": -4.6036424686,
				"element": "H" 
			},
			{
				"x": 0.4686154632,
				"y": 0.8878574338,
				"z": -5.3532046943,
				"element": "H" 
			},
			{
				"x": -0.2414969002,
				"y": -0.0299084255,
				"z": -3.2328505738,
				"element": "H" 
			},
			{
				"x": 1.3874357616,
				"y": 0.5435599892,
				"z": -2.9645743245,
				"element": "H" 
			}
		],
		 "valence_orbital": [ 
			{
				"type": "occ",
				"energy": -0.26213,
				"method": "rhf"
			},
			{
				"type": "occ",
				"energy": -0.25754,
				"method": "rhf"
			},
			{
				"type": "occ",
				"energy": -0.24972,
				"method": "rhf"
			},
			{
				"type": "occ",
				"energy": -0.24231,
				"method": "rhf"
			},
			{
				"type": "occ",
				"energy": -0.22742,
				"method": "rhf"
			},
			{
				"type": "unocc",
				"energy": -0.04212,
				"method": "rhf"
			},
			{
				"type": "unocc",
				"energy": -0.00415,
				"method": "rhf"
			},
			{
				"type": "unocc",
				"energy": 0.00379,
				"method": "rhf"
			},
			{
				"type": "unocc",
				"energy": 0.01303,
				"method": "rhf"
			},
			{
				"type": "unocc",
				"energy": 0.01884,
				"method": "rhf"
			}
		],
		"cosmo_sigma_profile": { 
			"-0.025": 0.0,
			"-0.024": 0.0,
			"-0.023": 0.0,
			"-0.022": 0.0,
			"-0.021": 0.0,
			"-0.02": 0.0,
			"-0.019": 0.0,
			"-0.018": 0.0,
			"-0.017": 0.0,
			"-0.016": 0.0,
			"-0.015": 0.471142304205,
			"-0.014": 0.786401688429,
			"-0.013": 1.77428997212,
			"-0.012": 2.26103890394,
			"-0.011": 2.34010684878,
			"-0.01": 2.61679202093,
			"-0.009": 3.02466768437,
			"-0.008": 3.49110514081,
			"-0.007": 5.99914686653,
			"-0.006": 13.1086714137,
			"-0.005": 19.2074968233,
			"-0.004": 30.462723173,
			"-0.003": 50.9662767066,
			"-0.002": 54.2004492161,
			"-0.001": 46.6610100581,
			"0.0": 34.06120517,
			"0.001": 22.8461806042,
			"0.002": 16.8288660533,
			"0.003": 15.3293721631,
			"0.004": 13.4883469814,
			"0.005": 6.44539947313,
			"0.006": 6.6481638026,
			"0.007": 5.15849807068,
			"0.008": 5.97828519085,
			"0.009": 5.01683221344,
			"0.01": 5.93925420157,
			"0.011": 9.2124247356,
			"0.012": 11.3187021125,
			"0.013": 9.06410908174,
			"0.014": 3.57218749499,
			"0.015": 0.0,
			"0.016": 0.0,
			"0.017": 0.0,
			"0.018": 0.0,
			"0.019": 0.0,
			"0.02": 0.0,
			"0.021": 0.0,
			"0.022": 0.0,
			"0.023": 0.0,
			"0.024": 0.0,
			"0.025": 0.0
		}
	}
}
