{
	 "smiles": "CCCCOC1=C(OC)C=CC(=C1)C(N)=O", 
	 "Tm": 424.15, 
	 "num_atms": 33, 
	 "gaussian": { 
		 "optdone": 1, 
		 "sigma_profile": "yes", 
		 "theory": "DFT", 
		 "functional": "B3LYP", 
		 "basiset": "6-31G**", 
		 "properties": { 
			 "R2extent": 6283.8492, 
			 "electric_dipole_moment_norm": 4.17189725425, 
			 "electric_quadrupole_moment_norm": 24.73050759, 
			 "total_energy": -747.94811593, 
			 "HOMO_LUMO_gap": 0.19949, 
			 "cosmo_polarized_energy": -14.72, 
			 "cosmo_cavitation_energy": 36.43, 
			 "cosmo_dispersion_energy": -25.62, 
			 "cosmo_repulsion_energy": 2.06, 
			 "cosmo_total_nonelectrostatic_energy": 12.87, 
			 "SMD_solvation_energy": 7.64 
		},
		"coords": [
			{
				"x": -0.8680693929,
				"y": -3.9076296756,
				"z": 2.6860246,
				"element": "C" 
			},
			{
				"x": -1.2374419078,
				"y": -3.1296648407,
				"z": 1.4189460994,
				"element": "C" 
			},
			{
				"x": -0.4465411623,
				"y": -1.8234936268,
				"z": 1.269896579,
				"element": "C" 
			},
			{
				"x": -0.8140620983,
				"y": -1.0606788784,
				"z": 0.0060596126,
				"element": "C" 
			},
			{
				"x": -0.0401515967,
				"y": 0.1558309124,
				"z": -0.0209479247,
				"element": "O" 
			},
			{
				"x": -0.2749016922,
				"y": 0.9743261675,
				"z": -1.1027287821,
				"element": "C" 
			},
			{
				"x": 0.1624782016,
				"y": 0.6291920222,
				"z": -2.3971897089,
				"element": "C" 
			},
			{
				"x": 0.7873510386,
				"y": -0.568620401,
				"z": -2.6496443974,
				"element": "O" 
			},
			{
				"x": 2.1011095474,
				"y": -0.6975968107,
				"z": -2.0892792423,
				"element": "C" 
			},
			{
				"x": -0.0763470109,
				"y": 1.5040945108,
				"z": -3.4599982584,
				"element": "C" 
			},
			{
				"x": -0.7242975918,
				"y": 2.7170196962,
				"z": -3.2471505976,
				"element": "C" 
			},
			{
				"x": -1.1501354898,
				"y": 3.0750042556,
				"z": -1.9621787786,
				"element": "C" 
			},
			{
				"x": -0.9173472888,
				"y": 2.1942166072,
				"z": -0.8965387106,
				"element": "C" 
			},
			{
				"x": -1.8310486584,
				"y": 4.4033245866,
				"z": -1.802855391,
				"element": "C" 
			},
			{
				"x": -2.5181084321,
				"y": 4.6034173055,
				"z": -0.6272873474,
				"element": "N" 
			},
			{
				"x": -1.7637691493,
				"y": 5.2743557424,
				"z": -2.6620752135,
				"element": "O" 
			},
			{
				"x": 0.1939549168,
				"y": -4.1774549496,
				"z": 2.689498324,
				"element": "H" 
			},
			{
				"x": -1.4469784026,
				"y": -4.8330313984,
				"z": 2.768052652,
				"element": "H" 
			},
			{
				"x": -1.0605040727,
				"y": -3.3129561342,
				"z": 3.5860564407,
				"element": "H" 
			},
			{
				"x": -1.0661878639,
				"y": -3.7628362667,
				"z": 0.5380591416,
				"element": "H" 
			},
			{
				"x": -2.3128307487,
				"y": -2.9062611286,
				"z": 1.4281278313,
				"element": "H" 
			},
			{
				"x": -0.6226750042,
				"y": -1.1753265355,
				"z": 2.1375884492,
				"element": "H" 
			},
			{
				"x": 0.6296175804,
				"y": -2.038154042,
				"z": 1.2540044309,
				"element": "H" 
			},
			{
				"x": -1.8835220406,
				"y": -0.804295301,
				"z": 0.0024266992,
				"element": "H" 
			},
			{
				"x": -0.6038082058,
				"y": -1.653895409,
				"z": -0.8917426686,
				"element": "H" 
			},
			{
				"x": 2.7777493272,
				"y": 0.0527282631,
				"z": -2.5165872259,
				"element": "H" 
			},
			{
				"x": 2.451111846,
				"y": -1.6952473025,
				"z": -2.3613903187,
				"element": "H" 
			},
			{
				"x": 2.0820773834,
				"y": -0.5938959025,
				"z": -1.0004106574,
				"element": "H" 
			},
			{
				"x": 0.2636132574,
				"y": 1.2119029129,
				"z": -4.4485600057,
				"element": "H" 
			},
			{
				"x": -0.9004943687,
				"y": 3.411675714,
				"z": -4.0607905525,
				"element": "H" 
			},
			{
				"x": -1.1943922809,
				"y": 2.4421942291,
				"z": 0.1233039708,
				"element": "H" 
			},
			{
				"x": -3.0699029672,
				"y": 5.4485099596,
				"z": -0.5933986523,
				"element": "H" 
			},
			{
				"x": -2.8567456722,
				"y": 3.817945718,
				"z": -0.0942903968,
				"element": "H" 
			}
		],
		 "valence_orbital": [ 
			{
				"type": "occ",
				"energy": -0.27092,
				"method": "rhf"
			},
			{
				"type": "occ",
				"energy": -0.26771,
				"method": "rhf"
			},
			{
				"type": "occ",
				"energy": -0.25181,
				"method": "rhf"
			},
			{
				"type": "occ",
				"energy": -0.24678,
				"method": "rhf"
			},
			{
				"type": "occ",
				"energy": -0.23238,
				"method": "rhf"
			},
			{
				"type": "unocc",
				"energy": -0.03289,
				"method": "rhf"
			},
			{
				"type": "unocc",
				"energy": -0.00501,
				"method": "rhf"
			},
			{
				"type": "unocc",
				"energy": 0.06174,
				"method": "rhf"
			},
			{
				"type": "unocc",
				"energy": 0.07451,
				"method": "rhf"
			},
			{
				"type": "unocc",
				"energy": 0.08336,
				"method": "rhf"
			}
		],
		"cosmo_sigma_profile": { 
			"-0.025": 0.0,
			"-0.024": 0.0,
			"-0.023": 0.0,
			"-0.022": 0.0,
			"-0.021": 0.0,
			"-0.02": 0.0,
			"-0.019": 0.0,
			"-0.018": 0.0,
			"-0.017": 0.0,
			"-0.016": 0.0,
			"-0.015": 0.0308439467228,
			"-0.014": 1.17519803211,
			"-0.013": 2.47879501794,
			"-0.012": 2.61308201481,
			"-0.011": 2.52008465183,
			"-0.01": 2.23981541987,
			"-0.009": 2.254705935,
			"-0.008": 2.91842909554,
			"-0.007": 2.97226722087,
			"-0.006": 5.03788520653,
			"-0.005": 8.95987487421,
			"-0.004": 13.683747252,
			"-0.003": 29.7019428128,
			"-0.002": 35.9205316875,
			"-0.001": 33.881600726,
			"0.0": 29.6298064777,
			"0.001": 26.4492265343,
			"0.002": 17.2504542022,
			"0.003": 15.6865548767,
			"0.004": 11.1352389274,
			"0.005": 5.35712956856,
			"0.006": 4.68336048117,
			"0.007": 3.26806139353,
			"0.008": 4.17056282727,
			"0.009": 3.73898013016,
			"0.01": 3.18562341626,
			"0.011": 3.70609185327,
			"0.012": 2.76677912255,
			"0.013": 4.08354733208,
			"0.014": 4.14392089939,
			"0.015": 0.289898186663,
			"0.016": 0.0,
			"0.017": 0.0,
			"0.018": 0.0,
			"0.019": 0.0,
			"0.02": 0.0,
			"0.021": 0.0,
			"0.022": 0.0,
			"0.023": 0.0,
			"0.024": 0.0,
			"0.025": 0.0
		}
	}
}
