{
	 "smiles": "OC(=O)C1=CC2=CC3=C4N(CCC3)CCCC4=C2OC1=O", 
	 "Tm": 513.15, 
	 "num_atms": 36, 
	 "gaussian": { 
		 "optdone": 1, 
		 "sigma_profile": "yes", 
		 "theory": "DFT", 
		 "functional": "B3LYP", 
		 "basiset": "6-31G**", 
		 "properties": { 
			 "R2extent": 7785.3609, 
			 "electric_dipole_moment_norm": 11.6197584807, 
			 "electric_quadrupole_moment_norm": 29.3624439543, 
			 "total_energy": -974.444025142, 
			 "HOMO_LUMO_gap": 0.13169, 
			 "cosmo_polarized_energy": -18.49, 
			 "cosmo_cavitation_energy": 37.26, 
			 "cosmo_dispersion_energy": -28.11, 
			 "cosmo_repulsion_energy": 2.1, 
			 "cosmo_total_nonelectrostatic_energy": 11.25, 
			 "SMD_solvation_energy": 6.39 
		},
		"coords": [
			{
				"x": 3.757618299,
				"y": 2.0977087157,
				"z": -3.974613629,
				"element": "O" 
			},
			{
				"x": 2.4249779039,
				"y": 2.1774339886,
				"z": -4.0781544593,
				"element": "C" 
			},
			{
				"x": 1.8805243646,
				"y": 2.6679120723,
				"z": -5.0470325097,
				"element": "O" 
			},
			{
				"x": 1.631114504,
				"y": 1.6262736244,
				"z": -2.9281641155,
				"element": "C" 
			},
			{
				"x": 0.2634412001,
				"y": 1.6777588463,
				"z": -2.9753790626,
				"element": "C" 
			},
			{
				"x": -0.5369752519,
				"y": 1.1724076995,
				"z": -1.9195103096,
				"element": "C" 
			},
			{
				"x": -1.9469826705,
				"y": 1.1927888571,
				"z": -1.8985724737,
				"element": "C" 
			},
			{
				"x": -2.6730019824,
				"y": 0.6934863066,
				"z": -0.8380157753,
				"element": "C" 
			},
			{
				"x": -1.9810434065,
				"y": 0.1126420342,
				"z": 0.2774230117,
				"element": "C" 
			},
			{
				"x": -2.6934790046,
				"y": -0.4275052016,
				"z": 1.3297688105,
				"element": "N" 
			},
			{
				"x": -4.1424020971,
				"y": -0.262475494,
				"z": 1.425255791,
				"element": "C" 
			},
			{
				"x": -4.7985648375,
				"y": -0.308278827,
				"z": 0.0490860006,
				"element": "C" 
			},
			{
				"x": -4.1860376698,
				"y": 0.7738734208,
				"z": -0.8401511818,
				"element": "C" 
			},
			{
				"x": -2.0082969466,
				"y": -0.821245892,
				"z": 2.5595922891,
				"element": "C" 
			},
			{
				"x": -0.6680743256,
				"y": -1.481941858,
				"z": 2.2527334069,
				"element": "C" 
			},
			{
				"x": 0.2107794226,
				"y": -0.5291831873,
				"z": 1.4416709007,
				"element": "C" 
			},
			{
				"x": -0.5611341995,
				"y": 0.0722961069,
				"z": 0.2868771727,
				"element": "C" 
			},
			{
				"x": 0.1161995712,
				"y": 0.6056191158,
				"z": -0.8048895421,
				"element": "C" 
			},
			{
				"x": 1.4854814129,
				"y": 0.5601548053,
				"z": -0.7612965849,
				"element": "O" 
			},
			{
				"x": 2.2881836343,
				"y": 1.0418817182,
				"z": -1.7745178331,
				"element": "C" 
			},
			{
				"x": 3.4989396876,
				"y": 0.935050731,
				"z": -1.6118436639,
				"element": "O" 
			},
			{
				"x": 3.9840915161,
				"y": 1.6677934391,
				"z": -3.1146906616,
				"element": "H" 
			},
			{
				"x": -0.1955004746,
				"y": 2.1215162508,
				"z": -3.8551186846,
				"element": "H" 
			},
			{
				"x": -2.4722611921,
				"y": 1.6259681045,
				"z": -2.746347689,
				"element": "H" 
			},
			{
				"x": -4.3939749772,
				"y": 0.6859023867,
				"z": 1.9299090082,
				"element": "H" 
			},
			{
				"x": -4.5252202577,
				"y": -1.0701758266,
				"z": 2.0582690628,
				"element": "H" 
			},
			{
				"x": -5.87850435,
				"y": -0.1639791688,
				"z": 0.1542288954,
				"element": "H" 
			},
			{
				"x": -4.6391506306,
				"y": -1.2981004025,
				"z": -0.3940867137,
				"element": "H" 
			},
			{
				"x": -4.5597014457,
				"y": 0.6930866603,
				"z": -1.8663332,
				"element": "H" 
			},
			{
				"x": -4.5037784343,
				"y": 1.7605183941,
				"z": -0.4733743731,
				"element": "H" 
			},
			{
				"x": -1.8582661371,
				"y": 0.0523051185,
				"z": 3.2161842386,
				"element": "H" 
			},
			{
				"x": -2.6641352891,
				"y": -1.5149708569,
				"z": 3.0957241177,
				"element": "H" 
			},
			{
				"x": -0.1737053594,
				"y": -1.7620613797,
				"z": 3.1881982264,
				"element": "H" 
			},
			{
				"x": -0.8470432168,
				"y": -2.4037712161,
				"z": 1.687352146,
				"element": "H" 
			},
			{
				"x": 1.0975064373,
				"y": -1.045353063,
				"z": 1.0634608565,
				"element": "H" 
			},
			{
				"x": 0.5877762033,
				"y": 0.2734639768,
				"z": 2.0907585277,
				"element": "H" 
			}
		],
		 "valence_orbital": [ 
			{
				"type": "occ",
				"energy": -0.28794,
				"method": "rhf"
			},
			{
				"type": "occ",
				"energy": -0.27281,
				"method": "rhf"
			},
			{
				"type": "occ",
				"energy": -0.25423,
				"method": "rhf"
			},
			{
				"type": "occ",
				"energy": -0.24745,
				"method": "rhf"
			},
			{
				"type": "occ",
				"energy": -0.20829,
				"method": "rhf"
			},
			{
				"type": "unocc",
				"energy": -0.0766,
				"method": "rhf"
			},
			{
				"type": "unocc",
				"energy": -0.02123,
				"method": "rhf"
			},
			{
				"type": "unocc",
				"energy": -0.00099,
				"method": "rhf"
			},
			{
				"type": "unocc",
				"energy": 0.02758,
				"method": "rhf"
			},
			{
				"type": "unocc",
				"energy": 0.06268,
				"method": "rhf"
			}
		],
		"cosmo_sigma_profile": { 
			"-0.025": 0.0,
			"-0.024": 0.0,
			"-0.023": 0.0,
			"-0.022": 0.0,
			"-0.021": 0.0,
			"-0.02": 0.0,
			"-0.019": 0.0,
			"-0.018": 0.0,
			"-0.017": 0.0,
			"-0.016": 0.0,
			"-0.015": 0.0,
			"-0.014": 0.0,
			"-0.013": 0.0,
			"-0.012": 0.0,
			"-0.011": 0.0,
			"-0.01": 0.0,
			"-0.009": 0.0819577351886,
			"-0.008": 1.79001988067,
			"-0.007": 3.99904351414,
			"-0.006": 7.34260392685,
			"-0.005": 14.3774572542,
			"-0.004": 39.0380273301,
			"-0.003": 45.0057779604,
			"-0.002": 37.5247835825,
			"-0.001": 30.0245030684,
			"0.0": 23.3910166246,
			"0.001": 14.9825090903,
			"0.002": 14.9511888258,
			"0.003": 9.20765210481,
			"0.004": 5.18940721195,
			"0.005": 4.57933284342,
			"0.006": 4.42843370701,
			"0.007": 2.78940042835,
			"0.008": 4.70633148541,
			"0.009": 4.99140891886,
			"0.01": 5.89253911957,
			"0.011": 7.0117961818,
			"0.012": 7.98407679181,
			"0.013": 4.24495565058,
			"0.014": 1.46824655249,
			"0.015": 0.0619616888275,
			"0.016": 0.0,
			"0.017": 0.0,
			"0.018": 0.0,
			"0.019": 0.0,
			"0.02": 0.0,
			"0.021": 0.0,
			"0.022": 0.0,
			"0.023": 0.0,
			"0.024": 0.0,
			"0.025": 0.0
		}
	}
}
