{
	 "smiles": "CCCCCCCCCCCCCCCCCOC(=O)C1=CC=C(C=NC2=CC=C(Cl)C=C2)C(O)=C1", 
	 "Tm": 389.15, 
	 "num_atms": 80, 
	 "gaussian": { 
		 "optdone": 1, 
		 "sigma_profile": "yes", 
		 "theory": "DFT", 
		 "functional": "B3LYP", 
		 "basiset": "6-31G**", 
		 "properties": { 
			 "R2extent": 59635.8608, 
			 "electric_dipole_moment_norm": 5.15107651467, 
			 "electric_quadrupole_moment_norm": 40.277776023, 
			 "total_energy": -1948.48744659, 
			 "HOMO_LUMO_gap": 0.14011, 
			 "cosmo_polarized_energy": -15.71, 
			 "cosmo_cavitation_energy": 83.07, 
			 "cosmo_dispersion_energy": -56.05, 
			 "cosmo_repulsion_energy": 4.35, 
			 "cosmo_total_nonelectrostatic_energy": 31.36, 
			 "SMD_solvation_energy": 11.5 
		},
		"coords": [
			{
				"x": -0.5710597705,
				"y": 6.9377605299,
				"z": -1.7667864513,
				"element": "C" 
			},
			{
				"x": 0.7614804632,
				"y": 6.3705489673,
				"z": -2.2675730949,
				"element": "C" 
			},
			{
				"x": 0.9245531452,
				"y": 6.4823126068,
				"z": -3.7898376727,
				"element": "C" 
			},
			{
				"x": 2.2868900279,
				"y": 6.0103554691,
				"z": -4.328344432,
				"element": "C" 
			},
			{
				"x": 2.6238148326,
				"y": 4.5227905432,
				"z": -4.1161159681,
				"element": "C" 
			},
			{
				"x": 1.6811236507,
				"y": 3.5487179804,
				"z": -4.8387390533,
				"element": "C" 
			},
			{
				"x": 2.0346034388,
				"y": 2.0620452318,
				"z": -4.6568344011,
				"element": "C" 
			},
			{
				"x": 3.3473942005,
				"y": 1.6290407476,
				"z": -5.3279136699,
				"element": "C" 
			},
			{
				"x": 3.6132538146,
				"y": 0.113853132,
				"z": -5.2802767688,
				"element": "C" 
			},
			{
				"x": 3.8976071204,
				"y": -0.5068593338,
				"z": -3.8979188439,
				"element": "C" 
			},
			{
				"x": 5.2199936793,
				"y": -0.0494840984,
				"z": -3.235890029,
				"element": "C" 
			},
			{
				"x": 5.1323970198,
				"y": 1.1514372291,
				"z": -2.2644338508,
				"element": "C" 
			},
			{
				"x": 4.9203924433,
				"y": 0.7836987551,
				"z": -0.7844854147,
				"element": "C" 
			},
			{
				"x": 3.5954771382,
				"y": 0.085379723,
				"z": -0.4495518632,
				"element": "C" 
			},
			{
				"x": 3.422688938,
				"y": -0.1782226322,
				"z": 1.052634637,
				"element": "C" 
			},
			{
				"x": 2.0999926218,
				"y": -0.8776292715,
				"z": 1.393646267,
				"element": "C" 
			},
			{
				"x": 1.9538980072,
				"y": -1.1263214449,
				"z": 2.8912732071,
				"element": "C" 
			},
			{
				"x": 0.7461039245,
				"y": -1.8644778017,
				"z": 3.1938352507,
				"element": "O" 
			},
			{
				"x": -0.3835620481,
				"y": -1.1363416528,
				"z": 3.3506760062,
				"element": "C" 
			},
			{
				"x": -0.4246463243,
				"y": 0.0754052207,
				"z": 3.2575151501,
				"element": "O" 
			},
			{
				"x": -1.569676021,
				"y": -1.989128677,
				"z": 3.6560990058,
				"element": "C" 
			},
			{
				"x": -2.8063488585,
				"y": -1.3554692494,
				"z": 3.8516653908,
				"element": "C" 
			},
			{
				"x": -3.9293256437,
				"y": -2.1170612403,
				"z": 4.1364889245,
				"element": "C" 
			},
			{
				"x": -3.8583589529,
				"y": -3.5178132919,
				"z": 4.2366135737,
				"element": "C" 
			},
			{
				"x": -5.0450645224,
				"y": -4.3226716425,
				"z": 4.5402802209,
				"element": "C" 
			},
			{
				"x": -6.1908864986,
				"y": -3.779437155,
				"z": 4.7434254586,
				"element": "N" 
			},
			{
				"x": -7.3186842092,
				"y": -4.5824092973,
				"z": 4.9733251909,
				"element": "C" 
			},
			{
				"x": -7.5434270508,
				"y": -5.816975141,
				"z": 4.3369759373,
				"element": "C" 
			},
			{
				"x": -8.6988146282,
				"y": -6.5511288348,
				"z": 4.5952295049,
				"element": "C" 
			},
			{
				"x": -9.6380685609,
				"y": -6.0543305382,
				"z": 5.498599323,
				"element": "C" 
			},
			{
				"x": -11.0967042849,
				"y": -6.9797434676,
				"z": 5.8276443166,
				"element": "Cl" 
			},
			{
				"x": -9.4465708124,
				"y": -4.8241052779,
				"z": 6.1300309918,
				"element": "C" 
			},
			{
				"x": -8.2986480825,
				"y": -4.0892914965,
				"z": 5.8518473488,
				"element": "C" 
			},
			{
				"x": -2.6071208476,
				"y": -4.1420983394,
				"z": 4.0369760915,
				"element": "C" 
			},
			{
				"x": -2.5530920568,
				"y": -5.503200069,
				"z": 4.1351420335,
				"element": "O" 
			},
			{
				"x": -1.4734232663,
				"y": -3.380998411,
				"z": 3.7486163576,
				"element": "C" 
			},
			{
				"x": -0.6635500683,
				"y": 6.8461015775,
				"z": -0.6795892227,
				"element": "H" 
			},
			{
				"x": -0.6705987995,
				"y": 7.9992915711,
				"z": -2.0213042963,
				"element": "H" 
			},
			{
				"x": -1.4200939054,
				"y": 6.4109184463,
				"z": -2.2174693723,
				"element": "H" 
			},
			{
				"x": 1.591838511,
				"y": 6.8971193633,
				"z": -1.7766476726,
				"element": "H" 
			},
			{
				"x": 0.8439078774,
				"y": 5.3208086856,
				"z": -1.958450005,
				"element": "H" 
			},
			{
				"x": 0.1128412175,
				"y": 5.9293421363,
				"z": -4.281533097,
				"element": "H" 
			},
			{
				"x": 0.7852064024,
				"y": 7.5324997317,
				"z": -4.0813095364,
				"element": "H" 
			},
			{
				"x": 2.3341953071,
				"y": 6.2294936576,
				"z": -5.4039918579,
				"element": "H" 
			},
			{
				"x": 3.0757503478,
				"y": 6.6170911571,
				"z": -3.8626874611,
				"element": "H" 
			},
			{
				"x": 2.6275540071,
				"y": 4.2898651591,
				"z": -3.0423938095,
				"element": "H" 
			},
			{
				"x": 3.6523088334,
				"y": 4.3580245916,
				"z": -4.4605159278,
				"element": "H" 
			},
			{
				"x": 0.6552310906,
				"y": 3.7053802516,
				"z": -4.482631983,
				"element": "H" 
			},
			{
				"x": 1.6682548091,
				"y": 3.7882739686,
				"z": -5.9122622832,
				"element": "H" 
			},
			{
				"x": 2.0642686284,
				"y": 1.8313813654,
				"z": -3.5831166502,
				"element": "H" 
			},
			{
				"x": 1.2182845679,
				"y": 1.4539633628,
				"z": -5.0708251219,
				"element": "H" 
			},
			{
				"x": 3.3124343474,
				"y": 1.9365304911,
				"z": -6.3825016078,
				"element": "H" 
			},
			{
				"x": 4.1964938807,
				"y": 2.1678641293,
				"z": -4.8900407646,
				"element": "H" 
			},
			{
				"x": 2.749611033,
				"y": -0.4028979297,
				"z": -5.7220013729,
				"element": "H" 
			},
			{
				"x": 4.4656279046,
				"y": -0.1125896887,
				"z": -5.9357376737,
				"element": "H" 
			},
			{
				"x": 3.932208151,
				"y": -1.5951548946,
				"z": -4.0354738652,
				"element": "H" 
			},
			{
				"x": 3.0529559187,
				"y": -0.3225279379,
				"z": -3.2241895054,
				"element": "H" 
			},
			{
				"x": 5.9363335395,
				"y": 0.1861301997,
				"z": -4.0339576903,
				"element": "H" 
			},
			{
				"x": 5.6627977305,
				"y": -0.8949297961,
				"z": -2.6923235194,
				"element": "H" 
			},
			{
				"x": 6.0651336019,
				"y": 1.726035403,
				"z": -2.3274607787,
				"element": "H" 
			},
			{
				"x": 4.3382664868,
				"y": 1.8377525423,
				"z": -2.5829782868,
				"element": "H" 
			},
			{
				"x": 5.7532679219,
				"y": 0.1445801401,
				"z": -0.4565215306,
				"element": "H" 
			},
			{
				"x": 4.992546213,
				"y": 1.7020549906,
				"z": -0.1852801061,
				"element": "H" 
			},
			{
				"x": 3.5266220611,
				"y": -0.8682733399,
				"z": -0.9885943061,
				"element": "H" 
			},
			{
				"x": 2.7568601254,
				"y": 0.7003734928,
				"z": -0.8056597739,
				"element": "H" 
			},
			{
				"x": 4.2644338558,
				"y": -0.7877920285,
				"z": 1.4118661559,
				"element": "H" 
			},
			{
				"x": 3.482476285,
				"y": 0.7747615612,
				"z": 1.5965737384,
				"element": "H" 
			},
			{
				"x": 2.0353247131,
				"y": -1.8374822072,
				"z": 0.8655791823,
				"element": "H" 
			},
			{
				"x": 1.2565292397,
				"y": -0.2648177585,
				"z": 1.0564321524,
				"element": "H" 
			},
			{
				"x": 1.9390958325,
				"y": -0.1842925664,
				"z": 3.4453470357,
				"element": "H" 
			},
			{
				"x": 2.762489482,
				"y": -1.7576379955,
				"z": 3.2699286507,
				"element": "H" 
			},
			{
				"x": -2.857555609,
				"y": -0.2756120861,
				"z": 3.7747889065,
				"element": "H" 
			},
			{
				"x": -4.8970937177,
				"y": -1.6528189107,
				"z": 4.2922950104,
				"element": "H" 
			},
			{
				"x": -4.8929162395,
				"y": -5.4058534932,
				"z": 4.5973678826,
				"element": "H" 
			},
			{
				"x": -6.8272061905,
				"y": -6.1882839861,
				"z": 3.6106478611,
				"element": "H" 
			},
			{
				"x": -8.8750553783,
				"y": -7.4968038207,
				"z": 4.0943125626,
				"element": "H" 
			},
			{
				"x": -10.1924202031,
				"y": -4.4457648758,
				"z": 6.8203231517,
				"element": "H" 
			},
			{
				"x": -8.1333323633,
				"y": -3.1248768241,
				"z": 6.320903178,
				"element": "H" 
			},
			{
				"x": -1.6454002228,
				"y": -5.7972522756,
				"z": 3.9847740236,
				"element": "H" 
			},
			{
				"x": -0.5134092522,
				"y": -3.8642233323,
				"z": 3.5951709118,
				"element": "H" 
			}
		],
		 "valence_orbital": [ 
			{
				"type": "occ",
				"energy": -0.27793,
				"method": "rhf"
			},
			{
				"type": "occ",
				"energy": -0.26299,
				"method": "rhf"
			},
			{
				"type": "occ",
				"energy": -0.26005,
				"method": "rhf"
			},
			{
				"type": "occ",
				"energy": -0.24248,
				"method": "rhf"
			},
			{
				"type": "occ",
				"energy": -0.21897,
				"method": "rhf"
			},
			{
				"type": "unocc",
				"energy": -0.07886,
				"method": "rhf"
			},
			{
				"type": "unocc",
				"energy": -0.01876,
				"method": "rhf"
			},
			{
				"type": "unocc",
				"energy": -0.01179,
				"method": "rhf"
			},
			{
				"type": "unocc",
				"energy": -0.00386,
				"method": "rhf"
			},
			{
				"type": "unocc",
				"energy": 0.0231,
				"method": "rhf"
			}
		],
		"cosmo_sigma_profile": { 
			"-0.025": 0.0,
			"-0.024": 0.0,
			"-0.023": 0.0,
			"-0.022": 0.0,
			"-0.021": 0.0,
			"-0.02": 0.0,
			"-0.019": 0.310111845448,
			"-0.018": 1.1296876731,
			"-0.017": 1.42513536178,
			"-0.016": 0.971074832941,
			"-0.015": 1.05892544186,
			"-0.014": 0.764932474415,
			"-0.013": 0.813157405383,
			"-0.012": 1.09256695249,
			"-0.011": 1.34264313627,
			"-0.01": 0.766247876634,
			"-0.009": 1.08419484341,
			"-0.008": 1.46210514917,
			"-0.007": 7.45542147808,
			"-0.006": 11.1279504759,
			"-0.005": 15.7277539256,
			"-0.004": 17.3963136045,
			"-0.003": 24.8643949023,
			"-0.002": 63.2109564051,
			"-0.001": 113.908532498,
			"0.0": 113.914539099,
			"0.001": 104.555618159,
			"0.002": 64.7891588111,
			"0.003": 36.3025159785,
			"0.004": 23.0147726292,
			"0.005": 14.855467452,
			"0.006": 5.42050728006,
			"0.007": 4.25330885295,
			"0.008": 5.27748953802,
			"0.009": 2.48358888325,
			"0.01": 2.73240298554,
			"0.011": 3.0536463975,
			"0.012": 3.62697597536,
			"0.013": 0.0691630399802,
			"0.014": 0.0,
			"0.015": 0.0,
			"0.016": 0.0,
			"0.017": 0.0,
			"0.018": 0.0,
			"0.019": 0.0,
			"0.02": 0.0,
			"0.021": 0.0,
			"0.022": 0.0,
			"0.023": 0.0,
			"0.024": 0.0,
			"0.025": 0.0
		}
	}
}
