{
	 "smiles": "NC1=C(N=CC=C1)N1CCCC1", 
	 "Tm": 352.15, 
	 "num_atms": 25, 
	 "gaussian": { 
		 "optdone": 1, 
		 "sigma_profile": "yes", 
		 "theory": "DFT", 
		 "functional": "B3LYP", 
		 "basiset": "6-31G**", 
		 "properties": { 
			 "R2extent": 2511.5737, 
			 "electric_dipole_moment_norm": 2.19265040989, 
			 "electric_quadrupole_moment_norm": 7.93252657481, 
			 "total_energy": -515.046206616, 
			 "HOMO_LUMO_gap": 0.18828, 
			 "cosmo_polarized_energy": -8.94, 
			 "cosmo_cavitation_energy": 26.48, 
			 "cosmo_dispersion_energy": -19.95, 
			 "cosmo_repulsion_energy": 1.6, 
			 "cosmo_total_nonelectrostatic_energy": 8.13, 
			 "SMD_solvation_energy": 2.24 
		},
		"coords": [
			{
				"x": -2.239619306,
				"y": -1.2672619977,
				"z": 1.0785151307,
				"element": "N" 
			},
			{
				"x": -0.9194055732,
				"y": -1.3706941597,
				"z": 1.5268840273,
				"element": "C" 
			},
			{
				"x": 0.1532765672,
				"y": -1.2381599281,
				"z": 0.5999517772,
				"element": "C" 
			},
			{
				"x": 1.4289545592,
				"y": -1.3875208335,
				"z": 0.9533066741,
				"element": "N" 
			},
			{
				"x": 1.7232153709,
				"y": -1.6261860097,
				"z": 2.2408823641,
				"element": "C" 
			},
			{
				"x": 0.7534564462,
				"y": -1.7096560942,
				"z": 3.2326399036,
				"element": "C" 
			},
			{
				"x": -0.5888198314,
				"y": -1.5882064787,
				"z": 2.8638051307,
				"element": "C" 
			},
			{
				"x": -0.1585102647,
				"y": -1.0064610187,
				"z": -0.7572192778,
				"element": "N" 
			},
			{
				"x": -0.7239136885,
				"y": 0.3143107069,
				"z": -1.1112229898,
				"element": "C" 
			},
			{
				"x": -0.8215418176,
				"y": 0.2546767026,
				"z": -2.6460286828,
				"element": "C" 
			},
			{
				"x": 0.2615888074,
				"y": -0.7805564303,
				"z": -3.0678234215,
				"element": "C" 
			},
			{
				"x": 0.9033355872,
				"y": -1.2404551917,
				"z": -1.7449566148,
				"element": "C" 
			},
			{
				"x": -2.9170490224,
				"y": -1.7018647563,
				"z": 1.6925640897,
				"element": "H" 
			},
			{
				"x": -2.3365170111,
				"y": -1.5915972131,
				"z": 0.121612412,
				"element": "H" 
			},
			{
				"x": 2.7780907437,
				"y": -1.7488259591,
				"z": 2.4775393068,
				"element": "H" 
			},
			{
				"x": 1.0314272774,
				"y": -1.8886500615,
				"z": 4.2664736335,
				"element": "H" 
			},
			{
				"x": -1.3793098082,
				"y": -1.6891307857,
				"z": 3.6041131916,
				"element": "H" 
			},
			{
				"x": -1.681039972,
				"y": 0.4804497087,
				"z": -0.6122760838,
				"element": "H" 
			},
			{
				"x": -0.0376472302,
				"y": 1.119506611,
				"z": -0.7988543305,
				"element": "H" 
			},
			{
				"x": -0.6588169437,
				"y": 1.2403015819,
				"z": -3.0909085002,
				"element": "H" 
			},
			{
				"x": -1.8156405204,
				"y": -0.0812445542,
				"z": -2.9561050075,
				"element": "H" 
			},
			{
				"x": 1.0086733741,
				"y": -0.3530152522,
				"z": -3.7423196027,
				"element": "H" 
			},
			{
				"x": -0.1999186818,
				"y": -1.6251844421,
				"z": -3.5875011151,
				"element": "H" 
			},
			{
				"x": 1.2011663112,
				"y": -2.2922495991,
				"z": -1.7394443668,
				"element": "H" 
			},
			{
				"x": 1.7989646267,
				"y": -0.6470245454,
				"z": -1.510027648,
				"element": "H" 
			}
		],
		 "valence_orbital": [ 
			{
				"type": "occ",
				"energy": -0.31667,
				"method": "rhf"
			},
			{
				"type": "occ",
				"energy": -0.27287,
				"method": "rhf"
			},
			{
				"type": "occ",
				"energy": -0.2443,
				"method": "rhf"
			},
			{
				"type": "occ",
				"energy": -0.23175,
				"method": "rhf"
			},
			{
				"type": "occ",
				"energy": -0.19164,
				"method": "rhf"
			},
			{
				"type": "unocc",
				"energy": -0.00336,
				"method": "rhf"
			},
			{
				"type": "unocc",
				"energy": 0.01637,
				"method": "rhf"
			},
			{
				"type": "unocc",
				"energy": 0.07949,
				"method": "rhf"
			},
			{
				"type": "unocc",
				"energy": 0.09766,
				"method": "rhf"
			},
			{
				"type": "unocc",
				"energy": 0.11129,
				"method": "rhf"
			}
		],
		"cosmo_sigma_profile": { 
			"-0.025": 0.0,
			"-0.024": 0.0,
			"-0.023": 0.0,
			"-0.022": 0.0,
			"-0.021": 0.0,
			"-0.02": 0.0,
			"-0.019": 0.0,
			"-0.018": 0.0,
			"-0.017": 0.0,
			"-0.016": 0.0,
			"-0.015": 0.0,
			"-0.014": 0.0,
			"-0.013": 0.23325200338,
			"-0.012": 1.40418540603,
			"-0.011": 1.53052288887,
			"-0.01": 2.41476730148,
			"-0.009": 2.4922449736,
			"-0.008": 3.20040192262,
			"-0.007": 2.30496750192,
			"-0.006": 4.8693438388,
			"-0.005": 7.41918157273,
			"-0.004": 7.75083799956,
			"-0.003": 18.6410223857,
			"-0.002": 27.1796510979,
			"-0.001": 28.2518822505,
			"0.0": 21.0778179897,
			"0.001": 14.5936816734,
			"0.002": 8.83051856136,
			"0.003": 10.9182412488,
			"0.004": 11.6884461957,
			"0.005": 11.3411218852,
			"0.006": 5.46536914279,
			"0.007": 2.87205007813,
			"0.008": 2.63081662662,
			"0.009": 2.37138171133,
			"0.01": 2.31905514979,
			"0.011": 1.79990454201,
			"0.012": 1.58813918798,
			"0.013": 1.29577350578,
			"0.014": 0.908359249057,
			"0.015": 0.450667991193,
			"0.016": 0.0,
			"0.017": 0.0,
			"0.018": 0.0,
			"0.019": 0.0,
			"0.02": 0.0,
			"0.021": 0.0,
			"0.022": 0.0,
			"0.023": 0.0,
			"0.024": 0.0,
			"0.025": 0.0
		}
	}
}
