{
	 "smiles": "CCN(CC)CCNC1=CC=C(CO)C2=C1C(=O)C1=C(S2)C=CC=C1", 
	 "Tm": 374.15, 
	 "num_atms": 49, 
	 "gaussian": { 
		 "optdone": 1, 
		 "sigma_profile": "yes", 
		 "theory": "DFT", 
		 "functional": "B3LYP", 
		 "basiset": "6-31G**", 
		 "properties": { 
			 "R2extent": 11498.1883, 
			 "electric_dipole_moment_norm": 1.15539315387, 
			 "electric_quadrupole_moment_norm": 15.6399805099, 
			 "total_energy": -1434.73591842, 
			 "HOMO_LUMO_gap": 0.12549, 
			 "cosmo_polarized_energy": -14.04, 
			 "cosmo_cavitation_energy": 50.48, 
			 "cosmo_dispersion_energy": -34.74, 
			 "cosmo_repulsion_energy": 2.58, 
			 "cosmo_total_nonelectrostatic_energy": 18.31, 
			 "SMD_solvation_energy": 7.05 
		},
		"coords": [
			{
				"x": 1.8837677018,
				"y": 1.7877986344,
				"z": -0.9335967953,
				"element": "C" 
			},
			{
				"x": 2.6551923697,
				"y": 1.1402917265,
				"z": -2.084986118,
				"element": "C" 
			},
			{
				"x": 2.4578600991,
				"y": -0.3139935706,
				"z": -2.1489578393,
				"element": "N" 
			},
			{
				"x": 2.642148688,
				"y": -0.8643571452,
				"z": -3.4961432691,
				"element": "C" 
			},
			{
				"x": 1.4928992721,
				"y": -0.5382161078,
				"z": -4.4519590345,
				"element": "C" 
			},
			{
				"x": 3.257599626,
				"y": -1.0315428471,
				"z": -1.1567106398,
				"element": "C" 
			},
			{
				"x": 2.5447108746,
				"y": -2.2626710229,
				"z": -0.5670428136,
				"element": "C" 
			},
			{
				"x": 1.4082406321,
				"y": -1.925745678,
				"z": 0.2652601109,
				"element": "N" 
			},
			{
				"x": 0.0962021203,
				"y": -1.9104889722,
				"z": -0.0850130745,
				"element": "C" 
			},
			{
				"x": -0.3306434698,
				"y": -2.3447502752,
				"z": -1.3604253279,
				"element": "C" 
			},
			{
				"x": -1.6694829547,
				"y": -2.3881170432,
				"z": -1.6877108738,
				"element": "C" 
			},
			{
				"x": -2.674621229,
				"y": -1.9998274739,
				"z": -0.7937135023,
				"element": "C" 
			},
			{
				"x": -4.1291296092,
				"y": -2.0672446592,
				"z": -1.2336064537,
				"element": "C" 
			},
			{
				"x": -4.3406433982,
				"y": -2.9244878069,
				"z": -2.346840825,
				"element": "O" 
			},
			{
				"x": -2.2784049741,
				"y": -1.526694826,
				"z": 0.4657447276,
				"element": "C" 
			},
			{
				"x": -0.9094936728,
				"y": -1.4712845016,
				"z": 0.8683534828,
				"element": "C" 
			},
			{
				"x": -0.4926206427,
				"y": -0.9961537496,
				"z": 2.1929700638,
				"element": "C" 
			},
			{
				"x": 0.7101528533,
				"y": -0.944503216,
				"z": 2.5297212382,
				"element": "O" 
			},
			{
				"x": -1.4852575921,
				"y": -0.5577929779,
				"z": 3.2137684972,
				"element": "C" 
			},
			{
				"x": -2.8705325028,
				"y": -0.5145873549,
				"z": 3.0023376818,
				"element": "C" 
			},
			{
				"x": -3.6188287859,
				"y": -0.9682228712,
				"z": 1.4827528083,
				"element": "S" 
			},
			{
				"x": -3.7363686895,
				"y": -0.081278536,
				"z": 4.0221823607,
				"element": "C" 
			},
			{
				"x": -3.222497675,
				"y": 0.3060623761,
				"z": 5.251238408,
				"element": "C" 
			},
			{
				"x": -1.8396934175,
				"y": 0.2660252375,
				"z": 5.4800725957,
				"element": "C" 
			},
			{
				"x": -0.9897723307,
				"y": -0.1603066685,
				"z": 4.4719929852,
				"element": "C" 
			},
			{
				"x": 2.0588862909,
				"y": 2.868986179,
				"z": -0.9170347732,
				"element": "H" 
			},
			{
				"x": 2.1823974569,
				"y": 1.3884450438,
				"z": 0.0407977528,
				"element": "H" 
			},
			{
				"x": 0.8113783083,
				"y": 1.6072658002,
				"z": -1.0486221722,
				"element": "H" 
			},
			{
				"x": 3.7299467619,
				"y": 1.3978027828,
				"z": -2.0185029075,
				"element": "H" 
			},
			{
				"x": 2.2992703197,
				"y": 1.5723320098,
				"z": -3.0245446326,
				"element": "H" 
			},
			{
				"x": 2.7085696224,
				"y": -1.9544678862,
				"z": -3.4002191912,
				"element": "H" 
			},
			{
				"x": 3.606035145,
				"y": -0.5415526857,
				"z": -3.9377086867,
				"element": "H" 
			},
			{
				"x": 1.4146973147,
				"y": 0.5335387347,
				"z": -4.6580302991,
				"element": "H" 
			},
			{
				"x": 1.6450621134,
				"y": -1.0434203538,
				"z": -5.4116881446,
				"element": "H" 
			},
			{
				"x": 0.5401436747,
				"y": -0.8674285548,
				"z": -4.0276411547,
				"element": "H" 
			},
			{
				"x": 3.4833695566,
				"y": -0.3554344835,
				"z": -0.3263401355,
				"element": "H" 
			},
			{
				"x": 4.2347345359,
				"y": -1.3505657685,
				"z": -1.5680524586,
				"element": "H" 
			},
			{
				"x": 3.2664885028,
				"y": -2.8056261023,
				"z": 0.0571781523,
				"element": "H" 
			},
			{
				"x": 2.2479194529,
				"y": -2.9553858383,
				"z": -1.3588401728,
				"element": "H" 
			},
			{
				"x": 1.5773484292,
				"y": -1.5584168988,
				"z": 1.2030147387,
				"element": "H" 
			},
			{
				"x": 0.4026208066,
				"y": -2.6388459263,
				"z": -2.0985728619,
				"element": "H" 
			},
			{
				"x": -1.9734988027,
				"y": -2.7307012767,
				"z": -2.6719031703,
				"element": "H" 
			},
			{
				"x": -4.4832013416,
				"y": -1.0806665019,
				"z": -1.5585730822,
				"element": "H" 
			},
			{
				"x": -4.7690651953,
				"y": -2.3649249125,
				"z": -0.3881521948,
				"element": "H" 
			},
			{
				"x": -4.1048041281,
				"y": -3.8200807287,
				"z": -2.0695443483,
				"element": "H" 
			},
			{
				"x": -4.8072252066,
				"y": -0.0537614381,
				"z": 3.84173486,
				"element": "H" 
			},
			{
				"x": -3.8980951411,
				"y": 0.6383321446,
				"z": 6.034161011,
				"element": "H" 
			},
			{
				"x": -1.4364820764,
				"y": 0.5674616562,
				"z": 6.4419359227,
				"element": "H" 
			},
			{
				"x": 0.0834203067,
				"y": -0.2013956657,
				"z": 4.6163595551,
				"element": "H" 
			}
		],
		 "valence_orbital": [ 
			{
				"type": "occ",
				"energy": -0.2581,
				"method": "rhf"
			},
			{
				"type": "occ",
				"energy": -0.24693,
				"method": "rhf"
			},
			{
				"type": "occ",
				"energy": -0.22179,
				"method": "rhf"
			},
			{
				"type": "occ",
				"energy": -0.21129,
				"method": "rhf"
			},
			{
				"type": "occ",
				"energy": -0.18493,
				"method": "rhf"
			},
			{
				"type": "unocc",
				"energy": -0.05944,
				"method": "rhf"
			},
			{
				"type": "unocc",
				"energy": -0.02097,
				"method": "rhf"
			},
			{
				"type": "unocc",
				"energy": -0.00414,
				"method": "rhf"
			},
			{
				"type": "unocc",
				"energy": 0.01518,
				"method": "rhf"
			},
			{
				"type": "unocc",
				"energy": 0.03363,
				"method": "rhf"
			}
		],
		"cosmo_sigma_profile": { 
			"-0.025": 0.0,
			"-0.024": 0.0,
			"-0.023": 0.0,
			"-0.022": 0.0,
			"-0.021": 0.0,
			"-0.02": 0.0,
			"-0.019": 0.0,
			"-0.018": 0.0,
			"-0.017": 0.0,
			"-0.016": 0.401791698479,
			"-0.015": 0.954179606782,
			"-0.014": 0.639046769613,
			"-0.013": 0.933948686318,
			"-0.012": 0.964053293136,
			"-0.011": 0.623917561008,
			"-0.01": 0.790029198312,
			"-0.009": 0.947946811998,
			"-0.008": 1.48435303167,
			"-0.007": 6.24913196222,
			"-0.006": 12.5101087337,
			"-0.005": 19.4952348857,
			"-0.004": 27.337845499,
			"-0.003": 30.770997014,
			"-0.002": 39.0160858944,
			"-0.001": 48.2046728771,
			"0.0": 41.7640660722,
			"0.001": 38.2942904156,
			"0.002": 33.1285882658,
			"0.003": 30.6198188672,
			"0.004": 24.1274756939,
			"0.005": 10.4536830803,
			"0.006": 5.74838461921,
			"0.007": 3.47403404403,
			"0.008": 3.18444403599,
			"0.009": 4.01208144506,
			"0.01": 3.27275380852,
			"0.011": 4.46677385879,
			"0.012": 2.67645835871,
			"0.013": 2.18512982109,
			"0.014": 1.35220011108,
			"0.015": 0.0,
			"0.016": 0.0,
			"0.017": 0.0,
			"0.018": 0.0,
			"0.019": 0.0,
			"0.02": 0.0,
			"0.021": 0.0,
			"0.022": 0.0,
			"0.023": 0.0,
			"0.024": 0.0,
			"0.025": 0.0
		}
	}
}
