{
	 "smiles": "OCCOC1=CC(=C(C=C1)[N+]([O-])=O)C(F)(F)F", 
	 "Tm": 336.15, 
	 "num_atms": 25, 
	 "gaussian": { 
		 "optdone": 1, 
		 "sigma_profile": "yes", 
		 "theory": "DFT", 
		 "functional": "B3LYP", 
		 "basiset": "6-31G**", 
		 "properties": { 
			 "R2extent": 5773.5617, 
			 "electric_dipole_moment_norm": 5.86820497341, 
			 "electric_quadrupole_moment_norm": 18.1208147115, 
			 "total_energy": -1002.8224897, 
			 "HOMO_LUMO_gap": 0.17208, 
			 "cosmo_polarized_energy": -15.25, 
			 "cosmo_cavitation_energy": 31.41, 
			 "cosmo_dispersion_energy": -22.48, 
			 "cosmo_repulsion_energy": 1.7, 
			 "cosmo_total_nonelectrostatic_energy": 10.63, 
			 "SMD_solvation_energy": 8.75 
		},
		"coords": [
			{
				"x": 4.27063199,
				"y": 1.8799195527,
				"z": 0.6818408521,
				"element": "O" 
			},
			{
				"x": 3.8966943582,
				"y": 0.9520380992,
				"z": 1.6792857524,
				"element": "C" 
			},
			{
				"x": 2.4061004444,
				"y": 0.6544083299,
				"z": 1.6504080061,
				"element": "C" 
			},
			{
				"x": 2.1455065406,
				"y": 0.0328209073,
				"z": 0.3824318826,
				"element": "O" 
			},
			{
				"x": 0.8753462634,
				"y": -0.2981917785,
				"z": 0.0510106961,
				"element": "C" 
			},
			{
				"x": 0.7179802261,
				"y": -0.9057336188,
				"z": -1.2060834496,
				"element": "C" 
			},
			{
				"x": -0.5302809589,
				"y": -1.2864639333,
				"z": -1.6811767776,
				"element": "C" 
			},
			{
				"x": -1.6505081692,
				"y": -1.0603473066,
				"z": -0.8526583589,
				"element": "C" 
			},
			{
				"x": -1.4947066236,
				"y": -0.4856685198,
				"z": 0.4054075454,
				"element": "C" 
			},
			{
				"x": -0.2423438529,
				"y": -0.0926431877,
				"z": 0.8665165222,
				"element": "C" 
			},
			{
				"x": -3.0298141862,
				"y": -1.3753312489,
				"z": -1.2527876306,
				"element": "N" 
			},
			{
				"x": -3.8474232078,
				"y": -1.5597069677,
				"z": -0.3496846685,
				"element": "O" 
			},
			{
				"x": -3.2899647634,
				"y": -1.4031405759,
				"z": -2.451794966,
				"element": "O" 
			},
			{
				"x": -0.5754996857,
				"y": -1.9689580447,
				"z": -3.0426958779,
				"element": "C" 
			},
			{
				"x": -1.3014733882,
				"y": -3.0995192682,
				"z": -3.0114033871,
				"element": "F" 
			},
			{
				"x": 0.6755020725,
				"y": -2.3233010038,
				"z": -3.42921164,
				"element": "F" 
			},
			{
				"x": -1.0580782529,
				"y": -1.1662518417,
				"z": -4.0026545015,
				"element": "F" 
			},
			{
				"x": 4.0299276471,
				"y": 1.4905449662,
				"z": -0.1697453711,
				"element": "H" 
			},
			{
				"x": 4.1482240275,
				"y": 1.4017623033,
				"z": 2.6451518261,
				"element": "H" 
			},
			{
				"x": 4.4535617155,
				"y": 0.006005528,
				"z": 1.5935975285,
				"element": "H" 
			},
			{
				"x": 1.8332379093,
				"y": 1.5864004559,
				"z": 1.7307964636,
				"element": "H" 
			},
			{
				"x": 2.1203434497,
				"y": -0.0209854273,
				"z": 2.4679261209,
				"element": "H" 
			},
			{
				"x": 1.6030749313,
				"y": -1.0876852099,
				"z": -1.8011210276,
				"element": "H" 
			},
			{
				"x": -2.3776816422,
				"y": -0.3472593456,
				"z": 1.0165933178,
				"element": "H" 
			},
			{
				"x": -0.1535568446,
				"y": 0.3632871359,
				"z": 1.8443511424,
				"element": "H" 
			}
		],
		 "valence_orbital": [ 
			{
				"type": "occ",
				"energy": -0.31133,
				"method": "rhf"
			},
			{
				"type": "occ",
				"energy": -0.29739,
				"method": "rhf"
			},
			{
				"type": "occ",
				"energy": -0.2958,
				"method": "rhf"
			},
			{
				"type": "occ",
				"energy": -0.28946,
				"method": "rhf"
			},
			{
				"type": "occ",
				"energy": -0.26318,
				"method": "rhf"
			},
			{
				"type": "unocc",
				"energy": -0.0911,
				"method": "rhf"
			},
			{
				"type": "unocc",
				"energy": -0.04955,
				"method": "rhf"
			},
			{
				"type": "unocc",
				"energy": -0.01062,
				"method": "rhf"
			},
			{
				"type": "unocc",
				"energy": 0.06446,
				"method": "rhf"
			},
			{
				"type": "unocc",
				"energy": 0.07044,
				"method": "rhf"
			}
		],
		"cosmo_sigma_profile": { 
			"-0.025": 0.0,
			"-0.024": 0.0,
			"-0.023": 0.0,
			"-0.022": 0.0,
			"-0.021": 0.0,
			"-0.02": 0.0,
			"-0.019": 0.0,
			"-0.018": 0.0,
			"-0.017": 0.0,
			"-0.016": 0.0,
			"-0.015": 0.0807630644364,
			"-0.014": 0.524138592616,
			"-0.013": 0.691484024059,
			"-0.012": 0.922365082633,
			"-0.011": 0.612615841235,
			"-0.01": 0.305950221691,
			"-0.009": 1.52666506129,
			"-0.008": 6.66287973316,
			"-0.007": 10.3463101857,
			"-0.006": 16.7234815382,
			"-0.005": 16.3990294758,
			"-0.004": 15.9624747044,
			"-0.003": 13.5141964992,
			"-0.002": 14.8266857926,
			"-0.001": 21.9026440841,
			"0.0": 21.0126051083,
			"0.001": 14.1740835144,
			"0.002": 24.2777490279,
			"0.003": 16.9853332797,
			"0.004": 6.45922655727,
			"0.005": 6.33531179312,
			"0.006": 6.29325169452,
			"0.007": 10.4546478492,
			"0.008": 8.26266454314,
			"0.009": 4.75424712108,
			"0.01": 3.67772836762,
			"0.011": 1.33718200864,
			"0.012": 1.48513930861,
			"0.013": 1.8145477055,
			"0.014": 2.11633791184,
			"0.015": 0.0532969119428,
			"0.016": 0.0,
			"0.017": 0.0,
			"0.018": 0.0,
			"0.019": 0.0,
			"0.02": 0.0,
			"0.021": 0.0,
			"0.022": 0.0,
			"0.023": 0.0,
			"0.024": 0.0,
			"0.025": 0.0
		}
	}
}
