{
	 "smiles": "FC(F)(F)C1=CC2=NC=CC(Cl)=C2C=C1", 
	 "Tm": 344.15, 
	 "num_atms": 20, 
	 "gaussian": { 
		 "optdone": 1, 
		 "sigma_profile": "yes", 
		 "theory": "DFT", 
		 "functional": "B3LYP", 
		 "basiset": "6-31G**", 
		 "properties": { 
			 "R2extent": 4210.1616, 
			 "electric_dipole_moment_norm": 2.51236856771, 
			 "electric_quadrupole_moment_norm": 4.25872135271, 
			 "total_energy": -1198.55457363, 
			 "HOMO_LUMO_gap": 0.17654, 
			 "cosmo_polarized_energy": -5.85, 
			 "cosmo_cavitation_energy": 27.78, 
			 "cosmo_dispersion_energy": -20.29, 
			 "cosmo_repulsion_energy": 1.49, 
			 "cosmo_total_nonelectrostatic_energy": 8.99, 
			 "SMD_solvation_energy": 4.02 
		},
		"coords": [
			{
				"x": 0.4656955094,
				"y": -0.0685420688,
				"z": 4.1136194837,
				"element": "F" 
			},
			{
				"x": -0.0711346769,
				"y": -0.9109484429,
				"z": 3.2011342543,
				"element": "C" 
			},
			{
				"x": 0.4033909037,
				"y": -2.1450944496,
				"z": 3.4877864154,
				"element": "F" 
			},
			{
				"x": -1.4033267286,
				"y": -0.9310161348,
				"z": 3.4004968479,
				"element": "F" 
			},
			{
				"x": 0.2972161933,
				"y": -0.4998637796,
				"z": 1.8004408969,
				"element": "C" 
			},
			{
				"x": -0.6682852473,
				"y": -0.1915258202,
				"z": 0.8722209069,
				"element": "C" 
			},
			{
				"x": -0.3032033092,
				"y": 0.1944934987,
				"z": -0.4452853976,
				"element": "C" 
			},
			{
				"x": -1.3074887252,
				"y": 0.4875181562,
				"z": -1.3192142279,
				"element": "N" 
			},
			{
				"x": -0.966925604,
				"y": 0.8449072489,
				"z": -2.5396154128,
				"element": "C" 
			},
			{
				"x": 0.3683994081,
				"y": 0.9441869805,
				"z": -3.0011098597,
				"element": "C" 
			},
			{
				"x": 1.3840864587,
				"y": 0.6498392536,
				"z": -2.1237005937,
				"element": "C" 
			},
			{
				"x": 3.046925336,
				"y": 0.7633180113,
				"z": -2.6646838415,
				"element": "Cl" 
			},
			{
				"x": 1.0882261434,
				"y": 0.2566938958,
				"z": -0.788883865,
				"element": "C" 
			},
			{
				"x": 2.0594629883,
				"y": -0.0684078938,
				"z": 0.1948019903,
				"element": "C" 
			},
			{
				"x": 1.6736107922,
				"y": -0.4381647884,
				"z": 1.4601229344,
				"element": "C" 
			},
			{
				"x": -1.7238390423,
				"y": -0.2323490258,
				"z": 1.1118559666,
				"element": "H" 
			},
			{
				"x": -1.7800571238,
				"y": 1.0758124838,
				"z": -3.2261256064,
				"element": "H" 
			},
			{
				"x": 0.5785831717,
				"y": 1.2449524962,
				"z": -4.0207876414,
				"element": "H" 
			},
			{
				"x": 3.1106879393,
				"y": -0.0213777718,
				"z": -0.064812372,
				"element": "H" 
			},
			{
				"x": 2.4198756132,
				"y": -0.6856318495,
				"z": 2.2078391216,
				"element": "H" 
			}
		],
		 "valence_orbital": [ 
			{
				"type": "occ",
				"energy": -0.33355,
				"method": "rhf"
			},
			{
				"type": "occ",
				"energy": -0.30484,
				"method": "rhf"
			},
			{
				"type": "occ",
				"energy": -0.27558,
				"method": "rhf"
			},
			{
				"type": "occ",
				"energy": -0.27554,
				"method": "rhf"
			},
			{
				"type": "occ",
				"energy": -0.25324,
				"method": "rhf"
			},
			{
				"type": "unocc",
				"energy": -0.0767,
				"method": "rhf"
			},
			{
				"type": "unocc",
				"energy": -0.04452,
				"method": "rhf"
			},
			{
				"type": "unocc",
				"energy": -0.00033,
				"method": "rhf"
			},
			{
				"type": "unocc",
				"energy": 0.01332,
				"method": "rhf"
			},
			{
				"type": "unocc",
				"energy": 0.05605,
				"method": "rhf"
			}
		],
		"cosmo_sigma_profile": { 
			"-0.025": 0.0,
			"-0.024": 0.0,
			"-0.023": 0.0,
			"-0.022": 0.0,
			"-0.021": 0.0,
			"-0.02": 0.0,
			"-0.019": 0.0,
			"-0.018": 0.0,
			"-0.017": 0.0,
			"-0.016": 0.0,
			"-0.015": 0.0,
			"-0.014": 0.0,
			"-0.013": 0.0,
			"-0.012": 0.0,
			"-0.011": 0.0,
			"-0.01": 0.0,
			"-0.009": 0.654029699023,
			"-0.008": 4.64773493465,
			"-0.007": 8.65317251793,
			"-0.006": 7.8771582231,
			"-0.005": 7.83352288261,
			"-0.004": 7.61929268015,
			"-0.003": 10.6696765056,
			"-0.002": 16.1439354048,
			"-0.001": 22.8653455057,
			"0.0": 32.8408301276,
			"0.001": 28.1670357318,
			"0.002": 30.6343024084,
			"0.003": 32.3767658146,
			"0.004": 5.32943632092,
			"0.005": 1.40850867066,
			"0.006": 1.59540210365,
			"0.007": 1.21357147261,
			"0.008": 0.72117628543,
			"0.009": 1.17524853293,
			"0.01": 0.742679553635,
			"0.011": 0.733580572374,
			"0.012": 1.04987696811,
			"0.013": 0.908540743946,
			"0.014": 0.561592216541,
			"0.015": 0.528655278326,
			"0.016": 0.0,
			"0.017": 0.0,
			"0.018": 0.0,
			"0.019": 0.0,
			"0.02": 0.0,
			"0.021": 0.0,
			"0.022": 0.0,
			"0.023": 0.0,
			"0.024": 0.0,
			"0.025": 0.0
		}
	}
}
