{
	 "smiles": "OC(=O)C1C(C(C1C1=CC=CC=C1)C(O)=O)C1=CC=CC=C1", 
	 "Tm": 501.15, 
	 "num_atms": 38, 
	 "gaussian": { 
		 "optdone": 1, 
		 "sigma_profile": "yes", 
		 "theory": "DFT", 
		 "functional": "B3LYP", 
		 "basiset": "6-31G**", 
		 "properties": { 
			 "R2extent": 7173.2412, 
			 "electric_dipole_moment_norm": 5.19476866857, 
			 "electric_quadrupole_moment_norm": 17.0927623095, 
			 "total_energy": -996.443650619, 
			 "HOMO_LUMO_gap": 0.20783, 
			 "cosmo_polarized_energy": -24.97, 
			 "cosmo_cavitation_energy": 41.16, 
			 "cosmo_dispersion_energy": -28.09, 
			 "cosmo_repulsion_energy": 2.15, 
			 "cosmo_total_nonelectrostatic_energy": 15.21, 
			 "SMD_solvation_energy": 8.45 
		},
		"coords": [
			{
				"x": -2.3879479299,
				"y": 0.3034323785,
				"z": -2.9762649232,
				"element": "O" 
			},
			{
				"x": -1.239681178,
				"y": 0.631859218,
				"z": -2.3349875285,
				"element": "C" 
			},
			{
				"x": -0.352072309,
				"y": 1.2569809726,
				"z": -2.8725333212,
				"element": "O" 
			},
			{
				"x": -1.2334693146,
				"y": 0.1534980367,
				"z": -0.8991845729,
				"element": "C" 
			},
			{
				"x": -0.3363346377,
				"y": -1.104424363,
				"z": -0.585442506,
				"element": "C" 
			},
			{
				"x": 0.7676159314,
				"y": -0.1623053725,
				"z": -0.0118510012,
				"element": "C" 
			},
			{
				"x": -0.2718051976,
				"y": 1.0224333774,
				"z": -0.0176452355,
				"element": "C" 
			},
			{
				"x": -0.7926482332,
				"y": 1.5079746583,
				"z": 1.3138347472,
				"element": "C" 
			},
			{
				"x": -1.1801881723,
				"y": 0.6308010978,
				"z": 2.3398550011,
				"element": "C" 
			},
			{
				"x": -1.6641833126,
				"y": 1.1172203034,
				"z": 3.5538318214,
				"element": "C" 
			},
			{
				"x": -1.7687205052,
				"y": 2.4932588848,
				"z": 3.7694790792,
				"element": "C" 
			},
			{
				"x": -1.3857846118,
				"y": 3.3773892128,
				"z": 2.7609339752,
				"element": "C" 
			},
			{
				"x": -0.902597986,
				"y": 2.8869134542,
				"z": 1.5464463006,
				"element": "C" 
			},
			{
				"x": 2.0145998947,
				"y": 0.1724064387,
				"z": -0.8197598738,
				"element": "C" 
			},
			{
				"x": 2.7322533603,
				"y": 1.2055990835,
				"z": -0.2867988634,
				"element": "O" 
			},
			{
				"x": 2.4071403888,
				"y": -0.376466315,
				"z": -1.8149689259,
				"element": "O" 
			},
			{
				"x": -0.1025477736,
				"y": -2.2364565433,
				"z": -1.56379891,
				"element": "C" 
			},
			{
				"x": 1.0661598695,
				"y": -3.0085757508,
				"z": -1.5037333368,
				"element": "C" 
			},
			{
				"x": 1.2223585709,
				"y": -4.1312562377,
				"z": -2.314449085,
				"element": "C" 
			},
			{
				"x": 0.2102536583,
				"y": -4.5090607169,
				"z": -3.1991540503,
				"element": "C" 
			},
			{
				"x": -0.9611065053,
				"y": -3.7556447614,
				"z": -3.2593418843,
				"element": "C" 
			},
			{
				"x": -1.118889749,
				"y": -2.6325492275,
				"z": -2.4440910872,
				"element": "C" 
			},
			{
				"x": -2.2866281494,
				"y": 0.619001308,
				"z": -3.8907797111,
				"element": "H" 
			},
			{
				"x": -2.2623155084,
				"y": 0.0690697575,
				"z": -0.5442464628,
				"element": "H" 
			},
			{
				"x": -0.8060315573,
				"y": -1.5601711476,
				"z": 0.2958960848,
				"element": "H" 
			},
			{
				"x": 1.103207211,
				"y": -0.446020099,
				"z": 0.993164518,
				"element": "H" 
			},
			{
				"x": 0.0941972012,
				"y": 1.8761637377,
				"z": -0.5925800158,
				"element": "H" 
			},
			{
				"x": -1.1051885481,
				"y": -0.4439832655,
				"z": 2.1959765233,
				"element": "H" 
			},
			{
				"x": -1.9586523878,
				"y": 0.4201890612,
				"z": 4.3332137549,
				"element": "H" 
			},
			{
				"x": -2.143716189,
				"y": 2.8711284723,
				"z": 4.7160231808,
				"element": "H" 
			},
			{
				"x": -1.4604077889,
				"y": 4.4497391758,
				"z": 2.9171635334,
				"element": "H" 
			},
			{
				"x": -0.6085566243,
				"y": 3.5830464925,
				"z": 0.7646735714,
				"element": "H" 
			},
			{
				"x": 2.2897319935,
				"y": 1.5554333757,
				"z": 0.5003213425,
				"element": "H" 
			},
			{
				"x": 1.869365626,
				"y": -2.7217086705,
				"z": -0.8345951094,
				"element": "H" 
			},
			{
				"x": 2.1413411269,
				"y": -4.7078245283,
				"z": -2.2588805437,
				"element": "H" 
			},
			{
				"x": 0.3351125409,
				"y": -5.3813985262,
				"z": -3.8342538646,
				"element": "H" 
			},
			{
				"x": -1.7593046046,
				"y": -4.0402974637,
				"z": -3.9394299851,
				"element": "H" 
			},
			{
				"x": -2.0411585998,
				"y": -2.0640955084,
				"z": -2.4994426365,
				"element": "H" 
			}
		],
		 "valence_orbital": [ 
			{
				"type": "occ",
				"energy": -0.27053,
				"method": "rhf"
			},
			{
				"type": "occ",
				"energy": -0.26431,
				"method": "rhf"
			},
			{
				"type": "occ",
				"energy": -0.25424,
				"method": "rhf"
			},
			{
				"type": "occ",
				"energy": -0.24168,
				"method": "rhf"
			},
			{
				"type": "occ",
				"energy": -0.23216,
				"method": "rhf"
			},
			{
				"type": "unocc",
				"energy": -0.02433,
				"method": "rhf"
			},
			{
				"type": "unocc",
				"energy": -0.01713,
				"method": "rhf"
			},
			{
				"type": "unocc",
				"energy": -0.00531,
				"method": "rhf"
			},
			{
				"type": "unocc",
				"energy": 0.00204,
				"method": "rhf"
			},
			{
				"type": "unocc",
				"energy": 0.00999,
				"method": "rhf"
			}
		],
		"cosmo_sigma_profile": { 
			"-0.025": 0.0,
			"-0.024": 0.0,
			"-0.023": 0.0,
			"-0.022": 0.0,
			"-0.021": 0.0,
			"-0.02": 0.0,
			"-0.019": 0.169557062418,
			"-0.018": 0.786924857875,
			"-0.017": 1.38126907372,
			"-0.016": 1.78163082854,
			"-0.015": 1.49247879086,
			"-0.014": 1.36385798319,
			"-0.013": 1.65181545054,
			"-0.012": 2.84647610625,
			"-0.011": 2.80953885913,
			"-0.01": 1.41674023093,
			"-0.009": 2.2977938093,
			"-0.008": 4.8535756886,
			"-0.007": 8.53153914541,
			"-0.006": 17.2548568058,
			"-0.005": 25.6886436253,
			"-0.004": 27.0287678479,
			"-0.003": 26.37108106,
			"-0.002": 19.2506846674,
			"-0.001": 16.1165021049,
			"0.0": 16.9992638787,
			"0.001": 15.8515450339,
			"0.002": 15.877959229,
			"0.003": 17.0684248395,
			"0.004": 17.8223131445,
			"0.005": 18.6729772116,
			"0.006": 15.9977573082,
			"0.007": 7.09973087961,
			"0.008": 5.78298673683,
			"0.009": 6.77762133864,
			"0.01": 8.58124776797,
			"0.011": 9.80008745128,
			"0.012": 6.30500554846,
			"0.013": 1.36072334522,
			"0.014": 0.00237378136799,
			"0.015": 0.0,
			"0.016": 0.0,
			"0.017": 0.0,
			"0.018": 0.0,
			"0.019": 0.0,
			"0.02": 0.0,
			"0.021": 0.0,
			"0.022": 0.0,
			"0.023": 0.0,
			"0.024": 0.0,
			"0.025": 0.0
		}
	}
}
