{
	 "smiles": "O=C1CCCCO1", 
	 "Tm": 260.15, 
	 "num_atms": 15, 
	 "gaussian": { 
		 "optdone": 1, 
		 "sigma_profile": "yes", 
		 "theory": "DFT", 
		 "functional": "B3LYP", 
		 "basiset": "6-31G**", 
		 "properties": { 
			 "R2extent": 1243.2103, 
			 "electric_dipole_moment_norm": 4.62828530992, 
			 "electric_quadrupole_moment_norm": 17.3438192066, 
			 "total_energy": -345.808415944, 
			 "HOMO_LUMO_gap": 0.26947, 
			 "cosmo_polarized_energy": -10.57, 
			 "cosmo_cavitation_energy": 17.4, 
			 "cosmo_dispersion_energy": -13.53, 
			 "cosmo_repulsion_energy": 1.16, 
			 "cosmo_total_nonelectrostatic_energy": 5.03, 
			 "SMD_solvation_energy": 3.82 
		},
		"coords": [
			{
				"x": 0.2368675949,
				"y": -2.3741780654,
				"z": -3.1785889079,
				"element": "O" 
			},
			{
				"x": 0.1948588618,
				"y": -1.7280947118,
				"z": -2.1594605608,
				"element": "C" 
			},
			{
				"x": 0.3941319375,
				"y": -2.3603535128,
				"z": -0.7854658614,
				"element": "C" 
			},
			{
				"x": 0.735651295,
				"y": -1.3869159252,
				"z": 0.3483153418,
				"element": "C" 
			},
			{
				"x": -0.1700046011,
				"y": -0.1595485766,
				"z": 0.2401444113,
				"element": "C" 
			},
			{
				"x": 0.0364393985,
				"y": 0.4939879352,
				"z": -1.1181871654,
				"element": "C" 
			},
			{
				"x": -0.1307567017,
				"y": -0.4091707314,
				"z": -2.2317431623,
				"element": "O" 
			},
			{
				"x": 1.1416111546,
				"y": -3.1485168731,
				"z": -0.9046208969,
				"element": "H" 
			},
			{
				"x": -0.5540180038,
				"y": -2.8688301384,
				"z": -0.5630797699,
				"element": "H" 
			},
			{
				"x": 0.6247186587,
				"y": -1.8828467145,
				"z": 1.3181327611,
				"element": "H" 
			},
			{
				"x": 1.7848867516,
				"y": -1.0729323706,
				"z": 0.2720019065,
				"element": "H" 
			},
			{
				"x": -1.221001505,
				"y": -0.452872449,
				"z": 0.3574738787,
				"element": "H" 
			},
			{
				"x": 0.0514067654,
				"y": 0.5759159169,
				"z": 1.0217691232,
				"element": "H" 
			},
			{
				"x": 1.0464399946,
				"y": 0.9204428757,
				"z": -1.1837018036,
				"element": "H" 
			},
			{
				"x": -0.680231601,
				"y": 1.2996133409,
				"z": -1.2974892944,
				"element": "H" 
			}
		],
		 "valence_orbital": [ 
			{
				"type": "occ",
				"energy": -0.3572,
				"method": "rhf"
			},
			{
				"type": "occ",
				"energy": -0.35326,
				"method": "rhf"
			},
			{
				"type": "occ",
				"energy": -0.3232,
				"method": "rhf"
			},
			{
				"type": "occ",
				"energy": -0.28684,
				"method": "rhf"
			},
			{
				"type": "occ",
				"energy": -0.25784,
				"method": "rhf"
			},
			{
				"type": "unocc",
				"energy": 0.01163,
				"method": "rhf"
			},
			{
				"type": "unocc",
				"energy": 0.07724,
				"method": "rhf"
			},
			{
				"type": "unocc",
				"energy": 0.10555,
				"method": "rhf"
			},
			{
				"type": "unocc",
				"energy": 0.11643,
				"method": "rhf"
			},
			{
				"type": "unocc",
				"energy": 0.12734,
				"method": "rhf"
			}
		],
		"cosmo_sigma_profile": { 
			"-0.025": 0.0,
			"-0.024": 0.0,
			"-0.023": 0.0,
			"-0.022": 0.0,
			"-0.021": 0.0,
			"-0.02": 0.0,
			"-0.019": 0.0,
			"-0.018": 0.0,
			"-0.017": 0.0,
			"-0.016": 0.0,
			"-0.015": 0.0,
			"-0.014": 0.0,
			"-0.013": 0.0,
			"-0.012": 0.0,
			"-0.011": 0.0,
			"-0.01": 0.0,
			"-0.009": 0.0,
			"-0.008": 0.0,
			"-0.007": 0.693394041122,
			"-0.006": 7.83112109736,
			"-0.005": 16.6137923598,
			"-0.004": 23.2229868876,
			"-0.003": 19.3014728197,
			"-0.002": 15.1094251581,
			"-0.001": 10.0464528598,
			"0.0": 5.28776811232,
			"0.001": 2.3488393696,
			"0.002": 1.83761325723,
			"0.003": 2.07385784883,
			"0.004": 1.60522713073,
			"0.005": 1.58431178995,
			"0.006": 2.48679871499,
			"0.007": 1.5864812722,
			"0.008": 2.55563041303,
			"0.009": 2.20928160376,
			"0.01": 2.86113578057,
			"0.011": 3.86419716855,
			"0.012": 6.05938369429,
			"0.013": 5.25607289525,
			"0.014": 1.45871047948,
			"0.015": 0.0136851517322,
			"0.016": 0.0,
			"0.017": 0.0,
			"0.018": 0.0,
			"0.019": 0.0,
			"0.02": 0.0,
			"0.021": 0.0,
			"0.022": 0.0,
			"0.023": 0.0,
			"0.024": 0.0,
			"0.025": 0.0
		}
	}
}
