{
	 "smiles": "CCOC1=CC=C(C=O)C=C1", 
	 "Tm": 286.95, 
	 "num_atms": 21, 
	 "gaussian": { 
		 "optdone": 1, 
		 "sigma_profile": "yes", 
		 "theory": "DFT", 
		 "functional": "B3LYP", 
		 "basiset": "6-31G**", 
		 "properties": { 
			 "R2extent": 2994.3144, 
			 "electric_dipole_moment_norm": 4.30018961094, 
			 "electric_quadrupole_moment_norm": 18.9135814845, 
			 "total_energy": -499.423008162, 
			 "HOMO_LUMO_gap": 0.18123, 
			 "cosmo_polarized_energy": -9.36, 
			 "cosmo_cavitation_energy": 25.22, 
			 "cosmo_dispersion_energy": -18.47, 
			 "cosmo_repulsion_energy": 1.49, 
			 "cosmo_total_nonelectrostatic_energy": 8.24, 
			 "SMD_solvation_energy": 5.81 
		},
		"coords": [
			{
				"x": -1.2645916648,
				"y": -2.6347953717,
				"z": 1.1992828454,
				"element": "C" 
			},
			{
				"x": -1.0005362766,
				"y": -1.3487801612,
				"z": 0.4369021239,
				"element": "C" 
			},
			{
				"x": 0.2700970873,
				"y": -0.8487652514,
				"z": 0.8654874605,
				"element": "O" 
			},
			{
				"x": 0.7441924389,
				"y": 0.3037890828,
				"z": 0.3300057826,
				"element": "C" 
			},
			{
				"x": 1.9991116805,
				"y": 0.7228985356,
				"z": 0.8070340246,
				"element": "C" 
			},
			{
				"x": 2.567405363,
				"y": 1.8890786743,
				"z": 0.3201909711,
				"element": "C" 
			},
			{
				"x": 1.9035957684,
				"y": 2.6615997553,
				"z": -0.6478443446,
				"element": "C" 
			},
			{
				"x": 2.5136373453,
				"y": 3.9002758668,
				"z": -1.1610317708,
				"element": "C" 
			},
			{
				"x": 2.0125931442,
				"y": 4.6307228212,
				"z": -1.9978725013,
				"element": "O" 
			},
			{
				"x": 0.6532809705,
				"y": 2.2356145765,
				"z": -1.1170844072,
				"element": "C" 
			},
			{
				"x": 0.0694626519,
				"y": 1.0681697325,
				"z": -0.6389805089,
				"element": "C" 
			},
			{
				"x": -1.2839540233,
				"y": -2.4476750532,
				"z": 2.2763870336,
				"element": "H" 
			},
			{
				"x": -0.4860147556,
				"y": -3.3736538971,
				"z": 0.9908502009,
				"element": "H" 
			},
			{
				"x": -2.2304326908,
				"y": -3.054430642,
				"z": 0.9020522861,
				"element": "H" 
			},
			{
				"x": -1.7805162566,
				"y": -0.6027731247,
				"z": 0.6414651615,
				"element": "H" 
			},
			{
				"x": -0.9811006392,
				"y": -1.5302774878,
				"z": -0.6463477709,
				"element": "H" 
			},
			{
				"x": 2.4963923376,
				"y": 0.1135979655,
				"z": 1.554223133,
				"element": "H" 
			},
			{
				"x": 3.538076046,
				"y": 2.2124167765,
				"z": 0.689750369,
				"element": "H" 
			},
			{
				"x": 3.5070728489,
				"y": 4.1413759094,
				"z": -0.7181193854,
				"element": "H" 
			},
			{
				"x": 0.1506863279,
				"y": 2.8413109498,
				"z": -1.865020449,
				"element": "H" 
			},
			{
				"x": -0.8975577035,
				"y": 0.7584003429,
				"z": -1.016130254,
				"element": "H" 
			}
		],
		 "valence_orbital": [ 
			{
				"type": "occ",
				"energy": -0.33453,
				"method": "rhf"
			},
			{
				"type": "occ",
				"energy": -0.32236,
				"method": "rhf"
			},
			{
				"type": "occ",
				"energy": -0.26497,
				"method": "rhf"
			},
			{
				"type": "occ",
				"energy": -0.24579,
				"method": "rhf"
			},
			{
				"type": "occ",
				"energy": -0.23187,
				"method": "rhf"
			},
			{
				"type": "unocc",
				"energy": -0.05064,
				"method": "rhf"
			},
			{
				"type": "unocc",
				"energy": -0.01179,
				"method": "rhf"
			},
			{
				"type": "unocc",
				"energy": 0.05233,
				"method": "rhf"
			},
			{
				"type": "unocc",
				"energy": 0.08836,
				"method": "rhf"
			},
			{
				"type": "unocc",
				"energy": 0.09397,
				"method": "rhf"
			}
		],
		"cosmo_sigma_profile": { 
			"-0.025": 0.0,
			"-0.024": 0.0,
			"-0.023": 0.0,
			"-0.022": 0.0,
			"-0.021": 0.0,
			"-0.02": 0.0,
			"-0.019": 0.0,
			"-0.018": 0.0,
			"-0.017": 0.0,
			"-0.016": 0.0,
			"-0.015": 0.0,
			"-0.014": 0.0,
			"-0.013": 0.0,
			"-0.012": 0.0,
			"-0.011": 0.0,
			"-0.01": 0.0,
			"-0.009": 0.0,
			"-0.008": 0.101771340663,
			"-0.007": 5.51481442756,
			"-0.006": 12.3200460572,
			"-0.005": 17.6047280204,
			"-0.004": 20.359809195,
			"-0.003": 17.5549929472,
			"-0.002": 15.9526739052,
			"-0.001": 13.9704083699,
			"0.0": 16.2493542885,
			"0.001": 12.5909851675,
			"0.002": 13.332157042,
			"0.003": 16.004464369,
			"0.004": 11.2460281701,
			"0.005": 3.6603283407,
			"0.006": 2.89305398204,
			"0.007": 2.39911243804,
			"0.008": 3.10770125182,
			"0.009": 3.18974263997,
			"0.01": 2.62174645985,
			"0.011": 2.88719777167,
			"0.012": 4.72365774939,
			"0.013": 1.81762189552,
			"0.014": 0.263586084587,
			"0.015": 0.0,
			"0.016": 0.0,
			"0.017": 0.0,
			"0.018": 0.0,
			"0.019": 0.0,
			"0.02": 0.0,
			"0.021": 0.0,
			"0.022": 0.0,
			"0.023": 0.0,
			"0.024": 0.0,
			"0.025": 0.0
		}
	}
}
