{
	 "smiles": "COC1=CC=C2NC=CC2=C1", 
	 "Tm": 328.65, 
	 "num_atms": 20, 
	 "gaussian": { 
		 "optdone": 1, 
		 "sigma_profile": "yes", 
		 "theory": "DFT", 
		 "functional": "B3LYP", 
		 "basiset": "6-31G**", 
		 "properties": { 
			 "R2extent": 2043.5049, 
			 "electric_dipole_moment_norm": 1.70426244751, 
			 "electric_quadrupole_moment_norm": 13.2997430347, 
			 "total_energy": -478.343822878, 
			 "HOMO_LUMO_gap": 0.18979, 
			 "cosmo_polarized_energy": -10.16, 
			 "cosmo_cavitation_energy": 23.46, 
			 "cosmo_dispersion_energy": -17.82, 
			 "cosmo_repulsion_energy": 1.42, 
			 "cosmo_total_nonelectrostatic_energy": 7.05, 
			 "SMD_solvation_energy": 4.74 
		},
		"coords": [
			{
				"x": 0.8425975057,
				"y": 2.27579502,
				"z": 3.6719228199,
				"element": "C" 
			},
			{
				"x": 0.9405473329,
				"y": 0.8934004013,
				"z": 3.3872469645,
				"element": "O" 
			},
			{
				"x": 0.5149099853,
				"y": 0.4603618402,
				"z": 2.1561060405,
				"element": "C" 
			},
			{
				"x": 0.6472179336,
				"y": -0.9348605039,
				"z": 1.9502515438,
				"element": "C" 
			},
			{
				"x": 0.2612552088,
				"y": -1.523818702,
				"z": 0.757661979,
				"element": "C" 
			},
			{
				"x": -0.2652405058,
				"y": -0.695987461,
				"z": -0.2412617057,
				"element": "C" 
			},
			{
				"x": -0.7271183443,
				"y": -0.9921445892,
				"z": -1.5110446943,
				"element": "N" 
			},
			{
				"x": -1.149996857,
				"y": 0.171632771,
				"z": -2.1212605294,
				"element": "C" 
			},
			{
				"x": -0.9710102453,
				"y": 1.2296144017,
				"z": -1.2661145691,
				"element": "C" 
			},
			{
				"x": -0.4062103719,
				"y": 0.7041978789,
				"z": -0.0550080355,
				"element": "C" 
			},
			{
				"x": -0.0075711273,
				"y": 1.2861082723,
				"z": 1.1665515867,
				"element": "C" 
			},
			{
				"x": 1.2277450886,
				"y": 2.4066893337,
				"z": 4.6848922599,
				"element": "H" 
			},
			{
				"x": -0.1976401162,
				"y": 2.6272356146,
				"z": 3.6341930259,
				"element": "H" 
			},
			{
				"x": 1.4437985761,
				"y": 2.8786381589,
				"z": 2.977548666,
				"element": "H" 
			},
			{
				"x": 1.0614884985,
				"y": -1.528082617,
				"z": 2.7584356108,
				"element": "H" 
			},
			{
				"x": 0.367319206,
				"y": -2.5951214909,
				"z": 0.6106620783,
				"element": "H" 
			},
			{
				"x": -0.7514070703,
				"y": -1.909169556,
				"z": -1.9248713962,
				"element": "H" 
			},
			{
				"x": -1.5481712079,
				"y": 0.1506642934,
				"z": -3.1257514812,
				"element": "H" 
			},
			{
				"x": -1.2137289632,
				"y": 2.2616598552,
				"z": -1.4761589939,
				"element": "H" 
			},
			{
				"x": -0.1122845264,
				"y": 2.3542870786,
				"z": 1.3155988297,
				"element": "H" 
			}
		],
		 "valence_orbital": [ 
			{
				"type": "occ",
				"energy": -0.31502,
				"method": "rhf"
			},
			{
				"type": "occ",
				"energy": -0.2874,
				"method": "rhf"
			},
			{
				"type": "occ",
				"energy": -0.26921,
				"method": "rhf"
			},
			{
				"type": "occ",
				"energy": -0.19912,
				"method": "rhf"
			},
			{
				"type": "occ",
				"energy": -0.19177,
				"method": "rhf"
			},
			{
				"type": "unocc",
				"energy": -0.00198,
				"method": "rhf"
			},
			{
				"type": "unocc",
				"energy": 0.04558,
				"method": "rhf"
			},
			{
				"type": "unocc",
				"energy": 0.0766,
				"method": "rhf"
			},
			{
				"type": "unocc",
				"energy": 0.08286,
				"method": "rhf"
			},
			{
				"type": "unocc",
				"energy": 0.10783,
				"method": "rhf"
			}
		],
		"cosmo_sigma_profile": { 
			"-0.025": 0.0,
			"-0.024": 0.0,
			"-0.023": 0.0,
			"-0.022": 0.0,
			"-0.021": 0.0,
			"-0.02": 0.0,
			"-0.019": 0.0,
			"-0.018": 0.0,
			"-0.017": 0.0,
			"-0.016": 0.187220821049,
			"-0.015": 1.33384269968,
			"-0.014": 1.4951235042,
			"-0.013": 1.64380511253,
			"-0.012": 0.564940302204,
			"-0.011": 1.02853514109,
			"-0.01": 1.8645190687,
			"-0.009": 1.14510062299,
			"-0.008": 2.44133489721,
			"-0.007": 3.89745850735,
			"-0.006": 6.28855494187,
			"-0.005": 14.952018713,
			"-0.004": 16.531111203,
			"-0.003": 16.5641000542,
			"-0.002": 13.0870133782,
			"-0.001": 10.4370828861,
			"0.0": 7.47478665803,
			"0.001": 8.47330245109,
			"0.002": 6.81908829347,
			"0.003": 8.51670353458,
			"0.004": 10.4594190569,
			"0.005": 14.8023517996,
			"0.006": 17.7567934139,
			"0.007": 12.8590158478,
			"0.008": 1.92843609037,
			"0.009": 0.753831984509,
			"0.01": 2.19143235531,
			"0.011": 1.59549105212,
			"0.012": 0.0627838988699,
			"0.013": 0.0,
			"0.014": 0.0,
			"0.015": 0.0,
			"0.016": 0.0,
			"0.017": 0.0,
			"0.018": 0.0,
			"0.019": 0.0,
			"0.02": 0.0,
			"0.021": 0.0,
			"0.022": 0.0,
			"0.023": 0.0,
			"0.024": 0.0,
			"0.025": 0.0
		}
	}
}
