{
	 "smiles": "NC1=CC(C#N)=C(Cl)C=C1", 
	 "Tm": 401.15, 
	 "num_atms": 15, 
	 "gaussian": { 
		 "optdone": 1, 
		 "sigma_profile": "yes", 
		 "theory": "DFT", 
		 "functional": "B3LYP", 
		 "basiset": "6-31G**", 
		 "properties": { 
			 "R2extent": 3069.6171, 
			 "electric_dipole_moment_norm": 6.64307666673, 
			 "electric_quadrupole_moment_norm": 13.961871102, 
			 "total_energy": -839.436736745, 
			 "HOMO_LUMO_gap": 0.1702, 
			 "cosmo_polarized_energy": -14.16, 
			 "cosmo_cavitation_energy": 22.3, 
			 "cosmo_dispersion_energy": -16.12, 
			 "cosmo_repulsion_energy": 1.32, 
			 "cosmo_total_nonelectrostatic_energy": 7.5, 
			 "SMD_solvation_energy": 4.87 
		},
		"coords": [
			{
				"x": 0.1884267865,
				"y": -0.7584542204,
				"z": 1.3654714946,
				"element": "N" 
			},
			{
				"x": 0.1428956973,
				"y": 0.4842559526,
				"z": 0.7469177076,
				"element": "C" 
			},
			{
				"x": -0.0312917251,
				"y": 0.5913095695,
				"z": -0.6398325871,
				"element": "C" 
			},
			{
				"x": -0.1348256789,
				"y": 1.8449243059,
				"z": -1.2622263626,
				"element": "C" 
			},
			{
				"x": -0.3081848326,
				"y": 1.8927920483,
				"z": -2.6840145854,
				"element": "C" 
			},
			{
				"x": -0.446742944,
				"y": 1.8883472665,
				"z": -3.8385580932,
				"element": "N" 
			},
			{
				"x": -0.0625881861,
				"y": 3.016218273,
				"z": -0.4874885177,
				"element": "C" 
			},
			{
				"x": -0.1845821678,
				"y": 4.5929563847,
				"z": -1.2329476432,
				"element": "Cl" 
			},
			{
				"x": 0.1106365286,
				"y": 2.915598621,
				"z": 0.8916575588,
				"element": "C" 
			},
			{
				"x": 0.2120701752,
				"y": 1.6705054291,
				"z": 1.5017071636,
				"element": "C" 
			},
			{
				"x": 0.4447291045,
				"y": -1.539478645,
				"z": 0.7787695002,
				"element": "H" 
			},
			{
				"x": 0.6348210129,
				"y": -0.7880456849,
				"z": 2.270798871,
				"element": "H" 
			},
			{
				"x": -0.0926658675,
				"y": -0.3017177434,
				"z": -1.2536870548,
				"element": "H" 
			},
			{
				"x": 0.1675861372,
				"y": 3.8196242845,
				"z": 1.4876260039,
				"element": "H" 
			},
			{
				"x": 0.3423159598,
				"y": 1.6135641585,
				"z": 2.5790065445,
				"element": "H" 
			}
		],
		 "valence_orbital": [ 
			{
				"type": "occ",
				"energy": -0.33316,
				"method": "rhf"
			},
			{
				"type": "occ",
				"energy": -0.31787,
				"method": "rhf"
			},
			{
				"type": "occ",
				"energy": -0.30666,
				"method": "rhf"
			},
			{
				"type": "occ",
				"energy": -0.27285,
				"method": "rhf"
			},
			{
				"type": "occ",
				"energy": -0.22498,
				"method": "rhf"
			},
			{
				"type": "unocc",
				"energy": -0.05478,
				"method": "rhf"
			},
			{
				"type": "unocc",
				"energy": -0.01714,
				"method": "rhf"
			},
			{
				"type": "unocc",
				"energy": 0.0205,
				"method": "rhf"
			},
			{
				"type": "unocc",
				"energy": 0.03639,
				"method": "rhf"
			},
			{
				"type": "unocc",
				"energy": 0.06183,
				"method": "rhf"
			}
		],
		"cosmo_sigma_profile": { 
			"-0.025": 0.0,
			"-0.024": 0.0,
			"-0.023": 0.0,
			"-0.022": 0.0,
			"-0.021": 0.0,
			"-0.02": 0.0,
			"-0.019": 0.0,
			"-0.018": 0.0,
			"-0.017": 0.0,
			"-0.016": 0.0,
			"-0.015": 0.0,
			"-0.014": 0.346586276338,
			"-0.013": 3.05384440013,
			"-0.012": 3.61618201337,
			"-0.011": 2.82135567492,
			"-0.01": 3.45672520469,
			"-0.009": 4.5343970516,
			"-0.008": 6.06748626897,
			"-0.007": 6.18437055936,
			"-0.006": 6.99170660022,
			"-0.005": 5.66905554434,
			"-0.004": 4.58109642248,
			"-0.003": 6.31127639317,
			"-0.002": 8.95830142001,
			"-0.001": 12.1038082295,
			"0.0": 13.4747006506,
			"0.001": 15.0274225196,
			"0.002": 19.3879045502,
			"0.003": 14.3965241016,
			"0.004": 12.6357873942,
			"0.005": 4.78629031727,
			"0.006": 4.0208775417,
			"0.007": 4.29380220601,
			"0.008": 3.877834345,
			"0.009": 3.88632299771,
			"0.01": 3.79800516287,
			"0.011": 3.42523574658,
			"0.012": 2.94287765184,
			"0.013": 1.2959309417,
			"0.014": 0.0,
			"0.015": 0.0,
			"0.016": 0.0,
			"0.017": 0.0,
			"0.018": 0.0,
			"0.019": 0.0,
			"0.02": 0.0,
			"0.021": 0.0,
			"0.022": 0.0,
			"0.023": 0.0,
			"0.024": 0.0,
			"0.025": 0.0
		}
	}
}
