{
	 "smiles": "ClC(Cl)C(Cl)(Cl)SN1C(=O)C2CC=CCC2C1=O", 
	 "Tm": 433.15, 
	 "num_atms": 27, 
	 "gaussian": { 
		 "optdone": 1, 
		 "sigma_profile": "yes", 
		 "theory": "DFT", 
		 "functional": "B3LYP", 
		 "basiset": "6-31G**", 
		 "properties": { 
			 "R2extent": 7344.5299, 
			 "electric_dipole_moment_norm": 3.0054245008, 
			 "electric_quadrupole_moment_norm": 16.4897009242, 
			 "total_energy": -2830.60357915, 
			 "HOMO_LUMO_gap": 0.21143, 
			 "cosmo_polarized_energy": -15.0, 
			 "cosmo_cavitation_energy": 37.71, 
			 "cosmo_dispersion_energy": -26.29, 
			 "cosmo_repulsion_energy": 1.97, 
			 "cosmo_total_nonelectrostatic_energy": 13.39, 
			 "SMD_solvation_energy": 5.34 
		},
		"coords": [
			{
				"x": 1.9181475308,
				"y": 0.8162871134,
				"z": 1.6690116773,
				"element": "Cl" 
			},
			{
				"x": 1.2012217731,
				"y": 0.5854705802,
				"z": 3.3005582899,
				"element": "C" 
			},
			{
				"x": 2.0804536554,
				"y": -0.6901788081,
				"z": 4.1889391463,
				"element": "Cl" 
			},
			{
				"x": -0.3389014627,
				"y": 0.3302481455,
				"z": 3.2590383627,
				"element": "C" 
			},
			{
				"x": -0.9127945746,
				"y": 0.3421035551,
				"z": 4.9804241809,
				"element": "Cl" 
			},
			{
				"x": -1.1016529448,
				"y": 1.7087632056,
				"z": 2.3859419758,
				"element": "Cl" 
			},
			{
				"x": -0.9545613632,
				"y": -1.321519584,
				"z": 2.6904799084,
				"element": "S" 
			},
			{
				"x": -0.7262099732,
				"y": -1.3360778994,
				"z": 0.9958128572,
				"element": "N" 
			},
			{
				"x": -1.7216885829,
				"y": -0.9092766899,
				"z": 0.0604346588,
				"element": "C" 
			},
			{
				"x": -2.8121523845,
				"y": -0.4899833975,
				"z": 0.3516318373,
				"element": "O" 
			},
			{
				"x": -1.0894149578,
				"y": -1.0389913402,
				"z": -1.3194612536,
				"element": "C" 
			},
			{
				"x": -0.5097100859,
				"y": 0.3449941475,
				"z": -1.7181325258,
				"element": "C" 
			},
			{
				"x": 0.6488173378,
				"y": 0.2446760312,
				"z": -2.6740243053,
				"element": "C" 
			},
			{
				"x": 1.4002757726,
				"y": -0.8478948254,
				"z": -2.8221611439,
				"element": "C" 
			},
			{
				"x": 1.1813740147,
				"y": -2.1423441527,
				"z": -2.0884558728,
				"element": "C" 
			},
			{
				"x": -0.0108705212,
				"y": -2.1255560778,
				"z": -1.1179546559,
				"element": "C" 
			},
			{
				"x": 0.3647341568,
				"y": -1.995541345,
				"z": 0.3579893422,
				"element": "C" 
			},
			{
				"x": 1.345700296,
				"y": -2.4156481303,
				"z": 0.9163779811,
				"element": "O" 
			},
			{
				"x": 1.3611468994,
				"y": 1.5195743662,
				"z": 3.8367969794,
				"element": "H" 
			},
			{
				"x": -1.8497154959,
				"y": -1.3396227749,
				"z": -2.0435081304,
				"element": "H" 
			},
			{
				"x": -0.1825077169,
				"y": 0.8874434199,
				"z": -0.8193367553,
				"element": "H" 
			},
			{
				"x": -1.3166007159,
				"y": 0.9495082253,
				"z": -2.1457473299,
				"element": "H" 
			},
			{
				"x": 0.8867306066,
				"y": 1.1414899146,
				"z": -3.2421075607,
				"element": "H" 
			},
			{
				"x": 2.2336659204,
				"y": -0.8328142742,
				"z": -3.5216684191,
				"element": "H" 
			},
			{
				"x": 1.0448348688,
				"y": -2.9467219223,
				"z": -2.8229647274,
				"element": "H" 
			},
			{
				"x": 2.0814974019,
				"y": -2.4148662982,
				"z": -1.5221653527,
				"element": "H" 
			},
			{
				"x": -0.5110194548,
				"y": -3.1031211845,
				"z": -1.1661491643,
				"element": "H" 
			}
		],
		 "valence_orbital": [ 
			{
				"type": "occ",
				"energy": -0.29751,
				"method": "rhf"
			},
			{
				"type": "occ",
				"energy": -0.29297,
				"method": "rhf"
			},
			{
				"type": "occ",
				"energy": -0.2807,
				"method": "rhf"
			},
			{
				"type": "occ",
				"energy": -0.26674,
				"method": "rhf"
			},
			{
				"type": "occ",
				"energy": -0.25717,
				"method": "rhf"
			},
			{
				"type": "unocc",
				"energy": -0.04574,
				"method": "rhf"
			},
			{
				"type": "unocc",
				"energy": -0.04355,
				"method": "rhf"
			},
			{
				"type": "unocc",
				"energy": -0.03145,
				"method": "rhf"
			},
			{
				"type": "unocc",
				"energy": -0.02897,
				"method": "rhf"
			},
			{
				"type": "unocc",
				"energy": -0.00777,
				"method": "rhf"
			}
		],
		"cosmo_sigma_profile": { 
			"-0.025": 0.0,
			"-0.024": 0.0,
			"-0.023": 0.0,
			"-0.022": 0.0,
			"-0.021": 0.0,
			"-0.02": 0.0,
			"-0.019": 0.0,
			"-0.018": 0.0,
			"-0.017": 0.0,
			"-0.016": 0.0,
			"-0.015": 0.0,
			"-0.014": 0.0,
			"-0.013": 0.332864323955,
			"-0.012": 1.60392954223,
			"-0.011": 2.01808505308,
			"-0.01": 3.24942084621,
			"-0.009": 3.93808112646,
			"-0.008": 5.60738515699,
			"-0.007": 8.14178921329,
			"-0.006": 6.93892834867,
			"-0.005": 16.1668724795,
			"-0.004": 21.8593906841,
			"-0.003": 24.3935904768,
			"-0.002": 28.3283139561,
			"-0.001": 25.9862400125,
			"0.0": 22.7700262651,
			"0.001": 24.3988606864,
			"0.002": 27.1053226929,
			"0.003": 25.8252245362,
			"0.004": 12.5776887197,
			"0.005": 7.45417584581,
			"0.006": 8.14164533653,
			"0.007": 5.54633709586,
			"0.008": 5.72272919979,
			"0.009": 6.04718045017,
			"0.01": 7.70814240811,
			"0.011": 6.52216908314,
			"0.012": 0.765478763462,
			"0.013": 0.0,
			"0.014": 0.0,
			"0.015": 0.0,
			"0.016": 0.0,
			"0.017": 0.0,
			"0.018": 0.0,
			"0.019": 0.0,
			"0.02": 0.0,
			"0.021": 0.0,
			"0.022": 0.0,
			"0.023": 0.0,
			"0.024": 0.0,
			"0.025": 0.0
		}
	}
}
