{
	 "smiles": "CC(C)(O)CC1=CC=CC=C1", 
	 "Tm": 297.15, 
	 "num_atms": 25, 
	 "gaussian": { 
		 "optdone": 1, 
		 "sigma_profile": "yes", 
		 "theory": "DFT", 
		 "functional": "B3LYP", 
		 "basiset": "6-31G**", 
		 "properties": { 
			 "R2extent": 2129.9168, 
			 "electric_dipole_moment_norm": 1.36888299354, 
			 "electric_quadrupole_moment_norm": 9.04156077732, 
			 "total_energy": -464.734841299, 
			 "HOMO_LUMO_gap": 0.23475, 
			 "cosmo_polarized_energy": -7.83, 
			 "cosmo_cavitation_energy": 26.82, 
			 "cosmo_dispersion_energy": -18.96, 
			 "cosmo_repulsion_energy": 1.51, 
			 "cosmo_total_nonelectrostatic_energy": 9.37, 
			 "SMD_solvation_energy": 4.44 
		},
		"coords": [
			{
				"x": 0.6875180547,
				"y": 2.6152700228,
				"z": 0.6539818041,
				"element": "C" 
			},
			{
				"x": 0.6460472788,
				"y": 2.058213544,
				"z": -0.7697730187,
				"element": "C" 
			},
			{
				"x": 2.0568233671,
				"y": 1.7104584384,
				"z": -1.2629278681,
				"element": "C" 
			},
			{
				"x": 0.1094560684,
				"y": 3.1274834687,
				"z": -1.5642146583,
				"element": "O" 
			},
			{
				"x": -0.3278118441,
				"y": 0.8471313982,
				"z": -0.8912406819,
				"element": "C" 
			},
			{
				"x": -0.0000690642,
				"y": -0.3853419639,
				"z": -0.0755451996,
				"element": "C" 
			},
			{
				"x": 0.8010558694,
				"y": -1.4105008174,
				"z": -0.6005686338,
				"element": "C" 
			},
			{
				"x": 1.1115599111,
				"y": -2.5423959699,
				"z": 0.1544781732,
				"element": "C" 
			},
			{
				"x": 0.6200233072,
				"y": -2.6743169357,
				"z": 1.4542762287,
				"element": "C" 
			},
			{
				"x": -0.1876652107,
				"y": -1.6685530087,
				"z": 1.9879651455,
				"element": "C" 
			},
			{
				"x": -0.4950856581,
				"y": -0.5389782795,
				"z": 1.2283665471,
				"element": "C" 
			},
			{
				"x": -0.3158595973,
				"y": 2.9117728841,
				"z": 0.9747749617,
				"element": "H" 
			},
			{
				"x": 1.0771672448,
				"y": 1.8749127268,
				"z": 1.3568750426,
				"element": "H" 
			},
			{
				"x": 1.3274363317,
				"y": 3.5017883918,
				"z": 0.6853860255,
				"element": "H" 
			},
			{
				"x": 2.6928727765,
				"y": 2.5995503429,
				"z": -1.2239415871,
				"element": "H" 
			},
			{
				"x": 2.5158158736,
				"y": 0.9244613135,
				"z": -0.6566354229,
				"element": "H" 
			},
			{
				"x": 2.0308069961,
				"y": 1.3574773815,
				"z": -2.3018937387,
				"element": "H" 
			},
			{
				"x": 0.107893151,
				"y": 2.8354309853,
				"z": -2.486030833,
				"element": "H" 
			},
			{
				"x": -1.3224283499,
				"y": 1.2194525254,
				"z": -0.622720999,
				"element": "H" 
			},
			{
				"x": -0.3725496384,
				"y": 0.5719350793,
				"z": -1.9541001719,
				"element": "H" 
			},
			{
				"x": 1.1791114808,
				"y": -1.3239176413,
				"z": -1.616290205,
				"element": "H" 
			},
			{
				"x": 1.7318611912,
				"y": -3.3240388129,
				"z": -0.2755131785,
				"element": "H" 
			},
			{
				"x": 0.8569623102,
				"y": -3.5562444545,
				"z": 2.0424400271,
				"element": "H" 
			},
			{
				"x": -0.5851429687,
				"y": -1.7656951299,
				"z": 2.9945275391,
				"element": "H" 
			},
			{
				"x": -1.1345988811,
				"y": 0.2328445109,
				"z": 1.648924702,
				"element": "H" 
			}
		],
		 "valence_orbital": [ 
			{
				"type": "occ",
				"energy": -0.33393,
				"method": "rhf"
			},
			{
				"type": "occ",
				"energy": -0.31268,
				"method": "rhf"
			},
			{
				"type": "occ",
				"energy": -0.26824,
				"method": "rhf"
			},
			{
				"type": "occ",
				"energy": -0.24814,
				"method": "rhf"
			},
			{
				"type": "occ",
				"energy": -0.23603,
				"method": "rhf"
			},
			{
				"type": "unocc",
				"energy": -0.00128,
				"method": "rhf"
			},
			{
				"type": "unocc",
				"energy": -0.00043,
				"method": "rhf"
			},
			{
				"type": "unocc",
				"energy": 0.07347,
				"method": "rhf"
			},
			{
				"type": "unocc",
				"energy": 0.08845,
				"method": "rhf"
			},
			{
				"type": "unocc",
				"energy": 0.11572,
				"method": "rhf"
			}
		],
		"cosmo_sigma_profile": { 
			"-0.025": 0.0,
			"-0.024": 0.0,
			"-0.023": 0.0,
			"-0.022": 0.0,
			"-0.021": 0.0,
			"-0.02": 0.0,
			"-0.019": 0.0,
			"-0.018": 0.0,
			"-0.017": 0.0,
			"-0.016": 0.0,
			"-0.015": 0.259412355764,
			"-0.014": 0.873651380858,
			"-0.013": 0.759029280461,
			"-0.012": 0.888420659944,
			"-0.011": 1.14348471733,
			"-0.01": 0.892670151886,
			"-0.009": 0.610064745311,
			"-0.008": 1.40578342542,
			"-0.007": 1.69716483018,
			"-0.006": 2.62585883222,
			"-0.005": 10.1938216308,
			"-0.004": 16.3948420149,
			"-0.003": 23.6098731004,
			"-0.002": 22.0857233194,
			"-0.001": 20.299115223,
			"0.0": 21.8238680654,
			"0.001": 22.1761031748,
			"0.002": 11.9807725794,
			"0.003": 8.96982611065,
			"0.004": 8.81589664932,
			"0.005": 8.77469442916,
			"0.006": 8.79655784975,
			"0.007": 3.92922714878,
			"0.008": 0.833712246415,
			"0.009": 1.1264772951,
			"0.01": 1.65466871877,
			"0.011": 1.42704716085,
			"0.012": 1.25938280356,
			"0.013": 0.896333260327,
			"0.014": 2.29060626574,
			"0.015": 0.946904202208,
			"0.016": 0.0,
			"0.017": 0.0,
			"0.018": 0.0,
			"0.019": 0.0,
			"0.02": 0.0,
			"0.021": 0.0,
			"0.022": 0.0,
			"0.023": 0.0,
			"0.024": 0.0,
			"0.025": 0.0
		}
	}
}
