{
	 "smiles": "COC1=CC=C(OC2=C(F)C=C(CCl)C=C2F)C=C1", 
	 "Tm": 336.15, 
	 "num_atms": 30, 
	 "gaussian": { 
		 "optdone": 1, 
		 "sigma_profile": "yes", 
		 "theory": "DFT", 
		 "functional": "B3LYP", 
		 "basiset": "6-31G**", 
		 "properties": { 
			 "R2extent": 8417.5231, 
			 "electric_dipole_moment_norm": 2.71312263269, 
			 "electric_quadrupole_moment_norm": 17.4859440792, 
			 "total_energy": -1350.3983107, 
			 "HOMO_LUMO_gap": 0.16745, 
			 "cosmo_polarized_energy": -11.45, 
			 "cosmo_cavitation_energy": 37.77, 
			 "cosmo_dispersion_energy": -26.55, 
			 "cosmo_repulsion_energy": 2.03, 
			 "cosmo_total_nonelectrostatic_energy": 13.25, 
			 "SMD_solvation_energy": 7.91 
		},
		"coords": [
			{
				"x": 5.2180389781,
				"y": -1.5626167788,
				"z": 3.0816840586,
				"element": "C" 
			},
			{
				"x": 4.7067536882,
				"y": -0.5515201264,
				"z": 2.2299679543,
				"element": "O" 
			},
			{
				"x": 3.5412987037,
				"y": -0.8023597401,
				"z": 1.5606153074,
				"element": "C" 
			},
			{
				"x": 3.0786085727,
				"y": 0.2307214557,
				"z": 0.7338800504,
				"element": "C" 
			},
			{
				"x": 1.9036895825,
				"y": 0.0836180795,
				"z": 0.0050364085,
				"element": "C" 
			},
			{
				"x": 1.1750147,
				"y": -1.1035311286,
				"z": 0.1073237025,
				"element": "C" 
			},
			{
				"x": 0.0161246659,
				"y": -1.3572441877,
				"z": -0.6230885432,
				"element": "O" 
			},
			{
				"x": -0.7393126256,
				"y": -0.3189474669,
				"z": -1.0848616422,
				"element": "C" 
			},
			{
				"x": -1.3394388327,
				"y": 0.6283983281,
				"z": -0.2451646677,
				"element": "C" 
			},
			{
				"x": -1.0852535375,
				"y": 0.5592404428,
				"z": 1.0723089552,
				"element": "F" 
			},
			{
				"x": -2.1687863082,
				"y": 1.6272683389,
				"z": -0.733327975,
				"element": "C" 
			},
			{
				"x": -2.4409503278,
				"y": 1.6913852888,
				"z": -2.1058737941,
				"element": "C" 
			},
			{
				"x": -3.3448392743,
				"y": 2.7576427515,
				"z": -2.647921076,
				"element": "C" 
			},
			{
				"x": -5.1058920673,
				"y": 2.2406428225,
				"z": -2.6618033889,
				"element": "Cl" 
			},
			{
				"x": -1.8650487629,
				"y": 0.7498097426,
				"z": -2.9665761689,
				"element": "C" 
			},
			{
				"x": -1.0268771619,
				"y": -0.229971724,
				"z": -2.4515239525,
				"element": "C" 
			},
			{
				"x": -0.4664410091,
				"y": -1.1257808633,
				"z": -3.278148544,
				"element": "F" 
			},
			{
				"x": 1.6251674553,
				"y": -2.1365536073,
				"z": 0.922008853,
				"element": "C" 
			},
			{
				"x": 2.8089306935,
				"y": -1.9922427138,
				"z": 1.6490019108,
				"element": "C" 
			},
			{
				"x": 6.1376065439,
				"y": -1.160788743,
				"z": 3.5101821034,
				"element": "H" 
			},
			{
				"x": 5.4513419736,
				"y": -2.4815850384,
				"z": 2.5277228919,
				"element": "H" 
			},
			{
				"x": 4.5183527668,
				"y": -1.8029590966,
				"z": 3.8931121084,
				"element": "H" 
			},
			{
				"x": 3.6603730289,
				"y": 1.1443909054,
				"z": 0.6716503143,
				"element": "H" 
			},
			{
				"x": 1.5618407617,
				"y": 0.8852959434,
				"z": -0.6408547394,
				"element": "H" 
			},
			{
				"x": -2.6069246757,
				"y": 2.3313563982,
				"z": -0.0340371549,
				"element": "H" 
			},
			{
				"x": -3.3135916536,
				"y": 3.6635663285,
				"z": -2.0428235161,
				"element": "H" 
			},
			{
				"x": -3.1065109892,
				"y": 3.0048663515,
				"z": -3.6822394261,
				"element": "H" 
			},
			{
				"x": -2.0566673156,
				"y": 0.7656451319,
				"z": -4.034127412,
				"element": "H" 
			},
			{
				"x": 1.0450304126,
				"y": -3.0512226215,
				"z": 0.9823477573,
				"element": "H" 
			},
			{
				"x": 3.141762014,
				"y": -2.809024473,
				"z": 2.2780296253,
				"element": "H" 
			}
		],
		 "valence_orbital": [ 
			{
				"type": "occ",
				"energy": -0.2995,
				"method": "rhf"
			},
			{
				"type": "occ",
				"energy": -0.25984,
				"method": "rhf"
			},
			{
				"type": "occ",
				"energy": -0.2576,
				"method": "rhf"
			},
			{
				"type": "occ",
				"energy": -0.25267,
				"method": "rhf"
			},
			{
				"type": "occ",
				"energy": -0.20814,
				"method": "rhf"
			},
			{
				"type": "unocc",
				"energy": -0.04069,
				"method": "rhf"
			},
			{
				"type": "unocc",
				"energy": -0.01575,
				"method": "rhf"
			},
			{
				"type": "unocc",
				"energy": -0.00592,
				"method": "rhf"
			},
			{
				"type": "unocc",
				"energy": 0.0171,
				"method": "rhf"
			},
			{
				"type": "unocc",
				"energy": 0.03683,
				"method": "rhf"
			}
		],
		"cosmo_sigma_profile": { 
			"-0.025": 0.0,
			"-0.024": 0.0,
			"-0.023": 0.0,
			"-0.022": 0.0,
			"-0.021": 0.0,
			"-0.02": 0.0,
			"-0.019": 0.0,
			"-0.018": 0.0,
			"-0.017": 0.0,
			"-0.016": 0.0,
			"-0.015": 0.0,
			"-0.014": 0.0,
			"-0.013": 0.0,
			"-0.012": 0.0,
			"-0.011": 0.0,
			"-0.01": 0.0,
			"-0.009": 1.91852804442,
			"-0.008": 9.64972434962,
			"-0.007": 9.79140464994,
			"-0.006": 16.8177865069,
			"-0.005": 22.7540960228,
			"-0.004": 21.030288846,
			"-0.003": 19.7199401543,
			"-0.002": 13.3860612782,
			"-0.001": 19.7554680129,
			"0.0": 22.2989935532,
			"0.001": 18.7324308974,
			"0.002": 19.2067530086,
			"0.003": 30.4904505922,
			"0.004": 33.6818276391,
			"0.005": 18.2056141711,
			"0.006": 13.6240737759,
			"0.007": 7.49476825117,
			"0.008": 2.65743098236,
			"0.009": 1.53834488606,
			"0.01": 1.47574899571,
			"0.011": 0.569425439058,
			"0.012": 0.0,
			"0.013": 0.0,
			"0.014": 0.0,
			"0.015": 0.0,
			"0.016": 0.0,
			"0.017": 0.0,
			"0.018": 0.0,
			"0.019": 0.0,
			"0.02": 0.0,
			"0.021": 0.0,
			"0.022": 0.0,
			"0.023": 0.0,
			"0.024": 0.0,
			"0.025": 0.0
		}
	}
}
