{
	 "smiles": "CCOC(=O)C(O)C1=NC=CN1CC1=CC=CC=C1", 
	 "Tm": 408.15, 
	 "num_atms": 35, 
	 "gaussian": { 
		 "optdone": 1, 
		 "sigma_profile": "yes", 
		 "theory": "DFT", 
		 "functional": "B3LYP", 
		 "basiset": "6-31G**", 
		 "properties": { 
			 "R2extent": 5665.7674, 
			 "electric_dipole_moment_norm": 6.07941988433, 
			 "electric_quadrupole_moment_norm": 8.86737279131, 
			 "total_energy": -878.305212417, 
			 "HOMO_LUMO_gap": 0.20269, 
			 "cosmo_polarized_energy": -16.55, 
			 "cosmo_cavitation_energy": 39.05, 
			 "cosmo_dispersion_energy": -25.82, 
			 "cosmo_repulsion_energy": 1.99, 
			 "cosmo_total_nonelectrostatic_energy": 15.22, 
			 "SMD_solvation_energy": 6.59 
		},
		"coords": [
			{
				"x": 2.2784534138,
				"y": 1.4236830556,
				"z": -2.7105070295,
				"element": "C" 
			},
			{
				"x": 1.462177812,
				"y": 0.15321982,
				"z": -2.8910214296,
				"element": "C" 
			},
			{
				"x": 0.9349834417,
				"y": -0.3388839859,
				"z": -1.6302903135,
				"element": "O" 
			},
			{
				"x": 1.7881919935,
				"y": -1.0721357528,
				"z": -0.8708216407,
				"element": "C" 
			},
			{
				"x": 2.9317478805,
				"y": -1.3146558532,
				"z": -1.1663660511,
				"element": "O" 
			},
			{
				"x": 1.0804367869,
				"y": -1.5593227275,
				"z": 0.4138639556,
				"element": "C" 
			},
			{
				"x": 1.8434039848,
				"y": -2.5386908913,
				"z": 1.0569446595,
				"element": "O" 
			},
			{
				"x": 0.8345793519,
				"y": -0.3926672588,
				"z": 1.3468056975,
				"element": "C" 
			},
			{
				"x": 1.7299841969,
				"y": -0.0646842181,
				"z": 2.2578724086,
				"element": "N" 
			},
			{
				"x": 1.1876919789,
				"y": 0.9968163531,
				"z": 2.9427159825,
				"element": "C" 
			},
			{
				"x": -0.0461335666,
				"y": 1.3104557493,
				"z": 2.4334532721,
				"element": "C" 
			},
			{
				"x": -0.267685405,
				"y": 0.4180561126,
				"z": 1.397482362,
				"element": "N" 
			},
			{
				"x": -1.5048126183,
				"y": 0.2959795366,
				"z": 0.6152727252,
				"element": "C" 
			},
			{
				"x": -2.106953475,
				"y": 1.635876535,
				"z": 0.2451256121,
				"element": "C" 
			},
			{
				"x": -1.3995112448,
				"y": 2.5310680165,
				"z": -0.5695842571,
				"element": "C" 
			},
			{
				"x": -1.9606647701,
				"y": 3.7552831638,
				"z": -0.9267111548,
				"element": "C" 
			},
			{
				"x": -3.2390676487,
				"y": 4.099779222,
				"z": -0.4772535097,
				"element": "C" 
			},
			{
				"x": -3.9500578257,
				"y": 3.2145438019,
				"z": 0.3322652709,
				"element": "C" 
			},
			{
				"x": -3.3836205484,
				"y": 1.9891623979,
				"z": 0.6932609737,
				"element": "C" 
			},
			{
				"x": 1.6855719278,
				"y": 2.2135926087,
				"z": -2.2394931104,
				"element": "H" 
			},
			{
				"x": 2.6121661258,
				"y": 1.7869058119,
				"z": -3.6883823404,
				"element": "H" 
			},
			{
				"x": 3.1607282395,
				"y": 1.2297200709,
				"z": -2.0969540136,
				"element": "H" 
			},
			{
				"x": 0.574559601,
				"y": 0.326953278,
				"z": -3.503706199,
				"element": "H" 
			},
			{
				"x": 2.065997911,
				"y": -0.6372803581,
				"z": -3.3432421799,
				"element": "H" 
			},
			{
				"x": 0.1323624582,
				"y": -2.0159821627,
				"z": 0.105651087,
				"element": "H" 
			},
			{
				"x": 2.4693112837,
				"y": -2.0569070465,
				"z": 1.6232826701,
				"element": "H" 
			},
			{
				"x": 1.7141411387,
				"y": 1.4749709284,
				"z": 3.7568008588,
				"element": "H" 
			},
			{
				"x": -0.7679041411,
				"y": 2.0705004485,
				"z": 2.687131261,
				"element": "H" 
			},
			{
				"x": -1.2544141653,
				"y": -0.2579765673,
				"z": -0.292066406,
				"element": "H" 
			},
			{
				"x": -2.2333145269,
				"y": -0.294287275,
				"z": 1.1831763141,
				"element": "H" 
			},
			{
				"x": -0.4063952198,
				"y": 2.2605757724,
				"z": -0.916314966,
				"element": "H" 
			},
			{
				"x": -1.4033120318,
				"y": 4.4414610293,
				"z": -1.5579660729,
				"element": "H" 
			},
			{
				"x": -3.6761145702,
				"y": 5.0537739427,
				"z": -0.757437203,
				"element": "H" 
			},
			{
				"x": -4.9430243704,
				"y": 3.4755458268,
				"z": 0.6865827377,
				"element": "H" 
			},
			{
				"x": -3.9397033983,
				"y": 1.3019506154,
				"z": 1.3263300289,
				"element": "H" 
			}
		],
		 "valence_orbital": [ 
			{
				"type": "occ",
				"energy": -0.27491,
				"method": "rhf"
			},
			{
				"type": "occ",
				"energy": -0.26679,
				"method": "rhf"
			},
			{
				"type": "occ",
				"energy": -0.26413,
				"method": "rhf"
			},
			{
				"type": "occ",
				"energy": -0.256,
				"method": "rhf"
			},
			{
				"type": "occ",
				"energy": -0.2237,
				"method": "rhf"
			},
			{
				"type": "unocc",
				"energy": -0.02101,
				"method": "rhf"
			},
			{
				"type": "unocc",
				"energy": -0.01481,
				"method": "rhf"
			},
			{
				"type": "unocc",
				"energy": -0.00159,
				"method": "rhf"
			},
			{
				"type": "unocc",
				"energy": 0.03381,
				"method": "rhf"
			},
			{
				"type": "unocc",
				"energy": 0.06138,
				"method": "rhf"
			}
		],
		"cosmo_sigma_profile": { 
			"-0.025": 0.0,
			"-0.024": 0.0,
			"-0.023": 0.0,
			"-0.022": 0.0,
			"-0.021": 0.0,
			"-0.02": 0.0,
			"-0.019": 0.0,
			"-0.018": 0.0,
			"-0.017": 0.0,
			"-0.016": 0.0,
			"-0.015": 0.0,
			"-0.014": 0.0,
			"-0.013": 0.00430667399812,
			"-0.012": 0.27109304508,
			"-0.011": 0.584413144268,
			"-0.01": 0.119114308721,
			"-0.009": 1.53822397148,
			"-0.008": 4.51648433267,
			"-0.007": 8.15842631645,
			"-0.006": 18.7434734513,
			"-0.005": 23.1754450845,
			"-0.004": 32.8818347728,
			"-0.003": 26.4322996256,
			"-0.002": 24.4098807906,
			"-0.001": 22.9556401616,
			"0.0": 25.0989564712,
			"0.001": 17.2245106258,
			"0.002": 14.653143149,
			"0.003": 15.8408104426,
			"0.004": 17.0673837025,
			"0.005": 16.2267864989,
			"0.006": 7.0436988035,
			"0.007": 4.57095644915,
			"0.008": 4.30798396814,
			"0.009": 3.61894250783,
			"0.01": 3.81836155162,
			"0.011": 6.84933499313,
			"0.012": 4.98798425351,
			"0.013": 4.57660901664,
			"0.014": 0.507552174334,
			"0.015": 0.0,
			"0.016": 0.0,
			"0.017": 0.0,
			"0.018": 0.0,
			"0.019": 0.0,
			"0.02": 0.0,
			"0.021": 0.0,
			"0.022": 0.0,
			"0.023": 0.0,
			"0.024": 0.0,
			"0.025": 0.0
		}
	}
}
