{
	 "smiles": "OC(=O)CC1=COC2=C1C=C1CCCC1=C2", 
	 "Tm": 425.15, 
	 "num_atms": 28, 
	 "gaussian": { 
		 "optdone": 1, 
		 "sigma_profile": "yes", 
		 "theory": "DFT", 
		 "functional": "B3LYP", 
		 "basiset": "6-31G**", 
		 "properties": { 
			 "R2extent": 4762.7863, 
			 "electric_dipole_moment_norm": 4.17887033898, 
			 "electric_quadrupole_moment_norm": 19.9929330682, 
			 "total_energy": -728.297747194, 
			 "HOMO_LUMO_gap": 0.19504, 
			 "cosmo_polarized_energy": -13.82, 
			 "cosmo_cavitation_energy": 31.53, 
			 "cosmo_dispersion_energy": -22.87, 
			 "cosmo_repulsion_energy": 1.79, 
			 "cosmo_total_nonelectrostatic_energy": 10.46, 
			 "SMD_solvation_energy": 6.31 
		},
		"coords": [
			{
				"x": -2.4384202915,
				"y": -2.9766747119,
				"z": -1.9783747124,
				"element": "O" 
			},
			{
				"x": -1.2316402245,
				"y": -3.3528276189,
				"z": -1.4971829334,
				"element": "C" 
			},
			{
				"x": -0.4465600462,
				"y": -3.9594556031,
				"z": -2.1815791899,
				"element": "O" 
			},
			{
				"x": -0.9664687827,
				"y": -3.007172457,
				"z": -0.0225925187,
				"element": "C" 
			},
			{
				"x": -1.6332775945,
				"y": -1.7570611151,
				"z": 0.4686329598,
				"element": "C" 
			},
			{
				"x": -2.6998652886,
				"y": -1.6649673904,
				"z": 1.3120880776,
				"element": "C" 
			},
			{
				"x": -3.0642437983,
				"y": -0.3691077124,
				"z": 1.5627348395,
				"element": "O" 
			},
			{
				"x": -2.1937565158,
				"y": 0.4168936938,
				"z": 0.8490506626,
				"element": "C" 
			},
			{
				"x": -1.2792463543,
				"y": -0.3869577187,
				"z": 0.1440495916,
				"element": "C" 
			},
			{
				"x": -0.3038387834,
				"y": 0.2222252866,
				"z": -0.6640111051,
				"element": "C" 
			},
			{
				"x": -0.2959980409,
				"y": 1.6098895469,
				"z": -0.7243751128,
				"element": "C" 
			},
			{
				"x": 0.6453841548,
				"y": 2.5123705838,
				"z": -1.4973357748,
				"element": "C" 
			},
			{
				"x": -0.1042111363,
				"y": 3.867147708,
				"z": -1.5240488659,
				"element": "C" 
			},
			{
				"x": -0.9770803994,
				"y": 3.8645715167,
				"z": -0.2447416708,
				"element": "C" 
			},
			{
				"x": -1.2314599681,
				"y": 2.3909806021,
				"z": -0.0026382156,
				"element": "C" 
			},
			{
				"x": -2.2043051431,
				"y": 1.808139233,
				"z": 0.8035259559,
				"element": "C" 
			},
			{
				"x": -2.8994069056,
				"y": -2.4547913092,
				"z": -1.3002965931,
				"element": "H" 
			},
			{
				"x": 0.1193199385,
				"y": -2.9580254501,
				"z": 0.0951744237,
				"element": "H" 
			},
			{
				"x": -1.3062670192,
				"y": -3.869690148,
				"z": 0.5646391051,
				"element": "H" 
			},
			{
				"x": -3.2808681016,
				"y": -2.4174265969,
				"z": 1.8260965769,
				"element": "H" 
			},
			{
				"x": 0.4099593455,
				"y": -0.3723575086,
				"z": -1.2279297763,
				"element": "H" 
			},
			{
				"x": 0.878315101,
				"y": 2.1349941405,
				"z": -2.4983627774,
				"element": "H" 
			},
			{
				"x": 1.6019223955,
				"y": 2.6075764014,
				"z": -0.9637855944,
				"element": "H" 
			},
			{
				"x": -0.7553671729,
				"y": 3.9021711904,
				"z": -2.4046236342,
				"element": "H" 
			},
			{
				"x": 0.5692028941,
				"y": 4.7269630852,
				"z": -1.5786528713,
				"element": "H" 
			},
			{
				"x": -0.4267320105,
				"y": 4.2964985614,
				"z": 0.6035632851,
				"element": "H" 
			},
			{
				"x": -1.8969541056,
				"y": 4.4485783176,
				"z": -0.3541025338,
				"element": "H" 
			},
			{
				"x": -2.9333361465,
				"y": 2.3883154732,
				"z": 1.3598784022,
				"element": "H" 
			}
		],
		 "valence_orbital": [ 
			{
				"type": "occ",
				"energy": -0.31012,
				"method": "rhf"
			},
			{
				"type": "occ",
				"energy": -0.30206,
				"method": "rhf"
			},
			{
				"type": "occ",
				"energy": -0.26574,
				"method": "rhf"
			},
			{
				"type": "occ",
				"energy": -0.23757,
				"method": "rhf"
			},
			{
				"type": "occ",
				"energy": -0.22672,
				"method": "rhf"
			},
			{
				"type": "unocc",
				"energy": -0.03168,
				"method": "rhf"
			},
			{
				"type": "unocc",
				"energy": 0.00333,
				"method": "rhf"
			},
			{
				"type": "unocc",
				"energy": 0.01555,
				"method": "rhf"
			},
			{
				"type": "unocc",
				"energy": 0.03535,
				"method": "rhf"
			},
			{
				"type": "unocc",
				"energy": 0.07959,
				"method": "rhf"
			}
		],
		"cosmo_sigma_profile": { 
			"-0.025": 0.0,
			"-0.024": 0.0,
			"-0.023": 0.0,
			"-0.022": 0.0,
			"-0.021": 0.0,
			"-0.02": 0.0,
			"-0.019": 0.0,
			"-0.018": 0.0,
			"-0.017": 0.0,
			"-0.016": 0.0,
			"-0.015": 0.13093620808,
			"-0.014": 0.446240320461,
			"-0.013": 1.09444577235,
			"-0.012": 0.602815716059,
			"-0.011": 1.60659819618,
			"-0.01": 2.0364045797,
			"-0.009": 4.13815279791,
			"-0.008": 7.591988951,
			"-0.007": 6.19087158613,
			"-0.006": 9.12785573523,
			"-0.005": 10.6205074533,
			"-0.004": 13.8448775666,
			"-0.003": 22.352857998,
			"-0.002": 24.5434120691,
			"-0.001": 24.1399607043,
			"0.0": 21.8822108082,
			"0.001": 18.7428667661,
			"0.002": 12.8596414475,
			"0.003": 11.4075420209,
			"0.004": 11.1667446635,
			"0.005": 11.4207493598,
			"0.006": 4.75888589742,
			"0.007": 3.055058939,
			"0.008": 4.40879583351,
			"0.009": 3.7822425025,
			"0.01": 5.05695991982,
			"0.011": 4.42711979557,
			"0.012": 6.23823675466,
			"0.013": 2.53415874211,
			"0.014": 0.117561415916,
			"0.015": 0.0,
			"0.016": 0.0,
			"0.017": 0.0,
			"0.018": 0.0,
			"0.019": 0.0,
			"0.02": 0.0,
			"0.021": 0.0,
			"0.022": 0.0,
			"0.023": 0.0,
			"0.024": 0.0,
			"0.025": 0.0
		}
	}
}
