{
	 "smiles": "[O-][N+](=O)C1=CC2=C(C=CC3=C2C=CC=C3)C2=C1C=CC=C2", 
	 "Tm": 485.15, 
	 "num_atms": 32, 
	 "gaussian": { 
		 "optdone": 1, 
		 "sigma_profile": "yes", 
		 "theory": "DFT", 
		 "functional": "B3LYP", 
		 "basiset": "6-31G**", 
		 "properties": { 
			 "R2extent": 6700.5485, 
			 "electric_dipole_moment_norm": 5.11654598631, 
			 "electric_quadrupole_moment_norm": 21.6220845669, 
			 "total_energy": -897.676057384, 
			 "HOMO_LUMO_gap": 0.132, 
			 "cosmo_polarized_energy": -10.65, 
			 "cosmo_cavitation_energy": 35.54, 
			 "cosmo_dispersion_energy": -26.57, 
			 "cosmo_repulsion_energy": 1.92, 
			 "cosmo_total_nonelectrostatic_energy": 10.9, 
			 "SMD_solvation_energy": 7.32 
		},
		"coords": [
			{
				"x": -2.1723521119,
				"y": 2.0240485809,
				"z": -4.0661038226,
				"element": "O" 
			},
			{
				"x": -1.1352767534,
				"y": 1.73906208,
				"z": -3.4638478307,
				"element": "N" 
			},
			{
				"x": -0.0063010766,
				"y": 1.8952464292,
				"z": -3.9329177792,
				"element": "O" 
			},
			{
				"x": -1.2392141735,
				"y": 1.1413340118,
				"z": -2.1200715636,
				"element": "C" 
			},
			{
				"x": -0.187754579,
				"y": 0.3444877692,
				"z": -1.7605650162,
				"element": "C" 
			},
			{
				"x": -0.1608350108,
				"y": -0.3547330857,
				"z": -0.5258157935,
				"element": "C" 
			},
			{
				"x": -1.2551335766,
				"y": -0.1980089097,
				"z": 0.3604104505,
				"element": "C" 
			},
			{
				"x": -1.2396982739,
				"y": -0.9249199455,
				"z": 1.592383519,
				"element": "C" 
			},
			{
				"x": -0.2000290574,
				"y": -1.7443824626,
				"z": 1.925297587,
				"element": "C" 
			},
			{
				"x": 0.9243771001,
				"y": -1.9173937066,
				"z": 1.0640394822,
				"element": "C" 
			},
			{
				"x": 0.9544719827,
				"y": -1.2199948162,
				"z": -0.1799584512,
				"element": "C" 
			},
			{
				"x": 2.0815602915,
				"y": -1.4099038521,
				"z": -1.0172612815,
				"element": "C" 
			},
			{
				"x": 3.1188323941,
				"y": -2.243003027,
				"z": -0.6438868261,
				"element": "C" 
			},
			{
				"x": 3.0816002621,
				"y": -2.929844701,
				"z": 0.5865597483,
				"element": "C" 
			},
			{
				"x": 1.9987113744,
				"y": -2.7663278132,
				"z": 1.4244224232,
				"element": "C" 
			},
			{
				"x": -2.3530635758,
				"y": 0.6869605828,
				"z": 0.006318751,
				"element": "C" 
			},
			{
				"x": -2.3687330015,
				"y": 1.367029177,
				"z": -1.2574051398,
				"element": "C" 
			},
			{
				"x": -3.4437787218,
				"y": 2.2425288447,
				"z": -1.5576034602,
				"element": "C" 
			},
			{
				"x": -4.4709680957,
				"y": 2.4390948084,
				"z": -0.6582488203,
				"element": "C" 
			},
			{
				"x": -4.4700886352,
				"y": 1.7673832864,
				"z": 0.5768637013,
				"element": "C" 
			},
			{
				"x": -3.4334124073,
				"y": 0.9158702524,
				"z": 0.8959306601,
				"element": "C" 
			},
			{
				"x": 0.6260283127,
				"y": 0.2573639042,
				"z": -2.465888355,
				"element": "H" 
			},
			{
				"x": -2.0689094235,
				"y": -0.8375561198,
				"z": 2.2825419998,
				"element": "H" 
			},
			{
				"x": -0.2176882299,
				"y": -2.2855352033,
				"z": 2.8677507714,
				"element": "H" 
			},
			{
				"x": 2.1476305092,
				"y": -0.8978065629,
				"z": -1.9701073759,
				"element": "H" 
			},
			{
				"x": 3.9703030197,
				"y": -2.3680991334,
				"z": -1.3061693659,
				"element": "H" 
			},
			{
				"x": 3.9019539867,
				"y": -3.5822655757,
				"z": 0.870002476,
				"element": "H" 
			},
			{
				"x": 1.9535255882,
				"y": -3.2876997377,
				"z": 2.3769842109,
				"element": "H" 
			},
			{
				"x": -3.4534472605,
				"y": 2.7547796186,
				"z": -2.507859926,
				"element": "H" 
			},
			{
				"x": -5.281250049,
				"y": 3.1167641082,
				"z": -0.9096948685,
				"element": "H" 
			},
			{
				"x": -5.2799185724,
				"y": 1.9219180455,
				"z": 1.2836207088,
				"element": "H" 
			},
			{
				"x": -3.4502422359,
				"y": 0.423903153,
				"z": 1.8601791867,
				"element": "H" 
			}
		],
		 "valence_orbital": [ 
			{
				"type": "occ",
				"energy": -0.28477,
				"method": "rhf"
			},
			{
				"type": "occ",
				"energy": -0.28026,
				"method": "rhf"
			},
			{
				"type": "occ",
				"energy": -0.25322,
				"method": "rhf"
			},
			{
				"type": "occ",
				"energy": -0.23807,
				"method": "rhf"
			},
			{
				"type": "occ",
				"energy": -0.22276,
				"method": "rhf"
			},
			{
				"type": "unocc",
				"energy": -0.09076,
				"method": "rhf"
			},
			{
				"type": "unocc",
				"energy": -0.04979,
				"method": "rhf"
			},
			{
				"type": "unocc",
				"energy": -0.0433,
				"method": "rhf"
			},
			{
				"type": "unocc",
				"energy": -0.03095,
				"method": "rhf"
			},
			{
				"type": "unocc",
				"energy": 0.00967,
				"method": "rhf"
			}
		],
		"cosmo_sigma_profile": { 
			"-0.025": 0.0,
			"-0.024": 0.0,
			"-0.023": 0.0,
			"-0.022": 0.0,
			"-0.021": 0.0,
			"-0.02": 0.0,
			"-0.019": 0.0,
			"-0.018": 0.0,
			"-0.017": 0.0,
			"-0.016": 0.0,
			"-0.015": 0.0,
			"-0.014": 0.0,
			"-0.013": 0.0,
			"-0.012": 0.0,
			"-0.011": 0.0,
			"-0.01": 0.389357713307,
			"-0.009": 3.11217584654,
			"-0.008": 2.83632538665,
			"-0.007": 8.24575460581,
			"-0.006": 19.0078939312,
			"-0.005": 21.3787831097,
			"-0.004": 20.6949201341,
			"-0.003": 15.3957344637,
			"-0.002": 15.1489150977,
			"-0.001": 16.6766460003,
			"0.0": 22.1606470991,
			"0.001": 28.6092816752,
			"0.002": 29.0848814384,
			"0.003": 29.7010183162,
			"0.004": 23.308213755,
			"0.005": 5.7218618971,
			"0.006": 3.89764074909,
			"0.007": 6.24339458079,
			"0.008": 7.96675316967,
			"0.009": 4.60555612284,
			"0.01": 3.15836056617,
			"0.011": 0.465412316247,
			"0.012": 0.0,
			"0.013": 0.0,
			"0.014": 0.0,
			"0.015": 0.0,
			"0.016": 0.0,
			"0.017": 0.0,
			"0.018": 0.0,
			"0.019": 0.0,
			"0.02": 0.0,
			"0.021": 0.0,
			"0.022": 0.0,
			"0.023": 0.0,
			"0.024": 0.0,
			"0.025": 0.0
		}
	}
}
