{
	 "smiles": "OC(=O)C(SC1=C(Cl)C=CC=C1)C1=CC=CC=C1", 
	 "Tm": 390.15, 
	 "num_atms": 29, 
	 "gaussian": { 
		 "optdone": 1, 
		 "sigma_profile": "yes", 
		 "theory": "DFT", 
		 "functional": "B3LYP", 
		 "basiset": "6-31G**", 
		 "properties": { 
			 "R2extent": 5182.0665, 
			 "electric_dipole_moment_norm": 4.24195184084, 
			 "electric_quadrupole_moment_norm": 11.6480292599, 
			 "total_energy": -1548.94988037, 
			 "HOMO_LUMO_gap": 0.18817, 
			 "cosmo_polarized_energy": -12.92, 
			 "cosmo_cavitation_energy": 36.09, 
			 "cosmo_dispersion_energy": -24.93, 
			 "cosmo_repulsion_energy": 1.9, 
			 "cosmo_total_nonelectrostatic_energy": 13.06, 
			 "SMD_solvation_energy": 6.47 
		},
		"coords": [
			{
				"x": 1.1211237306,
				"y": 0.7127940646,
				"z": 1.1400933455,
				"element": "O" 
			},
			{
				"x": 2.0779884188,
				"y": -0.1514213784,
				"z": 0.7293516527,
				"element": "C" 
			},
			{
				"x": 3.2579148028,
				"y": 0.0486825553,
				"z": 0.9074781478,
				"element": "O" 
			},
			{
				"x": 1.5292933099,
				"y": -1.3743455152,
				"z": 0.0109031677,
				"element": "C" 
			},
			{
				"x": 0.869916205,
				"y": -0.894843979,
				"z": -1.6881251523,
				"element": "S" 
			},
			{
				"x": -0.7088759537,
				"y": -0.1154639544,
				"z": -1.3809781774,
				"element": "C" 
			},
			{
				"x": -0.8956269872,
				"y": 1.2793263034,
				"z": -1.4397136139,
				"element": "C" 
			},
			{
				"x": 0.4378529709,
				"y": 2.3770615401,
				"z": -1.7459857894,
				"element": "Cl" 
			},
			{
				"x": -2.1626182415,
				"y": 1.8412537616,
				"z": -1.2721261796,
				"element": "C" 
			},
			{
				"x": -3.2639669383,
				"y": 1.0187912142,
				"z": -1.0399032112,
				"element": "C" 
			},
			{
				"x": -3.1043016061,
				"y": -0.3657277257,
				"z": -0.9862724694,
				"element": "C" 
			},
			{
				"x": -1.8392781642,
				"y": -0.9216666863,
				"z": -1.1644920783,
				"element": "C" 
			},
			{
				"x": 0.6349139825,
				"y": -2.2972445364,
				"z": 0.8106674028,
				"element": "C" 
			},
			{
				"x": -0.3434973793,
				"y": -1.8429322143,
				"z": 1.7075026935,
				"element": "C" 
			},
			{
				"x": -1.1372473312,
				"y": -2.7547583003,
				"z": 2.4072956343,
				"element": "C" 
			},
			{
				"x": -0.9739790826,
				"y": -4.126990752,
				"z": 2.2202042731,
				"element": "C" 
			},
			{
				"x": -0.0055497227,
				"y": -4.5890043319,
				"z": 1.3254371607,
				"element": "C" 
			},
			{
				"x": 0.7906348226,
				"y": -3.6815338338,
				"z": 0.6306498909,
				"element": "C" 
			},
			{
				"x": 1.5896710805,
				"y": 1.4688989378,
				"z": 1.5321510028,
				"element": "H" 
			},
			{
				"x": 2.4213600084,
				"y": -1.9278882825,
				"z": -0.2901355628,
				"element": "H" 
			},
			{
				"x": -2.276455495,
				"y": 2.9182100334,
				"z": -1.3267106477,
				"element": "H" 
			},
			{
				"x": -4.2456576089,
				"y": 1.464945115,
				"z": -0.9111769415,
				"element": "H" 
			},
			{
				"x": -3.9597241188,
				"y": -1.0122980205,
				"z": -0.8171041112,
				"element": "H" 
			},
			{
				"x": -1.7079191934,
				"y": -1.9975561028,
				"z": -1.144087625,
				"element": "H" 
			},
			{
				"x": -0.479630648,
				"y": -0.7800578804,
				"z": 1.8628440701,
				"element": "H" 
			},
			{
				"x": -1.8863609149,
				"y": -2.385750927,
				"z": 3.1021343225,
				"element": "H" 
			},
			{
				"x": -1.5924944869,
				"y": -4.8319108982,
				"z": 2.7681838093,
				"element": "H" 
			},
			{
				"x": 0.1346323125,
				"y": -5.6553863435,
				"z": 1.1738707451,
				"element": "H" 
			},
			{
				"x": 1.5431822283,
				"y": -4.047681863,
				"z": -0.0630557591,
				"element": "H" 
			}
		],
		 "valence_orbital": [ 
			{
				"type": "occ",
				"energy": -0.27055,
				"method": "rhf"
			},
			{
				"type": "occ",
				"energy": -0.25797,
				"method": "rhf"
			},
			{
				"type": "occ",
				"energy": -0.25347,
				"method": "rhf"
			},
			{
				"type": "occ",
				"energy": -0.24462,
				"method": "rhf"
			},
			{
				"type": "occ",
				"energy": -0.23446,
				"method": "rhf"
			},
			{
				"type": "unocc",
				"energy": -0.04629,
				"method": "rhf"
			},
			{
				"type": "unocc",
				"energy": -0.01995,
				"method": "rhf"
			},
			{
				"type": "unocc",
				"energy": -0.01542,
				"method": "rhf"
			},
			{
				"type": "unocc",
				"energy": -0.00672,
				"method": "rhf"
			},
			{
				"type": "unocc",
				"energy": 0.01076,
				"method": "rhf"
			}
		],
		"cosmo_sigma_profile": { 
			"-0.025": 0.0,
			"-0.024": 0.0,
			"-0.023": 0.0,
			"-0.022": 0.0,
			"-0.021": 0.0,
			"-0.02": 0.0,
			"-0.019": 0.194929109837,
			"-0.018": 0.895789573566,
			"-0.017": 0.931955353261,
			"-0.016": 0.538286434975,
			"-0.015": 0.871073270138,
			"-0.014": 0.482304657487,
			"-0.013": 0.450139735501,
			"-0.012": 0.730370188896,
			"-0.011": 0.822082256524,
			"-0.01": 0.330939749475,
			"-0.009": 1.85072004568,
			"-0.008": 3.68446818287,
			"-0.007": 8.41674675263,
			"-0.006": 15.4303165317,
			"-0.005": 18.7558771568,
			"-0.004": 19.1039977212,
			"-0.003": 15.2931410134,
			"-0.002": 18.8314609504,
			"-0.001": 16.6685341603,
			"0.0": 20.4136220187,
			"0.001": 25.1709069538,
			"0.002": 27.3264286713,
			"0.003": 31.7874818757,
			"0.004": 24.3621203766,
			"0.005": 14.5266254049,
			"0.006": 5.09751154972,
			"0.007": 4.14794463845,
			"0.008": 3.58152637574,
			"0.009": 1.86817805889,
			"0.01": 2.38221807314,
			"0.011": 5.20988987626,
			"0.012": 2.32087237577,
			"0.013": 0.0217622073199,
			"0.014": 0.0,
			"0.015": 0.0,
			"0.016": 0.0,
			"0.017": 0.0,
			"0.018": 0.0,
			"0.019": 0.0,
			"0.02": 0.0,
			"0.021": 0.0,
			"0.022": 0.0,
			"0.023": 0.0,
			"0.024": 0.0,
			"0.025": 0.0
		}
	}
}
