{
	 "smiles": "OCC1=CC(=O)OC2=C1C=CC(O)=C2", 
	 "Tm": 495.15, 
	 "num_atms": 22, 
	 "gaussian": { 
		 "optdone": 1, 
		 "sigma_profile": "yes", 
		 "theory": "DFT", 
		 "functional": "B3LYP", 
		 "basiset": "6-31G**", 
		 "properties": { 
			 "R2extent": 3298.9613, 
			 "electric_dipole_moment_norm": 5.21837351097, 
			 "electric_quadrupole_moment_norm": 25.5572083826, 
			 "total_energy": -686.770459504, 
			 "HOMO_LUMO_gap": 0.16213, 
			 "cosmo_polarized_energy": -18.91, 
			 "cosmo_cavitation_energy": 26.58, 
			 "cosmo_dispersion_energy": -19.84, 
			 "cosmo_repulsion_energy": 1.55, 
			 "cosmo_total_nonelectrostatic_energy": 8.29, 
			 "SMD_solvation_energy": 6.15 
		},
		"coords": [
			{
				"x": 0.200961421,
				"y": -1.5709230375,
				"z": 1.7916834096,
				"element": "O" 
			},
			{
				"x": 1.0840290899,
				"y": -0.4569239549,
				"z": 1.8479963447,
				"element": "C" 
			},
			{
				"x": 0.6888491491,
				"y": 0.6895259379,
				"z": 0.938866353,
				"element": "C" 
			},
			{
				"x": 0.5590424152,
				"y": 1.9417613806,
				"z": 1.4483941253,
				"element": "C" 
			},
			{
				"x": 0.2310788582,
				"y": 3.1003281361,
				"z": 0.6299591371,
				"element": "C" 
			},
			{
				"x": 0.0968641896,
				"y": 4.2364791409,
				"z": 1.0199732861,
				"element": "O" 
			},
			{
				"x": 0.0627246245,
				"y": 2.8548913784,
				"z": -0.7335887558,
				"element": "O" 
			},
			{
				"x": 0.180305803,
				"y": 1.6084719895,
				"z": -1.2751882631,
				"element": "C" 
			},
			{
				"x": 0.4798934169,
				"y": 0.4785265549,
				"z": -0.480958576,
				"element": "C" 
			},
			{
				"x": 0.5699930133,
				"y": -0.7687200327,
				"z": -1.1313865798,
				"element": "C" 
			},
			{
				"x": 0.3851818234,
				"y": -0.8790552402,
				"z": -2.4999743055,
				"element": "C" 
			},
			{
				"x": 0.0976633675,
				"y": 0.2669905571,
				"z": -3.2641818956,
				"element": "C" 
			},
			{
				"x": -0.0926279451,
				"y": 0.2161162601,
				"z": -4.6093046711,
				"element": "O" 
			},
			{
				"x": -0.0084201889,
				"y": 1.5147264482,
				"z": -2.6513157301,
				"element": "C" 
			},
			{
				"x": -0.68412367,
				"y": -1.260759311,
				"z": 2.0251751148,
				"element": "H" 
			},
			{
				"x": 1.1916794194,
				"y": -0.0799688311,
				"z": 2.8747333584,
				"element": "H" 
			},
			{
				"x": 2.0610230368,
				"y": -0.8461625117,
				"z": 1.5395268636,
				"element": "H" 
			},
			{
				"x": 0.705101027,
				"y": 2.1496145144,
				"z": 2.5026939545,
				"element": "H" 
			},
			{
				"x": 0.7564933214,
				"y": -1.6563774735,
				"z": -0.5389389783,
				"element": "H" 
			},
			{
				"x": 0.4551303398,
				"y": -1.8503504144,
				"z": -2.9836422174,
				"element": "H" 
			},
			{
				"x": 0.0064654205,
				"y": -0.6956057725,
				"z": -4.9135081777,
				"element": "H" 
			},
			{
				"x": -0.2329079324,
				"y": 2.4003142817,
				"z": -3.2333137966,
				"element": "H" 
			}
		],
		 "valence_orbital": [ 
			{
				"type": "occ",
				"energy": -0.30018,
				"method": "rhf"
			},
			{
				"type": "occ",
				"energy": -0.28976,
				"method": "rhf"
			},
			{
				"type": "occ",
				"energy": -0.26945,
				"method": "rhf"
			},
			{
				"type": "occ",
				"energy": -0.25164,
				"method": "rhf"
			},
			{
				"type": "occ",
				"energy": -0.22675,
				"method": "rhf"
			},
			{
				"type": "unocc",
				"energy": -0.06462,
				"method": "rhf"
			},
			{
				"type": "unocc",
				"energy": -0.01306,
				"method": "rhf"
			},
			{
				"type": "unocc",
				"energy": 0.00456,
				"method": "rhf"
			},
			{
				"type": "unocc",
				"energy": 0.05676,
				"method": "rhf"
			},
			{
				"type": "unocc",
				"energy": 0.06906,
				"method": "rhf"
			}
		],
		"cosmo_sigma_profile": { 
			"-0.025": 0.0,
			"-0.024": 0.0,
			"-0.023": 0.0,
			"-0.022": 0.0,
			"-0.021": 0.0,
			"-0.02": 0.0,
			"-0.019": 0.206634247023,
			"-0.018": 0.902149976368,
			"-0.017": 1.5017176051,
			"-0.016": 2.1881466525,
			"-0.015": 1.53644548612,
			"-0.014": 1.87851897312,
			"-0.013": 2.10760351678,
			"-0.012": 2.06260150852,
			"-0.011": 1.75431391002,
			"-0.01": 1.8771795936,
			"-0.009": 2.22015736488,
			"-0.008": 3.01555673797,
			"-0.007": 7.62338490356,
			"-0.006": 11.103431437,
			"-0.005": 11.8679340769,
			"-0.004": 12.5058805988,
			"-0.003": 11.6616381437,
			"-0.002": 10.8909438795,
			"-0.001": 11.0815880093,
			"0.0": 13.5813116893,
			"0.001": 15.2067836936,
			"0.002": 16.8104736439,
			"0.003": 14.5820889176,
			"0.004": 7.84969072884,
			"0.005": 3.72828947518,
			"0.006": 4.70305896954,
			"0.007": 4.09656168269,
			"0.008": 4.77322527832,
			"0.009": 5.89942630479,
			"0.01": 5.04016599892,
			"0.011": 4.75934588662,
			"0.012": 8.01698342085,
			"0.013": 4.6366717861,
			"0.014": 0.545048838872,
			"0.015": 0.0,
			"0.016": 0.0,
			"0.017": 0.0,
			"0.018": 0.0,
			"0.019": 0.0,
			"0.02": 0.0,
			"0.021": 0.0,
			"0.022": 0.0,
			"0.023": 0.0,
			"0.024": 0.0,
			"0.025": 0.0
		}
	}
}
