{
	 "smiles": "CC1=CC=C(C=C1N)C(F)(F)F", 
	 "Tm": 311.15, 
	 "num_atms": 20, 
	 "gaussian": { 
		 "optdone": 1, 
		 "sigma_profile": "yes", 
		 "theory": "DFT", 
		 "functional": "B3LYP", 
		 "basiset": "6-31G**", 
		 "properties": { 
			 "R2extent": 2468.5853, 
			 "electric_dipole_moment_norm": 3.95993845786, 
			 "electric_quadrupole_moment_norm": 8.70225165288, 
			 "total_energy": -663.964862505, 
			 "HOMO_LUMO_gap": 0.1973, 
			 "cosmo_polarized_energy": -8.22, 
			 "cosmo_cavitation_energy": 24.89, 
			 "cosmo_dispersion_energy": -17.92, 
			 "cosmo_repulsion_energy": 1.37, 
			 "cosmo_total_nonelectrostatic_energy": 8.34, 
			 "SMD_solvation_energy": 5.36 
		},
		"coords": [
			{
				"x": 1.4379545317,
				"y": -1.652368897,
				"z": 2.0442992486,
				"element": "C" 
			},
			{
				"x": 0.7096502197,
				"y": -0.9792220051,
				"z": 0.9087753425,
				"element": "C" 
			},
			{
				"x": 0.5119213122,
				"y": -1.6276899986,
				"z": -0.3119324478,
				"element": "C" 
			},
			{
				"x": -0.1439405057,
				"y": -1.0150661537,
				"z": -1.3790408011,
				"element": "C" 
			},
			{
				"x": -0.6144837123,
				"y": 0.2885286367,
				"z": -1.2175414916,
				"element": "C" 
			},
			{
				"x": -0.4362758075,
				"y": 0.9611457383,
				"z": -0.0094833569,
				"element": "C" 
			},
			{
				"x": 0.2234326796,
				"y": 0.3415488246,
				"z": 1.0610221981,
				"element": "C" 
			},
			{
				"x": 0.4558389809,
				"y": 1.0441022904,
				"z": 2.2444092232,
				"element": "N" 
			},
			{
				"x": -1.3830423677,
				"y": 0.9532574536,
				"z": -2.3254601883,
				"element": "C" 
			},
			{
				"x": -0.993582875,
				"y": 0.5183609142,
				"z": -3.5446072195,
				"element": "F" 
			},
			{
				"x": -1.2373956071,
				"y": 2.2988080923,
				"z": -2.3103583239,
				"element": "F" 
			},
			{
				"x": -2.7130226925,
				"y": 0.7077296756,
				"z": -2.231470351,
				"element": "F" 
			},
			{
				"x": 0.7918334285,
				"y": -1.7906083108,
				"z": 2.9231293156,
				"element": "H" 
			},
			{
				"x": 2.3022141257,
				"y": -1.0610087142,
				"z": 2.3713241076,
				"element": "H" 
			},
			{
				"x": 1.7974164018,
				"y": -2.6413046627,
				"z": 1.7501771809,
				"element": "H" 
			},
			{
				"x": 0.8887238956,
				"y": -2.6405262356,
				"z": -0.4293089551,
				"element": "H" 
			},
			{
				"x": -0.2781891472,
				"y": -1.5343755147,
				"z": -2.3207132128,
				"element": "H" 
			},
			{
				"x": -0.8004703521,
				"y": 1.9783418977,
				"z": 0.0989445871,
				"element": "H" 
			},
			{
				"x": 0.5261166825,
				"y": 0.4842314315,
				"z": 3.0822662008,
				"element": "H" 
			},
			{
				"x": -0.1297991912,
				"y": 1.8563155375,
				"z": 2.3812689436,
				"element": "H" 
			}
		],
		 "valence_orbital": [ 
			{
				"type": "occ",
				"energy": -0.35697,
				"method": "rhf"
			},
			{
				"type": "occ",
				"energy": -0.34454,
				"method": "rhf"
			},
			{
				"type": "occ",
				"energy": -0.31736,
				"method": "rhf"
			},
			{
				"type": "occ",
				"energy": -0.25261,
				"method": "rhf"
			},
			{
				"type": "occ",
				"energy": -0.21164,
				"method": "rhf"
			},
			{
				"type": "unocc",
				"energy": -0.01434,
				"method": "rhf"
			},
			{
				"type": "unocc",
				"energy": 0.00589,
				"method": "rhf"
			},
			{
				"type": "unocc",
				"energy": 0.06818,
				"method": "rhf"
			},
			{
				"type": "unocc",
				"energy": 0.1028,
				"method": "rhf"
			},
			{
				"type": "unocc",
				"energy": 0.10803,
				"method": "rhf"
			}
		],
		"cosmo_sigma_profile": { 
			"-0.025": 0.0,
			"-0.024": 0.0,
			"-0.023": 0.0,
			"-0.022": 0.0,
			"-0.021": 0.0,
			"-0.02": 0.0,
			"-0.019": 0.0,
			"-0.018": 0.0,
			"-0.017": 0.0,
			"-0.016": 0.0,
			"-0.015": 0.0,
			"-0.014": 0.0,
			"-0.013": 0.573399211884,
			"-0.012": 2.13343776187,
			"-0.011": 2.51916360651,
			"-0.01": 3.2255528705,
			"-0.009": 3.43142537811,
			"-0.008": 2.93283259661,
			"-0.007": 2.48856824664,
			"-0.006": 5.63509791592,
			"-0.005": 9.15028451106,
			"-0.004": 11.9421152912,
			"-0.003": 10.3826592356,
			"-0.002": 10.9879175514,
			"-0.001": 12.378907027,
			"0.0": 14.8580863283,
			"0.001": 12.3522123905,
			"0.002": 19.1921150076,
			"0.003": 37.4189093287,
			"0.004": 18.0014186957,
			"0.005": 9.92143398167,
			"0.006": 3.02273626229,
			"0.007": 0.928401145207,
			"0.008": 0.92380282373,
			"0.009": 0.649779875638,
			"0.01": 0.310766827162,
			"0.011": 0.602649950694,
			"0.012": 0.845965598565,
			"0.013": 0.502911870423,
			"0.014": 0.329503242144,
			"0.015": 0.0317910223777,
			"0.016": 0.0,
			"0.017": 0.0,
			"0.018": 0.0,
			"0.019": 0.0,
			"0.02": 0.0,
			"0.021": 0.0,
			"0.022": 0.0,
			"0.023": 0.0,
			"0.024": 0.0,
			"0.025": 0.0
		}
	}
}
