{
	 "smiles": "CCN1C=C(C(=N1)[N+]([O-])=O)S(Cl)(=O)=O", 
	 "Tm": 319.15, 
	 "num_atms": 20, 
	 "gaussian": { 
		 "optdone": 1, 
		 "sigma_profile": "yes", 
		 "theory": "DFT", 
		 "functional": "B3LYP", 
		 "basiset": "6-31G**", 
		 "properties": { 
			 "R2extent": 4258.5898, 
			 "electric_dipole_moment_norm": 8.21290638995, 
			 "electric_quadrupole_moment_norm": 10.7611943663, 
			 "total_energy": -1517.46813666, 
			 "HOMO_LUMO_gap": 0.19997, 
			 "cosmo_polarized_energy": -18.42, 
			 "cosmo_cavitation_energy": 29.06, 
			 "cosmo_dispersion_energy": -21.29, 
			 "cosmo_repulsion_energy": 1.67, 
			 "cosmo_total_nonelectrostatic_energy": 9.43, 
			 "SMD_solvation_energy": 5.44 
		},
		"coords": [
			{
				"x": -0.4890843246,
				"y": -0.9813086933,
				"z": 2.899210081,
				"element": "C" 
			},
			{
				"x": -1.3791086834,
				"y": -0.1530704261,
				"z": 1.9751515637,
				"element": "C" 
			},
			{
				"x": -0.7244254636,
				"y": 0.1391681329,
				"z": 0.6932708552,
				"element": "N" 
			},
			{
				"x": -1.0155924233,
				"y": -0.3717794418,
				"z": -0.5247894609,
				"element": "C" 
			},
			{
				"x": -0.0988056303,
				"y": 0.1724477344,
				"z": -1.4109335203,
				"element": "C" 
			},
			{
				"x": 0.7036768499,
				"y": 1.009379469,
				"z": -0.597500269,
				"element": "C" 
			},
			{
				"x": 0.3231577178,
				"y": 0.9807674905,
				"z": 0.6688452941,
				"element": "N" 
			},
			{
				"x": 1.8477192291,
				"y": 1.8177223432,
				"z": -0.9889394271,
				"element": "N" 
			},
			{
				"x": 2.2511877805,
				"y": 1.6438720315,
				"z": -2.13745371,
				"element": "O" 
			},
			{
				"x": 2.314048001,
				"y": 2.587127815,
				"z": -0.1592513576,
				"element": "O" 
			},
			{
				"x": -0.1985401042,
				"y": -0.1493834386,
				"z": -3.1461308446,
				"element": "S" 
			},
			{
				"x": 1.5407360175,
				"y": -1.2870261128,
				"z": -3.4916579737,
				"element": "Cl" 
			},
			{
				"x": -1.3227732818,
				"y": -1.064730578,
				"z": -3.3149842185,
				"element": "O" 
			},
			{
				"x": -0.0874155502,
				"y": 1.0789832371,
				"z": -3.9122002941,
				"element": "O" 
			},
			{
				"x": 0.4451100886,
				"y": -0.453094937,
				"z": 3.1034849675,
				"element": "H" 
			},
			{
				"x": -0.253796153,
				"y": -1.9527629869,
				"z": 2.4551577323,
				"element": "H" 
			},
			{
				"x": -1.0062146872,
				"y": -1.151412494,
				"z": 3.847788413,
				"element": "H" 
			},
			{
				"x": -1.6331494665,
				"y": 0.807965119,
				"z": 2.4292913654,
				"element": "H" 
			},
			{
				"x": -2.3097766043,
				"y": -0.6742776503,
				"z": 1.7371797418,
				"element": "H" 
			},
			{
				"x": -1.827953312,
				"y": -1.0597866139,
				"z": -0.7033389384,
				"element": "H" 
			}
		],
		 "valence_orbital": [ 
			{
				"type": "occ",
				"energy": -0.32138,
				"method": "rhf"
			},
			{
				"type": "occ",
				"energy": -0.31894,
				"method": "rhf"
			},
			{
				"type": "occ",
				"energy": -0.31589,
				"method": "rhf"
			},
			{
				"type": "occ",
				"energy": -0.30894,
				"method": "rhf"
			},
			{
				"type": "occ",
				"energy": -0.30512,
				"method": "rhf"
			},
			{
				"type": "unocc",
				"energy": -0.10515,
				"method": "rhf"
			},
			{
				"type": "unocc",
				"energy": -0.08483,
				"method": "rhf"
			},
			{
				"type": "unocc",
				"energy": -0.03985,
				"method": "rhf"
			},
			{
				"type": "unocc",
				"energy": 0.00772,
				"method": "rhf"
			},
			{
				"type": "unocc",
				"energy": 0.04355,
				"method": "rhf"
			}
		],
		"cosmo_sigma_profile": { 
			"-0.025": 0.0,
			"-0.024": 0.0,
			"-0.023": 0.0,
			"-0.022": 0.0,
			"-0.021": 0.0,
			"-0.02": 0.0,
			"-0.019": 0.0,
			"-0.018": 0.0,
			"-0.017": 0.0,
			"-0.016": 0.0,
			"-0.015": 0.0,
			"-0.014": 0.0,
			"-0.013": 1.59197206017,
			"-0.012": 2.05655021975,
			"-0.011": 1.7553545063,
			"-0.01": 2.26649912626,
			"-0.009": 3.20797217425,
			"-0.008": 5.12244152616,
			"-0.007": 8.1018695388,
			"-0.006": 11.859975414,
			"-0.005": 21.0124804607,
			"-0.004": 18.9357677767,
			"-0.003": 15.0002363735,
			"-0.002": 14.1547657305,
			"-0.001": 13.7840959647,
			"0.0": 10.8876457137,
			"0.001": 10.3073592545,
			"0.002": 12.6024888993,
			"0.003": 14.1139228527,
			"0.004": 5.82790504978,
			"0.005": 7.68871070677,
			"0.006": 11.1579836391,
			"0.007": 17.8089884213,
			"0.008": 16.2503512804,
			"0.009": 6.44631759041,
			"0.01": 1.22260953011,
			"0.011": 1.43457876778,
			"0.012": 0.528079164474,
			"0.013": 0.0,
			"0.014": 0.0,
			"0.015": 0.0,
			"0.016": 0.0,
			"0.017": 0.0,
			"0.018": 0.0,
			"0.019": 0.0,
			"0.02": 0.0,
			"0.021": 0.0,
			"0.022": 0.0,
			"0.023": 0.0,
			"0.024": 0.0,
			"0.025": 0.0
		}
	}
}
