{
	 "smiles": "CCOC(=O)C1C(C(C(=O)OCC)C(O)(NC1(O)C(F)(F)F)C(F)(F)F)C1=CC=C(OC)C=C1", 
	 "Tm": 382.15, 
	 "num_atms": 57, 
	 "gaussian": { 
		 "optdone": 1, 
		 "sigma_profile": "yes", 
		 "theory": "DFT", 
		 "functional": "B3LYP", 
		 "basiset": "6-31G**", 
		 "properties": { 
			 "R2extent": 15822.2477, 
			 "electric_dipole_moment_norm": 2.49148124015, 
			 "electric_quadrupole_moment_norm": 22.0764385658, 
			 "total_energy": -1956.36643021, 
			 "HOMO_LUMO_gap": 0.20599, 
			 "cosmo_polarized_energy": -20.7, 
			 "cosmo_cavitation_energy": 59.72, 
			 "cosmo_dispersion_energy": -36.16, 
			 "cosmo_repulsion_energy": 2.62, 
			 "cosmo_total_nonelectrostatic_energy": 26.18, 
			 "SMD_solvation_energy": 13.66 
		},
		"coords": [
			{
				"x": 5.6377838977,
				"y": 0.1874089889,
				"z": -1.1411001526,
				"element": "C" 
			},
			{
				"x": 4.3755806091,
				"y": 0.939801867,
				"z": -0.7528607428,
				"element": "C" 
			},
			{
				"x": 3.1792895227,
				"y": 0.1634752506,
				"z": -1.0465473094,
				"element": "O" 
			},
			{
				"x": 2.7788673174,
				"y": -0.7279960875,
				"z": -0.0963136844,
				"element": "C" 
			},
			{
				"x": 3.346258732,
				"y": -0.8864447951,
				"z": 0.9568340331,
				"element": "O" 
			},
			{
				"x": 1.5121743258,
				"y": -1.464796032,
				"z": -0.5236470298,
				"element": "C" 
			},
			{
				"x": 0.3295397181,
				"y": -0.456389923,
				"z": -0.6656418748,
				"element": "C" 
			},
			{
				"x": -0.8426366529,
				"y": -1.0739451126,
				"z": -1.5271671995,
				"element": "C" 
			},
			{
				"x": -2.1698718846,
				"y": -0.3941399196,
				"z": -1.1909067691,
				"element": "C" 
			},
			{
				"x": -2.5431609957,
				"y": 0.5959753519,
				"z": -1.7861799942,
				"element": "O" 
			},
			{
				"x": -2.8319150735,
				"y": -0.9524292343,
				"z": -0.1710568948,
				"element": "O" 
			},
			{
				"x": -4.0639566547,
				"y": -0.2977758616,
				"z": 0.2139929983,
				"element": "C" 
			},
			{
				"x": -4.6180864885,
				"y": -1.0476055643,
				"z": 1.4098002619,
				"element": "C" 
			},
			{
				"x": -0.7838574261,
				"y": -2.6170321056,
				"z": -1.5534739636,
				"element": "C" 
			},
			{
				"x": -1.0213545247,
				"y": -3.1342347056,
				"z": -0.2630776886,
				"element": "O" 
			},
			{
				"x": 0.5075158337,
				"y": -3.0910159844,
				"z": -2.0450779544,
				"element": "N" 
			},
			{
				"x": 1.6785638242,
				"y": -2.2713449222,
				"z": -1.8347444924,
				"element": "C" 
			},
			{
				"x": 1.8745982462,
				"y": -1.4345306822,
				"z": -2.9601800404,
				"element": "O" 
			},
			{
				"x": 2.8723285746,
				"y": -3.2588116283,
				"z": -1.7611649642,
				"element": "C" 
			},
			{
				"x": 2.8779500805,
				"y": -4.0777963005,
				"z": -2.8280189868,
				"element": "F" 
			},
			{
				"x": 2.8284519598,
				"y": -4.015587571,
				"z": -0.6503729901,
				"element": "F" 
			},
			{
				"x": 4.0531937584,
				"y": -2.5936889709,
				"z": -1.7564002677,
				"element": "F" 
			},
			{
				"x": -1.842538404,
				"y": -3.2165087197,
				"z": -2.5189703225,
				"element": "C" 
			},
			{
				"x": -3.0892536021,
				"y": -2.8280172172,
				"z": -2.2250445002,
				"element": "F" 
			},
			{
				"x": -1.8049337621,
				"y": -4.5654686744,
				"z": -2.4593622164,
				"element": "F" 
			},
			{
				"x": -1.5912856825,
				"y": -2.861151372,
				"z": -3.8012468439,
				"element": "F" 
			},
			{
				"x": -0.0474226999,
				"y": 0.1330154841,
				"z": 0.6878882502,
				"element": "C" 
			},
			{
				"x": -0.4181693729,
				"y": -0.6523490587,
				"z": 1.785258498,
				"element": "C" 
			},
			{
				"x": -0.7212654494,
				"y": -0.0802480982,
				"z": 3.0217280714,
				"element": "C" 
			},
			{
				"x": -0.6614238094,
				"y": 1.310819373,
				"z": 3.1802259364,
				"element": "C" 
			},
			{
				"x": -0.9328752169,
				"y": 1.9728929827,
				"z": 4.3417742818,
				"element": "O" 
			},
			{
				"x": -1.28568766,
				"y": 1.2092911832,
				"z": 5.4842194847,
				"element": "C" 
			},
			{
				"x": -0.3035938284,
				"y": 2.112534035,
				"z": 2.088404266,
				"element": "C" 
			},
			{
				"x": -0.0013439592,
				"y": 1.5248968339,
				"z": 0.865563012,
				"element": "C" 
			},
			{
				"x": 6.5099591971,
				"y": 0.8257815346,
				"z": -0.965927063,
				"element": "H" 
			},
			{
				"x": 5.6233451261,
				"y": -0.0892420215,
				"z": -2.1992450263,
				"element": "H" 
			},
			{
				"x": 5.748059566,
				"y": -0.719007007,
				"z": -0.5424120051,
				"element": "H" 
			},
			{
				"x": 4.2508559068,
				"y": 1.8537927172,
				"z": -1.3377172027,
				"element": "H" 
			},
			{
				"x": 4.3668620844,
				"y": 1.1835416658,
				"z": 0.3111658163,
				"element": "H" 
			},
			{
				"x": 1.3004178391,
				"y": -2.1732672418,
				"z": 0.2755422505,
				"element": "H" 
			},
			{
				"x": 0.6988247062,
				"y": 0.3739487899,
				"z": -1.2699350357,
				"element": "H" 
			},
			{
				"x": -0.6468661706,
				"y": -0.7752274301,
				"z": -2.5583342202,
				"element": "H" 
			},
			{
				"x": -4.7495349809,
				"y": -0.3141020775,
				"z": -0.6392021945,
				"element": "H" 
			},
			{
				"x": -3.8462745628,
				"y": 0.7488924739,
				"z": 0.4459388879,
				"element": "H" 
			},
			{
				"x": -3.913714334,
				"y": -1.0139641697,
				"z": 2.2454870185,
				"element": "H" 
			},
			{
				"x": -5.5597835446,
				"y": -0.5908156646,
				"z": 1.730286332,
				"element": "H" 
			},
			{
				"x": -4.8089348543,
				"y": -2.095012162,
				"z": 1.1595838019,
				"element": "H" 
			},
			{
				"x": -0.6926451737,
				"y": -4.0458704879,
				"z": -0.28288725,
				"element": "H" 
			},
			{
				"x": 0.4792759247,
				"y": -3.3717760162,
				"z": -3.0199608553,
				"element": "H" 
			},
			{
				"x": 2.5332396903,
				"y": -0.7617105734,
				"z": -2.7183637725,
				"element": "H" 
			},
			{
				"x": -0.5001198798,
				"y": -1.727560159,
				"z": 1.6698527237,
				"element": "H" 
			},
			{
				"x": -0.998538195,
				"y": -0.7243652726,
				"z": 3.8478813574,
				"element": "H" 
			},
			{
				"x": -1.4473516999,
				"y": 1.9280287803,
				"z": 6.2890805715,
				"element": "H" 
			},
			{
				"x": -0.4837383514,
				"y": 0.5180785983,
				"z": 5.7735244449,
				"element": "H" 
			},
			{
				"x": -2.2088482467,
				"y": 0.6378611243,
				"z": 5.3214505646,
				"element": "H" 
			},
			{
				"x": -0.265087869,
				"y": 3.1885064066,
				"z": 2.2226482122,
				"element": "H" 
			},
			{
				"x": 0.2747345695,
				"y": 2.1620853829,
				"z": 0.0291104328,
				"element": "H" 
			}
		],
		 "valence_orbital": [ 
			{
				"type": "occ",
				"energy": -0.2882,
				"method": "rhf"
			},
			{
				"type": "occ",
				"energy": -0.2828,
				"method": "rhf"
			},
			{
				"type": "occ",
				"energy": -0.26039,
				"method": "rhf"
			},
			{
				"type": "occ",
				"energy": -0.25118,
				"method": "rhf"
			},
			{
				"type": "occ",
				"energy": -0.21844,
				"method": "rhf"
			},
			{
				"type": "unocc",
				"energy": -0.01245,
				"method": "rhf"
			},
			{
				"type": "unocc",
				"energy": -0.00543,
				"method": "rhf"
			},
			{
				"type": "unocc",
				"energy": 0.00449,
				"method": "rhf"
			},
			{
				"type": "unocc",
				"energy": 0.01815,
				"method": "rhf"
			},
			{
				"type": "unocc",
				"energy": 0.06243,
				"method": "rhf"
			}
		],
		"cosmo_sigma_profile": { 
			"-0.025": 0.0,
			"-0.024": 0.0,
			"-0.023": 0.0,
			"-0.022": 0.0,
			"-0.021": 0.0,
			"-0.02": 0.0,
			"-0.019": 0.0,
			"-0.018": 0.0,
			"-0.017": 0.0381526472898,
			"-0.016": 0.471842752213,
			"-0.015": 0.635668534577,
			"-0.014": 0.53300898727,
			"-0.013": 0.659151342271,
			"-0.012": 0.545777256696,
			"-0.011": 1.3772103033,
			"-0.01": 1.97807347129,
			"-0.009": 2.50434010082,
			"-0.008": 2.14656939254,
			"-0.007": 4.39008733958,
			"-0.006": 17.5546803074,
			"-0.005": 34.4492665755,
			"-0.004": 44.8467775124,
			"-0.003": 41.6766066442,
			"-0.002": 34.2431194337,
			"-0.001": 35.0990947617,
			"0.0": 40.0186049023,
			"0.001": 39.7112072594,
			"0.002": 55.9255214884,
			"0.003": 31.5214300301,
			"0.004": 17.5377101382,
			"0.005": 11.9385949169,
			"0.006": 7.47161576909,
			"0.007": 6.70348324277,
			"0.008": 5.46246353801,
			"0.009": 7.52613731798,
			"0.01": 7.4490389352,
			"0.011": 9.19133933586,
			"0.012": 5.40744684895,
			"0.013": 1.05855614986,
			"0.014": 0.0494398362472,
			"0.015": 0.0,
			"0.016": 0.0,
			"0.017": 0.0,
			"0.018": 0.0,
			"0.019": 0.0,
			"0.02": 0.0,
			"0.021": 0.0,
			"0.022": 0.0,
			"0.023": 0.0,
			"0.024": 0.0,
			"0.025": 0.0
		}
	}
}
