{
	 "smiles": "NC(CC1=CNC2=C1C=C(C=C2)[N+]([O-])=O)C(O)=O", 
	 "Tm": 533.15, 
	 "num_atms": 29, 
	 "gaussian": { 
		 "optdone": 1, 
		 "sigma_profile": "yes", 
		 "theory": "DFT", 
		 "functional": "B3LYP", 
		 "basiset": "6-31G**", 
		 "properties": { 
			 "R2extent": 5594.7405, 
			 "electric_dipole_moment_norm": 7.98279063298, 
			 "electric_quadrupole_moment_norm": 17.0475160323, 
			 "total_energy": -890.868011313, 
			 "HOMO_LUMO_gap": 0.14816, 
			 "cosmo_polarized_energy": -25.28, 
			 "cosmo_cavitation_energy": 34.77, 
			 "cosmo_dispersion_energy": -23.98, 
			 "cosmo_repulsion_energy": 1.88, 
			 "cosmo_total_nonelectrostatic_energy": 12.67, 
			 "SMD_solvation_energy": 7.75 
		},
		"coords": [
			{
				"x": -3.3060232851,
				"y": -2.5870048288,
				"z": -2.1248208217,
				"element": "N" 
			},
			{
				"x": -2.1919923531,
				"y": -1.6520829557,
				"z": -1.9630390358,
				"element": "C" 
			},
			{
				"x": -1.1355361598,
				"y": -2.0788567018,
				"z": -0.900527654,
				"element": "C" 
			},
			{
				"x": -0.0181642265,
				"y": -1.0968260859,
				"z": -0.7038781952,
				"element": "C" 
			},
			{
				"x": 1.2306214425,
				"y": -1.1443945254,
				"z": -1.2691490067,
				"element": "C" 
			},
			{
				"x": 1.9713389199,
				"y": -0.0375209394,
				"z": -0.8857997842,
				"element": "N" 
			},
			{
				"x": 1.2121459915,
				"y": 0.7547788528,
				"z": -0.061969293,
				"element": "C" 
			},
			{
				"x": -0.0562184808,
				"y": 0.1174714348,
				"z": 0.0773831157,
				"element": "C" 
			},
			{
				"x": -1.0303714242,
				"y": 0.7140026125,
				"z": 0.8846554625,
				"element": "C" 
			},
			{
				"x": -0.7080158831,
				"y": 1.9109896913,
				"z": 1.5126157566,
				"element": "C" 
			},
			{
				"x": 0.5435466071,
				"y": 2.54221272,
				"z": 1.3706358358,
				"element": "C" 
			},
			{
				"x": 1.5203018916,
				"y": 1.9633971583,
				"z": 0.5774246513,
				"element": "C" 
			},
			{
				"x": -1.7169110229,
				"y": 2.546395777,
				"z": 2.3646563556,
				"element": "N" 
			},
			{
				"x": -1.4197072238,
				"y": 3.6085722161,
				"z": 2.9148252409,
				"element": "O" 
			},
			{
				"x": -2.8071482682,
				"y": 1.9834097051,
				"z": 2.4862089188,
				"element": "O" 
			},
			{
				"x": -1.5368993467,
				"y": -1.4575680739,
				"z": -3.3257439312,
				"element": "C" 
			},
			{
				"x": -1.059761052,
				"y": -2.6357877866,
				"z": -3.8129069801,
				"element": "O" 
			},
			{
				"x": -1.4267278713,
				"y": -0.4157304979,
				"z": -3.9264473602,
				"element": "O" 
			},
			{
				"x": -3.8297340936,
				"y": -2.6568863753,
				"z": -1.256246043,
				"element": "H" 
			},
			{
				"x": -2.9506142673,
				"y": -3.5147946048,
				"z": -2.3428531487,
				"element": "H" 
			},
			{
				"x": -2.600582368,
				"y": -0.6740692644,
				"z": -1.6949653201,
				"element": "H" 
			},
			{
				"x": -1.6719632598,
				"y": -2.2319513173,
				"z": 0.0447200879,
				"element": "H" 
			},
			{
				"x": -0.7316649161,
				"y": -3.053558158,
				"z": -1.19582211,
				"element": "H" 
			},
			{
				"x": 1.6591780537,
				"y": -1.8908975078,
				"z": -1.9229639378,
				"element": "H" 
			},
			{
				"x": 2.9161903031,
				"y": 0.1571529307,
				"z": -1.1752666877,
				"element": "H" 
			},
			{
				"x": -2.0117058837,
				"y": 0.2815827975,
				"z": 1.0363123243,
				"element": "H" 
			},
			{
				"x": 0.7170698683,
				"y": 3.4749693693,
				"z": 1.89094123,
				"element": "H" 
			},
			{
				"x": 2.4904789145,
				"y": 2.4358711773,
				"z": 0.4587074268,
				"element": "H" 
			},
			{
				"x": -0.6999306062,
				"y": -2.4360768198,
				"z": -4.6933870967,
				"element": "H" 
			}
		],
		 "valence_orbital": [ 
			{
				"type": "occ",
				"energy": -0.28259,
				"method": "rhf"
			},
			{
				"type": "occ",
				"energy": -0.27723,
				"method": "rhf"
			},
			{
				"type": "occ",
				"energy": -0.25216,
				"method": "rhf"
			},
			{
				"type": "occ",
				"energy": -0.24832,
				"method": "rhf"
			},
			{
				"type": "occ",
				"energy": -0.22194,
				"method": "rhf"
			},
			{
				"type": "unocc",
				"energy": -0.07378,
				"method": "rhf"
			},
			{
				"type": "unocc",
				"energy": -0.03003,
				"method": "rhf"
			},
			{
				"type": "unocc",
				"energy": 0.00343,
				"method": "rhf"
			},
			{
				"type": "unocc",
				"energy": 0.02635,
				"method": "rhf"
			},
			{
				"type": "unocc",
				"energy": 0.04378,
				"method": "rhf"
			}
		],
		"cosmo_sigma_profile": { 
			"-0.025": 0.0,
			"-0.024": 0.0,
			"-0.023": 0.0,
			"-0.022": 0.0,
			"-0.021": 0.0,
			"-0.02": 0.0,
			"-0.019": 0.0894183990768,
			"-0.018": 0.649187467827,
			"-0.017": 1.15372711641,
			"-0.016": 2.75230539914,
			"-0.015": 2.78419007632,
			"-0.014": 1.54435193351,
			"-0.013": 1.67943444125,
			"-0.012": 1.84349088944,
			"-0.011": 3.05109454936,
			"-0.01": 4.37895597926,
			"-0.009": 5.48367065745,
			"-0.008": 7.52792132624,
			"-0.007": 9.21240674136,
			"-0.006": 13.5468646443,
			"-0.005": 14.680153994,
			"-0.004": 14.9346361792,
			"-0.003": 13.9474225572,
			"-0.002": 14.03367199,
			"-0.001": 12.2623319345,
			"0.0": 15.2064509193,
			"0.001": 16.555209732,
			"0.002": 21.2937065768,
			"0.003": 20.920118526,
			"0.004": 10.6109519667,
			"0.005": 7.19349153601,
			"0.006": 7.87171835024,
			"0.007": 6.80460042029,
			"0.008": 12.5253534247,
			"0.009": 8.62171745909,
			"0.01": 7.74595556182,
			"0.011": 7.05011771663,
			"0.012": 3.84090431074,
			"0.013": 1.02293707677,
			"0.014": 0.864201283059,
			"0.015": 0.622103784329,
			"0.016": 0.584746957525,
			"0.017": 0.45898728385,
			"0.018": 0.330238881373,
			"0.019": 0.0,
			"0.02": 0.0,
			"0.021": 0.0,
			"0.022": 0.0,
			"0.023": 0.0,
			"0.024": 0.0,
			"0.025": 0.0
		}
	}
}
