{
	 "smiles": "ClCC(=O)NC1=CC(=CC=C1)S(=O)(=O)N1CCOCC1", 
	 "Tm": 431.15, 
	 "num_atms": 35, 
	 "gaussian": { 
		 "optdone": 1, 
		 "sigma_profile": "yes", 
		 "theory": "DFT", 
		 "functional": "B3LYP", 
		 "basiset": "6-31G**", 
		 "properties": { 
			 "R2extent": 9533.9759, 
			 "electric_dipole_moment_norm": 5.15898722328, 
			 "electric_quadrupole_moment_norm": 12.9497831237, 
			 "total_energy": -1735.01676293, 
			 "HOMO_LUMO_gap": 0.2002, 
			 "cosmo_polarized_energy": -21.39, 
			 "cosmo_cavitation_energy": 40.99, 
			 "cosmo_dispersion_energy": -29.43, 
			 "cosmo_repulsion_energy": 2.24, 
			 "cosmo_total_nonelectrostatic_energy": 13.81, 
			 "SMD_solvation_energy": 5.61 
		},
		"coords": [
			{
				"x": 1.5404541752,
				"y": 4.2023345659,
				"z": 5.6187111687,
				"element": "Cl" 
			},
			{
				"x": 2.532555855,
				"y": 3.1636329939,
				"z": 4.5080579938,
				"element": "C" 
			},
			{
				"x": 1.8337809168,
				"y": 2.6030308971,
				"z": 3.2639412403,
				"element": "C" 
			},
			{
				"x": 2.4965223346,
				"y": 1.8700947087,
				"z": 2.5443357915,
				"element": "O" 
			},
			{
				"x": 0.5374382236,
				"y": 2.9726413383,
				"z": 3.0608561446,
				"element": "N" 
			},
			{
				"x": -0.3184237422,
				"y": 2.6009019386,
				"z": 2.0030074788,
				"element": "C" 
			},
			{
				"x": 0.1047015955,
				"y": 1.8300885303,
				"z": 0.9137776088,
				"element": "C" 
			},
			{
				"x": -0.8248846309,
				"y": 1.5203504207,
				"z": -0.0803827711,
				"element": "C" 
			},
			{
				"x": -2.1479513991,
				"y": 1.9530034515,
				"z": -0.0345330313,
				"element": "C" 
			},
			{
				"x": -2.5529570172,
				"y": 2.7242394415,
				"z": 1.0579393718,
				"element": "C" 
			},
			{
				"x": -1.6513530013,
				"y": 3.0442382148,
				"z": 2.0664629932,
				"element": "C" 
			},
			{
				"x": -0.2701474021,
				"y": 0.5598864375,
				"z": -1.4993706216,
				"element": "S" 
			},
			{
				"x": 0.9866151709,
				"y": 1.1350308076,
				"z": -1.9895262139,
				"element": "O" 
			},
			{
				"x": -1.429820226,
				"y": 0.4132015257,
				"z": -2.389925276,
				"element": "O" 
			},
			{
				"x": 0.1145669927,
				"y": -0.9245738474,
				"z": -0.7977158943,
				"element": "N" 
			},
			{
				"x": 1.4072663865,
				"y": -1.5604178314,
				"z": -1.1361877957,
				"element": "C" 
			},
			{
				"x": 1.1745288985,
				"y": -2.896957088,
				"z": -1.8324374042,
				"element": "C" 
			},
			{
				"x": 0.4087514103,
				"y": -3.8051857762,
				"z": -1.0380203121,
				"element": "O" 
			},
			{
				"x": -0.4627460366,
				"y": -3.1855147186,
				"z": -0.1002300525,
				"element": "C" 
			},
			{
				"x": -1.0165748507,
				"y": -1.8532532765,
				"z": -0.5970743244,
				"element": "C" 
			},
			{
				"x": 2.9017373272,
				"y": 2.3233008444,
				"z": 5.0959346362,
				"element": "H" 
			},
			{
				"x": 3.3812767465,
				"y": 3.7643878721,
				"z": 4.1797362889,
				"element": "H" 
			},
			{
				"x": 0.1363233638,
				"y": 3.5781059534,
				"z": 3.7659291483,
				"element": "H" 
			},
			{
				"x": 1.1288503589,
				"y": 1.490068134,
				"z": 0.8530264539,
				"element": "H" 
			},
			{
				"x": -2.8281299073,
				"y": 1.6961458303,
				"z": -0.83786554,
				"element": "H" 
			},
			{
				"x": -3.5771077887,
				"y": 3.0782743574,
				"z": 1.1221382805,
				"element": "H" 
			},
			{
				"x": -1.9772619095,
				"y": 3.6434535064,
				"z": 2.9131944071,
				"element": "H" 
			},
			{
				"x": 1.9792334694,
				"y": -0.8879558206,
				"z": -1.7772622855,
				"element": "H" 
			},
			{
				"x": 1.9813892894,
				"y": -1.7111629919,
				"z": -0.2138823304,
				"element": "H" 
			},
			{
				"x": 2.1348559842,
				"y": -3.3834283142,
				"z": -2.035923614,
				"element": "H" 
			},
			{
				"x": 0.6719505679,
				"y": -2.7263265366,
				"z": -2.796328663,
				"element": "H" 
			},
			{
				"x": 0.0497929295,
				"y": -3.0323354691,
				"z": 0.8622987035,
				"element": "H" 
			},
			{
				"x": -1.2900514031,
				"y": -3.881869985,
				"z": 0.0699942455,
				"element": "H" 
			},
			{
				"x": -1.5798555489,
				"y": -2.0034450979,
				"z": -1.5259408243,
				"element": "H" 
			},
			{
				"x": -1.702327133,
				"y": -1.4373850164,
				"z": 0.1503649989,
				"element": "H" 
			}
		],
		 "valence_orbital": [ 
			{
				"type": "occ",
				"energy": -0.28032,
				"method": "rhf"
			},
			{
				"type": "occ",
				"energy": -0.27823,
				"method": "rhf"
			},
			{
				"type": "occ",
				"energy": -0.25525,
				"method": "rhf"
			},
			{
				"type": "occ",
				"energy": -0.24696,
				"method": "rhf"
			},
			{
				"type": "occ",
				"energy": -0.2438,
				"method": "rhf"
			},
			{
				"type": "unocc",
				"energy": -0.0436,
				"method": "rhf"
			},
			{
				"type": "unocc",
				"energy": -0.03573,
				"method": "rhf"
			},
			{
				"type": "unocc",
				"energy": -0.0014,
				"method": "rhf"
			},
			{
				"type": "unocc",
				"energy": 0.01932,
				"method": "rhf"
			},
			{
				"type": "unocc",
				"energy": 0.0587,
				"method": "rhf"
			}
		],
		"cosmo_sigma_profile": { 
			"-0.025": 0.0,
			"-0.024": 0.0,
			"-0.023": 0.0,
			"-0.022": 0.0,
			"-0.021": 0.0,
			"-0.02": 0.0,
			"-0.019": 0.0,
			"-0.018": 0.0,
			"-0.017": 0.0,
			"-0.016": 0.0,
			"-0.015": 0.023170965053,
			"-0.014": 0.587030250048,
			"-0.013": 1.58005154004,
			"-0.012": 0.594758393648,
			"-0.011": 1.44321827873,
			"-0.01": 1.82674377473,
			"-0.009": 5.75132122016,
			"-0.008": 6.36168286575,
			"-0.007": 8.8109479303,
			"-0.006": 19.5810160857,
			"-0.005": 31.1085195519,
			"-0.004": 30.633919374,
			"-0.003": 22.2101931537,
			"-0.002": 19.5109214147,
			"-0.001": 18.9485449594,
			"0.0": 20.9730221429,
			"0.001": 19.7973332353,
			"0.002": 21.7357840122,
			"0.003": 15.9500791219,
			"0.004": 12.5973931846,
			"0.005": 12.6014919837,
			"0.006": 6.56663656998,
			"0.007": 4.63139423139,
			"0.008": 6.56710572278,
			"0.009": 6.51479653179,
			"0.01": 9.13225755014,
			"0.011": 10.8696563268,
			"0.012": 7.72253071165,
			"0.013": 2.54237572895,
			"0.014": 0.368779632135,
			"0.015": 0.0,
			"0.016": 0.0,
			"0.017": 0.0,
			"0.018": 0.0,
			"0.019": 0.0,
			"0.02": 0.0,
			"0.021": 0.0,
			"0.022": 0.0,
			"0.023": 0.0,
			"0.024": 0.0,
			"0.025": 0.0
		}
	}
}
