{
	 "smiles": "NC(=O)C1CNCCO1", 
	 "Tm": 432.15, 
	 "num_atms": 19, 
	 "gaussian": { 
		 "optdone": 1, 
		 "sigma_profile": "yes", 
		 "theory": "DFT", 
		 "functional": "B3LYP", 
		 "basiset": "6-31G**", 
		 "properties": { 
			 "R2extent": 1824.6912, 
			 "electric_dipole_moment_norm": 3.3038800069, 
			 "electric_quadrupole_moment_norm": 13.7828803456, 
			 "total_energy": -456.496794063, 
			 "HOMO_LUMO_gap": 0.25416, 
			 "cosmo_polarized_energy": -14.2, 
			 "cosmo_cavitation_energy": 21.21, 
			 "cosmo_dispersion_energy": -16.19, 
			 "cosmo_repulsion_energy": 1.36, 
			 "cosmo_total_nonelectrostatic_energy": 6.37, 
			 "SMD_solvation_energy": 1.96 
		},
		"coords": [
			{
				"x": 0.4097857205,
				"y": -0.876385267,
				"z": -2.3485141805,
				"element": "N" 
			},
			{
				"x": 1.2823375518,
				"y": -1.5252958844,
				"z": -1.5351859942,
				"element": "C" 
			},
			{
				"x": 2.107199389,
				"y": -2.347375671,
				"z": -1.9143668884,
				"element": "O" 
			},
			{
				"x": 1.1755232553,
				"y": -1.1445760774,
				"z": -0.0510859121,
				"element": "C" 
			},
			{
				"x": 1.1711303301,
				"y": -2.4012115765,
				"z": 0.8354706361,
				"element": "C" 
			},
			{
				"x": 0.7962736047,
				"y": -1.9864427061,
				"z": 2.1816718629,
				"element": "N" 
			},
			{
				"x": -0.5739356093,
				"y": -1.4566828408,
				"z": 2.2634757978,
				"element": "C" 
			},
			{
				"x": -1.0171469232,
				"y": -0.9480151013,
				"z": 0.8843564215,
				"element": "C" 
			},
			{
				"x": 0.0512826595,
				"y": -0.2878314249,
				"z": 0.2108554219,
				"element": "O" 
			},
			{
				"x": -0.1868070394,
				"y": -0.1629739435,
				"z": -1.9587872017,
				"element": "H" 
			},
			{
				"x": 0.4720430865,
				"y": -1.0191677996,
				"z": -3.3443495159,
				"element": "H" 
			},
			{
				"x": 2.0643506703,
				"y": -0.5517896113,
				"z": 0.1969568103,
				"element": "H" 
			},
			{
				"x": 0.5156383385,
				"y": -3.1731009387,
				"z": 0.3934565087,
				"element": "H" 
			},
			{
				"x": 2.1797407558,
				"y": -2.8187002894,
				"z": 0.8413735074,
				"element": "H" 
			},
			{
				"x": 0.9356050336,
				"y": -2.739170807,
				"z": 2.8459775544,
				"element": "H" 
			},
			{
				"x": -0.5937063202,
				"y": -0.6317112989,
				"z": 2.9867876953,
				"element": "H" 
			},
			{
				"x": -1.3125309752,
				"y": -2.2041002315,
				"z": 2.6004332177,
				"element": "H" 
			},
			{
				"x": -1.818236985,
				"y": -0.2111843425,
				"z": 0.9869071661,
				"element": "H" 
			},
			{
				"x": -1.4039465432,
				"y": -1.7746841882,
				"z": 0.2705670928,
				"element": "H" 
			}
		],
		 "valence_orbital": [ 
			{
				"type": "occ",
				"energy": -0.31308,
				"method": "rhf"
			},
			{
				"type": "occ",
				"energy": -0.285,
				"method": "rhf"
			},
			{
				"type": "occ",
				"energy": -0.26225,
				"method": "rhf"
			},
			{
				"type": "occ",
				"energy": -0.23129,
				"method": "rhf"
			},
			{
				"type": "occ",
				"energy": -0.22035,
				"method": "rhf"
			},
			{
				"type": "unocc",
				"energy": 0.03381,
				"method": "rhf"
			},
			{
				"type": "unocc",
				"energy": 0.06986,
				"method": "rhf"
			},
			{
				"type": "unocc",
				"energy": 0.10009,
				"method": "rhf"
			},
			{
				"type": "unocc",
				"energy": 0.10742,
				"method": "rhf"
			},
			{
				"type": "unocc",
				"energy": 0.12015,
				"method": "rhf"
			}
		],
		"cosmo_sigma_profile": { 
			"-0.025": 0.0,
			"-0.024": 0.0,
			"-0.023": 0.0,
			"-0.022": 0.0,
			"-0.021": 0.0,
			"-0.02": 0.0,
			"-0.019": 0.0,
			"-0.018": 0.0,
			"-0.017": 0.0,
			"-0.016": 0.0,
			"-0.015": 0.0473341103926,
			"-0.014": 0.874061601431,
			"-0.013": 1.26949453338,
			"-0.012": 0.887714700374,
			"-0.011": 2.80298185073,
			"-0.01": 3.21049953751,
			"-0.009": 3.62965117,
			"-0.008": 2.93871758052,
			"-0.007": 2.32916830527,
			"-0.006": 5.72631478984,
			"-0.005": 11.0303521741,
			"-0.004": 17.0174707237,
			"-0.003": 20.578346292,
			"-0.002": 16.850512161,
			"-0.001": 11.9751458161,
			"0.0": 7.82621420649,
			"0.001": 4.91362552221,
			"0.002": 4.95926354786,
			"0.003": 3.74250243482,
			"0.004": 4.07726003113,
			"0.005": 3.59842588852,
			"0.006": 2.75799014899,
			"0.007": 3.03809484297,
			"0.008": 3.01396316337,
			"0.009": 2.99801846815,
			"0.01": 2.96043836077,
			"0.011": 2.57474878081,
			"0.012": 4.01109391583,
			"0.013": 3.53261297729,
			"0.014": 6.25214931849,
			"0.015": 1.91912321531,
			"0.016": 0.811772799863,
			"0.017": 0.502133461817,
			"0.018": 0.0,
			"0.019": 0.0,
			"0.02": 0.0,
			"0.021": 0.0,
			"0.022": 0.0,
			"0.023": 0.0,
			"0.024": 0.0,
			"0.025": 0.0
		}
	}
}
