{
	 "smiles": "NC(CC(O)=O)C1=CC(Cl)=CC=C1", 
	 "Tm": 501.15, 
	 "num_atms": 23, 
	 "gaussian": { 
		 "optdone": 1, 
		 "sigma_profile": "yes", 
		 "theory": "DFT", 
		 "functional": "B3LYP", 
		 "basiset": "6-31G**", 
		 "properties": { 
			 "R2extent": 4032.8945, 
			 "electric_dipole_moment_norm": 4.72081077253, 
			 "electric_quadrupole_moment_norm": 14.1836862282, 
			 "total_energy": -1014.38209614, 
			 "HOMO_LUMO_gap": 0.21851, 
			 "cosmo_polarized_energy": -19.8, 
			 "cosmo_cavitation_energy": 28.96, 
			 "cosmo_dispersion_energy": -20.92, 
			 "cosmo_repulsion_energy": 1.68, 
			 "cosmo_total_nonelectrostatic_energy": 9.71, 
			 "SMD_solvation_energy": 4.36 
		},
		"coords": [
			{
				"x": 0.6208536845,
				"y": -0.5840245753,
				"z": -2.4326123925,
				"element": "N" 
			},
			{
				"x": 0.1380779999,
				"y": -0.3918637622,
				"z": -1.0650203573,
				"element": "C" 
			},
			{
				"x": -0.1045405312,
				"y": -1.698842587,
				"z": -0.2638971566,
				"element": "C" 
			},
			{
				"x": -1.1531767967,
				"y": -2.6077975255,
				"z": -0.893306799,
				"element": "C" 
			},
			{
				"x": -1.4757786396,
				"y": -3.7117946834,
				"z": -0.1704450576,
				"element": "O" 
			},
			{
				"x": -1.6901144308,
				"y": -2.4134563801,
				"z": -1.957759767,
				"element": "O" 
			},
			{
				"x": 1.0714291664,
				"y": 0.5307097094,
				"z": -0.2915635197,
				"element": "C" 
			},
			{
				"x": 0.6031117107,
				"y": 1.7575402152,
				"z": 0.1901532098,
				"element": "C" 
			},
			{
				"x": 1.4574780808,
				"y": 2.5981754524,
				"z": 0.9030540351,
				"element": "C" 
			},
			{
				"x": 0.8446611878,
				"y": 4.1347421502,
				"z": 1.5011759843,
				"element": "Cl" 
			},
			{
				"x": 2.7831692,
				"y": 2.2485934918,
				"z": 1.1499931102,
				"element": "C" 
			},
			{
				"x": 3.2495149463,
				"y": 1.0249446537,
				"z": 0.6668453324,
				"element": "C" 
			},
			{
				"x": 2.4038434778,
				"y": 0.1730107455,
				"z": -0.0423327629,
				"element": "C" 
			},
			{
				"x": -0.0454079662,
				"y": -1.1719609498,
				"z": -2.9276922411,
				"element": "H" 
			},
			{
				"x": 1.5185949101,
				"y": -1.0625549005,
				"z": -2.4358097909,
				"element": "H" 
			},
			{
				"x": -0.8337585598,
				"y": 0.1063116089,
				"z": -1.1509719529,
				"element": "H" 
			},
			{
				"x": 0.8313499957,
				"y": -2.2677587576,
				"z": -0.1704307666,
				"element": "H" 
			},
			{
				"x": -0.4204408543,
				"y": -1.4611624727,
				"z": 0.7617656846,
				"element": "H" 
			},
			{
				"x": -0.9825599981,
				"y": -3.7236148601,
				"z": 0.6624906621,
				"element": "H" 
			},
			{
				"x": -0.4214667222,
				"y": 2.0635422177,
				"z": 0.0059497633,
				"element": "H" 
			},
			{
				"x": 3.4315094585,
				"y": 2.9177875104,
				"z": 1.7042595439,
				"element": "H" 
			},
			{
				"x": 4.2810584587,
				"y": 0.7378770969,
				"z": 0.8486271156,
				"element": "H" 
			},
			{
				"x": 2.7926922219,
				"y": -0.7745033978,
				"z": -0.4064718771,
				"element": "H" 
			}
		],
		 "valence_orbital": [ 
			{
				"type": "occ",
				"energy": -0.31429,
				"method": "rhf"
			},
			{
				"type": "occ",
				"energy": -0.28586,
				"method": "rhf"
			},
			{
				"type": "occ",
				"energy": -0.26454,
				"method": "rhf"
			},
			{
				"type": "occ",
				"energy": -0.25024,
				"method": "rhf"
			},
			{
				"type": "occ",
				"energy": -0.2396,
				"method": "rhf"
			},
			{
				"type": "unocc",
				"energy": -0.02109,
				"method": "rhf"
			},
			{
				"type": "unocc",
				"energy": -0.01825,
				"method": "rhf"
			},
			{
				"type": "unocc",
				"energy": -0.00192,
				"method": "rhf"
			},
			{
				"type": "unocc",
				"energy": 0.02682,
				"method": "rhf"
			},
			{
				"type": "unocc",
				"energy": 0.04581,
				"method": "rhf"
			}
		],
		"cosmo_sigma_profile": { 
			"-0.025": 0.0,
			"-0.024": 0.0,
			"-0.023": 0.0,
			"-0.022": 0.0,
			"-0.021": 0.0,
			"-0.02": 0.00528616803911,
			"-0.019": 0.718025541919,
			"-0.018": 0.977111620666,
			"-0.017": 1.34456281221,
			"-0.016": 0.893852728412,
			"-0.015": 0.872050139895,
			"-0.014": 1.2483283425,
			"-0.013": 1.29806465968,
			"-0.012": 1.12020007562,
			"-0.011": 1.09344855897,
			"-0.01": 2.56530833948,
			"-0.009": 4.52814267086,
			"-0.008": 5.27522146995,
			"-0.007": 10.930369137,
			"-0.006": 15.402120773,
			"-0.005": 15.3393408788,
			"-0.004": 11.9474370164,
			"-0.003": 10.2175848675,
			"-0.002": 10.0754615093,
			"-0.001": 9.57084009693,
			"0.0": 11.4759876666,
			"0.001": 12.6835966676,
			"0.002": 15.5986754719,
			"0.003": 18.5808168711,
			"0.004": 19.6100181876,
			"0.005": 12.9091116057,
			"0.006": 3.47618597023,
			"0.007": 4.07568813996,
			"0.008": 2.90588363513,
			"0.009": 4.55496387908,
			"0.01": 5.63011806713,
			"0.011": 5.54244736321,
			"0.012": 3.38482356476,
			"0.013": 1.39584873876,
			"0.014": 0.881893043379,
			"0.015": 1.24559748639,
			"0.016": 0.250665819572,
			"0.017": 0.525226276717,
			"0.018": 0.626952074472,
			"0.019": 0.541511089765,
			"0.02": 0.0958088989313,
			"0.021": 0.0,
			"0.022": 0.0,
			"0.023": 0.0,
			"0.024": 0.0,
			"0.025": 0.0
		}
	}
}
