{
	 "smiles": "NC1=NC(N2CCCC2)=C(C=O)C(Cl)=N1", 
	 "Tm": 450.15, 
	 "num_atms": 26, 
	 "gaussian": { 
		 "optdone": 1, 
		 "sigma_profile": "yes", 
		 "theory": "DFT", 
		 "functional": "B3LYP", 
		 "basiset": "6-31G**", 
		 "properties": { 
			 "R2extent": 6584.4679, 
			 "electric_dipole_moment_norm": 6.78232008239, 
			 "electric_quadrupole_moment_norm": 34.8639407457, 
			 "total_energy": -1104.01386796, 
			 "HOMO_LUMO_gap": 0.17922, 
			 "cosmo_polarized_energy": -16.28, 
			 "cosmo_cavitation_energy": 30.48, 
			 "cosmo_dispersion_energy": -22.85, 
			 "cosmo_repulsion_energy": 1.82, 
			 "cosmo_total_nonelectrostatic_energy": 9.46, 
			 "SMD_solvation_energy": 2.32 
		},
		"coords": [
			{
				"x": 2.7378444225,
				"y": -1.0914168112,
				"z": -2.2372721144,
				"element": "N" 
			},
			{
				"x": 1.4109990356,
				"y": -1.0137313889,
				"z": -2.5038059616,
				"element": "C" 
			},
			{
				"x": 0.6792484506,
				"y": -0.1877613808,
				"z": -1.7527384288,
				"element": "N" 
			},
			{
				"x": -0.6218248767,
				"y": -0.0674866408,
				"z": -2.0664116531,
				"element": "C" 
			},
			{
				"x": -1.3962015706,
				"y": 0.672956224,
				"z": -1.2135570478,
				"element": "N" 
			},
			{
				"x": -0.8107825576,
				"y": 1.3401178993,
				"z": -0.0352909099,
				"element": "C" 
			},
			{
				"x": -1.6183826494,
				"y": 0.7725715638,
				"z": 1.1343961216,
				"element": "C" 
			},
			{
				"x": -3.0382493674,
				"y": 0.680758089,
				"z": 0.551761622,
				"element": "C" 
			},
			{
				"x": -2.8288720157,
				"y": 0.3890289795,
				"z": -0.955844211,
				"element": "C" 
			},
			{
				"x": -1.1728759726,
				"y": -0.7042603163,
				"z": -3.2345372932,
				"element": "C" 
			},
			{
				"x": -2.4252867273,
				"y": -0.2251077668,
				"z": -3.8420238378,
				"element": "C" 
			},
			{
				"x": -3.0931519222,
				"y": -0.7777477981,
				"z": -4.69782514,
				"element": "O" 
			},
			{
				"x": -0.2938425549,
				"y": -1.6263966467,
				"z": -3.844681558,
				"element": "C" 
			},
			{
				"x": -0.8284855395,
				"y": -2.6191118001,
				"z": -5.1822894863,
				"element": "Cl" 
			},
			{
				"x": 0.9643686672,
				"y": -1.8076295658,
				"z": -3.5047137999,
				"element": "N" 
			},
			{
				"x": 3.1007978732,
				"y": -0.6254893251,
				"z": -1.4229036033,
				"element": "H" 
			},
			{
				"x": 3.2806721476,
				"y": -1.7975491013,
				"z": -2.7060303181,
				"element": "H" 
			},
			{
				"x": 0.255760455,
				"y": 1.1355636479,
				"z": 0.0108757003,
				"element": "H" 
			},
			{
				"x": -0.9616657232,
				"y": 2.4247917541,
				"z": -0.124247115,
				"element": "H" 
			},
			{
				"x": -1.5652432881,
				"y": 1.3982082127,
				"z": 2.0296417617,
				"element": "H" 
			},
			{
				"x": -1.2391805912,
				"y": -0.2227519027,
				"z": 1.3916158706,
				"element": "H" 
			},
			{
				"x": -3.6502374205,
				"y": -0.0883575719,
				"z": 1.0298890311,
				"element": "H" 
			},
			{
				"x": -3.5583215282,
				"y": 1.6362626008,
				"z": 0.6761648816,
				"element": "H" 
			},
			{
				"x": -3.4847721807,
				"y": 1.0200155117,
				"z": -1.561495203,
				"element": "H" 
			},
			{
				"x": -3.039875723,
				"y": -0.6537550116,
				"z": -1.2143570737,
				"element": "H" 
			},
			{
				"x": -2.7129388429,
				"y": 0.7854785455,
				"z": -3.486020234,
				"element": "H" 
			}
		],
		 "valence_orbital": [ 
			{
				"type": "occ",
				"energy": -0.28708,
				"method": "rhf"
			},
			{
				"type": "occ",
				"energy": -0.26236,
				"method": "rhf"
			},
			{
				"type": "occ",
				"energy": -0.24825,
				"method": "rhf"
			},
			{
				"type": "occ",
				"energy": -0.23483,
				"method": "rhf"
			},
			{
				"type": "occ",
				"energy": -0.22653,
				"method": "rhf"
			},
			{
				"type": "unocc",
				"energy": -0.04731,
				"method": "rhf"
			},
			{
				"type": "unocc",
				"energy": -0.02037,
				"method": "rhf"
			},
			{
				"type": "unocc",
				"energy": 0.03388,
				"method": "rhf"
			},
			{
				"type": "unocc",
				"energy": 0.04825,
				"method": "rhf"
			},
			{
				"type": "unocc",
				"energy": 0.07028,
				"method": "rhf"
			}
		],
		"cosmo_sigma_profile": { 
			"-0.025": 0.0,
			"-0.024": 0.0,
			"-0.023": 0.0,
			"-0.022": 0.0,
			"-0.021": 0.0,
			"-0.02": 0.0,
			"-0.019": 0.0,
			"-0.018": 0.0,
			"-0.017": 0.0,
			"-0.016": 0.0,
			"-0.015": 0.405006856279,
			"-0.014": 2.15518058582,
			"-0.013": 2.49988034813,
			"-0.012": 1.48529581268,
			"-0.011": 2.24825825715,
			"-0.01": 1.68972753612,
			"-0.009": 2.16586552352,
			"-0.008": 1.80100328093,
			"-0.007": 2.1274450766,
			"-0.006": 4.34003740758,
			"-0.005": 9.90632676498,
			"-0.004": 22.5351563681,
			"-0.003": 28.8234935277,
			"-0.002": 28.0907160579,
			"-0.001": 22.7798286348,
			"0.0": 18.5629418799,
			"0.001": 12.2811490081,
			"0.002": 10.4718695478,
			"0.003": 9.89121444597,
			"0.004": 13.5580389212,
			"0.005": 7.76975802945,
			"0.006": 7.76498479435,
			"0.007": 4.63497002262,
			"0.008": 3.75601651094,
			"0.009": 4.35102627404,
			"0.01": 3.34212344242,
			"0.011": 3.96836134352,
			"0.012": 5.73730713993,
			"0.013": 3.92198368828,
			"0.014": 0.552732509313,
			"0.015": 0.0,
			"0.016": 0.0,
			"0.017": 0.0,
			"0.018": 0.0,
			"0.019": 0.0,
			"0.02": 0.0,
			"0.021": 0.0,
			"0.022": 0.0,
			"0.023": 0.0,
			"0.024": 0.0,
			"0.025": 0.0
		}
	}
}
