{
	 "smiles": "NC(=S)NC1=CC=CC=C1", 
	 "Tm": 425.15, 
	 "num_atms": 18, 
	 "gaussian": { 
		 "optdone": 1, 
		 "sigma_profile": "yes", 
		 "theory": "DFT", 
		 "functional": "B3LYP", 
		 "basiset": "6-31G**", 
		 "properties": { 
			 "R2extent": 2824.8469, 
			 "electric_dipole_moment_norm": 4.78690356389, 
			 "electric_quadrupole_moment_norm": 23.4124769318, 
			 "total_energy": -779.268268197, 
			 "HOMO_LUMO_gap": 0.17854, 
			 "cosmo_polarized_energy": -19.06, 
			 "cosmo_cavitation_energy": 23.52, 
			 "cosmo_dispersion_energy": -18.07, 
			 "cosmo_repulsion_energy": 1.43, 
			 "cosmo_total_nonelectrostatic_energy": 6.88, 
			 "SMD_solvation_energy": 3.25 
		},
		"coords": [
			{
				"x": -0.3102770528,
				"y": 0.0417419403,
				"z": -4.842643152,
				"element": "N" 
			},
			{
				"x": -0.5703648714,
				"y": -0.443822417,
				"z": -3.581425127,
				"element": "C" 
			},
			{
				"x": -1.810628764,
				"y": -1.5397654538,
				"z": -3.3287692882,
				"element": "S" 
			},
			{
				"x": 0.3193026089,
				"y": 0.0339293204,
				"z": -2.6552294669,
				"element": "N" 
			},
			{
				"x": 0.4210062055,
				"y": -0.1656918836,
				"z": -1.2574852699,
				"element": "C" 
			},
			{
				"x": 1.6919695749,
				"y": 0.010449524,
				"z": -0.6884732674,
				"element": "C" 
			},
			{
				"x": 1.8745890136,
				"y": -0.1140715337,
				"z": 0.6861821846,
				"element": "C" 
			},
			{
				"x": 0.7922964826,
				"y": -0.4208936944,
				"z": 1.5124329329,
				"element": "C" 
			},
			{
				"x": -0.4709968829,
				"y": -0.5916865611,
				"z": 0.9446016051,
				"element": "C" 
			},
			{
				"x": -0.6700399709,
				"y": -0.4621411246,
				"z": -0.4299192077,
				"element": "C" 
			},
			{
				"x": -1.0040196787,
				"y": -0.2041298472,
				"z": -5.5329784279,
				"element": "H" 
			},
			{
				"x": 0.0995842227,
				"y": 0.961572217,
				"z": -4.9440991419,
				"element": "H" 
			},
			{
				"x": 1.1382332575,
				"y": 0.4780162277,
				"z": -3.0512303528,
				"element": "H" 
			},
			{
				"x": 2.541214235,
				"y": 0.239830154,
				"z": -1.3289670609,
				"element": "H" 
			},
			{
				"x": 2.8659116716,
				"y": 0.0239307823,
				"z": 1.1077984475,
				"element": "H" 
			},
			{
				"x": 0.9319476308,
				"y": -0.5241677409,
				"z": 2.5841065696,
				"element": "H" 
			},
			{
				"x": -1.3227064441,
				"y": -0.8254415091,
				"z": 1.5768530722,
				"element": "H" 
			},
			{
				"x": -1.6514212384,
				"y": -0.5992584004,
				"z": -0.8612550494,
				"element": "H" 
			}
		],
		 "valence_orbital": [ 
			{
				"type": "occ",
				"energy": -0.30868,
				"method": "rhf"
			},
			{
				"type": "occ",
				"energy": -0.25409,
				"method": "rhf"
			},
			{
				"type": "occ",
				"energy": -0.23908,
				"method": "rhf"
			},
			{
				"type": "occ",
				"energy": -0.21431,
				"method": "rhf"
			},
			{
				"type": "occ",
				"energy": -0.20634,
				"method": "rhf"
			},
			{
				"type": "unocc",
				"energy": -0.0278,
				"method": "rhf"
			},
			{
				"type": "unocc",
				"energy": -0.00361,
				"method": "rhf"
			},
			{
				"type": "unocc",
				"energy": 0.02212,
				"method": "rhf"
			},
			{
				"type": "unocc",
				"energy": 0.05126,
				"method": "rhf"
			},
			{
				"type": "unocc",
				"energy": 0.08255,
				"method": "rhf"
			}
		],
		"cosmo_sigma_profile": { 
			"-0.025": 0.0,
			"-0.024": 0.0,
			"-0.023": 0.0,
			"-0.022": 0.0,
			"-0.021": 0.0,
			"-0.02": 0.0,
			"-0.019": 0.0,
			"-0.018": 0.152745169932,
			"-0.017": 1.33643320348,
			"-0.016": 2.02674250657,
			"-0.015": 2.64770053101,
			"-0.014": 2.71214493816,
			"-0.013": 3.18149386684,
			"-0.012": 3.18780688008,
			"-0.011": 3.47386678085,
			"-0.01": 2.55198258628,
			"-0.009": 2.63874568115,
			"-0.008": 1.95155476829,
			"-0.007": 2.87130388858,
			"-0.006": 6.95052006882,
			"-0.005": 9.17259038806,
			"-0.004": 10.6381697628,
			"-0.003": 11.6505205214,
			"-0.002": 7.03373395975,
			"-0.001": 8.57589889016,
			"0.0": 9.27067187064,
			"0.001": 9.7365123327,
			"0.002": 10.7300460179,
			"0.003": 10.4945516249,
			"0.004": 12.2878904574,
			"0.005": 15.1533818527,
			"0.006": 9.73411356246,
			"0.007": 6.20291428658,
			"0.008": 5.16959408073,
			"0.009": 5.37862467151,
			"0.01": 5.65788692431,
			"0.011": 5.55115401316,
			"0.012": 2.1254828028,
			"0.013": 0.0,
			"0.014": 0.0,
			"0.015": 0.0,
			"0.016": 0.0,
			"0.017": 0.0,
			"0.018": 0.0,
			"0.019": 0.0,
			"0.02": 0.0,
			"0.021": 0.0,
			"0.022": 0.0,
			"0.023": 0.0,
			"0.024": 0.0,
			"0.025": 0.0
		}
	}
}
