{
	 "smiles": "C[Si](C)(Cl)O[Si](C)(C)Cl", 
	 "Tm": 235.65, 
	 "num_atms": 21, 
	 "gaussian": { 
		 "optdone": 1, 
		 "sigma_profile": "yes", 
		 "theory": "DFT", 
		 "functional": "B3LYP", 
		 "basiset": "6-31G**", 
		 "properties": { 
			 "R2extent": 3314.9947, 
			 "electric_dipole_moment_norm": 2.70005120137, 
			 "electric_quadrupole_moment_norm": 11.0194266943, 
			 "total_energy": -1734.52755818, 
			 "HOMO_LUMO_gap": 0.33943, 
			 "cosmo_polarized_energy": -6.02, 
			 "cosmo_cavitation_energy": 31.17, 
			 "cosmo_dispersion_energy": -17.24, 
			 "cosmo_repulsion_energy": 1.66, 
			 "cosmo_total_nonelectrostatic_energy": 15.59, 
			 "SMD_solvation_energy": 6.33 
		},
		"coords": [
			{
				"x": -0.6746925017,
				"y": 2.7985391133,
				"z": -1.1232914923,
				"element": "C" 
			},
			{
				"x": 0.6962398928,
				"y": 1.5962831199,
				"z": -0.717720753,
				"element": "Si" 
			},
			{
				"x": 2.4125859824,
				"y": 2.2380509829,
				"z": -1.0798584266,
				"element": "C" 
			},
			{
				"x": 0.4005159654,
				"y": -0.1293676959,
				"z": -1.8824500003,
				"element": "Cl" 
			},
			{
				"x": 0.5533614825,
				"y": 1.1707386853,
				"z": 0.8728044558,
				"element": "O" 
			},
			{
				"x": 0.932994238,
				"y": 0.2080016429,
				"z": 2.1613216616,
				"element": "Si" 
			},
			{
				"x": 0.2665569295,
				"y": -1.5195207329,
				"z": 1.9157235859,
				"element": "C" 
			},
			{
				"x": 0.3286933816,
				"y": 1.0508634382,
				"z": 3.7149540208,
				"element": "C" 
			},
			{
				"x": 3.0281894067,
				"y": 0.0729158313,
				"z": 2.2790951316,
				"element": "Cl" 
			},
			{
				"x": -0.5734210043,
				"y": 3.7072350489,
				"z": -0.5198291555,
				"element": "H" 
			},
			{
				"x": -1.653902615,
				"y": 2.3582550724,
				"z": -0.9139139086,
				"element": "H" 
			},
			{
				"x": -0.6481019983,
				"y": 3.0839650753,
				"z": -2.1795055152,
				"element": "H" 
			},
			{
				"x": 2.5246244505,
				"y": 2.4865660556,
				"z": -2.1398573409,
				"element": "H" 
			},
			{
				"x": 2.6119033937,
				"y": 3.1405758947,
				"z": -0.4916876918,
				"element": "H" 
			},
			{
				"x": 3.1689551764,
				"y": 1.492465945,
				"z": -0.8188439725,
				"element": "H" 
			},
			{
				"x": 0.6531943881,
				"y": -1.9566186314,
				"z": 0.9907447588,
				"element": "H" 
			},
			{
				"x": 0.5464882765,
				"y": -2.1718762438,
				"z": 2.7487780291,
				"element": "H" 
			},
			{
				"x": -0.8266386468,
				"y": -1.4982362664,
				"z": 1.847336005,
				"element": "H" 
			},
			{
				"x": 0.5888268588,
				"y": 0.4691867592,
				"z": 4.6047543823,
				"element": "H" 
			},
			{
				"x": 0.772145449,
				"y": 2.0456323896,
				"z": 3.8165682796,
				"element": "H" 
			},
			{
				"x": -0.7605185059,
				"y": 1.1645445159,
				"z": 3.6858779462,
				"element": "H" 
			}
		],
		 "valence_orbital": [ 
			{
				"type": "occ",
				"energy": -0.32347,
				"method": "rhf"
			},
			{
				"type": "occ",
				"energy": -0.31297,
				"method": "rhf"
			},
			{
				"type": "occ",
				"energy": -0.31068,
				"method": "rhf"
			},
			{
				"type": "occ",
				"energy": -0.29455,
				"method": "rhf"
			},
			{
				"type": "occ",
				"energy": -0.29383,
				"method": "rhf"
			},
			{
				"type": "unocc",
				"energy": 0.0456,
				"method": "rhf"
			},
			{
				"type": "unocc",
				"energy": 0.05555,
				"method": "rhf"
			},
			{
				"type": "unocc",
				"energy": 0.05803,
				"method": "rhf"
			},
			{
				"type": "unocc",
				"energy": 0.06962,
				"method": "rhf"
			},
			{
				"type": "unocc",
				"energy": 0.07379,
				"method": "rhf"
			}
		],
		"cosmo_sigma_profile": { 
			"-0.025": 0.0,
			"-0.024": 0.0,
			"-0.023": 0.0,
			"-0.022": 0.0,
			"-0.021": 0.0,
			"-0.02": 0.0,
			"-0.019": 0.0,
			"-0.018": 0.0,
			"-0.017": 0.0,
			"-0.016": 0.0,
			"-0.015": 0.0,
			"-0.014": 0.0,
			"-0.013": 0.0,
			"-0.012": 0.0,
			"-0.011": 0.0,
			"-0.01": 0.0,
			"-0.009": 0.0,
			"-0.008": 0.0,
			"-0.007": 0.0,
			"-0.006": 2.98243740432,
			"-0.005": 20.6483638188,
			"-0.004": 22.2127687271,
			"-0.003": 21.0080258845,
			"-0.002": 24.5279967021,
			"-0.001": 24.9060609014,
			"0.0": 26.0086631785,
			"0.001": 19.7492833353,
			"0.002": 15.8146277825,
			"0.003": 12.2047505135,
			"0.004": 13.5059012721,
			"0.005": 16.1725117345,
			"0.006": 18.003760914,
			"0.007": 2.40667123443,
			"0.008": 0.0,
			"0.009": 0.0,
			"0.01": 0.0,
			"0.011": 0.0,
			"0.012": 0.0,
			"0.013": 0.0,
			"0.014": 0.0,
			"0.015": 0.0,
			"0.016": 0.0,
			"0.017": 0.0,
			"0.018": 0.0,
			"0.019": 0.0,
			"0.02": 0.0,
			"0.021": 0.0,
			"0.022": 0.0,
			"0.023": 0.0,
			"0.024": 0.0,
			"0.025": 0.0
		}
	}
}
