{
	 "smiles": "CCCCOC(=O)C1=C(C)NC(=O)NC1C1=CC=CO1", 
	 "Tm": 443.15, 
	 "num_atms": 38, 
	 "gaussian": { 
		 "optdone": 1, 
		 "sigma_profile": "yes", 
		 "theory": "DFT", 
		 "functional": "B3LYP", 
		 "basiset": "6-31G**", 
		 "properties": { 
			 "R2extent": 6299.8344, 
			 "electric_dipole_moment_norm": 3.88262509522, 
			 "electric_quadrupole_moment_norm": 18.3148533175, 
			 "total_energy": -954.750707423, 
			 "HOMO_LUMO_gap": 0.18189, 
			 "cosmo_polarized_energy": -17.65, 
			 "cosmo_cavitation_energy": 41.4, 
			 "cosmo_dispersion_energy": -27.24, 
			 "cosmo_repulsion_energy": 2.12, 
			 "cosmo_total_nonelectrostatic_energy": 16.28, 
			 "SMD_solvation_energy": 8.55 
		},
		"coords": [
			{
				"x": -2.7891632619,
				"y": -1.3486591565,
				"z": 0.6859734892,
				"element": "C" 
			},
			{
				"x": -3.9063114667,
				"y": -0.7237617094,
				"z": -0.1593350099,
				"element": "C" 
			},
			{
				"x": -3.441000622,
				"y": -0.0084862276,
				"z": -1.4390635945,
				"element": "C" 
			},
			{
				"x": -2.7199471206,
				"y": 1.3243600444,
				"z": -1.2452601963,
				"element": "C" 
			},
			{
				"x": -1.4248175764,
				"y": 1.1956037291,
				"z": -0.6046167922,
				"element": "O" 
			},
			{
				"x": -0.384365676,
				"y": 0.8733945262,
				"z": -1.4177038376,
				"element": "C" 
			},
			{
				"x": -0.532320347,
				"y": 0.6663010364,
				"z": -2.6118013559,
				"element": "O" 
			},
			{
				"x": 0.9271769112,
				"y": 0.7651564924,
				"z": -0.7533935142,
				"element": "C" 
			},
			{
				"x": 1.2783872741,
				"y": 1.1880478578,
				"z": 0.4935449489,
				"element": "C" 
			},
			{
				"x": 0.4163687189,
				"y": 1.8456801741,
				"z": 1.5371975242,
				"element": "C" 
			},
			{
				"x": 2.5946562612,
				"y": 1.0314753973,
				"z": 0.902892955,
				"element": "N" 
			},
			{
				"x": 3.6874379795,
				"y": 0.8053557859,
				"z": 0.0521023301,
				"element": "C" 
			},
			{
				"x": 4.8346566452,
				"y": 0.8761348194,
				"z": 0.4637671754,
				"element": "O" 
			},
			{
				"x": 3.3219573854,
				"y": 0.5760599572,
				"z": -1.2445101731,
				"element": "N" 
			},
			{
				"x": 1.9821356631,
				"y": 0.0928281959,
				"z": -1.6175034433,
				"element": "C" 
			},
			{
				"x": 1.8838164936,
				"y": -1.4088754505,
				"z": -1.5508917004,
				"element": "C" 
			},
			{
				"x": 1.2822078152,
				"y": -2.2980476839,
				"z": -0.7092957409,
				"element": "C" 
			},
			{
				"x": 1.6244431373,
				"y": -3.6073061799,
				"z": -1.1862936415,
				"element": "C" 
			},
			{
				"x": 2.4117811795,
				"y": -3.4178921551,
				"z": -2.2791000239,
				"element": "C" 
			},
			{
				"x": 2.5797792668,
				"y": -2.0849565128,
				"z": -2.5186007049,
				"element": "O" 
			},
			{
				"x": -2.1058059997,
				"y": -0.5899670581,
				"z": 1.0755681293,
				"element": "H" 
			},
			{
				"x": -2.1968412326,
				"y": -2.0530399727,
				"z": 0.0902965325,
				"element": "H" 
			},
			{
				"x": -3.2058745318,
				"y": -1.8998490998,
				"z": 1.5357632386,
				"element": "H" 
			},
			{
				"x": -4.6092068229,
				"y": -1.5139946891,
				"z": -0.452041552,
				"element": "H" 
			},
			{
				"x": -4.4855245435,
				"y": -0.021299465,
				"z": 0.4565670134,
				"element": "H" 
			},
			{
				"x": -4.3214774356,
				"y": 0.2134170373,
				"z": -2.0575038212,
				"element": "H" 
			},
			{
				"x": -2.8046735818,
				"y": -0.6672442698,
				"z": -2.0402986269,
				"element": "H" 
			},
			{
				"x": -3.2832731813,
				"y": 1.9819690239,
				"z": -0.5763938104,
				"element": "H" 
			},
			{
				"x": -2.5797107018,
				"y": 1.8202648547,
				"z": -2.2083322903,
				"element": "H" 
			},
			{
				"x": 0.8923681991,
				"y": 2.772924214,
				"z": 1.8765219764,
				"element": "H" 
			},
			{
				"x": 0.3240796934,
				"y": 1.1864462758,
				"z": 2.4093177525,
				"element": "H" 
			},
			{
				"x": -0.5779696839,
				"y": 2.0645957547,
				"z": 1.1635666571,
				"element": "H" 
			},
			{
				"x": 2.8675914371,
				"y": 1.3457932738,
				"z": 1.8231901238,
				"element": "H" 
			},
			{
				"x": 4.0924083248,
				"y": 0.2940039708,
				"z": -1.835275186,
				"element": "H" 
			},
			{
				"x": 1.8088422402,
				"y": 0.3895540886,
				"z": -2.655535254,
				"element": "H" 
			},
			{
				"x": 0.666422857,
				"y": -2.0514046556,
				"z": 0.1428223255,
				"element": "H" 
			},
			{
				"x": 1.3210477743,
				"y": -4.5566647532,
				"z": -0.7688803178,
				"element": "H" 
			},
			{
				"x": 2.9050185287,
				"y": -4.0858174705,
				"z": -2.9681615848,
				"element": "H" 
			}
		],
		 "valence_orbital": [ 
			{
				"type": "occ",
				"energy": -0.27438,
				"method": "rhf"
			},
			{
				"type": "occ",
				"energy": -0.2718,
				"method": "rhf"
			},
			{
				"type": "occ",
				"energy": -0.25646,
				"method": "rhf"
			},
			{
				"type": "occ",
				"energy": -0.23269,
				"method": "rhf"
			},
			{
				"type": "occ",
				"energy": -0.22162,
				"method": "rhf"
			},
			{
				"type": "unocc",
				"energy": -0.03973,
				"method": "rhf"
			},
			{
				"type": "unocc",
				"energy": 0.01105,
				"method": "rhf"
			},
			{
				"type": "unocc",
				"energy": 0.05032,
				"method": "rhf"
			},
			{
				"type": "unocc",
				"energy": 0.06891,
				"method": "rhf"
			},
			{
				"type": "unocc",
				"energy": 0.07676,
				"method": "rhf"
			}
		],
		"cosmo_sigma_profile": { 
			"-0.025": 0.0,
			"-0.024": 0.0,
			"-0.023": 0.0,
			"-0.022": 0.0,
			"-0.021": 0.0,
			"-0.02": 0.0,
			"-0.019": 0.0,
			"-0.018": 0.0,
			"-0.017": 0.0,
			"-0.016": 0.0962675368976,
			"-0.015": 0.822853783558,
			"-0.014": 1.3090346533,
			"-0.013": 2.63158183394,
			"-0.012": 1.5464015462,
			"-0.011": 1.31901451415,
			"-0.01": 2.55307555,
			"-0.009": 3.60811310454,
			"-0.008": 3.83092881125,
			"-0.007": 5.98776537607,
			"-0.006": 9.87958631278,
			"-0.005": 13.8592762551,
			"-0.004": 19.65719791,
			"-0.003": 24.023156928,
			"-0.002": 32.5133865014,
			"-0.001": 39.9934472052,
			"0.0": 36.4837565812,
			"0.001": 29.2332465904,
			"0.002": 21.3292834754,
			"0.003": 13.2534914554,
			"0.004": 11.6188731068,
			"0.005": 10.1678741254,
			"0.006": 7.79140204812,
			"0.007": 4.68150418514,
			"0.008": 3.09620514715,
			"0.009": 2.3742250694,
			"0.01": 2.92686745431,
			"0.011": 3.48214263012,
			"0.012": 5.6753199875,
			"0.013": 7.37787249383,
			"0.014": 3.21695246088,
			"0.015": 0.0480110995917,
			"0.016": 0.0,
			"0.017": 0.0,
			"0.018": 0.0,
			"0.019": 0.0,
			"0.02": 0.0,
			"0.021": 0.0,
			"0.022": 0.0,
			"0.023": 0.0,
			"0.024": 0.0,
			"0.025": 0.0
		}
	}
}
