{
	 "smiles": "FC1=C(F)C=C(OCC2CNCCO2)C=C1", 
	 "Tm": 323.15, 
	 "num_atms": 29, 
	 "gaussian": { 
		 "optdone": 1, 
		 "sigma_profile": "yes", 
		 "theory": "DFT", 
		 "functional": "B3LYP", 
		 "basiset": "6-31G**", 
		 "properties": { 
			 "R2extent": 5843.5298, 
			 "electric_dipole_moment_norm": 4.16200254084, 
			 "electric_quadrupole_moment_norm": 11.3687487368, 
			 "total_energy": -831.824769517, 
			 "HOMO_LUMO_gap": 0.20713, 
			 "cosmo_polarized_energy": -9.33, 
			 "cosmo_cavitation_energy": 32.45, 
			 "cosmo_dispersion_energy": -23.55, 
			 "cosmo_repulsion_energy": 1.8, 
			 "cosmo_total_nonelectrostatic_energy": 10.69, 
			 "SMD_solvation_energy": 4.76 
		},
		"coords": [
			{
				"x": 0.4008796955,
				"y": 3.5879202505,
				"z": 4.7153224715,
				"element": "F" 
			},
			{
				"x": 0.5228487166,
				"y": 3.0328852295,
				"z": 3.4936204702,
				"element": "C" 
			},
			{
				"x": -0.1484156977,
				"y": 1.8493005638,
				"z": 3.2071738583,
				"element": "C" 
			},
			{
				"x": -0.9105787886,
				"y": 1.2812977008,
				"z": 4.1588988134,
				"element": "F" 
			},
			{
				"x": -0.0523662563,
				"y": 1.2452088449,
				"z": 1.9578152807,
				"element": "C" 
			},
			{
				"x": 0.7427153316,
				"y": 1.8459984502,
				"z": 0.9718850344,
				"element": "C" 
			},
			{
				"x": 0.9320055663,
				"y": 1.3480457179,
				"z": -0.2856832843,
				"element": "O" 
			},
			{
				"x": 0.3053964911,
				"y": 0.1237830222,
				"z": -0.6715153345,
				"element": "C" 
			},
			{
				"x": -1.1427535088,
				"y": 0.3325729592,
				"z": -1.1257862357,
				"element": "C" 
			},
			{
				"x": -1.2123571187,
				"y": 1.1049717171,
				"z": -2.4566737211,
				"element": "C" 
			},
			{
				"x": -0.901337411,
				"y": 0.1656891492,
				"z": -3.5265159726,
				"element": "N" 
			},
			{
				"x": -1.9261535652,
				"y": -0.8773487002,
				"z": -3.6792442689,
				"element": "C" 
			},
			{
				"x": -2.6023507565,
				"y": -1.1264231834,
				"z": -2.3187152836,
				"element": "C" 
			},
			{
				"x": -1.6763659189,
				"y": -0.9905564607,
				"z": -1.2511992392,
				"element": "O" 
			},
			{
				"x": 1.4206262917,
				"y": 3.0405725443,
				"z": 1.2581099133,
				"element": "C" 
			},
			{
				"x": 1.3088507928,
				"y": 3.6290788323,
				"z": 2.5144176757,
				"element": "C" 
			},
			{
				"x": -0.6038011662,
				"y": 0.3286534738,
				"z": 1.7927328266,
				"element": "H" 
			},
			{
				"x": 0.8830892362,
				"y": -0.2510175799,
				"z": -1.5190248111,
				"element": "H" 
			},
			{
				"x": 0.3461471563,
				"y": -0.6178421909,
				"z": 0.1332145825,
				"element": "H" 
			},
			{
				"x": -1.7033402576,
				"y": 0.8869250277,
				"z": -0.3568054387,
				"element": "H" 
			},
			{
				"x": -0.4605697215,
				"y": 1.9000664551,
				"z": -2.4350955709,
				"element": "H" 
			},
			{
				"x": -2.1972241074,
				"y": 1.5958967126,
				"z": -2.5581772894,
				"element": "H" 
			},
			{
				"x": -0.7301105747,
				"y": 0.6436761183,
				"z": -4.4036747575,
				"element": "H" 
			},
			{
				"x": -1.4422338358,
				"y": -1.7959056251,
				"z": -4.0331521939,
				"element": "H" 
			},
			{
				"x": -2.7120454787,
				"y": -0.6181300526,
				"z": -4.410323298,
				"element": "H" 
			},
			{
				"x": -2.992605539,
				"y": -2.1460840737,
				"z": -2.2634515008,
				"element": "H" 
			},
			{
				"x": -3.4525252799,
				"y": -0.4415149575,
				"z": -2.177823024,
				"element": "H" 
			},
			{
				"x": 2.0333969563,
				"y": 3.4884334005,
				"z": 0.4839764035,
				"element": "H" 
			},
			{
				"x": 1.8287787478,
				"y": 4.5513466541,
				"z": 2.7505938941,
				"element": "H" 
			}
		],
		 "valence_orbital": [ 
			{
				"type": "occ",
				"energy": -0.30899,
				"method": "rhf"
			},
			{
				"type": "occ",
				"energy": -0.26122,
				"method": "rhf"
			},
			{
				"type": "occ",
				"energy": -0.25356,
				"method": "rhf"
			},
			{
				"type": "occ",
				"energy": -0.22543,
				"method": "rhf"
			},
			{
				"type": "occ",
				"energy": -0.21677,
				"method": "rhf"
			},
			{
				"type": "unocc",
				"energy": -0.00964,
				"method": "rhf"
			},
			{
				"type": "unocc",
				"energy": 0.01247,
				"method": "rhf"
			},
			{
				"type": "unocc",
				"energy": 0.06572,
				"method": "rhf"
			},
			{
				"type": "unocc",
				"energy": 0.07512,
				"method": "rhf"
			},
			{
				"type": "unocc",
				"energy": 0.09815,
				"method": "rhf"
			}
		],
		"cosmo_sigma_profile": { 
			"-0.025": 0.0,
			"-0.024": 0.0,
			"-0.023": 0.0,
			"-0.022": 0.0,
			"-0.021": 0.0,
			"-0.02": 0.0,
			"-0.019": 0.0,
			"-0.018": 0.0,
			"-0.017": 0.0,
			"-0.016": 0.0,
			"-0.015": 0.0,
			"-0.014": 0.0,
			"-0.013": 0.0,
			"-0.012": 0.0,
			"-0.011": 0.394428345529,
			"-0.01": 1.34514710448,
			"-0.009": 1.59761641489,
			"-0.008": 3.75088005438,
			"-0.007": 5.27275737984,
			"-0.006": 7.28550882822,
			"-0.005": 12.7123440792,
			"-0.004": 19.2848295697,
			"-0.003": 31.0391573597,
			"-0.002": 23.4787574945,
			"-0.001": 20.6276917191,
			"0.0": 18.104412968,
			"0.001": 18.6916865289,
			"0.002": 19.0069055908,
			"0.003": 19.1261668429,
			"0.004": 26.6060277854,
			"0.005": 7.06192502791,
			"0.006": 3.03238914456,
			"0.007": 2.8644496093,
			"0.008": 3.69673547262,
			"0.009": 2.88422098984,
			"0.01": 2.85404704704,
			"0.011": 2.02944448386,
			"0.012": 1.44408951177,
			"0.013": 1.58292181518,
			"0.014": 0.239314353006,
			"0.015": 0.0966024684757,
			"0.016": 0.0,
			"0.017": 0.0,
			"0.018": 0.0,
			"0.019": 0.0,
			"0.02": 0.0,
			"0.021": 0.0,
			"0.022": 0.0,
			"0.023": 0.0,
			"0.024": 0.0,
			"0.025": 0.0
		}
	}
}
