{
	 "smiles": "NC1=CC(N2CCS(=O)(=O)CC2)=C(F)C=C1", 
	 "Tm": 455.15, 
	 "num_atms": 29, 
	 "gaussian": { 
		 "optdone": 1, 
		 "sigma_profile": "yes", 
		 "theory": "DFT", 
		 "functional": "B3LYP", 
		 "basiset": "6-31G**", 
		 "properties": { 
			 "R2extent": 4933.9344, 
			 "electric_dipole_moment_norm": 5.77970587573, 
			 "electric_quadrupole_moment_norm": 19.1776980378, 
			 "total_energy": -1146.79529966, 
			 "HOMO_LUMO_gap": 0.19282, 
			 "cosmo_polarized_energy": -21.18, 
			 "cosmo_cavitation_energy": 32.68, 
			 "cosmo_dispersion_energy": -24.43, 
			 "cosmo_repulsion_energy": 1.82, 
			 "cosmo_total_nonelectrostatic_energy": 10.06, 
			 "SMD_solvation_energy": 3.71 
		},
		"coords": [
			{
				"x": 1.3354267149,
				"y": 4.043317107,
				"z": -0.1949971511,
				"element": "N" 
			},
			{
				"x": 0.299415147,
				"y": 3.1255716823,
				"z": -0.4024830695,
				"element": "C" 
			},
			{
				"x": 0.4850941045,
				"y": 1.7722591917,
				"z": -0.0704612982,
				"element": "C" 
			},
			{
				"x": -0.5016381003,
				"y": 0.8025201614,
				"z": -0.3160858282,
				"element": "C" 
			},
			{
				"x": -0.3449861986,
				"y": -0.5397552932,
				"z": 0.0612428027,
				"element": "N" 
			},
			{
				"x": 0.7147157336,
				"y": -0.8652187117,
				"z": 1.0114205851,
				"element": "C" 
			},
			{
				"x": 0.573087579,
				"y": -2.2943057188,
				"z": 1.5328059795,
				"element": "C" 
			},
			{
				"x": 0.942471104,
				"y": -3.4978544547,
				"z": 0.2094254794,
				"element": "S" 
			},
			{
				"x": 2.4039857341,
				"y": -3.6454898213,
				"z": 0.1122173025,
				"element": "O" 
			},
			{
				"x": 0.0752777107,
				"y": -4.6720578758,
				"z": 0.3954781863,
				"element": "O" 
			},
			{
				"x": 0.3559355018,
				"y": -2.5583932197,
				"z": -1.2417184517,
				"element": "C" 
			},
			{
				"x": -0.7844405113,
				"y": -1.6136314702,
				"z": -0.846193534,
				"element": "C" 
			},
			{
				"x": -1.6988244953,
				"y": 1.2529537871,
				"z": -0.906911836,
				"element": "C" 
			},
			{
				"x": -2.7128922606,
				"y": 0.3660437869,
				"z": -1.1159379241,
				"element": "F" 
			},
			{
				"x": -1.8912568098,
				"y": 2.5754206355,
				"z": -1.2606154919,
				"element": "C" 
			},
			{
				"x": -0.8996059555,
				"y": 3.5233078964,
				"z": -1.010143239,
				"element": "C" 
			},
			{
				"x": 1.0387651999,
				"y": 5.0082460535,
				"z": -0.1418630679,
				"element": "H" 
			},
			{
				"x": 1.9675690549,
				"y": 3.8100722238,
				"z": 0.5586746087,
				"element": "H" 
			},
			{
				"x": 1.4339736455,
				"y": 1.4741764219,
				"z": 0.3617386985,
				"element": "H" 
			},
			{
				"x": 1.7271815877,
				"y": -0.7447927051,
				"z": 0.5884042982,
				"element": "H" 
			},
			{
				"x": 0.6448871639,
				"y": -0.1740421227,
				"z": 1.8583334375,
				"element": "H" 
			},
			{
				"x": -0.4353081398,
				"y": -2.5014141438,
				"z": 1.8968141194,
				"element": "H" 
			},
			{
				"x": 1.3002302605,
				"y": -2.5044348657,
				"z": 2.3207147724,
				"element": "H" 
			},
			{
				"x": 0.0179850118,
				"y": -3.3143444397,
				"z": -1.955504424,
				"element": "H" 
			},
			{
				"x": 1.2150393864,
				"y": -2.023693535,
				"z": -1.6530461576,
				"element": "H" 
			},
			{
				"x": -1.5982293454,
				"y": -2.1979960884,
				"z": -0.3974269153,
				"element": "H" 
			},
			{
				"x": -1.1900210225,
				"y": -1.1669147144,
				"z": -1.7520172049,
				"element": "H" 
			},
			{
				"x": -2.838381816,
				"y": 2.8580132381,
				"z": -1.7083198731,
				"element": "H" 
			},
			{
				"x": -1.0574559854,
				"y": 4.5625369947,
				"z": -1.2826448037,
				"element": "H" 
			}
		],
		 "valence_orbital": [ 
			{
				"type": "occ",
				"energy": -0.2946,
				"method": "rhf"
			},
			{
				"type": "occ",
				"energy": -0.28393,
				"method": "rhf"
			},
			{
				"type": "occ",
				"energy": -0.27827,
				"method": "rhf"
			},
			{
				"type": "occ",
				"energy": -0.22226,
				"method": "rhf"
			},
			{
				"type": "occ",
				"energy": -0.19703,
				"method": "rhf"
			},
			{
				"type": "unocc",
				"energy": -0.00421,
				"method": "rhf"
			},
			{
				"type": "unocc",
				"energy": 0.01496,
				"method": "rhf"
			},
			{
				"type": "unocc",
				"energy": 0.05682,
				"method": "rhf"
			},
			{
				"type": "unocc",
				"energy": 0.06101,
				"method": "rhf"
			},
			{
				"type": "unocc",
				"energy": 0.07225,
				"method": "rhf"
			}
		],
		"cosmo_sigma_profile": { 
			"-0.025": 0.0,
			"-0.024": 0.0,
			"-0.023": 0.0,
			"-0.022": 0.0,
			"-0.021": 0.0,
			"-0.02": 0.0,
			"-0.019": 0.0,
			"-0.018": 0.0,
			"-0.017": 0.0,
			"-0.016": 0.0,
			"-0.015": 0.0,
			"-0.014": 0.0,
			"-0.013": 0.0292823915589,
			"-0.012": 2.13580522417,
			"-0.011": 2.63314057283,
			"-0.01": 2.99051677696,
			"-0.009": 5.35940067088,
			"-0.008": 11.8934005607,
			"-0.007": 16.0873705284,
			"-0.006": 22.3235280712,
			"-0.005": 23.1515358747,
			"-0.004": 17.0956998478,
			"-0.003": 13.6615547841,
			"-0.002": 9.06204205558,
			"-0.001": 7.04157961338,
			"0.0": 9.19632633806,
			"0.001": 8.42112027058,
			"0.002": 9.51762639915,
			"0.003": 11.9114958023,
			"0.004": 13.8683822652,
			"0.005": 17.312088109,
			"0.006": 11.8809449923,
			"0.007": 4.81107008862,
			"0.008": 2.88797337562,
			"0.009": 4.33891310279,
			"0.01": 4.9161359804,
			"0.011": 9.96705974999,
			"0.012": 11.6849253579,
			"0.013": 2.36301011078,
			"0.014": 0.586630235467,
			"0.015": 0.674508172533,
			"0.016": 0.0,
			"0.017": 0.0,
			"0.018": 0.0,
			"0.019": 0.0,
			"0.02": 0.0,
			"0.021": 0.0,
			"0.022": 0.0,
			"0.023": 0.0,
			"0.024": 0.0,
			"0.025": 0.0
		}
	}
}
