{
	 "smiles": "OC1=CC=CC=C1C(=O)NC1=CC=CC=C1", 
	 "Tm": 410.15, 
	 "num_atms": 27, 
	 "gaussian": { 
		 "optdone": 1, 
		 "sigma_profile": "yes", 
		 "theory": "DFT", 
		 "functional": "B3LYP", 
		 "basiset": "6-31G**", 
		 "properties": { 
			 "R2extent": 3724.7149, 
			 "electric_dipole_moment_norm": 2.64213489058, 
			 "electric_quadrupole_moment_norm": 14.4248522516, 
			 "total_energy": -707.222360293, 
			 "HOMO_LUMO_gap": 0.1806, 
			 "cosmo_polarized_energy": -12.72, 
			 "cosmo_cavitation_energy": 30.97, 
			 "cosmo_dispersion_energy": -22.04, 
			 "cosmo_repulsion_energy": 1.71, 
			 "cosmo_total_nonelectrostatic_energy": 10.65, 
			 "SMD_solvation_energy": 6.24 
		},
		"coords": [
			{
				"x": 1.2712962669,
				"y": 1.4744569811,
				"z": -0.0931457286,
				"element": "O" 
			},
			{
				"x": 0.341378898,
				"y": 1.241829691,
				"z": -1.0525727226,
				"element": "C" 
			},
			{
				"x": -0.6779301873,
				"y": 2.195853077,
				"z": -1.1838569087,
				"element": "C" 
			},
			{
				"x": -1.6478858219,
				"y": 2.0562523572,
				"z": -2.1685680271,
				"element": "C" 
			},
			{
				"x": -1.6134094251,
				"y": 0.9738079442,
				"z": -3.0577540868,
				"element": "C" 
			},
			{
				"x": -0.5990351283,
				"y": 0.0340716083,
				"z": -2.9389081524,
				"element": "C" 
			},
			{
				"x": 0.3714007613,
				"y": 0.130407857,
				"z": -1.92580769,
				"element": "C" 
			},
			{
				"x": 1.4495810703,
				"y": -0.8977189927,
				"z": -1.909930391,
				"element": "C" 
			},
			{
				"x": 1.8935225105,
				"y": -1.4027322027,
				"z": -2.9306940937,
				"element": "O" 
			},
			{
				"x": 2.0332049466,
				"y": -1.2229931011,
				"z": -0.668612658,
				"element": "N" 
			},
			{
				"x": 1.3446326208,
				"y": -1.5326203808,
				"z": 0.5495634455,
				"element": "C" 
			},
			{
				"x": 2.1018645487,
				"y": -1.5860961316,
				"z": 1.7277607824,
				"element": "C" 
			},
			{
				"x": 1.4934959032,
				"y": -1.9093334066,
				"z": 2.9387600093,
				"element": "C" 
			},
			{
				"x": 0.1215149696,
				"y": -2.1634321545,
				"z": 2.9913650689,
				"element": "C" 
			},
			{
				"x": -0.6310378877,
				"y": -2.1073416775,
				"z": 1.817887724,
				"element": "C" 
			},
			{
				"x": -0.0271129452,
				"y": -1.8080043852,
				"z": 0.5960480354,
				"element": "C" 
			},
			{
				"x": 1.9307007526,
				"y": 0.7610910639,
				"z": -0.1099017561,
				"element": "H" 
			},
			{
				"x": -0.6764303587,
				"y": 3.0410366299,
				"z": -0.5036808442,
				"element": "H" 
			},
			{
				"x": -2.4326402502,
				"y": 2.8029367365,
				"z": -2.2517436118,
				"element": "H" 
			},
			{
				"x": -2.3641897293,
				"y": 0.8749939783,
				"z": -3.8349493962,
				"element": "H" 
			},
			{
				"x": -0.5294566881,
				"y": -0.8039505973,
				"z": -3.6250321562,
				"element": "H" 
			},
			{
				"x": 2.8539810398,
				"y": -1.8000488561,
				"z": -0.8289623577,
				"element": "H" 
			},
			{
				"x": 3.166298165,
				"y": -1.369925166,
				"z": 1.6883264347,
				"element": "H" 
			},
			{
				"x": 2.0927068474,
				"y": -1.9516956468,
				"z": 3.8435109346,
				"element": "H" 
			},
			{
				"x": -0.3546081103,
				"y": -2.4061329738,
				"z": 3.9362866304,
				"element": "H" 
			},
			{
				"x": -1.6968631886,
				"y": -2.3143335946,
				"z": 1.8443977943,
				"element": "H" 
			},
			{
				"x": -0.6184795802,
				"y": -1.791178657,
				"z": -0.3118862786,
				"element": "H" 
			}
		],
		 "valence_orbital": [ 
			{
				"type": "occ",
				"energy": -0.2723,
				"method": "rhf"
			},
			{
				"type": "occ",
				"energy": -0.26267,
				"method": "rhf"
			},
			{
				"type": "occ",
				"energy": -0.2524,
				"method": "rhf"
			},
			{
				"type": "occ",
				"energy": -0.23656,
				"method": "rhf"
			},
			{
				"type": "occ",
				"energy": -0.22609,
				"method": "rhf"
			},
			{
				"type": "unocc",
				"energy": -0.04549,
				"method": "rhf"
			},
			{
				"type": "unocc",
				"energy": -0.01572,
				"method": "rhf"
			},
			{
				"type": "unocc",
				"energy": -0.00624,
				"method": "rhf"
			},
			{
				"type": "unocc",
				"energy": 0.00613,
				"method": "rhf"
			},
			{
				"type": "unocc",
				"energy": 0.04299,
				"method": "rhf"
			}
		],
		"cosmo_sigma_profile": { 
			"-0.025": 0.0,
			"-0.024": 0.0,
			"-0.023": 0.0,
			"-0.022": 0.0,
			"-0.021": 0.0,
			"-0.02": 0.0,
			"-0.019": 0.0,
			"-0.018": 0.0,
			"-0.017": 0.0,
			"-0.016": 0.0,
			"-0.015": 0.0501200761795,
			"-0.014": 0.931446737701,
			"-0.013": 0.791137265773,
			"-0.012": 1.13482119584,
			"-0.011": 1.17685484011,
			"-0.01": 1.52315010088,
			"-0.009": 3.25351516714,
			"-0.008": 2.44253045524,
			"-0.007": 4.19587868719,
			"-0.006": 16.486982913,
			"-0.005": 22.1676494462,
			"-0.004": 21.5055695425,
			"-0.003": 17.5113058837,
			"-0.002": 16.0755618741,
			"-0.001": 11.8696534797,
			"0.0": 11.589939885,
			"0.001": 15.2506010706,
			"0.002": 16.4848654112,
			"0.003": 18.7967807713,
			"0.004": 20.2903737492,
			"0.005": 16.9723498794,
			"0.006": 4.1813528987,
			"0.007": 2.7816591483,
			"0.008": 2.80736286514,
			"0.009": 2.97682440543,
			"0.01": 3.62464130095,
			"0.011": 3.79595789486,
			"0.012": 4.88920889603,
			"0.013": 2.47056166087,
			"0.014": 0.0306006776087,
			"0.015": 0.0,
			"0.016": 0.0,
			"0.017": 0.0,
			"0.018": 0.0,
			"0.019": 0.0,
			"0.02": 0.0,
			"0.021": 0.0,
			"0.022": 0.0,
			"0.023": 0.0,
			"0.024": 0.0,
			"0.025": 0.0
		}
	}
}
