{
	 "smiles": "CCCCCC(C)C", 
	 "Tm": 166.15, 
	 "num_atms": 26, 
	 "gaussian": { 
		 "optdone": 1, 
		 "sigma_profile": "yes", 
		 "theory": "DFT", 
		 "functional": "B3LYP", 
		 "basiset": "6-31G**", 
		 "properties": { 
			 "R2extent": 1893.0361, 
			 "electric_dipole_moment_norm": 0.0607902952781, 
			 "electric_quadrupole_moment_norm": 0.760010631505, 
			 "total_energy": -315.73019282, 
			 "HOMO_LUMO_gap": 0.38197, 
			 "cosmo_polarized_energy": -0.68, 
			 "cosmo_cavitation_energy": 26.42, 
			 "cosmo_dispersion_energy": -18.79, 
			 "cosmo_repulsion_energy": 1.59, 
			 "cosmo_total_nonelectrostatic_energy": 9.23, 
			 "SMD_solvation_energy": 4.26 
		},
		"coords": [
			{
				"x": 3.9824856257,
				"y": 0.3814274757,
				"z": -1.8795619785,
				"element": "C" 
			},
			{
				"x": 3.1368159053,
				"y": 0.6043672824,
				"z": -0.6217183035,
				"element": "C" 
			},
			{
				"x": 1.6267002716,
				"y": 0.5456255976,
				"z": -0.8871888233,
				"element": "C" 
			},
			{
				"x": 0.780273678,
				"y": 0.7666705967,
				"z": 0.3741827717,
				"element": "C" 
			},
			{
				"x": -0.7380396745,
				"y": 0.8200100394,
				"z": 0.1317216258,
				"element": "C" 
			},
			{
				"x": -1.3959180591,
				"y": -0.4601725976,
				"z": -0.4247934635,
				"element": "C" 
			},
			{
				"x": -2.8835126511,
				"y": -0.2077982401,
				"z": -0.7139714722,
				"element": "C" 
			},
			{
				"x": -1.2263419747,
				"y": -1.6627582996,
				"z": 0.5158202915,
				"element": "C" 
			},
			{
				"x": 3.7663814894,
				"y": 1.1389567376,
				"z": -2.6417462863,
				"element": "H" 
			},
			{
				"x": 5.0535883807,
				"y": 0.4304541013,
				"z": -1.6571956809,
				"element": "H" 
			},
			{
				"x": 3.7802029714,
				"y": -0.5996430002,
				"z": -2.3246381113,
				"element": "H" 
			},
			{
				"x": 3.3880917208,
				"y": 1.5779416789,
				"z": -0.1789395629,
				"element": "H" 
			},
			{
				"x": 3.4002531417,
				"y": -0.14794555,
				"z": 0.1344498192,
				"element": "H" 
			},
			{
				"x": 1.3829235753,
				"y": -0.4255928534,
				"z": -1.3386305366,
				"element": "H" 
			},
			{
				"x": 1.3616393424,
				"y": 1.3033791901,
				"z": -1.6391559529,
				"element": "H" 
			},
			{
				"x": 1.016711695,
				"y": -0.012815798,
				"z": 1.1106633065,
				"element": "H" 
			},
			{
				"x": 1.0851754692,
				"y": 1.7141388149,
				"z": 0.8394299059,
				"element": "H" 
			},
			{
				"x": -0.9524458212,
				"y": 1.6482844822,
				"z": -0.558587543,
				"element": "H" 
			},
			{
				"x": -1.236792089,
				"y": 1.0795255194,
				"z": 1.0768912557,
				"element": "H" 
			},
			{
				"x": -0.9119826205,
				"y": -0.7082188443,
				"z": -1.3801975123,
				"element": "H" 
			},
			{
				"x": -3.4242825226,
				"y": 0.0427645633,
				"z": 0.2072107867,
				"element": "H" 
			},
			{
				"x": -3.0195908189,
				"y": 0.6236874653,
				"z": -1.4144047989,
				"element": "H" 
			},
			{
				"x": -3.3614002255,
				"y": -1.0931055276,
				"z": -1.1476665377,
				"element": "H" 
			},
			{
				"x": -1.6721920572,
				"y": -1.4563208948,
				"z": 1.4970124283,
				"element": "H" 
			},
			{
				"x": -1.7206186663,
				"y": -2.5516018135,
				"z": 0.1085566819,
				"element": "H" 
			},
			{
				"x": -0.173926086,
				"y": -1.9168601258,
				"z": 0.6762576907,
				"element": "H" 
			}
		],
		 "valence_orbital": [ 
			{
				"type": "occ",
				"energy": -0.32772,
				"method": "rhf"
			},
			{
				"type": "occ",
				"energy": -0.31991,
				"method": "rhf"
			},
			{
				"type": "occ",
				"energy": -0.31028,
				"method": "rhf"
			},
			{
				"type": "occ",
				"energy": -0.30303,
				"method": "rhf"
			},
			{
				"type": "occ",
				"energy": -0.30021,
				"method": "rhf"
			},
			{
				"type": "unocc",
				"energy": 0.08176,
				"method": "rhf"
			},
			{
				"type": "unocc",
				"energy": 0.10208,
				"method": "rhf"
			},
			{
				"type": "unocc",
				"energy": 0.11711,
				"method": "rhf"
			},
			{
				"type": "unocc",
				"energy": 0.12214,
				"method": "rhf"
			},
			{
				"type": "unocc",
				"energy": 0.12708,
				"method": "rhf"
			}
		],
		"cosmo_sigma_profile": { 
			"-0.025": 0.0,
			"-0.024": 0.0,
			"-0.023": 0.0,
			"-0.022": 0.0,
			"-0.021": 0.0,
			"-0.02": 0.0,
			"-0.019": 0.0,
			"-0.018": 0.0,
			"-0.017": 0.0,
			"-0.016": 0.0,
			"-0.015": 0.0,
			"-0.014": 0.0,
			"-0.013": 0.0,
			"-0.012": 0.0,
			"-0.011": 0.0,
			"-0.01": 0.0,
			"-0.009": 0.0,
			"-0.008": 0.0,
			"-0.007": 0.0,
			"-0.006": 0.0,
			"-0.005": 0.0,
			"-0.004": 0.0,
			"-0.003": 2.77113612814,
			"-0.002": 26.6919675989,
			"-0.001": 45.9865004641,
			"0.0": 49.8728394852,
			"0.001": 46.2030826025,
			"0.002": 28.4786000091,
			"0.003": 1.87916388293,
			"0.004": 0.0,
			"0.005": 0.0,
			"0.006": 0.0,
			"0.007": 0.0,
			"0.008": 0.0,
			"0.009": 0.0,
			"0.01": 0.0,
			"0.011": 0.0,
			"0.012": 0.0,
			"0.013": 0.0,
			"0.014": 0.0,
			"0.015": 0.0,
			"0.016": 0.0,
			"0.017": 0.0,
			"0.018": 0.0,
			"0.019": 0.0,
			"0.02": 0.0,
			"0.021": 0.0,
			"0.022": 0.0,
			"0.023": 0.0,
			"0.024": 0.0,
			"0.025": 0.0
		}
	}
}
