{
	 "smiles": "CC(C)(C)C(=O)N1CSCC1C(O)=O", 
	 "Tm": 392.15, 
	 "num_atms": 29, 
	 "gaussian": { 
		 "optdone": 1, 
		 "sigma_profile": "yes", 
		 "theory": "DFT", 
		 "functional": "B3LYP", 
		 "basiset": "6-31G**", 
		 "properties": { 
			 "R2extent": 3302.571, 
			 "electric_dipole_moment_norm": 6.245576477, 
			 "electric_quadrupole_moment_norm": 14.6155981208, 
			 "total_energy": -1030.62422569, 
			 "HOMO_LUMO_gap": 0.23984, 
			 "cosmo_polarized_energy": -18.66, 
			 "cosmo_cavitation_energy": 31.44, 
			 "cosmo_dispersion_energy": -22.37, 
			 "cosmo_repulsion_energy": 1.69, 
			 "cosmo_total_nonelectrostatic_energy": 10.76, 
			 "SMD_solvation_energy": 6.42 
		},
		"coords": [
			{
				"x": 2.0209218569,
				"y": 1.7059224478,
				"z": 2.3438990493,
				"element": "C" 
			},
			{
				"x": 2.2137510729,
				"y": 0.2767759445,
				"z": 1.7851160204,
				"element": "C" 
			},
			{
				"x": 3.0969541754,
				"y": 0.2975570841,
				"z": 0.5152164954,
				"element": "C" 
			},
			{
				"x": 2.9304512243,
				"y": -0.5627619294,
				"z": 2.8621593377,
				"element": "C" 
			},
			{
				"x": 0.8711095925,
				"y": -0.4374311028,
				"z": 1.4736508775,
				"element": "C" 
			},
			{
				"x": 0.5947246482,
				"y": -1.5047580456,
				"z": 2.0049122173,
				"element": "O" 
			},
			{
				"x": -0.0058661087,
				"y": 0.0626551024,
				"z": 0.4982862259,
				"element": "N" 
			},
			{
				"x": -0.0829241689,
				"y": 1.4531261001,
				"z": 0.0135378644,
				"element": "C" 
			},
			{
				"x": -1.4052693156,
				"y": 1.471647658,
				"z": -1.2479796798,
				"element": "S" 
			},
			{
				"x": -2.3261464454,
				"y": 0.2709793795,
				"z": -0.2103619459,
				"element": "C" 
			},
			{
				"x": -1.2582788162,
				"y": -0.7040121216,
				"z": 0.2998794712,
				"element": "C" 
			},
			{
				"x": -1.0993758015,
				"y": -1.8837236273,
				"z": -0.6854761944,
				"element": "C" 
			},
			{
				"x": 0.0949644812,
				"y": -2.0109749023,
				"z": -1.2848545278,
				"element": "O" 
			},
			{
				"x": -2.0191941082,
				"y": -2.6322858667,
				"z": -0.9078530544,
				"element": "O" 
			},
			{
				"x": 2.9785878545,
				"y": 2.066977306,
				"z": 2.7323220579,
				"element": "H" 
			},
			{
				"x": 1.6893575901,
				"y": 2.4284345144,
				"z": 1.5962819131,
				"element": "H" 
			},
			{
				"x": 1.3063898888,
				"y": 1.7156117019,
				"z": 3.1737694692,
				"element": "H" 
			},
			{
				"x": 3.2678235478,
				"y": -0.7178454534,
				"z": 0.1422746544,
				"element": "H" 
			},
			{
				"x": 2.6720872047,
				"y": 0.8921745306,
				"z": -0.2984930265,
				"element": "H" 
			},
			{
				"x": 4.0740251646,
				"y": 0.7294446191,
				"z": 0.7551728132,
				"element": "H" 
			},
			{
				"x": 3.9038941902,
				"y": -0.1134081327,
				"z": 3.083650168,
				"element": "H" 
			},
			{
				"x": 3.0841867864,
				"y": -1.590548793,
				"z": 2.5285653428,
				"element": "H" 
			},
			{
				"x": 2.347617947,
				"y": -0.6025899769,
				"z": 3.785571009,
				"element": "H" 
			},
			{
				"x": 0.8467520571,
				"y": 1.7794923427,
				"z": -0.4522402542,
				"element": "H" 
			},
			{
				"x": -0.3412968314,
				"y": 2.1424171192,
				"z": 0.8236920883,
				"element": "H" 
			},
			{
				"x": -2.8160470459,
				"y": 0.7929080845,
				"z": 0.6162583559,
				"element": "H" 
			},
			{
				"x": -3.076761356,
				"y": -0.2475427898,
				"z": -0.8064692641,
				"element": "H" 
			},
			{
				"x": -1.5615346134,
				"y": -1.1521255425,
				"z": 1.2487988372,
				"element": "H" 
			},
			{
				"x": 0.6512953286,
				"y": -1.2707156505,
				"z": -0.987386321,
				"element": "H" 
			}
		],
		 "valence_orbital": [ 
			{
				"type": "occ",
				"energy": -0.3112,
				"method": "rhf"
			},
			{
				"type": "occ",
				"energy": -0.29312,
				"method": "rhf"
			},
			{
				"type": "occ",
				"energy": -0.27149,
				"method": "rhf"
			},
			{
				"type": "occ",
				"energy": -0.25605,
				"method": "rhf"
			},
			{
				"type": "occ",
				"energy": -0.24997,
				"method": "rhf"
			},
			{
				"type": "unocc",
				"energy": -0.01013,
				"method": "rhf"
			},
			{
				"type": "unocc",
				"energy": -0.00557,
				"method": "rhf"
			},
			{
				"type": "unocc",
				"energy": 0.01137,
				"method": "rhf"
			},
			{
				"type": "unocc",
				"energy": 0.04204,
				"method": "rhf"
			},
			{
				"type": "unocc",
				"energy": 0.06596,
				"method": "rhf"
			}
		],
		"cosmo_sigma_profile": { 
			"-0.025": 0.0,
			"-0.024": 0.0,
			"-0.023": 0.0,
			"-0.022": 0.0,
			"-0.021": 0.0,
			"-0.02": 0.0,
			"-0.019": 0.0,
			"-0.018": 0.0,
			"-0.017": 0.0,
			"-0.016": 0.0,
			"-0.015": 0.0,
			"-0.014": 0.0,
			"-0.013": 0.0,
			"-0.012": 0.451951115932,
			"-0.011": 1.89100968144,
			"-0.01": 1.94136157434,
			"-0.009": 2.60260046075,
			"-0.008": 6.14455910959,
			"-0.007": 14.0283672076,
			"-0.006": 15.0020873377,
			"-0.005": 11.045129629,
			"-0.004": 19.4456481439,
			"-0.003": 22.7991489533,
			"-0.002": 19.4538231189,
			"-0.001": 17.1408398736,
			"0.0": 22.8887007237,
			"0.001": 14.7828390286,
			"0.002": 9.28903147359,
			"0.003": 8.97321796025,
			"0.004": 6.39222768712,
			"0.005": 6.03148908683,
			"0.006": 6.0142036262,
			"0.007": 5.35014496908,
			"0.008": 7.1235799112,
			"0.009": 6.09783434424,
			"0.01": 5.95755533377,
			"0.011": 6.65453435484,
			"0.012": 7.06250189622,
			"0.013": 3.14166480491,
			"0.014": 0.0771772313258,
			"0.015": 0.0,
			"0.016": 0.0,
			"0.017": 0.0,
			"0.018": 0.0,
			"0.019": 0.0,
			"0.02": 0.0,
			"0.021": 0.0,
			"0.022": 0.0,
			"0.023": 0.0,
			"0.024": 0.0,
			"0.025": 0.0
		}
	}
}
