{
	 "smiles": "OC(=O)C1=CC(=CC=C1N1CCOCC1)[N+]([O-])=O", 
	 "Tm": 442.15, 
	 "num_atms": 30, 
	 "gaussian": { 
		 "optdone": 1, 
		 "sigma_profile": "yes", 
		 "theory": "DFT", 
		 "functional": "B3LYP", 
		 "basiset": "6-31G**", 
		 "properties": { 
			 "R2extent": 5689.6997, 
			 "electric_dipole_moment_norm": 7.23754437085, 
			 "electric_quadrupole_moment_norm": 22.2992090954, 
			 "total_energy": -911.905254029, 
			 "HOMO_LUMO_gap": 0.16622, 
			 "cosmo_polarized_energy": -21.72, 
			 "cosmo_cavitation_energy": 33.38, 
			 "cosmo_dispersion_energy": -24.08, 
			 "cosmo_repulsion_energy": 1.82, 
			 "cosmo_total_nonelectrostatic_energy": 11.12, 
			 "SMD_solvation_energy": 8.98 
		},
		"coords": [
			{
				"x": -0.9498709547,
				"y": -1.5219957797,
				"z": 1.0750584597,
				"element": "O" 
			},
			{
				"x": -1.5672940433,
				"y": -0.3519867305,
				"z": 1.2707506754,
				"element": "C" 
			},
			{
				"x": -2.6668981061,
				"y": -0.2747108824,
				"z": 1.7728654138,
				"element": "O" 
			},
			{
				"x": -0.8075338102,
				"y": 0.8937188309,
				"z": 0.8456710788,
				"element": "C" 
			},
			{
				"x": -1.3844206579,
				"y": 2.1133926498,
				"z": 1.2141354749,
				"element": "C" 
			},
			{
				"x": -0.7363837622,
				"y": 3.3012710567,
				"z": 0.9081544614,
				"element": "C" 
			},
			{
				"x": 0.483848671,
				"y": 3.3228341611,
				"z": 0.2345496378,
				"element": "C" 
			},
			{
				"x": 1.0525588215,
				"y": 2.1131213997,
				"z": -0.1443945199,
				"element": "C" 
			},
			{
				"x": 0.4241486666,
				"y": 0.8935626378,
				"z": 0.1540195982,
				"element": "C" 
			},
			{
				"x": 0.9983163701,
				"y": -0.3629814437,
				"z": -0.2613649771,
				"element": "N" 
			},
			{
				"x": 2.4615532059,
				"y": -0.5417073447,
				"z": -0.0318488904,
				"element": "C" 
			},
			{
				"x": 3.2460252267,
				"y": -0.6216645122,
				"z": -1.3396859291,
				"element": "C" 
			},
			{
				"x": 2.7982293266,
				"y": -1.6845490244,
				"z": -2.1709998934,
				"element": "O" 
			},
			{
				"x": 1.3982267809,
				"y": -1.9514638317,
				"z": -2.096766785,
				"element": "C" 
			},
			{
				"x": 0.5898972054,
				"y": -0.742839213,
				"z": -1.643865214,
				"element": "C" 
			},
			{
				"x": -1.3504058754,
				"y": 4.5804946065,
				"z": 1.3071982,
				"element": "N" 
			},
			{
				"x": -2.4294292095,
				"y": 4.5363522693,
				"z": 1.8917530821,
				"element": "O" 
			},
			{
				"x": -0.7391927168,
				"y": 5.6114682334,
				"z": 1.0266923605,
				"element": "O" 
			},
			{
				"x": -0.062763177,
				"y": -1.3263494726,
				"z": 0.6555651869,
				"element": "H" 
			},
			{
				"x": -2.3280800719,
				"y": 2.1117965745,
				"z": 1.7451211011,
				"element": "H" 
			},
			{
				"x": 0.9554234268,
				"y": 4.2716036253,
				"z": 0.0110000872,
				"element": "H" 
			},
			{
				"x": 1.9921915608,
				"y": 2.1149557399,
				"z": -0.6871235237,
				"element": "H" 
			},
			{
				"x": 2.8374775647,
				"y": 0.2748460489,
				"z": 0.5898221139,
				"element": "H" 
			},
			{
				"x": 2.6100917245,
				"y": -1.4715782999,
				"z": 0.5294585627,
				"element": "H" 
			},
			{
				"x": 4.3026953146,
				"y": -0.8120268278,
				"z": -1.1260770867,
				"element": "H" 
			},
			{
				"x": 3.1876305183,
				"y": 0.3379625241,
				"z": -1.8783313656,
				"element": "H" 
			},
			{
				"x": 1.2112731957,
				"y": -2.7928503292,
				"z": -1.4122115782,
				"element": "H" 
			},
			{
				"x": 1.0731046942,
				"y": -2.2570142652,
				"z": -3.0964116521,
				"element": "H" 
			},
			{
				"x": -0.4766433627,
				"y": -0.9882957808,
				"z": -1.6370238398,
				"element": "H" 
			},
			{
				"x": 0.7376234733,
				"y": 0.09253338,
				"z": -2.3430102391,
				"element": "H" 
			}
		],
		 "valence_orbital": [ 
			{
				"type": "occ",
				"energy": -0.29959,
				"method": "rhf"
			},
			{
				"type": "occ",
				"energy": -0.29129,
				"method": "rhf"
			},
			{
				"type": "occ",
				"energy": -0.2787,
				"method": "rhf"
			},
			{
				"type": "occ",
				"energy": -0.27554,
				"method": "rhf"
			},
			{
				"type": "occ",
				"energy": -0.26675,
				"method": "rhf"
			},
			{
				"type": "unocc",
				"energy": -0.10053,
				"method": "rhf"
			},
			{
				"type": "unocc",
				"energy": -0.06584,
				"method": "rhf"
			},
			{
				"type": "unocc",
				"energy": -0.02505,
				"method": "rhf"
			},
			{
				"type": "unocc",
				"energy": 0.04528,
				"method": "rhf"
			},
			{
				"type": "unocc",
				"energy": 0.04798,
				"method": "rhf"
			}
		],
		"cosmo_sigma_profile": { 
			"-0.025": 0.0,
			"-0.024": 0.0,
			"-0.023": 0.0,
			"-0.022": 0.0,
			"-0.021": 0.0,
			"-0.02": 0.0,
			"-0.019": 0.0,
			"-0.018": 0.0,
			"-0.017": 0.0,
			"-0.016": 0.0,
			"-0.015": 0.0,
			"-0.014": 0.0,
			"-0.013": 0.0,
			"-0.012": 0.0,
			"-0.011": 0.0,
			"-0.01": 0.0346793915685,
			"-0.009": 2.21397302826,
			"-0.008": 6.7342737786,
			"-0.007": 12.2418612811,
			"-0.006": 20.7632147662,
			"-0.005": 29.8282246106,
			"-0.004": 25.8890283921,
			"-0.003": 22.6476676385,
			"-0.002": 18.3754946418,
			"-0.001": 19.8509040804,
			"0.0": 12.317935601,
			"0.001": 7.20871406457,
			"0.002": 6.34629394347,
			"0.003": 5.58637845725,
			"0.004": 6.37540856739,
			"0.005": 6.05613846339,
			"0.006": 6.40334400025,
			"0.007": 13.6716549599,
			"0.008": 8.95876950656,
			"0.009": 8.95525879438,
			"0.01": 6.33556920889,
			"0.011": 7.2564867476,
			"0.012": 6.85713924339,
			"0.013": 3.82751546148,
			"0.014": 0.341027369505,
			"0.015": 0.0,
			"0.016": 0.0,
			"0.017": 0.0,
			"0.018": 0.0,
			"0.019": 0.0,
			"0.02": 0.0,
			"0.021": 0.0,
			"0.022": 0.0,
			"0.023": 0.0,
			"0.024": 0.0,
			"0.025": 0.0
		}
	}
}
