{
	 "smiles": "ClCCCCl", 
	 "Tm": 173.35, 
	 "num_atms": 11, 
	 "gaussian": { 
		 "optdone": 1, 
		 "sigma_profile": "yes", 
		 "theory": "DFT", 
		 "functional": "B3LYP", 
		 "basiset": "6-31G**", 
		 "properties": { 
			 "R2extent": 1128.8464, 
			 "electric_dipole_moment_norm": 2.38307326996, 
			 "electric_quadrupole_moment_norm": 6.84347869216, 
			 "total_energy": -1038.33386333, 
			 "HOMO_LUMO_gap": 0.31489, 
			 "cosmo_polarized_energy": -5.98, 
			 "cosmo_cavitation_energy": 17.26, 
			 "cosmo_dispersion_energy": -13.17, 
			 "cosmo_repulsion_energy": 1.17, 
			 "cosmo_total_nonelectrostatic_energy": 5.26, 
			 "SMD_solvation_energy": 2.35 
		},
		"coords": [
			{
				"x": 2.5684291314,
				"y": 1.0613111063,
				"z": -1.3358322789,
				"element": "Cl" 
			},
			{
				"x": 1.1254025622,
				"y": 1.1622561077,
				"z": -0.2295489576,
				"element": "C" 
			},
			{
				"x": 0.8785938729,
				"y": -0.1467890314,
				"z": 0.5090431687,
				"element": "C" 
			},
			{
				"x": 0.4972317662,
				"y": -1.3279376282,
				"z": -0.373832696,
				"element": "C" 
			},
			{
				"x": -1.1061564134,
				"y": -1.074644994,
				"z": -1.1993232892,
				"element": "Cl" 
			},
			{
				"x": 1.3373021831,
				"y": 1.9721388833,
				"z": 0.4689974849,
				"element": "H" 
			},
			{
				"x": 0.2767209456,
				"y": 1.4362728281,
				"z": -0.8568743284,
				"element": "H" 
			},
			{
				"x": 1.7802782908,
				"y": -0.4260893913,
				"z": 1.0679993262,
				"element": "H" 
			},
			{
				"x": 0.0843379754,
				"y": 0.0303865996,
				"z": 1.24472671,
				"element": "H" 
			},
			{
				"x": 1.228022405,
				"y": -1.4898979543,
				"z": -1.1666707408,
				"element": "H" 
			},
			{
				"x": 0.3922372808,
				"y": -2.2394065257,
				"z": 0.215215601,
				"element": "H" 
			}
		],
		 "valence_orbital": [ 
			{
				"type": "occ",
				"energy": -0.36907,
				"method": "rhf"
			},
			{
				"type": "occ",
				"energy": -0.30724,
				"method": "rhf"
			},
			{
				"type": "occ",
				"energy": -0.30292,
				"method": "rhf"
			},
			{
				"type": "occ",
				"energy": -0.29805,
				"method": "rhf"
			},
			{
				"type": "occ",
				"energy": -0.29606,
				"method": "rhf"
			},
			{
				"type": "unocc",
				"energy": 0.01883,
				"method": "rhf"
			},
			{
				"type": "unocc",
				"energy": 0.02269,
				"method": "rhf"
			},
			{
				"type": "unocc",
				"energy": 0.08307,
				"method": "rhf"
			},
			{
				"type": "unocc",
				"energy": 0.11688,
				"method": "rhf"
			},
			{
				"type": "unocc",
				"energy": 0.13157,
				"method": "rhf"
			}
		],
		"cosmo_sigma_profile": { 
			"-0.025": 0.0,
			"-0.024": 0.0,
			"-0.023": 0.0,
			"-0.022": 0.0,
			"-0.021": 0.0,
			"-0.02": 0.0,
			"-0.019": 0.0,
			"-0.018": 0.0,
			"-0.017": 0.0,
			"-0.016": 0.0,
			"-0.015": 0.0,
			"-0.014": 0.0,
			"-0.013": 0.0,
			"-0.012": 0.0,
			"-0.011": 0.0,
			"-0.01": 0.0,
			"-0.009": 0.0,
			"-0.008": 0.635949049332,
			"-0.007": 5.07609375664,
			"-0.006": 11.8076644402,
			"-0.005": 15.0142474945,
			"-0.004": 14.2176350956,
			"-0.003": 9.08340112778,
			"-0.002": 6.05150743019,
			"-0.001": 5.21571468036,
			"0.0": 7.22277404062,
			"0.001": 8.0838150843,
			"0.002": 6.7316813563,
			"0.003": 6.42270148023,
			"0.004": 10.041140319,
			"0.005": 10.6596401029,
			"0.006": 14.6258265102,
			"0.007": 9.17580536585,
			"0.008": 0.0,
			"0.009": 0.0,
			"0.01": 0.0,
			"0.011": 0.0,
			"0.012": 0.0,
			"0.013": 0.0,
			"0.014": 0.0,
			"0.015": 0.0,
			"0.016": 0.0,
			"0.017": 0.0,
			"0.018": 0.0,
			"0.019": 0.0,
			"0.02": 0.0,
			"0.021": 0.0,
			"0.022": 0.0,
			"0.023": 0.0,
			"0.024": 0.0,
			"0.025": 0.0
		}
	}
}
