{
	 "smiles": "O=C(NC1=CC=CC=C1)OC1CC=CC=C[C@H]1OC(=O)NC1=CC=CC=C1", 
	 "Tm": 453.15, 
	 "num_atms": 47, 
	 "gaussian": { 
		 "optdone": 1, 
		 "sigma_profile": "yes", 
		 "theory": "DFT", 
		 "functional": "B3LYP", 
		 "basiset": "6-31G**", 
		 "properties": { 
			 "R2extent": 9729.27, 
			 "electric_dipole_moment_norm": 2.92834794722, 
			 "electric_quadrupole_moment_norm": 20.6786115651, 
			 "total_energy": -1222.69746937, 
			 "HOMO_LUMO_gap": 0.17529, 
			 "cosmo_polarized_energy": -18.4, 
			 "cosmo_cavitation_energy": 50.91, 
			 "cosmo_dispersion_energy": -32.33, 
			 "cosmo_repulsion_energy": 2.43, 
			 "cosmo_total_nonelectrostatic_energy": 21.01, 
			 "SMD_solvation_energy": 9.45 
		},
		"coords": [
			{
				"x": 2.4297780787,
				"y": 0.5066255731,
				"z": -3.3824765562,
				"element": "O" 
			},
			{
				"x": 1.4852851429,
				"y": -0.0712768587,
				"z": -2.8764167296,
				"element": "C" 
			},
			{
				"x": 1.0746783082,
				"y": -1.3148213832,
				"z": -3.2958986783,
				"element": "N" 
			},
			{
				"x": 0.1643099234,
				"y": -2.2596388236,
				"z": -2.7766171453,
				"element": "C" 
			},
			{
				"x": 0.2862410473,
				"y": -3.5758960094,
				"z": -3.2549763083,
				"element": "C" 
			},
			{
				"x": -0.5788949678,
				"y": -4.5748155879,
				"z": -2.8192879591,
				"element": "C" 
			},
			{
				"x": -1.5830114323,
				"y": -4.2846504041,
				"z": -1.8932735351,
				"element": "C" 
			},
			{
				"x": -1.7080880982,
				"y": -2.9779632154,
				"z": -1.421066739,
				"element": "C" 
			},
			{
				"x": -0.8529771506,
				"y": -1.9640460626,
				"z": -1.8562394199,
				"element": "C" 
			},
			{
				"x": 0.7148575766,
				"y": 0.4382601178,
				"z": -1.8831248698,
				"element": "O" 
			},
			{
				"x": 1.1667502943,
				"y": 1.6864693853,
				"z": -1.3009154055,
				"element": "C" 
			},
			{
				"x": -0.0884797221,
				"y": 2.4052357449,
				"z": -0.8033784272,
				"element": "C" 
			},
			{
				"x": 0.1258479588,
				"y": 3.8754490619,
				"z": -0.5684597054,
				"element": "C" 
			},
			{
				"x": 1.1934750308,
				"y": 4.440888058,
				"z": 0.021972819,
				"element": "C" 
			},
			{
				"x": 2.355100327,
				"y": 3.7812372903,
				"z": 0.6197038763,
				"element": "C" 
			},
			{
				"x": 2.7664923277,
				"y": 2.5007624743,
				"z": 0.5577299659,
				"element": "C" 
			},
			{
				"x": 2.1946291984,
				"y": 1.3501187397,
				"z": -0.2161957373,
				"element": "C" 
			},
			{
				"x": 1.5705875284,
				"y": 0.450385694,
				"z": 0.7479142647,
				"element": "O" 
			},
			{
				"x": 1.83601629,
				"y": -0.8719013019,
				"z": 0.6041049813,
				"element": "C" 
			},
			{
				"x": 2.6592304704,
				"y": -1.3441529126,
				"z": -0.1592690147,
				"element": "O" 
			},
			{
				"x": 1.0776097688,
				"y": -1.6573422977,
				"z": 1.4404277818,
				"element": "N" 
			},
			{
				"x": -0.0130837467,
				"y": -1.3578832633,
				"z": 2.2880703438,
				"element": "C" 
			},
			{
				"x": -0.1720124677,
				"y": -0.1288692661,
				"z": 2.9457089512,
				"element": "C" 
			},
			{
				"x": -1.2644155,
				"y": 0.0641327682,
				"z": 3.7919209477,
				"element": "C" 
			},
			{
				"x": -2.1954895651,
				"y": -0.9514091295,
				"z": 4.01297949,
				"element": "C" 
			},
			{
				"x": -2.0265648388,
				"y": -2.1789414421,
				"z": 3.3699930919,
				"element": "C" 
			},
			{
				"x": -0.9486702997,
				"y": -2.381062469,
				"z": 2.5116097582,
				"element": "C" 
			},
			{
				"x": 1.7039799791,
				"y": -1.6648936395,
				"z": -4.0048600773,
				"element": "H" 
			},
			{
				"x": 1.0715450782,
				"y": -3.8142136462,
				"z": -3.9685664196,
				"element": "H" 
			},
			{
				"x": -0.4623434234,
				"y": -5.5840101635,
				"z": -3.2038578798,
				"element": "H" 
			},
			{
				"x": -2.2583203946,
				"y": -5.0626937168,
				"z": -1.5508520483,
				"element": "H" 
			},
			{
				"x": -2.485740773,
				"y": -2.7306284797,
				"z": -0.7038223545,
				"element": "H" 
			},
			{
				"x": -0.9732823949,
				"y": -0.9572896562,
				"z": -1.4852102852,
				"element": "H" 
			},
			{
				"x": 1.6668742241,
				"y": 2.2688888739,
				"z": -2.0784441782,
				"element": "H" 
			},
			{
				"x": -0.4448007114,
				"y": 1.9118441514,
				"z": 0.1124542287,
				"element": "H" 
			},
			{
				"x": -0.8705873313,
				"y": 2.2669664749,
				"z": -1.5557614602,
				"element": "H" 
			},
			{
				"x": -0.6686502732,
				"y": 4.5352104969,
				"z": -0.909880441,
				"element": "H" 
			},
			{
				"x": 1.1899388599,
				"y": 5.5244378876,
				"z": 0.1219880407,
				"element": "H" 
			},
			{
				"x": 2.9729605148,
				"y": 4.4436391493,
				"z": 1.2244106883,
				"element": "H" 
			},
			{
				"x": 3.6467662929,
				"y": 2.2303357046,
				"z": 1.1369492739,
				"element": "H" 
			},
			{
				"x": 3.0088597874,
				"y": 0.7968864061,
				"z": -0.6922566558,
				"element": "H" 
			},
			{
				"x": 1.2244536599,
				"y": -2.6362753587,
				"z": 1.2372992329,
				"element": "H" 
			},
			{
				"x": 0.5504305448,
				"y": 0.6614492812,
				"z": 2.7966149286,
				"element": "H" 
			},
			{
				"x": -1.3770216928,
				"y": 1.021695807,
				"z": 4.2926434622,
				"element": "H" 
			},
			{
				"x": -3.0378587926,
				"y": -0.7904702102,
				"z": 4.6785910457,
				"element": "H" 
			},
			{
				"x": -2.7385680324,
				"y": -2.9836230582,
				"z": 3.5298328551,
				"element": "H" 
			},
			{
				"x": -0.8315366043,
				"y": -3.3324507845,
				"z": 1.9986880028,
				"element": "H" 
			}
		],
		 "valence_orbital": [ 
			{
				"type": "occ",
				"energy": -0.25442,
				"method": "rhf"
			},
			{
				"type": "occ",
				"energy": -0.2512,
				"method": "rhf"
			},
			{
				"type": "occ",
				"energy": -0.23234,
				"method": "rhf"
			},
			{
				"type": "occ",
				"energy": -0.22187,
				"method": "rhf"
			},
			{
				"type": "occ",
				"energy": -0.21732,
				"method": "rhf"
			},
			{
				"type": "unocc",
				"energy": -0.04203,
				"method": "rhf"
			},
			{
				"type": "unocc",
				"energy": -0.00628,
				"method": "rhf"
			},
			{
				"type": "unocc",
				"energy": -0.00574,
				"method": "rhf"
			},
			{
				"type": "unocc",
				"energy": -0.0027,
				"method": "rhf"
			},
			{
				"type": "unocc",
				"energy": -0.00106,
				"method": "rhf"
			}
		],
		"cosmo_sigma_profile": { 
			"-0.025": 0.0,
			"-0.024": 0.0,
			"-0.023": 0.0,
			"-0.022": 0.0,
			"-0.021": 0.0,
			"-0.02": 0.0,
			"-0.019": 0.0,
			"-0.018": 0.0,
			"-0.017": 0.0,
			"-0.016": 0.0,
			"-0.015": 0.94335803937,
			"-0.014": 2.62377218483,
			"-0.013": 1.47269016491,
			"-0.012": 1.67215438396,
			"-0.011": 2.42224076176,
			"-0.01": 2.3022982826,
			"-0.009": 2.51311177617,
			"-0.008": 1.65156008625,
			"-0.007": 3.05215260074,
			"-0.006": 14.8575833542,
			"-0.005": 32.570698923,
			"-0.004": 35.0155016133,
			"-0.003": 32.3793901626,
			"-0.002": 30.2741938593,
			"-0.001": 28.9587608998,
			"0.0": 27.9913028659,
			"0.001": 33.1516255082,
			"0.002": 31.4333387716,
			"0.003": 28.5332839894,
			"0.004": 26.6657997289,
			"0.005": 24.3927347667,
			"0.006": 14.2701896755,
			"0.007": 3.35544887779,
			"0.008": 2.58085416917,
			"0.009": 2.36901568815,
			"0.01": 3.32787246445,
			"0.011": 3.45478663457,
			"0.012": 7.49260938476,
			"0.013": 4.18014017771,
			"0.014": 0.0124130093764,
			"0.015": 0.0,
			"0.016": 0.0,
			"0.017": 0.0,
			"0.018": 0.0,
			"0.019": 0.0,
			"0.02": 0.0,
			"0.021": 0.0,
			"0.022": 0.0,
			"0.023": 0.0,
			"0.024": 0.0,
			"0.025": 0.0
		}
	}
}
