{
	 "smiles": "CC1=CC(CCl)=C(C)C=C1CCl", 
	 "Tm": 405.15, 
	 "num_atms": 24, 
	 "gaussian": { 
		 "optdone": 1, 
		 "sigma_profile": "yes", 
		 "theory": "DFT", 
		 "functional": "B3LYP", 
		 "basiset": "6-31G**", 
		 "properties": { 
			 "R2extent": 4035.7008, 
			 "electric_dipole_moment_norm": 3.68239560748, 
			 "electric_quadrupole_moment_norm": 12.466606144, 
			 "total_energy": -1308.70811251, 
			 "HOMO_LUMO_gap": 0.19787, 
			 "cosmo_polarized_energy": -9.06, 
			 "cosmo_cavitation_energy": 29.98, 
			 "cosmo_dispersion_energy": -21.54, 
			 "cosmo_repulsion_energy": 1.73, 
			 "cosmo_total_nonelectrostatic_energy": 10.17, 
			 "SMD_solvation_energy": 4.36 
		},
		"coords": [
			{
				"x": 0.6358685463,
				"y": 0.5214261552,
				"z": -1.713560138,
				"element": "C" 
			},
			{
				"x": 0.1883174916,
				"y": 0.0872655008,
				"z": -0.3380163773,
				"element": "C" 
			},
			{
				"x": -0.7678728928,
				"y": -0.920111187,
				"z": -0.1920600442,
				"element": "C" 
			},
			{
				"x": -1.2156150446,
				"y": -1.3625353085,
				"z": 1.0581287141,
				"element": "C" 
			},
			{
				"x": -2.2575818791,
				"y": -2.4388617034,
				"z": 1.1146473084,
				"element": "C" 
			},
			{
				"x": -1.5400693973,
				"y": -4.1076787324,
				"z": 1.4220506234,
				"element": "Cl" 
			},
			{
				"x": -0.6889492786,
				"y": -0.7840259864,
				"z": 2.2303013282,
				"element": "C" 
			},
			{
				"x": -1.1277199449,
				"y": -1.2264774192,
				"z": 3.6060399262,
				"element": "C" 
			},
			{
				"x": 0.265884299,
				"y": 0.2246356624,
				"z": 2.0843137108,
				"element": "C" 
			},
			{
				"x": 0.7100212314,
				"y": 0.6704738042,
				"z": 0.8340498158,
				"element": "C" 
			},
			{
				"x": 1.7268231391,
				"y": 1.770589875,
				"z": 0.7770420441,
				"element": "C" 
			},
			{
				"x": 3.4398700187,
				"y": 1.1430165889,
				"z": 0.5201724374,
				"element": "Cl" 
			},
			{
				"x": 1.720328654,
				"y": 0.4266827361,
				"z": -1.8299098458,
				"element": "H" 
			},
			{
				"x": 0.1579789492,
				"y": -0.08417474,
				"z": -2.4876227843,
				"element": "H" 
			},
			{
				"x": 0.3802676428,
				"y": 1.5697889791,
				"z": -1.9124076675,
				"element": "H" 
			},
			{
				"x": -1.1801885196,
				"y": -1.381798752,
				"z": -1.0865350389,
				"element": "H" 
			},
			{
				"x": -2.9752719519,
				"y": -2.2903142556,
				"z": 1.9211650455,
				"element": "H" 
			},
			{
				"x": -2.7927078225,
				"y": -2.5295857279,
				"z": 0.1699423565,
				"element": "H" 
			},
			{
				"x": -2.1929124854,
				"y": -1.026408981,
				"z": 3.7771605995,
				"element": "H" 
			},
			{
				"x": -0.9749462176,
				"y": -2.3011691226,
				"z": 3.7484245997,
				"element": "H" 
			},
			{
				"x": -0.5671723683,
				"y": -0.6989871857,
				"z": 4.3818277424,
				"element": "H" 
			},
			{
				"x": 0.6835377312,
				"y": 0.6812736739,
				"z": 2.9789037186,
				"element": "H" 
			},
			{
				"x": 1.7664136225,
				"y": 2.3294582744,
				"z": 1.7114691054,
				"element": "H" 
			},
			{
				"x": 1.5557964767,
				"y": 2.4618178518,
				"z": -0.0479271799,
				"element": "H" 
			}
		],
		 "valence_orbital": [ 
			{
				"type": "occ",
				"energy": -0.2944,
				"method": "rhf"
			},
			{
				"type": "occ",
				"energy": -0.29374,
				"method": "rhf"
			},
			{
				"type": "occ",
				"energy": -0.29281,
				"method": "rhf"
			},
			{
				"type": "occ",
				"energy": -0.25634,
				"method": "rhf"
			},
			{
				"type": "occ",
				"energy": -0.24298,
				"method": "rhf"
			},
			{
				"type": "unocc",
				"energy": -0.04511,
				"method": "rhf"
			},
			{
				"type": "unocc",
				"energy": -0.00734,
				"method": "rhf"
			},
			{
				"type": "unocc",
				"energy": 0.01796,
				"method": "rhf"
			},
			{
				"type": "unocc",
				"energy": 0.05103,
				"method": "rhf"
			},
			{
				"type": "unocc",
				"energy": 0.08795,
				"method": "rhf"
			}
		],
		"cosmo_sigma_profile": { 
			"-0.025": 0.0,
			"-0.024": 0.0,
			"-0.023": 0.0,
			"-0.022": 0.0,
			"-0.021": 0.0,
			"-0.02": 0.0,
			"-0.019": 0.0,
			"-0.018": 0.0,
			"-0.017": 0.0,
			"-0.016": 0.0,
			"-0.015": 0.0,
			"-0.014": 0.0,
			"-0.013": 0.0,
			"-0.012": 0.0,
			"-0.011": 0.0,
			"-0.01": 0.0,
			"-0.009": 0.0,
			"-0.008": 2.21644146936,
			"-0.007": 12.1959860849,
			"-0.006": 13.1800042829,
			"-0.005": 16.8623964331,
			"-0.004": 17.5892888815,
			"-0.003": 15.4550371745,
			"-0.002": 16.0921082263,
			"-0.001": 18.4479564719,
			"0.0": 22.6182671094,
			"0.001": 15.6008462832,
			"0.002": 12.6851564807,
			"0.003": 13.4169203331,
			"0.004": 18.1180381792,
			"0.005": 17.2943861023,
			"0.006": 16.2282218133,
			"0.007": 12.9131754442,
			"0.008": 0.202641969141,
			"0.009": 0.0,
			"0.01": 0.0,
			"0.011": 0.0,
			"0.012": 0.0,
			"0.013": 0.0,
			"0.014": 0.0,
			"0.015": 0.0,
			"0.016": 0.0,
			"0.017": 0.0,
			"0.018": 0.0,
			"0.019": 0.0,
			"0.02": 0.0,
			"0.021": 0.0,
			"0.022": 0.0,
			"0.023": 0.0,
			"0.024": 0.0,
			"0.025": 0.0
		}
	}
}
