{
	 "smiles": "COC(=O)C(C)=C", 
	 "Tm": 225.35, 
	 "num_atms": 15, 
	 "gaussian": { 
		 "optdone": 1, 
		 "sigma_profile": "yes", 
		 "theory": "DFT", 
		 "functional": "B3LYP", 
		 "basiset": "6-31G**", 
		 "properties": { 
			 "R2extent": 951.4189, 
			 "electric_dipole_moment_norm": 1.64762583738, 
			 "electric_quadrupole_moment_norm": 6.18630083976, 
			 "total_energy": -345.791649663, 
			 "HOMO_LUMO_gap": 0.22911, 
			 "cosmo_polarized_energy": -6.05, 
			 "cosmo_cavitation_energy": 19.01, 
			 "cosmo_dispersion_energy": -13.7, 
			 "cosmo_repulsion_energy": 1.16, 
			 "cosmo_total_nonelectrostatic_energy": 6.48, 
			 "SMD_solvation_energy": 5.83 
		},
		"coords": [
			{
				"x": -0.1697468783,
				"y": -1.5964061634,
				"z": -1.7830756744,
				"element": "C" 
			},
			{
				"x": 0.3509639884,
				"y": -0.2914593029,
				"z": -1.4929616096,
				"element": "O" 
			},
			{
				"x": -0.1399784289,
				"y": 0.2864541841,
				"z": -0.3719979168,
				"element": "C" 
			},
			{
				"x": -0.9626950282,
				"y": -0.2520694693,
				"z": 0.3443009576,
				"element": "O" 
			},
			{
				"x": 0.4251418817,
				"y": 1.6439469574,
				"z": -0.102341778,
				"element": "C" 
			},
			{
				"x": -0.1049067003,
				"y": 2.3099290645,
				"z": 1.1395053104,
				"element": "C" 
			},
			{
				"x": 1.330051914,
				"y": 2.1955583837,
				"z": -0.9207451186,
				"element": "C" 
			},
			{
				"x": -1.2534999542,
				"y": -1.5586181508,
				"z": -1.9209771863,
				"element": "H" 
			},
			{
				"x": 0.3220276807,
				"y": -1.9119620318,
				"z": -2.7033527599,
				"element": "H" 
			},
			{
				"x": 0.0548937284,
				"y": -2.2920699054,
				"z": -0.9703262941,
				"element": "H" 
			},
			{
				"x": 0.0977039373,
				"y": 1.6995172791,
				"z": 2.0256142231,
				"element": "H" 
			},
			{
				"x": -1.1926974422,
				"y": 2.4229814434,
				"z": 1.0868516388,
				"element": "H" 
			},
			{
				"x": 0.3470516096,
				"y": 3.2950256105,
				"z": 1.2774166157,
				"element": "H" 
			},
			{
				"x": 1.6840152073,
				"y": 1.679220645,
				"z": -1.8051912629,
				"element": "H" 
			},
			{
				"x": 1.7372744849,
				"y": 3.1823514558,
				"z": -0.7197191448,
				"element": "H" 
			}
		],
		 "valence_orbital": [ 
			{
				"type": "occ",
				"energy": -0.36822,
				"method": "rhf"
			},
			{
				"type": "occ",
				"energy": -0.3529,
				"method": "rhf"
			},
			{
				"type": "occ",
				"energy": -0.29917,
				"method": "rhf"
			},
			{
				"type": "occ",
				"energy": -0.27012,
				"method": "rhf"
			},
			{
				"type": "occ",
				"energy": -0.26748,
				"method": "rhf"
			},
			{
				"type": "unocc",
				"energy": -0.03837,
				"method": "rhf"
			},
			{
				"type": "unocc",
				"energy": 0.08384,
				"method": "rhf"
			},
			{
				"type": "unocc",
				"energy": 0.10968,
				"method": "rhf"
			},
			{
				"type": "unocc",
				"energy": 0.11862,
				"method": "rhf"
			},
			{
				"type": "unocc",
				"energy": 0.12672,
				"method": "rhf"
			}
		],
		"cosmo_sigma_profile": { 
			"-0.025": 0.0,
			"-0.024": 0.0,
			"-0.023": 0.0,
			"-0.022": 0.0,
			"-0.021": 0.0,
			"-0.02": 0.0,
			"-0.019": 0.0,
			"-0.018": 0.0,
			"-0.017": 0.0,
			"-0.016": 0.0,
			"-0.015": 0.0,
			"-0.014": 0.0,
			"-0.013": 0.0,
			"-0.012": 0.0,
			"-0.011": 0.0,
			"-0.01": 0.0,
			"-0.009": 0.0,
			"-0.008": 0.0,
			"-0.007": 0.989972376776,
			"-0.006": 5.88388773443,
			"-0.005": 11.5177359449,
			"-0.004": 15.8699949734,
			"-0.003": 17.2690408208,
			"-0.002": 17.2232303325,
			"-0.001": 14.2116017554,
			"0.0": 14.1269076492,
			"0.001": 8.78114768301,
			"0.002": 9.29516235937,
			"0.003": 7.32280104407,
			"0.004": 5.95667149152,
			"0.005": 3.35097571687,
			"0.006": 3.23202268107,
			"0.007": 1.78969247735,
			"0.008": 1.59802637954,
			"0.009": 1.7778362232,
			"0.01": 1.43826094583,
			"0.011": 2.73863025975,
			"0.012": 4.66351312374,
			"0.013": 1.08364378528,
			"0.014": 0.0,
			"0.015": 0.0,
			"0.016": 0.0,
			"0.017": 0.0,
			"0.018": 0.0,
			"0.019": 0.0,
			"0.02": 0.0,
			"0.021": 0.0,
			"0.022": 0.0,
			"0.023": 0.0,
			"0.024": 0.0,
			"0.025": 0.0
		}
	}
}
