{
	 "smiles": "CSC1=CC=C(C=C1)[N+]([O-])=O", 
	 "Tm": 339.65, 
	 "num_atms": 18, 
	 "gaussian": { 
		 "optdone": 1, 
		 "sigma_profile": "yes", 
		 "theory": "DFT", 
		 "functional": "B3LYP", 
		 "basiset": "6-31G**", 
		 "properties": { 
			 "R2extent": 2709.1669, 
			 "electric_dipole_moment_norm": 5.43008056754, 
			 "electric_quadrupole_moment_norm": 17.475030796, 
			 "total_energy": -874.25122469, 
			 "HOMO_LUMO_gap": 0.14965, 
			 "cosmo_polarized_energy": -10.22, 
			 "cosmo_cavitation_energy": 24.28, 
			 "cosmo_dispersion_energy": -18.46, 
			 "cosmo_repulsion_energy": 1.42, 
			 "cosmo_total_nonelectrostatic_energy": 7.25, 
			 "SMD_solvation_energy": 6.48 
		},
		"coords": [
			{
				"x": 3.0112553231,
				"y": 1.6839720059,
				"z": -0.7438116328,
				"element": "C" 
			},
			{
				"x": 1.4416286976,
				"y": 2.0546555234,
				"z": 0.1030527113,
				"element": "S" 
			},
			{
				"x": 0.5845758922,
				"y": 0.5036257173,
				"z": 0.1079641747,
				"element": "C" 
			},
			{
				"x": -0.6883217537,
				"y": 0.4947644472,
				"z": 0.7131153795,
				"element": "C" 
			},
			{
				"x": -1.4372359846,
				"y": -0.670697671,
				"z": 0.7672706202,
				"element": "C" 
			},
			{
				"x": -0.9123619073,
				"y": -1.8399485059,
				"z": 0.2124409735,
				"element": "C" 
			},
			{
				"x": 0.3423188394,
				"y": -1.8577631039,
				"z": -0.3909874104,
				"element": "C" 
			},
			{
				"x": 1.0904572297,
				"y": -0.6853540338,
				"z": -0.4428182844,
				"element": "C" 
			},
			{
				"x": -1.6981523876,
				"y": -3.0739133316,
				"z": 0.2662742109,
				"element": "N" 
			},
			{
				"x": -1.207536095,
				"y": -4.0885021966,
				"z": -0.2321974135,
				"element": "O" 
			},
			{
				"x": -2.8041619263,
				"y": -3.0250080285,
				"z": 0.8070272041,
				"element": "O" 
			},
			{
				"x": 3.5974896869,
				"y": 0.9431450949,
				"z": -0.1956876685,
				"element": "H" 
			},
			{
				"x": 2.8441862912,
				"y": 1.3547581389,
				"z": -1.771743113,
				"element": "H" 
			},
			{
				"x": 3.5607620296,
				"y": 2.6272401545,
				"z": -0.7600961023,
				"element": "H" 
			},
			{
				"x": -1.0876466461,
				"y": 1.4091219629,
				"z": 1.1415317541,
				"element": "H" 
			},
			{
				"x": -2.4165283228,
				"y": -0.6936622263,
				"z": 1.2286897134,
				"element": "H" 
			},
			{
				"x": 0.7163291351,
				"y": -2.7835250667,
				"z": -0.8104004734,
				"element": "H" 
			},
			{
				"x": 2.0654418986,
				"y": -0.7087088805,
				"z": -0.9140246433,
				"element": "H" 
			}
		],
		 "valence_orbital": [ 
			{
				"type": "occ",
				"energy": -0.30478,
				"method": "rhf"
			},
			{
				"type": "occ",
				"energy": -0.30288,
				"method": "rhf"
			},
			{
				"type": "occ",
				"energy": -0.28572,
				"method": "rhf"
			},
			{
				"type": "occ",
				"energy": -0.28074,
				"method": "rhf"
			},
			{
				"type": "occ",
				"energy": -0.235,
				"method": "rhf"
			},
			{
				"type": "unocc",
				"energy": -0.08535,
				"method": "rhf"
			},
			{
				"type": "unocc",
				"energy": -0.02902,
				"method": "rhf"
			},
			{
				"type": "unocc",
				"energy": 0.00137,
				"method": "rhf"
			},
			{
				"type": "unocc",
				"energy": 0.01707,
				"method": "rhf"
			},
			{
				"type": "unocc",
				"energy": 0.05633,
				"method": "rhf"
			}
		],
		"cosmo_sigma_profile": { 
			"-0.025": 0.0,
			"-0.024": 0.0,
			"-0.023": 0.0,
			"-0.022": 0.0,
			"-0.021": 0.0,
			"-0.02": 0.0,
			"-0.019": 0.0,
			"-0.018": 0.0,
			"-0.017": 0.0,
			"-0.016": 0.0,
			"-0.015": 0.0,
			"-0.014": 0.0,
			"-0.013": 0.0,
			"-0.012": 0.0,
			"-0.011": 0.0,
			"-0.01": 0.0,
			"-0.009": 0.0,
			"-0.008": 3.27383266496,
			"-0.007": 13.3932100355,
			"-0.006": 14.6209225976,
			"-0.005": 12.8575504689,
			"-0.004": 12.8048406858,
			"-0.003": 12.7228217484,
			"-0.002": 13.3936373765,
			"-0.001": 12.4768561034,
			"0.0": 13.130686623,
			"0.001": 15.6320646238,
			"0.002": 18.1122123095,
			"0.003": 7.29888700668,
			"0.004": 6.34336551379,
			"0.005": 7.12081097803,
			"0.006": 5.04828774322,
			"0.007": 7.96168218153,
			"0.008": 11.0199384499,
			"0.009": 4.3510788403,
			"0.01": 4.09805721672,
			"0.011": 0.820748463567,
			"0.012": 0.0,
			"0.013": 0.0,
			"0.014": 0.0,
			"0.015": 0.0,
			"0.016": 0.0,
			"0.017": 0.0,
			"0.018": 0.0,
			"0.019": 0.0,
			"0.02": 0.0,
			"0.021": 0.0,
			"0.022": 0.0,
			"0.023": 0.0,
			"0.024": 0.0,
			"0.025": 0.0
		}
	}
}
