{
	 "smiles": "FC1=C(C=CC(CBr)=C1)C(F)(F)F", 
	 "Tm": 299.15, 
	 "num_atms": 18, 
	 "gaussian": { 
		 "optdone": 1, 
		 "sigma_profile": "yes", 
		 "theory": "DFT", 
		 "functional": "B3LYP", 
		 "basiset": "6-31G**", 
		 "properties": { 
			 "R2extent": 5512.9014, 
			 "electric_dipole_moment_norm": 2.84845950823, 
			 "electric_quadrupole_moment_norm": 15.9450304136, 
			 "total_energy": -3278.63346712, 
			 "HOMO_LUMO_gap": 0.2047, 
			 "cosmo_polarized_energy": -6.99, 
			 "cosmo_cavitation_energy": 26.71, 
			 "cosmo_dispersion_energy": -19.1, 
			 "cosmo_repulsion_energy": 1.45, 
			 "cosmo_total_nonelectrostatic_energy": 9.06, 
			 "SMD_solvation_energy": 4.89 
		},
		"coords": [
			{
				"x": -1.6866432873,
				"y": -0.3749107151,
				"z": 0.5313220624,
				"element": "F" 
			},
			{
				"x": -0.8297230394,
				"y": -0.9233367056,
				"z": -0.3468993575,
				"element": "C" 
			},
			{
				"x": -1.1588278927,
				"y": -0.9294774744,
				"z": -1.704760789,
				"element": "C" 
			},
			{
				"x": -0.2567455173,
				"y": -1.5075112515,
				"z": -2.6002741855,
				"element": "C" 
			},
			{
				"x": 0.9369473518,
				"y": -2.0623648505,
				"z": -2.1446973249,
				"element": "C" 
			},
			{
				"x": 1.2523560641,
				"y": -2.0506343907,
				"z": -0.7798472787,
				"element": "C" 
			},
			{
				"x": 2.5273788282,
				"y": -2.6584168925,
				"z": -0.2868664231,
				"element": "C" 
			},
			{
				"x": 4.0041031757,
				"y": -1.3137106238,
				"z": -0.1900009314,
				"element": "Br" 
			},
			{
				"x": 0.3530745131,
				"y": -1.4708192964,
				"z": 0.124528878,
				"element": "C" 
			},
			{
				"x": -2.4589859588,
				"y": -0.3278755773,
				"z": -2.1683227636,
				"element": "C" 
			},
			{
				"x": -2.5453710369,
				"y": 0.9795358407,
				"z": -1.8487005812,
				"element": "F" 
			},
			{
				"x": -3.520250471,
				"y": -0.9462506023,
				"z": -1.6093029877,
				"element": "F" 
			},
			{
				"x": -2.595846262,
				"y": -0.425813054,
				"z": -3.5090212068,
				"element": "F" 
			},
			{
				"x": -0.4999657763,
				"y": -1.5201168427,
				"z": -3.6561923499,
				"element": "H" 
			},
			{
				"x": 1.6301071104,
				"y": -2.5047020309,
				"z": -2.8535420278,
				"element": "H" 
			},
			{
				"x": 2.9035535056,
				"y": -3.4326719145,
				"z": -0.9526747853,
				"element": "H" 
			},
			{
				"x": 2.4433933015,
				"y": -3.0458992214,
				"z": 0.726712017,
				"element": "H" 
			},
			{
				"x": 0.562045391,
				"y": -1.4347243969,
				"z": 1.1885400349,
				"element": "H" 
			}
		],
		 "valence_orbital": [ 
			{
				"type": "occ",
				"energy": -0.36623,
				"method": "rhf"
			},
			{
				"type": "occ",
				"energy": -0.29042,
				"method": "rhf"
			},
			{
				"type": "occ",
				"energy": -0.28339,
				"method": "rhf"
			},
			{
				"type": "occ",
				"energy": -0.2757,
				"method": "rhf"
			},
			{
				"type": "occ",
				"energy": -0.267,
				"method": "rhf"
			},
			{
				"type": "unocc",
				"energy": -0.0623,
				"method": "rhf"
			},
			{
				"type": "unocc",
				"energy": -0.02619,
				"method": "rhf"
			},
			{
				"type": "unocc",
				"energy": 0.00791,
				"method": "rhf"
			},
			{
				"type": "unocc",
				"energy": 0.0714,
				"method": "rhf"
			},
			{
				"type": "unocc",
				"energy": 0.09613,
				"method": "rhf"
			}
		],
		"cosmo_sigma_profile": { 
			"-0.025": 0.0,
			"-0.024": 0.0,
			"-0.023": 0.0,
			"-0.022": 0.0,
			"-0.021": 0.0,
			"-0.02": 0.0,
			"-0.019": 0.0,
			"-0.018": 0.0,
			"-0.017": 0.0,
			"-0.016": 0.0,
			"-0.015": 0.0,
			"-0.014": 0.0,
			"-0.013": 0.0,
			"-0.012": 0.0,
			"-0.011": 0.0,
			"-0.01": 0.0,
			"-0.009": 2.04097964718,
			"-0.008": 9.5380691638,
			"-0.007": 9.49896692173,
			"-0.006": 8.66573816906,
			"-0.005": 8.33647162487,
			"-0.004": 7.65648690208,
			"-0.003": 9.12456903226,
			"-0.002": 10.332724036,
			"-0.001": 15.7433901204,
			"0.0": 17.8622238493,
			"0.001": 19.0259953474,
			"0.002": 32.1677995041,
			"0.003": 38.6695156766,
			"0.004": 10.1499256055,
			"0.005": 7.75696056816,
			"0.006": 10.7914093875,
			"0.007": 0.512669023079,
			"0.008": 0.0,
			"0.009": 0.0,
			"0.01": 0.0,
			"0.011": 0.0,
			"0.012": 0.0,
			"0.013": 0.0,
			"0.014": 0.0,
			"0.015": 0.0,
			"0.016": 0.0,
			"0.017": 0.0,
			"0.018": 0.0,
			"0.019": 0.0,
			"0.02": 0.0,
			"0.021": 0.0,
			"0.022": 0.0,
			"0.023": 0.0,
			"0.024": 0.0,
			"0.025": 0.0
		}
	}
}
