{
	 "smiles": "[O-][N+](=O)C1=CC(=C(C=CC2=CC=C(C=C2S(=O)(=O)OC2=CC=CC=C2)[N+]([O-])=O)C=C1)S(=O)(=O)OC1=CC=CC=C1", 
	 "Tm": 465.15, 
	 "num_atms": 58, 
	 "gaussian": { 
		 "optdone": 1, 
		 "sigma_profile": "yes", 
		 "theory": "DFT", 
		 "functional": "B3LYP", 
		 "basiset": "6-31G**", 
		 "properties": { 
			 "R2extent": 24910.7745, 
			 "electric_dipole_moment_norm": 7.04505430355, 
			 "electric_quadrupole_moment_norm": 25.9320102998, 
			 "total_energy": -2659.35439332, 
			 "HOMO_LUMO_gap": 0.14609, 
			 "cosmo_polarized_energy": -27.46, 
			 "cosmo_cavitation_energy": 69.19, 
			 "cosmo_dispersion_energy": -44.49, 
			 "cosmo_repulsion_energy": 3.28, 
			 "cosmo_total_nonelectrostatic_energy": 27.98, 
			 "SMD_solvation_energy": 14.3 
		},
		"coords": [
			{
				"x": 6.4386349138,
				"y": -2.3159184331,
				"z": -1.254047156,
				"element": "O" 
			},
			{
				"x": 5.376363303,
				"y": -2.9331107693,
				"z": -1.2696593246,
				"element": "N" 
			},
			{
				"x": 5.2606211445,
				"y": -4.1513244349,
				"z": -1.1533509092,
				"element": "O" 
			},
			{
				"x": 4.1390863427,
				"y": -2.1505841996,
				"z": -1.438710403,
				"element": "C" 
			},
			{
				"x": 4.2321523543,
				"y": -0.7692614551,
				"z": -1.5683856694,
				"element": "C" 
			},
			{
				"x": 3.0549225414,
				"y": -0.0452435803,
				"z": -1.7307767336,
				"element": "C" 
			},
			{
				"x": 1.7862560876,
				"y": -0.6650657284,
				"z": -1.7604820376,
				"element": "C" 
			},
			{
				"x": 0.5232281118,
				"y": 0.065006364,
				"z": -2.0052847489,
				"element": "C" 
			},
			{
				"x": -0.6052785529,
				"y": -0.0479747834,
				"z": -1.2847697711,
				"element": "C" 
			},
			{
				"x": -0.7449480727,
				"y": -0.7080181574,
				"z": 0.0310973332,
				"element": "C" 
			},
			{
				"x": 0.1725460186,
				"y": -0.4191623488,
				"z": 1.0585698845,
				"element": "C" 
			},
			{
				"x": 0.0345238553,
				"y": -0.9618714347,
				"z": 2.3321231545,
				"element": "C" 
			},
			{
				"x": -1.0436735381,
				"y": -1.8027958127,
				"z": 2.5937042003,
				"element": "C" 
			},
			{
				"x": -1.9820830794,
				"y": -2.1191318906,
				"z": 1.6170569065,
				"element": "C" 
			},
			{
				"x": -1.8243258838,
				"y": -1.5636472836,
				"z": 0.3509509086,
				"element": "C" 
			},
			{
				"x": -2.9981753637,
				"y": -2.0801160004,
				"z": -0.9072721278,
				"element": "S" 
			},
			{
				"x": -3.9373287789,
				"y": -3.0170712097,
				"z": -0.3044075427,
				"element": "O" 
			},
			{
				"x": -2.2767664101,
				"y": -2.3893511133,
				"z": -2.1327330667,
				"element": "O" 
			},
			{
				"x": -3.7858014572,
				"y": -0.6558626695,
				"z": -1.2596910832,
				"element": "O" 
			},
			{
				"x": -4.8180415939,
				"y": -0.2127641088,
				"z": -0.4117921778,
				"element": "C" 
			},
			{
				"x": -4.5640688627,
				"y": 0.8766163198,
				"z": 0.4188363066,
				"element": "C" 
			},
			{
				"x": -5.5996200609,
				"y": 1.3793385171,
				"z": 1.2083032928,
				"element": "C" 
			},
			{
				"x": -6.864565255,
				"y": 0.7898399406,
				"z": 1.164636623,
				"element": "C" 
			},
			{
				"x": -7.0985074308,
				"y": -0.3024849423,
				"z": 0.3256191838,
				"element": "C" 
			},
			{
				"x": -6.0748786566,
				"y": -0.8115775749,
				"z": -0.4737828845,
				"element": "C" 
			},
			{
				"x": -1.2008159537,
				"y": -2.374300411,
				"z": 3.9425891304,
				"element": "N" 
			},
			{
				"x": -0.3540407665,
				"y": -2.0762525438,
				"z": 4.7827067562,
				"element": "O" 
			},
			{
				"x": -2.1664772853,
				"y": -3.1084753277,
				"z": 4.1375146209,
				"element": "O" 
			},
			{
				"x": 1.7508092304,
				"y": -2.0654875196,
				"z": -1.6254108488,
				"element": "C" 
			},
			{
				"x": 2.9138941948,
				"y": -2.8112287657,
				"z": -1.4641870407,
				"element": "C" 
			},
			{
				"x": 3.2371167173,
				"y": 1.733013288,
				"z": -1.8804484405,
				"element": "S" 
			},
			{
				"x": 4.6523186306,
				"y": 2.0791067343,
				"z": -1.8115233548,
				"element": "O" 
			},
			{
				"x": 2.404737425,
				"y": 2.247597762,
				"z": -2.9649718098,
				"element": "O" 
			},
			{
				"x": 2.5139554137,
				"y": 2.1125300097,
				"z": -0.423287786,
				"element": "O" 
			},
			{
				"x": 2.3873480312,
				"y": 3.4862960825,
				"z": -0.1256909763,
				"element": "C" 
			},
			{
				"x": 1.1936669539,
				"y": 4.1319702454,
				"z": -0.4379197615,
				"element": "C" 
			},
			{
				"x": 1.0433109975,
				"y": 5.4718021314,
				"z": -0.0781134185,
				"element": "C" 
			},
			{
				"x": 2.0775677678,
				"y": 6.1443657705,
				"z": 0.5771084612,
				"element": "C" 
			},
			{
				"x": 3.2687154194,
				"y": 5.4784774704,
				"z": 0.8753654311,
				"element": "C" 
			},
			{
				"x": 3.4331354166,
				"y": 4.1378862107,
				"z": 0.5238383331,
				"element": "C" 
			},
			{
				"x": 5.1950461564,
				"y": -0.2751924248,
				"z": -1.5374198591,
				"element": "H" 
			},
			{
				"x": 0.5090899226,
				"y": 0.6982797245,
				"z": -2.887461387,
				"element": "H" 
			},
			{
				"x": -1.5044115379,
				"y": 0.4200596573,
				"z": -1.677273612,
				"element": "H" 
			},
			{
				"x": 0.9890245908,
				"y": 0.2638106741,
				"z": 0.8503653971,
				"element": "H" 
			},
			{
				"x": 0.7378246789,
				"y": -0.736336362,
				"z": 3.1242224484,
				"element": "H" 
			},
			{
				"x": -2.8057095026,
				"y": -2.7861029336,
				"z": 1.8382315568,
				"element": "H" 
			},
			{
				"x": -3.5758216903,
				"y": 1.3239096853,
				"z": 0.4326848854,
				"element": "H" 
			},
			{
				"x": -5.4154081004,
				"y": 2.2310426314,
				"z": 1.8559520491,
				"element": "H" 
			},
			{
				"x": -7.6673906443,
				"y": 1.1820760467,
				"z": 1.7812402598,
				"element": "H" 
			},
			{
				"x": -8.0820155734,
				"y": -0.7606727293,
				"z": 0.2890283409,
				"element": "H" 
			},
			{
				"x": -6.2360681186,
				"y": -1.65751786,
				"z": -1.1312166846,
				"element": "H" 
			},
			{
				"x": 0.7901287731,
				"y": -2.565972307,
				"z": -1.6828729002,
				"element": "H" 
			},
			{
				"x": 2.8882625916,
				"y": -3.8898234324,
				"z": -1.3698169996,
				"element": "H" 
			},
			{
				"x": 0.4088908627,
				"y": 3.5874218074,
				"z": -0.9506161855,
				"element": "H" 
			},
			{
				"x": 0.1185804139,
				"y": 5.9898156784,
				"z": -0.3134375009,
				"element": "H" 
			},
			{
				"x": 1.9558057939,
				"y": 7.1870863581,
				"z": 0.8540139354,
				"element": "H" 
			},
			{
				"x": 4.073699415,
				"y": 6.0012062195,
				"z": 1.3827041858,
				"element": "H" 
			},
			{
				"x": 4.3486580993,
				"y": 3.5998452188,
				"z": 0.7416506164,
				"element": "H" 
			}
		],
		 "valence_orbital": [ 
			{
				"type": "occ",
				"energy": -0.27493,
				"method": "rhf"
			},
			{
				"type": "occ",
				"energy": -0.27388,
				"method": "rhf"
			},
			{
				"type": "occ",
				"energy": -0.27331,
				"method": "rhf"
			},
			{
				"type": "occ",
				"energy": -0.26773,
				"method": "rhf"
			},
			{
				"type": "occ",
				"energy": -0.26742,
				"method": "rhf"
			},
			{
				"type": "unocc",
				"energy": -0.12133,
				"method": "rhf"
			},
			{
				"type": "unocc",
				"energy": -0.10761,
				"method": "rhf"
			},
			{
				"type": "unocc",
				"energy": -0.07768,
				"method": "rhf"
			},
			{
				"type": "unocc",
				"energy": -0.06789,
				"method": "rhf"
			},
			{
				"type": "unocc",
				"energy": -0.05237,
				"method": "rhf"
			}
		],
		"cosmo_sigma_profile": { 
			"-0.025": 0.0,
			"-0.024": 0.0,
			"-0.023": 0.0,
			"-0.022": 0.0,
			"-0.021": 0.0,
			"-0.02": 0.0,
			"-0.019": 0.0,
			"-0.018": 0.0,
			"-0.017": 0.0,
			"-0.016": 0.0,
			"-0.015": 0.0,
			"-0.014": 0.0,
			"-0.013": 0.0,
			"-0.012": 0.0,
			"-0.011": 0.0,
			"-0.01": 0.21347169633,
			"-0.009": 2.43594729061,
			"-0.008": 7.12717553579,
			"-0.007": 19.6615360036,
			"-0.006": 36.536443072,
			"-0.005": 45.9084204102,
			"-0.004": 45.0428589287,
			"-0.003": 48.987051367,
			"-0.002": 47.4243858261,
			"-0.001": 38.7929140686,
			"0.0": 30.5444761473,
			"0.001": 28.6786761799,
			"0.002": 29.6244605066,
			"0.003": 32.0732741826,
			"0.004": 32.4545804601,
			"0.005": 16.4629758718,
			"0.006": 19.7755923851,
			"0.007": 27.72890783,
			"0.008": 21.4873327914,
			"0.009": 20.7452735315,
			"0.01": 6.59589898639,
			"0.011": 0.0,
			"0.012": 0.0,
			"0.013": 0.0,
			"0.014": 0.0,
			"0.015": 0.0,
			"0.016": 0.0,
			"0.017": 0.0,
			"0.018": 0.0,
			"0.019": 0.0,
			"0.02": 0.0,
			"0.021": 0.0,
			"0.022": 0.0,
			"0.023": 0.0,
			"0.024": 0.0,
			"0.025": 0.0
		}
	}
}
