{
	 "smiles": "CC(C)(C)C1=CC(=CC(=C1O)C(C)(C)C)C(=O)CBr", 
	 "Tm": 378.65, 
	 "num_atms": 42, 
	 "gaussian": { 
		 "optdone": 1, 
		 "sigma_profile": "yes", 
		 "theory": "DFT", 
		 "functional": "B3LYP", 
		 "basiset": "6-31G**", 
		 "properties": { 
			 "R2extent": 9030.9024, 
			 "electric_dipole_moment_norm": 4.75772361009, 
			 "electric_quadrupole_moment_norm": 15.4812484416, 
			 "total_energy": -3345.43612915, 
			 "HOMO_LUMO_gap": 0.16544, 
			 "cosmo_polarized_energy": -11.4, 
			 "cosmo_cavitation_energy": 43.07, 
			 "cosmo_dispersion_energy": -29.35, 
			 "cosmo_repulsion_energy": 2.26, 
			 "cosmo_total_nonelectrostatic_energy": 15.98, 
			 "SMD_solvation_energy": 7.13 
		},
		"coords": [
			{
				"x": -0.8870948309,
				"y": 0.6916478648,
				"z": 3.1285123641,
				"element": "C" 
			},
			{
				"x": -1.0893415003,
				"y": -0.2119151639,
				"z": 1.8929465884,
				"element": "C" 
			},
			{
				"x": -0.440708021,
				"y": -1.5778671407,
				"z": 2.2488319093,
				"element": "C" 
			},
			{
				"x": -2.6256831846,
				"y": -0.3513035571,
				"z": 1.7099777027,
				"element": "C" 
			},
			{
				"x": -0.4378256943,
				"y": 0.3952303471,
				"z": 0.6240707586,
				"element": "C" 
			},
			{
				"x": 0.2258232393,
				"y": 1.6224614235,
				"z": 0.6813434336,
				"element": "C" 
			},
			{
				"x": 0.8149329655,
				"y": 2.2000203422,
				"z": -0.447826878,
				"element": "C" 
			},
			{
				"x": 0.7367457185,
				"y": 1.5254015187,
				"z": -1.6742541427,
				"element": "C" 
			},
			{
				"x": 0.0951365782,
				"y": 0.2989070945,
				"z": -1.8115668188,
				"element": "C" 
			},
			{
				"x": -0.4896274789,
				"y": -0.2506270518,
				"z": -0.6390081663,
				"element": "C" 
			},
			{
				"x": -1.1172342893,
				"y": -1.4554330042,
				"z": -0.7951359993,
				"element": "O" 
			},
			{
				"x": 0.0266113149,
				"y": -0.4218721754,
				"z": -3.1779499812,
				"element": "C" 
			},
			{
				"x": 0.7398688686,
				"y": 0.3895769297,
				"z": -4.2796879148,
				"element": "C" 
			},
			{
				"x": 0.7291723986,
				"y": -1.8001975176,
				"z": -3.0968244032,
				"element": "C" 
			},
			{
				"x": -1.4473278293,
				"y": -0.5988039364,
				"z": -3.6209566234,
				"element": "C" 
			},
			{
				"x": 1.5409561458,
				"y": 3.4927854229,
				"z": -0.4130070366,
				"element": "C" 
			},
			{
				"x": 2.0570052499,
				"y": 3.9793116614,
				"z": -1.4100639024,
				"element": "O" 
			},
			{
				"x": 1.7118283736,
				"y": 4.2397608411,
				"z": 0.9107322733,
				"element": "C" 
			},
			{
				"x": 0.0223209734,
				"y": 5.0992207446,
				"z": 1.4944604207,
				"element": "Br" 
			},
			{
				"x": 0.1722485791,
				"y": 0.8229527938,
				"z": 3.3701201896,
				"element": "H" 
			},
			{
				"x": -1.3657914998,
				"y": 0.2271252682,
				"z": 3.9962352454,
				"element": "H" 
			},
			{
				"x": -1.3359682127,
				"y": 1.6801110594,
				"z": 2.9935311534,
				"element": "H" 
			},
			{
				"x": -0.9078515089,
				"y": -1.9932387177,
				"z": 3.1480662844,
				"element": "H" 
			},
			{
				"x": -0.5162914845,
				"y": -2.3383757299,
				"z": 1.465123522,
				"element": "H" 
			},
			{
				"x": 0.6266949471,
				"y": -1.4462521518,
				"z": 2.4505962108,
				"element": "H" 
			},
			{
				"x": -3.0747277057,
				"y": -0.7818711456,
				"z": 2.6112949261,
				"element": "H" 
			},
			{
				"x": -2.9300118915,
				"y": -0.9785538449,
				"z": 0.8659208937,
				"element": "H" 
			},
			{
				"x": -3.0746337979,
				"y": 0.6323159499,
				"z": 1.5427735552,
				"element": "H" 
			},
			{
				"x": 0.265414547,
				"y": 2.1527873038,
				"z": 1.6219188034,
				"element": "H" 
			},
			{
				"x": 1.2053326621,
				"y": 2.0055613977,
				"z": -2.5225835461,
				"element": "H" 
			},
			{
				"x": -1.4904756495,
				"y": -1.742716271,
				"z": 0.044178534,
				"element": "H" 
			},
			{
				"x": 0.2833674527,
				"y": 1.3731112577,
				"z": -4.4303032396,
				"element": "H" 
			},
			{
				"x": 0.6675680247,
				"y": -0.1545833616,
				"z": -5.2266410481,
				"element": "H" 
			},
			{
				"x": 1.8034707568,
				"y": 0.5339716954,
				"z": -4.0641692416,
				"element": "H" 
			},
			{
				"x": 1.7815286242,
				"y": -1.68072269,
				"z": -2.8168855934,
				"element": "H" 
			},
			{
				"x": 0.6977827307,
				"y": -2.289802061,
				"z": -4.0767962464,
				"element": "H" 
			},
			{
				"x": 0.2530517574,
				"y": -2.460220201,
				"z": -2.3713831232,
				"element": "H" 
			},
			{
				"x": -2.0154997172,
				"y": -1.2080060171,
				"z": -2.9176636582,
				"element": "H" 
			},
			{
				"x": -1.4829534292,
				"y": -1.0860159867,
				"z": -4.6019880488,
				"element": "H" 
			},
			{
				"x": -1.9416323476,
				"y": 0.3743762372,
				"z": -3.7130336766,
				"element": "H" 
			},
			{
				"x": 2.4206756283,
				"y": 5.0497707479,
				"z": 0.76023608,
				"element": "H" 
			},
			{
				"x": 2.0194425366,
				"y": 3.5965698238,
				"z": 1.73485844,
				"element": "H" 
			}
		],
		 "valence_orbital": [ 
			{
				"type": "occ",
				"energy": -0.28816,
				"method": "rhf"
			},
			{
				"type": "occ",
				"energy": -0.27938,
				"method": "rhf"
			},
			{
				"type": "occ",
				"energy": -0.25019,
				"method": "rhf"
			},
			{
				"type": "occ",
				"energy": -0.24921,
				"method": "rhf"
			},
			{
				"type": "occ",
				"energy": -0.22798,
				"method": "rhf"
			},
			{
				"type": "unocc",
				"energy": -0.06254,
				"method": "rhf"
			},
			{
				"type": "unocc",
				"energy": -0.00673,
				"method": "rhf"
			},
			{
				"type": "unocc",
				"energy": -0.00397,
				"method": "rhf"
			},
			{
				"type": "unocc",
				"energy": 0.0525,
				"method": "rhf"
			},
			{
				"type": "unocc",
				"energy": 0.05409,
				"method": "rhf"
			}
		],
		"cosmo_sigma_profile": { 
			"-0.025": 0.0,
			"-0.024": 0.0,
			"-0.023": 0.0,
			"-0.022": 0.0,
			"-0.021": 0.0,
			"-0.02": 0.0,
			"-0.019": 0.0,
			"-0.018": 0.0,
			"-0.017": 0.0,
			"-0.016": 0.0,
			"-0.015": 0.314076400513,
			"-0.014": 0.78232271457,
			"-0.013": 0.785840790137,
			"-0.012": 0.518195645932,
			"-0.011": 0.594083358656,
			"-0.01": 0.77122426309,
			"-0.009": 2.22013098011,
			"-0.008": 5.01057730351,
			"-0.007": 4.80641065322,
			"-0.006": 6.01620157461,
			"-0.005": 6.26993322185,
			"-0.004": 13.6164005135,
			"-0.003": 34.2781666623,
			"-0.002": 40.8624563499,
			"-0.001": 39.0422089516,
			"0.0": 39.8541118183,
			"0.001": 40.0518593946,
			"0.002": 31.0525860912,
			"0.003": 20.7882041726,
			"0.004": 20.1523929069,
			"0.005": 12.6761005569,
			"0.006": 4.79040401735,
			"0.007": 1.56828677547,
			"0.008": 1.77652471398,
			"0.009": 1.10581710837,
			"0.01": 2.28091324067,
			"0.011": 3.63644525965,
			"0.012": 3.58846461396,
			"0.013": 0.448453250536,
			"0.014": 0.0,
			"0.015": 0.0,
			"0.016": 0.0,
			"0.017": 0.0,
			"0.018": 0.0,
			"0.019": 0.0,
			"0.02": 0.0,
			"0.021": 0.0,
			"0.022": 0.0,
			"0.023": 0.0,
			"0.024": 0.0,
			"0.025": 0.0
		}
	}
}
