{
	 "smiles": "CC1=C2NC=CC(=O)C2=CC(Br)=C1", 
	 "Tm": 523.15, 
	 "num_atms": 21, 
	 "gaussian": { 
		 "optdone": 1, 
		 "sigma_profile": "yes", 
		 "theory": "DFT", 
		 "functional": "B3LYP", 
		 "basiset": "6-31G**", 
		 "properties": { 
			 "R2extent": 4341.3214, 
			 "electric_dipole_moment_norm": 7.19701328677, 
			 "electric_quadrupole_moment_norm": 7.44400068176, 
			 "total_energy": -3087.28152847, 
			 "HOMO_LUMO_gap": 0.16735, 
			 "cosmo_polarized_energy": -18.79, 
			 "cosmo_cavitation_energy": 27.13, 
			 "cosmo_dispersion_energy": -20.6, 
			 "cosmo_repulsion_energy": 1.61, 
			 "cosmo_total_nonelectrostatic_energy": 8.14, 
			 "SMD_solvation_energy": 3.99 
		},
		"coords": [
			{
				"x": 1.872080021,
				"y": -2.3687425521,
				"z": -0.3614621806,
				"element": "C" 
			},
			{
				"x": 1.3840194595,
				"y": -0.9495838477,
				"z": -0.5244360823,
				"element": "C" 
			},
			{
				"x": 0.4530630821,
				"y": -0.3902783189,
				"z": 0.3858901656,
				"element": "C" 
			},
			{
				"x": -0.0289495076,
				"y": -1.1400984802,
				"z": 1.448209591,
				"element": "N" 
			},
			{
				"x": -0.9286962185,
				"y": -0.6307036333,
				"z": 2.3460705085,
				"element": "C" 
			},
			{
				"x": -1.4062492469,
				"y": 0.6366604034,
				"z": 2.2557381594,
				"element": "C" 
			},
			{
				"x": -0.9818755541,
				"y": 1.532097065,
				"z": 1.1865624347,
				"element": "C" 
			},
			{
				"x": -1.388076944,
				"y": 2.6895102481,
				"z": 1.0646096407,
				"element": "O" 
			},
			{
				"x": -0.0032659305,
				"y": 0.9355863055,
				"z": 0.2341194731,
				"element": "C" 
			},
			{
				"x": 0.4714421467,
				"y": 1.7123490139,
				"z": -0.8343465944,
				"element": "C" 
			},
			{
				"x": 1.3781480676,
				"y": 1.1662676418,
				"z": -1.7205613586,
				"element": "C" 
			},
			{
				"x": 2.03823321,
				"y": 2.2052798256,
				"z": -3.1835718976,
				"element": "Br" 
			},
			{
				"x": 1.8327860557,
				"y": -0.1527367979,
				"z": -1.5700715096,
				"element": "C" 
			},
			{
				"x": 2.382401264,
				"y": -2.5187531203,
				"z": 0.5992330128,
				"element": "H" 
			},
			{
				"x": 2.5834014056,
				"y": -2.6273568422,
				"z": -1.1486035266,
				"element": "H" 
			},
			{
				"x": 1.049188403,
				"y": -3.0937801177,
				"z": -0.4164453224,
				"element": "H" 
			},
			{
				"x": 0.2938838354,
				"y": -2.0876787865,
				"z": 1.5611858869,
				"element": "H" 
			},
			{
				"x": -1.2307724666,
				"y": -1.3138732502,
				"z": 3.1331054931,
				"element": "H" 
			},
			{
				"x": -2.1176130385,
				"y": 1.008995782,
				"z": 2.9828223222,
				"element": "H" 
			},
			{
				"x": 0.1029047678,
				"y": 2.7273472264,
				"z": -0.9253091726,
				"element": "H" 
			},
			{
				"x": 2.5456471882,
				"y": -0.5562077649,
				"z": -2.2812390431,
				"element": "H" 
			}
		],
		 "valence_orbital": [ 
			{
				"type": "occ",
				"energy": -0.28543,
				"method": "rhf"
			},
			{
				"type": "occ",
				"energy": -0.26285,
				"method": "rhf"
			},
			{
				"type": "occ",
				"energy": -0.25818,
				"method": "rhf"
			},
			{
				"type": "occ",
				"energy": -0.2315,
				"method": "rhf"
			},
			{
				"type": "occ",
				"energy": -0.21629,
				"method": "rhf"
			},
			{
				"type": "unocc",
				"energy": -0.04894,
				"method": "rhf"
			},
			{
				"type": "unocc",
				"energy": -0.02432,
				"method": "rhf"
			},
			{
				"type": "unocc",
				"energy": 0.00834,
				"method": "rhf"
			},
			{
				"type": "unocc",
				"energy": 0.00877,
				"method": "rhf"
			},
			{
				"type": "unocc",
				"energy": 0.0448,
				"method": "rhf"
			}
		],
		"cosmo_sigma_profile": { 
			"-0.025": 0.0,
			"-0.024": 0.0,
			"-0.023": 0.0,
			"-0.022": 0.0,
			"-0.021": 0.0,
			"-0.02": 0.0,
			"-0.019": 0.0,
			"-0.018": 0.0,
			"-0.017": 0.484816458742,
			"-0.016": 1.10382501803,
			"-0.015": 1.09076547955,
			"-0.014": 1.10538803121,
			"-0.013": 1.36539376326,
			"-0.012": 1.52276493202,
			"-0.011": 1.8827700918,
			"-0.01": 2.55502043086,
			"-0.009": 3.80925979732,
			"-0.008": 2.63415207041,
			"-0.007": 6.32674497747,
			"-0.006": 9.75292831864,
			"-0.005": 11.5007185713,
			"-0.004": 10.6978365086,
			"-0.003": 12.0324595546,
			"-0.002": 12.4885265766,
			"-0.001": 16.20954491,
			"0.0": 18.4151261264,
			"0.001": 18.807859482,
			"0.002": 24.94647849,
			"0.003": 17.7051452685,
			"0.004": 13.1756951072,
			"0.005": 9.5444099929,
			"0.006": 1.38240308089,
			"0.007": 1.38148640248,
			"0.008": 1.72979769472,
			"0.009": 1.60804398058,
			"0.01": 1.5085693423,
			"0.011": 1.32795566231,
			"0.012": 1.49479142608,
			"0.013": 2.4234128372,
			"0.014": 5.1643920674,
			"0.015": 2.7156872942,
			"0.016": 0.763888936522,
			"0.017": 0.0,
			"0.018": 0.0,
			"0.019": 0.0,
			"0.02": 0.0,
			"0.021": 0.0,
			"0.022": 0.0,
			"0.023": 0.0,
			"0.024": 0.0,
			"0.025": 0.0
		}
	}
}
