{
	 "smiles": "CCCCCCCCCCCCCCC", 
	 "Tm": 283.1, 
	 "num_atms": 47, 
	 "gaussian": { 
		 "optdone": 1, 
		 "sigma_profile": "yes", 
		 "theory": "DFT", 
		 "functional": "B3LYP", 
		 "basiset": "6-31G**", 
		 "properties": { 
			 "R2extent": 5198.2356, 
			 "electric_dipole_moment_norm": 0.0346203697265, 
			 "electric_quadrupole_moment_norm": 0.396184149102, 
			 "total_energy": -590.921869269, 
			 "HOMO_LUMO_gap": 0.35729, 
			 "cosmo_polarized_energy": -1.01, 
			 "cosmo_cavitation_energy": 44.67, 
			 "cosmo_dispersion_energy": -28.3, 
			 "cosmo_repulsion_energy": 2.29, 
			 "cosmo_total_nonelectrostatic_energy": 18.66, 
			 "SMD_solvation_energy": 5.83 
		},
		"coords": [
			{
				"x": 3.0348158802,
				"y": -2.9595756539,
				"z": 1.1964611737,
				"element": "C" 
			},
			{
				"x": 2.2428760804,
				"y": -2.2697201496,
				"z": 0.0788093657,
				"element": "C" 
			},
			{
				"x": 0.8202172422,
				"y": -1.8368927988,
				"z": 0.4731693244,
				"element": "C" 
			},
			{
				"x": -0.1329177377,
				"y": -2.9992772049,
				"z": 0.795020716,
				"element": "C" 
			},
			{
				"x": -1.5780767006,
				"y": -2.5885773978,
				"z": 1.157859998,
				"element": "C" 
			},
			{
				"x": -2.5791911238,
				"y": -2.517948624,
				"z": -0.012742711,
				"element": "C" 
			},
			{
				"x": -2.3851785314,
				"y": -1.4088236836,
				"z": -1.0621883953,
				"element": "C" 
			},
			{
				"x": -2.5856258759,
				"y": 0.0174170504,
				"z": -0.5258395621,
				"element": "C" 
			},
			{
				"x": -2.5327558953,
				"y": 1.1040398492,
				"z": -1.6177286866,
				"element": "C" 
			},
			{
				"x": -1.1248182336,
				"y": 1.4206958992,
				"z": -2.1779375318,
				"element": "C" 
			},
			{
				"x": -0.4060877961,
				"y": 2.6602928464,
				"z": -1.6082225048,
				"element": "C" 
			},
			{
				"x": 0.0097959854,
				"y": 2.6349628296,
				"z": -0.1210119548,
				"element": "C" 
			},
			{
				"x": -1.0620636056,
				"y": 3.1085034942,
				"z": 0.8752701442,
				"element": "C" 
			},
			{
				"x": -0.5619303083,
				"y": 3.242851104,
				"z": 2.3237995005,
				"element": "C" 
			},
			{
				"x": -0.1801079433,
				"y": 1.916560898,
				"z": 2.992435816,
				"element": "C" 
			},
			{
				"x": 4.0548816735,
				"y": -3.1895646548,
				"z": 0.8712084321,
				"element": "H" 
			},
			{
				"x": 2.5713011507,
				"y": -3.9013617389,
				"z": 1.5072024564,
				"element": "H" 
			},
			{
				"x": 3.1061615942,
				"y": -2.3177408962,
				"z": 2.082566712,
				"element": "H" 
			},
			{
				"x": 2.1879393217,
				"y": -2.9352277126,
				"z": -0.7939331932,
				"element": "H" 
			},
			{
				"x": 2.7983114172,
				"y": -1.3830235959,
				"z": -0.2529774109,
				"element": "H" 
			},
			{
				"x": 0.4034020125,
				"y": -1.2315262181,
				"z": -0.3400011693,
				"element": "H" 
			},
			{
				"x": 0.8758148117,
				"y": -1.1714529564,
				"z": 1.3472426982,
				"element": "H" 
			},
			{
				"x": -0.1555823795,
				"y": -3.6977479816,
				"z": -0.0544660731,
				"element": "H" 
			},
			{
				"x": 0.2859631635,
				"y": -3.5671875543,
				"z": 1.6344889278,
				"element": "H" 
			},
			{
				"x": -1.976445474,
				"y": -3.3233187711,
				"z": 1.8688850343,
				"element": "H" 
			},
			{
				"x": -1.5618423453,
				"y": -1.6352917667,
				"z": 1.7031438045,
				"element": "H" 
			},
			{
				"x": -3.5889405049,
				"y": -2.4137041951,
				"z": 0.4089677869,
				"element": "H" 
			},
			{
				"x": -2.5698653818,
				"y": -3.4892226959,
				"z": -0.526474046,
				"element": "H" 
			},
			{
				"x": -3.1125215856,
				"y": -1.5772062324,
				"z": -1.8688009634,
				"element": "H" 
			},
			{
				"x": -1.398468986,
				"y": -1.5041749449,
				"z": -1.5321303009,
				"element": "H" 
			},
			{
				"x": -3.5645721868,
				"y": 0.0621551015,
				"z": -0.0281148924,
				"element": "H" 
			},
			{
				"x": -1.8416649288,
				"y": 0.233174213,
				"z": 0.25032283,
				"element": "H" 
			},
			{
				"x": -2.9828901117,
				"y": 2.028755173,
				"z": -1.2358716609,
				"element": "H" 
			},
			{
				"x": -3.1832507918,
				"y": 0.7809411869,
				"z": -2.4414509492,
				"element": "H" 
			},
			{
				"x": -0.4721464809,
				"y": 0.5457233973,
				"z": -2.0546847788,
				"element": "H" 
			},
			{
				"x": -1.2038768726,
				"y": 1.571446573,
				"z": -3.2619122884,
				"element": "H" 
			},
			{
				"x": -1.0259243199,
				"y": 3.5499581507,
				"z": -1.7917223581,
				"element": "H" 
			},
			{
				"x": 0.500758199,
				"y": 2.8043668398,
				"z": -2.2099311735,
				"element": "H" 
			},
			{
				"x": 0.3578994541,
				"y": 1.6270791808,
				"z": 0.1401768655,
				"element": "H" 
			},
			{
				"x": 0.8830534592,
				"y": 3.2911040563,
				"z": 0.0010398762,
				"element": "H" 
			},
			{
				"x": -1.4333791878,
				"y": 4.0871863187,
				"z": 0.5413322539,
				"element": "H" 
			},
			{
				"x": -1.9277296401,
				"y": 2.4352931834,
				"z": 0.8590330716,
				"element": "H" 
			},
			{
				"x": 0.3008380124,
				"y": 3.923261255,
				"z": 2.3450198237,
				"element": "H" 
			},
			{
				"x": -1.3443602039,
				"y": 3.7283283412,
				"z": 2.9212925908,
				"element": "H" 
			},
			{
				"x": -1.0258303949,
				"y": 1.2186003545,
				"z": 2.9945262856,
				"element": "H" 
			},
			{
				"x": 0.1226294462,
				"y": 2.0719016278,
				"z": 4.0333977173,
				"element": "H" 
			},
			{
				"x": 0.6530866237,
				"y": 1.4251685038,
				"z": 2.4793693992,
				"element": "H" 
			}
		],
		 "valence_orbital": [ 
			{
				"type": "occ",
				"energy": -0.30578,
				"method": "rhf"
			},
			{
				"type": "occ",
				"energy": -0.3,
				"method": "rhf"
			},
			{
				"type": "occ",
				"energy": -0.29868,
				"method": "rhf"
			},
			{
				"type": "occ",
				"energy": -0.29455,
				"method": "rhf"
			},
			{
				"type": "occ",
				"energy": -0.29324,
				"method": "rhf"
			},
			{
				"type": "unocc",
				"energy": 0.06405,
				"method": "rhf"
			},
			{
				"type": "unocc",
				"energy": 0.08136,
				"method": "rhf"
			},
			{
				"type": "unocc",
				"energy": 0.0924,
				"method": "rhf"
			},
			{
				"type": "unocc",
				"energy": 0.0938,
				"method": "rhf"
			},
			{
				"type": "unocc",
				"energy": 0.10734,
				"method": "rhf"
			}
		],
		"cosmo_sigma_profile": { 
			"-0.025": 0.0,
			"-0.024": 0.0,
			"-0.023": 0.0,
			"-0.022": 0.0,
			"-0.021": 0.0,
			"-0.02": 0.0,
			"-0.019": 0.0,
			"-0.018": 0.0,
			"-0.017": 0.0,
			"-0.016": 0.0,
			"-0.015": 0.0,
			"-0.014": 0.0,
			"-0.013": 0.0,
			"-0.012": 0.0,
			"-0.011": 0.0,
			"-0.01": 0.0,
			"-0.009": 0.0,
			"-0.008": 0.0,
			"-0.007": 0.0,
			"-0.006": 0.0,
			"-0.005": 0.0,
			"-0.004": 0.0,
			"-0.003": 3.40462343021,
			"-0.002": 33.9225144714,
			"-0.001": 81.4835420977,
			"0.0": 101.623314751,
			"0.001": 83.8141534897,
			"0.002": 35.7240102309,
			"0.003": 0.757189174374,
			"0.004": 0.0,
			"0.005": 0.0,
			"0.006": 0.0,
			"0.007": 0.0,
			"0.008": 0.0,
			"0.009": 0.0,
			"0.01": 0.0,
			"0.011": 0.0,
			"0.012": 0.0,
			"0.013": 0.0,
			"0.014": 0.0,
			"0.015": 0.0,
			"0.016": 0.0,
			"0.017": 0.0,
			"0.018": 0.0,
			"0.019": 0.0,
			"0.02": 0.0,
			"0.021": 0.0,
			"0.022": 0.0,
			"0.023": 0.0,
			"0.024": 0.0,
			"0.025": 0.0
		}
	}
}
