{
	 "smiles": "ONC1=NC2=C(OC1=O)C=CC=C2", 
	 "Tm": 528.15, 
	 "num_atms": 19, 
	 "gaussian": { 
		 "optdone": 1, 
		 "sigma_profile": "yes", 
		 "theory": "DFT", 
		 "functional": "B3LYP", 
		 "basiset": "6-31G**", 
		 "properties": { 
			 "R2extent": 2959.9341, 
			 "electric_dipole_moment_norm": 3.06899314271, 
			 "electric_quadrupole_moment_norm": 5.13485676821, 
			 "total_energy": -643.579567211, 
			 "HOMO_LUMO_gap": 0.14492, 
			 "cosmo_polarized_energy": -10.0, 
			 "cosmo_cavitation_energy": 23.95, 
			 "cosmo_dispersion_energy": -18.41, 
			 "cosmo_repulsion_energy": 1.44, 
			 "cosmo_total_nonelectrostatic_energy": 6.98, 
			 "SMD_solvation_energy": 4.56 
		},
		"coords": [
			{
				"x": -1.2447800124,
				"y": 2.6454489261,
				"z": 3.7105183485,
				"element": "O" 
			},
			{
				"x": -1.7712810558,
				"y": 1.5150242707,
				"z": 3.0276680439,
				"element": "N" 
			},
			{
				"x": -0.9016143714,
				"y": 0.7915252117,
				"z": 2.2360104702,
				"element": "C" 
			},
			{
				"x": -0.9759204035,
				"y": -0.502524366,
				"z": 2.209379334,
				"element": "N" 
			},
			{
				"x": -0.2057567733,
				"y": -1.1726301929,
				"z": 1.271508109,
				"element": "C" 
			},
			{
				"x": 0.6696183419,
				"y": -0.4827729628,
				"z": 0.4152157094,
				"element": "C" 
			},
			{
				"x": 0.7440771505,
				"y": 0.8945786039,
				"z": 0.4753760102,
				"element": "O" 
			},
			{
				"x": -0.0434653829,
				"y": 1.6063206078,
				"z": 1.3232609323,
				"element": "C" 
			},
			{
				"x": -0.0200705403,
				"y": 2.8196422432,
				"z": 1.2920810665,
				"element": "O" 
			},
			{
				"x": 1.4729954094,
				"y": -1.1398686008,
				"z": -0.5113345898,
				"element": "C" 
			},
			{
				"x": 1.4034605832,
				"y": -2.5290670185,
				"z": -0.5871478057,
				"element": "C" 
			},
			{
				"x": 0.5386102141,
				"y": -3.2439948888,
				"z": 0.254666264,
				"element": "C" 
			},
			{
				"x": -0.2576288623,
				"y": -2.5742435048,
				"z": 1.175219383,
				"element": "C" 
			},
			{
				"x": -1.0723213505,
				"y": 3.2667217555,
				"z": 2.9801642012,
				"element": "H" 
			},
			{
				"x": -2.2494615495,
				"y": 0.9375376732,
				"z": 3.7116159014,
				"element": "H" 
			},
			{
				"x": 2.1307976246,
				"y": -0.5600928939,
				"z": -1.1498418947,
				"element": "H" 
			},
			{
				"x": 2.023871479,
				"y": -3.05692413,
				"z": -1.3044219998,
				"element": "H" 
			},
			{
				"x": 0.4919046013,
				"y": -4.3263160378,
				"z": 0.1874805,
				"element": "H" 
			},
			{
				"x": -0.9321351021,
				"y": -3.1038646959,
				"z": 1.8397820161,
				"element": "H" 
			}
		],
		 "valence_orbital": [ 
			{
				"type": "occ",
				"energy": -0.32485,
				"method": "rhf"
			},
			{
				"type": "occ",
				"energy": -0.28368,
				"method": "rhf"
			},
			{
				"type": "occ",
				"energy": -0.27093,
				"method": "rhf"
			},
			{
				"type": "occ",
				"energy": -0.25898,
				"method": "rhf"
			},
			{
				"type": "occ",
				"energy": -0.22518,
				"method": "rhf"
			},
			{
				"type": "unocc",
				"energy": -0.08026,
				"method": "rhf"
			},
			{
				"type": "unocc",
				"energy": -0.02024,
				"method": "rhf"
			},
			{
				"type": "unocc",
				"energy": -0.01228,
				"method": "rhf"
			},
			{
				"type": "unocc",
				"energy": 0.05605,
				"method": "rhf"
			},
			{
				"type": "unocc",
				"energy": 0.07906,
				"method": "rhf"
			}
		],
		"cosmo_sigma_profile": { 
			"-0.025": 0.0,
			"-0.024": 0.0,
			"-0.023": 0.0,
			"-0.022": 0.0,
			"-0.021": 0.0,
			"-0.02": 0.0,
			"-0.019": 0.0,
			"-0.018": 0.0,
			"-0.017": 0.0,
			"-0.016": 0.0,
			"-0.015": 0.904740011212,
			"-0.014": 1.03702261131,
			"-0.013": 0.955549840601,
			"-0.012": 0.989287201712,
			"-0.011": 1.05946935297,
			"-0.01": 1.967711949,
			"-0.009": 2.41084368331,
			"-0.008": 3.92899933571,
			"-0.007": 8.00739845691,
			"-0.006": 11.310206227,
			"-0.005": 12.6026606912,
			"-0.004": 10.3718769811,
			"-0.003": 10.2179681021,
			"-0.002": 10.6371771105,
			"-0.001": 11.2477442546,
			"0.0": 13.1809426192,
			"0.001": 14.4311540079,
			"0.002": 16.041608246,
			"0.003": 15.1908342106,
			"0.004": 8.95838599248,
			"0.005": 5.49190801337,
			"0.006": 5.78805599143,
			"0.007": 5.69413663608,
			"0.008": 5.79914194853,
			"0.009": 4.61497483103,
			"0.01": 4.82244364649,
			"0.011": 4.23364794124,
			"0.012": 0.89018740039,
			"0.013": 0.0557168359133,
			"0.014": 0.0,
			"0.015": 0.0,
			"0.016": 0.0,
			"0.017": 0.0,
			"0.018": 0.0,
			"0.019": 0.0,
			"0.02": 0.0,
			"0.021": 0.0,
			"0.022": 0.0,
			"0.023": 0.0,
			"0.024": 0.0,
			"0.025": 0.0
		}
	}
}
