{
	 "smiles": "CCOC(=O)CCC1=CC=C(O)C=C1", 
	 "Tm": 314.15, 
	 "num_atms": 28, 
	 "gaussian": { 
		 "optdone": 1, 
		 "sigma_profile": "yes", 
		 "theory": "DFT", 
		 "functional": "B3LYP", 
		 "basiset": "6-31G**", 
		 "properties": { 
			 "R2extent": 5093.2916, 
			 "electric_dipole_moment_norm": 2.63681481337, 
			 "electric_quadrupole_moment_norm": 17.4291259276, 
			 "total_energy": -653.297880319, 
			 "HOMO_LUMO_gap": 0.21263, 
			 "cosmo_polarized_energy": -13.23, 
			 "cosmo_cavitation_energy": 31.83, 
			 "cosmo_dispersion_energy": -22.09, 
			 "cosmo_repulsion_energy": 1.79, 
			 "cosmo_total_nonelectrostatic_energy": 11.53, 
			 "SMD_solvation_energy": 6.54 
		},
		"coords": [
			{
				"x": -3.4654605925,
				"y": 2.2610438761,
				"z": 0.9615988207,
				"element": "C" 
			},
			{
				"x": -3.1258968879,
				"y": 0.9522979317,
				"z": 0.2641506676,
				"element": "C" 
			},
			{
				"x": -1.6944633666,
				"y": 0.7854468762,
				"z": 0.1238764493,
				"element": "O" 
			},
			{
				"x": -1.1223432231,
				"y": 1.3712566644,
				"z": -0.9575453724,
				"element": "C" 
			},
			{
				"x": -1.7416801998,
				"y": 2.0043590626,
				"z": -1.784754594,
				"element": "O" 
			},
			{
				"x": 0.3813472192,
				"y": 1.1677358833,
				"z": -0.968400902,
				"element": "C" 
			},
			{
				"x": 0.8509476638,
				"y": -0.2766034943,
				"z": -0.6851336573,
				"element": "C" 
			},
			{
				"x": 0.4196515433,
				"y": -1.2770292552,
				"z": -1.7375053434,
				"element": "C" 
			},
			{
				"x": 1.1453706966,
				"y": -1.4273500688,
				"z": -2.9293535008,
				"element": "C" 
			},
			{
				"x": 0.7502373876,
				"y": -2.3239361271,
				"z": -3.9169467702,
				"element": "C" 
			},
			{
				"x": -0.3977745632,
				"y": -3.101641668,
				"z": -3.7279036379,
				"element": "C" 
			},
			{
				"x": -0.742763439,
				"y": -3.970953001,
				"z": -4.7254617535,
				"element": "O" 
			},
			{
				"x": -1.1341256491,
				"y": -2.9709509802,
				"z": -2.5471834826,
				"element": "C" 
			},
			{
				"x": -0.7237247591,
				"y": -2.0658775847,
				"z": -1.5672368782,
				"element": "C" 
			},
			{
				"x": -2.9677266139,
				"y": 2.3258770259,
				"z": 1.933776049,
				"element": "H" 
			},
			{
				"x": -4.5465461296,
				"y": 2.3265491536,
				"z": 1.1241833258,
				"element": "H" 
			},
			{
				"x": -3.1595243093,
				"y": 3.1119499165,
				"z": 0.3482561259,
				"element": "H" 
			},
			{
				"x": -3.4445099671,
				"y": 0.0902666891,
				"z": 0.855592073,
				"element": "H" 
			},
			{
				"x": -3.5843610384,
				"y": 0.9038978088,
				"z": -0.7263110037,
				"element": "H" 
			},
			{
				"x": 0.8014193311,
				"y": 1.8369681646,
				"z": -0.2055307164,
				"element": "H" 
			},
			{
				"x": 0.7369185207,
				"y": 1.5141660301,
				"z": -1.9416903976,
				"element": "H" 
			},
			{
				"x": 1.9452343899,
				"y": -0.2625690036,
				"z": -0.6189548807,
				"element": "H" 
			},
			{
				"x": 0.478212598,
				"y": -0.5814430937,
				"z": 0.2969574643,
				"element": "H" 
			},
			{
				"x": 2.0427977827,
				"y": -0.8330559946,
				"z": -3.0865849942,
				"element": "H" 
			},
			{
				"x": 1.3167400578,
				"y": -2.4392536408,
				"z": -4.8351852518,
				"element": "H" 
			},
			{
				"x": -1.5506834944,
				"y": -4.4359136295,
				"z": -4.4725672518,
				"element": "H" 
			},
			{
				"x": -2.0244683334,
				"y": -3.5772087496,
				"z": -2.3908900078,
				"element": "H" 
			},
			{
				"x": -1.3041246243,
				"y": -1.972828792,
				"z": -0.6535505794,
				"element": "H" 
			}
		],
		 "valence_orbital": [ 
			{
				"type": "occ",
				"energy": -0.32249,
				"method": "rhf"
			},
			{
				"type": "occ",
				"energy": -0.29506,
				"method": "rhf"
			},
			{
				"type": "occ",
				"energy": -0.264,
				"method": "rhf"
			},
			{
				"type": "occ",
				"energy": -0.24895,
				"method": "rhf"
			},
			{
				"type": "occ",
				"energy": -0.21452,
				"method": "rhf"
			},
			{
				"type": "unocc",
				"energy": -0.00189,
				"method": "rhf"
			},
			{
				"type": "unocc",
				"energy": 0.01399,
				"method": "rhf"
			},
			{
				"type": "unocc",
				"energy": 0.01659,
				"method": "rhf"
			},
			{
				"type": "unocc",
				"energy": 0.07239,
				"method": "rhf"
			},
			{
				"type": "unocc",
				"energy": 0.08941,
				"method": "rhf"
			}
		],
		"cosmo_sigma_profile": { 
			"-0.025": 0.0,
			"-0.024": 0.0,
			"-0.023": 0.0,
			"-0.022": 0.0,
			"-0.021": 0.0,
			"-0.02": 0.0,
			"-0.019": 0.0,
			"-0.018": 0.151024215058,
			"-0.017": 0.891389031998,
			"-0.016": 1.22707528691,
			"-0.015": 1.04232939663,
			"-0.014": 1.16846944277,
			"-0.013": 1.22319023504,
			"-0.012": 0.630604822612,
			"-0.011": 0.756784558657,
			"-0.01": 0.880538796582,
			"-0.009": 1.48318895546,
			"-0.008": 0.865974638241,
			"-0.007": 1.43407323926,
			"-0.006": 6.61503060154,
			"-0.005": 13.8952649594,
			"-0.004": 26.4753414348,
			"-0.003": 28.2775197377,
			"-0.002": 23.9122145363,
			"-0.001": 20.8650442566,
			"0.0": 19.4761070608,
			"0.001": 12.7862823001,
			"0.002": 12.6883731227,
			"0.003": 11.1210617503,
			"0.004": 13.5393935937,
			"0.005": 12.9961525341,
			"0.006": 11.2128940179,
			"0.007": 3.48755364354,
			"0.008": 2.99702657416,
			"0.009": 3.47675053438,
			"0.01": 3.21071806149,
			"0.011": 4.22956398955,
			"0.012": 5.64923965613,
			"0.013": 1.73655919577,
			"0.014": 0.0546795960149,
			"0.015": 0.0,
			"0.016": 0.0,
			"0.017": 0.0,
			"0.018": 0.0,
			"0.019": 0.0,
			"0.02": 0.0,
			"0.021": 0.0,
			"0.022": 0.0,
			"0.023": 0.0,
			"0.024": 0.0,
			"0.025": 0.0
		}
	}
}
