{
	 "smiles": "NC(=S)NN=CC1=CC=CC=C1", 
	 "Tm": 428.15, 
	 "num_atms": 21, 
	 "gaussian": { 
		 "optdone": 1, 
		 "sigma_profile": "yes", 
		 "theory": "DFT", 
		 "functional": "B3LYP", 
		 "basiset": "6-31G**", 
		 "properties": { 
			 "R2extent": 3840.3765, 
			 "electric_dipole_moment_norm": 5.18940887289, 
			 "electric_quadrupole_moment_norm": 27.7582675983, 
			 "total_energy": -872.70058982, 
			 "HOMO_LUMO_gap": 0.14651, 
			 "cosmo_polarized_energy": -15.73, 
			 "cosmo_cavitation_energy": 27.32, 
			 "cosmo_dispersion_energy": -20.51, 
			 "cosmo_repulsion_energy": 1.61, 
			 "cosmo_total_nonelectrostatic_energy": 8.42, 
			 "SMD_solvation_energy": 3.56 
		},
		"coords": [
			{
				"x": -1.5910394264,
				"y": -1.5332814885,
				"z": -3.728702567,
				"element": "N" 
			},
			{
				"x": -2.0451901379,
				"y": -1.8055430753,
				"z": -2.4927806964,
				"element": "C" 
			},
			{
				"x": -3.4708966564,
				"y": -2.6190232281,
				"z": -2.1478785164,
				"element": "S" 
			},
			{
				"x": -1.2265218799,
				"y": -1.3839503937,
				"z": -1.4669409086,
				"element": "N" 
			},
			{
				"x": -0.1361038326,
				"y": -0.6178337846,
				"z": -1.7294295402,
				"element": "N" 
			},
			{
				"x": 0.6041047142,
				"y": -0.1803223963,
				"z": -0.7676287034,
				"element": "C" 
			},
			{
				"x": 0.5182369336,
				"y": -0.3939293298,
				"z": 0.689451781,
				"element": "C" 
			},
			{
				"x": 0.9477395608,
				"y": 0.6501984393,
				"z": 1.529768835,
				"element": "C" 
			},
			{
				"x": 0.9081752921,
				"y": 0.5164055952,
				"z": 2.9147661958,
				"element": "C" 
			},
			{
				"x": 0.456718637,
				"y": -0.6741580949,
				"z": 3.4901732305,
				"element": "C" 
			},
			{
				"x": 0.0562429502,
				"y": -1.7302768969,
				"z": 2.6700707374,
				"element": "C" 
			},
			{
				"x": 0.0848546932,
				"y": -1.5961146127,
				"z": 1.2822470064,
				"element": "C" 
			},
			{
				"x": -2.1603875113,
				"y": -1.7981393396,
				"z": -4.5143734664,
				"element": "H" 
			},
			{
				"x": -0.748859829,
				"y": -0.985731236,
				"z": -3.8404268635,
				"element": "H" 
			},
			{
				"x": -1.6018777552,
				"y": -1.4928618981,
				"z": -0.530202083,
				"element": "H" 
			},
			{
				"x": 1.4061574686,
				"y": 0.474671886,
				"z": -1.105781348,
				"element": "H" 
			},
			{
				"x": 1.3050679077,
				"y": 1.5751505404,
				"z": 1.0846444138,
				"element": "H" 
			},
			{
				"x": 1.2332710264,
				"y": 1.3381523232,
				"z": 3.5460052187,
				"element": "H" 
			},
			{
				"x": 0.4276917131,
				"y": -0.7814077474,
				"z": 4.5703484537,
				"element": "H" 
			},
			{
				"x": -0.2741424318,
				"y": -2.6666168955,
				"z": 3.1096947424,
				"element": "H" 
			},
			{
				"x": -0.1865414363,
				"y": -2.4458883667,
				"z": 0.6641740782,
				"element": "H" 
			}
		],
		 "valence_orbital": [ 
			{
				"type": "occ",
				"energy": -0.28657,
				"method": "rhf"
			},
			{
				"type": "occ",
				"energy": -0.27053,
				"method": "rhf"
			},
			{
				"type": "occ",
				"energy": -0.24695,
				"method": "rhf"
			},
			{
				"type": "occ",
				"energy": -0.20879,
				"method": "rhf"
			},
			{
				"type": "occ",
				"energy": -0.20648,
				"method": "rhf"
			},
			{
				"type": "unocc",
				"energy": -0.05997,
				"method": "rhf"
			},
			{
				"type": "unocc",
				"energy": -0.02263,
				"method": "rhf"
			},
			{
				"type": "unocc",
				"energy": 0.00182,
				"method": "rhf"
			},
			{
				"type": "unocc",
				"energy": 0.03843,
				"method": "rhf"
			},
			{
				"type": "unocc",
				"energy": 0.07493,
				"method": "rhf"
			}
		],
		"cosmo_sigma_profile": { 
			"-0.025": 0.0,
			"-0.024": 0.0,
			"-0.023": 0.0,
			"-0.022": 0.0,
			"-0.021": 0.0,
			"-0.02": 0.0,
			"-0.019": 0.0,
			"-0.018": 0.0,
			"-0.017": 0.0,
			"-0.016": 0.000982887365487,
			"-0.015": 0.656660736585,
			"-0.014": 1.23434902754,
			"-0.013": 1.67622645624,
			"-0.012": 1.6518748271,
			"-0.011": 2.9281298529,
			"-0.01": 2.67772562609,
			"-0.009": 2.65151476097,
			"-0.008": 4.44045330976,
			"-0.007": 9.43249237172,
			"-0.006": 13.654788754,
			"-0.005": 14.8233906115,
			"-0.004": 13.94369536,
			"-0.003": 11.082437828,
			"-0.002": 9.73129289399,
			"-0.001": 12.9031631499,
			"0.0": 14.6635950971,
			"0.001": 14.7692987267,
			"0.002": 14.8399660493,
			"0.003": 13.0689688196,
			"0.004": 17.5017553544,
			"0.005": 7.70341090225,
			"0.006": 5.05209280889,
			"0.007": 3.3467522808,
			"0.008": 2.83669781374,
			"0.009": 5.09926449352,
			"0.01": 5.2180325988,
			"0.011": 8.43823910286,
			"0.012": 4.85646516825,
			"0.013": 0.582752494973,
			"0.014": 0.0,
			"0.015": 0.0,
			"0.016": 0.0,
			"0.017": 0.0,
			"0.018": 0.0,
			"0.019": 0.0,
			"0.02": 0.0,
			"0.021": 0.0,
			"0.022": 0.0,
			"0.023": 0.0,
			"0.024": 0.0,
			"0.025": 0.0
		}
	}
}
