{
	 "smiles": "NC(=O)C1=CC=C(S1)C1=NC=CC=C1", 
	 "Tm": 471.15, 
	 "num_atms": 22, 
	 "gaussian": { 
		 "optdone": 1, 
		 "sigma_profile": "yes", 
		 "theory": "DFT", 
		 "functional": "B3LYP", 
		 "basiset": "6-31G**", 
		 "properties": { 
			 "R2extent": 4256.3566, 
			 "electric_dipole_moment_norm": 4.92127875455, 
			 "electric_quadrupole_moment_norm": 14.3870622543, 
			 "total_energy": -968.805565944, 
			 "HOMO_LUMO_gap": 0.15652, 
			 "cosmo_polarized_energy": -15.54, 
			 "cosmo_cavitation_energy": 28.47, 
			 "cosmo_dispersion_energy": -21.67, 
			 "cosmo_repulsion_energy": 1.65, 
			 "cosmo_total_nonelectrostatic_energy": 8.45, 
			 "SMD_solvation_energy": 4.35 
		},
		"coords": [
			{
				"x": 1.4222200692,
				"y": -2.6090646152,
				"z": 2.293834012,
				"element": "N" 
			},
			{
				"x": 0.4399305179,
				"y": -1.81105291,
				"z": 2.8139626809,
				"element": "C" 
			},
			{
				"x": -0.1036726899,
				"y": -2.0599620287,
				"z": 3.8842427962,
				"element": "O" 
			},
			{
				"x": 0.0498232348,
				"y": -0.6137493209,
				"z": 2.0236448919,
				"element": "C" 
			},
			{
				"x": -0.9174204307,
				"y": 0.2828601152,
				"z": 2.4118652464,
				"element": "C" 
			},
			{
				"x": -1.1089317965,
				"y": 1.3409395712,
				"z": 1.491037609,
				"element": "C" 
			},
			{
				"x": -0.2876486257,
				"y": 1.2638097883,
				"z": 0.3861796415,
				"element": "C" 
			},
			{
				"x": 0.7428654854,
				"y": -0.1459700605,
				"z": 0.4875830387,
				"element": "S" 
			},
			{
				"x": -0.2419587766,
				"y": 2.2018004745,
				"z": -0.7431047545,
				"element": "C" 
			},
			{
				"x": -1.1014396121,
				"y": 3.2384390308,
				"z": -0.6692801237,
				"element": "N" 
			},
			{
				"x": -1.1072075325,
				"y": 4.1248870088,
				"z": -1.6654297034,
				"element": "C" 
			},
			{
				"x": -0.2745361411,
				"y": 4.0448646956,
				"z": -2.7842807781,
				"element": "C" 
			},
			{
				"x": 0.6138398415,
				"y": 2.9730742651,
				"z": -2.8603000682,
				"element": "C" 
			},
			{
				"x": 0.6340307702,
				"y": 2.0380707865,
				"z": -1.8301442055,
				"element": "C" 
			},
			{
				"x": 1.6880303007,
				"y": -3.4211107751,
				"z": 2.8284930633,
				"element": "H" 
			},
			{
				"x": 1.8859555289,
				"y": -2.4290710592,
				"z": 1.4185458581,
				"element": "H" 
			},
			{
				"x": -1.458722223,
				"y": 0.156048752,
				"z": 3.3412779564,
				"element": "H" 
			},
			{
				"x": -1.8198992964,
				"y": 2.1485065924,
				"z": 1.608102722,
				"element": "H" 
			},
			{
				"x": -1.8156827568,
				"y": 4.9458334283,
				"z": -1.5665482006,
				"element": "H" 
			},
			{
				"x": -0.3246626978,
				"y": 4.7974465953,
				"z": -3.5642079833,
				"element": "H" 
			},
			{
				"x": 1.282632596,
				"y": 2.8648859867,
				"z": -3.7092430627,
				"element": "H" 
			},
			{
				"x": 1.3173542349,
				"y": 1.1954136789,
				"z": -1.8680306363,
				"element": "H" 
			}
		],
		 "valence_orbital": [ 
			{
				"type": "occ",
				"energy": -0.27063,
				"method": "rhf"
			},
			{
				"type": "occ",
				"energy": -0.26508,
				"method": "rhf"
			},
			{
				"type": "occ",
				"energy": -0.2589,
				"method": "rhf"
			},
			{
				"type": "occ",
				"energy": -0.25419,
				"method": "rhf"
			},
			{
				"type": "occ",
				"energy": -0.22429,
				"method": "rhf"
			},
			{
				"type": "unocc",
				"energy": -0.06777,
				"method": "rhf"
			},
			{
				"type": "unocc",
				"energy": -0.02963,
				"method": "rhf"
			},
			{
				"type": "unocc",
				"energy": -0.00323,
				"method": "rhf"
			},
			{
				"type": "unocc",
				"energy": 0.00989,
				"method": "rhf"
			},
			{
				"type": "unocc",
				"energy": 0.05575,
				"method": "rhf"
			}
		],
		"cosmo_sigma_profile": { 
			"-0.025": 0.0,
			"-0.024": 0.0,
			"-0.023": 0.0,
			"-0.022": 0.0,
			"-0.021": 0.0,
			"-0.02": 0.0,
			"-0.019": 0.0,
			"-0.018": 0.0,
			"-0.017": 0.0,
			"-0.016": 0.0,
			"-0.015": 0.322219447807,
			"-0.014": 2.24203093238,
			"-0.013": 2.0297815878,
			"-0.012": 2.08898780855,
			"-0.011": 2.27849538434,
			"-0.01": 2.10862321667,
			"-0.009": 2.04807202611,
			"-0.008": 3.08480897583,
			"-0.007": 9.43610662302,
			"-0.006": 13.9495022964,
			"-0.005": 13.5768695899,
			"-0.004": 11.6847401208,
			"-0.003": 11.0474259502,
			"-0.002": 10.1834848328,
			"-0.001": 13.0452038216,
			"0.0": 15.1633538103,
			"0.001": 21.867495762,
			"0.002": 30.2133458551,
			"0.003": 23.5849600496,
			"0.004": 7.22741675682,
			"0.005": 4.58060169744,
			"0.006": 3.4866326826,
			"0.007": 3.63032900766,
			"0.008": 2.78684305239,
			"0.009": 1.86145093108,
			"0.01": 2.4259556856,
			"0.011": 3.1757651662,
			"0.012": 2.73890317763,
			"0.013": 4.81518163693,
			"0.014": 4.07253812459,
			"0.015": 0.211489101889,
			"0.016": 0.0,
			"0.017": 0.0,
			"0.018": 0.0,
			"0.019": 0.0,
			"0.02": 0.0,
			"0.021": 0.0,
			"0.022": 0.0,
			"0.023": 0.0,
			"0.024": 0.0,
			"0.025": 0.0
		}
	}
}
