{
	 "smiles": "OC(=O)C1CSCN1C(=O)C1=CC=C(Cl)C=C1", 
	 "Tm": 334.15, 
	 "num_atms": 27, 
	 "gaussian": { 
		 "optdone": 1, 
		 "sigma_profile": "yes", 
		 "theory": "DFT", 
		 "functional": "B3LYP", 
		 "basiset": "6-31G**", 
		 "properties": { 
			 "R2extent": 6159.5106, 
			 "electric_dipole_moment_norm": 4.31502547617, 
			 "electric_quadrupole_moment_norm": 9.73808209813, 
			 "total_energy": -1564.0049465, 
			 "HOMO_LUMO_gap": 0.18451, 
			 "cosmo_polarized_energy": -22.74, 
			 "cosmo_cavitation_energy": 34.23, 
			 "cosmo_dispersion_energy": -24.72, 
			 "cosmo_repulsion_energy": 1.87, 
			 "cosmo_total_nonelectrostatic_energy": 11.38, 
			 "SMD_solvation_energy": 6.41 
		},
		"coords": [
			{
				"x": -2.0763677508,
				"y": -2.2724164776,
				"z": 2.0779880797,
				"element": "O" 
			},
			{
				"x": -2.4031670908,
				"y": -1.2014957769,
				"z": 1.313125693,
				"element": "C" 
			},
			{
				"x": -3.4063368655,
				"y": -1.206587459,
				"z": 0.6486076205,
				"element": "O" 
			},
			{
				"x": -1.3843962711,
				"y": -0.041584283,
				"z": 1.3285828304,
				"element": "C" 
			},
			{
				"x": -1.1036101725,
				"y": 0.5138266365,
				"z": 2.7494024204,
				"element": "C" 
			},
			{
				"x": -2.3930598581,
				"y": 1.7854241997,
				"z": 3.0628724159,
				"element": "S" 
			},
			{
				"x": -2.8437053882,
				"y": 1.8717951678,
				"z": 1.2553886532,
				"element": "C" 
			},
			{
				"x": -1.8575394731,
				"y": 1.082385838,
				"z": 0.5385170087,
				"element": "N" 
			},
			{
				"x": -1.1355579814,
				"y": 1.6824233348,
				"z": -0.490369203,
				"element": "C" 
			},
			{
				"x": -1.2709356043,
				"y": 2.8661115222,
				"z": -0.7697736948,
				"element": "O" 
			},
			{
				"x": -0.2276552975,
				"y": 0.8019193907,
				"z": -1.2993471484,
				"element": "C" 
			},
			{
				"x": 0.973288298,
				"y": 1.3506572831,
				"z": -1.7694918149,
				"element": "C" 
			},
			{
				"x": 1.8222216951,
				"y": 0.6072249419,
				"z": -2.5839690563,
				"element": "C" 
			},
			{
				"x": 1.4467846166,
				"y": -0.6859884837,
				"z": -2.9547694665,
				"element": "C" 
			},
			{
				"x": 2.5083953365,
				"y": -1.6270858774,
				"z": -3.9867763065,
				"element": "Cl" 
			},
			{
				"x": 0.2391922537,
				"y": -1.2393749629,
				"z": -2.5291227175,
				"element": "C" 
			},
			{
				"x": -0.5944939649,
				"y": -0.4919178031,
				"z": -1.6976014312,
				"element": "C" 
			},
			{
				"x": -1.2303137316,
				"y": -2.1371733231,
				"z": 2.5282546392,
				"element": "H" 
			},
			{
				"x": -0.4556318739,
				"y": -0.4251523736,
				"z": 0.8953177923,
				"element": "H" 
			},
			{
				"x": -0.1107985867,
				"y": 0.9691017267,
				"z": 2.7797761349,
				"element": "H" 
			},
			{
				"x": -1.1616447054,
				"y": -0.2503188237,
				"z": 3.5291044312,
				"element": "H" 
			},
			{
				"x": -2.8064969806,
				"y": 2.8979383085,
				"z": 0.8943609636,
				"element": "H" 
			},
			{
				"x": -3.8385829723,
				"y": 1.4419114719,
				"z": 1.1283306797,
				"element": "H" 
			},
			{
				"x": 1.228879647,
				"y": 2.3687197941,
				"z": -1.4950528658,
				"element": "H" 
			},
			{
				"x": 2.7588495424,
				"y": 1.0232756934,
				"z": -2.9378276929,
				"element": "H" 
			},
			{
				"x": -0.0474429827,
				"y": -2.234272098,
				"z": -2.8510061796,
				"element": "H" 
			},
			{
				"x": -1.5493738377,
				"y": -0.9049475676,
				"z": -1.3861217853,
				"element": "H" 
			}
		],
		 "valence_orbital": [ 
			{
				"type": "occ",
				"energy": -0.28344,
				"method": "rhf"
			},
			{
				"type": "occ",
				"energy": -0.27755,
				"method": "rhf"
			},
			{
				"type": "occ",
				"energy": -0.2672,
				"method": "rhf"
			},
			{
				"type": "occ",
				"energy": -0.25743,
				"method": "rhf"
			},
			{
				"type": "occ",
				"energy": -0.23914,
				"method": "rhf"
			},
			{
				"type": "unocc",
				"energy": -0.05463,
				"method": "rhf"
			},
			{
				"type": "unocc",
				"energy": -0.03144,
				"method": "rhf"
			},
			{
				"type": "unocc",
				"energy": -0.01948,
				"method": "rhf"
			},
			{
				"type": "unocc",
				"energy": 0.00508,
				"method": "rhf"
			},
			{
				"type": "unocc",
				"energy": 0.01735,
				"method": "rhf"
			}
		],
		"cosmo_sigma_profile": { 
			"-0.025": 0.0,
			"-0.024": 0.0,
			"-0.023": 0.0,
			"-0.022": 0.0,
			"-0.021": 0.044267296767,
			"-0.02": 0.808921088616,
			"-0.019": 1.6551032335,
			"-0.018": 1.32904289612,
			"-0.017": 1.17558142874,
			"-0.016": 0.906353754615,
			"-0.015": 0.819167261458,
			"-0.014": 1.0062921225,
			"-0.013": 1.58998764413,
			"-0.012": 1.46077828586,
			"-0.011": 1.37648907377,
			"-0.01": 1.66105037499,
			"-0.009": 4.14378824221,
			"-0.008": 5.59038976835,
			"-0.007": 11.5112916421,
			"-0.006": 15.3438959828,
			"-0.005": 15.8446668598,
			"-0.004": 15.2195178698,
			"-0.003": 13.4499542652,
			"-0.002": 14.9852446604,
			"-0.001": 14.2690778841,
			"0.0": 18.3386913507,
			"0.001": 20.1865232024,
			"0.002": 23.9600151061,
			"0.003": 14.9916495612,
			"0.004": 18.2114895444,
			"0.005": 9.14210090632,
			"0.006": 6.15140134043,
			"0.007": 6.83793531931,
			"0.008": 6.74866943229,
			"0.009": 7.22699548278,
			"0.01": 7.71709065268,
			"0.011": 6.49019392441,
			"0.012": 5.61405435478,
			"0.013": 1.94317242387,
			"0.014": 0.0368494945881,
			"0.015": 0.0,
			"0.016": 0.0,
			"0.017": 0.0,
			"0.018": 0.0,
			"0.019": 0.0,
			"0.02": 0.0,
			"0.021": 0.0,
			"0.022": 0.0,
			"0.023": 0.0,
			"0.024": 0.0,
			"0.025": 0.0
		}
	}
}
