{
	 "smiles": "NS(=O)(=O)C1=CC=C(CNCC(F)(F)F)C=C1", 
	 "Tm": 403.15, 
	 "num_atms": 28, 
	 "gaussian": { 
		 "optdone": 1, 
		 "sigma_profile": "yes", 
		 "theory": "DFT", 
		 "functional": "B3LYP", 
		 "basiset": "6-31G**", 
		 "properties": { 
			 "R2extent": 6930.0161, 
			 "electric_dipole_moment_norm": 3.13274128041, 
			 "electric_quadrupole_moment_norm": 28.733072456, 
			 "total_energy": -1307.18202269, 
			 "HOMO_LUMO_gap": 0.20927, 
			 "cosmo_polarized_energy": -17.58, 
			 "cosmo_cavitation_energy": 34.77, 
			 "cosmo_dispersion_energy": -24.82, 
			 "cosmo_repulsion_energy": 1.85, 
			 "cosmo_total_nonelectrostatic_energy": 11.8, 
			 "SMD_solvation_energy": 5.11 
		},
		"coords": [
			{
				"x": -1.1702219956,
				"y": -0.7806863767,
				"z": 4.0438459364,
				"element": "N" 
			},
			{
				"x": -2.0261451279,
				"y": -1.5557714283,
				"z": 2.7991846944,
				"element": "S" 
			},
			{
				"x": -1.7776606498,
				"y": -2.9961990107,
				"z": 2.9185462373,
				"element": "O" 
			},
			{
				"x": -3.3782232945,
				"y": -0.9892187762,
				"z": 2.8163671622,
				"element": "O" 
			},
			{
				"x": -1.2067883945,
				"y": -0.985598419,
				"z": 1.3121681035,
				"element": "C" 
			},
			{
				"x": -0.1975397681,
				"y": -1.7632874128,
				"z": 0.7465565153,
				"element": "C" 
			},
			{
				"x": 0.4392512635,
				"y": -1.3073645117,
				"z": -0.4079140428,
				"element": "C" 
			},
			{
				"x": 0.0691092929,
				"y": -0.0958469022,
				"z": -1.0028841396,
				"element": "C" 
			},
			{
				"x": 0.733351428,
				"y": 0.3618788955,
				"z": -2.289706165,
				"element": "C" 
			},
			{
				"x": 0.9707984996,
				"y": 1.8098420409,
				"z": -2.3072903448,
				"element": "N" 
			},
			{
				"x": 2.0194782111,
				"y": 2.3156448647,
				"z": -1.4416122312,
				"element": "C" 
			},
			{
				"x": 3.4460783847,
				"y": 2.0278001282,
				"z": -1.8946558166,
				"element": "C" 
			},
			{
				"x": 3.7494491076,
				"y": 0.708513254,
				"z": -1.8584240059,
				"element": "F" 
			},
			{
				"x": 4.3390837031,
				"y": 2.6680791426,
				"z": -1.1117070191,
				"element": "F" 
			},
			{
				"x": 3.6419602835,
				"y": 2.4446623414,
				"z": -3.1684837373,
				"element": "F" 
			},
			{
				"x": -0.9539763924,
				"y": 0.6651290001,
				"z": -0.4180113866,
				"element": "C" 
			},
			{
				"x": -1.5962118635,
				"y": 0.2262567302,
				"z": 0.7363359197,
				"element": "C" 
			},
			{
				"x": -1.8310652819,
				"y": -0.2668977939,
				"z": 4.6212509327,
				"element": "H" 
			},
			{
				"x": -0.666815016,
				"y": -1.4743497862,
				"z": 4.5909761598,
				"element": "H" 
			},
			{
				"x": 0.0737363224,
				"y": -2.7101159673,
				"z": 1.2001742696,
				"element": "H" 
			},
			{
				"x": 1.2312109714,
				"y": -1.9041231165,
				"z": -0.8528733258,
				"element": "H" 
			},
			{
				"x": 0.0558313941,
				"y": 0.150981362,
				"z": -3.1269200743,
				"element": "H" 
			},
			{
				"x": 1.6377858359,
				"y": -0.2389660106,
				"z": -2.4599528946,
				"element": "H" 
			},
			{
				"x": 1.116813491,
				"y": 2.1350839197,
				"z": -3.2573777477,
				"element": "H" 
			},
			{
				"x": 1.936139668,
				"y": 3.4053307429,
				"z": -1.366490126,
				"element": "H" 
			},
			{
				"x": 1.8982052673,
				"y": 1.9069591888,
				"z": -0.4343020063,
				"element": "H" 
			},
			{
				"x": -1.2358543271,
				"y": 1.6063445918,
				"z": -0.8788865816,
				"element": "H" 
			},
			{
				"x": -2.4016810129,
				"y": 0.8014193089,
				"z": 1.1799857146,
				"element": "H" 
			}
		],
		 "valence_orbital": [ 
			{
				"type": "occ",
				"energy": -0.30449,
				"method": "rhf"
			},
			{
				"type": "occ",
				"energy": -0.29878,
				"method": "rhf"
			},
			{
				"type": "occ",
				"energy": -0.26987,
				"method": "rhf"
			},
			{
				"type": "occ",
				"energy": -0.26309,
				"method": "rhf"
			},
			{
				"type": "occ",
				"energy": -0.24832,
				"method": "rhf"
			},
			{
				"type": "unocc",
				"energy": -0.03905,
				"method": "rhf"
			},
			{
				"type": "unocc",
				"energy": -0.02088,
				"method": "rhf"
			},
			{
				"type": "unocc",
				"energy": 0.05432,
				"method": "rhf"
			},
			{
				"type": "unocc",
				"energy": 0.07,
				"method": "rhf"
			},
			{
				"type": "unocc",
				"energy": 0.08673,
				"method": "rhf"
			}
		],
		"cosmo_sigma_profile": { 
			"-0.025": 0.0,
			"-0.024": 0.0,
			"-0.023": 0.0,
			"-0.022": 0.0,
			"-0.021": 0.0,
			"-0.02": 0.0,
			"-0.019": 0.0,
			"-0.018": 0.0,
			"-0.017": 0.0,
			"-0.016": 0.0,
			"-0.015": 0.5258182492,
			"-0.014": 2.57385847428,
			"-0.013": 2.45961665296,
			"-0.012": 2.65769225939,
			"-0.011": 3.54593194676,
			"-0.01": 2.68062457562,
			"-0.009": 3.13578911067,
			"-0.008": 2.77731947015,
			"-0.007": 9.49315311881,
			"-0.006": 16.1132647171,
			"-0.005": 16.9572720468,
			"-0.004": 16.2316387301,
			"-0.003": 15.8382720807,
			"-0.002": 16.1580037715,
			"-0.001": 14.4206410632,
			"0.0": 13.1328546534,
			"0.001": 17.0170018424,
			"0.002": 23.5794632931,
			"0.003": 41.9172008297,
			"0.004": 10.129971273,
			"0.005": 4.03990370917,
			"0.006": 4.15298279437,
			"0.007": 4.88223272038,
			"0.008": 4.53051847511,
			"0.009": 3.94758005351,
			"0.01": 8.48253969957,
			"0.011": 10.3428187483,
			"0.012": 4.00689127512,
			"0.013": 0.204549660642,
			"0.014": 0.0,
			"0.015": 0.0,
			"0.016": 0.0,
			"0.017": 0.0,
			"0.018": 0.0,
			"0.019": 0.0,
			"0.02": 0.0,
			"0.021": 0.0,
			"0.022": 0.0,
			"0.023": 0.0,
			"0.024": 0.0,
			"0.025": 0.0
		}
	}
}
