{
	 "smiles": "COC1=CC=C(OCC2=NC(C=O)=CS2)C=C1", 
	 "Tm": 369.15, 
	 "num_atms": 28, 
	 "gaussian": { 
		 "optdone": 1, 
		 "sigma_profile": "yes", 
		 "theory": "DFT", 
		 "functional": "B3LYP", 
		 "basiset": "6-31G**", 
		 "properties": { 
			 "R2extent": 8813.0456, 
			 "electric_dipole_moment_norm": 3.28729747057, 
			 "electric_quadrupole_moment_norm": 33.772766926, 
			 "total_energy": -1142.4653447, 
			 "HOMO_LUMO_gap": 0.14822, 
			 "cosmo_polarized_energy": -16.54, 
			 "cosmo_cavitation_energy": 35.27, 
			 "cosmo_dispersion_energy": -26.09, 
			 "cosmo_repulsion_energy": 1.97, 
			 "cosmo_total_nonelectrostatic_energy": 11.16, 
			 "SMD_solvation_energy": 6.37 
		},
		"coords": [
			{
				"x": -2.5920811168,
				"y": -4.7606242328,
				"z": 0.7766420384,
				"element": "C" 
			},
			{
				"x": -3.1574634407,
				"y": -3.6829103788,
				"z": 0.050391039,
				"element": "O" 
			},
			{
				"x": -2.5213138084,
				"y": -2.473408261,
				"z": 0.0970555672,
				"element": "C" 
			},
			{
				"x": -1.3499974901,
				"y": -2.211534073,
				"z": 0.8085530118,
				"element": "C" 
			},
			{
				"x": -0.7808770547,
				"y": -0.9294475037,
				"z": 0.7863360214,
				"element": "C" 
			},
			{
				"x": -1.3841677225,
				"y": 0.0893903039,
				"z": 0.0523875716,
				"element": "C" 
			},
			{
				"x": -0.9080972174,
				"y": 1.3783288619,
				"z": -0.0355501877,
				"element": "O" 
			},
			{
				"x": 0.274948827,
				"y": 1.7042465672,
				"z": 0.6645468203,
				"element": "C" 
			},
			{
				"x": 0.5764159476,
				"y": 3.1540555715,
				"z": 0.4088988325,
				"element": "C" 
			},
			{
				"x": 1.6013715626,
				"y": 3.7720597967,
				"z": 0.8996392984,
				"element": "N" 
			},
			{
				"x": 1.6200207632,
				"y": 5.0932774584,
				"z": 0.4970896108,
				"element": "C" 
			},
			{
				"x": 2.6886974879,
				"y": 6.0197389779,
				"z": 0.9199618467,
				"element": "C" 
			},
			{
				"x": 3.622751193,
				"y": 5.7260412626,
				"z": 1.636407593,
				"element": "O" 
			},
			{
				"x": 0.579248554,
				"y": 5.4720197009,
				"z": -0.3174170555,
				"element": "C" 
			},
			{
				"x": -0.4792065419,
				"y": 4.1441824244,
				"z": -0.6076505294,
				"element": "S" 
			},
			{
				"x": -2.5619527381,
				"y": -0.173638435,
				"z": -0.6629849242,
				"element": "C" 
			},
			{
				"x": -3.1231215085,
				"y": -1.4396109772,
				"z": -0.6405425149,
				"element": "C" 
			},
			{
				"x": -3.2456282662,
				"y": -5.6174689816,
				"z": 0.6054368064,
				"element": "H" 
			},
			{
				"x": -1.5810469135,
				"y": -5.0029046246,
				"z": 0.4229674475,
				"element": "H" 
			},
			{
				"x": -2.551773569,
				"y": -4.5483430137,
				"z": 1.8533466212,
				"element": "H" 
			},
			{
				"x": -0.8616817055,
				"y": -2.9866843761,
				"z": 1.3868173984,
				"element": "H" 
			},
			{
				"x": 0.1292958757,
				"y": -0.7553965751,
				"z": 1.3483169978,
				"element": "H" 
			},
			{
				"x": 1.1237192339,
				"y": 1.0930718191,
				"z": 0.3249572552,
				"element": "H" 
			},
			{
				"x": 0.157768174,
				"y": 1.5442689615,
				"z": 1.7462509432,
				"element": "H" 
			},
			{
				"x": 2.5680344745,
				"y": 7.0496872808,
				"z": 0.5156118808,
				"element": "H" 
			},
			{
				"x": 0.395469058,
				"y": 6.4474233102,
				"z": -0.7471104965,
				"element": "H" 
			},
			{
				"x": -3.0199128496,
				"y": 0.6302920677,
				"z": -1.2298575982,
				"element": "H" 
			},
			{
				"x": -4.0336192087,
				"y": -1.6565129323,
				"z": -1.1893012955,
				"element": "H" 
			}
		],
		 "valence_orbital": [ 
			{
				"type": "occ",
				"energy": -0.28876,
				"method": "rhf"
			},
			{
				"type": "occ",
				"energy": -0.26135,
				"method": "rhf"
			},
			{
				"type": "occ",
				"energy": -0.25734,
				"method": "rhf"
			},
			{
				"type": "occ",
				"energy": -0.25423,
				"method": "rhf"
			},
			{
				"type": "occ",
				"energy": -0.20883,
				"method": "rhf"
			},
			{
				"type": "unocc",
				"energy": -0.06061,
				"method": "rhf"
			},
			{
				"type": "unocc",
				"energy": -0.02613,
				"method": "rhf"
			},
			{
				"type": "unocc",
				"energy": -0.00873,
				"method": "rhf"
			},
			{
				"type": "unocc",
				"energy": 0.01204,
				"method": "rhf"
			},
			{
				"type": "unocc",
				"energy": 0.01749,
				"method": "rhf"
			}
		],
		"cosmo_sigma_profile": { 
			"-0.025": 0.0,
			"-0.024": 0.0,
			"-0.023": 0.0,
			"-0.022": 0.0,
			"-0.021": 0.0,
			"-0.02": 0.0,
			"-0.019": 0.0,
			"-0.018": 0.0,
			"-0.017": 0.0,
			"-0.016": 0.0,
			"-0.015": 0.0,
			"-0.014": 0.0,
			"-0.013": 0.0,
			"-0.012": 0.0,
			"-0.011": 0.908919682181,
			"-0.01": 2.71280381322,
			"-0.009": 3.06133354688,
			"-0.008": 6.4620331633,
			"-0.007": 12.2667271901,
			"-0.006": 17.0250948056,
			"-0.005": 22.6565088311,
			"-0.004": 21.3760659379,
			"-0.003": 20.7314331935,
			"-0.002": 18.5387337668,
			"-0.001": 17.7392103431,
			"0.0": 19.1910664166,
			"0.001": 18.3734324679,
			"0.002": 15.6423799429,
			"0.003": 16.4378279482,
			"0.004": 15.9704840073,
			"0.005": 17.3155416778,
			"0.006": 6.36541838356,
			"0.007": 3.49727713699,
			"0.008": 2.77915019189,
			"0.009": 5.05776264864,
			"0.01": 5.43643873984,
			"0.011": 5.5404931252,
			"0.012": 4.33681883493,
			"0.013": 2.77665770364,
			"0.014": 1.72597278792,
			"0.015": 0.747750438106,
			"0.016": 0.0,
			"0.017": 0.0,
			"0.018": 0.0,
			"0.019": 0.0,
			"0.02": 0.0,
			"0.021": 0.0,
			"0.022": 0.0,
			"0.023": 0.0,
			"0.024": 0.0,
			"0.025": 0.0
		}
	}
}
