{
	 "smiles": "C=CCNC(=O)CN1CCNCC1", 
	 "Tm": 337.15, 
	 "num_atms": 30, 
	 "gaussian": { 
		 "optdone": 1, 
		 "sigma_profile": "yes", 
		 "theory": "DFT", 
		 "functional": "B3LYP", 
		 "basiset": "6-31G**", 
		 "properties": { 
			 "R2extent": 3675.5243, 
			 "electric_dipole_moment_norm": 4.6022775427, 
			 "electric_quadrupole_moment_norm": 12.0660972609, 
			 "total_energy": -592.643459031, 
			 "HOMO_LUMO_gap": 0.20249, 
			 "cosmo_polarized_energy": -16.45, 
			 "cosmo_cavitation_energy": 31.07, 
			 "cosmo_dispersion_energy": -22.15, 
			 "cosmo_repulsion_energy": 1.78, 
			 "cosmo_total_nonelectrostatic_energy": 10.71, 
			 "SMD_solvation_energy": 1.17 
		},
		"coords": [
			{
				"x": 1.8773006589,
				"y": 0.2639363712,
				"z": 3.1238679816,
				"element": "C" 
			},
			{
				"x": 1.77713794,
				"y": -0.9576521692,
				"z": 2.6023091092,
				"element": "C" 
			},
			{
				"x": 2.2544881357,
				"y": -1.3739156439,
				"z": 1.2274641228,
				"element": "C" 
			},
			{
				"x": 2.9007472774,
				"y": -0.3397157817,
				"z": 0.4395426448,
				"element": "N" 
			},
			{
				"x": 2.3091797266,
				"y": 0.6210607043,
				"z": -0.3507557581,
				"element": "C" 
			},
			{
				"x": 2.9735951313,
				"y": 1.5335182429,
				"z": -0.8203832841,
				"element": "O" 
			},
			{
				"x": 0.8103318448,
				"y": 0.4256677799,
				"z": -0.6276956139,
				"element": "C" 
			},
			{
				"x": 0.218192047,
				"y": 1.556083806,
				"z": -1.3170610932,
				"element": "N" 
			},
			{
				"x": 0.6009967676,
				"y": 1.7009104894,
				"z": -2.7298975127,
				"element": "C" 
			},
			{
				"x": -0.1652827008,
				"y": 0.7499566282,
				"z": -3.6608494434,
				"element": "C" 
			},
			{
				"x": -1.6053531489,
				"y": 0.9582310345,
				"z": -3.4793921658,
				"element": "N" 
			},
			{
				"x": -2.0139176678,
				"y": 0.7023316414,
				"z": -2.0969478277,
				"element": "C" 
			},
			{
				"x": -1.2373806262,
				"y": 1.6554265512,
				"z": -1.1746875477,
				"element": "C" 
			},
			{
				"x": 2.3278313606,
				"y": 1.0849243576,
				"z": 2.5735508433,
				"element": "H" 
			},
			{
				"x": 1.5106262243,
				"y": 0.4821051164,
				"z": 4.1218294659,
				"element": "H" 
			},
			{
				"x": 1.3217368302,
				"y": -1.7602929832,
				"z": 3.1832185301,
				"element": "H" 
			},
			{
				"x": 2.961024673,
				"y": -2.2083530767,
				"z": 1.3321879029,
				"element": "H" 
			},
			{
				"x": 1.4127148452,
				"y": -1.7875899726,
				"z": 0.6592269536,
				"element": "H" 
			},
			{
				"x": 3.8729891419,
				"y": -0.1374752843,
				"z": 0.6348122231,
				"element": "H" 
			},
			{
				"x": 0.696316286,
				"y": -0.5475285868,
				"z": -1.145814158,
				"element": "H" 
			},
			{
				"x": 0.3023803145,
				"y": 0.3111540615,
				"z": 0.3369137277,
				"element": "H" 
			},
			{
				"x": 1.6797117023,
				"y": 1.5638613315,
				"z": -2.8154722987,
				"element": "H" 
			},
			{
				"x": 0.372465532,
				"y": 2.7316957152,
				"z": -3.0278380174,
				"element": "H" 
			},
			{
				"x": 0.0970449948,
				"y": 0.9673364036,
				"z": -4.702709366,
				"element": "H" 
			},
			{
				"x": 0.1419831953,
				"y": -0.2961387471,
				"z": -3.461354531,
				"element": "H" 
			},
			{
				"x": -2.1276609871,
				"y": 0.360764958,
				"z": -4.1137639072,
				"element": "H" 
			},
			{
				"x": -3.0900706147,
				"y": 0.8898449585,
				"z": -2.0015245662,
				"element": "H" 
			},
			{
				"x": -1.8348980815,
				"y": -0.3449667197,
				"z": -1.7804568048,
				"element": "H" 
			},
			{
				"x": -1.5103418772,
				"y": 1.4829756166,
				"z": -0.1274215987,
				"element": "H" 
			},
			{
				"x": -1.5255889253,
				"y": 2.6831431973,
				"z": -1.4306980101,
				"element": "H" 
			}
		],
		 "valence_orbital": [ 
			{
				"type": "occ",
				"energy": -0.26891,
				"method": "rhf"
			},
			{
				"type": "occ",
				"energy": -0.2516,
				"method": "rhf"
			},
			{
				"type": "occ",
				"energy": -0.24347,
				"method": "rhf"
			},
			{
				"type": "occ",
				"energy": -0.22377,
				"method": "rhf"
			},
			{
				"type": "occ",
				"energy": -0.19232,
				"method": "rhf"
			},
			{
				"type": "unocc",
				"energy": 0.01017,
				"method": "rhf"
			},
			{
				"type": "unocc",
				"energy": 0.031,
				"method": "rhf"
			},
			{
				"type": "unocc",
				"energy": 0.07411,
				"method": "rhf"
			},
			{
				"type": "unocc",
				"energy": 0.08422,
				"method": "rhf"
			},
			{
				"type": "unocc",
				"energy": 0.10632,
				"method": "rhf"
			}
		],
		"cosmo_sigma_profile": { 
			"-0.025": 0.0,
			"-0.024": 0.0,
			"-0.023": 0.0,
			"-0.022": 0.0,
			"-0.021": 0.0,
			"-0.02": 0.0,
			"-0.019": 0.0,
			"-0.018": 0.0,
			"-0.017": 0.0,
			"-0.016": 0.0,
			"-0.015": 0.0,
			"-0.014": 0.0951735968354,
			"-0.013": 0.712310981046,
			"-0.012": 1.27483307354,
			"-0.011": 0.760053555344,
			"-0.01": 1.98809782751,
			"-0.009": 2.1727583473,
			"-0.008": 1.83879599449,
			"-0.007": 2.87097431293,
			"-0.006": 9.56871894043,
			"-0.005": 15.743184256,
			"-0.004": 20.8607727652,
			"-0.003": 27.7315492974,
			"-0.002": 32.1564010481,
			"-0.001": 29.9729114632,
			"0.0": 20.4105701143,
			"0.001": 9.97072079087,
			"0.002": 8.04148111364,
			"0.003": 7.03446875721,
			"0.004": 7.625610815,
			"0.005": 5.28728370621,
			"0.006": 5.00022814446,
			"0.007": 2.20632731966,
			"0.008": 2.47643108755,
			"0.009": 2.05139935573,
			"0.01": 2.06338837118,
			"0.011": 2.95922172358,
			"0.012": 3.40490473797,
			"0.013": 3.16539457673,
			"0.014": 5.71480590174,
			"0.015": 2.55852110798,
			"0.016": 1.23658729694,
			"0.017": 1.76506289011,
			"0.018": 0.678821723757,
			"0.019": 0.0263088310964,
			"0.02": 0.0,
			"0.021": 0.0,
			"0.022": 0.0,
			"0.023": 0.0,
			"0.024": 0.0,
			"0.025": 0.0
		}
	}
}
