{
	 "smiles": "CC1=CC=C(CN)C=C1", 
	 "Tm": 285.35, 
	 "num_atms": 20, 
	 "gaussian": { 
		 "optdone": 1, 
		 "sigma_profile": "yes", 
		 "theory": "DFT", 
		 "functional": "B3LYP", 
		 "basiset": "6-31G**", 
		 "properties": { 
			 "R2extent": 1553.761, 
			 "electric_dipole_moment_norm": 1.70695608614, 
			 "electric_quadrupole_moment_norm": 5.84440118489, 
			 "total_energy": -366.236285001, 
			 "HOMO_LUMO_gap": 0.22221, 
			 "cosmo_polarized_energy": -6.89, 
			 "cosmo_cavitation_energy": 23.02, 
			 "cosmo_dispersion_energy": -16.76, 
			 "cosmo_repulsion_energy": 1.39, 
			 "cosmo_total_nonelectrostatic_energy": 7.65, 
			 "SMD_solvation_energy": 2.52 
		},
		"coords": [
			{
				"x": -3.1347701413,
				"y": -0.3403121939,
				"z": 1.9324299971,
				"element": "C" 
			},
			{
				"x": -1.8389990463,
				"y": 0.0512437458,
				"z": 1.2608654441,
				"element": "C" 
			},
			{
				"x": -1.6677805631,
				"y": -0.0970004409,
				"z": -0.1218853588,
				"element": "C" 
			},
			{
				"x": -0.4842008797,
				"y": 0.2953119076,
				"z": -0.7464903171,
				"element": "C" 
			},
			{
				"x": 0.5738975384,
				"y": 0.8453302278,
				"z": -0.0111650425,
				"element": "C" 
			},
			{
				"x": 1.8875989041,
				"y": 1.2086477356,
				"z": -0.6808405952,
				"element": "C" 
			},
			{
				"x": 2.8902177802,
				"y": 0.1303884057,
				"z": -0.7430418133,
				"element": "N" 
			},
			{
				"x": 0.4016940322,
				"y": 0.9955187334,
				"z": 1.3710763729,
				"element": "C" 
			},
			{
				"x": -0.7816905195,
				"y": 0.603319753,
				"z": 1.9961175441,
				"element": "C" 
			},
			{
				"x": -3.8424496292,
				"y": 0.498213775,
				"z": 1.9513453845,
				"element": "H" 
			},
			{
				"x": -3.624746271,
				"y": -1.1656996549,
				"z": 1.4068961656,
				"element": "H" 
			},
			{
				"x": -2.9710066342,
				"y": -0.6492267698,
				"z": 2.9693866974,
				"element": "H" 
			},
			{
				"x": -2.4734332172,
				"y": -0.5208185726,
				"z": -0.7171883148,
				"element": "H" 
			},
			{
				"x": -0.3811032755,
				"y": 0.1738117504,
				"z": -1.82310834,
				"element": "H" 
			},
			{
				"x": 1.6980036239,
				"y": 1.5414450483,
				"z": -1.7079345608,
				"element": "H" 
			},
			{
				"x": 2.3466355386,
				"y": 2.0550111086,
				"z": -0.1568360413,
				"element": "H" 
			},
			{
				"x": 3.0834408079,
				"y": -0.1967556891,
				"z": 0.2021124091,
				"element": "H" 
			},
			{
				"x": 2.4861122051,
				"y": -0.6698271368,
				"z": -1.2268043738,
				"element": "H" 
			},
			{
				"x": 1.2042338538,
				"y": 1.4268647942,
				"z": 1.9663655753,
				"element": "H" 
			},
			{
				"x": -0.8886541073,
				"y": 0.7317334725,
				"z": 3.0708991674,
				"element": "H" 
			}
		],
		 "valence_orbital": [ 
			{
				"type": "occ",
				"energy": -0.34024,
				"method": "rhf"
			},
			{
				"type": "occ",
				"energy": -0.33029,
				"method": "rhf"
			},
			{
				"type": "occ",
				"energy": -0.24707,
				"method": "rhf"
			},
			{
				"type": "occ",
				"energy": -0.2469,
				"method": "rhf"
			},
			{
				"type": "occ",
				"energy": -0.22217,
				"method": "rhf"
			},
			{
				"type": "unocc",
				"energy": 4e-05,
				"method": "rhf"
			},
			{
				"type": "unocc",
				"energy": 0.00101,
				"method": "rhf"
			},
			{
				"type": "unocc",
				"energy": 0.09018,
				"method": "rhf"
			},
			{
				"type": "unocc",
				"energy": 0.10408,
				"method": "rhf"
			},
			{
				"type": "unocc",
				"energy": 0.1232,
				"method": "rhf"
			}
		],
		"cosmo_sigma_profile": { 
			"-0.025": 0.0,
			"-0.024": 0.0,
			"-0.023": 0.0,
			"-0.022": 0.0,
			"-0.021": 0.0,
			"-0.02": 0.0,
			"-0.019": 0.0,
			"-0.018": 0.0,
			"-0.017": 0.0,
			"-0.016": 0.0,
			"-0.015": 0.0,
			"-0.014": 0.0,
			"-0.013": 0.0,
			"-0.012": 0.0,
			"-0.011": 0.0,
			"-0.01": 0.0797170636795,
			"-0.009": 1.80095259353,
			"-0.008": 2.82909710704,
			"-0.007": 2.38936097832,
			"-0.006": 3.39813607371,
			"-0.005": 10.1986548919,
			"-0.004": 21.8713219391,
			"-0.003": 21.7709847511,
			"-0.002": 16.7294535519,
			"-0.001": 15.8676230887,
			"0.0": 18.2335220965,
			"0.001": 11.0712378699,
			"0.002": 8.19428649764,
			"0.003": 9.0964582916,
			"0.004": 6.80961885421,
			"0.005": 8.00459698062,
			"0.006": 7.75707285864,
			"0.007": 5.65481783786,
			"0.008": 1.34315824476,
			"0.009": 0.474966253345,
			"0.01": 0.516607237108,
			"0.011": 0.643699005832,
			"0.012": 0.965999850336,
			"0.013": 0.757374804477,
			"0.014": 0.326931607733,
			"0.015": 0.864684832231,
			"0.016": 0.719493732357,
			"0.017": 0.633173883583,
			"0.018": 0.645559562677,
			"0.019": 0.631835260751,
			"0.02": 0.417145773821,
			"0.021": 0.0,
			"0.022": 0.0,
			"0.023": 0.0,
			"0.024": 0.0,
			"0.025": 0.0
		}
	}
}
