{
	 "smiles": "NC1=CC=NC(N)=C1", 
	 "Tm": 380.15, 
	 "num_atms": 15, 
	 "gaussian": { 
		 "optdone": 1, 
		 "sigma_profile": "yes", 
		 "theory": "DFT", 
		 "functional": "B3LYP", 
		 "basiset": "6-31G**", 
		 "properties": { 
			 "R2extent": 1070.9005, 
			 "electric_dipole_moment_norm": 3.51862290961, 
			 "electric_quadrupole_moment_norm": 10.9484379406, 
			 "total_energy": -359.015940304, 
			 "HOMO_LUMO_gap": 0.2128, 
			 "cosmo_polarized_energy": -14.29, 
			 "cosmo_cavitation_energy": 18.76, 
			 "cosmo_dispersion_energy": -14.38, 
			 "cosmo_repulsion_energy": 1.21, 
			 "cosmo_total_nonelectrostatic_energy": 5.6, 
			 "SMD_solvation_energy": 1.88 
		},
		"coords": [
			{
				"x": 0.9664938544,
				"y": 1.6639992853,
				"z": -2.028122981,
				"element": "N" 
			},
			{
				"x": 0.2368411286,
				"y": 0.816902247,
				"z": -1.2098540303,
				"element": "C" 
			},
			{
				"x": -0.2946356231,
				"y": 1.2743568405,
				"z": 0.0139274052,
				"element": "C" 
			},
			{
				"x": -1.0579450935,
				"y": 0.3926579564,
				"z": 0.764499147,
				"element": "C" 
			},
			{
				"x": -1.3314963523,
				"y": -0.8728064616,
				"z": 0.4208267078,
				"element": "N" 
			},
			{
				"x": -0.8285526168,
				"y": -1.300030449,
				"z": -0.7501536696,
				"element": "C" 
			},
			{
				"x": -1.1702300348,
				"y": -2.5935780628,
				"z": -1.1134673879,
				"element": "N" 
			},
			{
				"x": -0.0405807163,
				"y": -0.4990876816,
				"z": -1.5929002622,
				"element": "C" 
			},
			{
				"x": 1.5636960743,
				"y": 1.2240782188,
				"z": -2.7130766171,
				"element": "H" 
			},
			{
				"x": 1.3942938724,
				"y": 2.4598529788,
				"z": -1.5779579236,
				"element": "H" 
			},
			{
				"x": -0.1143045191,
				"y": 2.2882103391,
				"z": 0.357717068,
				"element": "H" 
			},
			{
				"x": -1.4753713863,
				"y": 0.7214798177,
				"z": 1.7156049011,
				"element": "H" 
			},
			{
				"x": -1.5197033345,
				"y": -3.1430536246,
				"z": -0.3405428776,
				"element": "H" 
			},
			{
				"x": -0.5281775908,
				"y": -3.0837594294,
				"z": -1.7184677465,
				"element": "H" 
			},
			{
				"x": 0.3324723376,
				"y": -0.8908219744,
				"z": -2.5358317333,
				"element": "H" 
			}
		],
		 "valence_orbital": [ 
			{
				"type": "occ",
				"energy": -0.3431,
				"method": "rhf"
			},
			{
				"type": "occ",
				"energy": -0.29237,
				"method": "rhf"
			},
			{
				"type": "occ",
				"energy": -0.24296,
				"method": "rhf"
			},
			{
				"type": "occ",
				"energy": -0.21774,
				"method": "rhf"
			},
			{
				"type": "occ",
				"energy": -0.20264,
				"method": "rhf"
			},
			{
				"type": "unocc",
				"energy": 0.01016,
				"method": "rhf"
			},
			{
				"type": "unocc",
				"energy": 0.02594,
				"method": "rhf"
			},
			{
				"type": "unocc",
				"energy": 0.07895,
				"method": "rhf"
			},
			{
				"type": "unocc",
				"energy": 0.09569,
				"method": "rhf"
			},
			{
				"type": "unocc",
				"energy": 0.12061,
				"method": "rhf"
			}
		],
		"cosmo_sigma_profile": { 
			"-0.025": 0.0,
			"-0.024": 0.0,
			"-0.023": 0.0,
			"-0.022": 0.0,
			"-0.021": 0.0,
			"-0.02": 0.0,
			"-0.019": 0.0,
			"-0.018": 0.0,
			"-0.017": 0.0,
			"-0.016": 0.0,
			"-0.015": 0.0,
			"-0.014": 0.0,
			"-0.013": 1.78748637094,
			"-0.012": 4.58561393042,
			"-0.011": 5.02952724119,
			"-0.01": 5.16184189241,
			"-0.009": 5.24335423288,
			"-0.008": 4.91305683533,
			"-0.007": 5.54278027135,
			"-0.006": 7.01654526846,
			"-0.005": 7.9244224461,
			"-0.004": 6.09097167011,
			"-0.003": 6.66055141638,
			"-0.002": 5.78350029876,
			"-0.001": 4.74936853408,
			"0.0": 4.96039217848,
			"0.001": 6.06155639872,
			"0.002": 5.66696911957,
			"0.003": 5.6586736584,
			"0.004": 7.5481541267,
			"0.005": 13.3416566368,
			"0.006": 9.65481246856,
			"0.007": 4.30581902479,
			"0.008": 3.23483538536,
			"0.009": 3.45031789895,
			"0.01": 3.48919760104,
			"0.011": 2.00484319393,
			"0.012": 2.45319290689,
			"0.013": 2.01285224031,
			"0.014": 1.46288832989,
			"0.015": 1.13147971679,
			"0.016": 0.515212215211,
			"0.017": 0.825299180631,
			"0.018": 0.0382526835944,
			"0.019": 0.0,
			"0.02": 0.0,
			"0.021": 0.0,
			"0.022": 0.0,
			"0.023": 0.0,
			"0.024": 0.0,
			"0.025": 0.0
		}
	}
}
