{
	 "smiles": "NS(=O)(=O)C1=CC=C(C=C1)N1CCCC1=O", 
	 "Tm": 521.15, 
	 "num_atms": 28, 
	 "gaussian": { 
		 "optdone": 1, 
		 "sigma_profile": "yes", 
		 "theory": "DFT", 
		 "functional": "B3LYP", 
		 "basiset": "6-31G**", 
		 "properties": { 
			 "R2extent": 6363.7448, 
			 "electric_dipole_moment_norm": 8.53194698823, 
			 "electric_quadrupole_moment_norm": 31.5621565732, 
			 "total_energy": -1121.60986768, 
			 "HOMO_LUMO_gap": 0.19387, 
			 "cosmo_polarized_energy": -24.53, 
			 "cosmo_cavitation_energy": 32.56, 
			 "cosmo_dispersion_energy": -24.73, 
			 "cosmo_repulsion_energy": 1.87, 
			 "cosmo_total_nonelectrostatic_energy": 9.7, 
			 "SMD_solvation_energy": 5.08 
		},
		"coords": [
			{
				"x": -3.2459412977,
				"y": 1.9014581816,
				"z": -3.6566063503,
				"element": "N" 
			},
			{
				"x": -1.7582936727,
				"y": 1.2265725958,
				"z": -4.0701312188,
				"element": "S" 
			},
			{
				"x": -2.0641820743,
				"y": 0.1857984321,
				"z": -5.0500235223,
				"element": "O" 
			},
			{
				"x": -0.8826565528,
				"y": 2.3621396604,
				"z": -4.3578461842,
				"element": "O" 
			},
			{
				"x": -1.1231889461,
				"y": 0.4184480027,
				"z": -2.6006852404,
				"element": "C" 
			},
			{
				"x": -1.4908380374,
				"y": -0.8984370425,
				"z": -2.3112169148,
				"element": "C" 
			},
			{
				"x": -1.0256821188,
				"y": -1.5208407719,
				"z": -1.1588022291,
				"element": "C" 
			},
			{
				"x": -0.1701115651,
				"y": -0.8273013024,
				"z": -0.2769624808,
				"element": "C" 
			},
			{
				"x": 0.2075548436,
				"y": 0.4924641266,
				"z": -0.5934712789,
				"element": "C" 
			},
			{
				"x": -0.2661403145,
				"y": 1.1112798595,
				"z": -1.7464404458,
				"element": "C" 
			},
			{
				"x": 0.3138938333,
				"y": -1.4198313881,
				"z": 0.9064177771,
				"element": "N" 
			},
			{
				"x": 1.1097797933,
				"y": -0.6547520696,
				"z": 1.8780259811,
				"element": "C" 
			},
			{
				"x": 1.1790596366,
				"y": -1.5721537115,
				"z": 3.111510933,
				"element": "C" 
			},
			{
				"x": 1.0442717845,
				"y": -2.9784223556,
				"z": 2.5213390695,
				"element": "C" 
			},
			{
				"x": 0.2471583741,
				"y": -2.7760661909,
				"z": 1.2371503394,
				"element": "C" 
			},
			{
				"x": -0.3234962905,
				"y": -3.6487774858,
				"z": 0.6083296191,
				"element": "O" 
			},
			{
				"x": -3.9390440496,
				"y": 1.1991809834,
				"z": -3.4173219392,
				"element": "H" 
			},
			{
				"x": -3.1622507199,
				"y": 2.6283878383,
				"z": -2.952824182,
				"element": "H" 
			},
			{
				"x": -2.1263071922,
				"y": -1.4443976129,
				"z": -3.0008835689,
				"element": "H" 
			},
			{
				"x": -1.2982593279,
				"y": -2.5421662693,
				"z": -0.9381086865,
				"element": "H" 
			},
			{
				"x": 0.8887826863,
				"y": 1.0407018935,
				"z": 0.0452293327,
				"element": "H" 
			},
			{
				"x": 0.0473199666,
				"y": 2.1188812624,
				"z": -1.9976445384,
				"element": "H" 
			},
			{
				"x": 0.6255643005,
				"y": 0.3004416816,
				"z": 2.0997502503,
				"element": "H" 
			},
			{
				"x": 2.10786073,
				"y": -0.4415206151,
				"z": 1.4710998517,
				"element": "H" 
			},
			{
				"x": 0.3353606854,
				"y": -1.3601459092,
				"z": 3.7755800274,
				"element": "H" 
			},
			{
				"x": 2.0987608442,
				"y": -1.4187151131,
				"z": 3.6801945065,
				"element": "H" 
			},
			{
				"x": 2.0169115335,
				"y": -3.4055932455,
				"z": 2.2462395698,
				"element": "H" 
			},
			{
				"x": 0.5405131476,
				"y": -3.7013334344,
				"z": 3.1657015228,
				"element": "H" 
			}
		],
		 "valence_orbital": [ 
			{
				"type": "occ",
				"energy": -0.29885,
				"method": "rhf"
			},
			{
				"type": "occ",
				"energy": -0.29779,
				"method": "rhf"
			},
			{
				"type": "occ",
				"energy": -0.27232,
				"method": "rhf"
			},
			{
				"type": "occ",
				"energy": -0.26427,
				"method": "rhf"
			},
			{
				"type": "occ",
				"energy": -0.23671,
				"method": "rhf"
			},
			{
				"type": "unocc",
				"energy": -0.04284,
				"method": "rhf"
			},
			{
				"type": "unocc",
				"energy": -0.0222,
				"method": "rhf"
			},
			{
				"type": "unocc",
				"energy": 0.01714,
				"method": "rhf"
			},
			{
				"type": "unocc",
				"energy": 0.05505,
				"method": "rhf"
			},
			{
				"type": "unocc",
				"energy": 0.06746,
				"method": "rhf"
			}
		],
		"cosmo_sigma_profile": { 
			"-0.025": 0.0,
			"-0.024": 0.0,
			"-0.023": 0.0,
			"-0.022": 0.0,
			"-0.021": 0.0,
			"-0.02": 0.0,
			"-0.019": 0.0,
			"-0.018": 0.0,
			"-0.017": 0.0,
			"-0.016": 0.0748917855878,
			"-0.015": 2.04299148547,
			"-0.014": 2.64549961566,
			"-0.013": 2.43832298586,
			"-0.012": 2.79835852424,
			"-0.011": 2.37032560239,
			"-0.01": 2.74140829794,
			"-0.009": 2.12091397423,
			"-0.008": 2.60189797216,
			"-0.007": 7.25131632665,
			"-0.006": 16.5149378205,
			"-0.005": 24.1431961238,
			"-0.004": 25.3198190457,
			"-0.003": 17.2493211347,
			"-0.002": 14.3687239732,
			"-0.001": 14.5055916178,
			"0.0": 9.97633112479,
			"0.001": 11.5989079282,
			"0.002": 14.5844179007,
			"0.003": 16.1288462615,
			"0.004": 5.60664108951,
			"0.005": 4.55199269172,
			"0.006": 5.55898916219,
			"0.007": 4.5197766605,
			"0.008": 5.56770260006,
			"0.009": 7.05190091364,
			"0.01": 8.52475056757,
			"0.011": 12.5824031946,
			"0.012": 9.76527716646,
			"0.013": 2.81403780955,
			"0.014": 0.53839103307,
			"0.015": 0.0,
			"0.016": 0.0,
			"0.017": 0.0,
			"0.018": 0.0,
			"0.019": 0.0,
			"0.02": 0.0,
			"0.021": 0.0,
			"0.022": 0.0,
			"0.023": 0.0,
			"0.024": 0.0,
			"0.025": 0.0
		}
	}
}
