{
	 "smiles": "CC1=NOC=C1C(O)=O", 
	 "Tm": 459.15, 
	 "num_atms": 14, 
	 "gaussian": { 
		 "optdone": 1, 
		 "sigma_profile": "yes", 
		 "theory": "DFT", 
		 "functional": "B3LYP", 
		 "basiset": "6-31G**", 
		 "properties": { 
			 "R2extent": 1507.6041, 
			 "electric_dipole_moment_norm": 2.66284402472, 
			 "electric_quadrupole_moment_norm": 15.3664359378, 
			 "total_energy": -473.91986932, 
			 "HOMO_LUMO_gap": 0.23385, 
			 "cosmo_polarized_energy": -17.16, 
			 "cosmo_cavitation_energy": 19.02, 
			 "cosmo_dispersion_energy": -14.13, 
			 "cosmo_repulsion_energy": 1.16, 
			 "cosmo_total_nonelectrostatic_energy": 6.05, 
			 "SMD_solvation_energy": 5.07 
		},
		"coords": [
			{
				"x": -1.7368317336,
				"y": 1.3188769341,
				"z": -0.9194995396,
				"element": "C" 
			},
			{
				"x": -1.4223018834,
				"y": 0.6153403293,
				"z": 0.3612922837,
				"element": "C" 
			},
			{
				"x": -1.4772085869,
				"y": 1.2608927354,
				"z": 1.5013225995,
				"element": "N" 
			},
			{
				"x": -1.1300507127,
				"y": 0.3234079663,
				"z": 2.4955799565,
				"element": "O" 
			},
			{
				"x": -0.8800909822,
				"y": -0.8490785265,
				"z": 1.9133257772,
				"element": "C" 
			},
			{
				"x": -1.0398835194,
				"y": -0.7608863181,
				"z": 0.5583758483,
				"element": "C" 
			},
			{
				"x": -0.8812205733,
				"y": -1.7707480507,
				"z": -0.5083116709,
				"element": "C" 
			},
			{
				"x": -0.5139921317,
				"y": -3.025137356,
				"z": -0.1315387173,
				"element": "O" 
			},
			{
				"x": -1.0630861756,
				"y": -1.5252760507,
				"z": -1.6782301867,
				"element": "O" 
			},
			{
				"x": -1.9902108315,
				"y": 2.3605531955,
				"z": -0.7147406618,
				"element": "H" 
			},
			{
				"x": -0.8828543647,
				"y": 1.273628572,
				"z": -1.6002678013,
				"element": "H" 
			},
			{
				"x": -2.5705730378,
				"y": 0.8296558036,
				"z": -1.42972392,
				"element": "H" 
			},
			{
				"x": -0.6012411995,
				"y": -1.6496022419,
				"z": 2.5867496574,
				"element": "H" 
			},
			{
				"x": -0.4013542678,
				"y": -3.0907269923,
				"z": 0.826066375,
				"element": "H" 
			}
		],
		 "valence_orbital": [ 
			{
				"type": "occ",
				"energy": -0.33133,
				"method": "rhf"
			},
			{
				"type": "occ",
				"energy": -0.32291,
				"method": "rhf"
			},
			{
				"type": "occ",
				"energy": -0.30627,
				"method": "rhf"
			},
			{
				"type": "occ",
				"energy": -0.29,
				"method": "rhf"
			},
			{
				"type": "occ",
				"energy": -0.28891,
				"method": "rhf"
			},
			{
				"type": "unocc",
				"energy": -0.05506,
				"method": "rhf"
			},
			{
				"type": "unocc",
				"energy": -0.01053,
				"method": "rhf"
			},
			{
				"type": "unocc",
				"energy": 0.03045,
				"method": "rhf"
			},
			{
				"type": "unocc",
				"energy": 0.08705,
				"method": "rhf"
			},
			{
				"type": "unocc",
				"energy": 0.09296,
				"method": "rhf"
			}
		],
		"cosmo_sigma_profile": { 
			"-0.025": 0.0,
			"-0.024": 0.0,
			"-0.023": 0.0,
			"-0.022": 0.0,
			"-0.021": 0.572840897988,
			"-0.02": 1.24014816508,
			"-0.019": 0.728008967812,
			"-0.018": 1.5923229092,
			"-0.017": 0.90858401376,
			"-0.016": 1.17858064362,
			"-0.015": 1.02523840649,
			"-0.014": 1.4701528127,
			"-0.013": 1.64120096292,
			"-0.012": 2.10682010194,
			"-0.011": 2.44095144081,
			"-0.01": 1.35527230224,
			"-0.009": 1.49668195004,
			"-0.008": 1.40894585815,
			"-0.007": 2.0735916731,
			"-0.006": 3.49392278702,
			"-0.005": 7.69868691852,
			"-0.004": 8.70994798192,
			"-0.003": 11.6269342123,
			"-0.002": 15.7191703067,
			"-0.001": 13.8411583786,
			"0.0": 5.82712285217,
			"0.001": 3.88635208179,
			"0.002": 4.39605200199,
			"0.003": 4.81781485104,
			"0.004": 4.40728466636,
			"0.005": 5.39985410793,
			"0.006": 5.73714031395,
			"0.007": 6.68687337612,
			"0.008": 5.2908344859,
			"0.009": 4.71746038751,
			"0.01": 5.97220031137,
			"0.011": 5.98360518902,
			"0.012": 4.16070748224,
			"0.013": 2.32480387203,
			"0.014": 0.244616637681,
			"0.015": 0.0,
			"0.016": 0.0,
			"0.017": 0.0,
			"0.018": 0.0,
			"0.019": 0.0,
			"0.02": 0.0,
			"0.021": 0.0,
			"0.022": 0.0,
			"0.023": 0.0,
			"0.024": 0.0,
			"0.025": 0.0
		}
	}
}
