{
	 "smiles": "CCCCCS(=O)CCCCC", 
	 "Tm": 331.15, 
	 "num_atms": 34, 
	 "gaussian": { 
		 "optdone": 1, 
		 "sigma_profile": "yes", 
		 "theory": "DFT", 
		 "functional": "B3LYP", 
		 "basiset": "6-31G**", 
		 "properties": { 
			 "R2extent": 4219.6122, 
			 "electric_dipole_moment_norm": 3.95500643489, 
			 "electric_quadrupole_moment_norm": 18.9951882268, 
			 "total_energy": -867.713065428, 
			 "HOMO_LUMO_gap": 0.25418, 
			 "cosmo_polarized_energy": -12.27, 
			 "cosmo_cavitation_energy": 35.65, 
			 "cosmo_dispersion_energy": -24.63, 
			 "cosmo_repulsion_energy": 2.0, 
			 "cosmo_total_nonelectrostatic_energy": 13.01, 
			 "SMD_solvation_energy": 4.9 
		},
		"coords": [
			{
				"x": 4.3670999781,
				"y": -0.7345566069,
				"z": -1.8430903351,
				"element": "C" 
			},
			{
				"x": 3.3264902808,
				"y": -0.1248787155,
				"z": -0.8979938475,
				"element": "C" 
			},
			{
				"x": 3.9490570619,
				"y": 0.411348365,
				"z": 0.3982604051,
				"element": "C" 
			},
			{
				"x": 2.9620900481,
				"y": 0.9796612135,
				"z": 1.4325534702,
				"element": "C" 
			},
			{
				"x": 2.2732247494,
				"y": 2.2993833585,
				"z": 1.0471409979,
				"element": "C" 
			},
			{
				"x": 0.7631721049,
				"y": 2.1622232745,
				"z": -0.0188807643,
				"element": "S" 
			},
			{
				"x": 0.3457368028,
				"y": 3.5830313615,
				"z": -0.3486673743,
				"element": "O" 
			},
			{
				"x": -0.3925406365,
				"y": 1.5855471757,
				"z": 1.3068629153,
				"element": "C" 
			},
			{
				"x": -1.8271850599,
				"y": 1.5069642025,
				"z": 0.7737161247,
				"element": "C" 
			},
			{
				"x": -2.0978008062,
				"y": 0.3899708631,
				"z": -0.2484487716,
				"element": "C" 
			},
			{
				"x": -1.9896892385,
				"y": -1.035817408,
				"z": 0.3106544814,
				"element": "C" 
			},
			{
				"x": -2.3471859028,
				"y": -2.1086313533,
				"z": -0.7234922169,
				"element": "C" 
			},
			{
				"x": 4.8956939931,
				"y": -1.5688386333,
				"z": -1.3675978108,
				"element": "H" 
			},
			{
				"x": 3.9011279114,
				"y": -1.1135999495,
				"z": -2.758170561,
				"element": "H" 
			},
			{
				"x": 5.118486967,
				"y": 0.007465467,
				"z": -2.1363678544,
				"element": "H" 
			},
			{
				"x": 2.7874148392,
				"y": 0.6758505185,
				"z": -1.4169463623,
				"element": "H" 
			},
			{
				"x": 2.5701880057,
				"y": -0.8819055541,
				"z": -0.6475904161,
				"element": "H" 
			},
			{
				"x": 4.6907232384,
				"y": 1.1847694734,
				"z": 0.1527802718,
				"element": "H" 
			},
			{
				"x": 4.5110474426,
				"y": -0.4014370101,
				"z": 0.877931113,
				"element": "H" 
			},
			{
				"x": 3.5117277454,
				"y": 1.1666628948,
				"z": 2.3632829425,
				"element": "H" 
			},
			{
				"x": 2.2147768402,
				"y": 0.2155817244,
				"z": 1.6856274506,
				"element": "H" 
			},
			{
				"x": 2.9385651922,
				"y": 2.9360792253,
				"z": 0.4545083188,
				"element": "H" 
			},
			{
				"x": 1.967438657,
				"y": 2.8774019987,
				"z": 1.9256192898,
				"element": "H" 
			},
			{
				"x": -0.3213601263,
				"y": 2.3271806185,
				"z": 2.1101190951,
				"element": "H" 
			},
			{
				"x": -0.0295279051,
				"y": 0.6226126222,
				"z": 1.6798278765,
				"element": "H" 
			},
			{
				"x": -2.4977416429,
				"y": 1.3813599605,
				"z": 1.6341589609,
				"element": "H" 
			},
			{
				"x": -2.0698598228,
				"y": 2.4797829075,
				"z": 0.331137884,
				"element": "H" 
			},
			{
				"x": -3.109337607,
				"y": 0.5343113747,
				"z": -0.6499803241,
				"element": "H" 
			},
			{
				"x": -1.4191467917,
				"y": 0.4968123727,
				"z": -1.1053745872,
				"element": "H" 
			},
			{
				"x": -2.6508049238,
				"y": -1.1322487504,
				"z": 1.1831094178,
				"element": "H" 
			},
			{
				"x": -0.9720390054,
				"y": -1.220791192,
				"z": 0.679310005,
				"element": "H" 
			},
			{
				"x": -2.2644284794,
				"y": -3.1156734203,
				"z": -0.3018351159,
				"element": "H" 
			},
			{
				"x": -3.3739084079,
				"y": -1.9822999096,
				"z": -1.0852411661,
				"element": "H" 
			},
			{
				"x": -1.6831055018,
				"y": -2.0563224695,
				"z": -1.593723513,
				"element": "H" 
			}
		],
		 "valence_orbital": [ 
			{
				"type": "occ",
				"energy": -0.32673,
				"method": "rhf"
			},
			{
				"type": "occ",
				"energy": -0.32217,
				"method": "rhf"
			},
			{
				"type": "occ",
				"energy": -0.31862,
				"method": "rhf"
			},
			{
				"type": "occ",
				"energy": -0.24931,
				"method": "rhf"
			},
			{
				"type": "occ",
				"energy": -0.21276,
				"method": "rhf"
			},
			{
				"type": "unocc",
				"energy": 0.04142,
				"method": "rhf"
			},
			{
				"type": "unocc",
				"energy": 0.04706,
				"method": "rhf"
			},
			{
				"type": "unocc",
				"energy": 0.06575,
				"method": "rhf"
			},
			{
				"type": "unocc",
				"energy": 0.08129,
				"method": "rhf"
			},
			{
				"type": "unocc",
				"energy": 0.09541,
				"method": "rhf"
			}
		],
		"cosmo_sigma_profile": { 
			"-0.025": 0.0,
			"-0.024": 0.0,
			"-0.023": 0.0,
			"-0.022": 0.0,
			"-0.021": 0.0,
			"-0.02": 0.0,
			"-0.019": 0.0,
			"-0.018": 0.0,
			"-0.017": 0.0,
			"-0.016": 0.0,
			"-0.015": 0.0,
			"-0.014": 0.0,
			"-0.013": 0.0,
			"-0.012": 0.0,
			"-0.011": 0.0,
			"-0.01": 0.0,
			"-0.009": 0.0,
			"-0.008": 0.0149733312698,
			"-0.007": 1.69634327557,
			"-0.006": 6.55399777269,
			"-0.005": 10.2868951023,
			"-0.004": 13.4196733873,
			"-0.003": 24.6859825163,
			"-0.002": 49.5659270218,
			"-0.001": 49.1090495989,
			"0.0": 41.9355943915,
			"0.001": 32.7460603633,
			"0.002": 15.308889714,
			"0.003": 3.76784958093,
			"0.004": 1.93031636555,
			"0.005": 1.72674733229,
			"0.006": 1.09346036621,
			"0.007": 1.79191625625,
			"0.008": 1.26649976029,
			"0.009": 0.960550328709,
			"0.01": 0.861531466285,
			"0.011": 1.21038596559,
			"0.012": 1.16822650678,
			"0.013": 1.63845399248,
			"0.014": 1.96831260612,
			"0.015": 4.36903992522,
			"0.016": 4.73286151116,
			"0.017": 1.39696288127,
			"0.018": 0.0,
			"0.019": 0.0,
			"0.02": 0.0,
			"0.021": 0.0,
			"0.022": 0.0,
			"0.023": 0.0,
			"0.024": 0.0,
			"0.025": 0.0
		}
	}
}
