{
	 "smiles": "CN(C)C(=O)SC1=CN2C=CN=C2N=C1", 
	 "Tm": 403.15, 
	 "num_atms": 25, 
	 "gaussian": { 
		 "optdone": 1, 
		 "sigma_profile": "yes", 
		 "theory": "DFT", 
		 "functional": "B3LYP", 
		 "basiset": "6-31G**", 
		 "properties": { 
			 "R2extent": 4831.9743, 
			 "electric_dipole_moment_norm": 7.20247973131, 
			 "electric_quadrupole_moment_norm": 26.4606575495, 
			 "total_energy": -1041.38810212, 
			 "HOMO_LUMO_gap": 0.1707, 
			 "cosmo_polarized_energy": -19.89, 
			 "cosmo_cavitation_energy": 31.02, 
			 "cosmo_dispersion_energy": -23.09, 
			 "cosmo_repulsion_energy": 1.74, 
			 "cosmo_total_nonelectrostatic_energy": 9.66, 
			 "SMD_solvation_energy": 3.21 
		},
		"coords": [
			{
				"x": -3.1837519275,
				"y": 2.9849595912,
				"z": -0.7402657127,
				"element": "C" 
			},
			{
				"x": -2.4638038856,
				"y": 2.8934282365,
				"z": 0.5210817368,
				"element": "N" 
			},
			{
				"x": -2.7520979246,
				"y": 3.9299099699,
				"z": 1.5095131789,
				"element": "C" 
			},
			{
				"x": -1.6924801002,
				"y": 1.8360227205,
				"z": 0.9031564665,
				"element": "C" 
			},
			{
				"x": -1.1371899328,
				"y": 1.7268607887,
				"z": 1.9784559395,
				"element": "O" 
			},
			{
				"x": -1.543491358,
				"y": 0.499014917,
				"z": -0.375203559,
				"element": "S" 
			},
			{
				"x": -0.4119462293,
				"y": -0.5641008249,
				"z": 0.4875294342,
				"element": "C" 
			},
			{
				"x": 0.869653698,
				"y": -0.7111546711,
				"z": 0.0230954904,
				"element": "C" 
			},
			{
				"x": 1.6877536511,
				"y": -1.595828955,
				"z": 0.660368684,
				"element": "N" 
			},
			{
				"x": 2.9936404707,
				"y": -1.9817838178,
				"z": 0.4525454489,
				"element": "C" 
			},
			{
				"x": 3.2498660822,
				"y": -2.9130115013,
				"z": 1.4388674911,
				"element": "C" 
			},
			{
				"x": 2.1752066498,
				"y": -3.1294734618,
				"z": 2.2507518777,
				"element": "N" 
			},
			{
				"x": 1.222503227,
				"y": -2.3348155429,
				"z": 1.7890230076,
				"element": "C" 
			},
			{
				"x": -0.0342905968,
				"y": -2.1818991742,
				"z": 2.2490286014,
				"element": "N" 
			},
			{
				"x": -0.8184375891,
				"y": -1.3351467644,
				"z": 1.6237662425,
				"element": "C" 
			},
			{
				"x": -3.1852721429,
				"y": 4.0278385692,
				"z": -1.0724321942,
				"element": "H" 
			},
			{
				"x": -2.6953452199,
				"y": 2.3927632275,
				"z": -1.5151739403,
				"element": "H" 
			},
			{
				"x": -4.2251002436,
				"y": 2.6511243888,
				"z": -0.6424681683,
				"element": "H" 
			},
			{
				"x": -3.8149836867,
				"y": 3.9202122222,
				"z": 1.782045312,
				"element": "H" 
			},
			{
				"x": -2.1511519201,
				"y": 3.7420479212,
				"z": 2.3971126813,
				"element": "H" 
			},
			{
				"x": -2.5054750376,
				"y": 4.9159002489,
				"z": 1.1002402454,
				"element": "H" 
			},
			{
				"x": 1.272927855,
				"y": -0.1672559886,
				"z": -0.8232462917,
				"element": "H" 
			},
			{
				"x": 3.5964658977,
				"y": -1.5737181047,
				"z": -0.3438159983,
				"element": "H" 
			},
			{
				"x": 4.1811184113,
				"y": -3.4415759311,
				"z": 1.5956666162,
				"element": "H" 
			},
			{
				"x": -1.8309181483,
				"y": -1.2193180638,
				"z": 2.0019574103,
				"element": "H" 
			}
		],
		 "valence_orbital": [ 
			{
				"type": "occ",
				"energy": -0.26983,
				"method": "rhf"
			},
			{
				"type": "occ",
				"energy": -0.262,
				"method": "rhf"
			},
			{
				"type": "occ",
				"energy": -0.25852,
				"method": "rhf"
			},
			{
				"type": "occ",
				"energy": -0.24728,
				"method": "rhf"
			},
			{
				"type": "occ",
				"energy": -0.22408,
				"method": "rhf"
			},
			{
				"type": "unocc",
				"energy": -0.05338,
				"method": "rhf"
			},
			{
				"type": "unocc",
				"energy": -0.0197,
				"method": "rhf"
			},
			{
				"type": "unocc",
				"energy": 0.01879,
				"method": "rhf"
			},
			{
				"type": "unocc",
				"energy": 0.02573,
				"method": "rhf"
			},
			{
				"type": "unocc",
				"energy": 0.05469,
				"method": "rhf"
			}
		],
		"cosmo_sigma_profile": { 
			"-0.025": 0.0,
			"-0.024": 0.0,
			"-0.023": 0.0,
			"-0.022": 0.0,
			"-0.021": 0.0,
			"-0.02": 0.0,
			"-0.019": 0.0,
			"-0.018": 0.0,
			"-0.017": 0.0,
			"-0.016": 0.0,
			"-0.015": 0.0,
			"-0.014": 0.0,
			"-0.013": 0.0,
			"-0.012": 0.419693736124,
			"-0.011": 2.92245815491,
			"-0.01": 3.12864073034,
			"-0.009": 3.56787042274,
			"-0.008": 4.04795088514,
			"-0.007": 6.64049781024,
			"-0.006": 11.3687591205,
			"-0.005": 20.3785401386,
			"-0.004": 22.7086383397,
			"-0.003": 26.9247246764,
			"-0.002": 23.5498797079,
			"-0.001": 17.5143837694,
			"0.0": 13.9615604787,
			"0.001": 12.9545430414,
			"0.002": 10.1308158955,
			"0.003": 11.8921663812,
			"0.004": 9.10585503645,
			"0.005": 6.12487042541,
			"0.006": 5.08801705185,
			"0.007": 4.6519210901,
			"0.008": 3.99269239689,
			"0.009": 3.84962434208,
			"0.01": 4.37322143549,
			"0.011": 4.40307445995,
			"0.012": 6.69794283293,
			"0.013": 3.31268107856,
			"0.014": 2.50361517372,
			"0.015": 2.18438443521,
			"0.016": 1.15019933755,
			"0.017": 0.897659648216,
			"0.018": 0.0420245847343,
			"0.019": 0.0,
			"0.02": 0.0,
			"0.021": 0.0,
			"0.022": 0.0,
			"0.023": 0.0,
			"0.024": 0.0,
			"0.025": 0.0
		}
	}
}
