{
	 "smiles": "NC1=NN=C(S1)C1=C(F)C=C(Br)C=C1", 
	 "Tm": 468.15, 
	 "num_atms": 19, 
	 "gaussian": { 
		 "optdone": 1, 
		 "sigma_profile": "yes", 
		 "theory": "DFT", 
		 "functional": "B3LYP", 
		 "basiset": "6-31G**", 
		 "properties": { 
			 "R2extent": 7060.4377, 
			 "electric_dipole_moment_norm": 2.93288010154, 
			 "electric_quadrupole_moment_norm": 22.6999620026, 
			 "total_energy": -3541.52029236, 
			 "HOMO_LUMO_gap": 0.16132, 
			 "cosmo_polarized_energy": -13.43, 
			 "cosmo_cavitation_energy": 28.47, 
			 "cosmo_dispersion_energy": -22.23, 
			 "cosmo_repulsion_energy": 1.68, 
			 "cosmo_total_nonelectrostatic_energy": 7.92, 
			 "SMD_solvation_energy": 2.09 
		},
		"coords": [
			{
				"x": -4.6866799478,
				"y": 3.7975595852,
				"z": -1.909477886,
				"element": "N" 
			},
			{
				"x": -3.6277799004,
				"y": 2.9737109627,
				"z": -1.6259627652,
				"element": "C" 
			},
			{
				"x": -3.6162397563,
				"y": 1.6985081761,
				"z": -1.9286049196,
				"element": "N" 
			},
			{
				"x": -2.4313690924,
				"y": 1.1040405659,
				"z": -1.6248855224,
				"element": "N" 
			},
			{
				"x": -1.5460267659,
				"y": 1.8963865482,
				"z": -1.0859529826,
				"element": "C" 
			},
			{
				"x": -2.1339958483,
				"y": 3.563373562,
				"z": -0.9154852001,
				"element": "S" 
			},
			{
				"x": -0.2209459652,
				"y": 1.4283904601,
				"z": -0.6736504782,
				"element": "C" 
			},
			{
				"x": 0.7524880985,
				"y": 2.2544431347,
				"z": -0.0999007945,
				"element": "C" 
			},
			{
				"x": 0.4764844452,
				"y": 3.5642791619,
				"z": 0.0974557177,
				"element": "F" 
			},
			{
				"x": 2.0065281465,
				"y": 1.798962587,
				"z": 0.2851537098,
				"element": "C" 
			},
			{
				"x": 2.305951792,
				"y": 0.454382105,
				"z": 0.0885808001,
				"element": "C" 
			},
			{
				"x": 4.0178481789,
				"y": -0.2042758913,
				"z": 0.6055137851,
				"element": "Br" 
			},
			{
				"x": 1.3716035233,
				"y": -0.4147307764,
				"z": -0.4802851605,
				"element": "C" 
			},
			{
				"x": 0.1264020063,
				"y": 0.0747874965,
				"z": -0.8535249376,
				"element": "C" 
			},
			{
				"x": -5.5238309153,
				"y": 3.2912856006,
				"z": -2.1687415273,
				"element": "H" 
			},
			{
				"x": -4.8466287536,
				"y": 4.5800542119,
				"z": -1.2921513327,
				"element": "H" 
			},
			{
				"x": 2.7156615272,
				"y": 2.489556237,
				"z": 0.723816485,
				"element": "H" 
			},
			{
				"x": 1.6177328927,
				"y": -1.4594794135,
				"z": -0.6278140843,
				"element": "H" 
			},
			{
				"x": -0.6129036654,
				"y": -0.5823343135,
				"z": -1.2968829068,
				"element": "H" 
			}
		],
		 "valence_orbital": [ 
			{
				"type": "occ",
				"energy": -0.2948,
				"method": "rhf"
			},
			{
				"type": "occ",
				"energy": -0.27034,
				"method": "rhf"
			},
			{
				"type": "occ",
				"energy": -0.26567,
				"method": "rhf"
			},
			{
				"type": "occ",
				"energy": -0.2617,
				"method": "rhf"
			},
			{
				"type": "occ",
				"energy": -0.2214,
				"method": "rhf"
			},
			{
				"type": "unocc",
				"energy": -0.06008,
				"method": "rhf"
			},
			{
				"type": "unocc",
				"energy": -0.01964,
				"method": "rhf"
			},
			{
				"type": "unocc",
				"energy": -0.0044,
				"method": "rhf"
			},
			{
				"type": "unocc",
				"energy": 0.0018,
				"method": "rhf"
			},
			{
				"type": "unocc",
				"energy": 0.00934,
				"method": "rhf"
			}
		],
		"cosmo_sigma_profile": { 
			"-0.025": 0.0,
			"-0.024": 0.0,
			"-0.023": 0.0,
			"-0.022": 0.0,
			"-0.021": 0.0,
			"-0.02": 0.0,
			"-0.019": 0.0,
			"-0.018": 0.0,
			"-0.017": 0.0,
			"-0.016": 0.0612391954162,
			"-0.015": 1.74836553665,
			"-0.014": 2.57515606312,
			"-0.013": 2.95929678598,
			"-0.012": 2.41051718726,
			"-0.011": 2.87418203213,
			"-0.01": 2.53133359168,
			"-0.009": 2.3980004783,
			"-0.008": 3.88018611711,
			"-0.007": 5.72097973417,
			"-0.006": 5.97946125387,
			"-0.005": 6.96948458962,
			"-0.004": 9.45669500006,
			"-0.003": 9.67136099003,
			"-0.002": 12.4097997352,
			"-0.001": 20.1817535255,
			"0.0": 25.1376717801,
			"0.001": 29.9855114813,
			"0.002": 25.4843416241,
			"0.003": 19.5739562378,
			"0.004": 15.2075605303,
			"0.005": 3.83526888612,
			"0.006": 2.29208586392,
			"0.007": 3.45331556425,
			"0.008": 2.58663509641,
			"0.009": 2.21908259167,
			"0.01": 2.72674678242,
			"0.011": 2.88075290879,
			"0.012": 3.32623882091,
			"0.013": 2.54481872444,
			"0.014": 0.845353830484,
			"0.015": 1.05182242051,
			"0.016": 0.0206607824203,
			"0.017": 0.0,
			"0.018": 0.0,
			"0.019": 0.0,
			"0.02": 0.0,
			"0.021": 0.0,
			"0.022": 0.0,
			"0.023": 0.0,
			"0.024": 0.0,
			"0.025": 0.0
		}
	}
}
