{
	 "smiles": "N#CC1=C(OC(=N1)C1CC1)N1CCNCC1", 
	 "Tm": 373.15, 
	 "num_atms": 30, 
	 "gaussian": { 
		 "optdone": 1, 
		 "sigma_profile": "yes", 
		 "theory": "DFT", 
		 "functional": "B3LYP", 
		 "basiset": "6-31G**", 
		 "properties": { 
			 "R2extent": 4945.1543, 
			 "electric_dipole_moment_norm": 6.48023347496, 
			 "electric_quadrupole_moment_norm": 32.8815723598, 
			 "total_energy": -721.768240447, 
			 "HOMO_LUMO_gap": 0.19306, 
			 "cosmo_polarized_energy": -17.13, 
			 "cosmo_cavitation_energy": 33.35, 
			 "cosmo_dispersion_energy": -23.57, 
			 "cosmo_repulsion_energy": 1.85, 
			 "cosmo_total_nonelectrostatic_energy": 11.62, 
			 "SMD_solvation_energy": 1.07 
		},
		"coords": [
			{
				"x": 0.6954598967,
				"y": -2.0355808268,
				"z": -4.7786627254,
				"element": "N" 
			},
			{
				"x": 0.1512817968,
				"y": -1.7674941599,
				"z": -3.7827181754,
				"element": "C" 
			},
			{
				"x": -0.504490017,
				"y": -1.439414952,
				"z": -2.5724021974,
				"element": "C" 
			},
			{
				"x": 0.0289650562,
				"y": -1.0064667939,
				"z": -1.3676489182,
				"element": "C" 
			},
			{
				"x": -1.0172667653,
				"y": -0.8386628133,
				"z": -0.50819767,
				"element": "O" 
			},
			{
				"x": -2.1544860247,
				"y": -1.1696106918,
				"z": -1.2353453764,
				"element": "C" 
			},
			{
				"x": -1.9001434877,
				"y": -1.5222793671,
				"z": -2.4458304604,
				"element": "N" 
			},
			{
				"x": -3.4500787496,
				"y": -1.0831582441,
				"z": -0.5538503884,
				"element": "C" 
			},
			{
				"x": -3.7243613839,
				"y": 0.0039382339,
				"z": 0.4711462095,
				"element": "C" 
			},
			{
				"x": -3.5827084089,
				"y": -1.4204757048,
				"z": 0.9213457402,
				"element": "C" 
			},
			{
				"x": 1.2681436663,
				"y": -0.6814598686,
				"z": -0.9026429663,
				"element": "N" 
			},
			{
				"x": 2.4421422639,
				"y": -1.0058917482,
				"z": -1.7244339228,
				"element": "C" 
			},
			{
				"x": 3.6158994433,
				"y": -0.0944696737,
				"z": -1.3378057399,
				"element": "C" 
			},
			{
				"x": 3.9125010704,
				"y": -0.0787080956,
				"z": 0.0944208537,
				"element": "N" 
			},
			{
				"x": 2.7122070156,
				"y": 0.2233823906,
				"z": 0.8722563937,
				"element": "C" 
			},
			{
				"x": 1.5156528691,
				"y": -0.681723487,
				"z": 0.5482691248,
				"element": "C" 
			},
			{
				"x": -4.2644535937,
				"y": -1.3711775984,
				"z": -1.2093573219,
				"element": "H" 
			},
			{
				"x": -4.7115883559,
				"y": 0.4547109181,
				"z": 0.461903995,
				"element": "H" 
			},
			{
				"x": -2.9148190154,
				"y": 0.6911940141,
				"z": 0.6947157528,
				"element": "H" 
			},
			{
				"x": -2.6772895123,
				"y": -1.6990546775,
				"z": 1.4507134766,
				"element": "H" 
			},
			{
				"x": -4.4709347146,
				"y": -1.9645160731,
				"z": 1.2262801658,
				"element": "H" 
			},
			{
				"x": 2.7208758244,
				"y": -2.0636197058,
				"z": -1.5822796535,
				"element": "H" 
			},
			{
				"x": 2.1938158148,
				"y": -0.870094485,
				"z": -2.7778305723,
				"element": "H" 
			},
			{
				"x": 3.3826939487,
				"y": 0.9326245598,
				"z": -1.6450673388,
				"element": "H" 
			},
			{
				"x": 4.5097165399,
				"y": -0.4058730184,
				"z": -1.8876730301,
				"element": "H" 
			},
			{
				"x": 4.2846152297,
				"y": -0.9839618603,
				"z": 0.3767873885,
				"element": "H" 
			},
			{
				"x": 2.9451329542,
				"y": 0.146657273,
				"z": 1.9395685104,
				"element": "H" 
			},
			{
				"x": 2.4328441594,
				"y": 1.265216671,
				"z": 0.6705338518,
				"element": "H" 
			},
			{
				"x": 1.7195514926,
				"y": -1.7101711055,
				"z": 0.8935348475,
				"element": "H" 
			},
			{
				"x": 0.619320987,
				"y": -0.3292591095,
				"z": 1.0601701471,
				"element": "H" 
			}
		],
		 "valence_orbital": [ 
			{
				"type": "occ",
				"energy": -0.3031,
				"method": "rhf"
			},
			{
				"type": "occ",
				"energy": -0.29872,
				"method": "rhf"
			},
			{
				"type": "occ",
				"energy": -0.29396,
				"method": "rhf"
			},
			{
				"type": "occ",
				"energy": -0.23899,
				"method": "rhf"
			},
			{
				"type": "occ",
				"energy": -0.20229,
				"method": "rhf"
			},
			{
				"type": "unocc",
				"energy": -0.00923,
				"method": "rhf"
			},
			{
				"type": "unocc",
				"energy": 0.01213,
				"method": "rhf"
			},
			{
				"type": "unocc",
				"energy": 0.03226,
				"method": "rhf"
			},
			{
				"type": "unocc",
				"energy": 0.06739,
				"method": "rhf"
			},
			{
				"type": "unocc",
				"energy": 0.08162,
				"method": "rhf"
			}
		],
		"cosmo_sigma_profile": { 
			"-0.025": 0.0,
			"-0.024": 0.0,
			"-0.023": 0.0,
			"-0.022": 0.0,
			"-0.021": 0.0,
			"-0.02": 0.0,
			"-0.019": 0.0,
			"-0.018": 0.0,
			"-0.017": 0.0,
			"-0.016": 0.0,
			"-0.015": 0.0,
			"-0.014": 0.0,
			"-0.013": 0.0,
			"-0.012": 0.0,
			"-0.011": 0.135523844072,
			"-0.01": 1.41949481924,
			"-0.009": 1.68137663723,
			"-0.008": 2.46629146271,
			"-0.007": 3.35750705308,
			"-0.006": 8.31690282587,
			"-0.005": 30.1215257635,
			"-0.004": 30.9972951161,
			"-0.003": 27.6705209663,
			"-0.002": 22.3910344786,
			"-0.001": 22.303098894,
			"0.0": 19.274746807,
			"0.001": 16.6754511851,
			"0.002": 13.1248953523,
			"0.003": 10.3570119619,
			"0.004": 7.9943256489,
			"0.005": 4.98271863917,
			"0.006": 3.74008137197,
			"0.007": 4.4929296806,
			"0.008": 4.28391724997,
			"0.009": 5.37777543696,
			"0.01": 4.36676770169,
			"0.011": 5.33358292203,
			"0.012": 4.14073965652,
			"0.013": 3.82749645757,
			"0.014": 2.59903761343,
			"0.015": 1.37016582563,
			"0.016": 0.547376348587,
			"0.017": 0.471279836342,
			"0.018": 0.351085393718,
			"0.019": 0.0,
			"0.02": 0.0,
			"0.021": 0.0,
			"0.022": 0.0,
			"0.023": 0.0,
			"0.024": 0.0,
			"0.025": 0.0
		}
	}
}
