{
	 "smiles": "SC1=NC2=C(C=C3C=CC=CC3=C2)C(=O)N1CC=C", 
	 "Tm": 559.15, 
	 "num_atms": 31, 
	 "gaussian": { 
		 "optdone": 1, 
		 "sigma_profile": "yes", 
		 "theory": "DFT", 
		 "functional": "B3LYP", 
		 "basiset": "6-31G**", 
		 "properties": { 
			 "R2extent": 6647.8262, 
			 "electric_dipole_moment_norm": 1.21438190863, 
			 "electric_quadrupole_moment_norm": 11.3050851332, 
			 "total_energy": -1161.75100121, 
			 "HOMO_LUMO_gap": 0.145, 
			 "cosmo_polarized_energy": -10.94, 
			 "cosmo_cavitation_energy": 36.69, 
			 "cosmo_dispersion_energy": -26.95, 
			 "cosmo_repulsion_energy": 1.97, 
			 "cosmo_total_nonelectrostatic_energy": 11.7, 
			 "SMD_solvation_energy": 5.08 
		},
		"coords": [
			{
				"x": 0.6503461464,
				"y": 3.3079442021,
				"z": 1.319157753,
				"element": "S" 
			},
			{
				"x": 0.2436687286,
				"y": 1.8002277821,
				"z": 0.4365321182,
				"element": "C" 
			},
			{
				"x": -0.9889065504,
				"y": 1.6000755312,
				"z": 0.1151930967,
				"element": "N" 
			},
			{
				"x": -1.3078978326,
				"y": 0.434730703,
				"z": -0.5681838179,
				"element": "C" 
			},
			{
				"x": -0.3031554257,
				"y": -0.5198122703,
				"z": -0.9143929314,
				"element": "C" 
			},
			{
				"x": -0.6332197176,
				"y": -1.6778514676,
				"z": -1.5974195531,
				"element": "C" 
			},
			{
				"x": -1.9683595468,
				"y": -1.9414613357,
				"z": -1.9672453101,
				"element": "C" 
			},
			{
				"x": -2.3398032411,
				"y": -3.1229289503,
				"z": -2.6706285438,
				"element": "C" 
			},
			{
				"x": -3.6492144993,
				"y": -3.3525628993,
				"z": -3.0172647346,
				"element": "C" 
			},
			{
				"x": -4.6549793556,
				"y": -2.4085699999,
				"z": -2.6762933188,
				"element": "C" 
			},
			{
				"x": -4.3341125534,
				"y": -1.2574115588,
				"z": -1.9979645333,
				"element": "C" 
			},
			{
				"x": -2.9871394236,
				"y": -0.9835169706,
				"z": -1.6210096764,
				"element": "C" 
			},
			{
				"x": -2.6275565027,
				"y": 0.1897265703,
				"z": -0.9244948935,
				"element": "C" 
			},
			{
				"x": 1.0925837215,
				"y": -0.2657828525,
				"z": -0.5366131441,
				"element": "C" 
			},
			{
				"x": 2.0322725401,
				"y": -1.0098833143,
				"z": -0.7834057381,
				"element": "O" 
			},
			{
				"x": 1.3033776285,
				"y": 0.9519472293,
				"z": 0.1575954444,
				"element": "N" 
			},
			{
				"x": 2.6923001169,
				"y": 1.2222178027,
				"z": 0.5952284501,
				"element": "C" 
			},
			{
				"x": 2.9810628372,
				"y": 0.6868972582,
				"z": 1.9749534634,
				"element": "C" 
			},
			{
				"x": 3.828027211,
				"y": -0.314907252,
				"z": 2.2066077536,
				"element": "C" 
			},
			{
				"x": -0.6310155992,
				"y": 3.7167933701,
				"z": 1.3104932347,
				"element": "H" 
			},
			{
				"x": 0.1572574222,
				"y": -2.3804405727,
				"z": -1.8431822914,
				"element": "H" 
			},
			{
				"x": -1.5649425791,
				"y": -3.8402004095,
				"z": -2.9278134026,
				"element": "H" 
			},
			{
				"x": -3.9221966872,
				"y": -4.256539779,
				"z": -3.553437186,
				"element": "H" 
			},
			{
				"x": -5.6862554022,
				"y": -2.6030576603,
				"z": -2.9566682793,
				"element": "H" 
			},
			{
				"x": -5.1048632198,
				"y": -0.536798702,
				"z": -1.738195642,
				"element": "H" 
			},
			{
				"x": -3.3822907344,
				"y": 0.9223273901,
				"z": -0.6558756143,
				"element": "H" 
			},
			{
				"x": 2.8558481435,
				"y": 2.3030411869,
				"z": 0.5418903318,
				"element": "H" 
			},
			{
				"x": 3.3381550114,
				"y": 0.7414016254,
				"z": -0.1393068104,
				"element": "H" 
			},
			{
				"x": 2.453874229,
				"y": 1.1631518948,
				"z": 2.8000290441,
				"element": "H" 
			},
			{
				"x": 4.3502388805,
				"y": -0.8155001395,
				"z": 1.3957607645,
				"element": "H" 
			},
			{
				"x": 4.0222962536,
				"y": -0.6732564122,
				"z": 3.2132539664,
				"element": "H" 
			}
		],
		 "valence_orbital": [ 
			{
				"type": "occ",
				"energy": -0.27549,
				"method": "rhf"
			},
			{
				"type": "occ",
				"energy": -0.27114,
				"method": "rhf"
			},
			{
				"type": "occ",
				"energy": -0.26315,
				"method": "rhf"
			},
			{
				"type": "occ",
				"energy": -0.2392,
				"method": "rhf"
			},
			{
				"type": "occ",
				"energy": -0.2088,
				"method": "rhf"
			},
			{
				"type": "unocc",
				"energy": -0.0638,
				"method": "rhf"
			},
			{
				"type": "unocc",
				"energy": -0.03609,
				"method": "rhf"
			},
			{
				"type": "unocc",
				"energy": -0.00377,
				"method": "rhf"
			},
			{
				"type": "unocc",
				"energy": 0.00325,
				"method": "rhf"
			},
			{
				"type": "unocc",
				"energy": 0.01287,
				"method": "rhf"
			}
		],
		"cosmo_sigma_profile": { 
			"-0.025": 0.0,
			"-0.024": 0.0,
			"-0.023": 0.0,
			"-0.022": 0.0,
			"-0.021": 0.0,
			"-0.02": 0.0,
			"-0.019": 0.0,
			"-0.018": 0.0,
			"-0.017": 0.0,
			"-0.016": 0.0,
			"-0.015": 0.0,
			"-0.014": 0.0,
			"-0.013": 0.0,
			"-0.012": 0.590321418476,
			"-0.011": 1.62893579071,
			"-0.01": 0.885935766357,
			"-0.009": 1.19845924349,
			"-0.008": 1.21047103241,
			"-0.007": 4.39352911859,
			"-0.006": 18.2233260981,
			"-0.005": 21.1884426378,
			"-0.004": 26.0341168372,
			"-0.003": 24.3725101398,
			"-0.002": 19.6438311448,
			"-0.001": 19.2737256767,
			"0.0": 19.7897590717,
			"0.001": 22.2656226662,
			"0.002": 29.4358371698,
			"0.003": 29.756790029,
			"0.004": 19.6880052647,
			"0.005": 11.5213027464,
			"0.006": 6.10809262128,
			"0.007": 3.88781152964,
			"0.008": 3.0760314737,
			"0.009": 2.40487085169,
			"0.01": 2.59199990133,
			"0.011": 3.27510260172,
			"0.012": 3.70729075642,
			"0.013": 0.932631380844,
			"0.014": 0.0,
			"0.015": 0.0,
			"0.016": 0.0,
			"0.017": 0.0,
			"0.018": 0.0,
			"0.019": 0.0,
			"0.02": 0.0,
			"0.021": 0.0,
			"0.022": 0.0,
			"0.023": 0.0,
			"0.024": 0.0,
			"0.025": 0.0
		}
	}
}
