{
	 "smiles": "ClP(Cl)(=O)NS(=O)(=O)C1=CC=CC=C1", 
	 "Tm": 403.15, 
	 "num_atms": 20, 
	 "gaussian": { 
		 "optdone": 1, 
		 "sigma_profile": "yes", 
		 "theory": "DFT", 
		 "functional": "B3LYP", 
		 "basiset": "6-31G**", 
		 "properties": { 
			 "R2extent": 5349.8689, 
			 "electric_dipole_moment_norm": 4.22039508696, 
			 "electric_quadrupole_moment_norm": 14.3953839858, 
			 "total_energy": -2172.59497112, 
			 "HOMO_LUMO_gap": 0.20991, 
			 "cosmo_polarized_energy": -15.4, 
			 "cosmo_cavitation_energy": 31.49, 
			 "cosmo_dispersion_energy": -23.05, 
			 "cosmo_repulsion_energy": 1.75, 
			 "cosmo_total_nonelectrostatic_energy": 10.2, 
			 "SMD_solvation_energy": 4.55 
		},
		"coords": [
			{
				"x": -1.6156917066,
				"y": 2.6776130235,
				"z": 3.3276757381,
				"element": "Cl" 
			},
			{
				"x": -0.7002019047,
				"y": 0.8684467738,
				"z": 3.0473870495,
				"element": "P" 
			},
			{
				"x": -1.6401317205,
				"y": -0.3191897921,
				"z": 4.4310435412,
				"element": "Cl" 
			},
			{
				"x": 0.7702113769,
				"y": 0.9265655432,
				"z": 3.1414691506,
				"element": "O" 
			},
			{
				"x": -1.2938269583,
				"y": 0.2070030637,
				"z": 1.6242050035,
				"element": "N" 
			},
			{
				"x": -0.6274211105,
				"y": 0.4847803573,
				"z": 0.0381579246,
				"element": "S" 
			},
			{
				"x": -0.0209634797,
				"y": 1.8093866623,
				"z": 0.0434801001,
				"element": "O" 
			},
			{
				"x": -1.7436594045,
				"y": 0.1267172029,
				"z": -0.8344982315,
				"element": "O" 
			},
			{
				"x": 0.6538592691,
				"y": -0.7505777483,
				"z": -0.1069307792,
				"element": "C" 
			},
			{
				"x": 0.3717676512,
				"y": -1.9220138694,
				"z": -0.8128105769,
				"element": "C" 
			},
			{
				"x": 1.3790619228,
				"y": -2.8770970544,
				"z": -0.9480774188,
				"element": "C" 
			},
			{
				"x": 2.6363513059,
				"y": -2.6536618065,
				"z": -0.3820910141,
				"element": "C" 
			},
			{
				"x": 2.8987492032,
				"y": -1.4735029774,
				"z": 0.3187128479,
				"element": "C" 
			},
			{
				"x": 1.9070257068,
				"y": -0.5037384339,
				"z": 0.4599564439,
				"element": "C" 
			},
			{
				"x": -2.2678994881,
				"y": -0.0790450945,
				"z": 1.5689773087,
				"element": "H" 
			},
			{
				"x": -0.6080578428,
				"y": -2.0672599349,
				"z": -1.2534062865,
				"element": "H" 
			},
			{
				"x": 1.1816773554,
				"y": -3.791960914,
				"z": -1.4979716844,
				"element": "H" 
			},
			{
				"x": 3.4165816501,
				"y": -3.4012742483,
				"z": -0.4899669193,
				"element": "H" 
			},
			{
				"x": 3.8779457023,
				"y": -1.3039478932,
				"z": 0.7550976209,
				"element": "H" 
			},
			{
				"x": 2.0913224722,
				"y": 0.4131571402,
				"z": 1.0071901817,
				"element": "H" 
			}
		],
		 "valence_orbital": [ 
			{
				"type": "occ",
				"energy": -0.33115,
				"method": "rhf"
			},
			{
				"type": "occ",
				"energy": -0.32462,
				"method": "rhf"
			},
			{
				"type": "occ",
				"energy": -0.31865,
				"method": "rhf"
			},
			{
				"type": "occ",
				"energy": -0.28332,
				"method": "rhf"
			},
			{
				"type": "occ",
				"energy": -0.27983,
				"method": "rhf"
			},
			{
				"type": "unocc",
				"energy": -0.06992,
				"method": "rhf"
			},
			{
				"type": "unocc",
				"energy": -0.0514,
				"method": "rhf"
			},
			{
				"type": "unocc",
				"energy": -0.0305,
				"method": "rhf"
			},
			{
				"type": "unocc",
				"energy": 0.00288,
				"method": "rhf"
			},
			{
				"type": "unocc",
				"energy": 0.03046,
				"method": "rhf"
			}
		],
		"cosmo_sigma_profile": { 
			"-0.025": 0.0,
			"-0.024": 0.0,
			"-0.023": 0.0,
			"-0.022": 0.0,
			"-0.021": 0.0,
			"-0.02": 0.0,
			"-0.019": 0.0402103242471,
			"-0.018": 0.689071843197,
			"-0.017": 1.17502424057,
			"-0.016": 1.03758152207,
			"-0.015": 1.23162109434,
			"-0.014": 0.959299290892,
			"-0.013": 0.829542928088,
			"-0.012": 0.711953392913,
			"-0.011": 1.20857631344,
			"-0.01": 1.35933048854,
			"-0.009": 1.30494128479,
			"-0.008": 2.33252218419,
			"-0.007": 10.7536386292,
			"-0.006": 13.0578268861,
			"-0.005": 11.6114354645,
			"-0.004": 11.4474790792,
			"-0.003": 13.7133744753,
			"-0.002": 15.9366966398,
			"-0.001": 17.9119489653,
			"0.0": 21.2646096412,
			"0.001": 30.3257289546,
			"0.002": 36.2155949202,
			"0.003": 13.0485978687,
			"0.004": 5.03327747318,
			"0.005": 5.04355736474,
			"0.006": 4.58841153886,
			"0.007": 5.32995697245,
			"0.008": 6.11079091776,
			"0.009": 10.7715325941,
			"0.01": 6.28640156273,
			"0.011": 3.43043647394,
			"0.012": 0.739604588606,
			"0.013": 0.0,
			"0.014": 0.0,
			"0.015": 0.0,
			"0.016": 0.0,
			"0.017": 0.0,
			"0.018": 0.0,
			"0.019": 0.0,
			"0.02": 0.0,
			"0.021": 0.0,
			"0.022": 0.0,
			"0.023": 0.0,
			"0.024": 0.0,
			"0.025": 0.0
		}
	}
}
