{
	 "smiles": "N(C1=CC=CC=C1)C1=NC=CC=C1", 
	 "Tm": 353.15, 
	 "num_atms": 23, 
	 "gaussian": { 
		 "optdone": 1, 
		 "sigma_profile": "yes", 
		 "theory": "DFT", 
		 "functional": "B3LYP", 
		 "basiset": "6-31G**", 
		 "properties": { 
			 "R2extent": 4129.7613, 
			 "electric_dipole_moment_norm": 1.03672384944, 
			 "electric_quadrupole_moment_norm": 9.82903752358, 
			 "total_energy": -534.704591829, 
			 "HOMO_LUMO_gap": 0.17919, 
			 "cosmo_polarized_energy": -7.85, 
			 "cosmo_cavitation_energy": 26.82, 
			 "cosmo_dispersion_energy": -20.09, 
			 "cosmo_repulsion_energy": 1.57, 
			 "cosmo_total_nonelectrostatic_energy": 8.3, 
			 "SMD_solvation_energy": 3.13 
		},
		"coords": [
			{
				"x": 0.4013769583,
				"y": -1.1222267755,
				"z": -0.1555593232,
				"element": "N" 
			},
			{
				"x": 1.615158976,
				"y": -0.4542967462,
				"z": 0.0556762163,
				"element": "C" 
			},
			{
				"x": 2.8237360921,
				"y": -1.1212777684,
				"z": 0.3196432219,
				"element": "C" 
			},
			{
				"x": 4.0012505282,
				"y": -0.3938446487,
				"z": 0.492351155,
				"element": "C" 
			},
			{
				"x": 4.0082747715,
				"y": 0.9972801315,
				"z": 0.3844458138,
				"element": "C" 
			},
			{
				"x": 2.813184942,
				"y": 1.6608521223,
				"z": 0.0962963421,
				"element": "C" 
			},
			{
				"x": 1.6282444139,
				"y": 0.9474477711,
				"z": -0.0591653692,
				"element": "C" 
			},
			{
				"x": -0.0602343147,
				"y": -2.3402091861,
				"z": 0.3175913117,
				"element": "C" 
			},
			{
				"x": -1.1690237921,
				"y": -2.7728502224,
				"z": -0.3109387922,
				"element": "N" 
			},
			{
				"x": -1.7108088977,
				"y": -3.9260229106,
				"z": 0.090250494,
				"element": "C" 
			},
			{
				"x": -1.1963194344,
				"y": -4.7149046587,
				"z": 1.117196687,
				"element": "C" 
			},
			{
				"x": -0.0585144844,
				"y": -4.2451691156,
				"z": 1.7783834407,
				"element": "C" 
			},
			{
				"x": 0.5235900368,
				"y": -3.0452768816,
				"z": 1.3899133867,
				"element": "C" 
			},
			{
				"x": -0.2598992453,
				"y": -0.6850548036,
				"z": -0.7831349121,
				"element": "H" 
			},
			{
				"x": 2.8495747774,
				"y": -2.2038607211,
				"z": 0.3566872322,
				"element": "H" 
			},
			{
				"x": 4.9254996135,
				"y": -0.9277716347,
				"z": 0.6954308213,
				"element": "H" 
			},
			{
				"x": 4.9300273527,
				"y": 1.5552410887,
				"z": 0.5161057353,
				"element": "H" 
			},
			{
				"x": 2.7988145125,
				"y": 2.7430649539,
				"z": 0.0021560258,
				"element": "H" 
			},
			{
				"x": 0.6975822341,
				"y": 1.4706513741,
				"z": -0.2633689985,
				"element": "H" 
			},
			{
				"x": -2.6084092351,
				"y": -4.2340500473,
				"z": -0.4441979055,
				"element": "H" 
			},
			{
				"x": -1.6735303251,
				"y": -5.6484302138,
				"z": 1.3942473934,
				"element": "H" 
			},
			{
				"x": 0.3703087596,
				"y": -4.8055375554,
				"z": 2.6047069886,
				"element": "H" 
			},
			{
				"x": 1.3819157601,
				"y": -2.6480535521,
				"z": 1.9161830351,
				"element": "H" 
			}
		],
		 "valence_orbital": [ 
			{
				"type": "occ",
				"energy": -0.27985,
				"method": "rhf"
			},
			{
				"type": "occ",
				"energy": -0.25806,
				"method": "rhf"
			},
			{
				"type": "occ",
				"energy": -0.256,
				"method": "rhf"
			},
			{
				"type": "occ",
				"energy": -0.25176,
				"method": "rhf"
			},
			{
				"type": "occ",
				"energy": -0.19645,
				"method": "rhf"
			},
			{
				"type": "unocc",
				"energy": -0.01726,
				"method": "rhf"
			},
			{
				"type": "unocc",
				"energy": -0.01105,
				"method": "rhf"
			},
			{
				"type": "unocc",
				"energy": -0.00322,
				"method": "rhf"
			},
			{
				"type": "unocc",
				"energy": 0.0285,
				"method": "rhf"
			},
			{
				"type": "unocc",
				"energy": 0.09239,
				"method": "rhf"
			}
		],
		"cosmo_sigma_profile": { 
			"-0.025": 0.0,
			"-0.024": 0.0,
			"-0.023": 0.0,
			"-0.022": 0.0,
			"-0.021": 0.0,
			"-0.02": 0.0,
			"-0.019": 0.0,
			"-0.018": 0.0,
			"-0.017": 0.0,
			"-0.016": 0.0,
			"-0.015": 0.0,
			"-0.014": 0.0135447784013,
			"-0.013": 0.703258309187,
			"-0.012": 0.601640962052,
			"-0.011": 1.21842298853,
			"-0.01": 1.21852028567,
			"-0.009": 0.760412074635,
			"-0.008": 1.05028011173,
			"-0.007": 2.73280676922,
			"-0.006": 11.5079067758,
			"-0.005": 18.422519592,
			"-0.004": 19.5526680031,
			"-0.003": 18.4467346967,
			"-0.002": 13.1314868104,
			"-0.001": 11.9129604357,
			"0.0": 11.5399701125,
			"0.001": 13.5954593253,
			"0.002": 16.6463852846,
			"0.003": 20.5898313716,
			"0.004": 19.8228582675,
			"0.005": 12.1702119405,
			"0.006": 10.0588007796,
			"0.007": 2.16094075854,
			"0.008": 1.08296802861,
			"0.009": 1.14148267014,
			"0.01": 0.950115859963,
			"0.011": 0.983047739295,
			"0.012": 1.20462485572,
			"0.013": 0.579513871106,
			"0.014": 0.751288574667,
			"0.015": 0.750998892347,
			"0.016": 0.00929180493189,
			"0.017": 0.0,
			"0.018": 0.0,
			"0.019": 0.0,
			"0.02": 0.0,
			"0.021": 0.0,
			"0.022": 0.0,
			"0.023": 0.0,
			"0.024": 0.0,
			"0.025": 0.0
		}
	}
}
