{
	 "smiles": "CC1=CNC(=O)N1C1=CC=C(C=C1)C#N", 
	 "Tm": 504.15, 
	 "num_atms": 24, 
	 "gaussian": { 
		 "optdone": 1, 
		 "sigma_profile": "yes", 
		 "theory": "DFT", 
		 "functional": "B3LYP", 
		 "basiset": "6-31G**", 
		 "properties": { 
			 "R2extent": 4198.3819, 
			 "electric_dipole_moment_norm": 7.55583351325, 
			 "electric_quadrupole_moment_norm": 15.5091892396, 
			 "total_energy": -664.071497596, 
			 "HOMO_LUMO_gap": 0.15319, 
			 "cosmo_polarized_energy": -18.38, 
			 "cosmo_cavitation_energy": 29.43, 
			 "cosmo_dispersion_energy": -20.86, 
			 "cosmo_repulsion_energy": 1.63, 
			 "cosmo_total_nonelectrostatic_energy": 10.2, 
			 "SMD_solvation_energy": 7.52 
		},
		"coords": [
			{
				"x": 0.6144009533,
				"y": 0.756351692,
				"z": 1.603117995,
				"element": "C" 
			},
			{
				"x": 0.8580614956,
				"y": -0.5501711278,
				"z": 0.9222633029,
				"element": "C" 
			},
			{
				"x": 1.6790684976,
				"y": -1.5541807864,
				"z": 1.3039712267,
				"element": "C" 
			},
			{
				"x": 1.6653124169,
				"y": -2.5338487667,
				"z": 0.3130719968,
				"element": "N" 
			},
			{
				"x": 0.8543534567,
				"y": -2.1663725274,
				"z": -0.7419379057,
				"element": "C" 
			},
			{
				"x": 0.6349354416,
				"y": -2.778542487,
				"z": -1.776038702,
				"element": "O" 
			},
			{
				"x": 0.3279523095,
				"y": -0.9145240235,
				"z": -0.3414284215,
				"element": "N" 
			},
			{
				"x": -0.6092466116,
				"y": -0.2040178938,
				"z": -1.1274411811,
				"element": "C" 
			},
			{
				"x": -1.7213111461,
				"y": 0.4124461992,
				"z": -0.5348071796,
				"element": "C" 
			},
			{
				"x": -2.6282112333,
				"y": 1.1228633394,
				"z": -1.3124030542,
				"element": "C" 
			},
			{
				"x": -2.4509809926,
				"y": 1.2066677375,
				"z": -2.7027817253,
				"element": "C" 
			},
			{
				"x": -1.3526535596,
				"y": 0.562422334,
				"z": -3.2985211636,
				"element": "C" 
			},
			{
				"x": -0.4376878419,
				"y": -0.1330593005,
				"z": -2.5193033688,
				"element": "C" 
			},
			{
				"x": -3.3864157764,
				"y": 1.9365073549,
				"z": -3.5060328123,
				"element": "C" 
			},
			{
				"x": -4.1452980649,
				"y": 2.5326767849,
				"z": -4.1562120238,
				"element": "N" 
			},
			{
				"x": 1.3393008613,
				"y": 0.873958834,
				"z": 2.4126371209,
				"element": "H" 
			},
			{
				"x": 0.7383374534,
				"y": 1.598562367,
				"z": 0.913904659,
				"element": "H" 
			},
			{
				"x": -0.3853844377,
				"y": 0.8388307122,
				"z": 2.0431217061,
				"element": "H" 
			},
			{
				"x": 2.293057006,
				"y": -1.6349728884,
				"z": 2.1866336847,
				"element": "H" 
			},
			{
				"x": 2.1874864618,
				"y": -3.3942182763,
				"z": 0.2992895518,
				"element": "H" 
			},
			{
				"x": -1.8913529721,
				"y": 0.3156020177,
				"z": 0.5303726028,
				"element": "H" 
			},
			{
				"x": -3.4853692246,
				"y": 1.6001841483,
				"z": -0.8497630695,
				"element": "H" 
			},
			{
				"x": -1.2174618124,
				"y": 0.6179701914,
				"z": -4.3733355251,
				"element": "H" 
			},
			{
				"x": 0.4012073194,
				"y": -0.6388356348,
				"z": -2.9786777141,
				"element": "H" 
			}
		],
		 "valence_orbital": [ 
			{
				"type": "occ",
				"energy": -0.31672,
				"method": "rhf"
			},
			{
				"type": "occ",
				"energy": -0.2795,
				"method": "rhf"
			},
			{
				"type": "occ",
				"energy": -0.26746,
				"method": "rhf"
			},
			{
				"type": "occ",
				"energy": -0.25762,
				"method": "rhf"
			},
			{
				"type": "occ",
				"energy": -0.20594,
				"method": "rhf"
			},
			{
				"type": "unocc",
				"energy": -0.05275,
				"method": "rhf"
			},
			{
				"type": "unocc",
				"energy": -0.02416,
				"method": "rhf"
			},
			{
				"type": "unocc",
				"energy": 0.0257,
				"method": "rhf"
			},
			{
				"type": "unocc",
				"energy": 0.03952,
				"method": "rhf"
			},
			{
				"type": "unocc",
				"energy": 0.05277,
				"method": "rhf"
			}
		],
		"cosmo_sigma_profile": { 
			"-0.025": 0.0,
			"-0.024": 0.0,
			"-0.023": 0.0,
			"-0.022": 0.0,
			"-0.021": 0.0,
			"-0.02": 0.0,
			"-0.019": 0.0,
			"-0.018": 0.0,
			"-0.017": 0.0698385038373,
			"-0.016": 1.00614471254,
			"-0.015": 1.50238424108,
			"-0.014": 1.15721947367,
			"-0.013": 0.859705431777,
			"-0.012": 1.02877128907,
			"-0.011": 1.04821997071,
			"-0.01": 0.651230596117,
			"-0.009": 2.92365720582,
			"-0.008": 9.27014527889,
			"-0.007": 9.40211447903,
			"-0.006": 13.8548911799,
			"-0.005": 12.9971873218,
			"-0.004": 12.6239338578,
			"-0.003": 14.3375383015,
			"-0.002": 16.7141146757,
			"-0.001": 20.7860541608,
			"0.0": 19.2242466599,
			"0.001": 18.7059928412,
			"0.002": 16.4426589574,
			"0.003": 9.69915743203,
			"0.004": 7.19966069926,
			"0.005": 3.78838567041,
			"0.006": 4.03763585928,
			"0.007": 3.74852169895,
			"0.008": 5.14296051393,
			"0.009": 4.40614611254,
			"0.01": 4.94343304987,
			"0.011": 4.39982012322,
			"0.012": 4.0341536483,
			"0.013": 4.79948830747,
			"0.014": 5.47694152077,
			"0.015": 0.773405614305,
			"0.016": 0.0,
			"0.017": 0.0,
			"0.018": 0.0,
			"0.019": 0.0,
			"0.02": 0.0,
			"0.021": 0.0,
			"0.022": 0.0,
			"0.023": 0.0,
			"0.024": 0.0,
			"0.025": 0.0
		}
	}
}
