{
	 "smiles": "CC(C)(C)NS(=O)(=O)C1=C(F)C=CC(N)=C1", 
	 "Tm": 412.15, 
	 "num_atms": 31, 
	 "gaussian": { 
		 "optdone": 1, 
		 "sigma_profile": "yes", 
		 "theory": "DFT", 
		 "functional": "B3LYP", 
		 "basiset": "6-31G**", 
		 "properties": { 
			 "R2extent": 4350.7343, 
			 "electric_dipole_moment_norm": 6.68060610199, 
			 "electric_quadrupole_moment_norm": 21.3708034774, 
			 "total_energy": -1148.01821851, 
			 "HOMO_LUMO_gap": 0.18336, 
			 "cosmo_polarized_energy": -18.85, 
			 "cosmo_cavitation_energy": 34.58, 
			 "cosmo_dispersion_energy": -24.28, 
			 "cosmo_repulsion_energy": 1.83, 
			 "cosmo_total_nonelectrostatic_energy": 12.12, 
			 "SMD_solvation_energy": 5.26 
		},
		"coords": [
			{
				"x": 1.8928947152,
				"y": -2.8263647105,
				"z": -0.0592230722,
				"element": "C" 
			},
			{
				"x": 1.8206145964,
				"y": -1.3024377879,
				"z": -0.2543954528,
				"element": "C" 
			},
			{
				"x": 3.1614726586,
				"y": -0.7842419628,
				"z": -0.8005396296,
				"element": "C" 
			},
			{
				"x": 0.6717029853,
				"y": -0.9543117602,
				"z": -1.2179665518,
				"element": "C" 
			},
			{
				"x": 1.6091724313,
				"y": -0.7555943383,
				"z": 1.1219010755,
				"element": "N" 
			},
			{
				"x": 1.1936286798,
				"y": 0.8068229591,
				"z": 1.5138735964,
				"element": "S" 
			},
			{
				"x": 1.4552016611,
				"y": 0.9512811277,
				"z": 2.9445401012,
				"element": "O" 
			},
			{
				"x": 1.8043058696,
				"y": 1.7011793634,
				"z": 0.5255068163,
				"element": "O" 
			},
			{
				"x": -0.593081301,
				"y": 0.9556101419,
				"z": 1.3009169255,
				"element": "C" 
			},
			{
				"x": -1.46595021,
				"y": 0.0484793206,
				"z": 1.897673029,
				"element": "C" 
			},
			{
				"x": -0.9720485716,
				"y": -1.0102754512,
				"z": 2.5895706346,
				"element": "F" 
			},
			{
				"x": -2.8387620289,
				"y": 0.198481466,
				"z": 1.7721400117,
				"element": "C" 
			},
			{
				"x": -3.3474816294,
				"y": 1.2773457018,
				"z": 1.0520004374,
				"element": "C" 
			},
			{
				"x": -2.4889923019,
				"y": 2.2121477217,
				"z": 0.4451761545,
				"element": "C" 
			},
			{
				"x": -2.9991799455,
				"y": 3.3223713435,
				"z": -0.22367847,
				"element": "N" 
			},
			{
				"x": -1.1013421426,
				"y": 2.0328378643,
				"z": 0.5789868176,
				"element": "C" 
			},
			{
				"x": 0.9449335117,
				"y": -3.2241948542,
				"z": 0.3216322841,
				"element": "H" 
			},
			{
				"x": 2.1009476363,
				"y": -3.3151102415,
				"z": -1.015238037,
				"element": "H" 
			},
			{
				"x": 2.6904329258,
				"y": -3.0924834097,
				"z": 0.6413519213,
				"element": "H" 
			},
			{
				"x": 3.1437123419,
				"y": 0.3008726687,
				"z": -0.9113786231,
				"element": "H" 
			},
			{
				"x": 3.9748211934,
				"y": -1.0463021338,
				"z": -0.1179173995,
				"element": "H" 
			},
			{
				"x": 3.3660471687,
				"y": -1.2358941492,
				"z": -1.7772793536,
				"element": "H" 
			},
			{
				"x": 0.8519292242,
				"y": -1.417840672,
				"z": -2.1933678002,
				"element": "H" 
			},
			{
				"x": -0.2882795295,
				"y": -1.3204608283,
				"z": -0.8401368871,
				"element": "H" 
			},
			{
				"x": 0.598098244,
				"y": 0.1254419458,
				"z": -1.3684633491,
				"element": "H" 
			},
			{
				"x": 1.1818406113,
				"y": -1.395553986,
				"z": 1.7838122082,
				"element": "H" 
			},
			{
				"x": -3.4966577445,
				"y": -0.526766477,
				"z": 2.2388574735,
				"element": "H" 
			},
			{
				"x": -4.4233690857,
				"y": 1.3995452383,
				"z": 0.9625619853,
				"element": "H" 
			},
			{
				"x": -3.9342559932,
				"y": 3.2215123882,
				"z": -0.592161601,
				"element": "H" 
			},
			{
				"x": -2.3720643766,
				"y": 3.7627166059,
				"z": -0.8818930881,
				"element": "H" 
			},
			{
				"x": -0.4015915942,
				"y": 2.7274869056,
				"z": 0.1253378431,
				"element": "H" 
			}
		],
		 "valence_orbital": [ 
			{
				"type": "occ",
				"energy": -0.29749,
				"method": "rhf"
			},
			{
				"type": "occ",
				"energy": -0.29599,
				"method": "rhf"
			},
			{
				"type": "occ",
				"energy": -0.27701,
				"method": "rhf"
			},
			{
				"type": "occ",
				"energy": -0.25918,
				"method": "rhf"
			},
			{
				"type": "occ",
				"energy": -0.21737,
				"method": "rhf"
			},
			{
				"type": "unocc",
				"energy": -0.03401,
				"method": "rhf"
			},
			{
				"type": "unocc",
				"energy": -0.00239,
				"method": "rhf"
			},
			{
				"type": "unocc",
				"energy": 0.05369,
				"method": "rhf"
			},
			{
				"type": "unocc",
				"energy": 0.06771,
				"method": "rhf"
			},
			{
				"type": "unocc",
				"energy": 0.0692,
				"method": "rhf"
			}
		],
		"cosmo_sigma_profile": { 
			"-0.025": 0.0,
			"-0.024": 0.0,
			"-0.023": 0.0,
			"-0.022": 0.0,
			"-0.021": 0.0,
			"-0.02": 0.0,
			"-0.019": 0.0,
			"-0.018": 0.0,
			"-0.017": 0.0,
			"-0.016": 0.0,
			"-0.015": 0.0,
			"-0.014": 0.0053037745271,
			"-0.013": 1.79016067339,
			"-0.012": 3.45111441767,
			"-0.011": 4.39715791383,
			"-0.01": 4.03337075628,
			"-0.009": 3.78090264131,
			"-0.008": 5.92813080138,
			"-0.007": 7.29047841575,
			"-0.006": 7.19239970745,
			"-0.005": 9.63437476414,
			"-0.004": 17.5366088859,
			"-0.003": 19.8211819051,
			"-0.002": 20.1953132787,
			"-0.001": 22.4575932066,
			"0.0": 29.0681531641,
			"0.001": 23.5645251815,
			"0.002": 16.9724507257,
			"0.003": 16.410693411,
			"0.004": 11.1764426615,
			"0.005": 5.57724522949,
			"0.006": 5.42451135409,
			"0.007": 4.481454442,
			"0.008": 4.80644907406,
			"0.009": 5.36384677987,
			"0.01": 7.15190172698,
			"0.011": 8.92941713105,
			"0.012": 4.66911998159,
			"0.013": 0.641455579426,
			"0.014": 0.204189789657,
			"0.015": 0.0,
			"0.016": 0.0,
			"0.017": 0.0,
			"0.018": 0.0,
			"0.019": 0.0,
			"0.02": 0.0,
			"0.021": 0.0,
			"0.022": 0.0,
			"0.023": 0.0,
			"0.024": 0.0,
			"0.025": 0.0
		}
	}
}
