{
	 "smiles": "CCCCCCCCC=CCCCCCCCC(=O)OCC(O)CO", 
	 "Tm": 308.15, 
	 "num_atms": 65, 
	 "gaussian": { 
		 "optdone": 1, 
		 "sigma_profile": "yes", 
		 "theory": "DFT", 
		 "functional": "B3LYP", 
		 "basiset": "6-31G**", 
		 "properties": { 
			 "R2extent": 14008.0159, 
			 "electric_dipole_moment_norm": 3.48746075677, 
			 "electric_quadrupole_moment_norm": 17.7570047536, 
			 "total_energy": -1125.24926109, 
			 "HOMO_LUMO_gap": 0.24919, 
			 "cosmo_polarized_energy": -14.01, 
			 "cosmo_cavitation_energy": 63.66, 
			 "cosmo_dispersion_energy": -38.63, 
			 "cosmo_repulsion_energy": 3.04, 
			 "cosmo_total_nonelectrostatic_energy": 28.07, 
			 "SMD_solvation_energy": 9.45 
		},
		"coords": [
			{
				"x": 4.5879043837,
				"y": -0.1903421746,
				"z": 3.8925254622,
				"element": "C" 
			},
			{
				"x": 3.4555749011,
				"y": -0.446594899,
				"z": 2.8908395844,
				"element": "C" 
			},
			{
				"x": 3.0525817749,
				"y": 0.7967820328,
				"z": 2.0740715514,
				"element": "C" 
			},
			{
				"x": 2.3022345213,
				"y": 1.9114644377,
				"z": 2.8404958328,
				"element": "C" 
			},
			{
				"x": 0.7646496174,
				"y": 1.8386304076,
				"z": 2.7740252572,
				"element": "C" 
			},
			{
				"x": 0.1239379109,
				"y": 0.6626214667,
				"z": 3.5252085854,
				"element": "C" 
			},
			{
				"x": -1.4156687335,
				"y": 0.6388198553,
				"z": 3.5311606789,
				"element": "C" 
			},
			{
				"x": -2.0758186483,
				"y": 0.3897140738,
				"z": 2.1513693474,
				"element": "C" 
			},
			{
				"x": -2.4149737023,
				"y": 1.628128221,
				"z": 1.3598244181,
				"element": "C" 
			},
			{
				"x": -3.5661300283,
				"y": 1.8226343337,
				"z": 0.7078326777,
				"element": "C" 
			},
			{
				"x": -3.8802219697,
				"y": 3.0329095739,
				"z": -0.1396610772,
				"element": "C" 
			},
			{
				"x": -3.4648713403,
				"y": 2.9415495672,
				"z": -1.6294561732,
				"element": "C" 
			},
			{
				"x": -4.2503818584,
				"y": 1.9673838272,
				"z": -2.5267540914,
				"element": "C" 
			},
			{
				"x": -4.0649643637,
				"y": 0.456648346,
				"z": -2.2783313897,
				"element": "C" 
			},
			{
				"x": -2.6162828337,
				"y": -0.059511017,
				"z": -2.287232725,
				"element": "C" 
			},
			{
				"x": -1.8784026042,
				"y": 0.1098896861,
				"z": -3.6227802944,
				"element": "C" 
			},
			{
				"x": -0.4145479414,
				"y": -0.3457887176,
				"z": -3.5585461459,
				"element": "C" 
			},
			{
				"x": -0.2629421378,
				"y": -1.8403041434,
				"z": -3.3459330082,
				"element": "C" 
			},
			{
				"x": -1.0378037556,
				"y": -2.6884628833,
				"z": -3.7320868143,
				"element": "O" 
			},
			{
				"x": 0.8831636654,
				"y": -2.1252927639,
				"z": -2.6805930693,
				"element": "O" 
			},
			{
				"x": 1.1629205754,
				"y": -3.5226797929,
				"z": -2.4642677083,
				"element": "C" 
			},
			{
				"x": 2.3338729905,
				"y": -3.6093416571,
				"z": -1.4949809399,
				"element": "C" 
			},
			{
				"x": 2.6850094137,
				"y": -4.9806145023,
				"z": -1.4224468727,
				"element": "O" 
			},
			{
				"x": 1.9867278184,
				"y": -3.0856268661,
				"z": -0.1035771824,
				"element": "C" 
			},
			{
				"x": 3.1303234776,
				"y": -3.3539441518,
				"z": 0.7126751694,
				"element": "O" 
			},
			{
				"x": 4.3138772726,
				"y": 0.5690608139,
				"z": 4.6326808026,
				"element": "H" 
			},
			{
				"x": 4.8480728039,
				"y": -1.1021240156,
				"z": 4.4405976364,
				"element": "H" 
			},
			{
				"x": 5.4918925829,
				"y": 0.1589848389,
				"z": 3.3806552883,
				"element": "H" 
			},
			{
				"x": 2.5832072777,
				"y": -0.8432552143,
				"z": 3.425955706,
				"element": "H" 
			},
			{
				"x": 3.7723860486,
				"y": -1.2277392484,
				"z": 2.1876389298,
				"element": "H" 
			},
			{
				"x": 3.9686806743,
				"y": 1.2158455854,
				"z": 1.6372557171,
				"element": "H" 
			},
			{
				"x": 2.4376996471,
				"y": 0.4826235141,
				"z": 1.2192237729,
				"element": "H" 
			},
			{
				"x": 2.6021138661,
				"y": 2.8816492816,
				"z": 2.4257899998,
				"element": "H" 
			},
			{
				"x": 2.6222410373,
				"y": 1.9296428907,
				"z": 3.891148545,
				"element": "H" 
			},
			{
				"x": 0.4689619178,
				"y": 1.8092894041,
				"z": 1.7169796314,
				"element": "H" 
			},
			{
				"x": 0.3531927161,
				"y": 2.7740380708,
				"z": 3.1785600307,
				"element": "H" 
			},
			{
				"x": 0.4777606434,
				"y": -0.2855718732,
				"z": 3.0986422464,
				"element": "H" 
			},
			{
				"x": 0.4780565725,
				"y": 0.6778341522,
				"z": 4.565443045,
				"element": "H" 
			},
			{
				"x": -1.7318817994,
				"y": -0.1604675391,
				"z": 4.2126500096,
				"element": "H" 
			},
			{
				"x": -1.8033532772,
				"y": 1.5718639469,
				"z": 3.9613250028,
				"element": "H" 
			},
			{
				"x": -2.9941278186,
				"y": -0.1950256747,
				"z": 2.2827567711,
				"element": "H" 
			},
			{
				"x": -1.4008579603,
				"y": -0.2488246361,
				"z": 1.5593166853,
				"element": "H" 
			},
			{
				"x": -1.6511719961,
				"y": 2.4054712004,
				"z": 1.3102290243,
				"element": "H" 
			},
			{
				"x": -4.3320887034,
				"y": 1.0486278468,
				"z": 0.7686028568,
				"element": "H" 
			},
			{
				"x": -3.3666642247,
				"y": 3.9031514399,
				"z": 0.2884699887,
				"element": "H" 
			},
			{
				"x": -4.9551089795,
				"y": 3.2521922877,
				"z": -0.0856868314,
				"element": "H" 
			},
			{
				"x": -2.3920236985,
				"y": 2.7165375428,
				"z": -1.677809596,
				"element": "H" 
			},
			{
				"x": -3.5798418423,
				"y": 3.9459634214,
				"z": -2.0582003305,
				"element": "H" 
			},
			{
				"x": -3.9815179839,
				"y": 2.1885866762,
				"z": -3.5680794745,
				"element": "H" 
			},
			{
				"x": -5.321433283,
				"y": 2.2003080014,
				"z": -2.4476564471,
				"element": "H" 
			},
			{
				"x": -4.6396716402,
				"y": -0.084503139,
				"z": -3.0425387081,
				"element": "H" 
			},
			{
				"x": -4.5186119883,
				"y": 0.1842804773,
				"z": -1.3188464486,
				"element": "H" 
			},
			{
				"x": -2.6320536931,
				"y": -1.1263617219,
				"z": -2.0329941774,
				"element": "H" 
			},
			{
				"x": -2.0487895752,
				"y": 0.437395439,
				"z": -1.4899607874,
				"element": "H" 
			},
			{
				"x": -1.8910112855,
				"y": 1.1607448001,
				"z": -3.9344549899,
				"element": "H" 
			},
			{
				"x": -2.3936557478,
				"y": -0.4614548006,
				"z": -4.403385707,
				"element": "H" 
			},
			{
				"x": 0.1366953325,
				"y": 0.1817910571,
				"z": -2.7735584891,
				"element": "H" 
			},
			{
				"x": 0.096212606,
				"y": -0.113870278,
				"z": -4.5031017019,
				"element": "H" 
			},
			{
				"x": 1.4241402415,
				"y": -4.0024783649,
				"z": -3.4121261391,
				"element": "H" 
			},
			{
				"x": 0.2767614433,
				"y": -4.0250048854,
				"z": -2.0658531072,
				"element": "H" 
			},
			{
				"x": 3.170431619,
				"y": -3.0084016228,
				"z": -1.8883469028,
				"element": "H" 
			},
			{
				"x": 3.2636120948,
				"y": -5.0551313474,
				"z": -0.6487612309,
				"element": "H" 
			},
			{
				"x": 1.1025297121,
				"y": -3.6230461545,
				"z": 0.2701978621,
				"element": "H" 
			},
			{
				"x": 1.7590718471,
				"y": -2.0125394911,
				"z": -0.1422870135,
				"element": "H" 
			},
			{
				"x": 2.8808764068,
				"y": -3.251354942,
				"z": 1.6385474574,
				"element": "H" 
			}
		],
		 "valence_orbital": [ 
			{
				"type": "occ",
				"energy": -0.30073,
				"method": "rhf"
			},
			{
				"type": "occ",
				"energy": -0.28603,
				"method": "rhf"
			},
			{
				"type": "occ",
				"energy": -0.2697,
				"method": "rhf"
			},
			{
				"type": "occ",
				"energy": -0.26685,
				"method": "rhf"
			},
			{
				"type": "occ",
				"energy": -0.23616,
				"method": "rhf"
			},
			{
				"type": "unocc",
				"energy": 0.01303,
				"method": "rhf"
			},
			{
				"type": "unocc",
				"energy": 0.01994,
				"method": "rhf"
			},
			{
				"type": "unocc",
				"energy": 0.0445,
				"method": "rhf"
			},
			{
				"type": "unocc",
				"energy": 0.07538,
				"method": "rhf"
			},
			{
				"type": "unocc",
				"energy": 0.08492,
				"method": "rhf"
			}
		],
		"cosmo_sigma_profile": { 
			"-0.025": 0.0,
			"-0.024": 0.0,
			"-0.023": 0.0,
			"-0.022": 0.0,
			"-0.021": 0.0,
			"-0.02": 0.0,
			"-0.019": 0.0,
			"-0.018": 0.0,
			"-0.017": 0.0,
			"-0.016": 0.0,
			"-0.015": 0.249816704636,
			"-0.014": 0.77332706753,
			"-0.013": 0.651975788079,
			"-0.012": 1.40513767968,
			"-0.011": 1.10878654743,
			"-0.01": 1.22895108905,
			"-0.009": 1.67980093886,
			"-0.008": 1.96499632134,
			"-0.007": 2.90015198472,
			"-0.006": 7.26228494707,
			"-0.005": 10.3823011388,
			"-0.004": 14.9660493552,
			"-0.003": 29.2348551919,
			"-0.002": 76.1676860691,
			"-0.001": 90.5210132521,
			"0.0": 83.5197352874,
			"0.001": 65.8475785203,
			"0.002": 33.2552004539,
			"0.003": 12.5831615523,
			"0.004": 8.65696393671,
			"0.005": 5.96948670331,
			"0.006": 6.29411569639,
			"0.007": 6.56347015086,
			"0.008": 4.1724650124,
			"0.009": 3.63736893604,
			"0.01": 2.68425833228,
			"0.011": 4.49837239815,
			"0.012": 7.00899371624,
			"0.013": 3.4426548018,
			"0.014": 0.813343838324,
			"0.015": 0.0,
			"0.016": 0.0,
			"0.017": 0.0,
			"0.018": 0.0,
			"0.019": 0.0,
			"0.02": 0.0,
			"0.021": 0.0,
			"0.022": 0.0,
			"0.023": 0.0,
			"0.024": 0.0,
			"0.025": 0.0
		}
	}
}
