{
	 "smiles": "OC(=O)CCNS(=O)(=O)C1=CC=C(F)C=C1", 
	 "Tm": 398.15, 
	 "num_atms": 26, 
	 "gaussian": { 
		 "optdone": 1, 
		 "sigma_profile": "yes", 
		 "theory": "DFT", 
		 "functional": "B3LYP", 
		 "basiset": "6-31G**", 
		 "properties": { 
			 "R2extent": 4918.8387, 
			 "electric_dipole_moment_norm": 4.67035181758, 
			 "electric_quadrupole_moment_norm": 10.9122526996, 
			 "total_energy": -1202.59823449, 
			 "HOMO_LUMO_gap": 0.22259, 
			 "cosmo_polarized_energy": -18.98, 
			 "cosmo_cavitation_energy": 32.42, 
			 "cosmo_dispersion_energy": -23.22, 
			 "cosmo_repulsion_energy": 1.76, 
			 "cosmo_total_nonelectrostatic_energy": 10.95, 
			 "SMD_solvation_energy": 6.03 
		},
		"coords": [
			{
				"x": -3.1996572153,
				"y": 3.5812377716,
				"z": 0.7053770208,
				"element": "O" 
			},
			{
				"x": -2.4856080301,
				"y": 2.5110161464,
				"z": 1.1175944911,
				"element": "C" 
			},
			{
				"x": -1.2842616905,
				"y": 2.5497604556,
				"z": 1.2782022884,
				"element": "O" 
			},
			{
				"x": -3.3764929343,
				"y": 1.315459475,
				"z": 1.3874400675,
				"element": "C" 
			},
			{
				"x": -2.6174991188,
				"y": -0.0089237455,
				"z": 1.3222200801,
				"element": "C" 
			},
			{
				"x": -2.2189412201,
				"y": -0.2994799339,
				"z": -0.0638156374,
				"element": "N" 
			},
			{
				"x": -0.8503118725,
				"y": -1.2625279574,
				"z": -0.345280304,
				"element": "S" 
			},
			{
				"x": -1.2844618005,
				"y": -2.403078733,
				"z": -1.1618812191,
				"element": "O" 
			},
			{
				"x": -0.1739060634,
				"y": -1.4486002875,
				"z": 0.9412920883,
				"element": "O" 
			},
			{
				"x": 0.1843090756,
				"y": -0.2306209236,
				"z": -1.3813818007,
				"element": "C" 
			},
			{
				"x": 0.683830603,
				"y": 0.9756667776,
				"z": -0.8785825927,
				"element": "C" 
			},
			{
				"x": 1.5211525008,
				"y": 1.7478639107,
				"z": -1.678276687,
				"element": "C" 
			},
			{
				"x": 1.8425236465,
				"y": 1.2907152924,
				"z": -2.954699134,
				"element": "C" 
			},
			{
				"x": 2.653687283,
				"y": 2.039888169,
				"z": -3.7245611988,
				"element": "F" 
			},
			{
				"x": 1.3544502659,
				"y": 0.0920028724,
				"z": -3.4624978543,
				"element": "C" 
			},
			{
				"x": 0.51248312,
				"y": -0.6792162756,
				"z": -2.6614500461,
				"element": "C" 
			},
			{
				"x": -2.5647011035,
				"y": 4.3091609579,
				"z": 0.5932585705,
				"element": "H" 
			},
			{
				"x": -3.7941612919,
				"y": 1.4456038224,
				"z": 2.394905445,
				"element": "H" 
			},
			{
				"x": -4.2270563083,
				"y": 1.3381870104,
				"z": 0.6990898733,
				"element": "H" 
			},
			{
				"x": -3.2360257067,
				"y": -0.8114339129,
				"z": 1.7430181172,
				"element": "H" 
			},
			{
				"x": -1.7084560782,
				"y": 0.0552959179,
				"z": 1.9208347354,
				"element": "H" 
			},
			{
				"x": -2.9709163682,
				"y": -0.6568375807,
				"z": -0.6469432005,
				"element": "H" 
			},
			{
				"x": 0.4079868126,
				"y": 1.3179011779,
				"z": 0.1127687043,
				"element": "H" 
			},
			{
				"x": 1.9261475706,
				"y": 2.691088407,
				"z": -1.328876043,
				"element": "H" 
			},
			{
				"x": 1.6346022789,
				"y": -0.2226124591,
				"z": -4.4616066029,
				"element": "H" 
			},
			{
				"x": 0.1126836454,
				"y": -1.6220163552,
				"z": -3.0168491612,
				"element": "H" 
			}
		],
		 "valence_orbital": [ 
			{
				"type": "occ",
				"energy": -0.30353,
				"method": "rhf"
			},
			{
				"type": "occ",
				"energy": -0.29271,
				"method": "rhf"
			},
			{
				"type": "occ",
				"energy": -0.28224,
				"method": "rhf"
			},
			{
				"type": "occ",
				"energy": -0.27382,
				"method": "rhf"
			},
			{
				"type": "occ",
				"energy": -0.25325,
				"method": "rhf"
			},
			{
				"type": "unocc",
				"energy": -0.03066,
				"method": "rhf"
			},
			{
				"type": "unocc",
				"energy": -0.02295,
				"method": "rhf"
			},
			{
				"type": "unocc",
				"energy": -0.00676,
				"method": "rhf"
			},
			{
				"type": "unocc",
				"energy": 0.05213,
				"method": "rhf"
			},
			{
				"type": "unocc",
				"energy": 0.06737,
				"method": "rhf"
			}
		],
		"cosmo_sigma_profile": { 
			"-0.025": 0.0,
			"-0.024": 0.0,
			"-0.023": 0.0,
			"-0.022": 0.0,
			"-0.021": 0.0,
			"-0.02": 0.0,
			"-0.019": 0.133503688536,
			"-0.018": 0.788390821239,
			"-0.017": 0.959270891259,
			"-0.016": 0.751556069741,
			"-0.015": 1.253687875,
			"-0.014": 1.89761517927,
			"-0.013": 1.78165027998,
			"-0.012": 1.62068131514,
			"-0.011": 1.42657377318,
			"-0.01": 1.65618071951,
			"-0.009": 2.97154193402,
			"-0.008": 7.14293216406,
			"-0.007": 11.7545330292,
			"-0.006": 14.1939837127,
			"-0.005": 15.1841514208,
			"-0.004": 14.1612018257,
			"-0.003": 13.34572013,
			"-0.002": 10.6964638168,
			"-0.001": 15.3245960509,
			"0.0": 18.6327493398,
			"0.001": 20.3268119121,
			"0.002": 18.6539799473,
			"0.003": 13.8082608691,
			"0.004": 14.7817862898,
			"0.005": 7.86164066793,
			"0.006": 6.74039111924,
			"0.007": 5.37480120666,
			"0.008": 5.4692541919,
			"0.009": 6.38826421882,
			"0.01": 9.77591218779,
			"0.011": 10.4817025123,
			"0.012": 2.95035080032,
			"0.013": 0.0,
			"0.014": 0.0,
			"0.015": 0.0,
			"0.016": 0.0,
			"0.017": 0.0,
			"0.018": 0.0,
			"0.019": 0.0,
			"0.02": 0.0,
			"0.021": 0.0,
			"0.022": 0.0,
			"0.023": 0.0,
			"0.024": 0.0,
			"0.025": 0.0
		}
	}
}
