{
	 "smiles": "CN1C(S)=NN=C1C1=CC(=NN1CC1=C(Cl)C=C(Cl)C=C1)C(C)(C)C", 
	 "Tm": 465.15, 
	 "num_atms": 44, 
	 "gaussian": { 
		 "optdone": 1, 
		 "sigma_profile": "yes", 
		 "theory": "DFT", 
		 "functional": "B3LYP", 
		 "basiset": "6-31G**", 
		 "properties": { 
			 "R2extent": 14340.5492, 
			 "electric_dipole_moment_norm": 4.24434437575, 
			 "electric_quadrupole_moment_norm": 19.799065581, 
			 "total_energy": -2251.56461725, 
			 "HOMO_LUMO_gap": 0.19079, 
			 "cosmo_polarized_energy": -17.08, 
			 "cosmo_cavitation_energy": 51.67, 
			 "cosmo_dispersion_energy": -34.7, 
			 "cosmo_repulsion_energy": 2.61, 
			 "cosmo_total_nonelectrostatic_energy": 19.59, 
			 "SMD_solvation_energy": 5.24 
		},
		"coords": [
			{
				"x": -0.3847197731,
				"y": 4.291959116,
				"z": -0.1619043725,
				"element": "C" 
			},
			{
				"x": -0.5611600427,
				"y": 3.6805291341,
				"z": -1.4725644109,
				"element": "N" 
			},
			{
				"x": -1.0429153909,
				"y": 4.2852080595,
				"z": -2.6043296164,
				"element": "C" 
			},
			{
				"x": -1.4492157108,
				"y": 6.002908826,
				"z": -2.6637508459,
				"element": "S" 
			},
			{
				"x": -1.1517482683,
				"y": 3.4300942574,
				"z": -3.595946492,
				"element": "N" 
			},
			{
				"x": -0.7182479057,
				"y": 2.2132513098,
				"z": -3.1193682635,
				"element": "N" 
			},
			{
				"x": -0.3673813867,
				"y": 2.3643084412,
				"z": -1.8564571725,
				"element": "C" 
			},
			{
				"x": 0.1648803505,
				"y": 1.3248098113,
				"z": -0.9885513825,
				"element": "C" 
			},
			{
				"x": 1.132284634,
				"y": 1.3972541611,
				"z": 0.0100908173,
				"element": "C" 
			},
			{
				"x": 1.310680554,
				"y": 0.0711881713,
				"z": 0.4608230006,
				"element": "C" 
			},
			{
				"x": 0.5078198724,
				"y": -0.7587890349,
				"z": -0.2117022466,
				"element": "N" 
			},
			{
				"x": -0.1830859967,
				"y": 0.0023403568,
				"z": -1.082968815,
				"element": "N" 
			},
			{
				"x": -1.1694144794,
				"y": -0.643084069,
				"z": -1.9633009912,
				"element": "C" 
			},
			{
				"x": -2.6119468368,
				"y": -0.4823873042,
				"z": -1.5141649406,
				"element": "C" 
			},
			{
				"x": -3.2203807182,
				"y": -1.3049916221,
				"z": -0.5517194232,
				"element": "C" 
			},
			{
				"x": -2.3385777846,
				"y": -2.6222550687,
				"z": 0.2031628713,
				"element": "Cl" 
			},
			{
				"x": -4.5519624265,
				"y": -1.1345154067,
				"z": -0.1696739569,
				"element": "C" 
			},
			{
				"x": -5.298562981,
				"y": -0.1225706253,
				"z": -0.7677079344,
				"element": "C" 
			},
			{
				"x": -6.9730815862,
				"y": 0.098735301,
				"z": -0.2890180223,
				"element": "Cl" 
			},
			{
				"x": -4.7419500613,
				"y": 0.703698676,
				"z": -1.741106592,
				"element": "C" 
			},
			{
				"x": -3.4103501365,
				"y": 0.5106469316,
				"z": -2.1020106076,
				"element": "C" 
			},
			{
				"x": 2.2410678211,
				"y": -0.4700459975,
				"z": 1.5357171214,
				"element": "C" 
			},
			{
				"x": 3.1384949817,
				"y": -1.5695434801,
				"z": 0.9256099721,
				"element": "C" 
			},
			{
				"x": 1.3931197014,
				"y": -1.0763017652,
				"z": 2.6771262981,
				"element": "C" 
			},
			{
				"x": 3.1235860766,
				"y": 0.6588551087,
				"z": 2.0975634366,
				"element": "C" 
			},
			{
				"x": -1.1892780627,
				"y": 5.0100701128,
				"z": 0.0134364592,
				"element": "H" 
			},
			{
				"x": 0.5778451025,
				"y": 4.8080669411,
				"z": -0.0920766777,
				"element": "H" 
			},
			{
				"x": -0.4310664945,
				"y": 3.5137617358,
				"z": 0.5997152237,
				"element": "H" 
			},
			{
				"x": -1.9129836755,
				"y": 5.9156535767,
				"z": -3.9246056669,
				"element": "H" 
			},
			{
				"x": 1.6715274705,
				"y": 2.2782397734,
				"z": 0.3215095682,
				"element": "H" 
			},
			{
				"x": -0.8813338442,
				"y": -1.6942216876,
				"z": -1.983039265,
				"element": "H" 
			},
			{
				"x": -1.0516650526,
				"y": -0.2162410512,
				"z": -2.9594240597,
				"element": "H" 
			},
			{
				"x": -4.9948326485,
				"y": -1.7849572233,
				"z": 0.5742103385,
				"element": "H" 
			},
			{
				"x": -5.3381633011,
				"y": 1.4777611362,
				"z": -2.2104414428,
				"element": "H" 
			},
			{
				"x": -2.9672513545,
				"y": 1.1457088479,
				"z": -2.8621858892,
				"element": "H" 
			},
			{
				"x": 2.5304137086,
				"y": -2.3724393258,
				"z": 0.5012231377,
				"element": "H" 
			},
			{
				"x": 3.7681711902,
				"y": -1.1646212334,
				"z": 0.126180903,
				"element": "H" 
			},
			{
				"x": 3.79441787,
				"y": -1.9967155376,
				"z": 1.6925252312,
				"element": "H" 
			},
			{
				"x": 0.744720931,
				"y": -1.8698911798,
				"z": 2.2967273569,
				"element": "H" 
			},
			{
				"x": 0.7568171537,
				"y": -0.3152925108,
				"z": 3.1417950507,
				"element": "H" 
			},
			{
				"x": 2.0413738691,
				"y": -1.4977010503,
				"z": 3.4538917365,
				"element": "H" 
			},
			{
				"x": 3.7449719235,
				"y": 1.1104140631,
				"z": 1.3164751942,
				"element": "H" 
			},
			{
				"x": 3.7930397994,
				"y": 0.2640558928,
				"z": 2.8685800199,
				"element": "H" 
			},
			{
				"x": 2.5211429088,
				"y": 1.4506454317,
				"z": 2.5566553503,
				"element": "H" 
			}
		],
		 "valence_orbital": [ 
			{
				"type": "occ",
				"energy": -0.26727,
				"method": "rhf"
			},
			{
				"type": "occ",
				"energy": -0.26268,
				"method": "rhf"
			},
			{
				"type": "occ",
				"energy": -0.2538,
				"method": "rhf"
			},
			{
				"type": "occ",
				"energy": -0.246,
				"method": "rhf"
			},
			{
				"type": "occ",
				"energy": -0.22451,
				"method": "rhf"
			},
			{
				"type": "unocc",
				"energy": -0.03372,
				"method": "rhf"
			},
			{
				"type": "unocc",
				"energy": -0.02711,
				"method": "rhf"
			},
			{
				"type": "unocc",
				"energy": -0.02251,
				"method": "rhf"
			},
			{
				"type": "unocc",
				"energy": -0.00547,
				"method": "rhf"
			},
			{
				"type": "unocc",
				"energy": 0.00929,
				"method": "rhf"
			}
		],
		"cosmo_sigma_profile": { 
			"-0.025": 0.0,
			"-0.024": 0.0,
			"-0.023": 0.0,
			"-0.022": 0.0,
			"-0.021": 0.0,
			"-0.02": 0.0,
			"-0.019": 0.0,
			"-0.018": 0.0,
			"-0.017": 0.0,
			"-0.016": 0.0,
			"-0.015": 0.0,
			"-0.014": 0.0,
			"-0.013": 0.365115342911,
			"-0.012": 1.54670157535,
			"-0.011": 1.41265733478,
			"-0.01": 1.07726470375,
			"-0.009": 1.32989914617,
			"-0.008": 4.27440814654,
			"-0.007": 13.3202898772,
			"-0.006": 17.6524379951,
			"-0.005": 19.8729922108,
			"-0.004": 22.4444430551,
			"-0.003": 28.1443781776,
			"-0.002": 39.6829947555,
			"-0.001": 36.0773190229,
			"0.0": 40.5397542868,
			"0.001": 54.427962325,
			"0.002": 38.9503883712,
			"0.003": 26.0886817486,
			"0.004": 26.4024673092,
			"0.005": 10.7371594021,
			"0.006": 6.55423420198,
			"0.007": 4.20490882265,
			"0.008": 3.73639827514,
			"0.009": 2.91210268585,
			"0.01": 3.00168428886,
			"0.011": 2.77139281595,
			"0.012": 3.33288817508,
			"0.013": 2.95436160767,
			"0.014": 1.61467522572,
			"0.015": 1.281550821,
			"0.016": 0.508828811608,
			"0.017": 0.0,
			"0.018": 0.0,
			"0.019": 0.0,
			"0.02": 0.0,
			"0.021": 0.0,
			"0.022": 0.0,
			"0.023": 0.0,
			"0.024": 0.0,
			"0.025": 0.0
		}
	}
}
