{
	 "smiles": "CC(C)CC1C2=CC=CC=C2C2=C1C=CC=C2", 
	 "Tm": 318.15, 
	 "num_atms": 35, 
	 "gaussian": { 
		 "optdone": 1, 
		 "sigma_profile": "yes", 
		 "theory": "DFT", 
		 "functional": "B3LYP", 
		 "basiset": "6-31G**", 
		 "properties": { 
			 "R2extent": 4376.6103, 
			 "electric_dipole_moment_norm": 0.56072854395, 
			 "electric_quadrupole_moment_norm": 6.59960233347, 
			 "total_energy": -658.682067256, 
			 "HOMO_LUMO_gap": 0.18362, 
			 "cosmo_polarized_energy": -5.45, 
			 "cosmo_cavitation_energy": 35.43, 
			 "cosmo_dispersion_energy": -25.2, 
			 "cosmo_repulsion_energy": 1.92, 
			 "cosmo_total_nonelectrostatic_energy": 12.15, 
			 "SMD_solvation_energy": 5.31 
		},
		"coords": [
			{
				"x": 2.2431956348,
				"y": -2.8624983119,
				"z": -0.2739863648,
				"element": "C" 
			},
			{
				"x": 0.8945582797,
				"y": -2.9660276316,
				"z": 0.4541428436,
				"element": "C" 
			},
			{
				"x": 1.0676309806,
				"y": -3.1919819006,
				"z": 1.9651953695,
				"element": "C" 
			},
			{
				"x": -0.0877156944,
				"y": -1.8183656234,
				"z": 0.0971537566,
				"element": "C" 
			},
			{
				"x": 0.4198361322,
				"y": -0.3522542409,
				"z": -0.0568519843,
				"element": "C" 
			},
			{
				"x": -0.7206156303,
				"y": 0.5160856533,
				"z": -0.579979651,
				"element": "C" 
			},
			{
				"x": -1.4653924896,
				"y": 0.3754039008,
				"z": -1.746751419,
				"element": "C" 
			},
			{
				"x": -2.4990927015,
				"y": 1.2815590075,
				"z": -2.0104373027,
				"element": "C" 
			},
			{
				"x": -2.7871537779,
				"y": 2.3132915117,
				"z": -1.1102908208,
				"element": "C" 
			},
			{
				"x": -2.042956201,
				"y": 2.4605814309,
				"z": 0.0619657677,
				"element": "C" 
			},
			{
				"x": -1.0077631888,
				"y": 1.5593018899,
				"z": 0.321634358,
				"element": "C" 
			},
			{
				"x": -0.0447737056,
				"y": 1.4944224945,
				"z": 1.426742061,
				"element": "C" 
			},
			{
				"x": 0.8262538236,
				"y": 0.4042179229,
				"z": 1.2064368099,
				"element": "C" 
			},
			{
				"x": 1.9105556664,
				"y": 0.2123085844,
				"z": 2.0591797597,
				"element": "C" 
			},
			{
				"x": 2.0875973866,
				"y": 1.0641941507,
				"z": 3.1559934399,
				"element": "C" 
			},
			{
				"x": 1.194549385,
				"y": 2.1133045567,
				"z": 3.3940785024,
				"element": "C" 
			},
			{
				"x": 0.1276538814,
				"y": 2.341757207,
				"z": 2.5235211777,
				"element": "C" 
			},
			{
				"x": 2.1077630391,
				"y": -2.7428131635,
				"z": -1.3551836496,
				"element": "H" 
			},
			{
				"x": 2.8386999878,
				"y": -3.7676582709,
				"z": -0.1137168339,
				"element": "H" 
			},
			{
				"x": 2.8394069467,
				"y": -2.0139594007,
				"z": 0.0791198277,
				"element": "H" 
			},
			{
				"x": 0.405892141,
				"y": -3.8741630873,
				"z": 0.0718156802,
				"element": "H" 
			},
			{
				"x": 0.0975855243,
				"y": -3.3624865434,
				"z": 2.4449254922,
				"element": "H" 
			},
			{
				"x": 1.6902292568,
				"y": -4.0742638301,
				"z": 2.1529536226,
				"element": "H" 
			},
			{
				"x": 1.5337641402,
				"y": -2.3419913132,
				"z": 2.467703477,
				"element": "H" 
			},
			{
				"x": -0.5333538872,
				"y": -2.0706633298,
				"z": -0.8727756158,
				"element": "H" 
			},
			{
				"x": -0.9171539965,
				"y": -1.819697293,
				"z": 0.8147774659,
				"element": "H" 
			},
			{
				"x": 1.2527566218,
				"y": -0.3507942279,
				"z": -0.77353083,
				"element": "H" 
			},
			{
				"x": -1.2501708262,
				"y": -0.4223089899,
				"z": -2.4534125246,
				"element": "H" 
			},
			{
				"x": -3.0816503562,
				"y": 1.1836503322,
				"z": -2.9220836709,
				"element": "H" 
			},
			{
				"x": -3.5941613173,
				"y": 3.0073918165,
				"z": -1.3274129262,
				"element": "H" 
			},
			{
				"x": -2.2662501382,
				"y": 3.2669220249,
				"z": 0.7553381844,
				"element": "H" 
			},
			{
				"x": 2.6292346023,
				"y": -0.5802677776,
				"z": 1.8781998994,
				"element": "H" 
			},
			{
				"x": 2.9308484893,
				"y": 0.9112034249,
				"z": 3.8234699317,
				"element": "H" 
			},
			{
				"x": 1.3427676019,
				"y": 2.7650193011,
				"z": 4.2504782487,
				"element": "H" 
			},
			{
				"x": -0.5468756109,
				"y": 3.1772797255,
				"z": 2.689987918,
				"element": "H" 
			}
		],
		 "valence_orbital": [ 
			{
				"type": "occ",
				"energy": -0.30912,
				"method": "rhf"
			},
			{
				"type": "occ",
				"energy": -0.27702,
				"method": "rhf"
			},
			{
				"type": "occ",
				"energy": -0.2453,
				"method": "rhf"
			},
			{
				"type": "occ",
				"energy": -0.23829,
				"method": "rhf"
			},
			{
				"type": "occ",
				"energy": -0.21075,
				"method": "rhf"
			},
			{
				"type": "unocc",
				"energy": -0.02713,
				"method": "rhf"
			},
			{
				"type": "unocc",
				"energy": -0.00822,
				"method": "rhf"
			},
			{
				"type": "unocc",
				"energy": 0.01137,
				"method": "rhf"
			},
			{
				"type": "unocc",
				"energy": 0.04386,
				"method": "rhf"
			},
			{
				"type": "unocc",
				"energy": 0.07957,
				"method": "rhf"
			}
		],
		"cosmo_sigma_profile": { 
			"-0.025": 0.0,
			"-0.024": 0.0,
			"-0.023": 0.0,
			"-0.022": 0.0,
			"-0.021": 0.0,
			"-0.02": 0.0,
			"-0.019": 0.0,
			"-0.018": 0.0,
			"-0.017": 0.0,
			"-0.016": 0.0,
			"-0.015": 0.0,
			"-0.014": 0.0,
			"-0.013": 0.0,
			"-0.012": 0.0,
			"-0.011": 0.0,
			"-0.01": 0.0,
			"-0.009": 0.0,
			"-0.008": 0.0,
			"-0.007": 0.0,
			"-0.006": 4.70758045139,
			"-0.005": 17.9698625533,
			"-0.004": 20.8710078337,
			"-0.003": 27.2644154027,
			"-0.002": 33.5562163226,
			"-0.001": 29.9380321633,
			"0.0": 28.7428383544,
			"0.001": 26.9765230876,
			"0.002": 21.8922411965,
			"0.003": 16.9131606319,
			"0.004": 17.387806218,
			"0.005": 16.3058224174,
			"0.006": 15.2554719785,
			"0.007": 2.10366011268,
			"0.008": 0.0,
			"0.009": 0.0,
			"0.01": 0.0,
			"0.011": 0.0,
			"0.012": 0.0,
			"0.013": 0.0,
			"0.014": 0.0,
			"0.015": 0.0,
			"0.016": 0.0,
			"0.017": 0.0,
			"0.018": 0.0,
			"0.019": 0.0,
			"0.02": 0.0,
			"0.021": 0.0,
			"0.022": 0.0,
			"0.023": 0.0,
			"0.024": 0.0,
			"0.025": 0.0
		}
	}
}
