{
	 "smiles": "O=N(=O)C1=CC=C(OC2=CC=CC=C2)C(=C1)N(=O)=O", 
	 "Tm": 344.15, 
	 "num_atms": 27, 
	 "gaussian": { 
		 "optdone": 1, 
		 "sigma_profile": "yes", 
		 "theory": "DFT", 
		 "functional": "B3LYP", 
		 "basiset": "6-31G**", 
		 "properties": { 
			 "R2extent": 6742.5099, 
			 "electric_dipole_moment_norm": 7.01165252776, 
			 "electric_quadrupole_moment_norm": 17.9303880081, 
			 "total_energy": -947.496816429, 
			 "HOMO_LUMO_gap": 0.1705, 
			 "cosmo_polarized_energy": -14.73, 
			 "cosmo_cavitation_energy": 34.15, 
			 "cosmo_dispersion_energy": -24.07, 
			 "cosmo_repulsion_energy": 1.85, 
			 "cosmo_total_nonelectrostatic_energy": 11.93, 
			 "SMD_solvation_energy": 10.64 
		},
		"coords": [
			{
				"x": -3.8419481219,
				"y": 0.7336920393,
				"z": -3.000195209,
				"element": "O" 
			},
			{
				"x": -2.9983399003,
				"y": 1.6257289245,
				"z": -3.0913261845,
				"element": "N" 
			},
			{
				"x": -3.0687580449,
				"y": 2.5894755849,
				"z": -3.8519414095,
				"element": "O" 
			},
			{
				"x": -1.8196744685,
				"y": 1.528787341,
				"z": -2.2247642395,
				"element": "C" 
			},
			{
				"x": -1.6955098113,
				"y": 0.4464446083,
				"z": -1.353127058,
				"element": "C" 
			},
			{
				"x": -0.5839229524,
				"y": 0.3588662941,
				"z": -0.5285925346,
				"element": "C" 
			},
			{
				"x": 0.42552374,
				"y": 1.3374965282,
				"z": -0.5715481467,
				"element": "C" 
			},
			{
				"x": 1.5094853449,
				"y": 1.3138330226,
				"z": 0.2304332038,
				"element": "O" 
			},
			{
				"x": 1.6597265684,
				"y": 0.3026377134,
				"z": 1.185761472,
				"element": "C" 
			},
			{
				"x": 2.4315243504,
				"y": -0.8117399476,
				"z": 0.866119862,
				"element": "C" 
			},
			{
				"x": 2.6513534723,
				"y": -1.7809293393,
				"z": 1.8467653852,
				"element": "C" 
			},
			{
				"x": 2.1058207242,
				"y": -1.6281880585,
				"z": 3.1234215421,
				"element": "C" 
			},
			{
				"x": 1.3400866032,
				"y": -0.4997149854,
				"z": 3.4256378937,
				"element": "C" 
			},
			{
				"x": 1.1125844748,
				"y": 0.4776390969,
				"z": 2.4550891764,
				"element": "C" 
			},
			{
				"x": 0.2737004421,
				"y": 2.4150848522,
				"z": -1.4770540446,
				"element": "C" 
			},
			{
				"x": -0.8496490697,
				"y": 2.5196889856,
				"z": -2.2878119784,
				"element": "C" 
			},
			{
				"x": 1.2904707397,
				"y": 3.4706963122,
				"z": -1.6153104972,
				"element": "N" 
			},
			{
				"x": 2.4577106462,
				"y": 3.1831008962,
				"z": -1.3725920685,
				"element": "O" 
			},
			{
				"x": 0.8941723746,
				"y": 4.5721048994,
				"z": -1.996992874,
				"element": "O" 
			},
			{
				"x": -2.4725999261,
				"y": -0.3074841093,
				"z": -1.3297946449,
				"element": "H" 
			},
			{
				"x": -0.4837769215,
				"y": -0.4688106099,
				"z": 0.162090317,
				"element": "H" 
			},
			{
				"x": 2.8570206827,
				"y": -0.9013700343,
				"z": -0.12781991,
				"element": "H" 
			},
			{
				"x": 3.2541111959,
				"y": -2.6527768045,
				"z": 1.6116158065,
				"element": "H" 
			},
			{
				"x": 2.2822291665,
				"y": -2.3834393226,
				"z": 3.882946966,
				"element": "H" 
			},
			{
				"x": 0.9220337736,
				"y": -0.3740182397,
				"z": 4.4197154359,
				"element": "H" 
			},
			{
				"x": 0.5322053639,
				"y": 1.3681461599,
				"z": 2.6730952181,
				"element": "H" 
			},
			{
				"x": -0.9582804467,
				"y": 3.3635481924,
				"z": -2.9558214792,
				"element": "H" 
			}
		],
		 "valence_orbital": [ 
			{
				"type": "occ",
				"energy": -0.30008,
				"method": "rhf"
			},
			{
				"type": "occ",
				"energy": -0.29188,
				"method": "rhf"
			},
			{
				"type": "occ",
				"energy": -0.28187,
				"method": "rhf"
			},
			{
				"type": "occ",
				"energy": -0.27385,
				"method": "rhf"
			},
			{
				"type": "occ",
				"energy": -0.2703,
				"method": "rhf"
			},
			{
				"type": "unocc",
				"energy": -0.0998,
				"method": "rhf"
			},
			{
				"type": "unocc",
				"energy": -0.09331,
				"method": "rhf"
			},
			{
				"type": "unocc",
				"energy": -0.03625,
				"method": "rhf"
			},
			{
				"type": "unocc",
				"energy": -0.028,
				"method": "rhf"
			},
			{
				"type": "unocc",
				"energy": -0.02695,
				"method": "rhf"
			}
		],
		"cosmo_sigma_profile": { 
			"-0.025": 0.0,
			"-0.024": 0.0,
			"-0.023": 0.0,
			"-0.022": 0.0,
			"-0.021": 0.0,
			"-0.02": 0.0,
			"-0.019": 0.0,
			"-0.018": 0.0,
			"-0.017": 0.0,
			"-0.016": 0.0,
			"-0.015": 0.0,
			"-0.014": 0.0,
			"-0.013": 0.0,
			"-0.012": 0.0,
			"-0.011": 0.0,
			"-0.01": 0.00497523943191,
			"-0.009": 1.91633545691,
			"-0.008": 5.01371578761,
			"-0.007": 12.5568868794,
			"-0.006": 17.7760072371,
			"-0.005": 21.3120975663,
			"-0.004": 22.6454411154,
			"-0.003": 25.7906998393,
			"-0.002": 22.4448551972,
			"-0.001": 15.5140339279,
			"0.0": 15.4689104548,
			"0.001": 12.0647674313,
			"0.002": 13.5915873783,
			"0.003": 14.9119068061,
			"0.004": 13.2199197227,
			"0.005": 7.38429401002,
			"0.006": 8.58924187548,
			"0.007": 18.2246145115,
			"0.008": 14.5043515109,
			"0.009": 8.89860654913,
			"0.01": 3.70053214152,
			"0.011": 0.0618539066805,
			"0.012": 0.0,
			"0.013": 0.0,
			"0.014": 0.0,
			"0.015": 0.0,
			"0.016": 0.0,
			"0.017": 0.0,
			"0.018": 0.0,
			"0.019": 0.0,
			"0.02": 0.0,
			"0.021": 0.0,
			"0.022": 0.0,
			"0.023": 0.0,
			"0.024": 0.0,
			"0.025": 0.0
		}
	}
}
