{
	 "smiles": "CC1=CC=C(C=C1F)[N+]([O-])=O", 
	 "Tm": 308.15, 
	 "num_atms": 17, 
	 "gaussian": { 
		 "optdone": 1, 
		 "sigma_profile": "yes", 
		 "theory": "DFT", 
		 "functional": "B3LYP", 
		 "basiset": "6-31G**", 
		 "properties": { 
			 "R2extent": 2511.1523, 
			 "electric_dipole_moment_norm": 4.61556497192, 
			 "electric_quadrupole_moment_norm": 13.9339108301, 
			 "total_energy": -575.301125254, 
			 "HOMO_LUMO_gap": 0.17663, 
			 "cosmo_polarized_energy": -7.48, 
			 "cosmo_cavitation_energy": 22.39, 
			 "cosmo_dispersion_energy": -16.34, 
			 "cosmo_repulsion_energy": 1.28, 
			 "cosmo_total_nonelectrostatic_energy": 7.33, 
			 "SMD_solvation_energy": 6.72 
		},
		"coords": [
			{
				"x": 2.1166999801,
				"y": 0.5001260373,
				"z": 0.1588366245,
				"element": "C" 
			},
			{
				"x": 0.6908808536,
				"y": 0.2929351979,
				"z": -0.2760475776,
				"element": "C" 
			},
			{
				"x": -0.2102263981,
				"y": -0.5146404883,
				"z": 0.4287450204,
				"element": "C" 
			},
			{
				"x": -1.5263221144,
				"y": -0.688751536,
				"z": 0.0021159256,
				"element": "C" 
			},
			{
				"x": -1.940738761,
				"y": -0.0368880359,
				"z": -1.1553355616,
				"element": "C" 
			},
			{
				"x": -1.0854058576,
				"y": 0.7784633035,
				"z": -1.8951984602,
				"element": "C" 
			},
			{
				"x": 0.2117394313,
				"y": 0.9210255446,
				"z": -1.4329929963,
				"element": "C" 
			},
			{
				"x": 1.0634545777,
				"y": 1.7040562741,
				"z": -2.1271604128,
				"element": "F" 
			},
			{
				"x": -3.3258792789,
				"y": -0.2085053774,
				"z": -1.6205473103,
				"element": "N" 
			},
			{
				"x": -3.6592994966,
				"y": 0.3823829199,
				"z": -2.6470080014,
				"element": "O" 
			},
			{
				"x": -4.0648364988,
				"y": -0.9319068891,
				"z": -0.9539204795,
				"element": "O" 
			},
			{
				"x": 2.8161901304,
				"y": 0.1737140238,
				"z": -0.6180372512,
				"element": "H" 
			},
			{
				"x": 2.3322915387,
				"y": -0.056513304,
				"z": 1.0733978548,
				"element": "H" 
			},
			{
				"x": 2.321772854,
				"y": 1.5600785308,
				"z": 0.3431388335,
				"element": "H" 
			},
			{
				"x": 0.1287738968,
				"y": -1.0164137325,
				"z": 1.3301146126,
				"element": "H" 
			},
			{
				"x": -2.2255301119,
				"y": -1.3120814711,
				"z": 0.5442741449,
				"element": "H" 
			},
			{
				"x": -1.4247647453,
				"y": 1.2777190024,
				"z": -2.7930749656,
				"element": "H" 
			}
		],
		 "valence_orbital": [ 
			{
				"type": "occ",
				"energy": -0.31194,
				"method": "rhf"
			},
			{
				"type": "occ",
				"energy": -0.3096,
				"method": "rhf"
			},
			{
				"type": "occ",
				"energy": -0.29326,
				"method": "rhf"
			},
			{
				"type": "occ",
				"energy": -0.28251,
				"method": "rhf"
			},
			{
				"type": "occ",
				"energy": -0.26841,
				"method": "rhf"
			},
			{
				"type": "unocc",
				"energy": -0.09178,
				"method": "rhf"
			},
			{
				"type": "unocc",
				"energy": -0.02704,
				"method": "rhf"
			},
			{
				"type": "unocc",
				"energy": -0.00083,
				"method": "rhf"
			},
			{
				"type": "unocc",
				"energy": 0.07503,
				"method": "rhf"
			},
			{
				"type": "unocc",
				"energy": 0.0947,
				"method": "rhf"
			}
		],
		"cosmo_sigma_profile": { 
			"-0.025": 0.0,
			"-0.024": 0.0,
			"-0.023": 0.0,
			"-0.022": 0.0,
			"-0.021": 0.0,
			"-0.02": 0.0,
			"-0.019": 0.0,
			"-0.018": 0.0,
			"-0.017": 0.0,
			"-0.016": 0.0,
			"-0.015": 0.0,
			"-0.014": 0.0,
			"-0.013": 0.0,
			"-0.012": 0.0,
			"-0.011": 0.0,
			"-0.01": 0.0,
			"-0.009": 0.158445139424,
			"-0.008": 1.91604550013,
			"-0.007": 6.02505436652,
			"-0.006": 8.5075176145,
			"-0.005": 11.7786058739,
			"-0.004": 11.6934035356,
			"-0.003": 13.0970524285,
			"-0.002": 16.098119224,
			"-0.001": 23.6203351368,
			"0.0": 19.6846048324,
			"0.001": 11.1656182659,
			"0.002": 9.10188771389,
			"0.003": 8.01325408598,
			"0.004": 9.73714014693,
			"0.005": 2.37561096205,
			"0.006": 3.67085670045,
			"0.007": 8.23065166931,
			"0.008": 7.57189894197,
			"0.009": 4.32607384731,
			"0.01": 2.547643561,
			"0.011": 0.0829040453757,
			"0.012": 0.0,
			"0.013": 0.0,
			"0.014": 0.0,
			"0.015": 0.0,
			"0.016": 0.0,
			"0.017": 0.0,
			"0.018": 0.0,
			"0.019": 0.0,
			"0.02": 0.0,
			"0.021": 0.0,
			"0.022": 0.0,
			"0.023": 0.0,
			"0.024": 0.0,
			"0.025": 0.0
		}
	}
}
