{
	 "smiles": "OC(=O)COC1=C(Cl)C=C(Cl)C(Cl)=C1", 
	 "Tm": 429.15, 
	 "num_atms": 19, 
	 "gaussian": { 
		 "optdone": 1, 
		 "sigma_profile": "yes", 
		 "theory": "DFT", 
		 "functional": "B3LYP", 
		 "basiset": "6-31G**", 
		 "properties": { 
			 "R2extent": 5483.2419, 
			 "electric_dipole_moment_norm": 2.82358447014, 
			 "electric_quadrupole_moment_norm": 12.1798555455, 
			 "total_energy": -1914.09704443, 
			 "HOMO_LUMO_gap": 0.21148, 
			 "cosmo_polarized_energy": -13.21, 
			 "cosmo_cavitation_energy": 30.27, 
			 "cosmo_dispersion_energy": -22.05, 
			 "cosmo_repulsion_energy": 1.77, 
			 "cosmo_total_nonelectrostatic_energy": 9.99, 
			 "SMD_solvation_energy": 5.97 
		},
		"coords": [
			{
				"x": 1.2175265676,
				"y": -3.39313051,
				"z": -2.1678306699,
				"element": "O" 
			},
			{
				"x": 1.6981353133,
				"y": -2.2315529131,
				"z": -1.6638435499,
				"element": "C" 
			},
			{
				"x": 2.762315711,
				"y": -1.7536592339,
				"z": -1.9629520885,
				"element": "O" 
			},
			{
				"x": 0.6863399341,
				"y": -1.650824112,
				"z": -0.692215286,
				"element": "C" 
			},
			{
				"x": 1.2343420955,
				"y": -0.4653072372,
				"z": -0.1342623364,
				"element": "O" 
			},
			{
				"x": 0.3915892477,
				"y": 0.2457656716,
				"z": 0.6772566544,
				"element": "C" 
			},
			{
				"x": 0.2097910274,
				"y": -0.0758875456,
				"z": 2.0313834988,
				"element": "C" 
			},
			{
				"x": 1.0325113843,
				"y": -1.452783014,
				"z": 2.7255124693,
				"element": "Cl" 
			},
			{
				"x": -0.6083600221,
				"y": 0.7085775372,
				"z": 2.8395824068,
				"element": "C" 
			},
			{
				"x": -1.2566345285,
				"y": 1.8260608109,
				"z": 2.3105528915,
				"element": "C" 
			},
			{
				"x": -2.2702657288,
				"y": 2.7778217604,
				"z": 3.3626290733,
				"element": "Cl" 
			},
			{
				"x": -1.0761292597,
				"y": 2.1601707755,
				"z": 0.9612158138,
				"element": "C" 
			},
			{
				"x": -1.8541506483,
				"y": 3.5498799565,
				"z": 0.252110786,
				"element": "Cl" 
			},
			{
				"x": -0.25684299,
				"y": 1.3669230636,
				"z": 0.1582434467,
				"element": "C" 
			},
			{
				"x": 1.890276196,
				"y": -3.7240027621,
				"z": -2.7862963243,
				"element": "H" 
			},
			{
				"x": -0.2447231576,
				"y": -1.4427388921,
				"z": -1.23783618,
				"element": "H" 
			},
			{
				"x": 0.4632014479,
				"y": -2.3997277849,
				"z": 0.0777562421,
				"element": "H" 
			},
			{
				"x": -0.7402397965,
				"y": 0.4561259535,
				"z": 3.8845929536,
				"element": "H" 
			},
			{
				"x": -0.0995827932,
				"y": 1.6226884756,
				"z": -0.8830998012,
				"element": "H" 
			}
		],
		 "valence_orbital": [ 
			{
				"type": "occ",
				"energy": -0.32055,
				"method": "rhf"
			},
			{
				"type": "occ",
				"energy": -0.30465,
				"method": "rhf"
			},
			{
				"type": "occ",
				"energy": -0.29146,
				"method": "rhf"
			},
			{
				"type": "occ",
				"energy": -0.27285,
				"method": "rhf"
			},
			{
				"type": "occ",
				"energy": -0.25322,
				"method": "rhf"
			},
			{
				"type": "unocc",
				"energy": -0.04174,
				"method": "rhf"
			},
			{
				"type": "unocc",
				"energy": -0.03644,
				"method": "rhf"
			},
			{
				"type": "unocc",
				"energy": -0.01628,
				"method": "rhf"
			},
			{
				"type": "unocc",
				"energy": -0.00344,
				"method": "rhf"
			},
			{
				"type": "unocc",
				"energy": 0.02297,
				"method": "rhf"
			}
		],
		"cosmo_sigma_profile": { 
			"-0.025": 0.0,
			"-0.024": 0.0,
			"-0.023": 0.0,
			"-0.022": 0.0,
			"-0.021": 0.0,
			"-0.02": 0.0,
			"-0.019": 0.280389494811,
			"-0.018": 1.19939320105,
			"-0.017": 0.727157947214,
			"-0.016": 0.843458210914,
			"-0.015": 0.890843198052,
			"-0.014": 1.02617392513,
			"-0.013": 0.389826952647,
			"-0.012": 0.562997246039,
			"-0.011": 0.836333019023,
			"-0.01": 0.916780862993,
			"-0.009": 3.24210567123,
			"-0.008": 6.60398412232,
			"-0.007": 8.22739491905,
			"-0.006": 10.851761664,
			"-0.005": 9.03146756277,
			"-0.004": 9.69512929654,
			"-0.003": 12.4161883764,
			"-0.002": 14.248998239,
			"-0.001": 24.255254128,
			"0.0": 31.7812869753,
			"0.001": 16.5996253638,
			"0.002": 18.4854465875,
			"0.003": 24.8425743808,
			"0.004": 18.3774893512,
			"0.005": 5.97167098352,
			"0.006": 3.98609357433,
			"0.007": 2.71393992117,
			"0.008": 2.61487583396,
			"0.009": 3.79684536508,
			"0.01": 3.63604675234,
			"0.011": 5.64369646219,
			"0.012": 2.48418603228,
			"0.013": 1.90254725968,
			"0.014": 0.344517976522,
			"0.015": 0.0,
			"0.016": 0.0,
			"0.017": 0.0,
			"0.018": 0.0,
			"0.019": 0.0,
			"0.02": 0.0,
			"0.021": 0.0,
			"0.022": 0.0,
			"0.023": 0.0,
			"0.024": 0.0,
			"0.025": 0.0
		}
	}
}
