{
	 "smiles": "OC(=O)C=CC1=C(Br)C=CC(F)=C1", 
	 "Tm": 463.15, 
	 "num_atms": 19, 
	 "gaussian": { 
		 "optdone": 1, 
		 "sigma_profile": "yes", 
		 "theory": "DFT", 
		 "functional": "B3LYP", 
		 "basiset": "6-31G**", 
		 "properties": { 
			 "R2extent": 4668.489, 
			 "electric_dipole_moment_norm": 2.3981102852, 
			 "electric_quadrupole_moment_norm": 7.76521192499, 
			 "total_energy": -3168.25764908, 
			 "HOMO_LUMO_gap": 0.16445, 
			 "cosmo_polarized_energy": -10.32, 
			 "cosmo_cavitation_energy": 27.36, 
			 "cosmo_dispersion_energy": -20.03, 
			 "cosmo_repulsion_energy": 1.56, 
			 "cosmo_total_nonelectrostatic_energy": 8.89, 
			 "SMD_solvation_energy": 5.58 
		},
		"coords": [
			{
				"x": -0.0946223823,
				"y": 4.8482617094,
				"z": 0.5155959075,
				"element": "O" 
			},
			{
				"x": -0.3614866371,
				"y": 4.3152251744,
				"z": -0.7049847893,
				"element": "C" 
			},
			{
				"x": -0.6927469079,
				"y": 4.9986928558,
				"z": -1.6545717305,
				"element": "O" 
			},
			{
				"x": -0.2111976791,
				"y": 2.8491394261,
				"z": -0.7623195053,
				"element": "C" 
			},
			{
				"x": 0.1493641993,
				"y": 2.0943648984,
				"z": 0.2912503694,
				"element": "C" 
			},
			{
				"x": 0.3310488806,
				"y": 0.6394904,
				"z": 0.2855293249,
				"element": "C" 
			},
			{
				"x": 0.4039420457,
				"y": -0.1080147373,
				"z": 1.4801621714,
				"element": "C" 
			},
			{
				"x": 0.2425059937,
				"y": 0.7306595227,
				"z": 3.1931965765,
				"element": "Br" 
			},
			{
				"x": 0.5804281345,
				"y": -1.4917523094,
				"z": 1.4693286815,
				"element": "C" 
			},
			{
				"x": 0.69609978,
				"y": -2.175925367,
				"z": 0.2625668174,
				"element": "C" 
			},
			{
				"x": 0.6314393611,
				"y": -1.4443287614,
				"z": -0.9194979997,
				"element": "C" 
			},
			{
				"x": 0.7526775182,
				"y": -2.0897593515,
				"z": -2.0949082473,
				"element": "F" 
			},
			{
				"x": 0.4574744999,
				"y": -0.0716927385,
				"z": -0.9242369963,
				"element": "C" 
			},
			{
				"x": -0.2320364253,
				"y": 5.8046404076,
				"z": 0.4200809045,
				"element": "H" 
			},
			{
				"x": -0.4333503211,
				"y": 2.4338992997,
				"z": -1.7395987217,
				"element": "H" 
			},
			{
				"x": 0.3128146794,
				"y": 2.5928092059,
				"z": 1.2408039127,
				"element": "H" 
			},
			{
				"x": 0.6266005596,
				"y": -2.0321809713,
				"z": 2.4073702175,
				"element": "H" 
			},
			{
				"x": 0.8389249987,
				"y": -3.2501683434,
				"z": 0.2306728093,
				"element": "H" 
			},
			{
				"x": 0.4397197021,
				"y": 0.4472396798,
				"z": -1.8753397025,
				"element": "H" 
			}
		],
		 "valence_orbital": [ 
			{
				"type": "occ",
				"energy": -0.31647,
				"method": "rhf"
			},
			{
				"type": "occ",
				"energy": -0.29927,
				"method": "rhf"
			},
			{
				"type": "occ",
				"energy": -0.27722,
				"method": "rhf"
			},
			{
				"type": "occ",
				"energy": -0.26384,
				"method": "rhf"
			},
			{
				"type": "occ",
				"energy": -0.24647,
				"method": "rhf"
			},
			{
				"type": "unocc",
				"energy": -0.08202,
				"method": "rhf"
			},
			{
				"type": "unocc",
				"energy": -0.02582,
				"method": "rhf"
			},
			{
				"type": "unocc",
				"energy": -0.00591,
				"method": "rhf"
			},
			{
				"type": "unocc",
				"energy": 0.00448,
				"method": "rhf"
			},
			{
				"type": "unocc",
				"energy": 0.07595,
				"method": "rhf"
			}
		],
		"cosmo_sigma_profile": { 
			"-0.025": 0.0,
			"-0.024": 0.0,
			"-0.023": 0.0,
			"-0.022": 0.0,
			"-0.021": 0.0,
			"-0.02": 0.0,
			"-0.019": 0.025295509741,
			"-0.018": 0.803599715335,
			"-0.017": 0.878827610556,
			"-0.016": 0.517881783071,
			"-0.015": 0.934756819044,
			"-0.014": 0.892690746522,
			"-0.013": 0.713404545041,
			"-0.012": 0.293346543999,
			"-0.011": 0.890463661718,
			"-0.01": 1.44410987247,
			"-0.009": 3.15303819037,
			"-0.008": 5.91309620981,
			"-0.007": 7.262178418,
			"-0.006": 6.88435911066,
			"-0.005": 6.24264211181,
			"-0.004": 7.52418125839,
			"-0.003": 9.75009906987,
			"-0.002": 14.3916930126,
			"-0.001": 20.4870480051,
			"0.0": 27.0963342214,
			"0.001": 31.4391700667,
			"0.002": 18.559164407,
			"0.003": 15.2031394952,
			"0.004": 17.6551333656,
			"0.005": 3.77324981427,
			"0.006": 2.25888431607,
			"0.007": 3.19841888435,
			"0.008": 2.34040662857,
			"0.009": 1.30043010457,
			"0.01": 1.73937278063,
			"0.011": 3.65641489766,
			"0.012": 4.97705115119,
			"0.013": 1.31334341261,
			"0.014": 0.00163853297679,
			"0.015": 0.0,
			"0.016": 0.0,
			"0.017": 0.0,
			"0.018": 0.0,
			"0.019": 0.0,
			"0.02": 0.0,
			"0.021": 0.0,
			"0.022": 0.0,
			"0.023": 0.0,
			"0.024": 0.0,
			"0.025": 0.0
		}
	}
}
