{
	 "smiles": "CS(=O)(=O)NC1=CC=C(C=C1OC1=CC=CC=C1)[N+]([O-])=O", 
	 "Tm": 417.15, 
	 "num_atms": 33, 
	 "gaussian": { 
		 "optdone": 1, 
		 "sigma_profile": "yes", 
		 "theory": "DFT", 
		 "functional": "B3LYP", 
		 "basiset": "6-31G**", 
		 "properties": { 
			 "R2extent": 8664.6783, 
			 "electric_dipole_moment_norm": 4.5385107304, 
			 "electric_quadrupole_moment_norm": 39.147931335, 
			 "total_energy": -1386.25196102, 
			 "HOMO_LUMO_gap": 0.15233, 
			 "cosmo_polarized_energy": -19.9, 
			 "cosmo_cavitation_energy": 40.03, 
			 "cosmo_dispersion_energy": -28.39, 
			 "cosmo_repulsion_energy": 2.15, 
			 "cosmo_total_nonelectrostatic_energy": 13.79, 
			 "SMD_solvation_energy": 8.87 
		},
		"coords": [
			{
				"x": -0.3285896388,
				"y": 2.8512493962,
				"z": -2.3233417902,
				"element": "C" 
			},
			{
				"x": 1.1476530663,
				"y": 1.9918537703,
				"z": -1.7431449627,
				"element": "S" 
			},
			{
				"x": 1.9927776516,
				"y": 1.6777908339,
				"z": -2.8909860275,
				"element": "O" 
			},
			{
				"x": 1.6508437376,
				"y": 2.7208346839,
				"z": -0.5811719578,
				"element": "O" 
			},
			{
				"x": 0.5813364031,
				"y": 0.4846941498,
				"z": -1.2238534931,
				"element": "N" 
			},
			{
				"x": -0.3270835537,
				"y": 0.241965443,
				"z": -0.1854729894,
				"element": "C" 
			},
			{
				"x": -0.4714505858,
				"y": 1.0690042768,
				"z": 0.9375525587,
				"element": "C" 
			},
			{
				"x": -1.3924324459,
				"y": 0.7493230652,
				"z": 1.9312805083,
				"element": "C" 
			},
			{
				"x": -2.1554769492,
				"y": -0.4067929574,
				"z": 1.801792233,
				"element": "C" 
			},
			{
				"x": -2.0296089587,
				"y": -1.2592716237,
				"z": 0.7034142491,
				"element": "C" 
			},
			{
				"x": -1.1143867379,
				"y": -0.9320019044,
				"z": -0.284633741,
				"element": "C" 
			},
			{
				"x": -0.9308065478,
				"y": -1.6601653054,
				"z": -1.4392983865,
				"element": "O" 
			},
			{
				"x": -1.251795224,
				"y": -3.0176673698,
				"z": -1.4730409752,
				"element": "C" 
			},
			{
				"x": -0.6500204067,
				"y": -3.9213509892,
				"z": -0.596060537,
				"element": "C" 
			},
			{
				"x": -0.9474221999,
				"y": -5.2787841222,
				"z": -0.718577913,
				"element": "C" 
			},
			{
				"x": -1.8252380954,
				"y": -5.7248527443,
				"z": -1.7098863311,
				"element": "C" 
			},
			{
				"x": -2.4111387167,
				"y": -4.8071638821,
				"z": -2.5833542628,
				"element": "C" 
			},
			{
				"x": -2.1298024185,
				"y": -3.4445923033,
				"z": -2.4663240196,
				"element": "C" 
			},
			{
				"x": -3.1254694005,
				"y": -0.748917509,
				"z": 2.8452141288,
				"element": "N" 
			},
			{
				"x": -3.2369629098,
				"y": 0.0232383792,
				"z": 3.79804616,
				"element": "O" 
			},
			{
				"x": -3.7730493651,
				"y": -1.788069829,
				"z": 2.7062369361,
				"element": "O" 
			},
			{
				"x": -0.7337852819,
				"y": 2.3156510838,
				"z": -3.1824621612,
				"element": "H" 
			},
			{
				"x": -0.0158183938,
				"y": 3.8565539067,
				"z": -2.6110618495,
				"element": "H" 
			},
			{
				"x": -1.0536282592,
				"y": 2.9007644849,
				"z": -1.5094430559,
				"element": "H" 
			},
			{
				"x": 0.5974451492,
				"y": -0.212567818,
				"z": -1.9611820231,
				"element": "H" 
			},
			{
				"x": 0.1577967242,
				"y": 1.945002867,
				"z": 1.0341745227,
				"element": "H" 
			},
			{
				"x": -1.5138889601,
				"y": 1.373972568,
				"z": 2.8066817899,
				"element": "H" 
			},
			{
				"x": -2.6434260478,
				"y": -2.1475307707,
				"z": 0.6361477627,
				"element": "H" 
			},
			{
				"x": 0.0386958933,
				"y": -3.5655895315,
				"z": 0.163162186,
				"element": "H" 
			},
			{
				"x": -0.4846947819,
				"y": -5.9891840172,
				"z": -0.0402615178,
				"element": "H" 
			},
			{
				"x": -2.0495727799,
				"y": -6.7829838581,
				"z": -1.8010010014,
				"element": "H" 
			},
			{
				"x": -3.0931558358,
				"y": -5.1478380705,
				"z": -3.3564718996,
				"element": "H" 
			},
			{
				"x": -2.5743441305,
				"y": -2.7131743027,
				"z": -3.1329721398,
				"element": "H" 
			}
		],
		 "valence_orbital": [ 
			{
				"type": "occ",
				"energy": -0.2897,
				"method": "rhf"
			},
			{
				"type": "occ",
				"energy": -0.27997,
				"method": "rhf"
			},
			{
				"type": "occ",
				"energy": -0.27199,
				"method": "rhf"
			},
			{
				"type": "occ",
				"energy": -0.26222,
				"method": "rhf"
			},
			{
				"type": "occ",
				"energy": -0.24103,
				"method": "rhf"
			},
			{
				"type": "unocc",
				"energy": -0.0887,
				"method": "rhf"
			},
			{
				"type": "unocc",
				"energy": -0.03279,
				"method": "rhf"
			},
			{
				"type": "unocc",
				"energy": -0.02358,
				"method": "rhf"
			},
			{
				"type": "unocc",
				"energy": -0.01687,
				"method": "rhf"
			},
			{
				"type": "unocc",
				"energy": 0.00014,
				"method": "rhf"
			}
		],
		"cosmo_sigma_profile": { 
			"-0.025": 0.0,
			"-0.024": 0.0,
			"-0.023": 0.0,
			"-0.022": 0.0,
			"-0.021": 0.0,
			"-0.02": 0.0,
			"-0.019": 0.0,
			"-0.018": 0.0,
			"-0.017": 0.0,
			"-0.016": 0.0,
			"-0.015": 0.0,
			"-0.014": 0.0,
			"-0.013": 0.441249445324,
			"-0.012": 1.58010078482,
			"-0.011": 1.30452581198,
			"-0.01": 1.78777506325,
			"-0.009": 4.60158332,
			"-0.008": 6.97211255379,
			"-0.007": 12.3876491163,
			"-0.006": 22.603531218,
			"-0.005": 24.4296766379,
			"-0.004": 25.3121384503,
			"-0.003": 18.7088812373,
			"-0.002": 19.4918666859,
			"-0.001": 19.6131019005,
			"0.0": 23.8938691532,
			"0.001": 21.5919481552,
			"0.002": 18.5493862759,
			"0.003": 16.1075172458,
			"0.004": 15.4485499639,
			"0.005": 9.20637365072,
			"0.006": 5.77061645721,
			"0.007": 8.62310551153,
			"0.008": 12.9012018779,
			"0.009": 9.82538227218,
			"0.01": 12.4548564361,
			"0.011": 7.55250293523,
			"0.012": 0.182360505824,
			"0.013": 0.0,
			"0.014": 0.0,
			"0.015": 0.0,
			"0.016": 0.0,
			"0.017": 0.0,
			"0.018": 0.0,
			"0.019": 0.0,
			"0.02": 0.0,
			"0.021": 0.0,
			"0.022": 0.0,
			"0.023": 0.0,
			"0.024": 0.0,
			"0.025": 0.0
		}
	}
}
