{
	 "smiles": "COC(=O)C1=C(C=C(OC)C(OC)=C1)[N+]([O-])=O", 
	 "Tm": 416.15, 
	 "num_atms": 28, 
	 "gaussian": { 
		 "optdone": 1, 
		 "sigma_profile": "yes", 
		 "theory": "DFT", 
		 "functional": "B3LYP", 
		 "basiset": "6-31G**", 
		 "properties": { 
			 "R2extent": 4647.379, 
			 "electric_dipole_moment_norm": 4.62252649641, 
			 "electric_quadrupole_moment_norm": 20.6364563472, 
			 "total_energy": -893.651360368, 
			 "HOMO_LUMO_gap": 0.16808, 
			 "cosmo_polarized_energy": -13.26, 
			 "cosmo_cavitation_energy": 33.48, 
			 "cosmo_dispersion_energy": -23.33, 
			 "cosmo_repulsion_energy": 1.84, 
			 "cosmo_total_nonelectrostatic_energy": 11.98, 
			 "SMD_solvation_energy": 10.93 
		},
		"coords": [
			{
				"x": 3.4725825841,
				"y": 1.6866843477,
				"z": 2.0441375283,
				"element": "C" 
			},
			{
				"x": 2.3603871284,
				"y": 1.5631607829,
				"z": 1.1398621165,
				"element": "O" 
			},
			{
				"x": 1.8646597253,
				"y": 0.3215863439,
				"z": 1.0057184775,
				"element": "C" 
			},
			{
				"x": 2.3654840263,
				"y": -0.6764283453,
				"z": 1.4755967225,
				"element": "O" 
			},
			{
				"x": 0.6688212789,
				"y": 0.2987931209,
				"z": 0.0967953908,
				"element": "C" 
			},
			{
				"x": -0.4326012162,
				"y": 1.1611499665,
				"z": 0.188443356,
				"element": "C" 
			},
			{
				"x": -1.4676131134,
				"y": 1.1256793447,
				"z": -0.741856964,
				"element": "C" 
			},
			{
				"x": -1.4309701435,
				"y": 0.2106063665,
				"z": -1.7915194423,
				"element": "C" 
			},
			{
				"x": -2.4614252285,
				"y": 0.2031161232,
				"z": -2.6941641205,
				"element": "O" 
			},
			{
				"x": -3.2889745379,
				"y": -0.9720833354,
				"z": -2.6677072889,
				"element": "C" 
			},
			{
				"x": -0.3291404672,
				"y": -0.6638054933,
				"z": -1.9086812647,
				"element": "C" 
			},
			{
				"x": -0.2456416731,
				"y": -1.5946417279,
				"z": -2.9070778842,
				"element": "O" 
			},
			{
				"x": -0.1232117366,
				"y": -1.0701222002,
				"z": -4.2402545629,
				"element": "C" 
			},
			{
				"x": 0.6925110612,
				"y": -0.6150934933,
				"z": -0.9583009848,
				"element": "C" 
			},
			{
				"x": -0.6009224319,
				"y": 2.063588544,
				"z": 1.3366527095,
				"element": "N" 
			},
			{
				"x": -0.0914591432,
				"y": 1.7264262168,
				"z": 2.404136436,
				"element": "O" 
			},
			{
				"x": -1.2760942672,
				"y": 3.077841606,
				"z": 1.1657774789,
				"element": "O" 
			},
			{
				"x": 3.1620642825,
				"y": 1.4234322602,
				"z": 3.0581183349,
				"element": "H" 
			},
			{
				"x": 3.7724784504,
				"y": 2.7329467551,
				"z": 1.9963577612,
				"element": "H" 
			},
			{
				"x": 4.2921135924,
				"y": 1.0331040718,
				"z": 1.7369260981,
				"element": "H" 
			},
			{
				"x": -2.3144635539,
				"y": 1.7923285973,
				"z": -0.6376592645,
				"element": "H" 
			},
			{
				"x": -3.7851513844,
				"y": -1.0685421652,
				"z": -1.694983338,
				"element": "H" 
			},
			{
				"x": -2.7064696171,
				"y": -1.8747313514,
				"z": -2.8735604307,
				"element": "H" 
			},
			{
				"x": -4.040461671,
				"y": -0.8282604929,
				"z": -3.4454535485,
				"element": "H" 
			},
			{
				"x": -0.0894517879,
				"y": -1.9375648514,
				"z": -4.9009430688,
				"element": "H" 
			},
			{
				"x": -0.9737510828,
				"y": -0.4341528704,
				"z": -4.4996946999,
				"element": "H" 
			},
			{
				"x": 0.8074489129,
				"y": -0.4996430382,
				"z": -4.3406756568,
				"element": "H" 
			},
			{
				"x": 1.5300520135,
				"y": -1.2961750826,
				"z": -1.0598898908,
				"element": "H" 
			}
		],
		 "valence_orbital": [ 
			{
				"type": "occ",
				"energy": -0.29544,
				"method": "rhf"
			},
			{
				"type": "occ",
				"energy": -0.29206,
				"method": "rhf"
			},
			{
				"type": "occ",
				"energy": -0.28358,
				"method": "rhf"
			},
			{
				"type": "occ",
				"energy": -0.27005,
				"method": "rhf"
			},
			{
				"type": "occ",
				"energy": -0.25612,
				"method": "rhf"
			},
			{
				"type": "unocc",
				"energy": -0.08804,
				"method": "rhf"
			},
			{
				"type": "unocc",
				"energy": -0.04183,
				"method": "rhf"
			},
			{
				"type": "unocc",
				"energy": -0.01275,
				"method": "rhf"
			},
			{
				"type": "unocc",
				"energy": 0.02747,
				"method": "rhf"
			},
			{
				"type": "unocc",
				"energy": 0.06565,
				"method": "rhf"
			}
		],
		"cosmo_sigma_profile": { 
			"-0.025": 0.0,
			"-0.024": 0.0,
			"-0.023": 0.0,
			"-0.022": 0.0,
			"-0.021": 0.0,
			"-0.02": 0.0,
			"-0.019": 0.0,
			"-0.018": 0.0,
			"-0.017": 0.0,
			"-0.016": 0.0,
			"-0.015": 0.0,
			"-0.014": 0.0,
			"-0.013": 0.0,
			"-0.012": 0.0,
			"-0.011": 0.0,
			"-0.01": 0.0,
			"-0.009": 0.118926054688,
			"-0.008": 1.76319162191,
			"-0.007": 5.29395831554,
			"-0.006": 15.0312142685,
			"-0.005": 23.36471056,
			"-0.004": 29.065248905,
			"-0.003": 33.2026443714,
			"-0.002": 23.5766736999,
			"-0.001": 20.9497062615,
			"0.0": 17.2396737634,
			"0.001": 10.7103135792,
			"0.002": 10.3042124691,
			"0.003": 9.4308483457,
			"0.004": 9.04390619926,
			"0.005": 7.28779762691,
			"0.006": 10.1586674707,
			"0.007": 11.6784551815,
			"0.008": 8.48719100994,
			"0.009": 7.32619870972,
			"0.01": 5.87594136818,
			"0.011": 5.15449804323,
			"0.012": 1.45043678311,
			"0.013": 0.00689382164567,
			"0.014": 0.0,
			"0.015": 0.0,
			"0.016": 0.0,
			"0.017": 0.0,
			"0.018": 0.0,
			"0.019": 0.0,
			"0.02": 0.0,
			"0.021": 0.0,
			"0.022": 0.0,
			"0.023": 0.0,
			"0.024": 0.0,
			"0.025": 0.0
		}
	}
}
