{
	 "smiles": "CC(C)(C)C1CCC2=C(C1)C1=C(N2)C=CC(Cl)=C1", 
	 "Tm": 381.15, 
	 "num_atms": 38, 
	 "gaussian": { 
		 "optdone": 1, 
		 "sigma_profile": "yes", 
		 "theory": "DFT", 
		 "functional": "B3LYP", 
		 "basiset": "6-31G**", 
		 "properties": { 
			 "R2extent": 7485.8432, 
			 "electric_dipole_moment_norm": 4.652415708, 
			 "electric_quadrupole_moment_norm": 18.0837986587, 
			 "total_energy": -1136.73264914, 
			 "HOMO_LUMO_gap": 0.18638, 
			 "cosmo_polarized_energy": -9.23, 
			 "cosmo_cavitation_energy": 38.59, 
			 "cosmo_dispersion_energy": -27.62, 
			 "cosmo_repulsion_energy": 2.1, 
			 "cosmo_total_nonelectrostatic_energy": 13.07, 
			 "SMD_solvation_energy": 5.13 
		},
		"coords": [
			{
				"x": -1.0949522704,
				"y": 1.7289192956,
				"z": -3.0729246373,
				"element": "C" 
			},
			{
				"x": -1.3931515172,
				"y": 0.5639985882,
				"z": -2.1058139027,
				"element": "C" 
			},
			{
				"x": -0.0601267206,
				"y": -0.1097605021,
				"z": -1.7165527652,
				"element": "C" 
			},
			{
				"x": -2.2444986968,
				"y": -0.4706416872,
				"z": -2.8781315005,
				"element": "C" 
			},
			{
				"x": -2.2382296,
				"y": 1.0774210707,
				"z": -0.8804146621,
				"element": "C" 
			},
			{
				"x": -1.8184629967,
				"y": 2.4332739713,
				"z": -0.2527389723,
				"element": "C" 
			},
			{
				"x": -0.5207403277,
				"y": 2.4085082412,
				"z": 0.5807680517,
				"element": "C" 
			},
			{
				"x": -0.5216443919,
				"y": 1.1929262033,
				"z": 1.4480230828,
				"element": "C" 
			},
			{
				"x": -1.3621810323,
				"y": 0.1169769222,
				"z": 1.3087490432,
				"element": "C" 
			},
			{
				"x": -2.4275366705,
				"y": 0.0272685982,
				"z": 0.2518027528,
				"element": "C" 
			},
			{
				"x": -1.0134130105,
				"y": -0.8218138439,
				"z": 2.3431490168,
				"element": "C" 
			},
			{
				"x": 0.0626120447,
				"y": -0.2492893992,
				"z": 3.0809401317,
				"element": "C" 
			},
			{
				"x": 0.3413863933,
				"y": 0.9778570841,
				"z": 2.5115778827,
				"element": "N" 
			},
			{
				"x": 0.6494854397,
				"y": -0.9042810229,
				"z": 4.1655799935,
				"element": "C" 
			},
			{
				"x": 0.1537947679,
				"y": -2.1550752237,
				"z": 4.5207611881,
				"element": "C" 
			},
			{
				"x": -0.9079331045,
				"y": -2.7240257533,
				"z": 3.7944506666,
				"element": "C" 
			},
			{
				"x": -1.5021354262,
				"y": -4.3142509072,
				"z": 4.2841212486,
				"element": "Cl" 
			},
			{
				"x": -1.5021730941,
				"y": -2.0853417457,
				"z": 2.7151960202,
				"element": "C" 
			},
			{
				"x": -0.3948267053,
				"y": 2.4535974148,
				"z": -2.645129959,
				"element": "H" 
			},
			{
				"x": -0.6439884952,
				"y": 1.3487099669,
				"z": -3.9961484719,
				"element": "H" 
			},
			{
				"x": -2.0098459609,
				"y": 2.2661092202,
				"z": -3.3498221303,
				"element": "H" 
			},
			{
				"x": 0.4433411554,
				"y": -0.478669933,
				"z": -2.6178545787,
				"element": "H" 
			},
			{
				"x": -0.2102563248,
				"y": -0.9638117547,
				"z": -1.0505613125,
				"element": "H" 
			},
			{
				"x": 0.6271888113,
				"y": 0.5805021642,
				"z": -1.2204343625,
				"element": "H" 
			},
			{
				"x": -2.5018868192,
				"y": -1.3379176554,
				"z": -2.2619770339,
				"element": "H" 
			},
			{
				"x": -1.6968970752,
				"y": -0.8434097773,
				"z": -3.7507085179,
				"element": "H" 
			},
			{
				"x": -3.1799251792,
				"y": -0.0260348574,
				"z": -3.2369297668,
				"element": "H" 
			},
			{
				"x": -3.2351497014,
				"y": 1.2644464872,
				"z": -1.3025259282,
				"element": "H" 
			},
			{
				"x": -1.7478114264,
				"y": 3.2083463016,
				"z": -1.0204428272,
				"element": "H" 
			},
			{
				"x": -2.6350736201,
				"y": 2.7394114509,
				"z": 0.4135649166,
				"element": "H" 
			},
			{
				"x": -0.4572818827,
				"y": 3.322426232,
				"z": 1.1875950921,
				"element": "H" 
			},
			{
				"x": 0.3638267415,
				"y": 2.4184987741,
				"z": -0.0719269912,
				"element": "H" 
			},
			{
				"x": -3.4151279208,
				"y": 0.1810318058,
				"z": 0.7108998067,
				"element": "H" 
			},
			{
				"x": -2.4596811774,
				"y": -0.9858383682,
				"z": -0.1654901142,
				"element": "H" 
			},
			{
				"x": 1.0521674861,
				"y": 1.6194111936,
				"z": 2.823417331,
				"element": "H" 
			},
			{
				"x": 1.4694151625,
				"y": -0.4593550252,
				"z": 4.7221450289,
				"element": "H" 
			},
			{
				"x": 0.580920566,
				"y": -2.6978742641,
				"z": 5.3560978392,
				"element": "H" 
			},
			{
				"x": -2.3208074202,
				"y": -2.5550492661,
				"z": 2.1808893412,
				"element": "H" 
			}
		],
		 "valence_orbital": [ 
			{
				"type": "occ",
				"energy": -0.29707,
				"method": "rhf"
			},
			{
				"type": "occ",
				"energy": -0.29603,
				"method": "rhf"
			},
			{
				"type": "occ",
				"energy": -0.27019,
				"method": "rhf"
			},
			{
				"type": "occ",
				"energy": -0.21244,
				"method": "rhf"
			},
			{
				"type": "occ",
				"energy": -0.19827,
				"method": "rhf"
			},
			{
				"type": "unocc",
				"energy": -0.01189,
				"method": "rhf"
			},
			{
				"type": "unocc",
				"energy": 0.02158,
				"method": "rhf"
			},
			{
				"type": "unocc",
				"energy": 0.04381,
				"method": "rhf"
			},
			{
				"type": "unocc",
				"energy": 0.06036,
				"method": "rhf"
			},
			{
				"type": "unocc",
				"energy": 0.07181,
				"method": "rhf"
			}
		],
		"cosmo_sigma_profile": { 
			"-0.025": 0.0,
			"-0.024": 0.0,
			"-0.023": 0.0,
			"-0.022": 0.0,
			"-0.021": 0.0,
			"-0.02": 0.0,
			"-0.019": 0.0,
			"-0.018": 0.0,
			"-0.017": 0.0,
			"-0.016": 0.0499167480849,
			"-0.015": 1.12047036797,
			"-0.014": 1.5697245132,
			"-0.013": 1.05577678803,
			"-0.012": 0.92807919394,
			"-0.011": 1.20497422796,
			"-0.01": 1.5169506131,
			"-0.009": 1.37070652514,
			"-0.008": 1.14825839595,
			"-0.007": 2.41784848455,
			"-0.006": 6.45243612465,
			"-0.005": 6.3176214034,
			"-0.004": 10.7472128588,
			"-0.003": 20.7884605101,
			"-0.002": 39.182339015,
			"-0.001": 41.6454542437,
			"0.0": 33.84949076,
			"0.001": 30.0363676912,
			"0.002": 27.6023925319,
			"0.003": 14.7810184907,
			"0.004": 19.3759715003,
			"0.005": 27.2046488239,
			"0.006": 13.496895599,
			"0.007": 0.00221126051739,
			"0.008": 0.0,
			"0.009": 0.0,
			"0.01": 0.0,
			"0.011": 0.0,
			"0.012": 0.0,
			"0.013": 0.0,
			"0.014": 0.0,
			"0.015": 0.0,
			"0.016": 0.0,
			"0.017": 0.0,
			"0.018": 0.0,
			"0.019": 0.0,
			"0.02": 0.0,
			"0.021": 0.0,
			"0.022": 0.0,
			"0.023": 0.0,
			"0.024": 0.0,
			"0.025": 0.0
		}
	}
}
