{
	 "smiles": "COC[C@H]1CCCN1C(=S)SCC(=O)C1=CC=C(Br)C=C1", 
	 "Tm": 362.65, 
	 "num_atms": 39, 
	 "gaussian": { 
		 "optdone": 1, 
		 "sigma_profile": "yes", 
		 "theory": "DFT", 
		 "functional": "B3LYP", 
		 "basiset": "6-31G**", 
		 "properties": { 
			 "R2extent": 15412.1929, 
			 "electric_dipole_moment_norm": 4.71887637685, 
			 "electric_quadrupole_moment_norm": 13.7239972071, 
			 "total_energy": -4155.41280989, 
			 "HOMO_LUMO_gap": 0.15673, 
			 "cosmo_polarized_energy": -13.3, 
			 "cosmo_cavitation_energy": 46.45, 
			 "cosmo_dispersion_energy": -33.34, 
			 "cosmo_repulsion_energy": 2.53, 
			 "cosmo_total_nonelectrostatic_energy": 15.63, 
			 "SMD_solvation_energy": 6.06 
		},
		"coords": [
			{
				"x": -2.9832236921,
				"y": 1.4631107286,
				"z": 4.7803161958,
				"element": "C" 
			},
			{
				"x": -2.2618118504,
				"y": 1.7426613243,
				"z": 3.59796587,
				"element": "O" 
			},
			{
				"x": -1.4164264834,
				"y": 0.6787818935,
				"z": 3.2061707401,
				"element": "C" 
			},
			{
				"x": -0.7604538792,
				"y": 1.1062460464,
				"z": 1.8895098109,
				"element": "C" 
			},
			{
				"x": 0.0605004764,
				"y": 2.4068216754,
				"z": 2.0455377036,
				"element": "C" 
			},
			{
				"x": 1.3548929158,
				"y": 2.1621873086,
				"z": 1.2577571036,
				"element": "C" 
			},
			{
				"x": 1.598233918,
				"y": 0.6625142214,
				"z": 1.4428504681,
				"element": "C" 
			},
			{
				"x": 0.2303021257,
				"y": 0.1006826418,
				"z": 1.4162916949,
				"element": "N" 
			},
			{
				"x": -0.1224653999,
				"y": -1.0821103904,
				"z": 0.8764114262,
				"element": "C" 
			},
			{
				"x": -1.7067955885,
				"y": -1.5616066613,
				"z": 0.6106191807,
				"element": "S" 
			},
			{
				"x": 1.3227744802,
				"y": -2.1059391169,
				"z": 0.486213638,
				"element": "S" 
			},
			{
				"x": 0.6069183194,
				"y": -3.6241518052,
				"z": -0.2434410936,
				"element": "C" 
			},
			{
				"x": 1.2798334959,
				"y": -3.9604958562,
				"z": -1.5751018154,
				"element": "C" 
			},
			{
				"x": 2.1074922948,
				"y": -4.858887788,
				"z": -1.6053153996,
				"element": "O" 
			},
			{
				"x": 0.9209605003,
				"y": -3.2019347589,
				"z": -2.8123926681,
				"element": "C" 
			},
			{
				"x": 1.6485406898,
				"y": -3.4833598814,
				"z": -3.9806011625,
				"element": "C" 
			},
			{
				"x": 1.3630727559,
				"y": -2.8312728522,
				"z": -5.1742331815,
				"element": "C" 
			},
			{
				"x": 0.3325337995,
				"y": -1.8886793722,
				"z": -5.1990118175,
				"element": "C" 
			},
			{
				"x": -0.0689783726,
				"y": -0.9865121613,
				"z": -6.8324406045,
				"element": "Br" 
			},
			{
				"x": -0.4087025617,
				"y": -1.5946366303,
				"z": -4.0556513061,
				"element": "C" 
			},
			{
				"x": -0.1105836207,
				"y": -2.2524849729,
				"z": -2.8630126599,
				"element": "C" 
			},
			{
				"x": -2.3124476891,
				"y": 1.2905844456,
				"z": 5.6368665163,
				"element": "H" 
			},
			{
				"x": -3.628704312,
				"y": 0.5792722303,
				"z": 4.6644411179,
				"element": "H" 
			},
			{
				"x": -3.608573125,
				"y": 2.3337326789,
				"z": 4.9915702684,
				"element": "H" 
			},
			{
				"x": -0.6346327654,
				"y": 0.496370856,
				"z": 3.9651129649,
				"element": "H" 
			},
			{
				"x": -1.9853887142,
				"y": -0.2498065978,
				"z": 3.0705827715,
				"element": "H" 
			},
			{
				"x": -1.5398533956,
				"y": 1.2005478041,
				"z": 1.1272330348,
				"element": "H" 
			},
			{
				"x": 0.2838836435,
				"y": 2.5748754922,
				"z": 3.1042805651,
				"element": "H" 
			},
			{
				"x": -0.4991551617,
				"y": 3.2753996323,
				"z": 1.6941429675,
				"element": "H" 
			},
			{
				"x": 1.2109559698,
				"y": 2.3784795163,
				"z": 0.1937821852,
				"element": "H" 
			},
			{
				"x": 2.1952456629,
				"y": 2.7639565059,
				"z": 1.6136122113,
				"element": "H" 
			},
			{
				"x": 2.2073300903,
				"y": 0.2272798031,
				"z": 0.6491296855,
				"element": "H" 
			},
			{
				"x": 2.0785403872,
				"y": 0.4430333637,
				"z": 2.4053596154,
				"element": "H" 
			},
			{
				"x": -0.4738222794,
				"y": -3.454031404,
				"z": -0.3188624476,
				"element": "H" 
			},
			{
				"x": 0.8044910554,
				"y": -4.4485770469,
				"z": 0.4424022031,
				"element": "H" 
			},
			{
				"x": 2.4387309124,
				"y": -4.22478746,
				"z": -3.9290574051,
				"element": "H" 
			},
			{
				"x": 1.926239973,
				"y": -3.0474600697,
				"z": -6.074859163,
				"element": "H" 
			},
			{
				"x": -1.2080223728,
				"y": -0.8637138997,
				"z": -4.0956710981,
				"element": "H" 
			},
			{
				"x": -0.6965322025,
				"y": -2.0167894431,
				"z": -1.9798081165,
				"element": "H" 
			}
		],
		 "valence_orbital": [ 
			{
				"type": "occ",
				"energy": -0.26485,
				"method": "rhf"
			},
			{
				"type": "occ",
				"energy": -0.25292,
				"method": "rhf"
			},
			{
				"type": "occ",
				"energy": -0.24601,
				"method": "rhf"
			},
			{
				"type": "occ",
				"energy": -0.23345,
				"method": "rhf"
			},
			{
				"type": "occ",
				"energy": -0.22473,
				"method": "rhf"
			},
			{
				"type": "unocc",
				"energy": -0.068,
				"method": "rhf"
			},
			{
				"type": "unocc",
				"energy": -0.03712,
				"method": "rhf"
			},
			{
				"type": "unocc",
				"energy": -0.01849,
				"method": "rhf"
			},
			{
				"type": "unocc",
				"energy": 0.0036,
				"method": "rhf"
			},
			{
				"type": "unocc",
				"energy": 0.00984,
				"method": "rhf"
			}
		],
		"cosmo_sigma_profile": { 
			"-0.025": 0.0,
			"-0.024": 0.0,
			"-0.023": 0.0,
			"-0.022": 0.0,
			"-0.021": 0.0,
			"-0.02": 0.0,
			"-0.019": 0.0,
			"-0.018": 0.0,
			"-0.017": 0.0,
			"-0.016": 0.0,
			"-0.015": 0.0,
			"-0.014": 0.0,
			"-0.013": 0.0,
			"-0.012": 0.0,
			"-0.011": 0.0,
			"-0.01": 0.0,
			"-0.009": 0.0,
			"-0.008": 0.929038452665,
			"-0.007": 6.32081267327,
			"-0.006": 13.0555057179,
			"-0.005": 23.5216819744,
			"-0.004": 40.7872898294,
			"-0.003": 40.8262293584,
			"-0.002": 36.9432156405,
			"-0.001": 31.3464789347,
			"0.0": 24.7304927274,
			"0.001": 27.4081400472,
			"0.002": 34.5429809065,
			"0.003": 23.1514068763,
			"0.004": 21.6727318646,
			"0.005": 9.98360171279,
			"0.006": 9.3124497606,
			"0.007": 7.17480419333,
			"0.008": 6.95225173636,
			"0.009": 4.90872450796,
			"0.01": 4.06865928095,
			"0.011": 5.06525133799,
			"0.012": 2.60047956296,
			"0.013": 0.167168929952,
			"0.014": 0.0,
			"0.015": 0.0,
			"0.016": 0.0,
			"0.017": 0.0,
			"0.018": 0.0,
			"0.019": 0.0,
			"0.02": 0.0,
			"0.021": 0.0,
			"0.022": 0.0,
			"0.023": 0.0,
			"0.024": 0.0,
			"0.025": 0.0
		}
	}
}
