{
	 "smiles": "CC(=O)C=C(/C)C1=CC=C(C=C1)C1=CC=CC=C1", 
	 "Tm": 406.15, 
	 "num_atms": 34, 
	 "gaussian": { 
		 "optdone": 1, 
		 "sigma_profile": "yes", 
		 "theory": "DFT", 
		 "functional": "B3LYP", 
		 "basiset": "6-31G**", 
		 "properties": { 
			 "R2extent": 7764.845, 
			 "electric_dipole_moment_norm": 3.9722019712, 
			 "electric_quadrupole_moment_norm": 23.2461182699, 
			 "total_energy": -732.672047735, 
			 "HOMO_LUMO_gap": 0.15613, 
			 "cosmo_polarized_energy": -12.01, 
			 "cosmo_cavitation_energy": 37.52, 
			 "cosmo_dispersion_energy": -26.92, 
			 "cosmo_repulsion_energy": 2.05, 
			 "cosmo_total_nonelectrostatic_energy": 12.65, 
			 "SMD_solvation_energy": 6.89 
		},
		"coords": [
			{
				"x": -1.8087692409,
				"y": 4.9771922604,
				"z": -2.4355266178,
				"element": "C" 
			},
			{
				"x": -2.3477441614,
				"y": 3.5586361258,
				"z": -2.5378488665,
				"element": "C" 
			},
			{
				"x": -3.2853481618,
				"y": 3.3300068586,
				"z": -3.2949456919,
				"element": "O" 
			},
			{
				"x": -1.8097833399,
				"y": 2.4212036699,
				"z": -1.7503705977,
				"element": "C" 
			},
			{
				"x": -0.7715191903,
				"y": 2.3006286731,
				"z": -0.8856654263,
				"element": "C" 
			},
			{
				"x": 0.1581538073,
				"y": 3.4165050644,
				"z": -0.4603262544,
				"element": "C" 
			},
			{
				"x": -0.5111086524,
				"y": 0.9747585888,
				"z": -0.261178681,
				"element": "C" 
			},
			{
				"x": -0.7672009838,
				"y": -0.2285835206,
				"z": -0.9445550837,
				"element": "C" 
			},
			{
				"x": -0.5317074156,
				"y": -1.4622636023,
				"z": -0.3490743483,
				"element": "C" 
			},
			{
				"x": -0.0290698202,
				"y": -1.5575658763,
				"z": 0.9604375388,
				"element": "C" 
			},
			{
				"x": 0.2371753367,
				"y": -0.3578515769,
				"z": 1.6407122503,
				"element": "C" 
			},
			{
				"x": 0.0126509363,
				"y": 0.8773824432,
				"z": 1.0409738365,
				"element": "C" 
			},
			{
				"x": 0.2189683799,
				"y": -2.8752277433,
				"z": 1.5956665649,
				"element": "C" 
			},
			{
				"x": -0.6453737801,
				"y": -3.9600520002,
				"z": 1.3672066805,
				"element": "C" 
			},
			{
				"x": -0.4140174946,
				"y": -5.1982862697,
				"z": 1.964243368,
				"element": "C" 
			},
			{
				"x": 0.6867644455,
				"y": -5.3798416048,
				"z": 2.8037630573,
				"element": "C" 
			},
			{
				"x": 1.5542450893,
				"y": -4.311670683,
				"z": 3.0403228469,
				"element": "C" 
			},
			{
				"x": 1.3231284256,
				"y": -3.0736521711,
				"z": 2.4427266739,
				"element": "C" 
			},
			{
				"x": -1.765453871,
				"y": 5.3267991496,
				"z": -1.3997460739,
				"element": "H" 
			},
			{
				"x": -0.7973589456,
				"y": 5.0435160931,
				"z": -2.8526317378,
				"element": "H" 
			},
			{
				"x": -2.4668732979,
				"y": 5.62714813,
				"z": -3.0139919557,
				"element": "H" 
			},
			{
				"x": -2.418820044,
				"y": 1.5394862662,
				"z": -1.9301581612,
				"element": "H" 
			},
			{
				"x": 1.1718496074,
				"y": 3.0326635478,
				"z": -0.3160328355,
				"element": "H" 
			},
			{
				"x": -0.1602038787,
				"y": 3.8483869342,
				"z": 0.4974401018,
				"element": "H" 
			},
			{
				"x": 0.2043367165,
				"y": 4.2273922994,
				"z": -1.1826755209,
				"element": "H" 
			},
			{
				"x": -1.1187485452,
				"y": -0.1959786066,
				"z": -1.9706839913,
				"element": "H" 
			},
			{
				"x": -0.7056907567,
				"y": -2.3684353632,
				"z": -0.921479991,
				"element": "H" 
			},
			{
				"x": 0.600523036,
				"y": -0.3925260262,
				"z": 2.6634098648,
				"element": "H" 
			},
			{
				"x": 0.218886729,
				"y": 1.7780237162,
				"z": 1.610443535,
				"element": "H" 
			},
			{
				"x": -1.5196898408,
				"y": -3.8225701466,
				"z": 0.7378661062,
				"element": "H" 
			},
			{
				"x": -1.1001043195,
				"y": -6.0202078912,
				"z": 1.7801530134,
				"element": "H" 
			},
			{
				"x": 0.8669364153,
				"y": -6.3445291202,
				"z": 3.2690631041,
				"element": "H" 
			},
			{
				"x": 2.4187363578,
				"y": -4.4444908222,
				"z": 3.6847139232,
				"element": "H" 
			},
			{
				"x": 2.0197304579,
				"y": -2.2577967962,
				"z": 2.6118493692,
				"element": "H" 
			}
		],
		 "valence_orbital": [ 
			{
				"type": "occ",
				"energy": -0.25941,
				"method": "rhf"
			},
			{
				"type": "occ",
				"energy": -0.25744,
				"method": "rhf"
			},
			{
				"type": "occ",
				"energy": -0.25431,
				"method": "rhf"
			},
			{
				"type": "occ",
				"energy": -0.23992,
				"method": "rhf"
			},
			{
				"type": "occ",
				"energy": -0.22108,
				"method": "rhf"
			},
			{
				"type": "unocc",
				"energy": -0.06495,
				"method": "rhf"
			},
			{
				"type": "unocc",
				"energy": -0.01974,
				"method": "rhf"
			},
			{
				"type": "unocc",
				"energy": -0.01103,
				"method": "rhf"
			},
			{
				"type": "unocc",
				"energy": -0.00477,
				"method": "rhf"
			},
			{
				"type": "unocc",
				"energy": 0.02751,
				"method": "rhf"
			}
		],
		"cosmo_sigma_profile": { 
			"-0.025": 0.0,
			"-0.024": 0.0,
			"-0.023": 0.0,
			"-0.022": 0.0,
			"-0.021": 0.0,
			"-0.02": 0.0,
			"-0.019": 0.0,
			"-0.018": 0.0,
			"-0.017": 0.0,
			"-0.016": 0.0,
			"-0.015": 0.0,
			"-0.014": 0.0,
			"-0.013": 0.0,
			"-0.012": 0.0,
			"-0.011": 0.0,
			"-0.01": 0.0,
			"-0.009": 0.0,
			"-0.008": 0.0,
			"-0.007": 1.53341129258,
			"-0.006": 15.889594128,
			"-0.005": 29.8684326842,
			"-0.004": 31.6630766358,
			"-0.003": 28.0188366113,
			"-0.002": 24.733910242,
			"-0.001": 24.7081252716,
			"0.0": 20.7095149733,
			"0.001": 17.7232482671,
			"0.002": 19.5639295524,
			"0.003": 22.2084718214,
			"0.004": 20.7451547598,
			"0.005": 17.054121987,
			"0.006": 6.21149474828,
			"0.007": 1.8467830249,
			"0.008": 1.51367673357,
			"0.009": 1.53387048923,
			"0.01": 1.47658441464,
			"0.011": 2.41107895917,
			"0.012": 3.4407306198,
			"0.013": 4.44925884999,
			"0.014": 1.98544315657,
			"0.015": 0.0397240812672,
			"0.016": 0.0,
			"0.017": 0.0,
			"0.018": 0.0,
			"0.019": 0.0,
			"0.02": 0.0,
			"0.021": 0.0,
			"0.022": 0.0,
			"0.023": 0.0,
			"0.024": 0.0,
			"0.025": 0.0
		}
	}
}
