{
	 "smiles": "BrC1=CC=C(C=C1)C(=O)C1=CC=C(Br)C=C1", 
	 "Tm": 449.15, 
	 "num_atms": 24, 
	 "gaussian": { 
		 "optdone": 1, 
		 "sigma_profile": "yes", 
		 "theory": "DFT", 
		 "functional": "B3LYP", 
		 "basiset": "6-31G**", 
		 "properties": { 
			 "R2extent": 12284.6822, 
			 "electric_dipole_moment_norm": 1.52199913929, 
			 "electric_quadrupole_moment_norm": 4.96779739824, 
			 "total_energy": -5718.2389833, 
			 "HOMO_LUMO_gap": 0.17308, 
			 "cosmo_polarized_energy": -8.72, 
			 "cosmo_cavitation_energy": 33.78, 
			 "cosmo_dispersion_energy": -25.31, 
			 "cosmo_repulsion_energy": 1.96, 
			 "cosmo_total_nonelectrostatic_energy": 10.43, 
			 "SMD_solvation_energy": 3.78 
		},
		"coords": [
			{
				"x": 0.683702323,
				"y": 3.7201219483,
				"z": -5.3717951027,
				"element": "Br" 
			},
			{
				"x": 0.8507876458,
				"y": 2.4722440915,
				"z": -3.9384539215,
				"element": "C" 
			},
			{
				"x": 1.8730955514,
				"y": 2.6376769159,
				"z": -3.001293441,
				"element": "C" 
			},
			{
				"x": 1.9911522075,
				"y": 1.7207905105,
				"z": -1.9626788758,
				"element": "C" 
			},
			{
				"x": 1.0847766375,
				"y": 0.6562102793,
				"z": -1.832744,
				"element": "C" 
			},
			{
				"x": 0.0725028403,
				"y": 0.506819454,
				"z": -2.7928437161,
				"element": "C" 
			},
			{
				"x": -0.0454305356,
				"y": 1.4083417828,
				"z": -3.8504085858,
				"element": "C" 
			},
			{
				"x": 1.311960239,
				"y": -0.3188382964,
				"z": -0.7158636632,
				"element": "C" 
			},
			{
				"x": 2.4417215365,
				"y": -0.4718898176,
				"z": -0.2645131329,
				"element": "O" 
			},
			{
				"x": 0.1715795912,
				"y": -1.1087053223,
				"z": -0.1454372988,
				"element": "C" 
			},
			{
				"x": -1.1516216578,
				"y": -0.642675945,
				"z": -0.1178898737,
				"element": "C" 
			},
			{
				"x": -2.1586727637,
				"y": -1.3920086512,
				"z": 0.4899189351,
				"element": "C" 
			},
			{
				"x": -1.8378198223,
				"y": -2.6212399809,
				"z": 1.0634093444,
				"element": "C" 
			},
			{
				"x": -3.2137701376,
				"y": -3.6604345958,
				"z": 1.8797252469,
				"element": "Br" 
			},
			{
				"x": -0.5268546108,
				"y": -3.1029995531,
				"z": 1.0579581866,
				"element": "C" 
			},
			{
				"x": 0.4709774724,
				"y": -2.3370735998,
				"z": 0.4654646055,
				"element": "C" 
			},
			{
				"x": 2.5651176292,
				"y": 3.4671877888,
				"z": -3.0908115307,
				"element": "H" 
			},
			{
				"x": 2.7900847868,
				"y": 1.8125294438,
				"z": -1.2345647819,
				"element": "H" 
			},
			{
				"x": -0.6137940227,
				"y": -0.3312889705,
				"z": -2.7366214329,
				"element": "H" 
			},
			{
				"x": -0.8200079651,
				"y": 1.2841340805,
				"z": -4.5983608299,
				"element": "H" 
			},
			{
				"x": -1.3995507949,
				"y": 0.3223270321,
				"z": -0.5467153895,
				"element": "H" 
			},
			{
				"x": -3.1779157495,
				"y": -1.0246274981,
				"z": 0.5215640217,
				"element": "H" 
			},
			{
				"x": -0.2955473499,
				"y": -4.0579558212,
				"z": 1.5157306547,
				"element": "H" 
			},
			{
				"x": 1.5012269492,
				"y": -2.6768452755,
				"z": 0.4677245815,
				"element": "H" 
			}
		],
		 "valence_orbital": [ 
			{
				"type": "occ",
				"energy": -0.27832,
				"method": "rhf"
			},
			{
				"type": "occ",
				"energy": -0.27622,
				"method": "rhf"
			},
			{
				"type": "occ",
				"energy": -0.26576,
				"method": "rhf"
			},
			{
				"type": "occ",
				"energy": -0.25508,
				"method": "rhf"
			},
			{
				"type": "occ",
				"energy": -0.25129,
				"method": "rhf"
			},
			{
				"type": "unocc",
				"energy": -0.07821,
				"method": "rhf"
			},
			{
				"type": "unocc",
				"energy": -0.03316,
				"method": "rhf"
			},
			{
				"type": "unocc",
				"energy": -0.02781,
				"method": "rhf"
			},
			{
				"type": "unocc",
				"energy": -0.02295,
				"method": "rhf"
			},
			{
				"type": "unocc",
				"energy": -0.00204,
				"method": "rhf"
			}
		],
		"cosmo_sigma_profile": { 
			"-0.025": 0.0,
			"-0.024": 0.0,
			"-0.023": 0.0,
			"-0.022": 0.0,
			"-0.021": 0.0,
			"-0.02": 0.0,
			"-0.019": 0.0,
			"-0.018": 0.0,
			"-0.017": 0.0,
			"-0.016": 0.0,
			"-0.015": 0.0,
			"-0.014": 0.0,
			"-0.013": 0.0,
			"-0.012": 0.0,
			"-0.011": 0.0,
			"-0.01": 0.0,
			"-0.009": 0.0,
			"-0.008": 2.39178247446,
			"-0.007": 11.4045093916,
			"-0.006": 15.9086037558,
			"-0.005": 16.9795092099,
			"-0.004": 17.0114995782,
			"-0.003": 17.0787816842,
			"-0.002": 17.1464444924,
			"-0.001": 19.1835912897,
			"0.0": 21.5358045022,
			"0.001": 33.2836494563,
			"0.002": 40.2644237467,
			"0.003": 22.7197958479,
			"0.004": 23.6922410751,
			"0.005": 5.29006844335,
			"0.006": 1.60827840066,
			"0.007": 1.39972135939,
			"0.008": 1.8354251517,
			"0.009": 1.74882007096,
			"0.01": 2.5232952755,
			"0.011": 3.10671044056,
			"0.012": 2.99390582585,
			"0.013": 0.0684777416007,
			"0.014": 0.0,
			"0.015": 0.0,
			"0.016": 0.0,
			"0.017": 0.0,
			"0.018": 0.0,
			"0.019": 0.0,
			"0.02": 0.0,
			"0.021": 0.0,
			"0.022": 0.0,
			"0.023": 0.0,
			"0.024": 0.0,
			"0.025": 0.0
		}
	}
}
