{
	 "smiles": "COC1=NC(NC(=O)NS(=O)(=O)C2=CC=CC=C2C(F)(F)F)=NC(=N1)C(F)(F)F", 
	 "Tm": 441.15, 
	 "num_atms": 38, 
	 "gaussian": { 
		 "optdone": 1, 
		 "sigma_profile": "yes", 
		 "theory": "DFT", 
		 "functional": "B3LYP", 
		 "basiset": "6-31G**", 
		 "properties": { 
			 "R2extent": 14629.6575, 
			 "electric_dipole_moment_norm": 7.5780056829, 
			 "electric_quadrupole_moment_norm": 25.6835338016, 
			 "total_energy": -2072.63939046, 
			 "HOMO_LUMO_gap": 0.20727, 
			 "cosmo_polarized_energy": -24.23, 
			 "cosmo_cavitation_energy": 49.06, 
			 "cosmo_dispersion_energy": -33.03, 
			 "cosmo_repulsion_energy": 2.35, 
			 "cosmo_total_nonelectrostatic_energy": 18.38, 
			 "SMD_solvation_energy": 8.53 
		},
		"coords": [
			{
				"x": -0.316482093,
				"y": -2.1649731446,
				"z": 4.3914160405,
				"element": "C" 
			},
			{
				"x": 0.9458621302,
				"y": -1.4738384878,
				"z": 4.4355512986,
				"element": "O" 
			},
			{
				"x": 1.4802968948,
				"y": -1.0989928091,
				"z": 3.2816202701,
				"element": "C" 
			},
			{
				"x": 0.8295697732,
				"y": -1.3628591278,
				"z": 2.1469911932,
				"element": "N" 
			},
			{
				"x": 1.4649365601,
				"y": -0.9601233047,
				"z": 1.0460771927,
				"element": "C" 
			},
			{
				"x": 0.9039874321,
				"y": -1.1704380768,
				"z": -0.2012813815,
				"element": "N" 
			},
			{
				"x": -0.2318214102,
				"y": -1.9030001209,
				"z": -0.4979707254,
				"element": "C" 
			},
			{
				"x": -0.891114832,
				"y": -2.577822223,
				"z": 0.260655742,
				"element": "O" 
			},
			{
				"x": -0.6079922796,
				"y": -1.838599136,
				"z": -1.8655031901,
				"element": "N" 
			},
			{
				"x": -0.1580936296,
				"y": -0.7949585176,
				"z": -3.1210334299,
				"element": "S" 
			},
			{
				"x": 1.2605390567,
				"y": -0.4899849314,
				"z": -2.9211802597,
				"element": "O" 
			},
			{
				"x": -0.6603856748,
				"y": -1.4401757481,
				"z": -4.3267143199,
				"element": "O" 
			},
			{
				"x": -1.1057083014,
				"y": 0.7224710775,
				"z": -2.8047912729,
				"element": "C" 
			},
			{
				"x": -2.2200668138,
				"y": 0.634678152,
				"z": -1.9677828775,
				"element": "C" 
			},
			{
				"x": -3.0054627754,
				"y": 1.7596131649,
				"z": -1.7143063592,
				"element": "C" 
			},
			{
				"x": -2.6803828432,
				"y": 2.9766894397,
				"z": -2.3039943072,
				"element": "C" 
			},
			{
				"x": -1.5743528392,
				"y": 3.0643660168,
				"z": -3.1488173984,
				"element": "C" 
			},
			{
				"x": -0.7759657099,
				"y": 1.9498751424,
				"z": -3.4167739595,
				"element": "C" 
			},
			{
				"x": 0.4236394526,
				"y": 2.1548130073,
				"z": -4.3272152863,
				"element": "C" 
			},
			{
				"x": 0.5728981269,
				"y": 1.1411063737,
				"z": -5.1998162051,
				"element": "F" 
			},
			{
				"x": 1.5619446592,
				"y": 2.2776791313,
				"z": -3.6245621369,
				"element": "F" 
			},
			{
				"x": 0.2818057232,
				"y": 3.2855331718,
				"z": -5.0547368418,
				"element": "F" 
			},
			{
				"x": 2.6451808518,
				"y": -0.3211993509,
				"z": 1.0118063246,
				"element": "N" 
			},
			{
				"x": 3.1699251837,
				"y": -0.1135886732,
				"z": 2.2189095896,
				"element": "C" 
			},
			{
				"x": 2.6645887167,
				"y": -0.4684591121,
				"z": 3.390178288,
				"element": "N" 
			},
			{
				"x": 4.5059015448,
				"y": 0.6301144983,
				"z": 2.2212928088,
				"element": "C" 
			},
			{
				"x": 5.0117448743,
				"y": 0.7466941176,
				"z": 3.4530307177,
				"element": "F" 
			},
			{
				"x": 4.3416507344,
				"y": 1.8665493047,
				"z": 1.7121009804,
				"element": "F" 
			},
			{
				"x": 5.4004642898,
				"y": -0.0186410315,
				"z": 1.4544566793,
				"element": "F" 
			},
			{
				"x": -0.5351987609,
				"y": -2.416030672,
				"z": 5.4287934301,
				"element": "H" 
			},
			{
				"x": -1.0944519402,
				"y": -1.5189988689,
				"z": 3.9780406232,
				"element": "H" 
			},
			{
				"x": -0.2444924206,
				"y": -3.0650914134,
				"z": 3.7776738788,
				"element": "H" 
			},
			{
				"x": 1.4515384856,
				"y": -0.8044529682,
				"z": -0.9800977842,
				"element": "H" 
			},
			{
				"x": -1.3585146785,
				"y": -2.4786158675,
				"z": -2.102053261,
				"element": "H" 
			},
			{
				"x": -2.4738426615,
				"y": -0.308824137,
				"z": -1.5005212955,
				"element": "H" 
			},
			{
				"x": -3.8646474251,
				"y": 1.6749403261,
				"z": -1.0567922214,
				"element": "H" 
			},
			{
				"x": -3.2827905231,
				"y": 3.8589971543,
				"z": -2.1133256635,
				"element": "H" 
			},
			{
				"x": -1.3226068782,
				"y": 4.0077476442,
				"z": -3.6174248805,
				"element": "H" 
			}
		],
		 "valence_orbital": [ 
			{
				"type": "occ",
				"energy": -0.30263,
				"method": "rhf"
			},
			{
				"type": "occ",
				"energy": -0.29884,
				"method": "rhf"
			},
			{
				"type": "occ",
				"energy": -0.29678,
				"method": "rhf"
			},
			{
				"type": "occ",
				"energy": -0.28423,
				"method": "rhf"
			},
			{
				"type": "occ",
				"energy": -0.27995,
				"method": "rhf"
			},
			{
				"type": "unocc",
				"energy": -0.07268,
				"method": "rhf"
			},
			{
				"type": "unocc",
				"energy": -0.06511,
				"method": "rhf"
			},
			{
				"type": "unocc",
				"energy": -0.05474,
				"method": "rhf"
			},
			{
				"type": "unocc",
				"energy": -0.04669,
				"method": "rhf"
			},
			{
				"type": "unocc",
				"energy": 0.00199,
				"method": "rhf"
			}
		],
		"cosmo_sigma_profile": { 
			"-0.025": 0.0,
			"-0.024": 0.0,
			"-0.023": 0.0,
			"-0.022": 0.0,
			"-0.021": 0.0,
			"-0.02": 0.0,
			"-0.019": 0.0,
			"-0.018": 0.147781367391,
			"-0.017": 0.74923657226,
			"-0.016": 1.16713797953,
			"-0.015": 0.924388900233,
			"-0.014": 1.41138611511,
			"-0.013": 0.907191619777,
			"-0.012": 0.935606967483,
			"-0.011": 0.721832926903,
			"-0.01": 1.05922985472,
			"-0.009": 2.07593032616,
			"-0.008": 10.6352107031,
			"-0.007": 17.8451359916,
			"-0.006": 21.3090194451,
			"-0.005": 25.5585275546,
			"-0.004": 27.8611910594,
			"-0.003": 21.1186466045,
			"-0.002": 19.2491578815,
			"-0.001": 23.6686350612,
			"0.0": 26.3010901923,
			"0.001": 31.4326141908,
			"0.002": 54.2333232177,
			"0.003": 23.8834115126,
			"0.004": 10.795410498,
			"0.005": 8.9826173958,
			"0.006": 11.2452234976,
			"0.007": 9.17374751528,
			"0.008": 10.2851105152,
			"0.009": 13.7968685177,
			"0.01": 7.43452677934,
			"0.011": 7.96580035764,
			"0.012": 2.25888188233,
			"0.013": 0.500502583194,
			"0.014": 0.0,
			"0.015": 0.0,
			"0.016": 0.0,
			"0.017": 0.0,
			"0.018": 0.0,
			"0.019": 0.0,
			"0.02": 0.0,
			"0.021": 0.0,
			"0.022": 0.0,
			"0.023": 0.0,
			"0.024": 0.0,
			"0.025": 0.0
		}
	}
}
