{
	 "smiles": "CC(C)CCC(C)(C)C", 
	 "Tm": 167.15, 
	 "num_atms": 29, 
	 "gaussian": { 
		 "optdone": 1, 
		 "sigma_profile": "yes", 
		 "theory": "DFT", 
		 "functional": "B3LYP", 
		 "basiset": "6-31G**", 
		 "properties": { 
			 "R2extent": 2006.7888, 
			 "electric_dipole_moment_norm": 0.0500498751247, 
			 "electric_quadrupole_moment_norm": 0.601095125583, 
			 "total_energy": -355.041513617, 
			 "HOMO_LUMO_gap": 0.37099, 
			 "cosmo_polarized_energy": -0.86, 
			 "cosmo_cavitation_energy": 28.16, 
			 "cosmo_dispersion_energy": -19.55, 
			 "cosmo_repulsion_energy": 1.59, 
			 "cosmo_total_nonelectrostatic_energy": 10.21, 
			 "SMD_solvation_energy": 4.88 
		},
		"coords": [
			{
				"x": 1.0049620283,
				"y": 3.7144606288,
				"z": 0.9881462346,
				"element": "C" 
			},
			{
				"x": 1.161951998,
				"y": 2.2038853258,
				"z": 0.7588309685,
				"element": "C" 
			},
			{
				"x": 2.3898347504,
				"y": 1.6739782788,
				"z": 1.5155640117,
				"element": "C" 
			},
			{
				"x": -0.1294366915,
				"y": 1.4559825825,
				"z": 1.160103761,
				"element": "C" 
			},
			{
				"x": -0.2275179517,
				"y": -0.0142678805,
				"z": 0.6861937089,
				"element": "C" 
			},
			{
				"x": -1.1057150445,
				"y": -0.3001653296,
				"z": -0.5643069812,
				"element": "C" 
			},
			{
				"x": -0.9651325462,
				"y": -1.7960860363,
				"z": -0.9109008649,
				"element": "C" 
			},
			{
				"x": -2.5885561802,
				"y": -0.0029493641,
				"z": -0.2642418008,
				"element": "C" 
			},
			{
				"x": -0.6498240217,
				"y": 0.5357546814,
				"z": -1.7756174453,
				"element": "C" 
			},
			{
				"x": 0.8052734188,
				"y": 3.9306264998,
				"z": 2.0451564382,
				"element": "H" 
			},
			{
				"x": 1.9132874754,
				"y": 4.2583000327,
				"z": 0.7061527381,
				"element": "H" 
			},
			{
				"x": 0.1736859797,
				"y": 4.1242534614,
				"z": 0.4036236384,
				"element": "H" 
			},
			{
				"x": 1.331693989,
				"y": 2.0430380754,
				"z": -0.3150010628,
				"element": "H" 
			},
			{
				"x": 2.5370271478,
				"y": 0.5996320812,
				"z": 1.3650345804,
				"element": "H" 
			},
			{
				"x": 2.2831240619,
				"y": 1.8457579128,
				"z": 2.5940120482,
				"element": "H" 
			},
			{
				"x": 3.3041246332,
				"y": 2.1807683615,
				"z": 1.1877438713,
				"element": "H" 
			},
			{
				"x": -0.209430922,
				"y": 1.4929489461,
				"z": 2.2551688138,
				"element": "H" 
			},
			{
				"x": -0.9922270747,
				"y": 2.022718313,
				"z": 0.7891277392,
				"element": "H" 
			},
			{
				"x": -0.6179969688,
				"y": -0.6340328513,
				"z": 1.5037096972,
				"element": "H" 
			},
			{
				"x": 0.7813077044,
				"y": -0.3985879037,
				"z": 0.485633571,
				"element": "H" 
			},
			{
				"x": -1.2766069514,
				"y": -2.4285060539,
				"z": -0.0714754083,
				"element": "H" 
			},
			{
				"x": -1.584657443,
				"y": -2.0609948291,
				"z": -1.7753639992,
				"element": "H" 
			},
			{
				"x": 0.0729400747,
				"y": -2.0509768707,
				"z": -1.1536417434,
				"element": "H" 
			},
			{
				"x": -2.9467818809,
				"y": -0.6014500163,
				"z": 0.581390189,
				"element": "H" 
			},
			{
				"x": -3.2152361868,
				"y": -0.2419493478,
				"z": -1.1310440947,
				"element": "H" 
			},
			{
				"x": -2.7562775929,
				"y": 1.0514760098,
				"z": -0.0214306389,
				"element": "H" 
			},
			{
				"x": -1.2505685664,
				"y": 0.2939107953,
				"z": -2.6600371624,
				"element": "H" 
			},
			{
				"x": -0.7552228751,
				"y": 1.6101700251,
				"z": -1.5926742229,
				"element": "H" 
			},
			{
				"x": 0.3993756365,
				"y": 0.3376044721,
				"z": -2.0232565847,
				"element": "H" 
			}
		],
		 "valence_orbital": [ 
			{
				"type": "occ",
				"energy": -0.32475,
				"method": "rhf"
			},
			{
				"type": "occ",
				"energy": -0.31699,
				"method": "rhf"
			},
			{
				"type": "occ",
				"energy": -0.30321,
				"method": "rhf"
			},
			{
				"type": "occ",
				"energy": -0.29972,
				"method": "rhf"
			},
			{
				"type": "occ",
				"energy": -0.29715,
				"method": "rhf"
			},
			{
				"type": "unocc",
				"energy": 0.07384,
				"method": "rhf"
			},
			{
				"type": "unocc",
				"energy": 0.09841,
				"method": "rhf"
			},
			{
				"type": "unocc",
				"energy": 0.11354,
				"method": "rhf"
			},
			{
				"type": "unocc",
				"energy": 0.11947,
				"method": "rhf"
			},
			{
				"type": "unocc",
				"energy": 0.13244,
				"method": "rhf"
			}
		],
		"cosmo_sigma_profile": { 
			"-0.025": 0.0,
			"-0.024": 0.0,
			"-0.023": 0.0,
			"-0.022": 0.0,
			"-0.021": 0.0,
			"-0.02": 0.0,
			"-0.019": 0.0,
			"-0.018": 0.0,
			"-0.017": 0.0,
			"-0.016": 0.0,
			"-0.015": 0.0,
			"-0.014": 0.0,
			"-0.013": 0.0,
			"-0.012": 0.0,
			"-0.011": 0.0,
			"-0.01": 0.0,
			"-0.009": 0.0,
			"-0.008": 0.0,
			"-0.007": 0.0,
			"-0.006": 0.0,
			"-0.005": 0.0,
			"-0.004": 0.0,
			"-0.003": 4.28149396013,
			"-0.002": 33.091685873,
			"-0.001": 49.2338445964,
			"0.0": 45.843122707,
			"0.001": 38.2648713909,
			"0.002": 40.8996608024,
			"0.003": 3.22489063328,
			"0.004": 0.0,
			"0.005": 0.0,
			"0.006": 0.0,
			"0.007": 0.0,
			"0.008": 0.0,
			"0.009": 0.0,
			"0.01": 0.0,
			"0.011": 0.0,
			"0.012": 0.0,
			"0.013": 0.0,
			"0.014": 0.0,
			"0.015": 0.0,
			"0.016": 0.0,
			"0.017": 0.0,
			"0.018": 0.0,
			"0.019": 0.0,
			"0.02": 0.0,
			"0.021": 0.0,
			"0.022": 0.0,
			"0.023": 0.0,
			"0.024": 0.0,
			"0.025": 0.0
		}
	}
}
