{
	 "smiles": "OC(=O)C1=NC=C(C=C1)C1=NC=CN=C1", 
	 "Tm": 473.15, 
	 "num_atms": 22, 
	 "gaussian": { 
		 "optdone": 1, 
		 "sigma_profile": "yes", 
		 "theory": "DFT", 
		 "functional": "B3LYP", 
		 "basiset": "6-31G**", 
		 "properties": { 
			 "R2extent": 4469.42, 
			 "electric_dipole_moment_norm": 5.71519930536, 
			 "electric_quadrupole_moment_norm": 16.4221123288, 
			 "total_energy": -699.987537216, 
			 "HOMO_LUMO_gap": 0.17559, 
			 "cosmo_polarized_energy": -14.35, 
			 "cosmo_cavitation_energy": 27.68, 
			 "cosmo_dispersion_energy": -20.73, 
			 "cosmo_repulsion_energy": 1.58, 
			 "cosmo_total_nonelectrostatic_energy": 8.54, 
			 "SMD_solvation_energy": 2.81 
		},
		"coords": [
			{
				"x": -4.3920821924,
				"y": -2.7087910637,
				"z": 0.3597201695,
				"element": "O" 
			},
			{
				"x": -3.5641061948,
				"y": -2.1197899692,
				"z": 1.2356739156,
				"element": "C" 
			},
			{
				"x": -3.7653623833,
				"y": -2.0946777495,
				"z": 2.4288257001,
				"element": "O" 
			},
			{
				"x": -2.3535688531,
				"y": -1.4882035121,
				"z": 0.5942126393,
				"element": "C" 
			},
			{
				"x": -2.2746636035,
				"y": -1.5988872109,
				"z": -0.7404995403,
				"element": "N" 
			},
			{
				"x": -1.2276259043,
				"y": -1.0524652064,
				"z": -1.360025724,
				"element": "C" 
			},
			{
				"x": -0.2072080565,
				"y": -0.3604463862,
				"z": -0.6855527886,
				"element": "C" 
			},
			{
				"x": -0.3005251316,
				"y": -0.2727015128,
				"z": 0.7131191505,
				"element": "C" 
			},
			{
				"x": -1.3876513488,
				"y": -0.8408554429,
				"z": 1.3650608047,
				"element": "C" 
			},
			{
				"x": 0.9415012194,
				"y": 0.2459178793,
				"z": -1.3994816874,
				"element": "C" 
			},
			{
				"x": 2.0380505596,
				"y": 0.5203241357,
				"z": -0.6695412301,
				"element": "N" 
			},
			{
				"x": 3.0767894251,
				"y": 1.0580633497,
				"z": -1.3088303088,
				"element": "C" 
			},
			{
				"x": 3.0440206736,
				"y": 1.3252536257,
				"z": -2.6797829519,
				"element": "C" 
			},
			{
				"x": 1.9536115085,
				"y": 1.0813793558,
				"z": -3.4141097221,
				"element": "N" 
			},
			{
				"x": 0.9097264462,
				"y": 0.5532984841,
				"z": -2.7719114831,
				"element": "C" 
			},
			{
				"x": -3.9901368112,
				"y": -2.5815811839,
				"z": -0.5251712753,
				"element": "H" 
			},
			{
				"x": -1.191691661,
				"y": -1.1906994735,
				"z": -2.437443499,
				"element": "H" 
			},
			{
				"x": 0.4835697061,
				"y": 0.2394656717,
				"z": 1.259503215,
				"element": "H" 
			},
			{
				"x": -1.5108166404,
				"y": -0.7964836608,
				"z": 2.4409428146,
				"element": "H" 
			},
			{
				"x": 3.9612616488,
				"y": 1.2809121082,
				"z": -0.7156077251,
				"element": "H" 
			},
			{
				"x": 3.9052735049,
				"y": 1.7488397982,
				"z": -3.1911490093,
				"element": "H" 
			},
			{
				"x": 0.0142340886,
				"y": 0.3880279635,
				"z": -3.3655514644,
				"element": "H" 
			}
		],
		 "valence_orbital": [ 
			{
				"type": "occ",
				"energy": -0.30578,
				"method": "rhf"
			},
			{
				"type": "occ",
				"energy": -0.30145,
				"method": "rhf"
			},
			{
				"type": "occ",
				"energy": -0.27007,
				"method": "rhf"
			},
			{
				"type": "occ",
				"energy": -0.2685,
				"method": "rhf"
			},
			{
				"type": "occ",
				"energy": -0.26672,
				"method": "rhf"
			},
			{
				"type": "unocc",
				"energy": -0.09113,
				"method": "rhf"
			},
			{
				"type": "unocc",
				"energy": -0.06358,
				"method": "rhf"
			},
			{
				"type": "unocc",
				"energy": -0.05029,
				"method": "rhf"
			},
			{
				"type": "unocc",
				"energy": -0.02448,
				"method": "rhf"
			},
			{
				"type": "unocc",
				"energy": 0.04874,
				"method": "rhf"
			}
		],
		"cosmo_sigma_profile": { 
			"-0.025": 0.0,
			"-0.024": 0.0,
			"-0.023": 0.0,
			"-0.022": 0.0,
			"-0.021": 0.0,
			"-0.02": 0.0,
			"-0.019": 0.0,
			"-0.018": 0.0,
			"-0.017": 0.0,
			"-0.016": 0.0,
			"-0.015": 0.0,
			"-0.014": 0.0171610893522,
			"-0.013": 0.359204487084,
			"-0.012": 0.256480606097,
			"-0.011": 0.715948423541,
			"-0.01": 2.34348004116,
			"-0.009": 3.34023184324,
			"-0.008": 8.08973950725,
			"-0.007": 11.5137918421,
			"-0.006": 11.339389606,
			"-0.005": 11.5212059981,
			"-0.004": 11.3516636836,
			"-0.003": 14.2460639329,
			"-0.002": 22.0746763694,
			"-0.001": 26.5490814276,
			"0.0": 19.0829354921,
			"0.001": 11.0465667552,
			"0.002": 8.84911651042,
			"0.003": 7.25444707503,
			"0.004": 6.90318831451,
			"0.005": 5.86816550056,
			"0.006": 6.30323008013,
			"0.007": 4.00777998773,
			"0.008": 4.29869748835,
			"0.009": 5.904134971,
			"0.01": 6.83553622773,
			"0.011": 6.63559263475,
			"0.012": 4.57461082069,
			"0.013": 1.63570542305,
			"0.014": 1.03284607958,
			"0.015": 0.327604081813,
			"0.016": 0.0,
			"0.017": 0.0,
			"0.018": 0.0,
			"0.019": 0.0,
			"0.02": 0.0,
			"0.021": 0.0,
			"0.022": 0.0,
			"0.023": 0.0,
			"0.024": 0.0,
			"0.025": 0.0
		}
	}
}
