{
	 "smiles": "CCOC(=O)C(C)(CC1=CC=NC=C1)C#N", 
	 "Tm": 330.15, 
	 "num_atms": 30, 
	 "gaussian": { 
		 "optdone": 1, 
		 "sigma_profile": "yes", 
		 "theory": "DFT", 
		 "functional": "B3LYP", 
		 "basiset": "6-31G**", 
		 "properties": { 
			 "R2extent": 4597.2795, 
			 "electric_dipole_moment_norm": 2.78869390755, 
			 "electric_quadrupole_moment_norm": 21.1681353709, 
			 "total_energy": -725.657189032, 
			 "HOMO_LUMO_gap": 0.22371, 
			 "cosmo_polarized_energy": -14.0, 
			 "cosmo_cavitation_energy": 34.4, 
			 "cosmo_dispersion_energy": -23.0, 
			 "cosmo_repulsion_energy": 1.84, 
			 "cosmo_total_nonelectrostatic_energy": 13.24, 
			 "SMD_solvation_energy": 6.74 
		},
		"coords": [
			{
				"x": 2.1273631716,
				"y": 2.9386023208,
				"z": 0.8768568666,
				"element": "C" 
			},
			{
				"x": 0.7531867193,
				"y": 2.3612898166,
				"z": 0.6030419953,
				"element": "C" 
			},
			{
				"x": 0.9232255202,
				"y": 1.2556899363,
				"z": -0.3257427448,
				"element": "O" 
			},
			{
				"x": -0.1957813868,
				"y": 0.6333005083,
				"z": -0.713249348,
				"element": "C" 
			},
			{
				"x": -1.3071616428,
				"y": 0.9180735673,
				"z": -0.3245965255,
				"element": "O" 
			},
			{
				"x": 0.1078970856,
				"y": -0.4721298297,
				"z": -1.762127321,
				"element": "C" 
			},
			{
				"x": 1.4008962902,
				"y": -1.2471939357,
				"z": -1.4146963399,
				"element": "C" 
			},
			{
				"x": -1.13369021,
				"y": -1.4114040779,
				"z": -1.9329427821,
				"element": "C" 
			},
			{
				"x": -1.3496783179,
				"y": -2.408498232,
				"z": -0.8124395571,
				"element": "C" 
			},
			{
				"x": -2.0218656833,
				"y": -2.0710398295,
				"z": 0.3696101251,
				"element": "C" 
			},
			{
				"x": -2.1978398206,
				"y": -3.0461011525,
				"z": 1.3520543769,
				"element": "C" 
			},
			{
				"x": -1.7628168707,
				"y": -4.3083571152,
				"z": 1.2447667012,
				"element": "N" 
			},
			{
				"x": -1.127911222,
				"y": -4.6288449116,
				"z": 0.1110043145,
				"element": "C" 
			},
			{
				"x": -0.9015597441,
				"y": -3.7300443289,
				"z": -0.9317954972,
				"element": "C" 
			},
			{
				"x": 0.3115363599,
				"y": 0.2377335787,
				"z": -3.0413392633,
				"element": "C" 
			},
			{
				"x": 0.4696063407,
				"y": 0.7834800752,
				"z": -4.053926111,
				"element": "N" 
			},
			{
				"x": 2.7866131607,
				"y": 2.1889451815,
				"z": 1.3234540998,
				"element": "H" 
			},
			{
				"x": 2.0400983325,
				"y": 3.7779824559,
				"z": 1.5734241924,
				"element": "H" 
			},
			{
				"x": 2.5893119955,
				"y": 3.3028323713,
				"z": -0.0448449171,
				"element": "H" 
			},
			{
				"x": 0.0775222081,
				"y": 3.0913941958,
				"z": 0.1482827151,
				"element": "H" 
			},
			{
				"x": 0.2731814613,
				"y": 1.9799304713,
				"z": 1.5091434658,
				"element": "H" 
			},
			{
				"x": 2.2559967342,
				"y": -0.572429775,
				"z": -1.3791114021,
				"element": "H" 
			},
			{
				"x": 1.5874934393,
				"y": -2.01413569,
				"z": -2.1708924288,
				"element": "H" 
			},
			{
				"x": 1.294660999,
				"y": -1.736171158,
				"z": -0.4441879302,
				"element": "H" 
			},
			{
				"x": -2.0145953047,
				"y": -0.7751531504,
				"z": -2.0451594847,
				"element": "H" 
			},
			{
				"x": -0.9964195702,
				"y": -1.9552771451,
				"z": -2.8721711594,
				"element": "H" 
			},
			{
				"x": -2.4010653782,
				"y": -1.0661997887,
				"z": 0.517477575,
				"element": "H" 
			},
			{
				"x": -2.7212562989,
				"y": -2.7979115111,
				"z": 2.2740382002,
				"element": "H" 
			},
			{
				"x": -0.7846450731,
				"y": -5.658794777,
				"z": 0.0268679468,
				"element": "H" 
			},
			{
				"x": -0.3895032949,
				"y": -4.0627680706,
				"z": -1.8306997625,
				"element": "H" 
			}
		],
		 "valence_orbital": [ 
			{
				"type": "occ",
				"energy": -0.32242,
				"method": "rhf"
			},
			{
				"type": "occ",
				"energy": -0.2942,
				"method": "rhf"
			},
			{
				"type": "occ",
				"energy": -0.28159,
				"method": "rhf"
			},
			{
				"type": "occ",
				"energy": -0.26552,
				"method": "rhf"
			},
			{
				"type": "occ",
				"energy": -0.25636,
				"method": "rhf"
			},
			{
				"type": "unocc",
				"energy": -0.03265,
				"method": "rhf"
			},
			{
				"type": "unocc",
				"energy": -0.02637,
				"method": "rhf"
			},
			{
				"type": "unocc",
				"energy": -0.01463,
				"method": "rhf"
			},
			{
				"type": "unocc",
				"energy": 0.0292,
				"method": "rhf"
			},
			{
				"type": "unocc",
				"energy": 0.04914,
				"method": "rhf"
			}
		],
		"cosmo_sigma_profile": { 
			"-0.025": 0.0,
			"-0.024": 0.0,
			"-0.023": 0.0,
			"-0.022": 0.0,
			"-0.021": 0.0,
			"-0.02": 0.0,
			"-0.019": 0.0,
			"-0.018": 0.0,
			"-0.017": 0.0,
			"-0.016": 0.0,
			"-0.015": 0.0,
			"-0.014": 0.0,
			"-0.013": 0.0,
			"-0.012": 0.0,
			"-0.011": 0.0,
			"-0.01": 0.0,
			"-0.009": 0.0,
			"-0.008": 0.816598038849,
			"-0.007": 6.81341249859,
			"-0.006": 15.9632307256,
			"-0.005": 26.9186378113,
			"-0.004": 27.9792371294,
			"-0.003": 28.0936146076,
			"-0.002": 24.3287526136,
			"-0.001": 21.9228157585,
			"0.0": 18.0945163077,
			"0.001": 14.7411846231,
			"0.002": 17.7381147094,
			"0.003": 13.3898595588,
			"0.004": 8.03787051859,
			"0.005": 6.00295790143,
			"0.006": 4.59995199308,
			"0.007": 5.62017937145,
			"0.008": 6.53107775657,
			"0.009": 6.50830351008,
			"0.01": 5.79849034132,
			"0.011": 4.71141005839,
			"0.012": 3.84147899407,
			"0.013": 1.57739746122,
			"0.014": 0.699691675485,
			"0.015": 0.908956955927,
			"0.016": 0.914138894292,
			"0.017": 0.446083281471,
			"0.018": 0.0124220351107,
			"0.019": 0.0,
			"0.02": 0.0,
			"0.021": 0.0,
			"0.022": 0.0,
			"0.023": 0.0,
			"0.024": 0.0,
			"0.025": 0.0
		}
	}
}
