{
	 "smiles": "CCC1SC(N)=NC1=O", 
	 "Tm": 462.15, 
	 "num_atms": 17, 
	 "gaussian": { 
		 "optdone": 1, 
		 "sigma_profile": "yes", 
		 "theory": "DFT", 
		 "functional": "B3LYP", 
		 "basiset": "6-31G**", 
		 "properties": { 
			 "R2extent": 1737.6263, 
			 "electric_dipole_moment_norm": 4.78000098536, 
			 "electric_quadrupole_moment_norm": 22.029414191, 
			 "total_energy": -778.286106405, 
			 "HOMO_LUMO_gap": 0.21963, 
			 "cosmo_polarized_energy": -17.26, 
			 "cosmo_cavitation_energy": 21.93, 
			 "cosmo_dispersion_energy": -16.68, 
			 "cosmo_repulsion_energy": 1.35, 
			 "cosmo_total_nonelectrostatic_energy": 6.59, 
			 "SMD_solvation_energy": 2.37 
		},
		"coords": [
			{
				"x": -1.1427477548,
				"y": -2.3002203783,
				"z": 0.3076041418,
				"element": "C" 
			},
			{
				"x": -1.2671749289,
				"y": -1.5381362239,
				"z": 1.6287241489,
				"element": "C" 
			},
			{
				"x": -1.2145753529,
				"y": -0.0063477653,
				"z": 1.5084386688,
				"element": "C" 
			},
			{
				"x": 0.3370816952,
				"y": 0.6767688852,
				"z": 0.7966141405,
				"element": "S" 
			},
			{
				"x": -0.6505598114,
				"y": 1.5286063618,
				"z": -0.4310456701,
				"element": "C" 
			},
			{
				"x": -0.0176201919,
				"y": 2.2945459781,
				"z": -1.3356470382,
				"element": "N" 
			},
			{
				"x": -1.9420007738,
				"y": 1.3896856392,
				"z": -0.4147384725,
				"element": "N" 
			},
			{
				"x": -2.3626442996,
				"y": 0.5496230259,
				"z": 0.6075807853,
				"element": "C" 
			},
			{
				"x": -3.5130057064,
				"y": 0.2320808339,
				"z": 0.8291964689,
				"element": "O" 
			},
			{
				"x": -0.1889395583,
				"y": -2.0949723713,
				"z": -0.1879534906,
				"element": "H" 
			},
			{
				"x": -1.2029280142,
				"y": -3.378232915,
				"z": 0.4855804386,
				"element": "H" 
			},
			{
				"x": -1.951634535,
				"y": -2.032079997,
				"z": -0.3790837514,
				"element": "H" 
			},
			{
				"x": -0.4967163327,
				"y": -1.8694436126,
				"z": 2.334255436,
				"element": "H" 
			},
			{
				"x": -2.2371062117,
				"y": -1.7572170648,
				"z": 2.0895991283,
				"element": "H" 
			},
			{
				"x": -1.3381035612,
				"y": 0.4366187739,
				"z": 2.5013833538,
				"element": "H" 
			},
			{
				"x": 0.9838462316,
				"y": 2.3936737863,
				"z": -1.3441474998,
				"element": "H" 
			},
			{
				"x": -0.5736708943,
				"y": 2.774347044,
				"z": -2.0270607881,
				"element": "H" 
			}
		],
		 "valence_orbital": [ 
			{
				"type": "occ",
				"energy": -0.33723,
				"method": "rhf"
			},
			{
				"type": "occ",
				"energy": -0.2818,
				"method": "rhf"
			},
			{
				"type": "occ",
				"energy": -0.27445,
				"method": "rhf"
			},
			{
				"type": "occ",
				"energy": -0.24878,
				"method": "rhf"
			},
			{
				"type": "occ",
				"energy": -0.2471,
				"method": "rhf"
			},
			{
				"type": "unocc",
				"energy": -0.02747,
				"method": "rhf"
			},
			{
				"type": "unocc",
				"energy": -0.00543,
				"method": "rhf"
			},
			{
				"type": "unocc",
				"energy": 0.05381,
				"method": "rhf"
			},
			{
				"type": "unocc",
				"energy": 0.0582,
				"method": "rhf"
			},
			{
				"type": "unocc",
				"energy": 0.08592,
				"method": "rhf"
			}
		],
		"cosmo_sigma_profile": { 
			"-0.025": 0.0,
			"-0.024": 0.0,
			"-0.023": 0.0,
			"-0.022": 0.0,
			"-0.021": 0.0,
			"-0.02": 0.0,
			"-0.019": 0.0,
			"-0.018": 0.0,
			"-0.017": 0.30678636449,
			"-0.016": 1.73084672042,
			"-0.015": 2.84237524507,
			"-0.014": 1.87374746883,
			"-0.013": 2.5306343093,
			"-0.012": 2.74726662038,
			"-0.011": 2.20132895511,
			"-0.01": 2.10696412144,
			"-0.009": 1.60843549481,
			"-0.008": 1.79573352272,
			"-0.007": 3.67342226554,
			"-0.006": 4.1385657044,
			"-0.005": 6.71312744128,
			"-0.004": 8.59693321122,
			"-0.003": 11.9961640925,
			"-0.002": 13.9274139051,
			"-0.001": 17.6270764656,
			"0.0": 17.1504008547,
			"0.001": 14.0259147788,
			"0.002": 9.67857985705,
			"0.003": 5.96988383544,
			"0.004": 4.88436803223,
			"0.005": 4.89040445637,
			"0.006": 3.5268404868,
			"0.007": 2.21129979785,
			"0.008": 2.08407713879,
			"0.009": 2.29930010578,
			"0.01": 2.21597422949,
			"0.011": 2.89771074745,
			"0.012": 4.92216732743,
			"0.013": 6.7181640449,
			"0.014": 3.73404400186,
			"0.015": 1.04270014621,
			"0.016": 0.0681231906707,
			"0.017": 0.0,
			"0.018": 0.0,
			"0.019": 0.0,
			"0.02": 0.0,
			"0.021": 0.0,
			"0.022": 0.0,
			"0.023": 0.0,
			"0.024": 0.0,
			"0.025": 0.0
		}
	}
}
