{
	 "smiles": "CC1=CC=C(C=C1)C1=CC=C(C=C1)S(Cl)(=O)=O", 
	 "Tm": 381.15, 
	 "num_atms": 28, 
	 "gaussian": { 
		 "optdone": 1, 
		 "sigma_profile": "yes", 
		 "theory": "DFT", 
		 "functional": "B3LYP", 
		 "basiset": "6-31G**", 
		 "properties": { 
			 "R2extent": 8309.3193, 
			 "electric_dipole_moment_norm": 7.22086142645, 
			 "electric_quadrupole_moment_norm": 19.225095116, 
			 "total_energy": -1510.78910521, 
			 "HOMO_LUMO_gap": 0.15524, 
			 "cosmo_polarized_energy": -10.35, 
			 "cosmo_cavitation_energy": 35.74, 
			 "cosmo_dispersion_energy": -26.38, 
			 "cosmo_repulsion_energy": 1.99, 
			 "cosmo_total_nonelectrostatic_energy": 11.35, 
			 "SMD_solvation_energy": 4.57 
		},
		"coords": [
			{
				"x": 0.894969018,
				"y": 2.5231351501,
				"z": 5.2392810518,
				"element": "C" 
			},
			{
				"x": 0.65361856,
				"y": 2.0060343418,
				"z": 3.8416978088,
				"element": "C" 
			},
			{
				"x": -0.5796646425,
				"y": 2.194390542,
				"z": 3.2031017394,
				"element": "C" 
			},
			{
				"x": -0.8159186308,
				"y": 1.6916052815,
				"z": 1.9264177612,
				"element": "C" 
			},
			{
				"x": 0.1803063402,
				"y": 0.9836987541,
				"z": 1.2334724337,
				"element": "C" 
			},
			{
				"x": 1.4188064682,
				"y": 0.7995506333,
				"z": 1.8705130703,
				"element": "C" 
			},
			{
				"x": 1.64728576,
				"y": 1.3009673614,
				"z": 3.1491960326,
				"element": "C" 
			},
			{
				"x": -0.0666918842,
				"y": 0.4524192863,
				"z": -0.1280978043,
				"element": "C" 
			},
			{
				"x": -1.3268976622,
				"y": -0.0663451125,
				"z": -0.4818261671,
				"element": "C" 
			},
			{
				"x": -1.5705237182,
				"y": -0.5644057565,
				"z": -1.757163324,
				"element": "C" 
			},
			{
				"x": -0.5324094594,
				"y": -0.5484851015,
				"z": -2.6901275314,
				"element": "C" 
			},
			{
				"x": 0.7316097825,
				"y": -0.0453794594,
				"z": -2.378343966,
				"element": "C" 
			},
			{
				"x": 0.9533914716,
				"y": 0.4510883207,
				"z": -1.0982880662,
				"element": "C" 
			},
			{
				"x": -0.825049443,
				"y": -1.20126108,
				"z": -4.3213474505,
				"element": "S" 
			},
			{
				"x": -1.5058114945,
				"y": 0.5402040064,
				"z": -5.3638103779,
				"element": "Cl" 
			},
			{
				"x": 0.4459697174,
				"y": -1.5634403211,
				"z": -4.936796413,
				"element": "O" 
			},
			{
				"x": -1.9613727635,
				"y": -2.1138696803,
				"z": -4.2845808578,
				"element": "O" 
			},
			{
				"x": 0.3066342231,
				"y": 3.4232967491,
				"z": 5.4402759754,
				"element": "H" 
			},
			{
				"x": 0.6120273931,
				"y": 1.7751662894,
				"z": 5.9906669491,
				"element": "H" 
			},
			{
				"x": 1.9500119163,
				"y": 2.7627758981,
				"z": 5.401389989,
				"element": "H" 
			},
			{
				"x": -1.363926248,
				"y": 2.7516182158,
				"z": 3.709309446,
				"element": "H" 
			},
			{
				"x": -1.7727285031,
				"y": 1.880116093,
				"z": 1.4483956711,
				"element": "H" 
			},
			{
				"x": 2.2018562054,
				"y": 0.2359288983,
				"z": 1.3718423501,
				"element": "H" 
			},
			{
				"x": 2.6129421774,
				"y": 1.1366788432,
				"z": 3.6207543168,
				"element": "H" 
			},
			{
				"x": -2.1164334972,
				"y": -0.1058451258,
				"z": 0.2613458522,
				"element": "H" 
			},
			{
				"x": -2.5369963653,
				"y": -0.9780365569,
				"z": -2.0223908139,
				"element": "H" 
			},
			{
				"x": 1.5187192834,
				"y": -0.0448264888,
				"z": -3.1239570086,
				"element": "H" 
			},
			{
				"x": 1.9254759956,
				"y": 0.8659200182,
				"z": -0.8529306669,
				"element": "H" 
			}
		],
		 "valence_orbital": [ 
			{
				"type": "occ",
				"energy": -0.30808,
				"method": "rhf"
			},
			{
				"type": "occ",
				"energy": -0.29576,
				"method": "rhf"
			},
			{
				"type": "occ",
				"energy": -0.28436,
				"method": "rhf"
			},
			{
				"type": "occ",
				"energy": -0.26623,
				"method": "rhf"
			},
			{
				"type": "occ",
				"energy": -0.24352,
				"method": "rhf"
			},
			{
				"type": "unocc",
				"energy": -0.08828,
				"method": "rhf"
			},
			{
				"type": "unocc",
				"energy": -0.05115,
				"method": "rhf"
			},
			{
				"type": "unocc",
				"energy": -0.0345,
				"method": "rhf"
			},
			{
				"type": "unocc",
				"energy": -0.01795,
				"method": "rhf"
			},
			{
				"type": "unocc",
				"energy": -0.0007,
				"method": "rhf"
			}
		],
		"cosmo_sigma_profile": { 
			"-0.025": 0.0,
			"-0.024": 0.0,
			"-0.023": 0.0,
			"-0.022": 0.0,
			"-0.021": 0.0,
			"-0.02": 0.0,
			"-0.019": 0.0,
			"-0.018": 0.0,
			"-0.017": 0.0,
			"-0.016": 0.0,
			"-0.015": 0.0,
			"-0.014": 0.0,
			"-0.013": 0.0,
			"-0.012": 0.0,
			"-0.011": 0.0,
			"-0.01": 0.0,
			"-0.009": 0.366967375053,
			"-0.008": 3.27238028228,
			"-0.007": 8.85601764674,
			"-0.006": 14.2911044877,
			"-0.005": 16.9967230765,
			"-0.004": 24.2769116244,
			"-0.003": 17.6707365454,
			"-0.002": 21.0155030892,
			"-0.001": 23.8348958956,
			"0.0": 27.7600790566,
			"0.001": 29.1622599847,
			"0.002": 23.5242282231,
			"0.003": 19.6825561204,
			"0.004": 20.4616330111,
			"0.005": 12.577677075,
			"0.006": 4.25963603319,
			"0.007": 5.8369259121,
			"0.008": 9.73913659688,
			"0.009": 5.38736141933,
			"0.01": 0.148419270845,
			"0.011": 0.0,
			"0.012": 0.0,
			"0.013": 0.0,
			"0.014": 0.0,
			"0.015": 0.0,
			"0.016": 0.0,
			"0.017": 0.0,
			"0.018": 0.0,
			"0.019": 0.0,
			"0.02": 0.0,
			"0.021": 0.0,
			"0.022": 0.0,
			"0.023": 0.0,
			"0.024": 0.0,
			"0.025": 0.0
		}
	}
}
