{
	 "smiles": "NC1=NC(CCl)=NC(N)=N1", 
	 "Tm": 495.15, 
	 "num_atms": 16, 
	 "gaussian": { 
		 "optdone": 1, 
		 "sigma_profile": "yes", 
		 "theory": "DFT", 
		 "functional": "B3LYP", 
		 "basiset": "6-31G**", 
		 "properties": { 
			 "R2extent": 2991.7954, 
			 "electric_dipole_moment_norm": 3.3833104528, 
			 "electric_quadrupole_moment_norm": 19.3482930756, 
			 "total_energy": -890.035241098, 
			 "HOMO_LUMO_gap": 0.20792, 
			 "cosmo_polarized_energy": -14.88, 
			 "cosmo_cavitation_energy": 22.65, 
			 "cosmo_dispersion_energy": -17.25, 
			 "cosmo_repulsion_energy": 1.46, 
			 "cosmo_total_nonelectrostatic_energy": 6.86, 
			 "SMD_solvation_energy": -0.82 
		},
		"coords": [
			{
				"x": 0.3286900259,
				"y": -1.9744858504,
				"z": 3.1666593985,
				"element": "N" 
			},
			{
				"x": 0.4592970252,
				"y": -1.7659772522,
				"z": 1.8347715206,
				"element": "C" 
			},
			{
				"x": 1.5062622575,
				"y": -1.0061686763,
				"z": 1.4394195115,
				"element": "N" 
			},
			{
				"x": 1.5688995164,
				"y": -0.8248781999,
				"z": 0.1200425218,
				"element": "C" 
			},
			{
				"x": 2.7245037633,
				"y": -0.0049392462,
				"z": -0.3939292974,
				"element": "C" 
			},
			{
				"x": 4.1554961053,
				"y": -1.0691306234,
				"z": -0.763683387,
				"element": "Cl" 
			},
			{
				"x": 0.716189918,
				"y": -1.291579721,
				"z": -0.7924388578,
				"element": "N" 
			},
			{
				"x": -0.2858153262,
				"y": -2.0352294802,
				"z": -0.2702042298,
				"element": "C" 
			},
			{
				"x": -1.1971451361,
				"y": -2.5258226955,
				"z": -1.1438542281,
				"element": "N" 
			},
			{
				"x": -0.462927881,
				"y": -2.314087887,
				"z": 1.0297408481,
				"element": "N" 
			},
			{
				"x": 1.083173866,
				"y": -1.6913284755,
				"z": 3.7697708055,
				"element": "H" 
			},
			{
				"x": -0.3583960096,
				"y": -2.636101595,
				"z": 3.487797885,
				"element": "H" 
			},
			{
				"x": 3.0556533645,
				"y": 0.706510285,
				"z": 0.3604916244,
				"element": "H" 
			},
			{
				"x": 2.4589157198,
				"y": 0.4901444766,
				"z": -1.3263032906,
				"element": "H" 
			},
			{
				"x": -1.0046812443,
				"y": -2.4458230855,
				"z": -2.1286012326,
				"element": "H" 
			},
			{
				"x": -1.8800159646,
				"y": -3.1860019736,
				"z": -0.8109795921,
				"element": "H" 
			}
		],
		 "valence_orbital": [ 
			{
				"type": "occ",
				"energy": -0.28901,
				"method": "rhf"
			},
			{
				"type": "occ",
				"energy": -0.26401,
				"method": "rhf"
			},
			{
				"type": "occ",
				"energy": -0.26076,
				"method": "rhf"
			},
			{
				"type": "occ",
				"energy": -0.25707,
				"method": "rhf"
			},
			{
				"type": "occ",
				"energy": -0.24356,
				"method": "rhf"
			},
			{
				"type": "unocc",
				"energy": -0.03564,
				"method": "rhf"
			},
			{
				"type": "unocc",
				"energy": 0.00537,
				"method": "rhf"
			},
			{
				"type": "unocc",
				"energy": 0.05108,
				"method": "rhf"
			},
			{
				"type": "unocc",
				"energy": 0.08621,
				"method": "rhf"
			},
			{
				"type": "unocc",
				"energy": 0.08759,
				"method": "rhf"
			}
		],
		"cosmo_sigma_profile": { 
			"-0.025": 0.0,
			"-0.024": 0.0,
			"-0.023": 0.0,
			"-0.022": 0.0,
			"-0.021": 0.0,
			"-0.02": 0.0,
			"-0.019": 0.0,
			"-0.018": 0.0,
			"-0.017": 0.0,
			"-0.016": 0.0,
			"-0.015": 0.635399768983,
			"-0.014": 3.73508615058,
			"-0.013": 4.25295057084,
			"-0.012": 3.21817216917,
			"-0.011": 4.04110434274,
			"-0.01": 4.24582956121,
			"-0.009": 3.75745040737,
			"-0.008": 4.89959843449,
			"-0.007": 6.02822577042,
			"-0.006": 6.42305443849,
			"-0.005": 6.3746989825,
			"-0.004": 6.361507117,
			"-0.003": 6.9272681129,
			"-0.002": 7.32001765282,
			"-0.001": 8.76966791297,
			"0.0": 9.12452472558,
			"0.001": 11.6377663018,
			"0.002": 11.3163330908,
			"0.003": 8.53592059838,
			"0.004": 11.302892929,
			"0.005": 13.4156422764,
			"0.006": 17.6920964878,
			"0.007": 5.44474662695,
			"0.008": 2.57852722607,
			"0.009": 3.17893190489,
			"0.01": 2.34601812317,
			"0.011": 3.01431757198,
			"0.012": 2.50067037942,
			"0.013": 2.35655027883,
			"0.014": 0.690382207415,
			"0.015": 0.0,
			"0.016": 0.0,
			"0.017": 0.0,
			"0.018": 0.0,
			"0.019": 0.0,
			"0.02": 0.0,
			"0.021": 0.0,
			"0.022": 0.0,
			"0.023": 0.0,
			"0.024": 0.0,
			"0.025": 0.0
		}
	}
}
