{
	 "smiles": "CC(C)(C)OC(=O)NCC(O)=O", 
	 "Tm": 361.35, 
	 "num_atms": 25, 
	 "gaussian": { 
		 "optdone": 1, 
		 "sigma_profile": "yes", 
		 "theory": "DFT", 
		 "functional": "B3LYP", 
		 "basiset": "6-31G**", 
		 "properties": { 
			 "R2extent": 3123.3966, 
			 "electric_dipole_moment_norm": 2.92589178713, 
			 "electric_quadrupole_moment_norm": 20.6995889392, 
			 "total_energy": -630.271501041, 
			 "HOMO_LUMO_gap": 0.27043, 
			 "cosmo_polarized_energy": -17.35, 
			 "cosmo_cavitation_energy": 28.28, 
			 "cosmo_dispersion_energy": -19.23, 
			 "cosmo_repulsion_energy": 1.56, 
			 "cosmo_total_nonelectrostatic_energy": 10.62, 
			 "SMD_solvation_energy": 7.24 
		},
		"coords": [
			{
				"x": -0.1597556109,
				"y": -1.0279500893,
				"z": 3.1761984989,
				"element": "C" 
			},
			{
				"x": -1.1886924866,
				"y": 0.030269564,
				"z": 2.7752066573,
				"element": "C" 
			},
			{
				"x": -0.7819943055,
				"y": 1.4169652889,
				"z": 3.2808055651,
				"element": "C" 
			},
			{
				"x": -2.5956072955,
				"y": -0.3694830756,
				"z": 3.227874349,
				"element": "C" 
			},
			{
				"x": -1.1174183217,
				"y": -0.0012320425,
				"z": 1.2959332688,
				"element": "O" 
			},
			{
				"x": -1.8935786882,
				"y": 0.7944318956,
				"z": 0.5421906699,
				"element": "C" 
			},
			{
				"x": -2.6989576991,
				"y": 1.6234173557,
				"z": 0.9207136227,
				"element": "O" 
			},
			{
				"x": -1.689522403,
				"y": 0.5125816359,
				"z": -0.8071608946,
				"element": "N" 
			},
			{
				"x": -0.5021856404,
				"y": -0.1796204874,
				"z": -1.3014547421,
				"element": "C" 
			},
			{
				"x": -0.6343648186,
				"y": -1.7107827503,
				"z": -1.3012254812,
				"element": "C" 
			},
			{
				"x": -1.8853264476,
				"y": -2.1776309052,
				"z": -1.1374770663,
				"element": "O" 
			},
			{
				"x": 0.3148541922,
				"y": -2.4331822034,
				"z": -1.4754257715,
				"element": "O" 
			},
			{
				"x": -0.4267987291,
				"y": -2.0043541516,
				"z": 2.762669524,
				"element": "H" 
			},
			{
				"x": -0.1174665933,
				"y": -1.1113048849,
				"z": 4.2660836343,
				"element": "H" 
			},
			{
				"x": 0.8356347827,
				"y": -0.7596440297,
				"z": 2.8108953131,
				"element": "H" 
			},
			{
				"x": 0.2069025255,
				"y": 1.6876762896,
				"z": 2.8976219161,
				"element": "H" 
			},
			{
				"x": -1.5027089158,
				"y": 2.1752346598,
				"z": 2.9734008231,
				"element": "H" 
			},
			{
				"x": -0.7287900343,
				"y": 1.4039024872,
				"z": 4.3740245806,
				"element": "H" 
			},
			{
				"x": -3.333806478,
				"y": 0.3715503985,
				"z": 2.9193996243,
				"element": "H" 
			},
			{
				"x": -2.6164044069,
				"y": -0.453030221,
				"z": 4.3190139657,
				"element": "H" 
			},
			{
				"x": -2.868013799,
				"y": -1.343154879,
				"z": 2.808808857,
				"element": "H" 
			},
			{
				"x": -2.10065183,
				"y": 1.2221355832,
				"z": -1.3982724495,
				"element": "H" 
			},
			{
				"x": -0.3285204621,
				"y": 0.1276940464,
				"z": -2.3371466378,
				"element": "H" 
			},
			{
				"x": 0.3925326781,
				"y": 0.0693304663,
				"z": -0.7266681657,
				"element": "H" 
			},
			{
				"x": -2.4634592129,
				"y": -1.4053199511,
				"z": -0.9944096611,
				"element": "H" 
			}
		],
		 "valence_orbital": [ 
			{
				"type": "occ",
				"energy": -0.31202,
				"method": "rhf"
			},
			{
				"type": "occ",
				"energy": -0.30897,
				"method": "rhf"
			},
			{
				"type": "occ",
				"energy": -0.29986,
				"method": "rhf"
			},
			{
				"type": "occ",
				"energy": -0.28367,
				"method": "rhf"
			},
			{
				"type": "occ",
				"energy": -0.26016,
				"method": "rhf"
			},
			{
				"type": "unocc",
				"energy": 0.01027,
				"method": "rhf"
			},
			{
				"type": "unocc",
				"energy": 0.02832,
				"method": "rhf"
			},
			{
				"type": "unocc",
				"energy": 0.05769,
				"method": "rhf"
			},
			{
				"type": "unocc",
				"energy": 0.08006,
				"method": "rhf"
			},
			{
				"type": "unocc",
				"energy": 0.09596,
				"method": "rhf"
			}
		],
		"cosmo_sigma_profile": { 
			"-0.025": 0.0,
			"-0.024": 0.0,
			"-0.023": 0.0,
			"-0.022": 0.0,
			"-0.021": 0.0,
			"-0.02": 0.0,
			"-0.019": 0.0,
			"-0.018": 0.0,
			"-0.017": 0.0,
			"-0.016": 0.0,
			"-0.015": 0.999900204806,
			"-0.014": 2.18268439715,
			"-0.013": 1.9659338825,
			"-0.012": 1.70553335414,
			"-0.011": 2.33756662956,
			"-0.01": 3.74549676463,
			"-0.009": 5.99529566211,
			"-0.008": 3.02198852017,
			"-0.007": 4.51612079717,
			"-0.006": 5.18958880904,
			"-0.005": 7.44139158396,
			"-0.004": 18.4595917826,
			"-0.003": 18.1225502661,
			"-0.002": 20.4806172178,
			"-0.001": 17.7040476632,
			"0.0": 26.8076689277,
			"0.001": 15.1985253733,
			"0.002": 7.47264050442,
			"0.003": 5.89488799739,
			"0.004": 4.48875354572,
			"0.005": 4.03702350603,
			"0.006": 3.32126612614,
			"0.007": 4.01133510322,
			"0.008": 4.04030775983,
			"0.009": 4.66973926417,
			"0.01": 6.44174648917,
			"0.011": 6.17068073991,
			"0.012": 8.85726109009,
			"0.013": 5.24859080586,
			"0.014": 0.306598427089,
			"0.015": 0.0,
			"0.016": 0.0,
			"0.017": 0.0,
			"0.018": 0.0,
			"0.019": 0.0,
			"0.02": 0.0,
			"0.021": 0.0,
			"0.022": 0.0,
			"0.023": 0.0,
			"0.024": 0.0,
			"0.025": 0.0
		}
	}
}
