{
	 "smiles": "OC(=O)C1=C(Cl)C(Cl)=C(Cl)C(Cl)=C1C(=O)NC1=CC=CC(Cl)=C1Cl", 
	 "Tm": 471.15, 
	 "num_atms": 29, 
	 "gaussian": { 
		 "optdone": 1, 
		 "sigma_profile": "yes", 
		 "theory": "DFT", 
		 "functional": "B3LYP", 
		 "basiset": "6-31G**", 
		 "properties": { 
			 "R2extent": 14073.82, 
			 "electric_dipole_moment_norm": 3.87909224175, 
			 "electric_quadrupole_moment_norm": 24.3114451276, 
			 "total_energy": -3578.06400533, 
			 "HOMO_LUMO_gap": 0.1918, 
			 "cosmo_polarized_energy": -18.72, 
			 "cosmo_cavitation_energy": 45.09, 
			 "cosmo_dispersion_energy": -31.79, 
			 "cosmo_repulsion_energy": 2.4, 
			 "cosmo_total_nonelectrostatic_energy": 15.7, 
			 "SMD_solvation_energy": 7.66 
		},
		"coords": [
			{
				"x": 0.2311776472,
				"y": -3.147564638,
				"z": -0.9928591291,
				"element": "O" 
			},
			{
				"x": -1.0651736029,
				"y": -2.9830334641,
				"z": -0.7092257833,
				"element": "C" 
			},
			{
				"x": -1.938730207,
				"y": -3.3786447077,
				"z": -1.4415053937,
				"element": "O" 
			},
			{
				"x": -1.4098082139,
				"y": -2.2872062928,
				"z": 0.6073102701,
				"element": "C" 
			},
			{
				"x": -2.1999723456,
				"y": -2.9663413152,
				"z": 1.5473873109,
				"element": "C" 
			},
			{
				"x": -2.6048976012,
				"y": -4.637653076,
				"z": 1.2984463295,
				"element": "Cl" 
			},
			{
				"x": -2.6381876741,
				"y": -2.3184051987,
				"z": 2.7148787398,
				"element": "C" 
			},
			{
				"x": -3.5974484845,
				"y": -3.1696018036,
				"z": 3.8800431666,
				"element": "Cl" 
			},
			{
				"x": -2.2978859484,
				"y": -0.9731456768,
				"z": 2.9386243476,
				"element": "C" 
			},
			{
				"x": -2.8450746874,
				"y": -0.1627232205,
				"z": 4.3694499866,
				"element": "Cl" 
			},
			{
				"x": -1.5008168891,
				"y": -0.2962861861,
				"z": 2.0023332896,
				"element": "C" 
			},
			{
				"x": -1.043896239,
				"y": 1.3607642664,
				"z": 2.3006031568,
				"element": "Cl" 
			},
			{
				"x": -1.0519575329,
				"y": -0.9464413911,
				"z": 0.8449176794,
				"element": "C" 
			},
			{
				"x": -0.0793510317,
				"y": -0.2845516282,
				"z": -0.1144468754,
				"element": "C" 
			},
			{
				"x": 1.0618904222,
				"y": -0.7227227053,
				"z": -0.2344428962,
				"element": "O" 
			},
			{
				"x": -0.5685207198,
				"y": 0.7480895585,
				"z": -0.8517756923,
				"element": "N" 
			},
			{
				"x": 0.1529174559,
				"y": 1.3824152003,
				"z": -1.9095172457,
				"element": "C" 
			},
			{
				"x": -0.2744550066,
				"y": 1.1677414159,
				"z": -3.2214330237,
				"element": "C" 
			},
			{
				"x": 0.3777867937,
				"y": 1.7852729183,
				"z": -4.2850844856,
				"element": "C" 
			},
			{
				"x": 1.4714550274,
				"y": 2.6118238604,
				"z": -4.0442531026,
				"element": "C" 
			},
			{
				"x": 1.9063165125,
				"y": 2.8320782939,
				"z": -2.7362748446,
				"element": "C" 
			},
			{
				"x": 3.2751979752,
				"y": 3.8840789452,
				"z": -2.4822995276,
				"element": "Cl" 
			},
			{
				"x": 1.2465016682,
				"y": 2.2298605702,
				"z": -1.6527980033,
				"element": "C" 
			},
			{
				"x": 1.7501957053,
				"y": 2.542009662,
				"z": -0.0213626985,
				"element": "Cl" 
			},
			{
				"x": 0.7893141741,
				"y": -2.5419100137,
				"z": -0.4603438999,
				"element": "H" 
			},
			{
				"x": -1.5328559001,
				"y": 1.0175397762,
				"z": -0.7105940149,
				"element": "H" 
			},
			{
				"x": -1.1120820976,
				"y": 0.4999045581,
				"z": -3.394646867,
				"element": "H" 
			},
			{
				"x": 0.0437435183,
				"y": 1.6129142419,
				"z": -5.3026806223,
				"element": "H" 
			},
			{
				"x": 1.9983172817,
				"y": 3.0921380504,
				"z": -4.8608501714,
				"element": "H" 
			}
		],
		 "valence_orbital": [ 
			{
				"type": "occ",
				"energy": -0.29181,
				"method": "rhf"
			},
			{
				"type": "occ",
				"energy": -0.27752,
				"method": "rhf"
			},
			{
				"type": "occ",
				"energy": -0.27421,
				"method": "rhf"
			},
			{
				"type": "occ",
				"energy": -0.27002,
				"method": "rhf"
			},
			{
				"type": "occ",
				"energy": -0.26583,
				"method": "rhf"
			},
			{
				"type": "unocc",
				"energy": -0.07403,
				"method": "rhf"
			},
			{
				"type": "unocc",
				"energy": -0.06741,
				"method": "rhf"
			},
			{
				"type": "unocc",
				"energy": -0.0474,
				"method": "rhf"
			},
			{
				"type": "unocc",
				"energy": -0.04456,
				"method": "rhf"
			},
			{
				"type": "unocc",
				"energy": -0.04101,
				"method": "rhf"
			}
		],
		"cosmo_sigma_profile": { 
			"-0.025": 0.0,
			"-0.024": 0.0,
			"-0.023": 0.0,
			"-0.022": 0.0,
			"-0.021": 0.0,
			"-0.02": 0.0,
			"-0.019": 0.0,
			"-0.018": 0.0108625734461,
			"-0.017": 0.752320086553,
			"-0.016": 1.10112631295,
			"-0.015": 1.49801475186,
			"-0.014": 0.694357309568,
			"-0.013": 1.93592596348,
			"-0.012": 1.47817900464,
			"-0.011": 1.77816113868,
			"-0.01": 1.97832555242,
			"-0.009": 3.02468305843,
			"-0.008": 8.37176988212,
			"-0.007": 10.5811227127,
			"-0.006": 11.1561019366,
			"-0.005": 10.6320298874,
			"-0.004": 19.9418068959,
			"-0.003": 30.7341529814,
			"-0.002": 23.5472910965,
			"-0.001": 27.7248698746,
			"0.0": 34.0162328971,
			"0.001": 38.1823778991,
			"0.002": 46.5075170984,
			"0.003": 39.205790313,
			"0.004": 16.1648535057,
			"0.005": 7.50440572347,
			"0.006": 5.4572984084,
			"0.007": 5.24418733961,
			"0.008": 5.68973900518,
			"0.009": 6.81562406144,
			"0.01": 8.04012745206,
			"0.011": 5.54456932104,
			"0.012": 1.1899838413,
			"0.013": 0.0,
			"0.014": 0.0,
			"0.015": 0.0,
			"0.016": 0.0,
			"0.017": 0.0,
			"0.018": 0.0,
			"0.019": 0.0,
			"0.02": 0.0,
			"0.021": 0.0,
			"0.022": 0.0,
			"0.023": 0.0,
			"0.024": 0.0,
			"0.025": 0.0
		}
	}
}
