{
	 "smiles": "COC(=O)C1=CC(C)=C(Br)S1", 
	 "Tm": 309.15, 
	 "num_atms": 18, 
	 "gaussian": { 
		 "optdone": 1, 
		 "sigma_profile": "yes", 
		 "theory": "DFT", 
		 "functional": "B3LYP", 
		 "basiset": "6-31G**", 
		 "properties": { 
			 "R2extent": 4941.1164, 
			 "electric_dipole_moment_norm": 0.342189026709, 
			 "electric_quadrupole_moment_norm": 12.5311861442, 
			 "total_energy": -3390.99958649, 
			 "HOMO_LUMO_gap": 0.17649, 
			 "cosmo_polarized_energy": -6.63, 
			 "cosmo_cavitation_energy": 26.61, 
			 "cosmo_dispersion_energy": -20.2, 
			 "cosmo_repulsion_energy": 1.59, 
			 "cosmo_total_nonelectrostatic_energy": 8.0, 
			 "SMD_solvation_energy": 4.92 
		},
		"coords": [
			{
				"x": 3.0164058733,
				"y": -1.9913356485,
				"z": -0.8775573839,
				"element": "C" 
			},
			{
				"x": 1.9677920456,
				"y": -1.0614194829,
				"z": -1.1912976071,
				"element": "O" 
			},
			{
				"x": 1.0475814383,
				"y": -0.8754242999,
				"z": -0.2157466554,
				"element": "C" 
			},
			{
				"x": 1.0757794609,
				"y": -1.4380602308,
				"z": 0.8612399534,
				"element": "O" 
			},
			{
				"x": 0.0152876022,
				"y": 0.0887964204,
				"z": -0.6199254031,
				"element": "C" 
			},
			{
				"x": -1.0493432911,
				"y": 0.4834575916,
				"z": 0.153914538,
				"element": "C" 
			},
			{
				"x": -1.9097455225,
				"y": 1.4320524701,
				"z": -0.4706130407,
				"element": "C" 
			},
			{
				"x": -3.1408655355,
				"y": 2.0217602478,
				"z": 0.1596929359,
				"element": "C" 
			},
			{
				"x": -1.4475316576,
				"y": 1.7280701694,
				"z": -1.7344000332,
				"element": "C" 
			},
			{
				"x": -2.2480503152,
				"y": 2.9294280251,
				"z": -2.9480997256,
				"element": "Br" 
			},
			{
				"x": 0.001489939,
				"y": 0.8820004905,
				"z": -2.1743903885,
				"element": "S" 
			},
			{
				"x": 2.602421257,
				"y": -2.9814774719,
				"z": -0.6708195233,
				"element": "H" 
			},
			{
				"x": 3.5791679871,
				"y": -1.6548292082,
				"z": -0.0031584533,
				"element": "H" 
			},
			{
				"x": 3.6570748053,
				"y": -2.0196999264,
				"z": -1.7584213221,
				"element": "H" 
			},
			{
				"x": -1.2015296796,
				"y": 0.0920628339,
				"z": 1.153477646,
				"element": "H" 
			},
			{
				"x": -3.0673902563,
				"y": 3.1120473606,
				"z": 0.2318576383,
				"element": "H" 
			},
			{
				"x": -3.2879262595,
				"y": 1.6234381335,
				"z": 1.1663499527,
				"element": "H" 
			},
			{
				"x": -4.0360178914,
				"y": 1.7972325257,
				"z": -0.4299031281,
				"element": "H" 
			}
		],
		 "valence_orbital": [ 
			{
				"type": "occ",
				"energy": -0.30631,
				"method": "rhf"
			},
			{
				"type": "occ",
				"energy": -0.3037,
				"method": "rhf"
			},
			{
				"type": "occ",
				"energy": -0.27945,
				"method": "rhf"
			},
			{
				"type": "occ",
				"energy": -0.26255,
				"method": "rhf"
			},
			{
				"type": "occ",
				"energy": -0.23558,
				"method": "rhf"
			},
			{
				"type": "unocc",
				"energy": -0.05909,
				"method": "rhf"
			},
			{
				"type": "unocc",
				"energy": -0.00643,
				"method": "rhf"
			},
			{
				"type": "unocc",
				"energy": 0.01863,
				"method": "rhf"
			},
			{
				"type": "unocc",
				"energy": 0.02462,
				"method": "rhf"
			},
			{
				"type": "unocc",
				"energy": 0.09092,
				"method": "rhf"
			}
		],
		"cosmo_sigma_profile": { 
			"-0.025": 0.0,
			"-0.024": 0.0,
			"-0.023": 0.0,
			"-0.022": 0.0,
			"-0.021": 0.0,
			"-0.02": 0.0,
			"-0.019": 0.0,
			"-0.018": 0.0,
			"-0.017": 0.0,
			"-0.016": 0.0,
			"-0.015": 0.0,
			"-0.014": 0.0,
			"-0.013": 0.0,
			"-0.012": 0.0,
			"-0.011": 0.0,
			"-0.01": 0.0,
			"-0.009": 0.0,
			"-0.008": 0.740859527772,
			"-0.007": 2.92651703212,
			"-0.006": 9.06071785937,
			"-0.005": 14.1062151139,
			"-0.004": 15.7307854551,
			"-0.003": 18.3475360403,
			"-0.002": 18.5181543117,
			"-0.001": 21.937535478,
			"0.0": 20.211458042,
			"0.001": 28.9230447326,
			"0.002": 24.1908689455,
			"0.003": 17.0177202097,
			"0.004": 5.40012084087,
			"0.005": 4.04779753979,
			"0.006": 3.01878998294,
			"0.007": 1.22351808712,
			"0.008": 1.02910035855,
			"0.009": 1.81969229767,
			"0.01": 1.88636005117,
			"0.011": 3.83205916338,
			"0.012": 3.73678297013,
			"0.013": 0.0552767723003,
			"0.014": 0.0,
			"0.015": 0.0,
			"0.016": 0.0,
			"0.017": 0.0,
			"0.018": 0.0,
			"0.019": 0.0,
			"0.02": 0.0,
			"0.021": 0.0,
			"0.022": 0.0,
			"0.023": 0.0,
			"0.024": 0.0,
			"0.025": 0.0
		}
	}
}
