{
	 "smiles": "ClCC(=O)NCC1=CC=C(Cl)C=C1", 
	 "Tm": 381.15, 
	 "num_atms": 22, 
	 "gaussian": { 
		 "optdone": 1, 
		 "sigma_profile": "yes", 
		 "theory": "DFT", 
		 "functional": "B3LYP", 
		 "basiset": "6-31G**", 
		 "properties": { 
			 "R2extent": 5202.919, 
			 "electric_dipole_moment_norm": 2.15013166108, 
			 "electric_quadrupole_moment_norm": 10.2035036904, 
			 "total_energy": -1398.76368014, 
			 "HOMO_LUMO_gap": 0.2238, 
			 "cosmo_polarized_energy": -11.49, 
			 "cosmo_cavitation_energy": 29.93, 
			 "cosmo_dispersion_energy": -21.89, 
			 "cosmo_repulsion_energy": 1.77, 
			 "cosmo_total_nonelectrostatic_energy": 9.81, 
			 "SMD_solvation_energy": 4.44 
		},
		"coords": [
			{
				"x": 1.662363202,
				"y": -2.7901360049,
				"z": 2.1551090189,
				"element": "Cl" 
			},
			{
				"x": -0.1079797211,
				"y": -2.8338264376,
				"z": 2.5599261858,
				"element": "C" 
			},
			{
				"x": -0.8515939162,
				"y": -1.4962504843,
				"z": 2.554064583,
				"element": "C" 
			},
			{
				"x": -2.0481426944,
				"y": -1.5233184581,
				"z": 2.8250833018,
				"element": "O" 
			},
			{
				"x": -0.1507354295,
				"y": -0.3760742806,
				"z": 2.2671036085,
				"element": "N" 
			},
			{
				"x": -0.7893014336,
				"y": 0.9391545723,
				"z": 2.2192773096,
				"element": "C" 
			},
			{
				"x": -1.2144139276,
				"y": 1.3586986734,
				"z": 0.8245544564,
				"element": "C" 
			},
			{
				"x": -0.5340024516,
				"y": 2.367248334,
				"z": 0.1358348794,
				"element": "C" 
			},
			{
				"x": -0.918490356,
				"y": 2.7481871255,
				"z": -1.151419117,
				"element": "C" 
			},
			{
				"x": -1.9986261943,
				"y": 2.1042574644,
				"z": -1.7502133234,
				"element": "C" 
			},
			{
				"x": -2.4947232785,
				"y": 2.5733408442,
				"z": -3.3708308329,
				"element": "Cl" 
			},
			{
				"x": -2.696804194,
				"y": 1.0950240283,
				"z": -1.0845299323,
				"element": "C" 
			},
			{
				"x": -2.301377107,
				"y": 0.7291284573,
				"z": 0.2001338432,
				"element": "C" 
			},
			{
				"x": -0.2010028874,
				"y": -3.2720312819,
				"z": 3.5538068398,
				"element": "H" 
			},
			{
				"x": -0.5860502708,
				"y": -3.4951571772,
				"z": 1.8371595015,
				"element": "H" 
			},
			{
				"x": 0.8115358707,
				"y": -0.4711715118,
				"z": 1.9738576797,
				"element": "H" 
			},
			{
				"x": -1.6584604191,
				"y": 0.8801032078,
				"z": 2.8791432582,
				"element": "H" 
			},
			{
				"x": -0.0926777283,
				"y": 1.6715806263,
				"z": 2.6386721771,
				"element": "H" 
			},
			{
				"x": 0.3072742628,
				"y": 2.8703159568,
				"z": 0.6065992452,
				"element": "H" 
			},
			{
				"x": -0.3889748949,
				"y": 3.5321864713,
				"z": -1.6813115292,
				"element": "H" 
			},
			{
				"x": -3.5392709807,
				"y": 0.6099972673,
				"z": -1.5652058747,
				"element": "H" 
			},
			{
				"x": -2.8386454504,
				"y": -0.0520573928,
				"z": 0.7302847211,
				"element": "H" 
			}
		],
		 "valence_orbital": [ 
			{
				"type": "occ",
				"energy": -0.31382,
				"method": "rhf"
			},
			{
				"type": "occ",
				"energy": -0.27415,
				"method": "rhf"
			},
			{
				"type": "occ",
				"energy": -0.26758,
				"method": "rhf"
			},
			{
				"type": "occ",
				"energy": -0.265,
				"method": "rhf"
			},
			{
				"type": "occ",
				"energy": -0.2459,
				"method": "rhf"
			},
			{
				"type": "unocc",
				"energy": -0.0221,
				"method": "rhf"
			},
			{
				"type": "unocc",
				"energy": -0.01746,
				"method": "rhf"
			},
			{
				"type": "unocc",
				"energy": 0.00877,
				"method": "rhf"
			},
			{
				"type": "unocc",
				"energy": 0.01176,
				"method": "rhf"
			},
			{
				"type": "unocc",
				"energy": 0.0286,
				"method": "rhf"
			}
		],
		"cosmo_sigma_profile": { 
			"-0.025": 0.0,
			"-0.024": 0.0,
			"-0.023": 0.0,
			"-0.022": 0.0,
			"-0.021": 0.0,
			"-0.02": 0.0,
			"-0.019": 0.0,
			"-0.018": 0.0,
			"-0.017": 0.0,
			"-0.016": 0.0,
			"-0.015": 0.0,
			"-0.014": 0.071811797395,
			"-0.013": 0.595304586714,
			"-0.012": 1.10157641433,
			"-0.011": 0.51850159874,
			"-0.01": 0.857971625531,
			"-0.009": 3.89173504289,
			"-0.008": 5.88262524331,
			"-0.007": 10.7923982086,
			"-0.006": 13.8960348009,
			"-0.005": 14.910356153,
			"-0.004": 14.659157148,
			"-0.003": 12.0401058613,
			"-0.002": 13.3718889882,
			"-0.001": 14.6595788197,
			"0.0": 17.4666951933,
			"0.001": 18.1589255995,
			"0.002": 20.5703300021,
			"0.003": 21.5918504321,
			"0.004": 23.3109562928,
			"0.005": 16.4495745291,
			"0.006": 5.00985759548,
			"0.007": 1.06061719873,
			"0.008": 0.826496458657,
			"0.009": 0.883928828932,
			"0.01": 1.13678070226,
			"0.011": 2.05715840433,
			"0.012": 1.72521344603,
			"0.013": 4.17265401562,
			"0.014": 1.56330510404,
			"0.015": 0.00134105748377,
			"0.016": 0.0,
			"0.017": 0.0,
			"0.018": 0.0,
			"0.019": 0.0,
			"0.02": 0.0,
			"0.021": 0.0,
			"0.022": 0.0,
			"0.023": 0.0,
			"0.024": 0.0,
			"0.025": 0.0
		}
	}
}
