{
	 "smiles": "NC(=S)C1=CC=CN1", 
	 "Tm": 435.15, 
	 "num_atms": 14, 
	 "gaussian": { 
		 "optdone": 1, 
		 "sigma_profile": "yes", 
		 "theory": "DFT", 
		 "functional": "B3LYP", 
		 "basiset": "6-31G**", 
		 "properties": { 
			 "R2extent": 1422.4789, 
			 "electric_dipole_moment_norm": 3.57043686683, 
			 "electric_quadrupole_moment_norm": 19.5235946204, 
			 "total_energy": -701.844957005, 
			 "HOMO_LUMO_gap": 0.16121, 
			 "cosmo_polarized_energy": -15.04, 
			 "cosmo_cavitation_energy": 19.63, 
			 "cosmo_dispersion_energy": -15.36, 
			 "cosmo_repulsion_energy": 1.23, 
			 "cosmo_total_nonelectrostatic_energy": 5.5, 
			 "SMD_solvation_energy": 2.75 
		},
		"coords": [
			{
				"x": 0.7523032863,
				"y": 1.0480600536,
				"z": 2.343933318,
				"element": "N" 
			},
			{
				"x": 1.1594871969,
				"y": 1.1465304988,
				"z": 1.0597853366,
				"element": "C" 
			},
			{
				"x": 2.2497204559,
				"y": 2.3351897778,
				"z": 0.5774334659,
				"element": "S" 
			},
			{
				"x": 0.6066826675,
				"y": 0.1758589508,
				"z": 0.1315587594,
				"element": "C" 
			},
			{
				"x": -0.2934045619,
				"y": -0.882692612,
				"z": 0.2842240002,
				"element": "C" 
			},
			{
				"x": -0.4621361901,
				"y": -1.486467921,
				"z": -0.9797750862,
				"element": "C" 
			},
			{
				"x": 0.3358624333,
				"y": -0.7870992682,
				"z": -1.8769106942,
				"element": "C" 
			},
			{
				"x": 0.9677008035,
				"y": 0.2029108598,
				"z": -1.1959882187,
				"element": "N" 
			},
			{
				"x": 0.1006537398,
				"y": 0.3425609129,
				"z": 2.6503755347,
				"element": "H" 
			},
			{
				"x": 1.1162383135,
				"y": 1.7057411766,
				"z": 3.0156948517,
				"element": "H" 
			},
			{
				"x": -0.7770219089,
				"y": -1.1891732396,
				"z": 1.2020778281,
				"element": "H" 
			},
			{
				"x": -1.090491397,
				"y": -2.3330853564,
				"z": -1.2169302985,
				"element": "H" 
			},
			{
				"x": 0.4911381436,
				"y": -0.928565654,
				"z": -2.9363105845,
				"element": "H" 
			},
			{
				"x": 1.6200670175,
				"y": 0.894931821,
				"z": -1.5457682126,
				"element": "H" 
			}
		],
		 "valence_orbital": [ 
			{
				"type": "occ",
				"energy": -0.35472,
				"method": "rhf"
			},
			{
				"type": "occ",
				"energy": -0.2601,
				"method": "rhf"
			},
			{
				"type": "occ",
				"energy": -0.24166,
				"method": "rhf"
			},
			{
				"type": "occ",
				"energy": -0.21292,
				"method": "rhf"
			},
			{
				"type": "occ",
				"energy": -0.21208,
				"method": "rhf"
			},
			{
				"type": "unocc",
				"energy": -0.05087,
				"method": "rhf"
			},
			{
				"type": "unocc",
				"energy": 0.051,
				"method": "rhf"
			},
			{
				"type": "unocc",
				"energy": 0.06029,
				"method": "rhf"
			},
			{
				"type": "unocc",
				"energy": 0.08758,
				"method": "rhf"
			},
			{
				"type": "unocc",
				"energy": 0.09838,
				"method": "rhf"
			}
		],
		"cosmo_sigma_profile": { 
			"-0.025": 0.0,
			"-0.024": 0.0,
			"-0.023": 0.0,
			"-0.022": 0.0,
			"-0.021": 0.0,
			"-0.02": 0.0,
			"-0.019": 0.0,
			"-0.018": 0.0,
			"-0.017": 0.0,
			"-0.016": 0.154050725115,
			"-0.015": 1.53796367758,
			"-0.014": 3.01957760711,
			"-0.013": 3.49753403422,
			"-0.012": 3.35688819051,
			"-0.011": 2.91818482964,
			"-0.01": 2.64979577081,
			"-0.009": 4.31286252266,
			"-0.008": 5.08460066445,
			"-0.007": 5.40449889054,
			"-0.006": 6.02241328216,
			"-0.005": 6.37114569755,
			"-0.004": 5.90034974864,
			"-0.003": 7.12590560508,
			"-0.002": 6.24542346299,
			"-0.001": 5.05959484731,
			"0.0": 5.95202021344,
			"0.001": 8.13276571836,
			"0.002": 9.788375834,
			"0.003": 10.8564686646,
			"0.004": 11.2792468558,
			"0.005": 8.98564769835,
			"0.006": 9.25765947875,
			"0.007": 4.24504448309,
			"0.008": 3.90151983845,
			"0.009": 5.30594708393,
			"0.01": 6.99863519504,
			"0.011": 3.75909239718,
			"0.012": 2.32414184124,
			"0.013": 0.177112995438,
			"0.014": 0.0,
			"0.015": 0.0,
			"0.016": 0.0,
			"0.017": 0.0,
			"0.018": 0.0,
			"0.019": 0.0,
			"0.02": 0.0,
			"0.021": 0.0,
			"0.022": 0.0,
			"0.023": 0.0,
			"0.024": 0.0,
			"0.025": 0.0
		}
	}
}
