{
	 "smiles": "OC(=O)CC1=CC(OCC2=CC(Cl)=CC=C2)=CC=C1", 
	 "Tm": 368.15, 
	 "num_atms": 32, 
	 "gaussian": { 
		 "optdone": 1, 
		 "sigma_profile": "yes", 
		 "theory": "DFT", 
		 "functional": "B3LYP", 
		 "basiset": "6-31G**", 
		 "properties": { 
			 "R2extent": 8624.2557, 
			 "electric_dipole_moment_norm": 1.06944113442, 
			 "electric_quadrupole_moment_norm": 15.097623151, 
			 "total_energy": -1265.30535199, 
			 "HOMO_LUMO_gap": 0.20284, 
			 "cosmo_polarized_energy": -13.87, 
			 "cosmo_cavitation_energy": 39.0, 
			 "cosmo_dispersion_energy": -27.28, 
			 "cosmo_repulsion_energy": 2.15, 
			 "cosmo_total_nonelectrostatic_energy": 13.86, 
			 "SMD_solvation_energy": 7.43 
		},
		"coords": [
			{
				"x": -3.8387396425,
				"y": 0.0104459934,
				"z": -4.3547884461,
				"element": "O" 
			},
			{
				"x": -3.9799065531,
				"y": 0.6955125036,
				"z": -3.1958048214,
				"element": "C" 
			},
			{
				"x": -3.6783966794,
				"y": 1.8636716957,
				"z": -3.0844985558,
				"element": "O" 
			},
			{
				"x": -4.5165207254,
				"y": -0.1804922877,
				"z": -2.0785709456,
				"element": "C" 
			},
			{
				"x": -3.383945899,
				"y": -0.7588256465,
				"z": -1.241440618,
				"element": "C" 
			},
			{
				"x": -2.5403232579,
				"y": 0.0947204637,
				"z": -0.5289355479,
				"element": "C" 
			},
			{
				"x": -1.5012053847,
				"y": -0.424236387,
				"z": 0.2525042926,
				"element": "C" 
			},
			{
				"x": -0.7488149291,
				"y": 0.5125630729,
				"z": 0.9150372202,
				"element": "O" 
			},
			{
				"x": 0.2376164011,
				"y": 0.082565448,
				"z": 1.844995587,
				"element": "C" 
			},
			{
				"x": 1.534002235,
				"y": -0.380194021,
				"z": 1.2037989076,
				"element": "C" 
			},
			{
				"x": 2.3468767662,
				"y": -1.2987548776,
				"z": 1.8769866164,
				"element": "C" 
			},
			{
				"x": 3.5667685777,
				"y": -1.676453656,
				"z": 1.3182470187,
				"element": "C" 
			},
			{
				"x": 4.5797526851,
				"y": -2.8333763846,
				"z": 2.1737931788,
				"element": "Cl" 
			},
			{
				"x": 3.9949522164,
				"y": -1.1652099951,
				"z": 0.0943668261,
				"element": "C" 
			},
			{
				"x": 3.1745084368,
				"y": -0.2534497396,
				"z": -0.5721530308,
				"element": "C" 
			},
			{
				"x": 1.9546023438,
				"y": 0.1418454354,
				"z": -0.0240453132,
				"element": "C" 
			},
			{
				"x": -1.2942677447,
				"y": -1.8072474631,
				"z": 0.31921085,
				"element": "C" 
			},
			{
				"x": -2.1431657869,
				"y": -2.6537416965,
				"z": -0.3975288273,
				"element": "C" 
			},
			{
				"x": -3.1807087302,
				"y": -2.1434882669,
				"z": -1.174620281,
				"element": "C" 
			},
			{
				"x": -3.4556443259,
				"y": 0.6361834403,
				"z": -4.9929707643,
				"element": "H" 
			},
			{
				"x": -5.158444732,
				"y": 0.4532127371,
				"z": -1.4594531634,
				"element": "H" 
			},
			{
				"x": -5.1203603726,
				"y": -0.9857615303,
				"z": -2.5021958335,
				"element": "H" 
			},
			{
				"x": -2.6731344555,
				"y": 1.1709204798,
				"z": -0.573326732,
				"element": "H" 
			},
			{
				"x": -0.1652882698,
				"y": -0.6955958949,
				"z": 2.5065730626,
				"element": "H" 
			},
			{
				"x": 0.428601387,
				"y": 0.9679015722,
				"z": 2.4615698825,
				"element": "H" 
			},
			{
				"x": 2.0371379453,
				"y": -1.7204411218,
				"z": 2.8285264661,
				"element": "H" 
			},
			{
				"x": 4.944753441,
				"y": -1.4773405013,
				"z": -0.3250317685,
				"element": "H" 
			},
			{
				"x": 3.4944577654,
				"y": 0.1507791244,
				"z": -1.5280287707,
				"element": "H" 
			},
			{
				"x": 1.3182556821,
				"y": 0.8482688404,
				"z": -0.54628805,
				"element": "H" 
			},
			{
				"x": -0.4794970258,
				"y": -2.2265642176,
				"z": 0.8963204097,
				"element": "H" 
			},
			{
				"x": -1.9820643211,
				"y": -3.7269345759,
				"z": -0.3499053297,
				"element": "H" 
			},
			{
				"x": -3.8300570473,
				"y": -2.8147825438,
				"z": -1.7287435192,
				"element": "H" 
			}
		],
		 "valence_orbital": [ 
			{
				"type": "occ",
				"energy": -0.27738,
				"method": "rhf"
			},
			{
				"type": "occ",
				"energy": -0.26334,
				"method": "rhf"
			},
			{
				"type": "occ",
				"energy": -0.25047,
				"method": "rhf"
			},
			{
				"type": "occ",
				"energy": -0.24578,
				"method": "rhf"
			},
			{
				"type": "occ",
				"energy": -0.22439,
				"method": "rhf"
			},
			{
				"type": "unocc",
				"energy": -0.02155,
				"method": "rhf"
			},
			{
				"type": "unocc",
				"energy": -0.01783,
				"method": "rhf"
			},
			{
				"type": "unocc",
				"energy": -0.01104,
				"method": "rhf"
			},
			{
				"type": "unocc",
				"energy": 0.00271,
				"method": "rhf"
			},
			{
				"type": "unocc",
				"energy": 0.02072,
				"method": "rhf"
			}
		],
		"cosmo_sigma_profile": { 
			"-0.025": 0.0,
			"-0.024": 0.0,
			"-0.023": 0.0,
			"-0.022": 0.0,
			"-0.021": 0.0,
			"-0.02": 0.0,
			"-0.019": 0.0,
			"-0.018": 0.697011648084,
			"-0.017": 0.863751314404,
			"-0.016": 0.806700433609,
			"-0.015": 1.03795606322,
			"-0.014": 0.72878899345,
			"-0.013": 0.41151353252,
			"-0.012": 0.989674940422,
			"-0.011": 0.739409355102,
			"-0.01": 0.423357375162,
			"-0.009": 0.57666148241,
			"-0.008": 1.6415839931,
			"-0.007": 10.5627561181,
			"-0.006": 19.5006057021,
			"-0.005": 24.190101642,
			"-0.004": 23.5100857764,
			"-0.003": 20.3133439717,
			"-0.002": 16.6126958988,
			"-0.001": 17.4267749504,
			"0.0": 18.0021407339,
			"0.001": 21.5004350077,
			"0.002": 25.3131414913,
			"0.003": 29.5928583566,
			"0.004": 29.481489315,
			"0.005": 20.0257351132,
			"0.006": 5.90728579869,
			"0.007": 3.33778431922,
			"0.008": 4.16642735001,
			"0.009": 4.19226166665,
			"0.01": 2.82349766793,
			"0.011": 3.41584427051,
			"0.012": 4.15665625569,
			"0.013": 0.29944546458,
			"0.014": 0.0,
			"0.015": 0.0,
			"0.016": 0.0,
			"0.017": 0.0,
			"0.018": 0.0,
			"0.019": 0.0,
			"0.02": 0.0,
			"0.021": 0.0,
			"0.022": 0.0,
			"0.023": 0.0,
			"0.024": 0.0,
			"0.025": 0.0
		}
	}
}
