{
	 "smiles": "FC(F)SC1=CC=C(NC(=O)CCl)C=C1", 
	 "Tm": 329.15, 
	 "num_atms": 23, 
	 "gaussian": { 
		 "optdone": 1, 
		 "sigma_profile": "yes", 
		 "theory": "DFT", 
		 "functional": "B3LYP", 
		 "basiset": "6-31G**", 
		 "properties": { 
			 "R2extent": 6690.6528, 
			 "electric_dipole_moment_norm": 2.09926993024, 
			 "electric_quadrupole_moment_norm": 26.604202502, 
			 "total_energy": -1535.80433444, 
			 "HOMO_LUMO_gap": 0.19269, 
			 "cosmo_polarized_energy": -17.1, 
			 "cosmo_cavitation_energy": 32.13, 
			 "cosmo_dispersion_energy": -23.48, 
			 "cosmo_repulsion_energy": 1.79, 
			 "cosmo_total_nonelectrostatic_energy": 10.44, 
			 "SMD_solvation_energy": 6.32 
		},
		"coords": [
			{
				"x": -0.687772308,
				"y": 3.3108572886,
				"z": -3.9832646974,
				"element": "F" 
			},
			{
				"x": -0.559966805,
				"y": 2.3287043846,
				"z": -3.059914279,
				"element": "C" 
			},
			{
				"x": -1.5002833838,
				"y": 1.3782303533,
				"z": -3.3229679362,
				"element": "F" 
			},
			{
				"x": -0.8255139307,
				"y": 3.109261722,
				"z": -1.4256297091,
				"element": "S" 
			},
			{
				"x": -0.3824767835,
				"y": 1.7389212069,
				"z": -0.3587716221,
				"element": "C" 
			},
			{
				"x": -1.1145539282,
				"y": 0.5419273857,
				"z": -0.3580494005,
				"element": "C" 
			},
			{
				"x": -0.7646485383,
				"y": -0.4913601808,
				"z": 0.5035624296,
				"element": "C" 
			},
			{
				"x": 0.2962500925,
				"y": -0.3412401361,
				"z": 1.4121119695,
				"element": "C" 
			},
			{
				"x": 0.5742562308,
				"y": -1.4044065433,
				"z": 2.2988613765,
				"element": "N" 
			},
			{
				"x": 1.7623434597,
				"y": -1.9656735942,
				"z": 2.7426369101,
				"element": "C" 
			},
			{
				"x": 1.7414941259,
				"y": -2.9247291007,
				"z": 3.4890625196,
				"element": "O" 
			},
			{
				"x": 3.0586199652,
				"y": -1.318772978,
				"z": 2.2443794473,
				"element": "C" 
			},
			{
				"x": 4.4298044932,
				"y": -2.4720948221,
				"z": 2.2774552274,
				"element": "Cl" 
			},
			{
				"x": 0.9955803156,
				"y": 0.8734129875,
				"z": 1.4426340152,
				"element": "C" 
			},
			{
				"x": 0.6739336975,
				"y": 1.8917247175,
				"z": 0.5463479402,
				"element": "C" 
			},
			{
				"x": 0.4287545407,
				"y": 1.8654011684,
				"z": -3.135325948,
				"element": "H" 
			},
			{
				"x": -1.9436110624,
				"y": 0.4166521598,
				"z": -1.0446760468,
				"element": "H" 
			},
			{
				"x": -1.3162574096,
				"y": -1.4270170444,
				"z": 0.4779244094,
				"element": "H" 
			},
			{
				"x": -0.2176563705,
				"y": -1.9629669999,
				"z": 2.5956277405,
				"element": "H" 
			},
			{
				"x": 3.327424175,
				"y": -0.4854677525,
				"z": 2.8978557456,
				"element": "H" 
			},
			{
				"x": 2.9591337555,
				"y": -0.9449394022,
				"z": 1.2252801342,
				"element": "H" 
			},
			{
				"x": 1.775541021,
				"y": 1.0388583559,
				"z": 2.1767711874,
				"element": "H" 
			},
			{
				"x": 1.2343046474,
				"y": 2.820816824,
				"z": 0.5664885863,
				"element": "H" 
			}
		],
		 "valence_orbital": [ 
			{
				"type": "occ",
				"energy": -0.30363,
				"method": "rhf"
			},
			{
				"type": "occ",
				"energy": -0.28437,
				"method": "rhf"
			},
			{
				"type": "occ",
				"energy": -0.27809,
				"method": "rhf"
			},
			{
				"type": "occ",
				"energy": -0.27276,
				"method": "rhf"
			},
			{
				"type": "occ",
				"energy": -0.24208,
				"method": "rhf"
			},
			{
				"type": "unocc",
				"energy": -0.04939,
				"method": "rhf"
			},
			{
				"type": "unocc",
				"energy": -0.03791,
				"method": "rhf"
			},
			{
				"type": "unocc",
				"energy": -0.00428,
				"method": "rhf"
			},
			{
				"type": "unocc",
				"energy": 0.01351,
				"method": "rhf"
			},
			{
				"type": "unocc",
				"energy": 0.02577,
				"method": "rhf"
			}
		],
		"cosmo_sigma_profile": { 
			"-0.025": 0.0,
			"-0.024": 0.0,
			"-0.023": 0.0,
			"-0.022": 0.0,
			"-0.021": 0.0,
			"-0.02": 0.0,
			"-0.019": 0.0,
			"-0.018": 0.0,
			"-0.017": 0.0,
			"-0.016": 0.0488974000738,
			"-0.015": 0.760024044936,
			"-0.014": 0.934979327117,
			"-0.013": 1.32794748474,
			"-0.012": 1.19700035109,
			"-0.011": 2.90514926241,
			"-0.01": 5.6706514327,
			"-0.009": 6.60240809793,
			"-0.008": 8.46955303821,
			"-0.007": 10.708409077,
			"-0.006": 12.212015209,
			"-0.005": 11.2530637714,
			"-0.004": 10.4934493147,
			"-0.003": 9.05040886765,
			"-0.002": 12.8619104919,
			"-0.001": 13.8485658653,
			"0.0": 15.5344243414,
			"0.001": 20.5488405908,
			"0.002": 22.816366685,
			"0.003": 33.0154129723,
			"0.004": 18.5600923626,
			"0.005": 10.7663081919,
			"0.006": 9.35494500375,
			"0.007": 4.24077329732,
			"0.008": 1.98042013991,
			"0.009": 1.47814238774,
			"0.01": 2.27035242137,
			"0.011": 2.67098246834,
			"0.012": 5.31134364062,
			"0.013": 3.60377655945,
			"0.014": 0.776802055392,
			"0.015": 0.0,
			"0.016": 0.0,
			"0.017": 0.0,
			"0.018": 0.0,
			"0.019": 0.0,
			"0.02": 0.0,
			"0.021": 0.0,
			"0.022": 0.0,
			"0.023": 0.0,
			"0.024": 0.0,
			"0.0": 0.0
		}
	}
}
