{
	 "smiles": "CCC(N)(C(O)=O)C1=CC=CC=C1", 
	 "Tm": 559.15, 
	 "num_atms": 26, 
	 "gaussian": { 
		 "optdone": 1, 
		 "sigma_profile": "yes", 
		 "theory": "DFT", 
		 "functional": "B3LYP", 
		 "basiset": "6-31G**", 
		 "properties": { 
			 "R2extent": 2888.6132, 
			 "electric_dipole_moment_norm": 1.45219116166, 
			 "electric_quadrupole_moment_norm": 8.96494757207, 
			 "total_energy": -594.115372331, 
			 "HOMO_LUMO_gap": 0.22958, 
			 "cosmo_polarized_energy": -11.06, 
			 "cosmo_cavitation_energy": 28.33, 
			 "cosmo_dispersion_energy": -20.12, 
			 "cosmo_repulsion_energy": 1.61, 
			 "cosmo_total_nonelectrostatic_energy": 9.82, 
			 "SMD_solvation_energy": 5.79 
		},
		"coords": [
			{
				"x": 0.1250696033,
				"y": 0.9096063229,
				"z": -3.0275847988,
				"element": "C" 
			},
			{
				"x": 0.6050023573,
				"y": -0.5263956597,
				"z": -2.8011056493,
				"element": "C" 
			},
			{
				"x": 0.2175278512,
				"y": -1.1104912991,
				"z": -1.4141944044,
				"element": "C" 
			},
			{
				"x": -1.2390574339,
				"y": -1.0700712601,
				"z": -1.2705377156,
				"element": "N" 
			},
			{
				"x": 0.6912114377,
				"y": -2.5806822344,
				"z": -1.2950219298,
				"element": "C" 
			},
			{
				"x": 1.8909455501,
				"y": -2.8286878046,
				"z": -1.8745520632,
				"element": "O" 
			},
			{
				"x": 0.0610245254,
				"y": -3.4517370043,
				"z": -0.7346843483,
				"element": "O" 
			},
			{
				"x": 0.8838116733,
				"y": -0.3104443316,
				"z": -0.2724836941,
				"element": "C" 
			},
			{
				"x": 2.275079775,
				"y": -0.337882473,
				"z": -0.0871312521,
				"element": "C" 
			},
			{
				"x": 2.8728229883,
				"y": 0.4051833344,
				"z": 0.9308090218,
				"element": "C" 
			},
			{
				"x": 2.0926068087,
				"y": 1.1882326438,
				"z": 1.7834118415,
				"element": "C" 
			},
			{
				"x": 0.7100361212,
				"y": 1.2235579299,
				"z": 1.6043619291,
				"element": "C" 
			},
			{
				"x": 0.1098674004,
				"y": 0.4816333077,
				"z": 0.5847602248,
				"element": "C" 
			},
			{
				"x": 0.4055138787,
				"y": 1.2460366928,
				"z": -4.03088504,
				"element": "H" 
			},
			{
				"x": 0.574838308,
				"y": 1.5952300324,
				"z": -2.3038628339,
				"element": "H" 
			},
			{
				"x": -0.9603485141,
				"y": 0.986988397,
				"z": -2.9282035891,
				"element": "H" 
			},
			{
				"x": 0.1858779247,
				"y": -1.1847087211,
				"z": -3.5752655934,
				"element": "H" 
			},
			{
				"x": 1.6907812833,
				"y": -0.582788978,
				"z": -2.9115069909,
				"element": "H" 
			},
			{
				"x": -1.5010482179,
				"y": -1.6770811188,
				"z": -0.4954252982,
				"element": "H" 
			},
			{
				"x": -1.6595255051,
				"y": -1.4902274267,
				"z": -2.096918612,
				"element": "H" 
			},
			{
				"x": 2.0822813519,
				"y": -3.7667495632,
				"z": -1.7014691779,
				"element": "H" 
			},
			{
				"x": 2.8958274716,
				"y": -0.9465700662,
				"z": -0.7362266821,
				"element": "H" 
			},
			{
				"x": 3.9513482945,
				"y": 0.3695029267,
				"z": 1.0575223548,
				"element": "H" 
			},
			{
				"x": 2.5585851724,
				"y": 1.7649252576,
				"z": 2.5773552958,
				"element": "H" 
			},
			{
				"x": 0.0912788289,
				"y": 1.8324598552,
				"z": 2.2578648536,
				"element": "H" 
			},
			{
				"x": -0.9623589349,
				"y": 0.5230612405,
				"z": 0.4339741516,
				"element": "H" 
			}
		],
		 "valence_orbital": [ 
			{
				"type": "occ",
				"energy": -0.31678,
				"method": "rhf"
			},
			{
				"type": "occ",
				"energy": -0.28228,
				"method": "rhf"
			},
			{
				"type": "occ",
				"energy": -0.2522,
				"method": "rhf"
			},
			{
				"type": "occ",
				"energy": -0.24585,
				"method": "rhf"
			},
			{
				"type": "occ",
				"energy": -0.23977,
				"method": "rhf"
			},
			{
				"type": "unocc",
				"energy": -0.01019,
				"method": "rhf"
			},
			{
				"type": "unocc",
				"energy": -0.00042,
				"method": "rhf"
			},
			{
				"type": "unocc",
				"energy": 0.01858,
				"method": "rhf"
			},
			{
				"type": "unocc",
				"energy": 0.06869,
				"method": "rhf"
			},
			{
				"type": "unocc",
				"energy": 0.08739,
				"method": "rhf"
			}
		],
		"cosmo_sigma_profile": { 
			"-0.025": 0.0,
			"-0.024": 0.0,
			"-0.023": 0.0,
			"-0.022": 0.0,
			"-0.021": 0.0,
			"-0.02": 0.0,
			"-0.019": 0.0898004975627,
			"-0.018": 0.650775437536,
			"-0.017": 0.952133647317,
			"-0.016": 0.998788121513,
			"-0.015": 0.977820845104,
			"-0.014": 0.502736673749,
			"-0.013": 0.636548274423,
			"-0.012": 0.494173675852,
			"-0.011": 1.09669880718,
			"-0.01": 2.14379330525,
			"-0.009": 2.79306196226,
			"-0.008": 3.1764683054,
			"-0.007": 3.36376691048,
			"-0.006": 5.60157362566,
			"-0.005": 9.87757774358,
			"-0.004": 14.2386565023,
			"-0.003": 17.9861084552,
			"-0.002": 18.6649095128,
			"-0.001": 20.568268692,
			"0.0": 19.2794114964,
			"0.001": 19.790974158,
			"0.002": 14.5037271898,
			"0.003": 12.4091957221,
			"0.004": 10.8569613812,
			"0.005": 11.3833849409,
			"0.006": 9.5547478398,
			"0.007": 3.24817300982,
			"0.008": 2.55702820332,
			"0.009": 2.46728384651,
			"0.01": 2.38972553781,
			"0.011": 5.58379303135,
			"0.012": 2.47612255041,
			"0.013": 0.671078492624,
			"0.014": 0.476007075599,
			"0.015": 0.132234682246,
			"0.016": 0.0,
			"0.017": 0.0,
			"0.018": 0.0,
			"0.019": 0.0,
			"0.02": 0.0,
			"0.021": 0.0,
			"0.022": 0.0,
			"0.023": 0.0,
			"0.024": 0.0,
			"0.025": 0.0
		}
	}
}
