{
	 "smiles": "CCN(CC)S(=O)(=O)C1=CC=C(C=CC(O)=O)C=C1", 
	 "Tm": 458.15, 
	 "num_atms": 36, 
	 "gaussian": { 
		 "optdone": 1, 
		 "sigma_profile": "yes", 
		 "theory": "DFT", 
		 "functional": "B3LYP", 
		 "basiset": "6-31G**", 
		 "properties": { 
			 "R2extent": 7893.862, 
			 "electric_dipole_moment_norm": 4.91790220114, 
			 "electric_quadrupole_moment_norm": 22.3783055914, 
			 "total_energy": -1259.39360843, 
			 "HOMO_LUMO_gap": 0.15379, 
			 "cosmo_polarized_energy": -17.29, 
			 "cosmo_cavitation_energy": 40.25, 
			 "cosmo_dispersion_energy": -28.26, 
			 "cosmo_repulsion_energy": 2.13, 
			 "cosmo_total_nonelectrostatic_energy": 14.12, 
			 "SMD_solvation_energy": 7.23 
		},
		"coords": [
			{
				"x": 2.4968073443,
				"y": 2.7310941849,
				"z": -0.890399158,
				"element": "C" 
			},
			{
				"x": 2.2483155858,
				"y": 2.0696651681,
				"z": -2.249259054,
				"element": "C" 
			},
			{
				"x": 1.8524421083,
				"y": 0.6545603225,
				"z": -2.1786693073,
				"element": "N" 
			},
			{
				"x": 2.8616319244,
				"y": -0.3727791472,
				"z": -1.8688964299,
				"element": "C" 
			},
			{
				"x": 2.9230674558,
				"y": -0.8096186435,
				"z": -0.4014410651,
				"element": "C" 
			},
			{
				"x": 0.3134951934,
				"y": 0.1892899234,
				"z": -2.637273818,
				"element": "S" 
			},
			{
				"x": -0.2317202992,
				"y": 1.2491182555,
				"z": -3.4913272917,
				"element": "O" 
			},
			{
				"x": 0.4000186515,
				"y": -1.2029367065,
				"z": -3.0899902853,
				"element": "O" 
			},
			{
				"x": -0.6928691863,
				"y": 0.1786822393,
				"z": -1.1414853927,
				"element": "C" 
			},
			{
				"x": -0.9253934628,
				"y": -1.0272117542,
				"z": -0.4785293175,
				"element": "C" 
			},
			{
				"x": -1.6911894107,
				"y": -1.0203414466,
				"z": 0.6820387619,
				"element": "C" 
			},
			{
				"x": -2.2363356617,
				"y": 0.1733928641,
				"z": 1.2025702158,
				"element": "C" 
			},
			{
				"x": -3.0210973644,
				"y": 0.0392418938,
				"z": 2.4337698975,
				"element": "C" 
			},
			{
				"x": -3.6794644661,
				"y": 0.8816191125,
				"z": 3.2651324111,
				"element": "C" 
			},
			{
				"x": -3.848848302,
				"y": 2.3453281017,
				"z": 3.2266839565,
				"element": "C" 
			},
			{
				"x": -4.5904150219,
				"y": 2.7489948136,
				"z": 4.2919214772,
				"element": "O" 
			},
			{
				"x": -3.42841842,
				"y": 3.1509945541,
				"z": 2.4136102914,
				"element": "O" 
			},
			{
				"x": -1.9997877648,
				"y": 1.3745826346,
				"z": 0.5010704414,
				"element": "C" 
			},
			{
				"x": -1.2391378944,
				"y": 1.3731837895,
				"z": -0.663893465,
				"element": "C" 
			},
			{
				"x": 1.6089650632,
				"y": 2.6716035106,
				"z": -0.2540510578,
				"element": "H" 
			},
			{
				"x": 2.7452091052,
				"y": 3.7883653083,
				"z": -1.0339631466,
				"element": "H" 
			},
			{
				"x": 3.3306702595,
				"y": 2.2655052554,
				"z": -0.356620276,
				"element": "H" 
			},
			{
				"x": 1.4674437354,
				"y": 2.6008077364,
				"z": -2.7951825695,
				"element": "H" 
			},
			{
				"x": 3.1551353749,
				"y": 2.128935387,
				"z": -2.8660876799,
				"element": "H" 
			},
			{
				"x": 2.6727393253,
				"y": -1.2380670346,
				"z": -2.5076605737,
				"element": "H" 
			},
			{
				"x": 3.8261137037,
				"y": 0.0473214036,
				"z": -2.1769544586,
				"element": "H" 
			},
			{
				"x": 1.9795689321,
				"y": -1.2625334551,
				"z": -0.084795819,
				"element": "H" 
			},
			{
				"x": 3.1343618603,
				"y": 0.0300429049,
				"z": 0.2661189899,
				"element": "H" 
			},
			{
				"x": 3.7140997296,
				"y": -1.5563914523,
				"z": -0.2711076512,
				"element": "H" 
			},
			{
				"x": -0.5284039006,
				"y": -1.9507280516,
				"z": -0.8847550269,
				"element": "H" 
			},
			{
				"x": -1.8795125462,
				"y": -1.9589014838,
				"z": 1.1965107963,
				"element": "H" 
			},
			{
				"x": -3.0839206867,
				"y": -1.0004302013,
				"z": 2.7545808301,
				"element": "H" 
			},
			{
				"x": -4.1729368704,
				"y": 0.4272658836,
				"z": 4.1185811593,
				"element": "H" 
			},
			{
				"x": -4.6676328301,
				"y": 3.7139415197,
				"z": 4.2108432789,
				"element": "H" 
			},
			{
				"x": -2.4219361581,
				"y": 2.2978014682,
				"z": 0.8750967661,
				"element": "H" 
			},
			{
				"x": -1.0883651067,
				"y": 2.2944011412,
				"z": -1.2163864299,
				"element": "H" 
			}
		],
		 "valence_orbital": [ 
			{
				"type": "occ",
				"energy": -0.2972,
				"method": "rhf"
			},
			{
				"type": "occ",
				"energy": -0.28114,
				"method": "rhf"
			},
			{
				"type": "occ",
				"energy": -0.27073,
				"method": "rhf"
			},
			{
				"type": "occ",
				"energy": -0.26204,
				"method": "rhf"
			},
			{
				"type": "occ",
				"energy": -0.23863,
				"method": "rhf"
			},
			{
				"type": "unocc",
				"energy": -0.08484,
				"method": "rhf"
			},
			{
				"type": "unocc",
				"energy": -0.02144,
				"method": "rhf"
			},
			{
				"type": "unocc",
				"energy": -0.0087,
				"method": "rhf"
			},
			{
				"type": "unocc",
				"energy": 0.05971,
				"method": "rhf"
			},
			{
				"type": "unocc",
				"energy": 0.06894,
				"method": "rhf"
			}
		],
		"cosmo_sigma_profile": { 
			"-0.025": 0.0,
			"-0.024": 0.0,
			"-0.023": 0.0,
			"-0.022": 0.0,
			"-0.021": 0.0,
			"-0.02": 0.0,
			"-0.019": 0.0,
			"-0.018": 0.88481080994,
			"-0.017": 0.518609577612,
			"-0.016": 0.850278274359,
			"-0.015": 0.853165925953,
			"-0.014": 1.09083480506,
			"-0.013": 0.66504209315,
			"-0.012": 0.387113886159,
			"-0.011": 0.67479725943,
			"-0.01": 0.709091539634,
			"-0.009": 1.0134084692,
			"-0.008": 3.77833611897,
			"-0.007": 9.34129864926,
			"-0.006": 11.3587222135,
			"-0.005": 14.7837874031,
			"-0.004": 23.4409473672,
			"-0.003": 28.0045827767,
			"-0.002": 30.0268310432,
			"-0.001": 26.5860017487,
			"0.0": 33.078963291,
			"0.001": 32.7790952632,
			"0.002": 28.3107013594,
			"0.003": 11.1198848257,
			"0.004": 6.52236223688,
			"0.005": 5.58090130548,
			"0.006": 5.66985518593,
			"0.007": 4.8842714747,
			"0.008": 6.87951629578,
			"0.009": 6.66401403246,
			"0.01": 9.07434241444,
			"0.011": 8.99944623132,
			"0.012": 4.74659873158,
			"0.013": 0.0,
			"0.014": 0.0,
			"0.015": 0.0,
			"0.016": 0.0,
			"0.017": 0.0,
			"0.018": 0.0,
			"0.019": 0.0,
			"0.02": 0.0,
			"0.021": 0.0,
			"0.022": 0.0,
			"0.023": 0.0,
			"0.024": 0.0,
			"0.0": 0.0
		}
	}
}
