{
	 "smiles": "OCCCCCCC(F)(F)C(F)(F)C(F)(F)C(F)(F)C(F)(F)C(F)(F)C(F)(F)C(F)(F)F", 
	 "Tm": 329.15, 
	 "num_atms": 45, 
	 "gaussian": { 
		 "optdone": 1, 
		 "sigma_profile": "yes", 
		 "theory": "DFT", 
		 "functional": "B3LYP", 
		 "basiset": "6-31G**", 
		 "properties": { 
			 "R2extent": 22799.017, 
			 "electric_dipole_moment_norm": 3.64811517499, 
			 "electric_quadrupole_moment_norm": 12.808749752, 
			 "total_energy": -2313.77856887, 
			 "HOMO_LUMO_gap": 0.27577, 
			 "cosmo_polarized_energy": -8.72, 
			 "cosmo_cavitation_energy": 52.94, 
			 "cosmo_dispersion_energy": -34.73, 
			 "cosmo_repulsion_energy": 2.38, 
			 "cosmo_total_nonelectrostatic_energy": 20.58, 
			 "SMD_solvation_energy": 13.22 
		},
		"coords": [
			{
				"x": 0.9047139184,
				"y": 0.1877900813,
				"z": 6.7580770855,
				"element": "O" 
			},
			{
				"x": 0.545766455,
				"y": -0.5295825126,
				"z": 5.5846112292,
				"element": "C" 
			},
			{
				"x": -0.9190189642,
				"y": -0.9766154148,
				"z": 5.5922744262,
				"element": "C" 
			},
			{
				"x": -1.3508598065,
				"y": -1.7607347064,
				"z": 4.3428029258,
				"element": "C" 
			},
			{
				"x": -1.3619160291,
				"y": -0.9365752287,
				"z": 3.0468353167,
				"element": "C" 
			},
			{
				"x": -1.8819680516,
				"y": -1.7467894646,
				"z": 1.8502311098,
				"element": "C" 
			},
			{
				"x": -2.04184936,
				"y": -0.9653615554,
				"z": 0.5336798222,
				"element": "C" 
			},
			{
				"x": -0.7294300598,
				"y": -0.6199208555,
				"z": -0.1500293628,
				"element": "C" 
			},
			{
				"x": 0.0288602439,
				"y": -1.741780203,
				"z": -0.3341048149,
				"element": "F" 
			},
			{
				"x": 0.0053249221,
				"y": 0.2512613711,
				"z": 0.6113256295,
				"element": "F" 
			},
			{
				"x": -0.917472373,
				"y": 0.0511198933,
				"z": -1.5329614232,
				"element": "C" 
			},
			{
				"x": -1.5065476162,
				"y": 1.2569969654,
				"z": -1.3443599005,
				"element": "F" 
			},
			{
				"x": -1.7597516262,
				"y": -0.7240959274,
				"z": -2.2701781944,
				"element": "F" 
			},
			{
				"x": 0.3382283034,
				"y": 0.2531859878,
				"z": -2.4387719373,
				"element": "C" 
			},
			{
				"x": 0.7854216682,
				"y": -0.9642004384,
				"z": -2.8236982432,
				"element": "F" 
			},
			{
				"x": -0.1001740402,
				"y": 0.9232932172,
				"z": -3.5345928901,
				"element": "F" 
			},
			{
				"x": 1.5315793771,
				"y": 1.0386395203,
				"z": -1.8361067645,
				"element": "C" 
			},
			{
				"x": 1.0538165824,
				"y": 2.1324171696,
				"z": -1.1959698505,
				"element": "F" 
			},
			{
				"x": 2.1721763503,
				"y": 0.2476349678,
				"z": -0.9487651599,
				"element": "F" 
			},
			{
				"x": 2.5925855305,
				"y": 1.5804839842,
				"z": -2.8519882075,
				"element": "C" 
			},
			{
				"x": 2.0177248999,
				"y": 2.5412770296,
				"z": -3.6039049539,
				"element": "F" 
			},
			{
				"x": 3.5691687708,
				"y": 2.1404545637,
				"z": -2.0949057549,
				"element": "F" 
			},
			{
				"x": 3.2544952929,
				"y": 0.537676761,
				"z": -3.7951640695,
				"element": "C" 
			},
			{
				"x": 3.5670058152,
				"y": -0.5716398939,
				"z": -3.08935892,
				"element": "F" 
			},
			{
				"x": 2.3598459387,
				"y": 0.2132898193,
				"z": -4.7605359965,
				"element": "F" 
			},
			{
				"x": 4.555668732,
				"y": 1.0513082927,
				"z": -4.4768821574,
				"element": "C" 
			},
			{
				"x": 5.5551402035,
				"y": 1.027771377,
				"z": -3.5698421736,
				"element": "F" 
			},
			{
				"x": 4.3706227636,
				"y": 2.3209631898,
				"z": -4.9068365864,
				"element": "F" 
			},
			{
				"x": 5.004472399,
				"y": 0.2044364193,
				"z": -5.6979557589,
				"element": "C" 
			},
			{
				"x": 5.022287867,
				"y": -1.0977187151,
				"z": -5.3826524927,
				"element": "F" 
			},
			{
				"x": 4.1792746653,
				"y": 0.3954739637,
				"z": -6.7319035223,
				"element": "F" 
			},
			{
				"x": 6.2379880306,
				"y": 0.5805407081,
				"z": -6.0551779653,
				"element": "F" 
			},
			{
				"x": 0.7730536361,
				"y": -0.400923532,
				"z": 7.5126449398,
				"element": "H" 
			},
			{
				"x": 1.2003298098,
				"y": -1.404989801,
				"z": 5.4324489815,
				"element": "H" 
			},
			{
				"x": 0.7366233907,
				"y": 0.1587555415,
				"z": 4.7555958982,
				"element": "H" 
			},
			{
				"x": -1.5537172178,
				"y": -0.0908823238,
				"z": 5.7227023868,
				"element": "H" 
			},
			{
				"x": -1.0814228968,
				"y": -1.6071471442,
				"z": 6.4786779323,
				"element": "H" 
			},
			{
				"x": -2.356542631,
				"y": -2.1671737326,
				"z": 4.5138627709,
				"element": "H" 
			},
			{
				"x": -0.6926480009,
				"y": -2.6319914686,
				"z": 4.2131502642,
				"element": "H" 
			},
			{
				"x": -1.9968621552,
				"y": -0.0502141106,
				"z": 3.1875968622,
				"element": "H" 
			},
			{
				"x": -0.3582167302,
				"y": -0.5611876628,
				"z": 2.8279814414,
				"element": "H" 
			},
			{
				"x": -2.8685487266,
				"y": -2.1557236907,
				"z": 2.1014492211,
				"element": "H" 
			},
			{
				"x": -1.231444382,
				"y": -2.6111623055,
				"z": 1.6722328738,
				"element": "H" 
			},
			{
				"x": -2.6228150195,
				"y": -1.5580238367,
				"z": -0.1783252462,
				"element": "H" 
			},
			{
				"x": -2.5857698796,
				"y": -0.0286362992,
				"z": 0.6943912293,
				"element": "H" 
			}
		],
		 "valence_orbital": [ 
			{
				"type": "occ",
				"energy": -0.33557,
				"method": "rhf"
			},
			{
				"type": "occ",
				"energy": -0.33369,
				"method": "rhf"
			},
			{
				"type": "occ",
				"energy": -0.32646,
				"method": "rhf"
			},
			{
				"type": "occ",
				"energy": -0.31252,
				"method": "rhf"
			},
			{
				"type": "occ",
				"energy": -0.26344,
				"method": "rhf"
			},
			{
				"type": "unocc",
				"energy": 0.01233,
				"method": "rhf"
			},
			{
				"type": "unocc",
				"energy": 0.01973,
				"method": "rhf"
			},
			{
				"type": "unocc",
				"energy": 0.04291,
				"method": "rhf"
			},
			{
				"type": "unocc",
				"energy": 0.04484,
				"method": "rhf"
			},
			{
				"type": "unocc",
				"energy": 0.07101,
				"method": "rhf"
			}
		],
		"cosmo_sigma_profile": { 
			"-0.025": 0.0,
			"-0.024": 0.0,
			"-0.023": 0.0,
			"-0.022": 0.0,
			"-0.021": 0.0,
			"-0.02": 0.0,
			"-0.019": 0.0,
			"-0.018": 0.0,
			"-0.017": 0.0,
			"-0.016": 0.0,
			"-0.015": 0.612828431838,
			"-0.014": 0.971622085805,
			"-0.013": 0.898179296334,
			"-0.012": 0.971001682935,
			"-0.011": 1.2114997005,
			"-0.01": 0.585482986596,
			"-0.009": 0.540776877871,
			"-0.008": 1.31658907585,
			"-0.007": 1.09702043148,
			"-0.006": 3.74987483268,
			"-0.005": 6.40059959126,
			"-0.004": 12.9982279143,
			"-0.003": 29.8208670248,
			"-0.002": 43.434834274,
			"-0.001": 46.5689038873,
			"0.0": 71.6435800908,
			"0.001": 122.327593101,
			"0.002": 38.7241082754,
			"0.003": 16.008382882,
			"0.004": 2.11094080086,
			"0.005": 1.34340573452,
			"0.006": 1.64090849336,
			"0.007": 0.927039263277,
			"0.008": 1.47115773477,
			"0.009": 1.31243349001,
			"0.01": 1.1422174028,
			"0.011": 1.03028024094,
			"0.012": 1.34541101472,
			"0.013": 1.97577723891,
			"0.014": 2.12980425845,
			"0.015": 1.56653394626,
			"0.016": 0.0,
			"0.017": 0.0,
			"0.018": 0.0,
			"0.019": 0.0,
			"0.02": 0.0,
			"0.021": 0.0,
			"0.022": 0.0,
			"0.023": 0.0,
			"0.024": 0.0,
			"0.025": 0.0
		}
	}
}
