{
	 "smiles": "CC(OC1=CC(F)=CC=C1)C(O)=O", 
	 "Tm": 369.15, 
	 "num_atms": 22, 
	 "gaussian": { 
		 "optdone": 1, 
		 "sigma_profile": "yes", 
		 "theory": "DFT", 
		 "functional": "B3LYP", 
		 "basiset": "6-31G**", 
		 "properties": { 
			 "R2extent": 4163.0663, 
			 "electric_dipole_moment_norm": 2.98734543198, 
			 "electric_quadrupole_moment_norm": 15.1886691326, 
			 "total_energy": -673.886875604, 
			 "HOMO_LUMO_gap": 0.22568, 
			 "cosmo_polarized_energy": -10.99, 
			 "cosmo_cavitation_energy": 26.72, 
			 "cosmo_dispersion_energy": -19.05, 
			 "cosmo_repulsion_energy": 1.5, 
			 "cosmo_total_nonelectrostatic_energy": 9.17, 
			 "SMD_solvation_energy": 6.45 
		},
		"coords": [
			{
				"x": 0.6192721355,
				"y": 0.0487598233,
				"z": 0.5134864252,
				"element": "C" 
			},
			{
				"x": 0.2507826498,
				"y": -1.4088367386,
				"z": 0.817803687,
				"element": "C" 
			},
			{
				"x": -0.6167007136,
				"y": -1.5851796233,
				"z": 1.9323551502,
				"element": "O" 
			},
			{
				"x": -1.6300340357,
				"y": -0.6885497105,
				"z": 2.207087614,
				"element": "C" 
			},
			{
				"x": -2.6570447753,
				"y": -0.4028031434,
				"z": 1.3014282881,
				"element": "C" 
			},
			{
				"x": -3.6584296101,
				"y": 0.4727694637,
				"z": 1.7057212802,
				"element": "C" 
			},
			{
				"x": -4.650455124,
				"y": 0.7555617041,
				"z": 0.833932942,
				"element": "F" 
			},
			{
				"x": -3.6888852704,
				"y": 1.05707102,
				"z": 2.9668454486,
				"element": "C" 
			},
			{
				"x": -2.6622715854,
				"y": 0.7419618003,
				"z": 3.8587770865,
				"element": "C" 
			},
			{
				"x": -1.6313589627,
				"y": -0.1198508056,
				"z": 3.4857321558,
				"element": "C" 
			},
			{
				"x": -0.2693879106,
				"y": -2.1265764777,
				"z": -0.4316096603,
				"element": "C" 
			},
			{
				"x": 0.7400897153,
				"y": -2.3010673164,
				"z": -1.3182774887,
				"element": "O" 
			},
			{
				"x": -1.3992032347,
				"y": -2.5015744902,
				"z": -0.6424028612,
				"element": "O" 
			},
			{
				"x": -0.2458288705,
				"y": 0.6223311486,
				"z": 0.1731963922,
				"element": "H" 
			},
			{
				"x": 1.0141202934,
				"y": 0.5217325666,
				"z": 1.4162482254,
				"element": "H" 
			},
			{
				"x": 1.3861876075,
				"y": 0.0757621866,
				"z": -0.2639118376,
				"element": "H" 
			},
			{
				"x": 1.1648297635,
				"y": -1.9411223518,
				"z": 1.1043752278,
				"element": "H" 
			},
			{
				"x": -2.6958662788,
				"y": -0.8778585056,
				"z": 0.3300044035,
				"element": "H" 
			},
			{
				"x": -4.497640069,
				"y": 1.7288436465,
				"z": 3.2311456678,
				"element": "H" 
			},
			{
				"x": -2.6626559886,
				"y": 1.1801668022,
				"z": 4.8522880185,
				"element": "H" 
			},
			{
				"x": -0.8266863676,
				"y": -0.3689754235,
				"z": 4.1687684507,
				"element": "H" 
			},
			{
				"x": 0.3526666319,
				"y": -2.7454655752,
				"z": -2.0912946158,
				"element": "H" 
			}
		],
		 "valence_orbital": [ 
			{
				"type": "occ",
				"energy": -0.33029,
				"method": "rhf"
			},
			{
				"type": "occ",
				"energy": -0.30672,
				"method": "rhf"
			},
			{
				"type": "occ",
				"energy": -0.28081,
				"method": "rhf"
			},
			{
				"type": "occ",
				"energy": -0.24741,
				"method": "rhf"
			},
			{
				"type": "occ",
				"energy": -0.23273,
				"method": "rhf"
			},
			{
				"type": "unocc",
				"energy": -0.00705,
				"method": "rhf"
			},
			{
				"type": "unocc",
				"energy": -0.00372,
				"method": "rhf"
			},
			{
				"type": "unocc",
				"energy": 0.00649,
				"method": "rhf"
			},
			{
				"type": "unocc",
				"energy": 0.0654,
				"method": "rhf"
			},
			{
				"type": "unocc",
				"energy": 0.09113,
				"method": "rhf"
			}
		],
		"cosmo_sigma_profile": { 
			"-0.025": 0.0,
			"-0.024": 0.0,
			"-0.023": 0.0,
			"-0.022": 0.0,
			"-0.021": 0.0,
			"-0.02": 0.0,
			"-0.019": 0.164626133442,
			"-0.018": 1.00717003424,
			"-0.017": 1.05477317914,
			"-0.016": 0.477938302619,
			"-0.015": 0.92027636765,
			"-0.014": 0.892656816226,
			"-0.013": 0.535450004014,
			"-0.012": 0.854584846635,
			"-0.011": 0.824515269047,
			"-0.01": 0.808080714004,
			"-0.009": 0.288689566998,
			"-0.008": 1.7469687759,
			"-0.007": 5.41172086616,
			"-0.006": 8.92498919243,
			"-0.005": 12.3318446072,
			"-0.004": 16.962969587,
			"-0.003": 15.7423220485,
			"-0.002": 15.2175415512,
			"-0.001": 14.8553462715,
			"0.0": 12.3319503559,
			"0.001": 15.6546157497,
			"0.002": 13.5289620331,
			"0.003": 17.2161762121,
			"0.004": 20.3445406932,
			"0.005": 9.98585691676,
			"0.006": 3.43835794236,
			"0.007": 3.77941977852,
			"0.008": 4.04806899491,
			"0.009": 5.17118900296,
			"0.01": 4.12990909941,
			"0.011": 3.62376792565,
			"0.012": 0.308125065413,
			"0.013": 0.0,
			"0.014": 0.0,
			"0.015": 0.0,
			"0.016": 0.0,
			"0.017": 0.0,
			"0.018": 0.0,
			"0.019": 0.0,
			"0.02": 0.0,
			"0.021": 0.0,
			"0.022": 0.0,
			"0.023": 0.0,
			"0.024": 0.0,
			"0.025": 0.0
		}
	}
}
