{
	 "smiles": "COC1=C(N)C=C(CCC(O)=O)C=C1", 
	 "Tm": 395.15, 
	 "num_atms": 27, 
	 "gaussian": { 
		 "optdone": 1, 
		 "sigma_profile": "yes", 
		 "theory": "DFT", 
		 "functional": "B3LYP", 
		 "basiset": "6-31G**", 
		 "properties": { 
			 "R2extent": 3729.053, 
			 "electric_dipole_moment_norm": 5.94081600035, 
			 "electric_quadrupole_moment_norm": 23.5769183731, 
			 "total_energy": -669.329162719, 
			 "HOMO_LUMO_gap": 0.19679, 
			 "cosmo_polarized_energy": -16.92, 
			 "cosmo_cavitation_energy": 30.25, 
			 "cosmo_dispersion_energy": -21.85, 
			 "cosmo_repulsion_energy": 1.74, 
			 "cosmo_total_nonelectrostatic_energy": 10.14, 
			 "SMD_solvation_energy": 6.67 
		},
		"coords": [
			{
				"x": 4.0617788881,
				"y": 1.3904134798,
				"z": 1.2896593597,
				"element": "C" 
			},
			{
				"x": 3.263011073,
				"y": 0.3277036912,
				"z": 1.7858478731,
				"element": "O" 
			},
			{
				"x": 1.9156801113,
				"y": 0.3612283982,
				"z": 1.5359499639,
				"element": "C" 
			},
			{
				"x": 1.1984247716,
				"y": -0.7493991112,
				"z": 2.0555598308,
				"element": "C" 
			},
			{
				"x": 1.8810477245,
				"y": -1.6977206932,
				"z": 2.804744387,
				"element": "N" 
			},
			{
				"x": -0.1781087827,
				"y": -0.813443814,
				"z": 1.833802658,
				"element": "C" 
			},
			{
				"x": -0.8649985365,
				"y": 0.1893669702,
				"z": 1.126409878,
				"element": "C" 
			},
			{
				"x": -2.3639909383,
				"y": 0.0786548998,
				"z": 0.9114345158,
				"element": "C" 
			},
			{
				"x": -2.8121222028,
				"y": -1.0528417915,
				"z": -0.0461278588,
				"element": "C" 
			},
			{
				"x": -2.5346520713,
				"y": -0.8379007179,
				"z": -1.5332627636,
				"element": "C" 
			},
			{
				"x": -1.3118864511,
				"y": -0.3597216465,
				"z": -1.8664464867,
				"element": "O" 
			},
			{
				"x": -3.3393446432,
				"y": -1.1017957792,
				"z": -2.3941269141,
				"element": "O" 
			},
			{
				"x": -0.1368156494,
				"y": 1.274734112,
				"z": 0.6319446704,
				"element": "C" 
			},
			{
				"x": 1.2504387421,
				"y": 1.3578128215,
				"z": 0.8346822248,
				"element": "C" 
			},
			{
				"x": 3.7602437067,
				"y": 2.3533482908,
				"z": 1.7206844931,
				"element": "H" 
			},
			{
				"x": 5.086222091,
				"y": 1.1667577301,
				"z": 1.5909011996,
				"element": "H" 
			},
			{
				"x": 4.0112415623,
				"y": 1.454809763,
				"z": 0.1952129191,
				"element": "H" 
			},
			{
				"x": 2.8807222649,
				"y": -1.7068282682,
				"z": 2.6605808496,
				"element": "H" 
			},
			{
				"x": 1.4647665335,
				"y": -2.61681278,
				"z": 2.8374026512,
				"element": "H" 
			},
			{
				"x": -0.7296050979,
				"y": -1.6595263644,
				"z": 2.2392843261,
				"element": "H" 
			},
			{
				"x": -2.8489826599,
				"y": -0.1036605045,
				"z": 1.8777798111,
				"element": "H" 
			},
			{
				"x": -2.7546880013,
				"y": 1.0361963045,
				"z": 0.5497649063,
				"element": "H" 
			},
			{
				"x": -3.8893325243,
				"y": -1.2129814293,
				"z": 0.0356145035,
				"element": "H" 
			},
			{
				"x": -2.325978581,
				"y": -1.9926147761,
				"z": 0.248274806,
				"element": "H" 
			},
			{
				"x": -0.7849656124,
				"y": -0.1633399178,
				"z": -1.0714208619,
				"element": "H" 
			},
			{
				"x": -0.6442135908,
				"y": 2.0715150223,
				"z": 0.0955727708,
				"element": "H" 
			},
			{
				"x": 1.7945078737,
				"y": 2.2070461105,
				"z": 0.4382762872,
				"element": "H" 
			}
		],
		 "valence_orbital": [ 
			{
				"type": "occ",
				"energy": -0.3143,
				"method": "rhf"
			},
			{
				"type": "occ",
				"energy": -0.29583,
				"method": "rhf"
			},
			{
				"type": "occ",
				"energy": -0.25422,
				"method": "rhf"
			},
			{
				"type": "occ",
				"energy": -0.23887,
				"method": "rhf"
			},
			{
				"type": "occ",
				"energy": -0.20424,
				"method": "rhf"
			},
			{
				"type": "unocc",
				"energy": -0.00745,
				"method": "rhf"
			},
			{
				"type": "unocc",
				"energy": 0.0046,
				"method": "rhf"
			},
			{
				"type": "unocc",
				"energy": 0.02564,
				"method": "rhf"
			},
			{
				"type": "unocc",
				"energy": 0.0759,
				"method": "rhf"
			},
			{
				"type": "unocc",
				"energy": 0.08762,
				"method": "rhf"
			}
		],
		"cosmo_sigma_profile": { 
			"-0.025": 0.0,
			"-0.024": 0.0,
			"-0.023": 0.0,
			"-0.022": 0.0,
			"-0.021": 0.0,
			"-0.02": 0.0,
			"-0.019": 0.0,
			"-0.018": 0.0,
			"-0.017": 0.0,
			"-0.016": 0.0,
			"-0.015": 0.0,
			"-0.014": 0.0,
			"-0.013": 0.350331556308,
			"-0.012": 1.10662004358,
			"-0.011": 2.19757060785,
			"-0.01": 1.98050550849,
			"-0.009": 1.95234214759,
			"-0.008": 3.15356787176,
			"-0.007": 4.73339559569,
			"-0.006": 14.7898700246,
			"-0.005": 26.8022261566,
			"-0.004": 25.6688577728,
			"-0.003": 25.0670730311,
			"-0.002": 15.9673896658,
			"-0.001": 11.4957719224,
			"0.0": 9.34818061855,
			"0.001": 8.79643421269,
			"0.002": 9.5479974897,
			"0.003": 10.5115637046,
			"0.004": 11.2895458168,
			"0.005": 8.44193564734,
			"0.006": 9.25295674327,
			"0.007": 4.21258127728,
			"0.008": 4.40757435464,
			"0.009": 3.66563963996,
			"0.01": 4.25603231402,
			"0.011": 6.46424082039,
			"0.012": 6.92376207413,
			"0.013": 4.63047572832,
			"0.014": 1.46480242036,
			"0.015": 0.00392042449004,
			"0.016": 0.0,
			"0.017": 0.0,
			"0.018": 0.0,
			"0.019": 0.0,
			"0.02": 0.0,
			"0.021": 0.0,
			"0.022": 0.0,
			"0.023": 0.0,
			"0.024": 0.0,
			"0.025": 0.0
		}
	}
}
