{
	 "smiles": "COC1=CC(C#N)=C(Br)C=C1", 
	 "Tm": 375.15, 
	 "num_atms": 17, 
	 "gaussian": { 
		 "optdone": 1, 
		 "sigma_profile": "yes", 
		 "theory": "DFT", 
		 "functional": "B3LYP", 
		 "basiset": "6-31G**", 
		 "properties": { 
			 "R2extent": 4615.9548, 
			 "electric_dipole_moment_norm": 4.95078803424, 
			 "electric_quadrupole_moment_norm": 17.4477843874, 
			 "total_energy": -3009.81305164, 
			 "HOMO_LUMO_gap": 0.17869, 
			 "cosmo_polarized_energy": -10.21, 
			 "cosmo_cavitation_energy": 24.77, 
			 "cosmo_dispersion_energy": -18.06, 
			 "cosmo_repulsion_energy": 1.45, 
			 "cosmo_total_nonelectrostatic_energy": 8.16, 
			 "SMD_solvation_energy": 5.29 
		},
		"coords": [
			{
				"x": 2.2693768787,
				"y": 0.6788128343,
				"z": -0.7097614191,
				"element": "C" 
			},
			{
				"x": 1.520908843,
				"y": 1.3525228413,
				"z": 0.2951340768,
				"element": "O" 
			},
			{
				"x": 0.5373854809,
				"y": 0.6695504967,
				"z": 0.9357109777,
				"element": "C" 
			},
			{
				"x": 0.198534995,
				"y": -0.6601367477,
				"z": 0.6816838375,
				"element": "C" 
			},
			{
				"x": -0.842123443,
				"y": -1.2751124445,
				"z": 1.4062658669,
				"element": "C" 
			},
			{
				"x": -1.1548309904,
				"y": -2.642004085,
				"z": 1.1112417647,
				"element": "C" 
			},
			{
				"x": -1.3710922472,
				"y": -3.7510776202,
				"z": 0.8362004031,
				"element": "N" 
			},
			{
				"x": -1.536810691,
				"y": -0.5475244924,
				"z": 2.383664749,
				"element": "C" 
			},
			{
				"x": -2.9444416326,
				"y": -1.3469522371,
				"z": 3.3778553131,
				"element": "Br" 
			},
			{
				"x": -1.1918201241,
				"y": 0.7827631848,
				"z": 2.6320684995,
				"element": "C" 
			},
			{
				"x": -0.1668985092,
				"y": 1.3864008403,
				"z": 1.9175645311,
				"element": "C" 
			},
			{
				"x": 2.9914082668,
				"y": 1.4060657145,
				"z": -1.0820477955,
				"element": "H" 
			},
			{
				"x": 2.8049483283,
				"y": -0.186303,
				"z": -0.2996378532,
				"element": "H" 
			},
			{
				"x": 1.6273595284,
				"y": 0.3498345085,
				"z": -1.5362328144,
				"element": "H" 
			},
			{
				"x": 0.717735501,
				"y": -1.2446686061,
				"z": -0.0664793145,
				"element": "H" 
			},
			{
				"x": -1.7309625994,
				"y": 1.3416387933,
				"z": 3.3881039056,
				"element": "H" 
			},
			{
				"x": 0.1084224149,
				"y": 2.4190900192,
				"z": 2.1032652717,
				"element": "H" 
			}
		],
		 "valence_orbital": [ 
			{
				"type": "occ",
				"energy": -0.33575,
				"method": "rhf"
			},
			{
				"type": "occ",
				"energy": -0.3046,
				"method": "rhf"
			},
			{
				"type": "occ",
				"energy": -0.29598,
				"method": "rhf"
			},
			{
				"type": "occ",
				"energy": -0.27749,
				"method": "rhf"
			},
			{
				"type": "occ",
				"energy": -0.23879,
				"method": "rhf"
			},
			{
				"type": "unocc",
				"energy": -0.0601,
				"method": "rhf"
			},
			{
				"type": "unocc",
				"energy": -0.0225,
				"method": "rhf"
			},
			{
				"type": "unocc",
				"energy": -0.00445,
				"method": "rhf"
			},
			{
				"type": "unocc",
				"energy": 0.03304,
				"method": "rhf"
			},
			{
				"type": "unocc",
				"energy": 0.07544,
				"method": "rhf"
			}
		],
		"cosmo_sigma_profile": { 
			"-0.025": 0.0,
			"-0.024": 0.0,
			"-0.023": 0.0,
			"-0.022": 0.0,
			"-0.021": 0.0,
			"-0.02": 0.0,
			"-0.019": 0.0,
			"-0.018": 0.0,
			"-0.017": 0.0,
			"-0.016": 0.0,
			"-0.015": 0.0,
			"-0.014": 0.0,
			"-0.013": 0.0,
			"-0.012": 0.0,
			"-0.011": 0.0,
			"-0.01": 0.0,
			"-0.009": 1.00496906033,
			"-0.008": 5.9219080551,
			"-0.007": 8.08541118456,
			"-0.006": 13.283389759,
			"-0.005": 13.1957244957,
			"-0.004": 13.3100375684,
			"-0.003": 12.3256588481,
			"-0.002": 13.0744185753,
			"-0.001": 13.5832000415,
			"0.0": 19.9168284346,
			"0.001": 20.7799436185,
			"0.002": 13.5188704353,
			"0.003": 13.0858918353,
			"0.004": 10.3580406322,
			"0.005": 4.75246430199,
			"0.006": 4.24514368769,
			"0.007": 4.23923834576,
			"0.008": 4.88051793694,
			"0.009": 4.82004726359,
			"0.01": 2.84231780219,
			"0.011": 2.7991666674,
			"0.012": 2.35548952892,
			"0.013": 0.66442415363,
			"0.014": 0.0,
			"0.015": 0.0,
			"0.016": 0.0,
			"0.017": 0.0,
			"0.018": 0.0,
			"0.019": 0.0,
			"0.02": 0.0,
			"0.021": 0.0,
			"0.022": 0.0,
			"0.023": 0.0,
			"0.024": 0.0,
			"0.025": 0.0
		}
	}
}
