{
	 "smiles": "OC1=C(Cl)C=C(Cl)C=C1C(=O)NC1=CC=C(Cl)C=C1", 
	 "Tm": 415.15, 
	 "num_atms": 27, 
	 "gaussian": { 
		 "optdone": 1, 
		 "sigma_profile": "yes", 
		 "theory": "DFT", 
		 "functional": "B3LYP", 
		 "basiset": "6-31G**", 
		 "properties": { 
			 "R2extent": 7709.5716, 
			 "electric_dipole_moment_norm": 2.73410467612, 
			 "electric_quadrupole_moment_norm": 14.5057462135, 
			 "total_energy": -2085.98714976, 
			 "HOMO_LUMO_gap": 0.17024, 
			 "cosmo_polarized_energy": -14.74, 
			 "cosmo_cavitation_energy": 37.61, 
			 "cosmo_dispersion_energy": -26.62, 
			 "cosmo_repulsion_energy": 2.08, 
			 "cosmo_total_nonelectrostatic_energy": 13.07, 
			 "SMD_solvation_energy": 6.49 
		},
		"coords": [
			{
				"x": -0.942045402,
				"y": -1.8510522789,
				"z": 0.4074923713,
				"element": "O" 
			},
			{
				"x": 0.4027416978,
				"y": -1.7549344241,
				"z": 0.4316403893,
				"element": "C" 
			},
			{
				"x": 1.1373652405,
				"y": -2.6300811482,
				"z": -0.392085037,
				"element": "C" 
			},
			{
				"x": 0.2806338767,
				"y": -3.7540791266,
				"z": -1.4176339123,
				"element": "Cl" 
			},
			{
				"x": 2.5269939056,
				"y": -2.6232456647,
				"z": -0.398493704,
				"element": "C" 
			},
			{
				"x": 3.2125379396,
				"y": -1.7432271426,
				"z": 0.442743476,
				"element": "C" 
			},
			{
				"x": 4.967238581,
				"y": -1.7486867853,
				"z": 0.4441852043,
				"element": "Cl" 
			},
			{
				"x": 2.52028097,
				"y": -0.8777676592,
				"z": 1.2750369948,
				"element": "C" 
			},
			{
				"x": 1.1175869448,
				"y": -0.8550482582,
				"z": 1.2533421787,
				"element": "C" 
			},
			{
				"x": 0.4445374299,
				"y": 0.0697162275,
				"z": 2.2174081416,
				"element": "C" 
			},
			{
				"x": 0.9007848016,
				"y": 0.3003078372,
				"z": 3.3251351597,
				"element": "O" 
			},
			{
				"x": -0.7998613613,
				"y": 0.6096266721,
				"z": 1.8438110041,
				"element": "N" 
			},
			{
				"x": -1.1181705863,
				"y": 1.2064024673,
				"z": 0.5790848863,
				"element": "C" 
			},
			{
				"x": -0.1357433086,
				"y": 1.6441146784,
				"z": -0.3161451966,
				"element": "C" 
			},
			{
				"x": -0.5023139459,
				"y": 2.2225622133,
				"z": -1.5307365771,
				"element": "C" 
			},
			{
				"x": -1.8519279311,
				"y": 2.3899134293,
				"z": -1.8361868822,
				"element": "C" 
			},
			{
				"x": -2.3118476676,
				"y": 3.1332736815,
				"z": -3.3569684499,
				"element": "Cl" 
			},
			{
				"x": -2.8418343751,
				"y": 1.9786518447,
				"z": -0.9434117446,
				"element": "C" 
			},
			{
				"x": -2.4702233357,
				"y": 1.3789116827,
				"z": 0.2568535751,
				"element": "C" 
			},
			{
				"x": -1.3162594044,
				"y": -1.2094035111,
				"z": 1.0347926423,
				"element": "H" 
			},
			{
				"x": 3.0664399643,
				"y": -3.3042789257,
				"z": -1.0455206585,
				"element": "H" 
			},
			{
				"x": 3.0423982692,
				"y": -0.2106825673,
				"z": 1.9506656121,
				"element": "H" 
			},
			{
				"x": -1.2113399737,
				"y": 1.0882426539,
				"z": 2.6406221322,
				"element": "H" 
			},
			{
				"x": 0.9151096869,
				"y": 1.5423199612,
				"z": -0.0712289351,
				"element": "H" 
			},
			{
				"x": 0.2582173364,
				"y": 2.5579339488,
				"z": -2.2268184965,
				"element": "H" 
			},
			{
				"x": -3.8888189946,
				"y": 2.1142172052,
				"z": -1.1897757672,
				"element": "H" 
			},
			{
				"x": -3.2353803583,
				"y": 1.0386929888,
				"z": 0.9489915932,
				"element": "H" 
			}
		],
		 "valence_orbital": [ 
			{
				"type": "occ",
				"energy": -0.2882,
				"method": "rhf"
			},
			{
				"type": "occ",
				"energy": -0.28442,
				"method": "rhf"
			},
			{
				"type": "occ",
				"energy": -0.26804,
				"method": "rhf"
			},
			{
				"type": "occ",
				"energy": -0.24945,
				"method": "rhf"
			},
			{
				"type": "occ",
				"energy": -0.23851,
				"method": "rhf"
			},
			{
				"type": "unocc",
				"energy": -0.06827,
				"method": "rhf"
			},
			{
				"type": "unocc",
				"energy": -0.03755,
				"method": "rhf"
			},
			{
				"type": "unocc",
				"energy": -0.02929,
				"method": "rhf"
			},
			{
				"type": "unocc",
				"energy": -0.02042,
				"method": "rhf"
			},
			{
				"type": "unocc",
				"energy": 0.00405,
				"method": "rhf"
			}
		],
		"cosmo_sigma_profile": { 
			"-0.025": 0.0,
			"-0.024": 0.0,
			"-0.023": 0.0,
			"-0.022": 0.0,
			"-0.021": 0.0,
			"-0.02": 0.0,
			"-0.019": 0.0,
			"-0.018": 0.0,
			"-0.017": 0.0,
			"-0.016": 0.0432327100791,
			"-0.015": 0.947554121792,
			"-0.014": 1.0877920787,
			"-0.013": 1.21606613779,
			"-0.012": 1.64675216424,
			"-0.011": 2.40296416013,
			"-0.01": 2.92771403187,
			"-0.009": 2.73034210954,
			"-0.008": 8.14216978941,
			"-0.007": 13.6500600546,
			"-0.006": 13.7400631496,
			"-0.005": 12.5994142972,
			"-0.004": 11.3127218383,
			"-0.003": 12.1213906206,
			"-0.002": 16.0614871371,
			"-0.001": 22.1633833941,
			"0.0": 28.9369964809,
			"0.001": 32.7376178328,
			"0.002": 30.7158049809,
			"0.003": 27.0507085059,
			"0.004": 30.0615135727,
			"0.005": 12.5671191707,
			"0.006": 3.39961359958,
			"0.007": 2.40426794716,
			"0.008": 3.66512631382,
			"0.009": 3.1850497921,
			"0.01": 4.11258471848,
			"0.011": 3.94867735908,
			"0.012": 3.58041675285,
			"0.013": 0.215739818938,
			"0.014": 0.0,
			"0.015": 0.0,
			"0.016": 0.0,
			"0.017": 0.0,
			"0.018": 0.0,
			"0.019": 0.0,
			"0.02": 0.0,
			"0.021": 0.0,
			"0.022": 0.0,
			"0.023": 0.0,
			"0.024": 0.0,
			"0.025": 0.0
		}
	}
}
