{
	 "smiles": "N#CC(C1=CC=CC=C1)C1=CC=CC=C1", 
	 "Tm": 347.35, 
	 "num_atms": 26, 
	 "gaussian": { 
		 "optdone": 1, 
		 "sigma_profile": "yes", 
		 "theory": "DFT", 
		 "functional": "B3LYP", 
		 "basiset": "6-31G**", 
		 "properties": { 
			 "R2extent": 3484.3657, 
			 "electric_dipole_moment_norm": 4.00535498177, 
			 "electric_quadrupole_moment_norm": 11.6284073286, 
			 "total_energy": -594.852606722, 
			 "HOMO_LUMO_gap": 0.22601, 
			 "cosmo_polarized_energy": -10.68, 
			 "cosmo_cavitation_energy": 30.96, 
			 "cosmo_dispersion_energy": -21.17, 
			 "cosmo_repulsion_energy": 1.67, 
			 "cosmo_total_nonelectrostatic_energy": 11.45, 
			 "SMD_solvation_energy": 6.39 
		},
		"coords": [
			{
				"x": -1.6403232917,
				"y": -2.0662693444,
				"z": -1.4167864095,
				"element": "N" 
			},
			{
				"x": -1.0365285643,
				"y": -1.3108051121,
				"z": -0.7745056163,
				"element": "C" 
			},
			{
				"x": -0.2592235605,
				"y": -0.3572611874,
				"z": 0.0348116272,
				"element": "C" 
			},
			{
				"x": -0.7067866622,
				"y": 1.094710602,
				"z": -0.1817328637,
				"element": "C" 
			},
			{
				"x": -0.2055220688,
				"y": 2.0774164584,
				"z": 0.6830176329,
				"element": "C" 
			},
			{
				"x": -0.5744352192,
				"y": 3.4115583931,
				"z": 0.5275335877,
				"element": "C" 
			},
			{
				"x": -1.4490723565,
				"y": 3.7826095446,
				"z": -0.4976758801,
				"element": "C" 
			},
			{
				"x": -1.9502665376,
				"y": 2.8095653189,
				"z": -1.3605816549,
				"element": "C" 
			},
			{
				"x": -1.5827979651,
				"y": 1.4698815468,
				"z": -1.2038271003,
				"element": "C" 
			},
			{
				"x": 1.2425008874,
				"y": -0.5662004315,
				"z": -0.2047107794,
				"element": "C" 
			},
			{
				"x": 1.8241312579,
				"y": -0.2162342303,
				"z": -1.4295248867,
				"element": "C" 
			},
			{
				"x": 3.1876011736,
				"y": -0.4115636971,
				"z": -1.6407629976,
				"element": "C" 
			},
			{
				"x": 3.9854670902,
				"y": -0.9551306632,
				"z": -0.6300853103,
				"element": "C" 
			},
			{
				"x": 3.4113635735,
				"y": -1.3044978177,
				"z": 0.5917566852,
				"element": "C" 
			},
			{
				"x": 2.0436412975,
				"y": -1.1125128058,
				"z": 0.8018108635,
				"element": "C" 
			},
			{
				"x": -0.4630418829,
				"y": -0.6161397872,
				"z": 1.0820506769,
				"element": "H" 
			},
			{
				"x": 0.4828172804,
				"y": 1.7953655354,
				"z": 1.4756012282,
				"element": "H" 
			},
			{
				"x": -0.1800403024,
				"y": 4.1619051778,
				"z": 1.2067120268,
				"element": "H" 
			},
			{
				"x": -1.7373820923,
				"y": 4.8225934453,
				"z": -0.6192899844,
				"element": "H" 
			},
			{
				"x": -2.6325473407,
				"y": 3.0869128656,
				"z": -2.1588857673,
				"element": "H" 
			},
			{
				"x": -1.9876394793,
				"y": 0.7170409304,
				"z": -1.8732466705,
				"element": "H" 
			},
			{
				"x": 1.2080809501,
				"y": 0.2132905537,
				"z": -2.2143178428,
				"element": "H" 
			},
			{
				"x": 3.6287400616,
				"y": -0.1381869587,
				"z": -2.5948469992,
				"element": "H" 
			},
			{
				"x": 5.0482804451,
				"y": -1.1046896403,
				"z": -0.7960186111,
				"element": "H" 
			},
			{
				"x": 4.0237120661,
				"y": -1.7279770136,
				"z": 1.3825405771,
				"element": "H" 
			},
			{
				"x": 1.5984712402,
				"y": -1.3927816827,
				"z": 1.7533644686,
				"element": "H" 
			}
		],
		 "valence_orbital": [ 
			{
				"type": "occ",
				"energy": -0.32085,
				"method": "rhf"
			},
			{
				"type": "occ",
				"energy": -0.26416,
				"method": "rhf"
			},
			{
				"type": "occ",
				"energy": -0.26063,
				"method": "rhf"
			},
			{
				"type": "occ",
				"energy": -0.25857,
				"method": "rhf"
			},
			{
				"type": "occ",
				"energy": -0.24733,
				"method": "rhf"
			},
			{
				"type": "unocc",
				"energy": -0.02132,
				"method": "rhf"
			},
			{
				"type": "unocc",
				"energy": -0.01659,
				"method": "rhf"
			},
			{
				"type": "unocc",
				"energy": -0.0147,
				"method": "rhf"
			},
			{
				"type": "unocc",
				"energy": -0.00241,
				"method": "rhf"
			},
			{
				"type": "unocc",
				"energy": 0.03748,
				"method": "rhf"
			}
		],
		"cosmo_sigma_profile": { 
			"-0.025": 0.0,
			"-0.024": 0.0,
			"-0.023": 0.0,
			"-0.022": 0.0,
			"-0.021": 0.0,
			"-0.02": 0.0,
			"-0.019": 0.0,
			"-0.018": 0.0,
			"-0.017": 0.0,
			"-0.016": 0.0,
			"-0.015": 0.0,
			"-0.014": 0.0,
			"-0.013": 0.0,
			"-0.012": 0.0,
			"-0.011": 0.0,
			"-0.01": 0.108243204268,
			"-0.009": 3.22294965106,
			"-0.008": 3.31195026197,
			"-0.007": 3.54461580421,
			"-0.006": 16.1537936203,
			"-0.005": 21.6209250729,
			"-0.004": 25.3745916997,
			"-0.003": 18.5804236036,
			"-0.002": 16.3996445459,
			"-0.001": 14.6920230592,
			"0.0": 13.5509009117,
			"0.001": 15.6961404782,
			"0.002": 15.504584483,
			"0.003": 18.1511893435,
			"0.004": 19.8287174753,
			"0.005": 19.9959106619,
			"0.006": 4.63420369081,
			"0.007": 2.96585730212,
			"0.008": 2.47613565181,
			"0.009": 3.38937106918,
			"0.01": 3.09532594902,
			"0.011": 2.62137665714,
			"0.012": 2.36407079349,
			"0.013": 1.61269164297,
			"0.014": 0.0985376118106,
			"0.015": 0.0,
			"0.016": 0.0,
			"0.017": 0.0,
			"0.018": 0.0,
			"0.019": 0.0,
			"0.02": 0.0,
			"0.021": 0.0,
			"0.022": 0.0,
			"0.023": 0.0,
			"0.024": 0.0,
			"0.025": 0.0
		}
	}
}
