{
	 "smiles": "CC(N1C(=O)CCC1=O)C(=O)C1=CC=CC=C1", 
	 "Tm": 381.15, 
	 "num_atms": 30, 
	 "gaussian": { 
		 "optdone": 1, 
		 "sigma_profile": "yes", 
		 "theory": "DFT", 
		 "functional": "B3LYP", 
		 "basiset": "6-31G**", 
		 "properties": { 
			 "R2extent": 3965.3953, 
			 "electric_dipole_moment_norm": 3.96377785704, 
			 "electric_quadrupole_moment_norm": 17.2053979768, 
			 "total_energy": -783.678635467, 
			 "HOMO_LUMO_gap": 0.19214, 
			 "cosmo_polarized_energy": -16.68, 
			 "cosmo_cavitation_energy": 33.37, 
			 "cosmo_dispersion_energy": -22.88, 
			 "cosmo_repulsion_energy": 1.79, 
			 "cosmo_total_nonelectrostatic_energy": 12.28, 
			 "SMD_solvation_energy": 7.5 
		},
		"coords": [
			{
				"x": 2.0521949578,
				"y": 2.9322990824,
				"z": -0.4532393274,
				"element": "C" 
			},
			{
				"x": 1.0048641868,
				"y": 1.8669033448,
				"z": -0.7788492296,
				"element": "C" 
			},
			{
				"x": 0.3924742207,
				"y": 1.3178306708,
				"z": 0.4378189927,
				"element": "N" 
			},
			{
				"x": -0.9207599274,
				"y": 1.6020947003,
				"z": 0.8139502342,
				"element": "C" 
			},
			{
				"x": -1.6971535238,
				"y": 2.2633415359,
				"z": 0.1529385486,
				"element": "O" 
			},
			{
				"x": -1.1853981402,
				"y": 0.929464709,
				"z": 2.1559878064,
				"element": "C" 
			},
			{
				"x": 0.1161657693,
				"y": 0.1884843481,
				"z": 2.4980705751,
				"element": "C" 
			},
			{
				"x": 1.0690719174,
				"y": 0.4983173534,
				"z": 1.3472348223,
				"element": "C" 
			},
			{
				"x": 2.2102963268,
				"y": 0.1141411806,
				"z": 1.2084232849,
				"element": "O" 
			},
			{
				"x": 1.5862113011,
				"y": 0.7483989255,
				"z": -1.6773323556,
				"element": "C" 
			},
			{
				"x": 2.7184341058,
				"y": 0.8555922581,
				"z": -2.1128782639,
				"element": "O" 
			},
			{
				"x": 0.7283204,
				"y": -0.4246170662,
				"z": -2.0404788456,
				"element": "C" 
			},
			{
				"x": 1.3758773602,
				"y": -1.5827630781,
				"z": -2.5001368775,
				"element": "C" 
			},
			{
				"x": 0.6376141212,
				"y": -2.6980506865,
				"z": -2.8840007979,
				"element": "C" 
			},
			{
				"x": -0.7591423177,
				"y": -2.6631965958,
				"z": -2.8310079009,
				"element": "C" 
			},
			{
				"x": -1.4120875617,
				"y": -1.5100576524,
				"z": -2.3914534817,
				"element": "C" 
			},
			{
				"x": -0.6746102244,
				"y": -0.3954152319,
				"z": -1.9904089386,
				"element": "C" 
			},
			{
				"x": 2.4523701928,
				"y": 3.3513856983,
				"z": -1.3782017666,
				"element": "H" 
			},
			{
				"x": 2.8819478464,
				"y": 2.4952032503,
				"z": 0.1047629182,
				"element": "H" 
			},
			{
				"x": 1.5971620401,
				"y": 3.7354146391,
				"z": 0.1330749856,
				"element": "H" 
			},
			{
				"x": 0.1671181958,
				"y": 2.3277654595,
				"z": -1.3162783387,
				"element": "H" 
			},
			{
				"x": -2.0521460752,
				"y": 0.2708129148,
				"z": 2.0528430953,
				"element": "H" 
			},
			{
				"x": -1.4545002281,
				"y": 1.6992250352,
				"z": 2.8851834812,
				"element": "H" 
			},
			{
				"x": 0.5764278351,
				"y": 0.5181337118,
				"z": 3.4336016316,
				"element": "H" 
			},
			{
				"x": -0.0056560597,
				"y": -0.8961927213,
				"z": 2.5658755102,
				"element": "H" 
			},
			{
				"x": 2.4597013929,
				"y": -1.5822829295,
				"z": -2.5459098536,
				"element": "H" 
			},
			{
				"x": 1.1473233862,
				"y": -3.5931406008,
				"z": -3.2284084931,
				"element": "H" 
			},
			{
				"x": -1.3367036418,
				"y": -3.5312890067,
				"z": -3.1361001677,
				"element": "H" 
			},
			{
				"x": -2.4972900883,
				"y": -1.4755843024,
				"z": -2.363164823,
				"element": "H" 
			},
			{
				"x": -1.201127768,
				"y": 0.4958810537,
				"z": -1.6639164251,
				"element": "H" 
			}
		],
		 "valence_orbital": [ 
			{
				"type": "occ",
				"energy": -0.29032,
				"method": "rhf"
			},
			{
				"type": "occ",
				"energy": -0.26698,
				"method": "rhf"
			},
			{
				"type": "occ",
				"energy": -0.26187,
				"method": "rhf"
			},
			{
				"type": "occ",
				"energy": -0.2599,
				"method": "rhf"
			},
			{
				"type": "occ",
				"energy": -0.24878,
				"method": "rhf"
			},
			{
				"type": "unocc",
				"energy": -0.05664,
				"method": "rhf"
			},
			{
				"type": "unocc",
				"energy": -0.02664,
				"method": "rhf"
			},
			{
				"type": "unocc",
				"energy": -0.01,
				"method": "rhf"
			},
			{
				"type": "unocc",
				"energy": 0.01495,
				"method": "rhf"
			},
			{
				"type": "unocc",
				"energy": 0.03142,
				"method": "rhf"
			}
		],
		"cosmo_sigma_profile": { 
			"-0.025": 0.0,
			"-0.024": 0.0,
			"-0.023": 0.0,
			"-0.022": 0.0,
			"-0.021": 0.0,
			"-0.02": 0.0,
			"-0.019": 0.0,
			"-0.018": 0.0,
			"-0.017": 0.0,
			"-0.016": 0.0,
			"-0.015": 0.0,
			"-0.014": 0.0,
			"-0.013": 0.0,
			"-0.012": 0.0,
			"-0.011": 0.0,
			"-0.01": 0.0,
			"-0.009": 0.246595653292,
			"-0.008": 3.60057362551,
			"-0.007": 17.8175832297,
			"-0.006": 21.5698556025,
			"-0.005": 20.8446373964,
			"-0.004": 26.2263901206,
			"-0.003": 20.9351034641,
			"-0.002": 17.3750582619,
			"-0.001": 16.1001935489,
			"0.0": 14.3257405135,
			"0.001": 12.6529463495,
			"0.002": 13.3126232805,
			"0.003": 14.2487295806,
			"0.004": 14.4602128699,
			"0.005": 4.77882017472,
			"0.006": 5.28822657253,
			"0.007": 4.76137868671,
			"0.008": 4.2863882015,
			"0.009": 6.62056883812,
			"0.01": 6.22150238711,
			"0.011": 11.5226630642,
			"0.012": 7.038794973,
			"0.013": 1.04106506519,
			"0.014": 0.0,
			"0.015": 0.0,
			"0.016": 0.0,
			"0.017": 0.0,
			"0.018": 0.0,
			"0.019": 0.0,
			"0.02": 0.0,
			"0.021": 0.0,
			"0.022": 0.0,
			"0.023": 0.0,
			"0.024": 0.0,
			"0.025": 0.0
		}
	}
}
