{
	 "smiles": "OC(=O)C1(CCCC1)SC1=CC=CC=C1", 
	 "Tm": 339.15, 
	 "num_atms": 29, 
	 "gaussian": { 
		 "optdone": 1, 
		 "sigma_profile": "yes", 
		 "theory": "DFT", 
		 "functional": "B3LYP", 
		 "basiset": "6-31G**", 
		 "properties": { 
			 "R2extent": 3921.1106, 
			 "electric_dipole_moment_norm": 0.919141186108, 
			 "electric_quadrupole_moment_norm": 10.0195165208, 
			 "total_energy": -1014.36528506, 
			 "HOMO_LUMO_gap": 0.19689, 
			 "cosmo_polarized_energy": -10.29, 
			 "cosmo_cavitation_energy": 32.24, 
			 "cosmo_dispersion_energy": -23.15, 
			 "cosmo_repulsion_energy": 1.78, 
			 "cosmo_total_nonelectrostatic_energy": 10.86, 
			 "SMD_solvation_energy": 5.52 
		},
		"coords": [
			{
				"x": -3.0315091999,
				"y": -0.7564338288,
				"z": 2.7447870697,
				"element": "O" 
			},
			{
				"x": -2.8138967838,
				"y": -0.1413595683,
				"z": 1.5598552012,
				"element": "C" 
			},
			{
				"x": -3.673668118,
				"y": -0.0589529401,
				"z": 0.7054580894,
				"element": "O" 
			},
			{
				"x": -1.4012256323,
				"y": 0.3988118356,
				"z": 1.4352902374,
				"element": "C" 
			},
			{
				"x": -0.7926588561,
				"y": 0.9200696288,
				"z": 2.7576644544,
				"element": "C" 
			},
			{
				"x": 0.3461930604,
				"y": 1.8767238726,
				"z": 2.3310820685,
				"element": "C" 
			},
			{
				"x": 0.0513632464,
				"y": 2.2703487348,
				"z": 0.8536299701,
				"element": "C" 
			},
			{
				"x": -1.2978260715,
				"y": 1.6136473968,
				"z": 0.5008551897,
				"element": "C" 
			},
			{
				"x": -0.3187878726,
				"y": -1.0512833825,
				"z": 0.89845794,
				"element": "S" 
			},
			{
				"x": -0.3939142292,
				"y": -1.0836783764,
				"z": -0.8934694284,
				"element": "C" 
			},
			{
				"x": -1.5911747405,
				"y": -1.2885044349,
				"z": -1.5966230816,
				"element": "C" 
			},
			{
				"x": -1.5721288374,
				"y": -1.3702883444,
				"z": -2.9892180305,
				"element": "C" 
			},
			{
				"x": -0.3660133567,
				"y": -1.2814434379,
				"z": -3.6885983549,
				"element": "C" 
			},
			{
				"x": 0.8272312487,
				"y": -1.0932983026,
				"z": -2.9900300782,
				"element": "C" 
			},
			{
				"x": 0.8142851051,
				"y": -0.9820034504,
				"z": -1.5985604724,
				"element": "C" 
			},
			{
				"x": -3.9385818376,
				"y": -1.1035615582,
				"z": 2.7052566128,
				"element": "H" 
			},
			{
				"x": -1.576999166,
				"y": 1.4668109715,
				"z": 3.294240219,
				"element": "H" 
			},
			{
				"x": -0.4634582339,
				"y": 0.1148535267,
				"z": 3.4195346671,
				"element": "H" 
			},
			{
				"x": 1.3160339055,
				"y": 1.3787320637,
				"z": 2.4084630873,
				"element": "H" 
			},
			{
				"x": 0.3831953604,
				"y": 2.7494007398,
				"z": 2.9899802931,
				"element": "H" 
			},
			{
				"x": 0.0135011825,
				"y": 3.3541202648,
				"z": 0.7096741878,
				"element": "H" 
			},
			{
				"x": 0.8375431538,
				"y": 1.8895198649,
				"z": 0.1954238834,
				"element": "H" 
			},
			{
				"x": -2.1322951012,
				"y": 2.2831758722,
				"z": 0.7432608968,
				"element": "H" 
			},
			{
				"x": -1.399257251,
				"y": 1.3536677074,
				"z": -0.5539671519,
				"element": "H" 
			},
			{
				"x": -2.5298537519,
				"y": -1.363349417,
				"z": -1.0598832774,
				"element": "H" 
			},
			{
				"x": -2.5040549589,
				"y": -1.5169361923,
				"z": -3.5278325948,
				"element": "H" 
			},
			{
				"x": -0.3573375215,
				"y": -1.3586566627,
				"z": -4.7719869575,
				"element": "H" 
			},
			{
				"x": 1.7691024802,
				"y": -1.020270603,
				"z": -3.5263682611,
				"element": "H" 
			},
			{
				"x": 1.7384927769,
				"y": -0.81916198,
				"z": -1.052776379,
				"element": "H" 
			}
		],
		 "valence_orbital": [ 
			{
				"type": "occ",
				"energy": -0.30868,
				"method": "rhf"
			},
			{
				"type": "occ",
				"energy": -0.28255,
				"method": "rhf"
			},
			{
				"type": "occ",
				"energy": -0.25846,
				"method": "rhf"
			},
			{
				"type": "occ",
				"energy": -0.25356,
				"method": "rhf"
			},
			{
				"type": "occ",
				"energy": -0.2229,
				"method": "rhf"
			},
			{
				"type": "unocc",
				"energy": -0.02601,
				"method": "rhf"
			},
			{
				"type": "unocc",
				"energy": -0.00538,
				"method": "rhf"
			},
			{
				"type": "unocc",
				"energy": 0.00205,
				"method": "rhf"
			},
			{
				"type": "unocc",
				"energy": 0.05208,
				"method": "rhf"
			},
			{
				"type": "unocc",
				"energy": 0.07128,
				"method": "rhf"
			}
		],
		"cosmo_sigma_profile": { 
			"-0.025": 0.0,
			"-0.024": 0.0,
			"-0.023": 0.0,
			"-0.022": 0.0,
			"-0.021": 0.0,
			"-0.02": 0.0,
			"-0.019": 0.0791016150868,
			"-0.018": 0.807984645835,
			"-0.017": 1.12673231977,
			"-0.016": 0.665423113347,
			"-0.015": 0.407734104263,
			"-0.014": 0.889364520648,
			"-0.013": 0.748965449365,
			"-0.012": 0.910155675579,
			"-0.011": 1.03983104026,
			"-0.01": 0.479840921639,
			"-0.009": 0.402552407787,
			"-0.008": 0.657832270421,
			"-0.007": 1.70972297796,
			"-0.006": 8.61651862884,
			"-0.005": 12.7825394603,
			"-0.004": 18.0345884042,
			"-0.003": 19.8863271197,
			"-0.002": 26.93030661,
			"-0.001": 26.5588639339,
			"0.0": 27.0369906431,
			"0.001": 20.7716967648,
			"0.002": 13.8678595013,
			"0.003": 14.1246877658,
			"0.004": 15.6688673369,
			"0.005": 14.3381782982,
			"0.006": 6.22345035256,
			"0.007": 5.93478602918,
			"0.008": 4.52313515896,
			"0.009": 2.5636986474,
			"0.01": 2.13042848851,
			"0.011": 3.05971451274,
			"0.012": 2.62781819169,
			"0.013": 0.0339717699491,
			"0.014": 0.0,
			"0.015": 0.0,
			"0.016": 0.0,
			"0.017": 0.0,
			"0.018": 0.0,
			"0.019": 0.0,
			"0.02": 0.0,
			"0.021": 0.0,
			"0.022": 0.0,
			"0.023": 0.0,
			"0.024": 0.0,
			"0.025": 0.0
		}
	}
}
