{
	 "smiles": "NC1=C2C(O)=NN=C(O)C2=CC=C1", 
	 "Tm": 603.15, 
	 "num_atms": 20, 
	 "gaussian": { 
		 "optdone": 1, 
		 "sigma_profile": "yes", 
		 "theory": "DFT", 
		 "functional": "B3LYP", 
		 "basiset": "6-31G**", 
		 "properties": { 
			 "R2extent": 2459.3074, 
			 "electric_dipole_moment_norm": 9.16044137856, 
			 "electric_quadrupole_moment_norm": 17.9544414213, 
			 "total_energy": -623.735428398, 
			 "HOMO_LUMO_gap": 0.16214, 
			 "cosmo_polarized_energy": -29.67, 
			 "cosmo_cavitation_energy": 23.86, 
			 "cosmo_dispersion_energy": -18.51, 
			 "cosmo_repulsion_energy": 1.43, 
			 "cosmo_total_nonelectrostatic_energy": 6.77, 
			 "SMD_solvation_energy": 2.85 
		},
		"coords": [
			{
				"x": -1.0977327702,
				"y": -2.0718507971,
				"z": -2.008200937,
				"element": "N" 
			},
			{
				"x": -0.132377412,
				"y": -1.2019874847,
				"z": -1.421038767,
				"element": "C" 
			},
			{
				"x": -0.5201443526,
				"y": 0.1260504137,
				"z": -1.0751339627,
				"element": "C" 
			},
			{
				"x": -1.7913023815,
				"y": 0.7310837401,
				"z": -1.3938039703,
				"element": "C" 
			},
			{
				"x": -2.7154933694,
				"y": 0.0806799105,
				"z": -2.1353334818,
				"element": "O" 
			},
			{
				"x": -2.1275436168,
				"y": 1.941860933,
				"z": -1.0197618443,
				"element": "N" 
			},
			{
				"x": -1.2755909486,
				"y": 2.6894313908,
				"z": -0.2721542241,
				"element": "N" 
			},
			{
				"x": -0.0741700572,
				"y": 2.252353388,
				"z": -0.0098310761,
				"element": "C" 
			},
			{
				"x": 0.7166484537,
				"y": 3.117448906,
				"z": 0.6883352397,
				"element": "O" 
			},
			{
				"x": 0.4193023892,
				"y": 0.9680926947,
				"z": -0.4241376656,
				"element": "C" 
			},
			{
				"x": 1.7489408375,
				"y": 0.5286319578,
				"z": -0.2299611384,
				"element": "C" 
			},
			{
				"x": 2.1217346688,
				"y": -0.7341874462,
				"z": -0.6432857936,
				"element": "C" 
			},
			{
				"x": 1.1774400675,
				"y": -1.6066157142,
				"z": -1.2164971983,
				"element": "C" 
			},
			{
				"x": -1.8263927192,
				"y": -2.3348419786,
				"z": -1.3479840018,
				"element": "H" 
			},
			{
				"x": -0.6744443586,
				"y": -2.9178043973,
				"z": -2.3754017929,
				"element": "H" 
			},
			{
				"x": -2.2959343317,
				"y": -0.7190259827,
				"z": -2.5119710312,
				"element": "H" 
			},
			{
				"x": 1.391964025,
				"y": 2.620748114,
				"z": 1.1665654205,
				"element": "H" 
			},
			{
				"x": 2.4892771184,
				"y": 1.1926951359,
				"z": 0.2055337161,
				"element": "H" 
			},
			{
				"x": 3.1454510345,
				"y": -1.070930487,
				"z": -0.5115984575,
				"element": "H" 
			},
			{
				"x": 1.4738677232,
				"y": -2.6150322968,
				"z": -1.4939390339,
				"element": "H" 
			}
		],
		 "valence_orbital": [ 
			{
				"type": "occ",
				"energy": -0.31107,
				"method": "rhf"
			},
			{
				"type": "occ",
				"energy": -0.28352,
				"method": "rhf"
			},
			{
				"type": "occ",
				"energy": -0.2642,
				"method": "rhf"
			},
			{
				"type": "occ",
				"energy": -0.22127,
				"method": "rhf"
			},
			{
				"type": "occ",
				"energy": -0.21584,
				"method": "rhf"
			},
			{
				"type": "unocc",
				"energy": -0.0537,
				"method": "rhf"
			},
			{
				"type": "unocc",
				"energy": -0.0478,
				"method": "rhf"
			},
			{
				"type": "unocc",
				"energy": 0.03524,
				"method": "rhf"
			},
			{
				"type": "unocc",
				"energy": 0.05095,
				"method": "rhf"
			},
			{
				"type": "unocc",
				"energy": 0.05664,
				"method": "rhf"
			}
		],
		"cosmo_sigma_profile": { 
			"-0.025": 0.0,
			"-0.024": 0.0,
			"-0.023": 0.0,
			"-0.022": 0.0,
			"-0.021": 0.0,
			"-0.02": 0.0,
			"-0.019": 0.12644668064,
			"-0.018": 0.729505488592,
			"-0.017": 1.15871077839,
			"-0.016": 1.0981179381,
			"-0.015": 0.818133914209,
			"-0.014": 2.02010174894,
			"-0.013": 3.78521004479,
			"-0.012": 5.18091784025,
			"-0.011": 4.8583833765,
			"-0.01": 4.69590722338,
			"-0.009": 3.61471830019,
			"-0.008": 5.37256995299,
			"-0.007": 8.99945292271,
			"-0.006": 9.79469936173,
			"-0.005": 8.56209799244,
			"-0.004": 5.95194407273,
			"-0.003": 6.66080887958,
			"-0.002": 10.4732099085,
			"-0.001": 10.4401815236,
			"0.0": 11.3743046922,
			"0.001": 12.4060428811,
			"0.002": 11.5273774498,
			"0.003": 8.08419735094,
			"0.004": 3.52152749148,
			"0.005": 3.69002543102,
			"0.006": 2.4541679136,
			"0.007": 3.56778242537,
			"0.008": 3.86059077808,
			"0.009": 3.98979745838,
			"0.01": 4.22653458239,
			"0.011": 5.63928291219,
			"0.012": 5.73351908561,
			"0.013": 4.31508200392,
			"0.014": 4.15662892531,
			"0.015": 3.83237232383,
			"0.016": 2.85662284174,
			"0.017": 1.4800650173,
			"0.018": 0.0294414864961,
			"0.019": 0.0,
			"0.02": 0.0,
			"0.021": 0.0,
			"0.022": 0.0,
			"0.023": 0.0,
			"0.024": 0.0,
			"0.025": 0.0
		}
	}
}
