{
	 "smiles": "NCCCC1=NNC(N)=C1C#N", 
	 "Tm": 443.15, 
	 "num_atms": 23, 
	 "gaussian": { 
		 "optdone": 1, 
		 "sigma_profile": "yes", 
		 "theory": "DFT", 
		 "functional": "B3LYP", 
		 "basiset": "6-31G**", 
		 "properties": { 
			 "R2extent": 2911.3279, 
			 "electric_dipole_moment_norm": 5.978990097, 
			 "electric_quadrupole_moment_norm": 21.2293572543, 
			 "total_energy": -547.101441579, 
			 "HOMO_LUMO_gap": 0.22699, 
			 "cosmo_polarized_energy": -23.17, 
			 "cosmo_cavitation_energy": 27.88, 
			 "cosmo_dispersion_energy": -19.47, 
			 "cosmo_repulsion_energy": 1.62, 
			 "cosmo_total_nonelectrostatic_energy": 10.02, 
			 "SMD_solvation_energy": 3.29 
		},
		"coords": [
			{
				"x": -3.5347966165,
				"y": 1.1366103392,
				"z": -0.0671579625,
				"element": "N" 
			},
			{
				"x": -2.6061674879,
				"y": 1.0308757451,
				"z": -1.1948499509,
				"element": "C" 
			},
			{
				"x": -1.1309094182,
				"y": 0.736882775,
				"z": -0.8629014387,
				"element": "C" 
			},
			{
				"x": -0.9199679306,
				"y": -0.6284495314,
				"z": -0.1794583555,
				"element": "C" 
			},
			{
				"x": 0.5103843447,
				"y": -0.9064606611,
				"z": 0.1704513301,
				"element": "C" 
			},
			{
				"x": 0.9230304594,
				"y": -0.9077636401,
				"z": 1.4263452686,
				"element": "N" 
			},
			{
				"x": 2.2670114686,
				"y": -1.1810766023,
				"z": 1.3566154006,
				"element": "N" 
			},
			{
				"x": 2.7135928706,
				"y": -1.3543049442,
				"z": 0.0924367717,
				"element": "C" 
			},
			{
				"x": 4.0359014769,
				"y": -1.5767191391,
				"z": -0.2290666501,
				"element": "N" 
			},
			{
				"x": 1.5933808056,
				"y": -1.1864184112,
				"z": -0.7287472553,
				"element": "C" 
			},
			{
				"x": 1.5849745074,
				"y": -1.3141700639,
				"z": -2.1350024606,
				"element": "C" 
			},
			{
				"x": 1.6060078136,
				"y": -1.4295486067,
				"z": -3.2956390342,
				"element": "N" 
			},
			{
				"x": -3.1961005917,
				"y": 1.8256768204,
				"z": 0.6011298571,
				"element": "H" 
			},
			{
				"x": -3.5921845657,
				"y": 0.2539877393,
				"z": 0.4341398637,
				"element": "H" 
			},
			{
				"x": -2.6559113507,
				"y": 1.9715596068,
				"z": -1.7566092689,
				"element": "H" 
			},
			{
				"x": -2.9886814345,
				"y": 0.2535377941,
				"z": -1.8691221408,
				"element": "H" 
			},
			{
				"x": -0.7384637558,
				"y": 1.5283951561,
				"z": -0.2099715803,
				"element": "H" 
			},
			{
				"x": -0.5444348698,
				"y": 0.7755931371,
				"z": -1.7896217062,
				"element": "H" 
			},
			{
				"x": -1.2938544132,
				"y": -1.4218839877,
				"z": -0.8404688411,
				"element": "H" 
			},
			{
				"x": -1.4988404702,
				"y": -0.6771171391,
				"z": 0.7483143792,
				"element": "H" 
			},
			{
				"x": 2.8127809083,
				"y": -1.1711204268,
				"z": 2.2037929379,
				"element": "H" 
			},
			{
				"x": 4.5402018462,
				"y": -2.2048752674,
				"z": 0.3834681439,
				"element": "H" 
			},
			{
				"x": 4.1779464036,
				"y": -1.8049106923,
				"z": -1.2048773076,
				"element": "H" 
			}
		],
		 "valence_orbital": [ 
			{
				"type": "occ",
				"energy": -0.33036,
				"method": "rhf"
			},
			{
				"type": "occ",
				"energy": -0.2965,
				"method": "rhf"
			},
			{
				"type": "occ",
				"energy": -0.25989,
				"method": "rhf"
			},
			{
				"type": "occ",
				"energy": -0.2294,
				"method": "rhf"
			},
			{
				"type": "occ",
				"energy": -0.22795,
				"method": "rhf"
			},
			{
				"type": "unocc",
				"energy": -0.00096,
				"method": "rhf"
			},
			{
				"type": "unocc",
				"energy": 0.0171,
				"method": "rhf"
			},
			{
				"type": "unocc",
				"energy": 0.02615,
				"method": "rhf"
			},
			{
				"type": "unocc",
				"energy": 0.05088,
				"method": "rhf"
			},
			{
				"type": "unocc",
				"energy": 0.07683,
				"method": "rhf"
			}
		],
		"cosmo_sigma_profile": { 
			"-0.025": 0.0,
			"-0.024": 0.0,
			"-0.023": 0.0,
			"-0.022": 0.0,
			"-0.021": 0.0,
			"-0.02": 0.0,
			"-0.019": 0.0,
			"-0.018": 0.0181360311647,
			"-0.017": 1.63461994589,
			"-0.016": 2.51278420488,
			"-0.015": 2.65492930565,
			"-0.014": 3.67007040584,
			"-0.013": 2.92163367261,
			"-0.012": 2.81973557398,
			"-0.011": 4.16265088092,
			"-0.01": 3.03462157323,
			"-0.009": 4.37010318484,
			"-0.008": 5.32954916215,
			"-0.007": 6.04179212033,
			"-0.006": 5.89294541679,
			"-0.005": 5.88870353485,
			"-0.004": 9.29756765967,
			"-0.003": 17.6815694127,
			"-0.002": 17.5102560931,
			"-0.001": 17.2286822083,
			"0.0": 13.5474185023,
			"0.001": 13.3441874215,
			"0.002": 11.9384090741,
			"0.003": 7.40539498156,
			"0.004": 4.94494435629,
			"0.005": 5.5753934782,
			"0.006": 5.39032713032,
			"0.007": 4.56591067342,
			"0.008": 5.34009972817,
			"0.009": 5.07555248316,
			"0.01": 6.71735289621,
			"0.011": 5.3128592229,
			"0.012": 4.95103451913,
			"0.013": 4.64973315128,
			"0.014": 3.10728621521,
			"0.015": 1.54165608017,
			"0.016": 1.13972219727,
			"0.017": 0.628131489359,
			"0.018": 0.639693714106,
			"0.019": 0.740108549037,
			"0.02": 0.298570738502,
			"0.021": 0.0,
			"0.022": 0.0,
			"0.023": 0.0,
			"0.024": 0.0,
			"0.025": 0.0
		}
	}
}
