{
	 "smiles": "OC(CN1C=NC=N1)(CN1C=NC=N1)C1=CC=C(F)C=C1F", 
	 "Tm": 412.15, 
	 "num_atms": 34, 
	 "gaussian": { 
		 "optdone": 1, 
		 "sigma_profile": "yes", 
		 "theory": "DFT", 
		 "functional": "B3LYP", 
		 "basiset": "6-31G**", 
		 "properties": { 
			 "R2extent": 6418.6333, 
			 "electric_dipole_moment_norm": 3.69855125826, 
			 "electric_quadrupole_moment_norm": 18.6330399514, 
			 "total_energy": -1105.97125396, 
			 "HOMO_LUMO_gap": 0.22984, 
			 "cosmo_polarized_energy": -20.58, 
			 "cosmo_cavitation_energy": 38.36, 
			 "cosmo_dispersion_energy": -25.95, 
			 "cosmo_repulsion_energy": 1.89, 
			 "cosmo_total_nonelectrostatic_energy": 14.3, 
			 "SMD_solvation_energy": 3.39 
		},
		"coords": [
			{
				"x": -0.7467531346,
				"y": -0.9821730717,
				"z": -0.5544392991,
				"element": "O" 
			},
			{
				"x": 0.4204673656,
				"y": -0.1965315022,
				"z": -0.3829783475,
				"element": "C" 
			},
			{
				"x": 0.7273199152,
				"y": 0.5986502199,
				"z": -1.6900577811,
				"element": "C" 
			},
			{
				"x": -0.3347652195,
				"y": 1.5143708276,
				"z": -2.064237596,
				"element": "N" 
			},
			{
				"x": -0.3682647602,
				"y": 2.8669308286,
				"z": -2.0555597787,
				"element": "C" 
			},
			{
				"x": -1.5571598775,
				"y": 3.3047015022,
				"z": -2.4335358764,
				"element": "N" 
			},
			{
				"x": -2.241195063,
				"y": 2.1510680446,
				"z": -2.6570630952,
				"element": "C" 
			},
			{
				"x": -1.5505294853,
				"y": 1.0371071249,
				"z": -2.4537288564,
				"element": "N" 
			},
			{
				"x": 1.559263805,
				"y": -1.2354789662,
				"z": -0.2469979358,
				"element": "C" 
			},
			{
				"x": 1.5131304404,
				"y": -2.014627556,
				"z": 0.977370217,
				"element": "N" 
			},
			{
				"x": 0.5442527939,
				"y": -2.8259821237,
				"z": 1.4661385909,
				"element": "C" 
			},
			{
				"x": 0.932314752,
				"y": -3.3679101699,
				"z": 2.6088596501,
				"element": "N" 
			},
			{
				"x": 2.177854276,
				"y": -2.8440171874,
				"z": 2.7789410461,
				"element": "C" 
			},
			{
				"x": 2.5826019574,
				"y": -2.0202735121,
				"z": 1.8230895357,
				"element": "N" 
			},
			{
				"x": 0.3255238001,
				"y": 0.7569338215,
				"z": 0.8201755413,
				"element": "C" 
			},
			{
				"x": 1.4412984298,
				"y": 1.0743355916,
				"z": 1.6132386771,
				"element": "C" 
			},
			{
				"x": 1.3684774249,
				"y": 1.9612787305,
				"z": 2.6861138483,
				"element": "C" 
			},
			{
				"x": 0.1454641645,
				"y": 2.5505631458,
				"z": 2.9801785338,
				"element": "C" 
			},
			{
				"x": 0.0537635957,
				"y": 3.4068385007,
				"z": 4.0128270902,
				"element": "F" 
			},
			{
				"x": -0.9916514924,
				"y": 2.2795135253,
				"z": 2.2319430174,
				"element": "C" 
			},
			{
				"x": -0.8737360242,
				"y": 1.3930604242,
				"z": 1.1685568526,
				"element": "C" 
			},
			{
				"x": -1.9954299091,
				"y": 1.1723971651,
				"z": 0.4456919767,
				"element": "F" 
			},
			{
				"x": -1.4347332259,
				"y": -0.4412654232,
				"z": -0.97962127,
				"element": "H" 
			},
			{
				"x": 1.6408244149,
				"y": 1.1862162928,
				"z": -1.569563248,
				"element": "H" 
			},
			{
				"x": 0.8651244216,
				"y": -0.1106055319,
				"z": -2.511733726,
				"element": "H" 
			},
			{
				"x": 0.4840651429,
				"y": 3.4739839728,
				"z": -1.7828500044,
				"element": "H" 
			},
			{
				"x": -3.2715565256,
				"y": 2.125718459,
				"z": -2.9837478585,
				"element": "H" 
			},
			{
				"x": 1.4729365867,
				"y": -1.9060739123,
				"z": -1.1070521364,
				"element": "H" 
			},
			{
				"x": 2.5461311679,
				"y": -0.7723948289,
				"z": -0.27153299,
				"element": "H" 
			},
			{
				"x": -0.401876371,
				"y": -2.9630653771,
				"z": 0.9647056561,
				"element": "H" 
			},
			{
				"x": 2.8064659741,
				"y": -3.0755609573,
				"z": 3.6279460491,
				"element": "H" 
			},
			{
				"x": 2.3932673927,
				"y": 0.593748125,
				"z": 1.4218248411,
				"element": "H" 
			},
			{
				"x": 2.2369806989,
				"y": 2.1836829711,
				"z": 3.2950468899,
				"element": "H" 
			},
			{
				"x": -1.9438774319,
				"y": 2.7432608467,
				"z": 2.4579517865,
				"element": "H" 
			}
		],
		 "valence_orbital": [ 
			{
				"type": "occ",
				"energy": -0.27919,
				"method": "rhf"
			},
			{
				"type": "occ",
				"energy": -0.27385,
				"method": "rhf"
			},
			{
				"type": "occ",
				"energy": -0.26985,
				"method": "rhf"
			},
			{
				"type": "occ",
				"energy": -0.2632,
				"method": "rhf"
			},
			{
				"type": "occ",
				"energy": -0.25705,
				"method": "rhf"
			},
			{
				"type": "unocc",
				"energy": -0.02721,
				"method": "rhf"
			},
			{
				"type": "unocc",
				"energy": -0.0177,
				"method": "rhf"
			},
			{
				"type": "unocc",
				"energy": -0.0146,
				"method": "rhf"
			},
			{
				"type": "unocc",
				"energy": 0.00588,
				"method": "rhf"
			},
			{
				"type": "unocc",
				"energy": 0.0362,
				"method": "rhf"
			}
		],
		"cosmo_sigma_profile": { 
			"-0.025": 0.0,
			"-0.024": 0.0,
			"-0.023": 0.0,
			"-0.022": 0.0,
			"-0.021": 0.0,
			"-0.02": 0.0,
			"-0.019": 0.0,
			"-0.018": 0.0,
			"-0.017": 0.0,
			"-0.016": 0.0,
			"-0.015": 0.0,
			"-0.014": 0.0,
			"-0.013": 0.0,
			"-0.012": 0.119332590399,
			"-0.011": 3.24563916056,
			"-0.01": 4.92244957621,
			"-0.009": 8.90269045047,
			"-0.008": 17.0884363515,
			"-0.007": 14.7279890736,
			"-0.006": 16.3889462051,
			"-0.005": 14.841109819,
			"-0.004": 12.9278847358,
			"-0.003": 11.8518105487,
			"-0.002": 13.4707387371,
			"-0.001": 15.4685304918,
			"0.0": 23.3147769747,
			"0.001": 29.6454267036,
			"0.002": 24.3597615551,
			"0.003": 24.397045726,
			"0.004": 21.0424124852,
			"0.005": 7.23269057771,
			"0.006": 6.01466044324,
			"0.007": 7.38989932348,
			"0.008": 5.32809429786,
			"0.009": 3.90457094943,
			"0.01": 4.75936220651,
			"0.011": 3.60666224305,
			"0.012": 3.42848307318,
			"0.013": 2.76367911433,
			"0.014": 2.11857047526,
			"0.015": 2.64654598088,
			"0.016": 1.68026387309,
			"0.017": 0.46890732794,
			"0.018": 0.0,
			"0.019": 0.0,
			"0.02": 0.0,
			"0.021": 0.0,
			"0.022": 0.0,
			"0.023": 0.0,
			"0.024": 0.0,
			"0.025": 0.0
		}
	}
}
