{
	 "smiles": "OC(=O)C1=CC(=CC=C1)N1CCOC1=O", 
	 "Tm": 488.15, 
	 "num_atms": 24, 
	 "gaussian": { 
		 "optdone": 1, 
		 "sigma_profile": "yes", 
		 "theory": "DFT", 
		 "functional": "B3LYP", 
		 "basiset": "6-31G**", 
		 "properties": { 
			 "R2extent": 3909.3625, 
			 "electric_dipole_moment_norm": 4.60041435199, 
			 "electric_quadrupole_moment_norm": 17.651545131, 
			 "total_energy": -742.166823542, 
			 "HOMO_LUMO_gap": 0.1797, 
			 "cosmo_polarized_energy": -17.52, 
			 "cosmo_cavitation_energy": 28.41, 
			 "cosmo_dispersion_energy": -21.27, 
			 "cosmo_repulsion_energy": 1.65, 
			 "cosmo_total_nonelectrostatic_energy": 8.79, 
			 "SMD_solvation_energy": 6.9 
		},
		"coords": [
			{
				"x": 0.9669760988,
				"y": 0.9047020112,
				"z": -2.6967286293,
				"element": "O" 
			},
			{
				"x": 1.9184402721,
				"y": 1.0456966767,
				"z": -1.7361336072,
				"element": "C" 
			},
			{
				"x": 3.0466034214,
				"y": 1.4101686638,
				"z": -2.000987383,
				"element": "O" 
			},
			{
				"x": 1.4289809121,
				"y": 0.7116579274,
				"z": -0.3724615845,
				"element": "C" 
			},
			{
				"x": 0.1080778193,
				"y": 0.3019626236,
				"z": -0.1510016821,
				"element": "C" 
			},
			{
				"x": -0.3280028644,
				"y": -0.0073141104,
				"z": 1.1444436581,
				"element": "C" 
			},
			{
				"x": 0.5784972804,
				"y": 0.0987598135,
				"z": 2.2165088545,
				"element": "C" 
			},
			{
				"x": 1.888015131,
				"y": 0.5114840444,
				"z": 1.9792217657,
				"element": "C" 
			},
			{
				"x": 2.3267423842,
				"y": 0.8190985765,
				"z": 0.6937116198,
				"element": "C" 
			},
			{
				"x": -1.6595671698,
				"y": -0.4410212369,
				"z": 1.335935177,
				"element": "N" 
			},
			{
				"x": -2.5955347277,
				"y": -0.6094737491,
				"z": 0.2302962968,
				"element": "C" 
			},
			{
				"x": -3.8025291505,
				"y": -1.2212580013,
				"z": 0.9551009008,
				"element": "C" 
			},
			{
				"x": -3.6239828513,
				"y": -0.8617133988,
				"z": 2.3316110537,
				"element": "O" 
			},
			{
				"x": -2.3252653261,
				"y": -0.5021659473,
				"z": 2.5571121053,
				"element": "C" 
			},
			{
				"x": -1.8938381622,
				"y": -0.2867074351,
				"z": 3.663939003,
				"element": "O" 
			},
			{
				"x": 1.4008690227,
				"y": 1.1497433909,
				"z": -3.5303381878,
				"element": "H" 
			},
			{
				"x": -0.5604997091,
				"y": 0.2354931266,
				"z": -0.998672534,
				"element": "H" 
			},
			{
				"x": 0.2445501353,
				"y": -0.1302322319,
				"z": 3.2185205006,
				"element": "H" 
			},
			{
				"x": 2.5730188262,
				"y": 0.5895567915,
				"z": 2.8181061955,
				"element": "H" 
			},
			{
				"x": 3.3435697292,
				"y": 1.1387427563,
				"z": 0.4964561658,
				"element": "H" 
			},
			{
				"x": -2.1950348106,
				"y": -1.2772999412,
				"z": -0.5377340165,
				"element": "H" 
			},
			{
				"x": -2.8329027107,
				"y": 0.3551914715,
				"z": -0.2383023183,
				"element": "H" 
			},
			{
				"x": -4.759579501,
				"y": -0.824434628,
				"z": 0.6121366668,
				"element": "H" 
			},
			{
				"x": -3.8150040492,
				"y": -2.3138371938,
				"z": 0.8750599793,
				"element": "H" 
			}
		],
		 "valence_orbital": [ 
			{
				"type": "occ",
				"energy": -0.30483,
				"method": "rhf"
			},
			{
				"type": "occ",
				"energy": -0.28572,
				"method": "rhf"
			},
			{
				"type": "occ",
				"energy": -0.2799,
				"method": "rhf"
			},
			{
				"type": "occ",
				"energy": -0.2655,
				"method": "rhf"
			},
			{
				"type": "occ",
				"energy": -0.23129,
				"method": "rhf"
			},
			{
				"type": "unocc",
				"energy": -0.05159,
				"method": "rhf"
			},
			{
				"type": "unocc",
				"energy": -0.01399,
				"method": "rhf"
			},
			{
				"type": "unocc",
				"energy": 0.03648,
				"method": "rhf"
			},
			{
				"type": "unocc",
				"energy": 0.06266,
				"method": "rhf"
			},
			{
				"type": "unocc",
				"energy": 0.06963,
				"method": "rhf"
			}
		],
		"cosmo_sigma_profile": { 
			"-0.025": 0.0,
			"-0.024": 0.0,
			"-0.023": 0.0,
			"-0.022": 0.0,
			"-0.021": 0.0,
			"-0.02": 0.0,
			"-0.019": 0.0199278807346,
			"-0.018": 1.00998807149,
			"-0.017": 0.511929780994,
			"-0.016": 0.835953442286,
			"-0.015": 1.39483505523,
			"-0.014": 0.581150059266,
			"-0.013": 0.0986686754593,
			"-0.012": 0.560056179598,
			"-0.011": 0.950755017116,
			"-0.01": 0.987722107123,
			"-0.009": 0.543404972004,
			"-0.008": 4.10649814971,
			"-0.007": 18.0634764189,
			"-0.006": 20.2026884419,
			"-0.005": 15.6412346814,
			"-0.004": 10.951557298,
			"-0.003": 10.2981843378,
			"-0.002": 10.957708594,
			"-0.001": 11.7941251,
			"0.0": 12.3489136037,
			"0.001": 14.8636318499,
			"0.002": 15.0447860828,
			"0.003": 17.3847531999,
			"0.004": 9.43256317888,
			"0.005": 5.40727243739,
			"0.006": 4.93075597136,
			"0.007": 6.03942463825,
			"0.008": 4.61141507308,
			"0.009": 4.93329711691,
			"0.01": 6.48722791275,
			"0.011": 7.49152533352,
			"0.012": 7.09096713666,
			"0.013": 1.55808984431,
			"0.014": 0.00835441252778,
			"0.015": 0.0,
			"0.016": 0.0,
			"0.017": 0.0,
			"0.018": 0.0,
			"0.019": 0.0,
			"0.02": 0.0,
			"0.021": 0.0,
			"0.022": 0.0,
			"0.023": 0.0,
			"0.024": 0.0,
			"0.025": 0.0
		}
	}
}
