{
	 "smiles": "COC1=CC(OC)=C(OC)C=C1C(=O)NO", 
	 "Tm": 461.15, 
	 "num_atms": 29, 
	 "gaussian": { 
		 "optdone": 1, 
		 "sigma_profile": "yes", 
		 "theory": "DFT", 
		 "functional": "B3LYP", 
		 "basiset": "6-31G**", 
		 "properties": { 
			 "R2extent": 4351.2279, 
			 "electric_dipole_moment_norm": 5.48982792444, 
			 "electric_quadrupole_moment_norm": 12.2522259423, 
			 "total_energy": -819.678398319, 
			 "HOMO_LUMO_gap": 0.18001, 
			 "cosmo_polarized_energy": -14.22, 
			 "cosmo_cavitation_energy": 32.68, 
			 "cosmo_dispersion_energy": -23.69, 
			 "cosmo_repulsion_energy": 1.86, 
			 "cosmo_total_nonelectrostatic_energy": 10.85, 
			 "SMD_solvation_energy": 9.33 
		},
		"coords": [
			{
				"x": 2.2314755813,
				"y": 1.6425218836,
				"z": -2.5124351859,
				"element": "C" 
			},
			{
				"x": 1.8387464173,
				"y": 1.6481691691,
				"z": -1.1442052668,
				"element": "O" 
			},
			{
				"x": 1.0233206538,
				"y": 0.6475091279,
				"z": -0.6816989257,
				"element": "C" 
			},
			{
				"x": 0.551790705,
				"y": -0.376457722,
				"z": -1.5070002667,
				"element": "C" 
			},
			{
				"x": -0.2691253213,
				"y": -1.3859594415,
				"z": -0.9975376148,
				"element": "C" 
			},
			{
				"x": -0.6642376486,
				"y": -2.3780556284,
				"z": -1.8568410542,
				"element": "O" 
			},
			{
				"x": -2.0804890942,
				"y": -2.5028901443,
				"z": -2.0581884325,
				"element": "C" 
			},
			{
				"x": -0.6133148961,
				"y": -1.3856286789,
				"z": 0.3662115542,
				"element": "C" 
			},
			{
				"x": -1.417057732,
				"y": -2.3680744948,
				"z": 0.9054265767,
				"element": "O" 
			},
			{
				"x": -0.7588955547,
				"y": -3.6263750391,
				"z": 1.0939168143,
				"element": "C" 
			},
			{
				"x": -0.1507668061,
				"y": -0.355135514,
				"z": 1.1748519124,
				"element": "C" 
			},
			{
				"x": 0.6566575544,
				"y": 0.6786491901,
				"z": 0.6832591906,
				"element": "C" 
			},
			{
				"x": 1.0803965146,
				"y": 1.6987147435,
				"z": 1.6874079771,
				"element": "C" 
			},
			{
				"x": 0.8422212152,
				"y": 1.5790112934,
				"z": 2.8992897709,
				"element": "O" 
			},
			{
				"x": 1.6940417132,
				"y": 2.8322153334,
				"z": 1.25220469,
				"element": "N" 
			},
			{
				"x": 2.2282008585,
				"y": 3.6477816872,
				"z": 2.2550316111,
				"element": "O" 
			},
			{
				"x": 2.8749305726,
				"y": 2.5134594924,
				"z": -2.6421216596,
				"element": "H" 
			},
			{
				"x": 2.7924663149,
				"y": 0.734698282,
				"z": -2.7626077238,
				"element": "H" 
			},
			{
				"x": 1.3634741639,
				"y": 1.7306264754,
				"z": -3.1758761004,
				"element": "H" 
			},
			{
				"x": 0.8002310457,
				"y": -0.4244261567,
				"z": -2.5591545447,
				"element": "H" 
			},
			{
				"x": -2.21346191,
				"y": -3.3426374818,
				"z": -2.7426046459,
				"element": "H" 
			},
			{
				"x": -2.4828069801,
				"y": -1.5924479394,
				"z": -2.5190850201,
				"element": "H" 
			},
			{
				"x": -2.6020560161,
				"y": -2.6982531447,
				"z": -1.1180742945,
				"element": "H" 
			},
			{
				"x": -1.5019600035,
				"y": -4.3007372369,
				"z": 1.5244339545,
				"element": "H" 
			},
			{
				"x": 0.0840021085,
				"y": -3.5244436707,
				"z": 1.788526436,
				"element": "H" 
			},
			{
				"x": -0.3987248282,
				"y": -4.0342485777,
				"z": 0.1429759206,
				"element": "H" 
			},
			{
				"x": -0.411638448,
				"y": -0.3409239085,
				"z": 2.2270419193,
				"element": "H" 
			},
			{
				"x": 2.2271904553,
				"y": 2.8523436067,
				"z": 0.3940649571,
				"element": "H" 
			},
			{
				"x": 1.8730893648,
				"y": 3.1924944948,
				"z": 3.0518874509,
				"element": "H" 
			}
		],
		 "valence_orbital": [ 
			{
				"type": "occ",
				"energy": -0.27154,
				"method": "rhf"
			},
			{
				"type": "occ",
				"energy": -0.26584,
				"method": "rhf"
			},
			{
				"type": "occ",
				"energy": -0.2514,
				"method": "rhf"
			},
			{
				"type": "occ",
				"energy": -0.22977,
				"method": "rhf"
			},
			{
				"type": "occ",
				"energy": -0.2173,
				"method": "rhf"
			},
			{
				"type": "unocc",
				"energy": -0.03729,
				"method": "rhf"
			},
			{
				"type": "unocc",
				"energy": -0.00074,
				"method": "rhf"
			},
			{
				"type": "unocc",
				"energy": 0.05895,
				"method": "rhf"
			},
			{
				"type": "unocc",
				"energy": 0.0792,
				"method": "rhf"
			},
			{
				"type": "unocc",
				"energy": 0.08307,
				"method": "rhf"
			}
		],
		"cosmo_sigma_profile": { 
			"-0.025": 0.0,
			"-0.024": 0.0,
			"-0.023": 0.0,
			"-0.022": 0.0,
			"-0.021": 0.0,
			"-0.02": 0.0,
			"-0.019": 0.0,
			"-0.018": 0.0,
			"-0.017": 0.0,
			"-0.016": 0.0,
			"-0.015": 0.0,
			"-0.014": 0.0,
			"-0.013": 0.104398549901,
			"-0.012": 1.18482523458,
			"-0.011": 0.73850286706,
			"-0.01": 0.961295132413,
			"-0.009": 1.4794300836,
			"-0.008": 1.88464043313,
			"-0.007": 5.13955215388,
			"-0.006": 14.6871449093,
			"-0.005": 20.0171590731,
			"-0.004": 24.3778479525,
			"-0.003": 27.7269256717,
			"-0.002": 22.0684892678,
			"-0.001": 17.7780922422,
			"0.0": 15.0375772806,
			"0.001": 18.3138568862,
			"0.002": 21.4957666851,
			"0.003": 14.0615650389,
			"0.004": 5.93019006297,
			"0.005": 6.53963745353,
			"0.006": 4.63900312891,
			"0.007": 5.39635587243,
			"0.008": 6.35212875299,
			"0.009": 4.42506150426,
			"0.01": 5.11060130015,
			"0.011": 6.78047052437,
			"0.012": 4.10551104017,
			"0.013": 2.69571440095,
			"0.014": 0.0596813204763,
			"0.015": 0.0,
			"0.016": 0.0,
			"0.017": 0.0,
			"0.018": 0.0,
			"0.019": 0.0,
			"0.02": 0.0,
			"0.021": 0.0,
			"0.022": 0.0,
			"0.023": 0.0,
			"0.024": 0.0,
			"0.025": 0.0
		}
	}
}
