{
	 "smiles": "CC(C)(C)CCO", 
	 "Tm": 213.15, 
	 "num_atms": 21, 
	 "gaussian": { 
		 "optdone": 1, 
		 "sigma_profile": "yes", 
		 "theory": "DFT", 
		 "functional": "B3LYP", 
		 "basiset": "6-31G**", 
		 "properties": { 
			 "R2extent": 1515.5921, 
			 "electric_dipole_moment_norm": 1.46053160527, 
			 "electric_quadrupole_moment_norm": 6.2694897743, 
			 "total_energy": -312.304216389, 
			 "HOMO_LUMO_gap": 0.33467, 
			 "cosmo_polarized_energy": -5.87, 
			 "cosmo_cavitation_energy": 21.9, 
			 "cosmo_dispersion_energy": -15.8, 
			 "cosmo_repulsion_energy": 1.33, 
			 "cosmo_total_nonelectrostatic_energy": 7.43, 
			 "SMD_solvation_energy": 3.94 
		},
		"coords": [
			{
				"x": 2.8069707017,
				"y": 0.4511032985,
				"z": 0.7744507968,
				"element": "C" 
			},
			{
				"x": 1.626242757,
				"y": 0.8551304431,
				"z": -0.1311576888,
				"element": "C" 
			},
			{
				"x": 0.3754715201,
				"y": 1.0591601198,
				"z": 0.7477452761,
				"element": "C" 
			},
			{
				"x": 1.9777031322,
				"y": 2.1776993644,
				"z": -0.8423314968,
				"element": "C" 
			},
			{
				"x": 1.4060356836,
				"y": -0.2864697965,
				"z": -1.1561325343,
				"element": "C" 
			},
			{
				"x": 0.276539215,
				"y": -0.1048216449,
				"z": -2.1661390243,
				"element": "C" 
			},
			{
				"x": 0.2681375983,
				"y": -1.2666838773,
				"z": -2.9923388812,
				"element": "O" 
			},
			{
				"x": 3.0100924399,
				"y": 1.2249869241,
				"z": 1.5234023277,
				"element": "H" 
			},
			{
				"x": 3.7217673397,
				"y": 0.3025473548,
				"z": 0.1895892667,
				"element": "H" 
			},
			{
				"x": 2.5959233187,
				"y": -0.4832225298,
				"z": 1.3068842288,
				"element": "H" 
			},
			{
				"x": -0.4842482253,
				"y": 1.4065382335,
				"z": 0.1652386078,
				"element": "H" 
			},
			{
				"x": 0.0871069418,
				"y": 0.1272652869,
				"z": 1.2476029446,
				"element": "H" 
			},
			{
				"x": 0.5671890276,
				"y": 1.8079924603,
				"z": 1.5246400446,
				"element": "H" 
			},
			{
				"x": 2.2151767876,
				"y": 2.9584166091,
				"z": -0.1107801344,
				"element": "H" 
			},
			{
				"x": 1.1496068502,
				"y": 2.547194668,
				"z": -1.4561939914,
				"element": "H" 
			},
			{
				"x": 2.8502113867,
				"y": 2.0562722589,
				"z": -1.4945752301,
				"element": "H" 
			},
			{
				"x": 2.3324347212,
				"y": -0.4423312575,
				"z": -1.7238041171,
				"element": "H" 
			},
			{
				"x": 1.2156860911,
				"y": -1.2223365468,
				"z": -0.6151364563,
				"element": "H" 
			},
			{
				"x": -0.6884617741,
				"y": 0.0145430298,
				"z": -1.6493792804,
				"element": "H" 
			},
			{
				"x": 0.4391586889,
				"y": 0.8023527492,
				"z": -2.7687185953,
				"element": "H" 
			},
			{
				"x": -0.4419442021,
				"y": -1.1680371474,
				"z": -3.6383660626,
				"element": "H" 
			}
		],
		 "valence_orbital": [ 
			{
				"type": "occ",
				"energy": -0.3359,
				"method": "rhf"
			},
			{
				"type": "occ",
				"energy": -0.31497,
				"method": "rhf"
			},
			{
				"type": "occ",
				"energy": -0.31491,
				"method": "rhf"
			},
			{
				"type": "occ",
				"energy": -0.30362,
				"method": "rhf"
			},
			{
				"type": "occ",
				"energy": -0.26015,
				"method": "rhf"
			},
			{
				"type": "unocc",
				"energy": 0.07452,
				"method": "rhf"
			},
			{
				"type": "unocc",
				"energy": 0.08182,
				"method": "rhf"
			},
			{
				"type": "unocc",
				"energy": 0.12663,
				"method": "rhf"
			},
			{
				"type": "unocc",
				"energy": 0.13191,
				"method": "rhf"
			},
			{
				"type": "unocc",
				"energy": 0.13694,
				"method": "rhf"
			}
		],
		"cosmo_sigma_profile": { 
			"-0.025": 0.0,
			"-0.024": 0.0,
			"-0.023": 0.0,
			"-0.022": 0.0,
			"-0.021": 0.0,
			"-0.02": 0.0,
			"-0.019": 0.0,
			"-0.018": 0.0,
			"-0.017": 0.0,
			"-0.016": 0.0662510651136,
			"-0.015": 0.980940326147,
			"-0.014": 0.967593909213,
			"-0.013": 1.05242818886,
			"-0.012": 0.795523293559,
			"-0.011": 0.864561983549,
			"-0.01": 0.987962881127,
			"-0.009": 0.597188649251,
			"-0.008": 0.276302821006,
			"-0.007": 1.06044306002,
			"-0.006": 1.0494698658,
			"-0.005": 1.26982382476,
			"-0.004": 1.23931313946,
			"-0.003": 11.5457832861,
			"-0.002": 32.7112193759,
			"-0.001": 28.5927802192,
			"0.0": 23.4489376873,
			"0.001": 22.1823682069,
			"0.002": 18.2090201397,
			"0.003": 2.23756863897,
			"0.004": 1.49621006011,
			"0.005": 1.21351061478,
			"0.006": 1.17631996743,
			"0.007": 1.62747899534,
			"0.008": 1.33733813766,
			"0.009": 0.954391146168,
			"0.01": 1.45906124493,
			"0.011": 1.3542625455,
			"0.012": 1.52033146895,
			"0.013": 1.42225440537,
			"0.014": 1.93312235781,
			"0.015": 1.64603474679,
			"0.016": 0.00348409821839,
			"0.017": 0.0,
			"0.018": 0.0,
			"0.019": 0.0,
			"0.02": 0.0,
			"0.021": 0.0,
			"0.022": 0.0,
			"0.023": 0.0,
			"0.024": 0.0,
			"0.025": 0.0
		}
	}
}
