{
	 "smiles": "CC1=CC=C(C=C(/OC2=CC=CC(C)=C2)C2=NC3=CC=CC=C3S2)C=C1", 
	 "Tm": 411.15, 
	 "num_atms": 45, 
	 "gaussian": { 
		 "optdone": 1, 
		 "sigma_profile": "yes", 
		 "theory": "DFT", 
		 "functional": "B3LYP", 
		 "basiset": "6-31G**", 
		 "properties": { 
			 "R2extent": 12600.4666, 
			 "electric_dipole_moment_norm": 1.33830428154, 
			 "electric_quadrupole_moment_norm": 15.4940250426, 
			 "total_energy": -1416.06976157, 
			 "HOMO_LUMO_gap": 0.13864, 
			 "cosmo_polarized_energy": -10.08, 
			 "cosmo_cavitation_energy": 50.93, 
			 "cosmo_dispersion_energy": -35.52, 
			 "cosmo_repulsion_energy": 2.67, 
			 "cosmo_total_nonelectrostatic_energy": 18.08, 
			 "SMD_solvation_energy": 6.63 
		},
		"coords": [
			{
				"x": 1.7769941978,
				"y": 0.7440332984,
				"z": -6.3621576492,
				"element": "C" 
			},
			{
				"x": 1.6755926781,
				"y": 0.8675958383,
				"z": -4.8614573993,
				"element": "C" 
			},
			{
				"x": 0.4881871413,
				"y": 0.539366548,
				"z": -4.1887590516,
				"element": "C" 
			},
			{
				"x": 0.3872173987,
				"y": 0.6179270809,
				"z": -2.8048102816,
				"element": "C" 
			},
			{
				"x": 1.4869237165,
				"y": 1.0388400616,
				"z": -2.0263346913,
				"element": "C" 
			},
			{
				"x": 1.4818017099,
				"y": 1.1627803146,
				"z": -0.5740030026,
				"element": "C" 
			},
			{
				"x": 0.5453252729,
				"y": 0.8158378069,
				"z": 0.3380149334,
				"element": "C" 
			},
			{
				"x": -0.6965359194,
				"y": 0.3066561124,
				"z": -0.0072944708,
				"element": "O" 
			},
			{
				"x": -0.9142620617,
				"y": -1.0659983946,
				"z": 0.0578124409,
				"element": "C" 
			},
			{
				"x": 0.1029538393,
				"y": -1.9996372668,
				"z": 0.2484743435,
				"element": "C" 
			},
			{
				"x": -0.2362223343,
				"y": -3.3547170525,
				"z": 0.2720136026,
				"element": "C" 
			},
			{
				"x": -1.5558390183,
				"y": -3.7678462123,
				"z": 0.1039716164,
				"element": "C" 
			},
			{
				"x": -2.5769405397,
				"y": -2.8246767525,
				"z": -0.0896144966,
				"element": "C" 
			},
			{
				"x": -4.0152667236,
				"y": -3.2623183388,
				"z": -0.241043326,
				"element": "C" 
			},
			{
				"x": -2.2408629651,
				"y": -1.46880703,
				"z": -0.112276695,
				"element": "C" 
			},
			{
				"x": 0.7323341053,
				"y": 1.0604798726,
				"z": 1.768876046,
				"element": "C" 
			},
			{
				"x": 1.8476869765,
				"y": 1.4388603231,
				"z": 2.3219221654,
				"element": "N" 
			},
			{
				"x": 1.6959331998,
				"y": 1.6226037655,
				"z": 3.6811780131,
				"element": "C" 
			},
			{
				"x": 2.7133059038,
				"y": 2.0287874785,
				"z": 4.5604282931,
				"element": "C" 
			},
			{
				"x": 2.4204703586,
				"y": 2.1686523855,
				"z": 5.9105898165,
				"element": "C" 
			},
			{
				"x": 1.1277169873,
				"y": 1.9086234411,
				"z": 6.4009007019,
				"element": "C" 
			},
			{
				"x": 0.1044807467,
				"y": 1.504133639,
				"z": 5.5474832751,
				"element": "C" 
			},
			{
				"x": 0.3958861811,
				"y": 1.3642663047,
				"z": 4.1880746367,
				"element": "C" 
			},
			{
				"x": -0.655172848,
				"y": 0.8828825741,
				"z": 2.8743161083,
				"element": "S" 
			},
			{
				"x": 2.6728995631,
				"y": 1.3815066949,
				"z": -2.7066722526,
				"element": "C" 
			},
			{
				"x": 2.7653090781,
				"y": 1.2947026397,
				"z": -4.0917235614,
				"element": "C" 
			},
			{
				"x": 2.587246027,
				"y": 1.3607991094,
				"z": -6.7615831331,
				"element": "H" 
			},
			{
				"x": 1.9771618468,
				"y": -0.2929419471,
				"z": -6.6607428129,
				"element": "H" 
			},
			{
				"x": 0.8460392436,
				"y": 1.045693073,
				"z": -6.8527337413,
				"element": "H" 
			},
			{
				"x": -0.3767323892,
				"y": 0.2178104483,
				"z": -4.7642030316,
				"element": "H" 
			},
			{
				"x": -0.5487437261,
				"y": 0.3707968706,
				"z": -2.3216369666,
				"element": "H" 
			},
			{
				"x": 2.3720052066,
				"y": 1.6058569219,
				"z": -0.1347073405,
				"element": "H" 
			},
			{
				"x": 1.1316899467,
				"y": -1.6796036829,
				"z": 0.3658957328,
				"element": "H" 
			},
			{
				"x": 0.547206264,
				"y": -4.0931983469,
				"z": 0.4171260889,
				"element": "H" 
			},
			{
				"x": -1.7987315727,
				"y": -4.8268898147,
				"z": 0.1206801653,
				"element": "H" 
			},
			{
				"x": -4.4774623081,
				"y": -3.443436602,
				"z": 0.7373537887,
				"element": "H" 
			},
			{
				"x": -4.6150041438,
				"y": -2.502517137,
				"z": -0.7501970089,
				"element": "H" 
			},
			{
				"x": -4.0906999882,
				"y": -4.1935081712,
				"z": -0.8112475273,
				"element": "H" 
			},
			{
				"x": -3.0007762896,
				"y": -0.7068226335,
				"z": -0.2585028325,
				"element": "H" 
			},
			{
				"x": 3.7055925985,
				"y": 2.2249925379,
				"z": 4.1678335925,
				"element": "H" 
			},
			{
				"x": 3.1989350792,
				"y": 2.4827443139,
				"z": 6.5994519407,
				"element": "H" 
			},
			{
				"x": 0.922664235,
				"y": 2.0243087283,
				"z": 7.4609938689,
				"element": "H" 
			},
			{
				"x": -0.8911217055,
				"y": 1.3044106158,
				"z": 5.9307609685,
				"element": "H" 
			},
			{
				"x": 3.5314037377,
				"y": 1.7209338096,
				"z": -2.1327848901,
				"element": "H" 
			},
			{
				"x": 3.6957112937,
				"y": 1.5662367744,
				"z": -4.5842659766,
				"element": "H" 
			}
		],
		 "valence_orbital": [ 
			{
				"type": "occ",
				"energy": -0.24976,
				"method": "rhf"
			},
			{
				"type": "occ",
				"energy": -0.24314,
				"method": "rhf"
			},
			{
				"type": "occ",
				"energy": -0.23209,
				"method": "rhf"
			},
			{
				"type": "occ",
				"energy": -0.22314,
				"method": "rhf"
			},
			{
				"type": "occ",
				"energy": -0.20557,
				"method": "rhf"
			},
			{
				"type": "unocc",
				"energy": -0.06693,
				"method": "rhf"
			},
			{
				"type": "unocc",
				"energy": -0.00485,
				"method": "rhf"
			},
			{
				"type": "unocc",
				"energy": -0.00238,
				"method": "rhf"
			},
			{
				"type": "unocc",
				"energy": -0.00085,
				"method": "rhf"
			},
			{
				"type": "unocc",
				"energy": 0.00125,
				"method": "rhf"
			}
		],
		"cosmo_sigma_profile": { 
			"-0.025": 0.0,
			"-0.024": 0.0,
			"-0.023": 0.0,
			"-0.022": 0.0,
			"-0.021": 0.0,
			"-0.02": 0.0,
			"-0.019": 0.0,
			"-0.018": 0.0,
			"-0.017": 0.0,
			"-0.016": 0.0,
			"-0.015": 0.0,
			"-0.014": 0.0,
			"-0.013": 0.0,
			"-0.012": 0.0,
			"-0.011": 0.0,
			"-0.01": 0.0,
			"-0.009": 0.0,
			"-0.008": 0.307729983165,
			"-0.007": 5.15574132934,
			"-0.006": 15.8284705589,
			"-0.005": 24.3243726971,
			"-0.004": 39.1873260125,
			"-0.003": 33.1707633953,
			"-0.002": 31.033643701,
			"-0.001": 34.8840983977,
			"0.0": 42.0660328873,
			"0.001": 33.0410116202,
			"0.002": 38.0134851325,
			"0.003": 37.107462358,
			"0.004": 32.9305311867,
			"0.005": 27.3264948383,
			"0.006": 7.58126789511,
			"0.007": 2.30330443854,
			"0.008": 1.82009322245,
			"0.009": 0.949068648657,
			"0.01": 1.24546990044,
			"0.011": 1.05931263598,
			"0.012": 0.608889347638,
			"0.013": 0.0524417750749,
			"0.014": 0.0,
			"0.015": 0.0,
			"0.016": 0.0,
			"0.017": 0.0,
			"0.018": 0.0,
			"0.019": 0.0,
			"0.02": 0.0,
			"0.021": 0.0,
			"0.022": 0.0,
			"0.023": 0.0,
			"0.024": 0.0,
			"0.025": 0.0
		}
	}
}
