{
	 "smiles": "BrCC(=O)C1=CC=C(C=C1)S(=O)(=O)N1CCCCCC1", 
	 "Tm": 344.15, 
	 "num_atms": 38, 
	 "gaussian": { 
		 "optdone": 1, 
		 "sigma_profile": "yes", 
		 "theory": "DFT", 
		 "functional": "B3LYP", 
		 "basiset": "6-31G**", 
		 "properties": { 
			 "R2extent": 12125.2406, 
			 "electric_dipole_moment_norm": 4.37052517325, 
			 "electric_quadrupole_moment_norm": 27.4330861441, 
			 "total_energy": -3794.27679425, 
			 "HOMO_LUMO_gap": 0.16338, 
			 "cosmo_polarized_energy": -19.05, 
			 "cosmo_cavitation_energy": 42.74, 
			 "cosmo_dispersion_energy": -30.74, 
			 "cosmo_repulsion_energy": 2.33, 
			 "cosmo_total_nonelectrostatic_energy": 14.33, 
			 "SMD_solvation_energy": 4.91 
		},
		"coords": [
			{
				"x": 0.7827235701,
				"y": -2.076202521,
				"z": -6.2305919883,
				"element": "Br" 
			},
			{
				"x": 1.0092428284,
				"y": -1.879193101,
				"z": -4.3045256504,
				"element": "C" 
			},
			{
				"x": 0.3835214821,
				"y": -0.5991116529,
				"z": -3.7479003513,
				"element": "C" 
			},
			{
				"x": -0.1858958953,
				"y": 0.2080182503,
				"z": -4.4545089237,
				"element": "O" 
			},
			{
				"x": 0.5072034885,
				"y": -0.3793760454,
				"z": -2.2651304997,
				"element": "C" 
			},
			{
				"x": -0.0379437046,
				"y": 0.8059838348,
				"z": -1.7413221819,
				"element": "C" 
			},
			{
				"x": 0.0357135918,
				"y": 1.0773874523,
				"z": -0.3813437094,
				"element": "C" 
			},
			{
				"x": 0.6555872091,
				"y": 0.151906976,
				"z": 0.4654955626,
				"element": "C" 
			},
			{
				"x": 1.2150245208,
				"y": -1.02357805,
				"z": -0.0330422382,
				"element": "C" 
			},
			{
				"x": 1.1366970288,
				"y": -1.2870611472,
				"z": -1.4013378374,
				"element": "C" 
			},
			{
				"x": 0.7554828753,
				"y": 0.502759977,
				"z": 2.2309787041,
				"element": "S" 
			},
			{
				"x": 1.7055724677,
				"y": -0.4638936494,
				"z": 2.7957990366,
				"element": "O" 
			},
			{
				"x": 0.9612943124,
				"y": 1.9467439773,
				"z": 2.3823314383,
				"element": "O" 
			},
			{
				"x": -0.8033550624,
				"y": 0.1575963908,
				"z": 2.7573807684,
				"element": "N" 
			},
			{
				"x": -1.0906353052,
				"y": -1.2784173913,
				"z": 2.9703586675,
				"element": "C" 
			},
			{
				"x": -2.5521996624,
				"y": -1.5191646936,
				"z": 3.3599847724,
				"element": "C" 
			},
			{
				"x": -3.6084852058,
				"y": -0.9911848385,
				"z": 2.3747050564,
				"element": "C" 
			},
			{
				"x": -3.4397569787,
				"y": 0.4882546271,
				"z": 1.9691489088,
				"element": "C" 
			},
			{
				"x": -2.9649809073,
				"y": 1.4164357456,
				"z": 3.0971896878,
				"element": "C" 
			},
			{
				"x": -1.5110290319,
				"y": 1.143848329,
				"z": 3.5930661884,
				"element": "C" 
			},
			{
				"x": 2.0828351851,
				"y": -1.8959502959,
				"z": -4.1060610002,
				"element": "H" 
			},
			{
				"x": 0.5595764868,
				"y": -2.7588707103,
				"z": -3.8398786518,
				"element": "H" 
			},
			{
				"x": -0.5098128399,
				"y": 1.5011457034,
				"z": -2.4269908026,
				"element": "H" 
			},
			{
				"x": -0.3641117827,
				"y": 2.000176725,
				"z": 0.0248472625,
				"element": "H" 
			},
			{
				"x": 1.7169109832,
				"y": -1.7061779044,
				"z": 0.6434119329,
				"element": "H" 
			},
			{
				"x": 1.5764842417,
				"y": -2.2035540754,
				"z": -1.7804130569,
				"element": "H" 
			},
			{
				"x": -0.8660062191,
				"y": -1.808791937,
				"z": 2.0370123159,
				"element": "H" 
			},
			{
				"x": -0.4324263931,
				"y": -1.6904262256,
				"z": 3.7462648827,
				"element": "H" 
			},
			{
				"x": -2.7324263389,
				"y": -1.091190123,
				"z": 4.352720218,
				"element": "H" 
			},
			{
				"x": -2.6762849943,
				"y": -2.6018685338,
				"z": 3.4824610027,
				"element": "H" 
			},
			{
				"x": -4.5920432161,
				"y": -1.1333969114,
				"z": 2.8401455191,
				"element": "H" 
			},
			{
				"x": -3.6102352047,
				"y": -1.6096495851,
				"z": 1.4682031809,
				"element": "H" 
			},
			{
				"x": -4.396176179,
				"y": 0.8618142594,
				"z": 1.5845777789,
				"element": "H" 
			},
			{
				"x": -2.7273844387,
				"y": 0.5605278919,
				"z": 1.1410769649,
				"element": "H" 
			},
			{
				"x": -3.6506342947,
				"y": 1.3487417406,
				"z": 3.9510489671,
				"element": "H" 
			},
			{
				"x": -3.027460982,
				"y": 2.4500814271,
				"z": 2.7389752255,
				"element": "H" 
			},
			{
				"x": -1.5112738347,
				"y": 0.8015278992,
				"z": 4.6355050218,
				"element": "H" 
			},
			{
				"x": -0.9266118006,
				"y": 2.0628081852,
				"z": 3.5660578279,
				"element": "H" 
			}
		],
		 "valence_orbital": [ 
			{
				"type": "occ",
				"energy": -0.28483,
				"method": "rhf"
			},
			{
				"type": "occ",
				"energy": -0.28089,
				"method": "rhf"
			},
			{
				"type": "occ",
				"energy": -0.27972,
				"method": "rhf"
			},
			{
				"type": "occ",
				"energy": -0.27618,
				"method": "rhf"
			},
			{
				"type": "occ",
				"energy": -0.24984,
				"method": "rhf"
			},
			{
				"type": "unocc",
				"energy": -0.08646,
				"method": "rhf"
			},
			{
				"type": "unocc",
				"energy": -0.0357,
				"method": "rhf"
			},
			{
				"type": "unocc",
				"energy": -0.00683,
				"method": "rhf"
			},
			{
				"type": "unocc",
				"energy": 0.00044,
				"method": "rhf"
			},
			{
				"type": "unocc",
				"energy": 0.05076,
				"method": "rhf"
			}
		],
		"cosmo_sigma_profile": { 
			"-0.025": 0.0,
			"-0.024": 0.0,
			"-0.023": 0.0,
			"-0.022": 0.0,
			"-0.021": 0.0,
			"-0.02": 0.0,
			"-0.019": 0.0,
			"-0.018": 0.0,
			"-0.017": 0.0,
			"-0.016": 0.0,
			"-0.015": 0.0,
			"-0.014": 0.0,
			"-0.013": 0.0,
			"-0.012": 0.0,
			"-0.011": 0.0408781075098,
			"-0.01": 5.32785860164,
			"-0.009": 8.31192396013,
			"-0.008": 5.89080689902,
			"-0.007": 9.02364211677,
			"-0.006": 8.4072192623,
			"-0.005": 9.87574157449,
			"-0.004": 23.2465733803,
			"-0.003": 34.0088920083,
			"-0.002": 38.5156111295,
			"-0.001": 37.7905600849,
			"0.0": 34.6417122228,
			"0.001": 31.7899447421,
			"0.002": 12.08499835,
			"0.003": 7.44450697379,
			"0.004": 9.34864240739,
			"0.005": 12.3706146769,
			"0.006": 9.4894913404,
			"0.007": 4.8216212169,
			"0.008": 5.88847444172,
			"0.009": 6.94878103893,
			"0.01": 9.98105627398,
			"0.011": 10.7422060404,
			"0.012": 4.18679922002,
			"0.013": 0.203085013768,
			"0.014": 0.0,
			"0.015": 0.0,
			"0.016": 0.0,
			"0.017": 0.0,
			"0.018": 0.0,
			"0.019": 0.0,
			"0.02": 0.0,
			"0.021": 0.0,
			"0.022": 0.0,
			"0.023": 0.0,
			"0.024": 0.0,
			"0.025": 0.0
		}
	}
}
