{
	 "smiles": "OC(=O)C1=C(OCC2=C(Cl)C=C(Cl)C=C2)C=CC=C1", 
	 "Tm": 436.15, 
	 "num_atms": 29, 
	 "gaussian": { 
		 "optdone": 1, 
		 "sigma_profile": "yes", 
		 "theory": "DFT", 
		 "functional": "B3LYP", 
		 "basiset": "6-31G**", 
		 "properties": { 
			 "R2extent": 6830.8043, 
			 "electric_dipole_moment_norm": 3.38445526784, 
			 "electric_quadrupole_moment_norm": 10.9295134183, 
			 "total_energy": -1685.57085253, 
			 "HOMO_LUMO_gap": 0.19177, 
			 "cosmo_polarized_energy": -15.39, 
			 "cosmo_cavitation_energy": 37.45, 
			 "cosmo_dispersion_energy": -26.03, 
			 "cosmo_repulsion_energy": 2.02, 
			 "cosmo_total_nonelectrostatic_energy": 13.43, 
			 "SMD_solvation_energy": 6.85 
		},
		"coords": [
			{
				"x": -0.1342860549,
				"y": -3.7913211314,
				"z": 0.0394952007,
				"element": "O" 
			},
			{
				"x": -0.4437742111,
				"y": -2.4994614278,
				"z": -0.2657249607,
				"element": "C" 
			},
			{
				"x": -1.5749924733,
				"y": -2.0787609094,
				"z": -0.1519746525,
				"element": "O" 
			},
			{
				"x": 0.7587460382,
				"y": -1.7306596161,
				"z": -0.6961910681,
				"element": "C" 
			},
			{
				"x": 0.6438855646,
				"y": -0.5299263484,
				"z": -1.4302825987,
				"element": "C" 
			},
			{
				"x": -0.5804344498,
				"y": -0.1436790995,
				"z": -1.897961638,
				"element": "O" 
			},
			{
				"x": -1.0299515699,
				"y": 1.194546891,
				"z": -1.6220789855,
				"element": "C" 
			},
			{
				"x": -1.6122488756,
				"y": 1.329325782,
				"z": -0.2351775113,
				"element": "C" 
			},
			{
				"x": -2.9291074842,
				"y": 0.955574082,
				"z": 0.0743281927,
				"element": "C" 
			},
			{
				"x": -4.0020934834,
				"y": 0.3455931923,
				"z": -1.1715892419,
				"element": "Cl" 
			},
			{
				"x": -3.4412095905,
				"y": 1.0668144926,
				"z": 1.3657683543,
				"element": "C" 
			},
			{
				"x": -2.6152413379,
				"y": 1.5595218607,
				"z": 2.3742715481,
				"element": "C" 
			},
			{
				"x": -3.2528642127,
				"y": 1.7019625735,
				"z": 4.0038075201,
				"element": "Cl" 
			},
			{
				"x": -1.3026679501,
				"y": 1.944510885,
				"z": 2.1120658495,
				"element": "C" 
			},
			{
				"x": -0.8221282212,
				"y": 1.8247819198,
				"z": 0.8096369962,
				"element": "C" 
			},
			{
				"x": 1.8004953884,
				"y": 0.1884455079,
				"z": -1.7641837859,
				"element": "C" 
			},
			{
				"x": 3.0562012505,
				"y": -0.2666549012,
				"z": -1.3706105695,
				"element": "C" 
			},
			{
				"x": 3.1805446654,
				"y": -1.4585375074,
				"z": -0.653030009,
				"element": "C" 
			},
			{
				"x": 2.0385238186,
				"y": -2.1849948249,
				"z": -0.3339412547,
				"element": "C" 
			},
			{
				"x": -0.9672118752,
				"y": -4.185458954,
				"z": 0.346686074,
				"element": "H" 
			},
			{
				"x": -1.7821081719,
				"y": 1.3973128949,
				"z": -2.3852636663,
				"element": "H" 
			},
			{
				"x": -0.2105321668,
				"y": 1.9105916024,
				"z": -1.745314137,
				"element": "H" 
			},
			{
				"x": -4.4613671692,
				"y": 0.7731177896,
				"z": 1.5788223241,
				"element": "H" 
			},
			{
				"x": -0.6747780553,
				"y": 2.3303836061,
				"z": 2.9067106265,
				"element": "H" 
			},
			{
				"x": 0.2000374369,
				"y": 2.1237029666,
				"z": 0.5946854264,
				"element": "H" 
			},
			{
				"x": 1.7122382529,
				"y": 1.0879255926,
				"z": -2.3646529283,
				"element": "H" 
			},
			{
				"x": 3.9405311235,
				"y": 0.302705424,
				"z": -1.642648422,
				"element": "H" 
			},
			{
				"x": 4.1585637293,
				"y": -1.8208480369,
				"z": -0.352956012,
				"element": "H" 
			},
			{
				"x": 2.1189300846,
				"y": -3.1143143059,
				"z": 0.2175033287,
				"element": "H" 
			}
		],
		 "valence_orbital": [ 
			{
				"type": "occ",
				"energy": -0.26924,
				"method": "rhf"
			},
			{
				"type": "occ",
				"energy": -0.26228,
				"method": "rhf"
			},
			{
				"type": "occ",
				"energy": -0.2607,
				"method": "rhf"
			},
			{
				"type": "occ",
				"energy": -0.2498,
				"method": "rhf"
			},
			{
				"type": "occ",
				"energy": -0.23722,
				"method": "rhf"
			},
			{
				"type": "unocc",
				"energy": -0.04545,
				"method": "rhf"
			},
			{
				"type": "unocc",
				"energy": -0.02934,
				"method": "rhf"
			},
			{
				"type": "unocc",
				"energy": -0.02241,
				"method": "rhf"
			},
			{
				"type": "unocc",
				"energy": -0.00774,
				"method": "rhf"
			},
			{
				"type": "unocc",
				"energy": 0.01076,
				"method": "rhf"
			}
		],
		"cosmo_sigma_profile": { 
			"-0.025": 0.0,
			"-0.024": 0.0,
			"-0.023": 0.0,
			"-0.022": 0.0,
			"-0.021": 0.0,
			"-0.02": 0.0,
			"-0.019": 0.0,
			"-0.018": 0.421937647826,
			"-0.017": 0.947906923679,
			"-0.016": 0.806978343986,
			"-0.015": 0.922754309667,
			"-0.014": 0.772521499557,
			"-0.013": 0.50657358504,
			"-0.012": 0.531591116146,
			"-0.011": 0.603443151936,
			"-0.01": 0.989986376493,
			"-0.009": 0.757382767444,
			"-0.008": 5.46002651896,
			"-0.007": 12.0977551554,
			"-0.006": 17.1266276017,
			"-0.005": 17.7429354127,
			"-0.004": 17.3878748796,
			"-0.003": 14.5069873579,
			"-0.002": 18.5662135471,
			"-0.001": 19.429583963,
			"0.0": 21.6296469022,
			"0.001": 30.7107330138,
			"0.002": 30.3691367027,
			"0.003": 27.8663403106,
			"0.004": 26.6176700205,
			"0.005": 8.27356321775,
			"0.006": 4.46586095832,
			"0.007": 5.52681204372,
			"0.008": 3.98231031851,
			"0.009": 4.93202041596,
			"0.01": 4.05420904749,
			"0.011": 3.18727476913,
			"0.012": 2.10749264724,
			"0.013": 0.888150392213,
			"0.014": 0.428615681379,
			"0.015": 0.13953652305,
			"0.016": 0.0176455742344,
			"0.017": 0.0,
			"0.018": 0.0,
			"0.019": 0.0,
			"0.02": 0.0,
			"0.021": 0.0,
			"0.022": 0.0,
			"0.023": 0.0,
			"0.024": 0.0,
			"0.0": 0.0
		}
	}
}
