{
	 "smiles": "CCCCC(CC)COC(=O)CCCCC(=O)OCC(CC)CCCC", 
	 "Tm": 205.75, 
	 "num_atms": 68, 
	 "gaussian": { 
		 "optdone": 1, 
		 "sigma_profile": "no", 
		 "theory": "DFT", 
		 "functional": "B3LYP", 
		 "basiset": "6-31G**", 
		 "properties": { 
			 "R2extent": 11801.7158, 
			 "electric_dipole_moment_norm": 2.51750063952, 
			 "electric_quadrupole_moment_norm": 12.4671278529, 
			 "total_energy": -1164.63055176, 
			 "HOMO_LUMO_gap": 0.27057, 
			 "cosmo_polarized_energy": -11.4, 
			 "cosmo_cavitation_energy": 65.72, 
			 "cosmo_dispersion_energy": -37.14, 
			 "cosmo_repulsion_energy": 2.87, 
			 "cosmo_total_nonelectrostatic_energy": 31.46, 
			 "SMD_solvation_energy": 10.81 
		},
		"coords": [
			{
				"x": -0.0687535212,
				"y": -3.0520296413,
				"z": 3.5741610646,
				"element": "C" 
			},
			{
				"x": 0.485750478,
				"y": -4.0930080232,
				"z": 2.594297363,
				"element": "C" 
			},
			{
				"x": 1.8217284262,
				"y": -3.7072406662,
				"z": 1.9354366229,
				"element": "C" 
			},
			{
				"x": 1.7315962711,
				"y": -2.5156611161,
				"z": 0.970952058,
				"element": "C" 
			},
			{
				"x": 3.0794314255,
				"y": -2.0960568539,
				"z": 0.3480108725,
				"element": "C" 
			},
			{
				"x": 3.788934312,
				"y": -3.2112120672,
				"z": -0.4601648485,
				"element": "C" 
			},
			{
				"x": 2.9781838729,
				"y": -3.883022824,
				"z": -1.5766625087,
				"element": "C" 
			},
			{
				"x": 2.9646209937,
				"y": -0.7731564504,
				"z": -0.414651346,
				"element": "C" 
			},
			{
				"x": 1.9598478738,
				"y": -0.8622341076,
				"z": -1.455055463,
				"element": "O" 
			},
			{
				"x": 2.1653591552,
				"y": -0.13194555,
				"z": -2.576207807,
				"element": "C" 
			},
			{
				"x": 3.143567574,
				"y": 0.5569669418,
				"z": -2.7713750015,
				"element": "O" 
			},
			{
				"x": 1.0348593977,
				"y": -0.3464337568,
				"z": -3.566532114,
				"element": "C" 
			},
			{
				"x": 1.0866868457,
				"y": 0.6049892378,
				"z": -4.7674902948,
				"element": "C" 
			},
			{
				"x": 0.8184827324,
				"y": 2.0891171872,
				"z": -4.4651749449,
				"element": "C" 
			},
			{
				"x": -0.5975001027,
				"y": 2.4007711313,
				"z": -3.9577948781,
				"element": "C" 
			},
			{
				"x": -0.7784161641,
				"y": 2.2204753756,
				"z": -2.4615882508,
				"element": "C" 
			},
			{
				"x": 0.1097815596,
				"y": 2.2976640326,
				"z": -1.6360085782,
				"element": "O" 
			},
			{
				"x": -2.0780577547,
				"y": 2.0137231618,
				"z": -2.1528425303,
				"element": "O" 
			},
			{
				"x": -2.4095776842,
				"y": 1.9578135092,
				"z": -0.742301771,
				"element": "C" 
			},
			{
				"x": -2.1591925922,
				"y": 0.5754017917,
				"z": -0.1292442661,
				"element": "C" 
			},
			{
				"x": -2.9894772421,
				"y": -0.503477087,
				"z": -0.8564058507,
				"element": "C" 
			},
			{
				"x": -2.5892856224,
				"y": -1.9465563257,
				"z": -0.5278496502,
				"element": "C" 
			},
			{
				"x": -2.452262583,
				"y": 0.601257108,
				"z": 1.3878645698,
				"element": "C" 
			},
			{
				"x": -1.6643106861,
				"y": 1.6213053999,
				"z": 2.2324489158,
				"element": "C" 
			},
			{
				"x": -0.1364723351,
				"y": 1.510248925,
				"z": 2.1272126637,
				"element": "C" 
			},
			{
				"x": 0.5923048819,
				"y": 2.4610048729,
				"z": 3.0829592302,
				"element": "C" 
			},
			{
				"x": 0.6522784197,
				"y": -2.8380443873,
				"z": 4.3719145315,
				"element": "H" 
			},
			{
				"x": -0.3023704474,
				"y": -2.1043594733,
				"z": 3.0779136927,
				"element": "H" 
			},
			{
				"x": -0.9897251903,
				"y": -3.4085849885,
				"z": 4.0473716929,
				"element": "H" 
			},
			{
				"x": -0.258444944,
				"y": -4.2907145189,
				"z": 1.8104950987,
				"element": "H" 
			},
			{
				"x": 0.6215267985,
				"y": -5.0425055053,
				"z": 3.1277774451,
				"element": "H" 
			},
			{
				"x": 2.2059691316,
				"y": -4.5829526377,
				"z": 1.3980217241,
				"element": "H" 
			},
			{
				"x": 2.5596159601,
				"y": -3.4855566751,
				"z": 2.7207543324,
				"element": "H" 
			},
			{
				"x": 1.32269565,
				"y": -1.6463828452,
				"z": 1.5016429097,
				"element": "H" 
			},
			{
				"x": 1.0137158041,
				"y": -2.7434291611,
				"z": 0.1736666863,
				"element": "H" 
			},
			{
				"x": 3.7573053177,
				"y": -1.8532741715,
				"z": 1.1821472773,
				"element": "H" 
			},
			{
				"x": 4.7066367256,
				"y": -2.7866749692,
				"z": -0.8881493252,
				"element": "H" 
			},
			{
				"x": 4.1236538667,
				"y": -3.9844343731,
				"z": 0.2419930694,
				"element": "H" 
			},
			{
				"x": 2.650977487,
				"y": -3.1640010156,
				"z": -2.3310693455,
				"element": "H" 
			},
			{
				"x": 3.5832678731,
				"y": -4.6464068117,
				"z": -2.07723355,
				"element": "H" 
			},
			{
				"x": 2.0836850203,
				"y": -4.3796651056,
				"z": -1.1865486001,
				"element": "H" 
			},
			{
				"x": 2.6551471941,
				"y": 0.0330034552,
				"z": 0.260628442,
				"element": "H" 
			},
			{
				"x": 3.9157248977,
				"y": -0.4885591712,
				"z": -0.8707554447,
				"element": "H" 
			},
			{
				"x": 0.0845965366,
				"y": -0.2918922478,
				"z": -3.0257550788,
				"element": "H" 
			},
			{
				"x": 1.1102512652,
				"y": -1.3861517528,
				"z": -3.9124722996,
				"element": "H" 
			},
			{
				"x": 0.3632314847,
				"y": 0.2530520742,
				"z": -5.5146288452,
				"element": "H" 
			},
			{
				"x": 2.0782618069,
				"y": 0.5223630592,
				"z": -5.2246656734,
				"element": "H" 
			},
			{
				"x": 0.9819549408,
				"y": 2.6523904379,
				"z": -5.3908858195,
				"element": "H" 
			},
			{
				"x": 1.5476968151,
				"y": 2.4553637728,
				"z": -3.7373801864,
				"element": "H" 
			},
			{
				"x": -1.3639785826,
				"y": 1.8204190746,
				"z": -4.4827531089,
				"element": "H" 
			},
			{
				"x": -0.8368245547,
				"y": 3.4552285958,
				"z": -4.152561071,
				"element": "H" 
			},
			{
				"x": -3.4728126883,
				"y": 2.2151637872,
				"z": -0.7043820686,
				"element": "H" 
			},
			{
				"x": -1.8333840926,
				"y": 2.7288377868,
				"z": -0.2283818089,
				"element": "H" 
			},
			{
				"x": -1.0964991376,
				"y": 0.3456401023,
				"z": -0.2760887251,
				"element": "H" 
			},
			{
				"x": -2.889780153,
				"y": -0.3467739468,
				"z": -1.9366867687,
				"element": "H" 
			},
			{
				"x": -4.0538491544,
				"y": -0.3526783359,
				"z": -0.6244013995,
				"element": "H" 
			},
			{
				"x": -1.530399443,
				"y": -2.1206200622,
				"z": -0.7516493015,
				"element": "H" 
			},
			{
				"x": -2.749664824,
				"y": -2.1920423217,
				"z": 0.5267386754,
				"element": "H" 
			},
			{
				"x": -3.175181457,
				"y": -2.657277088,
				"z": -1.1199962083,
				"element": "H" 
			},
			{
				"x": -3.5281561124,
				"y": 0.7766272671,
				"z": 1.5347769134,
				"element": "H" 
			},
			{
				"x": -2.2563220516,
				"y": -0.4003750869,
				"z": 1.7892908654,
				"element": "H" 
			},
			{
				"x": -1.9599204874,
				"y": 1.486526369,
				"z": 3.2819485508,
				"element": "H" 
			},
			{
				"x": -1.9667482817,
				"y": 2.6455017811,
				"z": 1.9752665492,
				"element": "H" 
			},
			{
				"x": 0.1633955765,
				"y": 0.474745508,
				"z": 2.3436360824,
				"element": "H" 
			},
			{
				"x": 0.1818319997,
				"y": 1.7168691683,
				"z": 1.0984782007,
				"element": "H" 
			},
			{
				"x": 0.3326770575,
				"y": 3.5053821405,
				"z": 2.8748040876,
				"element": "H" 
			},
			{
				"x": 0.3285079063,
				"y": 2.2573172927,
				"z": 4.1273750664,
				"element": "H" 
			},
			{
				"x": 1.6791265547,
				"y": 2.3674207746,
				"z": 2.9889094785,
				"element": "H" 
			}
		],
		 "valence_orbital": [ 
			{
				"type": "occ",
				"energy": -0.30319,
				"method": "rhf"
			},
			{
				"type": "occ",
				"energy": -0.28992,
				"method": "rhf"
			},
			{
				"type": "occ",
				"energy": -0.28197,
				"method": "rhf"
			},
			{
				"type": "occ",
				"energy": -0.26999,
				"method": "rhf"
			},
			{
				"type": "occ",
				"energy": -0.26198,
				"method": "rhf"
			},
			{
				"type": "unocc",
				"energy": 0.00859,
				"method": "rhf"
			},
			{
				"type": "unocc",
				"energy": 0.0241,
				"method": "rhf"
			},
			{
				"type": "unocc",
				"energy": 0.05189,
				"method": "rhf"
			},
			{
				"type": "unocc",
				"energy": 0.0719,
				"method": "rhf"
			},
			{
				"type": "unocc",
				"energy": 0.08146,
				"method": "rhf"
			}
		],
		"cosmo_sigma_profile": { 
			"0.0": 0.0,
			"0.0": 0.0,
			"0.0": 0.0,
			"0.0": 0.0,
			"0.0": 0.0,
			"0.0": 0.0,
			"0.0": 0.0,
			"0.0": 0.0,
			"0.0": 0.0,
			"0.0": 0.0,
			"0.0": 0.0,
			"0.0": 0.0,
			"0.0": 0.0,
			"0.0": 0.0,
			"0.0": 0.0,
			"0.0": 0.0,
			"0.0": 0.0,
			"0.0": 0.0,
			"0.0": 0.0,
			"0.0": 0.0,
			"0.0": 0.0,
			"0.0": 0.0,
			"0.0": 0.0,
			"0.0": 0.0,
			"0.0": 0.0,
			"0.0": 0.0,
			"0.0": 0.0,
			"0.0": 0.0,
			"0.0": 0.0,
			"0.0": 0.0,
			"0.0": 0.0,
			"0.0": 0.0,
			"0.0": 0.0,
			"0.0": 0.0,
			"0.0": 0.0,
			"0.0": 0.0,
			"0.0": 0.0,
			"0.0": 0.0,
			"0.0": 0.0,
			"0.0": 0.0,
			"0.0": 0.0,
			"0.0": 0.0,
			"0.0": 0.0,
			"0.0": 0.0,
			"0.0": 0.0,
			"0.0": 0.0,
			"0.0": 0.0,
			"0.0": 0.0,
			"0.0": 0.0,
			"0.0": 0.0,
			"0.0": 0.0
		}
	}
}
