{
	 "smiles": "CCC1OC2=CC=CC=C2C(=O)NC1=O", 
	 "Tm": 436.15, 
	 "num_atms": 26, 
	 "gaussian": { 
		 "optdone": 1, 
		 "sigma_profile": "yes", 
		 "theory": "DFT", 
		 "functional": "B3LYP", 
		 "basiset": "6-31G**", 
		 "properties": { 
			 "R2extent": 3896.8914, 
			 "electric_dipole_moment_norm": 3.82408238013, 
			 "electric_quadrupole_moment_norm": 8.2524289285, 
			 "total_energy": -706.237979011, 
			 "HOMO_LUMO_gap": 0.18442, 
			 "cosmo_polarized_energy": -11.49, 
			 "cosmo_cavitation_energy": 29.04, 
			 "cosmo_dispersion_energy": -20.83, 
			 "cosmo_repulsion_energy": 1.61, 
			 "cosmo_total_nonelectrostatic_energy": 9.82, 
			 "SMD_solvation_energy": 6.1 
		},
		"coords": [
			{
				"x": -0.8731948644,
				"y": 2.044570594,
				"z": 0.4510738592,
				"element": "C" 
			},
			{
				"x": 0.4916610666,
				"y": 2.7322169891,
				"z": 0.3202031703,
				"element": "C" 
			},
			{
				"x": 1.2819410734,
				"y": 2.5176835661,
				"z": -0.9874789748,
				"element": "C" 
			},
			{
				"x": 1.9596127095,
				"y": 1.2625227621,
				"z": -1.0977588024,
				"element": "O" 
			},
			{
				"x": 1.2800564624,
				"y": 0.0754155348,
				"z": -1.0537301971,
				"element": "C" 
			},
			{
				"x": 1.7172900366,
				"y": -0.8543357156,
				"z": -0.1034376876,
				"element": "C" 
			},
			{
				"x": 1.1390568737,
				"y": -2.1178550009,
				"z": -0.036663801,
				"element": "C" 
			},
			{
				"x": 0.1168697413,
				"y": -2.4702882538,
				"z": -0.9246368212,
				"element": "C" 
			},
			{
				"x": -0.300411362,
				"y": -1.5561081334,
				"z": -1.8825429207,
				"element": "C" 
			},
			{
				"x": 0.2681800463,
				"y": -0.2719526829,
				"z": -1.9668115487,
				"element": "C" 
			},
			{
				"x": -0.2218477822,
				"y": 0.5791511338,
				"z": -3.0842568651,
				"element": "C" 
			},
			{
				"x": -0.8748211202,
				"y": 0.1096434079,
				"z": -4.0053724075,
				"element": "O" 
			},
			{
				"x": 0.0211407118,
				"y": 1.9613489849,
				"z": -3.118080139,
				"element": "N" 
			},
			{
				"x": 0.4753713201,
				"y": 2.9179903018,
				"z": -2.2185458774,
				"element": "C" 
			},
			{
				"x": 0.2531875574,
				"y": 4.0978229468,
				"z": -2.4313465683,
				"element": "O" 
			},
			{
				"x": -0.7941209481,
				"y": 0.9557434106,
				"z": 0.4723988245,
				"element": "H" 
			},
			{
				"x": -1.3541605332,
				"y": 2.3595180098,
				"z": 1.3823949323,
				"element": "H" 
			},
			{
				"x": -1.5437271876,
				"y": 2.3225147409,
				"z": -0.3691431339,
				"element": "H" 
			},
			{
				"x": 0.353260833,
				"y": 3.8157337379,
				"z": 0.402089441,
				"element": "H" 
			},
			{
				"x": 1.1511512669,
				"y": 2.4344220921,
				"z": 1.1433636604,
				"element": "H" 
			},
			{
				"x": 2.1078858744,
				"y": 3.2340802631,
				"z": -0.9810459376,
				"element": "H" 
			},
			{
				"x": 2.5160031995,
				"y": -0.5586929919,
				"z": 0.5683566234,
				"element": "H" 
			},
			{
				"x": 1.4838572944,
				"y": -2.8268869368,
				"z": 0.7104138779,
				"element": "H" 
			},
			{
				"x": -0.3393758044,
				"y": -3.4536893298,
				"z": -0.8753564772,
				"element": "H" 
			},
			{
				"x": -1.0689588869,
				"y": -1.8087765439,
				"z": -2.6043658907,
				"element": "H" 
			},
			{
				"x": -0.4394075785,
				"y": 2.3867071133,
				"z": -3.918220339,
				"element": "H" 
			}
		],
		 "valence_orbital": [ 
			{
				"type": "occ",
				"energy": -0.29582,
				"method": "rhf"
			},
			{
				"type": "occ",
				"energy": -0.28493,
				"method": "rhf"
			},
			{
				"type": "occ",
				"energy": -0.26934,
				"method": "rhf"
			},
			{
				"type": "occ",
				"energy": -0.26181,
				"method": "rhf"
			},
			{
				"type": "occ",
				"energy": -0.24762,
				"method": "rhf"
			},
			{
				"type": "unocc",
				"energy": -0.0632,
				"method": "rhf"
			},
			{
				"type": "unocc",
				"energy": -0.01554,
				"method": "rhf"
			},
			{
				"type": "unocc",
				"energy": -0.01015,
				"method": "rhf"
			},
			{
				"type": "unocc",
				"energy": 0.0537,
				"method": "rhf"
			},
			{
				"type": "unocc",
				"energy": 0.07881,
				"method": "rhf"
			}
		],
		"cosmo_sigma_profile": { 
			"-0.025": 0.0,
			"-0.024": 0.0,
			"-0.023": 0.0,
			"-0.022": 0.0,
			"-0.021": 0.0,
			"-0.02": 0.0,
			"-0.019": 0.0,
			"-0.018": 0.0,
			"-0.017": 0.0,
			"-0.016": 0.0,
			"-0.015": 0.191149927134,
			"-0.014": 1.02216162474,
			"-0.013": 0.495310011105,
			"-0.012": 0.937358867554,
			"-0.011": 0.724459241686,
			"-0.01": 0.597496652734,
			"-0.009": 0.702243414389,
			"-0.008": 1.94086126741,
			"-0.007": 6.42049515826,
			"-0.006": 9.90170006135,
			"-0.005": 16.5457600687,
			"-0.004": 18.5896336562,
			"-0.003": 19.4148250222,
			"-0.002": 20.4874362091,
			"-0.001": 24.9856120835,
			"0.0": 20.9128183092,
			"0.001": 14.1892205308,
			"0.002": 15.4014145292,
			"0.003": 12.6648370748,
			"0.004": 7.01550436728,
			"0.005": 3.64499863002,
			"0.006": 2.96441720071,
			"0.007": 3.71908743101,
			"0.008": 2.66715783334,
			"0.009": 4.13036992709,
			"0.01": 5.14188723059,
			"0.011": 7.50087108721,
			"0.012": 7.17722944036,
			"0.013": 0.338713790174,
			"0.014": 0.0,
			"0.015": 0.0,
			"0.016": 0.0,
			"0.017": 0.0,
			"0.018": 0.0,
			"0.019": 0.0,
			"0.02": 0.0,
			"0.021": 0.0,
			"0.022": 0.0,
			"0.023": 0.0,
			"0.024": 0.0,
			"0.025": 0.0
		}
	}
}
