{
	 "smiles": "CC(=O)NC1=CC=CC=C1C(O)=O", 
	 "Tm": 458.15, 
	 "num_atms": 22, 
	 "gaussian": { 
		 "optdone": 1, 
		 "sigma_profile": "yes", 
		 "theory": "DFT", 
		 "functional": "B3LYP", 
		 "basiset": "6-31G**", 
		 "properties": { 
			 "R2extent": 2599.5572, 
			 "electric_dipole_moment_norm": 2.77708479705, 
			 "electric_quadrupole_moment_norm": 7.67927001739, 
			 "total_energy": -628.852834021, 
			 "HOMO_LUMO_gap": 0.16973, 
			 "cosmo_polarized_energy": -11.64, 
			 "cosmo_cavitation_energy": 26.27, 
			 "cosmo_dispersion_energy": -19.53, 
			 "cosmo_repulsion_energy": 1.53, 
			 "cosmo_total_nonelectrostatic_energy": 8.27, 
			 "SMD_solvation_energy": 6.35 
		},
		"coords": [
			{
				"x": 2.9042364604,
				"y": -1.1951162533,
				"z": 1.9672604253,
				"element": "C" 
			},
			{
				"x": 1.9975579349,
				"y": -1.4538358711,
				"z": 0.7729640714,
				"element": "C" 
			},
			{
				"x": 2.28369395,
				"y": -2.2751409527,
				"z": -0.0865511639,
				"element": "O" 
			},
			{
				"x": 0.8674480354,
				"y": -0.6574509564,
				"z": 0.7575952596,
				"element": "N" 
			},
			{
				"x": -0.1466605389,
				"y": -0.5942847486,
				"z": -0.1995905471,
				"element": "C" 
			},
			{
				"x": -0.1415522568,
				"y": -1.4017396397,
				"z": -1.3530017228,
				"element": "C" 
			},
			{
				"x": -1.1721115231,
				"y": -1.3064837971,
				"z": -2.280420263,
				"element": "C" 
			},
			{
				"x": -2.2349682545,
				"y": -0.4153664251,
				"z": -2.0984190191,
				"element": "C" 
			},
			{
				"x": -2.2534412734,
				"y": 0.3857327071,
				"z": -0.9670534269,
				"element": "C" 
			},
			{
				"x": -1.2273279589,
				"y": 0.3169340596,
				"z": -0.006283416,
				"element": "C" 
			},
			{
				"x": -1.2930482386,
				"y": 1.1903766189,
				"z": 1.1809961304,
				"element": "C" 
			},
			{
				"x": -2.3815494343,
				"y": 1.9920802168,
				"z": 1.2115753788,
				"element": "O" 
			},
			{
				"x": -0.4715301526,
				"y": 1.236794928,
				"z": 2.0941430237,
				"element": "O" 
			},
			{
				"x": 3.6747985529,
				"y": -0.4699791003,
				"z": 1.6827878736,
				"element": "H" 
			},
			{
				"x": 2.3703503966,
				"y": -0.8036183385,
				"z": 2.8374250806,
				"element": "H" 
			},
			{
				"x": 3.4042692641,
				"y": -2.1281821072,
				"z": 2.2308820596,
				"element": "H" 
			},
			{
				"x": 0.729134179,
				"y": -0.0106179049,
				"z": 1.5325049061,
				"element": "H" 
			},
			{
				"x": 0.6784360282,
				"y": -2.0905488213,
				"z": -1.4939565663,
				"element": "H" 
			},
			{
				"x": -1.1426854704,
				"y": -1.9414589629,
				"z": -3.1616060934,
				"element": "H" 
			},
			{
				"x": -3.0344468534,
				"y": -0.349632107,
				"z": -2.8291535129,
				"element": "H" 
			},
			{
				"x": -3.0659755927,
				"y": 1.0833803014,
				"z": -0.8040891284,
				"element": "H" 
			},
			{
				"x": -2.3040272539,
				"y": 2.5068571545,
				"z": 2.0314906505,
				"element": "H" 
			}
		],
		 "valence_orbital": [ 
			{
				"type": "occ",
				"energy": -0.30939,
				"method": "rhf"
			},
			{
				"type": "occ",
				"energy": -0.29343,
				"method": "rhf"
			},
			{
				"type": "occ",
				"energy": -0.26477,
				"method": "rhf"
			},
			{
				"type": "occ",
				"energy": -0.25142,
				"method": "rhf"
			},
			{
				"type": "occ",
				"energy": -0.2271,
				"method": "rhf"
			},
			{
				"type": "unocc",
				"energy": -0.05737,
				"method": "rhf"
			},
			{
				"type": "unocc",
				"energy": -0.01502,
				"method": "rhf"
			},
			{
				"type": "unocc",
				"energy": 0.04265,
				"method": "rhf"
			},
			{
				"type": "unocc",
				"energy": 0.05005,
				"method": "rhf"
			},
			{
				"type": "unocc",
				"energy": 0.07034,
				"method": "rhf"
			}
		],
		"cosmo_sigma_profile": { 
			"-0.025": 0.0,
			"-0.024": 0.0,
			"-0.023": 0.0,
			"-0.022": 0.0,
			"-0.021": 0.0,
			"-0.02": 0.0,
			"-0.019": 0.109902235992,
			"-0.018": 0.978230548436,
			"-0.017": 0.763511578297,
			"-0.016": 0.938666953959,
			"-0.015": 0.705676086632,
			"-0.014": 0.335285996579,
			"-0.013": 0.406808896828,
			"-0.012": 1.34317083738,
			"-0.011": 0.827427645127,
			"-0.01": 0.61718161014,
			"-0.009": 0.607513957649,
			"-0.008": 1.48421803568,
			"-0.007": 3.77587459287,
			"-0.006": 11.935133156,
			"-0.005": 14.0011257625,
			"-0.004": 15.1428437403,
			"-0.003": 15.1869770562,
			"-0.002": 18.3210187976,
			"-0.001": 16.3448428484,
			"0.0": 13.6921897695,
			"0.001": 15.9117320162,
			"0.002": 14.5648974456,
			"0.003": 15.8825087797,
			"0.004": 12.0871029429,
			"0.005": 4.83332625592,
			"0.006": 5.20608984792,
			"0.007": 3.89960397755,
			"0.008": 2.66766181787,
			"0.009": 3.0705831393,
			"0.01": 3.0768065223,
			"0.011": 4.57234206013,
			"0.012": 3.02488778435,
			"0.013": 2.63352385178,
			"0.014": 1.16296437976,
			"0.015": 0.0256796277643,
			"0.016": 0.0,
			"0.017": 0.0,
			"0.018": 0.0,
			"0.019": 0.0,
			"0.02": 0.0,
			"0.021": 0.0,
			"0.022": 0.0,
			"0.023": 0.0,
			"0.024": 0.0,
			"0.025": 0.0
		}
	}
}
