{
	 "smiles": "CC1=CC=C(C=C1)S(=O)(=O)NN=C1CCC(C)(C=C1)C1=CC=CC=C1", 
	 "Tm": 420.15, 
	 "num_atms": 47, 
	 "gaussian": { 
		 "optdone": 1, 
		 "sigma_profile": "yes", 
		 "theory": "DFT", 
		 "functional": "B3LYP", 
		 "basiset": "6-31G**", 
		 "properties": { 
			 "R2extent": 12023.7712, 
			 "electric_dipole_moment_norm": 5.60964264905, 
			 "electric_quadrupole_moment_norm": 31.6126077113, 
			 "total_energy": -1433.41521426, 
			 "HOMO_LUMO_gap": 0.17794, 
			 "cosmo_polarized_energy": -17.44, 
			 "cosmo_cavitation_energy": 49.72, 
			 "cosmo_dispersion_energy": -34.17, 
			 "cosmo_repulsion_energy": 2.55, 
			 "cosmo_total_nonelectrostatic_energy": 18.1, 
			 "SMD_solvation_energy": 6.58 
		},
		"coords": [
			{
				"x": -0.5760874762,
				"y": -1.6348426324,
				"z": -6.4105096004,
				"element": "C" 
			},
			{
				"x": -0.1293877365,
				"y": -0.5677436619,
				"z": -5.4406302244,
				"element": "C" 
			},
			{
				"x": 0.8580250077,
				"y": -0.8271403293,
				"z": -4.4826591465,
				"element": "C" 
			},
			{
				"x": 1.262557319,
				"y": 0.1547162538,
				"z": -3.5765580409,
				"element": "C" 
			},
			{
				"x": 0.6673241891,
				"y": 1.4135466083,
				"z": -3.6324480175,
				"element": "C" 
			},
			{
				"x": -0.3095189314,
				"y": 1.7068030235,
				"z": -4.5885869074,
				"element": "C" 
			},
			{
				"x": -0.7028466669,
				"y": 0.7143922014,
				"z": -5.4798167238,
				"element": "C" 
			},
			{
				"x": 1.2116742241,
				"y": 2.6992389069,
				"z": -2.5070678432,
				"element": "S" 
			},
			{
				"x": 1.2384489695,
				"y": 3.9561711503,
				"z": -3.2662356776,
				"element": "O" 
			},
			{
				"x": 2.3740229373,
				"y": 2.1956892969,
				"z": -1.7732013783,
				"element": "O" 
			},
			{
				"x": -0.131539226,
				"y": 2.8952829474,
				"z": -1.3985829102,
				"element": "N" 
			},
			{
				"x": 0.1359094727,
				"y": 2.8298296822,
				"z": -0.0061368525,
				"element": "N" 
			},
			{
				"x": 0.3205718161,
				"y": 1.6573554571,
				"z": 0.5010613563,
				"element": "C" 
			},
			{
				"x": 0.6248549556,
				"y": 1.5887491437,
				"z": 1.9787722753,
				"element": "C" 
			},
			{
				"x": 1.7119557578,
				"y": 0.5334739176,
				"z": 2.2278212692,
				"element": "C" 
			},
			{
				"x": 1.2701047231,
				"y": -0.8833410818,
				"z": 1.7628210719,
				"element": "C" 
			},
			{
				"x": 2.523998264,
				"y": -1.7774452836,
				"z": 1.5861978111,
				"element": "C" 
			},
			{
				"x": 0.6016524248,
				"y": -0.7780793639,
				"z": 0.4049184425,
				"element": "C" 
			},
			{
				"x": 0.2289490416,
				"y": 0.3696725219,
				"z": -0.1874426969,
				"element": "C" 
			},
			{
				"x": 0.3114767957,
				"y": -1.5108144691,
				"z": 2.7996246827,
				"element": "C" 
			},
			{
				"x": -1.0591560421,
				"y": -1.667421562,
				"z": 2.5516465673,
				"element": "C" 
			},
			{
				"x": -1.9104252797,
				"y": -2.2218934473,
				"z": 3.5116427323,
				"element": "C" 
			},
			{
				"x": -1.4086227049,
				"y": -2.6286673762,
				"z": 4.7461131412,
				"element": "C" 
			},
			{
				"x": -0.0466352796,
				"y": -2.4720527842,
				"z": 5.0131355438,
				"element": "C" 
			},
			{
				"x": 0.7992531561,
				"y": -1.9211385776,
				"z": 4.0521102516,
				"element": "C" 
			},
			{
				"x": -1.601963324,
				"y": -1.9573428816,
				"z": -6.1960949343,
				"element": "H" 
			},
			{
				"x": 0.0671658434,
				"y": -2.5171424726,
				"z": -6.3603717128,
				"element": "H" 
			},
			{
				"x": -0.5645252938,
				"y": -1.2649943749,
				"z": -7.4412541874,
				"element": "H" 
			},
			{
				"x": 1.3239164542,
				"y": -1.8082467899,
				"z": -4.4470828682,
				"element": "H" 
			},
			{
				"x": 2.0336329505,
				"y": -0.0415292893,
				"z": -2.8401644024,
				"element": "H" 
			},
			{
				"x": -0.7400377848,
				"y": 2.7009150852,
				"z": -4.6413812975,
				"element": "H" 
			},
			{
				"x": -1.4610409398,
				"y": 0.9385254697,
				"z": -6.2256909731,
				"element": "H" 
			},
			{
				"x": -0.412919943,
				"y": 3.858192435,
				"z": -1.579284143,
				"element": "H" 
			},
			{
				"x": -0.2884469067,
				"y": 1.308490734,
				"z": 2.5211532172,
				"element": "H" 
			},
			{
				"x": 0.9314099474,
				"y": 2.5758922213,
				"z": 2.3312784285,
				"element": "H" 
			},
			{
				"x": 1.9794717969,
				"y": 0.5061227873,
				"z": 3.2887493084,
				"element": "H" 
			},
			{
				"x": 2.6143329766,
				"y": 0.8185161792,
				"z": 1.6731259989,
				"element": "H" 
			},
			{
				"x": 3.1669676931,
				"y": -1.3725295476,
				"z": 0.7983743357,
				"element": "H" 
			},
			{
				"x": 2.2437488528,
				"y": -2.7999010302,
				"z": 1.3133363517,
				"element": "H" 
			},
			{
				"x": 3.1155415048,
				"y": -1.8246537864,
				"z": 2.5048348551,
				"element": "H" 
			},
			{
				"x": 0.4413812427,
				"y": -1.7184054687,
				"z": -0.1217343536,
				"element": "H" 
			},
			{
				"x": -0.204406497,
				"y": 0.3580838526,
				"z": -1.182061728,
				"element": "H" 
			},
			{
				"x": -1.4716485193,
				"y": -1.3491596408,
				"z": 1.5996976997,
				"element": "H" 
			},
			{
				"x": -2.9682858629,
				"y": -2.3315647017,
				"z": 3.2892278538,
				"element": "H" 
			},
			{
				"x": -2.0684175175,
				"y": -3.0596305249,
				"z": 5.4935443317,
				"element": "H" 
			},
			{
				"x": 0.3597078994,
				"y": -2.7798595155,
				"z": 5.9726741259,
				"element": "H" 
			},
			{
				"x": 1.8532557159,
				"y": -1.807319282,
				"z": 4.287634968,
				"element": "H" 
			}
		],
		 "valence_orbital": [ 
			{
				"type": "occ",
				"energy": -0.2677,
				"method": "rhf"
			},
			{
				"type": "occ",
				"energy": -0.2574,
				"method": "rhf"
			},
			{
				"type": "occ",
				"energy": -0.25161,
				"method": "rhf"
			},
			{
				"type": "occ",
				"energy": -0.24513,
				"method": "rhf"
			},
			{
				"type": "occ",
				"energy": -0.2255,
				"method": "rhf"
			},
			{
				"type": "unocc",
				"energy": -0.04756,
				"method": "rhf"
			},
			{
				"type": "unocc",
				"energy": -0.03543,
				"method": "rhf"
			},
			{
				"type": "unocc",
				"energy": -0.02024,
				"method": "rhf"
			},
			{
				"type": "unocc",
				"energy": -0.00569,
				"method": "rhf"
			},
			{
				"type": "unocc",
				"energy": -0.00183,
				"method": "rhf"
			}
		],
		"cosmo_sigma_profile": { 
			"-0.025": 0.0,
			"-0.024": 0.0,
			"-0.023": 0.0,
			"-0.022": 0.0,
			"-0.021": 0.0,
			"-0.02": 0.0,
			"-0.019": 0.0,
			"-0.018": 0.0,
			"-0.017": 0.0,
			"-0.016": 0.0,
			"-0.015": 0.0,
			"-0.014": 0.509376881434,
			"-0.013": 0.551494031204,
			"-0.012": 1.12441486211,
			"-0.011": 0.508398849616,
			"-0.01": 0.720847576286,
			"-0.009": 0.824912722585,
			"-0.008": 1.13736609686,
			"-0.007": 4.68217773854,
			"-0.006": 16.1764226786,
			"-0.005": 25.2210342483,
			"-0.004": 36.7644644521,
			"-0.003": 40.1400026481,
			"-0.002": 39.080192223,
			"-0.001": 41.8185866821,
			"0.0": 35.49102882,
			"0.001": 26.0048196291,
			"0.002": 20.3796277094,
			"0.003": 24.5360511254,
			"0.004": 14.5778474486,
			"0.005": 11.9549780749,
			"0.006": 12.6653741325,
			"0.007": 7.12827639031,
			"0.008": 5.98869118137,
			"0.009": 5.95841334602,
			"0.01": 9.02204223188,
			"0.011": 7.98901754592,
			"0.012": 1.34408709221,
			"0.013": 0.808319379666,
			"0.014": 0.54571627484,
			"0.015": 0.22549404512,
			"0.016": 0.0,
			"0.017": 0.0,
			"0.018": 0.0,
			"0.019": 0.0,
			"0.02": 0.0,
			"0.021": 0.0,
			"0.022": 0.0,
			"0.023": 0.0,
			"0.024": 0.0,
			"0.025": 0.0
		}
	}
}
