{
	 "smiles": "ClC1=CC(Cl)=C(C=C1)C1=NN=NN1", 
	 "Tm": 436.15, 
	 "num_atms": 17, 
	 "gaussian": { 
		 "optdone": 1, 
		 "sigma_profile": "yes", 
		 "theory": "DFT", 
		 "functional": "B3LYP", 
		 "basiset": "6-31G**", 
		 "properties": { 
			 "R2extent": 4484.6111, 
			 "electric_dipole_moment_norm": 4.18119234908, 
			 "electric_quadrupole_moment_norm": 14.9716837547, 
			 "total_energy": -1408.49224046, 
			 "HOMO_LUMO_gap": 0.18833, 
			 "cosmo_polarized_energy": -13.34, 
			 "cosmo_cavitation_energy": 25.69, 
			 "cosmo_dispersion_energy": -19.64, 
			 "cosmo_repulsion_energy": 1.53, 
			 "cosmo_total_nonelectrostatic_energy": 7.57, 
			 "SMD_solvation_energy": 2.04 
		},
		"coords": [
			{
				"x": 0.2693588487,
				"y": 3.2737134839,
				"z": 3.5744989216,
				"element": "Cl" 
			},
			{
				"x": 0.4906513594,
				"y": 2.4349041878,
				"z": 2.0562979558,
				"element": "C" 
			},
			{
				"x": -0.2163897696,
				"y": 2.8617510078,
				"z": 0.9358632178,
				"element": "C" 
			},
			{
				"x": -0.0384973224,
				"y": 2.1915043146,
				"z": -0.2737505485,
				"element": "C" 
			},
			{
				"x": -0.9752443719,
				"y": 2.8023726008,
				"z": -1.6379168022,
				"element": "Cl" 
			},
			{
				"x": 0.8349799601,
				"y": 1.0963932427,
				"z": -0.3942012339,
				"element": "C" 
			},
			{
				"x": 1.5292065244,
				"y": 0.7004218797,
				"z": 0.767166417,
				"element": "C" 
			},
			{
				"x": 1.3681615316,
				"y": 1.3519191101,
				"z": 1.9808212886,
				"element": "C" 
			},
			{
				"x": 1.0998403068,
				"y": 0.3194995681,
				"z": -1.6096018693,
				"element": "C" 
			},
			{
				"x": 1.9405528419,
				"y": -0.7094470215,
				"z": -1.6586094887,
				"element": "N" 
			},
			{
				"x": 1.9221730882,
				"y": -1.1676828603,
				"z": -2.9300912203,
				"element": "N" 
			},
			{
				"x": 1.1140003782,
				"y": -0.4724819071,
				"z": -3.6657145005,
				"element": "N" 
			},
			{
				"x": 0.5873788603,
				"y": 0.4666684079,
				"z": -2.8530951326,
				"element": "N" 
			},
			{
				"x": -0.8964660623,
				"y": 3.7020320962,
				"z": 0.9969285179,
				"element": "H" 
			},
			{
				"x": 2.2047794509,
				"y": -0.143232955,
				"z": 0.6827035714,
				"element": "H" 
			},
			{
				"x": 1.9139214232,
				"y": 1.0274820796,
				"z": 2.8590452624,
				"element": "H" 
			},
			{
				"x": -0.0807070476,
				"y": 1.1385827647,
				"z": -3.2014443564,
				"element": "H" 
			}
		],
		 "valence_orbital": [ 
			{
				"type": "occ",
				"energy": -0.31994,
				"method": "rhf"
			},
			{
				"type": "occ",
				"energy": -0.3054,
				"method": "rhf"
			},
			{
				"type": "occ",
				"energy": -0.29126,
				"method": "rhf"
			},
			{
				"type": "occ",
				"energy": -0.28647,
				"method": "rhf"
			},
			{
				"type": "occ",
				"energy": -0.2628,
				"method": "rhf"
			},
			{
				"type": "unocc",
				"energy": -0.07447,
				"method": "rhf"
			},
			{
				"type": "unocc",
				"energy": -0.04693,
				"method": "rhf"
			},
			{
				"type": "unocc",
				"energy": -0.01925,
				"method": "rhf"
			},
			{
				"type": "unocc",
				"energy": -0.00808,
				"method": "rhf"
			},
			{
				"type": "unocc",
				"energy": 0.02485,
				"method": "rhf"
			}
		],
		"cosmo_sigma_profile": { 
			"-0.025": 0.0,
			"-0.024": 0.0,
			"-0.023": 0.0,
			"-0.022": 0.0,
			"-0.021": 0.0,
			"-0.02": 0.0,
			"-0.019": 0.0,
			"-0.018": 0.0210421284099,
			"-0.017": 0.683148003554,
			"-0.016": 0.944461243141,
			"-0.015": 1.04902125121,
			"-0.014": 0.22728355713,
			"-0.013": 1.13233411871,
			"-0.012": 0.501311799641,
			"-0.011": 1.10775615464,
			"-0.01": 1.7147831864,
			"-0.009": 2.82758046353,
			"-0.008": 5.34124641861,
			"-0.007": 7.50348298894,
			"-0.006": 6.6464499679,
			"-0.005": 9.09388891424,
			"-0.004": 10.8619249687,
			"-0.003": 12.1106363886,
			"-0.002": 14.2649972106,
			"-0.001": 22.806211699,
			"0.0": 26.1598626677,
			"0.001": 15.7115545087,
			"0.002": 13.6542180388,
			"0.003": 15.0596326085,
			"0.004": 9.1088644333,
			"0.005": 3.10801535426,
			"0.006": 3.05661345301,
			"0.007": 4.15514970739,
			"0.008": 5.03370814843,
			"0.009": 4.81419764704,
			"0.01": 4.72539682158,
			"0.011": 4.47713142418,
			"0.012": 2.8087168361,
			"0.013": 1.7166203664,
			"0.014": 0.367844557624,
			"0.015": 0.0,
			"0.016": 0.0,
			"0.017": 0.0,
			"0.018": 0.0,
			"0.019": 0.0,
			"0.02": 0.0,
			"0.021": 0.0,
			"0.022": 0.0,
			"0.023": 0.0,
			"0.024": 0.0,
			"0.025": 0.0
		}
	}
}
