{
	 "smiles": "OC(=O)CCN1C=CNC(=O)C1=O", 
	 "Tm": 513.15, 
	 "num_atms": 21, 
	 "gaussian": { 
		 "optdone": 1, 
		 "sigma_profile": "yes", 
		 "theory": "DFT", 
		 "functional": "B3LYP", 
		 "basiset": "6-31G**", 
		 "properties": { 
			 "R2extent": 2629.9165, 
			 "electric_dipole_moment_norm": 7.28581587333, 
			 "electric_quadrupole_moment_norm": 14.6288978505, 
			 "total_energy": -681.980871577, 
			 "HOMO_LUMO_gap": 0.17547, 
			 "cosmo_polarized_energy": -28.46, 
			 "cosmo_cavitation_energy": 25.95, 
			 "cosmo_dispersion_energy": -18.39, 
			 "cosmo_repulsion_energy": 1.47, 
			 "cosmo_total_nonelectrostatic_energy": 9.03, 
			 "SMD_solvation_energy": 7.39 
		},
		"coords": [
			{
				"x": 1.6900680709,
				"y": -0.9070436261,
				"z": -0.0812725322,
				"element": "O" 
			},
			{
				"x": 1.042930339,
				"y": -1.6338842225,
				"z": 0.8607560996,
				"element": "C" 
			},
			{
				"x": 1.6135198885,
				"y": -2.2546886312,
				"z": 1.7271323165,
				"element": "O" 
			},
			{
				"x": -0.4621555165,
				"y": -1.5617454082,
				"z": 0.6888716208,
				"element": "C" 
			},
			{
				"x": -1.0846678646,
				"y": -0.3096253745,
				"z": 1.344285702,
				"element": "C" 
			},
			{
				"x": -0.7631295183,
				"y": 0.9424793368,
				"z": 0.6524871911,
				"element": "N" 
			},
			{
				"x": -1.5114191503,
				"y": 1.3177774118,
				"z": -0.4650961596,
				"element": "C" 
			},
			{
				"x": -1.2230693061,
				"y": 2.439429991,
				"z": -1.144611184,
				"element": "C" 
			},
			{
				"x": -0.1617024633,
				"y": 3.236341848,
				"z": -0.7349441769,
				"element": "N" 
			},
			{
				"x": 0.6512036273,
				"y": 2.9656623529,
				"z": 0.3499562939,
				"element": "C" 
			},
			{
				"x": 1.571992201,
				"y": 3.6903563283,
				"z": 0.6770622336,
				"element": "O" 
			},
			{
				"x": 0.3239503084,
				"y": 1.6787424777,
				"z": 1.1132456711,
				"element": "C" 
			},
			{
				"x": 0.9915506768,
				"y": 1.3334363972,
				"z": 2.0730704345,
				"element": "O" 
			},
			{
				"x": 2.6332984295,
				"y": -0.9357372387,
				"z": 0.1535798689,
				"element": "H" 
			},
			{
				"x": -0.7146238955,
				"y": -1.5868180098,
				"z": -0.3759949259,
				"element": "H" 
			},
			{
				"x": -0.8834469284,
				"y": -2.4460977419,
				"z": 1.1731108493,
				"element": "H" 
			},
			{
				"x": -2.1733022104,
				"y": -0.4173152718,
				"z": 1.3547528461,
				"element": "H" 
			},
			{
				"x": -0.7327614265,
				"y": -0.211359517,
				"z": 2.3718989727,
				"element": "H" 
			},
			{
				"x": -2.3315281477,
				"y": 0.6689768199,
				"z": -0.7395436674,
				"element": "H" 
			},
			{
				"x": -1.786053767,
				"y": 2.7668187607,
				"z": -2.0070005957,
				"element": "H" 
			},
			{
				"x": 0.0684466532,
				"y": 4.0835933175,
				"z": -1.2384468583,
				"element": "H" 
			}
		],
		 "valence_orbital": [ 
			{
				"type": "occ",
				"energy": -0.30136,
				"method": "rhf"
			},
			{
				"type": "occ",
				"energy": -0.2835,
				"method": "rhf"
			},
			{
				"type": "occ",
				"energy": -0.27393,
				"method": "rhf"
			},
			{
				"type": "occ",
				"energy": -0.25665,
				"method": "rhf"
			},
			{
				"type": "occ",
				"energy": -0.21607,
				"method": "rhf"
			},
			{
				"type": "unocc",
				"energy": -0.0406,
				"method": "rhf"
			},
			{
				"type": "unocc",
				"energy": -0.00322,
				"method": "rhf"
			},
			{
				"type": "unocc",
				"energy": 0.00471,
				"method": "rhf"
			},
			{
				"type": "unocc",
				"energy": 0.05662,
				"method": "rhf"
			},
			{
				"type": "unocc",
				"energy": 0.07895,
				"method": "rhf"
			}
		],
		"cosmo_sigma_profile": { 
			"-0.025": 0.0,
			"-0.024": 0.0,
			"-0.023": 0.0,
			"-0.022": 0.0,
			"-0.021": 0.0,
			"-0.02": 0.0,
			"-0.019": 0.10092189235,
			"-0.018": 0.714488329806,
			"-0.017": 1.2725854904,
			"-0.016": 2.06654763297,
			"-0.015": 2.18297638382,
			"-0.014": 2.15930129481,
			"-0.013": 1.16293081088,
			"-0.012": 1.54783562793,
			"-0.011": 1.57314695253,
			"-0.01": 5.35276230796,
			"-0.009": 6.68882982634,
			"-0.008": 6.97688243852,
			"-0.007": 11.0134026275,
			"-0.006": 12.3339260249,
			"-0.005": 11.3844142565,
			"-0.004": 12.6063029853,
			"-0.003": 12.6112827134,
			"-0.002": 9.63755606729,
			"-0.001": 9.11452290115,
			"0.0": 9.00961619634,
			"0.001": 7.78121228377,
			"0.002": 8.44597919434,
			"0.003": 6.39209887479,
			"0.004": 4.03797853649,
			"0.005": 3.81129017995,
			"0.006": 4.45720008798,
			"0.007": 3.67457078923,
			"0.008": 4.45922056208,
			"0.009": 5.91542583241,
			"0.01": 4.31560461794,
			"0.011": 7.4917165079,
			"0.012": 11.5766683957,
			"0.013": 7.90616494827,
			"0.014": 2.70171267827,
			"0.015": 1.82765245546,
			"0.016": 1.20430575381,
			"0.017": 0.242579272911,
			"0.018": 0.0,
			"0.019": 0.0,
			"0.02": 0.0,
			"0.021": 0.0,
			"0.022": 0.0,
			"0.023": 0.0,
			"0.024": 0.0,
			"0.025": 0.0
		}
	}
}
