{
	 "smiles": "CC1=CC2=C(C=C1)N=C(C=C2C(O)=O)C1CC1", 
	 "Tm": 481.15, 
	 "num_atms": 30, 
	 "gaussian": { 
		 "optdone": 1, 
		 "sigma_profile": "yes", 
		 "theory": "DFT", 
		 "functional": "B3LYP", 
		 "basiset": "6-31G**", 
		 "properties": { 
			 "R2extent": 4692.2697, 
			 "electric_dipole_moment_norm": 0.939285478436, 
			 "electric_quadrupole_moment_norm": 11.1748403805, 
			 "total_energy": -746.53260807, 
			 "HOMO_LUMO_gap": 0.14782, 
			 "cosmo_polarized_energy": -10.1, 
			 "cosmo_cavitation_energy": 33.65, 
			 "cosmo_dispersion_energy": -24.51, 
			 "cosmo_repulsion_energy": 1.89, 
			 "cosmo_total_nonelectrostatic_energy": 11.03, 
			 "SMD_solvation_energy": 5.4 
		},
		"coords": [
			{
				"x": 2.3928362435,
				"y": 0.1887990674,
				"z": 3.8068708702,
				"element": "C" 
			},
			{
				"x": 1.5580884738,
				"y": 0.6690127992,
				"z": 2.6447454944,
				"element": "C" 
			},
			{
				"x": 1.2244009145,
				"y": -0.1789474477,
				"z": 1.6060207998,
				"element": "C" 
			},
			{
				"x": 0.4385568405,
				"y": 0.2640120641,
				"z": 0.5069643752,
				"element": "C" 
			},
			{
				"x": -0.0106912497,
				"y": 1.6276270564,
				"z": 0.4918150804,
				"element": "C" 
			},
			{
				"x": 0.3441518851,
				"y": 2.4825170306,
				"z": 1.5705794961,
				"element": "C" 
			},
			{
				"x": 1.1045642631,
				"y": 2.0168772796,
				"z": 2.6135449854,
				"element": "C" 
			},
			{
				"x": -0.7660532015,
				"y": 2.1604898684,
				"z": -0.5056371699,
				"element": "N" 
			},
			{
				"x": -1.1155941357,
				"y": 1.3952820826,
				"z": -1.5261650469,
				"element": "C" 
			},
			{
				"x": -0.7246549942,
				"y": 0.0338478959,
				"z": -1.6094532831,
				"element": "C" 
			},
			{
				"x": 0.0431237795,
				"y": -0.5406720299,
				"z": -0.6135499491,
				"element": "C" 
			},
			{
				"x": 0.4311955235,
				"y": -1.9781118797,
				"z": -0.7436167643,
				"element": "C" 
			},
			{
				"x": -0.0504861996,
				"y": -2.5475570156,
				"z": -1.8787746295,
				"element": "O" 
			},
			{
				"x": 1.0997058365,
				"y": -2.6242374811,
				"z": 0.0405976255,
				"element": "O" 
			},
			{
				"x": -1.9418511274,
				"y": 1.9980881416,
				"z": -2.6067185521,
				"element": "C" 
			},
			{
				"x": -1.7337558914,
				"y": 3.4552884097,
				"z": -2.9848063984,
				"element": "C" 
			},
			{
				"x": -2.9777752796,
				"y": 3.0538436753,
				"z": -2.257670962,
				"element": "C" 
			},
			{
				"x": 2.6668183562,
				"y": -0.8630524179,
				"z": 3.6942288447,
				"element": "H" 
			},
			{
				"x": 3.3174874802,
				"y": 0.771240288,
				"z": 3.8984440168,
				"element": "H" 
			},
			{
				"x": 1.8526811224,
				"y": 0.297973027,
				"z": 4.7549823708,
				"element": "H" 
			},
			{
				"x": 1.5626515917,
				"y": -1.2061325065,
				"z": 1.6169420378,
				"element": "H" 
			},
			{
				"x": -0.0101619481,
				"y": 3.5073133024,
				"z": 1.5305513402,
				"element": "H" 
			},
			{
				"x": 1.3678919881,
				"y": 2.6832405984,
				"z": 3.4315952624,
				"element": "H" 
			},
			{
				"x": -1.0322911595,
				"y": -0.5579488812,
				"z": -2.4625346534,
				"element": "H" 
			},
			{
				"x": 0.2599888248,
				"y": -3.4674476601,
				"z": -1.8562939661,
				"element": "H" 
			},
			{
				"x": -2.193991184,
				"y": 1.3165912709,
				"z": -3.4142149051,
				"element": "H" 
			},
			{
				"x": -0.9749143295,
				"y": 3.9858461427,
				"z": -2.4188643105,
				"element": "H" 
			},
			{
				"x": -1.7994909597,
				"y": 3.7144455806,
				"z": -4.0371819909,
				"element": "H" 
			},
			{
				"x": -3.9190831256,
				"y": 3.0303870345,
				"z": -2.7983812466,
				"element": "H" 
			},
			{
				"x": -3.0480483379,
				"y": 3.3169847042,
				"z": -1.2072187718,
				"element": "H" 
			}
		],
		 "valence_orbital": [ 
			{
				"type": "occ",
				"energy": -0.29081,
				"method": "rhf"
			},
			{
				"type": "occ",
				"energy": -0.28561,
				"method": "rhf"
			},
			{
				"type": "occ",
				"energy": -0.25407,
				"method": "rhf"
			},
			{
				"type": "occ",
				"energy": -0.24095,
				"method": "rhf"
			},
			{
				"type": "occ",
				"energy": -0.22279,
				"method": "rhf"
			},
			{
				"type": "unocc",
				"energy": -0.07497,
				"method": "rhf"
			},
			{
				"type": "unocc",
				"energy": -0.0148,
				"method": "rhf"
			},
			{
				"type": "unocc",
				"energy": 0.00077,
				"method": "rhf"
			},
			{
				"type": "unocc",
				"energy": 0.04974,
				"method": "rhf"
			},
			{
				"type": "unocc",
				"energy": 0.07543,
				"method": "rhf"
			}
		],
		"cosmo_sigma_profile": { 
			"-0.025": 0.0,
			"-0.024": 0.0,
			"-0.023": 0.0,
			"-0.022": 0.0,
			"-0.021": 0.0,
			"-0.02": 0.0,
			"-0.019": 0.205217382115,
			"-0.018": 0.790499547391,
			"-0.017": 1.08825873525,
			"-0.016": 0.715990206435,
			"-0.015": 0.393803450385,
			"-0.014": 0.424997375388,
			"-0.013": 0.634986882568,
			"-0.012": 1.45257297866,
			"-0.011": 0.792107980561,
			"-0.01": 0.546133276214,
			"-0.009": 0.282979106809,
			"-0.008": 0.851295553253,
			"-0.007": 2.54305474992,
			"-0.006": 6.29601595586,
			"-0.005": 11.1623581658,
			"-0.004": 22.946470167,
			"-0.003": 23.2879989214,
			"-0.002": 21.5031653076,
			"-0.001": 21.60109842,
			"0.0": 29.1653739259,
			"0.001": 26.3477908306,
			"0.002": 20.566407432,
			"0.003": 24.439608988,
			"0.004": 20.3287359045,
			"0.005": 6.66247195693,
			"0.006": 5.88612223129,
			"0.007": 3.85098108161,
			"0.008": 3.50352819332,
			"0.009": 2.4011884832,
			"0.01": 3.36200142725,
			"0.011": 3.33885531607,
			"0.012": 0.802579410651,
			"0.013": 0.0,
			"0.014": 0.0,
			"0.015": 0.0,
			"0.016": 0.0,
			"0.017": 0.0,
			"0.018": 0.0,
			"0.019": 0.0,
			"0.02": 0.0,
			"0.021": 0.0,
			"0.022": 0.0,
			"0.023": 0.0,
			"0.024": 0.0,
			"0.025": 0.0
		}
	}
}
