{
	 "smiles": "FC(F)(F)COC(=O)NC1=CC2=C(OCCO2)C=C1", 
	 "Tm": 377.15, 
	 "num_atms": 29, 
	 "gaussian": { 
		 "optdone": 1, 
		 "sigma_profile": "yes", 
		 "theory": "DFT", 
		 "functional": "B3LYP", 
		 "basiset": "6-31G**", 
		 "properties": { 
			 "R2extent": 7454.9034, 
			 "electric_dipole_moment_norm": 4.06833119964, 
			 "electric_quadrupole_moment_norm": 14.1119899111, 
			 "total_energy": -1080.36827511, 
			 "HOMO_LUMO_gap": 0.19908, 
			 "cosmo_polarized_energy": -13.86, 
			 "cosmo_cavitation_energy": 34.95, 
			 "cosmo_dispersion_energy": -25.05, 
			 "cosmo_repulsion_energy": 1.86, 
			 "cosmo_total_nonelectrostatic_energy": 11.76, 
			 "SMD_solvation_energy": 8.43 
		},
		"coords": [
			{
				"x": 0.4941500241,
				"y": 1.9979240895,
				"z": -3.8112227032,
				"element": "F" 
			},
			{
				"x": -0.8073390763,
				"y": 2.211267831,
				"z": -4.1010303653,
				"element": "C" 
			},
			{
				"x": -0.8836997002,
				"y": 2.6397174895,
				"z": -5.3774573194,
				"element": "F" 
			},
			{
				"x": -1.2451919028,
				"y": 3.1959089042,
				"z": -3.2959149917,
				"element": "F" 
			},
			{
				"x": -1.6300662189,
				"y": 0.9452771582,
				"z": -3.9346520055,
				"element": "C" 
			},
			{
				"x": -1.4804215302,
				"y": 0.4682088407,
				"z": -2.6048997165,
				"element": "O" 
			},
			{
				"x": -2.5314776812,
				"y": 0.7018150058,
				"z": -1.7609521043,
				"element": "C" 
			},
			{
				"x": -3.6146271279,
				"y": 1.1253955056,
				"z": -2.114999196,
				"element": "O" 
			},
			{
				"x": -2.2308782901,
				"y": 0.3769194485,
				"z": -0.4684660084,
				"element": "N" 
			},
			{
				"x": -1.0413927808,
				"y": -0.1064804155,
				"z": 0.1378732486,
				"element": "C" 
			},
			{
				"x": -1.1915802061,
				"y": -0.8495902658,
				"z": 1.3142634989,
				"element": "C" 
			},
			{
				"x": -0.0761204048,
				"y": -1.3161413625,
				"z": 2.006291916,
				"element": "C" 
			},
			{
				"x": 1.2127079841,
				"y": -1.0641039443,
				"z": 1.5090182088,
				"element": "C" 
			},
			{
				"x": 2.3409346186,
				"y": -1.52645242,
				"z": 2.1450388799,
				"element": "O" 
			},
			{
				"x": 2.0766444391,
				"y": -2.5603350457,
				"z": 3.0921081541,
				"element": "C" 
			},
			{
				"x": 0.8883928775,
				"y": -2.1827538321,
				"z": 3.9624887249,
				"element": "C" 
			},
			{
				"x": -0.2838606398,
				"y": -2.0305585835,
				"z": 3.1599071575,
				"element": "O" 
			},
			{
				"x": 1.3551759371,
				"y": -0.3165314945,
				"z": 0.341458342,
				"element": "C" 
			},
			{
				"x": 0.2462357134,
				"y": 0.1780403583,
				"z": -0.3406037653,
				"element": "C" 
			},
			{
				"x": -2.676993915,
				"y": 1.161380791,
				"z": -4.1542985529,
				"element": "H" 
			},
			{
				"x": -1.2425516872,
				"y": 0.181261812,
				"z": -4.6114371587,
				"element": "H" 
			},
			{
				"x": -3.0406305449,
				"y": 0.4575454065,
				"z": 0.1298585188,
				"element": "H" 
			},
			{
				"x": -2.1750771086,
				"y": -1.0786973944,
				"z": 1.7136683728,
				"element": "H" 
			},
			{
				"x": 1.8706577696,
				"y": -3.5046594571,
				"z": 2.5692329027,
				"element": "H" 
			},
			{
				"x": 2.9845636253,
				"y": -2.6748674173,
				"z": 3.6896705003,
				"element": "H" 
			},
			{
				"x": 0.6642733237,
				"y": -2.9654582013,
				"z": 4.6915727413,
				"element": "H" 
			},
			{
				"x": 1.0990376312,
				"y": -1.2458087544,
				"z": 4.495814174,
				"element": "H" 
			},
			{
				"x": 2.3585512535,
				"y": -0.1208335436,
				"z": -0.0226120318,
				"element": "H" 
			},
			{
				"x": 0.3836836177,
				"y": 0.7626094914,
				"z": -1.2390194216,
				"element": "H" 
			}
		],
		 "valence_orbital": [ 
			{
				"type": "occ",
				"energy": -0.30862,
				"method": "rhf"
			},
			{
				"type": "occ",
				"energy": -0.289,
				"method": "rhf"
			},
			{
				"type": "occ",
				"energy": -0.28252,
				"method": "rhf"
			},
			{
				"type": "occ",
				"energy": -0.23638,
				"method": "rhf"
			},
			{
				"type": "occ",
				"energy": -0.20538,
				"method": "rhf"
			},
			{
				"type": "unocc",
				"energy": -0.0063,
				"method": "rhf"
			},
			{
				"type": "unocc",
				"energy": 0.00281,
				"method": "rhf"
			},
			{
				"type": "unocc",
				"energy": 0.05567,
				"method": "rhf"
			},
			{
				"type": "unocc",
				"energy": 0.07081,
				"method": "rhf"
			},
			{
				"type": "unocc",
				"energy": 0.08499,
				"method": "rhf"
			}
		],
		"cosmo_sigma_profile": { 
			"-0.025": 0.0,
			"-0.024": 0.0,
			"-0.023": 0.0,
			"-0.022": 0.0,
			"-0.021": 0.0,
			"-0.02": 0.0,
			"-0.019": 0.0,
			"-0.018": 0.0,
			"-0.017": 0.0,
			"-0.016": 0.0816100341291,
			"-0.015": 1.1725112169,
			"-0.014": 0.773166688438,
			"-0.013": 1.54664096844,
			"-0.012": 0.886301445056,
			"-0.011": 0.802922292029,
			"-0.01": 1.96376186084,
			"-0.009": 4.23326923771,
			"-0.008": 5.0817583496,
			"-0.007": 11.1824312263,
			"-0.006": 18.8796499613,
			"-0.005": 16.9822364095,
			"-0.004": 15.036135351,
			"-0.003": 12.236789189,
			"-0.002": 15.9542638746,
			"-0.001": 14.5233690018,
			"0.0": 14.1459581134,
			"0.001": 19.3172113357,
			"0.002": 34.4241174623,
			"0.003": 31.6446308549,
			"0.004": 16.0900264921,
			"0.005": 10.3068850712,
			"0.006": 6.11633399128,
			"0.007": 4.0509068981,
			"0.008": 3.28093584875,
			"0.009": 4.9194866374,
			"0.01": 4.0795526033,
			"0.011": 3.26900309073,
			"0.012": 4.84570123069,
			"0.013": 0.953457791593,
			"0.014": 0.0,
			"0.015": 0.0,
			"0.016": 0.0,
			"0.017": 0.0,
			"0.018": 0.0,
			"0.019": 0.0,
			"0.02": 0.0,
			"0.021": 0.0,
			"0.022": 0.0,
			"0.023": 0.0,
			"0.024": 0.0,
			"0.025": 0.0
		}
	}
}
