{
	 "smiles": "CC(C)(O)C#CC(C)(C)O", 
	 "Tm": 368.15, 
	 "num_atms": 24, 
	 "gaussian": { 
		 "optdone": 1, 
		 "sigma_profile": "yes", 
		 "theory": "DFT", 
		 "functional": "B3LYP", 
		 "basiset": "6-31G**", 
		 "properties": { 
			 "R2extent": 2399.1221, 
			 "electric_dipole_moment_norm": 1.48520338338, 
			 "electric_quadrupole_moment_norm": 7.27158879682, 
			 "total_energy": -463.672573069, 
			 "HOMO_LUMO_gap": 0.29265, 
			 "cosmo_polarized_energy": -10.67, 
			 "cosmo_cavitation_energy": 27.5, 
			 "cosmo_dispersion_energy": -18.7, 
			 "cosmo_repulsion_energy": 1.6, 
			 "cosmo_total_nonelectrostatic_energy": 10.4, 
			 "SMD_solvation_energy": 5.55 
		},
		"coords": [
			{
				"x": -0.9524219103,
				"y": -1.9456967867,
				"z": -1.3955889216,
				"element": "C" 
			},
			{
				"x": -1.0300692636,
				"y": -1.2029924606,
				"z": -0.0478289197,
				"element": "C" 
			},
			{
				"x": -0.1867983882,
				"y": -1.9107774632,
				"z": 1.0220236184,
				"element": "C" 
			},
			{
				"x": -2.3762900209,
				"y": -1.2397003531,
				"z": 0.4520805235,
				"element": "O" 
			},
			{
				"x": -0.5851687588,
				"y": 0.1964197511,
				"z": -0.2188520386,
				"element": "C" 
			},
			{
				"x": -0.2373508331,
				"y": 1.3452146769,
				"z": -0.3844515671,
				"element": "C" 
			},
			{
				"x": 0.1757068087,
				"y": 2.7574257439,
				"z": -0.5291274348,
				"element": "C" 
			},
			{
				"x": 1.1296001664,
				"y": 2.9252907309,
				"z": -1.7202414985,
				"element": "C" 
			},
			{
				"x": -1.0687549227,
				"y": 3.653080854,
				"z": -0.6851770926,
				"element": "C" 
			},
			{
				"x": 0.9326518791,
				"y": 3.1724364033,
				"z": 0.6181372299,
				"element": "O" 
			},
			{
				"x": 0.0730679768,
				"y": -1.9717558842,
				"z": -1.7756864383,
				"element": "H" 
			},
			{
				"x": -1.5772500353,
				"y": -1.4486585967,
				"z": -2.1449287159,
				"element": "H" 
			},
			{
				"x": -1.3122133537,
				"y": -2.9703753618,
				"z": -1.2645528378,
				"element": "H" 
			},
			{
				"x": 0.8649284518,
				"y": -1.9437893188,
				"z": 0.7271921872,
				"element": "H" 
			},
			{
				"x": -0.555390278,
				"y": -2.9322437269,
				"z": 1.1538915478,
				"element": "H" 
			},
			{
				"x": -0.2719212584,
				"y": -1.3831408278,
				"z": 1.9746560657,
				"element": "H" 
			},
			{
				"x": -2.9208484261,
				"y": -0.7105458328,
				"z": -0.1464154999,
				"element": "H" 
			},
			{
				"x": 0.6362233441,
				"y": 2.6470340165,
				"z": -2.6549811962,
				"element": "H" 
			},
			{
				"x": 1.4498186809,
				"y": 3.9695057018,
				"z": -1.7813123352,
				"element": "H" 
			},
			{
				"x": 2.0123209945,
				"y": 2.2967371924,
				"z": -1.5832032986,
				"element": "H" 
			},
			{
				"x": -1.6394337313,
				"y": 3.3884557115,
				"z": -1.5805303264,
				"element": "H" 
			},
			{
				"x": -0.7541892381,
				"y": 4.6981707628,
				"z": -0.758179013,
				"element": "H" 
			},
			{
				"x": -1.7294402428,
				"y": 3.5464637628,
				"z": 0.1812724612,
				"element": "H" 
			},
			{
				"x": 0.4143223589,
				"y": 2.9481413048,
				"z": 1.4029035006,
				"element": "H" 
			}
		],
		 "valence_orbital": [ 
			{
				"type": "occ",
				"energy": -0.3369,
				"method": "rhf"
			},
			{
				"type": "occ",
				"energy": -0.28389,
				"method": "rhf"
			},
			{
				"type": "occ",
				"energy": -0.28014,
				"method": "rhf"
			},
			{
				"type": "occ",
				"energy": -0.2557,
				"method": "rhf"
			},
			{
				"type": "occ",
				"energy": -0.25462,
				"method": "rhf"
			},
			{
				"type": "unocc",
				"energy": 0.03803,
				"method": "rhf"
			},
			{
				"type": "unocc",
				"energy": 0.04163,
				"method": "rhf"
			},
			{
				"type": "unocc",
				"energy": 0.07834,
				"method": "rhf"
			},
			{
				"type": "unocc",
				"energy": 0.08548,
				"method": "rhf"
			},
			{
				"type": "unocc",
				"energy": 0.12687,
				"method": "rhf"
			}
		],
		"cosmo_sigma_profile": { 
			"-0.025": 0.0,
			"-0.024": 0.0,
			"-0.023": 0.0,
			"-0.022": 0.0,
			"-0.021": 0.0,
			"-0.02": 0.0,
			"-0.019": 0.0,
			"-0.018": 0.0,
			"-0.017": 0.0,
			"-0.016": 0.150661697393,
			"-0.015": 1.30586808289,
			"-0.014": 1.52817062865,
			"-0.013": 2.01137865264,
			"-0.012": 1.44644048102,
			"-0.011": 1.51355855116,
			"-0.01": 1.78923996725,
			"-0.009": 1.43794888665,
			"-0.008": 1.89017348889,
			"-0.007": 1.9709123478,
			"-0.006": 2.24620626367,
			"-0.005": 3.13939493793,
			"-0.004": 18.323913104,
			"-0.003": 23.9131365008,
			"-0.002": 22.7019522812,
			"-0.001": 22.184501897,
			"0.0": 31.578737978,
			"0.001": 16.3593611458,
			"0.002": 7.24475061217,
			"0.003": 6.51767109433,
			"0.004": 7.11880264622,
			"0.005": 6.12071000724,
			"0.006": 6.07641123228,
			"0.007": 4.8178621394,
			"0.008": 2.98757098971,
			"0.009": 2.41765555833,
			"0.01": 2.89082850654,
			"0.011": 2.50086171959,
			"0.012": 2.51736043708,
			"0.013": 4.29512646216,
			"0.014": 2.54763206423,
			"0.015": 0.0,
			"0.016": 0.0,
			"0.017": 0.0,
			"0.018": 0.0,
			"0.019": 0.0,
			"0.02": 0.0,
			"0.021": 0.0,
			"0.022": 0.0,
			"0.023": 0.0,
			"0.024": 0.0,
			"0.025": 0.0
		}
	}
}
