{
	 "smiles": "COC1=CC=C(C=O)C=C1O", 
	 "Tm": 387.15, 
	 "num_atms": 19, 
	 "gaussian": { 
		 "optdone": 1, 
		 "sigma_profile": "yes", 
		 "theory": "DFT", 
		 "functional": "B3LYP", 
		 "basiset": "6-31G**", 
		 "properties": { 
			 "R2extent": 2554.7317, 
			 "electric_dipole_moment_norm": 3.24607480043, 
			 "electric_quadrupole_moment_norm": 16.0317970066, 
			 "total_energy": -535.314564804, 
			 "HOMO_LUMO_gap": 0.166, 
			 "cosmo_polarized_energy": -15.24, 
			 "cosmo_cavitation_energy": 23.67, 
			 "cosmo_dispersion_energy": -17.43, 
			 "cosmo_repulsion_energy": 1.4, 
			 "cosmo_total_nonelectrostatic_energy": 7.63, 
			 "SMD_solvation_energy": 6.37 
		},
		"coords": [
			{
				"x": -3.7350935418,
				"y": 1.0475537111,
				"z": 2.7313181676,
				"element": "C" 
			},
			{
				"x": -3.0759561351,
				"y": -0.1683454367,
				"z": 2.4064261108,
				"element": "O" 
			},
			{
				"x": -2.0686663786,
				"y": -0.1330373357,
				"z": 1.5012250194,
				"element": "C" 
			},
			{
				"x": -1.6125877756,
				"y": 1.0180050484,
				"z": 0.8465299323,
				"element": "C" 
			},
			{
				"x": -0.566228863,
				"y": 0.9431777582,
				"z": -0.0700717102,
				"element": "C" 
			},
			{
				"x": 0.0394955954,
				"y": -0.285709941,
				"z": -0.3450771353,
				"element": "C" 
			},
			{
				"x": 1.1472079272,
				"y": -0.3788101912,
				"z": -1.3126585017,
				"element": "C" 
			},
			{
				"x": 1.6140169948,
				"y": 0.5602491431,
				"z": -1.9322273907,
				"element": "O" 
			},
			{
				"x": -0.4160052987,
				"y": -1.4435626173,
				"z": 0.3107293795,
				"element": "C" 
			},
			{
				"x": -1.456853187,
				"y": -1.3827201613,
				"z": 1.2254582354,
				"element": "C" 
			},
			{
				"x": -1.9450509818,
				"y": -2.4660326352,
				"z": 1.8943279788,
				"element": "O" 
			},
			{
				"x": -4.4968521975,
				"y": 0.7855099426,
				"z": 3.4663211129,
				"element": "H" 
			},
			{
				"x": -4.2171342099,
				"y": 1.492066153,
				"z": 1.8516466781,
				"element": "H" 
			},
			{
				"x": -3.0425616076,
				"y": 1.7764980762,
				"z": 3.1704343402,
				"element": "H" 
			},
			{
				"x": -2.0759869411,
				"y": 1.9752738122,
				"z": 1.0532100144,
				"element": "H" 
			},
			{
				"x": -0.205442337,
				"y": 1.828637434,
				"z": -0.5826088322,
				"element": "H" 
			},
			{
				"x": 1.5516769229,
				"y": -1.4080185184,
				"z": -1.4520626101,
				"element": "H" 
			},
			{
				"x": 0.0556851587,
				"y": -2.4022093375,
				"z": 0.0969959443,
				"element": "H" 
			},
			{
				"x": -1.4492631443,
				"y": -3.2488249044,
				"z": 1.6211832664,
				"element": "H" 
			}
		],
		 "valence_orbital": [ 
			{
				"type": "occ",
				"energy": -0.33856,
				"method": "rhf"
			},
			{
				"type": "occ",
				"energy": -0.32231,
				"method": "rhf"
			},
			{
				"type": "occ",
				"energy": -0.25313,
				"method": "rhf"
			},
			{
				"type": "occ",
				"energy": -0.24751,
				"method": "rhf"
			},
			{
				"type": "occ",
				"energy": -0.21778,
				"method": "rhf"
			},
			{
				"type": "unocc",
				"energy": -0.05178,
				"method": "rhf"
			},
			{
				"type": "unocc",
				"energy": -0.00296,
				"method": "rhf"
			},
			{
				"type": "unocc",
				"energy": 0.05564,
				"method": "rhf"
			},
			{
				"type": "unocc",
				"energy": 0.06087,
				"method": "rhf"
			},
			{
				"type": "unocc",
				"energy": 0.08862,
				"method": "rhf"
			}
		],
		"cosmo_sigma_profile": { 
			"-0.025": 0.0,
			"-0.024": 0.0,
			"-0.023": 0.0,
			"-0.022": 0.0,
			"-0.021": 0.0,
			"-0.02": 0.0,
			"-0.019": 0.00891695915125,
			"-0.018": 0.913300261011,
			"-0.017": 1.1621641234,
			"-0.016": 1.00105034378,
			"-0.015": 1.19708085563,
			"-0.014": 0.966283736544,
			"-0.013": 1.38680256501,
			"-0.012": 0.745963209881,
			"-0.011": 0.723738359552,
			"-0.01": 1.29586342023,
			"-0.009": 1.24538701877,
			"-0.008": 1.89128896655,
			"-0.007": 6.06304009584,
			"-0.006": 14.3139855987,
			"-0.005": 16.5791529015,
			"-0.004": 14.4000120813,
			"-0.003": 13.1458037163,
			"-0.002": 7.62790848828,
			"-0.001": 7.89702853394,
			"0.0": 8.42670715339,
			"0.001": 10.664633698,
			"0.002": 13.1602092028,
			"0.003": 14.9351796041,
			"0.004": 10.2073135868,
			"0.005": 4.12831195546,
			"0.006": 2.77186113353,
			"0.007": 3.87476130888,
			"0.008": 3.91064482404,
			"0.009": 3.17625109809,
			"0.01": 4.24980534563,
			"0.011": 5.37775587325,
			"0.012": 6.64452018716,
			"0.013": 3.35180367526,
			"0.014": 1.12612100967,
			"0.015": 0.00313857254036,
			"0.016": 0.0,
			"0.017": 0.0,
			"0.018": 0.0,
			"0.019": 0.0,
			"0.02": 0.0,
			"0.021": 0.0,
			"0.022": 0.0,
			"0.023": 0.0,
			"0.024": 0.0,
			"0.025": 0.0
		}
	}
}
