{
	 "smiles": "CS(=O)(=O)C1=CC=C(C=C1)S(N)(=O)=O", 
	 "Tm": 520.15, 
	 "num_atms": 23, 
	 "gaussian": { 
		 "optdone": 1, 
		 "sigma_profile": "yes", 
		 "theory": "DFT", 
		 "functional": "B3LYP", 
		 "basiset": "6-31G**", 
		 "properties": { 
			 "R2extent": 4776.6893, 
			 "electric_dipole_moment_norm": 1.52509040388, 
			 "electric_quadrupole_moment_norm": 31.1058664049, 
			 "total_energy": -1424.05462949, 
			 "HOMO_LUMO_gap": 0.21624, 
			 "cosmo_polarized_energy": -23.92, 
			 "cosmo_cavitation_energy": 30.3, 
			 "cosmo_dispersion_energy": -23.0, 
			 "cosmo_repulsion_energy": 1.72, 
			 "cosmo_total_nonelectrostatic_energy": 9.02, 
			 "SMD_solvation_energy": 4.61 
		},
		"coords": [
			{
				"x": -1.3155562133,
				"y": 2.9190573039,
				"z": -1.1291450383,
				"element": "C" 
			},
			{
				"x": 0.4651534788,
				"y": 2.6201122262,
				"z": -1.0294259913,
				"element": "S" 
			},
			{
				"x": 1.0323006342,
				"y": 3.6107774619,
				"z": -0.1028750413,
				"element": "O" 
			},
			{
				"x": 0.9704331701,
				"y": 2.4757983807,
				"z": -2.4025396463,
				"element": "O" 
			},
			{
				"x": 0.5749592364,
				"y": 1.0021082109,
				"z": -0.2338034476,
				"element": "C" 
			},
			{
				"x": 0.6492889573,
				"y": 0.9342555185,
				"z": 1.158543351,
				"element": "C" 
			},
			{
				"x": 0.7286127783,
				"y": -0.3146883771,
				"z": 1.7732628354,
				"element": "C" 
			},
			{
				"x": 0.7408455184,
				"y": -1.4616479983,
				"z": 0.9777660947,
				"element": "C" 
			},
			{
				"x": 0.6693340272,
				"y": -1.3945979346,
				"z": -0.414677852,
				"element": "C" 
			},
			{
				"x": 0.5900718017,
				"y": -0.1453384071,
				"z": -1.0287398262,
				"element": "C" 
			},
			{
				"x": 0.8404677782,
				"y": -3.0731267302,
				"z": 1.7704796532,
				"element": "S" 
			},
			{
				"x": 2.5044012058,
				"y": -3.3536510105,
				"z": 1.8621765985,
				"element": "N" 
			},
			{
				"x": 0.3481150499,
				"y": -2.9169677078,
				"z": 3.1412326431,
				"element": "O" 
			},
			{
				"x": 0.2832707687,
				"y": -4.0546356328,
				"z": 0.8367073444,
				"element": "O" 
			},
			{
				"x": -1.7345983657,
				"y": 2.9371547664,
				"z": -0.1222326266,
				"element": "H" 
			},
			{
				"x": -1.4320834728,
				"y": 3.8939876973,
				"z": -1.6071098884,
				"element": "H" 
			},
			{
				"x": -1.7778919434,
				"y": 2.1402911872,
				"z": -1.7370691384,
				"element": "H" 
			},
			{
				"x": 0.6598943909,
				"y": 1.8473103772,
				"z": 1.744122414,
				"element": "H" 
			},
			{
				"x": 0.7694082653,
				"y": -0.4041933202,
				"z": 2.8530607227,
				"element": "H" 
			},
			{
				"x": 0.6649481547,
				"y": -2.3065350743,
				"z": -1.001189413,
				"element": "H" 
			},
			{
				"x": 0.5555696146,
				"y": -0.0545987242,
				"z": -2.10913969,
				"element": "H" 
			},
			{
				"x": 2.7860707235,
				"y": -3.4382962991,
				"z": 2.8351583198,
				"element": "H" 
			},
			{
				"x": 2.7436844412,
				"y": -4.1832759141,
				"z": 1.3258376226,
				"element": "H" 
			}
		],
		 "valence_orbital": [ 
			{
				"type": "occ",
				"energy": -0.31894,
				"method": "rhf"
			},
			{
				"type": "occ",
				"energy": -0.30523,
				"method": "rhf"
			},
			{
				"type": "occ",
				"energy": -0.2983,
				"method": "rhf"
			},
			{
				"type": "occ",
				"energy": -0.29102,
				"method": "rhf"
			},
			{
				"type": "occ",
				"energy": -0.28588,
				"method": "rhf"
			},
			{
				"type": "unocc",
				"energy": -0.06964,
				"method": "rhf"
			},
			{
				"type": "unocc",
				"energy": -0.0419,
				"method": "rhf"
			},
			{
				"type": "unocc",
				"energy": 0.03767,
				"method": "rhf"
			},
			{
				"type": "unocc",
				"energy": 0.05171,
				"method": "rhf"
			},
			{
				"type": "unocc",
				"energy": 0.06289,
				"method": "rhf"
			}
		],
		"cosmo_sigma_profile": { 
			"-0.025": 0.0,
			"-0.024": 0.0,
			"-0.023": 0.0,
			"-0.022": 0.0,
			"-0.021": 0.0,
			"-0.02": 0.0,
			"-0.019": 0.0,
			"-0.018": 0.0,
			"-0.017": 0.0,
			"-0.016": 0.0642744828984,
			"-0.015": 2.10133818985,
			"-0.014": 1.9344792474,
			"-0.013": 2.86912435642,
			"-0.012": 3.03951090973,
			"-0.011": 1.37966673177,
			"-0.01": 1.77443188415,
			"-0.009": 5.89026387311,
			"-0.008": 15.1125460259,
			"-0.007": 15.0555593381,
			"-0.006": 14.0130345615,
			"-0.005": 13.799204666,
			"-0.004": 13.4429909173,
			"-0.003": 11.6548488453,
			"-0.002": 9.98425226416,
			"-0.001": 9.9007898596,
			"0.0": 17.9134860077,
			"0.001": 13.8811745412,
			"0.002": 6.61820684302,
			"0.003": 5.57966564263,
			"0.004": 5.56705469485,
			"0.005": 5.07399328174,
			"0.006": 5.26446619162,
			"0.007": 6.51269035237,
			"0.008": 6.42585257707,
			"0.009": 6.7221959749,
			"0.01": 14.9865398329,
			"0.011": 17.8140946853,
			"0.012": 7.40315380357,
			"0.013": 0.0929122450658,
			"0.014": 0.0,
			"0.015": 0.0,
			"0.016": 0.0,
			"0.017": 0.0,
			"0.018": 0.0,
			"0.019": 0.0,
			"0.02": 0.0,
			"0.021": 0.0,
			"0.022": 0.0,
			"0.023": 0.0,
			"0.024": 0.0,
			"0.025": 0.0
		}
	}
}
