{
	 "smiles": "OCCOCCN1CCN(CC1)C(C1=CC=CC=C1)C1=CC=C(Cl)C=C1", 
	 "Tm": 463.15, 
	 "num_atms": 53, 
	 "gaussian": { 
		 "optdone": 1, 
		 "sigma_profile": "yes", 
		 "theory": "DFT", 
		 "functional": "B3LYP", 
		 "basiset": "6-31G**", 
		 "properties": { 
			 "R2extent": 12480.2078, 
			 "electric_dipole_moment_norm": 2.6590000865, 
			 "electric_quadrupole_moment_norm": 23.3743719466, 
			 "total_energy": -1536.59686627, 
			 "HOMO_LUMO_gap": 0.17224, 
			 "cosmo_polarized_energy": -13.93, 
			 "cosmo_cavitation_energy": 53.79, 
			 "cosmo_dispersion_energy": -34.88, 
			 "cosmo_repulsion_energy": 2.64, 
			 "cosmo_total_nonelectrostatic_energy": 21.55, 
			 "SMD_solvation_energy": 6.35 
		},
		"coords": [
			{
				"x": 3.9278478172,
				"y": 0.7903134019,
				"z": 1.5583059261,
				"element": "O" 
			},
			{
				"x": 3.4810853422,
				"y": 2.1099107788,
				"z": 1.2850380061,
				"element": "C" 
			},
			{
				"x": 2.0035992045,
				"y": 2.2813340133,
				"z": 1.6308536153,
				"element": "C" 
			},
			{
				"x": 1.624721402,
				"y": 3.6148226641,
				"z": 1.307455914,
				"element": "O" 
			},
			{
				"x": 0.2381391645,
				"y": 3.8852508315,
				"z": 1.4770177024,
				"element": "C" 
			},
			{
				"x": -0.5333446112,
				"y": 3.8856202292,
				"z": 0.1514323415,
				"element": "C" 
			},
			{
				"x": -0.3674240429,
				"y": 2.6380292349,
				"z": -0.5892802865,
				"element": "N" 
			},
			{
				"x": 0.6809666092,
				"y": 2.6694224795,
				"z": -1.6004256941,
				"element": "C" 
			},
			{
				"x": 1.0938785672,
				"y": 1.226468377,
				"z": -1.9678182684,
				"element": "C" 
			},
			{
				"x": -0.0081129543,
				"y": 0.2856882525,
				"z": -1.705990645,
				"element": "N" 
			},
			{
				"x": -1.2673227143,
				"y": 0.9162507821,
				"z": -2.1090151435,
				"element": "C" 
			},
			{
				"x": -1.5977557094,
				"y": 2.0709805786,
				"z": -1.137111888,
				"element": "C" 
			},
			{
				"x": 0.2303788738,
				"y": -1.0363065218,
				"z": -2.2953326885,
				"element": "C" 
			},
			{
				"x": 1.5769711445,
				"y": -1.6051054384,
				"z": -1.8317570146,
				"element": "C" 
			},
			{
				"x": 1.8976555295,
				"y": -1.6845183537,
				"z": -0.4674205053,
				"element": "C" 
			},
			{
				"x": 3.1151301291,
				"y": -2.2254509762,
				"z": -0.0529383973,
				"element": "C" 
			},
			{
				"x": 4.0329967547,
				"y": -2.7001390779,
				"z": -0.9967093081,
				"element": "C" 
			},
			{
				"x": 3.7210249896,
				"y": -2.6290143923,
				"z": -2.3529639316,
				"element": "C" 
			},
			{
				"x": 2.5016081643,
				"y": -2.0823983291,
				"z": -2.7646441575,
				"element": "C" 
			},
			{
				"x": -0.8847895006,
				"y": -2.0263513973,
				"z": -1.9536242689,
				"element": "C" 
			},
			{
				"x": -1.4992962546,
				"y": -2.0389574488,
				"z": -0.6939542548,
				"element": "C" 
			},
			{
				"x": -2.4737931299,
				"y": -2.9845152708,
				"z": -0.3777732949,
				"element": "C" 
			},
			{
				"x": -2.8361587906,
				"y": -3.9346514842,
				"z": -1.3322501598,
				"element": "C" 
			},
			{
				"x": -4.0650505948,
				"y": -5.1313170878,
				"z": -0.941553098,
				"element": "Cl" 
			},
			{
				"x": -2.2441040788,
				"y": -3.9442255523,
				"z": -2.5935341499,
				"element": "C" 
			},
			{
				"x": -1.2748968218,
				"y": -2.9865679952,
				"z": -2.8935303973,
				"element": "C" 
			},
			{
				"x": 3.5615630012,
				"y": 0.2024462194,
				"z": 0.8833376986,
				"element": "H" 
			},
			{
				"x": 3.6472651715,
				"y": 2.3942262904,
				"z": 0.2346543919,
				"element": "H" 
			},
			{
				"x": 4.0852093335,
				"y": 2.7832838613,
				"z": 1.9008744221,
				"element": "H" 
			},
			{
				"x": 1.8551689724,
				"y": 2.0833852197,
				"z": 2.7043048544,
				"element": "H" 
			},
			{
				"x": 1.3956022758,
				"y": 1.5596457915,
				"z": 1.0679402372,
				"element": "H" 
			},
			{
				"x": -0.2106573921,
				"y": 3.1498905676,
				"z": 2.1589151253,
				"element": "H" 
			},
			{
				"x": 0.148329906,
				"y": 4.8747317283,
				"z": 1.9463218591,
				"element": "H" 
			},
			{
				"x": -0.2288367127,
				"y": 4.7552128374,
				"z": -0.4552485562,
				"element": "H" 
			},
			{
				"x": -1.5955638874,
				"y": 4.0327640824,
				"z": 0.3867459315,
				"element": "H" 
			},
			{
				"x": 1.5404099225,
				"y": 3.2061341173,
				"z": -1.1952902218,
				"element": "H" 
			},
			{
				"x": 0.3578155388,
				"y": 3.219185122,
				"z": -2.5069153972,
				"element": "H" 
			},
			{
				"x": 1.9620754802,
				"y": 0.9200406157,
				"z": -1.380010704,
				"element": "H" 
			},
			{
				"x": 1.3998613603,
				"y": 1.2007575587,
				"z": -3.031324862,
				"element": "H" 
			},
			{
				"x": -1.2092827053,
				"y": 1.2923651263,
				"z": -3.1480980498,
				"element": "H" 
			},
			{
				"x": -2.0748728683,
				"y": 0.1828817331,
				"z": -2.0886347862,
				"element": "H" 
			},
			{
				"x": -2.2093630374,
				"y": 1.698783336,
				"z": -0.3057969904,
				"element": "H" 
			},
			{
				"x": -2.2059987081,
				"y": 2.8204654102,
				"z": -1.680299482,
				"element": "H" 
			},
			{
				"x": 0.2783843942,
				"y": -0.9697122124,
				"z": -3.4010054498,
				"element": "H" 
			},
			{
				"x": 1.1892430047,
				"y": -1.3162660074,
				"z": 0.2678126816,
				"element": "H" 
			},
			{
				"x": 3.3458648082,
				"y": -2.2850754432,
				"z": 1.0075578017,
				"element": "H" 
			},
			{
				"x": 4.9800513041,
				"y": -3.1212886827,
				"z": -0.672763972,
				"element": "H" 
			},
			{
				"x": 4.4262216824,
				"y": -2.9925308928,
				"z": -3.0949862824,
				"element": "H" 
			},
			{
				"x": 2.2702362882,
				"y": -2.022546351,
				"z": -3.8253859042,
				"element": "H" 
			},
			{
				"x": -1.2229961979,
				"y": -1.2861305003,
				"z": 0.0371427194,
				"element": "H" 
			},
			{
				"x": -2.9489978256,
				"y": -2.9855089766,
				"z": 0.5971721628,
				"element": "H" 
			},
			{
				"x": -2.5401147955,
				"y": -4.6840627279,
				"z": -3.3290586326,
				"element": "H" 
			},
			{
				"x": -0.8148728027,
				"y": -2.9918501204,
				"z": -3.8784365487,
				"element": "H" 
			}
		],
		 "valence_orbital": [ 
			{
				"type": "occ",
				"energy": -0.25763,
				"method": "rhf"
			},
			{
				"type": "occ",
				"energy": -0.2513,
				"method": "rhf"
			},
			{
				"type": "occ",
				"energy": -0.23712,
				"method": "rhf"
			},
			{
				"type": "occ",
				"energy": -0.22722,
				"method": "rhf"
			},
			{
				"type": "occ",
				"energy": -0.19891,
				"method": "rhf"
			},
			{
				"type": "unocc",
				"energy": -0.02667,
				"method": "rhf"
			},
			{
				"type": "unocc",
				"energy": -0.01995,
				"method": "rhf"
			},
			{
				"type": "unocc",
				"energy": -0.00667,
				"method": "rhf"
			},
			{
				"type": "unocc",
				"energy": 0.0002,
				"method": "rhf"
			},
			{
				"type": "unocc",
				"energy": 0.02997,
				"method": "rhf"
			}
		],
		"cosmo_sigma_profile": { 
			"-0.025": 0.0,
			"-0.024": 0.0,
			"-0.023": 0.0,
			"-0.022": 0.0,
			"-0.021": 0.0,
			"-0.02": 0.0,
			"-0.019": 0.0,
			"-0.018": 0.0,
			"-0.017": 0.0,
			"-0.016": 0.0,
			"-0.015": 0.0,
			"-0.014": 0.0,
			"-0.013": 0.0,
			"-0.012": 0.0,
			"-0.011": 0.0,
			"-0.01": 0.0,
			"-0.009": 0.0,
			"-0.008": 0.0752517910972,
			"-0.007": 4.22520186687,
			"-0.006": 13.2599833521,
			"-0.005": 25.7277120782,
			"-0.004": 31.2611283007,
			"-0.003": 47.0405532879,
			"-0.002": 60.1580055465,
			"-0.001": 53.8734110044,
			"0.0": 34.4040250966,
			"0.001": 22.0721111812,
			"0.002": 25.4381163624,
			"0.003": 25.3406258267,
			"0.004": 29.3067578961,
			"0.005": 21.5075013067,
			"0.006": 5.31192016566,
			"0.007": 3.48826007382,
			"0.008": 3.62183088911,
			"0.009": 3.16121258248,
			"0.01": 2.27401943208,
			"0.011": 1.91029979735,
			"0.012": 3.52229138186,
			"0.013": 3.0787648004,
			"0.014": 2.4804610786,
			"0.015": 1.29184373127,
			"0.016": 0.103438922949,
			"0.017": 0.0,
			"0.018": 0.0,
			"0.019": 0.0,
			"0.02": 0.0,
			"0.021": 0.0,
			"0.022": 0.0,
			"0.023": 0.0,
			"0.024": 0.0,
			"0.025": 0.0
		}
	}
}
