{
	 "smiles": "CC1=NC2=NN=NN2C(C)=C1CCC(O)=O", 
	 "Tm": 461.15, 
	 "num_atms": 27, 
	 "gaussian": { 
		 "optdone": 1, 
		 "sigma_profile": "yes", 
		 "theory": "DFT", 
		 "functional": "B3LYP", 
		 "basiset": "6-31G**", 
		 "properties": { 
			 "R2extent": 4227.2779, 
			 "electric_dipole_moment_norm": 8.61318657931, 
			 "electric_quadrupole_moment_norm": 19.5700855044, 
			 "total_energy": -773.755818843, 
			 "HOMO_LUMO_gap": 0.188, 
			 "cosmo_polarized_energy": -25.15, 
			 "cosmo_cavitation_energy": 30.77, 
			 "cosmo_dispersion_energy": -21.79, 
			 "cosmo_repulsion_energy": 1.68, 
			 "cosmo_total_nonelectrostatic_energy": 10.66, 
			 "SMD_solvation_energy": 2.92 
		},
		"coords": [
			{
				"x": -1.6888638622,
				"y": -0.9497466727,
				"z": 1.0186781535,
				"element": "C" 
			},
			{
				"x": -0.2375649652,
				"y": -0.8014000096,
				"z": 0.6338759473,
				"element": "C" 
			},
			{
				"x": 0.6335298294,
				"y": -1.1570128569,
				"z": 1.5620664653,
				"element": "N" 
			},
			{
				"x": 1.934301127,
				"y": -1.0046641186,
				"z": 1.2637349191,
				"element": "C" 
			},
			{
				"x": 3.0239866841,
				"y": -1.2706233257,
				"z": 1.9870660725,
				"element": "N" 
			},
			{
				"x": 4.066738532,
				"y": -0.9132092085,
				"z": 1.2203156653,
				"element": "N" 
			},
			{
				"x": 3.7114088256,
				"y": -0.4373792316,
				"z": 0.0562388795,
				"element": "N" 
			},
			{
				"x": 2.3515250479,
				"y": -0.4859369817,
				"z": 0.0583483545,
				"element": "N" 
			},
			{
				"x": 1.4876402218,
				"y": -0.0996297613,
				"z": -0.9333775373,
				"element": "C" 
			},
			{
				"x": 2.1178760972,
				"y": 0.4623232043,
				"z": -2.1700458232,
				"element": "C" 
			},
			{
				"x": 0.1440669675,
				"y": -0.2728180036,
				"z": -0.6622997796,
				"element": "C" 
			},
			{
				"x": -0.9032044264,
				"y": 0.0919636549,
				"z": -1.7008264105,
				"element": "C" 
			},
			{
				"x": -0.9589781214,
				"y": -0.8516498122,
				"z": -2.928809374,
				"element": "C" 
			},
			{
				"x": -1.2531391637,
				"y": -2.2999907658,
				"z": -2.598442548,
				"element": "C" 
			},
			{
				"x": -2.4689284108,
				"y": -2.4499924559,
				"z": -2.0078853483,
				"element": "O" 
			},
			{
				"x": -0.5241060368,
				"y": -3.2361241419,
				"z": -2.8297298852,
				"element": "O" 
			},
			{
				"x": -2.1849740626,
				"y": 0.0272497508,
				"z": 1.0651883649,
				"element": "H" 
			},
			{
				"x": -2.2414326222,
				"y": -1.5612971092,
				"z": 0.3000657944,
				"element": "H" 
			},
			{
				"x": -1.7402524742,
				"y": -1.4101661864,
				"z": 2.0053331243,
				"element": "H" 
			},
			{
				"x": 1.3886215327,
				"y": 0.972960266,
				"z": -2.7980057027,
				"element": "H" 
			},
			{
				"x": 2.91299948,
				"y": 1.1607634101,
				"z": -1.8959229155,
				"element": "H" 
			},
			{
				"x": 2.5889124984,
				"y": -0.3365567435,
				"z": -2.7540876309,
				"element": "H" 
			},
			{
				"x": -1.8895802847,
				"y": 0.1202542787,
				"z": -1.2372007462,
				"element": "H" 
			},
			{
				"x": -0.7166235402,
				"y": 1.1053321413,
				"z": -2.0739563766,
				"element": "H" 
			},
			{
				"x": -0.0154329782,
				"y": -0.8448819571,
				"z": -3.4762485625,
				"element": "H" 
			},
			{
				"x": -1.7456665874,
				"y": -0.4925779949,
				"z": -3.602685191,
				"element": "H" 
			},
			{
				"x": -2.5728593074,
				"y": -3.402489369,
				"z": -1.8406879088,
				"element": "H" 
			}
		],
		 "valence_orbital": [ 
			{
				"type": "occ",
				"energy": -0.29612,
				"method": "rhf"
			},
			{
				"type": "occ",
				"energy": -0.28811,
				"method": "rhf"
			},
			{
				"type": "occ",
				"energy": -0.28541,
				"method": "rhf"
			},
			{
				"type": "occ",
				"energy": -0.2698,
				"method": "rhf"
			},
			{
				"type": "occ",
				"energy": -0.25987,
				"method": "rhf"
			},
			{
				"type": "unocc",
				"energy": -0.07187,
				"method": "rhf"
			},
			{
				"type": "unocc",
				"energy": -0.0354,
				"method": "rhf"
			},
			{
				"type": "unocc",
				"energy": -0.01525,
				"method": "rhf"
			},
			{
				"type": "unocc",
				"energy": 0.02216,
				"method": "rhf"
			},
			{
				"type": "unocc",
				"energy": 0.04967,
				"method": "rhf"
			}
		],
		"cosmo_sigma_profile": { 
			"-0.025": 0.0,
			"-0.024": 0.0,
			"-0.023": 0.0,
			"-0.022": 0.0,
			"-0.021": 0.0,
			"-0.02": 0.0,
			"-0.019": 0.0250900808019,
			"-0.018": 0.818870538248,
			"-0.017": 0.871270484354,
			"-0.016": 0.740221550806,
			"-0.015": 0.826032198053,
			"-0.014": 1.06187394528,
			"-0.013": 0.579475714145,
			"-0.012": 0.088421019877,
			"-0.011": 1.16620441245,
			"-0.01": 0.9265619562,
			"-0.009": 0.778659721286,
			"-0.008": 3.28326767022,
			"-0.007": 12.7798491195,
			"-0.006": 24.0345631792,
			"-0.005": 23.0060970899,
			"-0.004": 22.0314120111,
			"-0.003": 23.5891481343,
			"-0.002": 17.6425519078,
			"-0.001": 12.3820240958,
			"0.0": 7.49214613577,
			"0.001": 5.76865846405,
			"0.002": 5.24979220762,
			"0.003": 6.51407150376,
			"0.004": 5.88770979206,
			"0.005": 4.98762378569,
			"0.006": 6.07617408897,
			"0.007": 6.11308502352,
			"0.008": 9.13155895642,
			"0.009": 8.27455130688,
			"0.01": 8.71652927712,
			"0.011": 9.95845823648,
			"0.012": 7.5033376767,
			"0.013": 3.84261190248,
			"0.014": 1.91001406057,
			"0.015": 0.782792452596,
			"0.016": 0.0288944339272,
			"0.017": 0.0,
			"0.018": 0.0,
			"0.019": 0.0,
			"0.02": 0.0,
			"0.021": 0.0,
			"0.022": 0.0,
			"0.023": 0.0,
			"0.024": 0.0,
			"0.025": 0.0
		}
	}
}
