{
	 "smiles": "NNC(=O)C1=CSC(CS(=O)(=O)C2=CC=C(Cl)C=C2)=N1", 
	 "Tm": 479.15, 
	 "num_atms": 30, 
	 "gaussian": { 
		 "optdone": 1, 
		 "sigma_profile": "yes", 
		 "theory": "DFT", 
		 "functional": "B3LYP", 
		 "basiset": "6-31G**", 
		 "properties": { 
			 "R2extent": 8767.6851, 
			 "electric_dipole_moment_norm": 6.59808807307, 
			 "electric_quadrupole_moment_norm": 28.3982090134, 
			 "total_energy": -2071.58751697, 
			 "HOMO_LUMO_gap": 0.20036, 
			 "cosmo_polarized_energy": -27.28, 
			 "cosmo_cavitation_energy": 40.44, 
			 "cosmo_dispersion_energy": -28.51, 
			 "cosmo_repulsion_energy": 2.13, 
			 "cosmo_total_nonelectrostatic_energy": 14.06, 
			 "SMD_solvation_energy": 5.96 
		},
		"coords": [
			{
				"x": 0.2327991666,
				"y": 2.0939104599,
				"z": -4.7569824898,
				"element": "N" 
			},
			{
				"x": 0.228119564,
				"y": 0.793872167,
				"z": -4.2083221661,
				"element": "N" 
			},
			{
				"x": 0.7080448939,
				"y": 0.5738249683,
				"z": -2.9409966799,
				"element": "C" 
			},
			{
				"x": 1.045302231,
				"y": 1.4825499148,
				"z": -2.193521898,
				"element": "O" 
			},
			{
				"x": 0.7437041616,
				"y": -0.8642752712,
				"z": -2.5231919477,
				"element": "C" 
			},
			{
				"x": -0.183302177,
				"y": -1.8227791443,
				"z": -2.8434050661,
				"element": "C" 
			},
			{
				"x": 0.1618812492,
				"y": -3.2883725086,
				"z": -1.9944911295,
				"element": "S" 
			},
			{
				"x": 1.567268133,
				"y": -2.4938282687,
				"z": -1.2734131954,
				"element": "C" 
			},
			{
				"x": 2.4512972742,
				"y": -3.2190270525,
				"z": -0.3091987428,
				"element": "C" 
			},
			{
				"x": 3.1669124172,
				"y": -2.2004878456,
				"z": 1.0642820815,
				"element": "S" 
			},
			{
				"x": 3.5380207784,
				"y": -3.1945600894,
				"z": 2.0848621244,
				"element": "O" 
			},
			{
				"x": 4.1669248547,
				"y": -1.3005392975,
				"z": 0.4823354009,
				"element": "O" 
			},
			{
				"x": 1.8143533236,
				"y": -1.21479637,
				"z": 1.7186966408,
				"element": "C" 
			},
			{
				"x": 1.1063827418,
				"y": -1.702995726,
				"z": 2.8193251565,
				"element": "C" 
			},
			{
				"x": 0.0716256108,
				"y": -0.9410872788,
				"z": 3.3587492495,
				"element": "C" 
			},
			{
				"x": -0.2313171517,
				"y": 0.2943808441,
				"z": 2.7827106215,
				"element": "C" 
			},
			{
				"x": -1.5387273843,
				"y": 1.2507490566,
				"z": 3.45544601,
				"element": "Cl" 
			},
			{
				"x": 0.4812958766,
				"y": 0.7878459166,
				"z": 1.6881822104,
				"element": "C" 
			},
			{
				"x": 1.5207516282,
				"y": 0.0295643291,
				"z": 1.1526923335,
				"element": "C" 
			},
			{
				"x": 1.7251517633,
				"y": -1.2624659217,
				"z": -1.6468286488,
				"element": "N" 
			},
			{
				"x": 1.0363477568,
				"y": 2.5819113334,
				"z": -4.3579521654,
				"element": "H" 
			},
			{
				"x": -0.5873890882,
				"y": 2.5798865744,
				"z": -4.3964118447,
				"element": "H" 
			},
			{
				"x": 0.3016888784,
				"y": 0.0548478091,
				"z": -4.8939360469,
				"element": "H" 
			},
			{
				"x": -1.0540392151,
				"y": -1.7302431625,
				"z": -3.4768736008,
				"element": "H" 
			},
			{
				"x": 1.9331368383,
				"y": -4.0507184291,
				"z": 0.1720150501,
				"element": "H" 
			},
			{
				"x": 3.3518426947,
				"y": -3.6064136601,
				"z": -0.7992191157,
				"element": "H" 
			},
			{
				"x": 1.3800860794,
				"y": -2.6564302559,
				"z": 3.2579756393,
				"element": "H" 
			},
			{
				"x": -0.4886452344,
				"y": -1.2945416777,
				"z": 4.2168610768,
				"element": "H" 
			},
			{
				"x": 0.2293943863,
				"y": 1.7494596486,
				"z": 1.2561775001,
				"element": "H" 
			},
			{
				"x": 2.0765879488,
				"y": 0.3937589381,
				"z": 0.2970336425,
				"element": "H" 
			}
		],
		 "valence_orbital": [ 
			{
				"type": "occ",
				"energy": -0.27807,
				"method": "rhf"
			},
			{
				"type": "occ",
				"energy": -0.2762,
				"method": "rhf"
			},
			{
				"type": "occ",
				"energy": -0.27145,
				"method": "rhf"
			},
			{
				"type": "occ",
				"energy": -0.26859,
				"method": "rhf"
			},
			{
				"type": "occ",
				"energy": -0.26388,
				"method": "rhf"
			},
			{
				"type": "unocc",
				"energy": -0.06352,
				"method": "rhf"
			},
			{
				"type": "unocc",
				"energy": -0.04697,
				"method": "rhf"
			},
			{
				"type": "unocc",
				"energy": -0.02919,
				"method": "rhf"
			},
			{
				"type": "unocc",
				"energy": -0.02364,
				"method": "rhf"
			},
			{
				"type": "unocc",
				"energy": -0.01327,
				"method": "rhf"
			}
		],
		"cosmo_sigma_profile": { 
			"-0.025": 0.0,
			"-0.024": 0.0,
			"-0.023": 0.0,
			"-0.022": 0.0,
			"-0.021": 0.0,
			"-0.02": 0.0,
			"-0.019": 0.0,
			"-0.018": 0.0,
			"-0.017": 0.0,
			"-0.016": 0.0,
			"-0.015": 0.216008165073,
			"-0.014": 1.07637798048,
			"-0.013": 0.946137291107,
			"-0.012": 1.99033618224,
			"-0.011": 4.27593706516,
			"-0.01": 11.2091264379,
			"-0.009": 11.0306833065,
			"-0.008": 11.9925486831,
			"-0.007": 13.3173210751,
			"-0.006": 13.4276472615,
			"-0.005": 12.2755108073,
			"-0.004": 13.1881065243,
			"-0.003": 14.7841496257,
			"-0.002": 18.3731878008,
			"-0.001": 21.0490943502,
			"0.0": 33.724183395,
			"0.001": 32.2215492094,
			"0.002": 18.3277812072,
			"0.003": 12.3647173174,
			"0.004": 14.4729081001,
			"0.005": 6.89223074687,
			"0.006": 6.17584876344,
			"0.007": 5.48888652242,
			"0.008": 6.16921381365,
			"0.009": 6.8693415849,
			"0.01": 10.1720074331,
			"0.011": 14.5540122314,
			"0.012": 7.42954160402,
			"0.013": 2.2501254141,
			"0.014": 0.991046710359,
			"0.015": 0.509454234219,
			"0.016": 0.549343505564,
			"0.017": 0.0711483083127,
			"0.018": 0.0,
			"0.019": 0.0,
			"0.02": 0.0,
			"0.021": 0.0,
			"0.022": 0.0,
			"0.023": 0.0,
			"0.024": 0.0,
			"0.025": 0.0
		}
	}
}
