{
	 "smiles": "CC(CCC(O)=O)C1=CC=C(C)C=C1", 
	 "Tm": 315.15, 
	 "num_atms": 30, 
	 "gaussian": { 
		 "optdone": 1, 
		 "sigma_profile": "yes", 
		 "theory": "DFT", 
		 "functional": "B3LYP", 
		 "basiset": "6-31G**", 
		 "properties": { 
			 "R2extent": 3564.6869, 
			 "electric_dipole_moment_norm": 5.21499721381, 
			 "electric_quadrupole_moment_norm": 16.706585489, 
			 "total_energy": -617.393442999, 
			 "HOMO_LUMO_gap": 0.2279, 
			 "cosmo_polarized_energy": -12.46, 
			 "cosmo_cavitation_energy": 31.68, 
			 "cosmo_dispersion_energy": -22.11, 
			 "cosmo_repulsion_energy": 1.75, 
			 "cosmo_total_nonelectrostatic_energy": 11.32, 
			 "SMD_solvation_energy": 6.16 
		},
		"coords": [
			{
				"x": -3.1970718049,
				"y": -0.4827343269,
				"z": -2.4593243812,
				"element": "C" 
			},
			{
				"x": -2.0076876641,
				"y": -1.2836016653,
				"z": -1.9111544204,
				"element": "C" 
			},
			{
				"x": -0.7251365198,
				"y": -1.0486188276,
				"z": -2.7572957654,
				"element": "C" 
			},
			{
				"x": -0.131306047,
				"y": 0.3863282487,
				"z": -2.6729763804,
				"element": "C" 
			},
			{
				"x": 1.3120602298,
				"y": 0.4304083533,
				"z": -2.1846989716,
				"element": "C" 
			},
			{
				"x": 1.5417963727,
				"y": -0.1283475949,
				"z": -0.9674764661,
				"element": "O" 
			},
			{
				"x": 2.2220619454,
				"y": 0.9234097581,
				"z": -2.8052577603,
				"element": "O" 
			},
			{
				"x": -1.7341402315,
				"y": -1.0638000367,
				"z": -0.4257648756,
				"element": "C" 
			},
			{
				"x": -0.9675649505,
				"y": -2.0087008548,
				"z": 0.2818100006,
				"element": "C" 
			},
			{
				"x": -0.6608106694,
				"y": -1.8338313854,
				"z": 1.6301474589,
				"element": "C" 
			},
			{
				"x": -1.108930398,
				"y": -0.7063879623,
				"z": 2.3348760712,
				"element": "C" 
			},
			{
				"x": -0.753708407,
				"y": -0.5074630897,
				"z": 3.7889771073,
				"element": "C" 
			},
			{
				"x": -1.8796384612,
				"y": 0.2285464206,
				"z": 1.6368851215,
				"element": "C" 
			},
			{
				"x": -2.1862050717,
				"y": 0.056528132,
				"z": 0.284062675,
				"element": "C" 
			},
			{
				"x": -3.0051216859,
				"y": 0.5954691987,
				"z": -2.4690601515,
				"element": "H" 
			},
			{
				"x": -3.4074081566,
				"y": -0.7831984407,
				"z": -3.4905843474,
				"element": "H" 
			},
			{
				"x": -4.1005215527,
				"y": -0.6548481445,
				"z": -1.8662944441,
				"element": "H" 
			},
			{
				"x": -2.2539303754,
				"y": -2.3477080313,
				"z": -2.0308012206,
				"element": "H" 
			},
			{
				"x": 0.0308433582,
				"y": -1.7805862526,
				"z": -2.4529114375,
				"element": "H" 
			},
			{
				"x": -0.9572032085,
				"y": -1.2789919361,
				"z": -3.802615456,
				"element": "H" 
			},
			{
				"x": -0.7250517269,
				"y": 1.0038589778,
				"z": -1.9866809412,
				"element": "H" 
			},
			{
				"x": -0.1451972582,
				"y": 0.8821199684,
				"z": -3.6441992086,
				"element": "H" 
			},
			{
				"x": 0.7171401583,
				"y": -0.4513521599,
				"z": -0.5673666985,
				"element": "H" 
			},
			{
				"x": -0.6171746582,
				"y": -2.9022743327,
				"z": -0.2305422116,
				"element": "H" 
			},
			{
				"x": -0.0704341994,
				"y": -2.5878890303,
				"z": 2.1450383565,
				"element": "H" 
			},
			{
				"x": -0.8402899546,
				"y": -1.4414934006,
				"z": 4.3535071842,
				"element": "H" 
			},
			{
				"x": -1.4030070784,
				"y": 0.2349418396,
				"z": 4.2612260037,
				"element": "H" 
			},
			{
				"x": 0.2803039295,
				"y": -0.158352455,
				"z": 3.8990257702,
				"element": "H" 
			},
			{
				"x": -2.2498084147,
				"y": 1.108873293,
				"z": 2.1565576686,
				"element": "H" 
			},
			{
				"x": -2.7966574992,
				"y": 0.804195737,
				"z": -0.2121082796,
				"element": "H" 
			}
		],
		 "valence_orbital": [ 
			{
				"type": "occ",
				"energy": -0.33233,
				"method": "rhf"
			},
			{
				"type": "occ",
				"energy": -0.29888,
				"method": "rhf"
			},
			{
				"type": "occ",
				"energy": -0.26462,
				"method": "rhf"
			},
			{
				"type": "occ",
				"energy": -0.25436,
				"method": "rhf"
			},
			{
				"type": "occ",
				"energy": -0.2469,
				"method": "rhf"
			},
			{
				"type": "unocc",
				"energy": -0.019,
				"method": "rhf"
			},
			{
				"type": "unocc",
				"energy": -0.01464,
				"method": "rhf"
			},
			{
				"type": "unocc",
				"energy": 0.0245,
				"method": "rhf"
			},
			{
				"type": "unocc",
				"energy": 0.07499,
				"method": "rhf"
			},
			{
				"type": "unocc",
				"energy": 0.09043,
				"method": "rhf"
			}
		],
		"cosmo_sigma_profile": { 
			"-0.025": 0.0,
			"-0.024": 0.0,
			"-0.023": 0.0,
			"-0.022": 0.0,
			"-0.021": 0.0,
			"-0.02": 0.0,
			"-0.019": 0.0,
			"-0.018": 0.0,
			"-0.017": 0.0,
			"-0.016": 0.0,
			"-0.015": 0.0,
			"-0.014": 0.0,
			"-0.013": 0.0,
			"-0.012": 0.0,
			"-0.011": 0.0,
			"-0.01": 0.0,
			"-0.009": 0.0662151854311,
			"-0.008": 0.38234724949,
			"-0.007": 1.10837995589,
			"-0.006": 4.90383670451,
			"-0.005": 18.9736909504,
			"-0.004": 30.8561990496,
			"-0.003": 34.0251548634,
			"-0.002": 29.52836924,
			"-0.001": 26.1731269237,
			"0.0": 23.3008463679,
			"0.001": 15.6255890424,
			"0.002": 9.56421639004,
			"0.003": 7.65459793951,
			"0.004": 6.69079075163,
			"0.005": 6.02625274121,
			"0.006": 6.3760843877,
			"0.007": 2.07798017036,
			"0.008": 2.05737974227,
			"0.009": 2.99606208894,
			"0.01": 3.67925914969,
			"0.011": 5.65043638505,
			"0.012": 5.98822833942,
			"0.013": 4.19178610095,
			"0.014": 0.631867582493,
			"0.015": 0.0,
			"0.016": 0.0,
			"0.017": 0.0,
			"0.018": 0.0,
			"0.019": 0.0,
			"0.02": 0.0,
			"0.021": 0.0,
			"0.022": 0.0,
			"0.023": 0.0,
			"0.024": 0.0,
			"0.025": 0.0
		}
	}
}
