{
	 "smiles": "COC(=O)C1=C(C=NC=C1)C(O)=O", 
	 "Tm": 449.15, 
	 "num_atms": 20, 
	 "gaussian": { 
		 "optdone": 1, 
		 "sigma_profile": "yes", 
		 "theory": "DFT", 
		 "functional": "B3LYP", 
		 "basiset": "6-31G**", 
		 "properties": { 
			 "R2extent": 2779.9422, 
			 "electric_dipole_moment_norm": 2.58515574966, 
			 "electric_quadrupole_moment_norm": 16.350443257, 
			 "total_energy": -664.723250834, 
			 "HOMO_LUMO_gap": 0.19435, 
			 "cosmo_polarized_energy": -13.96, 
			 "cosmo_cavitation_energy": 25.7, 
			 "cosmo_dispersion_energy": -18.29, 
			 "cosmo_repulsion_energy": 1.46, 
			 "cosmo_total_nonelectrostatic_energy": 8.87, 
			 "SMD_solvation_energy": 5.79 
		},
		"coords": [
			{
				"x": -1.0650785511,
				"y": -3.7947289817,
				"z": -1.9981597677,
				"element": "C" 
			},
			{
				"x": -0.4719923114,
				"y": -2.5110470075,
				"z": -1.7346987563,
				"element": "O" 
			},
			{
				"x": -0.9206997471,
				"y": -1.8871879691,
				"z": -0.6314638951,
				"element": "C" 
			},
			{
				"x": -1.8168321197,
				"y": -2.299167164,
				"z": 0.0731794138,
				"element": "O" 
			},
			{
				"x": -0.2426207917,
				"y": -0.5627325186,
				"z": -0.4264756759,
				"element": "C" 
			},
			{
				"x": 1.1320684928,
				"y": -0.324201023,
				"z": -0.5997316404,
				"element": "C" 
			},
			{
				"x": 1.5900179071,
				"y": 0.9960298744,
				"z": -0.473783236,
				"element": "C" 
			},
			{
				"x": 0.8105774887,
				"y": 2.0371961701,
				"z": -0.173236263,
				"element": "N" 
			},
			{
				"x": -0.4895036837,
				"y": 1.7872080114,
				"z": 0.0273425837,
				"element": "C" 
			},
			{
				"x": -1.0570083507,
				"y": 0.5187896304,
				"z": -0.0846253393,
				"element": "C" 
			},
			{
				"x": 2.1718911467,
				"y": -1.3671135659,
				"z": -0.8430217739,
				"element": "C" 
			},
			{
				"x": 1.9049266974,
				"y": -2.5351099835,
				"z": -0.2148478182,
				"element": "O" 
			},
			{
				"x": 3.1926867585,
				"y": -1.1767848028,
				"z": -1.4695101664,
				"element": "O" 
			},
			{
				"x": -2.1499807163,
				"y": -3.7045845188,
				"z": -2.0876036842,
				"element": "H" 
			},
			{
				"x": -0.8313003506,
				"y": -4.4927991904,
				"z": -1.1904429172,
				"element": "H" 
			},
			{
				"x": -0.6271358013,
				"y": -4.13217674,
				"z": -2.9369506446,
				"element": "H" 
			},
			{
				"x": 2.6485565376,
				"y": 1.196784374,
				"z": -0.6181965188,
				"element": "H" 
			},
			{
				"x": -1.1107998875,
				"y": 2.6439149992,
				"z": 0.2804963256,
				"element": "H" 
			},
			{
				"x": -2.1184338231,
				"y": 0.363417011,
				"z": 0.0735498008,
				"element": "H" 
			},
			{
				"x": 2.6454611054,
				"y": -3.1285066053,
				"z": -0.4253200271,
				"element": "H" 
			}
		],
		 "valence_orbital": [ 
			{
				"type": "occ",
				"energy": -0.31194,
				"method": "rhf"
			},
			{
				"type": "occ",
				"energy": -0.29768,
				"method": "rhf"
			},
			{
				"type": "occ",
				"energy": -0.28657,
				"method": "rhf"
			},
			{
				"type": "occ",
				"energy": -0.27776,
				"method": "rhf"
			},
			{
				"type": "occ",
				"energy": -0.26837,
				"method": "rhf"
			},
			{
				"type": "unocc",
				"energy": -0.07402,
				"method": "rhf"
			},
			{
				"type": "unocc",
				"energy": -0.04439,
				"method": "rhf"
			},
			{
				"type": "unocc",
				"energy": 0.01704,
				"method": "rhf"
			},
			{
				"type": "unocc",
				"energy": 0.02877,
				"method": "rhf"
			},
			{
				"type": "unocc",
				"energy": 0.06844,
				"method": "rhf"
			}
		],
		"cosmo_sigma_profile": { 
			"-0.025": 0.0,
			"-0.024": 0.0,
			"-0.023": 0.0,
			"-0.022": 0.0,
			"-0.021": 0.0,
			"-0.02": 0.0,
			"-0.019": 0.316913075887,
			"-0.018": 1.12921993167,
			"-0.017": 1.0567630245,
			"-0.016": 0.571983175255,
			"-0.015": 0.559933987221,
			"-0.014": 1.074816403,
			"-0.013": 0.458231650987,
			"-0.012": 0.406139059618,
			"-0.011": 1.29108649162,
			"-0.01": 0.381804883629,
			"-0.009": 0.731384053261,
			"-0.008": 4.13944745895,
			"-0.007": 8.71582916251,
			"-0.006": 12.0403988371,
			"-0.005": 13.3267563423,
			"-0.004": 15.5151055212,
			"-0.003": 14.3896494504,
			"-0.002": 12.9962062265,
			"-0.001": 18.0310982883,
			"0.0": 15.6863082119,
			"0.001": 10.7862994534,
			"0.002": 10.3461988355,
			"0.003": 8.41797700486,
			"0.004": 6.53227903933,
			"0.005": 6.13552107076,
			"0.006": 5.58640317282,
			"0.007": 5.13677712297,
			"0.008": 3.92775157514,
			"0.009": 4.30580486829,
			"0.01": 6.6106508246,
			"0.011": 10.113880575,
			"0.012": 2.60311029151,
			"0.013": 0.859446516421,
			"0.014": 0.881987970825,
			"0.015": 0.62726131286,
			"0.016": 0.0611313947928,
			"0.017": 0.0,
			"0.018": 0.0,
			"0.019": 0.0,
			"0.02": 0.0,
			"0.021": 0.0,
			"0.022": 0.0,
			"0.023": 0.0,
			"0.024": 0.0,
			"0.025": 0.0
		}
	}
}
