{
	 "smiles": "CC1=C(C(NC(=O)N1)C1=CC=CO1)C(=O)OC(C)(C)C", 
	 "Tm": 481.15, 
	 "num_atms": 38, 
	 "gaussian": { 
		 "optdone": 1, 
		 "sigma_profile": "yes", 
		 "theory": "DFT", 
		 "functional": "B3LYP", 
		 "basiset": "6-31G**", 
		 "properties": { 
			 "R2extent": 6466.7846, 
			 "electric_dipole_moment_norm": 3.61494492351, 
			 "electric_quadrupole_moment_norm": 20.4407482891, 
			 "total_energy": -954.758100779, 
			 "HOMO_LUMO_gap": 0.17878, 
			 "cosmo_polarized_energy": -17.53, 
			 "cosmo_cavitation_energy": 40.8, 
			 "cosmo_dispersion_energy": -27.34, 
			 "cosmo_repulsion_energy": 2.12, 
			 "cosmo_total_nonelectrostatic_energy": 15.58, 
			 "SMD_solvation_energy": 8.64 
		},
		"coords": [
			{
				"x": -1.5763934837,
				"y": 0.4425160035,
				"z": 2.882259625,
				"element": "C" 
			},
			{
				"x": -0.1655580453,
				"y": -0.0101581559,
				"z": 2.601972165,
				"element": "C" 
			},
			{
				"x": 0.3133530033,
				"y": -0.5491026359,
				"z": 1.4447806556,
				"element": "C" 
			},
			{
				"x": 1.8043346338,
				"y": -0.8476484985,
				"z": 1.3232901048,
				"element": "C" 
			},
			{
				"x": 2.3602218316,
				"y": -1.1132492513,
				"z": 2.6566317609,
				"element": "N" 
			},
			{
				"x": 1.9696143037,
				"y": -0.4350146033,
				"z": 3.7783420964,
				"element": "C" 
			},
			{
				"x": 2.6077971379,
				"y": -0.3679302219,
				"z": 4.8175308319,
				"element": "O" 
			},
			{
				"x": 0.6984754272,
				"y": 0.1439887765,
				"z": 3.6702233224,
				"element": "N" 
			},
			{
				"x": 2.5550280482,
				"y": 0.2373176404,
				"z": 0.5987813941,
				"element": "C" 
			},
			{
				"x": 3.150677074,
				"y": 0.2984200719,
				"z": -0.6265800767,
				"element": "C" 
			},
			{
				"x": 3.6918474223,
				"y": 1.6209725214,
				"z": -0.7517628989,
				"element": "C" 
			},
			{
				"x": 3.3863884409,
				"y": 2.264337993,
				"z": 0.4078077904,
				"element": "C" 
			},
			{
				"x": 2.6914319605,
				"y": 1.438487704,
				"z": 1.2424719459,
				"element": "O" 
			},
			{
				"x": -0.4537830608,
				"y": -0.8734862419,
				"z": 0.2336321006,
				"element": "C" 
			},
			{
				"x": 0.0702616415,
				"y": -1.3872622853,
				"z": -0.7465966272,
				"element": "O" 
			},
			{
				"x": -1.7710300251,
				"y": -0.5668612901,
				"z": 0.3146079142,
				"element": "O" 
			},
			{
				"x": -2.6892022117,
				"y": -0.8302557445,
				"z": -0.8085692217,
				"element": "C" 
			},
			{
				"x": -2.7536717614,
				"y": -2.3348146596,
				"z": -1.0944745792,
				"element": "C" 
			},
			{
				"x": -2.2641105221,
				"y": -0.0208401439,
				"z": -2.0387612614,
				"element": "C" 
			},
			{
				"x": -4.0319585045,
				"y": -0.3271918979,
				"z": -0.2707891126,
				"element": "C" 
			},
			{
				"x": -1.9349332954,
				"y": 1.1140662542,
				"z": 2.1024523103,
				"element": "H" 
			},
			{
				"x": -1.6294158549,
				"y": 0.9553427168,
				"z": 3.847015901,
				"element": "H" 
			},
			{
				"x": -2.259718094,
				"y": -0.4103221594,
				"z": 2.9056267342,
				"element": "H" 
			},
			{
				"x": 1.9132468729,
				"y": -1.7514595067,
				"z": 0.7191847958,
				"element": "H" 
			},
			{
				"x": 3.3213389322,
				"y": -1.42441184,
				"z": 2.7019084727,
				"element": "H" 
			},
			{
				"x": 0.3724524543,
				"y": 0.5621222175,
				"z": 4.5288328349,
				"element": "H" 
			},
			{
				"x": 3.1797435351,
				"y": -0.497928216,
				"z": -1.35590159,
				"element": "H" 
			},
			{
				"x": 4.2355555548,
				"y": 2.0308714223,
				"z": -1.5908169367,
				"element": "H" 
			},
			{
				"x": 3.5849500743,
				"y": 3.2552673079,
				"z": 0.7858135342,
				"element": "H" 
			},
			{
				"x": -3.0118981407,
				"y": -2.8838831483,
				"z": -0.1833097618,
				"element": "H" 
			},
			{
				"x": -3.5306866045,
				"y": -2.5319260952,
				"z": -1.840400442,
				"element": "H" 
			},
			{
				"x": -1.80040634,
				"y": -2.7041630661,
				"z": -1.4718499846,
				"element": "H" 
			},
			{
				"x": -2.1815404851,
				"y": 1.0407609934,
				"z": -1.7849175843,
				"element": "H" 
			},
			{
				"x": -3.0211777471,
				"y": -0.1240167865,
				"z": -2.8231357968,
				"element": "H" 
			},
			{
				"x": -1.3057911908,
				"y": -0.3670081305,
				"z": -2.4251742275,
				"element": "H" 
			},
			{
				"x": -4.3175277853,
				"y": -0.873030423,
				"z": 0.6333516644,
				"element": "H" 
			},
			{
				"x": -4.8143246726,
				"y": -0.4721253769,
				"z": -1.0216979691,
				"element": "H" 
			},
			{
				"x": -3.9798905232,
				"y": 0.7389187558,
				"z": -0.0303798844,
				"element": "H" 
			}
		],
		 "valence_orbital": [ 
			{
				"type": "occ",
				"energy": -0.26927,
				"method": "rhf"
			},
			{
				"type": "occ",
				"energy": -0.26291,
				"method": "rhf"
			},
			{
				"type": "occ",
				"energy": -0.25547,
				"method": "rhf"
			},
			{
				"type": "occ",
				"energy": -0.22668,
				"method": "rhf"
			},
			{
				"type": "occ",
				"energy": -0.21615,
				"method": "rhf"
			},
			{
				"type": "unocc",
				"energy": -0.03737,
				"method": "rhf"
			},
			{
				"type": "unocc",
				"energy": 0.01452,
				"method": "rhf"
			},
			{
				"type": "unocc",
				"energy": 0.05859,
				"method": "rhf"
			},
			{
				"type": "unocc",
				"energy": 0.06997,
				"method": "rhf"
			},
			{
				"type": "unocc",
				"energy": 0.07976,
				"method": "rhf"
			}
		],
		"cosmo_sigma_profile": { 
			"-0.025": 0.0,
			"-0.024": 0.0,
			"-0.023": 0.0,
			"-0.022": 0.0,
			"-0.021": 0.0,
			"-0.02": 0.0,
			"-0.019": 0.0,
			"-0.018": 0.0,
			"-0.017": 0.0,
			"-0.016": 0.15273746865,
			"-0.015": 1.24516698345,
			"-0.014": 1.96156827968,
			"-0.013": 2.50675316166,
			"-0.012": 2.01294634686,
			"-0.011": 2.11420697121,
			"-0.01": 1.59459748187,
			"-0.009": 3.30357813745,
			"-0.008": 3.91005305007,
			"-0.007": 5.54853473782,
			"-0.006": 9.37353945724,
			"-0.005": 9.96189401124,
			"-0.004": 23.6424123434,
			"-0.003": 27.9110278836,
			"-0.002": 30.1607894343,
			"-0.001": 29.2318996789,
			"0.0": 36.9240761153,
			"0.001": 29.1362594462,
			"0.002": 16.8809147797,
			"0.003": 17.3714247956,
			"0.004": 12.7377504245,
			"0.005": 13.8359334987,
			"0.006": 8.66496798394,
			"0.007": 4.40633010382,
			"0.008": 4.16376480055,
			"0.009": 3.12453840697,
			"0.01": 2.61877226702,
			"0.011": 2.77245482673,
			"0.012": 3.75658658041,
			"0.013": 7.01244641397,
			"0.014": 3.26116980245,
			"0.015": 0.0778724586256,
			"0.016": 0.0,
			"0.017": 0.0,
			"0.018": 0.0,
			"0.019": 0.0,
			"0.02": 0.0,
			"0.021": 0.0,
			"0.022": 0.0,
			"0.023": 0.0,
			"0.024": 0.0,
			"0.025": 0.0
		}
	}
}
