{
	 "smiles": "OC(=O)CNC(=O)C1=CC(F)=C(F)C=C1", 
	 "Tm": 454.15, 
	 "num_atms": 22, 
	 "gaussian": { 
		 "optdone": 1, 
		 "sigma_profile": "yes", 
		 "theory": "DFT", 
		 "functional": "B3LYP", 
		 "basiset": "6-31G**", 
		 "properties": { 
			 "R2extent": 4427.2625, 
			 "electric_dipole_moment_norm": 3.65854305018, 
			 "electric_quadrupole_moment_norm": 22.9596652855, 
			 "total_energy": -827.282636797, 
			 "HOMO_LUMO_gap": 0.20308, 
			 "cosmo_polarized_energy": -16.53, 
			 "cosmo_cavitation_energy": 28.81, 
			 "cosmo_dispersion_energy": -20.4, 
			 "cosmo_repulsion_energy": 1.57, 
			 "cosmo_total_nonelectrostatic_energy": 9.98, 
			 "SMD_solvation_energy": 7.07 
		},
		"coords": [
			{
				"x": -1.4236210127,
				"y": -4.3864713843,
				"z": 1.1078017604,
				"element": "O" 
			},
			{
				"x": -0.3543876816,
				"y": -3.6356062417,
				"z": 1.4350757143,
				"element": "C" 
			},
			{
				"x": 0.2629514246,
				"y": -3.7526226356,
				"z": 2.4691663262,
				"element": "O" 
			},
			{
				"x": -0.0157967559,
				"y": -2.6546501333,
				"z": 0.323754279,
				"element": "C" 
			},
			{
				"x": 1.0898696156,
				"y": -1.8150242092,
				"z": 0.7365774904,
				"element": "N" 
			},
			{
				"x": 1.2214205763,
				"y": -0.4549016084,
				"z": 0.5517911472,
				"element": "C" 
			},
			{
				"x": 1.9096190071,
				"y": 0.2168398352,
				"z": 1.3110212648,
				"element": "O" 
			},
			{
				"x": 0.5317594731,
				"y": 0.1816090362,
				"z": -0.622456506,
				"element": "C" 
			},
			{
				"x": 0.3527153374,
				"y": -0.4681669321,
				"z": -1.8527925505,
				"element": "C" 
			},
			{
				"x": -0.2311413307,
				"y": 0.2135132485,
				"z": -2.910077045,
				"element": "C" 
			},
			{
				"x": -0.3972722911,
				"y": -0.3902320797,
				"z": -4.0991071944,
				"element": "F" 
			},
			{
				"x": -0.6475777198,
				"y": 1.5360043187,
				"z": -2.7573845912,
				"element": "C" 
			},
			{
				"x": -1.2168273591,
				"y": 2.1627652701,
				"z": -3.7976583858,
				"element": "F" 
			},
			{
				"x": -0.4659518295,
				"y": 2.1936171679,
				"z": -1.5467332041,
				"element": "C" 
			},
			{
				"x": 0.1350021093,
				"y": 1.5189471675,
				"z": -0.4864871382,
				"element": "C" 
			},
			{
				"x": -1.5718447674,
				"y": -5.0025972347,
				"z": 1.8451469441,
				"element": "H" 
			},
			{
				"x": -0.9112439205,
				"y": -2.0708341683,
				"z": 0.0882241876,
				"element": "H" 
			},
			{
				"x": 0.2086741111,
				"y": -3.2547844676,
				"z": -0.5701040898,
				"element": "H" 
			},
			{
				"x": 1.5468106008,
				"y": -2.1322982516,
				"z": 1.5868292402,
				"element": "H" 
			},
			{
				"x": 0.6891310308,
				"y": -1.4846831894,
				"z": -2.0211662164,
				"element": "H" 
			},
			{
				"x": -0.7904505467,
				"y": 3.2246998544,
				"z": -1.4569318306,
				"element": "H" 
			},
			{
				"x": 0.3150619289,
				"y": 2.0193766374,
				"z": 0.4580103977,
				"element": "H" 
			}
		],
		 "valence_orbital": [ 
			{
				"type": "occ",
				"energy": -0.30798,
				"method": "rhf"
			},
			{
				"type": "occ",
				"energy": -0.27456,
				"method": "rhf"
			},
			{
				"type": "occ",
				"energy": -0.27068,
				"method": "rhf"
			},
			{
				"type": "occ",
				"energy": -0.26259,
				"method": "rhf"
			},
			{
				"type": "occ",
				"energy": -0.24823,
				"method": "rhf"
			},
			{
				"type": "unocc",
				"energy": -0.04515,
				"method": "rhf"
			},
			{
				"type": "unocc",
				"energy": -0.02288,
				"method": "rhf"
			},
			{
				"type": "unocc",
				"energy": -0.01449,
				"method": "rhf"
			},
			{
				"type": "unocc",
				"energy": 0.04618,
				"method": "rhf"
			},
			{
				"type": "unocc",
				"energy": 0.05717,
				"method": "rhf"
			}
		],
		"cosmo_sigma_profile": { 
			"-0.025": 0.0,
			"-0.024": 0.0,
			"-0.023": 0.0,
			"-0.022": 0.0,
			"-0.021": 0.0,
			"-0.02": 0.019402242826,
			"-0.019": 0.639411554956,
			"-0.018": 1.15278721883,
			"-0.017": 0.870631717269,
			"-0.016": 0.554658050605,
			"-0.015": 1.14882756265,
			"-0.014": 0.580522284867,
			"-0.013": 0.591668682406,
			"-0.012": 0.767659739013,
			"-0.011": 0.724921785343,
			"-0.01": 1.11846771005,
			"-0.009": 4.70131541158,
			"-0.008": 9.41455659755,
			"-0.007": 9.87827470526,
			"-0.006": 10.9568487243,
			"-0.005": 9.94461657179,
			"-0.004": 10.1338601291,
			"-0.003": 11.2682902092,
			"-0.002": 14.2165326594,
			"-0.001": 19.1611157146,
			"0.0": 16.8874860215,
			"0.001": 14.2614302234,
			"0.002": 14.2224642332,
			"0.003": 23.1229594441,
			"0.004": 15.3110689079,
			"0.005": 3.92218457471,
			"0.006": 3.3690624985,
			"0.007": 4.78529010945,
			"0.008": 3.4707341572,
			"0.009": 3.66553552331,
			"0.01": 5.62948872333,
			"0.011": 4.40023409336,
			"0.012": 2.4315357187,
			"0.013": 5.54879384067,
			"0.014": 1.7939170201,
			"0.015": 0.0,
			"0.016": 0.0,
			"0.017": 0.0,
			"0.018": 0.0,
			"0.019": 0.0,
			"0.02": 0.0,
			"0.021": 0.0,
			"0.022": 0.0,
			"0.023": 0.0,
			"0.024": 0.0,
			"0.025": 0.0
		}
	}
}
