{
	 "smiles": "FC1=CC=C(C=C1)C1=NNC(=S)N1N1C=CC=C1", 
	 "Tm": 507.15, 
	 "num_atms": 27, 
	 "gaussian": { 
		 "optdone": 1, 
		 "sigma_profile": "yes", 
		 "theory": "DFT", 
		 "functional": "B3LYP", 
		 "basiset": "6-31G**", 
		 "properties": { 
			 "R2extent": 6447.9384, 
			 "electric_dipole_moment_norm": 3.41497304675, 
			 "electric_quadrupole_moment_norm": 25.9085458542, 
			 "total_energy": -1179.66799137, 
			 "HOMO_LUMO_gap": 0.15738, 
			 "cosmo_polarized_energy": -16.4, 
			 "cosmo_cavitation_energy": 34.17, 
			 "cosmo_dispersion_energy": -24.12, 
			 "cosmo_repulsion_energy": 1.79, 
			 "cosmo_total_nonelectrostatic_energy": 11.83, 
			 "SMD_solvation_energy": 5.67 
		},
		"coords": [
			{
				"x": -3.8903110159,
				"y": 0.7094967855,
				"z": -2.9132928914,
				"element": "F" 
			},
			{
				"x": -3.2569781698,
				"y": 0.3045619464,
				"z": -1.7973580683,
				"element": "C" 
			},
			{
				"x": -2.6141249474,
				"y": 1.2473056238,
				"z": -1.0047901525,
				"element": "C" 
			},
			{
				"x": -1.9557100038,
				"y": 0.8285655785,
				"z": 0.149824921,
				"element": "C" 
			},
			{
				"x": -1.9411073797,
				"y": -0.5316480972,
				"z": 0.5046697797,
				"element": "C" 
			},
			{
				"x": -2.6029312443,
				"y": -1.4611246746,
				"z": -0.3209031247,
				"element": "C" 
			},
			{
				"x": -3.2642418051,
				"y": -1.048891654,
				"z": -1.4707186233,
				"element": "C" 
			},
			{
				"x": -1.2894775425,
				"y": -1.0483243092,
				"z": 1.7150620863,
				"element": "C" 
			},
			{
				"x": -1.5574267517,
				"y": -2.2205420194,
				"z": 2.2280158123,
				"element": "N" 
			},
			{
				"x": -0.7247647638,
				"y": -2.3375629434,
				"z": 3.3067020202,
				"element": "N" 
			},
			{
				"x": 0.0903329804,
				"y": -1.273002923,
				"z": 3.528986221,
				"element": "C" 
			},
			{
				"x": 1.2225107895,
				"y": -1.0377354273,
				"z": 4.7164438274,
				"element": "S" 
			},
			{
				"x": -0.2936717135,
				"y": -0.4262398475,
				"z": 2.4771533352,
				"element": "N" 
			},
			{
				"x": 0.2943708739,
				"y": 0.7838800697,
				"z": 2.2340653624,
				"element": "N" 
			},
			{
				"x": 1.3072433558,
				"y": 1.0013327021,
				"z": 1.3160385391,
				"element": "C" 
			},
			{
				"x": 1.5836995716,
				"y": 2.3455037277,
				"z": 1.336663378,
				"element": "C" 
			},
			{
				"x": 0.7219331763,
				"y": 2.9563285539,
				"z": 2.2998233323,
				"element": "C" 
			},
			{
				"x": -0.0652774418,
				"y": 1.9727377865,
				"z": 2.8466578205,
				"element": "C" 
			},
			{
				"x": -2.6357191249,
				"y": 2.2929662431,
				"z": -1.2907016815,
				"element": "H" 
			},
			{
				"x": -1.4725747267,
				"y": 1.5727089568,
				"z": 0.770412929,
				"element": "H" 
			},
			{
				"x": -2.5900994469,
				"y": -2.5100946437,
				"z": -0.0474820747,
				"element": "H" 
			},
			{
				"x": -3.7748377066,
				"y": -1.7551106212,
				"z": -2.1159854364,
				"element": "H" 
			},
			{
				"x": -0.7519553556,
				"y": -3.1636501392,
				"z": 3.8841333307,
				"element": "H" 
			},
			{
				"x": 1.7175149975,
				"y": 0.1812726247,
				"z": 0.7478459186,
				"element": "H" 
			},
			{
				"x": 2.3309288048,
				"y": 2.8413451147,
				"z": 0.7337812125,
				"element": "H" 
			},
			{
				"x": 0.6973329841,
				"y": 4.0020312786,
				"z": 2.5714848563,
				"element": "H" 
			},
			{
				"x": -0.8207583939,
				"y": 1.9853903076,
				"z": 3.6164673702,
				"element": "H" 
			}
		],
		 "valence_orbital": [ 
			{
				"type": "occ",
				"energy": -0.26252,
				"method": "rhf"
			},
			{
				"type": "occ",
				"energy": -0.25914,
				"method": "rhf"
			},
			{
				"type": "occ",
				"energy": -0.2313,
				"method": "rhf"
			},
			{
				"type": "occ",
				"energy": -0.21807,
				"method": "rhf"
			},
			{
				"type": "occ",
				"energy": -0.2113,
				"method": "rhf"
			},
			{
				"type": "unocc",
				"energy": -0.05392,
				"method": "rhf"
			},
			{
				"type": "unocc",
				"energy": -0.02832,
				"method": "rhf"
			},
			{
				"type": "unocc",
				"energy": -0.0098,
				"method": "rhf"
			},
			{
				"type": "unocc",
				"energy": 0.01315,
				"method": "rhf"
			},
			{
				"type": "unocc",
				"energy": 0.03818,
				"method": "rhf"
			}
		],
		"cosmo_sigma_profile": { 
			"-0.025": 0.0,
			"-0.024": 0.0,
			"-0.023": 0.0,
			"-0.022": 0.0,
			"-0.021": 0.0,
			"-0.02": 0.0,
			"-0.019": 0.0421256238262,
			"-0.018": 0.970589101981,
			"-0.017": 1.45366775129,
			"-0.016": 0.932126285706,
			"-0.015": 0.870326998017,
			"-0.014": 0.756013883563,
			"-0.013": 0.869128887682,
			"-0.012": 0.781977325869,
			"-0.011": 0.566261300031,
			"-0.01": 0.812032735299,
			"-0.009": 3.89322874778,
			"-0.008": 7.97196076059,
			"-0.007": 11.1427787979,
			"-0.006": 15.327802956,
			"-0.005": 14.5240788273,
			"-0.004": 13.2332940207,
			"-0.003": 17.0654816844,
			"-0.002": 15.6113856811,
			"-0.001": 17.5919108324,
			"0.0": 20.9443548311,
			"0.001": 19.526100292,
			"0.002": 24.0376699752,
			"0.003": 17.9695151981,
			"0.004": 19.3220079139,
			"0.005": 8.63364919729,
			"0.006": 7.10736414293,
			"0.007": 8.56490270141,
			"0.008": 6.43962040702,
			"0.009": 8.71511639654,
			"0.01": 9.23879886173,
			"0.011": 3.81212204827,
			"0.012": 0.221615856194,
			"0.013": 0.0,
			"0.014": 0.0,
			"0.015": 0.0,
			"0.016": 0.0,
			"0.017": 0.0,
			"0.018": 0.0,
			"0.019": 0.0,
			"0.02": 0.0,
			"0.021": 0.0,
			"0.022": 0.0,
			"0.023": 0.0,
			"0.024": 0.0,
			"0.025": 0.0
		}
	}
}
