{
	 "smiles": "OCC1=CC(=O)N2C=CSC2=N1", 
	 "Tm": 467.15, 
	 "num_atms": 18, 
	 "gaussian": { 
		 "optdone": 1, 
		 "sigma_profile": "yes", 
		 "theory": "DFT", 
		 "functional": "B3LYP", 
		 "basiset": "6-31G**", 
		 "properties": { 
			 "R2extent": 2517.8426, 
			 "electric_dipole_moment_norm": 3.23523311216, 
			 "electric_quadrupole_moment_norm": 13.6575998353, 
			 "total_energy": -928.483340724, 
			 "HOMO_LUMO_gap": 0.17303, 
			 "cosmo_polarized_energy": -14.14, 
			 "cosmo_cavitation_energy": 24.22, 
			 "cosmo_dispersion_energy": -18.83, 
			 "cosmo_repulsion_energy": 1.44, 
			 "cosmo_total_nonelectrostatic_energy": 6.83, 
			 "SMD_solvation_energy": 3.78 
		},
		"coords": [
			{
				"x": -1.4530101329,
				"y": -2.038453578,
				"z": 3.2445568188,
				"element": "O" 
			},
			{
				"x": -0.2948936042,
				"y": -1.9532842612,
				"z": 2.4400550064,
				"element": "C" 
			},
			{
				"x": -0.2591912009,
				"y": -0.7526760965,
				"z": 1.5156137586,
				"element": "C" 
			},
			{
				"x": -1.3578000189,
				"y": 0.050420246,
				"z": 1.3306292852,
				"element": "C" 
			},
			{
				"x": -1.3219374014,
				"y": 1.1878733318,
				"z": 0.4530734994,
				"element": "C" 
			},
			{
				"x": -2.2003028095,
				"y": 1.9949040157,
				"z": 0.1869844997,
				"element": "O" 
			},
			{
				"x": -0.0245182844,
				"y": 1.3303462894,
				"z": -0.1696315477,
				"element": "N" 
			},
			{
				"x": 0.2837556709,
				"y": 2.3470468998,
				"z": -1.0706908554,
				"element": "C" 
			},
			{
				"x": 1.5481343883,
				"y": 2.2806982999,
				"z": -1.5267795704,
				"element": "C" 
			},
			{
				"x": 2.4291568106,
				"y": 0.9227320132,
				"z": -0.8406570818,
				"element": "S" 
			},
			{
				"x": 1.0051648369,
				"y": 0.4549007625,
				"z": 0.0875722357,
				"element": "C" 
			},
			{
				"x": 0.9491876724,
				"y": -0.5638717385,
				"z": 0.8957871624,
				"element": "N" 
			},
			{
				"x": -1.4328066025,
				"y": -1.304825446,
				"z": 3.8731501314,
				"element": "H" 
			},
			{
				"x": -0.2747318355,
				"y": -2.8629063186,
				"z": 1.8282978403,
				"element": "H" 
			},
			{
				"x": 0.6337347156,
				"y": -1.9553944935,
				"z": 3.0305642931,
				"element": "H" 
			},
			{
				"x": -2.2908330128,
				"y": -0.1661777921,
				"z": 1.8337948499,
				"element": "H" 
			},
			{
				"x": -0.4928795243,
				"y": 3.0597830428,
				"z": -1.3058287971,
				"element": "H" 
			},
			{
				"x": 2.0262703326,
				"y": 2.9469848232,
				"z": -2.2291915285,
				"element": "H" 
			}
		],
		 "valence_orbital": [ 
			{
				"type": "occ",
				"energy": -0.29977,
				"method": "rhf"
			},
			{
				"type": "occ",
				"energy": -0.28403,
				"method": "rhf"
			},
			{
				"type": "occ",
				"energy": -0.27199,
				"method": "rhf"
			},
			{
				"type": "occ",
				"energy": -0.2667,
				"method": "rhf"
			},
			{
				"type": "occ",
				"energy": -0.22583,
				"method": "rhf"
			},
			{
				"type": "unocc",
				"energy": -0.0528,
				"method": "rhf"
			},
			{
				"type": "unocc",
				"energy": -0.01082,
				"method": "rhf"
			},
			{
				"type": "unocc",
				"energy": -0.00794,
				"method": "rhf"
			},
			{
				"type": "unocc",
				"energy": 0.0045,
				"method": "rhf"
			},
			{
				"type": "unocc",
				"energy": 0.07092,
				"method": "rhf"
			}
		],
		"cosmo_sigma_profile": { 
			"-0.025": 0.0,
			"-0.024": 0.0,
			"-0.023": 0.0,
			"-0.022": 0.0,
			"-0.021": 0.0,
			"-0.02": 0.0,
			"-0.019": 0.0,
			"-0.018": 0.0,
			"-0.017": 0.0219896018364,
			"-0.016": 0.747747518385,
			"-0.015": 1.06173828474,
			"-0.014": 0.793576092909,
			"-0.013": 1.41595261564,
			"-0.012": 0.480394608191,
			"-0.011": 2.10540576216,
			"-0.01": 3.81857167019,
			"-0.009": 4.2222998482,
			"-0.008": 4.05942888573,
			"-0.007": 5.138160087,
			"-0.006": 8.20022379643,
			"-0.005": 10.0989198747,
			"-0.004": 13.298003276,
			"-0.003": 13.5736994488,
			"-0.002": 13.7510494916,
			"-0.001": 14.6532702544,
			"0.0": 19.1029065322,
			"0.001": 16.9446316174,
			"0.002": 13.4356039756,
			"0.003": 6.30326208691,
			"0.004": 4.03544357174,
			"0.005": 3.85607365244,
			"0.006": 2.88913043632,
			"0.007": 4.1448823788,
			"0.008": 3.58643102089,
			"0.009": 2.74374393907,
			"0.01": 3.40349709582,
			"0.011": 3.68696142082,
			"0.012": 6.11894271171,
			"0.013": 6.71759222565,
			"0.014": 2.23039347365,
			"0.015": 0.0393486250063,
			"0.016": 0.0,
			"0.017": 0.0,
			"0.018": 0.0,
			"0.019": 0.0,
			"0.02": 0.0,
			"0.021": 0.0,
			"0.022": 0.0,
			"0.023": 0.0,
			"0.024": 0.0,
			"0.025": 0.0
		}
	}
}
