{
	 "smiles": "CCOC(=O)C1=C(N)SC(C)=C1C1=CC=CC=C1", 
	 "Tm": 365.65, 
	 "num_atms": 33, 
	 "gaussian": { 
		 "optdone": 1, 
		 "sigma_profile": "yes", 
		 "theory": "DFT", 
		 "functional": "B3LYP", 
		 "basiset": "6-31G**", 
		 "properties": { 
			 "R2extent": 5118.2734, 
			 "electric_dipole_moment_norm": 0.927166894362, 
			 "electric_quadrupole_moment_norm": 8.20515230937, 
			 "total_energy": -1145.93836672, 
			 "HOMO_LUMO_gap": 0.17657, 
			 "cosmo_polarized_energy": -10.59, 
			 "cosmo_cavitation_energy": 37.7, 
			 "cosmo_dispersion_energy": -26.27, 
			 "cosmo_repulsion_energy": 2.04, 
			 "cosmo_total_nonelectrostatic_energy": 13.48, 
			 "SMD_solvation_energy": 6.88 
		},
		"coords": [
			{
				"x": -0.4657965863,
				"y": 2.6452578781,
				"z": 2.8002462732,
				"element": "C" 
			},
			{
				"x": -1.3161735203,
				"y": 1.5396947324,
				"z": 2.1914993443,
				"element": "C" 
			},
			{
				"x": -0.5738744645,
				"y": 0.7818882974,
				"z": 1.2112914229,
				"element": "O" 
			},
			{
				"x": 0.1849780959,
				"y": -0.2356235423,
				"z": 1.6697074291,
				"element": "C" 
			},
			{
				"x": 0.2549770947,
				"y": -0.5087665459,
				"z": 2.8711225969,
				"element": "O" 
			},
			{
				"x": 0.9128637098,
				"y": -0.9512033557,
				"z": 0.6257702341,
				"element": "C" 
			},
			{
				"x": 1.8338354217,
				"y": -1.9303199076,
				"z": 1.0023641389,
				"element": "C" 
			},
			{
				"x": 2.0568750917,
				"y": -2.4182063061,
				"z": 2.2510655448,
				"element": "N" 
			},
			{
				"x": 2.7024483105,
				"y": -2.5533485401,
				"z": -0.3779327714,
				"element": "S" 
			},
			{
				"x": 1.823228134,
				"y": -1.4891957639,
				"z": -1.4848428395,
				"element": "C" 
			},
			{
				"x": 2.1095245969,
				"y": -1.5905709787,
				"z": -2.9530510032,
				"element": "C" 
			},
			{
				"x": 0.9145859837,
				"y": -0.7181279835,
				"z": -0.815642913,
				"element": "C" 
			},
			{
				"x": 0.0101218606,
				"y": 0.2204587892,
				"z": -1.539906627,
				"element": "C" 
			},
			{
				"x": -1.3658725951,
				"y": -0.0402848513,
				"z": -1.6353658458,
				"element": "C" 
			},
			{
				"x": -2.2043133779,
				"y": 0.8144265204,
				"z": -2.3483212085,
				"element": "C" 
			},
			{
				"x": -1.6826189794,
				"y": 1.9467447937,
				"z": -2.9801324168,
				"element": "C" 
			},
			{
				"x": -0.3167719111,
				"y": 2.2160216824,
				"z": -2.8929825712,
				"element": "C" 
			},
			{
				"x": 0.5227394369,
				"y": 1.3584842778,
				"z": -2.1782957285,
				"element": "C" 
			},
			{
				"x": 0.3612819446,
				"y": 2.2196432437,
				"z": 3.3734469002,
				"element": "H" 
			},
			{
				"x": -1.0753469871,
				"y": 3.2553165391,
				"z": 3.4756400841,
				"element": "H" 
			},
			{
				"x": -0.0599326659,
				"y": 3.296333141,
				"z": 2.0204108988,
				"element": "H" 
			},
			{
				"x": -1.6870085287,
				"y": 0.859790499,
				"z": 2.9621583775,
				"element": "H" 
			},
			{
				"x": -2.159401983,
				"y": 1.9490463033,
				"z": 1.6297430682,
				"element": "H" 
			},
			{
				"x": 1.5826588329,
				"y": -1.8923622185,
				"z": 2.9821202257,
				"element": "H" 
			},
			{
				"x": 2.9409869159,
				"y": -2.8559824727,
				"z": 2.4575249876,
				"element": "H" 
			},
			{
				"x": 3.1414687913,
				"y": -1.3045091458,
				"z": -3.1908709518,
				"element": "H" 
			},
			{
				"x": 1.9601603662,
				"y": -2.6110165066,
				"z": -3.3261242817,
				"element": "H" 
			},
			{
				"x": 1.4421658155,
				"y": -0.9279346103,
				"z": -3.5074109046,
				"element": "H" 
			},
			{
				"x": -1.7739953443,
				"y": -0.9199489386,
				"z": -1.146497373,
				"element": "H" 
			},
			{
				"x": -3.2664550876,
				"y": 0.5950574354,
				"z": -2.415094559,
				"element": "H" 
			},
			{
				"x": -2.3369044014,
				"y": 2.6120910915,
				"z": -3.5364046108,
				"element": "H" 
			},
			{
				"x": 0.0983112884,
				"y": 3.094613224,
				"z": -3.3792062511,
				"element": "H" 
			},
			{
				"x": 1.5848547415,
				"y": 1.5736332193,
				"z": -2.1042286694,
				"element": "H" 
			}
		],
		 "valence_orbital": [ 
			{
				"type": "occ",
				"energy": -0.26667,
				"method": "rhf"
			},
			{
				"type": "occ",
				"energy": -0.25299,
				"method": "rhf"
			},
			{
				"type": "occ",
				"energy": -0.24447,
				"method": "rhf"
			},
			{
				"type": "occ",
				"energy": -0.23506,
				"method": "rhf"
			},
			{
				"type": "occ",
				"energy": -0.19133,
				"method": "rhf"
			},
			{
				"type": "unocc",
				"energy": -0.01476,
				"method": "rhf"
			},
			{
				"type": "unocc",
				"energy": -0.0078,
				"method": "rhf"
			},
			{
				"type": "unocc",
				"energy": 0.0046,
				"method": "rhf"
			},
			{
				"type": "unocc",
				"energy": 0.01634,
				"method": "rhf"
			},
			{
				"type": "unocc",
				"energy": 0.02867,
				"method": "rhf"
			}
		],
		"cosmo_sigma_profile": { 
			"-0.025": 0.0,
			"-0.024": 0.0,
			"-0.023": 0.0,
			"-0.022": 0.0,
			"-0.021": 0.0,
			"-0.02": 0.0,
			"-0.019": 0.0,
			"-0.018": 0.0,
			"-0.017": 0.0,
			"-0.016": 0.0,
			"-0.015": 0.324689771255,
			"-0.014": 1.44147880327,
			"-0.013": 1.21474348979,
			"-0.012": 1.75781532731,
			"-0.011": 1.1408975158,
			"-0.01": 1.09578330154,
			"-0.009": 2.08646630806,
			"-0.008": 2.04800623033,
			"-0.007": 1.52461972934,
			"-0.006": 4.41508984276,
			"-0.005": 14.3880181128,
			"-0.004": 25.3553861227,
			"-0.003": 30.6691547173,
			"-0.002": 27.5700074992,
			"-0.001": 27.4309069416,
			"0.0": 28.8034964489,
			"0.001": 23.9117042164,
			"0.002": 20.951699455,
			"0.003": 21.4595370046,
			"0.004": 22.5397248272,
			"0.005": 14.6512628165,
			"0.006": 8.93180873229,
			"0.007": 4.76377602193,
			"0.008": 3.89059085163,
			"0.009": 3.30172336687,
			"0.01": 1.93866351571,
			"0.011": 1.75117104112,
			"0.012": 1.53930686871,
			"0.013": 0.527111064004,
			"0.014": 0.0,
			"0.015": 0.0,
			"0.016": 0.0,
			"0.017": 0.0,
			"0.018": 0.0,
			"0.019": 0.0,
			"0.02": 0.0,
			"0.021": 0.0,
			"0.022": 0.0,
			"0.023": 0.0,
			"0.024": 0.0,
			"0.025": 0.0
		}
	}
}
