{
	 "smiles": "CCC(CC)(CO)CO", 
	 "Tm": 334.65, 
	 "num_atms": 25, 
	 "gaussian": { 
		 "optdone": 1, 
		 "sigma_profile": "yes", 
		 "theory": "DFT", 
		 "functional": "B3LYP", 
		 "basiset": "6-31G**", 
		 "properties": { 
			 "R2extent": 1773.5137, 
			 "electric_dipole_moment_norm": 1.74578860691, 
			 "electric_quadrupole_moment_norm": 5.46998921023, 
			 "total_energy": -426.819818899, 
			 "HOMO_LUMO_gap": 0.32667, 
			 "cosmo_polarized_energy": -9.52, 
			 "cosmo_cavitation_energy": 24.85, 
			 "cosmo_dispersion_energy": -18.1, 
			 "cosmo_repulsion_energy": 1.5, 
			 "cosmo_total_nonelectrostatic_energy": 8.24, 
			 "SMD_solvation_energy": 4.51 
		},
		"coords": [
			{
				"x": -0.136774848,
				"y": -0.4496441421,
				"z": 1.2219108498,
				"element": "C" 
			},
			{
				"x": 0.731296509,
				"y": 0.1065463327,
				"z": 0.0869385029,
				"element": "C" 
			},
			{
				"x": 0.2592260082,
				"y": -0.1215131675,
				"z": -1.3761169904,
				"element": "C" 
			},
			{
				"x": -0.0106390127,
				"y": -1.6193101826,
				"z": -1.7144141188,
				"element": "C" 
			},
			{
				"x": -1.3877091576,
				"y": -2.2081141984,
				"z": -1.3654465413,
				"element": "C" 
			},
			{
				"x": -0.9896992317,
				"y": 0.7197481349,
				"z": -1.6903463057,
				"element": "C" 
			},
			{
				"x": -0.6743741835,
				"y": 2.1036084046,
				"z": -1.5471695037,
				"element": "O" 
			},
			{
				"x": 1.3909466242,
				"y": 0.3741932005,
				"z": -2.3038635048,
				"element": "C" 
			},
			{
				"x": 2.5279283855,
				"y": -0.4715971622,
				"z": -2.1430556668,
				"element": "O" 
			},
			{
				"x": -0.1602368646,
				"y": -1.543559999,
				"z": 1.2273885569,
				"element": "H" 
			},
			{
				"x": 0.2685459093,
				"y": -0.1320938598,
				"z": 2.1888973091,
				"element": "H" 
			},
			{
				"x": -1.1710450807,
				"y": -0.0908704451,
				"z": 1.1746850609,
				"element": "H" 
			},
			{
				"x": 0.8350751578,
				"y": 1.1888740332,
				"z": 0.2247096586,
				"element": "H" 
			},
			{
				"x": 1.737706065,
				"y": -0.3173766085,
				"z": 0.1693257552,
				"element": "H" 
			},
			{
				"x": 0.7748967492,
				"y": -2.2164744759,
				"z": -1.2401587132,
				"element": "H" 
			},
			{
				"x": 0.1398136032,
				"y": -1.7520856662,
				"z": -2.7938002848,
				"element": "H" 
			},
			{
				"x": -1.4092711563,
				"y": -3.2711303319,
				"z": -1.6290124478,
				"element": "H" 
			},
			{
				"x": -2.1959940498,
				"y": -1.7259312947,
				"z": -1.9255937733,
				"element": "H" 
			},
			{
				"x": -1.6304617583,
				"y": -2.1308777486,
				"z": -0.3032101242,
				"element": "H" 
			},
			{
				"x": -1.3234331732,
				"y": 0.5013757212,
				"z": -2.7191045351,
				"element": "H" 
			},
			{
				"x": -1.8098617647,
				"y": 0.4373673311,
				"z": -1.0156580419,
				"element": "H" 
			},
			{
				"x": -1.4839578395,
				"y": 2.6102611265,
				"z": -1.6816984352,
				"element": "H" 
			},
			{
				"x": 1.6315151651,
				"y": 1.4164945785,
				"z": -2.0598256545,
				"element": "H" 
			},
			{
				"x": 1.0336408462,
				"y": 0.3504711805,
				"z": -3.3476020377,
				"element": "H" 
			},
			{
				"x": 3.2686670978,
				"y": -0.0633607614,
				"z": -2.6060790143,
				"element": "H" 
			}
		],
		 "valence_orbital": [ 
			{
				"type": "occ",
				"energy": -0.30002,
				"method": "rhf"
			},
			{
				"type": "occ",
				"energy": -0.29571,
				"method": "rhf"
			},
			{
				"type": "occ",
				"energy": -0.29341,
				"method": "rhf"
			},
			{
				"type": "occ",
				"energy": -0.26388,
				"method": "rhf"
			},
			{
				"type": "occ",
				"energy": -0.25514,
				"method": "rhf"
			},
			{
				"type": "unocc",
				"energy": 0.07153,
				"method": "rhf"
			},
			{
				"type": "unocc",
				"energy": 0.08264,
				"method": "rhf"
			},
			{
				"type": "unocc",
				"energy": 0.09197,
				"method": "rhf"
			},
			{
				"type": "unocc",
				"energy": 0.12375,
				"method": "rhf"
			},
			{
				"type": "unocc",
				"energy": 0.14146,
				"method": "rhf"
			}
		],
		"cosmo_sigma_profile": { 
			"-0.025": 0.0,
			"-0.024": 0.0,
			"-0.023": 0.0,
			"-0.022": 0.0,
			"-0.021": 0.0,
			"-0.02": 0.0,
			"-0.019": 0.0,
			"-0.018": 0.0,
			"-0.017": 0.0,
			"-0.016": 0.443933928083,
			"-0.015": 1.97106553875,
			"-0.014": 2.26679131684,
			"-0.013": 1.80974258789,
			"-0.012": 1.4352561536,
			"-0.011": 1.57151480736,
			"-0.01": 1.40589807012,
			"-0.009": 1.10073789376,
			"-0.008": 2.03920840434,
			"-0.007": 1.85093718893,
			"-0.006": 2.07148683633,
			"-0.005": 2.1530838883,
			"-0.004": 2.6898972952,
			"-0.003": 12.7381621005,
			"-0.002": 28.879815534,
			"-0.001": 23.5951032378,
			"0.0": 25.5009865014,
			"0.001": 25.2714773346,
			"0.002": 14.3081616969,
			"0.003": 4.98152043277,
			"0.004": 3.21984509071,
			"0.005": 3.66803695438,
			"0.006": 3.05444411171,
			"0.007": 2.99708590592,
			"0.008": 3.2718902692,
			"0.009": 3.71538163797,
			"0.01": 2.68260402356,
			"0.011": 3.36231796062,
			"0.012": 3.16563888775,
			"0.013": 2.06487338485,
			"0.014": 0.503620887795,
			"0.015": 0.0,
			"0.016": 0.0,
			"0.017": 0.0,
			"0.018": 0.0,
			"0.019": 0.0,
			"0.02": 0.0,
			"0.021": 0.0,
			"0.022": 0.0,
			"0.023": 0.0,
			"0.024": 0.0,
			"0.025": 0.0
		}
	}
}
