{
	 "smiles": "NC(=O)NCC1=CC=C(N)C=C1", 
	 "Tm": 433.15, 
	 "num_atms": 23, 
	 "gaussian": { 
		 "optdone": 1, 
		 "sigma_profile": "yes", 
		 "theory": "DFT", 
		 "functional": "B3LYP", 
		 "basiset": "6-31G**", 
		 "properties": { 
			 "R2extent": 5067.6536, 
			 "electric_dipole_moment_norm": 5.79972743584, 
			 "electric_quadrupole_moment_norm": 6.83499742868, 
			 "total_energy": -550.987342013, 
			 "HOMO_LUMO_gap": 0.20181, 
			 "cosmo_polarized_energy": -19.62, 
			 "cosmo_cavitation_energy": 27.22, 
			 "cosmo_dispersion_energy": -19.94, 
			 "cosmo_repulsion_energy": 1.63, 
			 "cosmo_total_nonelectrostatic_energy": 8.91, 
			 "SMD_solvation_energy": 4.78 
		},
		"coords": [
			{
				"x": -0.0191827981,
				"y": -3.6777891249,
				"z": 3.2329209899,
				"element": "N" 
			},
			{
				"x": 0.0803204902,
				"y": -3.0861392845,
				"z": 1.9794981519,
				"element": "C" 
			},
			{
				"x": -0.2569542086,
				"y": -3.6643901771,
				"z": 0.9540510605,
				"element": "O" 
			},
			{
				"x": 0.5670482428,
				"y": -1.7920529661,
				"z": 1.9729784208,
				"element": "N" 
			},
			{
				"x": 0.5932471659,
				"y": -0.8985529173,
				"z": 3.1336959955,
				"element": "C" 
			},
			{
				"x": 1.1028974156,
				"y": 0.4713256981,
				"z": 2.7484398002,
				"element": "C" 
			},
			{
				"x": 2.4119121548,
				"y": 0.6457219421,
				"z": 2.2757234287,
				"element": "C" 
			},
			{
				"x": 2.8886534913,
				"y": 1.9003886838,
				"z": 1.9150456535,
				"element": "C" 
			},
			{
				"x": 2.0641406918,
				"y": 3.0367003728,
				"z": 2.0169733392,
				"element": "C" 
			},
			{
				"x": 2.5211869431,
				"y": 4.2873975274,
				"z": 1.6049022774,
				"element": "N" 
			},
			{
				"x": 0.7522919514,
				"y": 2.8669218405,
				"z": 2.4894704535,
				"element": "C" 
			},
			{
				"x": 0.2860653314,
				"y": 1.6028838714,
				"z": 2.8432046111,
				"element": "C" 
			},
			{
				"x": -0.158417981,
				"y": -4.6762865823,
				"z": 3.1739582684,
				"element": "H" 
			},
			{
				"x": 0.6111657844,
				"y": -3.3808699254,
				"z": 3.9641099611,
				"element": "H" 
			},
			{
				"x": 0.4329982463,
				"y": -1.3466789799,
				"z": 1.0753292928,
				"element": "H" 
			},
			{
				"x": 1.2580805326,
				"y": -1.3303801604,
				"z": 3.8961856293,
				"element": "H" 
			},
			{
				"x": -0.4003596097,
				"y": -0.8090335375,
				"z": 3.5959329251,
				"element": "H" 
			},
			{
				"x": 3.0662976173,
				"y": -0.2177330456,
				"z": 2.1863926265,
				"element": "H" 
			},
			{
				"x": 3.9064425412,
				"y": 2.0093109056,
				"z": 1.5481515331,
				"element": "H" 
			},
			{
				"x": 3.5244075533,
				"y": 4.4073072244,
				"z": 1.6094821108,
				"element": "H" 
			},
			{
				"x": 2.0403581686,
				"y": 5.0803769827,
				"z": 2.0059426048,
				"element": "H" 
			},
			{
				"x": 0.0953410091,
				"y": 3.7294447001,
				"z": 2.5704578955,
				"element": "H" 
			},
			{
				"x": -0.7344407337,
				"y": 1.4978269522,
				"z": 3.2037529705,
				"element": "H" 
			}
		],
		 "valence_orbital": [ 
			{
				"type": "occ",
				"energy": -0.26299,
				"method": "rhf"
			},
			{
				"type": "occ",
				"energy": -0.25348,
				"method": "rhf"
			},
			{
				"type": "occ",
				"energy": -0.24546,
				"method": "rhf"
			},
			{
				"type": "occ",
				"energy": -0.23492,
				"method": "rhf"
			},
			{
				"type": "occ",
				"energy": -0.2062,
				"method": "rhf"
			},
			{
				"type": "unocc",
				"energy": -0.00439,
				"method": "rhf"
			},
			{
				"type": "unocc",
				"energy": 0.00705,
				"method": "rhf"
			},
			{
				"type": "unocc",
				"energy": 0.06398,
				"method": "rhf"
			},
			{
				"type": "unocc",
				"energy": 0.0739,
				"method": "rhf"
			},
			{
				"type": "unocc",
				"energy": 0.08397,
				"method": "rhf"
			}
		],
		"cosmo_sigma_profile": { 
			"-0.025": 0.0,
			"-0.024": 0.0,
			"-0.023": 0.0,
			"-0.022": 0.0,
			"-0.021": 0.0,
			"-0.02": 0.0,
			"-0.019": 0.0,
			"-0.018": 0.0,
			"-0.017": 0.0,
			"-0.016": 0.0,
			"-0.015": 0.0,
			"-0.014": 0.154031389438,
			"-0.013": 2.14020401407,
			"-0.012": 5.27798154034,
			"-0.011": 5.69191206625,
			"-0.01": 6.14591318567,
			"-0.009": 6.77076623457,
			"-0.008": 5.49600788293,
			"-0.007": 4.95138939709,
			"-0.006": 8.25859477391,
			"-0.005": 13.8065306283,
			"-0.004": 14.6064912361,
			"-0.003": 14.0572136912,
			"-0.002": 11.2643118387,
			"-0.001": 11.9367834047,
			"0.0": 8.93645333107,
			"0.001": 10.1900825759,
			"0.002": 8.27938257138,
			"0.003": 9.68896831208,
			"0.004": 8.40414118297,
			"0.005": 10.2389145594,
			"0.006": 12.7355435994,
			"0.007": 8.48106643246,
			"0.008": 2.67389030097,
			"0.009": 2.06473546367,
			"0.01": 2.99437486011,
			"0.011": 2.17416392135,
			"0.012": 2.49183135409,
			"0.013": 2.26105106852,
			"0.014": 5.06581379091,
			"0.015": 6.34750915926,
			"0.016": 0.648048421193,
			"0.017": 0.0,
			"0.018": 0.0,
			"0.019": 0.0,
			"0.02": 0.0,
			"0.021": 0.0,
			"0.022": 0.0,
			"0.023": 0.0,
			"0.024": 0.0,
			"0.025": 0.0
		}
	}
}
