{
	 "smiles": "OCC1OC(OC2=CC3=C(C(O)=C2)C(=O)C(O)=C(O3)C2=CC(O)=C(O)C=C2)C(O)C(O)C1O", 
	 "Tm": 521.15, 
	 "num_atms": 53, 
	 "gaussian": { 
		 "optdone": 1, 
		 "sigma_profile": "yes", 
		 "theory": "DFT", 
		 "functional": "B3LYP", 
		 "basiset": "6-31G**", 
		 "properties": { 
			 "R2extent": 23650.3186, 
			 "electric_dipole_moment_norm": 6.54120681679, 
			 "electric_quadrupole_moment_norm": 32.1899270492, 
			 "total_energy": -1714.91047788, 
			 "HOMO_LUMO_gap": 0.13433, 
			 "cosmo_polarized_energy": -39.22, 
			 "cosmo_cavitation_energy": 56.09, 
			 "cosmo_dispersion_energy": -40.88, 
			 "cosmo_repulsion_energy": 3.03, 
			 "cosmo_total_nonelectrostatic_energy": 18.23, 
			 "SMD_solvation_energy": 11.03 
		},
		"coords": [
			{
				"x": -0.9575490942,
				"y": 2.7057955002,
				"z": 6.3242524469,
				"element": "O" 
			},
			{
				"x": -0.7997758928,
				"y": 3.3666613483,
				"z": 5.085921679,
				"element": "C" 
			},
			{
				"x": -2.0261734589,
				"y": 3.1849886694,
				"z": 4.1968032566,
				"element": "C" 
			},
			{
				"x": -2.1841781476,
				"y": 1.7565812156,
				"z": 4.0574056662,
				"element": "O" 
			},
			{
				"x": -2.8763790432,
				"y": 1.2640603383,
				"z": 2.9570289516,
				"element": "C" 
			},
			{
				"x": -1.9011519907,
				"y": 0.9492411609,
				"z": 1.9359901603,
				"element": "O" 
			},
			{
				"x": -2.0087393148,
				"y": -0.1840996072,
				"z": 1.1856016085,
				"element": "C" 
			},
			{
				"x": -0.8519502583,
				"y": -0.5776039043,
				"z": 0.5180359684,
				"element": "C" 
			},
			{
				"x": -0.8953948109,
				"y": -1.715925371,
				"z": -0.2858477543,
				"element": "C" 
			},
			{
				"x": -2.0624331623,
				"y": -2.4940770113,
				"z": -0.4469264548,
				"element": "C" 
			},
			{
				"x": -3.2233346637,
				"y": -2.0638826046,
				"z": 0.2488650805,
				"element": "C" 
			},
			{
				"x": -4.3525127754,
				"y": -2.7909791578,
				"z": 0.0992163402,
				"element": "O" 
			},
			{
				"x": -3.1986843081,
				"y": -0.9220011758,
				"z": 1.0490001172,
				"element": "C" 
			},
			{
				"x": -1.998608756,
				"y": -3.6657309844,
				"z": -1.3074842393,
				"element": "C" 
			},
			{
				"x": -2.9175620429,
				"y": -4.4599343101,
				"z": -1.5667434964,
				"element": "O" 
			},
			{
				"x": -0.696320792,
				"y": -3.930971895,
				"z": -1.9320119906,
				"element": "C" 
			},
			{
				"x": -0.7001366212,
				"y": -5.0325138954,
				"z": -2.7148291892,
				"element": "O" 
			},
			{
				"x": 0.3961399867,
				"y": -3.1389641441,
				"z": -1.728313593,
				"element": "C" 
			},
			{
				"x": 0.2683550513,
				"y": -2.0385981289,
				"z": -0.9037505788,
				"element": "O" 
			},
			{
				"x": 1.7482642605,
				"y": -3.2789525279,
				"z": -2.270096953,
				"element": "C" 
			},
			{
				"x": 2.7514688162,
				"y": -2.3588445528,
				"z": -1.8930657497,
				"element": "C" 
			},
			{
				"x": 4.0369141914,
				"y": -2.4757644431,
				"z": -2.3939617295,
				"element": "C" 
			},
			{
				"x": 5.0752067897,
				"y": -1.626623095,
				"z": -2.080575104,
				"element": "O" 
			},
			{
				"x": 4.3708963448,
				"y": -3.5093813063,
				"z": -3.2881875117,
				"element": "C" 
			},
			{
				"x": 5.6344107791,
				"y": -3.6187851834,
				"z": -3.7763071679,
				"element": "O" 
			},
			{
				"x": 3.3856820579,
				"y": -4.4190300574,
				"z": -3.6645141626,
				"element": "C" 
			},
			{
				"x": 2.0898517109,
				"y": -4.3109942118,
				"z": -3.1652739605,
				"element": "C" 
			},
			{
				"x": -3.87639595,
				"y": 2.2612892154,
				"z": 2.3688799093,
				"element": "C" 
			},
			{
				"x": -4.844142901,
				"y": 2.5239865047,
				"z": 3.3565450543,
				"element": "O" 
			},
			{
				"x": -3.1454742024,
				"y": 3.572565521,
				"z": 1.9438460765,
				"element": "C" 
			},
			{
				"x": -4.0772940074,
				"y": 4.6329491457,
				"z": 2.0956342928,
				"element": "O" 
			},
			{
				"x": -1.8861405266,
				"y": 3.8327706262,
				"z": 2.8200539556,
				"element": "C" 
			},
			{
				"x": -1.7199487972,
				"y": 5.243867457,
				"z": 3.0164873359,
				"element": "O" 
			},
			{
				"x": -1.2038655069,
				"y": 1.7935650943,
				"z": 6.1152059328,
				"element": "H" 
			},
			{
				"x": -0.6622539248,
				"y": 4.4298774084,
				"z": 5.297361999,
				"element": "H" 
			},
			{
				"x": 0.0890868724,
				"y": 3.0061591992,
				"z": 4.5402484443,
				"element": "H" 
			},
			{
				"x": -2.9114609641,
				"y": 3.5840322174,
				"z": 4.7052841036,
				"element": "H" 
			},
			{
				"x": -3.3699973511,
				"y": 0.3442554026,
				"z": 3.2830665849,
				"element": "H" 
			},
			{
				"x": 0.0663648037,
				"y": -0.0154562302,
				"z": 0.6284555618,
				"element": "H" 
			},
			{
				"x": -5.0580380175,
				"y": -2.3945296626,
				"z": 0.6283040309,
				"element": "H" 
			},
			{
				"x": -4.114555259,
				"y": -0.6053974182,
				"z": 1.5357500683,
				"element": "H" 
			},
			{
				"x": -1.6315631808,
				"y": -5.3466329633,
				"z": -2.6262404015,
				"element": "H" 
			},
			{
				"x": 2.5152032923,
				"y": -1.5541771496,
				"z": -1.2047590691,
				"element": "H" 
			},
			{
				"x": 4.7747325035,
				"y": -0.9621156622,
				"z": -1.4488596074,
				"element": "H" 
			},
			{
				"x": 6.1595632099,
				"y": -2.9007211254,
				"z": -3.3915283395,
				"element": "H" 
			},
			{
				"x": 3.6511578528,
				"y": -5.2133257109,
				"z": -4.3542072418,
				"element": "H" 
			},
			{
				"x": 1.339856761,
				"y": -5.0274467673,
				"z": -3.4688171119,
				"element": "H" 
			},
			{
				"x": -4.3365362574,
				"y": 1.8081634845,
				"z": 1.4771285049,
				"element": "H" 
			},
			{
				"x": -5.1132788955,
				"y": 3.446438288,
				"z": 3.1960602668,
				"element": "H" 
			},
			{
				"x": -2.8433410535,
				"y": 3.492362253,
				"z": 0.8918413194,
				"element": "H" 
			},
			{
				"x": -3.5670528652,
				"y": 5.3695429728,
				"z": 2.4785177272,
				"element": "H" 
			},
			{
				"x": -1.0090195383,
				"y": 3.4015930449,
				"z": 2.324872561,
				"element": "H" 
			},
			{
				"x": -1.1816109522,
				"y": 5.5953141895,
				"z": 2.2958364018,
				"element": "H" 
			}
		],
		 "valence_orbital": [ 
			{
				"type": "occ",
				"energy": -0.25524,
				"method": "rhf"
			},
			{
				"type": "occ",
				"energy": -0.24317,
				"method": "rhf"
			},
			{
				"type": "occ",
				"energy": -0.24056,
				"method": "rhf"
			},
			{
				"type": "occ",
				"energy": -0.22817,
				"method": "rhf"
			},
			{
				"type": "occ",
				"energy": -0.19365,
				"method": "rhf"
			},
			{
				"type": "unocc",
				"energy": -0.05932,
				"method": "rhf"
			},
			{
				"type": "unocc",
				"energy": -0.01951,
				"method": "rhf"
			},
			{
				"type": "unocc",
				"energy": -0.00328,
				"method": "rhf"
			},
			{
				"type": "unocc",
				"energy": 0.00724,
				"method": "rhf"
			},
			{
				"type": "unocc",
				"energy": 0.02182,
				"method": "rhf"
			}
		],
		"cosmo_sigma_profile": { 
			"-0.025": 0.0,
			"-0.024": 0.0,
			"-0.023": 0.0,
			"-0.022": 0.0,
			"-0.021": 0.0,
			"-0.02": 0.0,
			"-0.019": 0.44224056548,
			"-0.018": 2.60531224268,
			"-0.017": 4.12570244716,
			"-0.016": 3.27492357727,
			"-0.015": 3.46251451598,
			"-0.014": 3.73419885585,
			"-0.013": 2.91298424273,
			"-0.012": 4.17429122144,
			"-0.011": 6.48405771659,
			"-0.01": 7.01291344789,
			"-0.009": 6.9853356156,
			"-0.008": 7.69861593352,
			"-0.007": 11.173208535,
			"-0.006": 15.0742620978,
			"-0.005": 19.50897816,
			"-0.004": 23.9655113084,
			"-0.003": 23.5885699443,
			"-0.002": 23.3844558923,
			"-0.001": 23.3576114777,
			"0.0": 28.3851485939,
			"0.001": 36.413808426,
			"0.002": 35.4564318084,
			"0.003": 30.5020443061,
			"0.004": 24.5849424479,
			"0.005": 16.6730758571,
			"0.006": 13.1005008854,
			"0.007": 11.7115201905,
			"0.008": 8.7660547522,
			"0.009": 7.47271602024,
			"0.01": 8.10906257773,
			"0.011": 8.16869205808,
			"0.012": 6.62419189461,
			"0.013": 6.47949210964,
			"0.014": 4.98104562313,
			"0.015": 1.26304182339,
			"0.016": 1.83451864498,
			"0.017": 0.346773698139,
			"0.018": 0.0,
			"0.019": 0.0,
			"0.02": 0.0,
			"0.021": 0.0,
			"0.022": 0.0,
			"0.023": 0.0,
			"0.024": 0.0,
			"0.025": 0.0
		}
	}
}
