{
	 "smiles": "NC1=CC=C(NS(=O)(=O)C2=CC3=C(OCCO3)C=C2)C=C1", 
	 "Tm": 450.15, 
	 "num_atms": 35, 
	 "gaussian": { 
		 "optdone": 1, 
		 "sigma_profile": "yes", 
		 "theory": "DFT", 
		 "functional": "B3LYP", 
		 "basiset": "6-31G**", 
		 "properties": { 
			 "R2extent": 7918.0933, 
			 "electric_dipole_moment_norm": 6.2585385922, 
			 "electric_quadrupole_moment_norm": 29.7958689808, 
			 "total_energy": -1350.42523625, 
			 "HOMO_LUMO_gap": 0.17952, 
			 "cosmo_polarized_energy": -23.14, 
			 "cosmo_cavitation_energy": 40.51, 
			 "cosmo_dispersion_energy": -29.15, 
			 "cosmo_repulsion_energy": 2.21, 
			 "cosmo_total_nonelectrostatic_energy": 13.57, 
			 "SMD_solvation_energy": 6.2 
		},
		"coords": [
			{
				"x": -3.8487420812,
				"y": 3.1088473773,
				"z": -3.1633567009,
				"element": "N" 
			},
			{
				"x": -2.9809976967,
				"y": 2.8254887893,
				"z": -2.1102076329,
				"element": "C" 
			},
			{
				"x": -3.3403783509,
				"y": 3.126526037,
				"z": -0.7834024171,
				"element": "C" 
			},
			{
				"x": -2.4557195701,
				"y": 2.8890047446,
				"z": 0.2618255073,
				"element": "C" 
			},
			{
				"x": -1.1808671809,
				"y": 2.365599506,
				"z": 0.0122503188,
				"element": "C" 
			},
			{
				"x": -0.2293186622,
				"y": 2.1330718531,
				"z": 1.0626978269,
				"element": "N" 
			},
			{
				"x": -0.3766934503,
				"y": 0.7224709179,
				"z": 2.0215831206,
				"element": "S" 
			},
			{
				"x": -1.7794213123,
				"y": 0.3086391736,
				"z": 2.1443097676,
				"element": "O" 
			},
			{
				"x": 0.4290530068,
				"y": 1.0256436899,
				"z": 3.21046912,
				"element": "O" 
			},
			{
				"x": 0.458887049,
				"y": -0.5134729829,
				"z": 1.0375067327,
				"element": "C" 
			},
			{
				"x": 1.8541766461,
				"y": -0.5297935205,
				"z": 1.0194668519,
				"element": "C" 
			},
			{
				"x": 2.5117107435,
				"y": -1.4934587436,
				"z": 0.2613455374,
				"element": "C" 
			},
			{
				"x": 1.7654325498,
				"y": -2.4304301538,
				"z": -0.4829091844,
				"element": "C" 
			},
			{
				"x": 2.3711585509,
				"y": -3.3836638536,
				"z": -1.2545971862,
				"element": "O" 
			},
			{
				"x": 3.7635680083,
				"y": -3.1576775703,
				"z": -1.49078993,
				"element": "C" 
			},
			{
				"x": 4.4504759155,
				"y": -2.726362416,
				"z": -0.2061514725,
				"element": "C" 
			},
			{
				"x": 3.8834933689,
				"y": -1.5026336867,
				"z": 0.2632564546,
				"element": "O" 
			},
			{
				"x": 0.3702238873,
				"y": -2.4097258057,
				"z": -0.4345387111,
				"element": "C" 
			},
			{
				"x": -0.2931993386,
				"y": -1.4530765652,
				"z": 0.3292149941,
				"element": "C" 
			},
			{
				"x": -0.8176380587,
				"y": 2.0680011903,
				"z": -1.3050766263,
				"element": "C" 
			},
			{
				"x": -1.70471786,
				"y": 2.2877934294,
				"z": -2.3538370965,
				"element": "C" 
			},
			{
				"x": -3.6951324716,
				"y": 2.5759867055,
				"z": -4.0079977842,
				"element": "H" 
			},
			{
				"x": -4.8276250986,
				"y": 3.1586093106,
				"z": -2.9175805094,
				"element": "H" 
			},
			{
				"x": -4.3231243891,
				"y": 3.5423622098,
				"z": -0.5758650904,
				"element": "H" 
			},
			{
				"x": -2.756988007,
				"y": 3.10008746,
				"z": 1.2833513405,
				"element": "H" 
			},
			{
				"x": -0.1209795538,
				"y": 2.9013788883,
				"z": 1.7217519085,
				"element": "H" 
			},
			{
				"x": 2.4342709379,
				"y": 0.1793972083,
				"z": 1.5988001354,
				"element": "H" 
			},
			{
				"x": 3.8873837507,
				"y": -2.3841044055,
				"z": -2.2602479668,
				"element": "H" 
			},
			{
				"x": 4.1695184254,
				"y": -4.1008946075,
				"z": -1.8643156089,
				"element": "H" 
			},
			{
				"x": 4.3417578416,
				"y": -3.5066926106,
				"z": 0.5591719131,
				"element": "H" 
			},
			{
				"x": 5.513235146,
				"y": -2.5328386372,
				"z": -0.3699289352,
				"element": "H" 
			},
			{
				"x": -0.1750293556,
				"y": -3.1525910448,
				"z": -1.0072374705,
				"element": "H" 
			},
			{
				"x": -1.3748216094,
				"y": -1.4296805327,
				"z": 0.3849282266,
				"element": "H" 
			},
			{
				"x": 0.1725972055,
				"y": 1.668380511,
				"z": -1.4985436279,
				"element": "H" 
			},
			{
				"x": -1.4059489861,
				"y": 2.0571081346,
				"z": -3.3733458049,
				"element": "H" 
			}
		],
		 "valence_orbital": [ 
			{
				"type": "occ",
				"energy": -0.26784,
				"method": "rhf"
			},
			{
				"type": "occ",
				"energy": -0.25136,
				"method": "rhf"
			},
			{
				"type": "occ",
				"energy": -0.24659,
				"method": "rhf"
			},
			{
				"type": "occ",
				"energy": -0.22587,
				"method": "rhf"
			},
			{
				"type": "occ",
				"energy": -0.20468,
				"method": "rhf"
			},
			{
				"type": "unocc",
				"energy": -0.02516,
				"method": "rhf"
			},
			{
				"type": "unocc",
				"energy": -0.00622,
				"method": "rhf"
			},
			{
				"type": "unocc",
				"energy": -0.0011,
				"method": "rhf"
			},
			{
				"type": "unocc",
				"energy": 0.0051,
				"method": "rhf"
			},
			{
				"type": "unocc",
				"energy": 0.06565,
				"method": "rhf"
			}
		],
		"cosmo_sigma_profile": { 
			"-0.025": 0.0,
			"-0.024": 0.0,
			"-0.023": 0.0,
			"-0.022": 0.0,
			"-0.021": 0.0,
			"-0.02": 0.0,
			"-0.019": 0.0,
			"-0.018": 0.0,
			"-0.017": 0.0,
			"-0.016": 0.0,
			"-0.015": 0.102644464936,
			"-0.014": 0.775437716545,
			"-0.013": 1.63297168681,
			"-0.012": 4.44493380593,
			"-0.011": 3.5430312873,
			"-0.01": 3.37212799951,
			"-0.009": 4.93500922056,
			"-0.008": 6.01719468649,
			"-0.007": 17.2411593831,
			"-0.006": 25.1508305035,
			"-0.005": 22.7057300726,
			"-0.004": 18.0979880014,
			"-0.003": 15.3142662546,
			"-0.002": 12.8248857292,
			"-0.001": 15.05037071,
			"0.0": 16.1506128923,
			"0.001": 21.8800651693,
			"0.002": 23.94822859,
			"0.003": 19.1759540213,
			"0.004": 13.2666509514,
			"0.005": 16.633464142,
			"0.006": 12.522365333,
			"0.007": 7.59887018686,
			"0.008": 6.52536523729,
			"0.009": 8.38873081361,
			"0.01": 9.30176853324,
			"0.011": 9.67522227397,
			"0.012": 5.20151913149,
			"0.013": 0.532337061152,
			"0.014": 0.418828326043,
			"0.015": 0.0104083316943,
			"0.016": 0.0,
			"0.017": 0.0,
			"0.018": 0.0,
			"0.019": 0.0,
			"0.02": 0.0,
			"0.021": 0.0,
			"0.022": 0.0,
			"0.023": 0.0,
			"0.024": 0.0,
			"0.025": 0.0
		}
	}
}
