{
	 "smiles": "CC(=O)OCC(=O)[C@@]1(O)CCC2C3CCC4=CC(=O)CCC4(C)C3C(=O)CC12C", 
	 "Tm": 495.15, 
	 "num_atms": 59, 
	 "gaussian": { 
		 "optdone": 1, 
		 "sigma_profile": "yes", 
		 "theory": "DFT", 
		 "functional": "B3LYP", 
		 "basiset": "6-31G**", 
		 "properties": { 
			 "R2extent": 13499.007, 
			 "electric_dipole_moment_norm": 5.56976773394, 
			 "electric_quadrupole_moment_norm": 34.2557195462, 
			 "total_energy": -1345.85667654, 
			 "HOMO_LUMO_gap": 0.18424, 
			 "cosmo_polarized_energy": -25.54, 
			 "cosmo_cavitation_energy": 53.87, 
			 "cosmo_dispersion_energy": -36.27, 
			 "cosmo_repulsion_energy": 2.66, 
			 "cosmo_total_nonelectrostatic_energy": 20.26, 
			 "SMD_solvation_energy": 10.87 
		},
		"coords": [
			{
				"x": 5.5393215787,
				"y": -2.8576566816,
				"z": -3.4555712273,
				"element": "C" 
			},
			{
				"x": 4.139169534,
				"y": -2.9917731265,
				"z": -3.9974940605,
				"element": "C" 
			},
			{
				"x": 3.8281166534,
				"y": -3.1064838334,
				"z": -5.1574851876,
				"element": "O" 
			},
			{
				"x": 3.2190801091,
				"y": -2.969888079,
				"z": -2.9824357127,
				"element": "O" 
			},
			{
				"x": 1.8395127144,
				"y": -3.1135877255,
				"z": -3.3745901305,
				"element": "C" 
			},
			{
				"x": 0.8462011468,
				"y": -2.6309739154,
				"z": -2.306749337,
				"element": "C" 
			},
			{
				"x": -0.3205371566,
				"y": -2.8979468897,
				"z": -2.5170554508,
				"element": "O" 
			},
			{
				"x": 1.3579064681,
				"y": -1.8909690474,
				"z": -1.0582992687,
				"element": "C" 
			},
			{
				"x": 2.2661953428,
				"y": -2.7951188176,
				"z": -0.4124696185,
				"element": "O" 
			},
			{
				"x": 2.0581528102,
				"y": -0.54396425,
				"z": -1.3705125373,
				"element": "C" 
			},
			{
				"x": 1.9920105521,
				"y": 0.2673357284,
				"z": -0.048639137,
				"element": "C" 
			},
			{
				"x": 1.1221751613,
				"y": -0.5719271734,
				"z": 0.9280124923,
				"element": "C" 
			},
			{
				"x": 0.2922801026,
				"y": 0.1770963022,
				"z": 1.9928920089,
				"element": "C" 
			},
			{
				"x": 1.1707445555,
				"y": 1.1355881457,
				"z": 2.8451373271,
				"element": "C" 
			},
			{
				"x": 0.4243102826,
				"y": 2.418664194,
				"z": 3.2626851837,
				"element": "C" 
			},
			{
				"x": -0.0337909413,
				"y": 3.1068978933,
				"z": 2.0073841413,
				"element": "C" 
			},
			{
				"x": 0.5304765393,
				"y": 4.2583220665,
				"z": 1.585765635,
				"element": "C" 
			},
			{
				"x": 0.1995509352,
				"y": 4.9187774723,
				"z": 0.3116511549,
				"element": "C" 
			},
			{
				"x": 0.7390965009,
				"y": 5.962668683,
				"z": -0.0311568955,
				"element": "O" 
			},
			{
				"x": -0.8600997844,
				"y": 4.2446695854,
				"z": -0.5514696353,
				"element": "C" 
			},
			{
				"x": -0.9756178565,
				"y": 2.7361645191,
				"z": -0.2917349675,
				"element": "C" 
			},
			{
				"x": -1.1158868827,
				"y": 2.3874381019,
				"z": 1.2116348297,
				"element": "C" 
			},
			{
				"x": -2.5002596629,
				"y": 2.8803263799,
				"z": 1.7212242887,
				"element": "C" 
			},
			{
				"x": -1.0568149594,
				"y": 0.8246223039,
				"z": 1.5217355298,
				"element": "C" 
			},
			{
				"x": -1.7448796463,
				"y": 0.0206756928,
				"z": 0.4126600104,
				"element": "C" 
			},
			{
				"x": -2.9621425935,
				"y": 0.0015478599,
				"z": 0.3313768368,
				"element": "O" 
			},
			{
				"x": -0.8875770056,
				"y": -0.7093525854,
				"z": -0.608907591,
				"element": "C" 
			},
			{
				"x": 0.2839831189,
				"y": -1.5137909295,
				"z": 0.0128440439,
				"element": "C" 
			},
			{
				"x": -0.270266973,
				"y": -2.7427169851,
				"z": 0.7497349275,
				"element": "C" 
			},
			{
				"x": 6.2470248584,
				"y": -2.871385623,
				"z": -4.2834327488,
				"element": "H" 
			},
			{
				"x": 5.6423112576,
				"y": -1.9235598162,
				"z": -2.895129712,
				"element": "H" 
			},
			{
				"x": 5.7571104563,
				"y": -3.68059261,
				"z": -2.7681563635,
				"element": "H" 
			},
			{
				"x": 1.662036645,
				"y": -2.5468113834,
				"z": -4.2936104863,
				"element": "H" 
			},
			{
				"x": 1.6236646268,
				"y": -4.1637693715,
				"z": -3.5921756264,
				"element": "H" 
			},
			{
				"x": 3.020564379,
				"y": -2.9142894779,
				"z": -1.0079642044,
				"element": "H" 
			},
			{
				"x": 3.0817002757,
				"y": -0.7182322456,
				"z": -1.7098471616,
				"element": "H" 
			},
			{
				"x": 1.5454031854,
				"y": -0.0201960784,
				"z": -2.1852215861,
				"element": "H" 
			},
			{
				"x": 1.5730868624,
				"y": 1.2613393959,
				"z": -0.2251225196,
				"element": "H" 
			},
			{
				"x": 2.9923107741,
				"y": 0.4287040502,
				"z": 0.3614279193,
				"element": "H" 
			},
			{
				"x": 1.8109925556,
				"y": -1.2190070948,
				"z": 1.4823032845,
				"element": "H" 
			},
			{
				"x": -0.0449449644,
				"y": -0.6130701682,
				"z": 2.6749878743,
				"element": "H" 
			},
			{
				"x": 2.0548297918,
				"y": 1.4449763893,
				"z": 2.2784263432,
				"element": "H" 
			},
			{
				"x": 1.5404611601,
				"y": 0.6106930802,
				"z": 3.7329865206,
				"element": "H" 
			},
			{
				"x": 1.0831838341,
				"y": 3.0702739484,
				"z": 3.8443699179,
				"element": "H" 
			},
			{
				"x": -0.431515636,
				"y": 2.1643681559,
				"z": 3.9023458796,
				"element": "H" 
			},
			{
				"x": 1.2875199403,
				"y": 4.7583461376,
				"z": 2.1860386334,
				"element": "H" 
			},
			{
				"x": -0.625161311,
				"y": 4.4530860014,
				"z": -1.5995144821,
				"element": "H" 
			},
			{
				"x": -1.8134622703,
				"y": 4.7494687744,
				"z": -0.3480304697,
				"element": "H" 
			},
			{
				"x": -1.8289283676,
				"y": 2.3298105517,
				"z": -0.845123847,
				"element": "H" 
			},
			{
				"x": -0.0773121737,
				"y": 2.2545884803,
				"z": -0.6925916731,
				"element": "H" 
			},
			{
				"x": -2.6549034351,
				"y": 3.9396035948,
				"z": 1.5022848187,
				"element": "H" 
			},
			{
				"x": -3.2955819489,
				"y": 2.2945203334,
				"z": 1.2529125683,
				"element": "H" 
			},
			{
				"x": -2.5833882979,
				"y": 2.753789487,
				"z": 2.8056098741,
				"element": "H" 
			},
			{
				"x": -1.73389084,
				"y": 0.7070916194,
				"z": 2.3729273157,
				"element": "H" 
			},
			{
				"x": -1.5429484785,
				"y": -1.352017177,
				"z": -1.1952619788,
				"element": "H" 
			},
			{
				"x": -0.5031922442,
				"y": 0.0623492954,
				"z": -1.288844828,
				"element": "H" 
			},
			{
				"x": -0.8006313059,
				"y": -3.3988078905,
				"z": 0.0543177229,
				"element": "H" 
			},
			{
				"x": 0.5332809094,
				"y": -3.3127826159,
				"z": 1.2199959295,
				"element": "H" 
			},
			{
				"x": -0.9839308825,
				"y": -2.4455326311,
				"z": 1.5257254331,
				"element": "H" 
			}
		],
		 "valence_orbital": [ 
			{
				"type": "occ",
				"energy": -0.29747,
				"method": "rhf"
			},
			{
				"type": "occ",
				"energy": -0.25748,
				"method": "rhf"
			},
			{
				"type": "occ",
				"energy": -0.25606,
				"method": "rhf"
			},
			{
				"type": "occ",
				"energy": -0.2385,
				"method": "rhf"
			},
			{
				"type": "occ",
				"energy": -0.23277,
				"method": "rhf"
			},
			{
				"type": "unocc",
				"energy": -0.04853,
				"method": "rhf"
			},
			{
				"type": "unocc",
				"energy": -0.04275,
				"method": "rhf"
			},
			{
				"type": "unocc",
				"energy": -0.02243,
				"method": "rhf"
			},
			{
				"type": "unocc",
				"energy": -0.01627,
				"method": "rhf"
			},
			{
				"type": "unocc",
				"energy": 0.04823,
				"method": "rhf"
			}
		],
		"cosmo_sigma_profile": { 
			"-0.025": 0.0,
			"-0.024": 0.0,
			"-0.023": 0.0,
			"-0.022": 0.0,
			"-0.021": 0.0,
			"-0.02": 0.0,
			"-0.019": 0.0,
			"-0.018": 0.0,
			"-0.017": 0.0,
			"-0.016": 0.0,
			"-0.015": 3.62861258199e-05,
			"-0.014": 0.0351517845036,
			"-0.013": 0.0455133767078,
			"-0.012": 0.025945044509,
			"-0.011": 0.0135772678448,
			"-0.01": 0.0928424000055,
			"-0.009": 0.898473057814,
			"-0.008": 5.47643061158,
			"-0.007": 9.98087838774,
			"-0.006": 20.8788851942,
			"-0.005": 31.9724203576,
			"-0.004": 41.3687960985,
			"-0.003": 47.4727277744,
			"-0.002": 50.2381082319,
			"-0.001": 41.356381201,
			"0.0": 34.5464603539,
			"0.001": 22.4076592458,
			"0.002": 14.2175977717,
			"0.003": 9.90040473998,
			"0.004": 8.30839601613,
			"0.005": 8.33373631938,
			"0.006": 7.51814094658,
			"0.007": 6.69628275873,
			"0.008": 7.0916268947,
			"0.009": 8.46537845716,
			"0.01": 9.63112573787,
			"0.011": 12.692376724,
			"0.012": 8.92714062735,
			"0.013": 7.03672928735,
			"0.014": 2.89892049153,
			"0.015": 0.418534189499,
			"0.016": 0.0,
			"0.017": 0.0,
			"0.018": 0.0,
			"0.019": 0.0,
			"0.02": 0.0,
			"0.021": 0.0,
			"0.022": 0.0,
			"0.023": 0.0,
			"0.024": 0.0,
			"0.025": 0.0
		}
	}
}
