{
	 "smiles": "N#CCC1=CC=C(C=C1)C1=CC=CC=C1", 
	 "Tm": 368.15, 
	 "num_atms": 26, 
	 "gaussian": { 
		 "optdone": 1, 
		 "sigma_profile": "yes", 
		 "theory": "DFT", 
		 "functional": "B3LYP", 
		 "basiset": "6-31G**", 
		 "properties": { 
			 "R2extent": 5945.779, 
			 "electric_dipole_moment_norm": 3.96066025809, 
			 "electric_quadrupole_moment_norm": 30.5903254925, 
			 "total_energy": -594.862883027, 
			 "HOMO_LUMO_gap": 0.19396, 
			 "cosmo_polarized_energy": -11.45, 
			 "cosmo_cavitation_energy": 31.0, 
			 "cosmo_dispersion_energy": -22.03, 
			 "cosmo_repulsion_energy": 1.7, 
			 "cosmo_total_nonelectrostatic_energy": 10.67, 
			 "SMD_solvation_energy": 6.29 
		},
		"coords": [
			{
				"x": -0.2475841337,
				"y": 2.2340903506,
				"z": 6.5263461468,
				"element": "N" 
			},
			{
				"x": 0.3478851661,
				"y": 1.908943235,
				"z": 5.5848512279,
				"element": "C" 
			},
			{
				"x": 1.0943722562,
				"y": 1.4853150065,
				"z": 4.3968654366,
				"element": "C" 
			},
			{
				"x": 0.2477672574,
				"y": 1.3411680665,
				"z": 3.137375054,
				"element": "C" 
			},
			{
				"x": -1.1281231923,
				"y": 1.1004899615,
				"z": 3.187225169,
				"element": "C" 
			},
			{
				"x": -1.8602265925,
				"y": 0.9316223878,
				"z": 2.0133010084,
				"element": "C" 
			},
			{
				"x": -1.2438938386,
				"y": 0.9981256409,
				"z": 0.7535395994,
				"element": "C" 
			},
			{
				"x": 0.1394429233,
				"y": 1.2430502103,
				"z": 0.7148217261,
				"element": "C" 
			},
			{
				"x": 0.8716571943,
				"y": 1.4127744033,
				"z": 1.8865356093,
				"element": "C" 
			},
			{
				"x": -2.026725836,
				"y": 0.8207873014,
				"z": -0.4958787726,
				"element": "C" 
			},
			{
				"x": -3.3266481256,
				"y": 1.3418062396,
				"z": -0.6133676142,
				"element": "C" 
			},
			{
				"x": -4.0617722466,
				"y": 1.1741387055,
				"z": -1.7860151992,
				"element": "C" 
			},
			{
				"x": -3.5127043371,
				"y": 0.4829357305,
				"z": -2.8677166534,
				"element": "C" 
			},
			{
				"x": -2.2220384871,
				"y": -0.0396368176,
				"z": -2.7659321484,
				"element": "C" 
			},
			{
				"x": -1.4875443159,
				"y": 0.1270818376,
				"z": -1.5927495521,
				"element": "C" 
			},
			{
				"x": 1.9012578297,
				"y": 2.2076625958,
				"z": 4.2267992326,
				"element": "H" 
			},
			{
				"x": 1.5842969282,
				"y": 0.5313433984,
				"z": 4.6366741258,
				"element": "H" 
			},
			{
				"x": -1.632891644,
				"y": 1.0450618744,
				"z": 4.1473428801,
				"element": "H" 
			},
			{
				"x": -2.9237885418,
				"y": 0.7229515197,
				"z": 2.0777002345,
				"element": "H" 
			},
			{
				"x": 0.6403740959,
				"y": 1.332235076,
				"z": -0.2443783975,
				"element": "H" 
			},
			{
				"x": 1.9386584899,
				"y": 1.6140084519,
				"z": 1.825428654,
				"element": "H" 
			},
			{
				"x": -3.7528784425,
				"y": 1.904621759,
				"z": 0.2118857691,
				"element": "H" 
			},
			{
				"x": -5.0618877945,
				"y": 1.5921883396,
				"z": -1.8577688646,
				"element": "H" 
			},
			{
				"x": -4.0852585616,
				"y": 0.352741022,
				"z": -3.7813989501,
				"element": "H" 
			},
			{
				"x": -1.7886139044,
				"y": -0.5865807973,
				"z": -3.598523492,
				"element": "H" 
			},
			{
				"x": -0.4950321467,
				"y": -0.3070254992,
				"z": -1.5143622292,
				"element": "H" 
			}
		],
		 "valence_orbital": [ 
			{
				"type": "occ",
				"energy": -0.32604,
				"method": "rhf"
			},
			{
				"type": "occ",
				"energy": -0.27846,
				"method": "rhf"
			},
			{
				"type": "occ",
				"energy": -0.2615,
				"method": "rhf"
			},
			{
				"type": "occ",
				"energy": -0.25488,
				"method": "rhf"
			},
			{
				"type": "occ",
				"energy": -0.22999,
				"method": "rhf"
			},
			{
				"type": "unocc",
				"energy": -0.03603,
				"method": "rhf"
			},
			{
				"type": "unocc",
				"energy": -0.01543,
				"method": "rhf"
			},
			{
				"type": "unocc",
				"energy": -0.00593,
				"method": "rhf"
			},
			{
				"type": "unocc",
				"energy": 0.0195,
				"method": "rhf"
			},
			{
				"type": "unocc",
				"energy": 0.03071,
				"method": "rhf"
			}
		],
		"cosmo_sigma_profile": { 
			"-0.025": 0.0,
			"-0.024": 0.0,
			"-0.023": 0.0,
			"-0.022": 0.0,
			"-0.021": 0.0,
			"-0.02": 0.0,
			"-0.019": 0.0,
			"-0.018": 0.0,
			"-0.017": 0.0,
			"-0.016": 0.0,
			"-0.015": 0.0,
			"-0.014": 0.0,
			"-0.013": 0.0,
			"-0.012": 0.0,
			"-0.011": 0.0,
			"-0.01": 0.00179492226141,
			"-0.009": 3.44894366987,
			"-0.008": 6.39119297876,
			"-0.007": 6.47231928544,
			"-0.006": 14.1127577679,
			"-0.005": 22.7556582845,
			"-0.004": 22.5861269915,
			"-0.003": 18.3919521605,
			"-0.002": 14.7314912081,
			"-0.001": 14.4617866729,
			"0.0": 12.7224389308,
			"0.001": 13.7892827883,
			"0.002": 15.4492851989,
			"0.003": 18.4016146462,
			"0.004": 18.8774247538,
			"0.005": 18.8324928615,
			"0.006": 9.09828311468,
			"0.007": 2.15247964221,
			"0.008": 3.1151366806,
			"0.009": 3.40446724668,
			"0.01": 3.04744488471,
			"0.011": 2.88519284576,
			"0.012": 2.37802379928,
			"0.013": 1.80476200394,
			"0.014": 0.193300901773,
			"0.015": 0.0,
			"0.016": 0.0,
			"0.017": 0.0,
			"0.018": 0.0,
			"0.019": 0.0,
			"0.02": 0.0,
			"0.021": 0.0,
			"0.022": 0.0,
			"0.023": 0.0,
			"0.024": 0.0,
			"0.025": 0.0
		}
	}
}
