{
	 "smiles": "CC1=CC(=NN1C(F)F)C(O)=O", 
	 "Tm": 449.15, 
	 "num_atms": 18, 
	 "gaussian": { 
		 "optdone": 1, 
		 "sigma_profile": "yes", 
		 "theory": "DFT", 
		 "functional": "B3LYP", 
		 "basiset": "6-31G**", 
		 "properties": { 
			 "R2extent": 2419.4248, 
			 "electric_dipole_moment_norm": 5.72840919017, 
			 "electric_quadrupole_moment_norm": 19.6125028803, 
			 "total_energy": -691.865941029, 
			 "HOMO_LUMO_gap": 0.22542, 
			 "cosmo_polarized_energy": -17.98, 
			 "cosmo_cavitation_energy": 23.95, 
			 "cosmo_dispersion_energy": -17.21, 
			 "cosmo_repulsion_energy": 1.35, 
			 "cosmo_total_nonelectrostatic_energy": 8.09, 
			 "SMD_solvation_energy": 5.27 
		},
		"coords": [
			{
				"x": 0.4859288178,
				"y": 1.6177826,
				"z": -2.3814081628,
				"element": "C" 
			},
			{
				"x": 0.1112190347,
				"y": 0.4570295683,
				"z": -1.517358449,
				"element": "C" 
			},
			{
				"x": 0.2126715563,
				"y": -0.9037880472,
				"z": -1.7100218875,
				"element": "C" 
			},
			{
				"x": -0.3296873526,
				"y": -1.5007970229,
				"z": -0.5362304934,
				"element": "C" 
			},
			{
				"x": -0.7403728564,
				"y": -0.5800959338,
				"z": 0.3309030051,
				"element": "N" 
			},
			{
				"x": -0.46435097,
				"y": 0.5961181956,
				"z": -0.2747242464,
				"element": "N" 
			},
			{
				"x": -0.7754318337,
				"y": 1.8028203722,
				"z": 0.430742914,
				"element": "C" 
			},
			{
				"x": 0.3543695996,
				"y": 2.5306303309,
				"z": 0.6341745179,
				"element": "F" 
			},
			{
				"x": -1.6104231832,
				"y": 2.5745291821,
				"z": -0.3123517475,
				"element": "F" 
			},
			{
				"x": -0.4925584809,
				"y": -2.9472958718,
				"z": -0.2058125938,
				"element": "C" 
			},
			{
				"x": 0.3125415887,
				"y": -3.7869256304,
				"z": -0.9158737851,
				"element": "O" 
			},
			{
				"x": -1.2720643348,
				"y": -3.3794837852,
				"z": 0.6030787359,
				"element": "O" 
			},
			{
				"x": -0.3931852572,
				"y": 2.2118674314,
				"z": -2.6488463325,
				"element": "H" 
			},
			{
				"x": 0.9561239813,
				"y": 1.2600062574,
				"z": -3.2989622022,
				"element": "H" 
			},
			{
				"x": 1.1861364874,
				"y": 2.2825457174,
				"z": -1.8667287206,
				"element": "H" 
			},
			{
				"x": 0.5856014289,
				"y": -1.3875682451,
				"z": -2.6021812714,
				"element": "H" 
			},
			{
				"x": -1.2386771176,
				"y": 1.5381956483,
				"z": 1.3824662283,
				"element": "H" 
			},
			{
				"x": 0.9736588915,
				"y": -3.2803707671,
				"z": -1.4079655088,
				"element": "H" 
			}
		],
		 "valence_orbital": [ 
			{
				"type": "occ",
				"energy": -0.32233,
				"method": "rhf"
			},
			{
				"type": "occ",
				"energy": -0.31857,
				"method": "rhf"
			},
			{
				"type": "occ",
				"energy": -0.29031,
				"method": "rhf"
			},
			{
				"type": "occ",
				"energy": -0.27636,
				"method": "rhf"
			},
			{
				"type": "occ",
				"energy": -0.2688,
				"method": "rhf"
			},
			{
				"type": "unocc",
				"energy": -0.04338,
				"method": "rhf"
			},
			{
				"type": "unocc",
				"energy": -0.00344,
				"method": "rhf"
			},
			{
				"type": "unocc",
				"energy": 0.06006,
				"method": "rhf"
			},
			{
				"type": "unocc",
				"energy": 0.08306,
				"method": "rhf"
			},
			{
				"type": "unocc",
				"energy": 0.09538,
				"method": "rhf"
			}
		],
		"cosmo_sigma_profile": { 
			"-0.025": 0.0,
			"-0.024": 0.0,
			"-0.023": 0.0,
			"-0.022": 0.0,
			"-0.021": 0.0,
			"-0.02": 0.0,
			"-0.019": 0.288106210206,
			"-0.018": 0.895643715025,
			"-0.017": 1.31841333026,
			"-0.016": 0.665097550764,
			"-0.015": 0.757173608549,
			"-0.014": 0.59967908709,
			"-0.013": 1.81947650685,
			"-0.012": 1.73934323009,
			"-0.011": 3.71275493068,
			"-0.01": 2.79078633311,
			"-0.009": 3.07719239731,
			"-0.008": 2.89276494659,
			"-0.007": 4.32192833925,
			"-0.006": 7.64338045226,
			"-0.005": 9.10940062477,
			"-0.004": 10.6097021681,
			"-0.003": 12.6742805633,
			"-0.002": 17.3068818139,
			"-0.001": 14.1014159558,
			"0.0": 10.4972330195,
			"0.001": 9.81029680382,
			"0.002": 13.0158938715,
			"0.003": 17.3274735543,
			"0.004": 5.09414427042,
			"0.005": 2.64288681775,
			"0.006": 3.23947472427,
			"0.007": 3.55284123652,
			"0.008": 3.62295231942,
			"0.009": 4.07019674308,
			"0.01": 6.13165678793,
			"0.011": 6.93911324576,
			"0.012": 5.32124098053,
			"0.013": 3.45905487633,
			"0.014": 0.496865686922,
			"0.015": 0.0,
			"0.016": 0.0,
			"0.017": 0.0,
			"0.018": 0.0,
			"0.019": 0.0,
			"0.02": 0.0,
			"0.021": 0.0,
			"0.022": 0.0,
			"0.023": 0.0,
			"0.024": 0.0,
			"0.025": 0.0
		}
	}
}
