{
	 "smiles": "CCCC#CC", 
	 "Tm": 183.35, 
	 "num_atms": 16, 
	 "gaussian": { 
		 "optdone": 1, 
		 "sigma_profile": "yes", 
		 "theory": "DFT", 
		 "functional": "B3LYP", 
		 "basiset": "6-31G**", 
		 "properties": { 
			 "R2extent": 1276.6923, 
			 "electric_dipole_moment_norm": 0.132718875824, 
			 "electric_quadrupole_moment_norm": 3.56182603449, 
			 "total_energy": -234.615593384, 
			 "HOMO_LUMO_gap": 0.30333, 
			 "cosmo_polarized_energy": -3.22, 
			 "cosmo_cavitation_energy": 19.59, 
			 "cosmo_dispersion_energy": -14.2, 
			 "cosmo_repulsion_energy": 1.28, 
			 "cosmo_total_nonelectrostatic_energy": 6.67, 
			 "SMD_solvation_energy": 3.98 
		},
		"coords": [
			{
				"x": -1.0454866135,
				"y": 1.1667382406,
				"z": -1.235720685,
				"element": "C" 
			},
			{
				"x": -0.4329341767,
				"y": 0.0606755759,
				"z": -0.3728078555,
				"element": "C" 
			},
			{
				"x": 0.2367636955,
				"y": 0.6123400276,
				"z": 0.9037834338,
				"element": "C" 
			},
			{
				"x": 0.8311510369,
				"y": -0.4276042069,
				"z": 1.745800382,
				"element": "C" 
			},
			{
				"x": 1.3151416221,
				"y": -1.3028460615,
				"z": 2.4265117168,
				"element": "C" 
			},
			{
				"x": 1.9027469393,
				"y": -2.3521777866,
				"z": 3.2555843303,
				"element": "C" 
			},
			{
				"x": -0.2849084425,
				"y": 1.8870171609,
				"z": -1.5584571137,
				"element": "H" 
			},
			{
				"x": -1.8136821068,
				"y": 1.7217838844,
				"z": -0.6850508533,
				"element": "H" 
			},
			{
				"x": -1.5143853598,
				"y": 0.75393965,
				"z": -2.1345498183,
				"element": "H" 
			},
			{
				"x": -1.2043442868,
				"y": -0.6624312731,
				"z": -0.08336788,
				"element": "H" 
			},
			{
				"x": 0.3127311757,
				"y": -0.4983938023,
				"z": -0.949995031,
				"element": "H" 
			},
			{
				"x": -0.5063407409,
				"y": 1.1762117428,
				"z": 1.4853507949,
				"element": "H" 
			},
			{
				"x": 1.0093023387,
				"y": 1.3407433781,
				"z": 0.6191985199,
				"element": "H" 
			},
			{
				"x": 2.729317371,
				"y": -2.8539105626,
				"z": 2.7392872442,
				"element": "H" 
			},
			{
				"x": 1.1624938555,
				"y": -3.117619778,
				"z": 3.515565622,
				"element": "H" 
			},
			{
				"x": 2.2984336922,
				"y": -1.9441661895,
				"z": 4.1928671928,
				"element": "H" 
			}
		],
		 "valence_orbital": [ 
			{
				"type": "occ",
				"energy": -0.35864,
				"method": "rhf"
			},
			{
				"type": "occ",
				"energy": -0.34446,
				"method": "rhf"
			},
			{
				"type": "occ",
				"energy": -0.33316,
				"method": "rhf"
			},
			{
				"type": "occ",
				"energy": -0.23921,
				"method": "rhf"
			},
			{
				"type": "occ",
				"energy": -0.23877,
				"method": "rhf"
			},
			{
				"type": "unocc",
				"energy": 0.06456,
				"method": "rhf"
			},
			{
				"type": "unocc",
				"energy": 0.06967,
				"method": "rhf"
			},
			{
				"type": "unocc",
				"energy": 0.10136,
				"method": "rhf"
			},
			{
				"type": "unocc",
				"energy": 0.11756,
				"method": "rhf"
			},
			{
				"type": "unocc",
				"energy": 0.14251,
				"method": "rhf"
			}
		],
		"cosmo_sigma_profile": { 
			"-0.025": 0.0,
			"-0.024": 0.0,
			"-0.023": 0.0,
			"-0.022": 0.0,
			"-0.021": 0.0,
			"-0.02": 0.0,
			"-0.019": 0.0,
			"-0.018": 0.0,
			"-0.017": 0.0,
			"-0.016": 0.0,
			"-0.015": 0.0,
			"-0.014": 0.0,
			"-0.013": 0.0,
			"-0.012": 0.0,
			"-0.011": 0.0,
			"-0.01": 0.0,
			"-0.009": 0.0,
			"-0.008": 0.0,
			"-0.007": 0.0,
			"-0.006": 1.06382096649,
			"-0.005": 6.02812820461,
			"-0.004": 9.44882994481,
			"-0.003": 19.1931776619,
			"-0.002": 23.3516571973,
			"-0.001": 24.2980085356,
			"0.0": 18.252941835,
			"0.001": 15.3110561418,
			"0.002": 7.34117806907,
			"0.003": 5.31356748877,
			"0.004": 3.24116953971,
			"0.005": 3.51554644751,
			"0.006": 3.87514891275,
			"0.007": 5.65935063304,
			"0.008": 7.63552667908,
			"0.009": 0.204938778512,
			"0.01": 0.0,
			"0.011": 0.0,
			"0.012": 0.0,
			"0.013": 0.0,
			"0.014": 0.0,
			"0.015": 0.0,
			"0.016": 0.0,
			"0.017": 0.0,
			"0.018": 0.0,
			"0.019": 0.0,
			"0.02": 0.0,
			"0.021": 0.0,
			"0.022": 0.0,
			"0.023": 0.0,
			"0.024": 0.0,
			"0.025": 0.0
		}
	}
}
