{
	 "smiles": "OC(=O)C1(CCC1)C1=CC(=CC=C1)C(F)(F)F", 
	 "Tm": 366.15, 
	 "num_atms": 28, 
	 "gaussian": { 
		 "optdone": 1, 
		 "sigma_profile": "yes", 
		 "theory": "DFT", 
		 "functional": "B3LYP", 
		 "basiset": "6-31G**", 
		 "properties": { 
			 "R2extent": 4583.63, 
			 "electric_dipole_moment_norm": 3.28240103583, 
			 "electric_quadrupole_moment_norm": 23.5541044667, 
			 "total_energy": -913.86661256, 
			 "HOMO_LUMO_gap": 0.21126, 
			 "cosmo_polarized_energy": -12.44, 
			 "cosmo_cavitation_energy": 32.41, 
			 "cosmo_dispersion_energy": -22.3, 
			 "cosmo_repulsion_energy": 1.68, 
			 "cosmo_total_nonelectrostatic_energy": 11.78, 
			 "SMD_solvation_energy": 7.48 
		},
		"coords": [
			{
				"x": -1.2880087005,
				"y": 2.1642771591,
				"z": -1.3794105408,
				"element": "O" 
			},
			{
				"x": -0.3925298122,
				"y": 2.5057600417,
				"z": -0.4239660457,
				"element": "C" 
			},
			{
				"x": -0.1330100608,
				"y": 3.6678813193,
				"z": -0.2231323437,
				"element": "O" 
			},
			{
				"x": 0.3164068541,
				"y": 1.3489587875,
				"z": 0.3090957464,
				"element": "C" 
			},
			{
				"x": 0.9987474348,
				"y": 1.7799135607,
				"z": 1.6486969516,
				"element": "C" 
			},
			{
				"x": 2.311385857,
				"y": 1.1017033274,
				"z": 1.1904005389,
				"element": "C" 
			},
			{
				"x": 1.7678653424,
				"y": 1.1012384294,
				"z": -0.2575339707,
				"element": "C" 
			},
			{
				"x": -0.5730990099,
				"y": 0.1168193895,
				"z": 0.423859041,
				"element": "C" 
			},
			{
				"x": -0.4916293356,
				"y": -0.9522060849,
				"z": -0.4778099672,
				"element": "C" 
			},
			{
				"x": -1.3610769371,
				"y": -2.0448079471,
				"z": -0.3763746598,
				"element": "C" 
			},
			{
				"x": -2.331844117,
				"y": -2.0866370277,
				"z": 0.6227588141,
				"element": "C" 
			},
			{
				"x": -2.4316107528,
				"y": -1.0206825282,
				"z": 1.5188590977,
				"element": "C" 
			},
			{
				"x": -1.5657307694,
				"y": 0.0650913703,
				"z": 1.4196225867,
				"element": "C" 
			},
			{
				"x": -1.1968992218,
				"y": -3.2055615469,
				"z": -1.3225169489,
				"element": "C" 
			},
			{
				"x": -0.2632732922,
				"y": -4.0778916732,
				"z": -0.8789813997,
				"element": "F" 
			},
			{
				"x": -2.3456161569,
				"y": -3.8978272732,
				"z": -1.4747004847,
				"element": "F" 
			},
			{
				"x": -0.7997946024,
				"y": -2.7971759088,
				"z": -2.548909458,
				"element": "F" 
			},
			{
				"x": -1.4200997789,
				"y": 1.2030997658,
				"z": -1.3789043539,
				"element": "H" 
			},
			{
				"x": 1.0789123483,
				"y": 2.867824526,
				"z": 1.6808997766,
				"element": "H" 
			},
			{
				"x": 0.5410235618,
				"y": 1.4191170426,
				"z": 2.5728633402,
				"element": "H" 
			},
			{
				"x": 3.2432374347,
				"y": 1.6432785697,
				"z": 1.370304644,
				"element": "H" 
			},
			{
				"x": 2.4128351242,
				"y": 0.0872154305,
				"z": 1.5867884804,
				"element": "H" 
			},
			{
				"x": 1.930797864,
				"y": 0.2070471118,
				"z": -0.8630990806,
				"element": "H" 
			},
			{
				"x": 2.1078328422,
				"y": 1.9733287808,
				"z": -0.8211608701,
				"element": "H" 
			},
			{
				"x": 0.2490777206,
				"y": -0.948099262,
				"z": -1.2698543909,
				"element": "H" 
			},
			{
				"x": -3.0043442667,
				"y": -2.9343124753,
				"z": 0.6916494941,
				"element": "H" 
			},
			{
				"x": -3.1908939263,
				"y": -1.0367783363,
				"z": 2.2946817069,
				"element": "H" 
			},
			{
				"x": -1.6614616436,
				"y": 0.8897254514,
				"z": 2.1198742962,
				"element": "H" 
			}
		],
		 "valence_orbital": [ 
			{
				"type": "occ",
				"energy": -0.32107,
				"method": "rhf"
			},
			{
				"type": "occ",
				"energy": -0.3131,
				"method": "rhf"
			},
			{
				"type": "occ",
				"energy": -0.29252,
				"method": "rhf"
			},
			{
				"type": "occ",
				"energy": -0.28468,
				"method": "rhf"
			},
			{
				"type": "occ",
				"energy": -0.25906,
				"method": "rhf"
			},
			{
				"type": "unocc",
				"energy": -0.0478,
				"method": "rhf"
			},
			{
				"type": "unocc",
				"energy": -0.03709,
				"method": "rhf"
			},
			{
				"type": "unocc",
				"energy": 0.00558,
				"method": "rhf"
			},
			{
				"type": "unocc",
				"energy": 0.07397,
				"method": "rhf"
			},
			{
				"type": "unocc",
				"energy": 0.0811,
				"method": "rhf"
			}
		],
		"cosmo_sigma_profile": { 
			"-0.025": 0.0,
			"-0.024": 0.0,
			"-0.023": 0.0,
			"-0.022": 0.0,
			"-0.021": 0.0,
			"-0.02": 0.0,
			"-0.019": 0.0,
			"-0.018": 0.0,
			"-0.017": 0.0,
			"-0.016": 0.0,
			"-0.015": 0.00568151249781,
			"-0.014": 0.565406256406,
			"-0.013": 0.513727073542,
			"-0.012": 1.35070104117,
			"-0.011": 1.28063408607,
			"-0.01": 1.56885767269,
			"-0.009": 1.15411061789,
			"-0.008": 2.1443797611,
			"-0.007": 8.60746529808,
			"-0.006": 12.2664547453,
			"-0.005": 11.5381947915,
			"-0.004": 15.937530085,
			"-0.003": 18.1688080947,
			"-0.002": 22.6894797597,
			"-0.001": 23.8305815479,
			"0.0": 22.8533095585,
			"0.001": 20.0078741557,
			"0.002": 26.4788209736,
			"0.003": 33.3359591104,
			"0.004": 4.62949985136,
			"0.005": 2.44568311608,
			"0.006": 2.16834560848,
			"0.007": 2.25236534384,
			"0.008": 2.6331336011,
			"0.009": 3.45346774318,
			"0.01": 4.27746152246,
			"0.011": 5.05900391412,
			"0.012": 4.97482936485,
			"0.013": 1.5489375735,
			"0.014": 0.0413397434169,
			"0.015": 0.0,
			"0.016": 0.0,
			"0.017": 0.0,
			"0.018": 0.0,
			"0.019": 0.0,
			"0.02": 0.0,
			"0.021": 0.0,
			"0.022": 0.0,
			"0.023": 0.0,
			"0.024": 0.0,
			"0.025": 0.0
		}
	}
}
