{
	 "smiles": "OC(=O)C1=CC=CC(=C1)C1=CN=CO1", 
	 "Tm": 533.15, 
	 "num_atms": 21, 
	 "gaussian": { 
		 "optdone": 1, 
		 "sigma_profile": "yes", 
		 "theory": "DFT", 
		 "functional": "B3LYP", 
		 "basiset": "6-31G**", 
		 "properties": { 
			 "R2extent": 3356.4263, 
			 "electric_dipole_moment_norm": 5.25356630205, 
			 "electric_quadrupole_moment_norm": 10.5533779436, 
			 "total_energy": -665.697167043, 
			 "HOMO_LUMO_gap": 0.17148, 
			 "cosmo_polarized_energy": -17.27, 
			 "cosmo_cavitation_energy": 26.63, 
			 "cosmo_dispersion_energy": -19.62, 
			 "cosmo_repulsion_energy": 1.5, 
			 "cosmo_total_nonelectrostatic_energy": 8.52, 
			 "SMD_solvation_energy": 5.05 
		},
		"coords": [
			{
				"x": -1.1120392791,
				"y": -2.9555927297,
				"z": 2.8672509793,
				"element": "O" 
			},
			{
				"x": -1.1022664784,
				"y": -1.7192955913,
				"z": 2.3027413053,
				"element": "C" 
			},
			{
				"x": -1.7996637372,
				"y": -0.8422179904,
				"z": 2.7548508611,
				"element": "O" 
			},
			{
				"x": -0.1997659486,
				"y": -1.524479234,
				"z": 1.1184800137,
				"element": "C" 
			},
			{
				"x": 0.8980666012,
				"y": -2.3547752912,
				"z": 0.8469411639,
				"element": "C" 
			},
			{
				"x": 1.6982041829,
				"y": -2.1022498838,
				"z": -0.2670348437,
				"element": "C" 
			},
			{
				"x": 1.4129096334,
				"y": -1.0335474275,
				"z": -1.1127706824,
				"element": "C" 
			},
			{
				"x": 0.322946069,
				"y": -0.1846919067,
				"z": -0.8451567176,
				"element": "C" 
			},
			{
				"x": -0.4704605878,
				"y": -0.4389074771,
				"z": 0.2827581869,
				"element": "C" 
			},
			{
				"x": 0.0182147259,
				"y": 0.9419042678,
				"z": -1.7155827046,
				"element": "C" 
			},
			{
				"x": -0.9357838199,
				"y": 1.9213188643,
				"z": -1.7367393261,
				"element": "C" 
			},
			{
				"x": -0.7355534314,
				"y": 2.7496008193,
				"z": -2.8292808027,
				"element": "N" 
			},
			{
				"x": 0.3070962517,
				"y": 2.2528852909,
				"z": -3.4155425138,
				"element": "C" 
			},
			{
				"x": 0.8284058592,
				"y": 1.1571881093,
				"z": -2.8097435488,
				"element": "O" 
			},
			{
				"x": -0.6382930531,
				"y": -3.584453155,
				"z": 2.3055733297,
				"element": "H" 
			},
			{
				"x": 1.1631601247,
				"y": -3.1697570101,
				"z": 1.5157135994,
				"element": "H" 
			},
			{
				"x": 2.5537951463,
				"y": -2.7377660107,
				"z": -0.4736861609,
				"element": "H" 
			},
			{
				"x": 2.0351812409,
				"y": -0.8438183113,
				"z": -1.9802674318,
				"element": "H" 
			},
			{
				"x": -1.3108128096,
				"y": 0.1983729842,
				"z": 0.535292446,
				"element": "H" 
			},
			{
				"x": -1.7483883177,
				"y": 2.0877951546,
				"z": -1.0450982909,
				"element": "H" 
			},
			{
				"x": 0.8040476276,
				"y": 2.5965865286,
				"z": -4.310698862,
				"element": "H" 
			}
		],
		 "valence_orbital": [ 
			{
				"type": "occ",
				"energy": -0.30928,
				"method": "rhf"
			},
			{
				"type": "occ",
				"energy": -0.29846,
				"method": "rhf"
			},
			{
				"type": "occ",
				"energy": -0.2838,
				"method": "rhf"
			},
			{
				"type": "occ",
				"energy": -0.27206,
				"method": "rhf"
			},
			{
				"type": "occ",
				"energy": -0.23504,
				"method": "rhf"
			},
			{
				"type": "unocc",
				"energy": -0.06356,
				"method": "rhf"
			},
			{
				"type": "unocc",
				"energy": -0.04774,
				"method": "rhf"
			},
			{
				"type": "unocc",
				"energy": 0.00442,
				"method": "rhf"
			},
			{
				"type": "unocc",
				"energy": 0.03542,
				"method": "rhf"
			},
			{
				"type": "unocc",
				"energy": 0.05609,
				"method": "rhf"
			}
		],
		"cosmo_sigma_profile": { 
			"-0.025": 0.0,
			"-0.024": 0.0,
			"-0.023": 0.0,
			"-0.022": 0.0,
			"-0.021": 0.0,
			"-0.02": 0.0,
			"-0.019": 0.545400737929,
			"-0.018": 0.775622942668,
			"-0.017": 0.949982749343,
			"-0.016": 0.893530027096,
			"-0.015": 0.869937451722,
			"-0.014": 0.617947386056,
			"-0.013": 1.26083581067,
			"-0.012": 1.76471924978,
			"-0.011": 2.81420512684,
			"-0.01": 2.61925970464,
			"-0.009": 4.62489914088,
			"-0.008": 5.88647767549,
			"-0.007": 9.30474933627,
			"-0.006": 9.76576562195,
			"-0.005": 9.17294229384,
			"-0.004": 8.92785873345,
			"-0.003": 8.73872400712,
			"-0.002": 11.8277346463,
			"-0.001": 15.685052264,
			"0.0": 18.4089602304,
			"0.001": 17.8377215181,
			"0.002": 19.976319087,
			"0.003": 12.6830645866,
			"0.004": 6.39543053387,
			"0.005": 3.50588804802,
			"0.006": 4.23379837945,
			"0.007": 4.03606043787,
			"0.008": 3.70452512754,
			"0.009": 4.128151993,
			"0.01": 7.10030385595,
			"0.011": 6.02894532596,
			"0.012": 5.22061935905,
			"0.013": 2.67653550987,
			"0.014": 0.81680418134,
			"0.015": 1.09953107505,
			"0.016": 0.301683846881,
			"0.017": 0.0,
			"0.018": 0.0,
			"0.019": 0.0,
			"0.02": 0.0,
			"0.021": 0.0,
			"0.022": 0.0,
			"0.023": 0.0,
			"0.024": 0.0,
			"0.025": 0.0
		}
	}
}
