{
	 "smiles": "CC1=C(C)C(C(O)=O)=C(S1)N1C=CC=C1", 
	 "Tm": 430.15, 
	 "num_atms": 26, 
	 "gaussian": { 
		 "optdone": 1, 
		 "sigma_profile": "yes", 
		 "theory": "DFT", 
		 "functional": "B3LYP", 
		 "basiset": "6-31G**", 
		 "properties": { 
			 "R2extent": 4495.4362, 
			 "electric_dipole_moment_norm": 5.27468975581, 
			 "electric_quadrupole_moment_norm": 15.3358847958, 
			 "total_energy": -1029.16454192, 
			 "HOMO_LUMO_gap": 0.16775, 
			 "cosmo_polarized_energy": -16.44, 
			 "cosmo_cavitation_energy": 31.14, 
			 "cosmo_dispersion_energy": -22.62, 
			 "cosmo_repulsion_energy": 1.72, 
			 "cosmo_total_nonelectrostatic_energy": 10.24, 
			 "SMD_solvation_energy": 6.65 
		},
		"coords": [
			{
				"x": 3.4182446804,
				"y": -1.2066133985,
				"z": -2.8016410583,
				"element": "C" 
			},
			{
				"x": 2.5465452322,
				"y": -0.3337874456,
				"z": -1.9422517101,
				"element": "C" 
			},
			{
				"x": 1.4913673761,
				"y": 0.4597781077,
				"z": -2.314970413,
				"element": "C" 
			},
			{
				"x": 1.0357346677,
				"y": 0.5929317775,
				"z": -3.7498368314,
				"element": "C" 
			},
			{
				"x": 0.8307786234,
				"y": 1.0831171507,
				"z": -1.1847529075,
				"element": "C" 
			},
			{
				"x": -0.4125156722,
				"y": 1.9104960727,
				"z": -1.2750701505,
				"element": "C" 
			},
			{
				"x": -0.455899054,
				"y": 2.7947973052,
				"z": -2.3150662392,
				"element": "O" 
			},
			{
				"x": -1.3479325546,
				"y": 1.8345699834,
				"z": -0.5178953501,
				"element": "O" 
			},
			{
				"x": 1.408648451,
				"y": 0.7404721629,
				"z": 0.020811762,
				"element": "C" 
			},
			{
				"x": 2.7858647606,
				"y": -0.30518185,
				"z": -0.2130602742,
				"element": "S" 
			},
			{
				"x": 1.0964873157,
				"y": 1.1693048034,
				"z": 1.3112329383,
				"element": "N" 
			},
			{
				"x": 0.799085223,
				"y": 2.4698634003,
				"z": 1.6983122282,
				"element": "C" 
			},
			{
				"x": 0.6249995351,
				"y": 2.4814073518,
				"z": 3.0577391736,
				"element": "C" 
			},
			{
				"x": 0.8217420321,
				"y": 1.1469897096,
				"z": 3.5308895056,
				"element": "C" 
			},
			{
				"x": 1.1133402511,
				"y": 0.3624000401,
				"z": 2.4451721906,
				"element": "C" 
			},
			{
				"x": 2.9224888424,
				"y": -2.1522226138,
				"z": -3.0544654094,
				"element": "H" 
			},
			{
				"x": 3.6746584647,
				"y": -0.7035801169,
				"z": -3.7385959502,
				"element": "H" 
			},
			{
				"x": 4.3567030331,
				"y": -1.4546112776,
				"z": -2.2982548707,
				"element": "H" 
			},
			{
				"x": 1.3741899394,
				"y": -0.2572119138,
				"z": -4.3460050587,
				"element": "H" 
			},
			{
				"x": -0.0535560176,
				"y": 0.6386709128,
				"z": -3.8273265992,
				"element": "H" 
			},
			{
				"x": 1.4366330118,
				"y": 1.4939922083,
				"z": -4.2358674435,
				"element": "H" 
			},
			{
				"x": 0.402330975,
				"y": 2.8231898252,
				"z": -2.7601810942,
				"element": "H" 
			},
			{
				"x": 0.7530307713,
				"y": 3.2623953623,
				"z": 0.9688931499,
				"element": "H" 
			},
			{
				"x": 0.3832030896,
				"y": 3.3509294052,
				"z": 3.6523552213,
				"element": "H" 
			},
			{
				"x": 0.7443687203,
				"y": 0.8035842537,
				"z": 4.5528038017,
				"element": "H" 
			},
			{
				"x": 1.2937583024,
				"y": -0.6979812164,
				"z": 2.3563313892,
				"element": "H" 
			}
		],
		 "valence_orbital": [ 
			{
				"type": "occ",
				"energy": -0.27938,
				"method": "rhf"
			},
			{
				"type": "occ",
				"energy": -0.26435,
				"method": "rhf"
			},
			{
				"type": "occ",
				"energy": -0.26064,
				"method": "rhf"
			},
			{
				"type": "occ",
				"energy": -0.21695,
				"method": "rhf"
			},
			{
				"type": "occ",
				"energy": -0.2128,
				"method": "rhf"
			},
			{
				"type": "unocc",
				"energy": -0.04505,
				"method": "rhf"
			},
			{
				"type": "unocc",
				"energy": -0.00483,
				"method": "rhf"
			},
			{
				"type": "unocc",
				"energy": 0.00697,
				"method": "rhf"
			},
			{
				"type": "unocc",
				"energy": 0.03837,
				"method": "rhf"
			},
			{
				"type": "unocc",
				"energy": 0.05279,
				"method": "rhf"
			}
		],
		"cosmo_sigma_profile": { 
			"-0.025": 0.0,
			"-0.024": 0.0,
			"-0.023": 0.0,
			"-0.022": 0.0,
			"-0.021": 0.0,
			"-0.02": 0.0,
			"-0.019": 0.0,
			"-0.018": 0.125425922429,
			"-0.017": 1.08733543003,
			"-0.016": 0.537488267274,
			"-0.015": 1.16004337999,
			"-0.014": 0.779704342257,
			"-0.013": 0.766324515551,
			"-0.012": 1.25314899249,
			"-0.011": 0.911728267939,
			"-0.01": 0.569691533424,
			"-0.009": 0.834131506439,
			"-0.008": 3.82866040224,
			"-0.007": 5.19891516654,
			"-0.006": 10.1115369642,
			"-0.005": 19.1734344009,
			"-0.004": 17.8521744912,
			"-0.003": 21.7475502728,
			"-0.002": 23.20001486,
			"-0.001": 22.0520218335,
			"0.0": 17.8749946865,
			"0.001": 15.2257963012,
			"0.002": 16.8579605126,
			"0.003": 12.789243239,
			"0.004": 7.42948026313,
			"0.005": 6.21769111056,
			"0.006": 7.36125455586,
			"0.007": 8.38915682057,
			"0.008": 4.97021758937,
			"0.009": 3.75234995563,
			"0.01": 5.66060222883,
			"0.011": 5.93919844746,
			"0.012": 5.20449817193,
			"0.013": 1.51614335255,
			"0.014": 0.000185339699555,
			"0.015": 0.0,
			"0.016": 0.0,
			"0.017": 0.0,
			"0.018": 0.0,
			"0.019": 0.0,
			"0.02": 0.0,
			"0.021": 0.0,
			"0.022": 0.0,
			"0.023": 0.0,
			"0.024": 0.0,
			"0.025": 0.0
		}
	}
}
