{
	 "smiles": "COC1=CC=C(C=C1)C(=O)C1=NOC2C1C(=O)N(C2=O)C1=CC(Cl)=CC=C1Cl", 
	 "Tm": 420.15, 
	 "num_atms": 40, 
	 "gaussian": { 
		 "optdone": 1, 
		 "sigma_profile": "yes", 
		 "theory": "DFT", 
		 "functional": "B3LYP", 
		 "basiset": "6-31G**", 
		 "properties": { 
			 "R2extent": 16503.0893, 
			 "electric_dipole_moment_norm": 2.422374038, 
			 "electric_quadrupole_moment_norm": 37.9363075942, 
			 "total_energy": -2137.19630032, 
			 "HOMO_LUMO_gap": 0.15426, 
			 "cosmo_polarized_energy": -22.0, 
			 "cosmo_cavitation_energy": 50.49, 
			 "cosmo_dispersion_energy": -34.79, 
			 "cosmo_repulsion_energy": 2.63, 
			 "cosmo_total_nonelectrostatic_energy": 18.34, 
			 "SMD_solvation_energy": 10.51 
		},
		"coords": [
			{
				"x": 6.6732800786,
				"y": 2.1249944183,
				"z": -0.2255771826,
				"element": "C" 
			},
			{
				"x": 6.1732602905,
				"y": 1.4620350323,
				"z": -1.38080019,
				"element": "O" 
			},
			{
				"x": 4.9619577074,
				"y": 0.8575856793,
				"z": -1.3119225027,
				"element": "C" 
			},
			{
				"x": 4.5329911373,
				"y": 0.2197856889,
				"z": -2.4917094438,
				"element": "C" 
			},
			{
				"x": 3.3114882539,
				"y": -0.4235656395,
				"z": -2.5230080672,
				"element": "C" 
			},
			{
				"x": 2.4796277497,
				"y": -0.4595543511,
				"z": -1.3830394207,
				"element": "C" 
			},
			{
				"x": 2.9154097931,
				"y": 0.1840054689,
				"z": -0.2148949599,
				"element": "C" 
			},
			{
				"x": 4.145213237,
				"y": 0.8372676134,
				"z": -0.1722958372,
				"element": "C" 
			},
			{
				"x": 1.1824123736,
				"y": -1.1561995676,
				"z": -1.5183390481,
				"element": "C" 
			},
			{
				"x": 0.7947013117,
				"y": -1.6237363514,
				"z": -2.5860239509,
				"element": "O" 
			},
			{
				"x": 0.2534964232,
				"y": -1.356537749,
				"z": -0.354789168,
				"element": "C" 
			},
			{
				"x": 0.6134205879,
				"y": -1.4318449119,
				"z": 0.8764639058,
				"element": "N" 
			},
			{
				"x": -0.4507213753,
				"y": -1.8112471807,
				"z": 1.6781911093,
				"element": "O" 
			},
			{
				"x": -1.6311737073,
				"y": -2.0492695381,
				"z": 0.8497292213,
				"element": "C" 
			},
			{
				"x": -1.2143917082,
				"y": -1.6625141853,
				"z": -0.5658336231,
				"element": "C" 
			},
			{
				"x": -2.0282306167,
				"y": -0.3994360622,
				"z": -0.9005553748,
				"element": "C" 
			},
			{
				"x": -1.9651515589,
				"y": 0.2768848653,
				"z": -1.8948697413,
				"element": "O" 
			},
			{
				"x": -2.8768608777,
				"y": -0.1484166898,
				"z": 0.1978697163,
				"element": "N" 
			},
			{
				"x": -2.7337169066,
				"y": -1.0630835108,
				"z": 1.2536006968,
				"element": "C" 
			},
			{
				"x": -3.3592506994,
				"y": -1.05336272,
				"z": 2.2850297118,
				"element": "O" 
			},
			{
				"x": -3.7991172587,
				"y": 0.9377916085,
				"z": 0.2331836514,
				"element": "C" 
			},
			{
				"x": -3.5190950623,
				"y": 2.039265298,
				"z": 1.0441476693,
				"element": "C" 
			},
			{
				"x": -4.4133023081,
				"y": 3.1048813779,
				"z": 1.0900076586,
				"element": "C" 
			},
			{
				"x": -4.0560101087,
				"y": 4.4836862805,
				"z": 2.1094449678,
				"element": "Cl" 
			},
			{
				"x": -5.5837483063,
				"y": 3.09028653,
				"z": 0.3317613266,
				"element": "C" 
			},
			{
				"x": -5.8637665246,
				"y": 1.9885529988,
				"z": -0.4732041397,
				"element": "C" 
			},
			{
				"x": -4.980721537,
				"y": 0.9101218191,
				"z": -0.5200223389,
				"element": "C" 
			},
			{
				"x": -5.3773591362,
				"y": -0.4751333387,
				"z": -1.5072543011,
				"element": "Cl" 
			},
			{
				"x": 6.0161519646,
				"y": 2.9477825481,
				"z": 0.081013385,
				"element": "H" 
			},
			{
				"x": 7.6461416512,
				"y": 2.5273487219,
				"z": -0.5100443963,
				"element": "H" 
			},
			{
				"x": 6.7992590067,
				"y": 1.4298128163,
				"z": 0.6132272988,
				"element": "H" 
			},
			{
				"x": 5.1812488506,
				"y": 0.2511736933,
				"z": -3.3610152817,
				"element": "H" 
			},
			{
				"x": 2.966530914,
				"y": -0.9150876633,
				"z": -3.4260589301,
				"element": "H" 
			},
			{
				"x": 2.2986556329,
				"y": 0.1694608912,
				"z": 0.674904363,
				"element": "H" 
			},
			{
				"x": 4.4544645129,
				"y": 1.3247179653,
				"z": 0.7441779995,
				"element": "H" 
			},
			{
				"x": -1.9555891763,
				"y": -3.0793772046,
				"z": 1.0114149662,
				"element": "H" 
			},
			{
				"x": -1.3610798421,
				"y": -2.4047083522,
				"z": -1.3530697308,
				"element": "H" 
			},
			{
				"x": -2.6080602152,
				"y": 2.0544175413,
				"z": 1.6302290194,
				"element": "H" 
			},
			{
				"x": -6.2703872671,
				"y": 3.9281194888,
				"z": 0.3719480659,
				"element": "H" 
			},
			{
				"x": -6.7722772844,
				"y": 1.959696671,
				"z": -1.0637171039,
				"element": "H" 
			}
		],
		 "valence_orbital": [ 
			{
				"type": "occ",
				"energy": -0.26825,
				"method": "rhf"
			},
			{
				"type": "occ",
				"energy": -0.26635,
				"method": "rhf"
			},
			{
				"type": "occ",
				"energy": -0.26335,
				"method": "rhf"
			},
			{
				"type": "occ",
				"energy": -0.25647,
				"method": "rhf"
			},
			{
				"type": "occ",
				"energy": -0.23637,
				"method": "rhf"
			},
			{
				"type": "unocc",
				"energy": -0.08211,
				"method": "rhf"
			},
			{
				"type": "unocc",
				"energy": -0.04889,
				"method": "rhf"
			},
			{
				"type": "unocc",
				"energy": -0.04482,
				"method": "rhf"
			},
			{
				"type": "unocc",
				"energy": -0.03711,
				"method": "rhf"
			},
			{
				"type": "unocc",
				"energy": -0.02444,
				"method": "rhf"
			}
		],
		"cosmo_sigma_profile": { 
			"-0.025": 0.0,
			"-0.024": 0.0,
			"-0.023": 0.0,
			"-0.022": 0.0,
			"-0.021": 0.0,
			"-0.02": 0.0,
			"-0.019": 0.0,
			"-0.018": 0.0,
			"-0.017": 0.0,
			"-0.016": 0.0,
			"-0.015": 0.0,
			"-0.014": 0.0,
			"-0.013": 0.0282618834581,
			"-0.012": 0.347898827679,
			"-0.011": 1.64037370782,
			"-0.01": 9.62073617541,
			"-0.009": 9.90777543254,
			"-0.008": 10.5804912341,
			"-0.007": 12.6537129038,
			"-0.006": 22.1135983148,
			"-0.005": 23.3571721411,
			"-0.004": 22.7990493658,
			"-0.003": 24.0494565885,
			"-0.002": 20.4453097092,
			"-0.001": 26.7198905289,
			"0.0": 32.5193760181,
			"0.001": 32.4803691686,
			"0.002": 32.1318735924,
			"0.003": 34.770068599,
			"0.004": 23.0574390902,
			"0.005": 10.3687337197,
			"0.006": 9.15546464576,
			"0.007": 10.3076199251,
			"0.008": 11.8601958857,
			"0.009": 10.6738842371,
			"0.01": 12.7016986207,
			"0.011": 6.24471718666,
			"0.012": 0.315607387566,
			"0.013": 0.0,
			"0.014": 0.0,
			"0.015": 0.0,
			"0.016": 0.0,
			"0.017": 0.0,
			"0.018": 0.0,
			"0.019": 0.0,
			"0.02": 0.0,
			"0.021": 0.0,
			"0.022": 0.0,
			"0.023": 0.0,
			"0.024": 0.0,
			"0.025": 0.0
		}
	}
}
