{
	 "smiles": "NC(=NO)C1=C(Cl)C=C(O)C=C1", 
	 "Tm": 427.15, 
	 "num_atms": 19, 
	 "gaussian": { 
		 "optdone": 1, 
		 "sigma_profile": "yes", 
		 "theory": "DFT", 
		 "functional": "B3LYP", 
		 "basiset": "6-31G**", 
		 "properties": { 
			 "R2extent": 2683.012, 
			 "electric_dipole_moment_norm": 1.82628630286, 
			 "electric_quadrupole_moment_norm": 9.44796289102, 
			 "total_energy": -991.048950529, 
			 "HOMO_LUMO_gap": 0.18387, 
			 "cosmo_polarized_energy": -15.46, 
			 "cosmo_cavitation_energy": 25.26, 
			 "cosmo_dispersion_energy": -19.06, 
			 "cosmo_repulsion_energy": 1.54, 
			 "cosmo_total_nonelectrostatic_energy": 7.74, 
			 "SMD_solvation_energy": 4.38 
		},
		"coords": [
			{
				"x": -0.8140827502,
				"y": 1.686982351,
				"z": -1.9679725156,
				"element": "N" 
			},
			{
				"x": 0.2620366637,
				"y": 0.8440955361,
				"z": -1.8156495573,
				"element": "C" 
			},
			{
				"x": 1.2355564471,
				"y": 0.7557258406,
				"z": -2.6660042211,
				"element": "N" 
			},
			{
				"x": 0.9694010746,
				"y": 1.6162738836,
				"z": -3.771833127,
				"element": "O" 
			},
			{
				"x": 0.428610554,
				"y": 0.0591468998,
				"z": -0.5621818377,
				"element": "C" 
			},
			{
				"x": -0.5654226545,
				"y": -0.71405949,
				"z": 0.0551856914,
				"element": "C" 
			},
			{
				"x": -2.1819594752,
				"y": -0.8805856204,
				"z": -0.6429043343,
				"element": "Cl" 
			},
			{
				"x": -0.3301542832,
				"y": -1.4285540381,
				"z": 1.2295426458,
				"element": "C" 
			},
			{
				"x": 0.9360859993,
				"y": -1.3921406175,
				"z": 1.8182580975,
				"element": "C" 
			},
			{
				"x": 1.2303346619,
				"y": -2.0637022257,
				"z": 2.9657867493,
				"element": "O" 
			},
			{
				"x": 1.95701335,
				"y": -0.6440998328,
				"z": 1.2210768695,
				"element": "C" 
			},
			{
				"x": 1.693541488,
				"y": 0.0632613991,
				"z": 0.0583925979,
				"element": "C" 
			},
			{
				"x": -0.9535553147,
				"y": 2.0057868822,
				"z": -2.9172954684,
				"element": "H" 
			},
			{
				"x": -1.6527016784,
				"y": 1.4617226177,
				"z": -1.456721809,
				"element": "H" 
			},
			{
				"x": 1.6874895693,
				"y": 1.3886252241,
				"z": -4.374256627,
				"element": "H" 
			},
			{
				"x": -1.1307860706,
				"y": -2.0169804471,
				"z": 1.667131213,
				"element": "H" 
			},
			{
				"x": 0.4470454651,
				"y": -2.5376593395,
				"z": 3.2743640908,
				"element": "H" 
			},
			{
				"x": 2.937246796,
				"y": -0.6231248256,
				"z": 1.6842366154,
				"element": "H" 
			},
			{
				"x": 2.4761001577,
				"y": 0.6477858026,
				"z": -0.4110550732,
				"element": "H" 
			}
		],
		 "valence_orbital": [ 
			{
				"type": "occ",
				"energy": -0.30721,
				"method": "rhf"
			},
			{
				"type": "occ",
				"energy": -0.27205,
				"method": "rhf"
			},
			{
				"type": "occ",
				"energy": -0.25727,
				"method": "rhf"
			},
			{
				"type": "occ",
				"energy": -0.24013,
				"method": "rhf"
			},
			{
				"type": "occ",
				"energy": -0.20519,
				"method": "rhf"
			},
			{
				"type": "unocc",
				"energy": -0.02132,
				"method": "rhf"
			},
			{
				"type": "unocc",
				"energy": -0.01588,
				"method": "rhf"
			},
			{
				"type": "unocc",
				"energy": 0.01778,
				"method": "rhf"
			},
			{
				"type": "unocc",
				"energy": 0.0543,
				"method": "rhf"
			},
			{
				"type": "unocc",
				"energy": 0.06152,
				"method": "rhf"
			}
		],
		"cosmo_sigma_profile": { 
			"-0.025": 0.0,
			"-0.024": 0.0,
			"-0.023": 0.0,
			"-0.022": 0.0,
			"-0.021": 0.0,
			"-0.02": 0.0,
			"-0.019": 0.142024172087,
			"-0.018": 1.42835096862,
			"-0.017": 1.39124880969,
			"-0.016": 2.25587181995,
			"-0.015": 1.78242387658,
			"-0.014": 2.23494712134,
			"-0.013": 1.46327477795,
			"-0.012": 2.17532552678,
			"-0.011": 2.94806211297,
			"-0.01": 3.76656277943,
			"-0.009": 3.44139997962,
			"-0.008": 4.20119733065,
			"-0.007": 5.72702621439,
			"-0.006": 7.18562546281,
			"-0.005": 6.7813929335,
			"-0.004": 6.31632087376,
			"-0.003": 7.00787639344,
			"-0.002": 9.15059896452,
			"-0.001": 9.4016665639,
			"0.0": 11.8921383736,
			"0.001": 15.380623993,
			"0.002": 22.7773343306,
			"0.003": 19.22904947,
			"0.004": 14.1382559587,
			"0.005": 5.06635604205,
			"0.006": 4.90022102876,
			"0.007": 7.52433000374,
			"0.008": 6.95062566464,
			"0.009": 4.64025056709,
			"0.01": 5.04860283958,
			"0.011": 3.48226879627,
			"0.012": 1.73337161115,
			"0.013": 0.632123348278,
			"0.014": 0.888101028826,
			"0.015": 0.173287606676,
			"0.016": 0.0,
			"0.017": 0.0,
			"0.018": 0.0,
			"0.019": 0.0,
			"0.02": 0.0,
			"0.021": 0.0,
			"0.022": 0.0,
			"0.023": 0.0,
			"0.024": 0.0,
			"0.025": 0.0
		}
	}
}
