{
	 "smiles": "OC(=O)C1=NN(C2=C1CCCC2)C1=C(Cl)C=CC=C1", 
	 "Tm": 506.15, 
	 "num_atms": 32, 
	 "gaussian": { 
		 "optdone": 1, 
		 "sigma_profile": "yes", 
		 "theory": "DFT", 
		 "functional": "B3LYP", 
		 "basiset": "6-31G**", 
		 "properties": { 
			 "R2extent": 6291.6502, 
			 "electric_dipole_moment_norm": 7.36686365423, 
			 "electric_quadrupole_moment_norm": 29.6195631632, 
			 "total_energy": -1261.46381287, 
			 "HOMO_LUMO_gap": 0.20448, 
			 "cosmo_polarized_energy": -19.9, 
			 "cosmo_cavitation_energy": 36.74, 
			 "cosmo_dispersion_energy": -26.07, 
			 "cosmo_repulsion_energy": 2.01, 
			 "cosmo_total_nonelectrostatic_energy": 12.68, 
			 "SMD_solvation_energy": 5.5 
		},
		"coords": [
			{
				"x": 0.0429080785,
				"y": 2.790979461,
				"z": 4.3182596496,
				"element": "O" 
			},
			{
				"x": 0.9867993365,
				"y": 2.3270273632,
				"z": 3.445411466,
				"element": "C" 
			},
			{
				"x": 2.1221793685,
				"y": 2.7238412737,
				"z": 3.5135687022,
				"element": "O" 
			},
			{
				"x": 0.4838407901,
				"y": 1.3534457403,
				"z": 2.4359090502,
				"element": "C" 
			},
			{
				"x": 1.3614276431,
				"y": 0.5594956398,
				"z": 1.8172838177,
				"element": "N" 
			},
			{
				"x": 0.6183234743,
				"y": -0.1799355533,
				"z": 0.9647761844,
				"element": "N" 
			},
			{
				"x": -0.7150217753,
				"y": 0.146571452,
				"z": 1.0076067879,
				"element": "C" 
			},
			{
				"x": -0.8432531641,
				"y": 1.1364925802,
				"z": 1.9616048667,
				"element": "C" 
			},
			{
				"x": -2.1631506709,
				"y": 1.7955898347,
				"z": 2.2689033294,
				"element": "C" 
			},
			{
				"x": -3.164943929,
				"y": 1.5383262776,
				"z": 1.1242384016,
				"element": "C" 
			},
			{
				"x": -3.1710242273,
				"y": 0.0633213483,
				"z": 0.6899963184,
				"element": "C" 
			},
			{
				"x": -1.8051807592,
				"y": -0.3829373406,
				"z": 0.1270474739,
				"element": "C" 
			},
			{
				"x": 1.2779450122,
				"y": -1.1019881387,
				"z": 0.1010846838,
				"element": "C" 
			},
			{
				"x": 1.0877778864,
				"y": -2.4878209054,
				"z": 0.2000805024,
				"element": "C" 
			},
			{
				"x": 0.0491822688,
				"y": -3.1712603504,
				"z": 1.4357518373,
				"element": "Cl" 
			},
			{
				"x": 1.7562150704,
				"y": -3.3545282663,
				"z": -0.6659779404,
				"element": "C" 
			},
			{
				"x": 2.6343015587,
				"y": -2.8413657367,
				"z": -1.6191304805,
				"element": "C" 
			},
			{
				"x": 2.8513460195,
				"y": -1.4650820265,
				"z": -1.706639096,
				"element": "C" 
			},
			{
				"x": 2.1727443522,
				"y": -0.6022771687,
				"z": -0.8506130704,
				"element": "C" 
			},
			{
				"x": -0.7726206172,
				"y": 2.2786383745,
				"z": 4.2323706051,
				"element": "H" 
			},
			{
				"x": -2.5872930042,
				"y": 1.3953352638,
				"z": 3.2042476779,
				"element": "H" 
			},
			{
				"x": -2.0362122349,
				"y": 2.8737868077,
				"z": 2.4215324609,
				"element": "H" 
			},
			{
				"x": -4.1690762706,
				"y": 1.8427554565,
				"z": 1.4379535035,
				"element": "H" 
			},
			{
				"x": -2.8959568699,
				"y": 2.1678107009,
				"z": 0.2660879747,
				"element": "H" 
			},
			{
				"x": -3.9471006277,
				"y": -0.1061890857,
				"z": -0.0636078999,
				"element": "H" 
			},
			{
				"x": -3.4256154586,
				"y": -0.5657178162,
				"z": 1.5527597908,
				"element": "H" 
			},
			{
				"x": -1.6746185131,
				"y": 0.0048318366,
				"z": -0.8933875299,
				"element": "H" 
			},
			{
				"x": -1.7648903742,
				"y": -1.47402756,
				"z": 0.0528541724,
				"element": "H" 
			},
			{
				"x": 1.5956119174,
				"y": -4.4228504185,
				"z": -0.5745076262,
				"element": "H" 
			},
			{
				"x": 3.1550850234,
				"y": -3.5221561176,
				"z": -2.2853325177,
				"element": "H" 
			},
			{
				"x": 3.5442165195,
				"y": -1.0639938055,
				"z": -2.4391727325,
				"element": "H" 
			},
			{
				"x": 2.3278541764,
				"y": 0.4702808794,
				"z": -0.8924603633,
				"element": "H" 
			}
		],
		 "valence_orbital": [ 
			{
				"type": "occ",
				"energy": -0.28571,
				"method": "rhf"
			},
			{
				"type": "occ",
				"energy": -0.2666,
				"method": "rhf"
			},
			{
				"type": "occ",
				"energy": -0.26311,
				"method": "rhf"
			},
			{
				"type": "occ",
				"energy": -0.25118,
				"method": "rhf"
			},
			{
				"type": "occ",
				"energy": -0.245,
				"method": "rhf"
			},
			{
				"type": "unocc",
				"energy": -0.04052,
				"method": "rhf"
			},
			{
				"type": "unocc",
				"energy": -0.03031,
				"method": "rhf"
			},
			{
				"type": "unocc",
				"energy": -0.01791,
				"method": "rhf"
			},
			{
				"type": "unocc",
				"energy": 0.01389,
				"method": "rhf"
			},
			{
				"type": "unocc",
				"energy": 0.02111,
				"method": "rhf"
			}
		],
		"cosmo_sigma_profile": { 
			"-0.025": 0.0,
			"-0.024": 0.0,
			"-0.023": 0.0,
			"-0.022": 0.0,
			"-0.021": 0.0,
			"-0.02": 0.0,
			"-0.019": 0.0,
			"-0.018": 0.0,
			"-0.017": 0.0,
			"-0.016": 0.615061294326,
			"-0.015": 1.27581486095,
			"-0.014": 1.02576415722,
			"-0.013": 0.532985546523,
			"-0.012": 1.07177169555,
			"-0.011": 1.49394502934,
			"-0.01": 1.01032180783,
			"-0.009": 0.464138279489,
			"-0.008": 3.09636587655,
			"-0.007": 9.09751205399,
			"-0.006": 11.6353717863,
			"-0.005": 14.1961945765,
			"-0.004": 19.3199920521,
			"-0.003": 32.8147509069,
			"-0.002": 32.2740667329,
			"-0.001": 26.9726771679,
			"0.0": 22.7835782239,
			"0.001": 19.6417230882,
			"0.002": 22.6723850445,
			"0.003": 20.3802602242,
			"0.004": 8.07989926717,
			"0.005": 3.88185984633,
			"0.006": 3.12478104419,
			"0.007": 3.89080750264,
			"0.008": 2.85849932609,
			"0.009": 4.33400144091,
			"0.01": 5.50039509922,
			"0.011": 6.68347371496,
			"0.012": 6.34756301337,
			"0.013": 4.10465707011,
			"0.014": 2.13708007839,
			"0.015": 0.96374152054,
			"0.016": 0.0,
			"0.017": 0.0,
			"0.018": 0.0,
			"0.019": 0.0,
			"0.02": 0.0,
			"0.021": 0.0,
			"0.022": 0.0,
			"0.023": 0.0,
			"0.024": 0.0,
			"0.025": 0.0
		}
	}
}
