{
	 "smiles": "CC(C)NCC1CCC2=CC(CO)=C(C=C2N1)N(=O)=O", 
	 "Tm": 421.15, 
	 "num_atms": 41, 
	 "gaussian": { 
		 "optdone": 1, 
		 "sigma_profile": "yes", 
		 "theory": "DFT", 
		 "functional": "B3LYP", 
		 "basiset": "6-31G**", 
		 "properties": { 
			 "R2extent": 8579.4175, 
			 "electric_dipole_moment_norm": 8.18126349655, 
			 "electric_quadrupole_moment_norm": 30.9411546611, 
			 "total_energy": -935.973454704, 
			 "HOMO_LUMO_gap": 0.13502, 
			 "cosmo_polarized_energy": -18.99, 
			 "cosmo_cavitation_energy": 42.6, 
			 "cosmo_dispersion_energy": -29.77, 
			 "cosmo_repulsion_energy": 2.31, 
			 "cosmo_total_nonelectrostatic_energy": 15.15, 
			 "SMD_solvation_energy": 7.14 
		},
		"coords": [
			{
				"x": 3.3828534325,
				"y": 2.914118647,
				"z": 3.2093871383,
				"element": "C" 
			},
			{
				"x": 2.9314690564,
				"y": 1.4777572145,
				"z": 3.5306443489,
				"element": "C" 
			},
			{
				"x": 3.4081241829,
				"y": 1.0450750299,
				"z": 4.9205251035,
				"element": "C" 
			},
			{
				"x": 1.4790043896,
				"y": 1.2618052971,
				"z": 3.4444750294,
				"element": "N" 
			},
			{
				"x": 0.8738042702,
				"y": 1.447194764,
				"z": 2.1318049815,
				"element": "C" 
			},
			{
				"x": -0.5847724497,
				"y": 0.9338240507,
				"z": 2.1170921624,
				"element": "C" 
			},
			{
				"x": -0.7098199356,
				"y": -0.5649000887,
				"z": 2.4283059524,
				"element": "C" 
			},
			{
				"x": -0.1698153352,
				"y": -1.4288766143,
				"z": 1.2794182997,
				"element": "C" 
			},
			{
				"x": -0.7168952554,
				"y": -0.9902895976,
				"z": -0.0617673355,
				"element": "C" 
			},
			{
				"x": -0.7401740915,
				"y": -1.849790243,
				"z": -1.1611500277,
				"element": "C" 
			},
			{
				"x": -1.2193864137,
				"y": -1.493837769,
				"z": -2.4267851344,
				"element": "C" 
			},
			{
				"x": -1.1122073471,
				"y": -2.4789101956,
				"z": -3.5739271196,
				"element": "C" 
			},
			{
				"x": -0.2374012834,
				"y": -2.0300341559,
				"z": -4.6048865294,
				"element": "O" 
			},
			{
				"x": -1.6754271549,
				"y": -0.1683709572,
				"z": -2.5464405679,
				"element": "C" 
			},
			{
				"x": -1.6613051218,
				"y": 0.7278872936,
				"z": -1.4857899495,
				"element": "C" 
			},
			{
				"x": -1.1931446051,
				"y": 0.3307259768,
				"z": -0.2226042213,
				"element": "C" 
			},
			{
				"x": -1.2426609728,
				"y": 1.2106664339,
				"z": 0.8443719434,
				"element": "N" 
			},
			{
				"x": -2.2375525335,
				"y": 0.349491148,
				"z": -3.8086239721,
				"element": "N" 
			},
			{
				"x": -2.1243354183,
				"y": 1.5572839288,
				"z": -4.0246525485,
				"element": "O" 
			},
			{
				"x": -2.8150606516,
				"y": -0.4376783826,
				"z": -4.5544185563,
				"element": "O" 
			},
			{
				"x": 2.9572419106,
				"y": 3.6232006896,
				"z": 3.930671139,
				"element": "H" 
			},
			{
				"x": 3.0720756088,
				"y": 3.2246730443,
				"z": 2.2069996196,
				"element": "H" 
			},
			{
				"x": 4.4733759765,
				"y": 3.003683773,
				"z": 3.2596509311,
				"element": "H" 
			},
			{
				"x": 3.3824641459,
				"y": 0.803656361,
				"z": 2.7885122182,
				"element": "H" 
			},
			{
				"x": 4.4972557395,
				"y": 1.11509137,
				"z": 5.0028349135,
				"element": "H" 
			},
			{
				"x": 2.9769011908,
				"y": 1.6893428614,
				"z": 5.6972774872,
				"element": "H" 
			},
			{
				"x": 3.104236492,
				"y": 0.0156497458,
				"z": 5.1281332478,
				"element": "H" 
			},
			{
				"x": 1.0135861681,
				"y": 1.8602054361,
				"z": 4.1257184782,
				"element": "H" 
			},
			{
				"x": 0.8670147617,
				"y": 2.4945631839,
				"z": 1.7769139698,
				"element": "H" 
			},
			{
				"x": 1.4648152821,
				"y": 0.8837123299,
				"z": 1.3993182849,
				"element": "H" 
			},
			{
				"x": -1.1370543192,
				"y": 1.4874817149,
				"z": 2.8898817497,
				"element": "H" 
			},
			{
				"x": -0.1654694947,
				"y": -0.7733317445,
				"z": 3.3519231328,
				"element": "H" 
			},
			{
				"x": -1.7679874743,
				"y": -0.7958302781,
				"z": 2.5941815333,
				"element": "H" 
			},
			{
				"x": 0.9279713268,
				"y": -1.3756821992,
				"z": 1.2640271514,
				"element": "H" 
			},
			{
				"x": -0.4132146068,
				"y": -2.4826164341,
				"z": 1.4561383931,
				"element": "H" 
			},
			{
				"x": -0.3573130933,
				"y": -2.8600059394,
				"z": -1.0267310568,
				"element": "H" 
			},
			{
				"x": -0.7835390446,
				"y": -3.4460149484,
				"z": -3.1631391338,
				"element": "H" 
			},
			{
				"x": -2.0776198038,
				"y": -2.6264811484,
				"z": -4.0568955348,
				"element": "H" 
			},
			{
				"x": 0.6269289801,
				"y": -1.8734058148,
				"z": -4.2017407765,
				"element": "H" 
			},
			{
				"x": -2.0237362594,
				"y": 1.7360227737,
				"z": -1.6516151412,
				"element": "H" 
			},
			{
				"x": -1.3878302488,
				"y": 2.1821434429,
				"z": 0.610660396,
				"element": "H" 
			}
		],
		 "valence_orbital": [ 
			{
				"type": "occ",
				"energy": -0.28025,
				"method": "rhf"
			},
			{
				"type": "occ",
				"energy": -0.26713,
				"method": "rhf"
			},
			{
				"type": "occ",
				"energy": -0.25587,
				"method": "rhf"
			},
			{
				"type": "occ",
				"energy": -0.2322,
				"method": "rhf"
			},
			{
				"type": "occ",
				"energy": -0.20568,
				"method": "rhf"
			},
			{
				"type": "unocc",
				"energy": -0.07066,
				"method": "rhf"
			},
			{
				"type": "unocc",
				"energy": -0.00762,
				"method": "rhf"
			},
			{
				"type": "unocc",
				"energy": 0.0111,
				"method": "rhf"
			},
			{
				"type": "unocc",
				"energy": 0.05967,
				"method": "rhf"
			},
			{
				"type": "unocc",
				"energy": 0.07405,
				"method": "rhf"
			}
		],
		"cosmo_sigma_profile": { 
			"-0.025": 0.0,
			"-0.024": 0.0,
			"-0.023": 0.0,
			"-0.022": 0.0,
			"-0.021": 0.0,
			"-0.02": 0.0,
			"-0.019": 0.0,
			"-0.018": 0.0,
			"-0.017": 0.0,
			"-0.016": 0.119990988492,
			"-0.015": 0.659436517746,
			"-0.014": 1.06662356495,
			"-0.013": 1.96688479879,
			"-0.012": 2.6755875695,
			"-0.011": 2.036074303,
			"-0.01": 1.87266418328,
			"-0.009": 3.26752069555,
			"-0.008": 3.98007354718,
			"-0.007": 5.60007702955,
			"-0.006": 8.83492551047,
			"-0.005": 12.6544241741,
			"-0.004": 19.0573612938,
			"-0.003": 29.3984870845,
			"-0.002": 39.3863343935,
			"-0.001": 37.427995046,
			"0.0": 31.135683885,
			"0.001": 28.8618275477,
			"0.002": 19.2754742671,
			"0.003": 16.9070231795,
			"0.004": 10.7288077393,
			"0.005": 6.06722846101,
			"0.006": 6.14781329338,
			"0.007": 7.13631537413,
			"0.008": 11.8857666319,
			"0.009": 8.34074659755,
			"0.01": 6.39897201463,
			"0.011": 3.00686874771,
			"0.012": 2.0989318604,
			"0.013": 1.64309000251,
			"0.014": 1.91536252851,
			"0.015": 0.249245321421,
			"0.016": 0.0,
			"0.017": 0.0,
			"0.018": 0.0,
			"0.019": 0.0,
			"0.02": 0.0,
			"0.021": 0.0,
			"0.022": 0.0,
			"0.023": 0.0,
			"0.024": 0.0,
			"0.025": 0.0
		}
	}
}
