{
	 "smiles": "O=C1OC(C2=C1C=CC=C2)(C1=CC=CC=C1)C1=CC=CC=C1", 
	 "Tm": 393.15, 
	 "num_atms": 36, 
	 "gaussian": { 
		 "optdone": 1, 
		 "sigma_profile": "yes", 
		 "theory": "DFT", 
		 "functional": "B3LYP", 
		 "basiset": "6-31G**", 
		 "properties": { 
			 "R2extent": 5785.4014, 
			 "electric_dipole_moment_norm": 4.7493886017, 
			 "electric_quadrupole_moment_norm": 15.9364749741, 
			 "total_energy": -921.026849871, 
			 "HOMO_LUMO_gap": 0.19369, 
			 "cosmo_polarized_energy": -13.11, 
			 "cosmo_cavitation_energy": 39.73, 
			 "cosmo_dispersion_energy": -27.18, 
			 "cosmo_repulsion_energy": 2.07, 
			 "cosmo_total_nonelectrostatic_energy": 14.62, 
			 "SMD_solvation_energy": 7.5 
		},
		"coords": [
			{
				"x": -0.0807359894,
				"y": -1.8941986266,
				"z": -3.034543125,
				"element": "O" 
			},
			{
				"x": 0.0006600592,
				"y": -1.5568169328,
				"z": -1.8797817422,
				"element": "C" 
			},
			{
				"x": -0.007769678,
				"y": -0.2377842565,
				"z": -1.4908128829,
				"element": "O" 
			},
			{
				"x": 0.0554037017,
				"y": -0.0904270284,
				"z": -0.0358045785,
				"element": "C" 
			},
			{
				"x": 0.1980403894,
				"y": -1.531311038,
				"z": 0.4447748127,
				"element": "C" 
			},
			{
				"x": 0.1461828084,
				"y": -2.3757961377,
				"z": -0.6579119623,
				"element": "C" 
			},
			{
				"x": 0.2622232697,
				"y": -3.7597610769,
				"z": -0.542711067,
				"element": "C" 
			},
			{
				"x": 0.4384391164,
				"y": -4.2906596372,
				"z": 0.7341645576,
				"element": "C" 
			},
			{
				"x": 0.5058223669,
				"y": -3.4438505501,
				"z": 1.851185671,
				"element": "C" 
			},
			{
				"x": 0.3918513642,
				"y": -2.0562785053,
				"z": 1.7210011906,
				"element": "C" 
			},
			{
				"x": -1.2428815312,
				"y": 0.6103009514,
				"z": 0.3822275382,
				"element": "C" 
			},
			{
				"x": -1.4916880332,
				"y": 1.8931725698,
				"z": -0.1303768695,
				"element": "C" 
			},
			{
				"x": -2.6689468986,
				"y": 2.5661122367,
				"z": 0.1833855748,
				"element": "C" 
			},
			{
				"x": -3.6168268772,
				"y": 1.9702250654,
				"z": 1.0209785554,
				"element": "C" 
			},
			{
				"x": -3.3781976489,
				"y": 0.6967812733,
				"z": 1.532732435,
				"element": "C" 
			},
			{
				"x": -2.1990081483,
				"y": 0.016873748,
				"z": 1.2111478579,
				"element": "C" 
			},
			{
				"x": 1.301208428,
				"y": 0.7280955244,
				"z": 0.3245577848,
				"element": "C" 
			},
			{
				"x": 1.3922555205,
				"y": 1.3438780399,
				"z": 1.580265481,
				"element": "C" 
			},
			{
				"x": 2.5485635571,
				"y": 2.0309844326,
				"z": 1.9500042785,
				"element": "C" 
			},
			{
				"x": 3.6251414384,
				"y": 2.1199019506,
				"z": 1.0658273546,
				"element": "C" 
			},
			{
				"x": 3.5355987345,
				"y": 1.5166758695,
				"z": -0.1892189645,
				"element": "C" 
			},
			{
				"x": 2.382874863,
				"y": 0.8211275578,
				"z": -0.5582438575,
				"element": "C" 
			},
			{
				"x": 0.2209294514,
				"y": -4.3877481902,
				"z": -1.4270506003,
				"element": "H" 
			},
			{
				"x": 0.5338132373,
				"y": -5.3637876872,
				"z": 0.8688085368,
				"element": "H" 
			},
			{
				"x": 0.6560353826,
				"y": -3.8745297455,
				"z": 2.8370351521,
				"element": "H" 
			},
			{
				"x": 0.4645196033,
				"y": -1.4132126045,
				"z": 2.5923740141,
				"element": "H" 
			},
			{
				"x": -0.7582201659,
				"y": 2.3566165085,
				"z": -0.7825564898,
				"element": "H" 
			},
			{
				"x": -2.8482738694,
				"y": 3.5562998074,
				"z": -0.2254730611,
				"element": "H" 
			},
			{
				"x": -4.5340973058,
				"y": 2.4964659082,
				"z": 1.2689512884,
				"element": "H" 
			},
			{
				"x": -4.1098098354,
				"y": 0.2223674818,
				"z": 2.1805283062,
				"element": "H" 
			},
			{
				"x": -2.0349779245,
				"y": -0.9792413317,
				"z": 1.606854286,
				"element": "H" 
			},
			{
				"x": 0.5500036954,
				"y": 1.3013830791,
				"z": 2.2643564414,
				"element": "H" 
			},
			{
				"x": 2.602716738,
				"y": 2.5048782806,
				"z": 2.9259966597,
				"element": "H" 
			},
			{
				"x": 4.5230488206,
				"y": 2.6607195385,
				"z": 1.3503743852,
				"element": "H" 
			},
			{
				"x": 4.3639615324,
				"y": 1.5878084386,
				"z": -0.888347593,
				"element": "H" 
			},
			{
				"x": 2.3152398274,
				"y": 0.3638350863,
				"z": -1.5385993687,
				"element": "H" 
			}
		],
		 "valence_orbital": [ 
			{
				"type": "occ",
				"energy": -0.26909,
				"method": "rhf"
			},
			{
				"type": "occ",
				"energy": -0.25718,
				"method": "rhf"
			},
			{
				"type": "occ",
				"energy": -0.25519,
				"method": "rhf"
			},
			{
				"type": "occ",
				"energy": -0.25148,
				"method": "rhf"
			},
			{
				"type": "occ",
				"energy": -0.24376,
				"method": "rhf"
			},
			{
				"type": "unocc",
				"energy": -0.05007,
				"method": "rhf"
			},
			{
				"type": "unocc",
				"energy": -0.02818,
				"method": "rhf"
			},
			{
				"type": "unocc",
				"energy": -0.01397,
				"method": "rhf"
			},
			{
				"type": "unocc",
				"energy": -0.01161,
				"method": "rhf"
			},
			{
				"type": "unocc",
				"energy": -0.003,
				"method": "rhf"
			}
		],
		"cosmo_sigma_profile": { 
			"-0.025": 0.0,
			"-0.024": 0.0,
			"-0.023": 0.0,
			"-0.022": 0.0,
			"-0.021": 0.0,
			"-0.02": 0.0,
			"-0.019": 0.0,
			"-0.018": 0.0,
			"-0.017": 0.0,
			"-0.016": 0.0,
			"-0.015": 0.0,
			"-0.014": 0.0,
			"-0.013": 0.0,
			"-0.012": 0.0,
			"-0.011": 0.0,
			"-0.01": 0.0,
			"-0.009": 0.0,
			"-0.008": 0.201258549627,
			"-0.007": 6.35288673511,
			"-0.006": 19.967801824,
			"-0.005": 31.2124103495,
			"-0.004": 29.7146099504,
			"-0.003": 26.856924511,
			"-0.002": 21.7530833715,
			"-0.001": 20.9808081007,
			"0.0": 21.4425901662,
			"0.001": 21.719207592,
			"0.002": 26.0321622615,
			"0.003": 26.3693028595,
			"0.004": 19.4348136315,
			"0.005": 20.2472900669,
			"0.006": 4.86403333115,
			"0.007": 2.89857828911,
			"0.008": 2.06452094312,
			"0.009": 3.32769589585,
			"0.01": 3.33115071896,
			"0.011": 5.18143061505,
			"0.012": 4.58399651442,
			"0.013": 1.01096454567,
			"0.014": 0.0,
			"0.015": 0.0,
			"0.016": 0.0,
			"0.017": 0.0,
			"0.018": 0.0,
			"0.019": 0.0,
			"0.02": 0.0,
			"0.021": 0.0,
			"0.022": 0.0,
			"0.023": 0.0,
			"0.024": 0.0,
			"0.025": 0.0
		}
	}
}
