{
	 "smiles": "OC(CC1CCCCCN1)C1=CC=CC=C1", 
	 "Tm": 310.15, 
	 "num_atms": 37, 
	 "gaussian": { 
		 "optdone": 1, 
		 "sigma_profile": "yes", 
		 "theory": "DFT", 
		 "functional": "B3LYP", 
		 "basiset": "6-31G**", 
		 "properties": { 
			 "R2extent": 5449.0106, 
			 "electric_dipole_moment_norm": 2.05067938742, 
			 "electric_quadrupole_moment_norm": 4.48403286005, 
			 "total_energy": -676.113893972, 
			 "HOMO_LUMO_gap": 0.20383, 
			 "cosmo_polarized_energy": -8.95, 
			 "cosmo_cavitation_energy": 36.42, 
			 "cosmo_dispersion_energy": -26.23, 
			 "cosmo_repulsion_energy": 2.06, 
			 "cosmo_total_nonelectrostatic_energy": 12.24, 
			 "SMD_solvation_energy": 4.21 
		},
		"coords": [
			{
				"x": -0.0516377499,
				"y": -2.0272010198,
				"z": 1.847718812,
				"element": "O" 
			},
			{
				"x": 0.8847892039,
				"y": -1.171911111,
				"z": 1.1882232328,
				"element": "C" 
			},
			{
				"x": 0.1540837094,
				"y": -0.479519078,
				"z": 0.0278445201,
				"element": "C" 
			},
			{
				"x": -0.2295331134,
				"y": -1.3817042099,
				"z": -1.1642194976,
				"element": "C" 
			},
			{
				"x": -1.4288025436,
				"y": -2.3138363629,
				"z": -0.9055249561,
				"element": "C" 
			},
			{
				"x": -2.8132291837,
				"y": -1.64600506,
				"z": -0.8293031841,
				"element": "C" 
			},
			{
				"x": -3.2167165668,
				"y": -0.8135024765,
				"z": -2.0693519598,
				"element": "C" 
			},
			{
				"x": -2.6242327536,
				"y": -1.3346614097,
				"z": -3.3869356966,
				"element": "C" 
			},
			{
				"x": -1.0795153653,
				"y": -1.1276874767,
				"z": -3.4989990751,
				"element": "C" 
			},
			{
				"x": -0.4985698086,
				"y": -0.501147468,
				"z": -2.3100252518,
				"element": "N" 
			},
			{
				"x": 1.4888717664,
				"y": -0.1606882285,
				"z": 2.1533408829,
				"element": "C" 
			},
			{
				"x": 0.7260955972,
				"y": 0.3623442635,
				"z": 3.205425323,
				"element": "C" 
			},
			{
				"x": 1.2702824929,
				"y": 1.3113904931,
				"z": 4.072043059,
				"element": "C" 
			},
			{
				"x": 2.5841969202,
				"y": 1.7508339546,
				"z": 3.8978309593,
				"element": "C" 
			},
			{
				"x": 3.3527924204,
				"y": 1.2324592218,
				"z": 2.8533993549,
				"element": "C" 
			},
			{
				"x": 2.8076971722,
				"y": 0.2809866507,
				"z": 1.9903870788,
				"element": "C" 
			},
			{
				"x": 0.403458545,
				"y": -2.4376263639,
				"z": 2.5951752198,
				"element": "H" 
			},
			{
				"x": 1.7069438168,
				"y": -1.7739349368,
				"z": 0.7639610374,
				"element": "H" 
			},
			{
				"x": 0.8208122749,
				"y": 0.3083869498,
				"z": -0.3447322284,
				"element": "H" 
			},
			{
				"x": -0.7314625088,
				"y": 0.0316096205,
				"z": 0.4214623233,
				"element": "H" 
			},
			{
				"x": 0.63665309,
				"y": -2.0466912892,
				"z": -1.366048391,
				"element": "H" 
			},
			{
				"x": -1.447299695,
				"y": -3.0685513962,
				"z": -1.7018340078,
				"element": "H" 
			},
			{
				"x": -1.2373288204,
				"y": -2.8553859357,
				"z": 0.0237853093,
				"element": "H" 
			},
			{
				"x": -3.5452361147,
				"y": -2.4510824907,
				"z": -0.681485369,
				"element": "H" 
			},
			{
				"x": -2.8789826203,
				"y": -1.0185611822,
				"z": 0.0677018719,
				"element": "H" 
			},
			{
				"x": -4.3109273377,
				"y": -0.7993002307,
				"z": -2.1513301196,
				"element": "H" 
			},
			{
				"x": -2.8943038385,
				"y": 0.222571848,
				"z": -1.9366607133,
				"element": "H" 
			},
			{
				"x": -3.1146713164,
				"y": -0.8200018341,
				"z": -4.221634189,
				"element": "H" 
			},
			{
				"x": -2.8665916563,
				"y": -2.3979776548,
				"z": -3.5072636647,
				"element": "H" 
			},
			{
				"x": -0.8703779812,
				"y": -0.4528037846,
				"z": -4.3358292605,
				"element": "H" 
			},
			{
				"x": -0.5939419822,
				"y": -2.0873492888,
				"z": -3.7525416312,
				"element": "H" 
			},
			{
				"x": 0.3554864901,
				"y": -0.0148238859,
				"z": -2.5651026351,
				"element": "H" 
			},
			{
				"x": -0.292271058,
				"y": 0.0110328887,
				"z": 3.3405251888,
				"element": "H" 
			},
			{
				"x": 0.6676728223,
				"y": 1.7081129048,
				"z": 4.8845708139,
				"element": "H" 
			},
			{
				"x": 3.0081641534,
				"y": 2.4879604242,
				"z": 4.573777667,
				"element": "H" 
			},
			{
				"x": 4.3787771631,
				"y": 1.5626019508,
				"z": 2.7159500613,
				"element": "H" 
			},
			{
				"x": 3.4136543762,
				"y": -0.1268369957,
				"z": 1.1838991151,
				"element": "H" 
			}
		],
		 "valence_orbital": [ 
			{
				"type": "occ",
				"energy": -0.29513,
				"method": "rhf"
			},
			{
				"type": "occ",
				"energy": -0.2734,
				"method": "rhf"
			},
			{
				"type": "occ",
				"energy": -0.24963,
				"method": "rhf"
			},
			{
				"type": "occ",
				"energy": -0.24149,
				"method": "rhf"
			},
			{
				"type": "occ",
				"energy": -0.20746,
				"method": "rhf"
			},
			{
				"type": "unocc",
				"energy": -0.00363,
				"method": "rhf"
			},
			{
				"type": "unocc",
				"energy": -0.00131,
				"method": "rhf"
			},
			{
				"type": "unocc",
				"energy": 0.07473,
				"method": "rhf"
			},
			{
				"type": "unocc",
				"energy": 0.09125,
				"method": "rhf"
			},
			{
				"type": "unocc",
				"energy": 0.09715,
				"method": "rhf"
			}
		],
		"cosmo_sigma_profile": { 
			"-0.025": 0.0,
			"-0.024": 0.0,
			"-0.023": 0.0,
			"-0.022": 0.0,
			"-0.021": 0.0,
			"-0.02": 0.0,
			"-0.019": 0.0,
			"-0.018": 0.0,
			"-0.017": 0.0,
			"-0.016": 0.0130719430779,
			"-0.015": 0.804017223265,
			"-0.014": 0.938150508305,
			"-0.013": 0.708454310744,
			"-0.012": 0.876991767876,
			"-0.011": 0.576845472975,
			"-0.01": 1.04182971607,
			"-0.009": 2.09212069601,
			"-0.008": 1.92843672539,
			"-0.007": 2.3828111829,
			"-0.006": 5.21209543829,
			"-0.005": 11.6347110862,
			"-0.004": 16.4859150008,
			"-0.003": 20.9470731748,
			"-0.002": 27.2421080162,
			"-0.001": 36.0604407625,
			"0.0": 36.1831706434,
			"0.001": 32.6896803456,
			"0.002": 25.0376012996,
			"0.003": 11.2594092358,
			"0.004": 10.5327578143,
			"0.005": 11.0526929636,
			"0.006": 11.4248151176,
			"0.007": 4.47221698594,
			"0.008": 3.30561944901,
			"0.009": 1.37682888949,
			"0.01": 1.66310829884,
			"0.011": 1.5416914813,
			"0.012": 1.1983106155,
			"0.013": 1.13884935431,
			"0.014": 0.461935559327,
			"0.015": 0.0678928419498,
			"0.016": 0.0,
			"0.017": 0.0,
			"0.018": 0.0,
			"0.019": 0.0,
			"0.02": 0.0,
			"0.021": 0.0,
			"0.022": 0.0,
			"0.023": 0.0,
			"0.024": 0.0,
			"0.025": 0.0
		}
	}
}
