{
	 "smiles": "OC(=O)C1=CC=C(OCC(F)(F)F)N=C1", 
	 "Tm": 447.15, 
	 "num_atms": 21, 
	 "gaussian": { 
		 "optdone": 1, 
		 "sigma_profile": "yes", 
		 "theory": "DFT", 
		 "functional": "B3LYP", 
		 "basiset": "6-31G**", 
		 "properties": { 
			 "R2extent": 4540.5964, 
			 "electric_dipole_moment_norm": 4.62073129926, 
			 "electric_quadrupole_moment_norm": 19.6602277263, 
			 "total_energy": -888.414960692, 
			 "HOMO_LUMO_gap": 0.20159, 
			 "cosmo_polarized_energy": -16.61, 
			 "cosmo_cavitation_energy": 28.07, 
			 "cosmo_dispersion_energy": -19.97, 
			 "cosmo_repulsion_energy": 1.51, 
			 "cosmo_total_nonelectrostatic_energy": 9.62, 
			 "SMD_solvation_energy": 6.76 
		},
		"coords": [
			{
				"x": 3.4043030959,
				"y": 1.8381260512,
				"z": 1.9863860531,
				"element": "O" 
			},
			{
				"x": 2.7359837547,
				"y": 1.5181484394,
				"z": 0.8446270133,
				"element": "C" 
			},
			{
				"x": 3.2282071448,
				"y": 1.7650479658,
				"z": -0.231069318,
				"element": "O" 
			},
			{
				"x": 1.4014557518,
				"y": 0.865881995,
				"z": 1.0021651611,
				"element": "C" 
			},
			{
				"x": 0.9540070709,
				"y": 0.2252491385,
				"z": 2.172267721,
				"element": "C" 
			},
			{
				"x": -0.2987302632,
				"y": -0.3610681625,
				"z": 2.1992855682,
				"element": "C" 
			},
			{
				"x": -1.0762053878,
				"y": -0.2857516937,
				"z": 1.0307257993,
				"element": "C" 
			},
			{
				"x": -2.3115800159,
				"y": -0.8428900594,
				"z": 1.0986414465,
				"element": "O" 
			},
			{
				"x": -3.1015636216,
				"y": -0.9062559575,
				"z": -0.0844659703,
				"element": "C" 
			},
			{
				"x": -2.9999510826,
				"y": -2.2929974681,
				"z": -0.6997482435,
				"element": "C" 
			},
			{
				"x": -1.731024762,
				"y": -2.6018361868,
				"z": -1.0228762727,
				"element": "F" 
			},
			{
				"x": -3.7468459392,
				"y": -2.3369467293,
				"z": -1.823254355,
				"element": "F" 
			},
			{
				"x": -3.4529654749,
				"y": -3.2450828419,
				"z": 0.1374446343,
				"element": "F" 
			},
			{
				"x": -0.6739462994,
				"y": 0.3015998451,
				"z": -0.0897865275,
				"element": "N" 
			},
			{
				"x": 0.541845318,
				"y": 0.856523174,
				"z": -0.100610132,
				"element": "C" 
			},
			{
				"x": 2.8286270917,
				"y": 1.7460074696,
				"z": 2.7575193675,
				"element": "H" 
			},
			{
				"x": 1.5886450586,
				"y": 0.14959261,
				"z": 3.0521292041,
				"element": "H" 
			},
			{
				"x": -0.682923366,
				"y": -0.87555832,
				"z": 3.071904378,
				"element": "H" 
			},
			{
				"x": -2.7797851799,
				"y": -0.1672905787,
				"z": -0.8186153345,
				"element": "H" 
			},
			{
				"x": -4.13804023,
				"y": -0.7327277129,
				"z": 0.2110916867,
				"element": "H" 
			},
			{
				"x": 0.863887336,
				"y": 1.3243290223,
				"z": -1.0266618795,
				"element": "H" 
			}
		],
		 "valence_orbital": [ 
			{
				"type": "occ",
				"energy": -0.32316,
				"method": "rhf"
			},
			{
				"type": "occ",
				"energy": -0.31657,
				"method": "rhf"
			},
			{
				"type": "occ",
				"energy": -0.29597,
				"method": "rhf"
			},
			{
				"type": "occ",
				"energy": -0.28008,
				"method": "rhf"
			},
			{
				"type": "occ",
				"energy": -0.26031,
				"method": "rhf"
			},
			{
				"type": "unocc",
				"energy": -0.05872,
				"method": "rhf"
			},
			{
				"type": "unocc",
				"energy": -0.0499,
				"method": "rhf"
			},
			{
				"type": "unocc",
				"energy": 0.03785,
				"method": "rhf"
			},
			{
				"type": "unocc",
				"energy": 0.04858,
				"method": "rhf"
			},
			{
				"type": "unocc",
				"energy": 0.08393,
				"method": "rhf"
			}
		],
		"cosmo_sigma_profile": { 
			"-0.025": 0.0,
			"-0.024": 0.0,
			"-0.023": 0.0,
			"-0.022": 0.0,
			"-0.021": 0.0,
			"-0.02": 0.118288835448,
			"-0.019": 0.689214653244,
			"-0.018": 1.03089206003,
			"-0.017": 1.23185919825,
			"-0.016": 1.05608307533,
			"-0.015": 0.751623206311,
			"-0.014": 0.985014716806,
			"-0.013": 1.11281647807,
			"-0.012": 1.49477300592,
			"-0.011": 1.32261561085,
			"-0.01": 1.78506870969,
			"-0.009": 4.68509083178,
			"-0.008": 6.8002456769,
			"-0.007": 8.49844935626,
			"-0.006": 8.76565975552,
			"-0.005": 8.22223435716,
			"-0.004": 7.23892459801,
			"-0.003": 9.41033592469,
			"-0.002": 10.3422060151,
			"-0.001": 16.7599360711,
			"0.0": 19.982202951,
			"0.001": 14.5429843581,
			"0.002": 27.6644109159,
			"0.003": 26.475458766,
			"0.004": 5.62930389492,
			"0.005": 5.31184519389,
			"0.006": 5.48182476736,
			"0.007": 4.39522010091,
			"0.008": 4.1988570303,
			"0.009": 4.03448001305,
			"0.01": 4.49355171952,
			"0.011": 5.59128177244,
			"0.012": 4.04951206571,
			"0.013": 1.24157867411,
			"0.014": 0.0161742913524,
			"0.015": 0.0,
			"0.016": 0.0,
			"0.017": 0.0,
			"0.018": 0.0,
			"0.019": 0.0,
			"0.02": 0.0,
			"0.021": 0.0,
			"0.022": 0.0,
			"0.023": 0.0,
			"0.024": 0.0,
			"0.025": 0.0
		}
	}
}
