{
	 "smiles": "CC1=NC2=CC=CC=C2N1CC(O)=O", 
	 "Tm": 534.15, 
	 "num_atms": 24, 
	 "gaussian": { 
		 "optdone": 1, 
		 "sigma_profile": "yes", 
		 "theory": "DFT", 
		 "functional": "B3LYP", 
		 "basiset": "6-31G**", 
		 "properties": { 
			 "R2extent": 3428.6584, 
			 "electric_dipole_moment_norm": 2.27373621381, 
			 "electric_quadrupole_moment_norm": 15.3968639343, 
			 "total_energy": -647.069321543, 
			 "HOMO_LUMO_gap": 0.20583, 
			 "cosmo_polarized_energy": -17.02, 
			 "cosmo_cavitation_energy": 28.41, 
			 "cosmo_dispersion_energy": -20.21, 
			 "cosmo_repulsion_energy": 1.59, 
			 "cosmo_total_nonelectrostatic_energy": 9.79, 
			 "SMD_solvation_energy": 4.07 
		},
		"coords": [
			{
				"x": 3.6522827053,
				"y": 1.1792735063,
				"z": -1.8131034145,
				"element": "C" 
			},
			{
				"x": 2.8397796512,
				"y": 0.8020182176,
				"z": -0.6180649818,
				"element": "C" 
			},
			{
				"x": 3.3056885297,
				"y": 0.7154762532,
				"z": 0.6033612574,
				"element": "N" 
			},
			{
				"x": 2.2265538702,
				"y": 0.3207921232,
				"z": 1.3832960051,
				"element": "C" 
			},
			{
				"x": 2.1539454782,
				"y": 0.0775194389,
				"z": 2.7594724469,
				"element": "C" 
			},
			{
				"x": 0.9288864434,
				"y": -0.316526558,
				"z": 3.291550884,
				"element": "C" 
			},
			{
				"x": -0.2095321588,
				"y": -0.4686532149,
				"z": 2.4766503587,
				"element": "C" 
			},
			{
				"x": -0.1595651624,
				"y": -0.2300960303,
				"z": 1.1035996252,
				"element": "C" 
			},
			{
				"x": 1.0722132531,
				"y": 0.1675093375,
				"z": 0.5818366691,
				"element": "C" 
			},
			{
				"x": 1.4849297843,
				"y": 0.4971953201,
				"z": -0.7043373981,
				"element": "N" 
			},
			{
				"x": 0.6645705834,
				"y": 0.4351478698,
				"z": -1.888764324,
				"element": "C" 
			},
			{
				"x": 0.5341064003,
				"y": -0.9459800047,
				"z": -2.5319989048,
				"element": "C" 
			},
			{
				"x": 1.6351015531,
				"y": -1.7030674159,
				"z": -2.3551512824,
				"element": "O" 
			},
			{
				"x": -0.4319767146,
				"y": -1.2970088112,
				"z": -3.168290586,
				"element": "O" 
			},
			{
				"x": 3.6668332767,
				"y": 0.3744534401,
				"z": -2.5564387775,
				"element": "H" 
			},
			{
				"x": 3.2715955538,
				"y": 2.0842867039,
				"z": -2.3020315181,
				"element": "H" 
			},
			{
				"x": 4.6734683348,
				"y": 1.3711902905,
				"z": -1.483103437,
				"element": "H" 
			},
			{
				"x": 3.0353057657,
				"y": 0.1951112573,
				"z": 3.3816847741,
				"element": "H" 
			},
			{
				"x": 0.8458465741,
				"y": -0.5133382791,
				"z": 4.3563501203,
				"element": "H" 
			},
			{
				"x": -1.1474995545,
				"y": -0.7813827117,
				"z": 2.9258385071,
				"element": "H" 
			},
			{
				"x": -1.0404057208,
				"y": -0.3562482924,
				"z": 0.4807596328,
				"element": "H" 
			},
			{
				"x": 1.0731096566,
				"y": 1.1079053163,
				"z": -2.6500871403,
				"element": "H" 
			},
			{
				"x": -0.3474321218,
				"y": 0.7824827996,
				"z": -1.6673013762,
				"element": "H" 
			},
			{
				"x": 1.4678940191,
				"y": -2.5469605562,
				"z": -2.8083271401,
				"element": "H" 
			}
		],
		 "valence_orbital": [ 
			{
				"type": "occ",
				"energy": -0.30868,
				"method": "rhf"
			},
			{
				"type": "occ",
				"energy": -0.28583,
				"method": "rhf"
			},
			{
				"type": "occ",
				"energy": -0.26571,
				"method": "rhf"
			},
			{
				"type": "occ",
				"energy": -0.22306,
				"method": "rhf"
			},
			{
				"type": "occ",
				"energy": -0.21912,
				"method": "rhf"
			},
			{
				"type": "unocc",
				"energy": -0.01329,
				"method": "rhf"
			},
			{
				"type": "unocc",
				"energy": -0.01213,
				"method": "rhf"
			},
			{
				"type": "unocc",
				"energy": 0.02147,
				"method": "rhf"
			},
			{
				"type": "unocc",
				"energy": 0.05516,
				"method": "rhf"
			},
			{
				"type": "unocc",
				"energy": 0.05773,
				"method": "rhf"
			}
		],
		"cosmo_sigma_profile": { 
			"-0.025": 0.0,
			"-0.024": 0.0,
			"-0.023": 0.0,
			"-0.022": 0.0,
			"-0.021": 0.0,
			"-0.02": 0.0,
			"-0.019": 0.552770850804,
			"-0.018": 0.902859315363,
			"-0.017": 1.03161698388,
			"-0.016": 1.00106691423,
			"-0.015": 0.389937957178,
			"-0.014": 0.83550206301,
			"-0.013": 0.528224774607,
			"-0.012": 0.968802195162,
			"-0.011": 0.540694082311,
			"-0.01": 1.46294064629,
			"-0.009": 4.74979575503,
			"-0.008": 7.28238905292,
			"-0.007": 7.82471039295,
			"-0.006": 11.5763578917,
			"-0.005": 14.1172660893,
			"-0.004": 17.1936994498,
			"-0.003": 16.2280913414,
			"-0.002": 14.7327717962,
			"-0.001": 14.0459353654,
			"0.0": 9.45911994846,
			"0.001": 9.04558449545,
			"0.002": 11.4816353147,
			"0.003": 11.7022528624,
			"0.004": 13.8660260786,
			"0.005": 13.2656938858,
			"0.006": 11.6255944234,
			"0.007": 5.12623916864,
			"0.008": 3.6499781736,
			"0.009": 3.17513456958,
			"0.01": 3.02473052296,
			"0.011": 6.55826585746,
			"0.012": 3.3335669232,
			"0.013": 0.896693872379,
			"0.014": 0.906371024944,
			"0.015": 1.06755972791,
			"0.016": 0.648236346008,
			"0.017": 1.2726121637,
			"0.018": 0.232702003296,
			"0.019": 0.0,
			"0.02": 0.0,
			"0.021": 0.0,
			"0.022": 0.0,
			"0.023": 0.0,
			"0.024": 0.0,
			"0.025": 0.0
		}
	}
}
