{
	 "smiles": "NC(=S)C1=CSC=C1", 
	 "Tm": 370.15, 
	 "num_atms": 13, 
	 "gaussian": { 
		 "optdone": 1, 
		 "sigma_profile": "yes", 
		 "theory": "DFT", 
		 "functional": "B3LYP", 
		 "basiset": "6-31G**", 
		 "properties": { 
			 "R2extent": 1843.3688, 
			 "electric_dipole_moment_norm": 4.70920478531, 
			 "electric_quadrupole_moment_norm": 10.7710205672, 
			 "total_energy": -1044.66252763, 
			 "HOMO_LUMO_gap": 0.14972, 
			 "cosmo_polarized_energy": -14.95, 
			 "cosmo_cavitation_energy": 20.42, 
			 "cosmo_dispersion_energy": -16.37, 
			 "cosmo_repulsion_energy": 1.26, 
			 "cosmo_total_nonelectrostatic_energy": 5.31, 
			 "SMD_solvation_energy": 2.86 
		},
		"coords": [
			{
				"x": -0.6995855818,
				"y": -1.8753485055,
				"z": 2.1204053814,
				"element": "N" 
			},
			{
				"x": 0.0605035348,
				"y": -0.9032490816,
				"z": 1.561183531,
				"element": "C" 
			},
			{
				"x": 0.4336156353,
				"y": 0.494640968,
				"z": 2.3963211823,
				"element": "S" 
			},
			{
				"x": 0.4996029976,
				"y": -1.1738570244,
				"z": 0.1761050837,
				"element": "C" 
			},
			{
				"x": 1.5677975429,
				"y": -0.5326675157,
				"z": -0.4093387742,
				"element": "C" 
			},
			{
				"x": 1.8500834356,
				"y": -1.0770018202,
				"z": -2.0169022716,
				"element": "S" 
			},
			{
				"x": 0.5133477121,
				"y": -2.1825969253,
				"z": -1.934786476,
				"element": "C" 
			},
			{
				"x": -0.1036891507,
				"y": -2.1273454933,
				"z": -0.719435976,
				"element": "C" 
			},
			{
				"x": -0.7516183727,
				"y": -2.7996488116,
				"z": 1.7188170668,
				"element": "H" 
			},
			{
				"x": -0.9838150048,
				"y": -1.7545768017,
				"z": 3.0815687874,
				"element": "H" 
			},
			{
				"x": 2.188065803,
				"y": 0.2259773517,
				"z": 0.0458296842,
				"element": "H" 
			},
			{
				"x": 0.2549292496,
				"y": -2.7901592984,
				"z": -2.7907921695,
				"element": "H" 
			},
			{
				"x": -0.9879378007,
				"y": -2.709867042,
				"z": -0.4864750495,
				"element": "H" 
			}
		],
		 "valence_orbital": [ 
			{
				"type": "occ",
				"energy": -0.35258,
				"method": "rhf"
			},
			{
				"type": "occ",
				"energy": -0.26839,
				"method": "rhf"
			},
			{
				"type": "occ",
				"energy": -0.25648,
				"method": "rhf"
			},
			{
				"type": "occ",
				"energy": -0.22552,
				"method": "rhf"
			},
			{
				"type": "occ",
				"energy": -0.2072,
				"method": "rhf"
			},
			{
				"type": "unocc",
				"energy": -0.05748,
				"method": "rhf"
			},
			{
				"type": "unocc",
				"energy": -0.01502,
				"method": "rhf"
			},
			{
				"type": "unocc",
				"energy": 0.01981,
				"method": "rhf"
			},
			{
				"type": "unocc",
				"energy": 0.06721,
				"method": "rhf"
			},
			{
				"type": "unocc",
				"energy": 0.07908,
				"method": "rhf"
			}
		],
		"cosmo_sigma_profile": { 
			"-0.025": 0.0,
			"-0.024": 0.0,
			"-0.023": 0.0,
			"-0.022": 0.0,
			"-0.021": 0.0,
			"-0.02": 0.0,
			"-0.019": 0.0,
			"-0.018": 0.0,
			"-0.017": 0.0,
			"-0.016": 0.375718131013,
			"-0.015": 1.56068228191,
			"-0.014": 2.82280968747,
			"-0.013": 1.9905330412,
			"-0.012": 3.14513534994,
			"-0.011": 2.19195765091,
			"-0.01": 2.66627857075,
			"-0.009": 4.16885144517,
			"-0.008": 6.74575564276,
			"-0.007": 5.41291548681,
			"-0.006": 4.87441464461,
			"-0.005": 6.50669616141,
			"-0.004": 6.20244517043,
			"-0.003": 5.87019214256,
			"-0.002": 5.95499558262,
			"-0.001": 8.12148325155,
			"0.0": 9.41315225068,
			"0.001": 12.1287919155,
			"0.002": 17.1572313675,
			"0.003": 15.5600491884,
			"0.004": 8.50480338457,
			"0.005": 5.22746138045,
			"0.006": 4.38368417381,
			"0.007": 4.60336730833,
			"0.008": 5.5163587048,
			"0.009": 6.83654334841,
			"0.01": 5.11363350863,
			"0.011": 3.75545955764,
			"0.012": 1.9756451338,
			"0.013": 0.00562562841777,
			"0.014": 0.0,
			"0.015": 0.0,
			"0.016": 0.0,
			"0.017": 0.0,
			"0.018": 0.0,
			"0.019": 0.0,
			"0.02": 0.0,
			"0.021": 0.0,
			"0.022": 0.0,
			"0.023": 0.0,
			"0.024": 0.0,
			"0.025": 0.0
		}
	}
}
