{
	 "smiles": "COC(=O)C1=C2C(C)C(=O)C2=C(C)C2=C1CC2=O", 
	 "Tm": 423.15, 
	 "num_atms": 30, 
	 "gaussian": { 
		 "optdone": 1, 
		 "sigma_profile": "yes", 
		 "theory": "DFT", 
		 "functional": "B3LYP", 
		 "basiset": "6-31G**", 
		 "properties": { 
			 "R2extent": 4721.9317, 
			 "electric_dipole_moment_norm": 3.39005626207, 
			 "electric_quadrupole_moment_norm": 17.029382689, 
			 "total_energy": -841.565669772, 
			 "HOMO_LUMO_gap": 0.16019, 
			 "cosmo_polarized_energy": -13.56, 
			 "cosmo_cavitation_energy": 35.37, 
			 "cosmo_dispersion_energy": -24.18, 
			 "cosmo_repulsion_energy": 1.9, 
			 "cosmo_total_nonelectrostatic_energy": 13.09, 
			 "SMD_solvation_energy": 8.42 
		},
		"coords": [
			{
				"x": 3.8675093102,
				"y": 1.6290662307,
				"z": 0.9294191501,
				"element": "C" 
			},
			{
				"x": 2.5932615613,
				"y": 1.3872111458,
				"z": 0.3083985003,
				"element": "O" 
			},
			{
				"x": 1.6965202252,
				"y": 0.7260765272,
				"z": 1.072503335,
				"element": "C" 
			},
			{
				"x": 1.9255689134,
				"y": 0.3523511043,
				"z": 2.2067383152,
				"element": "O" 
			},
			{
				"x": 0.4098074518,
				"y": 0.5198449173,
				"z": 0.3632063146,
				"element": "C" 
			},
			{
				"x": -0.6704626077,
				"y": -0.1423281309,
				"z": 0.9627686197,
				"element": "C" 
			},
			{
				"x": -1.0714566772,
				"y": -0.8504755604,
				"z": 2.2587306659,
				"element": "C" 
			},
			{
				"x": -0.3069743915,
				"y": -2.106003768,
				"z": 2.6768643817,
				"element": "C" 
			},
			{
				"x": -2.4422454781,
				"y": -1.0745648264,
				"z": 1.5176725925,
				"element": "C" 
			},
			{
				"x": -3.4689129499,
				"y": -1.6398176946,
				"z": 1.8025909577,
				"element": "O" 
			},
			{
				"x": -1.9093314109,
				"y": -0.3432990323,
				"z": 0.3229037471,
				"element": "C" 
			},
			{
				"x": -2.2275933519,
				"y": 0.0848836474,
				"z": -0.9746902577,
				"element": "C" 
			},
			{
				"x": -3.5586552721,
				"y": -0.1129279705,
				"z": -1.6368425866,
				"element": "C" 
			},
			{
				"x": -1.1327208427,
				"y": 0.7380224136,
				"z": -1.5598270906,
				"element": "C" 
			},
			{
				"x": 0.1146839918,
				"y": 0.9493464739,
				"z": -0.9365541494,
				"element": "C" 
			},
			{
				"x": 0.7339002204,
				"y": 1.668339681,
				"z": -2.128741712,
				"element": "C" 
			},
			{
				"x": -0.6610232503,
				"y": 1.4163415477,
				"z": -2.8090086709,
				"element": "C" 
			},
			{
				"x": -1.1275664385,
				"y": 1.667373492,
				"z": -3.8915349784,
				"element": "O" 
			},
			{
				"x": 4.4592203088,
				"y": 2.1624427878,
				"z": 0.1859835555,
				"element": "H" 
			},
			{
				"x": 4.3478536009,
				"y": 0.6854871339,
				"z": 1.1993611133,
				"element": "H" 
			},
			{
				"x": 3.7460130308,
				"y": 2.2338818437,
				"z": 1.8312765744,
				"element": "H" 
			},
			{
				"x": -1.1657092965,
				"y": -0.1631611641,
				"z": 3.1090457294,
				"element": "H" 
			},
			{
				"x": 0.6950008108,
				"y": -1.8376005164,
				"z": 3.0193592421,
				"element": "H" 
			},
			{
				"x": -0.2136188652,
				"y": -2.8083788447,
				"z": 1.8419435571,
				"element": "H" 
			},
			{
				"x": -0.8377916236,
				"y": -2.6123320592,
				"z": 3.4885145977,
				"element": "H" 
			},
			{
				"x": -3.4543817693,
				"y": -0.1646886554,
				"z": -2.7231801874,
				"element": "H" 
			},
			{
				"x": -4.2177784151,
				"y": 0.734955096,
				"z": -1.4120589702,
				"element": "H" 
			},
			{
				"x": -4.0516114867,
				"y": -1.0144522718,
				"z": -1.265326096,
				"element": "H" 
			},
			{
				"x": 0.9903195383,
				"y": 2.721525547,
				"z": -1.97473742,
				"element": "H" 
			},
			{
				"x": 1.5815751636,
				"y": 1.1664809055,
				"z": -2.6064788302,
				"element": "H" 
			}
		],
		 "valence_orbital": [ 
			{
				"type": "occ",
				"energy": -0.28922,
				"method": "rhf"
			},
			{
				"type": "occ",
				"energy": -0.27689,
				"method": "rhf"
			},
			{
				"type": "occ",
				"energy": -0.26954,
				"method": "rhf"
			},
			{
				"type": "occ",
				"energy": -0.26407,
				"method": "rhf"
			},
			{
				"type": "occ",
				"energy": -0.24623,
				"method": "rhf"
			},
			{
				"type": "unocc",
				"energy": -0.08604,
				"method": "rhf"
			},
			{
				"type": "unocc",
				"energy": -0.06318,
				"method": "rhf"
			},
			{
				"type": "unocc",
				"energy": -0.02569,
				"method": "rhf"
			},
			{
				"type": "unocc",
				"energy": 0.04125,
				"method": "rhf"
			},
			{
				"type": "unocc",
				"energy": 0.0699,
				"method": "rhf"
			}
		],
		"cosmo_sigma_profile": { 
			"-0.025": 0.0,
			"-0.024": 0.0,
			"-0.023": 0.0,
			"-0.022": 0.0,
			"-0.021": 0.0,
			"-0.02": 0.0,
			"-0.019": 0.0,
			"-0.018": 0.0,
			"-0.017": 0.0,
			"-0.016": 0.0,
			"-0.015": 0.0,
			"-0.014": 0.0,
			"-0.013": 0.0,
			"-0.012": 0.0,
			"-0.011": 0.0,
			"-0.01": 0.0,
			"-0.009": 0.0,
			"-0.008": 0.0343163455623,
			"-0.007": 5.06323432987,
			"-0.006": 17.1352993016,
			"-0.005": 20.9447876711,
			"-0.004": 27.7897914065,
			"-0.003": 32.3281622131,
			"-0.002": 35.0940682567,
			"-0.001": 31.6877067151,
			"0.0": 22.859503766,
			"0.001": 11.4651176004,
			"0.002": 9.0976742407,
			"0.003": 6.98712782084,
			"0.004": 8.51609714152,
			"0.005": 6.33682984775,
			"0.006": 3.92783195753,
			"0.007": 5.09453418617,
			"0.008": 5.55113023759,
			"0.009": 5.6579716782,
			"0.01": 9.34934037514,
			"0.011": 11.798085851,
			"0.012": 5.08899623099,
			"0.013": 0.167688460587,
			"0.014": 0.0,
			"0.015": 0.0,
			"0.016": 0.0,
			"0.017": 0.0,
			"0.018": 0.0,
			"0.019": 0.0,
			"0.02": 0.0,
			"0.021": 0.0,
			"0.022": 0.0,
			"0.023": 0.0,
			"0.024": 0.0,
			"0.025": 0.0
		}
	}
}
