{
	 "smiles": "COC(=O)C(C)OC1=CC=C(OC2=CC=C(Cl)C=C2Cl)C=C1", 
	 "Tm": 317.15, 
	 "num_atms": 36, 
	 "gaussian": { 
		 "optdone": 1, 
		 "sigma_profile": "yes", 
		 "theory": "DFT", 
		 "functional": "B3LYP", 
		 "basiset": "6-31G**", 
		 "properties": { 
			 "R2extent": 14498.1715, 
			 "electric_dipole_moment_norm": 5.30936365773, 
			 "electric_quadrupole_moment_norm": 13.9131706591, 
			 "total_energy": -1839.40649445, 
			 "HOMO_LUMO_gap": 0.19803, 
			 "cosmo_polarized_energy": -13.58, 
			 "cosmo_cavitation_energy": 45.32, 
			 "cosmo_dispersion_energy": -31.41, 
			 "cosmo_repulsion_energy": 2.46, 
			 "cosmo_total_nonelectrostatic_energy": 16.38, 
			 "SMD_solvation_energy": 8.95 
		},
		"coords": [
			{
				"x": -0.6635473191,
				"y": 1.5182897337,
				"z": 4.4823210874,
				"element": "C" 
			},
			{
				"x": 0.2407072742,
				"y": 0.3981248431,
				"z": 4.4405069016,
				"element": "O" 
			},
			{
				"x": -0.1620335455,
				"y": -0.6407134062,
				"z": 3.6766516265,
				"element": "C" 
			},
			{
				"x": -1.1829011615,
				"y": -0.6618407063,
				"z": 3.0318645274,
				"element": "O" 
			},
			{
				"x": 0.8399897425,
				"y": -1.7974514812,
				"z": 3.7942423524,
				"element": "C" 
			},
			{
				"x": 0.4650232443,
				"y": -2.6900554899,
				"z": 4.9774824171,
				"element": "C" 
			},
			{
				"x": 0.8049142455,
				"y": -2.6163871867,
				"z": 2.6379583103,
				"element": "O" 
			},
			{
				"x": 1.3035415363,
				"y": -2.1341954527,
				"z": 1.4580250593,
				"element": "C" 
			},
			{
				"x": 1.876272764,
				"y": -0.8687327007,
				"z": 1.2866608981,
				"element": "C" 
			},
			{
				"x": 2.3659590519,
				"y": -0.4947278233,
				"z": 0.0315230475,
				"element": "C" 
			},
			{
				"x": 2.2868959392,
				"y": -1.3781817597,
				"z": -1.0383876942,
				"element": "C" 
			},
			{
				"x": 2.8539381634,
				"y": -1.0194726918,
				"z": -2.2584827524,
				"element": "O" 
			},
			{
				"x": 2.0502484435,
				"y": -0.5883827648,
				"z": -3.2762592203,
				"element": "C" 
			},
			{
				"x": 0.680099542,
				"y": -0.3408388293,
				"z": -3.1456122384,
				"element": "C" 
			},
			{
				"x": -0.0688049379,
				"y": 0.1121114622,
				"z": -4.2311620211,
				"element": "C" 
			},
			{
				"x": 0.5569958814,
				"y": 0.3220238668,
				"z": -5.4569064862,
				"element": "C" 
			},
			{
				"x": -0.3775535782,
				"y": 0.8922003538,
				"z": -6.8315586156,
				"element": "Cl" 
			},
			{
				"x": 1.9223227831,
				"y": 0.0855939697,
				"z": -5.6122770456,
				"element": "C" 
			},
			{
				"x": 2.6612887199,
				"y": -0.3682603284,
				"z": -4.5231997944,
				"element": "C" 
			},
			{
				"x": 4.3738025982,
				"y": -0.6662616412,
				"z": -4.7145752809,
				"element": "Cl" 
			},
			{
				"x": 1.7220536138,
				"y": -2.6457851465,
				"z": -0.8722130123,
				"element": "C" 
			},
			{
				"x": 1.2303528764,
				"y": -3.0192871593,
				"z": 0.3719978384,
				"element": "C" 
			},
			{
				"x": -1.6327559294,
				"y": 1.2129661365,
				"z": 4.8840381844,
				"element": "H" 
			},
			{
				"x": -0.809429262,
				"y": 1.9281419157,
				"z": 3.4802116956,
				"element": "H" 
			},
			{
				"x": -0.1919838779,
				"y": 2.2533397532,
				"z": 5.1338140783,
				"element": "H" 
			},
			{
				"x": 1.843622378,
				"y": -1.3812469488,
				"z": 3.9465147538,
				"element": "H" 
			},
			{
				"x": 0.4819316701,
				"y": -2.1141534975,
				"z": 5.9063304648,
				"element": "H" 
			},
			{
				"x": 1.178443315,
				"y": -3.5138011579,
				"z": 5.0565935347,
				"element": "H" 
			},
			{
				"x": -0.5358371391,
				"y": -3.1038170323,
				"z": 4.8295684798,
				"element": "H" 
			},
			{
				"x": 1.9460148489,
				"y": -0.1641982664,
				"z": 2.1069524761,
				"element": "H" 
			},
			{
				"x": 2.8172401494,
				"y": 0.480830707,
				"z": -0.1162378104,
				"element": "H" 
			},
			{
				"x": 0.1997509573,
				"y": -0.503494983,
				"z": -2.1879814835,
				"element": "H" 
			},
			{
				"x": -1.1304804933,
				"y": 0.3010020557,
				"z": -4.1202627859,
				"element": "H" 
			},
			{
				"x": 2.4100917968,
				"y": 0.2488430912,
				"z": -6.5654320073,
				"element": "H" 
			},
			{
				"x": 1.6796040585,
				"y": -3.3291866649,
				"z": -1.7140376356,
				"element": "H" 
			},
			{
				"x": 0.7881216503,
				"y": -3.9969947697,
				"z": 0.5301281505,
				"element": "H" 
			}
		],
		 "valence_orbital": [ 
			{
				"type": "occ",
				"energy": -0.28416,
				"method": "rhf"
			},
			{
				"type": "occ",
				"energy": -0.26672,
				"method": "rhf"
			},
			{
				"type": "occ",
				"energy": -0.25796,
				"method": "rhf"
			},
			{
				"type": "occ",
				"energy": -0.231,
				"method": "rhf"
			},
			{
				"type": "occ",
				"energy": -0.22432,
				"method": "rhf"
			},
			{
				"type": "unocc",
				"energy": -0.02629,
				"method": "rhf"
			},
			{
				"type": "unocc",
				"energy": -0.01575,
				"method": "rhf"
			},
			{
				"type": "unocc",
				"energy": -0.00812,
				"method": "rhf"
			},
			{
				"type": "unocc",
				"energy": -0.00129,
				"method": "rhf"
			},
			{
				"type": "unocc",
				"energy": -0.0001,
				"method": "rhf"
			}
		],
		"cosmo_sigma_profile": { 
			"-0.025": 0.0,
			"-0.024": 0.0,
			"-0.023": 0.0,
			"-0.022": 0.0,
			"-0.021": 0.0,
			"-0.02": 0.0,
			"-0.019": 0.0,
			"-0.018": 0.0,
			"-0.017": 0.0,
			"-0.016": 0.0,
			"-0.015": 0.0,
			"-0.014": 0.0,
			"-0.013": 0.0,
			"-0.012": 0.0,
			"-0.011": 0.0,
			"-0.01": 0.0,
			"-0.009": 0.233344112983,
			"-0.008": 3.26773175844,
			"-0.007": 12.7289994896,
			"-0.006": 21.019636413,
			"-0.005": 26.1593199421,
			"-0.004": 28.2145679739,
			"-0.003": 28.2328684188,
			"-0.002": 24.6299275698,
			"-0.001": 27.600284009,
			"0.0": 25.3189865484,
			"0.001": 30.7805631637,
			"0.002": 33.4989855112,
			"0.003": 30.8236464829,
			"0.004": 28.2726988503,
			"0.005": 14.0899372479,
			"0.006": 5.29270557182,
			"0.007": 5.58355812795,
			"0.008": 5.79289602539,
			"0.009": 4.49556868009,
			"0.01": 2.93191598895,
			"0.011": 4.36346307498,
			"0.012": 2.92342790691,
			"0.013": 0.248811344863,
			"0.014": 0.0,
			"0.015": 0.0,
			"0.016": 0.0,
			"0.017": 0.0,
			"0.018": 0.0,
			"0.019": 0.0,
			"0.02": 0.0,
			"0.021": 0.0,
			"0.022": 0.0,
			"0.023": 0.0,
			"0.024": 0.0,
			"0.025": 0.0
		}
	}
}
