{
	 "smiles": "OC(=O)C1=CN(N=C1C1=CC=CC=C1)C1=CC=CC=C1", 
	 "Tm": 476.15, 
	 "num_atms": 32, 
	 "gaussian": { 
		 "optdone": 1, 
		 "sigma_profile": "yes", 
		 "theory": "DFT", 
		 "functional": "B3LYP", 
		 "basiset": "6-31G**", 
		 "properties": { 
			 "R2extent": 7195.3724, 
			 "electric_dipole_moment_norm": 4.48716083287, 
			 "electric_quadrupole_moment_norm": 27.6905007129, 
			 "total_energy": -876.884288509, 
			 "HOMO_LUMO_gap": 0.18963, 
			 "cosmo_polarized_energy": -15.33, 
			 "cosmo_cavitation_energy": 37.03, 
			 "cosmo_dispersion_energy": -26.65, 
			 "cosmo_repulsion_energy": 2.01, 
			 "cosmo_total_nonelectrostatic_energy": 12.4, 
			 "SMD_solvation_energy": 6.67 
		},
		"coords": [
			{
				"x": -0.7086049767,
				"y": 2.0484824164,
				"z": -4.0680306087,
				"element": "O" 
			},
			{
				"x": -1.0934929118,
				"y": 2.4556778999,
				"z": -2.8334653622,
				"element": "C" 
			},
			{
				"x": -1.6147794783,
				"y": 3.5399928333,
				"z": -2.6890590251,
				"element": "O" 
			},
			{
				"x": -0.8813741213,
				"y": 1.5237767609,
				"z": -1.7010924663,
				"element": "C" 
			},
			{
				"x": -1.4821648905,
				"y": 1.7421024743,
				"z": -0.4729226662,
				"element": "C" 
			},
			{
				"x": -1.1760432505,
				"y": 0.6883451687,
				"z": 0.3207612551,
				"element": "N" 
			},
			{
				"x": -0.3822038252,
				"y": -0.2131754653,
				"z": -0.3175886304,
				"element": "N" 
			},
			{
				"x": -0.1909226416,
				"y": 0.2775119963,
				"z": -1.5418087045,
				"element": "C" 
			},
			{
				"x": 0.6433534335,
				"y": -0.4825162174,
				"z": -2.4970173396,
				"element": "C" 
			},
			{
				"x": 1.599549205,
				"y": 0.1568497496,
				"z": -3.3061632066,
				"element": "C" 
			},
			{
				"x": 2.3862977426,
				"y": -0.5831234946,
				"z": -4.1917521489,
				"element": "C" 
			},
			{
				"x": 2.2394249799,
				"y": -1.9678695349,
				"z": -4.2715847862,
				"element": "C" 
			},
			{
				"x": 1.3045500272,
				"y": -2.6136011281,
				"z": -3.4572521377,
				"element": "C" 
			},
			{
				"x": 0.5121202877,
				"y": -1.8795452446,
				"z": -2.5782871235,
				"element": "C" 
			},
			{
				"x": -1.5585419627,
				"y": 0.4656938443,
				"z": 1.6742352444,
				"element": "C" 
			},
			{
				"x": -2.6827137125,
				"y": 1.1092147883,
				"z": 2.2018446708,
				"element": "C" 
			},
			{
				"x": -3.0323806153,
				"y": 0.8951858966,
				"z": 3.5344969698,
				"element": "C" 
			},
			{
				"x": -2.2793434136,
				"y": 0.034302975,
				"z": 4.334419317,
				"element": "C" 
			},
			{
				"x": -1.1681099129,
				"y": -0.6148803889,
				"z": 3.7920910658,
				"element": "C" 
			},
			{
				"x": -0.7992388537,
				"y": -0.4021426145,
				"z": 2.4653667826,
				"element": "C" 
			},
			{
				"x": -0.3423151137,
				"y": 1.1500584267,
				"z": -4.0418110663,
				"element": "H" 
			},
			{
				"x": -2.0833091679,
				"y": 2.5769751287,
				"z": -0.1505543201,
				"element": "H" 
			},
			{
				"x": 1.7493043063,
				"y": 1.2291941121,
				"z": -3.2225541645,
				"element": "H" 
			},
			{
				"x": 3.1222334393,
				"y": -0.0749001211,
				"z": -4.8076606957,
				"element": "H" 
			},
			{
				"x": 2.8521890202,
				"y": -2.5423425161,
				"z": -4.9599347642,
				"element": "H" 
			},
			{
				"x": 1.1893154482,
				"y": -3.6922305578,
				"z": -3.5120074772,
				"element": "H" 
			},
			{
				"x": -0.216479937,
				"y": -2.3745935156,
				"z": -1.9450717123,
				"element": "H" 
			},
			{
				"x": -3.2925885793,
				"y": 1.7546472754,
				"z": 1.579048311,
				"element": "H" 
			},
			{
				"x": -3.9054903113,
				"y": 1.3960507287,
				"z": 3.9415362873,
				"element": "H" 
			},
			{
				"x": -2.5590203729,
				"y": -0.1326554673,
				"z": 5.3699966174,
				"element": "H" 
			},
			{
				"x": -0.5773781527,
				"y": -1.2882779636,
				"z": 4.4058805099,
				"element": "H" 
			},
			{
				"x": 0.0616583114,
				"y": -0.8945082455,
				"z": 2.0305413751,
				"element": "H" 
			}
		],
		 "valence_orbital": [ 
			{
				"type": "occ",
				"energy": -0.2681,
				"method": "rhf"
			},
			{
				"type": "occ",
				"energy": -0.26624,
				"method": "rhf"
			},
			{
				"type": "occ",
				"energy": -0.26255,
				"method": "rhf"
			},
			{
				"type": "occ",
				"energy": -0.2577,
				"method": "rhf"
			},
			{
				"type": "occ",
				"energy": -0.23381,
				"method": "rhf"
			},
			{
				"type": "unocc",
				"energy": -0.04418,
				"method": "rhf"
			},
			{
				"type": "unocc",
				"energy": -0.03786,
				"method": "rhf"
			},
			{
				"type": "unocc",
				"energy": -0.01913,
				"method": "rhf"
			},
			{
				"type": "unocc",
				"energy": -0.01679,
				"method": "rhf"
			},
			{
				"type": "unocc",
				"energy": 0.00414,
				"method": "rhf"
			}
		],
		"cosmo_sigma_profile": { 
			"-0.025": 0.0,
			"-0.024": 0.0,
			"-0.023": 0.0,
			"-0.022": 0.0,
			"-0.021": 0.0,
			"-0.02": 0.0,
			"-0.019": 0.0,
			"-0.018": 0.0,
			"-0.017": 0.0,
			"-0.016": 0.0,
			"-0.015": 0.0,
			"-0.014": 0.0,
			"-0.013": 0.0938559000399,
			"-0.012": 0.813793769429,
			"-0.011": 2.1151130797,
			"-0.01": 3.2037617278,
			"-0.009": 2.39771058696,
			"-0.008": 2.98237630973,
			"-0.007": 7.54529614192,
			"-0.006": 20.4614711699,
			"-0.005": 24.3155558515,
			"-0.004": 22.7751498757,
			"-0.003": 18.0303787343,
			"-0.002": 18.8209475117,
			"-0.001": 19.74273595,
			"0.0": 22.1086113018,
			"0.001": 21.3707264069,
			"0.002": 19.7332855801,
			"0.003": 21.3639971183,
			"0.004": 26.1851189952,
			"0.005": 9.4677763376,
			"0.006": 4.63931088865,
			"0.007": 3.80695671684,
			"0.008": 3.42612715301,
			"0.009": 4.27379378485,
			"0.01": 5.50668353932,
			"0.011": 5.1243277481,
			"0.012": 5.55161188963,
			"0.013": 2.28029685916,
			"0.014": 0.338202374992,
			"0.015": 0.0,
			"0.016": 0.0,
			"0.017": 0.0,
			"0.018": 0.0,
			"0.019": 0.0,
			"0.02": 0.0,
			"0.021": 0.0,
			"0.022": 0.0,
			"0.023": 0.0,
			"0.024": 0.0,
			"0.0": 0.0
		}
	}
}
