{
	 "smiles": "CC1=CC(Br)=CN2C(C=O)=CN=C12", 
	 "Tm": 426.15, 
	 "num_atms": 20, 
	 "gaussian": { 
		 "optdone": 1, 
		 "sigma_profile": "yes", 
		 "theory": "DFT", 
		 "functional": "B3LYP", 
		 "basiset": "6-31G**", 
		 "properties": { 
			 "R2extent": 4872.7291, 
			 "electric_dipole_moment_norm": 3.86703299572, 
			 "electric_quadrupole_moment_norm": 3.91796020909, 
			 "total_energy": -3103.29482409, 
			 "HOMO_LUMO_gap": 0.1672, 
			 "cosmo_polarized_energy": -12.64, 
			 "cosmo_cavitation_energy": 27.26, 
			 "cosmo_dispersion_energy": -20.21, 
			 "cosmo_repulsion_energy": 1.58, 
			 "cosmo_total_nonelectrostatic_energy": 8.63, 
			 "SMD_solvation_energy": 3.4 
		},
		"coords": [
			{
				"x": -0.1489983479,
				"y": -3.641166415,
				"z": -1.5652718908,
				"element": "C" 
			},
			{
				"x": -0.0151919284,
				"y": -2.1482334813,
				"z": -1.6709710765,
				"element": "C" 
			},
			{
				"x": 0.187273187,
				"y": -1.4883867327,
				"z": -2.8648409168,
				"element": "C" 
			},
			{
				"x": 0.3053064484,
				"y": -0.0749296391,
				"z": -2.8950399695,
				"element": "C" 
			},
			{
				"x": 0.5845131148,
				"y": 0.8085765223,
				"z": -4.556537929,
				"element": "Br" 
			},
			{
				"x": 0.2234966377,
				"y": 0.6755262506,
				"z": -1.7548003989,
				"element": "C" 
			},
			{
				"x": 0.021978417,
				"y": 0.0226919268,
				"z": -0.5643589589,
				"element": "N" 
			},
			{
				"x": -0.1028974233,
				"y": 0.4984184241,
				"z": 0.7434077486,
				"element": "C" 
			},
			{
				"x": -0.0409246528,
				"y": 1.8886368396,
				"z": 1.1466653267,
				"element": "C" 
			},
			{
				"x": -0.1554502742,
				"y": 2.2601282727,
				"z": 2.304575923,
				"element": "O" 
			},
			{
				"x": -0.2920967555,
				"y": -0.6502496536,
				"z": 1.5154240453,
				"element": "C" 
			},
			{
				"x": -0.2906762824,
				"y": -1.775403389,
				"z": 0.7764276503,
				"element": "N" 
			},
			{
				"x": -0.1000145928,
				"y": -1.3693242982,
				"z": -0.4880249214,
				"element": "C" 
			},
			{
				"x": -1.113061866,
				"y": -3.9115913471,
				"z": -1.122867097,
				"element": "H" 
			},
			{
				"x": 0.6224412571,
				"y": -4.0517502245,
				"z": -0.9060549653,
				"element": "H" 
			},
			{
				"x": -0.0646135229,
				"y": -4.1138131275,
				"z": -2.5463893308,
				"element": "H" 
			},
			{
				"x": 0.2582131322,
				"y": -2.0447512826,
				"z": -3.7924457116,
				"element": "H" 
			},
			{
				"x": 0.3083671641,
				"y": 1.7525422881,
				"z": -1.7368073248,
				"element": "H" 
			},
			{
				"x": 0.1206572283,
				"y": 2.6262484093,
				"z": 0.3295090734,
				"element": "H" 
			},
			{
				"x": -0.4272209403,
				"y": -0.6640693428,
				"z": 2.5887007238,
				"element": "H" 
			}
		],
		 "valence_orbital": [ 
			{
				"type": "occ",
				"energy": -0.30958,
				"method": "rhf"
			},
			{
				"type": "occ",
				"energy": -0.29328,
				"method": "rhf"
			},
			{
				"type": "occ",
				"energy": -0.25786,
				"method": "rhf"
			},
			{
				"type": "occ",
				"energy": -0.25671,
				"method": "rhf"
			},
			{
				"type": "occ",
				"energy": -0.234,
				"method": "rhf"
			},
			{
				"type": "unocc",
				"energy": -0.0668,
				"method": "rhf"
			},
			{
				"type": "unocc",
				"energy": -0.05206,
				"method": "rhf"
			},
			{
				"type": "unocc",
				"energy": -0.01639,
				"method": "rhf"
			},
			{
				"type": "unocc",
				"energy": -0.00187,
				"method": "rhf"
			},
			{
				"type": "unocc",
				"energy": 0.08466,
				"method": "rhf"
			}
		],
		"cosmo_sigma_profile": { 
			"-0.025": 0.0,
			"-0.024": 0.0,
			"-0.023": 0.0,
			"-0.022": 0.0,
			"-0.021": 0.0,
			"-0.02": 0.0,
			"-0.019": 0.0,
			"-0.018": 0.0,
			"-0.017": 0.0,
			"-0.016": 0.0,
			"-0.015": 0.0,
			"-0.014": 0.0,
			"-0.013": 0.0,
			"-0.012": 0.666991377842,
			"-0.011": 2.94188765599,
			"-0.01": 1.61124052434,
			"-0.009": 3.17258659843,
			"-0.008": 5.10250388453,
			"-0.007": 6.74069954295,
			"-0.006": 8.46897184705,
			"-0.005": 10.9413341899,
			"-0.004": 13.1784689103,
			"-0.003": 17.9408986078,
			"-0.002": 20.4050417908,
			"-0.001": 23.8537954758,
			"0.0": 21.0892152788,
			"0.001": 18.97681039,
			"0.002": 10.2639859586,
			"0.003": 12.4808287059,
			"0.004": 11.8113577462,
			"0.005": 3.03811584698,
			"0.006": 2.42206286246,
			"0.007": 3.46278608244,
			"0.008": 2.99269327065,
			"0.009": 2.61583045545,
			"0.01": 3.3264605075,
			"0.011": 4.09569854258,
			"0.012": 5.99226047134,
			"0.013": 2.85498428312,
			"0.014": 1.04613706693,
			"0.015": 0.846503531502,
			"0.016": 0.397122177929,
			"0.017": 0.00190953299499,
			"0.018": 0.0,
			"0.019": 0.0,
			"0.02": 0.0,
			"0.021": 0.0,
			"0.022": 0.0,
			"0.023": 0.0,
			"0.024": 0.0,
			"0.025": 0.0
		}
	}
}
