{
	 "smiles": "COC1=CC=C2N(C(=O)C3=CC=C(Cl)C=C3)C(C)=C(CC(=O)OCC(O)=O)C2=C1", 
	 "Tm": 423.15, 
	 "num_atms": 47, 
	 "gaussian": { 
		 "optdone": 1, 
		 "sigma_profile": "yes", 
		 "theory": "DFT", 
		 "functional": "B3LYP", 
		 "basiset": "6-31G**", 
		 "properties": { 
			 "R2extent": 17349.1518, 
			 "electric_dipole_moment_norm": 1.57159772843, 
			 "electric_quadrupole_moment_norm": 20.8708824404, 
			 "total_energy": -1777.39369294, 
			 "HOMO_LUMO_gap": 0.13937, 
			 "cosmo_polarized_energy": -22.04, 
			 "cosmo_cavitation_energy": 54.42, 
			 "cosmo_dispersion_energy": -36.77, 
			 "cosmo_repulsion_energy": 2.82, 
			 "cosmo_total_nonelectrostatic_energy": 20.48, 
			 "SMD_solvation_energy": 12.03 
		},
		"coords": [
			{
				"x": 1.5905364307,
				"y": -1.7878560303,
				"z": 4.993733489,
				"element": "C" 
			},
			{
				"x": 1.0309706943,
				"y": -0.7885101229,
				"z": 4.1598673353,
				"element": "O" 
			},
			{
				"x": 0.6609633454,
				"y": -1.131144769,
				"z": 2.8882427595,
				"element": "C" 
			},
			{
				"x": 0.7995749399,
				"y": -2.4253075001,
				"z": 2.3508761845,
				"element": "C" 
			},
			{
				"x": 0.4125608818,
				"y": -2.7042950936,
				"z": 1.0379999752,
				"element": "C" 
			},
			{
				"x": -0.1042656118,
				"y": -1.6687862264,
				"z": 0.2626975136,
				"element": "C" 
			},
			{
				"x": -0.6119651708,
				"y": -1.6388956421,
				"z": -1.060832536,
				"element": "N" 
			},
			{
				"x": -0.7665262778,
				"y": -2.7239741617,
				"z": -1.9482151543,
				"element": "C" 
			},
			{
				"x": -1.7320816098,
				"y": -2.7980819096,
				"z": -2.6920394344,
				"element": "O" 
			},
			{
				"x": 0.3241119673,
				"y": -3.744940428,
				"z": -2.0077169036,
				"element": "C" 
			},
			{
				"x": -0.0199616746,
				"y": -5.0446814197,
				"z": -2.4063621958,
				"element": "C" 
			},
			{
				"x": 0.9586842037,
				"y": -6.0196285252,
				"z": -2.5721166441,
				"element": "C" 
			},
			{
				"x": 2.2967582451,
				"y": -5.6774844792,
				"z": -2.3646676838,
				"element": "C" 
			},
			{
				"x": 3.5390343926,
				"y": -6.8962387224,
				"z": -2.5808494823,
				"element": "Cl" 
			},
			{
				"x": 2.6657476356,
				"y": -4.383336354,
				"z": -1.9946458119,
				"element": "C" 
			},
			{
				"x": 1.6745904194,
				"y": -3.4215588376,
				"z": -1.8120201532,
				"element": "C" 
			},
			{
				"x": -1.1465650333,
				"y": -0.3493878647,
				"z": -1.3001259645,
				"element": "C" 
			},
			{
				"x": -1.7404042082,
				"y": 0.033462216,
				"z": -2.6181690144,
				"element": "C" 
			},
			{
				"x": -0.9471481395,
				"y": 0.428401764,
				"z": -0.1916097821,
				"element": "C" 
			},
			{
				"x": -1.343067702,
				"y": 1.8684177783,
				"z": -0.0017138818,
				"element": "C" 
			},
			{
				"x": -0.1406139464,
				"y": 2.7966444803,
				"z": -0.0006036429,
				"element": "C" 
			},
			{
				"x": 0.4033022728,
				"y": 3.2498277893,
				"z": 0.980575252,
				"element": "O" 
			},
			{
				"x": 0.2835468755,
				"y": 3.0442599349,
				"z": -1.2695087239,
				"element": "O" 
			},
			{
				"x": 1.4310416083,
				"y": 3.8851027232,
				"z": -1.3740002321,
				"element": "C" 
			},
			{
				"x": 1.1586129619,
				"y": 5.3664318179,
				"z": -1.157698278,
				"element": "C" 
			},
			{
				"x": -0.1523639347,
				"y": 5.6670527055,
				"z": -1.0941396741,
				"element": "O" 
			},
			{
				"x": 2.0456915388,
				"y": 6.1850773371,
				"z": -1.0881692018,
				"element": "O" 
			},
			{
				"x": -0.290845195,
				"y": -0.3788784454,
				"z": 0.8127676526,
				"element": "C" 
			},
			{
				"x": 0.1081466892,
				"y": -0.1016651141,
				"z": 2.1222317152,
				"element": "C" 
			},
			{
				"x": 2.5202522734,
				"y": -2.1955392557,
				"z": 4.57498504,
				"element": "H" 
			},
			{
				"x": 0.8875851925,
				"y": -2.6126946738,
				"z": 5.171131975,
				"element": "H" 
			},
			{
				"x": 1.8121444896,
				"y": -1.2982691333,
				"z": 5.9435066622,
				"element": "H" 
			},
			{
				"x": 1.2079254586,
				"y": -3.2294319512,
				"z": 2.9504067312,
				"element": "H" 
			},
			{
				"x": 0.5185297509,
				"y": -3.7113088406,
				"z": 0.6557169213,
				"element": "H" 
			},
			{
				"x": -1.0637060228,
				"y": -5.2765293293,
				"z": -2.5893682115,
				"element": "H" 
			},
			{
				"x": 0.6949253651,
				"y": -7.0292636692,
				"z": -2.8661655364,
				"element": "H" 
			},
			{
				"x": 3.7117522975,
				"y": -4.135158111,
				"z": -1.8545836642,
				"element": "H" 
			},
			{
				"x": 1.9548464456,
				"y": -2.4145082818,
				"z": -1.5232444575,
				"element": "H" 
			},
			{
				"x": -2.7041454942,
				"y": -0.4526903731,
				"z": -2.7879807717,
				"element": "H" 
			},
			{
				"x": -1.8663973641,
				"y": 1.1168412853,
				"z": -2.6623333362,
				"element": "H" 
			},
			{
				"x": -1.0906974252,
				"y": -0.259901749,
				"z": -3.448752761,
				"element": "H" 
			},
			{
				"x": -2.0316401549,
				"y": 2.1882419555,
				"z": -0.7872986694,
				"element": "H" 
			},
			{
				"x": -1.8407575685,
				"y": 1.9968482641,
				"z": 0.9640228809,
				"element": "H" 
			},
			{
				"x": 2.2040019606,
				"y": 3.5899431991,
				"z": -0.6610376313,
				"element": "H" 
			},
			{
				"x": 1.8083159422,
				"y": 3.7540515417,
				"z": -2.3911200228,
				"element": "H" 
			},
			{
				"x": -0.2015467982,
				"y": 6.6268574318,
				"z": -0.946640918,
				"element": "H" 
			},
			{
				"x": 0.0067450535,
				"y": 0.8886847901,
				"z": 2.5525682874,
				"element": "H" 
			}
		],
		 "valence_orbital": [ 
			{
				"type": "occ",
				"energy": -0.27633,
				"method": "rhf"
			},
			{
				"type": "occ",
				"energy": -0.27314,
				"method": "rhf"
			},
			{
				"type": "occ",
				"energy": -0.25969,
				"method": "rhf"
			},
			{
				"type": "occ",
				"energy": -0.21443,
				"method": "rhf"
			},
			{
				"type": "occ",
				"energy": -0.2064,
				"method": "rhf"
			},
			{
				"type": "unocc",
				"energy": -0.06703,
				"method": "rhf"
			},
			{
				"type": "unocc",
				"energy": -0.03095,
				"method": "rhf"
			},
			{
				"type": "unocc",
				"energy": -0.02053,
				"method": "rhf"
			},
			{
				"type": "unocc",
				"energy": 0.00089,
				"method": "rhf"
			},
			{
				"type": "unocc",
				"energy": 0.00239,
				"method": "rhf"
			}
		],
		"cosmo_sigma_profile": { 
			"-0.025": 0.0,
			"-0.024": 0.0,
			"-0.023": 0.0,
			"-0.022": 0.0,
			"-0.021": 0.0,
			"-0.02": 0.0,
			"-0.019": 0.503192665297,
			"-0.018": 1.04037870587,
			"-0.017": 0.802054526308,
			"-0.016": 0.778266597347,
			"-0.015": 1.09868802535,
			"-0.014": 0.590921343878,
			"-0.013": 0.620870472054,
			"-0.012": 0.649943678031,
			"-0.011": 0.628687690129,
			"-0.01": 1.18444434334,
			"-0.009": 3.49298678157,
			"-0.008": 6.99502189312,
			"-0.007": 13.4306607448,
			"-0.006": 21.3907826373,
			"-0.005": 32.8748888432,
			"-0.004": 34.1808529143,
			"-0.003": 32.9432379813,
			"-0.002": 26.8660129061,
			"-0.001": 27.9132059271,
			"0.0": 30.8365878068,
			"0.001": 31.9734756363,
			"0.002": 31.0423621238,
			"0.003": 26.6250237539,
			"0.004": 29.975168413,
			"0.005": 21.336965563,
			"0.006": 10.926884782,
			"0.007": 6.70439251681,
			"0.008": 7.15899546105,
			"0.009": 6.60710992432,
			"0.01": 9.34380021598,
			"0.011": 12.0176866605,
			"0.012": 3.86112457585,
			"0.013": 0.0233361845056,
			"0.014": 0.0,
			"0.015": 0.0,
			"0.016": 0.0,
			"0.017": 0.0,
			"0.018": 0.0,
			"0.019": 0.0,
			"0.02": 0.0,
			"0.021": 0.0,
			"0.022": 0.0,
			"0.023": 0.0,
			"0.024": 0.0,
			"0.025": 0.0
		}
	}
}
