{
	 "smiles": "NC1=NN=C(S1)C1=CC=CC=C1", 
	 "Tm": 543.15, 
	 "num_atms": 19, 
	 "gaussian": { 
		 "optdone": 1, 
		 "sigma_profile": "yes", 
		 "theory": "DFT", 
		 "functional": "B3LYP", 
		 "basiset": "6-31G**", 
		 "properties": { 
			 "R2extent": 2813.5892, 
			 "electric_dipole_moment_norm": 3.03713009929, 
			 "electric_quadrupole_moment_norm": 17.4763753959, 
			 "total_energy": -871.488272183, 
			 "HOMO_LUMO_gap": 0.16845, 
			 "cosmo_polarized_energy": -14.48, 
			 "cosmo_cavitation_energy": 25.14, 
			 "cosmo_dispersion_energy": -19.5, 
			 "cosmo_repulsion_energy": 1.5, 
			 "cosmo_total_nonelectrostatic_energy": 7.14, 
			 "SMD_solvation_energy": 2.24 
		},
		"coords": [
			{
				"x": -1.015910454,
				"y": -3.1490315024,
				"z": 3.0087760703,
				"element": "N" 
			},
			{
				"x": -0.3689027615,
				"y": -2.1477468125,
				"z": 2.3272778165,
				"element": "C" 
			},
			{
				"x": 0.7635639082,
				"y": -1.6272874092,
				"z": 2.7240328635,
				"element": "N" 
			},
			{
				"x": 1.2562012337,
				"y": -0.7120127884,
				"z": 1.8422766047,
				"element": "N" 
			},
			{
				"x": 0.5161860621,
				"y": -0.5132627672,
				"z": 0.7903452103,
				"element": "C" 
			},
			{
				"x": -0.9471174325,
				"y": -1.5300245479,
				"z": 0.7855555387,
				"element": "S" 
			},
			{
				"x": 0.8358276702,
				"y": 0.441509615,
				"z": -0.2765101099,
				"element": "C" 
			},
			{
				"x": 2.004361645,
				"y": 1.2185505531,
				"z": -0.1706934819,
				"element": "C" 
			},
			{
				"x": 2.3322014108,
				"y": 2.1311007001,
				"z": -1.1681112049,
				"element": "C" 
			},
			{
				"x": 1.5055169305,
				"y": 2.2874039534,
				"z": -2.2848940739,
				"element": "C" 
			},
			{
				"x": 0.3449881333,
				"y": 1.5204479736,
				"z": -2.396680961,
				"element": "C" 
			},
			{
				"x": 0.0116101735,
				"y": 0.6035221517,
				"z": -1.4010941964,
				"element": "C" 
			},
			{
				"x": -2.0247119525,
				"y": -3.1585518121,
				"z": 2.9647533036,
				"element": "H" 
			},
			{
				"x": -0.6424371263,
				"y": -3.2905573766,
				"z": 3.9390681217,
				"element": "H" 
			},
			{
				"x": 2.6378389586,
				"y": 1.0895675405,
				"z": 0.699702747,
				"element": "H" 
			},
			{
				"x": 3.2371321661,
				"y": 2.724462482,
				"z": -1.0741333824,
				"element": "H" 
			},
			{
				"x": 1.7647704426,
				"y": 3.0011263331,
				"z": -3.0613403276,
				"element": "H" 
			},
			{
				"x": -0.303405661,
				"y": 1.6336765717,
				"z": -3.2605291826,
				"element": "H" 
			},
			{
				"x": -0.8941133469,
				"y": 0.0119071423,
				"z": -1.5035013557,
				"element": "H" 
			}
		],
		 "valence_orbital": [ 
			{
				"type": "occ",
				"energy": -0.29362,
				"method": "rhf"
			},
			{
				"type": "occ",
				"energy": -0.26859,
				"method": "rhf"
			},
			{
				"type": "occ",
				"energy": -0.25648,
				"method": "rhf"
			},
			{
				"type": "occ",
				"energy": -0.25542,
				"method": "rhf"
			},
			{
				"type": "occ",
				"energy": -0.21682,
				"method": "rhf"
			},
			{
				"type": "unocc",
				"energy": -0.04837,
				"method": "rhf"
			},
			{
				"type": "unocc",
				"energy": -0.00545,
				"method": "rhf"
			},
			{
				"type": "unocc",
				"energy": -0.00138,
				"method": "rhf"
			},
			{
				"type": "unocc",
				"energy": 0.01973,
				"method": "rhf"
			},
			{
				"type": "unocc",
				"energy": 0.06138,
				"method": "rhf"
			}
		],
		"cosmo_sigma_profile": { 
			"-0.025": 0.0,
			"-0.024": 0.0,
			"-0.023": 0.0,
			"-0.022": 0.0,
			"-0.021": 0.0,
			"-0.02": 0.0,
			"-0.019": 0.0,
			"-0.018": 0.0,
			"-0.017": 0.0,
			"-0.016": 0.0801671664013,
			"-0.015": 1.39712442372,
			"-0.014": 2.41707936074,
			"-0.013": 3.14428867909,
			"-0.012": 2.97223142352,
			"-0.011": 2.14321392652,
			"-0.01": 2.2441283029,
			"-0.009": 1.92630060849,
			"-0.008": 1.82631279767,
			"-0.007": 3.18170604349,
			"-0.006": 10.3426618656,
			"-0.005": 12.1556373453,
			"-0.004": 11.7121550982,
			"-0.003": 11.0396892688,
			"-0.002": 10.3724392415,
			"-0.001": 12.512906927,
			"0.0": 16.1775217654,
			"0.001": 15.2883036342,
			"0.002": 16.5629092123,
			"0.003": 16.1038657075,
			"0.004": 15.3760832272,
			"0.005": 9.74630408306,
			"0.006": 2.39322993771,
			"0.007": 3.51474659422,
			"0.008": 2.32232960919,
			"0.009": 2.39008894592,
			"0.01": 3.16418410116,
			"0.011": 2.87822232642,
			"0.012": 3.15557622404,
			"0.013": 3.20992105101,
			"0.014": 1.40499242779,
			"0.015": 0.994661466117,
			"0.016": 0.0928747868243,
			"0.017": 0.0,
			"0.018": 0.0,
			"0.019": 0.0,
			"0.02": 0.0,
			"0.021": 0.0,
			"0.022": 0.0,
			"0.023": 0.0,
			"0.024": 0.0,
			"0.025": 0.0
		}
	}
}
