{
	 "smiles": "COC1=C(F)C=C(N)C=C1F", 
	 "Tm": 352.15, 
	 "num_atms": 18, 
	 "gaussian": { 
		 "optdone": 1, 
		 "sigma_profile": "yes", 
		 "theory": "DFT", 
		 "functional": "B3LYP", 
		 "basiset": "6-31G**", 
		 "properties": { 
			 "R2extent": 2223.5418, 
			 "electric_dipole_moment_norm": 2.79878971164, 
			 "electric_quadrupole_moment_norm": 13.7229981717, 
			 "total_energy": -600.583364132, 
			 "HOMO_LUMO_gap": 0.20828, 
			 "cosmo_polarized_energy": -10.15, 
			 "cosmo_cavitation_energy": 23.1, 
			 "cosmo_dispersion_energy": -16.75, 
			 "cosmo_repulsion_energy": 1.32, 
			 "cosmo_total_nonelectrostatic_energy": 7.67, 
			 "SMD_solvation_energy": 5.75 
		},
		"coords": [
			{
				"x": 2.8172859289,
				"y": -2.4287463639,
				"z": 1.4326246158,
				"element": "C" 
			},
			{
				"x": 1.4415992899,
				"y": -2.2907866939,
				"z": 1.8012268562,
				"element": "O" 
			},
			{
				"x": 0.6661918798,
				"y": -1.6148609483,
				"z": 0.8977841797,
				"element": "C" 
			},
			{
				"x": -0.3352983394,
				"y": -2.2727080846,
				"z": 0.1759588931,
				"element": "C" 
			},
			{
				"x": -0.4724202946,
				"y": -3.6000131881,
				"z": 0.3444719064,
				"element": "F" 
			},
			{
				"x": -1.1957494154,
				"y": -1.6165424234,
				"z": -0.6934823254,
				"element": "C" 
			},
			{
				"x": -1.0626505303,
				"y": -0.2316874187,
				"z": -0.8880840485,
				"element": "C" 
			},
			{
				"x": -1.8725971066,
				"y": 0.4361001019,
				"z": -1.8058775765,
				"element": "N" 
			},
			{
				"x": -0.0599708163,
				"y": 0.4600874158,
				"z": -0.1868990286,
				"element": "C" 
			},
			{
				"x": 0.7667942952,
				"y": -0.2362986232,
				"z": 0.6815739606,
				"element": "C" 
			},
			{
				"x": 1.7210218534,
				"y": 0.4416934725,
				"z": 1.3547270258,
				"element": "F" 
			},
			{
				"x": 3.290066595,
				"y": -3.0043031172,
				"z": 2.2308876376,
				"element": "H" 
			},
			{
				"x": 3.3068731432,
				"y": -1.452706869,
				"z": 1.3491698037,
				"element": "H" 
			},
			{
				"x": 2.9194103798,
				"y": -2.9713794191,
				"z": 0.4845065907,
				"element": "H" 
			},
			{
				"x": -1.9501538771,
				"y": -2.1925091266,
				"z": -1.218866686,
				"element": "H" 
			},
			{
				"x": -1.9773063858,
				"y": 1.4282985033,
				"z": -1.6458170567,
				"element": "H" 
			},
			{
				"x": -2.7574117055,
				"y": -0.0101279389,
				"z": -2.0032693493,
				"element": "H" 
			},
			{
				"x": 0.0840151059,
				"y": 1.5284907211,
				"z": -0.3079353985,
				"element": "H" 
			}
		],
		 "valence_orbital": [ 
			{
				"type": "occ",
				"energy": -0.3459,
				"method": "rhf"
			},
			{
				"type": "occ",
				"energy": -0.29694,
				"method": "rhf"
			},
			{
				"type": "occ",
				"energy": -0.27406,
				"method": "rhf"
			},
			{
				"type": "occ",
				"energy": -0.24336,
				"method": "rhf"
			},
			{
				"type": "occ",
				"energy": -0.20514,
				"method": "rhf"
			},
			{
				"type": "unocc",
				"energy": 0.00314,
				"method": "rhf"
			},
			{
				"type": "unocc",
				"energy": 0.01229,
				"method": "rhf"
			},
			{
				"type": "unocc",
				"energy": 0.06589,
				"method": "rhf"
			},
			{
				"type": "unocc",
				"energy": 0.07998,
				"method": "rhf"
			},
			{
				"type": "unocc",
				"energy": 0.11245,
				"method": "rhf"
			}
		],
		"cosmo_sigma_profile": { 
			"-0.025": 0.0,
			"-0.024": 0.0,
			"-0.023": 0.0,
			"-0.022": 0.0,
			"-0.021": 0.0,
			"-0.02": 0.0,
			"-0.019": 0.0,
			"-0.018": 0.0,
			"-0.017": 0.0,
			"-0.016": 0.0,
			"-0.015": 0.0,
			"-0.014": 0.0,
			"-0.013": 1.53194225282,
			"-0.012": 2.75158285369,
			"-0.011": 3.10739289883,
			"-0.01": 3.32907066835,
			"-0.009": 3.56146167073,
			"-0.008": 4.31551354332,
			"-0.007": 4.70679993548,
			"-0.006": 4.91092593862,
			"-0.005": 7.6151889658,
			"-0.004": 11.3421586635,
			"-0.003": 12.2544803654,
			"-0.002": 10.5348696343,
			"-0.001": 8.10268505981,
			"0.0": 8.65433473004,
			"0.001": 13.8956054357,
			"0.002": 16.6167637456,
			"0.003": 15.9451684868,
			"0.004": 23.0926348009,
			"0.005": 9.22040455275,
			"0.006": 4.11783701647,
			"0.007": 2.43694753768,
			"0.008": 2.33629700823,
			"0.009": 2.74229637237,
			"0.01": 2.3518758674,
			"0.011": 2.21965008018,
			"0.012": 1.24473880904,
			"0.013": 0.733010802831,
			"0.014": 0.34342658535,
			"0.015": 0.0,
			"0.016": 0.0,
			"0.017": 0.0,
			"0.018": 0.0,
			"0.019": 0.0,
			"0.02": 0.0,
			"0.021": 0.0,
			"0.022": 0.0,
			"0.023": 0.0,
			"0.024": 0.0,
			"0.025": 0.0
		}
	}
}
