{
	 "smiles": "CCCCCC1=CC2=C(C(O)=C1)C1=C(C=CC(C)=C1)C(C)(C)O2", 
	 "Tm": 349.95, 
	 "num_atms": 49, 
	 "gaussian": { 
		 "optdone": 1, 
		 "sigma_profile": "yes", 
		 "theory": "DFT", 
		 "functional": "B3LYP", 
		 "basiset": "6-31G**", 
		 "properties": { 
			 "R2extent": 9707.8606, 
			 "electric_dipole_moment_norm": 1.48057592173, 
			 "electric_quadrupole_moment_norm": 10.3075671557, 
			 "total_energy": -966.3957996, 
			 "HOMO_LUMO_gap": 0.1751, 
			 "cosmo_polarized_energy": -11.03, 
			 "cosmo_cavitation_energy": 48.98, 
			 "cosmo_dispersion_energy": -33.91, 
			 "cosmo_repulsion_energy": 2.63, 
			 "cosmo_total_nonelectrostatic_energy": 17.7, 
			 "SMD_solvation_energy": 7.97 
		},
		"coords": [
			{
				"x": -2.2610756972,
				"y": -4.8470715195,
				"z": -2.7727344741,
				"element": "C" 
			},
			{
				"x": -1.6728404008,
				"y": -5.1203689179,
				"z": -1.3847584506,
				"element": "C" 
			},
			{
				"x": -0.4219031681,
				"y": -4.2847175454,
				"z": -1.0841656366,
				"element": "C" 
			},
			{
				"x": 0.1735496406,
				"y": -4.5627770992,
				"z": 0.3008591345,
				"element": "C" 
			},
			{
				"x": 1.4366597876,
				"y": -3.7347245487,
				"z": 0.62779327,
				"element": "C" 
			},
			{
				"x": 1.1850401361,
				"y": -2.2463977411,
				"z": 0.7477602518,
				"element": "C" 
			},
			{
				"x": 1.5432608574,
				"y": -1.3639310516,
				"z": -0.270223203,
				"element": "C" 
			},
			{
				"x": 1.2829537851,
				"y": 0.0027262912,
				"z": -0.1410841877,
				"element": "C" 
			},
			{
				"x": 0.6318057794,
				"y": 0.5525360295,
				"z": 0.9836645745,
				"element": "C" 
			},
			{
				"x": 0.3131241379,
				"y": -0.3579333974,
				"z": 2.0179094681,
				"element": "C" 
			},
			{
				"x": -0.2640459284,
				"y": 0.1260234817,
				"z": 3.1627952868,
				"element": "O" 
			},
			{
				"x": 0.5832787405,
				"y": -1.7219463275,
				"z": 1.8983851009,
				"element": "C" 
			},
			{
				"x": 0.3021750824,
				"y": 1.9925701124,
				"z": 0.9489079682,
				"element": "C" 
			},
			{
				"x": 0.952580332,
				"y": 2.7975154532,
				"z": -0.0151036598,
				"element": "C" 
			},
			{
				"x": 0.629589756,
				"y": 4.1524157914,
				"z": -0.1076534784,
				"element": "C" 
			},
			{
				"x": -0.325792647,
				"y": 4.7254391462,
				"z": 0.7294356232,
				"element": "C" 
			},
			{
				"x": -0.9906573634,
				"y": 3.9452117411,
				"z": 1.6808257493,
				"element": "C" 
			},
			{
				"x": -2.0169772327,
				"y": 4.5565654877,
				"z": 2.606748129,
				"element": "C" 
			},
			{
				"x": -0.6719697269,
				"y": 2.587481577,
				"z": 1.7708872439,
				"element": "C" 
			},
			{
				"x": 2.0262958183,
				"y": 2.1668090006,
				"z": -0.8925960434,
				"element": "C" 
			},
			{
				"x": 3.3895950383,
				"y": 2.1679902174,
				"z": -0.1769065444,
				"element": "C" 
			},
			{
				"x": 2.1441401448,
				"y": 2.8031391822,
				"z": -2.2792098115,
				"element": "C" 
			},
			{
				"x": 1.6572243142,
				"y": 0.7908342557,
				"z": -1.1871387817,
				"element": "O" 
			},
			{
				"x": -2.5465915383,
				"y": -3.7945872529,
				"z": -2.8811005651,
				"element": "H" 
			},
			{
				"x": -1.5352898828,
				"y": -5.0738380437,
				"z": -3.5621737843,
				"element": "H" 
			},
			{
				"x": -3.1531868722,
				"y": -5.4547169923,
				"z": -2.957266074,
				"element": "H" 
			},
			{
				"x": -1.4281705996,
				"y": -6.1878101031,
				"z": -1.2942564031,
				"element": "H" 
			},
			{
				"x": -2.4342262763,
				"y": -4.918643224,
				"z": -0.6187813374,
				"element": "H" 
			},
			{
				"x": -0.6669087165,
				"y": -3.2184759957,
				"z": -1.1710226617,
				"element": "H" 
			},
			{
				"x": 0.3400812406,
				"y": -4.4845722104,
				"z": -1.8517817899,
				"element": "H" 
			},
			{
				"x": 0.4297962459,
				"y": -5.6281793336,
				"z": 0.3778159683,
				"element": "H" 
			},
			{
				"x": -0.5877481455,
				"y": -4.3740213675,
				"z": 1.069961682,
				"element": "H" 
			},
			{
				"x": 1.8608663102,
				"y": -4.1043761924,
				"z": 1.569976723,
				"element": "H" 
			},
			{
				"x": 2.1930891945,
				"y": -3.9142091911,
				"z": -0.1456256607,
				"element": "H" 
			},
			{
				"x": 2.0387940197,
				"y": -1.7104305288,
				"z": -1.1709417807,
				"element": "H" 
			},
			{
				"x": -0.4015112548,
				"y": -0.6124258838,
				"z": 3.7700417825,
				"element": "H" 
			},
			{
				"x": 0.3231115317,
				"y": -2.3849267339,
				"z": 2.7225311832,
				"element": "H" 
			},
			{
				"x": 1.1255998548,
				"y": 4.7773147333,
				"z": -0.8433503914,
				"element": "H" 
			},
			{
				"x": -0.5581227973,
				"y": 5.783545971,
				"z": 0.6365198264,
				"element": "H" 
			},
			{
				"x": -2.5763043178,
				"y": 5.3573796305,
				"z": 2.1126477892,
				"element": "H" 
			},
			{
				"x": -2.7340152205,
				"y": 3.8088220994,
				"z": 2.9581334805,
				"element": "H" 
			},
			{
				"x": -1.5411336539,
				"y": 4.9934955845,
				"z": 3.4939391517,
				"element": "H" 
			},
			{
				"x": -1.193060287,
				"y": 1.9753948401,
				"z": 2.4943897225,
				"element": "H" 
			},
			{
				"x": 3.3282115529,
				"y": 1.6477119493,
				"z": 0.7825401874,
				"element": "H" 
			},
			{
				"x": 3.7120220295,
				"y": 3.1955920066,
				"z": 0.0156228661,
				"element": "H" 
			},
			{
				"x": 4.1424626005,
				"y": 1.6712830608,
				"z": -0.7973002328,
				"element": "H" 
			},
			{
				"x": 2.8207022364,
				"y": 2.2000274639,
				"z": -2.8905397747,
				"element": "H" 
			},
			{
				"x": 2.5515699434,
				"y": 3.815321347,
				"z": -2.2201318451,
				"element": "H" 
			},
			{
				"x": 1.1696516163,
				"y": 2.8412347476,
				"z": -2.7723455908,
				"element": "H" 
			}
		],
		 "valence_orbital": [ 
			{
				"type": "occ",
				"energy": -0.28188,
				"method": "rhf"
			},
			{
				"type": "occ",
				"energy": -0.26497,
				"method": "rhf"
			},
			{
				"type": "occ",
				"energy": -0.23049,
				"method": "rhf"
			},
			{
				"type": "occ",
				"energy": -0.20954,
				"method": "rhf"
			},
			{
				"type": "occ",
				"energy": -0.19839,
				"method": "rhf"
			},
			{
				"type": "unocc",
				"energy": -0.02329,
				"method": "rhf"
			},
			{
				"type": "unocc",
				"energy": 0.00754,
				"method": "rhf"
			},
			{
				"type": "unocc",
				"energy": 0.02168,
				"method": "rhf"
			},
			{
				"type": "unocc",
				"energy": 0.04087,
				"method": "rhf"
			},
			{
				"type": "unocc",
				"energy": 0.06965,
				"method": "rhf"
			}
		],
		"cosmo_sigma_profile": { 
			"-0.025": 0.0,
			"-0.024": 0.0,
			"-0.023": 0.0,
			"-0.022": 0.0,
			"-0.021": 0.0,
			"-0.02": 0.0,
			"-0.019": 0.0,
			"-0.018": 0.197404905079,
			"-0.017": 1.14123507507,
			"-0.016": 1.15302452037,
			"-0.015": 1.00902229429,
			"-0.014": 0.6929336208,
			"-0.013": 1.19824585377,
			"-0.012": 0.682044549628,
			"-0.011": 0.786770146851,
			"-0.01": 1.20986614013,
			"-0.009": 1.07779869826,
			"-0.008": 1.07547397482,
			"-0.007": 0.878367174755,
			"-0.006": 3.3368730901,
			"-0.005": 8.20150454456,
			"-0.004": 20.4836210832,
			"-0.003": 33.0957683341,
			"-0.002": 43.3992684801,
			"-0.001": 51.3432726771,
			"0.0": 58.6944284251,
			"0.001": 42.200512484,
			"0.002": 26.1513527575,
			"0.003": 18.0704347251,
			"0.004": 21.1751803996,
			"0.005": 20.4927545303,
			"0.006": 13.3394641066,
			"0.007": 3.89934596887,
			"0.008": 2.52147356122,
			"0.009": 2.29534193633,
			"0.01": 2.24062659579,
			"0.011": 0.740350453303,
			"0.012": 0.0218347341706,
			"0.013": 0.0,
			"0.014": 0.0,
			"0.015": 0.0,
			"0.016": 0.0,
			"0.017": 0.0,
			"0.018": 0.0,
			"0.019": 0.0,
			"0.02": 0.0,
			"0.021": 0.0,
			"0.022": 0.0,
			"0.023": 0.0,
			"0.024": 0.0,
			"0.025": 0.0
		}
	}
}
