{
	 "smiles": "COC1=C(C=C(C=C1)S(=O)(=O)N1CCC2=C1C=CC=C2)C(O)=O", 
	 "Tm": 410.15, 
	 "num_atms": 38, 
	 "gaussian": { 
		 "optdone": 1, 
		 "sigma_profile": "yes", 
		 "theory": "DFT", 
		 "functional": "B3LYP", 
		 "basiset": "6-31G**", 
		 "properties": { 
			 "R2extent": 9226.9115, 
			 "electric_dipole_moment_norm": 8.79696848522, 
			 "electric_quadrupole_moment_norm": 34.3237534432, 
			 "total_energy": -1447.73312381, 
			 "HOMO_LUMO_gap": 0.15836, 
			 "cosmo_polarized_energy": -24.32, 
			 "cosmo_cavitation_energy": 42.54, 
			 "cosmo_dispersion_energy": -29.8, 
			 "cosmo_repulsion_energy": 2.22, 
			 "cosmo_total_nonelectrostatic_energy": 14.96, 
			 "SMD_solvation_energy": 7.22 
		},
		"coords": [
			{
				"x": -3.4253978983,
				"y": -2.4994835238,
				"z": -1.4937964376,
				"element": "C" 
			},
			{
				"x": -2.0837243318,
				"y": -2.5535707153,
				"z": -1.9823207582,
				"element": "O" 
			},
			{
				"x": -1.0335300256,
				"y": -2.4349494313,
				"z": -1.1123819969,
				"element": "C" 
			},
			{
				"x": 0.2678795869,
				"y": -2.5200410234,
				"z": -1.6613192521,
				"element": "C" 
			},
			{
				"x": 1.3602286218,
				"y": -2.4089347654,
				"z": -0.7963636709,
				"element": "C" 
			},
			{
				"x": 1.1743799148,
				"y": -2.2093641754,
				"z": 0.5693994219,
				"element": "C" 
			},
			{
				"x": -0.1131348597,
				"y": -2.130006802,
				"z": 1.1043259444,
				"element": "C" 
			},
			{
				"x": -1.2158564189,
				"y": -2.2436795308,
				"z": 0.2627651669,
				"element": "C" 
			},
			{
				"x": 2.5973242902,
				"y": -2.0222278177,
				"z": 1.6497623408,
				"element": "S" 
			},
			{
				"x": 2.1617102848,
				"y": -2.3928656366,
				"z": 2.996884263,
				"element": "O" 
			},
			{
				"x": 3.7418357084,
				"y": -2.6497114538,
				"z": 0.9921953321,
				"element": "O" 
			},
			{
				"x": 2.9584856035,
				"y": -0.3671031944,
				"z": 1.7053871772,
				"element": "N" 
			},
			{
				"x": 3.6330629111,
				"y": 0.2659176714,
				"z": 0.532589133,
				"element": "C" 
			},
			{
				"x": 2.7473249957,
				"y": 1.4755268018,
				"z": 0.1513430366,
				"element": "C" 
			},
			{
				"x": 1.9102157761,
				"y": 1.6846809517,
				"z": 1.3946263052,
				"element": "C" 
			},
			{
				"x": 2.033374406,
				"y": 0.5767118077,
				"z": 2.2451332507,
				"element": "C" 
			},
			{
				"x": 1.3570911282,
				"y": 0.5102847119,
				"z": 3.4633103918,
				"element": "C" 
			},
			{
				"x": 0.5258274369,
				"y": 1.5818263381,
				"z": 3.8065456483,
				"element": "C" 
			},
			{
				"x": 0.3922213093,
				"y": 2.6914440479,
				"z": 2.967994958,
				"element": "C" 
			},
			{
				"x": 1.0903362752,
				"y": 2.7476618311,
				"z": 1.7556144693,
				"element": "C" 
			},
			{
				"x": 0.6047885206,
				"y": -2.7229067218,
				"z": -3.1224345217,
				"element": "C" 
			},
			{
				"x": -0.4113140215,
				"y": -2.8781267028,
				"z": -3.9888354351,
				"element": "O" 
			},
			{
				"x": 1.7535753174,
				"y": -2.7420625685,
				"z": -3.5051230874,
				"element": "O" 
			},
			{
				"x": -3.6317116926,
				"y": -1.5329332109,
				"z": -1.0225581392,
				"element": "H" 
			},
			{
				"x": -3.6167401618,
				"y": -3.310252835,
				"z": -0.7832237323,
				"element": "H" 
			},
			{
				"x": -4.0630549877,
				"y": -2.6223684242,
				"z": -2.3690136268,
				"element": "H" 
			},
			{
				"x": 2.3524475224,
				"y": -2.5054999058,
				"z": -1.2224594115,
				"element": "H" 
			},
			{
				"x": -0.2493557869,
				"y": -1.9997814425,
				"z": 2.1715407042,
				"element": "H" 
			},
			{
				"x": -2.2108590566,
				"y": -2.1884292959,
				"z": 0.685849764,
				"element": "H" 
			},
			{
				"x": 4.6260670913,
				"y": 0.5895906028,
				"z": 0.8589506239,
				"element": "H" 
			},
			{
				"x": 3.7687515797,
				"y": -0.4567029275,
				"z": -0.2718850951,
				"element": "H" 
			},
			{
				"x": 3.3554439746,
				"y": 2.3474244956,
				"z": -0.1066645222,
				"element": "H" 
			},
			{
				"x": 2.1118533136,
				"y": 1.2553764907,
				"z": -0.7162438694,
				"element": "H" 
			},
			{
				"x": 1.483155704,
				"y": -0.3438966506,
				"z": 4.1168984593,
				"element": "H" 
			},
			{
				"x": -0.0093358449,
				"y": 1.5536154163,
				"z": 4.7513418943,
				"element": "H" 
			},
			{
				"x": -0.2472599936,
				"y": 3.5184202798,
				"z": 3.2617988178,
				"element": "H" 
			},
			{
				"x": 0.9918017621,
				"y": 3.6122622018,
				"z": 1.1045253289,
				"element": "H" 
			},
			{
				"x": -1.2613079545,
				"y": -2.8277448929,
				"z": -3.5143588754,
				"element": "H" 
			}
		],
		 "valence_orbital": [ 
			{
				"type": "occ",
				"energy": -0.28491,
				"method": "rhf"
			},
			{
				"type": "occ",
				"energy": -0.27453,
				"method": "rhf"
			},
			{
				"type": "occ",
				"energy": -0.2649,
				"method": "rhf"
			},
			{
				"type": "occ",
				"energy": -0.25528,
				"method": "rhf"
			},
			{
				"type": "occ",
				"energy": -0.22253,
				"method": "rhf"
			},
			{
				"type": "unocc",
				"energy": -0.06417,
				"method": "rhf"
			},
			{
				"type": "unocc",
				"energy": -0.04178,
				"method": "rhf"
			},
			{
				"type": "unocc",
				"energy": -0.01406,
				"method": "rhf"
			},
			{
				"type": "unocc",
				"energy": -0.00734,
				"method": "rhf"
			},
			{
				"type": "unocc",
				"energy": 0.03617,
				"method": "rhf"
			}
		],
		"cosmo_sigma_profile": { 
			"-0.025": 0.0,
			"-0.024": 0.0,
			"-0.023": 0.0,
			"-0.022": 0.0,
			"-0.021": 0.0,
			"-0.02": 0.0,
			"-0.019": 0.0,
			"-0.018": 0.0,
			"-0.017": 0.0,
			"-0.016": 0.0,
			"-0.015": 0.0,
			"-0.014": 0.0,
			"-0.013": 0.0,
			"-0.012": 0.0042695361736,
			"-0.011": 0.406634935342,
			"-0.01": 0.441757805646,
			"-0.009": 2.09944179901,
			"-0.008": 6.73031199377,
			"-0.007": 14.4577332148,
			"-0.006": 21.4010994927,
			"-0.005": 32.4479287141,
			"-0.004": 32.0561639581,
			"-0.003": 27.8044396481,
			"-0.002": 23.4057508348,
			"-0.001": 23.2276446906,
			"0.0": 23.2438618175,
			"0.001": 19.2418977484,
			"0.002": 12.6358304065,
			"0.003": 12.7284426486,
			"0.004": 16.1157650094,
			"0.005": 13.6694206364,
			"0.006": 8.08635782013,
			"0.007": 6.05529370132,
			"0.008": 6.05484095421,
			"0.009": 7.35974881342,
			"0.01": 10.8767720291,
			"0.011": 12.3194575309,
			"0.012": 5.32384008698,
			"0.013": 1.86428613203,
			"0.014": 0.154511776842,
			"0.015": 0.0,
			"0.016": 0.0,
			"0.017": 0.0,
			"0.018": 0.0,
			"0.019": 0.0,
			"0.02": 0.0,
			"0.021": 0.0,
			"0.022": 0.0,
			"0.023": 0.0,
			"0.024": 0.0,
			"0.0": 0.0
		}
	}
}
