{
	 "smiles": "OC(=O)C1=C(Cl)C2=C(S1)C=CC=C2Cl", 
	 "Tm": 547.15, 
	 "num_atms": 18, 
	 "gaussian": { 
		 "optdone": 1, 
		 "sigma_profile": "yes", 
		 "theory": "DFT", 
		 "functional": "B3LYP", 
		 "basiset": "6-31G**", 
		 "properties": { 
			 "R2extent": 4253.8048, 
			 "electric_dipole_moment_norm": 6.32616944051, 
			 "electric_quadrupole_moment_norm": 9.89717324341, 
			 "total_energy": -1814.37740616, 
			 "HOMO_LUMO_gap": 0.157, 
			 "cosmo_polarized_energy": -14.74, 
			 "cosmo_cavitation_energy": 27.57, 
			 "cosmo_dispersion_energy": -21.48, 
			 "cosmo_repulsion_energy": 1.61, 
			 "cosmo_total_nonelectrostatic_energy": 7.7, 
			 "SMD_solvation_energy": 4.89 
		},
		"coords": [
			{
				"x": -2.3148121269,
				"y": -0.4881735994,
				"z": -3.0793049063,
				"element": "O" 
			},
			{
				"x": -1.3197959113,
				"y": 0.3717418076,
				"z": -2.7278086511,
				"element": "C" 
			},
			{
				"x": -0.7272732615,
				"y": 0.974140289,
				"z": -3.5883956546,
				"element": "O" 
			},
			{
				"x": -1.0304739114,
				"y": 0.5065230695,
				"z": -1.2723422813,
				"element": "C" 
			},
			{
				"x": -0.0813380811,
				"y": 1.301178687,
				"z": -0.6717814648,
				"element": "C" 
			},
			{
				"x": 0.9789569834,
				"y": 2.3216384282,
				"z": -1.5743034956,
				"element": "Cl" 
			},
			{
				"x": -0.0558113227,
				"y": 1.2014183649,
				"z": 0.7769499185,
				"element": "C" 
			},
			{
				"x": -1.0416991774,
				"y": 0.2847166163,
				"z": 1.2350448667,
				"element": "C" 
			},
			{
				"x": -1.948119182,
				"y": -0.4110448925,
				"z": -0.0836366075,
				"element": "S" 
			},
			{
				"x": -1.2519079549,
				"y": -0.0163107206,
				"z": 2.5828985123,
				"element": "C" 
			},
			{
				"x": -0.4527503609,
				"y": 0.6160438836,
				"z": 3.5217282159,
				"element": "C" 
			},
			{
				"x": 0.5334747873,
				"y": 1.5282228944,
				"z": 3.1189887755,
				"element": "C" 
			},
			{
				"x": 0.7366623785,
				"y": 1.8225000331,
				"z": 1.7770821379,
				"element": "C" 
			},
			{
				"x": 2.0007442793,
				"y": 2.9783029663,
				"z": 1.4153772357,
				"element": "Cl" 
			},
			{
				"x": -2.7294501305,
				"y": -0.9244531771,
				"z": -2.3216828601,
				"element": "H" 
			},
			{
				"x": -2.018597047,
				"y": -0.7241396438,
				"z": 2.8796432626,
				"element": "H" 
			},
			{
				"x": -0.5858907831,
				"y": 0.4082112196,
				"z": 4.5785702489,
				"element": "H" 
			},
			{
				"x": 1.1551808223,
				"y": 2.0192837738,
				"z": 3.8585727473,
				"element": "H" 
			}
		],
		 "valence_orbital": [ 
			{
				"type": "occ",
				"energy": -0.30781,
				"method": "rhf"
			},
			{
				"type": "occ",
				"energy": -0.29095,
				"method": "rhf"
			},
			{
				"type": "occ",
				"energy": -0.27547,
				"method": "rhf"
			},
			{
				"type": "occ",
				"energy": -0.27204,
				"method": "rhf"
			},
			{
				"type": "occ",
				"energy": -0.24042,
				"method": "rhf"
			},
			{
				"type": "unocc",
				"energy": -0.08342,
				"method": "rhf"
			},
			{
				"type": "unocc",
				"energy": -0.03632,
				"method": "rhf"
			},
			{
				"type": "unocc",
				"energy": -0.03214,
				"method": "rhf"
			},
			{
				"type": "unocc",
				"energy": -0.00729,
				"method": "rhf"
			},
			{
				"type": "unocc",
				"energy": 0.0133,
				"method": "rhf"
			}
		],
		"cosmo_sigma_profile": { 
			"-0.025": 0.0,
			"-0.024": 0.0,
			"-0.023": 0.0,
			"-0.022": 0.0,
			"-0.021": 0.0,
			"-0.02": 0.0,
			"-0.019": 0.0984695313876,
			"-0.018": 0.380996141439,
			"-0.017": 1.05111360346,
			"-0.016": 0.890066823988,
			"-0.015": 0.737007976881,
			"-0.014": 0.685544101018,
			"-0.013": 1.05493711362,
			"-0.012": 1.05516406528,
			"-0.011": 0.941611687764,
			"-0.01": 1.0425596689,
			"-0.009": 3.18442762305,
			"-0.008": 6.16964636166,
			"-0.007": 8.27348902153,
			"-0.006": 8.71362162077,
			"-0.005": 7.2344630817,
			"-0.004": 7.44872460662,
			"-0.003": 10.4955841833,
			"-0.002": 17.3665565355,
			"-0.001": 22.3327709495,
			"0.0": 24.7526494244,
			"0.001": 21.7641728508,
			"0.002": 20.9058019079,
			"0.003": 16.2133877026,
			"0.004": 14.0261961075,
			"0.005": 4.44640113082,
			"0.006": 2.77836236235,
			"0.007": 3.3468643868,
			"0.008": 3.04931255214,
			"0.009": 3.86995420312,
			"0.01": 5.91437020266,
			"0.011": 5.7583377562,
			"0.012": 2.88994832178,
			"0.013": 0.236755755691,
			"0.014": 0.0,
			"0.015": 0.0,
			"0.016": 0.0,
			"0.017": 0.0,
			"0.018": 0.0,
			"0.019": 0.0,
			"0.02": 0.0,
			"0.021": 0.0,
			"0.022": 0.0,
			"0.023": 0.0,
			"0.024": 0.0,
			"0.025": 0.0
		}
	}
}
