{
	 "smiles": "CC[C@H](OC1=CC=CC=C1)C(O)=O", 
	 "Tm": 354.15, 
	 "num_atms": 25, 
	 "gaussian": { 
		 "optdone": 1, 
		 "sigma_profile": "yes", 
		 "theory": "DFT", 
		 "functional": "B3LYP", 
		 "basiset": "6-31G**", 
		 "properties": { 
			 "R2extent": 2660.3519, 
			 "electric_dipole_moment_norm": 2.40844174727, 
			 "electric_quadrupole_moment_norm": 9.65223876155, 
			 "total_energy": -613.97117047, 
			 "HOMO_LUMO_gap": 0.21876, 
			 "cosmo_polarized_energy": -11.29, 
			 "cosmo_cavitation_energy": 28.12, 
			 "cosmo_dispersion_energy": -20.16, 
			 "cosmo_repulsion_energy": 1.62, 
			 "cosmo_total_nonelectrostatic_energy": 9.58, 
			 "SMD_solvation_energy": 6.06 
		},
		"coords": [
			{
				"x": -1.8992699113,
				"y": 1.1432073769,
				"z": 1.9033955528,
				"element": "C" 
			},
			{
				"x": -0.4384940152,
				"y": 0.7666941194,
				"z": 2.1664273008,
				"element": "C" 
			},
			{
				"x": 0.5401018496,
				"y": 1.4899787208,
				"z": 1.2206707858,
				"element": "C" 
			},
			{
				"x": 0.3208605086,
				"y": 1.2683319845,
				"z": -0.1659039833,
				"element": "O" 
			},
			{
				"x": 0.0387233374,
				"y": 0.0214953419,
				"z": -0.6865840556,
				"element": "C" 
			},
			{
				"x": -0.917957795,
				"y": 0.0053260965,
				"z": -1.7093762545,
				"element": "C" 
			},
			{
				"x": -1.2440997181,
				"y": -1.1920782447,
				"z": -2.3428177354,
				"element": "C" 
			},
			{
				"x": -0.6299884058,
				"y": -2.3852358909,
				"z": -1.9544331653,
				"element": "C" 
			},
			{
				"x": 0.3256230767,
				"y": -2.3616302633,
				"z": -0.9383685251,
				"element": "C" 
			},
			{
				"x": 0.6734265241,
				"y": -1.1657932181,
				"z": -0.3049838372,
				"element": "C" 
			},
			{
				"x": 2.0023420733,
				"y": 1.263545403,
				"z": 1.6148902329,
				"element": "C" 
			},
			{
				"x": 2.2522070672,
				"y": 1.8289891753,
				"z": 2.8223673622,
				"element": "O" 
			},
			{
				"x": 2.8504930205,
				"y": 0.6881143572,
				"z": 0.9742843324,
				"element": "O" 
			},
			{
				"x": -2.556727685,
				"y": 0.6460353297,
				"z": 2.6230837252,
				"element": "H" 
			},
			{
				"x": -2.2139086521,
				"y": 0.8457453327,
				"z": 0.8998768341,
				"element": "H" 
			},
			{
				"x": -2.0526166394,
				"y": 2.2238880792,
				"z": 1.9995068738,
				"element": "H" 
			},
			{
				"x": -0.1556274969,
				"y": 1.0375858873,
				"z": 3.1887606677,
				"element": "H" 
			},
			{
				"x": -0.307110909,
				"y": -0.3163391766,
				"z": 2.0768603817,
				"element": "H" 
			},
			{
				"x": 0.3749133615,
				"y": 2.5682978034,
				"z": 1.3392924398,
				"element": "H" 
			},
			{
				"x": -1.3868523536,
				"y": 0.9418285759,
				"z": -1.9939919359,
				"element": "H" 
			},
			{
				"x": -1.9854178928,
				"y": -1.192156447,
				"z": -3.1370083188,
				"element": "H" 
			},
			{
				"x": -0.8878012269,
				"y": -3.3198038692,
				"z": -2.4432838359,
				"element": "H" 
			},
			{
				"x": 0.822902713,
				"y": -3.2801137584,
				"z": -0.6389403722,
				"element": "H" 
			},
			{
				"x": 1.4562114898,
				"y": -1.1491709898,
				"z": 0.4417100083,
				"element": "H" 
			},
			{
				"x": 3.1891676795,
				"y": 1.6556582747,
				"z": 3.0148655216,
				"element": "H" 
			}
		],
		 "valence_orbital": [ 
			{
				"type": "occ",
				"energy": -0.32146,
				"method": "rhf"
			},
			{
				"type": "occ",
				"energy": -0.30648,
				"method": "rhf"
			},
			{
				"type": "occ",
				"energy": -0.27873,
				"method": "rhf"
			},
			{
				"type": "occ",
				"energy": -0.24567,
				"method": "rhf"
			},
			{
				"type": "occ",
				"energy": -0.22159,
				"method": "rhf"
			},
			{
				"type": "unocc",
				"energy": -0.00283,
				"method": "rhf"
			},
			{
				"type": "unocc",
				"energy": 0.00287,
				"method": "rhf"
			},
			{
				"type": "unocc",
				"energy": 0.01189,
				"method": "rhf"
			},
			{
				"type": "unocc",
				"energy": 0.06776,
				"method": "rhf"
			},
			{
				"type": "unocc",
				"energy": 0.09586,
				"method": "rhf"
			}
		],
		"cosmo_sigma_profile": { 
			"-0.025": 0.0,
			"-0.024": 0.0,
			"-0.023": 0.0,
			"-0.022": 0.0,
			"-0.021": 0.0,
			"-0.02": 0.0,
			"-0.019": 0.23699183004,
			"-0.018": 0.730311778911,
			"-0.017": 0.90181808505,
			"-0.016": 1.11326465349,
			"-0.015": 0.865176099696,
			"-0.014": 0.599398108059,
			"-0.013": 0.544560218583,
			"-0.012": 0.539363720029,
			"-0.011": 0.883242400889,
			"-0.01": 1.01013311116,
			"-0.009": 0.347142414021,
			"-0.008": 1.1614616298,
			"-0.007": 4.12299726412,
			"-0.006": 7.37833915588,
			"-0.005": 12.6258364414,
			"-0.004": 16.9669199635,
			"-0.003": 22.3861054878,
			"-0.002": 19.0613556252,
			"-0.001": 19.7321960401,
			"0.0": 17.0691001375,
			"0.001": 16.7642566093,
			"0.002": 9.53240687341,
			"0.003": 10.7300713677,
			"0.004": 11.5201029799,
			"0.005": 13.34003778,
			"0.006": 9.52006052203,
			"0.007": 3.84134656999,
			"0.008": 3.75218587817,
			"0.009": 4.66326124331,
			"0.01": 4.46390302515,
			"0.011": 5.06277138807,
			"0.012": 0.827058893732,
			"0.013": 0.0,
			"0.014": 0.0,
			"0.015": 0.0,
			"0.016": 0.0,
			"0.017": 0.0,
			"0.018": 0.0,
			"0.019": 0.0,
			"0.02": 0.0,
			"0.021": 0.0,
			"0.022": 0.0,
			"0.023": 0.0,
			"0.024": 0.0,
			"0.025": 0.0
		}
	}
}
