{
	 "smiles": "CC1=C(C)C(NC2=NN=C(SCC(O)=O)S2)=CC=C1", 
	 "Tm": 433.15, 
	 "num_atms": 32, 
	 "gaussian": { 
		 "optdone": 1, 
		 "sigma_profile": "yes", 
		 "theory": "DFT", 
		 "functional": "B3LYP", 
		 "basiset": "6-31G**", 
		 "properties": { 
			 "R2extent": 10106.1113, 
			 "electric_dipole_moment_norm": 2.22135274551, 
			 "electric_quadrupole_moment_norm": 21.2358540631, 
			 "total_energy": -1576.17512672, 
			 "HOMO_LUMO_gap": 0.1744, 
			 "cosmo_polarized_energy": -19.04, 
			 "cosmo_cavitation_energy": 39.65, 
			 "cosmo_dispersion_energy": -29.28, 
			 "cosmo_repulsion_energy": 2.19, 
			 "cosmo_total_nonelectrostatic_energy": 12.56, 
			 "SMD_solvation_energy": 5.63 
		},
		"coords": [
			{
				"x": -0.8544364058,
				"y": 5.0157169878,
				"z": 0.4654741585,
				"element": "C" 
			},
			{
				"x": -0.232506326,
				"y": 3.7623975172,
				"z": -0.1111432334,
				"element": "C" 
			},
			{
				"x": -0.4282118492,
				"y": 2.5038274816,
				"z": 0.4905572232,
				"element": "C" 
			},
			{
				"x": -1.2771115513,
				"y": 2.3351018421,
				"z": 1.7302910547,
				"element": "C" 
			},
			{
				"x": 0.1890742198,
				"y": 1.3697335304,
				"z": -0.0853504046,
				"element": "C" 
			},
			{
				"x": 0.0029113395,
				"y": 0.1231072995,
				"z": 0.5492024742,
				"element": "N" 
			},
			{
				"x": 0.0418456209,
				"y": -1.1404248569,
				"z": 0.0261494779,
				"element": "C" 
			},
			{
				"x": 0.1449334277,
				"y": -2.1911377381,
				"z": 0.7985123131,
				"element": "N" 
			},
			{
				"x": 0.0330505824,
				"y": -3.3720737637,
				"z": 0.1098525481,
				"element": "N" 
			},
			{
				"x": -0.1332439748,
				"y": -3.2138165035,
				"z": -1.166171187,
				"element": "C" 
			},
			{
				"x": -0.2625058966,
				"y": -4.523580011,
				"z": -2.3408198574,
				"element": "S" 
			},
			{
				"x": -0.0995955577,
				"y": -5.927336163,
				"z": -1.1957192895,
				"element": "C" 
			},
			{
				"x": -1.3230524903,
				"y": -6.1754340278,
				"z": -0.321883388,
				"element": "C" 
			},
			{
				"x": -0.9958471838,
				"y": -7.0299038897,
				"z": 0.6748770155,
				"element": "O" 
			},
			{
				"x": -2.4332520725,
				"y": -5.7330273513,
				"z": -0.4830103503,
				"element": "O" 
			},
			{
				"x": -0.1912999906,
				"y": -1.5254431885,
				"z": -1.6888278317,
				"element": "S" 
			},
			{
				"x": 0.981731277,
				"y": 1.4886758477,
				"z": -1.2341406189,
				"element": "C" 
			},
			{
				"x": 1.1411374936,
				"y": 2.7342703566,
				"z": -1.8330437108,
				"element": "C" 
			},
			{
				"x": 0.5427874025,
				"y": 3.8601416307,
				"z": -1.2743276953,
				"element": "C" 
			},
			{
				"x": -0.5681244853,
				"y": 5.8920974267,
				"z": -0.1212820624,
				"element": "H" 
			},
			{
				"x": -1.9497535323,
				"y": 4.9665161161,
				"z": 0.4679256391,
				"element": "H" 
			},
			{
				"x": -0.5380201997,
				"y": 5.1919337005,
				"z": 1.4997327622,
				"element": "H" 
			},
			{
				"x": -1.8766513755,
				"y": 3.2216228257,
				"z": 1.9373877005,
				"element": "H" 
			},
			{
				"x": -0.6671074864,
				"y": 2.1505128763,
				"z": 2.6266144223,
				"element": "H" 
			},
			{
				"x": -1.9637651234,
				"y": 1.4879017508,
				"z": 1.6265321653,
				"element": "H" 
			},
			{
				"x": -0.0857259073,
				"y": 0.1147396452,
				"z": 1.5562934066,
				"element": "H" 
			},
			{
				"x": 0.0653957082,
				"y": -6.8057365214,
				"z": -1.8280088011,
				"element": "H" 
			},
			{
				"x": 0.7766951006,
				"y": -5.7907089019,
				"z": -0.5605859692,
				"element": "H" 
			},
			{
				"x": -1.8067050382,
				"y": -7.1642451627,
				"z": 1.1937219197,
				"element": "H" 
			},
			{
				"x": 1.4935242773,
				"y": 0.6223055782,
				"z": -1.6367295213,
				"element": "H" 
			},
			{
				"x": 1.7531250709,
				"y": 2.8264288679,
				"z": -2.7253506037,
				"element": "H" 
			},
			{
				"x": 0.6801049262,
				"y": 4.8323367986,
				"z": -1.7391297563,
				"element": "H" 
			}
		],
		 "valence_orbital": [ 
			{
				"type": "occ",
				"energy": -0.2793,
				"method": "rhf"
			},
			{
				"type": "occ",
				"energy": -0.26433,
				"method": "rhf"
			},
			{
				"type": "occ",
				"energy": -0.24476,
				"method": "rhf"
			},
			{
				"type": "occ",
				"energy": -0.2429,
				"method": "rhf"
			},
			{
				"type": "occ",
				"energy": -0.20337,
				"method": "rhf"
			},
			{
				"type": "unocc",
				"energy": -0.02897,
				"method": "rhf"
			},
			{
				"type": "unocc",
				"energy": -0.01566,
				"method": "rhf"
			},
			{
				"type": "unocc",
				"energy": -0.00158,
				"method": "rhf"
			},
			{
				"type": "unocc",
				"energy": 0.00679,
				"method": "rhf"
			},
			{
				"type": "unocc",
				"energy": 0.00888,
				"method": "rhf"
			}
		],
		"cosmo_sigma_profile": { 
			"-0.025": 0.0,
			"-0.024": 0.0,
			"-0.023": 0.0,
			"-0.022": 0.0,
			"-0.021": 0.0,
			"-0.02": 0.0,
			"-0.019": 0.286295201353,
			"-0.018": 1.10259015941,
			"-0.017": 0.933443736015,
			"-0.016": 0.898344611287,
			"-0.015": 0.570821128491,
			"-0.014": 1.16684188193,
			"-0.013": 1.25303437181,
			"-0.012": 2.10607696031,
			"-0.011": 2.10044434983,
			"-0.01": 4.63703180009,
			"-0.009": 4.34853702418,
			"-0.008": 4.66192342049,
			"-0.007": 5.32815680561,
			"-0.006": 8.28316903147,
			"-0.005": 16.4666261425,
			"-0.004": 23.0952518451,
			"-0.003": 22.0596580953,
			"-0.002": 26.2042478743,
			"-0.001": 28.5241324788,
			"0.0": 35.1255585605,
			"0.001": 21.4658450443,
			"0.002": 16.965896445,
			"0.003": 14.3369079766,
			"0.004": 13.797464854,
			"0.005": 13.7418195135,
			"0.006": 12.3403593657,
			"0.007": 5.69911519428,
			"0.008": 5.41886454833,
			"0.009": 5.14607656118,
			"0.01": 5.5578101838,
			"0.011": 7.75977110851,
			"0.012": 4.77161164779,
			"0.013": 2.09401127395,
			"0.014": 1.00599334244,
			"0.015": 0.370090224718,
			"0.016": 0.0,
			"0.017": 0.0,
			"0.018": 0.0,
			"0.019": 0.0,
			"0.02": 0.0,
			"0.021": 0.0,
			"0.022": 0.0,
			"0.023": 0.0,
			"0.024": 0.0,
			"0.025": 0.0
		}
	}
}
