{
	 "smiles": "COC(=O)C1=C(C)NC(C)=C1C=O", 
	 "Tm": 433.15, 
	 "num_atms": 24, 
	 "gaussian": { 
		 "optdone": 1, 
		 "sigma_profile": "yes", 
		 "theory": "DFT", 
		 "functional": "B3LYP", 
		 "basiset": "6-31G**", 
		 "properties": { 
			 "R2extent": 3919.4345, 
			 "electric_dipole_moment_norm": 3.47603199928, 
			 "electric_quadrupole_moment_norm": 15.8357335454, 
			 "total_energy": -630.024517074, 
			 "HOMO_LUMO_gap": 0.17936, 
			 "cosmo_polarized_energy": -16.27, 
			 "cosmo_cavitation_energy": 28.21, 
			 "cosmo_dispersion_energy": -20.24, 
			 "cosmo_repulsion_energy": 1.61, 
			 "cosmo_total_nonelectrostatic_energy": 9.57, 
			 "SMD_solvation_energy": 7.29 
		},
		"coords": [
			{
				"x": 2.7844799371,
				"y": -2.8191402707,
				"z": 3.8740726253,
				"element": "C" 
			},
			{
				"x": 2.0762820408,
				"y": -1.8362506709,
				"z": 3.1044291114,
				"element": "O" 
			},
			{
				"x": 0.9952968857,
				"y": -2.3010972281,
				"z": 2.4275051748,
				"element": "C" 
			},
			{
				"x": 0.6519952837,
				"y": -3.4716102316,
				"z": 2.4716919942,
				"element": "O" 
			},
			{
				"x": 0.3076575461,
				"y": -1.2598259635,
				"z": 1.6582405096,
				"element": "C" 
			},
			{
				"x": -0.8205994359,
				"y": -1.5470562849,
				"z": 0.9025400235,
				"element": "C" 
			},
			{
				"x": -1.5697422122,
				"y": -2.8201730795,
				"z": 0.6754135423,
				"element": "C" 
			},
			{
				"x": -1.2118900587,
				"y": -0.3671138643,
				"z": 0.3158641561,
				"element": "N" 
			},
			{
				"x": -0.3865000804,
				"y": 0.6730803306,
				"z": 0.6581284284,
				"element": "C" 
			},
			{
				"x": -0.6055944383,
				"y": 2.0584042681,
				"z": 0.145681886,
				"element": "C" 
			},
			{
				"x": 0.5878566389,
				"y": 0.1546555802,
				"z": 1.505198467,
				"element": "C" 
			},
			{
				"x": 1.6550872919,
				"y": 0.9722827376,
				"z": 2.0812012463,
				"element": "C" 
			},
			{
				"x": 1.7754329782,
				"y": 2.1733692253,
				"z": 1.8646169272,
				"element": "O" 
			},
			{
				"x": 3.1626630239,
				"y": -3.6164691284,
				"z": 3.2292362319,
				"element": "H" 
			},
			{
				"x": 2.1319944534,
				"y": -3.2611913895,
				"z": 4.6313220932,
				"element": "H" 
			},
			{
				"x": 3.6093088868,
				"y": -2.2842002914,
				"z": 4.3448536903,
				"element": "H" 
			},
			{
				"x": -1.9360150704,
				"y": -3.2346626256,
				"z": 1.6186642437,
				"element": "H" 
			},
			{
				"x": -0.9224330462,
				"y": -3.5846113817,
				"z": 0.2368772931,
				"element": "H" 
			},
			{
				"x": -2.422734933,
				"y": -2.6570245462,
				"z": 0.0083934458,
				"element": "H" 
			},
			{
				"x": -2.0119232242,
				"y": -0.2782728543,
				"z": -0.2940898909,
				"element": "H" 
			},
			{
				"x": -0.7455953818,
				"y": 2.762807026,
				"z": 0.9704606904,
				"element": "H" 
			},
			{
				"x": 0.2677878542,
				"y": 2.4127728539,
				"z": -0.4089998815,
				"element": "H" 
			},
			{
				"x": -1.4824398942,
				"y": 2.1012027014,
				"z": -0.5093135543,
				"element": "H" 
			},
			{
				"x": 2.3660249545,
				"y": 0.4419250874,
				"z": 2.7378115462,
				"element": "H" 
			}
		],
		 "valence_orbital": [ 
			{
				"type": "occ",
				"energy": -0.29614,
				"method": "rhf"
			},
			{
				"type": "occ",
				"energy": -0.26856,
				"method": "rhf"
			},
			{
				"type": "occ",
				"energy": -0.2598,
				"method": "rhf"
			},
			{
				"type": "occ",
				"energy": -0.23368,
				"method": "rhf"
			},
			{
				"type": "occ",
				"energy": -0.21862,
				"method": "rhf"
			},
			{
				"type": "unocc",
				"energy": -0.03926,
				"method": "rhf"
			},
			{
				"type": "unocc",
				"energy": -0.00544,
				"method": "rhf"
			},
			{
				"type": "unocc",
				"energy": 0.06197,
				"method": "rhf"
			},
			{
				"type": "unocc",
				"energy": 0.0649,
				"method": "rhf"
			},
			{
				"type": "unocc",
				"energy": 0.11055,
				"method": "rhf"
			}
		],
		"cosmo_sigma_profile": { 
			"-0.025": 0.0,
			"-0.024": 0.0,
			"-0.023": 0.0,
			"-0.022": 0.0,
			"-0.021": 0.0,
			"-0.02": 0.0,
			"-0.019": 0.0,
			"-0.018": 0.0,
			"-0.017": 0.121373327431,
			"-0.016": 1.22447592109,
			"-0.015": 1.33481668869,
			"-0.014": 1.78304301711,
			"-0.013": 0.99838125731,
			"-0.012": 2.1284950706,
			"-0.011": 1.47850015699,
			"-0.01": 1.01914849015,
			"-0.009": 2.38003847543,
			"-0.008": 1.54212701059,
			"-0.007": 2.16915413985,
			"-0.006": 5.95454510806,
			"-0.005": 12.5890805571,
			"-0.004": 16.4901814263,
			"-0.003": 20.8494492025,
			"-0.002": 20.8836818047,
			"-0.001": 26.5672084097,
			"0.0": 14.3060458246,
			"0.001": 16.2739973099,
			"0.002": 14.7325425118,
			"0.003": 12.390320982,
			"0.004": 8.26599944336,
			"0.005": 4.09118603618,
			"0.006": 3.22771920259,
			"0.007": 3.34804596841,
			"0.008": 3.45786766464,
			"0.009": 4.07161055975,
			"0.01": 2.43050359637,
			"0.011": 4.87337021507,
			"0.012": 5.51528561001,
			"0.013": 5.06794321228,
			"0.014": 1.55579168169,
			"0.015": 0.171140614612,
			"0.016": 0.0,
			"0.017": 0.0,
			"0.018": 0.0,
			"0.019": 0.0,
			"0.02": 0.0,
			"0.021": 0.0,
			"0.022": 0.0,
			"0.023": 0.0,
			"0.024": 0.0,
			"0.025": 0.0
		}
	}
}
