{
	 "smiles": "CC1=NN=C(SCC2=C(N3[C@H](SC2)[C@@H](NC(=O)CN2C=NN=N2)C3=O)C(O)=O)S1", 
	 "Tm": 471.15, 
	 "num_atms": 43, 
	 "gaussian": { 
		 "optdone": 1, 
		 "sigma_profile": "yes", 
		 "theory": "DFT", 
		 "functional": "B3LYP", 
		 "basiset": "6-31G**", 
		 "properties": { 
			 "R2extent": 20858.6838, 
			 "electric_dipole_moment_norm": 4.81443887592, 
			 "electric_quadrupole_moment_norm": 46.1344650875, 
			 "total_energy": -2475.29294047, 
			 "HOMO_LUMO_gap": 0.17235, 
			 "cosmo_polarized_energy": -36.94, 
			 "cosmo_cavitation_energy": 54.42, 
			 "cosmo_dispersion_energy": -38.23, 
			 "cosmo_repulsion_energy": 2.79, 
			 "cosmo_total_nonelectrostatic_energy": 18.98, 
			 "SMD_solvation_energy": 6.63 
		},
		"coords": [
			{
				"x": 0.2277733967,
				"y": 6.2677445944,
				"z": -6.0718006009,
				"element": "C" 
			},
			{
				"x": 0.0916904722,
				"y": 4.9215500448,
				"z": -5.4354329714,
				"element": "C" 
			},
			{
				"x": 1.0699263353,
				"y": 4.2908145042,
				"z": -4.8592873193,
				"element": "N" 
			},
			{
				"x": 0.7114754165,
				"y": 3.0740711233,
				"z": -4.3366910769,
				"element": "N" 
			},
			{
				"x": -0.5456079915,
				"y": 2.7840891917,
				"z": -4.5276400815,
				"element": "C" 
			},
			{
				"x": -1.3531277121,
				"y": 1.3065600552,
				"z": -4.0105695511,
				"element": "S" 
			},
			{
				"x": 0.0886588447,
				"y": 0.2911546444,
				"z": -3.399296752,
				"element": "C" 
			},
			{
				"x": 0.256423411,
				"y": 0.3183783108,
				"z": -1.9053251246,
				"element": "C" 
			},
			{
				"x": 0.0290316808,
				"y": -0.7704658404,
				"z": -1.125048462,
				"element": "C" 
			},
			{
				"x": 0.1525907558,
				"y": -0.6982387161,
				"z": 0.2708170803,
				"element": "N" 
			},
			{
				"x": 0.3539015371,
				"y": 0.5088423099,
				"z": 1.0726859934,
				"element": "C" 
			},
			{
				"x": 1.5371915521,
				"y": 1.6508422226,
				"z": 0.2713480932,
				"element": "S" 
			},
			{
				"x": 0.6496144809,
				"y": 1.6672299874,
				"z": -1.3360630159,
				"element": "C" 
			},
			{
				"x": 0.9263712231,
				"y": -0.3929890688,
				"z": 2.2097931981,
				"element": "C" 
			},
			{
				"x": 0.2474283763,
				"y": -0.4260642822,
				"z": 3.4730774296,
				"element": "N" 
			},
			{
				"x": 0.9005974881,
				"y": -0.1476807652,
				"z": 4.6371378225,
				"element": "C" 
			},
			{
				"x": 2.0668347913,
				"y": 0.2044195455,
				"z": 4.7144486712,
				"element": "O" 
			},
			{
				"x": 0.0571777021,
				"y": -0.2282099354,
				"z": 5.9251862695,
				"element": "C" 
			},
			{
				"x": -0.9837300201,
				"y": -1.247640135,
				"z": 5.9434407319,
				"element": "N" 
			},
			{
				"x": -1.1080514243,
				"y": -2.3718616358,
				"z": 6.6772545309,
				"element": "C" 
			},
			{
				"x": -2.2253684014,
				"y": -2.984482642,
				"z": 6.3387505817,
				"element": "N" 
			},
			{
				"x": -2.7878453447,
				"y": -2.2180650251,
				"z": 5.370465578,
				"element": "N" 
			},
			{
				"x": -2.0625811116,
				"y": -1.173372008,
				"z": 5.1255895796,
				"element": "N" 
			},
			{
				"x": 0.6909539841,
				"y": -1.5730060519,
				"z": 1.2267999121,
				"element": "C" 
			},
			{
				"x": 0.8995598515,
				"y": -2.7568913498,
				"z": 1.2282972402,
				"element": "O" 
			},
			{
				"x": -0.4285939881,
				"y": -2.0995674065,
				"z": -1.6508429146,
				"element": "C" 
			},
			{
				"x": -1.257547395,
				"y": -2.7078160981,
				"z": -0.7821142866,
				"element": "O" 
			},
			{
				"x": -0.1315705942,
				"y": -2.5792585301,
				"z": -2.7264428754,
				"element": "O" 
			},
			{
				"x": -1.4328287522,
				"y": 4.0289601911,
				"z": -5.3950912674,
				"element": "S" 
			},
			{
				"x": -0.4286206233,
				"y": 7.0033578424,
				"z": -5.5957428352,
				"element": "H" 
			},
			{
				"x": 1.2634338172,
				"y": 6.5946999748,
				"z": -5.9622105766,
				"element": "H" 
			},
			{
				"x": -0.0224095896,
				"y": 6.2336450954,
				"z": -7.1370537626,
				"element": "H" 
			},
			{
				"x": 0.9690546464,
				"y": 0.7067220816,
				"z": -3.8949707694,
				"element": "H" 
			},
			{
				"x": -0.0921264855,
				"y": -0.7138779248,
				"z": -3.7711352322,
				"element": "H" 
			},
			{
				"x": -0.5819222113,
				"y": 1.0230683004,
				"z": 1.3107938029,
				"element": "H" 
			},
			{
				"x": -0.2408701056,
				"y": 2.3011222851,
				"z": -1.2467771192,
				"element": "H" 
			},
			{
				"x": 1.3129114043,
				"y": 2.1763266148,
				"z": -2.0404114731,
				"element": "H" 
			},
			{
				"x": 1.9883259401,
				"y": -0.2216341952,
				"z": 2.4020858533,
				"element": "H" 
			},
			{
				"x": -0.728714196,
				"y": -0.7007302266,
				"z": 3.5152337478,
				"element": "H" 
			},
			{
				"x": -0.4096642322,
				"y": 0.7468164901,
				"z": 6.09692351,
				"element": "H" 
			},
			{
				"x": 0.7492036537,
				"y": -0.4257994821,
				"z": 6.7433270223,
				"element": "H" 
			},
			{
				"x": -0.3961886718,
				"y": -2.6962655985,
				"z": 7.4210799034,
				"element": "H" 
			},
			{
				"x": -1.4594619106,
				"y": -3.5805984923,
				"z": -1.1590884837,
				"element": "H" 
			}
		],
		 "valence_orbital": [ 
			{
				"type": "occ",
				"energy": -0.27892,
				"method": "rhf"
			},
			{
				"type": "occ",
				"energy": -0.26926,
				"method": "rhf"
			},
			{
				"type": "occ",
				"energy": -0.25204,
				"method": "rhf"
			},
			{
				"type": "occ",
				"energy": -0.24209,
				"method": "rhf"
			},
			{
				"type": "occ",
				"energy": -0.23923,
				"method": "rhf"
			},
			{
				"type": "unocc",
				"energy": -0.06688,
				"method": "rhf"
			},
			{
				"type": "unocc",
				"energy": -0.04479,
				"method": "rhf"
			},
			{
				"type": "unocc",
				"energy": -0.0426,
				"method": "rhf"
			},
			{
				"type": "unocc",
				"energy": -0.01495,
				"method": "rhf"
			},
			{
				"type": "unocc",
				"energy": -0.01115,
				"method": "rhf"
			}
		],
		"cosmo_sigma_profile": { 
			"-0.025": 0.0,
			"-0.024": 0.0,
			"-0.023": 0.0,
			"-0.022": 0.0,
			"-0.021": 0.0,
			"-0.02": 0.02433050602,
			"-0.019": 0.815373343314,
			"-0.018": 0.734351156173,
			"-0.017": 1.21180180224,
			"-0.016": 0.824559336696,
			"-0.015": 0.658554870155,
			"-0.014": 0.864298231175,
			"-0.013": 4.44734186011,
			"-0.012": 5.09292488479,
			"-0.011": 4.98680333968,
			"-0.01": 7.39530949049,
			"-0.009": 8.07855050287,
			"-0.008": 12.5221647087,
			"-0.007": 17.3789172936,
			"-0.006": 24.1133632207,
			"-0.005": 25.855544135,
			"-0.004": 25.7181249659,
			"-0.003": 28.3858898928,
			"-0.002": 33.2628198437,
			"-0.001": 28.1618258969,
			"0.0": 23.0995411916,
			"0.001": 23.1593156609,
			"0.002": 18.619999145,
			"0.003": 17.3628436163,
			"0.004": 15.8334735134,
			"0.005": 13.4413223313,
			"0.006": 12.506569754,
			"0.007": 14.1129384266,
			"0.008": 13.1564377102,
			"0.009": 13.5201907973,
			"0.01": 14.6712376184,
			"0.011": 14.7452963057,
			"0.012": 10.0620506205,
			"0.013": 5.15339240988,
			"0.014": 2.03977619761,
			"0.015": 0.388858931373,
			"0.016": 0.0,
			"0.017": 0.0,
			"0.018": 0.0,
			"0.019": 0.0,
			"0.02": 0.0,
			"0.021": 0.0,
			"0.022": 0.0,
			"0.023": 0.0,
			"0.024": 0.0,
			"0.025": 0.0
		}
	}
}
