{
	 "smiles": "CCOC(=O)OC1=C(N(C(C)=O)C2=CC(=CC=C12)[N+]([O-])=O)C1=CC=CC=C1", 
	 "Tm": 406.15, 
	 "num_atms": 43, 
	 "gaussian": { 
		 "optdone": 1, 
		 "sigma_profile": "yes", 
		 "theory": "DFT", 
		 "functional": "B3LYP", 
		 "basiset": "6-31G**", 
		 "properties": { 
			 "R2extent": 11521.0707, 
			 "electric_dipole_moment_norm": 5.13367808691, 
			 "electric_quadrupole_moment_norm": 30.8750656477, 
			 "total_energy": -1294.43184622, 
			 "HOMO_LUMO_gap": 0.13956, 
			 "cosmo_polarized_energy": -19.34, 
			 "cosmo_cavitation_energy": 48.93, 
			 "cosmo_dispersion_energy": -33.0, 
			 "cosmo_repulsion_energy": 2.52, 
			 "cosmo_total_nonelectrostatic_energy": 18.45, 
			 "SMD_solvation_energy": 12.47 
		},
		"coords": [
			{
				"x": -0.860949566,
				"y": 5.7491049967,
				"z": -3.6094275083,
				"element": "C" 
			},
			{
				"x": 0.0688222571,
				"y": 4.632504585,
				"z": -3.1786224397,
				"element": "C" 
			},
			{
				"x": -0.6393345873,
				"y": 3.8412190796,
				"z": -2.19002347,
				"element": "O" 
			},
			{
				"x": 0.0408738232,
				"y": 2.8046573096,
				"z": -1.7035540899,
				"element": "C" 
			},
			{
				"x": 1.1674255091,
				"y": 2.4735052463,
				"z": -1.9857774405,
				"element": "O" 
			},
			{
				"x": -0.7796862772,
				"y": 2.1725315435,
				"z": -0.8160094437,
				"element": "O" 
			},
			{
				"x": -0.25244346,
				"y": 1.1020644722,
				"z": -0.1200069023,
				"element": "C" 
			},
			{
				"x": -0.3409948637,
				"y": -0.2139598061,
				"z": -0.4859448962,
				"element": "C" 
			},
			{
				"x": 0.1628721468,
				"y": -0.9960176271,
				"z": 0.5845684432,
				"element": "N" 
			},
			{
				"x": 0.4442313458,
				"y": -2.3895586373,
				"z": 0.4546930489,
				"element": "C" 
			},
			{
				"x": 0.6828772631,
				"y": -3.1830104085,
				"z": 1.7212123881,
				"element": "C" 
			},
			{
				"x": 0.4576347411,
				"y": -2.9108615384,
				"z": -0.6379674201,
				"element": "O" 
			},
			{
				"x": 0.5599717694,
				"y": -0.1226025618,
				"z": 1.6215994743,
				"element": "C" 
			},
			{
				"x": 1.1306489847,
				"y": -0.3559429456,
				"z": 2.870532953,
				"element": "C" 
			},
			{
				"x": 1.4016051527,
				"y": 0.759060065,
				"z": 3.6621150883,
				"element": "C" 
			},
			{
				"x": 1.1363975084,
				"y": 2.0780964448,
				"z": 3.2654493123,
				"element": "C" 
			},
			{
				"x": 0.582496299,
				"y": 2.3037660865,
				"z": 2.0162269441,
				"element": "C" 
			},
			{
				"x": 0.3039212427,
				"y": 1.2062202353,
				"z": 1.1892072188,
				"element": "C" 
			},
			{
				"x": 1.9938121103,
				"y": 0.5268483327,
				"z": 4.9845078782,
				"element": "N" 
			},
			{
				"x": 2.2306699104,
				"y": 1.5101807154,
				"z": 5.6865168704,
				"element": "O" 
			},
			{
				"x": 2.2204407062,
				"y": -0.6386066563,
				"z": 5.3184726387,
				"element": "O" 
			},
			{
				"x": -0.9819998517,
				"y": -0.7467100235,
				"z": -1.7046775708,
				"element": "C" 
			},
			{
				"x": -2.1138118629,
				"y": -1.573086737,
				"z": -1.6196519158,
				"element": "C" 
			},
			{
				"x": -2.7556427916,
				"y": -2.0063400093,
				"z": -2.7761112592,
				"element": "C" 
			},
			{
				"x": -2.2788272376,
				"y": -1.6190968117,
				"z": -4.0315394343,
				"element": "C" 
			},
			{
				"x": -1.1578548927,
				"y": -0.7941916364,
				"z": -4.1221975372,
				"element": "C" 
			},
			{
				"x": -0.5113396228,
				"y": -0.3556586257,
				"z": -2.9657753862,
				"element": "C" 
			},
			{
				"x": -1.7780899948,
				"y": 5.3467466565,
				"z": -4.0482152794,
				"element": "H" 
			},
			{
				"x": -1.1323917561,
				"y": 6.3820452799,
				"z": -2.7600706142,
				"element": "H" 
			},
			{
				"x": -0.3633501563,
				"y": 6.3719425016,
				"z": -4.3589577922,
				"element": "H" 
			},
			{
				"x": 0.3472133656,
				"y": 3.9812892604,
				"z": -4.0126415953,
				"element": "H" 
			},
			{
				"x": 0.9908173212,
				"y": 5.0118384119,
				"z": -2.7279004179,
				"element": "H" 
			},
			{
				"x": 0.5435348639,
				"y": -4.2334484243,
				"z": 1.4653900604,
				"element": "H" 
			},
			{
				"x": 1.7128627188,
				"y": -3.0548376116,
				"z": 2.0692811544,
				"element": "H" 
			},
			{
				"x": 0.0038116243,
				"y": -2.9025239229,
				"z": 2.5292327074,
				"element": "H" 
			},
			{
				"x": 1.3689286274,
				"y": -1.3282872411,
				"z": 3.2691165458,
				"element": "H" 
			},
			{
				"x": 1.3729290753,
				"y": 2.8879617824,
				"z": 3.9429635882,
				"element": "H" 
			},
			{
				"x": 0.3654475147,
				"y": 3.3111516154,
				"z": 1.677867334,
				"element": "H" 
			},
			{
				"x": -2.4925269031,
				"y": -1.8690780223,
				"z": -0.6458309955,
				"element": "H" 
			},
			{
				"x": -3.6312334703,
				"y": -2.6442258142,
				"z": -2.6986297987,
				"element": "H" 
			},
			{
				"x": -2.7804018389,
				"y": -1.9597233905,
				"z": -4.9326867314,
				"element": "H" 
			},
			{
				"x": -0.7796953995,
				"y": -0.493182073,
				"z": -5.094905802,
				"element": "H" 
			},
			{
				"x": 0.3678286513,
				"y": 0.2767159038,
				"z": -3.0330279078,
				"element": "H" 
			}
		],
		 "valence_orbital": [ 
			{
				"type": "occ",
				"energy": -0.28806,
				"method": "rhf"
			},
			{
				"type": "occ",
				"energy": -0.26414,
				"method": "rhf"
			},
			{
				"type": "occ",
				"energy": -0.25639,
				"method": "rhf"
			},
			{
				"type": "occ",
				"energy": -0.25264,
				"method": "rhf"
			},
			{
				"type": "occ",
				"energy": -0.23085,
				"method": "rhf"
			},
			{
				"type": "unocc",
				"energy": -0.09129,
				"method": "rhf"
			},
			{
				"type": "unocc",
				"energy": -0.04198,
				"method": "rhf"
			},
			{
				"type": "unocc",
				"energy": -0.03451,
				"method": "rhf"
			},
			{
				"type": "unocc",
				"energy": -0.01036,
				"method": "rhf"
			},
			{
				"type": "unocc",
				"energy": -0.00711,
				"method": "rhf"
			}
		],
		"cosmo_sigma_profile": { 
			"-0.025": 0.0,
			"-0.024": 0.0,
			"-0.023": 0.0,
			"-0.022": 0.0,
			"-0.021": 0.0,
			"-0.02": 0.0,
			"-0.019": 0.0,
			"-0.018": 0.0,
			"-0.017": 0.0,
			"-0.016": 0.0,
			"-0.015": 0.0,
			"-0.014": 0.0,
			"-0.013": 0.0,
			"-0.012": 0.0,
			"-0.011": 0.0,
			"-0.01": 0.00524862578412,
			"-0.009": 2.40907576963,
			"-0.008": 6.12224272497,
			"-0.007": 12.706173722,
			"-0.006": 24.6224416257,
			"-0.005": 30.5877979793,
			"-0.004": 37.5564676822,
			"-0.003": 32.9712937364,
			"-0.002": 29.8992864209,
			"-0.001": 30.5908203076,
			"0.0": 31.1347026658,
			"0.001": 22.7312117045,
			"0.002": 18.7681966453,
			"0.003": 14.5056817044,
			"0.004": 15.9699538639,
			"0.005": 14.4153506084,
			"0.006": 10.4475669304,
			"0.007": 12.5527063545,
			"0.008": 15.0114867267,
			"0.009": 9.8658030861,
			"0.01": 9.04830897357,
			"0.011": 8.10164135638,
			"0.012": 1.56705175622,
			"0.013": 0.0193455183561,
			"0.014": 0.0,
			"0.015": 0.0,
			"0.016": 0.0,
			"0.017": 0.0,
			"0.018": 0.0,
			"0.019": 0.0,
			"0.02": 0.0,
			"0.021": 0.0,
			"0.022": 0.0,
			"0.023": 0.0,
			"0.024": 0.0,
			"0.025": 0.0
		}
	}
}
