{
	 "smiles": "CN1C(NN)=NN=C1C1=CC=CC=C1", 
	 "Tm": 421.15, 
	 "num_atms": 25, 
	 "gaussian": { 
		 "optdone": 1, 
		 "sigma_profile": "yes", 
		 "theory": "DFT", 
		 "functional": "B3LYP", 
		 "basiset": "6-31G**", 
		 "properties": { 
			 "R2extent": 3429.2916, 
			 "electric_dipole_moment_norm": 5.19966270541, 
			 "electric_quadrupole_moment_norm": 6.63666569898, 
			 "total_energy": -623.288640507, 
			 "HOMO_LUMO_gap": 0.1865, 
			 "cosmo_polarized_energy": -20.54, 
			 "cosmo_cavitation_energy": 28.84, 
			 "cosmo_dispersion_energy": -21.0, 
			 "cosmo_repulsion_energy": 1.64, 
			 "cosmo_total_nonelectrostatic_energy": 9.48, 
			 "SMD_solvation_energy": 2.97 
		},
		"coords": [
			{
				"x": 1.396736817,
				"y": -0.809203939,
				"z": 2.3857838399,
				"element": "C" 
			},
			{
				"x": 1.2988591156,
				"y": -0.4618448387,
				"z": 0.9765948568,
				"element": "N" 
			},
			{
				"x": 2.3688485237,
				"y": -0.3258706314,
				"z": 0.1231082544,
				"element": "C" 
			},
			{
				"x": 3.6707065153,
				"y": -0.6604132795,
				"z": 0.4993898998,
				"element": "N" 
			},
			{
				"x": 3.9863553926,
				"y": -2.0611420172,
				"z": 0.5717578633,
				"element": "N" 
			},
			{
				"x": 1.9972078256,
				"y": 0.2088266726,
				"z": -1.0186384878,
				"element": "N" 
			},
			{
				"x": 0.6460978883,
				"y": 0.4511969542,
				"z": -0.9289265165,
				"element": "N" 
			},
			{
				"x": 0.2295461255,
				"y": 0.0396449851,
				"z": 0.2538110766,
				"element": "C" 
			},
			{
				"x": -1.1649679903,
				"y": 0.1177199102,
				"z": 0.7063447425,
				"element": "C" 
			},
			{
				"x": -1.9740830075,
				"y": 1.1465875886,
				"z": 0.1921099348,
				"element": "C" 
			},
			{
				"x": -3.3098084048,
				"y": 1.2483203655,
				"z": 0.5692931197,
				"element": "C" 
			},
			{
				"x": -3.8620230523,
				"y": 0.3303297621,
				"z": 1.4673301075,
				"element": "C" 
			},
			{
				"x": -3.0700512624,
				"y": -0.7001436097,
				"z": 1.9746111291,
				"element": "C" 
			},
			{
				"x": -1.7321070264,
				"y": -0.8109516428,
				"z": 1.5946724667,
				"element": "C" 
			},
			{
				"x": 2.3935427423,
				"y": -0.5292361334,
				"z": 2.734757428,
				"element": "H" 
			},
			{
				"x": 0.6468093642,
				"y": -0.2562286142,
				"z": 2.9527173122,
				"element": "H" 
			},
			{
				"x": 1.2461149105,
				"y": -1.8813055236,
				"z": 2.5532741742,
				"element": "H" 
			},
			{
				"x": 4.3222088197,
				"y": -0.2207328009,
				"z": -0.142333577,
				"element": "H" 
			},
			{
				"x": 3.7530502481,
				"y": -2.3914631872,
				"z": 1.5034267602,
				"element": "H" 
			},
			{
				"x": 3.4278552729,
				"y": -2.5861458989,
				"z": -0.1022062664,
				"element": "H" 
			},
			{
				"x": -1.5349879784,
				"y": 1.8515719778,
				"z": -0.5052316852,
				"element": "H" 
			},
			{
				"x": -3.9219104274,
				"y": 2.0494117493,
				"z": 0.1651859119,
				"element": "H" 
			},
			{
				"x": -4.9031870222,
				"y": 0.4149895694,
				"z": 1.7645285956,
				"element": "H" 
			},
			{
				"x": -3.4952499811,
				"y": -1.42824828,
				"z": 2.6593986439,
				"element": "H" 
			},
			{
				"x": -1.1421634085,
				"y": -1.6415691384,
				"z": 1.9682404157,
				"element": "H" 
			}
		],
		 "valence_orbital": [ 
			{
				"type": "occ",
				"energy": -0.27425,
				"method": "rhf"
			},
			{
				"type": "occ",
				"energy": -0.26686,
				"method": "rhf"
			},
			{
				"type": "occ",
				"energy": -0.25834,
				"method": "rhf"
			},
			{
				"type": "occ",
				"energy": -0.24649,
				"method": "rhf"
			},
			{
				"type": "occ",
				"energy": -0.21778,
				"method": "rhf"
			},
			{
				"type": "unocc",
				"energy": -0.03128,
				"method": "rhf"
			},
			{
				"type": "unocc",
				"energy": -0.00896,
				"method": "rhf"
			},
			{
				"type": "unocc",
				"energy": 0.02668,
				"method": "rhf"
			},
			{
				"type": "unocc",
				"energy": 0.06191,
				"method": "rhf"
			},
			{
				"type": "unocc",
				"energy": 0.06449,
				"method": "rhf"
			}
		],
		"cosmo_sigma_profile": { 
			"-0.025": 0.0,
			"-0.024": 0.0,
			"-0.023": 0.0,
			"-0.022": 0.0,
			"-0.021": 0.0,
			"-0.02": 0.0,
			"-0.019": 0.0,
			"-0.018": 0.0,
			"-0.017": 0.0,
			"-0.016": 0.0,
			"-0.015": 0.0,
			"-0.014": 0.0,
			"-0.013": 0.342247697989,
			"-0.012": 1.00111612164,
			"-0.011": 3.45107645818,
			"-0.01": 3.86859078334,
			"-0.009": 5.09105057865,
			"-0.008": 5.13881289631,
			"-0.007": 9.25313074688,
			"-0.006": 16.7908117162,
			"-0.005": 19.5631411146,
			"-0.004": 20.6186598351,
			"-0.003": 15.5866658171,
			"-0.002": 11.7904619201,
			"-0.001": 9.71246125425,
			"0.0": 12.5631976235,
			"0.001": 11.1508113126,
			"0.002": 9.79239721513,
			"0.003": 11.1976618578,
			"0.004": 13.8865351198,
			"0.005": 10.7737895909,
			"0.006": 2.73367772151,
			"0.007": 3.87711951023,
			"0.008": 3.62732605044,
			"0.009": 3.27326671349,
			"0.01": 2.99829025107,
			"0.011": 2.76926463652,
			"0.012": 2.85550294588,
			"0.013": 3.51662732614,
			"0.014": 4.26912767509,
			"0.015": 3.56146627329,
			"0.016": 2.88115111243,
			"0.017": 1.55117500762,
			"0.018": 0.0414933891962,
			"0.019": 0.0,
			"0.02": 0.0,
			"0.021": 0.0,
			"0.022": 0.0,
			"0.023": 0.0,
			"0.024": 0.0,
			"0.025": 0.0
		}
	}
}
