{
	 "smiles": "NC1=C(Br)C=C(C=C1)S(F)(F)(F)(F)F", 
	 "Tm": 332.15, 
	 "num_atms": 19, 
	 "gaussian": { 
		 "optdone": 1, 
		 "sigma_profile": "yes", 
		 "theory": "DFT", 
		 "functional": "B3LYP", 
		 "basiset": "6-31G**", 
		 "properties": { 
			 "R2extent": 4854.7654, 
			 "electric_dipole_moment_norm": 5.52064387277, 
			 "electric_quadrupole_moment_norm": 7.45284443216, 
			 "total_energy": -3754.94546286, 
			 "HOMO_LUMO_gap": 0.09122, 
			 "cosmo_polarized_energy": -10.72, 
			 "cosmo_cavitation_energy": 29.96, 
			 "cosmo_dispersion_energy": -21.02, 
			 "cosmo_repulsion_energy": 1.57, 
			 "cosmo_total_nonelectrostatic_energy": 10.5, 
			 "SMD_solvation_energy": 5.76 
		},
		"coords": [
			{
				"x": 2.6991620794,
				"y": 1.4695574776,
				"z": -0.6694092613,
				"element": "N" 
			},
			{
				"x": 1.4817919848,
				"y": 0.9732683125,
				"z": -0.296847054,
				"element": "C" 
			},
			{
				"x": 1.2290787766,
				"y": -0.4156186436,
				"z": -0.2153731189,
				"element": "C" 
			},
			{
				"x": 2.6196829051,
				"y": -1.6439936451,
				"z": -0.6929070259,
				"element": "Br" 
			},
			{
				"x": 0.0054991249,
				"y": -0.9185990282,
				"z": 0.1889046632,
				"element": "C" 
			},
			{
				"x": -1.0214548673,
				"y": -0.0364092683,
				"z": 0.5498493312,
				"element": "C" 
			},
			{
				"x": -0.8042328564,
				"y": 1.3478673981,
				"z": 0.4762865373,
				"element": "C" 
			},
			{
				"x": 0.4206043287,
				"y": 1.8351929214,
				"z": 0.0546984288,
				"element": "C" 
			},
			{
				"x": -2.6210102664,
				"y": -0.6671856157,
				"z": 1.0602990962,
				"element": "S" 
			},
			{
				"x": -3.2003682988,
				"y": 0.4749034889,
				"z": -1.922138673,
				"element": "F" 
			},
			{
				"x": -2.3311246814,
				"y": -1.2395041393,
				"z": 2.5531571172,
				"element": "F" 
			},
			{
				"x": -2.2159399508,
				"y": -2.2455729726,
				"z": 0.4997116884,
				"element": "F" 
			},
			{
				"x": -3.7361716715,
				"y": 1.5382045192,
				"z": -1.171377146,
				"element": "F" 
			},
			{
				"x": -2.9937706767,
				"y": 0.8354365776,
				"z": 1.8187762044,
				"element": "F" 
			},
			{
				"x": 3.3648863301,
				"y": 0.8396406564,
				"z": -1.0907572435,
				"element": "H" 
			},
			{
				"x": 2.7666356038,
				"y": 2.4412118829,
				"z": -0.9256523041,
				"element": "H" 
			},
			{
				"x": -0.16040847,
				"y": -1.9851728259,
				"z": 0.2255615295,
				"element": "H" 
			},
			{
				"x": -1.5932477584,
				"y": 2.0318615691,
				"z": 0.7526652909,
				"element": "H" 
			},
			{
				"x": 0.5801883642,
				"y": 2.908511335,
				"z": -0.0000480604,
				"element": "H" 
			}
		],
		 "valence_orbital": [ 
			{
				"type": "occ",
				"energy": -0.32848,
				"method": "rhf"
			},
			{
				"type": "occ",
				"energy": -0.30668,
				"method": "rhf"
			},
			{
				"type": "occ",
				"energy": -0.29186,
				"method": "rhf"
			},
			{
				"type": "occ",
				"energy": -0.26389,
				"method": "rhf"
			},
			{
				"type": "occ",
				"energy": -0.23166,
				"method": "rhf"
			},
			{
				"type": "unocc",
				"energy": -0.14044,
				"method": "rhf"
			},
			{
				"type": "unocc",
				"energy": -0.05879,
				"method": "rhf"
			},
			{
				"type": "unocc",
				"energy": -0.02559,
				"method": "rhf"
			},
			{
				"type": "unocc",
				"energy": -0.01005,
				"method": "rhf"
			},
			{
				"type": "unocc",
				"energy": 0.01201,
				"method": "rhf"
			}
		],
		"cosmo_sigma_profile": { 
			"-0.025": 0.0,
			"-0.024": 0.0,
			"-0.023": 0.0,
			"-0.022": 0.0,
			"-0.021": 0.0,
			"-0.02": 0.0,
			"-0.019": 0.0,
			"-0.018": 0.0,
			"-0.017": 0.0,
			"-0.016": 0.0,
			"-0.015": 0.51793405039,
			"-0.014": 1.61589943069,
			"-0.013": 1.88069580432,
			"-0.012": 2.62020084275,
			"-0.011": 2.43539533642,
			"-0.01": 2.32378119409,
			"-0.009": 2.37570947328,
			"-0.008": 3.45015621213,
			"-0.007": 3.62587330392,
			"-0.006": 4.78083713121,
			"-0.005": 7.25917516296,
			"-0.004": 9.57586798035,
			"-0.003": 11.5615002912,
			"-0.002": 16.2812345414,
			"-0.001": 18.8333080551,
			"0.0": 31.5893308223,
			"0.001": 32.771263962,
			"0.002": 23.1391882566,
			"0.003": 22.894438214,
			"0.004": 14.9918144854,
			"0.005": 6.90284509154,
			"0.006": 8.23498242559,
			"0.007": 12.0265771769,
			"0.008": 2.3991054548,
			"0.009": 0.29077563575,
			"0.01": 0.0,
			"0.011": 0.0,
			"0.012": 0.0,
			"0.013": 0.0,
			"0.014": 0.0,
			"0.015": 0.0,
			"0.016": 0.0,
			"0.017": 0.0,
			"0.018": 0.0,
			"0.019": 0.0,
			"0.02": 0.0,
			"0.021": 0.0,
			"0.022": 0.0,
			"0.023": 0.0,
			"0.024": 0.0,
			"0.025": 0.0
		}
	}
}
