{
	 "smiles": "CCOC(=O)C1=C(CBr)C2=C(O1)C=CC=C2", 
	 "Tm": 351.15, 
	 "num_atms": 27, 
	 "gaussian": { 
		 "optdone": 1, 
		 "sigma_profile": "yes", 
		 "theory": "DFT", 
		 "functional": "B3LYP", 
		 "basiset": "6-31G**", 
		 "properties": { 
			 "R2extent": 6071.3682, 
			 "electric_dipole_moment_norm": 2.1233222153, 
			 "electric_quadrupole_moment_norm": 21.5165346994, 
			 "total_energy": -3260.99328294, 
			 "HOMO_LUMO_gap": 0.16679, 
			 "cosmo_polarized_energy": -11.04, 
			 "cosmo_cavitation_energy": 34.13, 
			 "cosmo_dispersion_energy": -24.15, 
			 "cosmo_repulsion_energy": 1.9, 
			 "cosmo_total_nonelectrostatic_energy": 11.89, 
			 "SMD_solvation_energy": 6.03 
		},
		"coords": [
			{
				"x": -3.2592274247,
				"y": 0.0278161047,
				"z": -2.8145748585,
				"element": "C" 
			},
			{
				"x": -2.077296449,
				"y": -0.9108915821,
				"z": -2.959184666,
				"element": "C" 
			},
			{
				"x": -1.0621684464,
				"y": -0.481794084,
				"z": -2.0181957612,
				"element": "O" 
			},
			{
				"x": 0.0840800997,
				"y": -1.1994027578,
				"z": -2.0321815092,
				"element": "C" 
			},
			{
				"x": 0.2826827787,
				"y": -2.1558048746,
				"z": -2.7502701733,
				"element": "O" 
			},
			{
				"x": 1.0692304072,
				"y": -0.6708534601,
				"z": -1.067770163,
				"element": "C" 
			},
			{
				"x": 1.0770798574,
				"y": 0.3778088401,
				"z": -0.1769893238,
				"element": "C" 
			},
			{
				"x": -0.0070410649,
				"y": 1.3400183609,
				"z": 0.1237682302,
				"element": "C" 
			},
			{
				"x": 0.356349837,
				"y": 3.1490282484,
				"z": -0.6679931248,
				"element": "Br" 
			},
			{
				"x": 2.3753265676,
				"y": 0.3405488586,
				"z": 0.4535391344,
				"element": "C" 
			},
			{
				"x": 3.0438447528,
				"y": -0.7558429459,
				"z": -0.1171193027,
				"element": "C" 
			},
			{
				"x": 2.2506581238,
				"y": -1.3692174123,
				"z": -1.0400102152,
				"element": "O" 
			},
			{
				"x": 4.3351735008,
				"y": -1.1381897173,
				"z": 0.2333243907,
				"element": "C" 
			},
			{
				"x": 4.9633451056,
				"y": -0.3625594494,
				"z": 1.2039697592,
				"element": "C" 
			},
			{
				"x": 4.3211003831,
				"y": 0.7477769085,
				"z": 1.7912534048,
				"element": "C" 
			},
			{
				"x": 3.0308976622,
				"y": 1.1131439512,
				"z": 1.42657755,
				"element": "C" 
			},
			{
				"x": -4.0447270904,
				"y": -0.2577113746,
				"z": -3.5210019168,
				"element": "H" 
			},
			{
				"x": -3.6763252513,
				"y": -0.0166749617,
				"z": -1.8041485832,
				"element": "H" 
			},
			{
				"x": -2.9665666684,
				"y": 1.0604849886,
				"z": -3.0243223403,
				"element": "H" 
			},
			{
				"x": -2.3429674304,
				"y": -1.9493551807,
				"z": -2.7386307393,
				"element": "H" 
			},
			{
				"x": -1.6509123598,
				"y": -0.8856451953,
				"z": -3.9664478669,
				"element": "H" 
			},
			{
				"x": -0.961238226,
				"y": 1.0394864196,
				"z": -0.2934919728,
				"element": "H" 
			},
			{
				"x": -0.089864179,
				"y": 1.5365600476,
				"z": 1.1915535563,
				"element": "H" 
			},
			{
				"x": 4.816309234,
				"y": -1.991946886,
				"z": -0.2303411437,
				"element": "H" 
			},
			{
				"x": 5.9725421562,
				"y": -0.6161482599,
				"z": 1.5138866283,
				"element": "H" 
			},
			{
				"x": 4.8510723879,
				"y": 1.3290499371,
				"z": 2.5395291157,
				"element": "H" 
			},
			{
				"x": 2.5487417362,
				"y": 1.9785154765,
				"z": 1.8700718909,
				"element": "H" 
			}
		],
		 "valence_orbital": [ 
			{
				"type": "occ",
				"energy": -0.28349,
				"method": "rhf"
			},
			{
				"type": "occ",
				"energy": -0.27429,
				"method": "rhf"
			},
			{
				"type": "occ",
				"energy": -0.27225,
				"method": "rhf"
			},
			{
				"type": "occ",
				"energy": -0.24965,
				"method": "rhf"
			},
			{
				"type": "occ",
				"energy": -0.23597,
				"method": "rhf"
			},
			{
				"type": "unocc",
				"energy": -0.06918,
				"method": "rhf"
			},
			{
				"type": "unocc",
				"energy": -0.01464,
				"method": "rhf"
			},
			{
				"type": "unocc",
				"energy": -0.0003,
				"method": "rhf"
			},
			{
				"type": "unocc",
				"energy": 0.02573,
				"method": "rhf"
			},
			{
				"type": "unocc",
				"energy": 0.08221,
				"method": "rhf"
			}
		],
		"cosmo_sigma_profile": { 
			"-0.025": 0.0,
			"-0.024": 0.0,
			"-0.023": 0.0,
			"-0.022": 0.0,
			"-0.021": 0.0,
			"-0.02": 0.0,
			"-0.019": 0.0,
			"-0.018": 0.0,
			"-0.017": 0.0,
			"-0.016": 0.0,
			"-0.015": 0.0,
			"-0.014": 0.0,
			"-0.013": 0.0,
			"-0.012": 0.0,
			"-0.011": 0.0,
			"-0.01": 0.0,
			"-0.009": 0.354646368629,
			"-0.008": 2.80825035814,
			"-0.007": 6.46382042948,
			"-0.006": 12.6859555673,
			"-0.005": 20.1360126123,
			"-0.004": 25.6474350476,
			"-0.003": 25.0509205052,
			"-0.002": 23.0161500876,
			"-0.001": 24.3637602613,
			"0.0": 21.4204224959,
			"0.001": 18.6348024636,
			"0.002": 16.6902003739,
			"0.003": 18.9307625439,
			"0.004": 17.1813664827,
			"0.005": 11.4344889868,
			"0.006": 11.643132969,
			"0.007": 2.6806952613,
			"0.008": 2.42767426827,
			"0.009": 2.20070256515,
			"0.01": 2.89260653674,
			"0.011": 5.19454631307,
			"0.012": 3.51013831777,
			"0.013": 0.499206509325,
			"0.014": 0.0,
			"0.015": 0.0,
			"0.016": 0.0,
			"0.017": 0.0,
			"0.018": 0.0,
			"0.019": 0.0,
			"0.02": 0.0,
			"0.021": 0.0,
			"0.022": 0.0,
			"0.023": 0.0,
			"0.024": 0.0,
			"0.025": 0.0
		}
	}
}
