{
	 "smiles": "O=C1NN=C(C=C1)N1C=CN=C1", 
	 "Tm": 525.15, 
	 "num_atms": 18, 
	 "gaussian": { 
		 "optdone": 1, 
		 "sigma_profile": "yes", 
		 "theory": "DFT", 
		 "functional": "B3LYP", 
		 "basiset": "6-31G**", 
		 "properties": { 
			 "R2extent": 2850.3992, 
			 "electric_dipole_moment_norm": 2.31305771869, 
			 "electric_quadrupole_moment_norm": 18.9674335112, 
			 "total_energy": -564.548117676, 
			 "HOMO_LUMO_gap": 0.15008, 
			 "cosmo_polarized_energy": -17.6, 
			 "cosmo_cavitation_energy": 23.15, 
			 "cosmo_dispersion_energy": -17.46, 
			 "cosmo_repulsion_energy": 1.36, 
			 "cosmo_total_nonelectrostatic_energy": 7.04, 
			 "SMD_solvation_energy": 3.53 
		},
		"coords": [
			{
				"x": 3.6859665792,
				"y": 0.1768321275,
				"z": 1.8241745994,
				"element": "O" 
			},
			{
				"x": 2.732743787,
				"y": -0.1174139662,
				"z": 1.1150972739,
				"element": "C" 
			},
			{
				"x": 2.9143466191,
				"y": -0.5300143544,
				"z": -0.2103418777,
				"element": "N" 
			},
			{
				"x": 1.9867323535,
				"y": -0.8842747702,
				"z": -1.1138048123,
				"element": "N" 
			},
			{
				"x": 0.7412911158,
				"y": -0.8461699306,
				"z": -0.7263705046,
				"element": "C" 
			},
			{
				"x": 0.3584764641,
				"y": -0.4465622288,
				"z": 0.6007866357,
				"element": "C" 
			},
			{
				"x": 1.3214395151,
				"y": -0.0949487852,
				"z": 1.4885900145,
				"element": "C" 
			},
			{
				"x": -0.2249863084,
				"y": -1.220497556,
				"z": -1.6840967941,
				"element": "N" 
			},
			{
				"x": -1.6087921731,
				"y": -1.2669547119,
				"z": -1.5321659877,
				"element": "C" 
			},
			{
				"x": -2.0960001491,
				"y": -1.6881633232,
				"z": -2.7378827668,
				"element": "C" 
			},
			{
				"x": -1.0688943851,
				"y": -1.9057363791,
				"z": -3.6353932917,
				"element": "N" 
			},
			{
				"x": 0.0298008582,
				"y": -1.6202350931,
				"z": -2.9831135441,
				"element": "C" 
			},
			{
				"x": 3.8705324553,
				"y": -0.5705862952,
				"z": -0.5435850748,
				"element": "H" 
			},
			{
				"x": -0.6871353929,
				"y": -0.4275768776,
				"z": 0.8852369043,
				"element": "H" 
			},
			{
				"x": 1.0889535698,
				"y": 0.2141003209,
				"z": 2.5011840938,
				"element": "H" 
			},
			{
				"x": -2.105608595,
				"y": -1.0057723002,
				"z": -0.6129420912,
				"element": "H" 
			},
			{
				"x": -3.1291152475,
				"y": -1.8478862938,
				"z": -3.0130411128,
				"element": "H" 
			},
			{
				"x": 1.0380489339,
				"y": -1.6729395829,
				"z": -3.3635316635,
				"element": "H" 
			}
		],
		 "valence_orbital": [ 
			{
				"type": "occ",
				"energy": -0.30033,
				"method": "rhf"
			},
			{
				"type": "occ",
				"energy": -0.27616,
				"method": "rhf"
			},
			{
				"type": "occ",
				"energy": -0.26653,
				"method": "rhf"
			},
			{
				"type": "occ",
				"energy": -0.25106,
				"method": "rhf"
			},
			{
				"type": "occ",
				"energy": -0.23329,
				"method": "rhf"
			},
			{
				"type": "unocc",
				"energy": -0.08321,
				"method": "rhf"
			},
			{
				"type": "unocc",
				"energy": -0.03128,
				"method": "rhf"
			},
			{
				"type": "unocc",
				"energy": 0.03725,
				"method": "rhf"
			},
			{
				"type": "unocc",
				"energy": 0.05983,
				"method": "rhf"
			},
			{
				"type": "unocc",
				"energy": 0.06529,
				"method": "rhf"
			}
		],
		"cosmo_sigma_profile": { 
			"-0.025": 0.0,
			"-0.024": 0.0,
			"-0.023": 0.0,
			"-0.022": 0.0,
			"-0.021": 0.0,
			"-0.02": 0.0,
			"-0.019": 0.0,
			"-0.018": 0.0,
			"-0.017": 0.393857336027,
			"-0.016": 1.11569943583,
			"-0.015": 1.29150396838,
			"-0.014": 0.861022801244,
			"-0.013": 0.68647264669,
			"-0.012": 1.87644548681,
			"-0.011": 3.00251503453,
			"-0.01": 3.29597548822,
			"-0.009": 4.61732332732,
			"-0.008": 6.62264577705,
			"-0.007": 7.90630922412,
			"-0.006": 7.15926452422,
			"-0.005": 7.15749680583,
			"-0.004": 12.1954609845,
			"-0.003": 13.0898781102,
			"-0.002": 13.8167420462,
			"-0.001": 16.2278691313,
			"0.0": 11.8265903727,
			"0.001": 8.78039703988,
			"0.002": 6.73372478919,
			"0.003": 7.54367265029,
			"0.004": 7.9362030584,
			"0.005": 5.58134551487,
			"0.006": 4.14258505385,
			"0.007": 3.83406054956,
			"0.008": 3.29618587567,
			"0.009": 2.72661549869,
			"0.01": 1.97786222452,
			"0.011": 2.73235435213,
			"0.012": 3.45130191515,
			"0.013": 7.25568664881,
			"0.014": 4.6729722771,
			"0.015": 1.01756977095,
			"0.016": 1.25846705281,
			"0.017": 0.928829079654,
			"0.018": 0.0978182461976,
			"0.019": 0.0,
			"0.02": 0.0,
			"0.021": 0.0,
			"0.022": 0.0,
			"0.023": 0.0,
			"0.024": 0.0,
			"0.025": 0.0
		}
	}
}
