{
	 "smiles": "CC1=CC=C(O1)C=C1N=C(OC1=O)C1=CC=CC=C1", 
	 "Tm": 433.15, 
	 "num_atms": 30, 
	 "gaussian": { 
		 "optdone": 1, 
		 "sigma_profile": "yes", 
		 "theory": "DFT", 
		 "functional": "B3LYP", 
		 "basiset": "6-31G**", 
		 "properties": { 
			 "R2extent": 7800.6, 
			 "electric_dipole_moment_norm": 2.26779742923, 
			 "electric_quadrupole_moment_norm": 25.0239836757, 
			 "total_energy": -858.636824945, 
			 "HOMO_LUMO_gap": 0.11589, 
			 "cosmo_polarized_energy": -13.38, 
			 "cosmo_cavitation_energy": 36.25, 
			 "cosmo_dispersion_energy": -26.25, 
			 "cosmo_repulsion_energy": 2.0, 
			 "cosmo_total_nonelectrostatic_energy": 11.99, 
			 "SMD_solvation_energy": 6.3 
		},
		"coords": [
			{
				"x": 4.036498491,
				"y": -1.0865983202,
				"z": 3.9478375283,
				"element": "C" 
			},
			{
				"x": 4.1470350603,
				"y": -1.0927838503,
				"z": 2.4656683825,
				"element": "C" 
			},
			{
				"x": 5.1373800065,
				"y": -1.4780658049,
				"z": 1.5938014064,
				"element": "C" 
			},
			{
				"x": 4.6390740907,
				"y": -1.2377535039,
				"z": 0.289178903,
				"element": "C" 
			},
			{
				"x": 3.3651467169,
				"y": -0.7162032424,
				"z": 0.4363484302,
				"element": "C" 
			},
			{
				"x": 3.0743061832,
				"y": -0.6319153145,
				"z": 1.774590978,
				"element": "O" 
			},
			{
				"x": 2.4417602748,
				"y": -0.308636235,
				"z": -0.5624039153,
				"element": "C" 
			},
			{
				"x": 1.1792007884,
				"y": 0.2102112298,
				"z": -0.4918672888,
				"element": "C" 
			},
			{
				"x": 0.4666483751,
				"y": 0.5351365953,
				"z": -1.6493158322,
				"element": "N" 
			},
			{
				"x": -0.6741390019,
				"y": 0.9950886122,
				"z": -1.2481861598,
				"element": "C" 
			},
			{
				"x": -0.854113232,
				"y": 1.0330080181,
				"z": 0.1145651072,
				"element": "O" 
			},
			{
				"x": 0.3331903712,
				"y": 0.5278726954,
				"z": 0.68467236,
				"element": "C" 
			},
			{
				"x": 0.4663495702,
				"y": 0.4411206586,
				"z": 1.8760320941,
				"element": "O" 
			},
			{
				"x": -1.7709213355,
				"y": 1.4699208442,
				"z": -2.0838964749,
				"element": "C" 
			},
			{
				"x": -1.6302016017,
				"y": 1.4490990501,
				"z": -3.4825959599,
				"element": "C" 
			},
			{
				"x": -2.6679722207,
				"y": 1.8988194584,
				"z": -4.2915253174,
				"element": "C" 
			},
			{
				"x": -3.8528678051,
				"y": 2.372468835,
				"z": -3.7177169932,
				"element": "C" 
			},
			{
				"x": -3.9956928319,
				"y": 2.3944341504,
				"z": -2.3286857876,
				"element": "C" 
			},
			{
				"x": -2.961074102,
				"y": 1.9457300841,
				"z": -1.510146355,
				"element": "C" 
			},
			{
				"x": 3.193265852,
				"y": -1.7017606198,
				"z": 4.2810160892,
				"element": "H" 
			},
			{
				"x": 3.8660481967,
				"y": -0.0718790833,
				"z": 4.324364935,
				"element": "H" 
			},
			{
				"x": 4.9530162959,
				"y": -1.4768171652,
				"z": 4.3952316455,
				"element": "H" 
			},
			{
				"x": 6.1012749154,
				"y": -1.8828828713,
				"z": 1.8665812242,
				"element": "H" 
			},
			{
				"x": 5.1397919421,
				"y": -1.4192095448,
				"z": -0.6514859438,
				"element": "H" 
			},
			{
				"x": 2.8144631247,
				"y": -0.4352499819,
				"z": -1.5759315367,
				"element": "H" 
			},
			{
				"x": -0.7044015955,
				"y": 1.078464414,
				"z": -3.9093243658,
				"element": "H" 
			},
			{
				"x": -2.5561178256,
				"y": 1.8814069578,
				"z": -5.3716421254,
				"element": "H" 
			},
			{
				"x": -4.6614553466,
				"y": 2.7230039999,
				"z": -4.3526639782,
				"element": "H" 
			},
			{
				"x": -4.9146561887,
				"y": 2.7617096516,
				"z": -1.8815761876,
				"element": "H" 
			},
			{
				"x": -3.0643371681,
				"y": 1.9595602826,
				"z": -0.4308248621,
				"element": "H" 
			}
		],
		 "valence_orbital": [ 
			{
				"type": "occ",
				"energy": -0.28041,
				"method": "rhf"
			},
			{
				"type": "occ",
				"energy": -0.26151,
				"method": "rhf"
			},
			{
				"type": "occ",
				"energy": -0.25894,
				"method": "rhf"
			},
			{
				"type": "occ",
				"energy": -0.25699,
				"method": "rhf"
			},
			{
				"type": "occ",
				"energy": -0.20019,
				"method": "rhf"
			},
			{
				"type": "unocc",
				"energy": -0.0843,
				"method": "rhf"
			},
			{
				"type": "unocc",
				"energy": -0.02811,
				"method": "rhf"
			},
			{
				"type": "unocc",
				"energy": -0.00666,
				"method": "rhf"
			},
			{
				"type": "unocc",
				"energy": 0.0239,
				"method": "rhf"
			},
			{
				"type": "unocc",
				"energy": 0.05805,
				"method": "rhf"
			}
		],
		"cosmo_sigma_profile": { 
			"-0.025": 0.0,
			"-0.024": 0.0,
			"-0.023": 0.0,
			"-0.022": 0.0,
			"-0.021": 0.0,
			"-0.02": 0.0,
			"-0.019": 0.0,
			"-0.018": 0.0,
			"-0.017": 0.0,
			"-0.016": 0.0,
			"-0.015": 0.0,
			"-0.014": 0.0,
			"-0.013": 0.0,
			"-0.012": 0.0,
			"-0.011": 0.0,
			"-0.01": 0.0,
			"-0.009": 1.15622816263,
			"-0.008": 5.67711010644,
			"-0.007": 6.10973809718,
			"-0.006": 19.2478817907,
			"-0.005": 21.8659647645,
			"-0.004": 22.5367247632,
			"-0.003": 21.0862655635,
			"-0.002": 22.4771493398,
			"-0.001": 19.7439935542,
			"0.0": 24.8070047478,
			"0.001": 25.387619104,
			"0.002": 24.7368410909,
			"0.003": 19.9547063838,
			"0.004": 17.3926363736,
			"0.005": 7.91128988614,
			"0.006": 4.19590672848,
			"0.007": 3.43056177154,
			"0.008": 4.33218887868,
			"0.009": 3.76133816818,
			"0.01": 3.85736016813,
			"0.011": 7.9906682997,
			"0.012": 4.31279367161,
			"0.013": 0.293538291503,
			"0.014": 0.0,
			"0.015": 0.0,
			"0.016": 0.0,
			"0.017": 0.0,
			"0.018": 0.0,
			"0.019": 0.0,
			"0.02": 0.0,
			"0.021": 0.0,
			"0.022": 0.0,
			"0.023": 0.0,
			"0.024": 0.0,
			"0.025": 0.0
		}
	}
}
