{
	 "smiles": "CC1=C(C=CC=C1)N=NC1=C2C=CC=CC2=CC=C1N", 
	 "Tm": 399.15, 
	 "num_atms": 35, 
	 "gaussian": { 
		 "optdone": 1, 
		 "sigma_profile": "yes", 
		 "theory": "DFT", 
		 "functional": "B3LYP", 
		 "basiset": "6-31G**", 
		 "properties": { 
			 "R2extent": 6818.9468, 
			 "electric_dipole_moment_norm": 2.30061471351, 
			 "electric_quadrupole_moment_norm": 17.39116921, 
			 "total_energy": -821.086663015, 
			 "HOMO_LUMO_gap": 0.11361, 
			 "cosmo_polarized_energy": -11.31, 
			 "cosmo_cavitation_energy": 38.7, 
			 "cosmo_dispersion_energy": -27.6, 
			 "cosmo_repulsion_energy": 2.07, 
			 "cosmo_total_nonelectrostatic_energy": 13.17, 
			 "SMD_solvation_energy": 5.4 
		},
		"coords": [
			{
				"x": 1.9256194674,
				"y": 1.1060417741,
				"z": -2.8308715408,
				"element": "C" 
			},
			{
				"x": 2.5999421787,
				"y": 1.5440728666,
				"z": -1.5536080433,
				"element": "C" 
			},
			{
				"x": 1.9158129399,
				"y": 1.5072125405,
				"z": -0.3161816943,
				"element": "C" 
			},
			{
				"x": 2.5567618033,
				"y": 1.9403671042,
				"z": 0.857197153,
				"element": "C" 
			},
			{
				"x": 3.8727211142,
				"y": 2.3875098406,
				"z": 0.8201739582,
				"element": "C" 
			},
			{
				"x": 4.5646193667,
				"y": 2.4066095016,
				"z": -0.3937065088,
				"element": "C" 
			},
			{
				"x": 3.9259438036,
				"y": 1.9886481134,
				"z": -1.56225541,
				"element": "C" 
			},
			{
				"x": 0.5709433776,
				"y": 1.0680318583,
				"z": -0.3515099804,
				"element": "N" 
			},
			{
				"x": 0.1152987258,
				"y": 0.6837268407,
				"z": 0.7704386528,
				"element": "N" 
			},
			{
				"x": -1.2060924184,
				"y": 0.2707344818,
				"z": 0.886014747,
				"element": "C" 
			},
			{
				"x": -2.2476381968,
				"y": 0.2583723901,
				"z": -0.1211614626,
				"element": "C" 
			},
			{
				"x": -2.0739926223,
				"y": 0.7129360514,
				"z": -1.4550134433,
				"element": "C" 
			},
			{
				"x": -3.1155959892,
				"y": 0.6723105312,
				"z": -2.3656059191,
				"element": "C" 
			},
			{
				"x": -4.3838691375,
				"y": 0.177888387,
				"z": -2.0057614345,
				"element": "C" 
			},
			{
				"x": -4.5872361377,
				"y": -0.2696274884,
				"z": -0.7170384129,
				"element": "C" 
			},
			{
				"x": -3.5445005035,
				"y": -0.2395375547,
				"z": 0.2391868651,
				"element": "C" 
			},
			{
				"x": -3.7767983043,
				"y": -0.7020371119,
				"z": 1.5670823729,
				"element": "C" 
			},
			{
				"x": -2.7956854679,
				"y": -0.6768709934,
				"z": 2.5170438834,
				"element": "C" 
			},
			{
				"x": -1.4965691828,
				"y": -0.1884494631,
				"z": 2.1987457263,
				"element": "C" 
			},
			{
				"x": -0.5466622747,
				"y": -0.1447098223,
				"z": 3.1803764251,
				"element": "N" 
			},
			{
				"x": 1.0567735642,
				"y": 1.7339500209,
				"z": -3.0558297256,
				"element": "H" 
			},
			{
				"x": 1.5585878792,
				"y": 0.0772777225,
				"z": -2.763464344,
				"element": "H" 
			},
			{
				"x": 2.6185790101,
				"y": 1.1688677844,
				"z": -3.6746259852,
				"element": "H" 
			},
			{
				"x": 1.9937898458,
				"y": 1.938989508,
				"z": 1.7837241447,
				"element": "H" 
			},
			{
				"x": 4.3555325596,
				"y": 2.7303195689,
				"z": 1.7311348879,
				"element": "H" 
			},
			{
				"x": 5.5921123424,
				"y": 2.7569308957,
				"z": -0.4331657688,
				"element": "H" 
			},
			{
				"x": 4.4649905665,
				"y": 2.0105376544,
				"z": -2.5060940071,
				"element": "H" 
			},
			{
				"x": -1.1066448333,
				"y": 1.0909634371,
				"z": -1.7479469792,
				"element": "H" 
			},
			{
				"x": -2.9468596297,
				"y": 1.0304080084,
				"z": -3.3776973265,
				"element": "H" 
			},
			{
				"x": -5.1898623228,
				"y": 0.1513488162,
				"z": -2.7330166391,
				"element": "H" 
			},
			{
				"x": -5.5578831191,
				"y": -0.6536188783,
				"z": -0.4124258999,
				"element": "H" 
			},
			{
				"x": -4.7648446697,
				"y": -1.0792708119,
				"z": 1.8187768228,
				"element": "H" 
			},
			{
				"x": -2.992264221,
				"y": -1.0227726335,
				"z": 3.5282739511,
				"element": "H" 
			},
			{
				"x": -0.6680287416,
				"y": -0.7203332383,
				"z": 3.9977327922,
				"element": "H" 
			},
			{
				"x": 0.3939992272,
				"y": 0.0524722977,
				"z": 2.8704781429,
				"element": "H" 
			}
		],
		 "valence_orbital": [ 
			{
				"type": "occ",
				"energy": -0.24172,
				"method": "rhf"
			},
			{
				"type": "occ",
				"energy": -0.23806,
				"method": "rhf"
			},
			{
				"type": "occ",
				"energy": -0.22539,
				"method": "rhf"
			},
			{
				"type": "occ",
				"energy": -0.21083,
				"method": "rhf"
			},
			{
				"type": "occ",
				"energy": -0.18895,
				"method": "rhf"
			},
			{
				"type": "unocc",
				"energy": -0.07534,
				"method": "rhf"
			},
			{
				"type": "unocc",
				"energy": -0.01686,
				"method": "rhf"
			},
			{
				"type": "unocc",
				"energy": 0.00207,
				"method": "rhf"
			},
			{
				"type": "unocc",
				"energy": 0.008,
				"method": "rhf"
			},
			{
				"type": "unocc",
				"energy": 0.03143,
				"method": "rhf"
			}
		],
		"cosmo_sigma_profile": { 
			"-0.025": 0.0,
			"-0.024": 0.0,
			"-0.023": 0.0,
			"-0.022": 0.0,
			"-0.021": 0.0,
			"-0.02": 0.0,
			"-0.019": 0.0,
			"-0.018": 0.0,
			"-0.017": 0.0,
			"-0.016": 0.0,
			"-0.015": 0.0,
			"-0.014": 0.673042191751,
			"-0.013": 1.66883175486,
			"-0.012": 1.27553140774,
			"-0.011": 1.8849997293,
			"-0.01": 1.83113492982,
			"-0.009": 2.606913971,
			"-0.008": 2.52237427262,
			"-0.007": 5.30730299704,
			"-0.006": 10.9471830222,
			"-0.005": 19.1234232011,
			"-0.004": 22.6628325767,
			"-0.003": 23.6553439958,
			"-0.002": 18.6166972877,
			"-0.001": 21.0367156172,
			"0.0": 19.6640140591,
			"0.001": 22.7818298392,
			"0.002": 23.986929736,
			"0.003": 33.404937951,
			"0.004": 33.2609683861,
			"0.005": 26.7073017028,
			"0.006": 13.0809263484,
			"0.007": 1.17714877162,
			"0.008": 0.778278963021,
			"0.009": 0.637221780599,
			"0.01": 0.467890702141,
			"0.011": 0.0484246121409,
			"0.012": 0.0,
			"0.013": 0.0,
			"0.014": 0.0,
			"0.015": 0.0,
			"0.016": 0.0,
			"0.017": 0.0,
			"0.018": 0.0,
			"0.019": 0.0,
			"0.02": 0.0,
			"0.021": 0.0,
			"0.022": 0.0,
			"0.023": 0.0,
			"0.024": 0.0,
			"0.025": 0.0
		}
	}
}
