{
	 "smiles": "NC1=NON=C1C1=CC(Cl)=CC=C1", 
	 "Tm": 407.15, 
	 "num_atms": 19, 
	 "gaussian": { 
		 "optdone": 1, 
		 "sigma_profile": "yes", 
		 "theory": "DFT", 
		 "functional": "B3LYP", 
		 "basiset": "6-31G**", 
		 "properties": { 
			 "R2extent": 3658.6134, 
			 "electric_dipole_moment_norm": 3.38195483264, 
			 "electric_quadrupole_moment_norm": 17.3102057974, 
			 "total_energy": -1008.05771198, 
			 "HOMO_LUMO_gap": 0.18809, 
			 "cosmo_polarized_energy": -12.73, 
			 "cosmo_cavitation_energy": 25.95, 
			 "cosmo_dispersion_energy": -19.36, 
			 "cosmo_repulsion_energy": 1.53, 
			 "cosmo_total_nonelectrostatic_energy": 8.12, 
			 "SMD_solvation_energy": 3.79 
		},
		"coords": [
			{
				"x": -1.8834395791,
				"y": 0.1332536036,
				"z": 0.1088745906,
				"element": "N" 
			},
			{
				"x": -1.0848296773,
				"y": 0.6446266563,
				"z": -0.89745818,
				"element": "C" 
			},
			{
				"x": -1.4731211524,
				"y": 1.6098903,
				"z": -1.6939420811,
				"element": "N" 
			},
			{
				"x": -0.4282276153,
				"y": 1.7859382403,
				"z": -2.5859438314,
				"element": "O" 
			},
			{
				"x": 0.6031339425,
				"y": 0.9387689657,
				"z": -2.3177868751,
				"element": "N" 
			},
			{
				"x": 0.2354814497,
				"y": 0.2129858296,
				"z": -1.2883012337,
				"element": "C" 
			},
			{
				"x": 1.1061826041,
				"y": -0.8163532596,
				"z": -0.7009147715,
				"element": "C" 
			},
			{
				"x": 0.552967022,
				"y": -1.9108194973,
				"z": -0.0171997127,
				"element": "C" 
			},
			{
				"x": 1.3992359166,
				"y": -2.8759151774,
				"z": 0.5256728098,
				"element": "C" 
			},
			{
				"x": 0.6969488189,
				"y": -4.2414126412,
				"z": 1.3802943541,
				"element": "Cl" 
			},
			{
				"x": 2.7841097034,
				"y": -2.7841528492,
				"z": 0.4016401883,
				"element": "C" 
			},
			{
				"x": 3.3254258949,
				"y": -1.6969283566,
				"z": -0.2889458156,
				"element": "C" 
			},
			{
				"x": 2.5012008774,
				"y": -0.7176846621,
				"z": -0.8349076483,
				"element": "C" 
			},
			{
				"x": -2.7053294027,
				"y": 0.6981221896,
				"z": 0.2856331826,
				"element": "H" 
			},
			{
				"x": -1.3868264594,
				"y": -0.0942757469,
				"z": 0.9610047059,
				"element": "H" 
			},
			{
				"x": -0.5215177635,
				"y": -2.0283877735,
				"z": 0.0636327519,
				"element": "H" 
			},
			{
				"x": 3.4217859564,
				"y": -3.5464493307,
				"z": 0.8348469023,
				"element": "H" 
			},
			{
				"x": 4.4029456806,
				"y": -1.6152507251,
				"z": -0.3938768007,
				"element": "H" 
			},
			{
				"x": 2.9228737831,
				"y": 0.1285442342,
				"z": -1.3657225354,
				"element": "H" 
			}
		],
		 "valence_orbital": [ 
			{
				"type": "occ",
				"energy": -0.31905,
				"method": "rhf"
			},
			{
				"type": "occ",
				"energy": -0.31214,
				"method": "rhf"
			},
			{
				"type": "occ",
				"energy": -0.2735,
				"method": "rhf"
			},
			{
				"type": "occ",
				"energy": -0.26167,
				"method": "rhf"
			},
			{
				"type": "occ",
				"energy": -0.24816,
				"method": "rhf"
			},
			{
				"type": "unocc",
				"energy": -0.06007,
				"method": "rhf"
			},
			{
				"type": "unocc",
				"energy": -0.02921,
				"method": "rhf"
			},
			{
				"type": "unocc",
				"energy": -0.01426,
				"method": "rhf"
			},
			{
				"type": "unocc",
				"energy": 0.01859,
				"method": "rhf"
			},
			{
				"type": "unocc",
				"energy": 0.05605,
				"method": "rhf"
			}
		],
		"cosmo_sigma_profile": { 
			"-0.025": 0.0,
			"-0.024": 0.0,
			"-0.023": 0.0,
			"-0.022": 0.0,
			"-0.021": 0.0,
			"-0.02": 0.0,
			"-0.019": 0.0,
			"-0.018": 0.0,
			"-0.017": 0.0,
			"-0.016": 0.0,
			"-0.015": 0.0878621005017,
			"-0.014": 1.93910983841,
			"-0.013": 2.64046050181,
			"-0.012": 3.38936719096,
			"-0.011": 2.98050684519,
			"-0.01": 2.61851278773,
			"-0.009": 2.01000416803,
			"-0.008": 3.17711516223,
			"-0.007": 7.36757574472,
			"-0.006": 8.27000422085,
			"-0.005": 9.68517712561,
			"-0.004": 8.6050331458,
			"-0.003": 9.57956100299,
			"-0.002": 12.1673457548,
			"-0.001": 12.6567736842,
			"0.0": 15.0222673899,
			"0.001": 18.2802403258,
			"0.002": 21.4667850513,
			"0.003": 16.3837221512,
			"0.004": 13.3711145433,
			"0.005": 8.47746659701,
			"0.006": 9.70533195495,
			"0.007": 7.86403471514,
			"0.008": 3.31816012453,
			"0.009": 3.25760849643,
			"0.01": 2.56385830722,
			"0.011": 2.28618232799,
			"0.012": 1.57367612348,
			"0.013": 0.517979361776,
			"0.014": 0.0,
			"0.015": 0.0,
			"0.016": 0.0,
			"0.017": 0.0,
			"0.018": 0.0,
			"0.019": 0.0,
			"0.02": 0.0,
			"0.021": 0.0,
			"0.022": 0.0,
			"0.023": 0.0,
			"0.024": 0.0,
			"0.025": 0.0
		}
	}
}
