{
	 "smiles": "CN1N=C(C)C(C(=O)C2=CC=C(Cl)C=C2Cl)=C1OS(=O)(=O)C1=CC=C(C)C=C1", 
	 "Tm": 391.15, 
	 "num_atms": 44, 
	 "gaussian": { 
		 "optdone": 1, 
		 "sigma_profile": "yes", 
		 "theory": "DFT", 
		 "functional": "B3LYP", 
		 "basiset": "6-31G**", 
		 "properties": { 
			 "R2extent": 11384.7699, 
			 "electric_dipole_moment_norm": 4.41224585557, 
			 "electric_quadrupole_moment_norm": 20.0013701726, 
			 "total_energy": -2462.54879652, 
			 "HOMO_LUMO_gap": 0.17811, 
			 "cosmo_polarized_energy": -17.29, 
			 "cosmo_cavitation_energy": 53.21, 
			 "cosmo_dispersion_energy": -33.47, 
			 "cosmo_repulsion_energy": 2.49, 
			 "cosmo_total_nonelectrostatic_energy": 22.23, 
			 "SMD_solvation_energy": 6.84 
		},
		"coords": [
			{
				"x": 1.4478172185,
				"y": -4.3291906709,
				"z": -1.4988730989,
				"element": "C" 
			},
			{
				"x": 0.806669833,
				"y": -3.0643533348,
				"z": -1.8190623203,
				"element": "N" 
			},
			{
				"x": 0.682768514,
				"y": -2.6829315695,
				"z": -3.1192312933,
				"element": "N" 
			},
			{
				"x": 0.0652074059,
				"y": -1.5062847086,
				"z": -3.0978203065,
				"element": "C" 
			},
			{
				"x": -0.2490915455,
				"y": -0.7938730724,
				"z": -4.3741829735,
				"element": "C" 
			},
			{
				"x": -0.2452380826,
				"y": -1.108951132,
				"z": -1.7602812392,
				"element": "C" 
			},
			{
				"x": -0.9890787232,
				"y": 0.0942248091,
				"z": -1.3844897317,
				"element": "C" 
			},
			{
				"x": -1.0074703578,
				"y": 1.0780720381,
				"z": -2.1211134397,
				"element": "O" 
			},
			{
				"x": -1.7463026435,
				"y": 0.1789188203,
				"z": -0.0772469137,
				"element": "C" 
			},
			{
				"x": -1.6243581596,
				"y": 1.3892468425,
				"z": 0.6237637711,
				"element": "C" 
			},
			{
				"x": -2.2949951944,
				"y": 1.6267158722,
				"z": 1.8172580658,
				"element": "C" 
			},
			{
				"x": -3.1382991195,
				"y": 0.6345293141,
				"z": 2.3162744713,
				"element": "C" 
			},
			{
				"x": -3.9962077417,
				"y": 0.9012322736,
				"z": 3.8229211762,
				"element": "Cl" 
			},
			{
				"x": -3.326552797,
				"y": -0.5631219922,
				"z": 1.6323339125,
				"element": "C" 
			},
			{
				"x": -2.6326639453,
				"y": -0.7795384562,
				"z": 0.4399220292,
				"element": "C" 
			},
			{
				"x": -3.0075590703,
				"y": -2.2650325243,
				"z": -0.4194546493,
				"element": "Cl" 
			},
			{
				"x": 0.2762439991,
				"y": -2.1471255148,
				"z": -0.9813067892,
				"element": "C" 
			},
			{
				"x": 0.262847015,
				"y": -2.3257252858,
				"z": 0.3684639516,
				"element": "O" 
			},
			{
				"x": 1.7167785356,
				"y": -2.0776884215,
				"z": 1.2541373956,
				"element": "S" 
			},
			{
				"x": 1.5049635863,
				"y": -2.9016838509,
				"z": 2.4326461797,
				"element": "O" 
			},
			{
				"x": 2.821637342,
				"y": -2.2934605815,
				"z": 0.3256303018,
				"element": "O" 
			},
			{
				"x": 1.6637184373,
				"y": -0.3589191885,
				"z": 1.7003226088,
				"element": "C" 
			},
			{
				"x": 2.2150089312,
				"y": 0.5885853143,
				"z": 0.8329092016,
				"element": "C" 
			},
			{
				"x": 2.2134522287,
				"y": 1.9265409683,
				"z": 1.2179692326,
				"element": "C" 
			},
			{
				"x": 1.6834788845,
				"y": 2.3268040196,
				"z": 2.4547451066,
				"element": "C" 
			},
			{
				"x": 1.7321528955,
				"y": 3.7741306893,
				"z": 2.8789478436,
				"element": "C" 
			},
			{
				"x": 1.1372828294,
				"y": 1.3490802685,
				"z": 3.2998930236,
				"element": "C" 
			},
			{
				"x": 1.1205650471,
				"y": 0.005751579,
				"z": 2.9337526882,
				"element": "C" 
			},
			{
				"x": 2.5322994607,
				"y": -4.2122221416,
				"z": -1.4524662662,
				"element": "H" 
			},
			{
				"x": 1.0819128797,
				"y": -4.6810448482,
				"z": -0.5334096089,
				"element": "H" 
			},
			{
				"x": 1.1794987518,
				"y": -5.0407238583,
				"z": -2.28013936,
				"element": "H" 
			},
			{
				"x": 0.2754229847,
				"y": 0.1640078209,
				"z": -4.4274591251,
				"element": "H" 
			},
			{
				"x": -1.3175232698,
				"y": -0.5685653284,
				"z": -4.4480599814,
				"element": "H" 
			},
			{
				"x": 0.0462272,
				"y": -1.4186576561,
				"z": -5.2199088294,
				"element": "H" 
			},
			{
				"x": -0.9792151153,
				"y": 2.1517951213,
				"z": 0.2018028901,
				"element": "H" 
			},
			{
				"x": -2.1763225492,
				"y": 2.5636728255,
				"z": 2.3487555942,
				"element": "H" 
			},
			{
				"x": -4.0122695689,
				"y": -1.3128032671,
				"z": 2.0069001055,
				"element": "H" 
			},
			{
				"x": 2.6489413362,
				"y": 0.2800186206,
				"z": -0.1113404808,
				"element": "H" 
			},
			{
				"x": 2.6405082971,
				"y": 2.6706703715,
				"z": 0.5515140898,
				"element": "H" 
			},
			{
				"x": 2.6888174905,
				"y": 4.00330135,
				"z": 3.364335014,
				"element": "H" 
			},
			{
				"x": 0.9394268302,
				"y": 4.0099946808,
				"z": 3.594195312,
				"element": "H" 
			},
			{
				"x": 1.6343066019,
				"y": 4.4465669833,
				"z": 2.0218658598,
				"element": "H" 
			},
			{
				"x": 0.7233797211,
				"y": 1.6419770136,
				"z": 4.2606089955,
				"element": "H" 
			},
			{
				"x": 0.7104136268,
				"y": -0.7510401925,
				"z": 3.5927775865,
				"element": "H" 
			}
		],
		 "valence_orbital": [ 
			{
				"type": "occ",
				"energy": -0.27069,
				"method": "rhf"
			},
			{
				"type": "occ",
				"energy": -0.2607,
				"method": "rhf"
			},
			{
				"type": "occ",
				"energy": -0.2536,
				"method": "rhf"
			},
			{
				"type": "occ",
				"energy": -0.249,
				"method": "rhf"
			},
			{
				"type": "occ",
				"energy": -0.24833,
				"method": "rhf"
			},
			{
				"type": "unocc",
				"energy": -0.07022,
				"method": "rhf"
			},
			{
				"type": "unocc",
				"energy": -0.05827,
				"method": "rhf"
			},
			{
				"type": "unocc",
				"energy": -0.03758,
				"method": "rhf"
			},
			{
				"type": "unocc",
				"energy": -0.02916,
				"method": "rhf"
			},
			{
				"type": "unocc",
				"energy": -0.02053,
				"method": "rhf"
			}
		],
		"cosmo_sigma_profile": { 
			"-0.025": 0.0,
			"-0.024": 0.0,
			"-0.023": 0.0,
			"-0.022": 0.0,
			"-0.021": 0.0,
			"-0.02": 0.0,
			"-0.019": 0.0,
			"-0.018": 0.0,
			"-0.017": 0.0,
			"-0.016": 0.0,
			"-0.015": 0.0,
			"-0.014": 0.0,
			"-0.013": 0.0,
			"-0.012": 0.0,
			"-0.011": 0.0,
			"-0.01": 0.0,
			"-0.009": 0.526817464539,
			"-0.008": 4.35445735071,
			"-0.007": 12.5138257585,
			"-0.006": 20.9680542081,
			"-0.005": 26.7438026935,
			"-0.004": 32.2720636172,
			"-0.003": 31.2912753445,
			"-0.002": 35.8175646403,
			"-0.001": 47.1205120614,
			"0.0": 41.6315293493,
			"0.001": 40.3559973426,
			"0.002": 32.5298731192,
			"0.003": 23.2560492028,
			"0.004": 21.794551221,
			"0.005": 9.36975054648,
			"0.006": 8.506127257,
			"0.007": 7.72351628464,
			"0.008": 9.38088438575,
			"0.009": 9.43799361661,
			"0.01": 4.36699499276,
			"0.011": 4.55955536052,
			"0.012": 3.05440417419,
			"0.013": 1.25924617385,
			"0.014": 0.572088711383,
			"0.015": 0.30992092122,
			"0.016": 0.0,
			"0.017": 0.0,
			"0.018": 0.0,
			"0.019": 0.0,
			"0.02": 0.0,
			"0.021": 0.0,
			"0.022": 0.0,
			"0.023": 0.0,
			"0.024": 0.0,
			"0.025": 0.0
		}
	}
}
