{
	 "smiles": "CCCCC#N", 
	 "Tm": 177.05, 
	 "num_atms": 15, 
	 "gaussian": { 
		 "optdone": 1, 
		 "sigma_profile": "yes", 
		 "theory": "DFT", 
		 "functional": "B3LYP", 
		 "basiset": "6-31G**", 
		 "properties": { 
			 "R2extent": 1062.1268, 
			 "electric_dipole_moment_norm": 4.19372543689, 
			 "electric_quadrupole_moment_norm": 16.7495666687, 
			 "total_energy": -250.702290568, 
			 "HOMO_LUMO_gap": 0.35253, 
			 "cosmo_polarized_energy": -8.16, 
			 "cosmo_cavitation_energy": 18.57, 
			 "cosmo_dispersion_energy": -13.08, 
			 "cosmo_repulsion_energy": 1.16, 
			 "cosmo_total_nonelectrostatic_energy": 6.64, 
			 "SMD_solvation_energy": 4.66 
		},
		"coords": [
			{
				"x": 1.4885484966,
				"y": 0.3549533279,
				"z": -1.3875706996,
				"element": "C" 
			},
			{
				"x": 0.4206104191,
				"y": 0.8728094145,
				"z": -0.4168005293,
				"element": "C" 
			},
			{
				"x": 0.490157204,
				"y": 0.2673638407,
				"z": 0.9934426956,
				"element": "C" 
			},
			{
				"x": 0.1812333733,
				"y": -1.2460271508,
				"z": 1.0207055751,
				"element": "C" 
			},
			{
				"x": 0.2022130365,
				"y": -1.8000639323,
				"z": 2.3768193424,
				"element": "C" 
			},
			{
				"x": 0.2232089799,
				"y": -2.2223721654,
				"z": 3.4579235052,
				"element": "N" 
			},
			{
				"x": 1.4238428036,
				"y": 0.8720528418,
				"z": -2.3499797927,
				"element": "H" 
			},
			{
				"x": 2.4965354319,
				"y": 0.518713587,
				"z": -0.9897234959,
				"element": "H" 
			},
			{
				"x": 1.3812773503,
				"y": -0.7162246022,
				"z": -1.5893504559,
				"element": "H" 
			},
			{
				"x": -0.5786719365,
				"y": 0.6971571232,
				"z": -0.8379595353,
				"element": "H" 
			},
			{
				"x": 0.5208648795,
				"y": 1.9607725444,
				"z": -0.3223198637,
				"element": "H" 
			},
			{
				"x": 1.4849177111,
				"y": 0.4349168218,
				"z": 1.4234223084,
				"element": "H" 
			},
			{
				"x": -0.2233978927,
				"y": 0.779576461,
				"z": 1.6481034122,
				"element": "H" 
			},
			{
				"x": -0.8078226413,
				"y": -1.4374715926,
				"z": 0.585875563,
				"element": "H" 
			},
			{
				"x": 0.9049827847,
				"y": -1.803156519,
				"z": 0.4155119706,
				"element": "H" 
			}
		],
		 "valence_orbital": [ 
			{
				"type": "occ",
				"energy": -0.35217,
				"method": "rhf"
			},
			{
				"type": "occ",
				"energy": -0.34894,
				"method": "rhf"
			},
			{
				"type": "occ",
				"energy": -0.34619,
				"method": "rhf"
			},
			{
				"type": "occ",
				"energy": -0.31873,
				"method": "rhf"
			},
			{
				"type": "occ",
				"energy": -0.31499,
				"method": "rhf"
			},
			{
				"type": "unocc",
				"energy": 0.03754,
				"method": "rhf"
			},
			{
				"type": "unocc",
				"energy": 0.04197,
				"method": "rhf"
			},
			{
				"type": "unocc",
				"energy": 0.07427,
				"method": "rhf"
			},
			{
				"type": "unocc",
				"energy": 0.10806,
				"method": "rhf"
			},
			{
				"type": "unocc",
				"energy": 0.11544,
				"method": "rhf"
			}
		],
		"cosmo_sigma_profile": { 
			"-0.025": 0.0,
			"-0.024": 0.0,
			"-0.023": 0.0,
			"-0.022": 0.0,
			"-0.021": 0.0,
			"-0.02": 0.0,
			"-0.019": 0.0,
			"-0.018": 0.0,
			"-0.017": 0.0,
			"-0.016": 0.0,
			"-0.015": 0.0,
			"-0.014": 0.0,
			"-0.013": 0.0,
			"-0.012": 0.0,
			"-0.011": 0.0,
			"-0.01": 0.0,
			"-0.009": 0.0,
			"-0.008": 0.88030563558,
			"-0.007": 4.90973822763,
			"-0.006": 5.71834037498,
			"-0.005": 7.60018755972,
			"-0.004": 14.6953848789,
			"-0.003": 16.5298204706,
			"-0.002": 18.1723779401,
			"-0.001": 18.3562081521,
			"0.0": 14.4369245075,
			"0.001": 10.7498681745,
			"0.002": 3.82703118801,
			"0.003": 1.36468838282,
			"0.004": 2.10115960044,
			"0.005": 1.96870236172,
			"0.006": 2.6542504114,
			"0.007": 2.54669907522,
			"0.008": 3.15384146808,
			"0.009": 3.49800490624,
			"0.01": 3.53923645106,
			"0.011": 3.05856315652,
			"0.012": 2.80015425891,
			"0.013": 2.2986172906,
			"0.014": 0.868021533357,
			"0.015": 0.0,
			"0.016": 0.0,
			"0.017": 0.0,
			"0.018": 0.0,
			"0.019": 0.0,
			"0.02": 0.0,
			"0.021": 0.0,
			"0.022": 0.0,
			"0.023": 0.0,
			"0.024": 0.0,
			"0.025": 0.0
		}
	}
}
