{
	 "smiles": "OC(=O)C1=CC=CC=C1N1C=CN=C1", 
	 "Tm": 472.15, 
	 "num_atms": 22, 
	 "gaussian": { 
		 "optdone": 1, 
		 "sigma_profile": "yes", 
		 "theory": "DFT", 
		 "functional": "B3LYP", 
		 "basiset": "6-31G**", 
		 "properties": { 
			 "R2extent": 2911.0873, 
			 "electric_dipole_moment_norm": 5.20313287741, 
			 "electric_quadrupole_moment_norm": 16.1583179948, 
			 "total_energy": -645.83231085, 
			 "HOMO_LUMO_gap": 0.1576, 
			 "cosmo_polarized_energy": -16.49, 
			 "cosmo_cavitation_energy": 26.82, 
			 "cosmo_dispersion_energy": -19.41, 
			 "cosmo_repulsion_energy": 1.51, 
			 "cosmo_total_nonelectrostatic_energy": 8.92, 
			 "SMD_solvation_energy": 4.94 
		},
		"coords": [
			{
				"x": 2.2795094884,
				"y": 1.2157478561,
				"z": 0.6863079746,
				"element": "O" 
			},
			{
				"x": 1.3892911851,
				"y": 0.2351307521,
				"z": 0.9960017745,
				"element": "C" 
			},
			{
				"x": 1.1618168761,
				"y": -0.0762616213,
				"z": 2.1451897936,
				"element": "O" 
			},
			{
				"x": 0.7977192999,
				"y": -0.390304957,
				"z": -0.2243659713,
				"element": "C" 
			},
			{
				"x": 1.4581262773,
				"y": -0.2282826016,
				"z": -1.4539779338,
				"element": "C" 
			},
			{
				"x": 1.0305253805,
				"y": -0.889135962,
				"z": -2.6012581881,
				"element": "C" 
			},
			{
				"x": -0.0857080408,
				"y": -1.7231340555,
				"z": -2.5381414287,
				"element": "C" 
			},
			{
				"x": -0.7760262707,
				"y": -1.8705542942,
				"z": -1.3375973403,
				"element": "C" 
			},
			{
				"x": -0.3498036059,
				"y": -1.2152112174,
				"z": -0.1757126454,
				"element": "C" 
			},
			{
				"x": -1.1233151624,
				"y": -1.4126900584,
				"z": 0.9982971999,
				"element": "N" 
			},
			{
				"x": -1.7300226034,
				"y": -0.4574546235,
				"z": 1.7996093904,
				"element": "C" 
			},
			{
				"x": -2.4454725876,
				"y": -1.1585387095,
				"z": 2.7318337085,
				"element": "C" 
			},
			{
				"x": -2.2991389462,
				"y": -2.5182987621,
				"z": 2.5436944062,
				"element": "N" 
			},
			{
				"x": -1.5142200326,
				"y": -2.6369495149,
				"z": 1.5016680921,
				"element": "C" 
			},
			{
				"x": 2.6371672253,
				"y": 1.5167896737,
				"z": 1.5379011934,
				"element": "H" 
			},
			{
				"x": 2.331478147,
				"y": 0.41137636,
				"z": -1.4889496643,
				"element": "H" 
			},
			{
				"x": 1.5658475624,
				"y": -0.7546462321,
				"z": -3.5357611214,
				"element": "H" 
			},
			{
				"x": -0.4346708462,
				"y": -2.2434838067,
				"z": -3.4250163188,
				"element": "H" 
			},
			{
				"x": -1.6742053104,
				"y": -2.4769272496,
				"z": -1.2893088409,
				"element": "H" 
			},
			{
				"x": -1.5972529671,
				"y": 0.5977375311,
				"z": 1.6248235671,
				"element": "H" 
			},
			{
				"x": -3.0590685656,
				"y": -0.7627763719,
				"z": 3.5291566984,
				"element": "H" 
			},
			{
				"x": -1.1593765028,
				"y": -3.5620321353,
				"z": 1.0683056545,
				"element": "H" 
			}
		],
		 "valence_orbital": [ 
			{
				"type": "occ",
				"energy": -0.2838,
				"method": "rhf"
			},
			{
				"type": "occ",
				"energy": -0.27801,
				"method": "rhf"
			},
			{
				"type": "occ",
				"energy": -0.26046,
				"method": "rhf"
			},
			{
				"type": "occ",
				"energy": -0.24954,
				"method": "rhf"
			},
			{
				"type": "occ",
				"energy": -0.22107,
				"method": "rhf"
			},
			{
				"type": "unocc",
				"energy": -0.06347,
				"method": "rhf"
			},
			{
				"type": "unocc",
				"energy": -0.02941,
				"method": "rhf"
			},
			{
				"type": "unocc",
				"energy": 0.03476,
				"method": "rhf"
			},
			{
				"type": "unocc",
				"energy": 0.03937,
				"method": "rhf"
			},
			{
				"type": "unocc",
				"energy": 0.06866,
				"method": "rhf"
			}
		],
		"cosmo_sigma_profile": { 
			"-0.025": 0.0,
			"-0.024": 0.0,
			"-0.023": 0.0,
			"-0.022": 0.0,
			"-0.021": 0.0,
			"-0.02": 0.0,
			"-0.019": 0.0900352880534,
			"-0.018": 0.820606430974,
			"-0.017": 0.921110215516,
			"-0.016": 0.743477951415,
			"-0.015": 1.34822683609,
			"-0.014": 0.604112054325,
			"-0.013": 0.113447765622,
			"-0.012": 0.243673931033,
			"-0.011": 1.17800169284,
			"-0.01": 0.658904589074,
			"-0.009": 2.13721952967,
			"-0.008": 5.41903328571,
			"-0.007": 11.6733844662,
			"-0.006": 16.5360128918,
			"-0.005": 12.8612530309,
			"-0.004": 11.8236407287,
			"-0.003": 13.3172770057,
			"-0.002": 12.544655011,
			"-0.001": 13.3822952585,
			"0.0": 13.5309380744,
			"0.001": 14.9701586951,
			"0.002": 16.3692624948,
			"0.003": 11.4824953932,
			"0.004": 6.24943324802,
			"0.005": 7.67730765612,
			"0.006": 6.51173859859,
			"0.007": 4.71658505638,
			"0.008": 4.41191377457,
			"0.009": 3.78575792975,
			"0.01": 3.34047086617,
			"0.011": 5.92959654064,
			"0.012": 4.07873201695,
			"0.013": 1.59409323997,
			"0.014": 0.844726271662,
			"0.015": 0.97189871456,
			"0.016": 1.34443837462,
			"0.017": 1.04141665952,
			"0.018": 0.497568984907,
			"0.019": 0.0,
			"0.02": 0.0,
			"0.021": 0.0,
			"0.022": 0.0,
			"0.023": 0.0,
			"0.024": 0.0,
			"0.025": 0.0
		}
	}
}
