{
	 "smiles": "SC1=NN=C(N2CCCC2)N1C1=C(Cl)C=CC=C1", 
	 "Tm": 290.15, 
	 "num_atms": 31, 
	 "gaussian": { 
		 "optdone": 1, 
		 "sigma_profile": "yes", 
		 "theory": "DFT", 
		 "functional": "B3LYP", 
		 "basiset": "6-31G**", 
		 "properties": { 
			 "R2extent": 6153.8762, 
			 "electric_dipole_moment_norm": 5.94967849972, 
			 "electric_quadrupole_moment_norm": 13.6663735779, 
			 "total_energy": -1542.45951056, 
			 "HOMO_LUMO_gap": 0.15261, 
			 "cosmo_polarized_energy": -16.36, 
			 "cosmo_cavitation_energy": 38.13, 
			 "cosmo_dispersion_energy": -26.01, 
			 "cosmo_repulsion_energy": 2.0, 
			 "cosmo_total_nonelectrostatic_energy": 14.11, 
			 "SMD_solvation_energy": 2.41 
		},
		"coords": [
			{
				"x": -2.1043080477,
				"y": -4.1151578623,
				"z": 1.2464685763,
				"element": "S" 
			},
			{
				"x": -1.901291226,
				"y": -2.3647352711,
				"z": 1.4023803605,
				"element": "C" 
			},
			{
				"x": -2.4483968241,
				"y": -1.595396241,
				"z": 2.2974539149,
				"element": "N" 
			},
			{
				"x": -2.0070973356,
				"y": -0.299036006,
				"z": 2.0567470052,
				"element": "N" 
			},
			{
				"x": -1.1943010464,
				"y": -0.3328530747,
				"z": 1.023834579,
				"element": "C" 
			},
			{
				"x": -0.4912854382,
				"y": 0.7375861535,
				"z": 0.5225625979,
				"element": "N" 
			},
			{
				"x": -0.662900715,
				"y": 2.0301931665,
				"z": 1.2323388694,
				"element": "C" 
			},
			{
				"x": -0.6035648282,
				"y": 3.0912224558,
				"z": 0.1214657615,
				"element": "C" 
			},
			{
				"x": 0.1746383436,
				"y": 2.3986440834,
				"z": -1.0071914118,
				"element": "C" 
			},
			{
				"x": -0.327561688,
				"y": 0.9535809429,
				"z": -0.9292866736,
				"element": "C" 
			},
			{
				"x": -1.0838002234,
				"y": -1.6383621953,
				"z": 0.5439376448,
				"element": "N" 
			},
			{
				"x": -0.1812077965,
				"y": -2.1756195411,
				"z": -0.4176473808,
				"element": "C" 
			},
			{
				"x": -0.6027094833,
				"y": -2.5186754149,
				"z": -1.7132420769,
				"element": "C" 
			},
			{
				"x": -2.2573497009,
				"y": -2.2498268043,
				"z": -2.2092427704,
				"element": "Cl" 
			},
			{
				"x": 0.3001561895,
				"y": -3.0608682114,
				"z": -2.6289654176,
				"element": "C" 
			},
			{
				"x": 1.6303853101,
				"y": -3.2547316955,
				"z": -2.2587246046,
				"element": "C" 
			},
			{
				"x": 2.062550531,
				"y": -2.9113862265,
				"z": -0.9762424539,
				"element": "C" 
			},
			{
				"x": 1.1572871222,
				"y": -2.3796233095,
				"z": -0.0612300493,
				"element": "C" 
			},
			{
				"x": -2.9460906794,
				"y": -4.1649191105,
				"z": 2.2961713596,
				"element": "H" 
			},
			{
				"x": -1.6072576577,
				"y": 2.040922184,
				"z": 1.7814022266,
				"element": "H" 
			},
			{
				"x": 0.1483346183,
				"y": 2.153012952,
				"z": 1.9605336647,
				"element": "H" 
			},
			{
				"x": -0.1378767602,
				"y": 4.0209637108,
				"z": 0.4591921636,
				"element": "H" 
			},
			{
				"x": -1.6164264089,
				"y": 3.3325631235,
				"z": -0.2201163837,
				"element": "H" 
			},
			{
				"x": 0.0025885939,
				"y": 2.8421339758,
				"z": -1.9916092185,
				"element": "H" 
			},
			{
				"x": 1.2513906791,
				"y": 2.4295492537,
				"z": -0.8053265925,
				"element": "H" 
			},
			{
				"x": 0.3843062984,
				"y": 0.2440978257,
				"z": -1.3578792105,
				"element": "H" 
			},
			{
				"x": -1.2840380698,
				"y": 0.840009229,
				"z": -1.4621027016,
				"element": "H" 
			},
			{
				"x": -0.0449965731,
				"y": -3.3221440206,
				"z": -3.6229962875,
				"element": "H" 
			},
			{
				"x": 2.3274521897,
				"y": -3.6753578908,
				"z": -2.9769241118,
				"element": "H" 
			},
			{
				"x": 3.0972749382,
				"y": -3.0634685747,
				"z": -0.686668516,
				"element": "H" 
			},
			{
				"x": 1.4680956881,
				"y": -2.1119176064,
				"z": 0.9432071371,
				"element": "H" 
			}
		],
		 "valence_orbital": [ 
			{
				"type": "occ",
				"energy": -0.28027,
				"method": "rhf"
			},
			{
				"type": "occ",
				"energy": -0.26602,
				"method": "rhf"
			},
			{
				"type": "occ",
				"energy": -0.25634,
				"method": "rhf"
			},
			{
				"type": "occ",
				"energy": -0.24051,
				"method": "rhf"
			},
			{
				"type": "occ",
				"energy": -0.19229,
				"method": "rhf"
			},
			{
				"type": "unocc",
				"energy": -0.03968,
				"method": "rhf"
			},
			{
				"type": "unocc",
				"energy": -0.03255,
				"method": "rhf"
			},
			{
				"type": "unocc",
				"energy": 0.01494,
				"method": "rhf"
			},
			{
				"type": "unocc",
				"energy": 0.02006,
				"method": "rhf"
			},
			{
				"type": "unocc",
				"energy": 0.03393,
				"method": "rhf"
			}
		],
		"cosmo_sigma_profile": { 
			"-0.025": 0.0,
			"-0.024": 0.0,
			"-0.023": 0.0,
			"-0.022": 0.0,
			"-0.021": 0.0,
			"-0.02": 0.0,
			"-0.019": 0.0,
			"-0.018": 0.0,
			"-0.017": 0.0,
			"-0.016": 0.0,
			"-0.015": 0.0,
			"-0.014": 0.0,
			"-0.013": 0.0167591047433,
			"-0.012": 1.10212039056,
			"-0.011": 1.72960640509,
			"-0.01": 1.2187340929,
			"-0.009": 1.00343549085,
			"-0.008": 2.69446022568,
			"-0.007": 7.9878404581,
			"-0.006": 9.47575837659,
			"-0.005": 11.6202899878,
			"-0.004": 19.1919316062,
			"-0.003": 41.5993716202,
			"-0.002": 36.5670226733,
			"-0.001": 29.3162480677,
			"0.0": 27.8561194272,
			"0.001": 23.0275571962,
			"0.002": 25.4938316131,
			"0.003": 17.4317357903,
			"0.004": 11.2400259507,
			"0.005": 6.28329756306,
			"0.006": 5.47693703684,
			"0.007": 3.6743803178,
			"0.008": 1.69961523848,
			"0.009": 2.78022972165,
			"0.01": 1.37271673488,
			"0.011": 2.10361891883,
			"0.012": 2.37950911157,
			"0.013": 3.44078559968,
			"0.014": 3.90327748171,
			"0.015": 2.57205405067,
			"0.016": 2.14392375573,
			"0.017": 0.390965197994,
			"0.018": 0.0,
			"0.019": 0.0,
			"0.02": 0.0,
			"0.021": 0.0,
			"0.022": 0.0,
			"0.023": 0.0,
			"0.024": 0.0,
			"0.025": 0.0
		}
	}
}
