{
	 "smiles": "OC(=O)C1=CNN=N1", 
	 "Tm": 486.15, 
	 "num_atms": 11, 
	 "gaussian": { 
		 "optdone": 1, 
		 "sigma_profile": "yes", 
		 "theory": "DFT", 
		 "functional": "B3LYP", 
		 "basiset": "6-31G**", 
		 "properties": { 
			 "R2extent": 1156.2482, 
			 "electric_dipole_moment_norm": 5.8872618593, 
			 "electric_quadrupole_moment_norm": 5.22616921559, 
			 "total_energy": -430.792546428, 
			 "HOMO_LUMO_gap": 0.24359, 
			 "cosmo_polarized_energy": -21.42, 
			 "cosmo_cavitation_energy": 16.63, 
			 "cosmo_dispersion_energy": -12.55, 
			 "cosmo_repulsion_energy": 1.07, 
			 "cosmo_total_nonelectrostatic_energy": 5.15, 
			 "SMD_solvation_energy": 3.32 
		},
		"coords": [
			{
				"x": 1.1282939633,
				"y": 1.5511424919,
				"z": -2.7393000662,
				"element": "O" 
			},
			{
				"x": 0.2196253976,
				"y": 0.816370989,
				"z": -2.0404549032,
				"element": "C" 
			},
			{
				"x": -0.7404910979,
				"y": 0.2909639813,
				"z": -2.5535158268,
				"element": "O" 
			},
			{
				"x": 0.5794492665,
				"y": 0.7637149227,
				"z": -0.6123916013,
				"element": "C" 
			},
			{
				"x": 1.6588270901,
				"y": 1.3404742178,
				"z": 0.0300996617,
				"element": "C" 
			},
			{
				"x": 1.4938292861,
				"y": 0.972996949,
				"z": 1.316799312,
				"element": "N" 
			},
			{
				"x": 0.3775340516,
				"y": 0.2096722807,
				"z": 1.4790272697,
				"element": "N" 
			},
			{
				"x": -0.170837629,
				"y": 0.0860014998,
				"z": 0.3123876831,
				"element": "N" 
			},
			{
				"x": 0.824753921,
				"y": 1.538123861,
				"z": -3.6620864874,
				"element": "H" 
			},
			{
				"x": 2.4764082816,
				"y": 1.947080504,
				"z": -0.3244185391,
				"element": "H" 
			},
			{
				"x": 2.0686074693,
				"y": 1.1872583028,
				"z": 2.1197534975,
				"element": "H" 
			}
		],
		 "valence_orbital": [ 
			{
				"type": "occ",
				"energy": -0.33003,
				"method": "rhf"
			},
			{
				"type": "occ",
				"energy": -0.31805,
				"method": "rhf"
			},
			{
				"type": "occ",
				"energy": -0.284,
				"method": "rhf"
			},
			{
				"type": "occ",
				"energy": -0.28215,
				"method": "rhf"
			},
			{
				"type": "occ",
				"energy": -0.28175,
				"method": "rhf"
			},
			{
				"type": "unocc",
				"energy": -0.03816,
				"method": "rhf"
			},
			{
				"type": "unocc",
				"energy": -0.01779,
				"method": "rhf"
			},
			{
				"type": "unocc",
				"energy": 0.0563,
				"method": "rhf"
			},
			{
				"type": "unocc",
				"energy": 0.07477,
				"method": "rhf"
			},
			{
				"type": "unocc",
				"energy": 0.10588,
				"method": "rhf"
			}
		],
		"cosmo_sigma_profile": { 
			"-0.025": 0.0,
			"-0.024": 0.0,
			"-0.023": 0.0,
			"-0.022": 0.0,
			"-0.021": 0.0,
			"-0.02": 0.00539419903335,
			"-0.019": 1.74166625555,
			"-0.018": 2.71660421238,
			"-0.017": 2.26656849111,
			"-0.016": 2.08769037245,
			"-0.015": 1.55833598688,
			"-0.014": 1.48227767932,
			"-0.013": 1.91798117956,
			"-0.012": 3.46010487363,
			"-0.011": 3.18380630349,
			"-0.01": 3.35518036602,
			"-0.009": 2.56978494881,
			"-0.008": 2.11456183288,
			"-0.007": 2.82713185945,
			"-0.006": 2.28107237968,
			"-0.005": 2.49377125835,
			"-0.004": 3.37175107246,
			"-0.003": 6.90560117912,
			"-0.002": 10.2702923305,
			"-0.001": 9.6625258437,
			"0.0": 5.14605594549,
			"0.001": 3.97479272584,
			"0.002": 3.14347399973,
			"0.003": 3.79282918313,
			"0.004": 4.32456676468,
			"0.005": 3.88804656379,
			"0.006": 4.22546293222,
			"0.007": 5.38418866564,
			"0.008": 3.76563529201,
			"0.009": 4.82893424873,
			"0.01": 6.45334106424,
			"0.011": 7.63550631011,
			"0.012": 5.0087345157,
			"0.013": 3.62336086911,
			"0.014": 1.57440341698,
			"0.015": 0.612482915176,
			"0.016": 0.0,
			"0.017": 0.0,
			"0.018": 0.0,
			"0.019": 0.0,
			"0.02": 0.0,
			"0.021": 0.0,
			"0.022": 0.0,
			"0.023": 0.0,
			"0.024": 0.0,
			"0.025": 0.0
		}
	}
}
