{
	 "smiles": "CC(C)(C)OC(=O)N1CCC(CC#N)CC1", 
	 "Tm": 346.15, 
	 "num_atms": 36, 
	 "gaussian": { 
		 "optdone": 1, 
		 "sigma_profile": "yes", 
		 "theory": "DFT", 
		 "functional": "B3LYP", 
		 "basiset": "6-31G**", 
		 "properties": { 
			 "R2extent": 4699.3116, 
			 "electric_dipole_moment_norm": 2.14981790392, 
			 "electric_quadrupole_moment_norm": 23.6632447448, 
			 "total_energy": -729.307045823, 
			 "HOMO_LUMO_gap": 0.26737, 
			 "cosmo_polarized_energy": -14.01, 
			 "cosmo_cavitation_energy": 36.97, 
			 "cosmo_dispersion_energy": -24.79, 
			 "cosmo_repulsion_energy": 1.95, 
			 "cosmo_total_nonelectrostatic_energy": 14.13, 
			 "SMD_solvation_energy": 8.03 
		},
		"coords": [
			{
				"x": -0.3948100331,
				"y": -4.1478529148,
				"z": -0.752889324,
				"element": "C" 
			},
			{
				"x": -0.255055544,
				"y": -2.9918701569,
				"z": -1.7490864674,
				"element": "C" 
			},
			{
				"x": -1.5679072442,
				"y": -2.6933501613,
				"z": -2.4809684334,
				"element": "C" 
			},
			{
				"x": 0.8721540508,
				"y": -3.268861799,
				"z": -2.7474620302,
				"element": "C" 
			},
			{
				"x": 0.2233441975,
				"y": -1.7848410009,
				"z": -1.0557303366,
				"element": "O" 
			},
			{
				"x": -0.5135862232,
				"y": -1.2048504544,
				"z": -0.0769009059,
				"element": "C" 
			},
			{
				"x": -1.5961516782,
				"y": -1.6028334678,
				"z": 0.3325283833,
				"element": "O" 
			},
			{
				"x": 0.1231094267,
				"y": -0.0835714551,
				"z": 0.3939127664,
				"element": "N" 
			},
			{
				"x": 1.459936182,
				"y": 0.3232455045,
				"z": -0.059493244,
				"element": "C" 
			},
			{
				"x": 1.7735833569,
				"y": 1.7462298694,
				"z": 0.4319154876,
				"element": "C" 
			},
			{
				"x": 0.5534678995,
				"y": 2.6800850626,
				"z": 0.331107654,
				"element": "C" 
			},
			{
				"x": 0.0782012148,
				"y": 2.8746938779,
				"z": -1.1341106724,
				"element": "C" 
			},
			{
				"x": 1.1260394676,
				"y": 3.3907527522,
				"z": -2.0189115783,
				"element": "C" 
			},
			{
				"x": 1.9745504545,
				"y": 3.7959666837,
				"z": -2.7001181883,
				"element": "N" 
			},
			{
				"x": -0.6152665424,
				"y": 2.1315155677,
				"z": 1.2022181907,
				"element": "C" 
			},
			{
				"x": -0.4466611106,
				"y": 0.6363127587,
				"z": 1.5292108675,
				"element": "C" 
			},
			{
				"x": -1.1803558634,
				"y": -3.9429760555,
				"z": -0.025475781,
				"element": "H" 
			},
			{
				"x": -0.6405742964,
				"y": -5.0688488608,
				"z": -1.2915278068,
				"element": "H" 
			},
			{
				"x": 0.5492194583,
				"y": -4.3072723435,
				"z": -0.222040582,
				"element": "H" 
			},
			{
				"x": -1.442082742,
				"y": -1.838216583,
				"z": -3.152982012,
				"element": "H" 
			},
			{
				"x": -2.3679857311,
				"y": -2.4746546594,
				"z": -1.7735968369,
				"element": "H" 
			},
			{
				"x": -1.8559042522,
				"y": -3.5591628964,
				"z": -3.0860731255,
				"element": "H" 
			},
			{
				"x": 1.8188517856,
				"y": -3.4348732106,
				"z": -2.225156787,
				"element": "H" 
			},
			{
				"x": 0.999463538,
				"y": -2.4251122951,
				"z": -3.4320347136,
				"element": "H" 
			},
			{
				"x": 0.6408013112,
				"y": -4.1608911052,
				"z": -3.3370757055,
				"element": "H" 
			},
			{
				"x": 1.4870034123,
				"y": 0.2812321139,
				"z": -1.1512316477,
				"element": "H" 
			},
			{
				"x": 2.2271844921,
				"y": -0.3769044598,
				"z": 0.2988737589,
				"element": "H" 
			},
			{
				"x": 2.6134737072,
				"y": 2.1425698053,
				"z": -0.1474794128,
				"element": "H" 
			},
			{
				"x": 2.1029373823,
				"y": 1.7209957547,
				"z": 1.4768729091,
				"element": "H" 
			},
			{
				"x": 0.8485466333,
				"y": 3.6671725163,
				"z": 0.7030926429,
				"element": "H" 
			},
			{
				"x": -0.2917290385,
				"y": 1.928157976,
				"z": -1.5443892489,
				"element": "H" 
			},
			{
				"x": -0.7643754261,
				"y": 3.5755371195,
				"z": -1.1549313793,
				"element": "H" 
			},
			{
				"x": -1.5684850587,
				"y": 2.2846833098,
				"z": 0.6834206136,
				"element": "H" 
			},
			{
				"x": -0.6792352061,
				"y": 2.6914953152,
				"z": 2.1416555877,
				"element": "H" 
			},
			{
				"x": 0.2048016575,
				"y": 0.5114338219,
				"z": 2.405854634,
				"element": "H" 
			},
			{
				"x": -1.4026036379,
				"y": 0.1695640706,
				"z": 1.7641027238,
				"element": "H" 
			}
		],
		 "valence_orbital": [ 
			{
				"type": "occ",
				"energy": -0.3224,
				"method": "rhf"
			},
			{
				"type": "occ",
				"energy": -0.31825,
				"method": "rhf"
			},
			{
				"type": "occ",
				"energy": -0.28854,
				"method": "rhf"
			},
			{
				"type": "occ",
				"energy": -0.26181,
				"method": "rhf"
			},
			{
				"type": "occ",
				"energy": -0.23801,
				"method": "rhf"
			},
			{
				"type": "unocc",
				"energy": 0.02936,
				"method": "rhf"
			},
			{
				"type": "unocc",
				"energy": 0.03663,
				"method": "rhf"
			},
			{
				"type": "unocc",
				"energy": 0.0473,
				"method": "rhf"
			},
			{
				"type": "unocc",
				"energy": 0.06955,
				"method": "rhf"
			},
			{
				"type": "unocc",
				"energy": 0.08504,
				"method": "rhf"
			}
		],
		"cosmo_sigma_profile": { 
			"-0.025": 0.0,
			"-0.024": 0.0,
			"-0.023": 0.0,
			"-0.022": 0.0,
			"-0.021": 0.0,
			"-0.02": 0.0,
			"-0.019": 0.0,
			"-0.018": 0.0,
			"-0.017": 0.0,
			"-0.016": 0.0,
			"-0.015": 0.0,
			"-0.014": 0.0,
			"-0.013": 0.0,
			"-0.012": 0.0,
			"-0.011": 0.0,
			"-0.01": 0.0,
			"-0.009": 0.0,
			"-0.008": 1.23698001366,
			"-0.007": 5.22698976283,
			"-0.006": 6.1280867033,
			"-0.005": 12.2717743013,
			"-0.004": 36.1645719218,
			"-0.003": 42.8262135345,
			"-0.002": 31.7231619701,
			"-0.001": 29.56299282,
			"0.0": 31.5801306768,
			"0.001": 23.0982005494,
			"0.002": 8.7298922559,
			"0.003": 5.80848627486,
			"0.004": 6.07212489488,
			"0.005": 6.18915082152,
			"0.006": 5.86637418963,
			"0.007": 5.09440685915,
			"0.008": 4.6602640416,
			"0.009": 4.85654412209,
			"0.01": 4.56527507727,
			"0.011": 4.50074366052,
			"0.012": 4.53121245979,
			"0.013": 4.59303377458,
			"0.014": 2.6733293405,
			"0.015": 0.0,
			"0.016": 0.0,
			"0.017": 0.0,
			"0.018": 0.0,
			"0.019": 0.0,
			"0.02": 0.0,
			"0.021": 0.0,
			"0.022": 0.0,
			"0.023": 0.0,
			"0.024": 0.0,
			"0.025": 0.0
		}
	}
}
