{
	 "smiles": "COC1=CC(CCN2C=CC=C2C(O)=O)=CC(OC)=C1OC", 
	 "Tm": 405.15, 
	 "num_atms": 41, 
	 "gaussian": { 
		 "optdone": 1, 
		 "sigma_profile": "yes", 
		 "theory": "DFT", 
		 "functional": "B3LYP", 
		 "basiset": "6-31G**", 
		 "properties": { 
			 "R2extent": 6798.3182, 
			 "electric_dipole_moment_norm": 1.70685443433, 
			 "electric_quadrupole_moment_norm": 16.3247687947, 
			 "total_energy": -1051.98830298, 
			 "HOMO_LUMO_gap": 0.17695, 
			 "cosmo_polarized_energy": -16.03, 
			 "cosmo_cavitation_energy": 43.47, 
			 "cosmo_dispersion_energy": -28.8, 
			 "cosmo_repulsion_energy": 2.22, 
			 "cosmo_total_nonelectrostatic_energy": 16.89, 
			 "SMD_solvation_energy": 10.5 
		},
		"coords": [
			{
				"x": -2.4627130703,
				"y": 1.3980023391,
				"z": 3.1770324032,
				"element": "C" 
			},
			{
				"x": -2.3337767525,
				"y": 0.154948761,
				"z": 2.4915076701,
				"element": "O" 
			},
			{
				"x": -1.1426484652,
				"y": -0.2206992323,
				"z": 1.9374955719,
				"element": "C" 
			},
			{
				"x": -1.2563494224,
				"y": -1.0202990794,
				"z": 0.7875399617,
				"element": "C" 
			},
			{
				"x": -0.1330319648,
				"y": -1.5261415104,
				"z": 0.1457065987,
				"element": "C" 
			},
			{
				"x": -0.2796919353,
				"y": -2.3927917009,
				"z": -1.0888892895,
				"element": "C" 
			},
			{
				"x": 0.465788654,
				"y": -1.8890081299,
				"z": -2.3407713496,
				"element": "C" 
			},
			{
				"x": 0.0378460038,
				"y": -0.5559242249,
				"z": -2.779506259,
				"element": "N" 
			},
			{
				"x": -1.1998916902,
				"y": -0.288113336,
				"z": -3.2836424801,
				"element": "C" 
			},
			{
				"x": -1.3023622935,
				"y": 1.0658155781,
				"z": -3.5664290661,
				"element": "C" 
			},
			{
				"x": -0.0713400474,
				"y": 1.6484568049,
				"z": -3.2159557223,
				"element": "C" 
			},
			{
				"x": 0.7537536104,
				"y": 0.6361436326,
				"z": -2.7273374914,
				"element": "C" 
			},
			{
				"x": 2.1331233666,
				"y": 0.7548017885,
				"z": -2.2828229584,
				"element": "C" 
			},
			{
				"x": 2.5605946524,
				"y": 2.0450305898,
				"z": -2.3211662261,
				"element": "O" 
			},
			{
				"x": 2.8824825677,
				"y": -0.1435135998,
				"z": -1.9151501005,
				"element": "O" 
			},
			{
				"x": 1.1391446081,
				"y": -1.233297528,
				"z": 0.6611121894,
				"element": "C" 
			},
			{
				"x": 1.2682654011,
				"y": -0.4391647982,
				"z": 1.7986531784,
				"element": "C" 
			},
			{
				"x": 2.4677975702,
				"y": -0.123190081,
				"z": 2.3733223216,
				"element": "O" 
			},
			{
				"x": 3.6523126249,
				"y": -0.6056132452,
				"z": 1.7516476061,
				"element": "C" 
			},
			{
				"x": 0.1263092267,
				"y": 0.080199182,
				"z": 2.4565361423,
				"element": "C" 
			},
			{
				"x": 0.2493044244,
				"y": 0.7811223047,
				"z": 3.6362135388,
				"element": "O" 
			},
			{
				"x": 0.8917490548,
				"y": 2.0566297616,
				"z": 3.5557932132,
				"element": "C" 
			},
			{
				"x": -2.0010376056,
				"y": 2.2159983262,
				"z": 2.6100462509,
				"element": "H" 
			},
			{
				"x": -2.02576751,
				"y": 1.3611542521,
				"z": 4.1767155312,
				"element": "H" 
			},
			{
				"x": -3.537845989,
				"y": 1.5811921138,
				"z": 3.2479104603,
				"element": "H" 
			},
			{
				"x": -2.2563201321,
				"y": -1.2214995048,
				"z": 0.4172013728,
				"element": "H" 
			},
			{
				"x": -1.3436060279,
				"y": -2.5115599589,
				"z": -1.3214924167,
				"element": "H" 
			},
			{
				"x": 0.1031532097,
				"y": -3.402705347,
				"z": -0.8861906933,
				"element": "H" 
			},
			{
				"x": 0.2915350465,
				"y": -2.5870818893,
				"z": -3.1673781158,
				"element": "H" 
			},
			{
				"x": 1.5383250101,
				"y": -1.8362995545,
				"z": -2.1661418403,
				"element": "H" 
			},
			{
				"x": -1.9223054325,
				"y": -1.0822290177,
				"z": -3.4094000705,
				"element": "H" 
			},
			{
				"x": -2.1678070552,
				"y": 1.562515746,
				"z": -3.9810970038,
				"element": "H" 
			},
			{
				"x": 0.2171319372,
				"y": 2.6851379275,
				"z": -3.3054296343,
				"element": "H" 
			},
			{
				"x": 3.4853020392,
				"y": 2.0154946529,
				"z": -2.0276545916,
				"element": "H" 
			},
			{
				"x": 2.0208682527,
				"y": -1.6107802822,
				"z": 0.160941673,
				"element": "H" 
			},
			{
				"x": 4.4805688545,
				"y": -0.2092073189,
				"z": 2.341540931,
				"element": "H" 
			},
			{
				"x": 3.6935036744,
				"y": -1.7022044897,
				"z": 1.7668837366,
				"element": "H" 
			},
			{
				"x": 3.73560368,
				"y": -0.2599422394,
				"z": 0.7143524048,
				"element": "H" 
			},
			{
				"x": 1.9308062302,
				"y": 1.9603838993,
				"z": 3.2326811382,
				"element": "H" 
			},
			{
				"x": 0.8587145129,
				"y": 2.4757708176,
				"z": 4.5640769788,
				"element": "H" 
			},
			{
				"x": 0.3562111812,
				"y": 2.7262675909,
				"z": 2.8695444363,
				"element": "H" 
			}
		],
		 "valence_orbital": [ 
			{
				"type": "occ",
				"energy": -0.26284,
				"method": "rhf"
			},
			{
				"type": "occ",
				"energy": -0.24413,
				"method": "rhf"
			},
			{
				"type": "occ",
				"energy": -0.22369,
				"method": "rhf"
			},
			{
				"type": "occ",
				"energy": -0.20641,
				"method": "rhf"
			},
			{
				"type": "occ",
				"energy": -0.2059,
				"method": "rhf"
			},
			{
				"type": "unocc",
				"energy": -0.02895,
				"method": "rhf"
			},
			{
				"type": "unocc",
				"energy": 0.01244,
				"method": "rhf"
			},
			{
				"type": "unocc",
				"energy": 0.02282,
				"method": "rhf"
			},
			{
				"type": "unocc",
				"energy": 0.05733,
				"method": "rhf"
			},
			{
				"type": "unocc",
				"energy": 0.07865,
				"method": "rhf"
			}
		],
		"cosmo_sigma_profile": { 
			"-0.025": 0.0,
			"-0.024": 0.0,
			"-0.023": 0.0,
			"-0.022": 0.0,
			"-0.021": 0.0,
			"-0.02": 0.0,
			"-0.019": 0.0,
			"-0.018": 0.500821863762,
			"-0.017": 0.723628783491,
			"-0.016": 1.0861414225,
			"-0.015": 0.423163320935,
			"-0.014": 0.36086298416,
			"-0.013": 0.804654773837,
			"-0.012": 0.772690666382,
			"-0.011": 0.873287737429,
			"-0.01": 0.582779165208,
			"-0.009": 0.421678578587,
			"-0.008": 2.66138056527,
			"-0.007": 4.53686113699,
			"-0.006": 11.1178902669,
			"-0.005": 27.2670100101,
			"-0.004": 32.9596462616,
			"-0.003": 36.1792453913,
			"-0.002": 34.5777882696,
			"-0.001": 23.8531358727,
			"0.0": 17.8045480359,
			"0.001": 18.7196166055,
			"0.002": 17.0254289216,
			"0.003": 21.2500948693,
			"0.004": 22.4482086693,
			"0.005": 21.9965993958,
			"0.006": 15.0617897996,
			"0.007": 7.52442416212,
			"0.008": 5.63707638424,
			"0.009": 4.21663423713,
			"0.01": 4.66348408233,
			"0.011": 5.42754042665,
			"0.012": 2.49922613813,
			"0.013": 0.188515115576,
			"0.014": 0.0,
			"0.015": 0.0,
			"0.016": 0.0,
			"0.017": 0.0,
			"0.018": 0.0,
			"0.019": 0.0,
			"0.02": 0.0,
			"0.021": 0.0,
			"0.022": 0.0,
			"0.023": 0.0,
			"0.024": 0.0,
			"0.025": 0.0
		}
	}
}
