{
	 "smiles": "COC(=O)[C@@]12C=C[C@H]3C4=C([C@@H]1[C@@]23C(=O)OC)C(C1=CC=CC=C1)=C1C=CC=CC1=C4C1=CC=CC=C1", 
	 "Tm": 483.0, 
	 "num_atms": 60, 
	 "gaussian": { 
		 "optdone": 1, 
		 "sigma_profile": "yes", 
		 "theory": "DFT", 
		 "functional": "B3LYP", 
		 "basiset": "6-31G**", 
		 "properties": { 
			 "R2extent": 15868.239, 
			 "electric_dipole_moment_norm": 2.19918192517, 
			 "electric_quadrupole_moment_norm": 26.2991812407, 
			 "total_energy": -1534.74456173, 
			 "HOMO_LUMO_gap": 0.1601, 
			 "cosmo_polarized_energy": -16.77, 
			 "cosmo_cavitation_energy": 62.87, 
			 "cosmo_dispersion_energy": -39.82, 
			 "cosmo_repulsion_energy": 3.01, 
			 "cosmo_total_nonelectrostatic_energy": 26.07, 
			 "SMD_solvation_energy": 12.38 
		},
		"coords": [
			{
				"x": -4.8009843757,
				"y": 2.3477166062,
				"z": 1.8025841126,
				"element": "C" 
			},
			{
				"x": -3.6038187341,
				"y": 1.7774369606,
				"z": 1.2527529889,
				"element": "O" 
			},
			{
				"x": -3.7945796303,
				"y": 0.8834685224,
				"z": 0.2661676425,
				"element": "C" 
			},
			{
				"x": -4.8707851437,
				"y": 0.6648283541,
				"z": -0.2510745794,
				"element": "O" 
			},
			{
				"x": -2.5272273595,
				"y": 0.2059930555,
				"z": -0.1789069593,
				"element": "C" 
			},
			{
				"x": -2.4751298164,
				"y": -0.2463087424,
				"z": -1.6020720317,
				"element": "C" 
			},
			{
				"x": -1.7483005988,
				"y": -1.3597424282,
				"z": -1.7414625113,
				"element": "C" 
			},
			{
				"x": -1.096504292,
				"y": -1.760818298,
				"z": -0.4218285828,
				"element": "C" 
			},
			{
				"x": 0.2686692615,
				"y": -1.0695618151,
				"z": -0.4658572454,
				"element": "C" 
			},
			{
				"x": 0.1243109227,
				"y": 0.2619945902,
				"z": 0.0265200049,
				"element": "C" 
			},
			{
				"x": -1.2256359275,
				"y": 0.4339268734,
				"z": 0.6302602069,
				"element": "C" 
			},
			{
				"x": -1.884097767,
				"y": -0.9322828375,
				"z": 0.6298599851,
				"element": "C" 
			},
			{
				"x": -2.5302879611,
				"y": -1.5082172343,
				"z": 1.8383522114,
				"element": "C" 
			},
			{
				"x": -3.2501849469,
				"y": -0.8980984395,
				"z": 2.6036259324,
				"element": "O" 
			},
			{
				"x": -2.2122054465,
				"y": -2.8127194601,
				"z": 1.9965212102,
				"element": "O" 
			},
			{
				"x": -2.797329765,
				"y": -3.4481236994,
				"z": 3.145548782,
				"element": "C" 
			},
			{
				"x": 1.1657826408,
				"y": 1.1677291826,
				"z": 0.0001968824,
				"element": "C" 
			},
			{
				"x": 0.976275547,
				"y": 2.5445043159,
				"z": 0.5442953167,
				"element": "C" 
			},
			{
				"x": 1.7139437576,
				"y": 2.9960014279,
				"z": 1.6519139513,
				"element": "C" 
			},
			{
				"x": 1.5081121081,
				"y": 4.2730935348,
				"z": 2.1738592438,
				"element": "C" 
			},
			{
				"x": 0.5617061627,
				"y": 5.1233225718,
				"z": 1.5980328027,
				"element": "C" 
			},
			{
				"x": -0.1799764654,
				"y": 4.6860224444,
				"z": 0.4995334512,
				"element": "C" 
			},
			{
				"x": 0.0244554461,
				"y": 3.4077505814,
				"z": -0.0211901212,
				"element": "C" 
			},
			{
				"x": 2.4262486193,
				"y": 0.7293004572,
				"z": -0.541210039,
				"element": "C" 
			},
			{
				"x": 3.542663008,
				"y": 1.6054815954,
				"z": -0.6359632352,
				"element": "C" 
			},
			{
				"x": 4.7549550012,
				"y": 1.1775890786,
				"z": -1.1310129392,
				"element": "C" 
			},
			{
				"x": 4.9142087922,
				"y": -0.1591465581,
				"z": -1.5546072303,
				"element": "C" 
			},
			{
				"x": 3.8496095361,
				"y": -1.0316248805,
				"z": -1.4995451324,
				"element": "C" 
			},
			{
				"x": 2.5763430725,
				"y": -0.620978369,
				"z": -1.0178402625,
				"element": "C" 
			},
			{
				"x": 1.4567330375,
				"y": -1.5259902801,
				"z": -0.9926611299,
				"element": "C" 
			},
			{
				"x": 1.5664230224,
				"y": -2.9196729694,
				"z": -1.5209694558,
				"element": "C" 
			},
			{
				"x": 1.4835485097,
				"y": -4.021684734,
				"z": -0.655363494,
				"element": "C" 
			},
			{
				"x": 1.5547206971,
				"y": -5.3251116428,
				"z": -1.149389455,
				"element": "C" 
			},
			{
				"x": 1.7111335443,
				"y": -5.5492912904,
				"z": -2.5183187537,
				"element": "C" 
			},
			{
				"x": 1.7971140091,
				"y": -4.4619566203,
				"z": -3.390066674,
				"element": "C" 
			},
			{
				"x": 1.7257669472,
				"y": -3.1588466141,
				"z": -2.8958659012,
				"element": "C" 
			},
			{
				"x": -5.3925487652,
				"y": 2.8313159777,
				"z": 1.0217343379,
				"element": "H" 
			},
			{
				"x": -4.4667542418,
				"y": 3.0756099397,
				"z": 2.5416441936,
				"element": "H" 
			},
			{
				"x": -5.4010613526,
				"y": 1.5684618591,
				"z": 2.2786463279,
				"element": "H" 
			},
			{
				"x": -2.9740806376,
				"y": 0.3003858711,
				"z": -2.3934702471,
				"element": "H" 
			},
			{
				"x": -1.4979457827,
				"y": -1.8455101487,
				"z": -2.6781238882,
				"element": "H" 
			},
			{
				"x": -1.0669514136,
				"y": -2.8314019529,
				"z": -0.2255523195,
				"element": "H" 
			},
			{
				"x": -1.3551885886,
				"y": 1.0894127202,
				"z": 1.4831190425,
				"element": "H" 
			},
			{
				"x": -3.8878730591,
				"y": -3.4043397659,
				"z": 3.0941476924,
				"element": "H" 
			},
			{
				"x": -2.452664168,
				"y": -4.4816367039,
				"z": 3.1164450531,
				"element": "H" 
			},
			{
				"x": -2.4678585544,
				"y": -2.9582854254,
				"z": 4.065176055,
				"element": "H" 
			},
			{
				"x": 2.4445758046,
				"y": 2.3349809909,
				"z": 2.1089288898,
				"element": "H" 
			},
			{
				"x": 2.08434017,
				"y": 4.6020796733,
				"z": 3.0341349102,
				"element": "H" 
			},
			{
				"x": 0.4025696867,
				"y": 6.1181834372,
				"z": 2.0040363977,
				"element": "H" 
			},
			{
				"x": -0.9182898618,
				"y": 5.340406166,
				"z": 0.0447409402,
				"element": "H" 
			},
			{
				"x": -0.5510009341,
				"y": 3.0723657995,
				"z": -0.8788635068,
				"element": "H" 
			},
			{
				"x": 3.4265461805,
				"y": 2.6339518568,
				"z": -0.3142217115,
				"element": "H" 
			},
			{
				"x": 5.5889635892,
				"y": 1.8706484397,
				"z": -1.1947399405,
				"element": "H" 
			},
			{
				"x": 5.8751758497,
				"y": -0.4994336513,
				"z": -1.9297913005,
				"element": "H" 
			},
			{
				"x": 3.9745293498,
				"y": -2.0562305314,
				"z": -1.8311955065,
				"element": "H" 
			},
			{
				"x": 1.3689449935,
				"y": -3.849671258,
				"z": 0.4111521447,
				"element": "H" 
			},
			{
				"x": 1.4911108737,
				"y": -6.1652594214,
				"z": -0.4635147636,
				"element": "H" 
			},
			{
				"x": 1.7664776901,
				"y": -6.5635304338,
				"z": -2.9031162315,
				"element": "H" 
			},
			{
				"x": 1.9168391905,
				"y": -4.6273152735,
				"z": -4.4571467113,
				"element": "H" 
			},
			{
				"x": 1.790268568,
				"y": -2.3151714043,
				"z": -3.5771888496,
				"element": "H" 
			}
		],
		 "valence_orbital": [ 
			{
				"type": "occ",
				"energy": -0.24992,
				"method": "rhf"
			},
			{
				"type": "occ",
				"energy": -0.24765,
				"method": "rhf"
			},
			{
				"type": "occ",
				"energy": -0.24015,
				"method": "rhf"
			},
			{
				"type": "occ",
				"energy": -0.22915,
				"method": "rhf"
			},
			{
				"type": "occ",
				"energy": -0.20391,
				"method": "rhf"
			},
			{
				"type": "unocc",
				"energy": -0.04381,
				"method": "rhf"
			},
			{
				"type": "unocc",
				"energy": -0.0206,
				"method": "rhf"
			},
			{
				"type": "unocc",
				"energy": -0.00968,
				"method": "rhf"
			},
			{
				"type": "unocc",
				"energy": -0.00853,
				"method": "rhf"
			},
			{
				"type": "unocc",
				"energy": -0.0044,
				"method": "rhf"
			}
		],
		"cosmo_sigma_profile": { 
			"-0.025": 0.0,
			"-0.024": 0.0,
			"-0.023": 0.0,
			"-0.022": 0.0,
			"-0.021": 0.0,
			"-0.02": 0.0,
			"-0.019": 0.0,
			"-0.018": 0.0,
			"-0.017": 0.0,
			"-0.016": 0.0,
			"-0.015": 0.0,
			"-0.014": 0.0,
			"-0.013": 0.0,
			"-0.012": 0.0,
			"-0.011": 0.0,
			"-0.01": 0.0,
			"-0.009": 0.0,
			"-0.008": 0.0,
			"-0.007": 2.66911287386,
			"-0.006": 23.8886212028,
			"-0.005": 42.1900074522,
			"-0.004": 51.41426766,
			"-0.003": 53.518442114,
			"-0.002": 42.2999266344,
			"-0.001": 40.5168072627,
			"0.0": 32.8092695834,
			"0.001": 32.7171586221,
			"0.002": 35.1485833092,
			"0.003": 36.7471854172,
			"0.004": 37.4152934283,
			"0.005": 31.8841390145,
			"0.006": 11.7899235485,
			"0.007": 4.29910407544,
			"0.008": 4.09907421439,
			"0.009": 3.36066063481,
			"0.01": 3.8482596488,
			"0.011": 6.55285206033,
			"0.012": 5.32528276546,
			"0.013": 0.381379879579,
			"0.014": 0.0,
			"0.015": 0.0,
			"0.016": 0.0,
			"0.017": 0.0,
			"0.018": 0.0,
			"0.019": 0.0,
			"0.02": 0.0,
			"0.021": 0.0,
			"0.022": 0.0,
			"0.023": 0.0,
			"0.024": 0.0,
			"0.025": 0.0
		}
	}
}
