{
	 "smiles": "CC1=C(C=CC(Br)=C1)N1CCCS1(=O)=O", 
	 "Tm": 351.15, 
	 "num_atms": 27, 
	 "gaussian": { 
		 "optdone": 1, 
		 "sigma_profile": "yes", 
		 "theory": "DFT", 
		 "functional": "B3LYP", 
		 "basiset": "6-31G**", 
		 "properties": { 
			 "R2extent": 6120.7867, 
			 "electric_dipole_moment_norm": 5.56227638472, 
			 "electric_quadrupole_moment_norm": 16.7772594913, 
			 "total_energy": -3563.02014564, 
			 "HOMO_LUMO_gap": 0.21297, 
			 "cosmo_polarized_energy": -15.46, 
			 "cosmo_cavitation_energy": 33.11, 
			 "cosmo_dispersion_energy": -24.35, 
			 "cosmo_repulsion_energy": 1.86, 
			 "cosmo_total_nonelectrostatic_energy": 10.62, 
			 "SMD_solvation_energy": 3.42 
		},
		"coords": [
			{
				"x": -0.0925095178,
				"y": -1.1750563281,
				"z": -1.6791403898,
				"element": "C" 
			},
			{
				"x": 0.5782679804,
				"y": -0.2763316349,
				"z": -0.6708234057,
				"element": "C" 
			},
			{
				"x": -0.1535956119,
				"y": 0.3328954693,
				"z": 0.3662912072,
				"element": "C" 
			},
			{
				"x": 0.4726986376,
				"y": 1.1962173257,
				"z": 1.2721400282,
				"element": "C" 
			},
			{
				"x": 1.8389640808,
				"y": 1.4538775782,
				"z": 1.1830860678,
				"element": "C" 
			},
			{
				"x": 2.5643659652,
				"y": 0.8366912075,
				"z": 0.1672149377,
				"element": "C" 
			},
			{
				"x": 4.4421136984,
				"y": 1.1636121815,
				"z": 0.0248611084,
				"element": "Br" 
			},
			{
				"x": 1.9506317204,
				"y": -0.0121200812,
				"z": -0.7515333532,
				"element": "C" 
			},
			{
				"x": -1.5602645985,
				"y": 0.0594071739,
				"z": 0.4755764312,
				"element": "N" 
			},
			{
				"x": -2.0842195372,
				"y": -0.6176940458,
				"z": 1.677800368,
				"element": "C" 
			},
			{
				"x": -3.6080234957,
				"y": -0.3135464926,
				"z": 1.7669390235,
				"element": "C" 
			},
			{
				"x": -4.0618277177,
				"y": 0.255422645,
				"z": 0.4182023958,
				"element": "C" 
			},
			{
				"x": -2.6397934773,
				"y": 1.2658748208,
				"z": -0.0719020295,
				"element": "S" 
			},
			{
				"x": -2.6116049475,
				"y": 2.4683690234,
				"z": 0.7755976915,
				"element": "O" 
			},
			{
				"x": -2.4835749111,
				"y": 1.4080418981,
				"z": -1.5215911333,
				"element": "O" 
			},
			{
				"x": 0.6376298504,
				"y": -1.5872493929,
				"z": -2.3800412497,
				"element": "H" 
			},
			{
				"x": -0.8469622099,
				"y": -0.6194723498,
				"z": -2.2438221065,
				"element": "H" 
			},
			{
				"x": -0.6070844932,
				"y": -2.0079390949,
				"z": -1.1887504915,
				"element": "H" 
			},
			{
				"x": -0.1202393117,
				"y": 1.6815149117,
				"z": 2.0408881883,
				"element": "H" 
			},
			{
				"x": 2.3258993436,
				"y": 2.1243580496,
				"z": 1.8812929488,
				"element": "H" 
			},
			{
				"x": 2.5407943039,
				"y": -0.4696758397,
				"z": -1.5378906378,
				"element": "H" 
			},
			{
				"x": -1.5748386496,
				"y": -0.2805525624,
				"z": 2.5879736223,
				"element": "H" 
			},
			{
				"x": -1.8970233662,
				"y": -1.6914140413,
				"z": 1.5671259938,
				"element": "H" 
			},
			{
				"x": -3.7902640528,
				"y": 0.4315010944,
				"z": 2.5446833171,
				"element": "H" 
			},
			{
				"x": -4.1734529231,
				"y": -1.2122192724,
				"z": 2.0239255923,
				"element": "H" 
			},
			{
				"x": -4.9382568857,
				"y": 0.9018253424,
				"z": 0.4793893519,
				"element": "H" 
			},
			{
				"x": -4.2026298739,
				"y": -0.5039375855,
				"z": -0.3538934768,
				"element": "H" 
			}
		],
		 "valence_orbital": [ 
			{
				"type": "occ",
				"energy": -0.2994,
				"method": "rhf"
			},
			{
				"type": "occ",
				"energy": -0.28767,
				"method": "rhf"
			},
			{
				"type": "occ",
				"energy": -0.2604,
				"method": "rhf"
			},
			{
				"type": "occ",
				"energy": -0.25548,
				"method": "rhf"
			},
			{
				"type": "occ",
				"energy": -0.24071,
				"method": "rhf"
			},
			{
				"type": "unocc",
				"energy": -0.02774,
				"method": "rhf"
			},
			{
				"type": "unocc",
				"energy": -0.01487,
				"method": "rhf"
			},
			{
				"type": "unocc",
				"energy": 0.00615,
				"method": "rhf"
			},
			{
				"type": "unocc",
				"energy": 0.05474,
				"method": "rhf"
			},
			{
				"type": "unocc",
				"energy": 0.06029,
				"method": "rhf"
			}
		],
		"cosmo_sigma_profile": { 
			"-0.025": 0.0,
			"-0.024": 0.0,
			"-0.023": 0.0,
			"-0.022": 0.0,
			"-0.021": 0.0,
			"-0.02": 0.0,
			"-0.019": 0.0,
			"-0.018": 0.0,
			"-0.017": 0.0,
			"-0.016": 0.0,
			"-0.015": 0.0,
			"-0.014": 0.0,
			"-0.013": 0.0,
			"-0.012": 0.0,
			"-0.011": 0.0,
			"-0.01": 0.0,
			"-0.009": 1.73623802252,
			"-0.008": 4.66423860833,
			"-0.007": 8.35589834642,
			"-0.006": 18.1064289957,
			"-0.005": 25.098801894,
			"-0.004": 23.4279990922,
			"-0.003": 19.7696491619,
			"-0.002": 16.2444140892,
			"-0.001": 15.0479145982,
			"0.0": 18.5679590313,
			"0.001": 15.1624438215,
			"0.002": 21.3167097414,
			"0.003": 21.3232986867,
			"0.004": 15.3151051583,
			"0.005": 9.48679474103,
			"0.006": 2.16627248142,
			"0.007": 2.81714936518,
			"0.008": 3.28685759261,
			"0.009": 3.3026955007,
			"0.01": 6.35942888732,
			"0.011": 9.44415740656,
			"0.012": 4.64262900382,
			"0.013": 0.196557647526,
			"0.014": 0.0,
			"0.015": 0.0,
			"0.016": 0.0,
			"0.017": 0.0,
			"0.018": 0.0,
			"0.019": 0.0,
			"0.02": 0.0,
			"0.021": 0.0,
			"0.022": 0.0,
			"0.023": 0.0,
			"0.024": 0.0,
			"0.025": 0.0
		}
	}
}
