{
	 "smiles": "CCC(C)(C)C(=O)O[C@H]1C[C@@H](C)C=C2C=C[C@H](C)[C@H](CC[C@@H]3C[C@@H](O)CC(=O)O3)[C@@H]12", 
	 "Tm": 409.15, 
	 "num_atms": 68, 
	 "gaussian": { 
		 "optdone": 1, 
		 "sigma_profile": "yes", 
		 "theory": "DFT", 
		 "functional": "B3LYP", 
		 "basiset": "6-31G**", 
		 "properties": { 
			 "R2extent": 15276.1825, 
			 "electric_dipole_moment_norm": 4.82459120963, 
			 "electric_quadrupole_moment_norm": 30.7294188738, 
			 "total_energy": -1351.69738174, 
			 "HOMO_LUMO_gap": 0.18979, 
			 "cosmo_polarized_energy": -20.96, 
			 "cosmo_cavitation_energy": 63.04, 
			 "cosmo_dispersion_energy": -38.78, 
			 "cosmo_repulsion_energy": 2.97, 
			 "cosmo_total_nonelectrostatic_energy": 27.22, 
			 "SMD_solvation_energy": 10.91 
		},
		"coords": [
			{
				"x": 2.3554873809,
				"y": 0.0317094972,
				"z": -3.5491722825,
				"element": "C" 
			},
			{
				"x": 2.5003370944,
				"y": 1.550669255,
				"z": -3.4103933232,
				"element": "C" 
			},
			{
				"x": 3.0607335358,
				"y": 2.0741871745,
				"z": -2.0637141235,
				"element": "C" 
			},
			{
				"x": 4.4964043213,
				"y": 1.5775774498,
				"z": -1.8173167373,
				"element": "C" 
			},
			{
				"x": 3.0588007676,
				"y": 3.6244358941,
				"z": -2.1010807731,
				"element": "C" 
			},
			{
				"x": 2.194174065,
				"y": 1.6884074135,
				"z": -0.8542065362,
				"element": "C" 
			},
			{
				"x": 2.6384472701,
				"y": 1.4944544342,
				"z": 0.2607595975,
				"element": "O" 
			},
			{
				"x": 0.8752212155,
				"y": 1.6684705654,
				"z": -1.1481905738,
				"element": "O" 
			},
			{
				"x": -0.084421603,
				"y": 1.5972503278,
				"z": -0.0479915823,
				"element": "C" 
			},
			{
				"x": -1.2597352336,
				"y": 2.5043025715,
				"z": -0.4191325765,
				"element": "C" 
			},
			{
				"x": -2.1334144763,
				"y": 1.9918057246,
				"z": -1.6013894949,
				"element": "C" 
			},
			{
				"x": -1.8297347729,
				"y": 2.7473053505,
				"z": -2.912322523,
				"element": "C" 
			},
			{
				"x": -2.0072576073,
				"y": 0.5044321893,
				"z": -1.8253105611,
				"element": "C" 
			},
			{
				"x": -1.2812459597,
				"y": -0.3413521959,
				"z": -1.0697882118,
				"element": "C" 
			},
			{
				"x": -1.0864345261,
				"y": -1.7365778517,
				"z": -1.4552145961,
				"element": "C" 
			},
			{
				"x": -0.0474202895,
				"y": -2.4579054044,
				"z": -1.0029300821,
				"element": "C" 
			},
			{
				"x": 1.0033470503,
				"y": -1.8620420599,
				"z": -0.0951476352,
				"element": "C" 
			},
			{
				"x": 1.860098914,
				"y": -2.9363782749,
				"z": 0.5922662705,
				"element": "C" 
			},
			{
				"x": 0.4037903826,
				"y": -0.8161105338,
				"z": 0.8878536752,
				"element": "C" 
			},
			{
				"x": -0.2251039316,
				"y": -1.4223807178,
				"z": 2.1672593174,
				"element": "C" 
			},
			{
				"x": -1.4495272713,
				"y": -2.3337141585,
				"z": 1.9888966084,
				"element": "C" 
			},
			{
				"x": -2.1069843625,
				"y": -2.6990708721,
				"z": 3.3281559588,
				"element": "C" 
			},
			{
				"x": -3.2227634377,
				"y": -3.7432988039,
				"z": 3.2223213331,
				"element": "C" 
			},
			{
				"x": -4.4838734157,
				"y": -3.1547868075,
				"z": 2.5903483899,
				"element": "C" 
			},
			{
				"x": -5.5685375451,
				"y": -4.0761938271,
				"z": 2.5833779663,
				"element": "O" 
			},
			{
				"x": -4.9330591853,
				"y": -1.9614629704,
				"z": 3.4254395266,
				"element": "C" 
			},
			{
				"x": -3.8307974966,
				"y": -0.9989534851,
				"z": 3.8448891929,
				"element": "C" 
			},
			{
				"x": -4.0561274278,
				"y": 0.1476567779,
				"z": 4.1499852711,
				"element": "O" 
			},
			{
				"x": -2.5636791274,
				"y": -1.477805095,
				"z": 3.9724880141,
				"element": "O" 
			},
			{
				"x": -0.5974621874,
				"y": 0.1664926272,
				"z": 0.1975305728,
				"element": "C" 
			},
			{
				"x": 3.3052805081,
				"y": -0.4904198722,
				"z": -3.3955451341,
				"element": "H" 
			},
			{
				"x": 1.6237372527,
				"y": -0.3660955507,
				"z": -2.8404679102,
				"element": "H" 
			},
			{
				"x": 2.004099304,
				"y": -0.2231697198,
				"z": -4.5544876844,
				"element": "H" 
			},
			{
				"x": 3.1705191726,
				"y": 1.923299327,
				"z": -4.1964177702,
				"element": "H" 
			},
			{
				"x": 1.5268923224,
				"y": 2.0177450736,
				"z": -3.5906737569,
				"element": "H" 
			},
			{
				"x": 5.1446435664,
				"y": 1.8896219691,
				"z": -2.6429312861,
				"element": "H" 
			},
			{
				"x": 4.5428198079,
				"y": 0.4879871103,
				"z": -1.7396597277,
				"element": "H" 
			},
			{
				"x": 4.8920854394,
				"y": 1.9872045452,
				"z": -0.8858385077,
				"element": "H" 
			},
			{
				"x": 3.6919889243,
				"y": 3.9761917987,
				"z": -2.922465329,
				"element": "H" 
			},
			{
				"x": 2.0486580597,
				"y": 4.0149288071,
				"z": -2.2579973391,
				"element": "H" 
			},
			{
				"x": 3.4501503456,
				"y": 4.040210945,
				"z": -1.1674874484,
				"element": "H" 
			},
			{
				"x": 0.4188268315,
				"y": 1.9707943564,
				"z": 0.847533675,
				"element": "H" 
			},
			{
				"x": -0.8832270613,
				"y": 3.5085216491,
				"z": -0.6411572257,
				"element": "H" 
			},
			{
				"x": -1.8768012064,
				"y": 2.5973905105,
				"z": 0.4817302486,
				"element": "H" 
			},
			{
				"x": -3.1834065447,
				"y": 2.2105225526,
				"z": -1.3519979107,
				"element": "H" 
			},
			{
				"x": -2.4676028048,
				"y": 2.3927550804,
				"z": -3.7292998809,
				"element": "H" 
			},
			{
				"x": -0.7868628929,
				"y": 2.6017350604,
				"z": -3.2078817712,
				"element": "H" 
			},
			{
				"x": -2.0063823205,
				"y": 3.8215885149,
				"z": -2.791484338,
				"element": "H" 
			},
			{
				"x": -2.4965447913,
				"y": 0.1174217686,
				"z": -2.7196743283,
				"element": "H" 
			},
			{
				"x": -1.7808138839,
				"y": -2.1606581215,
				"z": -2.1786724652,
				"element": "H" 
			},
			{
				"x": 0.0952142151,
				"y": -3.4810923476,
				"z": -1.3473691587,
				"element": "H" 
			},
			{
				"x": 1.6922959986,
				"y": -1.2983053696,
				"z": -0.7427943951,
				"element": "H" 
			},
			{
				"x": 2.6247827824,
				"y": -2.4825330036,
				"z": 1.2309899452,
				"element": "H" 
			},
			{
				"x": 1.2611864306,
				"y": -3.6124424016,
				"z": 1.2112564213,
				"element": "H" 
			},
			{
				"x": 2.3735991634,
				"y": -3.5487465785,
				"z": -0.1570501585,
				"element": "H" 
			},
			{
				"x": 1.2477897581,
				"y": -0.2140952341,
				"z": 1.2393259674,
				"element": "H" 
			},
			{
				"x": 0.5447977422,
				"y": -1.9754591983,
				"z": 2.7196035019,
				"element": "H" 
			},
			{
				"x": -0.5137747385,
				"y": -0.5895190426,
				"z": 2.8188270535,
				"element": "H" 
			},
			{
				"x": -2.1931490697,
				"y": -1.8527465929,
				"z": 1.3429660908,
				"element": "H" 
			},
			{
				"x": -1.1649559916,
				"y": -3.2625834834,
				"z": 1.4806654807,
				"element": "H" 
			},
			{
				"x": -1.3341290982,
				"y": -3.072366155,
				"z": 4.0090314248,
				"element": "H" 
			},
			{
				"x": -2.854440712,
				"y": -4.5979973272,
				"z": 2.642053745,
				"element": "H" 
			},
			{
				"x": -3.4844033228,
				"y": -4.1149579039,
				"z": 4.2201655309,
				"element": "H" 
			},
			{
				"x": -4.2645501427,
				"y": -2.822858974,
				"z": 1.5638651357,
				"element": "H" 
			},
			{
				"x": -5.343706285,
				"y": -4.8008411977,
				"z": 1.985292439,
				"element": "H" 
			},
			{
				"x": -5.3712338109,
				"y": -2.3548417473,
				"z": 4.3527617681,
				"element": "H" 
			},
			{
				"x": -5.7140390093,
				"y": -1.3817984948,
				"z": 2.9296626405,
				"element": "H" 
			},
			{
				"x": -1.4006060792,
				"y": 0.3236850535,
				"z": 0.9314523758,
				"element": "H" 
			}
		],
		 "valence_orbital": [ 
			{
				"type": "occ",
				"energy": -0.27808,
				"method": "rhf"
			},
			{
				"type": "occ",
				"energy": -0.27447,
				"method": "rhf"
			},
			{
				"type": "occ",
				"energy": -0.26076,
				"method": "rhf"
			},
			{
				"type": "occ",
				"energy": -0.26042,
				"method": "rhf"
			},
			{
				"type": "occ",
				"energy": -0.20925,
				"method": "rhf"
			},
			{
				"type": "unocc",
				"energy": -0.01946,
				"method": "rhf"
			},
			{
				"type": "unocc",
				"energy": 0.012,
				"method": "rhf"
			},
			{
				"type": "unocc",
				"energy": 0.01254,
				"method": "rhf"
			},
			{
				"type": "unocc",
				"energy": 0.06259,
				"method": "rhf"
			},
			{
				"type": "unocc",
				"energy": 0.06514,
				"method": "rhf"
			}
		],
		"cosmo_sigma_profile": { 
			"-0.025": 0.0,
			"-0.024": 0.0,
			"-0.023": 0.0,
			"-0.022": 0.0,
			"-0.021": 0.0,
			"-0.02": 0.0,
			"-0.019": 0.0,
			"-0.018": 0.0,
			"-0.017": 0.0,
			"-0.016": 0.460427406492,
			"-0.015": 1.13467176034,
			"-0.014": 1.38093194076,
			"-0.013": 0.533519401008,
			"-0.012": 0.853721180364,
			"-0.011": 1.45179559357,
			"-0.01": 0.550001735483,
			"-0.009": 1.12124945641,
			"-0.008": 1.45470544296,
			"-0.007": 4.10759183047,
			"-0.006": 7.56934148991,
			"-0.005": 20.2223899821,
			"-0.004": 35.1271676704,
			"-0.003": 63.2500247264,
			"-0.002": 63.5058275557,
			"-0.001": 62.2292444335,
			"0.0": 56.558395906,
			"0.001": 45.1026553939,
			"0.002": 26.4760846353,
			"0.003": 15.7657012612,
			"0.004": 11.7485377214,
			"0.005": 11.5647607012,
			"0.006": 6.59596292706,
			"0.007": 5.37316443916,
			"0.008": 5.76668029047,
			"0.009": 4.71040100719,
			"0.01": 6.16326579216,
			"0.011": 6.66599758477,
			"0.012": 9.8989507853,
			"0.013": 7.70447694183,
			"0.014": 1.83873969832,
			"0.015": 0.0104936839702,
			"0.016": 0.0,
			"0.017": 0.0,
			"0.018": 0.0,
			"0.019": 0.0,
			"0.02": 0.0,
			"0.021": 0.0,
			"0.022": 0.0,
			"0.023": 0.0,
			"0.024": 0.0,
			"0.025": 0.0
		}
	}
}
