{
	 "smiles": "OCCSCCSCCO", 
	 "Tm": 339.15, 
	 "num_atms": 24, 
	 "gaussian": { 
		 "optdone": 1, 
		 "sigma_profile": "yes", 
		 "theory": "DFT", 
		 "functional": "B3LYP", 
		 "basiset": "6-31G**", 
		 "properties": { 
			 "R2extent": 3979.3484, 
			 "electric_dipole_moment_norm": 4.73118005364, 
			 "electric_quadrupole_moment_norm": 13.3626206116, 
			 "total_energy": -1183.8698163, 
			 "HOMO_LUMO_gap": 0.24576, 
			 "cosmo_polarized_energy": -19.74, 
			 "cosmo_cavitation_energy": 29.78, 
			 "cosmo_dispersion_energy": -22.2, 
			 "cosmo_repulsion_energy": 1.79, 
			 "cosmo_total_nonelectrostatic_energy": 9.37, 
			 "SMD_solvation_energy": 4.18 
		},
		"coords": [
			{
				"x": 1.4921826445,
				"y": -4.4169668991,
				"z": -0.7594337392,
				"element": "O" 
			},
			{
				"x": 0.8804914076,
				"y": -3.2541697115,
				"z": -0.2137283626,
				"element": "C" 
			},
			{
				"x": 1.9666386715,
				"y": -2.4856847309,
				"z": 0.5309534946,
				"element": "C" 
			},
			{
				"x": 1.3708600623,
				"y": -0.956522111,
				"z": 1.3437337646,
				"element": "S" 
			},
			{
				"x": 1.2010842967,
				"y": 0.151789691,
				"z": -0.1191336182,
				"element": "C" 
			},
			{
				"x": 1.3797251383,
				"y": 1.6228681392,
				"z": 0.2598880417,
				"element": "C" 
			},
			{
				"x": 0.1805768532,
				"y": 2.2994624802,
				"z": 1.4754988193,
				"element": "S" 
			},
			{
				"x": -1.3377414885,
				"y": 2.4139510514,
				"z": 0.4490783432,
				"element": "C" 
			},
			{
				"x": -1.4297022997,
				"y": 3.6547772402,
				"z": -0.4309928976,
				"element": "C" 
			},
			{
				"x": -1.6088428584,
				"y": 4.781357243,
				"z": 0.4086216419,
				"element": "O" 
			},
			{
				"x": 0.8085867096,
				"y": -4.9398949358,
				"z": -1.1962471404,
				"element": "H" 
			},
			{
				"x": 0.0705623709,
				"y": -3.5060950251,
				"z": 0.4869624461,
				"element": "H" 
			},
			{
				"x": 0.4471562876,
				"y": -2.6212825533,
				"z": -1.0048151554,
				"element": "H" 
			},
			{
				"x": 2.3651126042,
				"y": -3.1109190546,
				"z": 1.3354355126,
				"element": "H" 
			},
			{
				"x": 2.7966800667,
				"y": -2.2544612301,
				"z": -0.1446668429,
				"element": "H" 
			},
			{
				"x": 0.2326557255,
				"y": -0.0087359856,
				"z": -0.6031779015,
				"element": "H" 
			},
			{
				"x": 1.9811083306,
				"y": -0.1220675824,
				"z": -0.8394976873,
				"element": "H" 
			},
			{
				"x": 1.3567445186,
				"y": 2.2372949854,
				"z": -0.6476742775,
				"element": "H" 
			},
			{
				"x": 2.3571136359,
				"y": 1.7711002752,
				"z": 0.7277286722,
				"element": "H" 
			},
			{
				"x": -1.4401971593,
				"y": 1.5082938769,
				"z": -0.1568376534,
				"element": "H" 
			},
			{
				"x": -2.168521181,
				"y": 2.4251728157,
				"z": 1.1604636733,
				"element": "H" 
			},
			{
				"x": -2.2850171971,
				"y": 3.5286702214,
				"z": -1.1182728439,
				"element": "H" 
			},
			{
				"x": -0.5247484533,
				"y": 3.7467902047,
				"z": -1.0520982444,
				"element": "H" 
			},
			{
				"x": -1.4633086863,
				"y": 5.5792715949,
				"z": -0.1130880453,
				"element": "H" 
			}
		],
		 "valence_orbital": [ 
			{
				"type": "occ",
				"energy": -0.2946,
				"method": "rhf"
			},
			{
				"type": "occ",
				"energy": -0.27101,
				"method": "rhf"
			},
			{
				"type": "occ",
				"energy": -0.269,
				"method": "rhf"
			},
			{
				"type": "occ",
				"energy": -0.22599,
				"method": "rhf"
			},
			{
				"type": "occ",
				"energy": -0.21306,
				"method": "rhf"
			},
			{
				"type": "unocc",
				"energy": 0.0327,
				"method": "rhf"
			},
			{
				"type": "unocc",
				"energy": 0.05334,
				"method": "rhf"
			},
			{
				"type": "unocc",
				"energy": 0.06481,
				"method": "rhf"
			},
			{
				"type": "unocc",
				"energy": 0.06819,
				"method": "rhf"
			},
			{
				"type": "unocc",
				"energy": 0.0797,
				"method": "rhf"
			}
		],
		"cosmo_sigma_profile": { 
			"-0.025": 0.0,
			"-0.024": 0.0,
			"-0.023": 0.0,
			"-0.022": 0.0,
			"-0.021": 0.0,
			"-0.02": 0.0,
			"-0.019": 0.0,
			"-0.018": 0.0,
			"-0.017": 0.0,
			"-0.016": 0.819305687938,
			"-0.015": 2.31495424251,
			"-0.014": 1.99881569491,
			"-0.013": 2.28788132597,
			"-0.012": 1.00048179842,
			"-0.011": 2.04801246992,
			"-0.01": 1.9815850548,
			"-0.009": 1.38820935953,
			"-0.008": 1.41468037028,
			"-0.007": 3.250374347,
			"-0.006": 14.698202984,
			"-0.005": 20.6604100966,
			"-0.004": 27.4342923024,
			"-0.003": 25.4820131717,
			"-0.002": 19.4530692698,
			"-0.001": 12.1362042519,
			"0.0": 7.72932788952,
			"0.001": 7.1530950219,
			"0.002": 5.21904847588,
			"0.003": 6.07916925144,
			"0.004": 6.03724410571,
			"0.005": 7.2803550075,
			"0.006": 8.75285191997,
			"0.007": 7.71300000416,
			"0.008": 7.44142184582,
			"0.009": 7.62383476634,
			"0.01": 5.72198434893,
			"0.011": 5.72903198264,
			"0.012": 4.51241909862,
			"0.013": 4.01156067594,
			"0.014": 4.62768091883,
			"0.015": 0.606947915195,
			"0.016": 0.0,
			"0.017": 0.0,
			"0.018": 0.0,
			"0.019": 0.0,
			"0.02": 0.0,
			"0.021": 0.0,
			"0.022": 0.0,
			"0.023": 0.0,
			"0.024": 0.0,
			"0.025": 0.0
		}
	}
}
