{
	 "smiles": "N1N=NN=C1C1=CC=CN=C1", 
	 "Tm": 514.15, 
	 "num_atms": 16, 
	 "gaussian": { 
		 "optdone": 1, 
		 "sigma_profile": "yes", 
		 "theory": "DFT", 
		 "functional": "B3LYP", 
		 "basiset": "6-31G**", 
		 "properties": { 
			 "R2extent": 2455.2134, 
			 "electric_dipole_moment_norm": 6.38366438732, 
			 "electric_quadrupole_moment_norm": 11.4753709814, 
			 "total_energy": -505.345492805, 
			 "HOMO_LUMO_gap": 0.1972, 
			 "cosmo_polarized_energy": -20.71, 
			 "cosmo_cavitation_energy": 21.31, 
			 "cosmo_dispersion_energy": -16.08, 
			 "cosmo_repulsion_energy": 1.26, 
			 "cosmo_total_nonelectrostatic_energy": 6.5, 
			 "SMD_solvation_energy": 0.55 
		},
		"coords": [
			{
				"x": -0.9891791121,
				"y": -0.0432935698,
				"z": 1.5239638677,
				"element": "N" 
			},
			{
				"x": -0.5253141683,
				"y": 0.4411591472,
				"z": 2.6996768567,
				"element": "N" 
			},
			{
				"x": 0.5626669129,
				"y": -0.2124746297,
				"z": 2.945783152,
				"element": "N" 
			},
			{
				"x": 0.8295727474,
				"y": -1.1128869458,
				"z": 1.9667470015,
				"element": "N" 
			},
			{
				"x": -0.1463042641,
				"y": -1.004493963,
				"z": 1.0755574411,
				"element": "C" 
			},
			{
				"x": -0.2781597338,
				"y": -1.7811330174,
				"z": -0.1558668754,
				"element": "C" 
			},
			{
				"x": -1.3385723823,
				"y": -1.6150144586,
				"z": -1.0557771914,
				"element": "C" 
			},
			{
				"x": -1.3777643324,
				"y": -2.4017821749,
				"z": -2.2025441459,
				"element": "C" 
			},
			{
				"x": -0.3545104388,
				"y": -3.3282149418,
				"z": -2.41004241,
				"element": "C" 
			},
			{
				"x": 0.6682267094,
				"y": -3.502864947,
				"z": -1.5622982038,
				"element": "N" 
			},
			{
				"x": 0.6990909306,
				"y": -2.7451810994,
				"z": -0.465287034,
				"element": "C" 
			},
			{
				"x": -1.8421373449,
				"y": 0.3275820451,
				"z": 1.1326431376,
				"element": "H" 
			},
			{
				"x": -2.1248496392,
				"y": -0.8869966246,
				"z": -0.8735919079,
				"element": "H" 
			},
			{
				"x": -2.1836243296,
				"y": -2.3008785657,
				"z": -2.9220120712,
				"element": "H" 
			},
			{
				"x": -0.3556560444,
				"y": -3.9588264416,
				"z": -3.2968783584,
				"element": "H" 
			},
			{
				"x": 1.5319144895,
				"y": -2.8930998129,
				"z": 0.2170267415,
				"element": "H" 
			}
		],
		 "valence_orbital": [ 
			{
				"type": "occ",
				"energy": -0.30564,
				"method": "rhf"
			},
			{
				"type": "occ",
				"energy": -0.30558,
				"method": "rhf"
			},
			{
				"type": "occ",
				"energy": -0.29171,
				"method": "rhf"
			},
			{
				"type": "occ",
				"energy": -0.27223,
				"method": "rhf"
			},
			{
				"type": "occ",
				"energy": -0.26711,
				"method": "rhf"
			},
			{
				"type": "unocc",
				"energy": -0.06991,
				"method": "rhf"
			},
			{
				"type": "unocc",
				"energy": -0.04319,
				"method": "rhf"
			},
			{
				"type": "unocc",
				"energy": -0.00851,
				"method": "rhf"
			},
			{
				"type": "unocc",
				"energy": 0.03477,
				"method": "rhf"
			},
			{
				"type": "unocc",
				"energy": 0.04014,
				"method": "rhf"
			}
		],
		"cosmo_sigma_profile": { 
			"-0.025": 0.0,
			"-0.024": 0.0,
			"-0.023": 0.0,
			"-0.022": 0.0,
			"-0.021": 0.0,
			"-0.02": 0.125804973446,
			"-0.019": 1.46013485504,
			"-0.018": 1.58216567094,
			"-0.017": 2.06376603544,
			"-0.016": 1.48998965877,
			"-0.015": 0.835259245451,
			"-0.014": 1.61724566295,
			"-0.013": 1.50968617564,
			"-0.012": 0.821070805581,
			"-0.011": 1.47445203131,
			"-0.01": 1.65245226246,
			"-0.009": 1.4022714932,
			"-0.008": 3.60246306208,
			"-0.007": 7.54115293766,
			"-0.006": 8.96867034233,
			"-0.005": 7.29850102764,
			"-0.004": 9.39966344346,
			"-0.003": 8.30771427846,
			"-0.002": 9.47977126872,
			"-0.001": 11.6214951828,
			"0.0": 15.3779467851,
			"0.001": 12.5971410848,
			"0.002": 7.0985886285,
			"0.003": 4.48855884964,
			"0.004": 3.92970907198,
			"0.005": 4.22215655659,
			"0.006": 4.46367275454,
			"0.007": 5.29198926468,
			"0.008": 5.5117642846,
			"0.009": 6.92805190424,
			"0.01": 5.54174653117,
			"0.011": 4.4649123355,
			"0.012": 4.47193641013,
			"0.013": 3.29818177006,
			"0.014": 1.4769078547,
			"0.015": 0.776359451857,
			"0.016": 0.493128200145,
			"0.017": 0.0211811494446,
			"0.018": 0.0,
			"0.019": 0.0,
			"0.02": 0.0,
			"0.021": 0.0,
			"0.022": 0.0,
			"0.023": 0.0,
			"0.024": 0.0,
			"0.025": 0.0
		}
	}
}
