{
	 "smiles": "COC1=C(Cl)C=C(C=C1)C(=O)CO", 
	 "Tm": 410.15, 
	 "num_atms": 22, 
	 "gaussian": { 
		 "optdone": 1, 
		 "sigma_profile": "yes", 
		 "theory": "DFT", 
		 "functional": "B3LYP", 
		 "basiset": "6-31G**", 
		 "properties": { 
			 "R2extent": 4171.3302, 
			 "electric_dipole_moment_norm": 4.08460390613, 
			 "electric_quadrupole_moment_norm": 9.7130305173, 
			 "total_energy": -1034.21739105, 
			 "HOMO_LUMO_gap": 0.18331, 
			 "cosmo_polarized_energy": -11.39, 
			 "cosmo_cavitation_energy": 28.06, 
			 "cosmo_dispersion_energy": -20.65, 
			 "cosmo_repulsion_energy": 1.64, 
			 "cosmo_total_nonelectrostatic_energy": 9.05, 
			 "SMD_solvation_energy": 5.88 
		},
		"coords": [
			{
				"x": 3.2693360789,
				"y": 3.3414496971,
				"z": 0.8248376222,
				"element": "C" 
			},
			{
				"x": 3.2349857177,
				"y": 1.970597495,
				"z": 1.2453335701,
				"element": "O" 
			},
			{
				"x": 2.2959761322,
				"y": 1.188803252,
				"z": 0.6394498898,
				"element": "C" 
			},
			{
				"x": 2.5208495774,
				"y": 0.5912193707,
				"z": -0.6161315832,
				"element": "C" 
			},
			{
				"x": 4.0295171036,
				"y": 0.8786337802,
				"z": -1.4579736345,
				"element": "Cl" 
			},
			{
				"x": 1.5688961147,
				"y": -0.245383189,
				"z": -1.18225035,
				"element": "C" 
			},
			{
				"x": 0.3669994337,
				"y": -0.5075320693,
				"z": -0.5069495845,
				"element": "C" 
			},
			{
				"x": 0.1408290074,
				"y": 0.078087523,
				"z": 0.747933895,
				"element": "C" 
			},
			{
				"x": 1.0970533664,
				"y": 0.9178284022,
				"z": 1.3088663628,
				"element": "C" 
			},
			{
				"x": -0.6175946915,
				"y": -1.4108125752,
				"z": -1.1591908863,
				"element": "C" 
			},
			{
				"x": -0.4076637642,
				"y": -1.9110945478,
				"z": -2.2584609143,
				"element": "O" 
			},
			{
				"x": -1.9375675388,
				"y": -1.7429295029,
				"z": -0.4630580462,
				"element": "C" 
			},
			{
				"x": -2.7128876362,
				"y": -2.6003092128,
				"z": -1.2475113139,
				"element": "O" 
			},
			{
				"x": 3.4948099984,
				"y": 3.4275934637,
				"z": -0.2429740455,
				"element": "H" 
			},
			{
				"x": 2.3152452475,
				"y": 3.8379902506,
				"z": 1.0401811873,
				"element": "H" 
			},
			{
				"x": 4.0647281472,
				"y": 3.813941161,
				"z": 1.4027394159,
				"element": "H" 
			},
			{
				"x": 1.741315755,
				"y": -0.7098544951,
				"z": -2.1463834722,
				"element": "H" 
			},
			{
				"x": -0.777597399,
				"y": -0.114782554,
				"z": 1.2923116719,
				"element": "H" 
			},
			{
				"x": 0.945098439,
				"y": 1.3734688024,
				"z": 2.2818281062,
				"element": "H" 
			},
			{
				"x": -1.71199003,
				"y": -2.1954018615,
				"z": 0.5170298587,
				"element": "H" 
			},
			{
				"x": -2.4721941136,
				"y": -0.8004932759,
				"z": -0.257691643,
				"element": "H" 
			},
			{
				"x": -2.1795449458,
				"y": -2.7596199145,
				"z": -2.0476361063,
				"element": "H" 
			}
		],
		 "valence_orbital": [ 
			{
				"type": "occ",
				"energy": -0.29519,
				"method": "rhf"
			},
			{
				"type": "occ",
				"energy": -0.27815,
				"method": "rhf"
			},
			{
				"type": "occ",
				"energy": -0.2744,
				"method": "rhf"
			},
			{
				"type": "occ",
				"energy": -0.2714,
				"method": "rhf"
			},
			{
				"type": "occ",
				"energy": -0.25815,
				"method": "rhf"
			},
			{
				"type": "unocc",
				"energy": -0.07484,
				"method": "rhf"
			},
			{
				"type": "unocc",
				"energy": -0.03168,
				"method": "rhf"
			},
			{
				"type": "unocc",
				"energy": 0.01809,
				"method": "rhf"
			},
			{
				"type": "unocc",
				"energy": 0.02274,
				"method": "rhf"
			},
			{
				"type": "unocc",
				"energy": 0.08686,
				"method": "rhf"
			}
		],
		"cosmo_sigma_profile": { 
			"-0.025": 0.0,
			"-0.024": 0.0,
			"-0.023": 0.0,
			"-0.022": 0.0,
			"-0.021": 0.0,
			"-0.02": 0.0,
			"-0.019": 0.0,
			"-0.018": 0.0,
			"-0.017": 0.0,
			"-0.016": 0.0,
			"-0.015": 0.0,
			"-0.014": 0.0,
			"-0.013": 0.0,
			"-0.012": 0.0,
			"-0.011": 0.0473749659243,
			"-0.01": 0.278571525175,
			"-0.009": 1.53475621377,
			"-0.008": 5.16488171891,
			"-0.007": 10.6950110807,
			"-0.006": 11.9086438163,
			"-0.005": 15.073484352,
			"-0.004": 17.6155505269,
			"-0.003": 19.2690886578,
			"-0.002": 15.3559869162,
			"-0.001": 13.7514995252,
			"0.0": 18.6943036859,
			"0.001": 23.1378762411,
			"0.002": 15.355094975,
			"0.003": 8.67037547595,
			"0.004": 11.7881417101,
			"0.005": 5.98737094843,
			"0.006": 3.81250460474,
			"0.007": 4.14719174203,
			"0.008": 4.44300638036,
			"0.009": 5.19320830799,
			"0.01": 4.77584290031,
			"0.011": 3.0906849186,
			"0.012": 1.58832349019,
			"0.013": 2.02187892211,
			"0.014": 2.18483854437,
			"0.015": 0.133825616959,
			"0.016": 0.0,
			"0.017": 0.0,
			"0.018": 0.0,
			"0.019": 0.0,
			"0.02": 0.0,
			"0.021": 0.0,
			"0.022": 0.0,
			"0.023": 0.0,
			"0.024": 0.0,
			"0.025": 0.0
		}
	}
}
