{
	 "smiles": "CN1C(=C)C(C)(C)C2=C1C=CC=C2", 
	 "Tm": 265.15, 
	 "num_atms": 28, 
	 "gaussian": { 
		 "optdone": 1, 
		 "sigma_profile": "yes", 
		 "theory": "DFT", 
		 "functional": "B3LYP", 
		 "basiset": "6-31G**", 
		 "properties": { 
			 "R2extent": 2551.1576, 
			 "electric_dipole_moment_norm": 0.741728434132, 
			 "electric_quadrupole_moment_norm": 6.69389355234, 
			 "total_energy": -521.066077838, 
			 "HOMO_LUMO_gap": 0.17959, 
			 "cosmo_polarized_energy": -5.28, 
			 "cosmo_cavitation_energy": 29.41, 
			 "cosmo_dispersion_energy": -20.63, 
			 "cosmo_repulsion_energy": 1.6, 
			 "cosmo_total_nonelectrostatic_energy": 10.38, 
			 "SMD_solvation_energy": 5.48 
		},
		"coords": [
			{
				"x": -1.0934124189,
				"y": 1.1184904288,
				"z": 2.1669221188,
				"element": "C" 
			},
			{
				"x": -0.8273177786,
				"y": 0.3450418179,
				"z": 0.978357354,
				"element": "N" 
			},
			{
				"x": 0.2001824669,
				"y": -0.6001197162,
				"z": 0.9132404821,
				"element": "C" 
			},
			{
				"x": 1.0430912496,
				"y": -0.8995257054,
				"z": 1.9151886443,
				"element": "C" 
			},
			{
				"x": 0.1899397055,
				"y": -1.2258042131,
				"z": -0.4941301507,
				"element": "C" 
			},
			{
				"x": -0.0619730516,
				"y": -2.7467648271,
				"z": -0.4193304233,
				"element": "C" 
			},
			{
				"x": 1.5161831007,
				"y": -0.9417888059,
				"z": -1.2315081548,
				"element": "C" 
			},
			{
				"x": -0.9782338776,
				"y": -0.4962761025,
				"z": -1.1450831156,
				"element": "C" 
			},
			{
				"x": -1.5322755996,
				"y": 0.4115184815,
				"z": -0.2256627638,
				"element": "C" 
			},
			{
				"x": -2.6225508978,
				"y": 1.2113097457,
				"z": -0.569014664,
				"element": "C" 
			},
			{
				"x": -3.1497854997,
				"y": 1.0850258354,
				"z": -1.8607989061,
				"element": "C" 
			},
			{
				"x": -2.6079984872,
				"y": 0.1887082543,
				"z": -2.7822549487,
				"element": "C" 
			},
			{
				"x": -1.5114059817,
				"y": -0.6091990387,
				"z": -2.4189454972,
				"element": "C" 
			},
			{
				"x": -1.3681490563,
				"y": 0.4679913028,
				"z": 3.007786809,
				"element": "H" 
			},
			{
				"x": -1.9135776843,
				"y": 1.8126140858,
				"z": 1.9837921977,
				"element": "H" 
			},
			{
				"x": -0.2081574136,
				"y": 1.6973005617,
				"z": 2.4602136625,
				"element": "H" 
			},
			{
				"x": 0.9924078928,
				"y": -0.4203435196,
				"z": 2.8854436314,
				"element": "H" 
			},
			{
				"x": 1.8139162943,
				"y": -1.6471344791,
				"z": 1.7742803325,
				"element": "H" 
			},
			{
				"x": -0.9971040425,
				"y": -2.9652303064,
				"z": 0.1037288471,
				"element": "H" 
			},
			{
				"x": 0.7523098488,
				"y": -3.2475199843,
				"z": 0.11427069,
				"element": "H" 
			},
			{
				"x": -0.1252880144,
				"y": -3.1750092911,
				"z": -1.4255300017,
				"element": "H" 
			},
			{
				"x": 2.3560260151,
				"y": -1.4135071603,
				"z": -0.7111838599,
				"element": "H" 
			},
			{
				"x": 1.711431753,
				"y": 0.132617331,
				"z": -1.2895866397,
				"element": "H" 
			},
			{
				"x": 1.480051026,
				"y": -1.3379386303,
				"z": -2.2521003579,
				"element": "H" 
			},
			{
				"x": -3.0606492197,
				"y": 1.9137597707,
				"z": 0.1325969228,
				"element": "H" 
			},
			{
				"x": -3.999006632,
				"y": 1.7006812294,
				"z": -2.1442310031,
				"element": "H" 
			},
			{
				"x": -3.033134817,
				"y": 0.1074200004,
				"z": -3.7777521658,
				"element": "H" 
			},
			{
				"x": -1.08641888,
				"y": -1.3096170656,
				"z": -3.1338090399,
				"element": "H" 
			}
		],
		 "valence_orbital": [ 
			{
				"type": "occ",
				"energy": -0.31578,
				"method": "rhf"
			},
			{
				"type": "occ",
				"energy": -0.3155,
				"method": "rhf"
			},
			{
				"type": "occ",
				"energy": -0.24835,
				"method": "rhf"
			},
			{
				"type": "occ",
				"energy": -0.23991,
				"method": "rhf"
			},
			{
				"type": "occ",
				"energy": -0.17664,
				"method": "rhf"
			},
			{
				"type": "unocc",
				"energy": 0.00295,
				"method": "rhf"
			},
			{
				"type": "unocc",
				"energy": 0.0145,
				"method": "rhf"
			},
			{
				"type": "unocc",
				"energy": 0.05494,
				"method": "rhf"
			},
			{
				"type": "unocc",
				"energy": 0.08474,
				"method": "rhf"
			},
			{
				"type": "unocc",
				"energy": 0.10102,
				"method": "rhf"
			}
		],
		"cosmo_sigma_profile": { 
			"-0.025": 0.0,
			"-0.024": 0.0,
			"-0.023": 0.0,
			"-0.022": 0.0,
			"-0.021": 0.0,
			"-0.02": 0.0,
			"-0.019": 0.0,
			"-0.018": 0.0,
			"-0.017": 0.0,
			"-0.016": 0.0,
			"-0.015": 0.0,
			"-0.014": 0.0,
			"-0.013": 0.0,
			"-0.012": 0.0,
			"-0.011": 0.0,
			"-0.01": 0.0,
			"-0.009": 0.0,
			"-0.008": 0.489447217884,
			"-0.007": 1.90836047309,
			"-0.006": 3.08689892773,
			"-0.005": 8.50701973909,
			"-0.004": 20.2639539056,
			"-0.003": 32.9548428059,
			"-0.002": 27.5580641104,
			"-0.001": 22.1992088922,
			"0.0": 21.738878585,
			"0.001": 23.6927884228,
			"0.002": 13.1430125083,
			"0.003": 12.7670758743,
			"0.004": 10.45643402,
			"0.005": 9.90159409587,
			"0.006": 9.85366687211,
			"0.007": 9.16268967088,
			"0.008": 3.02152381595,
			"0.009": 0.764428006839,
			"0.01": 0.0,
			"0.011": 0.0,
			"0.012": 0.0,
			"0.013": 0.0,
			"0.014": 0.0,
			"0.015": 0.0,
			"0.016": 0.0,
			"0.017": 0.0,
			"0.018": 0.0,
			"0.019": 0.0,
			"0.02": 0.0,
			"0.021": 0.0,
			"0.022": 0.0,
			"0.023": 0.0,
			"0.024": 0.0,
			"0.025": 0.0
		}
	}
}
