{
	 "smiles": "CC1=CC=C(OC2=CC=C(C)C=C2)C=C1", 
	 "Tm": 324.15, 
	 "num_atms": 29, 
	 "gaussian": { 
		 "optdone": 1, 
		 "sigma_profile": "yes", 
		 "theory": "DFT", 
		 "functional": "B3LYP", 
		 "basiset": "6-31G**", 
		 "properties": { 
			 "R2extent": 5013.8174, 
			 "electric_dipole_moment_norm": 1.25226398575, 
			 "electric_quadrupole_moment_norm": 7.66049814503, 
			 "total_energy": -617.156722921, 
			 "HOMO_LUMO_gap": 0.20059, 
			 "cosmo_polarized_energy": -5.74, 
			 "cosmo_cavitation_energy": 32.61, 
			 "cosmo_dispersion_energy": -23.54, 
			 "cosmo_repulsion_energy": 1.85, 
			 "cosmo_total_nonelectrostatic_energy": 10.92, 
			 "SMD_solvation_energy": 5.85 
		},
		"coords": [
			{
				"x": -5.1822915145,
				"y": 1.7227745467,
				"z": -1.0920651243,
				"element": "C" 
			},
			{
				"x": -3.7088855391,
				"y": 1.4436744017,
				"z": -0.9069053034,
				"element": "C" 
			},
			{
				"x": -3.2507042201,
				"y": 0.1598794604,
				"z": -0.5817539098,
				"element": "C" 
			},
			{
				"x": -1.8920756799,
				"y": -0.1176154818,
				"z": -0.4341083856,
				"element": "C" 
			},
			{
				"x": -0.9593892236,
				"y": 0.9061482435,
				"z": -0.6221345471,
				"element": "C" 
			},
			{
				"x": 0.3967554832,
				"y": 0.73392725,
				"z": -0.4201706007,
				"element": "O" 
			},
			{
				"x": 1.0267682556,
				"y": -0.4320640382,
				"z": -0.8114693424,
				"element": "C" 
			},
			{
				"x": 0.7275331654,
				"y": -1.0941444364,
				"z": -2.0053979518,
				"element": "C" 
			},
			{
				"x": 1.4650297969,
				"y": -2.2216963618,
				"z": -2.365122811,
				"element": "C" 
			},
			{
				"x": 2.5071765263,
				"y": -2.70645398,
				"z": -1.5634233055,
				"element": "C" 
			},
			{
				"x": 3.2783926283,
				"y": -3.9464447083,
				"z": -1.9516739221,
				"element": "C" 
			},
			{
				"x": 2.794603539,
				"y": -2.0151550347,
				"z": -0.3788740876,
				"element": "C" 
			},
			{
				"x": 2.0631866748,
				"y": -0.891670789,
				"z": 0.002589233,
				"element": "C" 
			},
			{
				"x": -1.3899219898,
				"y": 2.1947589362,
				"z": -0.9418158301,
				"element": "C" 
			},
			{
				"x": -2.7527891849,
				"y": 2.454057303,
				"z": -1.076197805,
				"element": "C" 
			},
			{
				"x": -5.4290146808,
				"y": 2.7576626432,
				"z": -0.8357186277,
				"element": "H" 
			},
			{
				"x": -5.7958099805,
				"y": 1.0661808795,
				"z": -0.4673818384,
				"element": "H" 
			},
			{
				"x": -5.493192786,
				"y": 1.5635547225,
				"z": -2.1325739754,
				"element": "H" 
			},
			{
				"x": -3.9705251794,
				"y": -0.6409928686,
				"z": -0.4301153215,
				"element": "H" 
			},
			{
				"x": -1.5579744504,
				"y": -1.1149494646,
				"z": -0.1690934212,
				"element": "H" 
			},
			{
				"x": -0.066787475,
				"y": -0.7266306289,
				"z": -2.6461084522,
				"element": "H" 
			},
			{
				"x": 1.2287191637,
				"y": -2.7292048008,
				"z": -3.2973931972,
				"element": "H" 
			},
			{
				"x": 4.3044772784,
				"y": -3.914851629,
				"z": -1.5725552464,
				"element": "H" 
			},
			{
				"x": 2.8108428923,
				"y": -4.8530418915,
				"z": -1.5465187571,
				"element": "H" 
			},
			{
				"x": 3.3250232689,
				"y": -4.0650198782,
				"z": -3.0386471707,
				"element": "H" 
			},
			{
				"x": 3.6028640014,
				"y": -2.3619700764,
				"z": 0.2604019193,
				"element": "H" 
			},
			{
				"x": 2.2874222741,
				"y": -0.3559666663,
				"z": 0.9192460578,
				"element": "H" 
			},
			{
				"x": -0.6502745473,
				"y": 2.9781053039,
				"z": -1.071474884,
				"element": "H" 
			},
			{
				"x": -3.0775584971,
				"y": 3.4624490443,
				"z": -1.320943392,
				"element": "H" 
			}
		],
		 "valence_orbital": [ 
			{
				"type": "occ",
				"energy": -0.31342,
				"method": "rhf"
			},
			{
				"type": "occ",
				"energy": -0.2519,
				"method": "rhf"
			},
			{
				"type": "occ",
				"energy": -0.24709,
				"method": "rhf"
			},
			{
				"type": "occ",
				"energy": -0.23675,
				"method": "rhf"
			},
			{
				"type": "occ",
				"energy": -0.20723,
				"method": "rhf"
			},
			{
				"type": "unocc",
				"energy": -0.00664,
				"method": "rhf"
			},
			{
				"type": "unocc",
				"energy": 0.00082,
				"method": "rhf"
			},
			{
				"type": "unocc",
				"energy": 0.00541,
				"method": "rhf"
			},
			{
				"type": "unocc",
				"energy": 0.0185,
				"method": "rhf"
			},
			{
				"type": "unocc",
				"energy": 0.09377,
				"method": "rhf"
			}
		],
		"cosmo_sigma_profile": { 
			"-0.025": 0.0,
			"-0.024": 0.0,
			"-0.023": 0.0,
			"-0.022": 0.0,
			"-0.021": 0.0,
			"-0.02": 0.0,
			"-0.019": 0.0,
			"-0.018": 0.0,
			"-0.017": 0.0,
			"-0.016": 0.0,
			"-0.015": 0.0,
			"-0.014": 0.0,
			"-0.013": 0.0,
			"-0.012": 0.0,
			"-0.011": 0.0,
			"-0.01": 0.0,
			"-0.009": 0.0,
			"-0.008": 0.0,
			"-0.007": 0.0662842335403,
			"-0.006": 5.99991126308,
			"-0.005": 15.4060409809,
			"-0.004": 27.869709728,
			"-0.003": 26.4888754563,
			"-0.002": 23.449790261,
			"-0.001": 23.4502721467,
			"0.0": 30.7827979301,
			"0.001": 19.4953037596,
			"0.002": 16.2893104794,
			"0.003": 17.5465948075,
			"0.004": 18.7526148513,
			"0.005": 18.671251241,
			"0.006": 10.3101270475,
			"0.007": 1.78054303091,
			"0.008": 1.15804907371,
			"0.009": 1.30471693198,
			"0.01": 0.440674788369,
			"0.011": 0.0,
			"0.012": 0.0,
			"0.013": 0.0,
			"0.014": 0.0,
			"0.015": 0.0,
			"0.016": 0.0,
			"0.017": 0.0,
			"0.018": 0.0,
			"0.019": 0.0,
			"0.02": 0.0,
			"0.021": 0.0,
			"0.022": 0.0,
			"0.023": 0.0,
			"0.024": 0.0,
			"0.025": 0.0
		}
	}
}
