{
	 "smiles": "CC(C)(C)OC(=O)NCC1(CCCC1)C(O)=O", 
	 "Tm": 397.15, 
	 "num_atms": 38, 
	 "gaussian": { 
		 "optdone": 1, 
		 "sigma_profile": "yes", 
		 "theory": "DFT", 
		 "functional": "B3LYP", 
		 "basiset": "6-31G**", 
		 "properties": { 
			 "R2extent": 5179.5116, 
			 "electric_dipole_moment_norm": 7.34310011099, 
			 "electric_quadrupole_moment_norm": 18.1388589553, 
			 "total_energy": -825.64099893, 
			 "HOMO_LUMO_gap": 0.26809, 
			 "cosmo_polarized_energy": -16.76, 
			 "cosmo_cavitation_energy": 37.48, 
			 "cosmo_dispersion_energy": -26.14, 
			 "cosmo_repulsion_energy": 2.03, 
			 "cosmo_total_nonelectrostatic_energy": 13.37, 
			 "SMD_solvation_energy": 7.4 
		},
		"coords": [
			{
				"x": 3.0054099737,
				"y": -2.4001891248,
				"z": -2.0035791518,
				"element": "C" 
			},
			{
				"x": 2.2141457786,
				"y": -1.1653219422,
				"z": -2.4437182521,
				"element": "C" 
			},
			{
				"x": 3.0576477114,
				"y": -0.2705347074,
				"z": -3.3544029954,
				"element": "C" 
			},
			{
				"x": 0.8845978263,
				"y": -1.5273987229,
				"z": -3.1115820555,
				"element": "C" 
			},
			{
				"x": 1.9703123571,
				"y": -0.2857755344,
				"z": -1.2782187171,
				"element": "O" 
			},
			{
				"x": 1.2345811209,
				"y": -0.6915825428,
				"z": -0.2319051827,
				"element": "C" 
			},
			{
				"x": 0.7241103053,
				"y": -1.8077908415,
				"z": -0.0997964989,
				"element": "O" 
			},
			{
				"x": 1.1135735891,
				"y": 0.2960141391,
				"z": 0.6890294914,
				"element": "N" 
			},
			{
				"x": 0.4686731944,
				"y": 0.0917253849,
				"z": 1.9814356506,
				"element": "C" 
			},
			{
				"x": -1.1050804965,
				"y": 0.1193818624,
				"z": 2.0284174498,
				"element": "C" 
			},
			{
				"x": -1.5748875963,
				"y": 1.1919656533,
				"z": 3.037518197,
				"element": "C" 
			},
			{
				"x": -1.4443254838,
				"y": 2.5301581589,
				"z": 2.2817306883,
				"element": "C" 
			},
			{
				"x": -1.6488417278,
				"y": 2.1800815668,
				"z": 0.7786452836,
				"element": "C" 
			},
			{
				"x": -1.7626956296,
				"y": 0.6378699664,
				"z": 0.7175148039,
				"element": "C" 
			},
			{
				"x": -1.6847361515,
				"y": -1.2671523187,
				"z": 2.3881641668,
				"element": "C" 
			},
			{
				"x": -1.188657953,
				"y": -2.3268856062,
				"z": 1.7343846075,
				"element": "O" 
			},
			{
				"x": -2.5749113839,
				"y": -1.4066196408,
				"z": 3.1997948975,
				"element": "O" 
			},
			{
				"x": 3.285571586,
				"y": -2.9860899653,
				"z": -2.8847324493,
				"element": "H" 
			},
			{
				"x": 3.924294495,
				"y": -2.1007554142,
				"z": -1.489909293,
				"element": "H" 
			},
			{
				"x": 2.4153825544,
				"y": -3.030148164,
				"z": -1.3375022663,
				"element": "H" 
			},
			{
				"x": 3.9834586979,
				"y": 0.0278279432,
				"z": -2.8542606354,
				"element": "H" 
			},
			{
				"x": 2.5058372297,
				"y": 0.6329209762,
				"z": -3.6294944249,
				"element": "H" 
			},
			{
				"x": 3.3171619852,
				"y": -0.8097382039,
				"z": -4.2699262451,
				"element": "H" 
			},
			{
				"x": 1.0811847313,
				"y": -2.0709010021,
				"z": -4.0411145719,
				"element": "H" 
			},
			{
				"x": 0.3242659914,
				"y": -0.6211552377,
				"z": -3.3624187396,
				"element": "H" 
			},
			{
				"x": 0.273513258,
				"y": -2.1557841205,
				"z": -2.4632159131,
				"element": "H" 
			},
			{
				"x": 1.5461439924,
				"y": 1.1811338837,
				"z": 0.474538493,
				"element": "H" 
			},
			{
				"x": 0.8293959515,
				"y": -0.8562381899,
				"z": 2.3919596784,
				"element": "H" 
			},
			{
				"x": 0.8527638173,
				"y": 0.8789873974,
				"z": 2.6336296823,
				"element": "H" 
			},
			{
				"x": -2.6152085442,
				"y": 0.9810034358,
				"z": 3.2948068036,
				"element": "H" 
			},
			{
				"x": -1.006362504,
				"y": 1.1646859013,
				"z": 3.9735967732,
				"element": "H" 
			},
			{
				"x": -2.1668185049,
				"y": 3.2679862604,
				"z": 2.6426902893,
				"element": "H" 
			},
			{
				"x": -0.4524852052,
				"y": 2.9715036033,
				"z": 2.4378348319,
				"element": "H" 
			},
			{
				"x": -2.5427248206,
				"y": 2.654982628,
				"z": 0.3634288667,
				"element": "H" 
			},
			{
				"x": -0.803390728,
				"y": 2.531697682,
				"z": 0.1775515423,
				"element": "H" 
			},
			{
				"x": -1.3270993971,
				"y": 0.2066226622,
				"z": -0.1863109941,
				"element": "H" 
			},
			{
				"x": -2.816772526,
				"y": 0.3408677918,
				"z": 0.7390381578,
				"element": "H" 
			},
			{
				"x": -0.4969274943,
				"y": -2.0953556178,
				"z": 1.0673780309,
				"element": "H" 
			}
		],
		 "valence_orbital": [ 
			{
				"type": "occ",
				"energy": -0.31108,
				"method": "rhf"
			},
			{
				"type": "occ",
				"energy": -0.29257,
				"method": "rhf"
			},
			{
				"type": "occ",
				"energy": -0.28582,
				"method": "rhf"
			},
			{
				"type": "occ",
				"energy": -0.27306,
				"method": "rhf"
			},
			{
				"type": "occ",
				"energy": -0.24152,
				"method": "rhf"
			},
			{
				"type": "unocc",
				"energy": 0.02657,
				"method": "rhf"
			},
			{
				"type": "unocc",
				"energy": 0.03207,
				"method": "rhf"
			},
			{
				"type": "unocc",
				"energy": 0.04631,
				"method": "rhf"
			},
			{
				"type": "unocc",
				"energy": 0.07523,
				"method": "rhf"
			},
			{
				"type": "unocc",
				"energy": 0.0847,
				"method": "rhf"
			}
		],
		"cosmo_sigma_profile": { 
			"-0.025": 0.0,
			"-0.024": 0.0,
			"-0.023": 0.0,
			"-0.022": 0.0,
			"-0.021": 0.0,
			"-0.02": 0.0,
			"-0.019": 0.0,
			"-0.018": 0.0,
			"-0.017": 0.0,
			"-0.016": 0.0,
			"-0.015": 0.191236081372,
			"-0.014": 0.791591128783,
			"-0.013": 1.17660783156,
			"-0.012": 1.23095068603,
			"-0.011": 0.77874954698,
			"-0.01": 1.02101218193,
			"-0.009": 1.19519418689,
			"-0.008": 1.23684607258,
			"-0.007": 2.78684019273,
			"-0.006": 5.9944577903,
			"-0.005": 9.52213109793,
			"-0.004": 23.1616037716,
			"-0.003": 30.9585304571,
			"-0.002": 38.9281243334,
			"-0.001": 38.9801590986,
			"0.0": 40.5548191036,
			"0.001": 29.4314720816,
			"0.002": 7.77037792356,
			"0.003": 6.32629991932,
			"0.004": 5.19109598501,
			"0.005": 4.92211697908,
			"0.006": 6.2853892343,
			"0.007": 4.33745342257,
			"0.008": 3.22914382508,
			"0.009": 4.02191113654,
			"0.01": 3.02005249445,
			"0.011": 3.9545533753,
			"0.012": 6.08817469789,
			"0.013": 5.60872462175,
			"0.014": 1.75682773717,
			"0.015": 0.240705665974,
			"0.016": 0.0,
			"0.017": 0.0,
			"0.018": 0.0,
			"0.019": 0.0,
			"0.02": 0.0,
			"0.021": 0.0,
			"0.022": 0.0,
			"0.023": 0.0,
			"0.024": 0.0,
			"0.025": 0.0
		}
	}
}
