{
	 "smiles": "NC1=CC=C(CC(=O)NC2=C(F)C=CC=C2)C=C1", 
	 "Tm": 384.15, 
	 "num_atms": 31, 
	 "gaussian": { 
		 "optdone": 1, 
		 "sigma_profile": "yes", 
		 "theory": "DFT", 
		 "functional": "B3LYP", 
		 "basiset": "6-31G**", 
		 "properties": { 
			 "R2extent": 5202.491, 
			 "electric_dipole_moment_norm": 4.51743771733, 
			 "electric_quadrupole_moment_norm": 14.2122236093, 
			 "total_energy": -825.903123368, 
			 "HOMO_LUMO_gap": 0.17295, 
			 "cosmo_polarized_energy": -16.88, 
			 "cosmo_cavitation_energy": 35.85, 
			 "cosmo_dispersion_energy": -24.37, 
			 "cosmo_repulsion_energy": 1.89, 
			 "cosmo_total_nonelectrostatic_energy": 13.38, 
			 "SMD_solvation_energy": 6.82 
		},
		"coords": [
			{
				"x": 1.6231405125,
				"y": 1.6937803729,
				"z": 3.7008498157,
				"element": "N" 
			},
			{
				"x": 1.5162148487,
				"y": 1.1317612125,
				"z": 2.4247343679,
				"element": "C" 
			},
			{
				"x": 0.4654016288,
				"y": 1.4885224147,
				"z": 1.5649338291,
				"element": "C" 
			},
			{
				"x": 0.3335738425,
				"y": 0.8814181081,
				"z": 0.3174916802,
				"element": "C" 
			},
			{
				"x": 1.2398685749,
				"y": -0.0905517452,
				"z": -0.1191869449,
				"element": "C" 
			},
			{
				"x": 1.1057383206,
				"y": -0.7422793781,
				"z": -1.4864159401,
				"element": "C" 
			},
			{
				"x": 0.946647312,
				"y": -2.2546007146,
				"z": -1.3605386567,
				"element": "C" 
			},
			{
				"x": 1.9110747605,
				"y": -3.0068347308,
				"z": -1.3600906421,
				"element": "O" 
			},
			{
				"x": -0.322609693,
				"y": -2.7728068761,
				"z": -1.1638077341,
				"element": "N" 
			},
			{
				"x": -1.5738714191,
				"y": -2.1170478295,
				"z": -1.0781755732,
				"element": "C" 
			},
			{
				"x": -2.1056131323,
				"y": -1.3987412583,
				"z": -2.1570822458,
				"element": "C" 
			},
			{
				"x": -1.3777370907,
				"y": -1.2833307521,
				"z": -3.2894494292,
				"element": "F" 
			},
			{
				"x": -3.3520046463,
				"y": -0.789034316,
				"z": -2.1004720254,
				"element": "C" 
			},
			{
				"x": -4.1238427322,
				"y": -0.9262171354,
				"z": -0.9461056765,
				"element": "C" 
			},
			{
				"x": -3.6328741622,
				"y": -1.6585827302,
				"z": 0.136675253,
				"element": "C" 
			},
			{
				"x": -2.3672547306,
				"y": -2.2395973977,
				"z": 0.0707875016,
				"element": "C" 
			},
			{
				"x": 2.28608924,
				"y": -0.446737363,
				"z": 0.7440774134,
				"element": "C" 
			},
			{
				"x": 2.4256139833,
				"y": 0.150012371,
				"z": 1.9924233612,
				"element": "C" 
			},
			{
				"x": 2.5533067054,
				"y": 1.6734802543,
				"z": 4.0965563964,
				"element": "H" 
			},
			{
				"x": 1.1977095639,
				"y": 2.6054934345,
				"z": 3.800642451,
				"element": "H" 
			},
			{
				"x": -0.2534376481,
				"y": 2.2415798243,
				"z": 1.8794825165,
				"element": "H" 
			},
			{
				"x": -0.4894654127,
				"y": 1.1763166864,
				"z": -0.3288665082,
				"element": "H" 
			},
			{
				"x": 0.2820677366,
				"y": -0.293644585,
				"z": -2.0416333165,
				"element": "H" 
			},
			{
				"x": 2.0186217572,
				"y": -0.5970603042,
				"z": -2.0717166017,
				"element": "H" 
			},
			{
				"x": -0.2996389705,
				"y": -3.7578271716,
				"z": -0.9289895604,
				"element": "H" 
			},
			{
				"x": -3.7053978807,
				"y": -0.2391954492,
				"z": -2.9661788116,
				"element": "H" 
			},
			{
				"x": -5.1039360318,
				"y": -0.4623054649,
				"z": -0.896625757,
				"element": "H" 
			},
			{
				"x": -4.2285092978,
				"y": -1.7685264465,
				"z": 1.0372915649,
				"element": "H" 
			},
			{
				"x": -1.9684337528,
				"y": -2.7929414834,
				"z": 0.9157489078,
				"element": "H" 
			},
			{
				"x": 2.9945870904,
				"y": -1.2082503763,
				"z": 0.4299316478,
				"element": "H" 
			},
			{
				"x": 3.2443707235,
				"y": -0.1450511705,
				"z": 2.6447087171,
				"element": "H" 
			}
		],
		 "valence_orbital": [ 
			{
				"type": "occ",
				"energy": -0.25939,
				"method": "rhf"
			},
			{
				"type": "occ",
				"energy": -0.24788,
				"method": "rhf"
			},
			{
				"type": "occ",
				"energy": -0.24212,
				"method": "rhf"
			},
			{
				"type": "occ",
				"energy": -0.2347,
				"method": "rhf"
			},
			{
				"type": "occ",
				"energy": -0.19576,
				"method": "rhf"
			},
			{
				"type": "unocc",
				"energy": -0.02281,
				"method": "rhf"
			},
			{
				"type": "unocc",
				"energy": -0.00878,
				"method": "rhf"
			},
			{
				"type": "unocc",
				"energy": 0.00618,
				"method": "rhf"
			},
			{
				"type": "unocc",
				"energy": 0.01263,
				"method": "rhf"
			},
			{
				"type": "unocc",
				"energy": 0.04117,
				"method": "rhf"
			}
		],
		"cosmo_sigma_profile": { 
			"-0.025": 0.0,
			"-0.024": 0.0,
			"-0.023": 0.0,
			"-0.022": 0.0,
			"-0.021": 0.0,
			"-0.02": 0.0,
			"-0.019": 0.0,
			"-0.018": 0.0,
			"-0.017": 0.0,
			"-0.016": 0.0,
			"-0.015": 0.226101935222,
			"-0.014": 0.796650248226,
			"-0.013": 1.17379058356,
			"-0.012": 3.15985052923,
			"-0.011": 3.74058549338,
			"-0.01": 3.70970395962,
			"-0.009": 4.09507547023,
			"-0.008": 4.34564707125,
			"-0.007": 9.83503830568,
			"-0.006": 13.5807390468,
			"-0.005": 18.2733209611,
			"-0.004": 18.8002919124,
			"-0.003": 17.1702965745,
			"-0.002": 17.5706850441,
			"-0.001": 17.0001939912,
			"0.0": 17.8756621117,
			"0.001": 17.5603487143,
			"0.002": 19.6358053867,
			"0.003": 22.693094564,
			"0.004": 24.6049130948,
			"0.005": 10.8834861681,
			"0.006": 10.8775633368,
			"0.007": 6.86358151642,
			"0.008": 2.22203069311,
			"0.009": 2.15920383164,
			"0.01": 2.25742356957,
			"0.011": 2.14474993942,
			"0.012": 2.93832684597,
			"0.013": 5.44791568748,
			"0.014": 3.40788347395,
			"0.015": 0.512716424567,
			"0.016": 0.0,
			"0.017": 0.0,
			"0.018": 0.0,
			"0.019": 0.0,
			"0.02": 0.0,
			"0.021": 0.0,
			"0.022": 0.0,
			"0.023": 0.0,
			"0.024": 0.0,
			"0.025": 0.0
		}
	}
}
