{
	 "smiles": "NC1=CC=C(NC(=O)CN2CCCCCC2)C=C1", 
	 "Tm": 356.15, 
	 "num_atms": 39, 
	 "gaussian": { 
		 "optdone": 1, 
		 "sigma_profile": "yes", 
		 "theory": "DFT", 
		 "functional": "B3LYP", 
		 "basiset": "6-31G**", 
		 "properties": { 
			 "R2extent": 6151.6492, 
			 "electric_dipole_moment_norm": 5.78931963965, 
			 "electric_quadrupole_moment_norm": 9.9879649694, 
			 "total_energy": -785.630515434, 
			 "HOMO_LUMO_gap": 0.17585, 
			 "cosmo_polarized_energy": -17.26, 
			 "cosmo_cavitation_energy": 39.7, 
			 "cosmo_dispersion_energy": -27.47, 
			 "cosmo_repulsion_energy": 2.18, 
			 "cosmo_total_nonelectrostatic_energy": 14.41, 
			 "SMD_solvation_energy": 4.67 
		},
		"coords": [
			{
				"x": -2.6212396447,
				"y": 3.2786378497,
				"z": 4.1900746933,
				"element": "N" 
			},
			{
				"x": -2.2835353445,
				"y": 3.0072994649,
				"z": 2.8667976805,
				"element": "C" 
			},
			{
				"x": -1.1242719487,
				"y": 3.5598208814,
				"z": 2.2920865789,
				"element": "C" 
			},
			{
				"x": -0.8178233211,
				"y": 3.3295305615,
				"z": 0.9549813476,
				"element": "C" 
			},
			{
				"x": -1.6542532617,
				"y": 2.5470592426,
				"z": 0.1493635991,
				"element": "C" 
			},
			{
				"x": -1.3449893588,
				"y": 2.3360302643,
				"z": -1.230916139,
				"element": "N" 
			},
			{
				"x": -0.7306496921,
				"y": 1.2435304861,
				"z": -1.8080102449,
				"element": "C" 
			},
			{
				"x": -0.5867504205,
				"y": 1.178614882,
				"z": -3.0197538989,
				"element": "O" 
			},
			{
				"x": -0.2357383376,
				"y": 0.1734745532,
				"z": -0.8208604941,
				"element": "C" 
			},
			{
				"x": 0.3405376471,
				"y": -0.9813469495,
				"z": -1.4679343737,
				"element": "N" 
			},
			{
				"x": 0.2125312106,
				"y": -2.2358314662,
				"z": -0.7397115157,
				"element": "C" 
			},
			{
				"x": 0.8196978789,
				"y": -2.3431806864,
				"z": 0.6829864325,
				"element": "C" 
			},
			{
				"x": 2.1926844006,
				"y": -1.6729283072,
				"z": 0.908303822,
				"element": "C" 
			},
			{
				"x": 3.1682593212,
				"y": -1.6775294495,
				"z": -0.2832112058,
				"element": "C" 
			},
			{
				"x": 2.8749189542,
				"y": -0.5836026397,
				"z": -1.3242535757,
				"element": "C" 
			},
			{
				"x": 1.6074256259,
				"y": -0.7967297512,
				"z": -2.1743491372,
				"element": "C" 
			},
			{
				"x": -2.8136994213,
				"y": 2.004212197,
				"z": 0.7173762059,
				"element": "C" 
			},
			{
				"x": -3.1240604601,
				"y": 2.2232825315,
				"z": 2.0557055267,
				"element": "C" 
			},
			{
				"x": -3.2433959442,
				"y": 2.6145195679,
				"z": 4.6286693256,
				"element": "H" 
			},
			{
				"x": -1.8546765154,
				"y": 3.5427481086,
				"z": 4.7926868603,
				"element": "H" 
			},
			{
				"x": -0.4655134999,
				"y": 4.1744572788,
				"z": 2.9004551703,
				"element": "H" 
			},
			{
				"x": 0.0812369245,
				"y": 3.7581688985,
				"z": 0.5217951727,
				"element": "H" 
			},
			{
				"x": -1.6409459387,
				"y": 3.0268546733,
				"z": -1.9104958896,
				"element": "H" 
			},
			{
				"x": -1.0991112244,
				"y": -0.1559071248,
				"z": -0.2307236197,
				"element": "H" 
			},
			{
				"x": 0.427901897,
				"y": 0.6784634596,
				"z": -0.0930315263,
				"element": "H" 
			},
			{
				"x": 0.6626675453,
				"y": -3.0062829157,
				"z": -1.3764705293,
				"element": "H" 
			},
			{
				"x": -0.8551710985,
				"y": -2.4905396215,
				"z": -0.6669002468,
				"element": "H" 
			},
			{
				"x": 0.1133608771,
				"y": -1.9313645557,
				"z": 1.4154389913,
				"element": "H" 
			},
			{
				"x": 0.8908601733,
				"y": -3.414828804,
				"z": 0.9148484915,
				"element": "H" 
			},
			{
				"x": 2.0412596176,
				"y": -0.6279511376,
				"z": 1.2108176209,
				"element": "H" 
			},
			{
				"x": 2.6684886558,
				"y": -2.1593554027,
				"z": 1.7690490465,
				"element": "H" 
			},
			{
				"x": 3.1799005629,
				"y": -2.6656186747,
				"z": -0.7657830211,
				"element": "H" 
			},
			{
				"x": 4.1835117418,
				"y": -1.5212732273,
				"z": 0.1030568783,
				"element": "H" 
			},
			{
				"x": 3.7229171686,
				"y": -0.5014078471,
				"z": -2.0181900234,
				"element": "H" 
			},
			{
				"x": 2.8196585029,
				"y": 0.3846085676,
				"z": -0.805871645,
				"element": "H" 
			},
			{
				"x": 1.7527987532,
				"y": -1.6890833954,
				"z": -2.7985766147,
				"element": "H" 
			},
			{
				"x": 1.4795280112,
				"y": 0.0423317112,
				"z": -2.862599122,
				"element": "H" 
			},
			{
				"x": -3.4758929089,
				"y": 1.4067253331,
				"z": 0.0973258974,
				"element": "H" 
			},
			{
				"x": -4.0298271285,
				"y": 1.7956914434,
				"z": 2.4783234815,
				"element": "H" 
			}
		],
		 "valence_orbital": [ 
			{
				"type": "occ",
				"energy": -0.25903,
				"method": "rhf"
			},
			{
				"type": "occ",
				"energy": -0.24789,
				"method": "rhf"
			},
			{
				"type": "occ",
				"energy": -0.23943,
				"method": "rhf"
			},
			{
				"type": "occ",
				"energy": -0.21225,
				"method": "rhf"
			},
			{
				"type": "occ",
				"energy": -0.18601,
				"method": "rhf"
			},
			{
				"type": "unocc",
				"energy": -0.01016,
				"method": "rhf"
			},
			{
				"type": "unocc",
				"energy": 0.00125,
				"method": "rhf"
			},
			{
				"type": "unocc",
				"energy": 0.0391,
				"method": "rhf"
			},
			{
				"type": "unocc",
				"energy": 0.07111,
				"method": "rhf"
			},
			{
				"type": "unocc",
				"energy": 0.07509,
				"method": "rhf"
			}
		],
		"cosmo_sigma_profile": { 
			"-0.025": 0.0,
			"-0.024": 0.0,
			"-0.023": 0.0,
			"-0.022": 0.0,
			"-0.021": 0.0,
			"-0.02": 0.0,
			"-0.019": 0.0,
			"-0.018": 0.0,
			"-0.017": 0.0,
			"-0.016": 0.0,
			"-0.015": 0.0,
			"-0.014": 0.00136377502855,
			"-0.013": 1.52227938037,
			"-0.012": 3.58274598429,
			"-0.011": 3.83497038217,
			"-0.01": 3.31698607672,
			"-0.009": 4.46636588085,
			"-0.008": 4.26852069961,
			"-0.007": 3.66005789085,
			"-0.006": 7.20516363562,
			"-0.005": 10.2937361853,
			"-0.004": 13.6886938706,
			"-0.003": 21.2767605546,
			"-0.002": 40.6735241128,
			"-0.001": 41.0289230667,
			"0.0": 38.3283688704,
			"0.001": 30.0585052781,
			"0.002": 13.9905594488,
			"0.003": 9.84146918577,
			"0.004": 8.7743799556,
			"0.005": 11.69600914,
			"0.006": 8.45496267187,
			"0.007": 2.76014714906,
			"0.008": 2.49543518411,
			"0.009": 2.45062700181,
			"0.01": 2.02943249909,
			"0.011": 2.86125751694,
			"0.012": 2.45059551813,
			"0.013": 4.09813184346,
			"0.014": 5.76609120673,
			"0.015": 1.53572845738,
			"0.016": 1.33939614657,
			"0.017": 0.689190654309,
			"0.018": 0.347051061454,
			"0.019": 0.0,
			"0.02": 0.0,
			"0.021": 0.0,
			"0.022": 0.0,
			"0.023": 0.0,
			"0.024": 0.0,
			"0.025": 0.0
		}
	}
}
