{
	 "smiles": "CCN1C=NN=C1NC1=CC=CC=C1", 
	 "Tm": 399.15, 
	 "num_atms": 26, 
	 "gaussian": { 
		 "optdone": 1, 
		 "sigma_profile": "yes", 
		 "theory": "DFT", 
		 "functional": "B3LYP", 
		 "basiset": "6-31G**", 
		 "properties": { 
			 "R2extent": 3364.8124, 
			 "electric_dipole_moment_norm": 5.23388590628, 
			 "electric_quadrupole_moment_norm": 19.3306422146, 
			 "total_energy": -607.280406223, 
			 "HOMO_LUMO_gap": 0.20735, 
			 "cosmo_polarized_energy": -17.65, 
			 "cosmo_cavitation_energy": 29.55, 
			 "cosmo_dispersion_energy": -20.8, 
			 "cosmo_repulsion_energy": 1.63, 
			 "cosmo_total_nonelectrostatic_energy": 10.38, 
			 "SMD_solvation_energy": 3.28 
		},
		"coords": [
			{
				"x": 1.4242431462,
				"y": 0.8774392729,
				"z": -2.8298755558,
				"element": "C" 
			},
			{
				"x": 0.7148275916,
				"y": -0.3248543945,
				"z": -2.2046474075,
				"element": "C" 
			},
			{
				"x": 1.4993884099,
				"y": -0.9866150286,
				"z": -1.1615855452,
				"element": "N" 
			},
			{
				"x": 2.5660413832,
				"y": -1.8322608248,
				"z": -1.3174701463,
				"element": "C" 
			},
			{
				"x": 2.949127925,
				"y": -2.3323881889,
				"z": -0.1680670979,
				"element": "N" 
			},
			{
				"x": 2.1270953035,
				"y": -1.7950884574,
				"z": 0.8039324736,
				"element": "N" 
			},
			{
				"x": 1.2727309832,
				"y": -1.0014044951,
				"z": 0.1975110057,
				"element": "C" 
			},
			{
				"x": 0.2018607874,
				"y": -0.3290530792,
				"z": 0.7887160668,
				"element": "N" 
			},
			{
				"x": 0.2479004419,
				"y": 1.0639602135,
				"z": 1.0658021313,
				"element": "C" 
			},
			{
				"x": 1.3749975834,
				"y": 1.848028981,
				"z": 0.7858601591,
				"element": "C" 
			},
			{
				"x": 1.3519797276,
				"y": 3.2197031055,
				"z": 1.0458486236,
				"element": "C" 
			},
			{
				"x": 0.2231705973,
				"y": 3.8222108838,
				"z": 1.6013503036,
				"element": "C" 
			},
			{
				"x": -0.8932484325,
				"y": 3.0350567777,
				"z": 1.8959446115,
				"element": "C" 
			},
			{
				"x": -0.8882707931,
				"y": 1.6694013172,
				"z": 1.623525932,
				"element": "C" 
			},
			{
				"x": 1.6169018637,
				"y": 1.6502105412,
				"z": -2.0818952543,
				"element": "H" 
			},
			{
				"x": 0.7955827895,
				"y": 1.3093751557,
				"z": -3.6147169386,
				"element": "H" 
			},
			{
				"x": 2.3770189811,
				"y": 0.5853113583,
				"z": -3.2821975125,
				"element": "H" 
			},
			{
				"x": -0.2267229813,
				"y": -0.0241678136,
				"z": -1.7390532793,
				"element": "H" 
			},
			{
				"x": 0.4798116415,
				"y": -1.0725379667,
				"z": -2.9695251019,
				"element": "H" 
			},
			{
				"x": 3.0162060916,
				"y": -2.0437947823,
				"z": -2.2775998982,
				"element": "H" 
			},
			{
				"x": -0.2057922856,
				"y": -0.8735624177,
				"z": 1.5390368995,
				"element": "H" 
			},
			{
				"x": 2.2741786672,
				"y": 1.3822273893,
				"z": 0.3961530781,
				"element": "H" 
			},
			{
				"x": 2.2346471944,
				"y": 3.8144619254,
				"z": 0.8279042644,
				"element": "H" 
			},
			{
				"x": 0.2139188401,
				"y": 4.8878683837,
				"z": 1.8075789154,
				"element": "H" 
			},
			{
				"x": -1.7789788884,
				"y": 3.4873991419,
				"z": 2.3330364485,
				"element": "H" 
			},
			{
				"x": -1.7655165684,
				"y": 1.0632730017,
				"z": 1.8345328246,
				"element": "H" 
			}
		],
		 "valence_orbital": [ 
			{
				"type": "occ",
				"energy": -0.28432,
				"method": "rhf"
			},
			{
				"type": "occ",
				"energy": -0.25606,
				"method": "rhf"
			},
			{
				"type": "occ",
				"energy": -0.25549,
				"method": "rhf"
			},
			{
				"type": "occ",
				"energy": -0.24804,
				"method": "rhf"
			},
			{
				"type": "occ",
				"energy": -0.21593,
				"method": "rhf"
			},
			{
				"type": "unocc",
				"energy": -0.00858,
				"method": "rhf"
			},
			{
				"type": "unocc",
				"energy": -0.00111,
				"method": "rhf"
			},
			{
				"type": "unocc",
				"energy": 0.02105,
				"method": "rhf"
			},
			{
				"type": "unocc",
				"energy": 0.04664,
				"method": "rhf"
			},
			{
				"type": "unocc",
				"energy": 0.08229,
				"method": "rhf"
			}
		],
		"cosmo_sigma_profile": { 
			"-0.025": 0.0,
			"-0.024": 0.0,
			"-0.023": 0.0,
			"-0.022": 0.0,
			"-0.021": 0.0,
			"-0.02": 0.0,
			"-0.019": 0.0,
			"-0.018": 0.0,
			"-0.017": 0.0,
			"-0.016": 0.0,
			"-0.015": 0.0421636983572,
			"-0.014": 1.19122797557,
			"-0.013": 0.874998206996,
			"-0.012": 1.15700648657,
			"-0.011": 0.977606911112,
			"-0.01": 2.30323482221,
			"-0.009": 3.64928556948,
			"-0.008": 3.61460342842,
			"-0.007": 5.56553958247,
			"-0.006": 10.8174786285,
			"-0.005": 18.1990262743,
			"-0.004": 23.7823637957,
			"-0.003": 21.5328530684,
			"-0.002": 17.7869618009,
			"-0.001": 19.4656812392,
			"0.0": 17.3098352243,
			"0.001": 9.34801631036,
			"0.002": 10.4395965955,
			"0.003": 10.8961990904,
			"0.004": 9.74301665354,
			"0.005": 9.79446879989,
			"0.006": 9.42955782083,
			"0.007": 2.80473226184,
			"0.008": 1.61513176053,
			"0.009": 1.72853634688,
			"0.01": 2.41397632197,
			"0.011": 1.79656338697,
			"0.012": 2.33965915076,
			"0.013": 3.49429789758,
			"0.014": 3.56081761894,
			"0.015": 2.95723108931,
			"0.016": 2.72824282346,
			"0.017": 1.75756982853,
			"0.018": 0.232430233402,
			"0.019": 0.0,
			"0.02": 0.0,
			"0.021": 0.0,
			"0.022": 0.0,
			"0.023": 0.0,
			"0.024": 0.0,
			"0.025": 0.0
		}
	}
}
