{
	 "smiles": "OC(=O)C1=C(C=CC(=C1)C(F)(F)F)C(F)(F)F", 
	 "Tm": 352.15, 
	 "num_atms": 21, 
	 "gaussian": { 
		 "optdone": 1, 
		 "sigma_profile": "yes", 
		 "theory": "DFT", 
		 "functional": "B3LYP", 
		 "basiset": "6-31G**", 
		 "properties": { 
			 "R2extent": 4824.7374, 
			 "electric_dipole_moment_norm": 4.39894836864, 
			 "electric_quadrupole_moment_norm": 7.20635866718, 
			 "total_energy": -1094.87379416, 
			 "HOMO_LUMO_gap": 0.20123, 
			 "cosmo_polarized_energy": -11.09, 
			 "cosmo_cavitation_energy": 28.61, 
			 "cosmo_dispersion_energy": -20.06, 
			 "cosmo_repulsion_energy": 1.42, 
			 "cosmo_total_nonelectrostatic_energy": 9.97, 
			 "SMD_solvation_energy": 8.15 
		},
		"coords": [
			{
				"x": 1.6850682244,
				"y": 0.7822803554,
				"z": -1.1895104146,
				"element": "O" 
			},
			{
				"x": 1.294053567,
				"y": -0.2726021872,
				"z": -0.4517832266,
				"element": "C" 
			},
			{
				"x": 1.9347712534,
				"y": -1.296521231,
				"z": -0.4571477119,
				"element": "O" 
			},
			{
				"x": -0.0031854605,
				"y": -0.1761342827,
				"z": 0.3314183369,
				"element": "C" 
			},
			{
				"x": -0.4899291656,
				"y": 0.9425954976,
				"z": 1.0409605097,
				"element": "C" 
			},
			{
				"x": -1.6932811372,
				"y": 0.8535305596,
				"z": 1.7465041782,
				"element": "C" 
			},
			{
				"x": -2.4294569892,
				"y": -0.3274262205,
				"z": 1.7519282282,
				"element": "C" 
			},
			{
				"x": -1.9470424693,
				"y": -1.4403020722,
				"z": 1.0635496862,
				"element": "C" 
			},
			{
				"x": -0.7382590269,
				"y": -1.3660816975,
				"z": 0.375422402,
				"element": "C" 
			},
			{
				"x": -2.755427887,
				"y": -2.7142543313,
				"z": 1.0263860087,
				"element": "C" 
			},
			{
				"x": -3.5050720363,
				"y": -2.8563417746,
				"z": 2.1398897947,
				"element": "F" 
			},
			{
				"x": -1.9686312092,
				"y": -3.8018897666,
				"z": 0.9154426216,
				"element": "F" 
			},
			{
				"x": -3.601260349,
				"y": -2.7207154216,
				"z": -0.0272496916,
				"element": "F" 
			},
			{
				"x": 0.2647707205,
				"y": 2.2500359837,
				"z": 1.095358036,
				"element": "C" 
			},
			{
				"x": 0.2297490731,
				"y": 2.8835564994,
				"z": -0.1254626792,
				"element": "F" 
			},
			{
				"x": 1.5608766164,
				"y": 2.079243686,
				"z": 1.4019486757,
				"element": "F" 
			},
			{
				"x": -0.2599094584,
				"y": 3.1124718072,
				"z": 1.9784916326,
				"element": "F" 
			},
			{
				"x": 1.0649385912,
				"y": 1.5249037868,
				"z": -1.1325984289,
				"element": "H" 
			},
			{
				"x": -2.0460826875,
				"y": 1.7121102853,
				"z": 2.3044469042,
				"element": "H" 
			},
			{
				"x": -3.3611609491,
				"y": -0.3879382437,
				"z": 2.3028894095,
				"element": "H" 
			},
			{
				"x": -0.3361292205,
				"y": -2.2363212322,
				"z": -0.1294842717,
				"element": "H" 
			}
		],
		 "valence_orbital": [ 
			{
				"type": "occ",
				"energy": -0.37643,
				"method": "rhf"
			},
			{
				"type": "occ",
				"energy": -0.32792,
				"method": "rhf"
			},
			{
				"type": "occ",
				"energy": -0.30594,
				"method": "rhf"
			},
			{
				"type": "occ",
				"energy": -0.30481,
				"method": "rhf"
			},
			{
				"type": "occ",
				"energy": -0.2824,
				"method": "rhf"
			},
			{
				"type": "unocc",
				"energy": -0.08117,
				"method": "rhf"
			},
			{
				"type": "unocc",
				"energy": -0.05784,
				"method": "rhf"
			},
			{
				"type": "unocc",
				"energy": 0.01576,
				"method": "rhf"
			},
			{
				"type": "unocc",
				"energy": 0.08097,
				"method": "rhf"
			},
			{
				"type": "unocc",
				"energy": 0.08162,
				"method": "rhf"
			}
		],
		"cosmo_sigma_profile": { 
			"-0.025": 0.0,
			"-0.024": 0.0,
			"-0.023": 0.0,
			"-0.022": 0.0,
			"-0.021": 0.0,
			"-0.02": 0.0,
			"-0.019": 0.0,
			"-0.018": 0.0,
			"-0.017": 0.0,
			"-0.016": 0.0,
			"-0.015": 0.113638395786,
			"-0.014": 0.777413302995,
			"-0.013": 0.952950197922,
			"-0.012": 1.20850252987,
			"-0.011": 0.621262665256,
			"-0.01": 1.06220510735,
			"-0.009": 2.73685864786,
			"-0.008": 5.48115039735,
			"-0.007": 6.42139158781,
			"-0.006": 5.97577544835,
			"-0.005": 10.0045552899,
			"-0.004": 10.6870368245,
			"-0.003": 13.3907488998,
			"-0.002": 17.7269419808,
			"-0.001": 22.7642150063,
			"0.0": 20.7849953016,
			"0.001": 29.2465222554,
			"0.002": 37.7759910137,
			"0.003": 14.4575802165,
			"0.004": 2.27949105302,
			"0.005": 2.50144612538,
			"0.006": 2.22449334427,
			"0.007": 2.56138363891,
			"0.008": 3.16788225373,
			"0.009": 4.43824383049,
			"0.01": 4.54390692245,
			"0.011": 4.99937932973,
			"0.012": 1.97820998181,
			"0.013": 0.164539533147,
			"0.014": 0.0,
			"0.015": 0.0,
			"0.016": 0.0,
			"0.017": 0.0,
			"0.018": 0.0,
			"0.019": 0.0,
			"0.02": 0.0,
			"0.021": 0.0,
			"0.022": 0.0,
			"0.023": 0.0,
			"0.024": 0.0,
			"0.025": 0.0
		}
	}
}
