{
	 "smiles": "CCCCCI", 
	 "Tm": 187.35, 
	 "num_atms": 17, 
	 "gaussian": { 
		 "optdone": 1, 
		 "sigma_profile": "no", 
		 "theory": "DFT", 
		 "functional": "B3LYP", 
		 "basiset": "6-31G**", 
		 "properties": { 
			 "R2extent": 1220.5246, 
			 "electric_dipole_moment_norm": 2.47892417794, 
			 "electric_quadrupole_moment_norm": 8.44072674063, 
			 "total_energy": -208.569508233, 
			 "HOMO_LUMO_gap": 0.21406, 
			 "cosmo_polarized_energy": -111933.97, 
			 "cosmo_cavitation_energy": 22.15, 
			 "cosmo_dispersion_energy": -17.72, 
			 "cosmo_repulsion_energy": 1.51, 
			 "cosmo_total_nonelectrostatic_energy": 5.93, 
			 "SMD_solvation_energy": 2.59 
		},
		"coords": [
			{
				"x": -1.3776265333,
				"y": -1.1050170662,
				"z": -1.8096706851,
				"element": "C" 
			},
			{
				"x": -0.8352676666,
				"y": 0.1115369488,
				"z": -1.0523479828,
				"element": "C" 
			},
			{
				"x": 0.3312218294,
				"y": -0.2425276019,
				"z": -0.1188012503,
				"element": "C" 
			},
			{
				"x": 0.8587588349,
				"y": 0.9259724771,
				"z": 0.7390567772,
				"element": "C" 
			},
			{
				"x": 1.531337262,
				"y": 2.0057202822,
				"z": -0.0998615105,
				"element": "C" 
			},
			{
				"x": 2.3426535019,
				"y": 3.6331672801,
				"z": 1.1229563439,
				"element": "I" 
			},
			{
				"x": -0.6006459481,
				"y": -1.5632805175,
				"z": -2.4321282134,
				"element": "H" 
			},
			{
				"x": -2.2090211331,
				"y": -0.828933209,
				"z": -2.4660398886,
				"element": "H" 
			},
			{
				"x": -1.7406645032,
				"y": -1.8728607918,
				"z": -1.1170715086,
				"element": "H" 
			},
			{
				"x": -1.6422574685,
				"y": 0.5665831387,
				"z": -0.4619873481,
				"element": "H" 
			},
			{
				"x": -0.5210037957,
				"y": 0.8737353943,
				"z": -1.7768699271,
				"element": "H" 
			},
			{
				"x": 1.1568895708,
				"y": -0.666865,
				"z": -0.7075358888,
				"element": "H" 
			},
			{
				"x": 0.008233431,
				"y": -1.0394943703,
				"z": 0.5641153133,
				"element": "H" 
			},
			{
				"x": 1.5772899773,
				"y": 0.5399274369,
				"z": 1.4698550119,
				"element": "H" 
			},
			{
				"x": 0.0339126125,
				"y": 1.3652934292,
				"z": 1.3121599117,
				"element": "H" 
			},
			{
				"x": 2.3907217373,
				"y": 1.6273202395,
				"z": -0.6539243531,
				"element": "H" 
			},
			{
				"x": 0.8493682914,
				"y": 2.5048219298,
				"z": -0.7862048015,
				"element": "H" 
			}
		],
		 "valence_orbital": [ 
			{
				"type": "occ",
				"energy": -0.33386,
				"method": "rhf"
			},
			{
				"type": "occ",
				"energy": -0.33121,
				"method": "rhf"
			},
			{
				"type": "occ",
				"energy": -0.31931,
				"method": "rhf"
			},
			{
				"type": "occ",
				"energy": -0.25527,
				"method": "rhf"
			},
			{
				"type": "occ",
				"energy": -0.2547,
				"method": "rhf"
			},
			{
				"type": "unocc",
				"energy": -0.04064,
				"method": "rhf"
			},
			{
				"type": "unocc",
				"energy": 0.04177,
				"method": "rhf"
			},
			{
				"type": "unocc",
				"energy": 0.04251,
				"method": "rhf"
			},
			{
				"type": "unocc",
				"energy": 0.06004,
				"method": "rhf"
			},
			{
				"type": "unocc",
				"energy": 0.09459,
				"method": "rhf"
			}
		],
		"cosmo_sigma_profile": { 
			"0.0": 0.0,
			"0.0": 0.0,
			"0.0": 0.0,
			"0.0": 0.0,
			"0.0": 0.0,
			"0.0": 0.0,
			"0.0": 0.0,
			"0.0": 0.0,
			"0.0": 0.0,
			"0.0": 0.0,
			"0.0": 0.0,
			"0.0": 0.0,
			"0.0": 0.0,
			"0.0": 0.0,
			"0.0": 0.0,
			"0.0": 0.0,
			"0.0": 0.0,
			"0.0": 0.0,
			"0.0": 0.0,
			"0.0": 0.0,
			"0.0": 0.0,
			"0.0": 0.0,
			"0.0": 0.0,
			"0.0": 0.0,
			"0.0": 0.0,
			"0.0": 0.0,
			"0.0": 0.0,
			"0.0": 0.0,
			"0.0": 0.0,
			"0.0": 0.0,
			"0.0": 0.0,
			"0.0": 0.0,
			"0.0": 0.0,
			"0.0": 0.0,
			"0.0": 0.0,
			"0.0": 0.0,
			"0.0": 0.0,
			"0.0": 0.0,
			"0.0": 0.0,
			"0.0": 0.0,
			"0.0": 0.0,
			"0.0": 0.0,
			"0.0": 0.0,
			"0.0": 0.0,
			"0.0": 0.0,
			"0.0": 0.0,
			"0.0": 0.0,
			"0.0": 0.0,
			"0.0": 0.0,
			"0.0": 0.0,
			"0.0": 0.0
		}
	}
}
