{
	 "smiles": "CC(C)CC1=CC=C(C=C1)C(=O)C(C)Br", 
	 "Tm": 336.65, 
	 "num_atms": 32, 
	 "gaussian": { 
		 "optdone": 1, 
		 "sigma_profile": "yes", 
		 "theory": "DFT", 
		 "functional": "B3LYP", 
		 "basiset": "6-31G**", 
		 "properties": { 
			 "R2extent": 8281.6429, 
			 "electric_dipole_moment_norm": 3.47121702721, 
			 "electric_quadrupole_moment_norm": 13.466707993, 
			 "total_energy": -3152.28287124, 
			 "HOMO_LUMO_gap": 0.18095, 
			 "cosmo_polarized_energy": -8.49, 
			 "cosmo_cavitation_energy": 36.1, 
			 "cosmo_dispersion_energy": -25.51, 
			 "cosmo_repulsion_energy": 2.01, 
			 "cosmo_total_nonelectrostatic_energy": 12.61, 
			 "SMD_solvation_energy": 5.27 
		},
		"coords": [
			{
				"x": -0.4291200604,
				"y": 3.2672701168,
				"z": -1.1902317871,
				"element": "C" 
			},
			{
				"x": -0.6146329262,
				"y": 2.028806701,
				"z": -2.0778641279,
				"element": "C" 
			},
			{
				"x": -1.9116508605,
				"y": 1.2859935694,
				"z": -1.7284298507,
				"element": "C" 
			},
			{
				"x": 0.6301210579,
				"y": 1.0939282001,
				"z": -2.0663793388,
				"element": "C" 
			},
			{
				"x": 0.9778079899,
				"y": 0.472372855,
				"z": -0.7311240508,
				"element": "C" 
			},
			{
				"x": 1.8505556355,
				"y": 1.1152298056,
				"z": 0.1630610775,
				"element": "C" 
			},
			{
				"x": 2.162527623,
				"y": 0.5508157284,
				"z": 1.3936921821,
				"element": "C" 
			},
			{
				"x": 1.6121768873,
				"y": -0.6836539339,
				"z": 1.776096212,
				"element": "C" 
			},
			{
				"x": 0.7498592555,
				"y": -1.3395188236,
				"z": 0.8834511276,
				"element": "C" 
			},
			{
				"x": 0.4434538522,
				"y": -0.7676641704,
				"z": -0.3487007261,
				"element": "C" 
			},
			{
				"x": 1.9742515127,
				"y": -1.2150401315,
				"z": 3.1230272219,
				"element": "C" 
			},
			{
				"x": 2.7673552841,
				"y": -0.6311943232,
				"z": 3.8454826017,
				"element": "O" 
			},
			{
				"x": 1.2986297264,
				"y": -2.4926883506,
				"z": 3.6447466703,
				"element": "C" 
			},
			{
				"x": 1.4014158319,
				"y": -2.6475249861,
				"z": 5.1494741693,
				"element": "C" 
			},
			{
				"x": 2.203064379,
				"y": -4.0398765247,
				"z": 2.7402981276,
				"element": "Br" 
			},
			{
				"x": -0.3435660174,
				"y": 2.9930756369,
				"z": -0.1333936248,
				"element": "H" 
			},
			{
				"x": 0.4717008611,
				"y": 3.8275205655,
				"z": -1.4651957754,
				"element": "H" 
			},
			{
				"x": -1.2842847153,
				"y": 3.9443905138,
				"z": -1.2887206468,
				"element": "H" 
			},
			{
				"x": -0.7029250698,
				"y": 2.3769244359,
				"z": -3.1167769612,
				"element": "H" 
			},
			{
				"x": -2.7764506345,
				"y": 1.9502194182,
				"z": -1.8306098907,
				"element": "H" 
			},
			{
				"x": -2.0730359818,
				"y": 0.4263006827,
				"z": -2.3887078708,
				"element": "H" 
			},
			{
				"x": -1.8964132884,
				"y": 0.9183183486,
				"z": -0.6968846388,
				"element": "H" 
			},
			{
				"x": 1.491366909,
				"y": 1.670582989,
				"z": -2.4250961832,
				"element": "H" 
			},
			{
				"x": 0.4614793471,
				"y": 0.2946254536,
				"z": -2.7982779213,
				"element": "H" 
			},
			{
				"x": 2.2943365501,
				"y": 2.0667222368,
				"z": -0.1172815476,
				"element": "H" 
			},
			{
				"x": 2.8374771171,
				"y": 1.047377176,
				"z": 2.0826261254,
				"element": "H" 
			},
			{
				"x": 0.3384485995,
				"y": -2.3130779677,
				"z": 1.126559869,
				"element": "H" 
			},
			{
				"x": -0.2128785399,
				"y": -1.2985859183,
				"z": -1.0327072046,
				"element": "H" 
			},
			{
				"x": 0.2678229904,
				"y": -2.5646176534,
				"z": 3.2978168684,
				"element": "H" 
			},
			{
				"x": 0.9714414793,
				"y": -3.5985002617,
				"z": 5.4700288348,
				"element": "H" 
			},
			{
				"x": 0.8511449368,
				"y": -1.831762984,
				"z": 5.6322646995,
				"element": "H" 
			},
			{
				"x": 2.4410202684,
				"y": -2.5866684043,
				"z": 5.4730563596,
				"element": "H" 
			}
		],
		 "valence_orbital": [ 
			{
				"type": "occ",
				"energy": -0.28654,
				"method": "rhf"
			},
			{
				"type": "occ",
				"energy": -0.27937,
				"method": "rhf"
			},
			{
				"type": "occ",
				"energy": -0.2601,
				"method": "rhf"
			},
			{
				"type": "occ",
				"energy": -0.25473,
				"method": "rhf"
			},
			{
				"type": "occ",
				"energy": -0.25112,
				"method": "rhf"
			},
			{
				"type": "unocc",
				"energy": -0.07017,
				"method": "rhf"
			},
			{
				"type": "unocc",
				"energy": -0.01224,
				"method": "rhf"
			},
			{
				"type": "unocc",
				"energy": -0.00975,
				"method": "rhf"
			},
			{
				"type": "unocc",
				"energy": 0.04733,
				"method": "rhf"
			},
			{
				"type": "unocc",
				"energy": 0.07765,
				"method": "rhf"
			}
		],
		"cosmo_sigma_profile": { 
			"-0.025": 0.0,
			"-0.024": 0.0,
			"-0.023": 0.0,
			"-0.022": 0.0,
			"-0.021": 0.0,
			"-0.02": 0.0,
			"-0.019": 0.0,
			"-0.018": 0.0,
			"-0.017": 0.0,
			"-0.016": 0.0,
			"-0.015": 0.0,
			"-0.014": 0.0,
			"-0.013": 0.0,
			"-0.012": 0.0,
			"-0.011": 0.0,
			"-0.01": 0.0,
			"-0.009": 1.19075969162,
			"-0.008": 3.28525878253,
			"-0.007": 3.66737812146,
			"-0.006": 5.75681402334,
			"-0.005": 12.224218381,
			"-0.004": 19.0420214069,
			"-0.003": 24.8820786655,
			"-0.002": 32.9811576862,
			"-0.001": 33.5638602185,
			"0.0": 32.7200618542,
			"0.001": 29.7680720839,
			"0.002": 21.7271970987,
			"0.003": 18.3858576297,
			"0.004": 18.7138767526,
			"0.005": 11.8633051116,
			"0.006": 3.53577267931,
			"0.007": 1.85543342435,
			"0.008": 1.84559797224,
			"0.009": 1.91213446366,
			"0.01": 2.46019057326,
			"0.011": 3.90514039888,
			"0.012": 1.07215998161,
			"0.013": 0.0,
			"0.014": 0.0,
			"0.015": 0.0,
			"0.016": 0.0,
			"0.017": 0.0,
			"0.018": 0.0,
			"0.019": 0.0,
			"0.02": 0.0,
			"0.021": 0.0,
			"0.022": 0.0,
			"0.023": 0.0,
			"0.024": 0.0,
			"0.025": 0.0
		}
	}
}
