{
	 "smiles": "NC(=O)C1CCN(CC1)C1=NC(=CC=N1)C(F)(F)F", 
	 "Tm": 468.15, 
	 "num_atms": 32, 
	 "gaussian": { 
		 "optdone": 1, 
		 "sigma_profile": "yes", 
		 "theory": "DFT", 
		 "functional": "B3LYP", 
		 "basiset": "6-31G**", 
		 "properties": { 
			 "R2extent": 7177.209, 
			 "electric_dipole_moment_norm": 2.40945100386, 
			 "electric_quadrupole_moment_norm": 29.037946744, 
			 "total_energy": -1020.78598993, 
			 "HOMO_LUMO_gap": 0.16937, 
			 "cosmo_polarized_energy": -16.43, 
			 "cosmo_cavitation_energy": 36.52, 
			 "cosmo_dispersion_energy": -25.76, 
			 "cosmo_repulsion_energy": 1.95, 
			 "cosmo_total_nonelectrostatic_energy": 12.72, 
			 "SMD_solvation_energy": 5.4 
		},
		"coords": [
			{
				"x": 3.3535730374,
				"y": -3.2418713257,
				"z": 2.0578716035,
				"element": "N" 
			},
			{
				"x": 2.0358549756,
				"y": -2.9957173909,
				"z": 2.3235345329,
				"element": "C" 
			},
			{
				"x": 1.3581099152,
				"y": -3.74898982,
				"z": 3.0092276252,
				"element": "O" 
			},
			{
				"x": 1.4549720157,
				"y": -1.7487183053,
				"z": 1.6467429968,
				"element": "C" 
			},
			{
				"x": 0.7900340641,
				"y": -2.1529950464,
				"z": 0.3127386183,
				"element": "C" 
			},
			{
				"x": 0.2776088249,
				"y": -0.9165794767,
				"z": -0.4351717289,
				"element": "C" 
			},
			{
				"x": -0.442318666,
				"y": -0.0209339385,
				"z": 0.4788004951,
				"element": "N" 
			},
			{
				"x": -0.8121516911,
				"y": -0.5540634115,
				"z": 1.7905974917,
				"element": "C" 
			},
			{
				"x": 0.4240670899,
				"y": -1.0418949673,
				"z": 2.563992447,
				"element": "C" 
			},
			{
				"x": -0.8162300303,
				"y": 1.21595178,
				"z": 0.0550999912,
				"element": "C" 
			},
			{
				"x": -0.46524861,
				"y": 1.5581678013,
				"z": -1.2062203113,
				"element": "N" 
			},
			{
				"x": -0.8206032818,
				"y": 2.7756088168,
				"z": -1.6053841815,
				"element": "C" 
			},
			{
				"x": -1.5200029161,
				"y": 3.6785031885,
				"z": -0.8131072685,
				"element": "C" 
			},
			{
				"x": -1.8356262596,
				"y": 3.2146003998,
				"z": 0.4690115913,
				"element": "C" 
			},
			{
				"x": -1.5012574926,
				"y": 2.0115451959,
				"z": 0.9164382027,
				"element": "N" 
			},
			{
				"x": -0.4048009097,
				"y": 3.1243657007,
				"z": -3.0238719975,
				"element": "C" 
			},
			{
				"x": 0.9328308082,
				"y": 3.0633390214,
				"z": -3.1672847117,
				"element": "F" 
			},
			{
				"x": -0.7947236854,
				"y": 4.3739490512,
				"z": -3.3590737813,
				"element": "F" 
			},
			{
				"x": -0.9497000835,
				"y": 2.2748333435,
				"z": -3.9143594951,
				"element": "F" 
			},
			{
				"x": 3.7762144301,
				"y": -4.0619381915,
				"z": 2.4662231372,
				"element": "H" 
			},
			{
				"x": 3.9355629902,
				"y": -2.5925290629,
				"z": 1.5549945523,
				"element": "H" 
			},
			{
				"x": 2.2715299695,
				"y": -1.0533846757,
				"z": 1.4098780841,
				"element": "H" 
			},
			{
				"x": 1.5012862433,
				"y": -2.6785628279,
				"z": -0.3331108277,
				"element": "H" 
			},
			{
				"x": -0.0228110854,
				"y": -2.8570627004,
				"z": 0.5208290991,
				"element": "H" 
			},
			{
				"x": -0.3697809041,
				"y": -1.2109793184,
				"z": -1.2721861055,
				"element": "H" 
			},
			{
				"x": 1.115944546,
				"y": -0.3657999532,
				"z": -0.8744580821,
				"element": "H" 
			},
			{
				"x": -1.5205828826,
				"y": -1.3819945341,
				"z": 1.6519616444,
				"element": "H" 
			},
			{
				"x": -1.3322938362,
				"y": 0.2310933167,
				"z": 2.335662964,
				"element": "H" 
			},
			{
				"x": 0.0986257465,
				"y": -1.7478987614,
				"z": 3.3337493346,
				"element": "H" 
			},
			{
				"x": 0.9028023611,
				"y": -0.1952115546,
				"z": 3.0667427735,
				"element": "H" 
			},
			{
				"x": -1.8020311276,
				"y": 4.6618438598,
				"z": -1.1624616217,
				"element": "H" 
			},
			{
				"x": -2.3850535558,
				"y": 3.8478237871,
				"z": 1.164692928,
				"element": "H" 
			}
		],
		 "valence_orbital": [ 
			{
				"type": "occ",
				"energy": -0.30604,
				"method": "rhf"
			},
			{
				"type": "occ",
				"energy": -0.27273,
				"method": "rhf"
			},
			{
				"type": "occ",
				"energy": -0.25382,
				"method": "rhf"
			},
			{
				"type": "occ",
				"energy": -0.25274,
				"method": "rhf"
			},
			{
				"type": "occ",
				"energy": -0.2182,
				"method": "rhf"
			},
			{
				"type": "unocc",
				"energy": -0.04883,
				"method": "rhf"
			},
			{
				"type": "unocc",
				"energy": -0.00783,
				"method": "rhf"
			},
			{
				"type": "unocc",
				"energy": 0.02258,
				"method": "rhf"
			},
			{
				"type": "unocc",
				"energy": 0.06008,
				"method": "rhf"
			},
			{
				"type": "unocc",
				"energy": 0.09286,
				"method": "rhf"
			}
		],
		"cosmo_sigma_profile": { 
			"-0.025": 0.0,
			"-0.024": 0.0,
			"-0.023": 0.0,
			"-0.022": 0.0,
			"-0.021": 0.0,
			"-0.02": 0.0,
			"-0.019": 0.0,
			"-0.018": 0.0,
			"-0.017": 0.0,
			"-0.016": 0.0,
			"-0.015": 0.00996723315891,
			"-0.014": 1.48783514334,
			"-0.013": 2.76491604751,
			"-0.012": 2.59562778553,
			"-0.011": 2.51502669634,
			"-0.01": 1.81377077002,
			"-0.009": 3.00841369281,
			"-0.008": 3.45623341463,
			"-0.007": 6.92976420395,
			"-0.006": 6.46325073782,
			"-0.005": 9.8049935323,
			"-0.004": 21.6475733994,
			"-0.003": 26.7181327159,
			"-0.002": 26.1119010223,
			"-0.001": 24.2290553844,
			"0.0": 23.0206538461,
			"0.001": 20.0874275329,
			"0.002": 27.7379282124,
			"0.003": 27.7081635101,
			"0.004": 8.86330001678,
			"0.005": 6.83416003956,
			"0.006": 5.56606046308,
			"0.007": 4.69684963733,
			"0.008": 4.26553693701,
			"0.009": 3.56415137436,
			"0.01": 3.42417987434,
			"0.011": 2.2572519756,
			"0.012": 1.46700083404,
			"0.013": 2.71086626204,
			"0.014": 5.57097590032,
			"0.015": 1.28309223676,
			"0.016": 0.0,
			"0.017": 0.0,
			"0.018": 0.0,
			"0.019": 0.0,
			"0.02": 0.0,
			"0.021": 0.0,
			"0.022": 0.0,
			"0.023": 0.0,
			"0.024": 0.0,
			"0.025": 0.0
		}
	}
}
