{
	 "smiles": "COC1=CC=C(C=C1)N1N=CC(C=O)=C1C", 
	 "Tm": 354.15, 
	 "num_atms": 28, 
	 "gaussian": { 
		 "optdone": 1, 
		 "sigma_profile": "yes", 
		 "theory": "DFT", 
		 "functional": "B3LYP", 
		 "basiset": "6-31G**", 
		 "properties": { 
			 "R2extent": 5125.4571, 
			 "electric_dipole_moment_norm": 6.16067558471, 
			 "electric_quadrupole_moment_norm": 21.4078492635, 
			 "total_energy": -724.422871558, 
			 "HOMO_LUMO_gap": 0.18274, 
			 "cosmo_polarized_energy": -14.86, 
			 "cosmo_cavitation_energy": 32.55, 
			 "cosmo_dispersion_energy": -23.34, 
			 "cosmo_repulsion_energy": 1.8, 
			 "cosmo_total_nonelectrostatic_energy": 11.01, 
			 "SMD_solvation_energy": 6.84 
		},
		"coords": [
			{
				"x": 1.9751926983,
				"y": -3.7033257635,
				"z": -3.1109746317,
				"element": "C" 
			},
			{
				"x": 0.8566754894,
				"y": -3.6425537006,
				"z": -2.2377180621,
				"element": "O" 
			},
			{
				"x": 0.592139912,
				"y": -2.4657108839,
				"z": -1.606066499,
				"element": "C" 
			},
			{
				"x": -0.5122013698,
				"y": -2.4737541317,
				"z": -0.7407975157,
				"element": "C" 
			},
			{
				"x": -0.865705014,
				"y": -1.3264070196,
				"z": -0.0430694529,
				"element": "C" 
			},
			{
				"x": -0.1335575242,
				"y": -0.1450356408,
				"z": -0.2179534272,
				"element": "C" 
			},
			{
				"x": 0.9712572277,
				"y": -0.1365290112,
				"z": -1.0703540617,
				"element": "C" 
			},
			{
				"x": 1.3397290736,
				"y": -1.290335217,
				"z": -1.7610955292,
				"element": "C" 
			},
			{
				"x": -0.4737754321,
				"y": 1.0459861172,
				"z": 0.4877724743,
				"element": "N" 
			},
			{
				"x": 0.5404633739,
				"y": 1.7853244982,
				"z": 1.04723587,
				"element": "N" 
			},
			{
				"x": -0.0594915157,
				"y": 2.8288058765,
				"z": 1.5876645906,
				"element": "C" 
			},
			{
				"x": -1.4653672795,
				"y": 2.7965673617,
				"z": 1.3882970344,
				"element": "C" 
			},
			{
				"x": -2.4346673555,
				"y": 3.7864823662,
				"z": 1.8358243564,
				"element": "C" 
			},
			{
				"x": -2.1507054336,
				"y": 4.7897582143,
				"z": 2.4708411934,
				"element": "O" 
			},
			{
				"x": -1.6972473229,
				"y": 1.6260086101,
				"z": 0.6592186103,
				"element": "C" 
			},
			{
				"x": -2.9736770553,
				"y": 1.0771474314,
				"z": 0.1027990378,
				"element": "C" 
			},
			{
				"x": 2.9129668725,
				"y": -3.4926939787,
				"z": -2.5815303428,
				"element": "H" 
			},
			{
				"x": 1.8709759081,
				"y": -3.0044622624,
				"z": -3.9506516776,
				"element": "H" 
			},
			{
				"x": 2.0011007687,
				"y": -4.7239493673,
				"z": -3.4949962307,
				"element": "H" 
			},
			{
				"x": -1.0670747209,
				"y": -3.3974163976,
				"z": -0.6163406458,
				"element": "H" 
			},
			{
				"x": -1.6950508828,
				"y": -1.3563153076,
				"z": 0.6546139858,
				"element": "H" 
			},
			{
				"x": 1.5456788764,
				"y": 0.7761369251,
				"z": -1.1785769351,
				"element": "H" 
			},
			{
				"x": 2.2022451867,
				"y": -1.2592215543,
				"z": -2.4156038654,
				"element": "H" 
			},
			{
				"x": 0.5116183491,
				"y": 3.5839356348,
				"z": 2.1098737951,
				"element": "H" 
			},
			{
				"x": -3.492459387,
				"y": 3.5768727598,
				"z": 1.559680445,
				"element": "H" 
			},
			{
				"x": -3.4334900421,
				"y": 0.341242123,
				"z": 0.7723956466,
				"element": "H" 
			},
			{
				"x": -3.6955539267,
				"y": 1.8841939107,
				"z": -0.0400022404,
				"element": "H" 
			},
			{
				"x": -2.8089194744,
				"y": 0.5891484071,
				"z": -0.8615859222,
				"element": "H" 
			}
		],
		 "valence_orbital": [ 
			{
				"type": "occ",
				"energy": -0.27395,
				"method": "rhf"
			},
			{
				"type": "occ",
				"energy": -0.26812,
				"method": "rhf"
			},
			{
				"type": "occ",
				"energy": -0.25082,
				"method": "rhf"
			},
			{
				"type": "occ",
				"energy": -0.24212,
				"method": "rhf"
			},
			{
				"type": "occ",
				"energy": -0.22328,
				"method": "rhf"
			},
			{
				"type": "unocc",
				"energy": -0.04054,
				"method": "rhf"
			},
			{
				"type": "unocc",
				"energy": -0.01865,
				"method": "rhf"
			},
			{
				"type": "unocc",
				"energy": -0.01142,
				"method": "rhf"
			},
			{
				"type": "unocc",
				"energy": 0.02508,
				"method": "rhf"
			},
			{
				"type": "unocc",
				"energy": 0.07521,
				"method": "rhf"
			}
		],
		"cosmo_sigma_profile": { 
			"-0.025": 0.0,
			"-0.024": 0.0,
			"-0.023": 0.0,
			"-0.022": 0.0,
			"-0.021": 0.0,
			"-0.02": 0.0,
			"-0.019": 0.0,
			"-0.018": 0.0,
			"-0.017": 0.0,
			"-0.016": 0.0,
			"-0.015": 0.0,
			"-0.014": 0.0,
			"-0.013": 0.0,
			"-0.012": 0.0,
			"-0.011": 0.0,
			"-0.01": 0.0,
			"-0.009": 0.0,
			"-0.008": 2.62352654955,
			"-0.007": 10.2406422915,
			"-0.006": 21.6960607855,
			"-0.005": 24.2878696335,
			"-0.004": 22.4262253065,
			"-0.003": 23.8486878266,
			"-0.002": 18.8812577434,
			"-0.001": 15.1574432331,
			"0.0": 12.2446855071,
			"0.001": 14.8479352182,
			"0.002": 17.176930951,
			"0.003": 17.7164312764,
			"0.004": 14.7257352595,
			"0.005": 6.67629087785,
			"0.006": 5.67190298899,
			"0.007": 3.85592393255,
			"0.008": 3.81290991708,
			"0.009": 4.2782327412,
			"0.01": 5.38583469264,
			"0.011": 4.09310411057,
			"0.012": 5.27630644867,
			"0.013": 3.96591969206,
			"0.014": 1.17204240205,
			"0.015": 0.121397885565,
			"0.016": 0.0,
			"0.017": 0.0,
			"0.018": 0.0,
			"0.019": 0.0,
			"0.02": 0.0,
			"0.021": 0.0,
			"0.022": 0.0,
			"0.023": 0.0,
			"0.024": 0.0,
			"0.025": 0.0
		}
	}
}
