{
	 "smiles": "N1C2=CC=CC=C2SC2=CC=CC=C12", 
	 "Tm": 459.15, 
	 "num_atms": 23, 
	 "gaussian": { 
		 "optdone": 1, 
		 "sigma_profile": "yes", 
		 "theory": "DFT", 
		 "functional": "B3LYP", 
		 "basiset": "6-31G**", 
		 "properties": { 
			 "R2extent": 3392.2157, 
			 "electric_dipole_moment_norm": 2.23497251885, 
			 "electric_quadrupole_moment_norm": 12.665291905, 
			 "total_energy": -915.646098621, 
			 "HOMO_LUMO_gap": 0.16804, 
			 "cosmo_polarized_energy": -9.51, 
			 "cosmo_cavitation_energy": 27.73, 
			 "cosmo_dispersion_energy": -21.46, 
			 "cosmo_repulsion_energy": 1.59, 
			 "cosmo_total_nonelectrostatic_energy": 7.86, 
			 "SMD_solvation_energy": 3.66 
		},
		"coords": [
			{
				"x": -0.4824844838,
				"y": -1.0722855176,
				"z": 0.7031274009,
				"element": "N" 
			},
			{
				"x": -0.1867362281,
				"y": -0.6972603915,
				"z": 2.0231491116,
				"element": "C" 
			},
			{
				"x": 0.1595993884,
				"y": -1.6622311087,
				"z": 2.9772866732,
				"element": "C" 
			},
			{
				"x": 0.4271377511,
				"y": -1.2932614752,
				"z": 4.2954002495,
				"element": "C" 
			},
			{
				"x": 0.3871561558,
				"y": 0.0493187482,
				"z": 4.670494646,
				"element": "C" 
			},
			{
				"x": 0.0654439321,
				"y": 1.0200680002,
				"z": 3.7191772031,
				"element": "C" 
			},
			{
				"x": -0.2427550542,
				"y": 0.6546378412,
				"z": 2.4081687844,
				"element": "C" 
			},
			{
				"x": -0.8121609541,
				"y": 1.8859752093,
				"z": 1.2471780885,
				"element": "S" 
			},
			{
				"x": -0.2454027793,
				"y": 1.1481411432,
				"z": -0.2768656253,
				"element": "C" 
			},
			{
				"x": 0.0604711801,
				"y": 1.9559863429,
				"z": -1.3728110026,
				"element": "C" 
			},
			{
				"x": 0.3799235217,
				"y": 1.38708118,
				"z": -2.607782679,
				"element": "C" 
			},
			{
				"x": 0.4199741236,
				"y": -0.0011147027,
				"z": -2.7347406135,
				"element": "C" 
			},
			{
				"x": 0.1548041654,
				"y": -0.8147829081,
				"z": -1.6334797702,
				"element": "C" 
			},
			{
				"x": -0.1892019478,
				"y": -0.2522950834,
				"z": -0.3978527177,
				"element": "C" 
			},
			{
				"x": -0.3795607214,
				"y": -2.0611635339,
				"z": 0.5212685902,
				"element": "H" 
			},
			{
				"x": 0.2117643846,
				"y": -2.7074946228,
				"z": 2.6810006565,
				"element": "H" 
			},
			{
				"x": 0.6799682178,
				"y": -2.0586363596,
				"z": 5.0229742663,
				"element": "H" 
			},
			{
				"x": 0.6062349022,
				"y": 0.343768035,
				"z": 5.6918707275,
				"element": "H" 
			},
			{
				"x": 0.0370783019,
				"y": 2.0699609371,
				"z": 3.9956090661,
				"element": "H" 
			},
			{
				"x": 0.032044151,
				"y": 3.0355455197,
				"z": -1.2577475975,
				"element": "H" 
			},
			{
				"x": 0.597196118,
				"y": 2.0255584648,
				"z": -3.4581027379,
				"element": "H" 
			},
			{
				"x": 0.6710408005,
				"y": -0.457646353,
				"z": -3.6874368258,
				"element": "H" 
			},
			{
				"x": 0.2070650745,
				"y": -1.8970693654,
				"z": -1.7283858941,
				"element": "H" 
			}
		],
		 "valence_orbital": [ 
			{
				"type": "occ",
				"energy": -0.29605,
				"method": "rhf"
			},
			{
				"type": "occ",
				"energy": -0.25732,
				"method": "rhf"
			},
			{
				"type": "occ",
				"energy": -0.25414,
				"method": "rhf"
			},
			{
				"type": "occ",
				"energy": -0.22491,
				"method": "rhf"
			},
			{
				"type": "occ",
				"energy": -0.1837,
				"method": "rhf"
			},
			{
				"type": "unocc",
				"energy": -0.01566,
				"method": "rhf"
			},
			{
				"type": "unocc",
				"energy": -0.00664,
				"method": "rhf"
			},
			{
				"type": "unocc",
				"energy": -0.00239,
				"method": "rhf"
			},
			{
				"type": "unocc",
				"energy": 0.02347,
				"method": "rhf"
			},
			{
				"type": "unocc",
				"energy": 0.03778,
				"method": "rhf"
			}
		],
		"cosmo_sigma_profile": { 
			"-0.025": 0.0,
			"-0.024": 0.0,
			"-0.023": 0.0,
			"-0.022": 0.0,
			"-0.021": 0.0,
			"-0.02": 0.0,
			"-0.019": 0.0,
			"-0.018": 0.0,
			"-0.017": 0.0,
			"-0.016": 0.0,
			"-0.015": 0.109142930815,
			"-0.014": 1.10455729284,
			"-0.013": 1.73997067016,
			"-0.012": 1.50194931484,
			"-0.011": 1.58899676631,
			"-0.01": 1.56520802675,
			"-0.009": 1.87879938858,
			"-0.008": 1.74847349544,
			"-0.007": 3.17751161534,
			"-0.006": 11.969164022,
			"-0.005": 16.1706777659,
			"-0.004": 17.0517687857,
			"-0.003": 15.8222832078,
			"-0.002": 12.5887750471,
			"-0.001": 10.1448124103,
			"0.0": 11.7793425699,
			"0.001": 15.0333810274,
			"0.002": 13.5716328786,
			"0.003": 18.3641158561,
			"0.004": 24.4116939148,
			"0.005": 23.445519779,
			"0.006": 13.4832917933,
			"0.007": 3.65120273153,
			"0.008": 2.38164605303,
			"0.009": 0.637685659545,
			"0.01": 0.0,
			"0.011": 0.0,
			"0.012": 0.0,
			"0.013": 0.0,
			"0.014": 0.0,
			"0.015": 0.0,
			"0.016": 0.0,
			"0.017": 0.0,
			"0.018": 0.0,
			"0.019": 0.0,
			"0.02": 0.0,
			"0.021": 0.0,
			"0.022": 0.0,
			"0.023": 0.0,
			"0.024": 0.0,
			"0.025": 0.0
		}
	}
}
