{
	 "smiles": "CC1=CC(O)=CC(O)=C1C", 
	 "Tm": 409.15, 
	 "num_atms": 20, 
	 "gaussian": { 
		 "optdone": 1, 
		 "sigma_profile": "yes", 
		 "theory": "DFT", 
		 "functional": "B3LYP", 
		 "basiset": "6-31G**", 
		 "properties": { 
			 "R2extent": 1874.9558, 
			 "electric_dipole_moment_norm": 1.0626949233, 
			 "electric_quadrupole_moment_norm": 7.40817120145, 
			 "total_energy": -461.330184826, 
			 "HOMO_LUMO_gap": 0.2138, 
			 "cosmo_polarized_energy": -11.43, 
			 "cosmo_cavitation_energy": 23.02, 
			 "cosmo_dispersion_energy": -17.21, 
			 "cosmo_repulsion_energy": 1.39, 
			 "cosmo_total_nonelectrostatic_energy": 7.2, 
			 "SMD_solvation_energy": 4.68 
		},
		"coords": [
			{
				"x": -1.4215920511,
				"y": 0.2730990334,
				"z": 0.8018100551,
				"element": "C" 
			},
			{
				"x": -0.3930913306,
				"y": -0.1438790262,
				"z": -0.2231624529,
				"element": "C" 
			},
			{
				"x": -0.7709236646,
				"y": -0.9938208014,
				"z": -1.2697307081,
				"element": "C" 
			},
			{
				"x": 0.1627228524,
				"y": -1.3920804241,
				"z": -2.2281407964,
				"element": "C" 
			},
			{
				"x": -0.1543203551,
				"y": -2.2207021974,
				"z": -3.2698770908,
				"element": "O" 
			},
			{
				"x": 1.4798516933,
				"y": -0.9432801576,
				"z": -2.1465047606,
				"element": "C" 
			},
			{
				"x": 1.8501397815,
				"y": -0.0958557216,
				"z": -1.1003377714,
				"element": "C" 
			},
			{
				"x": 3.1382953698,
				"y": 0.3616713394,
				"z": -0.9940406965,
				"element": "O" 
			},
			{
				"x": 0.9307382717,
				"y": 0.3214929849,
				"z": -0.120709234,
				"element": "C" 
			},
			{
				"x": 1.3629547275,
				"y": 1.2386661852,
				"z": 0.9986003881,
				"element": "C" 
			},
			{
				"x": -1.1294509732,
				"y": -0.0339530113,
				"z": 1.8131880231,
				"element": "H" 
			},
			{
				"x": -1.5445402957,
				"y": 1.3624435486,
				"z": 0.8285786969,
				"element": "H" 
			},
			{
				"x": -2.3981523631,
				"y": -0.1685702048,
				"z": 0.5871474895,
				"element": "H" 
			},
			{
				"x": -1.7987375264,
				"y": -1.3452982445,
				"z": -1.3351498474,
				"element": "H" 
			},
			{
				"x": -1.0894558256,
				"y": -2.4537252289,
				"z": -3.2070171672,
				"element": "H" 
			},
			{
				"x": 2.1972892731,
				"y": -1.2602946824,
				"z": -2.8984882695,
				"element": "H" 
			},
			{
				"x": 3.6568742355,
				"y": 0.0015878796,
				"z": -1.724364191,
				"element": "H" 
			},
			{
				"x": 2.4203430303,
				"y": 1.4889743719,
				"z": 0.9119677131,
				"element": "H" 
			},
			{
				"x": 1.2055731841,
				"y": 0.777555297,
				"z": 1.9815941104,
				"element": "H" 
			},
			{
				"x": 0.7936819662,
				"y": 2.1765690603,
				"z": 0.9944365096,
				"element": "H" 
			}
		],
		 "valence_orbital": [ 
			{
				"type": "occ",
				"energy": -0.34102,
				"method": "rhf"
			},
			{
				"type": "occ",
				"energy": -0.33246,
				"method": "rhf"
			},
			{
				"type": "occ",
				"energy": -0.2936,
				"method": "rhf"
			},
			{
				"type": "occ",
				"energy": -0.22257,
				"method": "rhf"
			},
			{
				"type": "occ",
				"energy": -0.20201,
				"method": "rhf"
			},
			{
				"type": "unocc",
				"energy": 0.01179,
				"method": "rhf"
			},
			{
				"type": "unocc",
				"energy": 0.02916,
				"method": "rhf"
			},
			{
				"type": "unocc",
				"energy": 0.07294,
				"method": "rhf"
			},
			{
				"type": "unocc",
				"energy": 0.07625,
				"method": "rhf"
			},
			{
				"type": "unocc",
				"energy": 0.10359,
				"method": "rhf"
			}
		],
		"cosmo_sigma_profile": { 
			"-0.025": 0.0,
			"-0.024": 0.0,
			"-0.023": 0.0,
			"-0.022": 0.0,
			"-0.021": 0.0,
			"-0.02": 0.0,
			"-0.019": 0.0,
			"-0.018": 0.132616429899,
			"-0.017": 1.62434017213,
			"-0.016": 2.32472079004,
			"-0.015": 2.09436454384,
			"-0.014": 2.1357657185,
			"-0.013": 1.44938697877,
			"-0.012": 1.90001438605,
			"-0.011": 1.93628464056,
			"-0.01": 1.75467904929,
			"-0.009": 2.33277462848,
			"-0.008": 1.88287467853,
			"-0.007": 2.13403862135,
			"-0.006": 2.79965301458,
			"-0.005": 4.26255319507,
			"-0.004": 10.3512906357,
			"-0.003": 12.3285024186,
			"-0.002": 13.4294078039,
			"-0.001": 12.6442685545,
			"0.0": 17.4006015075,
			"0.001": 14.0104371071,
			"0.002": 8.27897539284,
			"0.003": 7.51432354368,
			"0.004": 10.8512174623,
			"0.005": 13.6469810661,
			"0.006": 12.4697526203,
			"0.007": 5.06069517088,
			"0.008": 3.28116762479,
			"0.009": 3.81594067838,
			"0.01": 3.32090673362,
			"0.011": 2.45831071104,
			"0.012": 1.36389003871,
			"0.013": 0.0,
			"0.014": 0.0,
			"0.015": 0.0,
			"0.016": 0.0,
			"0.017": 0.0,
			"0.018": 0.0,
			"0.019": 0.0,
			"0.02": 0.0,
			"0.021": 0.0,
			"0.022": 0.0,
			"0.023": 0.0,
			"0.024": 0.0,
			"0.025": 0.0
		}
	}
}
