{
	 "smiles": "CN1C=C(C=N1)C1NC(=O)CC[C@@H]1N", 
	 "Tm": 437.15, 
	 "num_atms": 28, 
	 "gaussian": { 
		 "optdone": 1, 
		 "sigma_profile": "yes", 
		 "theory": "DFT", 
		 "functional": "B3LYP", 
		 "basiset": "6-31G**", 
		 "properties": { 
			 "R2extent": 3388.3098, 
			 "electric_dipole_moment_norm": 7.21012660291, 
			 "electric_quadrupole_moment_norm": 13.053473275, 
			 "total_energy": -645.614921267, 
			 "HOMO_LUMO_gap": 0.23749, 
			 "cosmo_polarized_energy": -21.39, 
			 "cosmo_cavitation_energy": 30.35, 
			 "cosmo_dispersion_energy": -21.8, 
			 "cosmo_repulsion_energy": 1.74, 
			 "cosmo_total_nonelectrostatic_energy": 10.29, 
			 "SMD_solvation_energy": 4.04 
		},
		"coords": [
			{
				"x": -1.1088772384,
				"y": -4.0041047956,
				"z": -3.265971219,
				"element": "C" 
			},
			{
				"x": -0.6583586213,
				"y": -2.816317469,
				"z": -2.5649864899,
				"element": "N" 
			},
			{
				"x": -0.4267419373,
				"y": -2.6677193558,
				"z": -1.2334901525,
				"element": "C" 
			},
			{
				"x": 0.0796045935,
				"y": -1.3900145941,
				"z": -1.0464167962,
				"element": "C" 
			},
			{
				"x": 0.1245594208,
				"y": -0.8531341198,
				"z": -2.3559405597,
				"element": "C" 
			},
			{
				"x": -0.3180050588,
				"y": -1.7173103097,
				"z": -3.2699114314,
				"element": "N" 
			},
			{
				"x": 0.4655358041,
				"y": -0.7317595167,
				"z": 0.2598798326,
				"element": "C" 
			},
			{
				"x": 1.5110568241,
				"y": 0.269849308,
				"z": 0.0582063219,
				"element": "N" 
			},
			{
				"x": 1.414450018,
				"y": 1.6379716524,
				"z": 0.0971744573,
				"element": "C" 
			},
			{
				"x": 2.3725481038,
				"y": 2.3474814486,
				"z": -0.1847332109,
				"element": "O" 
			},
			{
				"x": 0.0787992484,
				"y": 2.2160507183,
				"z": 0.5400333523,
				"element": "C" 
			},
			{
				"x": -1.0988148554,
				"y": 1.2465041856,
				"z": 0.3930022669,
				"element": "C" 
			},
			{
				"x": -0.753676709,
				"y": -0.1183832717,
				"z": 0.9992342674,
				"element": "C" 
			},
			{
				"x": -0.428999015,
				"y": 0.0463698939,
				"z": 2.4202847465,
				"element": "N" 
			},
			{
				"x": -1.6399578227,
				"y": -4.6546926315,
				"z": -2.5683321469,
				"element": "H" 
			},
			{
				"x": -1.7840758685,
				"y": -3.7036776028,
				"z": -4.0686291246,
				"element": "H" 
			},
			{
				"x": -0.2642231156,
				"y": -4.5506303683,
				"z": -3.6980475932,
				"element": "H" 
			},
			{
				"x": -0.6342646609,
				"y": -3.4641772903,
				"z": -0.5323613514,
				"element": "H" 
			},
			{
				"x": 0.4713590925,
				"y": 0.1242942863,
				"z": -2.662986089,
				"element": "H" 
			},
			{
				"x": 0.8737284027,
				"y": -1.510558459,
				"z": 0.921542694,
				"element": "H" 
			},
			{
				"x": 2.4124120313,
				"y": -0.0576918424,
				"z": -0.2656951747,
				"element": "H" 
			},
			{
				"x": -0.0760118564,
				"y": 3.138217467,
				"z": -0.0261294101,
				"element": "H" 
			},
			{
				"x": 0.2029185036,
				"y": 2.4980009974,
				"z": 1.5909232792,
				"element": "H" 
			},
			{
				"x": -1.9939248731,
				"y": 1.656080131,
				"z": 0.8775457199,
				"element": "H" 
			},
			{
				"x": -1.3534738574,
				"y": 1.1055388778,
				"z": -0.6634975627,
				"element": "H" 
			},
			{
				"x": -1.5962217115,
				"y": -0.8071741799,
				"z": 0.823114032,
				"element": "H" 
			},
			{
				"x": -0.256469202,
				"y": -0.858131475,
				"z": 2.8524237766,
				"element": "H" 
			},
			{
				"x": -1.2212756395,
				"y": 0.4556183153,
				"z": 2.9099635656,
				"element": "H" 
			}
		],
		 "valence_orbital": [ 
			{
				"type": "occ",
				"energy": -0.2536,
				"method": "rhf"
			},
			{
				"type": "occ",
				"energy": -0.25104,
				"method": "rhf"
			},
			{
				"type": "occ",
				"energy": -0.24355,
				"method": "rhf"
			},
			{
				"type": "occ",
				"energy": -0.23031,
				"method": "rhf"
			},
			{
				"type": "occ",
				"energy": -0.22794,
				"method": "rhf"
			},
			{
				"type": "unocc",
				"energy": 0.00955,
				"method": "rhf"
			},
			{
				"type": "unocc",
				"energy": 0.04455,
				"method": "rhf"
			},
			{
				"type": "unocc",
				"energy": 0.05894,
				"method": "rhf"
			},
			{
				"type": "unocc",
				"energy": 0.06465,
				"method": "rhf"
			},
			{
				"type": "unocc",
				"energy": 0.09112,
				"method": "rhf"
			}
		],
		"cosmo_sigma_profile": { 
			"-0.025": 0.0,
			"-0.024": 0.0,
			"-0.023": 0.0,
			"-0.022": 0.0,
			"-0.021": 0.0,
			"-0.02": 0.0,
			"-0.019": 0.0,
			"-0.018": 0.0,
			"-0.017": 0.0,
			"-0.016": 0.0,
			"-0.015": 0.0,
			"-0.014": 0.0,
			"-0.013": 0.552353917886,
			"-0.012": 1.53068128803,
			"-0.011": 0.395770167216,
			"-0.01": 2.10212076609,
			"-0.009": 5.90292462412,
			"-0.008": 7.71221932251,
			"-0.007": 9.72804509919,
			"-0.006": 14.311883468,
			"-0.005": 15.5854088932,
			"-0.004": 20.8958396414,
			"-0.003": 24.7478954571,
			"-0.002": 23.1581281482,
			"-0.001": 16.4554925571,
			"0.0": 12.5380881045,
			"0.001": 8.57469876713,
			"0.002": 6.12810394977,
			"0.003": 7.26176713797,
			"0.004": 7.75579569755,
			"0.005": 6.29325982663,
			"0.006": 4.76713202619,
			"0.007": 3.65736727164,
			"0.008": 3.8068415219,
			"0.009": 4.82614963089,
			"0.01": 2.821787534,
			"0.011": 2.51815433228,
			"0.012": 4.12553759766,
			"0.013": 3.816126645,
			"0.014": 5.93695163179,
			"0.015": 7.15501610866,
			"0.016": 2.17560199136,
			"0.017": 0.236943489022,
			"0.018": 0.0,
			"0.019": 0.0,
			"0.02": 0.0,
			"0.021": 0.0,
			"0.022": 0.0,
			"0.023": 0.0,
			"0.024": 0.0,
			"0.025": 0.0
		}
	}
}
