{
	 "smiles": "COC(=O)C1=CC=C(C)C(OC)=C1", 
	 "Tm": 322.15, 
	 "num_atms": 25, 
	 "gaussian": { 
		 "optdone": 1, 
		 "sigma_profile": "yes", 
		 "theory": "DFT", 
		 "functional": "B3LYP", 
		 "basiset": "6-31G**", 
		 "properties": { 
			 "R2extent": 3033.7325, 
			 "electric_dipole_moment_norm": 2.92022005164, 
			 "electric_quadrupole_moment_norm": 10.5062439773, 
			 "total_energy": -613.976393011, 
			 "HOMO_LUMO_gap": 0.18267, 
			 "cosmo_polarized_energy": -8.81, 
			 "cosmo_cavitation_energy": 28.88, 
			 "cosmo_dispersion_energy": -20.94, 
			 "cosmo_repulsion_energy": 1.67, 
			 "cosmo_total_nonelectrostatic_energy": 9.62, 
			 "SMD_solvation_energy": 7.38 
		},
		"coords": [
			{
				"x": 0.5279442623,
				"y": 2.8865020692,
				"z": 3.4655334283,
				"element": "C" 
			},
			{
				"x": 0.5619059878,
				"y": 1.9767899413,
				"z": 2.3569872957,
				"element": "O" 
			},
			{
				"x": -0.5371171223,
				"y": 1.9984983101,
				"z": 1.561992493,
				"element": "C" 
			},
			{
				"x": -1.4835211418,
				"y": 2.7333812937,
				"z": 1.7700595045,
				"element": "O" 
			},
			{
				"x": -0.44418404,
				"y": 1.0354894839,
				"z": 0.4312465043,
				"element": "C" 
			},
			{
				"x": -1.5165907302,
				"y": 0.9640011916,
				"z": -0.4595799031,
				"element": "C" 
			},
			{
				"x": -1.4610303466,
				"y": 0.0716115929,
				"z": -1.5300176468,
				"element": "C" 
			},
			{
				"x": -0.3578587795,
				"y": -0.7575105485,
				"z": -1.7384108718,
				"element": "C" 
			},
			{
				"x": -0.2899772019,
				"y": -1.723521695,
				"z": -2.8912207425,
				"element": "C" 
			},
			{
				"x": 0.7195291273,
				"y": -0.6726762695,
				"z": -0.8273040674,
				"element": "C" 
			},
			{
				"x": 1.7668016074,
				"y": -1.5119435022,
				"z": -1.0900926028,
				"element": "O" 
			},
			{
				"x": 2.8868101412,
				"y": -1.4853595085,
				"z": -0.2196457912,
				"element": "C" 
			},
			{
				"x": 0.6802541232,
				"y": 0.2138363964,
				"z": 0.2479669104,
				"element": "C" 
			},
			{
				"x": 1.471192878,
				"y": 2.744166773,
				"z": 3.9933967707,
				"element": "H" 
			},
			{
				"x": 0.4358503923,
				"y": 3.918157453,
				"z": 3.1162359336,
				"element": "H" 
			},
			{
				"x": -0.3166480518,
				"y": 2.6636622111,
				"z": 4.1226596057,
				"element": "H" 
			},
			{
				"x": -2.3754376613,
				"y": 1.6062074338,
				"z": -0.3013974416,
				"element": "H" 
			},
			{
				"x": -2.2946735703,
				"y": 0.0140077915,
				"z": -2.225002607,
				"element": "H" 
			},
			{
				"x": 0.5737520595,
				"y": -1.5143157716,
				"z": -3.5319478932,
				"element": "H" 
			},
			{
				"x": -0.16927493,
				"y": -2.7533489364,
				"z": -2.5373760512,
				"element": "H" 
			},
			{
				"x": -1.1956318678,
				"y": -1.6694365701,
				"z": -3.500471738,
				"element": "H" 
			},
			{
				"x": 2.6090671479,
				"y": -1.7604862646,
				"z": 0.8059055084,
				"element": "H" 
			},
			{
				"x": 3.3663721324,
				"y": -0.4982170518,
				"z": -0.207085648,
				"element": "H" 
			},
			{
				"x": 3.5903546941,
				"y": -2.2217344939,
				"z": -0.6112671207,
				"element": "H" 
			},
			{
				"x": 1.5003108898,
				"y": 0.2846386704,
				"z": 0.9492361708,
				"element": "H" 
			}
		],
		 "valence_orbital": [ 
			{
				"type": "occ",
				"energy": -0.31953,
				"method": "rhf"
			},
			{
				"type": "occ",
				"energy": -0.29675,
				"method": "rhf"
			},
			{
				"type": "occ",
				"energy": -0.26757,
				"method": "rhf"
			},
			{
				"type": "occ",
				"energy": -0.2493,
				"method": "rhf"
			},
			{
				"type": "occ",
				"energy": -0.22085,
				"method": "rhf"
			},
			{
				"type": "unocc",
				"energy": -0.03818,
				"method": "rhf"
			},
			{
				"type": "unocc",
				"energy": 0.00875,
				"method": "rhf"
			},
			{
				"type": "unocc",
				"energy": 0.06588,
				"method": "rhf"
			},
			{
				"type": "unocc",
				"energy": 0.09729,
				"method": "rhf"
			},
			{
				"type": "unocc",
				"energy": 0.1062,
				"method": "rhf"
			}
		],
		"cosmo_sigma_profile": { 
			"-0.025": 0.0,
			"-0.024": 0.0,
			"-0.023": 0.0,
			"-0.022": 0.0,
			"-0.021": 0.0,
			"-0.02": 0.0,
			"-0.019": 0.0,
			"-0.018": 0.0,
			"-0.017": 0.0,
			"-0.016": 0.0,
			"-0.015": 0.0,
			"-0.014": 0.0,
			"-0.013": 0.0,
			"-0.012": 0.0,
			"-0.011": 0.0,
			"-0.01": 0.0,
			"-0.009": 0.0,
			"-0.008": 0.0,
			"-0.007": 0.513611543079,
			"-0.006": 11.1655073342,
			"-0.005": 21.4234638068,
			"-0.004": 23.4262817089,
			"-0.003": 26.2043422401,
			"-0.002": 18.3069385015,
			"-0.001": 17.2085134507,
			"0.0": 16.9781214126,
			"0.001": 15.3419482537,
			"0.002": 16.0635424928,
			"0.003": 15.8536512091,
			"0.004": 15.2447473555,
			"0.005": 7.42624954581,
			"0.006": 5.69482450669,
			"0.007": 2.92021236495,
			"0.008": 2.95582552957,
			"0.009": 2.47561565183,
			"0.01": 1.63420983385,
			"0.011": 2.64915570529,
			"0.012": 4.68517411771,
			"0.013": 0.707900590365,
			"0.014": 0.0,
			"0.015": 0.0,
			"0.016": 0.0,
			"0.017": 0.0,
			"0.018": 0.0,
			"0.019": 0.0,
			"0.02": 0.0,
			"0.021": 0.0,
			"0.022": 0.0,
			"0.023": 0.0,
			"0.024": 0.0,
			"0.025": 0.0
		}
	}
}
