{
	 "smiles": "CN1C=NN(CC(O)=O)C1=O", 
	 "Tm": 446.15, 
	 "num_atms": 18, 
	 "gaussian": { 
		 "optdone": 1, 
		 "sigma_profile": "yes", 
		 "theory": "DFT", 
		 "functional": "B3LYP", 
		 "basiset": "6-31G**", 
		 "properties": { 
			 "R2extent": 2047.5193, 
			 "electric_dipole_moment_norm": 1.9316576793, 
			 "electric_quadrupole_moment_norm": 19.7811235275, 
			 "total_energy": -584.683628327, 
			 "HOMO_LUMO_gap": 0.22425, 
			 "cosmo_polarized_energy": -18.21, 
			 "cosmo_cavitation_energy": 23.4, 
			 "cosmo_dispersion_energy": -16.77, 
			 "cosmo_repulsion_energy": 1.37, 
			 "cosmo_total_nonelectrostatic_energy": 8.0, 
			 "SMD_solvation_energy": 5.94 
		},
		"coords": [
			{
				"x": 0.3062907438,
				"y": -0.2688360063,
				"z": 2.9743997818,
				"element": "C" 
			},
			{
				"x": -0.5556502846,
				"y": -0.4287236328,
				"z": 1.819465995,
				"element": "N" 
			},
			{
				"x": -1.9167777352,
				"y": -0.2649920851,
				"z": 1.7221862479,
				"element": "C" 
			},
			{
				"x": -2.3650963227,
				"y": -0.4690270857,
				"z": 0.520685112,
				"element": "N" 
			},
			{
				"x": -1.2377263094,
				"y": -0.8043991434,
				"z": -0.2037968306,
				"element": "N" 
			},
			{
				"x": -1.2775976763,
				"y": -0.9069242433,
				"z": -1.6323469241,
				"element": "C" 
			},
			{
				"x": -1.2645413475,
				"y": 0.4590051025,
				"z": -2.3134533233,
				"element": "C" 
			},
			{
				"x": -1.4556663803,
				"y": 0.3164637459,
				"z": -3.6446914105,
				"element": "O" 
			},
			{
				"x": -1.094459264,
				"y": 1.5206291789,
				"z": -1.7664451395,
				"element": "O" 
			},
			{
				"x": -0.0754685986,
				"y": -0.7566062082,
				"z": 0.5452992139,
				"element": "C" 
			},
			{
				"x": 1.0771426871,
				"y": -0.9689730492,
				"z": 0.1980407054,
				"element": "O" 
			},
			{
				"x": 0.2484889483,
				"y": 0.7495085723,
				"z": 3.3702771435,
				"element": "H" 
			},
			{
				"x": 0.0447633554,
				"y": -0.9808921212,
				"z": 3.7629695466,
				"element": "H" 
			},
			{
				"x": 1.3251525237,
				"y": -0.4650616734,
				"z": 2.6357262665,
				"element": "H" 
			},
			{
				"x": -2.5440448707,
				"y": -0.0000014626,
				"z": 2.5614675723,
				"element": "H" 
			},
			{
				"x": -0.3925084357,
				"y": -1.4631247597,
				"z": -1.9563954242,
				"element": "H" 
			},
			{
				"x": -2.1662124849,
				"y": -1.4618017206,
				"z": -1.9439995854,
				"element": "H" 
			},
			{
				"x": -1.4132885484,
				"y": 1.2091565917,
				"z": -4.0267889472,
				"element": "H" 
			}
		],
		 "valence_orbital": [ 
			{
				"type": "occ",
				"energy": -0.3254,
				"method": "rhf"
			},
			{
				"type": "occ",
				"energy": -0.30354,
				"method": "rhf"
			},
			{
				"type": "occ",
				"energy": -0.28285,
				"method": "rhf"
			},
			{
				"type": "occ",
				"energy": -0.26486,
				"method": "rhf"
			},
			{
				"type": "occ",
				"energy": -0.22157,
				"method": "rhf"
			},
			{
				"type": "unocc",
				"energy": 0.00268,
				"method": "rhf"
			},
			{
				"type": "unocc",
				"energy": 0.0132,
				"method": "rhf"
			},
			{
				"type": "unocc",
				"energy": 0.05545,
				"method": "rhf"
			},
			{
				"type": "unocc",
				"energy": 0.07481,
				"method": "rhf"
			},
			{
				"type": "unocc",
				"energy": 0.09742,
				"method": "rhf"
			}
		],
		"cosmo_sigma_profile": { 
			"-0.025": 0.0,
			"-0.024": 0.0,
			"-0.023": 0.0,
			"-0.022": 0.0,
			"-0.021": 0.0,
			"-0.02": 0.0,
			"-0.019": 0.437079086119,
			"-0.018": 0.81197427436,
			"-0.017": 1.44962386626,
			"-0.016": 0.517550912244,
			"-0.015": 0.578804608355,
			"-0.014": 0.658977301553,
			"-0.013": 0.862336098837,
			"-0.012": 0.655413809086,
			"-0.011": 2.27500407979,
			"-0.01": 2.60763766156,
			"-0.009": 4.14816924346,
			"-0.008": 6.92082954343,
			"-0.007": 9.00094557346,
			"-0.006": 12.4306290579,
			"-0.005": 11.8680104691,
			"-0.004": 13.3547014597,
			"-0.003": 13.7530804205,
			"-0.002": 11.3383929125,
			"-0.001": 8.41920686156,
			"0.0": 7.20420207314,
			"0.001": 5.66847510498,
			"0.002": 5.65364496011,
			"0.003": 6.2164072737,
			"0.004": 4.60229145983,
			"0.005": 6.466449642,
			"0.006": 5.62021748105,
			"0.007": 5.36269906755,
			"0.008": 6.06177584231,
			"0.009": 5.83617596039,
			"0.01": 5.44203469218,
			"0.011": 7.11681849694,
			"0.012": 3.64639275004,
			"0.013": 6.55690647304,
			"0.014": 2.67645006387,
			"0.015": 0.0,
			"0.016": 0.0,
			"0.017": 0.0,
			"0.018": 0.0,
			"0.019": 0.0,
			"0.02": 0.0,
			"0.021": 0.0,
			"0.022": 0.0,
			"0.023": 0.0,
			"0.024": 0.0,
			"0.025": 0.0
		}
	}
}
