{
	 "smiles": "CC(CCC=C(C)C)C1=C(O)C(=O)C(C)=CC1=O", 
	 "Tm": 377.15, 
	 "num_atms": 38, 
	 "gaussian": { 
		 "optdone": 1, 
		 "sigma_profile": "yes", 
		 "theory": "DFT", 
		 "functional": "B3LYP", 
		 "basiset": "6-31G**", 
		 "properties": { 
			 "R2extent": 7163.8837, 
			 "electric_dipole_moment_norm": 1.62939821407, 
			 "electric_quadrupole_moment_norm": 13.9214196284, 
			 "total_energy": -809.305851174, 
			 "HOMO_LUMO_gap": 0.10327, 
			 "cosmo_polarized_energy": -10.21, 
			 "cosmo_cavitation_energy": 40.39, 
			 "cosmo_dispersion_energy": -27.28, 
			 "cosmo_repulsion_energy": 2.14, 
			 "cosmo_total_nonelectrostatic_energy": 15.25, 
			 "SMD_solvation_energy": 8.36 
		},
		"coords": [
			{
				"x": -0.632625785,
				"y": 0.298731719,
				"z": 0.8722972877,
				"element": "C" 
			},
			{
				"x": 0.6488240705,
				"y": 0.3553178472,
				"z": 0.0162901349,
				"element": "C" 
			},
			{
				"x": 1.544374907,
				"y": 1.5736889082,
				"z": 0.3536679172,
				"element": "C" 
			},
			{
				"x": 0.9036985012,
				"y": 2.9463222822,
				"z": 0.053982671,
				"element": "C" 
			},
			{
				"x": 0.5906416091,
				"y": 3.148929716,
				"z": -1.4051134713,
				"element": "C" 
			},
			{
				"x": -0.5582839329,
				"y": 3.5449876001,
				"z": -1.9755958962,
				"element": "C" 
			},
			{
				"x": -1.8230088247,
				"y": 3.88780534,
				"z": -1.2262179574,
				"element": "C" 
			},
			{
				"x": -0.6645470139,
				"y": 3.6929455365,
				"z": -3.4751955122,
				"element": "C" 
			},
			{
				"x": 1.4350959453,
				"y": -0.9375051731,
				"z": 0.1103318001,
				"element": "C" 
			},
			{
				"x": 1.9705462051,
				"y": -1.4354074298,
				"z": 1.2543244804,
				"element": "C" 
			},
			{
				"x": 1.8663765581,
				"y": -0.8358383307,
				"z": 2.4546878051,
				"element": "O" 
			},
			{
				"x": 2.7405339312,
				"y": -2.7158141611,
				"z": 1.3084096988,
				"element": "C" 
			},
			{
				"x": 3.1787497798,
				"y": -3.0718978072,
				"z": 2.4036902395,
				"element": "O" 
			},
			{
				"x": 2.9489395158,
				"y": -3.4986558024,
				"z": 0.068941554,
				"element": "C" 
			},
			{
				"x": 3.7286918072,
				"y": -4.7752087518,
				"z": 0.1780165885,
				"element": "C" 
			},
			{
				"x": 2.4217741317,
				"y": -3.0037304207,
				"z": -1.0654956087,
				"element": "C" 
			},
			{
				"x": 1.6507120677,
				"y": -1.7264997771,
				"z": -1.1260242587,
				"element": "C" 
			},
			{
				"x": 1.2117079481,
				"y": -1.3644841199,
				"z": -2.2160617333,
				"element": "O" 
			},
			{
				"x": -1.2378819233,
				"y": -0.5734880594,
				"z": 0.6053745033,
				"element": "H" 
			},
			{
				"x": -1.2482872868,
				"y": 1.1871914253,
				"z": 0.7049936344,
				"element": "H" 
			},
			{
				"x": -0.3988386067,
				"y": 0.2377174831,
				"z": 1.9389923538,
				"element": "H" 
			},
			{
				"x": 0.3501346344,
				"y": 0.4460827495,
				"z": -1.0325732655,
				"element": "H" 
			},
			{
				"x": 2.472746802,
				"y": 1.4907597904,
				"z": -0.2268109481,
				"element": "H" 
			},
			{
				"x": 1.8325855923,
				"y": 1.5335762589,
				"z": 1.4099906723,
				"element": "H" 
			},
			{
				"x": 1.6221560905,
				"y": 3.715849215,
				"z": 0.374512025,
				"element": "H" 
			},
			{
				"x": 0.0163248358,
				"y": 3.0916707722,
				"z": 0.6770823443,
				"element": "H" 
			},
			{
				"x": 1.4285919315,
				"y": 2.9409784111,
				"z": -2.0737417376,
				"element": "H" 
			},
			{
				"x": -1.7353040123,
				"y": 3.7598439481,
				"z": -0.1457423552,
				"element": "H" 
			},
			{
				"x": -2.1127295792,
				"y": 4.9300647058,
				"z": -1.4156058011,
				"element": "H" 
			},
			{
				"x": -2.6594232592,
				"y": 3.2674916895,
				"z": -1.5741744618,
				"element": "H" 
			},
			{
				"x": -1.4563659164,
				"y": 3.0485837409,
				"z": -3.879938825,
				"element": "H" 
			},
			{
				"x": 0.2713011596,
				"y": 3.4350146756,
				"z": -3.9783065612,
				"element": "H" 
			},
			{
				"x": -0.9297750838,
				"y": 4.7218880922,
				"z": -3.7538029898,
				"element": "H" 
			},
			{
				"x": 2.3438263099,
				"y": -1.4255543373,
				"z": 3.0752921995,
				"element": "H" 
			},
			{
				"x": 3.8187181938,
				"y": -5.2642987181,
				"z": -0.7942136499,
				"element": "H" 
			},
			{
				"x": 4.7315240159,
				"y": -4.583316489,
				"z": 0.5741076587,
				"element": "H" 
			},
			{
				"x": 3.2465948242,
				"y": -5.4641842873,
				"z": 0.8796482362,
				"element": "H" 
			},
			{
				"x": 2.5272998564,
				"y": -3.5122582422,
				"z": -2.0199187716,
				"element": "H" 
			}
		],
		 "valence_orbital": [ 
			{
				"type": "occ",
				"energy": -0.29229,
				"method": "rhf"
			},
			{
				"type": "occ",
				"energy": -0.29194,
				"method": "rhf"
			},
			{
				"type": "occ",
				"energy": -0.26012,
				"method": "rhf"
			},
			{
				"type": "occ",
				"energy": -0.24424,
				"method": "rhf"
			},
			{
				"type": "occ",
				"energy": -0.22366,
				"method": "rhf"
			},
			{
				"type": "unocc",
				"energy": -0.12039,
				"method": "rhf"
			},
			{
				"type": "unocc",
				"energy": -0.0038,
				"method": "rhf"
			},
			{
				"type": "unocc",
				"energy": 0.01733,
				"method": "rhf"
			},
			{
				"type": "unocc",
				"energy": 0.03566,
				"method": "rhf"
			},
			{
				"type": "unocc",
				"energy": 0.08426,
				"method": "rhf"
			}
		],
		"cosmo_sigma_profile": { 
			"-0.025": 0.0,
			"-0.024": 0.0,
			"-0.023": 0.0,
			"-0.022": 0.0,
			"-0.021": 0.0,
			"-0.02": 0.0,
			"-0.019": 0.0,
			"-0.018": 0.0,
			"-0.017": 0.0,
			"-0.016": 0.0,
			"-0.015": 0.0,
			"-0.014": 0.404899634158,
			"-0.013": 0.279909543169,
			"-0.012": 0.571741516423,
			"-0.011": 0.5737988725,
			"-0.01": 0.903707611353,
			"-0.009": 0.929225757221,
			"-0.008": 1.14278272801,
			"-0.007": 3.36370098183,
			"-0.006": 6.47394732764,
			"-0.005": 13.8221432495,
			"-0.004": 16.3494111256,
			"-0.003": 33.0882531023,
			"-0.002": 39.5037045858,
			"-0.001": 44.9528538942,
			"0.0": 40.7999825203,
			"0.001": 34.4667942344,
			"0.002": 16.7331957129,
			"0.003": 10.921628084,
			"0.004": 10.4566684053,
			"0.005": 8.590103197,
			"0.006": 5.83166737992,
			"0.007": 6.49886609429,
			"0.008": 3.63120572146,
			"0.009": 4.38354499017,
			"0.01": 3.90657228328,
			"0.011": 4.37598155056,
			"0.012": 3.44665046866,
			"0.013": 0.435727370945,
			"0.014": 0.0,
			"0.015": 0.0,
			"0.016": 0.0,
			"0.017": 0.0,
			"0.018": 0.0,
			"0.019": 0.0,
			"0.02": 0.0,
			"0.021": 0.0,
			"0.022": 0.0,
			"0.023": 0.0,
			"0.024": 0.0,
			"0.025": 0.0
		}
	}
}
