{
	 "smiles": "OC1=C(Cl)C=C(Cl)C2=C1C=CC=C2", 
	 "Tm": 381.15, 
	 "num_atms": 19, 
	 "gaussian": { 
		 "optdone": 1, 
		 "sigma_profile": "yes", 
		 "theory": "DFT", 
		 "functional": "B3LYP", 
		 "basiset": "6-31G**", 
		 "properties": { 
			 "R2extent": 4657.6536, 
			 "electric_dipole_moment_norm": 3.53489866616, 
			 "electric_quadrupole_moment_norm": 8.88161760604, 
			 "total_energy": -1380.28971143, 
			 "HOMO_LUMO_gap": 0.15994, 
			 "cosmo_polarized_energy": -9.63, 
			 "cosmo_cavitation_energy": 26.3, 
			 "cosmo_dispersion_energy": -20.2, 
			 "cosmo_repulsion_energy": 1.57, 
			 "cosmo_total_nonelectrostatic_energy": 7.67, 
			 "SMD_solvation_energy": 3.99 
		},
		"coords": [
			{
				"x": -3.243459035,
				"y": -0.0240950826,
				"z": -1.8283097294,
				"element": "O" 
			},
			{
				"x": -2.1848227675,
				"y": 0.7588840833,
				"z": -1.4947215837,
				"element": "C" 
			},
			{
				"x": -1.6443552246,
				"y": 1.5812816244,
				"z": -2.4671191664,
				"element": "C" 
			},
			{
				"x": -2.3281364556,
				"y": 1.600046727,
				"z": -4.0751612088,
				"element": "Cl" 
			},
			{
				"x": -0.5497460052,
				"y": 2.4252346269,
				"z": -2.1873256199,
				"element": "C" 
			},
			{
				"x": -0.0049770206,
				"y": 2.4495855884,
				"z": -0.9266112643,
				"element": "C" 
			},
			{
				"x": 1.3454730775,
				"y": 3.536495696,
				"z": -0.6249258912,
				"element": "Cl" 
			},
			{
				"x": -0.5047947062,
				"y": 1.6204847317,
				"z": 0.1183886416,
				"element": "C" 
			},
			{
				"x": -1.6057252712,
				"y": 0.7480219762,
				"z": -0.1853707893,
				"element": "C" 
			},
			{
				"x": -2.0863537909,
				"y": -0.1161690926,
				"z": 0.8354832485,
				"element": "C" 
			},
			{
				"x": -1.539565331,
				"y": -0.1057723713,
				"z": 2.0986679793,
				"element": "C" 
			},
			{
				"x": -0.4746017366,
				"y": 0.7717069238,
				"z": 2.4011373926,
				"element": "C" 
			},
			{
				"x": 0.0320037614,
				"y": 1.6083470027,
				"z": 1.43251483,
				"element": "C" 
			},
			{
				"x": -3.6701037934,
				"y": -0.3555063577,
				"z": -1.0289296526,
				"element": "H" 
			},
			{
				"x": -0.1557324318,
				"y": 3.0590274503,
				"z": -2.97209371,
				"element": "H" 
			},
			{
				"x": -2.8812466276,
				"y": -0.8268342477,
				"z": 0.6229474659,
				"element": "H" 
			},
			{
				"x": -1.9215680062,
				"y": -0.7787657816,
				"z": 2.8600834487,
				"element": "H" 
			},
			{
				"x": -0.0480458292,
				"y": 0.7790061651,
				"z": 3.3994489426,
				"element": "H" 
			},
			{
				"x": 0.8571571938,
				"y": 2.2724203376,
				"z": 1.6612966663,
				"element": "H" 
			}
		],
		 "valence_orbital": [ 
			{
				"type": "occ",
				"energy": -0.31077,
				"method": "rhf"
			},
			{
				"type": "occ",
				"energy": -0.30278,
				"method": "rhf"
			},
			{
				"type": "occ",
				"energy": -0.28128,
				"method": "rhf"
			},
			{
				"type": "occ",
				"energy": -0.25689,
				"method": "rhf"
			},
			{
				"type": "occ",
				"energy": -0.21502,
				"method": "rhf"
			},
			{
				"type": "unocc",
				"energy": -0.05508,
				"method": "rhf"
			},
			{
				"type": "unocc",
				"energy": -0.03059,
				"method": "rhf"
			},
			{
				"type": "unocc",
				"energy": 0.01136,
				"method": "rhf"
			},
			{
				"type": "unocc",
				"energy": 0.02157,
				"method": "rhf"
			},
			{
				"type": "unocc",
				"energy": 0.04863,
				"method": "rhf"
			}
		],
		"cosmo_sigma_profile": { 
			"-0.025": 0.0,
			"-0.024": 0.0,
			"-0.023": 0.0,
			"-0.022": 0.0,
			"-0.021": 0.0,
			"-0.02": 0.0,
			"-0.019": 0.473895650044,
			"-0.018": 0.720585674608,
			"-0.017": 1.11343239946,
			"-0.016": 1.10815062698,
			"-0.015": 0.809797025897,
			"-0.014": 0.710218464111,
			"-0.013": 0.890445425701,
			"-0.012": 1.10331397569,
			"-0.011": 1.33425194833,
			"-0.01": 1.03610033506,
			"-0.009": 0.817368587323,
			"-0.008": 1.92475556603,
			"-0.007": 5.50240670287,
			"-0.006": 8.95222201678,
			"-0.005": 9.37975991147,
			"-0.004": 9.09518070842,
			"-0.003": 8.18290102116,
			"-0.002": 10.4578411038,
			"-0.001": 10.8514769069,
			"0.0": 17.7035829097,
			"0.001": 28.9338264909,
			"0.002": 30.1989687597,
			"0.003": 22.9687925908,
			"0.004": 21.9657578988,
			"0.005": 9.36240075769,
			"0.006": 2.51033554463,
			"0.007": 1.41711906004,
			"0.008": 2.27973052459,
			"0.009": 1.89148887734,
			"0.01": 2.2371933732,
			"0.011": 0.614830035943,
			"0.012": 0.0,
			"0.013": 0.0,
			"0.014": 0.0,
			"0.015": 0.0,
			"0.016": 0.0,
			"0.017": 0.0,
			"0.018": 0.0,
			"0.019": 0.0,
			"0.02": 0.0,
			"0.021": 0.0,
			"0.022": 0.0,
			"0.023": 0.0,
			"0.024": 0.0,
			"0.025": 0.0
		}
	}
}
