{
	 "smiles": "OC(C1=NC=CS1)C1=CC=CC=C1", 
	 "Tm": 373.15, 
	 "num_atms": 22, 
	 "gaussian": { 
		 "optdone": 1, 
		 "sigma_profile": "yes", 
		 "theory": "DFT", 
		 "functional": "B3LYP", 
		 "basiset": "6-31G**", 
		 "properties": { 
			 "R2extent": 2970.2162, 
			 "electric_dipole_moment_norm": 2.58212635245, 
			 "electric_quadrupole_moment_norm": 8.09505019935, 
			 "total_energy": -914.631532362, 
			 "HOMO_LUMO_gap": 0.20976, 
			 "cosmo_polarized_energy": -8.58, 
			 "cosmo_cavitation_energy": 27.4, 
			 "cosmo_dispersion_energy": -20.47, 
			 "cosmo_repulsion_energy": 1.58, 
			 "cosmo_total_nonelectrostatic_energy": 8.5, 
			 "SMD_solvation_energy": 3.56 
		},
		"coords": [
			{
				"x": -1.8994500108,
				"y": -0.2620582354,
				"z": 1.3326639125,
				"element": "O" 
			},
			{
				"x": -0.8031050355,
				"y": -0.3412750842,
				"z": 0.4483371005,
				"element": "C" 
			},
			{
				"x": 0.2745180994,
				"y": -1.2152844166,
				"z": 1.0802200536,
				"element": "C" 
			},
			{
				"x": -0.0059235829,
				"y": -2.0016973973,
				"z": 2.0803107964,
				"element": "N" 
			},
			{
				"x": 1.0907923203,
				"y": -2.7420804809,
				"z": 2.4632627946,
				"element": "C" 
			},
			{
				"x": 2.2260857582,
				"y": -2.5244010039,
				"z": 1.7408417557,
				"element": "C" 
			},
			{
				"x": 1.9309401523,
				"y": -1.3208864671,
				"z": 0.523524758,
				"element": "S" 
			},
			{
				"x": -0.2916256295,
				"y": 1.0467063063,
				"z": 0.0938835461,
				"element": "C" 
			},
			{
				"x": -0.2971969985,
				"y": 2.0660894432,
				"z": 1.0525400828,
				"element": "C" 
			},
			{
				"x": 0.2046959728,
				"y": 3.3277575144,
				"z": 0.7369242683,
				"element": "C" 
			},
			{
				"x": 0.71962666,
				"y": 3.5826141353,
				"z": -0.537302127,
				"element": "C" 
			},
			{
				"x": 0.720834049,
				"y": 2.5715783547,
				"z": -1.4986656421,
				"element": "C" 
			},
			{
				"x": 0.2102559327,
				"y": 1.3098246068,
				"z": -1.1847838496,
				"element": "C" 
			},
			{
				"x": -1.793697044,
				"y": -0.9985519403,
				"z": 1.9595436705,
				"element": "H" 
			},
			{
				"x": -1.1075793569,
				"y": -0.8396252086,
				"z": -0.4894616121,
				"element": "H" 
			},
			{
				"x": 1.0009529965,
				"y": -3.4351193159,
				"z": 3.2912427558,
				"element": "H" 
			},
			{
				"x": 3.1998132571,
				"y": -2.9781188458,
				"z": 1.8583353552,
				"element": "H" 
			},
			{
				"x": -0.715059817,
				"y": 1.8607414542,
				"z": 2.0323207513,
				"element": "H" 
			},
			{
				"x": 0.1922010421,
				"y": 4.1156346805,
				"z": 1.4849193856,
				"element": "H" 
			},
			{
				"x": 1.1089446878,
				"y": 4.5669645557,
				"z": -0.7812285507,
				"element": "H" 
			},
			{
				"x": 1.1064280733,
				"y": 2.7659286015,
				"z": -2.4954368114,
				"element": "H" 
			},
			{
				"x": 0.1923484737,
				"y": 0.5297587434,
				"z": -1.9427923939,
				"element": "H" 
			}
		],
		 "valence_orbital": [ 
			{
				"type": "occ",
				"energy": -0.29207,
				"method": "rhf"
			},
			{
				"type": "occ",
				"energy": -0.27848,
				"method": "rhf"
			},
			{
				"type": "occ",
				"energy": -0.2514,
				"method": "rhf"
			},
			{
				"type": "occ",
				"energy": -0.24868,
				"method": "rhf"
			},
			{
				"type": "occ",
				"energy": -0.24258,
				"method": "rhf"
			},
			{
				"type": "unocc",
				"energy": -0.03282,
				"method": "rhf"
			},
			{
				"type": "unocc",
				"energy": -0.00622,
				"method": "rhf"
			},
			{
				"type": "unocc",
				"energy": -0.00274,
				"method": "rhf"
			},
			{
				"type": "unocc",
				"energy": 0.02193,
				"method": "rhf"
			},
			{
				"type": "unocc",
				"energy": 0.04299,
				"method": "rhf"
			}
		],
		"cosmo_sigma_profile": { 
			"-0.025": 0.0,
			"-0.024": 0.0,
			"-0.023": 0.0,
			"-0.022": 0.0,
			"-0.021": 0.0,
			"-0.02": 0.0,
			"-0.019": 0.0,
			"-0.018": 0.0,
			"-0.017": 0.0,
			"-0.016": 0.0,
			"-0.015": 0.0,
			"-0.014": 0.0,
			"-0.013": 0.0,
			"-0.012": 0.0,
			"-0.011": 0.0,
			"-0.01": 0.884908302099,
			"-0.009": 2.38059939016,
			"-0.008": 3.28897632981,
			"-0.007": 6.54607243617,
			"-0.006": 13.3680717401,
			"-0.005": 15.2415196524,
			"-0.004": 17.8618961276,
			"-0.003": 15.0888206469,
			"-0.002": 11.3968561459,
			"-0.001": 13.6656192945,
			"0.0": 13.2048616436,
			"0.001": 20.3924705592,
			"0.002": 22.5533462901,
			"0.003": 19.1585265901,
			"0.004": 12.7228155736,
			"0.005": 13.5763462083,
			"0.006": 6.66712464111,
			"0.007": 2.64304747033,
			"0.008": 2.9612915929,
			"0.009": 2.10163744045,
			"0.01": 0.841282009835,
			"0.011": 1.37059842736,
			"0.012": 1.4341376598,
			"0.013": 1.40698901871,
			"0.014": 0.733582075823,
			"0.015": 0.0,
			"0.016": 0.0,
			"0.017": 0.0,
			"0.018": 0.0,
			"0.019": 0.0,
			"0.02": 0.0,
			"0.021": 0.0,
			"0.022": 0.0,
			"0.023": 0.0,
			"0.024": 0.0,
			"0.025": 0.0
		}
	}
}
