{
	 "smiles": "OC1=CC(O)=NC=N1", 
	 "Tm": 573.15, 
	 "num_atms": 12, 
	 "gaussian": { 
		 "optdone": 1, 
		 "sigma_profile": "yes", 
		 "theory": "DFT", 
		 "functional": "B3LYP", 
		 "basiset": "6-31G**", 
		 "properties": { 
			 "R2extent": 1097.0408, 
			 "electric_dipole_moment_norm": 2.51999408928, 
			 "electric_quadrupole_moment_norm": 9.54017119186, 
			 "total_energy": -414.789142315, 
			 "HOMO_LUMO_gap": 0.23975, 
			 "cosmo_polarized_energy": -14.34, 
			 "cosmo_cavitation_energy": 16.76, 
			 "cosmo_dispersion_energy": -12.98, 
			 "cosmo_repulsion_energy": 1.08, 
			 "cosmo_total_nonelectrostatic_energy": 4.87, 
			 "SMD_solvation_energy": 1.18 
		},
		"coords": [
			{
				"x": 2.276135777,
				"y": 0.2841809003,
				"z": 0.7672487986,
				"element": "O" 
			},
			{
				"x": 1.4558339004,
				"y": -0.000588068,
				"z": -0.2586369711,
				"element": "C" 
			},
			{
				"x": 0.0765780343,
				"y": 0.1042175213,
				"z": -0.0791905127,
				"element": "C" 
			},
			{
				"x": -0.6976911055,
				"y": -0.2109934389,
				"z": -1.1988382503,
				"element": "C" 
			},
			{
				"x": -2.0455005091,
				"y": -0.1585284202,
				"z": -1.1864777671,
				"element": "O" 
			},
			{
				"x": -0.1680409194,
				"y": -0.5883597463,
				"z": -2.3677820119,
				"element": "N" 
			},
			{
				"x": 1.1606945137,
				"y": -0.6471934354,
				"z": -2.4034312903,
				"element": "C" 
			},
			{
				"x": 2.016585971,
				"y": -0.3746053526,
				"z": -1.4130137787,
				"element": "N" 
			},
			{
				"x": 3.178620922,
				"y": 0.1496152579,
				"z": 0.4345583973,
				"element": "H" 
			},
			{
				"x": -0.3434182574,
				"y": 0.4109571981,
				"z": 0.8722007356,
				"element": "H" 
			},
			{
				"x": -2.3475793011,
				"y": 0.1206986336,
				"z": -0.3114970604,
				"element": "H" 
			},
			{
				"x": 1.604480974,
				"y": -0.95310105,
				"z": -3.3489402891,
				"element": "H" 
			}
		],
		 "valence_orbital": [ 
			{
				"type": "occ",
				"energy": -0.36051,
				"method": "rhf"
			},
			{
				"type": "occ",
				"energy": -0.30757,
				"method": "rhf"
			},
			{
				"type": "occ",
				"energy": -0.27618,
				"method": "rhf"
			},
			{
				"type": "occ",
				"energy": -0.26832,
				"method": "rhf"
			},
			{
				"type": "occ",
				"energy": -0.26297,
				"method": "rhf"
			},
			{
				"type": "unocc",
				"energy": -0.02322,
				"method": "rhf"
			},
			{
				"type": "unocc",
				"energy": -0.0101,
				"method": "rhf"
			},
			{
				"type": "unocc",
				"energy": 0.05771,
				"method": "rhf"
			},
			{
				"type": "unocc",
				"energy": 0.08008,
				"method": "rhf"
			},
			{
				"type": "unocc",
				"energy": 0.12315,
				"method": "rhf"
			}
		],
		"cosmo_sigma_profile": { 
			"-0.025": 0.0,
			"-0.024": 0.0,
			"-0.023": 0.0,
			"-0.022": 0.0,
			"-0.021": 0.0,
			"-0.02": 0.0462515913768,
			"-0.019": 1.12758095269,
			"-0.018": 1.4684727007,
			"-0.017": 2.40513563005,
			"-0.016": 1.86354738267,
			"-0.015": 1.33836942583,
			"-0.014": 0.995299533683,
			"-0.013": 1.43107863216,
			"-0.012": 2.74424996735,
			"-0.011": 1.52773697536,
			"-0.01": 1.29694426024,
			"-0.009": 2.02586309498,
			"-0.008": 3.79045513703,
			"-0.007": 3.62205066841,
			"-0.006": 4.34751319217,
			"-0.005": 3.78107436437,
			"-0.004": 4.37045980032,
			"-0.003": 3.22990623638,
			"-0.002": 6.67870903673,
			"-0.001": 11.774426067,
			"0.0": 10.7106904458,
			"0.001": 9.29500247627,
			"0.002": 6.35210253976,
			"0.003": 5.34185865907,
			"0.004": 3.95056593699,
			"0.005": 4.74170518298,
			"0.006": 4.09902874372,
			"0.007": 4.28787746987,
			"0.008": 4.64709277115,
			"0.009": 4.566733001,
			"0.01": 4.63729842936,
			"0.011": 4.49712980131,
			"0.012": 2.61926000248,
			"0.013": 2.18851566509,
			"0.014": 0.977380290372,
			"0.015": 1.23708002464,
			"0.016": 0.250128435638,
			"0.017": 0.0,
			"0.018": 0.0,
			"0.019": 0.0,
			"0.02": 0.0,
			"0.021": 0.0,
			"0.022": 0.0,
			"0.023": 0.0,
			"0.024": 0.0,
			"0.025": 0.0
		}
	}
}
