{
	 "smiles": "CCCCOC1=CC=CC=C1", 
	 "Tm": 253.95, 
	 "num_atms": 25, 
	 "gaussian": { 
		 "optdone": 1, 
		 "sigma_profile": "yes", 
		 "theory": "DFT", 
		 "functional": "B3LYP", 
		 "basiset": "6-31G**", 
		 "properties": { 
			 "R2extent": 3049.2442, 
			 "electric_dipole_moment_norm": 1.45709783817, 
			 "electric_quadrupole_moment_norm": 3.82547854131, 
			 "total_energy": -464.727947513, 
			 "HOMO_LUMO_gap": 0.21795, 
			 "cosmo_polarized_energy": -5.1, 
			 "cosmo_cavitation_energy": 27.58, 
			 "cosmo_dispersion_energy": -20.27, 
			 "cosmo_repulsion_energy": 1.66, 
			 "cosmo_total_nonelectrostatic_energy": 8.97, 
			 "SMD_solvation_energy": 4.71 
		},
		"coords": [
			{
				"x": 0.824650669,
				"y": -1.1273972513,
				"z": 3.4323190891,
				"element": "C" 
			},
			{
				"x": 1.3755106041,
				"y": -1.8972545077,
				"z": 2.2249177201,
				"element": "C" 
			},
			{
				"x": 1.826690937,
				"y": -1.0118056275,
				"z": 1.0523184825,
				"element": "C" 
			},
			{
				"x": 0.6857276634,
				"y": -0.2608729781,
				"z": 0.3760291515,
				"element": "C" 
			},
			{
				"x": 1.2396341219,
				"y": 0.4551824367,
				"z": -0.7255815778,
				"element": "O" 
			},
			{
				"x": 0.4126867871,
				"y": 1.2229759765,
				"z": -1.4944547003,
				"element": "C" 
			},
			{
				"x": -0.9671443659,
				"y": 1.3536989173,
				"z": -1.2937251895,
				"element": "C" 
			},
			{
				"x": -1.71283168,
				"y": 2.1707965922,
				"z": -2.1501326155,
				"element": "C" 
			},
			{
				"x": -1.1037397562,
				"y": 2.8554792162,
				"z": -3.1990138542,
				"element": "C" 
			},
			{
				"x": 0.275658626,
				"y": 2.7186528652,
				"z": -3.3926290572,
				"element": "C" 
			},
			{
				"x": 1.0309347456,
				"y": 1.9108319539,
				"z": -2.5503338912,
				"element": "C" 
			},
			{
				"x": -0.0905124408,
				"y": -0.5773024765,
				"z": 3.1892271998,
				"element": "H" 
			},
			{
				"x": 1.5571121322,
				"y": -0.401767233,
				"z": 3.8042114331,
				"element": "H" 
			},
			{
				"x": 0.5853140004,
				"y": -1.808734455,
				"z": 4.2551353955,
				"element": "H" 
			},
			{
				"x": 2.2335579503,
				"y": -2.4987682652,
				"z": 2.5480257592,
				"element": "H" 
			},
			{
				"x": 0.6221771858,
				"y": -2.6146315656,
				"z": 1.8714699358,
				"element": "H" 
			},
			{
				"x": 2.3197518533,
				"y": -1.6289771762,
				"z": 0.2922794832,
				"element": "H" 
			},
			{
				"x": 2.5716020643,
				"y": -0.2832013571,
				"z": 1.39601227,
				"element": "H" 
			},
			{
				"x": -0.0815396403,
				"y": -0.9657785605,
				"z": 0.021234826,
				"element": "H" 
			},
			{
				"x": 0.2008398422,
				"y": 0.4402053276,
				"z": 1.0691044293,
				"element": "H" 
			},
			{
				"x": -1.4650178616,
				"y": 0.8306983202,
				"z": -0.4859405279,
				"element": "H" 
			},
			{
				"x": -2.7828930149,
				"y": 2.2663019244,
				"z": -1.9868975818,
				"element": "H" 
			},
			{
				"x": -1.6913289935,
				"y": 3.4870757771,
				"z": -3.85804427,
				"element": "H" 
			},
			{
				"x": 0.7663498206,
				"y": 3.2458326655,
				"z": -4.2061654133,
				"element": "H" 
			},
			{
				"x": 2.10130875,
				"y": 1.7934594807,
				"z": -2.6856664962,
				"element": "H" 
			}
		],
		 "valence_orbital": [ 
			{
				"type": "occ",
				"energy": -0.33308,
				"method": "rhf"
			},
			{
				"type": "occ",
				"energy": -0.31521,
				"method": "rhf"
			},
			{
				"type": "occ",
				"energy": -0.30926,
				"method": "rhf"
			},
			{
				"type": "occ",
				"energy": -0.2448,
				"method": "rhf"
			},
			{
				"type": "occ",
				"energy": -0.21333,
				"method": "rhf"
			},
			{
				"type": "unocc",
				"energy": 0.00462,
				"method": "rhf"
			},
			{
				"type": "unocc",
				"energy": 0.01904,
				"method": "rhf"
			},
			{
				"type": "unocc",
				"energy": 0.07995,
				"method": "rhf"
			},
			{
				"type": "unocc",
				"energy": 0.09776,
				"method": "rhf"
			},
			{
				"type": "unocc",
				"energy": 0.11233,
				"method": "rhf"
			}
		],
		"cosmo_sigma_profile": { 
			"-0.025": 0.0,
			"-0.024": 0.0,
			"-0.023": 0.0,
			"-0.022": 0.0,
			"-0.021": 0.0,
			"-0.02": 0.0,
			"-0.019": 0.0,
			"-0.018": 0.0,
			"-0.017": 0.0,
			"-0.016": 0.0,
			"-0.015": 0.0,
			"-0.014": 0.0,
			"-0.013": 0.0,
			"-0.012": 0.0,
			"-0.011": 0.0,
			"-0.01": 0.0,
			"-0.009": 0.0,
			"-0.008": 0.0,
			"-0.007": 0.0,
			"-0.006": 3.46072138554,
			"-0.005": 11.5205479547,
			"-0.004": 18.1311621566,
			"-0.003": 25.1561815814,
			"-0.002": 27.7381149076,
			"-0.001": 24.1989154844,
			"0.0": 24.914035709,
			"0.001": 19.5415888463,
			"0.002": 10.2891022097,
			"0.003": 10.0014414844,
			"0.004": 10.6645702722,
			"0.005": 11.4145535015,
			"0.006": 11.0309572646,
			"0.007": 3.81099826479,
			"0.008": 1.29361782014,
			"0.009": 1.6688892925,
			"0.01": 1.49252935214,
			"0.011": 0.228281849574,
			"0.012": 0.0,
			"0.013": 0.0,
			"0.014": 0.0,
			"0.015": 0.0,
			"0.016": 0.0,
			"0.017": 0.0,
			"0.018": 0.0,
			"0.019": 0.0,
			"0.02": 0.0,
			"0.021": 0.0,
			"0.022": 0.0,
			"0.023": 0.0,
			"0.024": 0.0,
			"0.025": 0.0
		}
	}
}
