{
	 "smiles": "CC1=CC2=C(NN=C2C(O)=O)C=C1", 
	 "Tm": 547.15, 
	 "num_atms": 21, 
	 "gaussian": { 
		 "optdone": 1, 
		 "sigma_profile": "yes", 
		 "theory": "DFT", 
		 "functional": "B3LYP", 
		 "basiset": "6-31G**", 
		 "properties": { 
			 "R2extent": 3179.6833, 
			 "electric_dipole_moment_norm": 3.01823876789, 
			 "electric_quadrupole_moment_norm": 8.80127173311, 
			 "total_energy": -607.739404665, 
			 "HOMO_LUMO_gap": 0.17887, 
			 "cosmo_polarized_energy": -15.48, 
			 "cosmo_cavitation_energy": 25.78, 
			 "cosmo_dispersion_energy": -19.22, 
			 "cosmo_repulsion_energy": 1.52, 
			 "cosmo_total_nonelectrostatic_energy": 8.08, 
			 "SMD_solvation_energy": 4.62 
		},
		"coords": [
			{
				"x": -2.6557019627,
				"y": 0.1882444619,
				"z": 0.5544716525,
				"element": "C" 
			},
			{
				"x": -1.5292846629,
				"y": -0.5068117419,
				"z": -0.1750458325,
				"element": "C" 
			},
			{
				"x": -0.2495806235,
				"y": -0.5545093809,
				"z": 0.3625455415,
				"element": "C" 
			},
			{
				"x": 0.7669366253,
				"y": -1.2131032423,
				"z": -0.3533810158,
				"element": "C" 
			},
			{
				"x": 0.4763133021,
				"y": -1.8123340185,
				"z": -1.5988169549,
				"element": "C" 
			},
			{
				"x": 1.6608913513,
				"y": -2.3610770149,
				"z": -2.0297887282,
				"element": "N" 
			},
			{
				"x": 2.6772171742,
				"y": -2.1651083563,
				"z": -1.1723924791,
				"element": "N" 
			},
			{
				"x": 2.1634463102,
				"y": -1.4764289263,
				"z": -0.1555200337,
				"element": "C" 
			},
			{
				"x": 2.9662923668,
				"y": -1.0598033705,
				"z": 1.0041535482,
				"element": "C" 
			},
			{
				"x": 4.2609246887,
				"y": -1.4393143472,
				"z": 0.938513288,
				"element": "O" 
			},
			{
				"x": 2.5120228507,
				"y": -0.4293773237,
				"z": 1.9428036629,
				"element": "O" 
			},
			{
				"x": -0.8090179532,
				"y": -1.7762362243,
				"z": -2.1604020794,
				"element": "C" 
			},
			{
				"x": -1.7874343897,
				"y": -1.1210464956,
				"z": -1.4321832411,
				"element": "C" 
			},
			{
				"x": -2.3123338326,
				"y": 0.611790465,
				"z": 1.5017255879,
				"element": "H" 
			},
			{
				"x": -3.4767213921,
				"y": -0.5041341945,
				"z": 0.7750912157,
				"element": "H" 
			},
			{
				"x": -3.0766732866,
				"y": 1.004437457,
				"z": -0.0444747328,
				"element": "H" 
			},
			{
				"x": -0.0197493775,
				"y": -0.0965366295,
				"z": 1.3181987623,
				"element": "H" 
			},
			{
				"x": 1.8392198065,
				"y": -2.8700824555,
				"z": -2.8816669923,
				"element": "H" 
			},
			{
				"x": 4.6690127956,
				"y": -1.1046390939,
				"z": 1.754266241,
				"element": "H" 
			},
			{
				"x": -1.0306527859,
				"y": -2.2374409043,
				"z": -3.1178543453,
				"element": "H" 
			},
			{
				"x": -2.7961270044,
				"y": -1.0720886639,
				"z": -1.8349430649,
				"element": "H" 
			}
		],
		 "valence_orbital": [ 
			{
				"type": "occ",
				"energy": -0.30552,
				"method": "rhf"
			},
			{
				"type": "occ",
				"energy": -0.29253,
				"method": "rhf"
			},
			{
				"type": "occ",
				"energy": -0.27308,
				"method": "rhf"
			},
			{
				"type": "occ",
				"energy": -0.24407,
				"method": "rhf"
			},
			{
				"type": "occ",
				"energy": -0.22668,
				"method": "rhf"
			},
			{
				"type": "unocc",
				"energy": -0.04781,
				"method": "rhf"
			},
			{
				"type": "unocc",
				"energy": -0.00445,
				"method": "rhf"
			},
			{
				"type": "unocc",
				"energy": 0.01499,
				"method": "rhf"
			},
			{
				"type": "unocc",
				"energy": 0.07604,
				"method": "rhf"
			},
			{
				"type": "unocc",
				"energy": 0.08701,
				"method": "rhf"
			}
		],
		"cosmo_sigma_profile": { 
			"-0.025": 0.0,
			"-0.024": 0.0,
			"-0.023": 0.0,
			"-0.022": 0.0,
			"-0.021": 0.0,
			"-0.02": 0.0,
			"-0.019": 0.0589460163765,
			"-0.018": 0.898270575877,
			"-0.017": 2.24275171945,
			"-0.016": 2.65981087439,
			"-0.015": 1.61768085445,
			"-0.014": 2.37846797761,
			"-0.013": 1.25512360805,
			"-0.012": 1.83030919811,
			"-0.011": 2.43066195589,
			"-0.01": 1.32439726575,
			"-0.009": 1.12150246067,
			"-0.008": 2.1298523683,
			"-0.007": 5.14632547997,
			"-0.006": 3.90333519892,
			"-0.005": 7.80173588274,
			"-0.004": 11.8303888615,
			"-0.003": 13.1835310142,
			"-0.002": 15.1873964044,
			"-0.001": 13.7489787156,
			"0.0": 16.6234408334,
			"0.001": 17.1253672034,
			"0.002": 13.5883370073,
			"0.003": 13.9956808044,
			"0.004": 14.42298521,
			"0.005": 7.98871011426,
			"0.006": 3.90237439563,
			"0.007": 2.87997870034,
			"0.008": 3.89182100657,
			"0.009": 3.32917762649,
			"0.01": 4.04402219688,
			"0.011": 5.52875892361,
			"0.012": 4.31013776768,
			"0.013": 2.10342930342,
			"0.014": 1.07214950027,
			"0.015": 0.318822598089,
			"0.016": 0.0,
			"0.017": 0.0,
			"0.018": 0.0,
			"0.019": 0.0,
			"0.02": 0.0,
			"0.021": 0.0,
			"0.022": 0.0,
			"0.023": 0.0,
			"0.024": 0.0,
			"0.025": 0.0
		}
	}
}
