{
	 "smiles": "COC1=CC(C=O)=C2OC(C)CC2=C1", 
	 "Tm": 345.15, 
	 "num_atms": 26, 
	 "gaussian": { 
		 "optdone": 1, 
		 "sigma_profile": "yes", 
		 "theory": "DFT", 
		 "functional": "B3LYP", 
		 "basiset": "6-31G**", 
		 "properties": { 
			 "R2extent": 3593.3308, 
			 "electric_dipole_moment_norm": 3.75729531179, 
			 "electric_quadrupole_moment_norm": 24.1596680333, 
			 "total_energy": -652.051124939, 
			 "HOMO_LUMO_gap": 0.15148, 
			 "cosmo_polarized_energy": -13.76, 
			 "cosmo_cavitation_energy": 29.54, 
			 "cosmo_dispersion_energy": -21.55, 
			 "cosmo_repulsion_energy": 1.71, 
			 "cosmo_total_nonelectrostatic_energy": 9.71, 
			 "SMD_solvation_energy": 6.76 
		},
		"coords": [
			{
				"x": -4.2929319244,
				"y": -0.4575403909,
				"z": 2.2511840108,
				"element": "C" 
			},
			{
				"x": -3.2805620107,
				"y": -1.0420331327,
				"z": 1.4500437412,
				"element": "O" 
			},
			{
				"x": -2.1370994006,
				"y": -0.3209727348,
				"z": 1.2341226743,
				"element": "C" 
			},
			{
				"x": -1.8865235993,
				"y": 0.9511118483,
				"z": 1.7392508644,
				"element": "C" 
			},
			{
				"x": -0.671586237,
				"y": 1.6261435734,
				"z": 1.4712797108,
				"element": "C" 
			},
			{
				"x": -0.4720363364,
				"y": 2.9689585495,
				"z": 2.0443525198,
				"element": "C" 
			},
			{
				"x": 0.5069817949,
				"y": 3.6754801074,
				"z": 1.8988503434,
				"element": "O" 
			},
			{
				"x": 0.27505825,
				"y": 0.9687481266,
				"z": 0.6763956333,
				"element": "C" 
			},
			{
				"x": 1.4856784454,
				"y": 1.4601446768,
				"z": 0.3178069179,
				"element": "O" 
			},
			{
				"x": 2.2402997282,
				"y": 0.3896895164,
				"z": -0.3310642697,
				"element": "C" 
			},
			{
				"x": 3.0073066941,
				"y": 0.9803076685,
				"z": -1.4994073514,
				"element": "C" 
			},
			{
				"x": 1.2047808144,
				"y": -0.707171614,
				"z": -0.6904343949,
				"element": "C" 
			},
			{
				"x": 0.0224381589,
				"y": -0.3125018882,
				"z": 0.1621525228,
				"element": "C" 
			},
			{
				"x": -1.1690586111,
				"y": -0.9585267009,
				"z": 0.4290291303,
				"element": "C" 
			},
			{
				"x": -4.6715342492,
				"y": 0.4746310128,
				"z": 1.810939915,
				"element": "H" 
			},
			{
				"x": -3.9367600735,
				"y": -0.2519068228,
				"z": 3.2694779216,
				"element": "H" 
			},
			{
				"x": -5.1031448879,
				"y": -1.1870185698,
				"z": 2.2958954773,
				"element": "H" 
			},
			{
				"x": -2.6187767288,
				"y": 1.4586594783,
				"z": 2.3580814692,
				"element": "H" 
			},
			{
				"x": -1.3357076127,
				"y": 3.3148756054,
				"z": 2.6604118326,
				"element": "H" 
			},
			{
				"x": 2.9387135145,
				"y": 0.0088355326,
				"z": 0.4258579964,
				"element": "H" 
			},
			{
				"x": 3.6553058279,
				"y": 1.7938778451,
				"z": -1.1629252549,
				"element": "H" 
			},
			{
				"x": 2.3168750527,
				"y": 1.3760529041,
				"z": -2.2506831371,
				"element": "H" 
			},
			{
				"x": 3.6311269361,
				"y": 0.2124974545,
				"z": -1.9688848832,
				"element": "H" 
			},
			{
				"x": 1.5840006006,
				"y": -1.710472118,
				"z": -0.4745053299,
				"element": "H" 
			},
			{
				"x": 0.9486617468,
				"y": -0.6753032167,
				"z": -1.7580125831,
				"element": "H" 
			},
			{
				"x": -1.3889058928,
				"y": -1.9472667111,
				"z": 0.0380845231,
				"element": "H" 
			}
		],
		 "valence_orbital": [ 
			{
				"type": "occ",
				"energy": -0.33221,
				"method": "rhf"
			},
			{
				"type": "occ",
				"energy": -0.28842,
				"method": "rhf"
			},
			{
				"type": "occ",
				"energy": -0.25631,
				"method": "rhf"
			},
			{
				"type": "occ",
				"energy": -0.23825,
				"method": "rhf"
			},
			{
				"type": "occ",
				"energy": -0.20315,
				"method": "rhf"
			},
			{
				"type": "unocc",
				"energy": -0.05167,
				"method": "rhf"
			},
			{
				"type": "unocc",
				"energy": 0.00857,
				"method": "rhf"
			},
			{
				"type": "unocc",
				"energy": 0.05076,
				"method": "rhf"
			},
			{
				"type": "unocc",
				"energy": 0.08807,
				"method": "rhf"
			},
			{
				"type": "unocc",
				"energy": 0.09281,
				"method": "rhf"
			}
		],
		"cosmo_sigma_profile": { 
			"-0.025": 0.0,
			"-0.024": 0.0,
			"-0.023": 0.0,
			"-0.022": 0.0,
			"-0.021": 0.0,
			"-0.02": 0.0,
			"-0.019": 0.0,
			"-0.018": 0.0,
			"-0.017": 0.0,
			"-0.016": 0.0,
			"-0.015": 0.0,
			"-0.014": 0.0,
			"-0.013": 0.0,
			"-0.012": 0.0,
			"-0.011": 0.0,
			"-0.01": 0.0,
			"-0.009": 0.0,
			"-0.008": 0.47941316878,
			"-0.007": 4.43417156154,
			"-0.006": 10.6875846115,
			"-0.005": 25.3775656627,
			"-0.004": 29.2716875794,
			"-0.003": 25.9597122132,
			"-0.002": 22.269057182,
			"-0.001": 15.5616587996,
			"0.0": 14.0699692937,
			"0.001": 11.813289169,
			"0.002": 13.2419488875,
			"0.003": 15.3214309824,
			"0.004": 7.02126051108,
			"0.005": 4.27299273239,
			"0.006": 3.96959640758,
			"0.007": 2.87724635533,
			"0.008": 3.57549615233,
			"0.009": 3.58056753166,
			"0.01": 4.45143812536,
			"0.011": 4.15208061669,
			"0.012": 4.76277536572,
			"0.013": 3.17148477205,
			"0.014": 1.75678556098,
			"0.015": 1.38709330553,
			"0.016": 0.514422501149,
			"0.017": 0.010349446738,
			"0.018": 0.0,
			"0.019": 0.0,
			"0.02": 0.0,
			"0.021": 0.0,
			"0.022": 0.0,
			"0.023": 0.0,
			"0.024": 0.0,
			"0.025": 0.0
		}
	}
}
