{
	 "smiles": "CC1=NC(S)=NC(C)=C1CCC(O)=O", 
	 "Tm": 428.15, 
	 "num_atms": 26, 
	 "gaussian": { 
		 "optdone": 1, 
		 "sigma_profile": "yes", 
		 "theory": "DFT", 
		 "functional": "B3LYP", 
		 "basiset": "6-31G**", 
		 "properties": { 
			 "R2extent": 4542.1127, 
			 "electric_dipole_moment_norm": 4.50379316355, 
			 "electric_quadrupole_moment_norm": 13.4558382255, 
			 "total_energy": -1008.36113605, 
			 "HOMO_LUMO_gap": 0.19845, 
			 "cosmo_polarized_energy": -14.84, 
			 "cosmo_cavitation_energy": 30.86, 
			 "cosmo_dispersion_energy": -22.71, 
			 "cosmo_repulsion_energy": 1.77, 
			 "cosmo_total_nonelectrostatic_energy": 9.92, 
			 "SMD_solvation_energy": 3.21 
		},
		"coords": [
			{
				"x": 0.3554903204,
				"y": 2.2361810533,
				"z": 2.2449965206,
				"element": "C" 
			},
			{
				"x": -0.8313041154,
				"y": 1.3767339387,
				"z": 1.8815580922,
				"element": "C" 
			},
			{
				"x": -2.025408132,
				"y": 1.9107062771,
				"z": 2.1930023733,
				"element": "N" 
			},
			{
				"x": -3.0958836158,
				"y": 1.174534037,
				"z": 1.899784362,
				"element": "C" 
			},
			{
				"x": -4.7092838108,
				"y": 1.8449497799,
				"z": 2.2529980614,
				"element": "S" 
			},
			{
				"x": -3.1105883628,
				"y": -0.0484301043,
				"z": 1.370844652,
				"element": "N" 
			},
			{
				"x": -1.9219736463,
				"y": -0.589103646,
				"z": 1.0619098687,
				"element": "C" 
			},
			{
				"x": -1.9728914417,
				"y": -1.9890333672,
				"z": 0.5047537127,
				"element": "C" 
			},
			{
				"x": -0.7135800737,
				"y": 0.1127047966,
				"z": 1.2722251807,
				"element": "C" 
			},
			{
				"x": 0.6361849226,
				"y": -0.4779259261,
				"z": 0.9090938421,
				"element": "C" 
			},
			{
				"x": 1.3602742308,
				"y": 0.2163260872,
				"z": -0.2604328922,
				"element": "C" 
			},
			{
				"x": 0.725968027,
				"y": -0.0318452366,
				"z": -1.6130882993,
				"element": "C" 
			},
			{
				"x": 1.0644739638,
				"y": 0.9296039444,
				"z": -2.501946347,
				"element": "O" 
			},
			{
				"x": 0.0325031045,
				"y": -0.9796332381,
				"z": -1.9155343872,
				"element": "O" 
			},
			{
				"x": 0.6759609204,
				"y": 2.8442569934,
				"z": 1.3905012972,
				"element": "H" 
			},
			{
				"x": 0.0645733518,
				"y": 2.9226495616,
				"z": 3.0417787235,
				"element": "H" 
			},
			{
				"x": 1.2164127137,
				"y": 1.6466732178,
				"z": 2.5720190547,
				"element": "H" 
			},
			{
				"x": -4.2437363291,
				"y": 3.0088854208,
				"z": 2.745076184,
				"element": "H" 
			},
			{
				"x": -1.4676140604,
				"y": -2.6958617426,
				"z": 1.1740563946,
				"element": "H" 
			},
			{
				"x": -1.4787023659,
				"y": -2.0443174734,
				"z": -0.4686847361,
				"element": "H" 
			},
			{
				"x": -3.0160421574,
				"y": -2.291180472,
				"z": 0.4076751932,
				"element": "H" 
			},
			{
				"x": 0.5252542861,
				"y": -1.5345629799,
				"z": 0.6600324344,
				"element": "H" 
			},
			{
				"x": 1.3003455656,
				"y": -0.4346522062,
				"z": 1.7806234347,
				"element": "H" 
			},
			{
				"x": 2.3880752739,
				"y": -0.165297245,
				"z": -0.3311082633,
				"element": "H" 
			},
			{
				"x": 1.450789254,
				"y": 1.2944673755,
				"z": -0.1111714597,
				"element": "H" 
			},
			{
				"x": 0.654802177,
				"y": 0.6772711542,
				"z": -3.3470629971,
				"element": "H" 
			}
		],
		 "valence_orbital": [ 
			{
				"type": "occ",
				"energy": -0.29581,
				"method": "rhf"
			},
			{
				"type": "occ",
				"energy": -0.29033,
				"method": "rhf"
			},
			{
				"type": "occ",
				"energy": -0.287,
				"method": "rhf"
			},
			{
				"type": "occ",
				"energy": -0.24671,
				"method": "rhf"
			},
			{
				"type": "occ",
				"energy": -0.22903,
				"method": "rhf"
			},
			{
				"type": "unocc",
				"energy": -0.03058,
				"method": "rhf"
			},
			{
				"type": "unocc",
				"energy": -0.02045,
				"method": "rhf"
			},
			{
				"type": "unocc",
				"energy": -0.00336,
				"method": "rhf"
			},
			{
				"type": "unocc",
				"energy": 0.03063,
				"method": "rhf"
			},
			{
				"type": "unocc",
				"energy": 0.07038,
				"method": "rhf"
			}
		],
		"cosmo_sigma_profile": { 
			"-0.025": 0.0,
			"-0.024": 0.0,
			"-0.023": 0.0,
			"-0.022": 0.0,
			"-0.021": 0.0,
			"-0.02": 0.0,
			"-0.019": 0.0476471811841,
			"-0.018": 0.786958185147,
			"-0.017": 0.8618697718,
			"-0.016": 0.572463979281,
			"-0.015": 1.16122175848,
			"-0.014": 0.85357140941,
			"-0.013": 0.213235945239,
			"-0.012": 0.377106001681,
			"-0.011": 1.69757405192,
			"-0.01": 1.96558078624,
			"-0.009": 1.67470772565,
			"-0.008": 2.15940217564,
			"-0.007": 6.76969054178,
			"-0.006": 11.3258287959,
			"-0.005": 15.7465465143,
			"-0.004": 19.1669971841,
			"-0.003": 17.6731658717,
			"-0.002": 17.8377879822,
			"-0.001": 23.2842440568,
			"0.0": 20.4893900071,
			"0.001": 13.4907010783,
			"0.002": 12.2176190798,
			"0.003": 11.6994206036,
			"0.004": 12.5076748795,
			"0.005": 10.0876685047,
			"0.006": 9.53153430454,
			"0.007": 7.32698754183,
			"0.008": 7.64724560224,
			"0.009": 5.27383232496,
			"0.01": 4.16729819976,
			"0.011": 4.23865783593,
			"0.012": 2.78927692994,
			"0.013": 0.909139460759,
			"0.014": 0.112176999518,
			"0.015": 0.0,
			"0.016": 0.0,
			"0.017": 0.0,
			"0.018": 0.0,
			"0.019": 0.0,
			"0.02": 0.0,
			"0.021": 0.0,
			"0.022": 0.0,
			"0.023": 0.0,
			"0.024": 0.0,
			"0.025": 0.0
		}
	}
}
