{
	 "smiles": "COC(=O)C1=CC(C=O)=CN1C", 
	 "Tm": 373.15, 
	 "num_atms": 21, 
	 "gaussian": { 
		 "optdone": 1, 
		 "sigma_profile": "yes", 
		 "theory": "DFT", 
		 "functional": "B3LYP", 
		 "basiset": "6-31G**", 
		 "properties": { 
			 "R2extent": 2865.4419, 
			 "electric_dipole_moment_norm": 3.21925259804, 
			 "electric_quadrupole_moment_norm": 19.510971965, 
			 "total_energy": -590.693226748, 
			 "HOMO_LUMO_gap": 0.19872, 
			 "cosmo_polarized_energy": -12.12, 
			 "cosmo_cavitation_energy": 26.12, 
			 "cosmo_dispersion_energy": -18.73, 
			 "cosmo_repulsion_energy": 1.49, 
			 "cosmo_total_nonelectrostatic_energy": 8.89, 
			 "SMD_solvation_energy": 7.49 
		},
		"coords": [
			{
				"x": 1.5345518721,
				"y": -3.6916902382,
				"z": -0.0811922508,
				"element": "C" 
			},
			{
				"x": 1.1497278922,
				"y": -2.5344706709,
				"z": 0.6759990157,
				"element": "O" 
			},
			{
				"x": 0.6229301055,
				"y": -1.5216135254,
				"z": -0.0509328744,
				"element": "C" 
			},
			{
				"x": 0.4781722257,
				"y": -1.5703476731,
				"z": -1.2619926428,
				"element": "O" 
			},
			{
				"x": 0.2636645344,
				"y": -0.3919376309,
				"z": 0.8037842288,
				"element": "C" 
			},
			{
				"x": 0.3879689302,
				"y": -0.2415615752,
				"z": 2.1752115462,
				"element": "C" 
			},
			{
				"x": -0.1073278995,
				"y": 1.0428841175,
				"z": 2.511279119,
				"element": "C" 
			},
			{
				"x": -0.1853862132,
				"y": 1.657449893,
				"z": 3.8331018934,
				"element": "C" 
			},
			{
				"x": -0.6261670296,
				"y": 2.7741717501,
				"z": 4.0525566563,
				"element": "O" 
			},
			{
				"x": -0.5211778906,
				"y": 1.6368117188,
				"z": 1.316511606,
				"element": "C" 
			},
			{
				"x": -0.3002015241,
				"y": 0.7803884893,
				"z": 0.2940409318,
				"element": "N" 
			},
			{
				"x": -0.6120359463,
				"y": 1.0657345304,
				"z": -1.1054445279,
				"element": "C" 
			},
			{
				"x": 2.2969780765,
				"y": -3.4343605073,
				"z": -0.820866488,
				"element": "H" 
			},
			{
				"x": 0.6724317646,
				"y": -4.1197817255,
				"z": -0.5989869712,
				"element": "H" 
			},
			{
				"x": 1.9321652043,
				"y": -4.3983171369,
				"z": 0.6471119566,
				"element": "H" 
			},
			{
				"x": 0.7929754883,
				"y": -0.9842251494,
				"z": 2.8473651389,
				"element": "H" 
			},
			{
				"x": 0.1959691704,
				"y": 1.0212325223,
				"z": 4.6624653052,
				"element": "H" 
			},
			{
				"x": -0.9545354906,
				"y": 2.6131252304,
				"z": 1.156597891,
				"element": "H" 
			},
			{
				"x": -1.0411675752,
				"y": 2.0675086119,
				"z": -1.1565733665,
				"element": "H" 
			},
			{
				"x": -1.3232781826,
				"y": 0.3362957657,
				"z": -1.4948037173,
				"element": "H" 
			},
			{
				"x": 0.2905424874,
				"y": 1.0163032032,
				"z": -1.71573245,
				"element": "H" 
			}
		],
		 "valence_orbital": [ 
			{
				"type": "occ",
				"energy": -0.30663,
				"method": "rhf"
			},
			{
				"type": "occ",
				"energy": -0.28201,
				"method": "rhf"
			},
			{
				"type": "occ",
				"energy": -0.26235,
				"method": "rhf"
			},
			{
				"type": "occ",
				"energy": -0.24546,
				"method": "rhf"
			},
			{
				"type": "occ",
				"energy": -0.23781,
				"method": "rhf"
			},
			{
				"type": "unocc",
				"energy": -0.03909,
				"method": "rhf"
			},
			{
				"type": "unocc",
				"energy": -0.03592,
				"method": "rhf"
			},
			{
				"type": "unocc",
				"energy": 0.08562,
				"method": "rhf"
			},
			{
				"type": "unocc",
				"energy": 0.09287,
				"method": "rhf"
			},
			{
				"type": "unocc",
				"energy": 0.11089,
				"method": "rhf"
			}
		],
		"cosmo_sigma_profile": { 
			"-0.025": 0.0,
			"-0.024": 0.0,
			"-0.023": 0.0,
			"-0.022": 0.0,
			"-0.021": 0.0,
			"-0.02": 0.0,
			"-0.019": 0.0,
			"-0.018": 0.0,
			"-0.017": 0.0,
			"-0.016": 0.0,
			"-0.015": 0.0,
			"-0.014": 0.0,
			"-0.013": 0.0,
			"-0.012": 0.0,
			"-0.011": 0.0,
			"-0.01": 1.28028826776,
			"-0.009": 2.61510505343,
			"-0.008": 2.71336174791,
			"-0.007": 5.33036042675,
			"-0.006": 14.4996323713,
			"-0.005": 18.5672547157,
			"-0.004": 18.9704887404,
			"-0.003": 22.6208344031,
			"-0.002": 16.4102216975,
			"-0.001": 11.1056303005,
			"0.0": 11.2793028491,
			"0.001": 11.2291159177,
			"0.002": 13.7058699552,
			"0.003": 11.6280177336,
			"0.004": 6.75072843297,
			"0.005": 4.06182130702,
			"0.006": 5.2353422345,
			"0.007": 4.27697735154,
			"0.008": 2.5583611339,
			"0.009": 3.05620057948,
			"0.01": 4.24300409174,
			"0.011": 5.21999450406,
			"0.012": 7.36938391967,
			"0.013": 2.98705160934,
			"0.014": 0.484182687859,
			"0.015": 0.0,
			"0.016": 0.0,
			"0.017": 0.0,
			"0.018": 0.0,
			"0.019": 0.0,
			"0.02": 0.0,
			"0.021": 0.0,
			"0.022": 0.0,
			"0.023": 0.0,
			"0.024": 0.0,
			"0.025": 0.0
		}
	}
}
