{
	 "smiles": "COC1=C(OCC(F)(F)F)C(Cl)=CC(CC#N)=C1", 
	 "Tm": 372.15, 
	 "num_atms": 27, 
	 "gaussian": { 
		 "optdone": 1, 
		 "sigma_profile": "yes", 
		 "theory": "DFT", 
		 "functional": "B3LYP", 
		 "basiset": "6-31G**", 
		 "properties": { 
			 "R2extent": 6132.0005, 
			 "electric_dipole_moment_norm": 1.9025996899, 
			 "electric_quadrupole_moment_norm": 27.194415861, 
			 "total_energy": -1389.46240363, 
			 "HOMO_LUMO_gap": 0.21331, 
			 "cosmo_polarized_energy": -14.71, 
			 "cosmo_cavitation_energy": 35.92, 
			 "cosmo_dispersion_energy": -24.01, 
			 "cosmo_repulsion_energy": 1.81, 
			 "cosmo_total_nonelectrostatic_energy": 13.72, 
			 "SMD_solvation_energy": 9.19 
		},
		"coords": [
			{
				"x": -2.8026683124,
				"y": 1.0434562874,
				"z": 1.5857290828,
				"element": "C" 
			},
			{
				"x": -1.8078108917,
				"y": 0.261134258,
				"z": 0.9323802433,
				"element": "O" 
			},
			{
				"x": -0.6646655709,
				"y": 0.8779545821,
				"z": 0.5255457979,
				"element": "C" 
			},
			{
				"x": 0.2775409263,
				"y": 0.0385877819,
				"z": -0.1095302398,
				"element": "C" 
			},
			{
				"x": 0.0653276004,
				"y": -1.3044519896,
				"z": -0.2373660551,
				"element": "O" 
			},
			{
				"x": -1.0722631316,
				"y": -1.7311870287,
				"z": -0.9759345275,
				"element": "C" 
			},
			{
				"x": -0.6660772307,
				"y": -2.9331648173,
				"z": -1.8112699827,
				"element": "C" 
			},
			{
				"x": -1.7540018561,
				"y": -3.3902707656,
				"z": -2.4743328226,
				"element": "F" 
			},
			{
				"x": 0.2723007168,
				"y": -2.6215706814,
				"z": -2.7217717387,
				"element": "F" 
			},
			{
				"x": -0.1924662256,
				"y": -3.9342825809,
				"z": -1.0503428213,
				"element": "F" 
			},
			{
				"x": 1.4845669128,
				"y": 0.5965766171,
				"z": -0.5402836858,
				"element": "C" 
			},
			{
				"x": 2.6642991993,
				"y": -0.4220323247,
				"z": -1.3279025096,
				"element": "Cl" 
			},
			{
				"x": 1.7644252139,
				"y": 1.9522216787,
				"z": -0.3577053136,
				"element": "C" 
			},
			{
				"x": 0.8225609182,
				"y": 2.773232407,
				"z": 0.2597893428,
				"element": "C" 
			},
			{
				"x": 1.1708681779,
				"y": 4.2431610914,
				"z": 0.476541963,
				"element": "C" 
			},
			{
				"x": 0.0192960119,
				"y": 5.0982852317,
				"z": 0.7733463519,
				"element": "C" 
			},
			{
				"x": -0.9003010662,
				"y": 5.761756966,
				"z": 1.020194663,
				"element": "N" 
			},
			{
				"x": -0.3924462724,
				"y": 2.2372218755,
				"z": 0.6986361726,
				"element": "C" 
			},
			{
				"x": -3.1807063647,
				"y": 1.839657143,
				"z": 0.9335070946,
				"element": "H" 
			},
			{
				"x": -2.4175485716,
				"y": 1.4851352135,
				"z": 2.512237785,
				"element": "H" 
			},
			{
				"x": -3.6132260235,
				"y": 0.3541421815,
				"z": 1.8240338581,
				"element": "H" 
			},
			{
				"x": -1.8836694542,
				"y": -2.026291555,
				"z": -0.3055184025,
				"element": "H" 
			},
			{
				"x": -1.4341740859,
				"y": -0.9531382194,
				"z": -1.6544574153,
				"element": "H" 
			},
			{
				"x": 2.7107793141,
				"y": 2.3494686378,
				"z": -0.7084953629,
				"element": "H" 
			},
			{
				"x": 1.6750344253,
				"y": 4.6440772482,
				"z": -0.410390506,
				"element": "H" 
			},
			{
				"x": 1.8832368672,
				"y": 4.3435450734,
				"z": 1.3064698673,
				"element": "H" 
			},
			{
				"x": -1.1191112268,
				"y": 2.8835756883,
				"z": 1.174789161,
				"element": "H" 
			}
		],
		 "valence_orbital": [ 
			{
				"type": "occ",
				"energy": -0.32079,
				"method": "rhf"
			},
			{
				"type": "occ",
				"energy": -0.31862,
				"method": "rhf"
			},
			{
				"type": "occ",
				"energy": -0.30886,
				"method": "rhf"
			},
			{
				"type": "occ",
				"energy": -0.2528,
				"method": "rhf"
			},
			{
				"type": "occ",
				"energy": -0.23857,
				"method": "rhf"
			},
			{
				"type": "unocc",
				"energy": -0.02526,
				"method": "rhf"
			},
			{
				"type": "unocc",
				"energy": -0.02065,
				"method": "rhf"
			},
			{
				"type": "unocc",
				"energy": 0.00937,
				"method": "rhf"
			},
			{
				"type": "unocc",
				"energy": 0.03057,
				"method": "rhf"
			},
			{
				"type": "unocc",
				"energy": 0.03336,
				"method": "rhf"
			}
		],
		"cosmo_sigma_profile": { 
			"-0.025": 0.0,
			"-0.024": 0.0,
			"-0.023": 0.0,
			"-0.022": 0.0,
			"-0.021": 0.0,
			"-0.02": 0.0,
			"-0.019": 0.0,
			"-0.018": 0.0,
			"-0.017": 0.0,
			"-0.016": 0.0,
			"-0.015": 0.0,
			"-0.014": 0.0,
			"-0.013": 0.0,
			"-0.012": 0.0,
			"-0.011": 0.0,
			"-0.01": 0.558688524272,
			"-0.009": 8.41141557596,
			"-0.008": 10.1971514738,
			"-0.007": 12.6550809854,
			"-0.006": 18.3768646871,
			"-0.005": 15.8503924021,
			"-0.004": 17.0060498932,
			"-0.003": 13.786988964,
			"-0.002": 12.0678372644,
			"-0.001": 13.027495095,
			"0.0": 15.1528793504,
			"0.001": 22.1648165877,
			"0.002": 33.9806129627,
			"0.003": 39.6073578079,
			"0.004": 16.3680061737,
			"0.005": 10.5472408174,
			"0.006": 5.29999624793,
			"0.007": 6.25650832835,
			"0.008": 4.74213303834,
			"0.009": 4.16924369804,
			"0.01": 2.95615475587,
			"0.011": 2.80395850602,
			"0.012": 2.38335819064,
			"0.013": 1.46321110777,
			"0.014": 0.0623711718895,
			"0.015": 0.0,
			"0.016": 0.0,
			"0.017": 0.0,
			"0.018": 0.0,
			"0.019": 0.0,
			"0.02": 0.0,
			"0.021": 0.0,
			"0.022": 0.0,
			"0.023": 0.0,
			"0.024": 0.0,
			"0.025": 0.0
		}
	}
}
