{
	 "smiles": "OC(=O)CSCC1=NOC(=C1)C1=CC=CS1", 
	 "Tm": 387.15, 
	 "num_atms": 25, 
	 "gaussian": { 
		 "optdone": 1, 
		 "sigma_profile": "yes", 
		 "theory": "DFT", 
		 "functional": "B3LYP", 
		 "basiset": "6-31G**", 
		 "properties": { 
			 "R2extent": 7152.914, 
			 "electric_dipole_moment_norm": 3.37792640832, 
			 "electric_quadrupole_moment_norm": 24.5606032432, 
			 "total_energy": -1463.23301384, 
			 "HOMO_LUMO_gap": 0.16803, 
			 "cosmo_polarized_energy": -15.64, 
			 "cosmo_cavitation_energy": 33.72, 
			 "cosmo_dispersion_energy": -24.78, 
			 "cosmo_repulsion_energy": 1.84, 
			 "cosmo_total_nonelectrostatic_energy": 10.79, 
			 "SMD_solvation_energy": 6.0 
		},
		"coords": [
			{
				"x": -2.9974369094,
				"y": 1.7055404958,
				"z": 2.4948842343,
				"element": "O" 
			},
			{
				"x": -2.4079573997,
				"y": 2.3185502563,
				"z": 1.4498470463,
				"element": "C" 
			},
			{
				"x": -1.2313330665,
				"y": 2.1814999554,
				"z": 1.177532429,
				"element": "O" 
			},
			{
				"x": -3.3799410789,
				"y": 3.1554308885,
				"z": 0.6520183459,
				"element": "C" 
			},
			{
				"x": -3.9760097169,
				"y": 2.2590301803,
				"z": -0.8399964818,
				"element": "S" 
			},
			{
				"x": -2.4442812218,
				"y": 2.2331468794,
				"z": -1.8917804516,
				"element": "C" 
			},
			{
				"x": -1.9261844729,
				"y": 0.8530799038,
				"z": -2.1473202756,
				"element": "C" 
			},
			{
				"x": -2.1931074165,
				"y": 0.2727521077,
				"z": -3.2994502526,
				"element": "N" 
			},
			{
				"x": -1.5857695265,
				"y": -0.9826119796,
				"z": -3.2361252435,
				"element": "O" 
			},
			{
				"x": -0.9636786017,
				"y": -1.1197584751,
				"z": -2.0375117106,
				"element": "C" 
			},
			{
				"x": -1.1451501422,
				"y": 0.0186944871,
				"z": -1.2995230968,
				"element": "C" 
			},
			{
				"x": -0.273448671,
				"y": -2.3682699013,
				"z": -1.8056183596,
				"element": "C" 
			},
			{
				"x": -0.1743447112,
				"y": -3.4466678365,
				"z": -2.657061043,
				"element": "C" 
			},
			{
				"x": 0.5815556771,
				"y": -4.5204311983,
				"z": -2.1092314709,
				"element": "C" 
			},
			{
				"x": 1.0498838319,
				"y": -4.25291688,
				"z": -0.8508291251,
				"element": "C" 
			},
			{
				"x": 0.5753600178,
				"y": -2.6770671754,
				"z": -0.3078857947,
				"element": "S" 
			},
			{
				"x": -2.3148439501,
				"y": 1.1570694966,
				"z": 2.9180069924,
				"element": "H" 
			},
			{
				"x": -4.2752832815,
				"y": 3.3752905536,
				"z": 1.2358051725,
				"element": "H" 
			},
			{
				"x": -2.8955382996,
				"y": 4.0889482304,
				"z": 0.3584147209,
				"element": "H" 
			},
			{
				"x": -2.7025420926,
				"y": 2.7030347251,
				"z": -2.8423855909,
				"element": "H" 
			},
			{
				"x": -1.6885706249,
				"y": 2.8349735985,
				"z": -1.3841145892,
				"element": "H" 
			},
			{
				"x": -0.7824599461,
				"y": 0.2516088258,
				"z": -0.3104525815,
				"element": "H" 
			},
			{
				"x": -0.6324981288,
				"y": -3.4555990154,
				"z": -3.6384243736,
				"element": "H" 
			},
			{
				"x": 0.7692719687,
				"y": -5.452610312,
				"z": -2.6292475549,
				"element": "H" 
			},
			{
				"x": 1.6467077634,
				"y": -4.8843178106,
				"z": -0.2074509455,
				"element": "H" 
			}
		],
		 "valence_orbital": [ 
			{
				"type": "occ",
				"energy": -0.29111,
				"method": "rhf"
			},
			{
				"type": "occ",
				"energy": -0.28433,
				"method": "rhf"
			},
			{
				"type": "occ",
				"energy": -0.2616,
				"method": "rhf"
			},
			{
				"type": "occ",
				"energy": -0.23827,
				"method": "rhf"
			},
			{
				"type": "occ",
				"energy": -0.22045,
				"method": "rhf"
			},
			{
				"type": "unocc",
				"energy": -0.05242,
				"method": "rhf"
			},
			{
				"type": "unocc",
				"energy": -0.025,
				"method": "rhf"
			},
			{
				"type": "unocc",
				"energy": 0.00241,
				"method": "rhf"
			},
			{
				"type": "unocc",
				"energy": 0.01826,
				"method": "rhf"
			},
			{
				"type": "unocc",
				"energy": 0.03548,
				"method": "rhf"
			}
		],
		"cosmo_sigma_profile": { 
			"-0.025": 0.0,
			"-0.024": 0.0,
			"-0.023": 0.0,
			"-0.022": 0.0,
			"-0.021": 0.0,
			"-0.02": 0.0,
			"-0.019": 0.0942498804296,
			"-0.018": 1.18887110764,
			"-0.017": 0.738510565351,
			"-0.016": 1.09383420488,
			"-0.015": 0.934018396888,
			"-0.014": 0.564411154459,
			"-0.013": 0.385346542857,
			"-0.012": 0.762351337802,
			"-0.011": 0.914605651503,
			"-0.01": 0.694897562524,
			"-0.009": 3.12176362766,
			"-0.008": 8.16416939994,
			"-0.007": 12.8356434248,
			"-0.006": 14.1113570487,
			"-0.005": 16.312927849,
			"-0.004": 15.4569588585,
			"-0.003": 13.1916916096,
			"-0.002": 14.1593826843,
			"-0.001": 13.75603688,
			"0.0": 19.2097438864,
			"0.001": 23.8297792106,
			"0.002": 23.6950721328,
			"0.003": 23.9509845242,
			"0.004": 16.1805700818,
			"0.005": 8.61387415399,
			"0.006": 7.25191465931,
			"0.007": 8.28889110812,
			"0.008": 7.91379091128,
			"0.009": 5.72424050179,
			"0.01": 3.18662325696,
			"0.011": 3.67027330989,
			"0.012": 2.31601735347,
			"0.013": 1.09619406399,
			"0.014": 0.783552655325,
			"0.015": 0.0614480442097,
			"0.016": 0.0,
			"0.017": 0.0,
			"0.018": 0.0,
			"0.019": 0.0,
			"0.02": 0.0,
			"0.021": 0.0,
			"0.022": 0.0,
			"0.023": 0.0,
			"0.024": 0.0,
			"0.025": 0.0
		}
	}
}
