{
	 "smiles": "COC1=C(NS(=O)(=O)C2=CC(=C(NN)C=C2)[N+]([O-])=O)C=CC=C1", 
	 "Tm": 455.15, 
	 "num_atms": 37, 
	 "gaussian": { 
		 "optdone": 1, 
		 "sigma_profile": "yes", 
		 "theory": "DFT", 
		 "functional": "B3LYP", 
		 "basiset": "6-31G**", 
		 "properties": { 
			 "R2extent": 7806.5895, 
			 "electric_dipole_moment_norm": 7.78215967261, 
			 "electric_quadrupole_moment_norm": 27.4220146656, 
			 "total_energy": -1496.92094956, 
			 "HOMO_LUMO_gap": 0.12492, 
			 "cosmo_polarized_energy": -25.49, 
			 "cosmo_cavitation_energy": 43.19, 
			 "cosmo_dispersion_energy": -29.69, 
			 "cosmo_repulsion_energy": 2.26, 
			 "cosmo_total_nonelectrostatic_energy": 15.75, 
			 "SMD_solvation_energy": 9.49 
		},
		"coords": [
			{
				"x": -3.460002655,
				"y": -3.1764833444,
				"z": 0.2956329015,
				"element": "C" 
			},
			{
				"x": -2.3845399875,
				"y": -2.7057730981,
				"z": -0.5038637745,
				"element": "O" 
			},
			{
				"x": -2.6109990773,
				"y": -1.639703648,
				"z": -1.3359507063,
				"element": "C" 
			},
			{
				"x": -1.5203172664,
				"y": -1.2858516546,
				"z": -2.1618460716,
				"element": "C" 
			},
			{
				"x": -0.3403903779,
				"y": -2.0727825465,
				"z": -2.0815707321,
				"element": "N" 
			},
			{
				"x": 1.1870760304,
				"y": -1.3993210961,
				"z": -1.7852337312,
				"element": "S" 
			},
			{
				"x": 2.054129847,
				"y": -2.5619414775,
				"z": -1.5871830867,
				"element": "O" 
			},
			{
				"x": 1.4287217104,
				"y": -0.4000192642,
				"z": -2.8241382617,
				"element": "O" 
			},
			{
				"x": 1.0912104101,
				"y": -0.5312548014,
				"z": -0.223710564,
				"element": "C" 
			},
			{
				"x": 0.6828360932,
				"y": 0.7918586936,
				"z": -0.1837749598,
				"element": "C" 
			},
			{
				"x": 0.5872082664,
				"y": 1.4586719522,
				"z": 1.0407859672,
				"element": "C" 
			},
			{
				"x": 0.9132260727,
				"y": 0.8075054319,
				"z": 2.2727940366,
				"element": "C" 
			},
			{
				"x": 0.8348067351,
				"y": 1.422826785,
				"z": 3.481323767,
				"element": "N" 
			},
			{
				"x": 1.1746170808,
				"y": 0.8352977389,
				"z": 4.7036993228,
				"element": "N" 
			},
			{
				"x": 1.3378138595,
				"y": -0.5454173723,
				"z": 2.1785797231,
				"element": "C" 
			},
			{
				"x": 1.4223447551,
				"y": -1.1997831964,
				"z": 0.9665770339,
				"element": "C" 
			},
			{
				"x": 0.1540692696,
				"y": 2.8460771496,
				"z": 0.9886151504,
				"element": "N" 
			},
			{
				"x": -0.0955992208,
				"y": 3.3418341259,
				"z": -0.1074730386,
				"element": "O" 
			},
			{
				"x": 0.0498058674,
				"y": 3.4783691826,
				"z": 2.0560838479,
				"element": "O" 
			},
			{
				"x": -1.6501933271,
				"y": -0.2229765765,
				"z": -3.0572607772,
				"element": "C" 
			},
			{
				"x": -2.8419589657,
				"y": 0.5036099981,
				"z": -3.1151668012,
				"element": "C" 
			},
			{
				"x": -3.9158647963,
				"y": 0.1490531248,
				"z": -2.3030360694,
				"element": "C" 
			},
			{
				"x": -3.8082605742,
				"y": -0.9288151625,
				"z": -1.4179203873,
				"element": "C" 
			},
			{
				"x": -3.0735247094,
				"y": -4.0345462783,
				"z": 0.8474154473,
				"element": "H" 
			},
			{
				"x": -3.7968460365,
				"y": -2.4111583716,
				"z": 1.0058696461,
				"element": "H" 
			},
			{
				"x": -4.309049311,
				"y": -3.4940885476,
				"z": -0.321838939,
				"element": "H" 
			},
			{
				"x": -0.4590576308,
				"y": -2.9093750712,
				"z": -1.5166870132,
				"element": "H" 
			},
			{
				"x": 0.4484364316,
				"y": 1.3368506222,
				"z": -1.0887368668,
				"element": "H" 
			},
			{
				"x": 0.5430515625,
				"y": 2.3909197037,
				"z": 3.4997628953,
				"element": "H" 
			},
			{
				"x": 2.1484331463,
				"y": 0.5365337622,
				"z": 4.697887287,
				"element": "H" 
			},
			{
				"x": 0.5855311039,
				"y": 0.024696984,
				"z": 4.8847957514,
				"element": "H" 
			},
			{
				"x": 1.6086287149,
				"y": -1.0680030758,
				"z": 3.0875051529,
				"element": "H" 
			},
			{
				"x": 1.7667728817,
				"y": -2.2276236235,
				"z": 0.9221460272,
				"element": "H" 
			},
			{
				"x": -0.8120128345,
				"y": 0.0232614574,
				"z": -3.6981223326,
				"element": "H" 
			},
			{
				"x": -2.9287957522,
				"y": 1.3349609054,
				"z": -3.8071738996,
				"element": "H" 
			},
			{
				"x": -4.8483522966,
				"y": 0.7027292573,
				"z": -2.3540777772,
				"element": "H" 
			},
			{
				"x": -4.6515550193,
				"y": -1.1981386681,
				"z": -0.7930081676,
				"element": "H" 
			}
		],
		 "valence_orbital": [ 
			{
				"type": "occ",
				"energy": -0.29425,
				"method": "rhf"
			},
			{
				"type": "occ",
				"energy": -0.28931,
				"method": "rhf"
			},
			{
				"type": "occ",
				"energy": -0.24878,
				"method": "rhf"
			},
			{
				"type": "occ",
				"energy": -0.2405,
				"method": "rhf"
			},
			{
				"type": "occ",
				"energy": -0.22086,
				"method": "rhf"
			},
			{
				"type": "unocc",
				"energy": -0.09594,
				"method": "rhf"
			},
			{
				"type": "unocc",
				"energy": -0.03952,
				"method": "rhf"
			},
			{
				"type": "unocc",
				"energy": -0.01445,
				"method": "rhf"
			},
			{
				"type": "unocc",
				"energy": -0.0106,
				"method": "rhf"
			},
			{
				"type": "unocc",
				"energy": 0.00251,
				"method": "rhf"
			}
		],
		"cosmo_sigma_profile": { 
			"-0.025": 0.0,
			"-0.024": 0.0,
			"-0.023": 0.0,
			"-0.022": 0.0,
			"-0.021": 0.0,
			"-0.02": 0.0,
			"-0.019": 0.0,
			"-0.018": 0.0,
			"-0.017": 0.0,
			"-0.016": 0.0,
			"-0.015": 0.0,
			"-0.014": 0.0,
			"-0.013": 0.885613691688,
			"-0.012": 4.72387575301,
			"-0.011": 5.27859415588,
			"-0.01": 4.60145884801,
			"-0.009": 4.12877297134,
			"-0.008": 6.21309701599,
			"-0.007": 8.24476697583,
			"-0.006": 18.7233170202,
			"-0.005": 23.9942744004,
			"-0.004": 24.6534161714,
			"-0.003": 23.7588561715,
			"-0.002": 21.5942542541,
			"-0.001": 25.5877887182,
			"0.0": 25.1196780594,
			"0.001": 19.5742484482,
			"0.002": 19.5039925413,
			"0.003": 16.2446066946,
			"0.004": 15.2501296128,
			"0.005": 15.1378654626,
			"0.006": 9.53774399311,
			"0.007": 10.2741454351,
			"0.008": 9.47842334876,
			"0.009": 9.09753647366,
			"0.01": 12.1318369055,
			"0.011": 8.13162024572,
			"0.012": 1.42559247005,
			"0.013": 0.545229627093,
			"0.014": 0.5202953312,
			"0.015": 0.557620750134,
			"0.016": 0.135535926121,
			"0.017": 0.0,
			"0.018": 0.0,
			"0.019": 0.0,
			"0.02": 0.0,
			"0.021": 0.0,
			"0.022": 0.0,
			"0.023": 0.0,
			"0.024": 0.0,
			"0.025": 0.0
		}
	}
}
