{
	 "smiles": "CC(C)(C)NC(=O)C1CCC2CC34CCC(CC=C3C=C(O)C=O)C4CCC12C", 
	 "Tm": 530.15, 
	 "num_atms": 66, 
	 "gaussian": { 
		 "optdone": 1, 
		 "sigma_profile": "yes", 
		 "theory": "DFT", 
		 "functional": "B3LYP", 
		 "basiset": "6-31G**", 
		 "properties": { 
			 "R2extent": 13616.3301, 
			 "electric_dipole_moment_norm": 5.84256757428, 
			 "electric_quadrupole_moment_norm": 19.461826933, 
			 "total_energy": -1255.38029235, 
			 "HOMO_LUMO_gap": 0.15369, 
			 "cosmo_polarized_energy": -17.94, 
			 "cosmo_cavitation_energy": 58.8, 
			 "cosmo_dispersion_energy": -38.25, 
			 "cosmo_repulsion_energy": 2.85, 
			 "cosmo_total_nonelectrostatic_energy": 23.41, 
			 "SMD_solvation_energy": 9.81 
		},
		"coords": [
			{
				"x": 0.3457875869,
				"y": 5.370994217,
				"z": 2.8815022071,
				"element": "C" 
			},
			{
				"x": 0.278366135,
				"y": 3.9638793631,
				"z": 3.5051259863,
				"element": "C" 
			},
			{
				"x": 1.6942276869,
				"y": 3.3858771959,
				"z": 3.6855019652,
				"element": "C" 
			},
			{
				"x": -0.4395796446,
				"y": 4.0235895443,
				"z": 4.8624371717,
				"element": "C" 
			},
			{
				"x": -0.5295837981,
				"y": 3.0685499943,
				"z": 2.6437102013,
				"element": "N" 
			},
			{
				"x": -0.254663993,
				"y": 2.7354361992,
				"z": 1.3491627358,
				"element": "C" 
			},
			{
				"x": 0.7453332965,
				"y": 3.1344413517,
				"z": 0.750532451,
				"element": "O" 
			},
			{
				"x": -1.2769125415,
				"y": 1.8030001538,
				"z": 0.6942592782,
				"element": "C" 
			},
			{
				"x": -1.5240199762,
				"y": 2.1855163538,
				"z": -0.780038125,
				"element": "C" 
			},
			{
				"x": -1.9216326974,
				"y": 0.8711558063,
				"z": -1.4529062919,
				"element": "C" 
			},
			{
				"x": -0.9474218145,
				"y": -0.1379789897,
				"z": -0.8272628278,
				"element": "C" 
			},
			{
				"x": -1.2685343959,
				"y": -1.6065509056,
				"z": -1.1595548129,
				"element": "C" 
			},
			{
				"x": -0.0912492341,
				"y": -2.5918728389,
				"z": -1.0269781264,
				"element": "C" 
			},
			{
				"x": -0.5507057605,
				"y": -4.0804316565,
				"z": -1.0631687032,
				"element": "C" 
			},
			{
				"x": 0.5624394785,
				"y": -4.866118341,
				"z": -0.3076818044,
				"element": "C" 
			},
			{
				"x": 1.5126296913,
				"y": -3.7888050186,
				"z": 0.2834999458,
				"element": "C" 
			},
			{
				"x": 2.6968414882,
				"y": -3.509153137,
				"z": -0.6571746358,
				"element": "C" 
			},
			{
				"x": 2.2355078864,
				"y": -2.8705024587,
				"z": -1.9397507761,
				"element": "C" 
			},
			{
				"x": 0.9730097002,
				"y": -2.4228886031,
				"z": -2.1395574629,
				"element": "C" 
			},
			{
				"x": 0.5635108734,
				"y": -1.8850017916,
				"z": -3.4420643091,
				"element": "C" 
			},
			{
				"x": 1.2861481483,
				"y": -1.0627967432,
				"z": -4.2366509515,
				"element": "C" 
			},
			{
				"x": 2.5217524779,
				"y": -0.5502638115,
				"z": -3.9710527842,
				"element": "O" 
			},
			{
				"x": 0.7498572711,
				"y": -0.5793620855,
				"z": -5.5326191064,
				"element": "C" 
			},
			{
				"x": -0.3160398328,
				"y": -0.9236149449,
				"z": -6.0082496474,
				"element": "O" 
			},
			{
				"x": 0.607633552,
				"y": -2.5369775835,
				"z": 0.3675485074,
				"element": "C" 
			},
			{
				"x": 1.3251181826,
				"y": -1.2291051915,
				"z": 0.7399700017,
				"element": "C" 
			},
			{
				"x": 0.488281061,
				"y": -0.0737668101,
				"z": 1.3400731257,
				"element": "C" 
			},
			{
				"x": -0.8964419007,
				"y": 0.2429680172,
				"z": 0.6972289247,
				"element": "C" 
			},
			{
				"x": -1.9999603047,
				"y": -0.4650399632,
				"z": 1.5168772901,
				"element": "C" 
			},
			{
				"x": 0.8133845386,
				"y": 5.3258905814,
				"z": 1.896565657,
				"element": "H" 
			},
			{
				"x": 0.9318201792,
				"y": 6.0402173042,
				"z": 3.5203632884,
				"element": "H" 
			},
			{
				"x": -0.658765413,
				"y": 5.7934481878,
				"z": 2.773504646,
				"element": "H" 
			},
			{
				"x": 2.2829845007,
				"y": 4.0326254343,
				"z": 4.3446366855,
				"element": "H" 
			},
			{
				"x": 1.6486707782,
				"y": 2.3883702339,
				"z": 4.1348274433,
				"element": "H" 
			},
			{
				"x": 2.1992525593,
				"y": 3.3124938369,
				"z": 2.7212532277,
				"element": "H" 
			},
			{
				"x": -0.5051367674,
				"y": 3.0297224437,
				"z": 5.3198355423,
				"element": "H" 
			},
			{
				"x": 0.107758703,
				"y": 4.6740184433,
				"z": 5.5501653988,
				"element": "H" 
			},
			{
				"x": -1.4538102311,
				"y": 4.4264400495,
				"z": 4.7573760412,
				"element": "H" 
			},
			{
				"x": -1.3956593921,
				"y": 2.7252840926,
				"z": 3.0317066777,
				"element": "H" 
			},
			{
				"x": -2.2221526581,
				"y": 1.9023619094,
				"z": 1.241630622,
				"element": "H" 
			},
			{
				"x": -0.5850790489,
				"y": 2.5584937587,
				"z": -1.2020113409,
				"element": "H" 
			},
			{
				"x": -2.271426901,
				"y": 2.9793595546,
				"z": -0.8800260014,
				"element": "H" 
			},
			{
				"x": -1.8377756956,
				"y": 0.9028873607,
				"z": -2.5443216995,
				"element": "H" 
			},
			{
				"x": -2.9611036268,
				"y": 0.604769854,
				"z": -1.2155802338,
				"element": "H" 
			},
			{
				"x": 0.0395020036,
				"y": 0.0999339748,
				"z": -1.2470041636,
				"element": "H" 
			},
			{
				"x": -1.6672435063,
				"y": -1.6499790845,
				"z": -2.1786520235,
				"element": "H" 
			},
			{
				"x": -2.0852417036,
				"y": -1.9605511939,
				"z": -0.521739232,
				"element": "H" 
			},
			{
				"x": -1.5119844141,
				"y": -4.1748365013,
				"z": -0.5438328059,
				"element": "H" 
			},
			{
				"x": -0.7037468574,
				"y": -4.4429992263,
				"z": -2.0843684121,
				"element": "H" 
			},
			{
				"x": 1.100294835,
				"y": -5.5540016037,
				"z": -0.9679167631,
				"element": "H" 
			},
			{
				"x": 0.1259409879,
				"y": -5.4743122801,
				"z": 0.4912010538,
				"element": "H" 
			},
			{
				"x": 1.8927610735,
				"y": -4.0823151811,
				"z": 1.2686290206,
				"element": "H" 
			},
			{
				"x": 3.2238620964,
				"y": -4.4462439442,
				"z": -0.8839404488,
				"element": "H" 
			},
			{
				"x": 3.4440542143,
				"y": -2.8674271749,
				"z": -0.1657040211,
				"element": "H" 
			},
			{
				"x": 2.9498074767,
				"y": -2.8428273096,
				"z": -2.7617219336,
				"element": "H" 
			},
			{
				"x": -0.4222677926,
				"y": -2.1245722532,
				"z": -3.8297117253,
				"element": "H" 
			},
			{
				"x": 2.7558507275,
				"y": -0.780448519,
				"z": -3.0580272818,
				"element": "H" 
			},
			{
				"x": 1.417947868,
				"y": 0.1424120531,
				"z": -6.0470327692,
				"element": "H" 
			},
			{
				"x": -0.1620648913,
				"y": -2.7462956379,
				"z": 1.1231689694,
				"element": "H" 
			},
			{
				"x": 2.1074905098,
				"y": -1.4598444723,
				"z": 1.4756930895,
				"element": "H" 
			},
			{
				"x": 1.8594737654,
				"y": -0.8585577698,
				"z": -0.1409659723,
				"element": "H" 
			},
			{
				"x": 1.127546864,
				"y": 0.8105257795,
				"z": 1.2828999725,
				"element": "H" 
			},
			{
				"x": 0.3327297662,
				"y": -0.267633814,
				"z": 2.4093968254,
				"element": "H" 
			},
			{
				"x": -2.9917938674,
				"y": -0.3384032975,
				"z": 1.0683420932,
				"element": "H" 
			},
			{
				"x": -1.8197157162,
				"y": -1.5365404829,
				"z": 1.6334033542,
				"element": "H" 
			},
			{
				"x": -2.0383635865,
				"y": -0.0374424289,
				"z": 2.5258377921,
				"element": "H" 
			}
		],
		 "valence_orbital": [ 
			{
				"type": "occ",
				"energy": -0.27007,
				"method": "rhf"
			},
			{
				"type": "occ",
				"energy": -0.25277,
				"method": "rhf"
			},
			{
				"type": "occ",
				"energy": -0.2493,
				"method": "rhf"
			},
			{
				"type": "occ",
				"energy": -0.2386,
				"method": "rhf"
			},
			{
				"type": "occ",
				"energy": -0.21588,
				"method": "rhf"
			},
			{
				"type": "unocc",
				"energy": -0.06219,
				"method": "rhf"
			},
			{
				"type": "unocc",
				"energy": 0.01469,
				"method": "rhf"
			},
			{
				"type": "unocc",
				"energy": 0.0249,
				"method": "rhf"
			},
			{
				"type": "unocc",
				"energy": 0.05811,
				"method": "rhf"
			},
			{
				"type": "unocc",
				"energy": 0.06294,
				"method": "rhf"
			}
		],
		"cosmo_sigma_profile": { 
			"-0.025": 0.0,
			"-0.024": 0.0,
			"-0.023": 0.0,
			"-0.022": 0.0,
			"-0.021": 0.0,
			"-0.02": 0.0,
			"-0.019": 0.0,
			"-0.018": 0.0,
			"-0.017": 0.0,
			"-0.016": 0.0,
			"-0.015": 0.0,
			"-0.014": 0.115421413933,
			"-0.013": 0.69016880023,
			"-0.012": 1.21171628101,
			"-0.011": 1.9996170063,
			"-0.01": 1.81294125135,
			"-0.009": 2.6730584712,
			"-0.008": 3.2035274465,
			"-0.007": 3.35801417332,
			"-0.006": 6.48901396204,
			"-0.005": 9.32966718839,
			"-0.004": 17.1888803464,
			"-0.003": 47.3080152412,
			"-0.002": 67.5962305454,
			"-0.001": 69.6017521344,
			"0.0": 63.8443358216,
			"0.001": 58.2149332754,
			"0.002": 30.3272017494,
			"0.003": 12.769689619,
			"0.004": 7.38088390939,
			"0.005": 5.63342194265,
			"0.006": 4.91093971758,
			"0.007": 4.49957812158,
			"0.008": 5.01724026511,
			"0.009": 4.99543752469,
			"0.01": 5.69293967474,
			"0.011": 7.19305437232,
			"0.012": 4.40997217555,
			"0.013": 2.12778857191,
			"0.014": 2.38859605607,
			"0.015": 1.82182985986,
			"0.016": 0.0140189515972,
			"0.017": 0.0,
			"0.018": 0.0,
			"0.019": 0.0,
			"0.02": 0.0,
			"0.021": 0.0,
			"0.022": 0.0,
			"0.023": 0.0,
			"0.024": 0.0,
			"0.025": 0.0
		}
	}
}
