{
	 "smiles": "CCCCCCCCCCCCCCCCCC(=O)OC[C@@H](O)[C@H]1OC[C@H](O)[C@H]1O", 
	 "Tm": 329.15, 
	 "num_atms": 76, 
	 "gaussian": { 
		 "optdone": 1, 
		 "sigma_profile": "yes", 
		 "theory": "DFT", 
		 "functional": "B3LYP", 
		 "basiset": "6-31G**", 
		 "properties": { 
			 "R2extent": 15044.4116, 
			 "electric_dipole_moment_norm": 3.91666246822, 
			 "electric_quadrupole_moment_norm": 19.2144227486, 
			 "total_energy": -1393.63447986, 
			 "HOMO_LUMO_gap": 0.27706, 
			 "cosmo_polarized_energy": -18.84, 
			 "cosmo_cavitation_energy": 71.08, 
			 "cosmo_dispersion_energy": -40.53, 
			 "cosmo_repulsion_energy": 3.08, 
			 "cosmo_total_nonelectrostatic_energy": 33.63, 
			 "SMD_solvation_energy": 9.77 
		},
		"coords": [
			{
				"x": -2.5690714114,
				"y": -3.8441941586,
				"z": -2.6952478057,
				"element": "C" 
			},
			{
				"x": -1.6252283063,
				"y": -4.1538670726,
				"z": -3.8646620186,
				"element": "C" 
			},
			{
				"x": -0.2773982018,
				"y": -3.414674568,
				"z": -3.805638129,
				"element": "C" 
			},
			{
				"x": -0.4006326372,
				"y": -1.889066105,
				"z": -3.9379596597,
				"element": "C" 
			},
			{
				"x": 0.9126633828,
				"y": -1.1056821151,
				"z": -4.121593561,
				"element": "C" 
			},
			{
				"x": 1.8801094968,
				"y": -1.0558070986,
				"z": -2.9189689002,
				"element": "C" 
			},
			{
				"x": 2.8357942806,
				"y": -2.2554351401,
				"z": -2.788210412,
				"element": "C" 
			},
			{
				"x": 4.0230349719,
				"y": -2.0749633958,
				"z": -1.8214119718,
				"element": "C" 
			},
			{
				"x": 3.7419430332,
				"y": -2.2013765538,
				"z": -0.3112969663,
				"element": "C" 
			},
			{
				"x": 3.0653896133,
				"y": -1.0030305885,
				"z": 0.3744008055,
				"element": "C" 
			},
			{
				"x": 3.0494374684,
				"y": -1.147486591,
				"z": 1.9038562516,
				"element": "C" 
			},
			{
				"x": 2.5273888807,
				"y": 0.0582196751,
				"z": 2.7070819724,
				"element": "C" 
			},
			{
				"x": 1.0131039407,
				"y": 0.3483972378,
				"z": 2.6004071104,
				"element": "C" 
			},
			{
				"x": 0.5487208204,
				"y": 1.2865931406,
				"z": 1.4697294228,
				"element": "C" 
			},
			{
				"x": 0.999184413,
				"y": 2.7452526257,
				"z": 1.6297942594,
				"element": "C" 
			},
			{
				"x": 0.4474112548,
				"y": 3.7144559246,
				"z": 0.56719176,
				"element": "C" 
			},
			{
				"x": -1.0784672716,
				"y": 3.9669546311,
				"z": 0.6340390687,
				"element": "C" 
			},
			{
				"x": -1.9702221658,
				"y": 3.2977863006,
				"z": -0.3961708299,
				"element": "C" 
			},
			{
				"x": -3.057600181,
				"y": 3.7203654533,
				"z": -0.7268992493,
				"element": "O" 
			},
			{
				"x": -1.4331602813,
				"y": 2.1579847641,
				"z": -0.8948001479,
				"element": "O" 
			},
			{
				"x": -2.2412622768,
				"y": 1.4135258544,
				"z": -1.8224365385,
				"element": "C" 
			},
			{
				"x": -3.3235332975,
				"y": 0.585728185,
				"z": -1.1230731057,
				"element": "C" 
			},
			{
				"x": -3.7844267812,
				"y": -0.3275358551,
				"z": -2.1118292779,
				"element": "O" 
			},
			{
				"x": -2.8081991998,
				"y": -0.1503427083,
				"z": 0.1294024809,
				"element": "C" 
			},
			{
				"x": -2.9942702492,
				"y": 0.709401611,
				"z": 1.273656573,
				"element": "O" 
			},
			{
				"x": -3.1054837413,
				"y": -0.0962779359,
				"z": 2.4563864471,
				"element": "C" 
			},
			{
				"x": -3.2294558417,
				"y": -1.5633944857,
				"z": 1.9901294799,
				"element": "C" 
			},
			{
				"x": -1.9831440887,
				"y": -2.2508804962,
				"z": 2.0183157865,
				"element": "O" 
			},
			{
				"x": -3.6043010043,
				"y": -1.4039844077,
				"z": 0.5075491154,
				"element": "C" 
			},
			{
				"x": -5.009999595,
				"y": -1.2178506233,
				"z": 0.3245654529,
				"element": "O" 
			},
			{
				"x": -2.8578388135,
				"y": -2.7885235415,
				"z": -2.6698396203,
				"element": "H" 
			},
			{
				"x": -2.0925228408,
				"y": -4.0859794679,
				"z": -1.7367090184,
				"element": "H" 
			},
			{
				"x": -3.4870636062,
				"y": -4.4378902138,
				"z": -2.7653277642,
				"element": "H" 
			},
			{
				"x": -2.1270216358,
				"y": -3.9103693309,
				"z": -4.811441068,
				"element": "H" 
			},
			{
				"x": -1.4329889302,
				"y": -5.2343227126,
				"z": -3.8920773153,
				"element": "H" 
			},
			{
				"x": 0.3687013207,
				"y": -3.7910835246,
				"z": -4.6108248475,
				"element": "H" 
			},
			{
				"x": 0.2251587058,
				"y": -3.6730348923,
				"z": -2.8646803156,
				"element": "H" 
			},
			{
				"x": -0.9361653756,
				"y": -1.4863150545,
				"z": -3.0683874274,
				"element": "H" 
			},
			{
				"x": -1.0429381739,
				"y": -1.6735054946,
				"z": -4.8036704137,
				"element": "H" 
			},
			{
				"x": 0.6384382931,
				"y": -0.0731063882,
				"z": -4.374763537,
				"element": "H" 
			},
			{
				"x": 1.4489183275,
				"y": -1.4927612496,
				"z": -5.0003788348,
				"element": "H" 
			},
			{
				"x": 2.4958332306,
				"y": -0.1510206628,
				"z": -3.0160398346,
				"element": "H" 
			},
			{
				"x": 1.2981187727,
				"y": -0.9219594329,
				"z": -1.9983939826,
				"element": "H" 
			},
			{
				"x": 3.2496344672,
				"y": -2.4578422,
				"z": -3.7859138531,
				"element": "H" 
			},
			{
				"x": 2.2839866374,
				"y": -3.1607900167,
				"z": -2.5074594506,
				"element": "H" 
			},
			{
				"x": 4.5107550513,
				"y": -1.1093152325,
				"z": -2.0204177965,
				"element": "H" 
			},
			{
				"x": 4.7678319352,
				"y": -2.8401797542,
				"z": -2.0763131416,
				"element": "H" 
			},
			{
				"x": 4.7040487454,
				"y": -2.3727948417,
				"z": 0.1919075042,
				"element": "H" 
			},
			{
				"x": 3.1476711095,
				"y": -3.1086988745,
				"z": -0.1296283214,
				"element": "H" 
			},
			{
				"x": 2.0431279103,
				"y": -0.8840902215,
				"z": 0.0017218451,
				"element": "H" 
			},
			{
				"x": 3.601559119,
				"y": -0.0817009854,
				"z": 0.1040710442,
				"element": "H" 
			},
			{
				"x": 2.4621243569,
				"y": -2.0369950046,
				"z": 2.1754349968,
				"element": "H" 
			},
			{
				"x": 4.0760565169,
				"y": -1.3560946804,
				"z": 2.2368727566,
				"element": "H" 
			},
			{
				"x": 2.7649437723,
				"y": -0.1298481643,
				"z": 3.7620429476,
				"element": "H" 
			},
			{
				"x": 3.1027840286,
				"y": 0.9531036215,
				"z": 2.4342791104,
				"element": "H" 
			},
			{
				"x": 0.6754990037,
				"y": 0.784455052,
				"z": 3.5518643987,
				"element": "H" 
			},
			{
				"x": 0.4759258365,
				"y": -0.6057612738,
				"z": 2.5012052198,
				"element": "H" 
			},
			{
				"x": -0.5451403556,
				"y": 1.2574990575,
				"z": 1.4340422935,
				"element": "H" 
			},
			{
				"x": 0.8886517816,
				"y": 0.9137170711,
				"z": 0.4965228745,
				"element": "H" 
			},
			{
				"x": 2.0949368878,
				"y": 2.8012558814,
				"z": 1.6050878756,
				"element": "H" 
			},
			{
				"x": 0.7026741302,
				"y": 3.108098554,
				"z": 2.6257011771,
				"element": "H" 
			},
			{
				"x": 0.9514001865,
				"y": 4.6791580974,
				"z": 0.6967035834,
				"element": "H" 
			},
			{
				"x": 0.7213424507,
				"y": 3.3590772377,
				"z": -0.4318444305,
				"element": "H" 
			},
			{
				"x": -1.4733444779,
				"y": 3.6492259921,
				"z": 1.6089735677,
				"element": "H" 
			},
			{
				"x": -1.3085785233,
				"y": 5.0332419788,
				"z": 0.5580905847,
				"element": "H" 
			},
			{
				"x": -2.699905014,
				"y": 2.0882003248,
				"z": -2.5480721539,
				"element": "H" 
			},
			{
				"x": -1.5472469171,
				"y": 0.7402846819,
				"z": -2.3301178024,
				"element": "H" 
			},
			{
				"x": -4.1257205472,
				"y": 1.2610258197,
				"z": -0.7981660281,
				"element": "H" 
			},
			{
				"x": -4.5595007212,
				"y": -0.7677206036,
				"z": -1.7286874638,
				"element": "H" 
			},
			{
				"x": -1.7484796022,
				"y": -0.4191326281,
				"z": 0.0265144535,
				"element": "H" 
			},
			{
				"x": -3.9857859254,
				"y": 0.2417465928,
				"z": 3.0172455909,
				"element": "H" 
			},
			{
				"x": -2.2202351965,
				"y": 0.0324900536,
				"z": 3.0930209798,
				"element": "H" 
			},
			{
				"x": -4.0075766218,
				"y": -2.1149262037,
				"z": 2.5340412184,
				"element": "H" 
			},
			{
				"x": -1.682651601,
				"y": -2.3039639178,
				"z": 2.9344216355,
				"element": "H" 
			},
			{
				"x": -3.32586812,
				"y": -2.2884914181,
				"z": -0.0651518476,
				"element": "H" 
			},
			{
				"x": -5.2433746032,
				"y": -0.3602775331,
				"z": 0.7099331977,
				"element": "H" 
			}
		],
		 "valence_orbital": [ 
			{
				"type": "occ",
				"energy": -0.2885,
				"method": "rhf"
			},
			{
				"type": "occ",
				"energy": -0.28447,
				"method": "rhf"
			},
			{
				"type": "occ",
				"energy": -0.27558,
				"method": "rhf"
			},
			{
				"type": "occ",
				"energy": -0.26469,
				"method": "rhf"
			},
			{
				"type": "occ",
				"energy": -0.25824,
				"method": "rhf"
			},
			{
				"type": "unocc",
				"energy": 0.01882,
				"method": "rhf"
			},
			{
				"type": "unocc",
				"energy": 0.04443,
				"method": "rhf"
			},
			{
				"type": "unocc",
				"energy": 0.05191,
				"method": "rhf"
			},
			{
				"type": "unocc",
				"energy": 0.0646,
				"method": "rhf"
			},
			{
				"type": "unocc",
				"energy": 0.07203,
				"method": "rhf"
			}
		],
		"cosmo_sigma_profile": { 
			"-0.025": 0.0,
			"-0.024": 0.0,
			"-0.023": 0.0,
			"-0.022": 0.0,
			"-0.021": 0.0,
			"-0.02": 0.0,
			"-0.019": 0.0,
			"-0.018": 0.0,
			"-0.017": 0.0,
			"-0.016": 0.702662952572,
			"-0.015": 1.54723781475,
			"-0.014": 1.7330801777,
			"-0.013": 1.43879989236,
			"-0.012": 1.81625872233,
			"-0.011": 1.61461823502,
			"-0.01": 2.48923691591,
			"-0.009": 4.08942537005,
			"-0.008": 3.59942887132,
			"-0.007": 3.11816165198,
			"-0.006": 5.67127318006,
			"-0.005": 15.7132003066,
			"-0.004": 16.9175609094,
			"-0.003": 28.5178958375,
			"-0.002": 61.2118139813,
			"-0.001": 93.6967083744,
			"0.0": 98.7629482354,
			"0.001": 84.6145035965,
			"0.002": 39.6491262381,
			"0.003": 13.0364179648,
			"0.004": 10.8752432616,
			"0.005": 9.72369008507,
			"0.006": 7.16080652586,
			"0.007": 5.41954523098,
			"0.008": 4.90069229746,
			"0.009": 4.92396428795,
			"0.01": 5.25272581575,
			"0.011": 4.70532224066,
			"0.012": 7.39351890574,
			"0.013": 4.45463769172,
			"0.014": 0.205749464114,
			"0.015": 0.0,
			"0.016": 0.0,
			"0.017": 0.0,
			"0.018": 0.0,
			"0.019": 0.0,
			"0.02": 0.0,
			"0.021": 0.0,
			"0.022": 0.0,
			"0.023": 0.0,
			"0.024": 0.0,
			"0.025": 0.0
		}
	}
}
