{
	 "smiles": "NC1=C(C#N)C(C2=C(NN=C2C(F)(F)F)O1)C1=CC=CC=C1Cl", 
	 "Tm": 454.15, 
	 "num_atms": 31, 
	 "gaussian": { 
		 "optdone": 1, 
		 "sigma_profile": "yes", 
		 "theory": "DFT", 
		 "functional": "B3LYP", 
		 "basiset": "6-31G**", 
		 "properties": { 
			 "R2extent": 6550.8086, 
			 "electric_dipole_moment_norm": 4.07148307377, 
			 "electric_quadrupole_moment_norm": 32.7914196939, 
			 "total_energy": -1592.1968277, 
			 "HOMO_LUMO_gap": 0.19509, 
			 "cosmo_polarized_energy": -21.83, 
			 "cosmo_cavitation_energy": 39.23, 
			 "cosmo_dispersion_energy": -25.97, 
			 "cosmo_repulsion_energy": 1.93, 
			 "cosmo_total_nonelectrostatic_energy": 15.19, 
			 "SMD_solvation_energy": 7.92 
		},
		"coords": [
			{
				"x": 0.2531567347,
				"y": 1.7214155816,
				"z": -4.5474787078,
				"element": "N" 
			},
			{
				"x": -0.0478128083,
				"y": 1.4637665971,
				"z": -3.242410915,
				"element": "C" 
			},
			{
				"x": -0.6094402027,
				"y": 0.3182967073,
				"z": -2.7494505371,
				"element": "C" 
			},
			{
				"x": -0.8575935512,
				"y": -0.7186342757,
				"z": -3.6850068297,
				"element": "C" 
			},
			{
				"x": -1.0511370527,
				"y": -1.5484409202,
				"z": -4.4827981232,
				"element": "N" 
			},
			{
				"x": -0.9738609093,
				"y": 0.0855200915,
				"z": -1.2769376654,
				"element": "C" 
			},
			{
				"x": -0.7169405935,
				"y": 1.3755785861,
				"z": -0.5494613538,
				"element": "C" 
			},
			{
				"x": -0.1500616031,
				"y": 2.4534127653,
				"z": -1.1759204028,
				"element": "C" 
			},
			{
				"x": -0.0478288311,
				"y": 3.470508924,
				"z": -0.2918309901,
				"element": "N" 
			},
			{
				"x": -0.533924304,
				"y": 3.1193776271,
				"z": 0.922819685,
				"element": "N" 
			},
			{
				"x": -0.9382979723,
				"y": 1.8612903833,
				"z": 0.7639981186,
				"element": "C" 
			},
			{
				"x": -1.512867145,
				"y": 1.1007810693,
				"z": 1.9187179837,
				"element": "C" 
			},
			{
				"x": -2.5341314399,
				"y": 0.3129012989,
				"z": 1.4944405082,
				"element": "F" 
			},
			{
				"x": -1.9838498142,
				"y": 1.9106794748,
				"z": 2.8775154417,
				"element": "F" 
			},
			{
				"x": -0.5986225903,
				"y": 0.2822293485,
				"z": 2.4820972319,
				"element": "F" 
			},
			{
				"x": 0.248706835,
				"y": 2.5623046026,
				"z": -2.4679968368,
				"element": "O" 
			},
			{
				"x": -0.2814686317,
				"y": -1.1382906679,
				"z": -0.6642167985,
				"element": "C" 
			},
			{
				"x": -1.0893425409,
				"y": -2.1895254857,
				"z": -0.2069159671,
				"element": "C" 
			},
			{
				"x": -0.5538531696,
				"y": -3.3442200649,
				"z": 0.3588996219,
				"element": "C" 
			},
			{
				"x": 0.8282499733,
				"y": -3.4736912602,
				"z": 0.4821411513,
				"element": "C" 
			},
			{
				"x": 1.6606297561,
				"y": -2.4473885787,
				"z": 0.0393647376,
				"element": "C" 
			},
			{
				"x": 1.1062629535,
				"y": -1.2985238786,
				"z": -0.5247421854,
				"element": "C" 
			},
			{
				"x": 2.241797493,
				"y": -0.0530439362,
				"z": -1.0528681566,
				"element": "Cl" 
			},
			{
				"x": 0.9448432559,
				"y": 2.437727376,
				"z": -4.7133624184,
				"element": "H" 
			},
			{
				"x": 0.2775786959,
				"y": 0.9260960674,
				"z": -5.1701701247,
				"element": "H" 
			},
			{
				"x": -2.0473510891,
				"y": -0.1345063747,
				"z": -1.2257674296,
				"element": "H" 
			},
			{
				"x": 0.3152312778,
				"y": 4.3993729215,
				"z": -0.4415942081,
				"element": "H" 
			},
			{
				"x": -2.1669483365,
				"y": -2.0886321976,
				"z": -0.2989984858,
				"element": "H" 
			},
			{
				"x": -1.2138599697,
				"y": -4.1354803917,
				"z": 0.7001620703,
				"element": "H" 
			},
			{
				"x": 1.2637181435,
				"y": -4.3665487943,
				"z": 0.9201914292,
				"element": "H" 
			},
			{
				"x": 2.7384174363,
				"y": -2.5279325959,
				"z": 0.1271801567,
				"element": "H" 
			}
		],
		 "valence_orbital": [ 
			{
				"type": "occ",
				"energy": -0.28582,
				"method": "rhf"
			},
			{
				"type": "occ",
				"energy": -0.26387,
				"method": "rhf"
			},
			{
				"type": "occ",
				"energy": -0.25394,
				"method": "rhf"
			},
			{
				"type": "occ",
				"energy": -0.24866,
				"method": "rhf"
			},
			{
				"type": "occ",
				"energy": -0.2267,
				"method": "rhf"
			},
			{
				"type": "unocc",
				"energy": -0.03161,
				"method": "rhf"
			},
			{
				"type": "unocc",
				"energy": -0.01743,
				"method": "rhf"
			},
			{
				"type": "unocc",
				"energy": -0.00966,
				"method": "rhf"
			},
			{
				"type": "unocc",
				"energy": -0.00335,
				"method": "rhf"
			},
			{
				"type": "unocc",
				"energy": 0.02146,
				"method": "rhf"
			}
		],
		"cosmo_sigma_profile": { 
			"-0.025": 0.0,
			"-0.024": 0.0,
			"-0.023": 0.0,
			"-0.022": 0.0,
			"-0.021": 0.0,
			"-0.02": 0.0,
			"-0.019": 0.177940116682,
			"-0.018": 1.77023450766,
			"-0.017": 1.40624683225,
			"-0.016": 2.18424295169,
			"-0.015": 2.08554209817,
			"-0.014": 3.19376713745,
			"-0.013": 3.20296889045,
			"-0.012": 2.85223873868,
			"-0.011": 1.97982608124,
			"-0.01": 2.48612390948,
			"-0.009": 3.37540121062,
			"-0.008": 4.08975070209,
			"-0.007": 8.62351756239,
			"-0.006": 11.9939316235,
			"-0.005": 12.4900574408,
			"-0.004": 13.2390303064,
			"-0.003": 13.1661827282,
			"-0.002": 15.1328760711,
			"-0.001": 17.0534044467,
			"0.0": 23.6177384186,
			"0.001": 29.9608850234,
			"0.002": 38.2028942868,
			"0.003": 41.9644556197,
			"0.004": 20.9053186003,
			"0.005": 8.2005053108,
			"0.006": 3.44090525629,
			"0.007": 4.46340394673,
			"0.008": 4.50792021466,
			"0.009": 4.17689014033,
			"0.01": 4.72134634197,
			"0.011": 4.06314586573,
			"0.012": 4.00532165229,
			"0.013": 3.2712802946,
			"0.014": 1.63007927936,
			"0.015": 0.0141307207426,
			"0.016": 0.0,
			"0.017": 0.0,
			"0.018": 0.0,
			"0.019": 0.0,
			"0.02": 0.0,
			"0.021": 0.0,
			"0.022": 0.0,
			"0.023": 0.0,
			"0.024": 0.0,
			"0.025": 0.0
		}
	}
}
