{
	 "smiles": "CC(C)(O)C(Cl)(Cl)Cl", 
	 "Tm": 370.15, 
	 "num_atms": 15, 
	 "gaussian": { 
		 "optdone": 1, 
		 "sigma_profile": "yes", 
		 "theory": "DFT", 
		 "functional": "B3LYP", 
		 "basiset": "6-31G**", 
		 "properties": { 
			 "R2extent": 2686.0898, 
			 "electric_dipole_moment_norm": 2.01927478071, 
			 "electric_quadrupole_moment_norm": 6.37538635849, 
			 "total_energy": -1612.4341741, 
			 "HOMO_LUMO_gap": 0.24919, 
			 "cosmo_polarized_energy": -5.84, 
			 "cosmo_cavitation_energy": 22.02, 
			 "cosmo_dispersion_energy": -16.5, 
			 "cosmo_repulsion_energy": 1.34, 
			 "cosmo_total_nonelectrostatic_energy": 6.86, 
			 "SMD_solvation_energy": 3.11 
		},
		"coords": [
			{
				"x": 1.0352421398,
				"y": -0.4504825104,
				"z": -1.3016383443,
				"element": "C" 
			},
			{
				"x": -0.0067702275,
				"y": -0.7981761343,
				"z": -0.2327318842,
				"element": "C" 
			},
			{
				"x": -0.9599139715,
				"y": 0.3874721309,
				"z": -0.0062441621,
				"element": "C" 
			},
			{
				"x": 0.7265728293,
				"y": -1.0810473336,
				"z": 0.9417691557,
				"element": "O" 
			},
			{
				"x": -0.8089695009,
				"y": -2.1055231641,
				"z": -0.6316946814,
				"element": "C" 
			},
			{
				"x": -1.7842993787,
				"y": -1.8583863736,
				"z": -2.1286766774,
				"element": "Cl" 
			},
			{
				"x": -1.9485089879,
				"y": -2.5567682992,
				"z": 0.7172542285,
				"element": "Cl" 
			},
			{
				"x": 0.29668495,
				"y": -3.4992015423,
				"z": -0.8866903156,
				"element": "Cl" 
			},
			{
				"x": 1.7670326804,
				"y": -1.2521651887,
				"z": -1.4057953272,
				"element": "H" 
			},
			{
				"x": 1.5598307795,
				"y": 0.4515522492,
				"z": -0.9777187406,
				"element": "H" 
			},
			{
				"x": 0.568346691,
				"y": -0.2579129528,
				"z": -2.2689684433,
				"element": "H" 
			},
			{
				"x": -0.356619623,
				"y": 1.2365460633,
				"z": 0.3244489976,
				"element": "H" 
			},
			{
				"x": -1.7001143132,
				"y": 0.1696414678,
				"z": 0.7677587095,
				"element": "H" 
			},
			{
				"x": -1.4893324457,
				"y": 0.6695686429,
				"z": -0.918099964,
				"element": "H" 
			},
			{
				"x": 0.1017183781,
				"y": -1.219017055,
				"z": 1.6682274489,
				"element": "H" 
			}
		],
		 "valence_orbital": [ 
			{
				"type": "occ",
				"energy": -0.33318,
				"method": "rhf"
			},
			{
				"type": "occ",
				"energy": -0.32286,
				"method": "rhf"
			},
			{
				"type": "occ",
				"energy": -0.31567,
				"method": "rhf"
			},
			{
				"type": "occ",
				"energy": -0.30621,
				"method": "rhf"
			},
			{
				"type": "occ",
				"energy": -0.29162,
				"method": "rhf"
			},
			{
				"type": "unocc",
				"energy": -0.04243,
				"method": "rhf"
			},
			{
				"type": "unocc",
				"energy": -0.00335,
				"method": "rhf"
			},
			{
				"type": "unocc",
				"energy": 0.00365,
				"method": "rhf"
			},
			{
				"type": "unocc",
				"energy": 0.07576,
				"method": "rhf"
			},
			{
				"type": "unocc",
				"energy": 0.10878,
				"method": "rhf"
			}
		],
		"cosmo_sigma_profile": { 
			"-0.025": 0.0,
			"-0.024": 0.0,
			"-0.023": 0.0,
			"-0.022": 0.0,
			"-0.021": 0.0,
			"-0.02": 0.0,
			"-0.019": 0.0,
			"-0.018": 0.0,
			"-0.017": 0.0,
			"-0.016": 0.0,
			"-0.015": 0.390085017154,
			"-0.014": 0.642546399508,
			"-0.013": 0.718299240668,
			"-0.012": 0.6081955237,
			"-0.011": 0.652398505075,
			"-0.01": 1.22750862188,
			"-0.009": 0.849700088773,
			"-0.008": 1.26854174685,
			"-0.007": 1.12903121522,
			"-0.006": 0.674902514019,
			"-0.005": 6.22041377393,
			"-0.004": 11.0792225115,
			"-0.003": 17.1635222832,
			"-0.002": 16.5844134176,
			"-0.001": 23.9186275312,
			"0.0": 20.8467951176,
			"0.001": 13.9151344924,
			"0.002": 15.6251444917,
			"0.003": 21.4097878877,
			"0.004": 11.529060021,
			"0.005": 1.75356837535,
			"0.006": 1.69706052005,
			"0.007": 1.23473294429,
			"0.008": 1.661546698,
			"0.009": 1.28636696674,
			"0.01": 1.54236815865,
			"0.011": 1.25551532185,
			"0.012": 1.9246646886,
			"0.013": 0.377096430698,
			"0.014": 0.0,
			"0.015": 0.0,
			"0.016": 0.0,
			"0.017": 0.0,
			"0.018": 0.0,
			"0.019": 0.0,
			"0.02": 0.0,
			"0.021": 0.0,
			"0.022": 0.0,
			"0.023": 0.0,
			"0.024": 0.0,
			"0.025": 0.0
		}
	}
}
