{
	 "smiles": "NCC1=CN=C(C=C1)N1C=NC2=C1C=CC=C2", 
	 "Tm": 371.15, 
	 "num_atms": 29, 
	 "gaussian": { 
		 "optdone": 1, 
		 "sigma_profile": "yes", 
		 "theory": "DFT", 
		 "functional": "B3LYP", 
		 "basiset": "6-31G**", 
		 "properties": { 
			 "R2extent": 5257.518, 
			 "electric_dipole_moment_norm": 3.7960866626, 
			 "electric_quadrupole_moment_norm": 12.1305772546, 
			 "total_energy": -721.623953346, 
			 "HOMO_LUMO_gap": 0.17725, 
			 "cosmo_polarized_energy": -15.42, 
			 "cosmo_cavitation_energy": 33.06, 
			 "cosmo_dispersion_energy": -24.24, 
			 "cosmo_repulsion_energy": 1.85, 
			 "cosmo_total_nonelectrostatic_energy": 10.67, 
			 "SMD_solvation_energy": 1.38 
		},
		"coords": [
			{
				"x": 1.2721799496,
				"y": -1.0840860539,
				"z": -4.6677628183,
				"element": "N" 
			},
			{
				"x": 0.2103433479,
				"y": -1.7396291279,
				"z": -3.8898764834,
				"element": "C" 
			},
			{
				"x": 0.0207999127,
				"y": -1.2299738586,
				"z": -2.4734798585,
				"element": "C" 
			},
			{
				"x": -0.9205194845,
				"y": -0.2391366909,
				"z": -2.1725278487,
				"element": "C" 
			},
			{
				"x": -1.0883711843,
				"y": 0.3070251435,
				"z": -0.9648940842,
				"element": "N" 
			},
			{
				"x": -0.3206458238,
				"y": -0.1379080443,
				"z": 0.0334838297,
				"element": "C" 
			},
			{
				"x": 0.6231459492,
				"y": -1.1624972269,
				"z": -0.1286467071,
				"element": "C" 
			},
			{
				"x": 0.7925809744,
				"y": -1.6958679415,
				"z": -1.4010997322,
				"element": "C" 
			},
			{
				"x": -0.55203491,
				"y": 0.4623747635,
				"z": 1.2900116247,
				"element": "N" 
			},
			{
				"x": -1.7687194545,
				"y": 1.019114252,
				"z": 1.6769290368,
				"element": "C" 
			},
			{
				"x": -1.7773425025,
				"y": 1.4833425106,
				"z": 2.8928621432,
				"element": "N" 
			},
			{
				"x": -0.4916144714,
				"y": 1.2524650491,
				"z": 3.3722832496,
				"element": "C" 
			},
			{
				"x": 0.3025716759,
				"y": 0.6144173154,
				"z": 2.3877517121,
				"element": "C" 
			},
			{
				"x": 1.6528480009,
				"y": 0.3270068156,
				"z": 2.607776035,
				"element": "C" 
			},
			{
				"x": 2.178799938,
				"y": 0.6631315984,
				"z": 3.8545736299,
				"element": "C" 
			},
			{
				"x": 1.391930892,
				"y": 1.2721900326,
				"z": 4.8490224916,
				"element": "C" 
			},
			{
				"x": 0.0544668299,
				"y": 1.5788090783,
				"z": 4.6175406524,
				"element": "C" 
			},
			{
				"x": 2.163276747,
				"y": -1.1855984996,
				"z": -4.1861673936,
				"element": "H" 
			},
			{
				"x": 1.0931491843,
				"y": -0.0829260687,
				"z": -4.7124123185,
				"element": "H" 
			},
			{
				"x": -0.7272444361,
				"y": -1.625785841,
				"z": -4.4455309062,
				"element": "H" 
			},
			{
				"x": 0.4303759175,
				"y": -2.8131791354,
				"z": -3.8667383575,
				"element": "H" 
			},
			{
				"x": -1.5781387675,
				"y": 0.1393410126,
				"z": -2.9551009599,
				"element": "H" 
			},
			{
				"x": 1.1722711154,
				"y": -1.55265248,
				"z": 0.7186162179,
				"element": "H" 
			},
			{
				"x": 1.5139236635,
				"y": -2.4952897694,
				"z": -1.5562276707,
				"element": "H" 
			},
			{
				"x": -2.5972248678,
				"y": 1.0268609452,
				"z": 0.9838526802,
				"element": "H" 
			},
			{
				"x": 2.285100128,
				"y": -0.1143906711,
				"z": 1.8465139343,
				"element": "H" 
			},
			{
				"x": 3.2246535245,
				"y": 0.4526911949,
				"z": 4.0577639652,
				"element": "H" 
			},
			{
				"x": 1.8417810558,
				"y": 1.5146254046,
				"z": 5.8071284883,
				"element": "H" 
			},
			{
				"x": -0.5603429044,
				"y": 2.0656262927,
				"z": 5.3674554478,
				"element": "H" 
			}
		],
		 "valence_orbital": [ 
			{
				"type": "occ",
				"energy": -0.27155,
				"method": "rhf"
			},
			{
				"type": "occ",
				"energy": -0.26916,
				"method": "rhf"
			},
			{
				"type": "occ",
				"energy": -0.24755,
				"method": "rhf"
			},
			{
				"type": "occ",
				"energy": -0.22842,
				"method": "rhf"
			},
			{
				"type": "occ",
				"energy": -0.22181,
				"method": "rhf"
			},
			{
				"type": "unocc",
				"energy": -0.04456,
				"method": "rhf"
			},
			{
				"type": "unocc",
				"energy": -0.03361,
				"method": "rhf"
			},
			{
				"type": "unocc",
				"energy": -0.01421,
				"method": "rhf"
			},
			{
				"type": "unocc",
				"energy": 0.02399,
				"method": "rhf"
			},
			{
				"type": "unocc",
				"energy": 0.05452,
				"method": "rhf"
			}
		],
		"cosmo_sigma_profile": { 
			"-0.025": 0.0,
			"-0.024": 0.0,
			"-0.023": 0.0,
			"-0.022": 0.0,
			"-0.021": 0.0,
			"-0.02": 0.0,
			"-0.019": 0.0,
			"-0.018": 0.0,
			"-0.017": 0.0,
			"-0.016": 0.0,
			"-0.015": 0.0,
			"-0.014": 0.0,
			"-0.013": 0.0,
			"-0.012": 0.0,
			"-0.011": 0.0,
			"-0.01": 0.930526327143,
			"-0.009": 3.36684343154,
			"-0.008": 5.44912685556,
			"-0.007": 12.9137225441,
			"-0.006": 19.0345068243,
			"-0.005": 19.0037000218,
			"-0.004": 19.9209303831,
			"-0.003": 18.0683018706,
			"-0.002": 17.0345278633,
			"-0.001": 19.1541369081,
			"0.0": 17.0331424684,
			"0.001": 19.7237472131,
			"0.002": 18.9105630836,
			"0.003": 13.2255269113,
			"0.004": 13.9261316817,
			"0.005": 13.3224961452,
			"0.006": 6.45756252435,
			"0.007": 4.27395663763,
			"0.008": 2.81988935077,
			"0.009": 2.8857707027,
			"0.01": 2.44664123111,
			"0.011": 2.67870447402,
			"0.012": 2.86401701637,
			"0.013": 1.58986698177,
			"0.014": 1.59769686549,
			"0.015": 1.49545376524,
			"0.016": 1.88384274852,
			"0.017": 1.23683910993,
			"0.018": 0.631492363303,
			"0.019": 0.6710843611,
			"0.02": 0.106316686754,
			"0.021": 0.0,
			"0.022": 0.0,
			"0.023": 0.0,
			"0.024": 0.0,
			"0.025": 0.0
		}
	}
}
