{
	 "smiles": "COC(=O)COC1=CC=C(C=C1)C(C)=O", 
	 "Tm": 359.15, 
	 "num_atms": 27, 
	 "gaussian": { 
		 "optdone": 1, 
		 "sigma_profile": "yes", 
		 "theory": "DFT", 
		 "functional": "B3LYP", 
		 "basiset": "6-31G**", 
		 "properties": { 
			 "R2extent": 5726.7245, 
			 "electric_dipole_moment_norm": 3.48249543288, 
			 "electric_quadrupole_moment_norm": 14.1144985958, 
			 "total_energy": -727.29369181, 
			 "HOMO_LUMO_gap": 0.1861, 
			 "cosmo_polarized_energy": -14.4, 
			 "cosmo_cavitation_energy": 31.87, 
			 "cosmo_dispersion_energy": -22.48, 
			 "cosmo_repulsion_energy": 1.79, 
			 "cosmo_total_nonelectrostatic_energy": 11.18, 
			 "SMD_solvation_energy": 8.02 
		},
		"coords": [
			{
				"x": 1.0487018526,
				"y": -2.5438682566,
				"z": 2.7945002549,
				"element": "C" 
			},
			{
				"x": -0.230776213,
				"y": -1.9043731041,
				"z": 2.6258783007,
				"element": "O" 
			},
			{
				"x": -1.2897750025,
				"y": -2.723251499,
				"z": 2.6713042504,
				"element": "C" 
			},
			{
				"x": -1.2386845265,
				"y": -3.9182443966,
				"z": 2.864655629,
				"element": "O" 
			},
			{
				"x": -2.6145643285,
				"y": -1.9785835946,
				"z": 2.5039843485,
				"element": "C" 
			},
			{
				"x": -2.5316867241,
				"y": -0.7093513691,
				"z": 1.8873296134,
				"element": "O" 
			},
			{
				"x": -2.2913980755,
				"y": -0.6419448488,
				"z": 0.545050693,
				"element": "C" 
			},
			{
				"x": -2.261340714,
				"y": 0.6526995269,
				"z": 0.0060262328,
				"element": "C" 
			},
			{
				"x": -2.0349275242,
				"y": 0.8339172377,
				"z": -1.3507749267,
				"element": "C" 
			},
			{
				"x": -1.8333681955,
				"y": -0.266922948,
				"z": -2.2025559392,
				"element": "C" 
			},
			{
				"x": -1.8653028574,
				"y": -1.5532316005,
				"z": -1.6461215327,
				"element": "C" 
			},
			{
				"x": -2.0906993111,
				"y": -1.752817404,
				"z": -0.2878514137,
				"element": "C" 
			},
			{
				"x": -1.584677852,
				"y": -0.1340226977,
				"z": -3.6691796473,
				"element": "C" 
			},
			{
				"x": -1.5518987108,
				"y": 1.2567979858,
				"z": -4.2838677428,
				"element": "C" 
			},
			{
				"x": -1.4099823046,
				"y": -1.1228477556,
				"z": -4.3680934761,
				"element": "O" 
			},
			{
				"x": 1.2071168925,
				"y": -3.2906738898,
				"z": 2.0130732751,
				"element": "H" 
			},
			{
				"x": 1.7860696111,
				"y": -1.7457362205,
				"z": 2.7189470964,
				"element": "H" 
			},
			{
				"x": 1.1054927679,
				"y": -3.0324085574,
				"z": 3.7700498869,
				"element": "H" 
			},
			{
				"x": -3.3103629499,
				"y": -2.648713792,
				"z": 1.9876317824,
				"element": "H" 
			},
			{
				"x": -3.0134782734,
				"y": -1.7915214401,
				"z": 3.5059126467,
				"element": "H" 
			},
			{
				"x": -2.4187225029,
				"y": 1.4943487587,
				"z": 0.6720725239,
				"element": "H" 
			},
			{
				"x": -2.0164699943,
				"y": 1.8442488669,
				"z": -1.7466071368,
				"element": "H" 
			},
			{
				"x": -1.7066937328,
				"y": -2.3981300976,
				"z": -2.3080982624,
				"element": "H" 
			},
			{
				"x": -2.1030058925,
				"y": -2.7628775843,
				"z": 0.1056087913,
				"element": "H" 
			},
			{
				"x": -2.5030285489,
				"y": 1.7785059124,
				"z": -4.1299296729,
				"element": "H" 
			},
			{
				"x": -0.7658408609,
				"y": 1.8703390951,
				"z": -3.8297332793,
				"element": "H" 
			},
			{
				"x": -1.3618960288,
				"y": 1.1600636727,
				"z": -5.3531122955,
				"element": "H" 
			}
		],
		 "valence_orbital": [ 
			{
				"type": "occ",
				"energy": -0.31535,
				"method": "rhf"
			},
			{
				"type": "occ",
				"energy": -0.28481,
				"method": "rhf"
			},
			{
				"type": "occ",
				"energy": -0.26397,
				"method": "rhf"
			},
			{
				"type": "occ",
				"energy": -0.24302,
				"method": "rhf"
			},
			{
				"type": "occ",
				"energy": -0.23318,
				"method": "rhf"
			},
			{
				"type": "unocc",
				"energy": -0.04708,
				"method": "rhf"
			},
			{
				"type": "unocc",
				"energy": -0.016,
				"method": "rhf"
			},
			{
				"type": "unocc",
				"energy": -0.00081,
				"method": "rhf"
			},
			{
				"type": "unocc",
				"energy": 0.048,
				"method": "rhf"
			},
			{
				"type": "unocc",
				"energy": 0.08392,
				"method": "rhf"
			}
		],
		"cosmo_sigma_profile": { 
			"-0.025": 0.0,
			"-0.024": 0.0,
			"-0.023": 0.0,
			"-0.022": 0.0,
			"-0.021": 0.0,
			"-0.02": 0.0,
			"-0.019": 0.0,
			"-0.018": 0.0,
			"-0.017": 0.0,
			"-0.016": 0.0,
			"-0.015": 0.0,
			"-0.014": 0.0,
			"-0.013": 0.0,
			"-0.012": 0.0,
			"-0.011": 0.0,
			"-0.01": 0.487587792578,
			"-0.009": 2.59362509568,
			"-0.008": 4.7824495226,
			"-0.007": 8.9076594579,
			"-0.006": 22.6547052077,
			"-0.005": 23.3137245796,
			"-0.004": 22.668247694,
			"-0.003": 19.1283811439,
			"-0.002": 15.9133318259,
			"-0.001": 15.2732031419,
			"0.0": 12.925094643,
			"0.001": 11.8427293571,
			"0.002": 13.7513794613,
			"0.003": 17.320301552,
			"0.004": 13.6363463557,
			"0.005": 5.40689883065,
			"0.006": 5.21586167692,
			"0.007": 5.68688644979,
			"0.008": 5.44670934741,
			"0.009": 5.20541803022,
			"0.01": 4.26242059487,
			"0.011": 6.65213353773,
			"0.012": 7.23416726678,
			"0.013": 2.486880049,
			"0.014": 0.483383115903,
			"0.015": 0.0,
			"0.016": 0.0,
			"0.017": 0.0,
			"0.018": 0.0,
			"0.019": 0.0,
			"0.02": 0.0,
			"0.021": 0.0,
			"0.022": 0.0,
			"0.023": 0.0,
			"0.024": 0.0,
			"0.025": 0.0
		}
	}
}
