{
	 "smiles": "COC1=CC=C(C=C1O)[N+]([O-])=O", 
	 "Tm": 378.15, 
	 "num_atms": 19, 
	 "gaussian": { 
		 "optdone": 1, 
		 "sigma_profile": "yes", 
		 "theory": "DFT", 
		 "functional": "B3LYP", 
		 "basiset": "6-31G**", 
		 "properties": { 
			 "R2extent": 2456.4936, 
			 "electric_dipole_moment_norm": 7.31773925813, 
			 "electric_quadrupole_moment_norm": 10.0392458287, 
			 "total_energy": -626.495687553, 
			 "HOMO_LUMO_gap": 0.15452, 
			 "cosmo_polarized_energy": -12.85, 
			 "cosmo_cavitation_energy": 23.99, 
			 "cosmo_dispersion_energy": -17.95, 
			 "cosmo_repulsion_energy": 1.43, 
			 "cosmo_total_nonelectrostatic_energy": 7.46, 
			 "SMD_solvation_energy": 7.6 
		},
		"coords": [
			{
				"x": 0.9472680687,
				"y": 1.1900676902,
				"z": -3.1602118397,
				"element": "C" 
			},
			{
				"x": 1.1110104577,
				"y": 1.1906664953,
				"z": -1.7455830696,
				"element": "O" 
			},
			{
				"x": 0.2558575514,
				"y": 0.4440110542,
				"z": -0.987681241,
				"element": "C" 
			},
			{
				"x": -0.7916912265,
				"y": -0.3421090427,
				"z": -1.467181996,
				"element": "C" 
			},
			{
				"x": -1.5902784588,
				"y": -1.0563927448,
				"z": -0.5720538636,
				"element": "C" 
			},
			{
				"x": -1.3181264178,
				"y": -0.9649379647,
				"z": 0.7885927635,
				"element": "C" 
			},
			{
				"x": -0.2743253103,
				"y": -0.1841377068,
				"z": 1.2932468537,
				"element": "C" 
			},
			{
				"x": 0.5167497311,
				"y": 0.5239190805,
				"z": 0.4014455584,
				"element": "C" 
			},
			{
				"x": 1.5382206955,
				"y": 1.2913677105,
				"z": 0.8590310136,
				"element": "O" 
			},
			{
				"x": -2.1545891076,
				"y": -1.7134806998,
				"z": 1.7317558492,
				"element": "N" 
			},
			{
				"x": -1.8940814842,
				"y": -1.615810193,
				"z": 2.9316817423,
				"element": "O" 
			},
			{
				"x": -3.0707796094,
				"y": -2.3961043239,
				"z": 1.2694376276,
				"element": "O" 
			},
			{
				"x": -0.0363518359,
				"y": 1.5818375133,
				"z": -3.4441422939,
				"element": "H" 
			},
			{
				"x": 1.7260769803,
				"y": 1.8433157026,
				"z": -3.5544652351,
				"element": "H" 
			},
			{
				"x": 1.0731060637,
				"y": 0.1819951128,
				"z": -3.5719976749,
				"element": "H" 
			},
			{
				"x": -0.9930917631,
				"y": -0.4047022454,
				"z": -2.5298236197,
				"element": "H" 
			},
			{
				"x": -2.409934257,
				"y": -1.6744724599,
				"z": -0.9140500058,
				"element": "H" 
			},
			{
				"x": -0.0861073163,
				"y": -0.1321591401,
				"z": 2.3574862792,
				"element": "H" 
			},
			{
				"x": 1.9637672383,
				"y": 1.6988261617,
				"z": 0.0887131518,
				"element": "H" 
			}
		],
		 "valence_orbital": [ 
			{
				"type": "occ",
				"energy": -0.30008,
				"method": "rhf"
			},
			{
				"type": "occ",
				"energy": -0.29884,
				"method": "rhf"
			},
			{
				"type": "occ",
				"energy": -0.2811,
				"method": "rhf"
			},
			{
				"type": "occ",
				"energy": -0.26587,
				"method": "rhf"
			},
			{
				"type": "occ",
				"energy": -0.23301,
				"method": "rhf"
			},
			{
				"type": "unocc",
				"energy": -0.07849,
				"method": "rhf"
			},
			{
				"type": "unocc",
				"energy": -0.01537,
				"method": "rhf"
			},
			{
				"type": "unocc",
				"energy": 0.01775,
				"method": "rhf"
			},
			{
				"type": "unocc",
				"energy": 0.05852,
				"method": "rhf"
			},
			{
				"type": "unocc",
				"energy": 0.07582,
				"method": "rhf"
			}
		],
		"cosmo_sigma_profile": { 
			"-0.025": 0.0,
			"-0.024": 0.0,
			"-0.023": 0.0,
			"-0.022": 0.0,
			"-0.021": 0.0,
			"-0.02": 0.0,
			"-0.019": 0.0,
			"-0.018": 0.0,
			"-0.017": 0.0,
			"-0.016": 0.0,
			"-0.015": 0.356493737986,
			"-0.014": 0.523018205535,
			"-0.013": 0.554266559097,
			"-0.012": 1.03957793181,
			"-0.011": 0.594508640658,
			"-0.01": 0.601731743492,
			"-0.009": 0.596543835479,
			"-0.008": 2.7877851601,
			"-0.007": 8.59428694526,
			"-0.006": 15.0202431572,
			"-0.005": 13.7376125485,
			"-0.004": 15.1359084228,
			"-0.003": 9.58310983371,
			"-0.002": 10.0525849091,
			"-0.001": 11.8933815757,
			"0.0": 16.3520086763,
			"0.001": 17.1500266301,
			"0.002": 14.1556119945,
			"0.003": 7.72833096232,
			"0.004": 3.87218624789,
			"0.005": 4.0286147652,
			"0.006": 5.46030961794,
			"0.007": 5.69011964139,
			"0.008": 11.7476437576,
			"0.009": 6.47169376231,
			"0.01": 5.99526793633,
			"0.011": 2.01064757869,
			"0.012": 0.0,
			"0.013": 0.0,
			"0.014": 0.0,
			"0.015": 0.0,
			"0.016": 0.0,
			"0.017": 0.0,
			"0.018": 0.0,
			"0.019": 0.0,
			"0.02": 0.0,
			"0.021": 0.0,
			"0.022": 0.0,
			"0.023": 0.0,
			"0.024": 0.0,
			"0.025": 0.0
		}
	}
}
