{
	 "smiles": "CC1=C(C=C(Br)C=C1[N+]([O-])=O)[N+]([O-])=O", 
	 "Tm": 360.15, 
	 "num_atms": 19, 
	 "gaussian": { 
		 "optdone": 1, 
		 "sigma_profile": "yes", 
		 "theory": "DFT", 
		 "functional": "B3LYP", 
		 "basiset": "6-31G**", 
		 "properties": { 
			 "R2extent": 5674.7117, 
			 "electric_dipole_moment_norm": 1.54488238387, 
			 "electric_quadrupole_moment_norm": 13.0235051841, 
			 "total_energy": -3251.34655718, 
			 "HOMO_LUMO_gap": 0.16708, 
			 "cosmo_polarized_energy": -10.33, 
			 "cosmo_cavitation_energy": 27.15, 
			 "cosmo_dispersion_energy": -20.11, 
			 "cosmo_repulsion_energy": 1.57, 
			 "cosmo_total_nonelectrostatic_energy": 8.61, 
			 "SMD_solvation_energy": 7.88 
		},
		"coords": [
			{
				"x": 1.6411612094,
				"y": -1.0464267672,
				"z": 0.1558407878,
				"element": "C" 
			},
			{
				"x": 0.4620053039,
				"y": -0.4311977674,
				"z": 0.8710092023,
				"element": "C" 
			},
			{
				"x": -0.8755360452,
				"y": -0.7758295206,
				"z": 0.590539367,
				"element": "C" 
			},
			{
				"x": -1.9734263426,
				"y": -0.298845363,
				"z": 1.3048921307,
				"element": "C" 
			},
			{
				"x": -1.7641673584,
				"y": 0.5914887739,
				"z": 2.3499833215,
				"element": "C" 
			},
			{
				"x": -3.2418388259,
				"y": 1.2741072606,
				"z": 3.327905683,
				"element": "Br" 
			},
			{
				"x": -0.4724357368,
				"y": 0.981091036,
				"z": 2.6791637694,
				"element": "C" 
			},
			{
				"x": 0.596572039,
				"y": 0.479442947,
				"z": 1.9383221314,
				"element": "C" 
			},
			{
				"x": 1.92496954,
				"y": 0.9898471098,
				"z": 2.3463733654,
				"element": "N" 
			},
			{
				"x": 2.7824509826,
				"y": 1.116883571,
				"z": 1.4757429749,
				"element": "O" 
			},
			{
				"x": 2.0709604679,
				"y": 1.2856026214,
				"z": 3.5301352903,
				"element": "O" 
			},
			{
				"x": -1.2133310169,
				"y": -1.686260609,
				"z": -0.5268477109,
				"element": "N" 
			},
			{
				"x": -0.4873254047,
				"y": -1.6713229937,
				"z": -1.5178702169,
				"element": "O" 
			},
			{
				"x": -2.2228895592,
				"y": -2.3754607657,
				"z": -0.4008286372,
				"element": "O" 
			},
			{
				"x": 1.3981416427,
				"y": -2.0441710859,
				"z": -0.2056964617,
				"element": "H" 
			},
			{
				"x": 1.9222281014,
				"y": -0.4435836844,
				"z": -0.7118779977,
				"element": "H" 
			},
			{
				"x": 2.5087996011,
				"y": -1.0979486717,
				"z": 0.8114341312,
				"element": "H" 
			},
			{
				"x": -2.9659207364,
				"y": -0.6329471023,
				"z": 1.0330006663,
				"element": "H" 
			},
			{
				"x": -0.2750178619,
				"y": 1.6617310111,
				"z": 3.496678203,
				"element": "H" 
			}
		],
		 "valence_orbital": [ 
			{
				"type": "occ",
				"energy": -0.32466,
				"method": "rhf"
			},
			{
				"type": "occ",
				"energy": -0.31574,
				"method": "rhf"
			},
			{
				"type": "occ",
				"energy": -0.31443,
				"method": "rhf"
			},
			{
				"type": "occ",
				"energy": -0.29895,
				"method": "rhf"
			},
			{
				"type": "occ",
				"energy": -0.28048,
				"method": "rhf"
			},
			{
				"type": "unocc",
				"energy": -0.1134,
				"method": "rhf"
			},
			{
				"type": "unocc",
				"energy": -0.10521,
				"method": "rhf"
			},
			{
				"type": "unocc",
				"energy": -0.04909,
				"method": "rhf"
			},
			{
				"type": "unocc",
				"energy": -0.02956,
				"method": "rhf"
			},
			{
				"type": "unocc",
				"energy": -0.02513,
				"method": "rhf"
			}
		],
		"cosmo_sigma_profile": { 
			"-0.025": 0.0,
			"-0.024": 0.0,
			"-0.023": 0.0,
			"-0.022": 0.0,
			"-0.021": 0.0,
			"-0.02": 0.0,
			"-0.019": 0.0,
			"-0.018": 0.0,
			"-0.017": 0.0,
			"-0.016": 0.0,
			"-0.015": 0.0,
			"-0.014": 0.0,
			"-0.013": 0.0,
			"-0.012": 0.0,
			"-0.011": 0.198565613396,
			"-0.01": 1.40746315388,
			"-0.009": 4.78260818792,
			"-0.008": 6.18408657464,
			"-0.007": 6.75094241611,
			"-0.006": 9.90073615384,
			"-0.005": 11.1107644364,
			"-0.004": 17.1134896395,
			"-0.003": 20.8071822291,
			"-0.002": 23.3552860719,
			"-0.001": 14.9763324624,
			"0.0": 8.52045424324,
			"0.001": 10.4066541277,
			"0.002": 12.1544978567,
			"0.003": 16.0405267113,
			"0.004": 7.39586666756,
			"0.005": 6.94602109937,
			"0.006": 12.1519737316,
			"0.007": 17.1053176846,
			"0.008": 8.28855002788,
			"0.009": 5.65467128574,
			"0.01": 0.410622168184,
			"0.011": 0.0,
			"0.012": 0.0,
			"0.013": 0.0,
			"0.014": 0.0,
			"0.015": 0.0,
			"0.016": 0.0,
			"0.017": 0.0,
			"0.018": 0.0,
			"0.019": 0.0,
			"0.02": 0.0,
			"0.021": 0.0,
			"0.022": 0.0,
			"0.023": 0.0,
			"0.024": 0.0,
			"0.025": 0.0
		}
	}
}
