{
	 "smiles": "CC(C)(C)C1=CC=C(C=C1)C1=CC=C(C=C1)C(C)(C)C", 
	 "Tm": 400.65, 
	 "num_atms": 46, 
	 "gaussian": { 
		 "optdone": 1, 
		 "sigma_profile": "yes", 
		 "theory": "DFT", 
		 "functional": "B3LYP", 
		 "basiset": "6-31G**", 
		 "properties": { 
			 "R2extent": 10390.7995, 
			 "electric_dipole_moment_norm": 0.0307045599219, 
			 "electric_quadrupole_moment_norm": 9.69564073695, 
			 "total_energy": -777.838454078, 
			 "HOMO_LUMO_gap": 0.1901, 
			 "cosmo_polarized_energy": -5.63, 
			 "cosmo_cavitation_energy": 45.32, 
			 "cosmo_dispersion_energy": -31.67, 
			 "cosmo_repulsion_energy": 2.39, 
			 "cosmo_total_nonelectrostatic_energy": 16.04, 
			 "SMD_solvation_energy": 7.63 
		},
		"coords": [
			{
				"x": -0.0053935254,
				"y": -5.6422920008,
				"z": 1.6208844426,
				"element": "C" 
			},
			{
				"x": -1.282996117,
				"y": -4.7690222571,
				"z": 1.6240350978,
				"element": "C" 
			},
			{
				"x": -1.9064527215,
				"y": -4.7801332684,
				"z": 3.0402558648,
				"element": "C" 
			},
			{
				"x": -2.2962419258,
				"y": -5.397902523,
				"z": 0.6489020981,
				"element": "C" 
			},
			{
				"x": -0.916915282,
				"y": -3.32529977,
				"z": 1.2360692676,
				"element": "C" 
			},
			{
				"x": -1.4499129588,
				"y": -2.6749052879,
				"z": 0.1150033894,
				"element": "C" 
			},
			{
				"x": -1.0954535983,
				"y": -1.3642573494,
				"z": -0.2074191729,
				"element": "C" 
			},
			{
				"x": -0.1866794013,
				"y": -0.6395974324,
				"z": 0.5763904714,
				"element": "C" 
			},
			{
				"x": 0.350782618,
				"y": -1.288081641,
				"z": 1.7015584325,
				"element": "C" 
			},
			{
				"x": -0.0072021346,
				"y": -2.5940425446,
				"z": 2.0195690763,
				"element": "C" 
			},
			{
				"x": 0.1925377679,
				"y": 0.7531906969,
				"z": 0.2337455697,
				"element": "C" 
			},
			{
				"x": 0.3415919818,
				"y": 1.1640835838,
				"z": -1.0982755816,
				"element": "C" 
			},
			{
				"x": 0.696998495,
				"y": 2.4748113677,
				"z": -1.4192953567,
				"element": "C" 
			},
			{
				"x": 0.923301421,
				"y": 3.4384457814,
				"z": -0.4272898983,
				"element": "C" 
			},
			{
				"x": 0.7738136506,
				"y": 3.0212456792,
				"z": 0.9068069824,
				"element": "C" 
			},
			{
				"x": 0.4179039504,
				"y": 1.716491497,
				"z": 1.2320726798,
				"element": "C" 
			},
			{
				"x": 1.3173096075,
				"y": 4.8926894138,
				"z": -0.7416329834,
				"element": "C" 
			},
			{
				"x": 1.4346511415,
				"y": 5.1529005594,
				"z": -2.2554165404,
				"element": "C" 
			},
			{
				"x": 2.6853451832,
				"y": 5.208087447,
				"z": -0.0908356527,
				"element": "C" 
			},
			{
				"x": 0.2457935826,
				"y": 5.8515424113,
				"z": -0.1695631128,
				"element": "C" 
			},
			{
				"x": 0.742834093,
				"y": -5.2714623714,
				"z": 2.327675781,
				"element": "H" 
			},
			{
				"x": 0.4542565788,
				"y": -5.6595843458,
				"z": 0.6272166512,
				"element": "H" 
			},
			{
				"x": -0.2470655084,
				"y": -6.6737345159,
				"z": 1.9019830275,
				"element": "H" 
			},
			{
				"x": -2.1663578705,
				"y": -5.8032424103,
				"z": 3.3351805014,
				"element": "H" 
			},
			{
				"x": -2.8187840129,
				"y": -4.1754169404,
				"z": 3.0708966747,
				"element": "H" 
			},
			{
				"x": -1.2176875634,
				"y": -4.382399871,
				"z": 3.7914649794,
				"element": "H" 
			},
			{
				"x": -1.9026977612,
				"y": -5.4480641981,
				"z": -0.3716978429,
				"element": "H" 
			},
			{
				"x": -3.2387928813,
				"y": -4.841069311,
				"z": 0.625276063,
				"element": "H" 
			},
			{
				"x": -2.5256248631,
				"y": -6.4210185799,
				"z": 0.9642439254,
				"element": "H" 
			},
			{
				"x": -2.1635770326,
				"y": -3.1839485377,
				"z": -0.5229404584,
				"element": "H" 
			},
			{
				"x": -1.5542082965,
				"y": -0.8894900007,
				"z": -1.0700983626,
				"element": "H" 
			},
			{
				"x": 1.0782652754,
				"y": -0.7704584057,
				"z": 2.320341764,
				"element": "H" 
			},
			{
				"x": 0.4427119618,
				"y": -3.0542142226,
				"z": 2.8947993929,
				"element": "H" 
			},
			{
				"x": 0.2028999156,
				"y": 0.4428059661,
				"z": -1.8986515545,
				"element": "H" 
			},
			{
				"x": 0.8055680923,
				"y": 2.7339339451,
				"z": -2.466414683,
				"element": "H" 
			},
			{
				"x": 0.9287344437,
				"y": 3.7308352529,
				"z": 1.7147049272,
				"element": "H" 
			},
			{
				"x": 0.2873913768,
				"y": 1.445415007,
				"z": 2.2758826155,
				"element": "H" 
			},
			{
				"x": 1.7153753449,
				"y": 6.1967722503,
				"z": -2.4296496978,
				"element": "H" 
			},
			{
				"x": 2.2014870481,
				"y": 4.5235699993,
				"z": -2.7190266096,
				"element": "H" 
			},
			{
				"x": 0.4867698074,
				"y": 4.9755441039,
				"z": -2.7741546885,
				"element": "H" 
			},
			{
				"x": 3.4665691689,
				"y": 4.5487266153,
				"z": -0.4831348168,
				"element": "H" 
			},
			{
				"x": 2.9778390579,
				"y": 6.2436232089,
				"z": -0.2991701774,
				"element": "H" 
			},
			{
				"x": 2.6578663557,
				"y": 5.0824690231,
				"z": 0.9956204089,
				"element": "H" 
			},
			{
				"x": -0.733687753,
				"y": 5.6562742522,
				"z": -0.6183768172,
				"element": "H" 
			},
			{
				"x": 0.5145397208,
				"y": 6.8932517083,
				"z": -0.3791160733,
				"element": "H" 
			},
			{
				"x": 0.1424935671,
				"y": 5.7463280151,
				"z": 0.9144799962,
				"element": "H" 
			}
		],
		 "valence_orbital": [ 
			{
				"type": "occ",
				"energy": -0.30938,
				"method": "rhf"
			},
			{
				"type": "occ",
				"energy": -0.25812,
				"method": "rhf"
			},
			{
				"type": "occ",
				"energy": -0.24415,
				"method": "rhf"
			},
			{
				"type": "occ",
				"energy": -0.24346,
				"method": "rhf"
			},
			{
				"type": "occ",
				"energy": -0.21107,
				"method": "rhf"
			},
			{
				"type": "unocc",
				"energy": -0.02097,
				"method": "rhf"
			},
			{
				"type": "unocc",
				"energy": 0.00114,
				"method": "rhf"
			},
			{
				"type": "unocc",
				"energy": 0.00559,
				"method": "rhf"
			},
			{
				"type": "unocc",
				"energy": 0.03544,
				"method": "rhf"
			},
			{
				"type": "unocc",
				"energy": 0.08314,
				"method": "rhf"
			}
		],
		"cosmo_sigma_profile": { 
			"-0.025": 0.0,
			"-0.024": 0.0,
			"-0.023": 0.0,
			"-0.022": 0.0,
			"-0.021": 0.0,
			"-0.02": 0.0,
			"-0.019": 0.0,
			"-0.018": 0.0,
			"-0.017": 0.0,
			"-0.016": 0.0,
			"-0.015": 0.0,
			"-0.014": 0.0,
			"-0.013": 0.0,
			"-0.012": 0.0,
			"-0.011": 0.0,
			"-0.01": 0.0,
			"-0.009": 0.0,
			"-0.008": 0.0,
			"-0.007": 0.0,
			"-0.006": 0.414997393495,
			"-0.005": 13.6471494794,
			"-0.004": 20.1531433835,
			"-0.003": 39.8369685238,
			"-0.002": 52.7199570443,
			"-0.001": 42.0524126354,
			"0.0": 39.1273699012,
			"0.001": 50.6894592379,
			"0.002": 29.8227392092,
			"0.003": 14.6495426237,
			"0.004": 16.1904679762,
			"0.005": 14.6767075603,
			"0.006": 16.6436952003,
			"0.007": 3.30607872746,
			"0.008": 0.0,
			"0.009": 0.0,
			"0.01": 0.0,
			"0.011": 0.0,
			"0.012": 0.0,
			"0.013": 0.0,
			"0.014": 0.0,
			"0.015": 0.0,
			"0.016": 0.0,
			"0.017": 0.0,
			"0.018": 0.0,
			"0.019": 0.0,
			"0.02": 0.0,
			"0.021": 0.0,
			"0.022": 0.0,
			"0.023": 0.0,
			"0.024": 0.0,
			"0.025": 0.0
		}
	}
}
