{
	 "smiles": "COC(=O)C1=CC=C(NC(C)=O)C(NC(C)=O)=C1", 
	 "Tm": 498.15, 
	 "num_atms": 32, 
	 "gaussian": { 
		 "optdone": 1, 
		 "sigma_profile": "yes", 
		 "theory": "DFT", 
		 "functional": "B3LYP", 
		 "basiset": "6-31G**", 
		 "properties": { 
			 "R2extent": 6207.0738, 
			 "electric_dipole_moment_norm": 6.78640151332, 
			 "electric_quadrupole_moment_norm": 23.9737464064, 
			 "total_energy": -876.168335519, 
			 "HOMO_LUMO_gap": 0.17228, 
			 "cosmo_polarized_energy": -22.96, 
			 "cosmo_cavitation_energy": 36.83, 
			 "cosmo_dispersion_energy": -26.08, 
			 "cosmo_repulsion_energy": 2.03, 
			 "cosmo_total_nonelectrostatic_energy": 12.78, 
			 "SMD_solvation_energy": 9.26 
		},
		"coords": [
			{
				"x": 0.6969152938,
				"y": 3.1744742812,
				"z": -4.3560037882,
				"element": "C" 
			},
			{
				"x": 0.7226806618,
				"y": 2.9317666884,
				"z": -2.9417957552,
				"element": "O" 
			},
			{
				"x": 0.0501141148,
				"y": 1.826374725,
				"z": -2.5376681241,
				"element": "C" 
			},
			{
				"x": -0.5344427292,
				"y": 1.0904105957,
				"z": -3.3067107026,
				"element": "O" 
			},
			{
				"x": 0.1215352133,
				"y": 1.6321138466,
				"z": -1.0612065668,
				"element": "C" 
			},
			{
				"x": 0.8548277527,
				"y": 2.4885751313,
				"z": -0.2295283575,
				"element": "C" 
			},
			{
				"x": 0.885056239,
				"y": 2.2391580349,
				"z": 1.13409712,
				"element": "C" 
			},
			{
				"x": 0.1884782324,
				"y": 1.1601904356,
				"z": 1.6981196463,
				"element": "C" 
			},
			{
				"x": 0.2112131426,
				"y": 1.0847940407,
				"z": 3.1235195808,
				"element": "N" 
			},
			{
				"x": 0.3673887783,
				"y": 0.0074227963,
				"z": 3.9559641343,
				"element": "C" 
			},
			{
				"x": 0.5091847675,
				"y": 0.3478234424,
				"z": 5.4293733993,
				"element": "C" 
			},
			{
				"x": 0.384227196,
				"y": -1.1626311544,
				"z": 3.5747786774,
				"element": "O" 
			},
			{
				"x": -0.5529891432,
				"y": 0.2910924519,
				"z": 0.8624525911,
				"element": "C" 
			},
			{
				"x": -1.2457770564,
				"y": -0.7945500142,
				"z": 1.4202056349,
				"element": "N" 
			},
			{
				"x": -2.3632189584,
				"y": -1.4155046838,
				"z": 0.9018661362,
				"element": "C" 
			},
			{
				"x": -2.8174487246,
				"y": -2.6275005657,
				"z": 1.7029119376,
				"element": "C" 
			},
			{
				"x": -2.951304807,
				"y": -1.0501849945,
				"z": -0.1056761785,
				"element": "O" 
			},
			{
				"x": -0.5656056831,
				"y": 0.5459298501,
				"z": -0.5171899877,
				"element": "C" 
			},
			{
				"x": 1.2722524807,
				"y": 4.0877099588,
				"z": -4.5089558769,
				"element": "H" 
			},
			{
				"x": 1.148858227,
				"y": 2.3403824251,
				"z": -4.8989270382,
				"element": "H" 
			},
			{
				"x": -0.3302576484,
				"y": 3.3041509595,
				"z": -4.7061575516,
				"element": "H" 
			},
			{
				"x": 1.3936392658,
				"y": 3.3289934379,
				"z": -0.649152724,
				"element": "H" 
			},
			{
				"x": 1.4588611507,
				"y": 2.8892846938,
				"z": 1.7899518511,
				"element": "H" 
			},
			{
				"x": 0.301365711,
				"y": 1.986755579,
				"z": 3.5693696848,
				"element": "H" 
			},
			{
				"x": -0.3126151347,
				"y": -0.1222892548,
				"z": 5.9765188683,
				"element": "H" 
			},
			{
				"x": 0.5114083822,
				"y": 1.4191634745,
				"z": 5.6454485586,
				"element": "H" 
			},
			{
				"x": 1.4386989847,
				"y": -0.0942847161,
				"z": 5.7974923891,
				"element": "H" 
			},
			{
				"x": -0.791033528,
				"y": -1.2059644684,
				"z": 2.2368032392,
				"element": "H" 
			},
			{
				"x": -3.9021098701,
				"y": -2.5782639562,
				"z": 1.8219649348,
				"element": "H" 
			},
			{
				"x": -2.5921502157,
				"y": -3.5329601975,
				"z": 1.1301679637,
				"element": "H" 
			},
			{
				"x": -2.3423337086,
				"y": -2.7074885306,
				"z": 2.6840294557,
				"element": "H" 
			},
			{
				"x": -1.1460183868,
				"y": -0.0921443125,
				"z": -1.1685631522,
				"element": "H" 
			}
		],
		 "valence_orbital": [ 
			{
				"type": "occ",
				"energy": -0.28304,
				"method": "rhf"
			},
			{
				"type": "occ",
				"energy": -0.26862,
				"method": "rhf"
			},
			{
				"type": "occ",
				"energy": -0.24996,
				"method": "rhf"
			},
			{
				"type": "occ",
				"energy": -0.23926,
				"method": "rhf"
			},
			{
				"type": "occ",
				"energy": -0.22139,
				"method": "rhf"
			},
			{
				"type": "unocc",
				"energy": -0.04911,
				"method": "rhf"
			},
			{
				"type": "unocc",
				"energy": -0.01507,
				"method": "rhf"
			},
			{
				"type": "unocc",
				"energy": 0.00195,
				"method": "rhf"
			},
			{
				"type": "unocc",
				"energy": 0.03368,
				"method": "rhf"
			},
			{
				"type": "unocc",
				"energy": 0.05406,
				"method": "rhf"
			}
		],
		"cosmo_sigma_profile": { 
			"-0.025": 0.0,
			"-0.024": 0.0,
			"-0.023": 0.0,
			"-0.022": 0.0,
			"-0.021": 0.0,
			"-0.02": 0.0,
			"-0.019": 0.0,
			"-0.018": 0.0,
			"-0.017": 0.0187874243747,
			"-0.016": 0.709994653765,
			"-0.015": 1.58205482081,
			"-0.014": 1.37210825607,
			"-0.013": 1.44979264954,
			"-0.012": 1.63975596406,
			"-0.011": 1.50849425132,
			"-0.01": 1.38298920653,
			"-0.009": 2.07362560447,
			"-0.008": 2.05042855671,
			"-0.007": 4.77483864997,
			"-0.006": 15.5495621122,
			"-0.005": 22.0789253533,
			"-0.004": 26.2828304572,
			"-0.003": 27.2869650568,
			"-0.002": 27.4719410781,
			"-0.001": 21.2446267942,
			"0.0": 15.4022088466,
			"0.001": 19.7500252591,
			"0.002": 21.5099850191,
			"0.003": 16.2318386945,
			"0.004": 7.49794764539,
			"0.005": 5.91698404359,
			"0.006": 5.92537479797,
			"0.007": 4.6859773635,
			"0.008": 5.03589442182,
			"0.009": 3.4068021227,
			"0.01": 5.38919180184,
			"0.011": 7.07622519631,
			"0.012": 7.97783057335,
			"0.013": 5.94388460338,
			"0.014": 2.40495501648,
			"0.015": 0.468909180071,
			"0.016": 0.0,
			"0.017": 0.0,
			"0.018": 0.0,
			"0.019": 0.0,
			"0.02": 0.0,
			"0.021": 0.0,
			"0.022": 0.0,
			"0.023": 0.0,
			"0.024": 0.0,
			"0.025": 0.0
		}
	}
}
