{
	 "smiles": "CC(=O)NC1=CC=CC=C1CCNCCC1=C(NC(C)=O)C=CC=C1", 
	 "Tm": 383.15, 
	 "num_atms": 50, 
	 "gaussian": { 
		 "optdone": 1, 
		 "sigma_profile": "yes", 
		 "theory": "DFT", 
		 "functional": "B3LYP", 
		 "basiset": "6-31G**", 
		 "properties": { 
			 "R2extent": 14404.6404, 
			 "electric_dipole_moment_norm": 3.69053451007, 
			 "electric_quadrupole_moment_norm": 39.116391177, 
			 "total_energy": -1091.93602681, 
			 "HOMO_LUMO_gap": 0.19224, 
			 "cosmo_polarized_energy": -24.82, 
			 "cosmo_cavitation_energy": 52.79, 
			 "cosmo_dispersion_energy": -35.73, 
			 "cosmo_repulsion_energy": 2.77, 
			 "cosmo_total_nonelectrostatic_energy": 19.83, 
			 "SMD_solvation_energy": 9.09 
		},
		"coords": [
			{
				"x": 4.1835439325,
				"y": -3.2518276457,
				"z": -2.1880478957,
				"element": "C" 
			},
			{
				"x": 4.3851952848,
				"y": -1.7806496088,
				"z": -2.5029559246,
				"element": "C" 
			},
			{
				"x": 4.4342963291,
				"y": -1.3649179271,
				"z": -3.6522545878,
				"element": "O" 
			},
			{
				"x": 4.4976593569,
				"y": -0.8912311848,
				"z": -1.4485583161,
				"element": "N" 
			},
			{
				"x": 4.488328418,
				"y": -1.107283525,
				"z": -0.0456127271,
				"element": "C" 
			},
			{
				"x": 5.3291654998,
				"y": -2.0702459186,
				"z": 0.528438475,
				"element": "C" 
			},
			{
				"x": 5.3300473498,
				"y": -2.2833103986,
				"z": 1.9056382571,
				"element": "C" 
			},
			{
				"x": 4.5165375909,
				"y": -1.504829639,
				"z": 2.7281417657,
				"element": "C" 
			},
			{
				"x": 3.703925268,
				"y": -0.5237951199,
				"z": 2.1601636305,
				"element": "C" 
			},
			{
				"x": 3.6625746789,
				"y": -0.3092710358,
				"z": 0.7771223675,
				"element": "C" 
			},
			{
				"x": 2.7173432538,
				"y": 0.7271782723,
				"z": 0.2068026672,
				"element": "C" 
			},
			{
				"x": 1.4011429033,
				"y": 0.1183993764,
				"z": -0.3071351242,
				"element": "C" 
			},
			{
				"x": 0.5176353191,
				"y": 1.1660554913,
				"z": -0.8121159034,
				"element": "N" 
			},
			{
				"x": -0.7576511915,
				"y": 0.6893037463,
				"z": -1.3523514114,
				"element": "C" 
			},
			{
				"x": -1.7710882073,
				"y": 0.2414408405,
				"z": -0.2862937833,
				"element": "C" 
			},
			{
				"x": -2.3669918526,
				"y": 1.307052889,
				"z": 0.6224923984,
				"element": "C" 
			},
			{
				"x": -3.4617461486,
				"y": 0.9850504033,
				"z": 1.4644964467,
				"element": "C" 
			},
			{
				"x": -3.9336545595,
				"y": -0.3499371222,
				"z": 1.4569503636,
				"element": "N" 
			},
			{
				"x": -5.0058482273,
				"y": -0.9041338133,
				"z": 2.1237571734,
				"element": "C" 
			},
			{
				"x": -5.1929610166,
				"y": -2.3963035868,
				"z": 1.8741336465,
				"element": "C" 
			},
			{
				"x": -5.761626908,
				"y": -0.2888402755,
				"z": 2.8621047686,
				"element": "O" 
			},
			{
				"x": -4.047013374,
				"y": 1.9671092842,
				"z": 2.277082407,
				"element": "C" 
			},
			{
				"x": -3.5444514188,
				"y": 3.2668880334,
				"z": 2.2643244358,
				"element": "C" 
			},
			{
				"x": -2.4589924356,
				"y": 3.5966650305,
				"z": 1.4567442253,
				"element": "C" 
			},
			{
				"x": -1.8804135682,
				"y": 2.6177080621,
				"z": 0.6478748054,
				"element": "C" 
			},
			{
				"x": 3.6597270666,
				"y": -3.4243038318,
				"z": -1.2457835087,
				"element": "H" 
			},
			{
				"x": 3.6249922563,
				"y": -3.6876479293,
				"z": -3.0175198549,
				"element": "H" 
			},
			{
				"x": 5.1521037482,
				"y": -3.7601173905,
				"z": -2.136376093,
				"element": "H" 
			},
			{
				"x": 4.5405822621,
				"y": 0.0663531977,
				"z": -1.7758237667,
				"element": "H" 
			},
			{
				"x": 5.996594263,
				"y": -2.6375785938,
				"z": -0.1111970151,
				"element": "H" 
			},
			{
				"x": 5.9833595756,
				"y": -3.0383057921,
				"z": 2.3327710094,
				"element": "H" 
			},
			{
				"x": 4.5209167706,
				"y": -1.6515013552,
				"z": 3.8039532381,
				"element": "H" 
			},
			{
				"x": 3.0757414019,
				"y": 0.0905334406,
				"z": 2.800469763,
				"element": "H" 
			},
			{
				"x": 3.1915488556,
				"y": 1.2862090826,
				"z": -0.6114624178,
				"element": "H" 
			},
			{
				"x": 2.4742775311,
				"y": 1.4663974721,
				"z": 0.9762056728,
				"element": "H" 
			},
			{
				"x": 0.907836981,
				"y": -0.3881582087,
				"z": 0.5300442097,
				"element": "H" 
			},
			{
				"x": 1.6197537669,
				"y": -0.6595699383,
				"z": -1.0617869855,
				"element": "H" 
			},
			{
				"x": 1.004404131,
				"y": 1.6754113486,
				"z": -1.5458417634,
				"element": "H" 
			},
			{
				"x": -0.6198924334,
				"y": -0.1576066597,
				"z": -2.0502260033,
				"element": "H" 
			},
			{
				"x": -1.1981969781,
				"y": 1.5069407217,
				"z": -1.9335440127,
				"element": "H" 
			},
			{
				"x": -2.5855817814,
				"y": -0.2463528074,
				"z": -0.8427879365,
				"element": "H" 
			},
			{
				"x": -1.3142903976,
				"y": -0.5563194221,
				"z": 0.3199079441,
				"element": "H" 
			},
			{
				"x": -3.402162919,
				"y": -0.9924287007,
				"z": 0.8925778938,
				"element": "H" 
			},
			{
				"x": -6.2111889298,
				"y": -2.5620457366,
				"z": 1.5127356153,
				"element": "H" 
			},
			{
				"x": -5.0968930179,
				"y": -2.9246392875,
				"z": 2.8269495486,
				"element": "H" 
			},
			{
				"x": -4.4878465495,
				"y": -2.8285439402,
				"z": 1.1582446551,
				"element": "H" 
			},
			{
				"x": -4.8867686411,
				"y": 1.6964293296,
				"z": 2.9006138817,
				"element": "H" 
			},
			{
				"x": -4.0065893695,
				"y": 4.018554176,
				"z": 2.8980922955,
				"element": "H" 
			},
			{
				"x": -2.0584351527,
				"y": 4.606205959,
				"z": 1.454528773,
				"element": "H" 
			},
			{
				"x": -1.0120487168,
				"y": 2.8594102381,
				"z": 0.0471126978,
				"element": "H" 
			}
		],
		 "valence_orbital": [ 
			{
				"type": "occ",
				"energy": -0.24843,
				"method": "rhf"
			},
			{
				"type": "occ",
				"energy": -0.24126,
				"method": "rhf"
			},
			{
				"type": "occ",
				"energy": -0.23288,
				"method": "rhf"
			},
			{
				"type": "occ",
				"energy": -0.22821,
				"method": "rhf"
			},
			{
				"type": "occ",
				"energy": -0.21199,
				"method": "rhf"
			},
			{
				"type": "unocc",
				"energy": -0.01975,
				"method": "rhf"
			},
			{
				"type": "unocc",
				"energy": -0.01455,
				"method": "rhf"
			},
			{
				"type": "unocc",
				"energy": -0.00761,
				"method": "rhf"
			},
			{
				"type": "unocc",
				"energy": 0.00961,
				"method": "rhf"
			},
			{
				"type": "unocc",
				"energy": 0.02862,
				"method": "rhf"
			}
		],
		"cosmo_sigma_profile": { 
			"-0.025": 0.0,
			"-0.024": 0.0,
			"-0.023": 0.0,
			"-0.022": 0.0,
			"-0.021": 0.0,
			"-0.02": 0.0,
			"-0.019": 0.0,
			"-0.018": 0.0,
			"-0.017": 0.0,
			"-0.016": 0.0,
			"-0.015": 0.0,
			"-0.014": 0.107146264254,
			"-0.013": 2.09703615731,
			"-0.012": 2.37974755317,
			"-0.011": 2.54430565242,
			"-0.01": 3.82001112293,
			"-0.009": 4.45021079252,
			"-0.008": 4.81213248375,
			"-0.007": 7.5970370245,
			"-0.006": 16.1489126342,
			"-0.005": 28.2994610626,
			"-0.004": 32.7207617798,
			"-0.003": 38.0654724063,
			"-0.002": 49.2365895981,
			"-0.001": 41.5888534622,
			"0.0": 24.7395170176,
			"0.001": 19.5940265794,
			"0.002": 19.7627046178,
			"0.003": 18.3297813823,
			"0.004": 19.6881550651,
			"0.005": 19.7297499019,
			"0.006": 15.8344312911,
			"0.007": 8.39914944199,
			"0.008": 3.88710472316,
			"0.009": 3.49695534169,
			"0.01": 3.66238008729,
			"0.011": 4.29776265,
			"0.012": 4.52511214842,
			"0.013": 7.47101320324,
			"0.014": 7.51296470913,
			"0.015": 1.61423429815,
			"0.016": 0.0113632617234,
			"0.017": 0.0,
			"0.018": 0.0,
			"0.019": 0.0,
			"0.02": 0.0,
			"0.021": 0.0,
			"0.022": 0.0,
			"0.023": 0.0,
			"0.024": 0.0,
			"0.025": 0.0
		}
	}
}
