{
	 "smiles": "CC(=O)NCCNCC1=CC=CC=C1", 
	 "Tm": 325.15, 
	 "num_atms": 30, 
	 "gaussian": { 
		 "optdone": 1, 
		 "sigma_profile": "yes", 
		 "theory": "DFT", 
		 "functional": "B3LYP", 
		 "basiset": "6-31G**", 
		 "properties": { 
			 "R2extent": 4112.0075, 
			 "electric_dipole_moment_norm": 2.84701323671, 
			 "electric_quadrupole_moment_norm": 15.8154376057, 
			 "total_energy": -613.554912607, 
			 "HOMO_LUMO_gap": 0.21683, 
			 "cosmo_polarized_energy": -15.65, 
			 "cosmo_cavitation_energy": 33.46, 
			 "cosmo_dispersion_energy": -22.97, 
			 "cosmo_repulsion_energy": 1.87, 
			 "cosmo_total_nonelectrostatic_energy": 12.37, 
			 "SMD_solvation_energy": 3.77 
		},
		"coords": [
			{
				"x": -3.0683603111,
				"y": 2.7330781426,
				"z": 1.2759759477,
				"element": "C" 
			},
			{
				"x": -1.7473097053,
				"y": 2.0757537039,
				"z": 1.6508186644,
				"element": "C" 
			},
			{
				"x": -1.6958164049,
				"y": 1.0962979298,
				"z": 2.3841897849,
				"element": "O" 
			},
			{
				"x": -0.6274632701,
				"y": 2.6528729535,
				"z": 1.1133008578,
				"element": "N" 
			},
			{
				"x": 0.7146447554,
				"y": 2.1611021725,
				"z": 1.4071467408,
				"element": "C" 
			},
			{
				"x": 1.2179968347,
				"y": 1.1308403444,
				"z": 0.3916661254,
				"element": "C" 
			},
			{
				"x": 1.290397762,
				"y": 1.719715333,
				"z": -0.9463980814,
				"element": "N" 
			},
			{
				"x": 1.9289307975,
				"y": 0.8704988234,
				"z": -1.9638744505,
				"element": "C" 
			},
			{
				"x": 1.2091103183,
				"y": -0.427756953,
				"z": -2.2970505323,
				"element": "C" 
			},
			{
				"x": 0.139874942,
				"y": -0.4280818699,
				"z": -3.2045515319,
				"element": "C" 
			},
			{
				"x": -0.5617246333,
				"y": -1.5998660667,
				"z": -3.4879033243,
				"element": "C" 
			},
			{
				"x": -0.2021224496,
				"y": -2.7975159962,
				"z": -2.8653865455,
				"element": "C" 
			},
			{
				"x": 0.8629899548,
				"y": -2.813645556,
				"z": -1.9637821801,
				"element": "C" 
			},
			{
				"x": 1.5619666631,
				"y": -1.6374401438,
				"z": -1.6846486107,
				"element": "C" 
			},
			{
				"x": -3.6975019511,
				"y": 1.99433492,
				"z": 0.7718335052,
				"element": "H" 
			},
			{
				"x": -2.9626750929,
				"y": 3.6093392114,
				"z": 0.6297945933,
				"element": "H" 
			},
			{
				"x": -3.5853595799,
				"y": 3.0274007168,
				"z": 2.193237705,
				"element": "H" 
			},
			{
				"x": -0.7236622325,
				"y": 3.4815628968,
				"z": 0.5476531804,
				"element": "H" 
			},
			{
				"x": 1.3948740844,
				"y": 3.0183196959,
				"z": 1.4250819729,
				"element": "H" 
			},
			{
				"x": 0.6837102537,
				"y": 1.7071496706,
				"z": 2.4010568797,
				"element": "H" 
			},
			{
				"x": 2.2323398487,
				"y": 0.8305034667,
				"z": 0.6859556646,
				"element": "H" 
			},
			{
				"x": 0.5851372839,
				"y": 0.2311876319,
				"z": 0.4503499698,
				"element": "H" 
			},
			{
				"x": 0.3413924851,
				"y": 1.9277238858,
				"z": -1.2524094169,
				"element": "H" 
			},
			{
				"x": 2.0260161394,
				"y": 1.474222549,
				"z": -2.8742722086,
				"element": "H" 
			},
			{
				"x": 2.9467268459,
				"y": 0.6515769733,
				"z": -1.6191730869,
				"element": "H" 
			},
			{
				"x": -0.1392018239,
				"y": 0.4994925827,
				"z": -3.7011681339,
				"element": "H" 
			},
			{
				"x": -1.3835069992,
				"y": -1.5810804001,
				"z": -4.198522653,
				"element": "H" 
			},
			{
				"x": -0.7453180007,
				"y": -3.7119846737,
				"z": -3.0857147292,
				"element": "H" 
			},
			{
				"x": 1.1519376566,
				"y": -3.7420349233,
				"z": -1.4790004335,
				"element": "H" 
			},
			{
				"x": 2.3962758288,
				"y": -1.6592670212,
				"z": -0.9874056731,
				"element": "H" 
			}
		],
		 "valence_orbital": [ 
			{
				"type": "occ",
				"energy": -0.25173,
				"method": "rhf"
			},
			{
				"type": "occ",
				"energy": -0.24938,
				"method": "rhf"
			},
			{
				"type": "occ",
				"energy": -0.24535,
				"method": "rhf"
			},
			{
				"type": "occ",
				"energy": -0.2422,
				"method": "rhf"
			},
			{
				"type": "occ",
				"energy": -0.21927,
				"method": "rhf"
			},
			{
				"type": "unocc",
				"energy": -0.00244,
				"method": "rhf"
			},
			{
				"type": "unocc",
				"energy": -0.00076,
				"method": "rhf"
			},
			{
				"type": "unocc",
				"energy": 0.03416,
				"method": "rhf"
			},
			{
				"type": "unocc",
				"energy": 0.06822,
				"method": "rhf"
			},
			{
				"type": "unocc",
				"energy": 0.09105,
				"method": "rhf"
			}
		],
		"cosmo_sigma_profile": { 
			"-0.025": 0.0,
			"-0.024": 0.0,
			"-0.023": 0.0,
			"-0.022": 0.0,
			"-0.021": 0.0,
			"-0.02": 0.0,
			"-0.019": 0.0,
			"-0.018": 0.0,
			"-0.017": 0.0,
			"-0.016": 0.0,
			"-0.015": 0.0,
			"-0.014": 0.547768056855,
			"-0.013": 1.18063303841,
			"-0.012": 1.60828428289,
			"-0.011": 1.21881378168,
			"-0.01": 1.11514298065,
			"-0.009": 1.77403895936,
			"-0.008": 2.99662637467,
			"-0.007": 3.67367277553,
			"-0.006": 6.38206055483,
			"-0.005": 19.908457869,
			"-0.004": 27.2713705438,
			"-0.003": 30.3431772881,
			"-0.002": 25.0111186557,
			"-0.001": 26.6054620331,
			"0.0": 17.2598645776,
			"0.001": 14.9703782208,
			"0.002": 11.9126509407,
			"0.003": 9.65846800269,
			"0.004": 11.0762428842,
			"0.005": 10.1235101431,
			"0.006": 10.1572353822,
			"0.007": 4.17218354241,
			"0.008": 2.38546204443,
			"0.009": 1.72985197116,
			"0.01": 2.40223618638,
			"0.011": 1.80824801776,
			"0.012": 2.52304889082,
			"0.013": 2.19535694303,
			"0.014": 5.54273802237,
			"0.015": 3.51483140411,
			"0.016": 1.16379387974,
			"0.017": 0.325015859807,
			"0.018": 0.0685641820387,
			"0.019": 0.0,
			"0.02": 0.0,
			"0.021": 0.0,
			"0.022": 0.0,
			"0.023": 0.0,
			"0.024": 0.0,
			"0.025": 0.0
		}
	}
}
