{
	 "smiles": "OCCOC1=CC(Br)=CN=C1", 
	 "Tm": 325.15, 
	 "num_atms": 19, 
	 "gaussian": { 
		 "optdone": 1, 
		 "sigma_profile": "yes", 
		 "theory": "DFT", 
		 "functional": "B3LYP", 
		 "basiset": "6-31G**", 
		 "properties": { 
			 "R2extent": 4784.323, 
			 "electric_dipole_moment_norm": 2.16935438553, 
			 "electric_quadrupole_moment_norm": 6.79081570873, 
			 "total_energy": -3048.13976207, 
			 "HOMO_LUMO_gap": 0.20487, 
			 "cosmo_polarized_energy": -10.73, 
			 "cosmo_cavitation_energy": 25.68, 
			 "cosmo_dispersion_energy": -19.36, 
			 "cosmo_repulsion_energy": 1.58, 
			 "cosmo_total_nonelectrostatic_energy": 7.9, 
			 "SMD_solvation_energy": 2.17 
		},
		"coords": [
			{
				"x": 2.1102611923,
				"y": 2.0677428563,
				"z": -2.1481116656,
				"element": "O" 
			},
			{
				"x": 2.3729493462,
				"y": 1.7473754415,
				"z": -0.7970966187,
				"element": "C" 
			},
			{
				"x": 1.0926726213,
				"y": 1.5747052683,
				"z": 0.0044947469,
				"element": "C" 
			},
			{
				"x": 0.403360263,
				"y": 0.4621681828,
				"z": -0.5790815613,
				"element": "O" 
			},
			{
				"x": -0.8203151144,
				"y": 0.116113643,
				"z": -0.0994203887,
				"element": "C" 
			},
			{
				"x": -1.4734703048,
				"y": 0.7471961164,
				"z": 0.9622712169,
				"element": "C" 
			},
			{
				"x": -2.7274605017,
				"y": 0.2565985786,
				"z": 1.3259024818,
				"element": "C" 
			},
			{
				"x": -3.6768859727,
				"y": 1.0706691633,
				"z": 2.7675876243,
				"element": "Br" 
			},
			{
				"x": -3.2910765888,
				"y": -0.8202378791,
				"z": 0.6477566202,
				"element": "C" 
			},
			{
				"x": -2.6549551063,
				"y": -1.4188015966,
				"z": -0.3683227581,
				"element": "N" 
			},
			{
				"x": -1.4585370637,
				"y": -0.9663648779,
				"z": -0.7309608178,
				"element": "C" 
			},
			{
				"x": 1.5559560717,
				"y": 1.3570587021,
				"z": -2.4986097848,
				"element": "H" 
			},
			{
				"x": 2.9813963905,
				"y": 0.8343774359,
				"z": -0.7010985459,
				"element": "H" 
			},
			{
				"x": 2.9477021052,
				"y": 2.5785755985,
				"z": -0.3759648578,
				"element": "H" 
			},
			{
				"x": 0.4741690855,
				"y": 2.4782358384,
				"z": -0.0717342512,
				"element": "H" 
			},
			{
				"x": 1.3123581675,
				"y": 1.3749454867,
				"z": 1.0624815998,
				"element": "H" 
			},
			{
				"x": -1.0387754153,
				"y": 1.5836690667,
				"z": 1.4933375338,
				"element": "H" 
			},
			{
				"x": -4.26691602,
				"y": -1.2067055064,
				"z": 0.9258263086,
				"element": "H" 
			},
			{
				"x": -0.9568331556,
				"y": -1.4654215185,
				"z": -1.5570568826,
				"element": "H" 
			}
		],
		 "valence_orbital": [ 
			{
				"type": "occ",
				"energy": -0.29938,
				"method": "rhf"
			},
			{
				"type": "occ",
				"energy": -0.28092,
				"method": "rhf"
			},
			{
				"type": "occ",
				"energy": -0.27469,
				"method": "rhf"
			},
			{
				"type": "occ",
				"energy": -0.2668,
				"method": "rhf"
			},
			{
				"type": "occ",
				"energy": -0.24286,
				"method": "rhf"
			},
			{
				"type": "unocc",
				"energy": -0.03799,
				"method": "rhf"
			},
			{
				"type": "unocc",
				"energy": -0.01711,
				"method": "rhf"
			},
			{
				"type": "unocc",
				"energy": -0.00251,
				"method": "rhf"
			},
			{
				"type": "unocc",
				"energy": 0.07637,
				"method": "rhf"
			},
			{
				"type": "unocc",
				"energy": 0.09155,
				"method": "rhf"
			}
		],
		"cosmo_sigma_profile": { 
			"-0.025": 0.0,
			"-0.024": 0.0,
			"-0.023": 0.0,
			"-0.022": 0.0,
			"-0.021": 0.0,
			"-0.02": 0.0,
			"-0.019": 0.0,
			"-0.018": 0.0,
			"-0.017": 0.0,
			"-0.016": 0.0,
			"-0.015": 0.0,
			"-0.014": 0.244527958684,
			"-0.013": 0.882575136013,
			"-0.012": 0.514734145473,
			"-0.011": 0.748938029195,
			"-0.01": 0.676085559026,
			"-0.009": 1.34726780383,
			"-0.008": 3.48686100319,
			"-0.007": 7.27130648063,
			"-0.006": 14.4226264948,
			"-0.005": 15.9378586254,
			"-0.004": 14.6656738834,
			"-0.003": 11.9029312557,
			"-0.002": 11.2848562788,
			"-0.001": 12.8841677547,
			"0.0": 20.3625663272,
			"0.001": 21.1763974596,
			"0.002": 12.4033047766,
			"0.003": 13.3498065094,
			"0.004": 14.8524665281,
			"0.005": 4.29370512121,
			"0.006": 3.05876465596,
			"0.007": 3.15415833108,
			"0.008": 2.90424538842,
			"0.009": 1.96656863996,
			"0.01": 1.90484536339,
			"0.011": 2.16827696197,
			"0.012": 2.58086599655,
			"0.013": 2.81463703878,
			"0.014": 2.95079727547,
			"0.015": 1.16240106328,
			"0.016": 0.190640794307,
			"0.017": 0.0,
			"0.018": 0.0,
			"0.019": 0.0,
			"0.02": 0.0,
			"0.021": 0.0,
			"0.022": 0.0,
			"0.023": 0.0,
			"0.024": 0.0,
			"0.025": 0.0
		}
	}
}
