{
	 "smiles": "O=C1NC2=C(C=CC=C2)C=C1C#N", 
	 "Tm": 601.15, 
	 "num_atms": 19, 
	 "gaussian": { 
		 "optdone": 1, 
		 "sigma_profile": "yes", 
		 "theory": "DFT", 
		 "functional": "B3LYP", 
		 "basiset": "6-31G**", 
		 "properties": { 
			 "R2extent": 2535.6301, 
			 "electric_dipole_moment_norm": 8.10085986671, 
			 "electric_quadrupole_moment_norm": 16.6676723936, 
			 "total_energy": -569.410761854, 
			 "HOMO_LUMO_gap": 0.15152, 
			 "cosmo_polarized_energy": -19.51, 
			 "cosmo_cavitation_energy": 24.92, 
			 "cosmo_dispersion_energy": -17.98, 
			 "cosmo_repulsion_energy": 1.4, 
			 "cosmo_total_nonelectrostatic_energy": 8.33, 
			 "SMD_solvation_energy": 6.11 
		},
		"coords": [
			{
				"x": -0.2784822915,
				"y": 1.5019161851,
				"z": 2.7690723748,
				"element": "O" 
			},
			{
				"x": -0.4249061222,
				"y": 1.0012136422,
				"z": 1.6651825024,
				"element": "C" 
			},
			{
				"x": -0.4757820376,
				"y": -0.3849963816,
				"z": 1.5019442497,
				"element": "N" 
			},
			{
				"x": -0.6364859433,
				"y": -1.0728704923,
				"z": 0.3171594104,
				"element": "C" 
			},
			{
				"x": -0.7672205853,
				"y": -0.3278600349,
				"z": -0.8829571468,
				"element": "C" 
			},
			{
				"x": -0.9321101313,
				"y": -1.0189845773,
				"z": -2.1013922342,
				"element": "C" 
			},
			{
				"x": -0.966536291,
				"y": -2.4026852887,
				"z": -2.1313405083,
				"element": "C" 
			},
			{
				"x": -0.8356172183,
				"y": -3.1271442656,
				"z": -0.9331942921,
				"element": "C" 
			},
			{
				"x": -0.6720989158,
				"y": -2.4766204437,
				"z": 0.2813808143,
				"element": "C" 
			},
			{
				"x": -0.7249749064,
				"y": 1.1010686521,
				"z": -0.7967671271,
				"element": "C" 
			},
			{
				"x": -0.5641036157,
				"y": 1.7481376354,
				"z": 0.3969103315,
				"element": "C" 
			},
			{
				"x": -0.5240783449,
				"y": 3.174479177,
				"z": 0.4657861255,
				"element": "C" 
			},
			{
				"x": -0.4957300312,
				"y": 4.3370381889,
				"z": 0.4869818429,
				"element": "N" 
			},
			{
				"x": -0.3809099463,
				"y": -0.9012373655,
				"z": 2.3685131298,
				"element": "H" 
			},
			{
				"x": -1.0318043836,
				"y": -0.4439364945,
				"z": -3.0177585823,
				"element": "H" 
			},
			{
				"x": -1.0936820053,
				"y": -2.9271575822,
				"z": -3.0724191765,
				"element": "H" 
			},
			{
				"x": -0.8623609623,
				"y": -4.2124254934,
				"z": -0.9543938058,
				"element": "H" 
			},
			{
				"x": -0.5714945832,
				"y": -3.0416713254,
				"z": 1.2037308108,
				"element": "H" 
			},
			{
				"x": -0.8242216848,
				"y": 1.6815362645,
				"z": -1.7099387192,
				"element": "H" 
			}
		],
		 "valence_orbital": [ 
			{
				"type": "occ",
				"energy": -0.33047,
				"method": "rhf"
			},
			{
				"type": "occ",
				"energy": -0.32194,
				"method": "rhf"
			},
			{
				"type": "occ",
				"energy": -0.27349,
				"method": "rhf"
			},
			{
				"type": "occ",
				"energy": -0.26486,
				"method": "rhf"
			},
			{
				"type": "occ",
				"energy": -0.24049,
				"method": "rhf"
			},
			{
				"type": "unocc",
				"energy": -0.08897,
				"method": "rhf"
			},
			{
				"type": "unocc",
				"energy": -0.03002,
				"method": "rhf"
			},
			{
				"type": "unocc",
				"energy": -0.0089,
				"method": "rhf"
			},
			{
				"type": "unocc",
				"energy": 0.03334,
				"method": "rhf"
			},
			{
				"type": "unocc",
				"energy": 0.03507,
				"method": "rhf"
			}
		],
		"cosmo_sigma_profile": { 
			"-0.025": 0.0,
			"-0.024": 0.0,
			"-0.023": 0.0,
			"-0.022": 0.0,
			"-0.021": 0.0,
			"-0.02": 0.0,
			"-0.019": 0.0,
			"-0.018": 0.0,
			"-0.017": 0.0196314122353,
			"-0.016": 1.19386901197,
			"-0.015": 1.22865384252,
			"-0.014": 1.50709448109,
			"-0.013": 1.10931747395,
			"-0.012": 0.880778299929,
			"-0.011": 1.12921221056,
			"-0.01": 2.91448187733,
			"-0.009": 4.74355207472,
			"-0.008": 5.3712024422,
			"-0.007": 8.54477100224,
			"-0.006": 11.1844034461,
			"-0.005": 11.1034473086,
			"-0.004": 10.1580839531,
			"-0.003": 13.1592512418,
			"-0.002": 15.6388689308,
			"-0.001": 16.6832268706,
			"0.0": 10.4552565447,
			"0.001": 11.4297652819,
			"0.002": 11.9204924576,
			"0.003": 11.0626147781,
			"0.004": 5.20679339834,
			"0.005": 2.84043710728,
			"0.006": 4.10397667466,
			"0.007": 5.88211998395,
			"0.008": 4.66965796279,
			"0.009": 5.75356913973,
			"0.01": 3.91813599578,
			"0.011": 5.01241383945,
			"0.012": 5.95922609997,
			"0.013": 6.76773057869,
			"0.014": 0.485090490423,
			"0.015": 0.0,
			"0.016": 0.0,
			"0.017": 0.0,
			"0.018": 0.0,
			"0.019": 0.0,
			"0.02": 0.0,
			"0.021": 0.0,
			"0.022": 0.0,
			"0.023": 0.0,
			"0.024": 0.0,
			"0.025": 0.0
		}
	}
}
