{
	 "smiles": "CC1(C)C2CCC1(C)C(=O)C2=CC(O)=O", 
	 "Tm": 379.15, 
	 "num_atms": 31, 
	 "gaussian": { 
		 "optdone": 1, 
		 "sigma_profile": "yes", 
		 "theory": "DFT", 
		 "functional": "B3LYP", 
		 "basiset": "6-31G**", 
		 "properties": { 
			 "R2extent": 3313.8514, 
			 "electric_dipole_moment_norm": 7.63458099178, 
			 "electric_quadrupole_moment_norm": 22.8049438945, 
			 "total_energy": -692.594403938, 
			 "HOMO_LUMO_gap": 0.16159, 
			 "cosmo_polarized_energy": -14.25, 
			 "cosmo_cavitation_energy": 31.31, 
			 "cosmo_dispersion_energy": -22.14, 
			 "cosmo_repulsion_energy": 1.7, 
			 "cosmo_total_nonelectrostatic_energy": 10.86, 
			 "SMD_solvation_energy": 6.9 
		},
		"coords": [
			{
				"x": 2.3208446524,
				"y": -1.3460108332,
				"z": -0.1735182652,
				"element": "C" 
			},
			{
				"x": 1.046578714,
				"y": -1.1366684748,
				"z": -1.01139676,
				"element": "C" 
			},
			{
				"x": 1.0018724531,
				"y": -2.2355799591,
				"z": -2.0843782575,
				"element": "C" 
			},
			{
				"x": 0.9108330422,
				"y": 0.3166502569,
				"z": -1.5799543656,
				"element": "C" 
			},
			{
				"x": -0.5113913295,
				"y": 0.310076814,
				"z": -2.2097512889,
				"element": "C" 
			},
			{
				"x": -1.3229694696,
				"y": -0.5687011758,
				"z": -1.2115291688,
				"element": "C" 
			},
			{
				"x": -0.2653483191,
				"y": -1.0256550639,
				"z": -0.1444673945,
				"element": "C" 
			},
			{
				"x": -0.6922782634,
				"y": -2.1932793019,
				"z": 0.7277313467,
				"element": "C" 
			},
			{
				"x": 0.0215762624,
				"y": 0.260558664,
				"z": 0.6220275085,
				"element": "C" 
			},
			{
				"x": -0.3406618465,
				"y": 0.5099645286,
				"z": 1.7680139831,
				"element": "O" 
			},
			{
				"x": 0.7995687169,
				"y": 1.1422520368,
				"z": -0.3100653761,
				"element": "C" 
			},
			{
				"x": 1.2976292932,
				"y": 2.3778173415,
				"z": -0.1175785525,
				"element": "C" 
			},
			{
				"x": 1.2515345091,
				"y": 3.3035458424,
				"z": 1.0673566948,
				"element": "C" 
			},
			{
				"x": 0.6234952604,
				"y": 2.9305040291,
				"z": 2.1832145138,
				"element": "O" 
			},
			{
				"x": 1.7966844026,
				"y": 4.3861550793,
				"z": 0.9724773948,
				"element": "O" 
			},
			{
				"x": 2.3202384324,
				"y": -2.3376701092,
				"z": 0.2903244195,
				"element": "H" 
			},
			{
				"x": 2.4416439716,
				"y": -0.6075719188,
				"z": 0.6242806035,
				"element": "H" 
			},
			{
				"x": 3.2086339615,
				"y": -1.2837447277,
				"z": -0.8120401339,
				"element": "H" 
			},
			{
				"x": 1.0387146407,
				"y": -3.225430988,
				"z": -1.6177315002,
				"element": "H" 
			},
			{
				"x": 0.1119494066,
				"y": -2.202402896,
				"z": -2.7156121717,
				"element": "H" 
			},
			{
				"x": 1.8757221952,
				"y": -2.1526389467,
				"z": -2.7400883798,
				"element": "H" 
			},
			{
				"x": 1.7061543013,
				"y": 0.6431899721,
				"z": -2.2545666296,
				"element": "H" 
			},
			{
				"x": -0.4925140876,
				"y": -0.1259314926,
				"z": -3.2120906908,
				"element": "H" 
			},
			{
				"x": -0.9129525037,
				"y": 1.3221370744,
				"z": -2.3035845412,
				"element": "H" 
			},
			{
				"x": -1.7509425097,
				"y": -1.4521809443,
				"z": -1.6938399697,
				"element": "H" 
			},
			{
				"x": -2.1531294329,
				"y": -0.0296072651,
				"z": -0.7453257043,
				"element": "H" 
			},
			{
				"x": -0.930065462,
				"y": -3.0702437348,
				"z": 0.1179270353,
				"element": "H" 
			},
			{
				"x": 0.091564951,
				"y": -2.4702406221,
				"z": 1.439087151,
				"element": "H" 
			},
			{
				"x": -1.5802918691,
				"y": -1.930944239,
				"z": 1.3102529608,
				"element": "H" 
			},
			{
				"x": 1.8455660647,
				"y": 2.8382962004,
				"z": -0.9365412309,
				"element": "H" 
			},
			{
				"x": 0.2226398617,
				"y": 2.0271548535,
				"z": 2.1148667693,
				"element": "H" 
			}
		],
		 "valence_orbital": [ 
			{
				"type": "occ",
				"energy": -0.31936,
				"method": "rhf"
			},
			{
				"type": "occ",
				"energy": -0.30008,
				"method": "rhf"
			},
			{
				"type": "occ",
				"energy": -0.28154,
				"method": "rhf"
			},
			{
				"type": "occ",
				"energy": -0.27421,
				"method": "rhf"
			},
			{
				"type": "occ",
				"energy": -0.2578,
				"method": "rhf"
			},
			{
				"type": "unocc",
				"energy": -0.09621,
				"method": "rhf"
			},
			{
				"type": "unocc",
				"energy": 0.00886,
				"method": "rhf"
			},
			{
				"type": "unocc",
				"energy": 0.05627,
				"method": "rhf"
			},
			{
				"type": "unocc",
				"energy": 0.08633,
				"method": "rhf"
			},
			{
				"type": "unocc",
				"energy": 0.09533,
				"method": "rhf"
			}
		],
		"cosmo_sigma_profile": { 
			"-0.025": 0.0,
			"-0.024": 0.0,
			"-0.023": 0.0,
			"-0.022": 0.0,
			"-0.021": 0.0,
			"-0.02": 0.0,
			"-0.019": 0.0,
			"-0.018": 0.0,
			"-0.017": 0.0,
			"-0.016": 0.0,
			"-0.015": 0.0,
			"-0.014": 0.0,
			"-0.013": 0.0,
			"-0.012": 0.0,
			"-0.011": 0.0,
			"-0.01": 0.0,
			"-0.009": 0.0045217532995,
			"-0.008": 0.508474651135,
			"-0.007": 3.13416941589,
			"-0.006": 4.42173152617,
			"-0.005": 12.4136532896,
			"-0.004": 22.6486077976,
			"-0.003": 42.2357272253,
			"-0.002": 35.5755179125,
			"-0.001": 30.2305619467,
			"0.0": 30.0264955409,
			"0.001": 11.7564478452,
			"0.002": 3.74165499197,
			"0.003": 3.71798528076,
			"0.004": 3.60846994823,
			"0.005": 3.06918822483,
			"0.006": 3.96151538882,
			"0.007": 3.27487820648,
			"0.008": 3.60590849074,
			"0.009": 4.8220671161,
			"0.01": 4.3595549087,
			"0.011": 5.05320597918,
			"0.012": 6.58545244648,
			"0.013": 4.49708111943,
			"0.014": 1.22708780106,
			"0.015": 0.0,
			"0.016": 0.0,
			"0.017": 0.0,
			"0.018": 0.0,
			"0.019": 0.0,
			"0.02": 0.0,
			"0.021": 0.0,
			"0.022": 0.0,
			"0.023": 0.0,
			"0.024": 0.0,
			"0.025": 0.0
		}
	}
}
