{
	 "smiles": "CC1=NC2=C(C=CC=C2)C(=O)N1CC(O)=O", 
	 "Tm": 513.15, 
	 "num_atms": 26, 
	 "gaussian": { 
		 "optdone": 1, 
		 "sigma_profile": "yes", 
		 "theory": "DFT", 
		 "functional": "B3LYP", 
		 "basiset": "6-31G**", 
		 "properties": { 
			 "R2extent": 4167.0128, 
			 "electric_dipole_moment_norm": 2.13858391933, 
			 "electric_quadrupole_moment_norm": 13.1093062257, 
			 "total_energy": -760.417401248, 
			 "HOMO_LUMO_gap": 0.18548, 
			 "cosmo_polarized_energy": -16.44, 
			 "cosmo_cavitation_energy": 30.3, 
			 "cosmo_dispersion_energy": -21.93, 
			 "cosmo_repulsion_energy": 1.69, 
			 "cosmo_total_nonelectrostatic_energy": 10.05, 
			 "SMD_solvation_energy": 5.48 
		},
		"coords": [
			{
				"x": 2.3155134816,
				"y": 0.5027970955,
				"z": 1.2551179127,
				"element": "C" 
			},
			{
				"x": 0.9703655162,
				"y": -0.0203401387,
				"z": 0.8279551291,
				"element": "C" 
			},
			{
				"x": 0.7248355318,
				"y": -0.1159671157,
				"z": -0.4401845324,
				"element": "N" 
			},
			{
				"x": -0.5118688559,
				"y": -0.5949209908,
				"z": -0.8413275791,
				"element": "C" 
			},
			{
				"x": -1.5075794521,
				"y": -0.9772080803,
				"z": 0.0829532516,
				"element": "C" 
			},
			{
				"x": -2.7505979125,
				"y": -1.457176595,
				"z": -0.3624259114,
				"element": "C" 
			},
			{
				"x": -3.0028112448,
				"y": -1.5584671144,
				"z": -1.7213684638,
				"element": "C" 
			},
			{
				"x": -2.0142819153,
				"y": -1.1786947387,
				"z": -2.6486984442,
				"element": "C" 
			},
			{
				"x": -0.7851502966,
				"y": -0.702849812,
				"z": -2.2194702501,
				"element": "C" 
			},
			{
				"x": -1.2345951375,
				"y": -0.8656218013,
				"z": 1.5140526715,
				"element": "C" 
			},
			{
				"x": -2.0185156961,
				"y": -1.1600704626,
				"z": 2.4096733638,
				"element": "O" 
			},
			{
				"x": 0.0622924839,
				"y": -0.3805166563,
				"z": 1.8204831627,
				"element": "N" 
			},
			{
				"x": 0.3654271516,
				"y": -0.2345308954,
				"z": 3.2393249372,
				"element": "C" 
			},
			{
				"x": 0.2346098212,
				"y": 1.1710469011,
				"z": 3.8102206375,
				"element": "C" 
			},
			{
				"x": -0.3596987856,
				"y": 2.0375437103,
				"z": 2.9650000072,
				"element": "O" 
			},
			{
				"x": 0.6148074991,
				"y": 1.4659422255,
				"z": 4.9194719672,
				"element": "O" 
			},
			{
				"x": 2.8807517138,
				"y": -0.2412939529,
				"z": 1.8274272857,
				"element": "H" 
			},
			{
				"x": 2.2236722778,
				"y": 1.4012687543,
				"z": 1.8739075139,
				"element": "H" 
			},
			{
				"x": 2.8749792655,
				"y": 0.7497732165,
				"z": 0.353891924,
				"element": "H" 
			},
			{
				"x": -3.4896341711,
				"y": -1.7398845186,
				"z": 0.3797272183,
				"element": "H" 
			},
			{
				"x": -3.9608468926,
				"y": -1.9295797978,
				"z": -2.0722590544,
				"element": "H" 
			},
			{
				"x": -2.2173142961,
				"y": -1.2593829747,
				"z": -3.7129054616,
				"element": "H" 
			},
			{
				"x": -0.0114972069,
				"y": -0.4050199034,
				"z": -2.9193768958,
				"element": "H" 
			},
			{
				"x": -0.3563069268,
				"y": -0.8567842105,
				"z": 3.7752281785,
				"element": "H" 
			},
			{
				"x": 1.3674552236,
				"y": -0.5962938079,
				"z": 3.4727213351,
				"element": "H" 
			},
			{
				"x": -0.4257111763,
				"y": 2.8826316638,
				"z": 3.4414600969,
				"element": "H" 
			}
		],
		 "valence_orbital": [ 
			{
				"type": "occ",
				"energy": -0.28046,
				"method": "rhf"
			},
			{
				"type": "occ",
				"energy": -0.2732,
				"method": "rhf"
			},
			{
				"type": "occ",
				"energy": -0.26871,
				"method": "rhf"
			},
			{
				"type": "occ",
				"energy": -0.26109,
				"method": "rhf"
			},
			{
				"type": "occ",
				"energy": -0.22944,
				"method": "rhf"
			},
			{
				"type": "unocc",
				"energy": -0.04396,
				"method": "rhf"
			},
			{
				"type": "unocc",
				"energy": -0.03579,
				"method": "rhf"
			},
			{
				"type": "unocc",
				"energy": -0.00518,
				"method": "rhf"
			},
			{
				"type": "unocc",
				"energy": 0.02873,
				"method": "rhf"
			},
			{
				"type": "unocc",
				"energy": 0.05902,
				"method": "rhf"
			}
		],
		"cosmo_sigma_profile": { 
			"-0.025": 0.0,
			"-0.024": 0.0,
			"-0.023": 0.0,
			"-0.022": 0.0,
			"-0.021": 0.0,
			"-0.02": 0.0,
			"-0.019": 0.540131649048,
			"-0.018": 1.20189580547,
			"-0.017": 0.595137945968,
			"-0.016": 0.762570930093,
			"-0.015": 0.959383562423,
			"-0.014": 0.4751920736,
			"-0.013": 0.769781348558,
			"-0.012": 1.19408888194,
			"-0.011": 0.686644296304,
			"-0.01": 1.71013513502,
			"-0.009": 3.00439397247,
			"-0.008": 4.17216061511,
			"-0.007": 8.40215794568,
			"-0.006": 14.7081220387,
			"-0.005": 17.0717686275,
			"-0.004": 17.6564827353,
			"-0.003": 16.4959853469,
			"-0.002": 15.4587756195,
			"-0.001": 13.9744286971,
			"0.0": 12.4524131435,
			"0.001": 14.5107544908,
			"0.002": 16.6480332567,
			"0.003": 18.5400179482,
			"0.004": 13.3963106929,
			"0.005": 5.05959892788,
			"0.006": 5.423789331,
			"0.007": 5.0457027396,
			"0.008": 4.32566725882,
			"0.009": 3.69688070464,
			"0.01": 4.54844401629,
			"0.011": 9.03300912909,
			"0.012": 6.48459807219,
			"0.013": 2.37219366306,
			"0.014": 0.632248554838,
			"0.015": 0.0779745897528,
			"0.016": 0.0,
			"0.017": 0.0,
			"0.018": 0.0,
			"0.019": 0.0,
			"0.02": 0.0,
			"0.021": 0.0,
			"0.022": 0.0,
			"0.023": 0.0,
			"0.024": 0.0,
			"0.025": 0.0
		}
	}
}
