{
	 "smiles": "ClC1=NC=CN(C2CC2)C1=O", 
	 "Tm": 364.15, 
	 "num_atms": 18, 
	 "gaussian": { 
		 "optdone": 1, 
		 "sigma_profile": "yes", 
		 "theory": "DFT", 
		 "functional": "B3LYP", 
		 "basiset": "6-31G**", 
		 "properties": { 
			 "R2extent": 2737.1897, 
			 "electric_dipole_moment_norm": 5.72848968228, 
			 "electric_quadrupole_moment_norm": 9.73756859591, 
			 "total_energy": -915.836507183, 
			 "HOMO_LUMO_gap": 0.16574, 
			 "cosmo_polarized_energy": -14.47, 
			 "cosmo_cavitation_energy": 23.87, 
			 "cosmo_dispersion_energy": -17.69, 
			 "cosmo_repulsion_energy": 1.43, 
			 "cosmo_total_nonelectrostatic_energy": 7.6, 
			 "SMD_solvation_energy": 3.02 
		},
		"coords": [
			{
				"x": 1.5076766633,
				"y": -3.946945495,
				"z": 0.8671326112,
				"element": "Cl" 
			},
			{
				"x": 0.5383445013,
				"y": -2.4936961987,
				"z": 0.8813114453,
				"element": "C" 
			},
			{
				"x": -0.7401530217,
				"y": -2.5920939043,
				"z": 0.7607415719,
				"element": "N" 
			},
			{
				"x": -1.4883828989,
				"y": -1.4440000793,
				"z": 0.7756679647,
				"element": "C" 
			},
			{
				"x": -0.9082715025,
				"y": -0.218658729,
				"z": 0.8942573494,
				"element": "C" 
			},
			{
				"x": 0.4550043056,
				"y": -0.1039336855,
				"z": 0.9976859302,
				"element": "N" 
			},
			{
				"x": 1.0957084666,
				"y": 1.1883232207,
				"z": 1.160026312,
				"element": "C" 
			},
			{
				"x": 1.944884535,
				"y": 1.7312001675,
				"z": 0.0484701771,
				"element": "C" 
			},
			{
				"x": 0.6130975705,
				"y": 2.3705942777,
				"z": 0.3612027488,
				"element": "C" 
			},
			{
				"x": 1.299933241,
				"y": -1.2356513645,
				"z": 1.049675658,
				"element": "C" 
			},
			{
				"x": 2.503897102,
				"y": -1.1336501524,
				"z": 1.2158029349,
				"element": "O" 
			},
			{
				"x": -2.5625393912,
				"y": -1.553850828,
				"z": 0.6876095118,
				"element": "H" 
			},
			{
				"x": -1.4714416854,
				"y": 0.7060091171,
				"z": 0.9095170959,
				"element": "H" 
			},
			{
				"x": 1.4436200907,
				"y": 1.3572064801,
				"z": 2.1754385744,
				"element": "H" 
			},
			{
				"x": 2.0138293396,
				"y": 1.1381795632,
				"z": -0.8571173401,
				"element": "H" 
			},
			{
				"x": 2.8611742526,
				"y": 2.2408913737,
				"z": 0.3255302675,
				"element": "H" 
			},
			{
				"x": -0.1902980298,
				"y": 2.2203779111,
				"z": -0.3534235637,
				"element": "H" 
			},
			{
				"x": 0.5904164615,
				"y": 3.3335983257,
				"z": 0.8611707507,
				"element": "H" 
			}
		],
		 "valence_orbital": [ 
			{
				"type": "occ",
				"energy": -0.31015,
				"method": "rhf"
			},
			{
				"type": "occ",
				"energy": -0.30905,
				"method": "rhf"
			},
			{
				"type": "occ",
				"energy": -0.30281,
				"method": "rhf"
			},
			{
				"type": "occ",
				"energy": -0.25708,
				"method": "rhf"
			},
			{
				"type": "occ",
				"energy": -0.23183,
				"method": "rhf"
			},
			{
				"type": "unocc",
				"energy": -0.06609,
				"method": "rhf"
			},
			{
				"type": "unocc",
				"energy": -0.00759,
				"method": "rhf"
			},
			{
				"type": "unocc",
				"energy": 0.0407,
				"method": "rhf"
			},
			{
				"type": "unocc",
				"energy": 0.07868,
				"method": "rhf"
			},
			{
				"type": "unocc",
				"energy": 0.08638,
				"method": "rhf"
			}
		],
		"cosmo_sigma_profile": { 
			"-0.025": 0.0,
			"-0.024": 0.0,
			"-0.023": 0.0,
			"-0.022": 0.0,
			"-0.021": 0.0,
			"-0.02": 0.0,
			"-0.019": 0.0,
			"-0.018": 0.0,
			"-0.017": 0.0,
			"-0.016": 0.0,
			"-0.015": 0.0,
			"-0.014": 0.0,
			"-0.013": 0.0,
			"-0.012": 0.0,
			"-0.011": 0.0391412480503,
			"-0.01": 1.29377771538,
			"-0.009": 2.30550402191,
			"-0.008": 5.41895296353,
			"-0.007": 7.94933225172,
			"-0.006": 14.4157256765,
			"-0.005": 18.2702288964,
			"-0.004": 13.5531993248,
			"-0.003": 13.4540265066,
			"-0.002": 13.3271910377,
			"-0.001": 13.0512094864,
			"0.0": 11.6950827942,
			"0.001": 10.6648228724,
			"0.002": 9.58306821547,
			"0.003": 9.4434183161,
			"0.004": 12.1775443931,
			"0.005": 5.55251158197,
			"0.006": 4.2735738613,
			"0.007": 3.00491267133,
			"0.008": 3.12578640791,
			"0.009": 3.20046031971,
			"0.01": 2.08675381793,
			"0.011": 3.45775119402,
			"0.012": 5.58607371398,
			"0.013": 5.29138393349,
			"0.014": 0.946550088332,
			"0.015": 0.135243966675,
			"0.016": 0.0,
			"0.017": 0.0,
			"0.018": 0.0,
			"0.019": 0.0,
			"0.02": 0.0,
			"0.021": 0.0,
			"0.022": 0.0,
			"0.023": 0.0,
			"0.024": 0.0,
			"0.025": 0.0
		}
	}
}
