{
	 "smiles": "BrC1=CC=C(OCCC#N)C=C1", 
	 "Tm": 350.15, 
	 "num_atms": 20, 
	 "gaussian": { 
		 "optdone": 1, 
		 "sigma_profile": "yes", 
		 "theory": "DFT", 
		 "functional": "B3LYP", 
		 "basiset": "6-31G**", 
		 "properties": { 
			 "R2extent": 10127.8315, 
			 "electric_dipole_moment_norm": 4.21690316465, 
			 "electric_quadrupole_moment_norm": 17.0871160574, 
			 "total_energy": -3049.12950056, 
			 "HOMO_LUMO_gap": 0.20768, 
			 "cosmo_polarized_energy": -14.02, 
			 "cosmo_cavitation_energy": 27.9, 
			 "cosmo_dispersion_energy": -20.16, 
			 "cosmo_repulsion_energy": 1.63, 
			 "cosmo_total_nonelectrostatic_energy": 9.37, 
			 "SMD_solvation_energy": 5.21 
		},
		"coords": [
			{
				"x": 6.6629900659,
				"y": 2.168455468,
				"z": 1.8570649228,
				"element": "Br" 
			},
			{
				"x": 4.9060209385,
				"y": 1.8964482025,
				"z": 1.1542166705,
				"element": "C" 
			},
			{
				"x": 4.305828536,
				"y": 2.8992410107,
				"z": 0.3887659041,
				"element": "C" 
			},
			{
				"x": 3.0287433042,
				"y": 2.7000649339,
				"z": -0.1211407123,
				"element": "C" 
			},
			{
				"x": 2.3458613256,
				"y": 1.5019238817,
				"z": 0.1306252874,
				"element": "C" 
			},
			{
				"x": 1.0925828654,
				"y": 1.4116078988,
				"z": -0.4117106266,
				"element": "O" 
			},
			{
				"x": 0.3606704973,
				"y": 0.211005961,
				"z": -0.2369733495,
				"element": "C" 
			},
			{
				"x": -0.9709595615,
				"y": 0.3808247783,
				"z": -0.97295732,
				"element": "C" 
			},
			{
				"x": -0.8129784017,
				"y": 0.5089580754,
				"z": -2.4245452324,
				"element": "C" 
			},
			{
				"x": -0.6930408955,
				"y": 0.5962742292,
				"z": -3.5750910713,
				"element": "N" 
			},
			{
				"x": 2.9528613397,
				"y": 0.5018182908,
				"z": 0.897042488,
				"element": "C" 
			},
			{
				"x": 4.2384876068,
				"y": 0.7040270843,
				"z": 1.4087748226,
				"element": "C" 
			},
			{
				"x": 4.8337350649,
				"y": 3.8254792524,
				"z": 0.1926800421,
				"element": "H" 
			},
			{
				"x": 2.5418474269,
				"y": 3.4611691805,
				"z": -0.7215259013,
				"element": "H" 
			},
			{
				"x": 0.1592523167,
				"y": 0.0272085108,
				"z": 0.8275625215,
				"element": "H" 
			},
			{
				"x": 0.9154160899,
				"y": -0.6469750097,
				"z": -0.6386053418,
				"element": "H" 
			},
			{
				"x": -1.4838800081,
				"y": 1.270409079,
				"z": -0.5918782207,
				"element": "H" 
			},
			{
				"x": -1.6109762715,
				"y": -0.4837587818,
				"z": -0.7636803481,
				"element": "H" 
			},
			{
				"x": 2.4475892094,
				"y": -0.4335720606,
				"z": 1.1063296322,
				"element": "H" 
			},
			{
				"x": 4.7113485513,
				"y": -0.069709985,
				"z": 2.0028458327,
				"element": "H" 
			}
		],
		 "valence_orbital": [ 
			{
				"type": "occ",
				"energy": -0.3296,
				"method": "rhf"
			},
			{
				"type": "occ",
				"energy": -0.29637,
				"method": "rhf"
			},
			{
				"type": "occ",
				"energy": -0.28748,
				"method": "rhf"
			},
			{
				"type": "occ",
				"energy": -0.26989,
				"method": "rhf"
			},
			{
				"type": "occ",
				"energy": -0.2283,
				"method": "rhf"
			},
			{
				"type": "unocc",
				"energy": -0.02062,
				"method": "rhf"
			},
			{
				"type": "unocc",
				"energy": -0.00755,
				"method": "rhf"
			},
			{
				"type": "unocc",
				"energy": 0.00625,
				"method": "rhf"
			},
			{
				"type": "unocc",
				"energy": 0.02326,
				"method": "rhf"
			},
			{
				"type": "unocc",
				"energy": 0.03256,
				"method": "rhf"
			}
		],
		"cosmo_sigma_profile": { 
			"-0.025": 0.0,
			"-0.024": 0.0,
			"-0.023": 0.0,
			"-0.022": 0.0,
			"-0.021": 0.0,
			"-0.02": 0.0,
			"-0.019": 0.0,
			"-0.018": 0.0,
			"-0.017": 0.0,
			"-0.016": 0.0,
			"-0.015": 0.0,
			"-0.014": 0.0,
			"-0.013": 0.0,
			"-0.012": 0.0,
			"-0.011": 0.0,
			"-0.01": 0.453320333406,
			"-0.009": 4.34211559968,
			"-0.008": 8.97515812511,
			"-0.007": 20.3554153136,
			"-0.006": 17.4904386632,
			"-0.005": 13.2606873992,
			"-0.004": 8.93197861587,
			"-0.003": 9.49584309575,
			"-0.002": 8.01919187875,
			"-0.001": 9.98503024348,
			"0.0": 10.3057510496,
			"0.001": 11.4739729771,
			"0.002": 17.2815441069,
			"0.003": 24.4582151584,
			"0.004": 21.4231000771,
			"0.005": 13.3778304483,
			"0.006": 5.09432804112,
			"0.007": 4.77148750574,
			"0.008": 3.67736108582,
			"0.009": 3.42264368757,
			"0.01": 3.25552053705,
			"0.011": 2.74996698134,
			"0.012": 2.56412553172,
			"0.013": 1.8847251639,
			"0.014": 0.162592059242,
			"0.015": 0.0,
			"0.016": 0.0,
			"0.017": 0.0,
			"0.018": 0.0,
			"0.019": 0.0,
			"0.02": 0.0,
			"0.021": 0.0,
			"0.022": 0.0,
			"0.023": 0.0,
			"0.024": 0.0,
			"0.025": 0.0
		}
	}
}
