{
	 "smiles": "NNC1=NN=C(Cl)C=C1", 
	 "Tm": 410.15, 
	 "num_atms": 14, 
	 "gaussian": { 
		 "optdone": 1, 
		 "sigma_profile": "yes", 
		 "theory": "DFT", 
		 "functional": "B3LYP", 
		 "basiset": "6-31G**", 
		 "properties": { 
			 "R2extent": 1779.1586, 
			 "electric_dipole_moment_norm": 5.22687546724, 
			 "electric_quadrupole_moment_norm": 5.95178762978, 
			 "total_energy": -834.559688323, 
			 "HOMO_LUMO_gap": 0.17335, 
			 "cosmo_polarized_energy": -16.28, 
			 "cosmo_cavitation_energy": 20.53, 
			 "cosmo_dispersion_energy": -15.66, 
			 "cosmo_repulsion_energy": 1.3, 
			 "cosmo_total_nonelectrostatic_energy": 6.17, 
			 "SMD_solvation_energy": 2.04 
		},
		"coords": [
			{
				"x": -0.8113262092,
				"y": 3.2262528847,
				"z": 0.3580644508,
				"element": "N" 
			},
			{
				"x": -0.2015141411,
				"y": 2.23349133,
				"z": -0.4183405147,
				"element": "N" 
			},
			{
				"x": 0.0817918712,
				"y": 0.9703095733,
				"z": 0.0486042613,
				"element": "C" 
			},
			{
				"x": 0.2823756154,
				"y": 0.0471490511,
				"z": -0.9099440561,
				"element": "N" 
			},
			{
				"x": 0.6077086052,
				"y": -1.1980332367,
				"z": -0.5761031685,
				"element": "N" 
			},
			{
				"x": 0.7175068661,
				"y": -1.5252284681,
				"z": 0.6992604382,
				"element": "C" 
			},
			{
				"x": 1.139958593,
				"y": -3.1916356549,
				"z": 1.048625507,
				"element": "Cl" 
			},
			{
				"x": 0.5113297553,
				"y": -0.628565033,
				"z": 1.7584442074,
				"element": "C" 
			},
			{
				"x": 0.1822456631,
				"y": 0.6667053565,
				"z": 1.4248008171,
				"element": "C" 
			},
			{
				"x": -0.127729061,
				"y": 3.6515087598,
				"z": 0.978470417,
				"element": "H" 
			},
			{
				"x": -1.5758426789,
				"y": 2.8466145015,
				"z": 0.9158548755,
				"element": "H" 
			},
			{
				"x": -0.4137798381,
				"y": 2.2787502167,
				"z": -1.4065766204,
				"element": "H" 
			},
			{
				"x": 0.6115019858,
				"y": -0.9505004256,
				"z": 2.788650587,
				"element": "H" 
			},
			{
				"x": 0.0150729733,
				"y": 1.4234811448,
				"z": 2.1829887983,
				"element": "H" 
			}
		],
		 "valence_orbital": [ 
			{
				"type": "occ",
				"energy": -0.31722,
				"method": "rhf"
			},
			{
				"type": "occ",
				"energy": -0.30629,
				"method": "rhf"
			},
			{
				"type": "occ",
				"energy": -0.28737,
				"method": "rhf"
			},
			{
				"type": "occ",
				"energy": -0.24389,
				"method": "rhf"
			},
			{
				"type": "occ",
				"energy": -0.23282,
				"method": "rhf"
			},
			{
				"type": "unocc",
				"energy": -0.05947,
				"method": "rhf"
			},
			{
				"type": "unocc",
				"energy": -0.01895,
				"method": "rhf"
			},
			{
				"type": "unocc",
				"energy": 0.02938,
				"method": "rhf"
			},
			{
				"type": "unocc",
				"energy": 0.05691,
				"method": "rhf"
			},
			{
				"type": "unocc",
				"energy": 0.09784,
				"method": "rhf"
			}
		],
		"cosmo_sigma_profile": { 
			"-0.025": 0.0,
			"-0.024": 0.0,
			"-0.023": 0.0,
			"-0.022": 0.0,
			"-0.021": 0.0,
			"-0.02": 0.0,
			"-0.019": 0.0,
			"-0.018": 0.0,
			"-0.017": 0.0,
			"-0.016": 0.0,
			"-0.015": 0.0,
			"-0.014": 0.0758498508298,
			"-0.013": 0.708221962251,
			"-0.012": 2.60856806049,
			"-0.011": 5.14905699736,
			"-0.01": 6.86946310564,
			"-0.009": 6.59773207384,
			"-0.008": 5.60334489168,
			"-0.007": 7.33062304381,
			"-0.006": 4.79763108851,
			"-0.005": 5.12141988087,
			"-0.004": 4.36701590723,
			"-0.003": 6.77710046556,
			"-0.002": 10.4366994239,
			"-0.001": 12.903191656,
			"0.0": 12.0984535448,
			"0.001": 7.86352317201,
			"0.002": 8.38954424924,
			"0.003": 9.40802736387,
			"0.004": 11.6283404913,
			"0.005": 7.59855399969,
			"0.006": 3.53734927664,
			"0.007": 3.79040812195,
			"0.008": 3.45449323382,
			"0.009": 2.03919257236,
			"0.01": 2.64055420816,
			"0.011": 2.49965513363,
			"0.012": 3.0445753978,
			"0.013": 3.7088626881,
			"0.014": 2.87057009129,
			"0.015": 1.74944035802,
			"0.016": 0.501151154213,
			"0.017": 0.011171845057,
			"0.018": 0.0,
			"0.019": 0.0,
			"0.02": 0.0,
			"0.021": 0.0,
			"0.022": 0.0,
			"0.023": 0.0,
			"0.024": 0.0,
			"0.025": 0.0
		}
	}
}
