{
	 "smiles": "NC1=CC(Cl)=NC=C1Br", 
	 "Tm": 401.15, 
	 "num_atms": 13, 
	 "gaussian": { 
		 "optdone": 1, 
		 "sigma_profile": "yes", 
		 "theory": "DFT", 
		 "functional": "B3LYP", 
		 "basiset": "6-31G**", 
		 "properties": { 
			 "R2extent": 2595.0807, 
			 "electric_dipole_moment_norm": 4.4361141126, 
			 "electric_quadrupole_moment_norm": 7.93847053657, 
			 "total_energy": -3334.0449068, 
			 "HOMO_LUMO_gap": 0.21199, 
			 "cosmo_polarized_energy": -10.96, 
			 "cosmo_cavitation_energy": 21.4, 
			 "cosmo_dispersion_energy": -16.83, 
			 "cosmo_repulsion_energy": 1.38, 
			 "cosmo_total_nonelectrostatic_energy": 5.96, 
			 "SMD_solvation_energy": 0.91 
		},
		"coords": [
			{
				"x": 0.0047327071,
				"y": 0.1890414125,
				"z": -1.6980732976,
				"element": "N" 
			},
			{
				"x": 0.3314739018,
				"y": 0.0454803209,
				"z": -0.3798007088,
				"element": "C" 
			},
			{
				"x": 1.6549442406,
				"y": -0.2045566635,
				"z": 0.0295545408,
				"element": "C" 
			},
			{
				"x": 1.9206082286,
				"y": -0.2990159311,
				"z": 1.3899887556,
				"element": "C" 
			},
			{
				"x": 3.5836952788,
				"y": -0.6114245147,
				"z": 1.8861410039,
				"element": "Cl" 
			},
			{
				"x": 1.0305437846,
				"y": -0.1760064575,
				"z": 2.3609868768,
				"element": "N" 
			},
			{
				"x": -0.2329833793,
				"y": 0.059026838,
				"z": 1.9809418525,
				"element": "C" 
			},
			{
				"x": -0.6226622599,
				"y": 0.1739623032,
				"z": 0.6550962295,
				"element": "C" 
			},
			{
				"x": -2.4563791893,
				"y": 0.4991926553,
				"z": 0.2315028698,
				"element": "Br" 
			},
			{
				"x": 0.658917352,
				"y": -0.1305320315,
				"z": -2.3942955572,
				"element": "H" 
			},
			{
				"x": -0.9720930809,
				"y": 0.1676761608,
				"z": -1.9496259417,
				"element": "H" 
			},
			{
				"x": 2.4478142154,
				"y": -0.3149072118,
				"z": -0.7014607157,
				"element": "H" 
			},
			{
				"x": -0.9705117996,
				"y": 0.1575631195,
				"z": 2.7728440921,
				"element": "H" 
			}
		],
		 "valence_orbital": [ 
			{
				"type": "occ",
				"energy": -0.314,
				"method": "rhf"
			},
			{
				"type": "occ",
				"energy": -0.31169,
				"method": "rhf"
			},
			{
				"type": "occ",
				"energy": -0.27584,
				"method": "rhf"
			},
			{
				"type": "occ",
				"energy": -0.25676,
				"method": "rhf"
			},
			{
				"type": "occ",
				"energy": -0.24083,
				"method": "rhf"
			},
			{
				"type": "unocc",
				"energy": -0.02884,
				"method": "rhf"
			},
			{
				"type": "unocc",
				"energy": -0.01987,
				"method": "rhf"
			},
			{
				"type": "unocc",
				"energy": -0.00555,
				"method": "rhf"
			},
			{
				"type": "unocc",
				"energy": 0.0346,
				"method": "rhf"
			},
			{
				"type": "unocc",
				"energy": 0.06494,
				"method": "rhf"
			}
		],
		"cosmo_sigma_profile": { 
			"-0.025": 0.0,
			"-0.024": 0.0,
			"-0.023": 0.0,
			"-0.022": 0.0,
			"-0.021": 0.0,
			"-0.02": 0.0,
			"-0.019": 0.0,
			"-0.018": 0.0,
			"-0.017": 0.0,
			"-0.016": 0.0,
			"-0.015": 0.697004144065,
			"-0.014": 1.97007108445,
			"-0.013": 1.84017221312,
			"-0.012": 2.31534751972,
			"-0.011": 2.92713540986,
			"-0.01": 3.01491022521,
			"-0.009": 2.20950857273,
			"-0.008": 4.215003585,
			"-0.007": 4.07308379871,
			"-0.006": 3.8274588894,
			"-0.005": 5.26095019034,
			"-0.004": 6.13216315817,
			"-0.003": 6.52071245039,
			"-0.002": 8.22705923112,
			"-0.001": 10.3194069242,
			"0.0": 20.076241304,
			"0.001": 22.8462428286,
			"0.002": 14.6221185411,
			"0.003": 15.8117568237,
			"0.004": 16.3373417673,
			"0.005": 8.16136783932,
			"0.006": 3.86934441696,
			"0.007": 2.45439582547,
			"0.008": 2.11915109859,
			"0.009": 1.83327698711,
			"0.01": 1.17910803268,
			"0.011": 0.981109262737,
			"0.012": 1.25141743218,
			"0.013": 0.984924803353,
			"0.014": 0.861588642138,
			"0.015": 0.506162923207,
			"0.016": 0.0,
			"0.017": 0.0,
			"0.018": 0.0,
			"0.019": 0.0,
			"0.02": 0.0,
			"0.021": 0.0,
			"0.022": 0.0,
			"0.023": 0.0,
			"0.024": 0.0,
			"0.025": 0.0
		}
	}
}
