{
	 "smiles": "COC(=O)C1=CC=C(C=CC2=CC=C(C=C2)C(=O)OC)C=C1", 
	 "Tm": 508.15, 
	 "num_atms": 38, 
	 "gaussian": { 
		 "optdone": 1, 
		 "sigma_profile": "yes", 
		 "theory": "DFT", 
		 "functional": "B3LYP", 
		 "basiset": "6-31G**", 
		 "properties": { 
			 "R2extent": 16001.4847, 
			 "electric_dipole_moment_norm": 3.27885407117, 
			 "electric_quadrupole_moment_norm": 6.51155086135, 
			 "total_energy": -996.475386022, 
			 "HOMO_LUMO_gap": 0.13757, 
			 "cosmo_polarized_energy": -14.64, 
			 "cosmo_cavitation_energy": 44.06, 
			 "cosmo_dispersion_energy": -31.76, 
			 "cosmo_repulsion_energy": 2.39, 
			 "cosmo_total_nonelectrostatic_energy": 14.68, 
			 "SMD_solvation_energy": 10.48 
		},
		"coords": [
			{
				"x": -6.5772947364,
				"y": 1.3528483745,
				"z": -5.2410744175,
				"element": "C" 
			},
			{
				"x": -5.3633910538,
				"y": 0.938878503,
				"z": -4.5967710119,
				"element": "O" 
			},
			{
				"x": -5.1215040614,
				"y": 1.5197066531,
				"z": -3.3978685173,
				"element": "C" 
			},
			{
				"x": -5.8709728252,
				"y": 2.334258166,
				"z": -2.8932970617,
				"element": "O" 
			},
			{
				"x": -3.8508539761,
				"y": 1.0494940527,
				"z": -2.7835299771,
				"element": "C" 
			},
			{
				"x": -3.4867610211,
				"y": 1.5788256715,
				"z": -1.5351971193,
				"element": "C" 
			},
			{
				"x": -2.313880124,
				"y": 1.1785512716,
				"z": -0.91371207,
				"element": "C" 
			},
			{
				"x": -1.4595801311,
				"y": 0.2319760705,
				"z": -1.5184202624,
				"element": "C" 
			},
			{
				"x": -0.2090909104,
				"y": -0.2326476838,
				"z": -0.9164380852,
				"element": "C" 
			},
			{
				"x": 0.3087765591,
				"y": 0.1466049365,
				"z": 0.2711752921,
				"element": "C" 
			},
			{
				"x": 1.5593493317,
				"y": -0.3172294116,
				"z": 0.8737210043,
				"element": "C" 
			},
			{
				"x": 2.4220241144,
				"y": -1.2509331986,
				"z": 0.2621420602,
				"element": "C" 
			},
			{
				"x": 3.5962503118,
				"y": -1.6545232703,
				"z": 0.8821545948,
				"element": "C" 
			},
			{
				"x": 3.949962682,
				"y": -1.1369147455,
				"z": 2.1387547847,
				"element": "C" 
			},
			{
				"x": 3.1041142304,
				"y": -0.2086580112,
				"z": 2.7588816308,
				"element": "C" 
			},
			{
				"x": 1.9301226343,
				"y": 0.1922504558,
				"z": 2.1345597052,
				"element": "C" 
			},
			{
				"x": 5.1955066673,
				"y": -1.5328145273,
				"z": 2.8495892106,
				"element": "C" 
			},
			{
				"x": 5.5338626676,
				"y": -1.1061966537,
				"z": 3.9373018111,
				"element": "O" 
			},
			{
				"x": 5.9274168192,
				"y": -2.4321234552,
				"z": 2.1502565051,
				"element": "O" 
			},
			{
				"x": 7.1437395544,
				"y": -2.8538106987,
				"z": 2.7849626149,
				"element": "C" 
			},
			{
				"x": -1.8390169041,
				"y": -0.2893602596,
				"z": -2.7712880994,
				"element": "C" 
			},
			{
				"x": -3.0141478205,
				"y": 0.1089411205,
				"z": -3.3982823216,
				"element": "C" 
			},
			{
				"x": -6.6158722616,
				"y": 0.7998585653,
				"z": -6.1796180903,
				"element": "H" 
			},
			{
				"x": -7.4442173431,
				"y": 1.1151214628,
				"z": -4.6193439867,
				"element": "H" 
			},
			{
				"x": -6.5659929772,
				"y": 2.4293622256,
				"z": -5.4296363581,
				"element": "H" 
			},
			{
				"x": -4.1443518569,
				"y": 2.306445461,
				"z": -1.07160419,
				"element": "H" 
			},
			{
				"x": -2.0574622097,
				"y": 1.6050472474,
				"z": 0.050572501,
				"element": "H" 
			},
			{
				"x": 0.3334182143,
				"y": -0.9604223614,
				"z": -1.5168318921,
				"element": "H" 
			},
			{
				"x": -0.2349898452,
				"y": 0.8726150317,
				"z": 0.8724492959,
				"element": "H" 
			},
			{
				"x": 2.1727574547,
				"y": -1.6657386164,
				"z": -0.7091525658,
				"element": "H" 
			},
			{
				"x": 4.2488139682,
				"y": -2.3727780861,
				"z": 0.3992460317,
				"element": "H" 
			},
			{
				"x": 3.3870429326,
				"y": 0.184853592,
				"z": 3.7293041134,
				"element": "H" 
			},
			{
				"x": 1.2807902353,
				"y": 0.9130968932,
				"z": 2.6244333204,
				"element": "H" 
			},
			{
				"x": 6.9324041333,
				"y": -3.3280830123,
				"z": 3.746720536,
				"element": "H" 
			},
			{
				"x": 7.6022194443,
				"y": -3.5661493403,
				"z": 2.0990201599,
				"element": "H" 
			},
			{
				"x": 7.8065766161,
				"y": -2.0011516239,
				"z": 2.952937773,
				"element": "H" 
			},
			{
				"x": -1.1956294363,
				"y": -1.0195637221,
				"z": -3.2552322991,
				"element": "H" 
			},
			{
				"x": -3.2887390766,
				"y": -0.3039370764,
				"z": -4.3620846197,
				"element": "H" 
			}
		],
		 "valence_orbital": [ 
			{
				"type": "occ",
				"energy": -0.27367,
				"method": "rhf"
			},
			{
				"type": "occ",
				"energy": -0.27361,
				"method": "rhf"
			},
			{
				"type": "occ",
				"energy": -0.26293,
				"method": "rhf"
			},
			{
				"type": "occ",
				"energy": -0.26272,
				"method": "rhf"
			},
			{
				"type": "occ",
				"energy": -0.21831,
				"method": "rhf"
			},
			{
				"type": "unocc",
				"energy": -0.08074,
				"method": "rhf"
			},
			{
				"type": "unocc",
				"energy": -0.03538,
				"method": "rhf"
			},
			{
				"type": "unocc",
				"energy": -0.01195,
				"method": "rhf"
			},
			{
				"type": "unocc",
				"energy": -0.01003,
				"method": "rhf"
			},
			{
				"type": "unocc",
				"energy": 0.01402,
				"method": "rhf"
			}
		],
		"cosmo_sigma_profile": { 
			"-0.025": 0.0,
			"-0.024": 0.0,
			"-0.023": 0.0,
			"-0.022": 0.0,
			"-0.021": 0.0,
			"-0.02": 0.0,
			"-0.019": 0.0,
			"-0.018": 0.0,
			"-0.017": 0.0,
			"-0.016": 0.0,
			"-0.015": 0.0,
			"-0.014": 0.0,
			"-0.013": 0.0,
			"-0.012": 0.0,
			"-0.011": 0.0,
			"-0.01": 0.0,
			"-0.009": 0.275807122654,
			"-0.008": 3.51775393422,
			"-0.007": 10.3019692871,
			"-0.006": 23.4698030771,
			"-0.005": 28.814216954,
			"-0.004": 27.5027870312,
			"-0.003": 30.3027629966,
			"-0.002": 24.4031307707,
			"-0.001": 19.17053674,
			"0.0": 22.226668795,
			"0.001": 28.5618962233,
			"0.002": 31.3672622581,
			"0.003": 41.4026493182,
			"0.004": 20.1984637486,
			"0.005": 7.51888215859,
			"0.006": 5.71868467406,
			"0.007": 3.52207671331,
			"0.008": 2.77318710037,
			"0.009": 2.93351486545,
			"0.01": 3.44466721609,
			"0.011": 5.46537516233,
			"0.012": 8.97201554223,
			"0.013": 0.954809337873,
			"0.014": 0.0,
			"0.015": 0.0,
			"0.016": 0.0,
			"0.017": 0.0,
			"0.018": 0.0,
			"0.019": 0.0,
			"0.02": 0.0,
			"0.021": 0.0,
			"0.022": 0.0,
			"0.023": 0.0,
			"0.024": 0.0,
			"0.025": 0.0
		}
	}
}
