{
	 "smiles": "CCOC(=O)C(=O)C1=CC2=C(OCCO2)C=C1", 
	 "Tm": 339.15, 
	 "num_atms": 29, 
	 "gaussian": { 
		 "optdone": 1, 
		 "sigma_profile": "yes", 
		 "theory": "DFT", 
		 "functional": "B3LYP", 
		 "basiset": "6-31G**", 
		 "properties": { 
			 "R2extent": 6195.5228, 
			 "electric_dipole_moment_norm": 3.83554290029, 
			 "electric_quadrupole_moment_norm": 17.3783182383, 
			 "total_energy": -840.611657626, 
			 "HOMO_LUMO_gap": 0.15315, 
			 "cosmo_polarized_energy": -13.76, 
			 "cosmo_cavitation_energy": 33.61, 
			 "cosmo_dispersion_energy": -24.87, 
			 "cosmo_repulsion_energy": 1.95, 
			 "cosmo_total_nonelectrostatic_energy": 10.7, 
			 "SMD_solvation_energy": 7.81 
		},
		"coords": [
			{
				"x": -1.1804845829,
				"y": -5.1842206531,
				"z": -3.20014216,
				"element": "C" 
			},
			{
				"x": 0.0480425504,
				"y": -4.4314522213,
				"z": -2.7284421504,
				"element": "C" 
			},
			{
				"x": -0.3356223766,
				"y": -3.045481539,
				"z": -2.548409077,
				"element": "O" 
			},
			{
				"x": 0.6224775741,
				"y": -2.2283999598,
				"z": -2.1000437524,
				"element": "C" 
			},
			{
				"x": 1.7562102947,
				"y": -2.5730526035,
				"z": -1.8314933128,
				"element": "O" 
			},
			{
				"x": 0.1086729638,
				"y": -0.7737898473,
				"z": -2.031207843,
				"element": "C" 
			},
			{
				"x": -0.6352539424,
				"y": -0.3897758304,
				"z": -2.9202354309,
				"element": "O" 
			},
			{
				"x": 0.5555149473,
				"y": 0.0978983706,
				"z": -0.9199761426,
				"element": "C" 
			},
			{
				"x": 1.4140086097,
				"y": -0.3323912176,
				"z": 0.1050831979,
				"element": "C" 
			},
			{
				"x": 1.762185491,
				"y": 0.5345634708,
				"z": 1.1351125171,
				"element": "C" 
			},
			{
				"x": 1.2473239708,
				"y": 1.8447061778,
				"z": 1.1588503119,
				"element": "C" 
			},
			{
				"x": 1.5455757319,
				"y": 2.7219567931,
				"z": 2.1611719903,
				"element": "O" 
			},
			{
				"x": 2.1629280887,
				"y": 2.1286404955,
				"z": 3.3083566806,
				"element": "C" 
			},
			{
				"x": 3.2163198244,
				"y": 1.1224209701,
				"z": 2.8764640496,
				"element": "C" 
			},
			{
				"x": 2.6113015666,
				"y": 0.0785947073,
				"z": 2.1149361257,
				"element": "O" 
			},
			{
				"x": 0.405590498,
				"y": 2.2805672427,
				"z": 0.1283472992,
				"element": "C" 
			},
			{
				"x": 0.0629402583,
				"y": 1.4177222439,
				"z": -0.8995443515,
				"element": "C" 
			},
			{
				"x": -1.5500324468,
				"y": -4.7744618397,
				"z": -4.1440984176,
				"element": "H" 
			},
			{
				"x": -1.9838319081,
				"y": -5.1240794701,
				"z": -2.4605318285,
				"element": "H" 
			},
			{
				"x": -0.9311877121,
				"y": -6.2387589912,
				"z": -3.3540715087,
				"element": "H" 
			},
			{
				"x": 0.4320963279,
				"y": -4.8159090308,
				"z": -1.7781316336,
				"element": "H" 
			},
			{
				"x": 0.8647268035,
				"y": -4.4741137393,
				"z": -3.4557926013,
				"element": "H" 
			},
			{
				"x": 1.8400087709,
				"y": -1.3274373173,
				"z": 0.1024909975,
				"element": "H" 
			},
			{
				"x": 1.3987039808,
				"y": 1.6330241357,
				"z": 3.9211272428,
				"element": "H" 
			},
			{
				"x": 2.6023765978,
				"y": 2.9496641697,
				"z": 3.8799928989,
				"element": "H" 
			},
			{
				"x": 3.9910327568,
				"y": 1.6225659245,
				"z": 2.2791456154,
				"element": "H" 
			},
			{
				"x": 3.685470885,
				"y": 0.6458877238,
				"z": 3.7406103999,
				"element": "H" 
			},
			{
				"x": 0.0280486929,
				"y": 3.2970475503,
				"z": 0.1695571712,
				"element": "H" 
			},
			{
				"x": -0.5958442166,
				"y": 1.7357642847,
				"z": -1.6995262877,
				"element": "H" 
			}
		],
		 "valence_orbital": [ 
			{
				"type": "occ",
				"energy": -0.30843,
				"method": "rhf"
			},
			{
				"type": "occ",
				"energy": -0.30252,
				"method": "rhf"
			},
			{
				"type": "occ",
				"energy": -0.24775,
				"method": "rhf"
			},
			{
				"type": "occ",
				"energy": -0.24191,
				"method": "rhf"
			},
			{
				"type": "occ",
				"energy": -0.22233,
				"method": "rhf"
			},
			{
				"type": "unocc",
				"energy": -0.06918,
				"method": "rhf"
			},
			{
				"type": "unocc",
				"energy": -0.00826,
				"method": "rhf"
			},
			{
				"type": "unocc",
				"energy": 0.0079,
				"method": "rhf"
			},
			{
				"type": "unocc",
				"energy": 0.06861,
				"method": "rhf"
			},
			{
				"type": "unocc",
				"energy": 0.07812,
				"method": "rhf"
			}
		],
		"cosmo_sigma_profile": { 
			"-0.025": 0.0,
			"-0.024": 0.0,
			"-0.023": 0.0,
			"-0.022": 0.0,
			"-0.021": 0.0,
			"-0.02": 0.0,
			"-0.019": 0.0,
			"-0.018": 0.0,
			"-0.017": 0.0,
			"-0.016": 0.0,
			"-0.015": 0.0,
			"-0.014": 0.0,
			"-0.013": 0.0,
			"-0.012": 0.0,
			"-0.011": 0.0,
			"-0.01": 0.0,
			"-0.009": 0.0,
			"-0.008": 1.72151829476,
			"-0.007": 10.6893133887,
			"-0.006": 19.8006052017,
			"-0.005": 23.7424659926,
			"-0.004": 27.2366004275,
			"-0.003": 21.1399562116,
			"-0.002": 16.9532383766,
			"-0.001": 17.8864931885,
			"0.0": 17.8992624693,
			"0.001": 17.5728657718,
			"0.002": 19.1289534878,
			"0.003": 15.3063813324,
			"0.004": 9.17402504583,
			"0.005": 6.87575655443,
			"0.006": 4.60008397401,
			"0.007": 6.37389682853,
			"0.008": 6.55604501256,
			"0.009": 7.25397916154,
			"0.01": 8.11413229441,
			"0.011": 6.69954340819,
			"0.012": 2.09959186066,
			"0.013": 0.557991336646,
			"0.014": 0.0,
			"0.015": 0.0,
			"0.016": 0.0,
			"0.017": 0.0,
			"0.018": 0.0,
			"0.019": 0.0,
			"0.02": 0.0,
			"0.021": 0.0,
			"0.022": 0.0,
			"0.023": 0.0,
			"0.024": 0.0,
			"0.025": 0.0
		}
	}
}
