{
	 "smiles": "OC(=O)C1=CC=C(OC2=CC=C(C=C2)C(O)=O)C=C1", 
	 "Tm": 603.15, 
	 "num_atms": 29, 
	 "gaussian": { 
		 "optdone": 1, 
		 "sigma_profile": "yes", 
		 "theory": "DFT", 
		 "functional": "B3LYP", 
		 "basiset": "6-31G**", 
		 "properties": { 
			 "R2extent": 9023.0238, 
			 "electric_dipole_moment_norm": 3.68304950822, 
			 "electric_quadrupole_moment_norm": 37.5471997401, 
			 "total_energy": -915.655522451, 
			 "HOMO_LUMO_gap": 0.1829, 
			 "cosmo_polarized_energy": -21.18, 
			 "cosmo_cavitation_energy": 35.34, 
			 "cosmo_dispersion_energy": -25.6, 
			 "cosmo_repulsion_energy": 1.95, 
			 "cosmo_total_nonelectrostatic_energy": 11.7, 
			 "SMD_solvation_energy": 8.63 
		},
		"coords": [
			{
				"x": 4.9275719571,
				"y": 2.033592824,
				"z": 2.8154214955,
				"element": "O" 
			},
			{
				"x": 4.5706947189,
				"y": 0.7238366926,
				"z": 2.8109575962,
				"element": "C" 
			},
			{
				"x": 5.2487923567,
				"y": -0.1314069389,
				"z": 3.3461191498,
				"element": "O" 
			},
			{
				"x": 3.2943725169,
				"y": 0.471483577,
				"z": 2.09709449,
				"element": "C" 
			},
			{
				"x": 2.8248766803,
				"y": -0.8482083964,
				"z": 2.0307640461,
				"element": "C" 
			},
			{
				"x": 1.6333885859,
				"y": -1.1397579811,
				"z": 1.3790626616,
				"element": "C" 
			},
			{
				"x": 0.9046204322,
				"y": -0.1050409891,
				"z": 0.784440519,
				"element": "C" 
			},
			{
				"x": -0.2262383972,
				"y": -0.4753236029,
				"z": 0.0873969273,
				"element": "O" 
			},
			{
				"x": -1.3582326044,
				"y": 0.3057282407,
				"z": 0.0765175994,
				"element": "C" 
			},
			{
				"x": -2.1301117869,
				"y": 0.2572021177,
				"z": -1.0876834795,
				"element": "C" 
			},
			{
				"x": -3.3253541366,
				"y": 0.9665453353,
				"z": -1.1485874915,
				"element": "C" 
			},
			{
				"x": -3.7610936494,
				"y": 1.732773285,
				"z": -0.0571600921,
				"element": "C" 
			},
			{
				"x": -2.9861408909,
				"y": 1.7458962103,
				"z": 1.1116558339,
				"element": "C" 
			},
			{
				"x": -1.7888788593,
				"y": 1.0442084896,
				"z": 1.1860840226,
				"element": "C" 
			},
			{
				"x": -5.0399235586,
				"y": 2.5106090555,
				"z": -0.0501565136,
				"element": "C" 
			},
			{
				"x": -5.5931387181,
				"y": 2.7979394796,
				"z": -1.2602350055,
				"element": "O" 
			},
			{
				"x": -5.5838003071,
				"y": 2.8838196387,
				"z": 0.9629836005,
				"element": "O" 
			},
			{
				"x": 1.3640346369,
				"y": 1.2160444631,
				"z": 0.8311380562,
				"element": "C" 
			},
			{
				"x": 2.5560596808,
				"y": 1.4982975573,
				"z": 1.491717052,
				"element": "C" 
			},
			{
				"x": 5.7665520191,
				"y": 2.0759624391,
				"z": 3.3027936785,
				"element": "H" 
			},
			{
				"x": 3.4083675208,
				"y": -1.6314767133,
				"z": 2.50233345,
				"element": "H" 
			},
			{
				"x": 1.2526810581,
				"y": -2.1534711468,
				"z": 1.3175013845,
				"element": "H" 
			},
			{
				"x": -1.7862809701,
				"y": -0.3455628196,
				"z": -1.9211045533,
				"element": "H" 
			},
			{
				"x": -3.9280193875,
				"y": 0.8836401852,
				"z": -2.0498396775,
				"element": "H" 
			},
			{
				"x": -3.3489403066,
				"y": 2.3127100725,
				"z": 1.9622498002,
				"element": "H" 
			},
			{
				"x": -1.1975495829,
				"y": 1.0579225838,
				"z": 2.0946656263,
				"element": "H" 
			},
			{
				"x": -4.971790345,
				"y": 2.591238868,
				"z": -1.971535912,
				"element": "H" 
			},
			{
				"x": 0.7989655527,
				"y": 2.0073605308,
				"z": 0.3514081854,
				"element": "H" 
			},
			{
				"x": 2.9230157844,
				"y": 2.5174369426,
				"z": 1.53239755,
				"element": "H" 
			}
		],
		 "valence_orbital": [ 
			{
				"type": "occ",
				"energy": -0.28194,
				"method": "rhf"
			},
			{
				"type": "occ",
				"energy": -0.2794,
				"method": "rhf"
			},
			{
				"type": "occ",
				"energy": -0.2747,
				"method": "rhf"
			},
			{
				"type": "occ",
				"energy": -0.26968,
				"method": "rhf"
			},
			{
				"type": "occ",
				"energy": -0.24293,
				"method": "rhf"
			},
			{
				"type": "unocc",
				"energy": -0.06003,
				"method": "rhf"
			},
			{
				"type": "unocc",
				"energy": -0.04648,
				"method": "rhf"
			},
			{
				"type": "unocc",
				"energy": -0.03403,
				"method": "rhf"
			},
			{
				"type": "unocc",
				"energy": -0.02085,
				"method": "rhf"
			},
			{
				"type": "unocc",
				"energy": 0.04147,
				"method": "rhf"
			}
		],
		"cosmo_sigma_profile": { 
			"-0.025": 0.0,
			"-0.024": 0.0,
			"-0.023": 0.0,
			"-0.022": 0.0,
			"-0.021": 0.0,
			"-0.02": 0.0,
			"-0.019": 0.502821667956,
			"-0.018": 1.72352198614,
			"-0.017": 1.70588198183,
			"-0.016": 1.67694223842,
			"-0.015": 2.12169068698,
			"-0.014": 1.43798905868,
			"-0.013": 1.28858977155,
			"-0.012": 1.7425139388,
			"-0.011": 2.18696225976,
			"-0.01": 2.23072296298,
			"-0.009": 1.36940181735,
			"-0.008": 3.94075987259,
			"-0.007": 12.0561726712,
			"-0.006": 15.0706332761,
			"-0.005": 14.5712897118,
			"-0.004": 13.0426200872,
			"-0.003": 13.6060466207,
			"-0.002": 17.0232458715,
			"-0.001": 18.9425716407,
			"0.0": 20.3574852253,
			"0.001": 26.0430546903,
			"0.002": 31.07490887,
			"0.003": 18.2896161876,
			"0.004": 6.2169830142,
			"0.005": 6.70240778945,
			"0.006": 6.72035931094,
			"0.007": 5.93465020719,
			"0.008": 4.68680663831,
			"0.009": 5.04512924153,
			"0.01": 6.73581440213,
			"0.011": 8.19557181597,
			"0.012": 9.73062014217,
			"0.013": 1.91307968534,
			"0.014": 0.0911900591302,
			"0.015": 0.0,
			"0.016": 0.0,
			"0.017": 0.0,
			"0.018": 0.0,
			"0.019": 0.0,
			"0.02": 0.0,
			"0.021": 0.0,
			"0.022": 0.0,
			"0.023": 0.0,
			"0.024": 0.0,
			"0.025": 0.0
		}
	}
}
