{
	 "smiles": "OC(=O)C1=CC(F)=C(Br)C=C1", 
	 "Tm": 484.65, 
	 "num_atms": 15, 
	 "gaussian": { 
		 "optdone": 1, 
		 "sigma_profile": "yes", 
		 "theory": "DFT", 
		 "functional": "B3LYP", 
		 "basiset": "6-31G**", 
		 "properties": { 
			 "R2extent": 3468.2643, 
			 "electric_dipole_moment_norm": 2.56507078655, 
			 "electric_quadrupole_moment_norm": 5.13022820058, 
			 "total_energy": -3090.85545704, 
			 "HOMO_LUMO_gap": 0.19203, 
			 "cosmo_polarized_energy": -8.56, 
			 "cosmo_cavitation_energy": 23.05, 
			 "cosmo_dispersion_energy": -17.39, 
			 "cosmo_repulsion_energy": 1.37, 
			 "cosmo_total_nonelectrostatic_energy": 7.04, 
			 "SMD_solvation_energy": 4.65 
		},
		"coords": [
			{
				"x": -2.1784439271,
				"y": -1.966539455,
				"z": -1.9566973529,
				"element": "O" 
			},
			{
				"x": -0.8532371396,
				"y": -1.7669125339,
				"z": -1.7575072647,
				"element": "C" 
			},
			{
				"x": -0.0139119868,
				"y": -2.1163422444,
				"z": -2.5625112749,
				"element": "O" 
			},
			{
				"x": -0.5573501569,
				"y": -1.0876252188,
				"z": -0.466691092,
				"element": "C" 
			},
			{
				"x": 0.7853677344,
				"y": -0.8346647937,
				"z": -0.1631406565,
				"element": "C" 
			},
			{
				"x": 1.1061801277,
				"y": -0.204146545,
				"z": 1.0285446291,
				"element": "C" 
			},
			{
				"x": 2.3929928663,
				"y": 0.0369831412,
				"z": 1.3169544151,
				"element": "F" 
			},
			{
				"x": 0.1089337784,
				"y": 0.1811820291,
				"z": 1.9284830936,
				"element": "C" 
			},
			{
				"x": 0.5887419377,
				"y": 1.0411526233,
				"z": 3.5484369981,
				"element": "Br" 
			},
			{
				"x": -1.2292686328,
				"y": -0.0718102941,
				"z": 1.6241591076,
				"element": "C" 
			},
			{
				"x": -1.5642278781,
				"y": -0.7048681646,
				"z": 0.4294799755,
				"element": "C" 
			},
			{
				"x": -2.2551569099,
				"y": -2.4110945948,
				"z": -2.8168847551,
				"element": "H" 
			},
			{
				"x": 1.5673014157,
				"y": -1.1291420624,
				"z": -0.8536038581,
				"element": "H" 
			},
			{
				"x": -1.9987294468,
				"y": 0.2292025322,
				"z": 2.3258037838,
				"element": "H" 
			},
			{
				"x": -2.6023917823,
				"y": -0.9022744192,
				"z": 0.1911742514,
				"element": "H" 
			}
		],
		 "valence_orbital": [ 
			{
				"type": "occ",
				"energy": -0.32396,
				"method": "rhf"
			},
			{
				"type": "occ",
				"energy": -0.30059,
				"method": "rhf"
			},
			{
				"type": "occ",
				"energy": -0.28872,
				"method": "rhf"
			},
			{
				"type": "occ",
				"energy": -0.27347,
				"method": "rhf"
			},
			{
				"type": "occ",
				"energy": -0.25777,
				"method": "rhf"
			},
			{
				"type": "unocc",
				"energy": -0.06574,
				"method": "rhf"
			},
			{
				"type": "unocc",
				"energy": -0.02396,
				"method": "rhf"
			},
			{
				"type": "unocc",
				"energy": -0.00758,
				"method": "rhf"
			},
			{
				"type": "unocc",
				"energy": 0.04253,
				"method": "rhf"
			},
			{
				"type": "unocc",
				"energy": 0.0697,
				"method": "rhf"
			}
		],
		"cosmo_sigma_profile": { 
			"-0.025": 0.0,
			"-0.024": 0.0,
			"-0.023": 0.0,
			"-0.022": 0.0,
			"-0.021": 0.0,
			"-0.02": 0.0,
			"-0.019": 0.248899160303,
			"-0.018": 0.943372274657,
			"-0.017": 1.04674188528,
			"-0.016": 0.699737325603,
			"-0.015": 0.887223719307,
			"-0.014": 0.513963883188,
			"-0.013": 0.252294694661,
			"-0.012": 0.770345778311,
			"-0.011": 1.06390624737,
			"-0.01": 0.735556340551,
			"-0.009": 0.559439815592,
			"-0.008": 3.66990318328,
			"-0.007": 5.4305852788,
			"-0.006": 5.78659925215,
			"-0.005": 5.84456071072,
			"-0.004": 7.26446827363,
			"-0.003": 9.49968608321,
			"-0.002": 12.8366072935,
			"-0.001": 20.0208581347,
			"0.0": 22.6319521877,
			"0.001": 18.8198986014,
			"0.002": 14.4406789573,
			"0.003": 18.8938623064,
			"0.004": 14.4259913074,
			"0.005": 4.40418993221,
			"0.006": 2.79106555759,
			"0.007": 2.55880846776,
			"0.008": 1.15874678183,
			"0.009": 1.93013523306,
			"0.01": 2.42939508556,
			"0.011": 4.80202677241,
			"0.012": 1.61358477563,
			"0.013": 0.0,
			"0.014": 0.0,
			"0.015": 0.0,
			"0.016": 0.0,
			"0.017": 0.0,
			"0.018": 0.0,
			"0.019": 0.0,
			"0.02": 0.0,
			"0.021": 0.0,
			"0.022": 0.0,
			"0.023": 0.0,
			"0.024": 0.0,
			"0.025": 0.0
		}
	}
}
