{
	 "smiles": "CC1CNC2=C(S1)C=CC=C2", 
	 "Tm": 315.15, 
	 "num_atms": 22, 
	 "gaussian": { 
		 "optdone": 1, 
		 "sigma_profile": "yes", 
		 "theory": "DFT", 
		 "functional": "B3LYP", 
		 "basiset": "6-31G**", 
		 "properties": { 
			 "R2extent": 2627.0958, 
			 "electric_dipole_moment_norm": 2.67942541975, 
			 "electric_quadrupole_moment_norm": 9.80933419351, 
			 "total_energy": -802.531392551, 
			 "HOMO_LUMO_gap": 0.19039, 
			 "cosmo_polarized_energy": -8.54, 
			 "cosmo_cavitation_energy": 25.21, 
			 "cosmo_dispersion_energy": -19.43, 
			 "cosmo_repulsion_energy": 1.5, 
			 "cosmo_total_nonelectrostatic_energy": 7.28, 
			 "SMD_solvation_energy": 2.98 
		},
		"coords": [
			{
				"x": -1.7839090782,
				"y": 0.7396946215,
				"z": 2.7404359575,
				"element": "C" 
			},
			{
				"x": -1.0093283549,
				"y": -0.3352761086,
				"z": 1.9749511069,
				"element": "C" 
			},
			{
				"x": 0.3597025353,
				"y": -0.6500110896,
				"z": 2.5934923438,
				"element": "C" 
			},
			{
				"x": 1.2148863964,
				"y": 0.5267486284,
				"z": 2.5807918208,
				"element": "N" 
			},
			{
				"x": 1.5221983981,
				"y": 1.176288717,
				"z": 1.3823412333,
				"element": "C" 
			},
			{
				"x": 0.6826937373,
				"y": 1.0960763866,
				"z": 0.2488917843,
				"element": "C" 
			},
			{
				"x": -0.7850332815,
				"y": 0.0752790718,
				"z": 0.1894630638,
				"element": "S" 
			},
			{
				"x": 1.0101845365,
				"y": 1.8180570916,
				"z": -0.905225455,
				"element": "C" 
			},
			{
				"x": 2.1546154756,
				"y": 2.6097349604,
				"z": -0.9654960161,
				"element": "C" 
			},
			{
				"x": 2.9845890494,
				"y": 2.6954165832,
				"z": 0.1543948961,
				"element": "C" 
			},
			{
				"x": 2.6680514965,
				"y": 1.9884982532,
				"z": 1.3093651002,
				"element": "C" 
			},
			{
				"x": -1.9545251573,
				"y": 0.4164382079,
				"z": 3.7751295507,
				"element": "H" 
			},
			{
				"x": -2.7546138373,
				"y": 0.9260611126,
				"z": 2.2745495433,
				"element": "H" 
			},
			{
				"x": -1.2260252428,
				"y": 1.6783573405,
				"z": 2.7657958201,
				"element": "H" 
			},
			{
				"x": -1.5889845559,
				"y": -1.2641694527,
				"z": 1.9483293296,
				"element": "H" 
			},
			{
				"x": 0.2185913207,
				"y": -0.9408921684,
				"z": 3.6410066149,
				"element": "H" 
			},
			{
				"x": 0.8044912491,
				"y": -1.5074442135,
				"z": 2.0654441592,
				"element": "H" 
			},
			{
				"x": 1.9909792004,
				"y": 0.482152606,
				"z": 3.2259133813,
				"element": "H" 
			},
			{
				"x": 0.3508626943,
				"y": 1.7529952048,
				"z": -1.7667936791,
				"element": "H" 
			},
			{
				"x": 2.3892475865,
				"y": 3.1568869525,
				"z": -1.8730651868,
				"element": "H" 
			},
			{
				"x": 3.8792940782,
				"y": 3.3106352765,
				"z": 0.1310242855,
				"element": "H" 
			},
			{
				"x": 3.3126317538,
				"y": 2.0573720184,
				"z": 2.1834603459,
				"element": "H" 
			}
		],
		 "valence_orbital": [ 
			{
				"type": "occ",
				"energy": -0.30497,
				"method": "rhf"
			},
			{
				"type": "occ",
				"energy": -0.29208,
				"method": "rhf"
			},
			{
				"type": "occ",
				"energy": -0.27585,
				"method": "rhf"
			},
			{
				"type": "occ",
				"energy": -0.21576,
				"method": "rhf"
			},
			{
				"type": "occ",
				"energy": -0.18512,
				"method": "rhf"
			},
			{
				"type": "unocc",
				"energy": 0.00527,
				"method": "rhf"
			},
			{
				"type": "unocc",
				"energy": 0.0157,
				"method": "rhf"
			},
			{
				"type": "unocc",
				"energy": 0.04068,
				"method": "rhf"
			},
			{
				"type": "unocc",
				"energy": 0.07268,
				"method": "rhf"
			},
			{
				"type": "unocc",
				"energy": 0.07903,
				"method": "rhf"
			}
		],
		"cosmo_sigma_profile": { 
			"-0.025": 0.0,
			"-0.024": 0.0,
			"-0.023": 0.0,
			"-0.022": 0.0,
			"-0.021": 0.0,
			"-0.02": 0.0,
			"-0.019": 0.0,
			"-0.018": 0.0,
			"-0.017": 0.0,
			"-0.016": 0.0,
			"-0.015": 0.0,
			"-0.014": 0.0,
			"-0.013": 0.541505750903,
			"-0.012": 1.41857307708,
			"-0.011": 1.52889016166,
			"-0.01": 1.39783603202,
			"-0.009": 1.34336519107,
			"-0.008": 1.90120491829,
			"-0.007": 1.52581583428,
			"-0.006": 6.57223362529,
			"-0.005": 14.5858334665,
			"-0.004": 17.7954877175,
			"-0.003": 21.0996483964,
			"-0.002": 16.7684798376,
			"-0.001": 13.9818105041,
			"0.0": 13.8601357853,
			"0.001": 12.6424233944,
			"0.002": 8.85020674125,
			"0.003": 10.5370258658,
			"0.004": 9.97088913123,
			"0.005": 13.0730771399,
			"0.006": 13.7225877861,
			"0.007": 10.3720479205,
			"0.008": 3.54640929784,
			"0.009": 2.87037560296,
			"0.01": 0.844970813231,
			"0.011": 0.00780334381114,
			"0.012": 0.0,
			"0.013": 0.0,
			"0.014": 0.0,
			"0.015": 0.0,
			"0.016": 0.0,
			"0.017": 0.0,
			"0.018": 0.0,
			"0.019": 0.0,
			"0.02": 0.0,
			"0.021": 0.0,
			"0.022": 0.0,
			"0.023": 0.0,
			"0.024": 0.0,
			"0.025": 0.0
		}
	}
}
