{
	 "smiles": "OC(=O)C1=CC=C(C=C1)S(=O)(=O)NCC1CCCO1", 
	 "Tm": 443.15, 
	 "num_atms": 34, 
	 "gaussian": { 
		 "optdone": 1, 
		 "sigma_profile": "yes", 
		 "theory": "DFT", 
		 "functional": "B3LYP", 
		 "basiset": "6-31G**", 
		 "properties": { 
			 "R2extent": 7078.7572, 
			 "electric_dipole_moment_norm": 7.27203019589, 
			 "electric_quadrupole_moment_norm": 27.3613343783, 
			 "total_energy": -1295.303089, 
			 "HOMO_LUMO_gap": 0.1847, 
			 "cosmo_polarized_energy": -25.98, 
			 "cosmo_cavitation_energy": 38.73, 
			 "cosmo_dispersion_energy": -27.48, 
			 "cosmo_repulsion_energy": 2.11, 
			 "cosmo_total_nonelectrostatic_energy": 13.36, 
			 "SMD_solvation_energy": 5.83 
		},
		"coords": [
			{
				"x": 3.6436663606,
				"y": 2.8735914429,
				"z": -3.8304352737,
				"element": "O" 
			},
			{
				"x": 4.0710248089,
				"y": 2.2480109185,
				"z": -2.7025408552,
				"element": "C" 
			},
			{
				"x": 5.2310265883,
				"y": 1.9325310493,
				"z": -2.5872292516,
				"element": "O" 
			},
			{
				"x": 3.0405037244,
				"y": 1.9785439667,
				"z": -1.6426695615,
				"element": "C" 
			},
			{
				"x": 1.8284073635,
				"y": 2.6778790138,
				"z": -1.5585480508,
				"element": "C" 
			},
			{
				"x": 0.9154594484,
				"y": 2.3900205268,
				"z": -0.5443257454,
				"element": "C" 
			},
			{
				"x": 1.2231205855,
				"y": 1.3953666967,
				"z": 0.3848316358,
				"element": "C" 
			},
			{
				"x": 2.4408601671,
				"y": 0.7095995151,
				"z": 0.3338451327,
				"element": "C" 
			},
			{
				"x": 3.346831559,
				"y": 1.0076536181,
				"z": -0.6779733818,
				"element": "C" 
			},
			{
				"x": 0.0325874299,
				"y": 0.9994668965,
				"z": 1.6851203237,
				"element": "S" 
			},
			{
				"x": 0.8138804246,
				"y": 0.6257927961,
				"z": 2.8629503802,
				"element": "O" 
			},
			{
				"x": -0.9526707726,
				"y": 2.0829833371,
				"z": 1.6875362596,
				"element": "O" 
			},
			{
				"x": -0.7844835704,
				"y": -0.3823965779,
				"z": 1.2392667132,
				"element": "N" 
			},
			{
				"x": -1.7749365854,
				"y": -0.3998866818,
				"z": 0.1627551564,
				"element": "C" 
			},
			{
				"x": -1.2098443629,
				"y": -0.9238666976,
				"z": -1.1628108792,
				"element": "C" 
			},
			{
				"x": -2.3044260721,
				"y": -1.2959142306,
				"z": -2.1876490236,
				"element": "C" 
			},
			{
				"x": -2.3922238207,
				"y": -2.8281976146,
				"z": -2.067650012,
				"element": "C" 
			},
			{
				"x": -0.9472025888,
				"y": -3.190569445,
				"z": -1.7255682156,
				"element": "C" 
			},
			{
				"x": -0.4882172804,
				"y": -2.1367175127,
				"z": -0.8736295562,
				"element": "O" 
			},
			{
				"x": 2.6781000268,
				"y": 2.9227486451,
				"z": -3.8460125081,
				"element": "H" 
			},
			{
				"x": 1.6001221545,
				"y": 3.4857835074,
				"z": -2.2495716241,
				"element": "H" 
			},
			{
				"x": -0.0118752087,
				"y": 2.9435734234,
				"z": -0.4485293809,
				"element": "H" 
			},
			{
				"x": 2.6794678109,
				"y": -0.0281643971,
				"z": 1.0924137377,
				"element": "H" 
			},
			{
				"x": 4.3055463303,
				"y": 0.5044106819,
				"z": -0.7381277358,
				"element": "H" 
			},
			{
				"x": -0.2045139271,
				"y": -1.2160919295,
				"z": 1.2801735258,
				"element": "H" 
			},
			{
				"x": -2.1809288872,
				"y": 0.6091713859,
				"z": 0.052361836,
				"element": "H" 
			},
			{
				"x": -2.5990115643,
				"y": -1.0485074072,
				"z": 0.4851167418,
				"element": "H" 
			},
			{
				"x": -0.5041377604,
				"y": -0.191505871,
				"z": -1.5763631118,
				"element": "H" 
			},
			{
				"x": -1.9934538024,
				"y": -1.008769047,
				"z": -3.1969818763,
				"element": "H" 
			},
			{
				"x": -3.2551552508,
				"y": -0.7951505453,
				"z": -1.9802430652,
				"element": "H" 
			},
			{
				"x": -2.751314902,
				"y": -3.3103972952,
				"z": -2.9808663952,
				"element": "H" 
			},
			{
				"x": -3.0579054951,
				"y": -3.1163012656,
				"z": -1.2470786354,
				"element": "H" 
			},
			{
				"x": -0.3274891541,
				"y": -3.2423147063,
				"z": -2.6344044977,
				"element": "H" 
			},
			{
				"x": -0.8396137778,
				"y": -4.1340761969,
				"z": -1.1826628058,
				"element": "H" 
			}
		],
		 "valence_orbital": [ 
			{
				"type": "occ",
				"energy": -0.2989,
				"method": "rhf"
			},
			{
				"type": "occ",
				"energy": -0.28932,
				"method": "rhf"
			},
			{
				"type": "occ",
				"energy": -0.28438,
				"method": "rhf"
			},
			{
				"type": "occ",
				"energy": -0.27776,
				"method": "rhf"
			},
			{
				"type": "occ",
				"energy": -0.25972,
				"method": "rhf"
			},
			{
				"type": "unocc",
				"energy": -0.07502,
				"method": "rhf"
			},
			{
				"type": "unocc",
				"energy": -0.03947,
				"method": "rhf"
			},
			{
				"type": "unocc",
				"energy": 0.02152,
				"method": "rhf"
			},
			{
				"type": "unocc",
				"energy": 0.04328,
				"method": "rhf"
			},
			{
				"type": "unocc",
				"energy": 0.06242,
				"method": "rhf"
			}
		],
		"cosmo_sigma_profile": { 
			"-0.025": 0.0,
			"-0.024": 0.0,
			"-0.023": 0.0,
			"-0.022": 0.0,
			"-0.021": 0.0,
			"-0.02": 0.0432914503875,
			"-0.019": 0.71414926588,
			"-0.018": 0.826979904178,
			"-0.017": 1.38122328416,
			"-0.016": 1.02827246716,
			"-0.015": 0.690224879587,
			"-0.014": 1.20422207105,
			"-0.013": 1.0433238292,
			"-0.012": 1.98383300412,
			"-0.011": 2.39992432428,
			"-0.01": 2.35905482633,
			"-0.009": 2.60315076822,
			"-0.008": 4.47993863324,
			"-0.007": 8.95729096969,
			"-0.006": 9.89932096338,
			"-0.005": 17.5685591626,
			"-0.004": 27.066209838,
			"-0.003": 33.5665892451,
			"-0.002": 29.3347034301,
			"-0.001": 22.391761546,
			"0.0": 22.0760341181,
			"0.001": 18.0217870771,
			"0.002": 9.44071985159,
			"0.003": 5.71630754712,
			"0.004": 7.15544525091,
			"0.005": 7.87393242561,
			"0.006": 6.631821471,
			"0.007": 8.30989529337,
			"0.008": 8.10497992964,
			"0.009": 8.02209372752,
			"0.01": 13.720843824,
			"0.011": 14.5898348869,
			"0.012": 6.70574315818,
			"0.013": 0.630181402506,
			"0.014": 0.0,
			"0.015": 0.0,
			"0.016": 0.0,
			"0.017": 0.0,
			"0.018": 0.0,
			"0.019": 0.0,
			"0.02": 0.0,
			"0.021": 0.0,
			"0.022": 0.0,
			"0.023": 0.0,
			"0.024": 0.0,
			"0.025": 0.0
		}
	}
}
