{
	 "smiles": "O=CC1=CN(N=C1C1=CN=CC=C1)C1=CC=CC=C1", 
	 "Tm": 384.15, 
	 "num_atms": 30, 
	 "gaussian": { 
		 "optdone": 1, 
		 "sigma_profile": "yes", 
		 "theory": "DFT", 
		 "functional": "B3LYP", 
		 "basiset": "6-31G**", 
		 "properties": { 
			 "R2extent": 6282.9483, 
			 "electric_dipole_moment_norm": 5.40951720766, 
			 "electric_quadrupole_moment_norm": 11.1381901735, 
			 "total_energy": -817.674775629, 
			 "HOMO_LUMO_gap": 0.16918, 
			 "cosmo_polarized_energy": -14.37, 
			 "cosmo_cavitation_energy": 35.1, 
			 "cosmo_dispersion_energy": -25.55, 
			 "cosmo_repulsion_energy": 1.9, 
			 "cosmo_total_nonelectrostatic_energy": 11.45, 
			 "SMD_solvation_energy": 5.09 
		},
		"coords": [
			{
				"x": -0.0613425977,
				"y": -3.7611362958,
				"z": -0.0134169982,
				"element": "O" 
			},
			{
				"x": -0.5787810854,
				"y": -2.7803335139,
				"z": 0.4967505839,
				"element": "C" 
			},
			{
				"x": -0.2995349258,
				"y": -1.3696959941,
				"z": 0.2434100597,
				"element": "C" 
			},
			{
				"x": -1.0228818033,
				"y": -0.3905909189,
				"z": 0.9161799126,
				"element": "C" 
			},
			{
				"x": -0.5762125438,
				"y": 0.8113259694,
				"z": 0.4973740707,
				"element": "N" 
			},
			{
				"x": 0.4082722612,
				"y": 0.6842566018,
				"z": -0.4308598844,
				"element": "N" 
			},
			{
				"x": 0.6033259997,
				"y": -0.6226737698,
				"z": -0.6060612158,
				"element": "C" 
			},
			{
				"x": 1.6431108841,
				"y": -1.0489647451,
				"z": -1.5621694741,
				"element": "C" 
			},
			{
				"x": 2.4313555766,
				"y": -0.0707158644,
				"z": -2.2036065284,
				"element": "C" 
			},
			{
				"x": 3.3915696615,
				"y": -0.3406534282,
				"z": -3.0883073683,
				"element": "N" 
			},
			{
				"x": 3.6172446742,
				"y": -1.6306891297,
				"z": -3.3798994341,
				"element": "C" 
			},
			{
				"x": 2.9039552101,
				"y": -2.6791563039,
				"z": -2.8043598128,
				"element": "C" 
			},
			{
				"x": 1.9008335193,
				"y": -2.3892980177,
				"z": -1.8809952586,
				"element": "C" 
			},
			{
				"x": -1.0233465753,
				"y": 2.1049596489,
				"z": 0.8901235887,
				"element": "C" 
			},
			{
				"x": -1.6440900508,
				"y": 2.2861186677,
				"z": 2.1302349877,
				"element": "C" 
			},
			{
				"x": -2.0981604498,
				"y": 3.554264778,
				"z": 2.490107562,
				"element": "C" 
			},
			{
				"x": -1.9206616218,
				"y": 4.638934865,
				"z": 1.6297326565,
				"element": "C" 
			},
			{
				"x": -1.2835116447,
				"y": 4.4489347201,
				"z": 0.401495938,
				"element": "C" 
			},
			{
				"x": -0.8351490598,
				"y": 3.1852528366,
				"z": 0.0226872549,
				"element": "C" 
			},
			{
				"x": -1.3752906197,
				"y": -2.9207216405,
				"z": 1.2607012871,
				"element": "H" 
			},
			{
				"x": -1.8281378048,
				"y": -0.4931416486,
				"z": 1.6279343946,
				"element": "H" 
			},
			{
				"x": 2.2653392062,
				"y": 0.978548685,
				"z": -1.9764552963,
				"element": "H" 
			},
			{
				"x": 4.4051744616,
				"y": -1.8273947344,
				"z": -4.1051259374,
				"element": "H" 
			},
			{
				"x": 3.1267663933,
				"y": -3.7074896268,
				"z": -3.0719258859,
				"element": "H" 
			},
			{
				"x": 1.3278252018,
				"y": -3.1797425503,
				"z": -1.4097386339,
				"element": "H" 
			},
			{
				"x": -1.7515215427,
				"y": 1.4558434983,
				"z": 2.8202661102,
				"element": "H" 
			},
			{
				"x": -2.5786911997,
				"y": 3.6936844143,
				"z": 3.4536559718,
				"element": "H" 
			},
			{
				"x": -2.270404455,
				"y": 5.625582745,
				"z": 1.917116398,
				"element": "H" 
			},
			{
				"x": -1.1377682953,
				"y": 5.2878817211,
				"z": -0.2721413088,
				"element": "H" 
			},
			{
				"x": -0.3422867741,
				"y": 3.0203090311,
				"z": -0.9273077392,
				"element": "H" 
			}
		],
		 "valence_orbital": [ 
			{
				"type": "occ",
				"energy": -0.272,
				"method": "rhf"
			},
			{
				"type": "occ",
				"energy": -0.26087,
				"method": "rhf"
			},
			{
				"type": "occ",
				"energy": -0.25811,
				"method": "rhf"
			},
			{
				"type": "occ",
				"energy": -0.24412,
				"method": "rhf"
			},
			{
				"type": "occ",
				"energy": -0.22985,
				"method": "rhf"
			},
			{
				"type": "unocc",
				"energy": -0.06067,
				"method": "rhf"
			},
			{
				"type": "unocc",
				"energy": -0.04878,
				"method": "rhf"
			},
			{
				"type": "unocc",
				"energy": -0.02279,
				"method": "rhf"
			},
			{
				"type": "unocc",
				"energy": -0.01281,
				"method": "rhf"
			},
			{
				"type": "unocc",
				"energy": -0.00076,
				"method": "rhf"
			}
		],
		"cosmo_sigma_profile": { 
			"-0.025": 0.0,
			"-0.024": 0.0,
			"-0.023": 0.0,
			"-0.022": 0.0,
			"-0.021": 0.0,
			"-0.02": 0.0,
			"-0.019": 0.0,
			"-0.018": 0.0,
			"-0.017": 0.0,
			"-0.016": 0.0,
			"-0.015": 0.0,
			"-0.014": 0.0,
			"-0.013": 0.0,
			"-0.012": 0.109059208651,
			"-0.011": 2.57746262732,
			"-0.01": 3.15405436833,
			"-0.009": 2.94210847313,
			"-0.008": 3.76582105526,
			"-0.007": 8.20790077764,
			"-0.006": 16.4828235026,
			"-0.005": 19.3509548462,
			"-0.004": 17.2061798161,
			"-0.003": 15.8837453059,
			"-0.002": 16.3472144135,
			"-0.001": 21.6557381749,
			"0.0": 23.9195642864,
			"0.001": 27.1475982539,
			"0.002": 27.8791325989,
			"0.003": 21.4291860212,
			"0.004": 18.4908447003,
			"0.005": 8.80835555525,
			"0.006": 3.9604405113,
			"0.007": 3.30964284228,
			"0.008": 5.10155463284,
			"0.009": 3.09080239842,
			"0.01": 3.17690656407,
			"0.011": 3.11290255133,
			"0.012": 2.65515555489,
			"0.013": 1.36243232606,
			"0.014": 0.931855626945,
			"0.015": 0.919000584107,
			"0.016": 0.888695971243,
			"0.017": 0.314534164077,
			"0.018": 0.0,
			"0.019": 0.0,
			"0.02": 0.0,
			"0.021": 0.0,
			"0.022": 0.0,
			"0.023": 0.0,
			"0.024": 0.0,
			"0.0": 0.0
		}
	}
}
