{
	 "smiles": "ClC1=NC=C(C=C1)C(=O)N1CCC2=C1C=CC=C2", 
	 "Tm": 406.15, 
	 "num_atms": 29, 
	 "gaussian": { 
		 "optdone": 1, 
		 "sigma_profile": "yes", 
		 "theory": "DFT", 
		 "functional": "B3LYP", 
		 "basiset": "6-31G**", 
		 "properties": { 
			 "R2extent": 7493.5142, 
			 "electric_dipole_moment_norm": 3.32121324368, 
			 "electric_quadrupole_moment_norm": 16.6305426694, 
			 "total_energy": -1185.04844441, 
			 "HOMO_LUMO_gap": 0.16125, 
			 "cosmo_polarized_energy": -11.88, 
			 "cosmo_cavitation_energy": 34.57, 
			 "cosmo_dispersion_energy": -25.04, 
			 "cosmo_repulsion_energy": 1.93, 
			 "cosmo_total_nonelectrostatic_energy": 11.47, 
			 "SMD_solvation_energy": 3.85 
		},
		"coords": [
			{
				"x": 4.3058728601,
				"y": 1.1268519446,
				"z": -5.3024622947,
				"element": "Cl" 
			},
			{
				"x": 2.9124923927,
				"y": 0.8205217271,
				"z": -4.2721963965,
				"element": "C" 
			},
			{
				"x": 3.1428726482,
				"y": 0.1853849822,
				"z": -3.1371211784,
				"element": "N" 
			},
			{
				"x": 2.0948503711,
				"y": -0.03746528,
				"z": -2.3331221256,
				"element": "C" 
			},
			{
				"x": 0.7892808102,
				"y": 0.3615315321,
				"z": -2.6380589047,
				"element": "C" 
			},
			{
				"x": 0.5745367682,
				"y": 0.9960494419,
				"z": -3.8694885012,
				"element": "C" 
			},
			{
				"x": 1.6534313832,
				"y": 1.2509889009,
				"z": -4.7052360391,
				"element": "C" 
			},
			{
				"x": -0.4013877493,
				"y": -0.0087818056,
				"z": -1.8054246697,
				"element": "C" 
			},
			{
				"x": -1.4372655193,
				"y": -0.3759898548,
				"z": -2.3562338949,
				"element": "O" 
			},
			{
				"x": -0.2978815545,
				"y": -0.0193271518,
				"z": -0.4317840997,
				"element": "N" 
			},
			{
				"x": -1.3787894163,
				"y": -0.6748755101,
				"z": 0.3412656737,
				"element": "C" 
			},
			{
				"x": -0.7950409185,
				"y": -0.7883206372,
				"z": 1.7638350768,
				"element": "C" 
			},
			{
				"x": 0.2479428645,
				"y": 0.3070223265,
				"z": 1.7808261873,
				"element": "C" 
			},
			{
				"x": 0.5204513301,
				"y": 0.7188655772,
				"z": 0.4650856568,
				"element": "C" 
			},
			{
				"x": 1.4215792125,
				"y": 1.7548166316,
				"z": 0.2132787445,
				"element": "C" 
			},
			{
				"x": 2.0786699568,
				"y": 2.3388555554,
				"z": 1.3020272937,
				"element": "C" 
			},
			{
				"x": 1.833498893,
				"y": 1.9173914394,
				"z": 2.609542732,
				"element": "C" 
			},
			{
				"x": 0.9052152061,
				"y": 0.8975717177,
				"z": 2.8516268653,
				"element": "C" 
			},
			{
				"x": 2.3107344193,
				"y": -0.5684922449,
				"z": -1.4099059696,
				"element": "H" 
			},
			{
				"x": -0.4354052185,
				"y": 1.269914079,
				"z": -4.1563830657,
				"element": "H" 
			},
			{
				"x": 1.535263723,
				"y": 1.7501808181,
				"z": -5.6593408475,
				"element": "H" 
			},
			{
				"x": -2.2758451386,
				"y": -0.0446456241,
				"z": 0.3205186723,
				"element": "H" 
			},
			{
				"x": -1.631308248,
				"y": -1.629080155,
				"z": -0.1217103112,
				"element": "H" 
			},
			{
				"x": -1.5624553309,
				"y": -0.6643200424,
				"z": 2.5328412445,
				"element": "H" 
			},
			{
				"x": -0.3306377425,
				"y": -1.770908588,
				"z": 1.9200150348,
				"element": "H" 
			},
			{
				"x": 1.6081993476,
				"y": 2.1170551457,
				"z": -0.7891094712,
				"element": "H" 
			},
			{
				"x": 2.7832637209,
				"y": 3.1443735454,
				"z": 1.1175629405,
				"element": "H" 
			},
			{
				"x": 2.3512544194,
				"y": 2.3890561272,
				"z": 3.4388905984,
				"element": "H" 
			},
			{
				"x": 0.6931065095,
				"y": 0.5764754018,
				"z": 3.8679610491,
				"element": "H" 
			}
		],
		 "valence_orbital": [ 
			{
				"type": "occ",
				"energy": -0.28693,
				"method": "rhf"
			},
			{
				"type": "occ",
				"energy": -0.27007,
				"method": "rhf"
			},
			{
				"type": "occ",
				"energy": -0.25876,
				"method": "rhf"
			},
			{
				"type": "occ",
				"energy": -0.25617,
				"method": "rhf"
			},
			{
				"type": "occ",
				"energy": -0.21918,
				"method": "rhf"
			},
			{
				"type": "unocc",
				"energy": -0.05793,
				"method": "rhf"
			},
			{
				"type": "unocc",
				"energy": -0.04222,
				"method": "rhf"
			},
			{
				"type": "unocc",
				"energy": -0.0115,
				"method": "rhf"
			},
			{
				"type": "unocc",
				"energy": -0.00708,
				"method": "rhf"
			},
			{
				"type": "unocc",
				"energy": 0.03025,
				"method": "rhf"
			}
		],
		"cosmo_sigma_profile": { 
			"-0.025": 0.0,
			"-0.024": 0.0,
			"-0.023": 0.0,
			"-0.022": 0.0,
			"-0.021": 0.0,
			"-0.02": 0.0,
			"-0.019": 0.0,
			"-0.018": 0.0,
			"-0.017": 0.0,
			"-0.016": 0.0,
			"-0.015": 0.0,
			"-0.014": 0.0,
			"-0.013": 0.0,
			"-0.012": 0.0,
			"-0.011": 0.0,
			"-0.01": 0.0,
			"-0.009": 0.926833294895,
			"-0.008": 3.63578715689,
			"-0.007": 5.6145055748,
			"-0.006": 11.0687963396,
			"-0.005": 23.2870288783,
			"-0.004": 28.4994839021,
			"-0.003": 26.2853348897,
			"-0.002": 24.2739163427,
			"-0.001": 26.4728451177,
			"0.0": 20.3355582439,
			"0.001": 15.8075524437,
			"0.002": 14.4716363229,
			"0.003": 16.1203151815,
			"0.004": 18.3481771045,
			"0.005": 13.5538940152,
			"0.006": 6.90004691992,
			"0.007": 4.04037248071,
			"0.008": 1.84596285761,
			"0.009": 2.01963258717,
			"0.01": 3.19880728341,
			"0.011": 2.73712816124,
			"0.012": 4.41606308964,
			"0.013": 4.68794244339,
			"0.014": 0.952137976639,
			"0.015": 0.0,
			"0.016": 0.0,
			"0.017": 0.0,
			"0.018": 0.0,
			"0.019": 0.0,
			"0.02": 0.0,
			"0.021": 0.0,
			"0.022": 0.0,
			"0.023": 0.0,
			"0.024": 0.0,
			"0.025": 0.0
		}
	}
}
