{
	 "smiles": "CC1(C)CC(CN2C(=O)C=CC2=O)C(C)(C)N1O", 
	 "Tm": 422.15, 
	 "num_atms": 38, 
	 "gaussian": { 
		 "optdone": 1, 
		 "sigma_profile": "yes", 
		 "theory": "DFT", 
		 "functional": "B3LYP", 
		 "basiset": "6-31G**", 
		 "properties": { 
			 "R2extent": 5375.7161, 
			 "electric_dipole_moment_norm": 1.05151759852, 
			 "electric_quadrupole_moment_norm": 19.5443585495, 
			 "total_energy": -842.565281396, 
			 "HOMO_LUMO_gap": 0.11934, 
			 "cosmo_polarized_energy": -13.21, 
			 "cosmo_cavitation_energy": 37.62, 
			 "cosmo_dispersion_energy": -25.46, 
			 "cosmo_repulsion_energy": 1.92, 
			 "cosmo_total_nonelectrostatic_energy": 14.08, 
			 "SMD_solvation_energy": 7.12 
		},
		"coords": [
			{
				"x": 2.5452254793,
				"y": 2.0063137073,
				"z": -1.1711919499,
				"element": "C" 
			},
			{
				"x": 1.692929129,
				"y": 1.1919344003,
				"z": -0.1819537908,
				"element": "C" 
			},
			{
				"x": 2.1707200764,
				"y": 1.4993972006,
				"z": 1.2447420101,
				"element": "C" 
			},
			{
				"x": 1.765774608,
				"y": -0.3401847548,
				"z": -0.4625845293,
				"element": "C" 
			},
			{
				"x": 0.305068228,
				"y": -0.8205408976,
				"z": -0.4452509059,
				"element": "C" 
			},
			{
				"x": 0.1602847323,
				"y": -2.1912129768,
				"z": -1.1220791732,
				"element": "C" 
			},
			{
				"x": -1.1284377814,
				"y": -2.8493136158,
				"z": -0.9153766311,
				"element": "N" 
			},
			{
				"x": -1.4786807101,
				"y": -3.5300657076,
				"z": 0.2559437415,
				"element": "C" 
			},
			{
				"x": -0.7930331033,
				"y": -3.6180404672,
				"z": 1.2543489335,
				"element": "O" 
			},
			{
				"x": -2.8375045561,
				"y": -4.1231081319,
				"z": 0.0054684535,
				"element": "C" 
			},
			{
				"x": -3.2121012073,
				"y": -3.8162399166,
				"z": -1.2398300596,
				"element": "C" 
			},
			{
				"x": -2.125497988,
				"y": -2.9980493385,
				"z": -1.8811274189,
				"element": "C" 
			},
			{
				"x": -2.1003850532,
				"y": -2.5487487046,
				"z": -3.0111025548,
				"element": "O" 
			},
			{
				"x": -0.4569769933,
				"y": 0.4040786699,
				"z": -1.0333984876,
				"element": "C" 
			},
			{
				"x": -0.2837589034,
				"y": 0.5347675703,
				"z": -2.5611123238,
				"element": "C" 
			},
			{
				"x": -1.9572307267,
				"y": 0.4296226886,
				"z": -0.7187708573,
				"element": "C" 
			},
			{
				"x": 0.2386627818,
				"y": 1.5790064606,
				"z": -0.3938778769,
				"element": "N" 
			},
			{
				"x": -0.3720916988,
				"y": 1.7980838571,
				"z": 0.9052561044,
				"element": "O" 
			},
			{
				"x": 3.5967462814,
				"y": 1.703316118,
				"z": -1.1081056053,
				"element": "H" 
			},
			{
				"x": 2.2152317554,
				"y": 1.8704970735,
				"z": -2.2036299976,
				"element": "H" 
			},
			{
				"x": 2.4816338755,
				"y": 3.0739271339,
				"z": -0.9391107194,
				"element": "H" 
			},
			{
				"x": 3.2416499902,
				"y": 1.2783899472,
				"z": 1.3080494593,
				"element": "H" 
			},
			{
				"x": 1.6474814959,
				"y": 0.8992726137,
				"z": 1.9910354503,
				"element": "H" 
			},
			{
				"x": 2.0239149273,
				"y": 2.5523841013,
				"z": 1.4974042984,
				"element": "H" 
			},
			{
				"x": 2.3752918701,
				"y": -0.8598626107,
				"z": 0.2832287799,
				"element": "H" 
			},
			{
				"x": 2.223309475,
				"y": -0.5386857585,
				"z": -1.4399762052,
				"element": "H" 
			},
			{
				"x": -0.0122668074,
				"y": -0.9285246774,
				"z": 0.5992563751,
				"element": "H" 
			},
			{
				"x": 0.9258666973,
				"y": -2.8626940679,
				"z": -0.7198841612,
				"element": "H" 
			},
			{
				"x": 0.3055358508,
				"y": -2.1204645483,
				"z": -2.2028414644,
				"element": "H" 
			},
			{
				"x": -3.358737834,
				"y": -4.6967697931,
				"z": 0.760435706,
				"element": "H" 
			},
			{
				"x": -4.1200019415,
				"y": -4.0723836739,
				"z": -1.7697871113,
				"element": "H" 
			},
			{
				"x": -0.6584359724,
				"y": 1.5098131167,
				"z": -2.8846035208,
				"element": "H" 
			},
			{
				"x": -0.851964576,
				"y": -0.2442099533,
				"z": -3.0770168957,
				"element": "H" 
			},
			{
				"x": 0.7572758265,
				"y": 0.4568232687,
				"z": -2.8836177809,
				"element": "H" 
			},
			{
				"x": -2.3779789437,
				"y": 1.4095000716,
				"z": -0.9679396139,
				"element": "H" 
			},
			{
				"x": -2.1577728629,
				"y": 0.2320405423,
				"z": 0.3346222391,
				"element": "H" 
			},
			{
				"x": -2.4765008614,
				"y": -0.3126514631,
				"z": -1.3299824384,
				"element": "H" 
			},
			{
				"x": -0.7163445595,
				"y": 2.6949825159,
				"z": 0.8105605224,
				"element": "H" 
			}
		],
		 "valence_orbital": [ 
			{
				"type": "occ",
				"energy": -0.29602,
				"method": "rhf"
			},
			{
				"type": "occ",
				"energy": -0.2749,
				"method": "rhf"
			},
			{
				"type": "occ",
				"energy": -0.27249,
				"method": "rhf"
			},
			{
				"type": "occ",
				"energy": -0.26948,
				"method": "rhf"
			},
			{
				"type": "occ",
				"energy": -0.21674,
				"method": "rhf"
			},
			{
				"type": "unocc",
				"energy": -0.0974,
				"method": "rhf"
			},
			{
				"type": "unocc",
				"energy": 0.05234,
				"method": "rhf"
			},
			{
				"type": "unocc",
				"energy": 0.06357,
				"method": "rhf"
			},
			{
				"type": "unocc",
				"energy": 0.0693,
				"method": "rhf"
			},
			{
				"type": "unocc",
				"energy": 0.08788,
				"method": "rhf"
			}
		],
		"cosmo_sigma_profile": { 
			"-0.025": 0.0,
			"-0.024": 0.0,
			"-0.023": 0.0,
			"-0.022": 0.0,
			"-0.021": 0.0,
			"-0.02": 0.0,
			"-0.019": 0.0,
			"-0.018": 0.0,
			"-0.017": 0.0,
			"-0.016": 0.0675580351135,
			"-0.015": 0.588359259191,
			"-0.014": 0.782964049273,
			"-0.013": 0.876481912778,
			"-0.012": 0.686981777629,
			"-0.011": 0.798283892712,
			"-0.01": 1.64520965569,
			"-0.009": 4.3662641254,
			"-0.008": 3.78913287807,
			"-0.007": 4.14098706581,
			"-0.006": 4.17232031016,
			"-0.005": 9.73496871328,
			"-0.004": 17.9498121726,
			"-0.003": 32.9977133986,
			"-0.002": 39.0585481227,
			"-0.001": 31.6393913207,
			"0.0": 30.255373073,
			"0.001": 32.3896175154,
			"0.002": 16.3333152322,
			"0.003": 6.91207548314,
			"0.004": 7.8931671551,
			"0.005": 5.8389101418,
			"0.006": 4.33266882646,
			"0.007": 4.42145957394,
			"0.008": 5.35667115227,
			"0.009": 5.23520605217,
			"0.01": 7.51889806009,
			"0.011": 8.73592083986,
			"0.012": 3.57619963421,
			"0.013": 0.451434238176,
			"0.014": 0.517270794644,
			"0.015": 0.0701527238576,
			"0.016": 0.0,
			"0.017": 0.0,
			"0.018": 0.0,
			"0.019": 0.0,
			"0.02": 0.0,
			"0.021": 0.0,
			"0.022": 0.0,
			"0.023": 0.0,
			"0.024": 0.0,
			"0.025": 0.0
		}
	}
}
