{
	 "smiles": "CC1CNC2=C(C(=O)N(C3=CC=CC=C3)C3=CC=CC=C23)C(C)=N1", 
	 "Tm": 546.15, 
	 "num_atms": 43, 
	 "gaussian": { 
		 "optdone": 1, 
		 "sigma_profile": "yes", 
		 "theory": "DFT", 
		 "functional": "B3LYP", 
		 "basiset": "6-31G**", 
		 "properties": { 
			 "R2extent": 7766.4098, 
			 "electric_dipole_moment_norm": 5.66397469362, 
			 "electric_quadrupole_moment_norm": 15.8244636241, 
			 "total_energy": -1013.06558004, 
			 "HOMO_LUMO_gap": 0.15448, 
			 "cosmo_polarized_energy": -19.69, 
			 "cosmo_cavitation_energy": 43.94, 
			 "cosmo_dispersion_energy": -30.78, 
			 "cosmo_repulsion_energy": 2.33, 
			 "cosmo_total_nonelectrostatic_energy": 15.49, 
			 "SMD_solvation_energy": 4.66 
		},
		"coords": [
			{
				"x": -1.898564213,
				"y": -1.6258311418,
				"z": 3.0564311162,
				"element": "C" 
			},
			{
				"x": -1.174045533,
				"y": -2.875228599,
				"z": 2.5331666489,
				"element": "C" 
			},
			{
				"x": 0.3381600413,
				"y": -2.8890900473,
				"z": 2.8224677093,
				"element": "C" 
			},
			{
				"x": 1.0441924476,
				"y": -1.6999245192,
				"z": 2.3704394662,
				"element": "N" 
			},
			{
				"x": 0.8311183795,
				"y": -0.9454207883,
				"z": 1.2545655968,
				"element": "C" 
			},
			{
				"x": -0.1335212181,
				"y": -1.1867456955,
				"z": 0.2781321684,
				"element": "C" 
			},
			{
				"x": -0.4186019909,
				"y": -0.1536785834,
				"z": -0.7252210326,
				"element": "C" 
			},
			{
				"x": -1.3435249964,
				"y": -0.2080388571,
				"z": -1.5320004248,
				"element": "O" 
			},
			{
				"x": 0.3812685424,
				"y": 1.0150644781,
				"z": -0.713854672,
				"element": "N" 
			},
			{
				"x": 0.0191501265,
				"y": 2.0461029754,
				"z": -1.6566278049,
				"element": "C" 
			},
			{
				"x": -0.7721322471,
				"y": 3.117458292,
				"z": -1.2390368656,
				"element": "C" 
			},
			{
				"x": -1.1105911778,
				"y": 4.1228781096,
				"z": -2.1457098971,
				"element": "C" 
			},
			{
				"x": -0.6619709904,
				"y": 4.0551553022,
				"z": -3.4660674482,
				"element": "C" 
			},
			{
				"x": 0.1259077994,
				"y": 2.9787859851,
				"z": -3.8798979268,
				"element": "C" 
			},
			{
				"x": 0.4686633499,
				"y": 1.9730099945,
				"z": -2.9761953542,
				"element": "C" 
			},
			{
				"x": 1.4726333374,
				"y": 1.1828068177,
				"z": 0.1261336566,
				"element": "C" 
			},
			{
				"x": 2.3166554141,
				"y": 2.3061332117,
				"z": 0.0096214828,
				"element": "C" 
			},
			{
				"x": 3.4299155564,
				"y": 2.4390502429,
				"z": 0.8245255951,
				"element": "C" 
			},
			{
				"x": 3.7419220334,
				"y": 1.4490376384,
				"z": 1.7634608202,
				"element": "C" 
			},
			{
				"x": 2.9075076582,
				"y": 0.3490418878,
				"z": 1.8903875071,
				"element": "C" 
			},
			{
				"x": 1.7439124906,
				"y": 0.1996356124,
				"z": 1.1069802084,
				"element": "C" 
			},
			{
				"x": -0.9656244871,
				"y": -2.4311194082,
				"z": 0.1787395655,
				"element": "C" 
			},
			{
				"x": -1.2757818535,
				"y": -2.9527426837,
				"z": -1.2170000469,
				"element": "C" 
			},
			{
				"x": -1.4102332223,
				"y": -3.170711929,
				"z": 1.1302129207,
				"element": "N" 
			},
			{
				"x": -1.7645806026,
				"y": -1.5295687637,
				"z": 4.139921983,
				"element": "H" 
			},
			{
				"x": -2.9693645709,
				"y": -1.7143753279,
				"z": 2.8535117547,
				"element": "H" 
			},
			{
				"x": -1.5411147897,
				"y": -0.7104037242,
				"z": 2.5809874392,
				"element": "H" 
			},
			{
				"x": -1.5770692298,
				"y": -3.7335326628,
				"z": 3.0897276935,
				"element": "H" 
			},
			{
				"x": 0.5152225991,
				"y": -2.9656608468,
				"z": 3.9008630437,
				"element": "H" 
			},
			{
				"x": 0.7601564277,
				"y": -3.7887417761,
				"z": 2.3589020118,
				"element": "H" 
			},
			{
				"x": 1.6223676706,
				"y": -1.2617672231,
				"z": 3.0665183578,
				"element": "H" 
			},
			{
				"x": -1.1208270251,
				"y": 3.1538312876,
				"z": -0.2117073403,
				"element": "H" 
			},
			{
				"x": -1.728059204,
				"y": 4.955170488,
				"z": -1.8210050372,
				"element": "H" 
			},
			{
				"x": -0.9281318566,
				"y": 4.8368955122,
				"z": -4.1714753941,
				"element": "H" 
			},
			{
				"x": 0.4721486052,
				"y": 2.9197553272,
				"z": -4.9075077866,
				"element": "H" 
			},
			{
				"x": 1.0742520446,
				"y": 1.1276753724,
				"z": -3.2863659733,
				"element": "H" 
			},
			{
				"x": 2.0928255837,
				"y": 3.0608529016,
				"z": -0.7331964603,
				"element": "H" 
			},
			{
				"x": 4.0700292489,
				"y": 3.3093406307,
				"z": 0.7138653846,
				"element": "H" 
			},
			{
				"x": 4.6329359719,
				"y": 1.5297153774,
				"z": 2.3774846029,
				"element": "H" 
			},
			{
				"x": 3.199371481,
				"y": -0.4332419043,
				"z": 2.5836093567,
				"element": "H" 
			},
			{
				"x": -0.4295035965,
				"y": -2.8165182944,
				"z": -1.8972045855,
				"element": "H" 
			},
			{
				"x": -1.5154911004,
				"y": -4.0138622571,
				"z": -1.1293804761,
				"element": "H" 
			},
			{
				"x": -2.1204829043,
				"y": -2.418792412,
				"z": -1.6534015633,
				"element": "H" 
			}
		],
		 "valence_orbital": [ 
			{
				"type": "occ",
				"energy": -0.25488,
				"method": "rhf"
			},
			{
				"type": "occ",
				"energy": -0.23877,
				"method": "rhf"
			},
			{
				"type": "occ",
				"energy": -0.22655,
				"method": "rhf"
			},
			{
				"type": "occ",
				"energy": -0.21726,
				"method": "rhf"
			},
			{
				"type": "occ",
				"energy": -0.20443,
				"method": "rhf"
			},
			{
				"type": "unocc",
				"energy": -0.04995,
				"method": "rhf"
			},
			{
				"type": "unocc",
				"energy": -0.01089,
				"method": "rhf"
			},
			{
				"type": "unocc",
				"energy": -0.00934,
				"method": "rhf"
			},
			{
				"type": "unocc",
				"energy": -0.00558,
				"method": "rhf"
			},
			{
				"type": "unocc",
				"energy": 0.02236,
				"method": "rhf"
			}
		],
		"cosmo_sigma_profile": { 
			"-0.025": 0.0,
			"-0.024": 0.0,
			"-0.023": 0.0,
			"-0.022": 0.0,
			"-0.021": 0.0,
			"-0.02": 0.0,
			"-0.019": 0.0,
			"-0.018": 0.0,
			"-0.017": 0.0,
			"-0.016": 0.0335262900905,
			"-0.015": 0.562014104061,
			"-0.014": 0.960018031315,
			"-0.013": 1.16715958412,
			"-0.012": 1.25554100564,
			"-0.011": 1.43128514573,
			"-0.01": 1.4213935807,
			"-0.009": 1.33161101445,
			"-0.008": 1.63549306616,
			"-0.007": 4.35683576956,
			"-0.006": 17.9780944852,
			"-0.005": 22.5888629256,
			"-0.004": 27.1144065093,
			"-0.003": 28.7752729131,
			"-0.002": 29.1619076491,
			"-0.001": 32.6091934029,
			"0.0": 32.6527304307,
			"0.001": 32.7060675126,
			"0.002": 24.724375766,
			"0.003": 20.7048718283,
			"0.004": 20.3821537316,
			"0.005": 11.5641586382,
			"0.006": 4.41120467194,
			"0.007": 3.30910302237,
			"0.008": 3.38482548239,
			"0.009": 3.47698041415,
			"0.01": 3.06360974645,
			"0.011": 2.55143662757,
			"0.012": 2.97356983874,
			"0.013": 3.68448877754,
			"0.014": 4.45891489626,
			"0.015": 1.31904491395,
			"0.016": 1.00963522133,
			"0.017": 0.540591790023,
			"0.018": 0.191298765009,
			"0.019": 0.0,
			"0.02": 0.0,
			"0.021": 0.0,
			"0.022": 0.0,
			"0.023": 0.0,
			"0.024": 0.0,
			"0.025": 0.0
		}
	}
}
