{
	 "smiles": "CC1=NC(C)=C(CO)S1", 
	 "Tm": 329.65, 
	 "num_atms": 18, 
	 "gaussian": { 
		 "optdone": 1, 
		 "sigma_profile": "yes", 
		 "theory": "DFT", 
		 "functional": "B3LYP", 
		 "basiset": "6-31G**", 
		 "properties": { 
			 "R2extent": 1592.2375, 
			 "electric_dipole_moment_norm": 1.55541199044, 
			 "electric_quadrupole_moment_norm": 3.48083480217, 
			 "total_energy": -762.217728567, 
			 "HOMO_LUMO_gap": 0.20482, 
			 "cosmo_polarized_energy": -8.54, 
			 "cosmo_cavitation_energy": 22.89, 
			 "cosmo_dispersion_energy": -17.35, 
			 "cosmo_repulsion_energy": 1.4, 
			 "cosmo_total_nonelectrostatic_energy": 6.94, 
			 "SMD_solvation_energy": 2.36 
		},
		"coords": [
			{
				"x": -2.371360324,
				"y": 0.0437585047,
				"z": 2.8890323727,
				"element": "C" 
			},
			{
				"x": -1.2972974393,
				"y": 0.007528378,
				"z": 1.8446251418,
				"element": "C" 
			},
			{
				"x": -0.1113865291,
				"y": -0.4945982196,
				"z": 2.0301337113,
				"element": "N" 
			},
			{
				"x": 0.6850820331,
				"y": -0.3879596875,
				"z": 0.9046992426,
				"element": "C" 
			},
			{
				"x": 2.0907611522,
				"y": -0.9139285066,
				"z": 0.9635551472,
				"element": "C" 
			},
			{
				"x": 0.0953011242,
				"y": 0.2130056252,
				"z": -0.1802540884,
				"element": "C" 
			},
			{
				"x": 0.6713469332,
				"y": 0.4807275224,
				"z": -1.5476696269,
				"element": "C" 
			},
			{
				"x": 1.2350092994,
				"y": -0.674027733,
				"z": -2.1631059849,
				"element": "O" 
			},
			{
				"x": -1.545203463,
				"y": 0.6631692637,
				"z": 0.2305342203,
				"element": "S" 
			},
			{
				"x": -3.270534318,
				"y": -0.4898187856,
				"z": 2.5629288961,
				"element": "H" 
			},
			{
				"x": -2.6645184879,
				"y": 1.0713391812,
				"z": 3.1296628056,
				"element": "H" 
			},
			{
				"x": -1.987989486,
				"y": -0.4325230779,
				"z": 3.7933099532,
				"element": "H" 
			},
			{
				"x": 2.5306188647,
				"y": -0.9691367651,
				"z": -0.0330662563,
				"element": "H" 
			},
			{
				"x": 2.0986444734,
				"y": -1.9134555076,
				"z": 1.4096256896,
				"element": "H" 
			},
			{
				"x": 2.7172870362,
				"y": -0.2754422018,
				"z": 1.5976582137,
				"element": "H" 
			},
			{
				"x": 1.4964802608,
				"y": 1.1982820789,
				"z": -1.4794945241,
				"element": "H" 
			},
			{
				"x": -0.0957748433,
				"y": 0.9393780251,
				"z": -2.1892794137,
				"element": "H" 
			},
			{
				"x": 0.5709337134,
				"y": -1.3753980944,
				"z": -2.1227954997,
				"element": "H" 
			}
		],
		 "valence_orbital": [ 
			{
				"type": "occ",
				"energy": -0.33247,
				"method": "rhf"
			},
			{
				"type": "occ",
				"energy": -0.28642,
				"method": "rhf"
			},
			{
				"type": "occ",
				"energy": -0.27527,
				"method": "rhf"
			},
			{
				"type": "occ",
				"energy": -0.2634,
				"method": "rhf"
			},
			{
				"type": "occ",
				"energy": -0.22736,
				"method": "rhf"
			},
			{
				"type": "unocc",
				"energy": -0.02254,
				"method": "rhf"
			},
			{
				"type": "unocc",
				"energy": 0.01363,
				"method": "rhf"
			},
			{
				"type": "unocc",
				"energy": 0.04479,
				"method": "rhf"
			},
			{
				"type": "unocc",
				"energy": 0.08974,
				"method": "rhf"
			},
			{
				"type": "unocc",
				"energy": 0.0987,
				"method": "rhf"
			}
		],
		"cosmo_sigma_profile": { 
			"-0.025": 0.0,
			"-0.024": 0.0,
			"-0.023": 0.0,
			"-0.022": 0.0,
			"-0.021": 0.0,
			"-0.02": 0.0,
			"-0.019": 0.0,
			"-0.018": 0.0,
			"-0.017": 0.0,
			"-0.016": 0.0896783811363,
			"-0.015": 1.17950695212,
			"-0.014": 0.540934741598,
			"-0.013": 0.619847031989,
			"-0.012": 1.67442494414,
			"-0.011": 0.378395577355,
			"-0.01": 0.717553208207,
			"-0.009": 0.524857960115,
			"-0.008": 1.08745160634,
			"-0.007": 1.05889840698,
			"-0.006": 4.8624081828,
			"-0.005": 14.032966042,
			"-0.004": 16.0221977652,
			"-0.003": 16.1129442942,
			"-0.002": 17.507126914,
			"-0.001": 18.1930691844,
			"0.0": 17.112771205,
			"0.001": 11.6646889743,
			"0.002": 14.2054996102,
			"0.003": 10.9733100121,
			"0.004": 8.07286947514,
			"0.005": 3.22434966621,
			"0.006": 2.82972847203,
			"0.007": 3.85706328869,
			"0.008": 2.17403802672,
			"0.009": 1.8604680231,
			"0.01": 1.86690384986,
			"0.011": 2.16762892647,
			"0.012": 2.6165249357,
			"0.013": 2.3395266803,
			"0.014": 1.62395971465,
			"0.015": 1.09403223726,
			"0.016": 0.384984435664,
			"0.017": 0.0,
			"0.018": 0.0,
			"0.019": 0.0,
			"0.02": 0.0,
			"0.021": 0.0,
			"0.022": 0.0,
			"0.023": 0.0,
			"0.024": 0.0,
			"0.025": 0.0
		}
	}
}
