{
	 "smiles": "CCOC(=O)C(C#N)=C(S)NC1=CC=CC=C1", 
	 "Tm": 391.15, 
	 "num_atms": 29, 
	 "gaussian": { 
		 "optdone": 1, 
		 "sigma_profile": "yes", 
		 "theory": "DFT", 
		 "functional": "B3LYP", 
		 "basiset": "6-31G**", 
		 "properties": { 
			 "R2extent": 6622.2532, 
			 "electric_dipole_moment_norm": 9.68993077633, 
			 "electric_quadrupole_moment_norm": 30.2794929246, 
			 "total_energy": -1122.6285232, 
			 "HOMO_LUMO_gap": 0.1687, 
			 "cosmo_polarized_energy": -20.86, 
			 "cosmo_cavitation_energy": 36.01, 
			 "cosmo_dispersion_energy": -24.99, 
			 "cosmo_repulsion_energy": 1.94, 
			 "cosmo_total_nonelectrostatic_energy": 12.96, 
			 "SMD_solvation_energy": 7.85 
		},
		"coords": [
			{
				"x": -0.7958060477,
				"y": 1.6302553077,
				"z": 2.0720963312,
				"element": "C" 
			},
			{
				"x": 0.6729965157,
				"y": 1.6025180213,
				"z": 1.6807306731,
				"element": "C" 
			},
			{
				"x": 0.876558532,
				"y": 0.889830897,
				"z": 0.4319090417,
				"element": "O" 
			},
			{
				"x": 0.694899969,
				"y": 1.6208718017,
				"z": -0.7204458768,
				"element": "C" 
			},
			{
				"x": 0.4082087406,
				"y": 2.8000631955,
				"z": -0.697272607,
				"element": "O" 
			},
			{
				"x": 0.8981107405,
				"y": 0.8405055989,
				"z": -1.9506628319,
				"element": "C" 
			},
			{
				"x": 0.7951042427,
				"y": 1.5970071135,
				"z": -3.1543190131,
				"element": "C" 
			},
			{
				"x": 0.7110359451,
				"y": 2.1820826465,
				"z": -4.1584509082,
				"element": "N" 
			},
			{
				"x": 1.1673546851,
				"y": -0.5265509042,
				"z": -2.0494909672,
				"element": "C" 
			},
			{
				"x": 1.3583899992,
				"y": -1.1856057767,
				"z": -3.6890957433,
				"element": "S" 
			},
			{
				"x": 1.3290721111,
				"y": -1.3246327488,
				"z": -0.9645944686,
				"element": "N" 
			},
			{
				"x": 1.389996412,
				"y": -2.7430403679,
				"z": -0.8794626021,
				"element": "C" 
			},
			{
				"x": 2.4229585565,
				"y": -3.3212164475,
				"z": -0.1300763492,
				"element": "C" 
			},
			{
				"x": 2.4752823864,
				"y": -4.7048679355,
				"z": 0.0335363461,
				"element": "C" 
			},
			{
				"x": 1.5093293326,
				"y": -5.5206445719,
				"z": -0.5592522725,
				"element": "C" 
			},
			{
				"x": 0.4786684708,
				"y": -4.9438887386,
				"z": -1.304220003,
				"element": "C" 
			},
			{
				"x": 0.4056685566,
				"y": -3.5592521667,
				"z": -1.4560510428,
				"element": "C" 
			},
			{
				"x": -1.3752874601,
				"y": 2.1972002107,
				"z": 1.3400987822,
				"element": "H" 
			},
			{
				"x": -1.2035298601,
				"y": 0.6172900162,
				"z": 2.142694963,
				"element": "H" 
			},
			{
				"x": -0.9080761357,
				"y": 2.1137034254,
				"z": 3.0482744685,
				"element": "H" 
			},
			{
				"x": 1.0726783074,
				"y": 2.6118708024,
				"z": 1.5680996133,
				"element": "H" 
			},
			{
				"x": 1.2751433541,
				"y": 1.0507209551,
				"z": 2.4067917022,
				"element": "H" 
			},
			{
				"x": 1.7461861178,
				"y": -2.4133211898,
				"z": -3.2921735257,
				"element": "H" 
			},
			{
				"x": 1.3228283279,
				"y": -0.8073668799,
				"z": -0.0872275172,
				"element": "H" 
			},
			{
				"x": 3.1817587959,
				"y": -2.6818575371,
				"z": 0.3112137011,
				"element": "H" 
			},
			{
				"x": 3.2786954761,
				"y": -5.1451980442,
				"z": 0.6162828542,
				"element": "H" 
			},
			{
				"x": 1.5563763861,
				"y": -6.5983398686,
				"z": -0.4373780913,
				"element": "H" 
			},
			{
				"x": -0.2845357973,
				"y": -5.5705122001,
				"z": -1.7557618569,
				"element": "H" 
			},
			{
				"x": -0.4147666604,
				"y": -3.1080246143,
				"z": -2.0041928,
				"element": "H" 
			}
		],
		 "valence_orbital": [ 
			{
				"type": "occ",
				"energy": -0.29917,
				"method": "rhf"
			},
			{
				"type": "occ",
				"energy": -0.28043,
				"method": "rhf"
			},
			{
				"type": "occ",
				"energy": -0.27863,
				"method": "rhf"
			},
			{
				"type": "occ",
				"energy": -0.26394,
				"method": "rhf"
			},
			{
				"type": "occ",
				"energy": -0.22459,
				"method": "rhf"
			},
			{
				"type": "unocc",
				"energy": -0.05589,
				"method": "rhf"
			},
			{
				"type": "unocc",
				"energy": -0.03224,
				"method": "rhf"
			},
			{
				"type": "unocc",
				"energy": -0.02321,
				"method": "rhf"
			},
			{
				"type": "unocc",
				"energy": 0.00606,
				"method": "rhf"
			},
			{
				"type": "unocc",
				"energy": 0.03308,
				"method": "rhf"
			}
		],
		"cosmo_sigma_profile": { 
			"-0.025": 0.0,
			"-0.024": 0.0,
			"-0.023": 0.0,
			"-0.022": 0.0,
			"-0.021": 0.0,
			"-0.02": 0.0,
			"-0.019": 0.0,
			"-0.018": 0.0,
			"-0.017": 0.0,
			"-0.016": 0.0,
			"-0.015": 0.0,
			"-0.014": 0.0,
			"-0.013": 0.0,
			"-0.012": 0.444335798609,
			"-0.011": 1.72111464641,
			"-0.01": 2.13674318244,
			"-0.009": 1.90524250066,
			"-0.008": 2.82470546182,
			"-0.007": 8.43559641793,
			"-0.006": 16.284081805,
			"-0.005": 20.6433270972,
			"-0.004": 25.7837541539,
			"-0.003": 24.0020461166,
			"-0.002": 24.6068329819,
			"-0.001": 26.2323881124,
			"0.0": 25.9542163203,
			"0.001": 15.7771361853,
			"0.002": 14.0726993273,
			"0.003": 15.0431251349,
			"0.004": 15.7982675189,
			"0.005": 8.15223792606,
			"0.006": 3.41595010963,
			"0.007": 4.92864849928,
			"0.008": 4.68230178473,
			"0.009": 5.45248159661,
			"0.01": 5.40573015003,
			"0.011": 6.14115587433,
			"0.012": 7.13840617511,
			"0.013": 2.93144935027,
			"0.014": 0.98734978427,
			"0.015": 0.0,
			"0.016": 0.0,
			"0.017": 0.0,
			"0.018": 0.0,
			"0.019": 0.0,
			"0.02": 0.0,
			"0.021": 0.0,
			"0.022": 0.0,
			"0.023": 0.0,
			"0.024": 0.0,
			"0.025": 0.0
		}
	}
}
