{
	 "smiles": "OC(=O)C1=C2C=CC=CC2=CN=C1", 
	 "Tm": 523.15, 
	 "num_atms": 20, 
	 "gaussian": { 
		 "optdone": 1, 
		 "sigma_profile": "yes", 
		 "theory": "DFT", 
		 "functional": "B3LYP", 
		 "basiset": "6-31G**", 
		 "properties": { 
			 "R2extent": 3099.8176, 
			 "electric_dipole_moment_norm": 5.89882998992, 
			 "electric_quadrupole_moment_norm": 15.2835435682, 
			 "total_energy": -590.488879031, 
			 "HOMO_LUMO_gap": 0.16787, 
			 "cosmo_polarized_energy": -15.27, 
			 "cosmo_cavitation_energy": 24.41, 
			 "cosmo_dispersion_energy": -18.25, 
			 "cosmo_repulsion_energy": 1.4, 
			 "cosmo_total_nonelectrostatic_energy": 7.56, 
			 "SMD_solvation_energy": 3.62 
		},
		"coords": [
			{
				"x": 3.8723226687,
				"y": 1.8203158555,
				"z": 1.3440114966,
				"element": "O" 
			},
			{
				"x": 2.7260115343,
				"y": 1.9436169272,
				"z": 2.0721942752,
				"element": "C" 
			},
			{
				"x": 2.7288785152,
				"y": 2.586682437,
				"z": 3.0933113487,
				"element": "O" 
			},
			{
				"x": 1.5215047809,
				"y": 1.2109440953,
				"z": 1.5582597647,
				"element": "C" 
			},
			{
				"x": 1.1761445248,
				"y": 1.0683377114,
				"z": 0.174703295,
				"element": "C" 
			},
			{
				"x": 1.8596167968,
				"y": 1.6787922398,
				"z": -0.9154210852,
				"element": "C" 
			},
			{
				"x": 1.4324367351,
				"y": 1.4759647418,
				"z": -2.2109465303,
				"element": "C" 
			},
			{
				"x": 0.3072380021,
				"y": 0.665636253,
				"z": -2.4927794052,
				"element": "C" 
			},
			{
				"x": -0.3918011361,
				"y": 0.0846623762,
				"z": -1.4595234369,
				"element": "C" 
			},
			{
				"x": 0.0183945036,
				"y": 0.2783476082,
				"z": -0.115760447,
				"element": "C" 
			},
			{
				"x": -0.7072112355,
				"y": -0.278927777,
				"z": 0.9721357586,
				"element": "C" 
			},
			{
				"x": -0.4006594201,
				"y": -0.1056176443,
				"z": 2.2409159774,
				"element": "N" 
			},
			{
				"x": 0.6991040767,
				"y": 0.6400281848,
				"z": 2.5140737413,
				"element": "C" 
			},
			{
				"x": 3.7519967368,
				"y": 1.1607109836,
				"z": 0.6456001955,
				"element": "H" 
			},
			{
				"x": 2.7005648956,
				"y": 2.337609923,
				"z": -0.7278782134,
				"element": "H" 
			},
			{
				"x": 1.9625123948,
				"y": 1.9559903635,
				"z": -3.0283977311,
				"element": "H" 
			},
			{
				"x": -0.0078159545,
				"y": 0.519110498,
				"z": -3.5211794815,
				"element": "H" 
			},
			{
				"x": -1.271475951,
				"y": -0.5226245137,
				"z": -1.6555822705,
				"element": "H" 
			},
			{
				"x": -1.5875559072,
				"y": -0.886185087,
				"z": 0.7579593014,
				"element": "H" 
			},
			{
				"x": 0.9412934389,
				"y": 0.7749048237,
				"z": 3.5644034467,
				"element": "H" 
			}
		],
		 "valence_orbital": [ 
			{
				"type": "occ",
				"energy": -0.31186,
				"method": "rhf"
			},
			{
				"type": "occ",
				"energy": -0.28406,
				"method": "rhf"
			},
			{
				"type": "occ",
				"energy": -0.28236,
				"method": "rhf"
			},
			{
				"type": "occ",
				"energy": -0.26659,
				"method": "rhf"
			},
			{
				"type": "occ",
				"energy": -0.24731,
				"method": "rhf"
			},
			{
				"type": "unocc",
				"energy": -0.07944,
				"method": "rhf"
			},
			{
				"type": "unocc",
				"energy": -0.04243,
				"method": "rhf"
			},
			{
				"type": "unocc",
				"energy": -0.0215,
				"method": "rhf"
			},
			{
				"type": "unocc",
				"energy": 0.03218,
				"method": "rhf"
			},
			{
				"type": "unocc",
				"energy": 0.07299,
				"method": "rhf"
			}
		],
		"cosmo_sigma_profile": { 
			"-0.025": 0.0,
			"-0.024": 0.0,
			"-0.023": 0.0,
			"-0.022": 0.0,
			"-0.021": 0.0,
			"-0.02": 0.0,
			"-0.019": 0.0,
			"-0.018": 0.216286443981,
			"-0.017": 0.907139681985,
			"-0.016": 0.811350238491,
			"-0.015": 0.518754682088,
			"-0.014": 1.21577739193,
			"-0.013": 0.848266525094,
			"-0.012": 0.882809122958,
			"-0.011": 1.5737378773,
			"-0.01": 0.494741592655,
			"-0.009": 0.567615052548,
			"-0.008": 3.51786438483,
			"-0.007": 11.8882234831,
			"-0.006": 13.6718257627,
			"-0.005": 13.6499121663,
			"-0.004": 10.5688216334,
			"-0.003": 10.2896954902,
			"-0.002": 9.62339877086,
			"-0.001": 13.8633373768,
			"0.0": 15.7356386281,
			"0.001": 15.9303673702,
			"0.002": 14.8444617838,
			"0.003": 11.2331398637,
			"0.004": 4.16622753337,
			"0.005": 2.97655909703,
			"0.006": 3.75630502922,
			"0.007": 3.56536638143,
			"0.008": 4.50003116649,
			"0.009": 4.88217053673,
			"0.01": 6.12728536124,
			"0.011": 5.54122249669,
			"0.012": 4.89227815326,
			"0.013": 1.27781087187,
			"0.014": 1.08590740537,
			"0.015": 0.761213777271,
			"0.016": 0.502169158441,
			"0.017": 0.0185545576493,
			"0.018": 0.0,
			"0.019": 0.0,
			"0.02": 0.0,
			"0.021": 0.0,
			"0.022": 0.0,
			"0.023": 0.0,
			"0.024": 0.0,
			"0.025": 0.0
		}
	}
}
