{
	 "smiles": "OC(=O)C1=C2C=CC=CC2=NC2=C1CCCC2=CC1=C(Cl)C(Cl)=CC=C1", 
	 "Tm": 568.15, 
	 "num_atms": 41, 
	 "gaussian": { 
		 "optdone": 1, 
		 "sigma_profile": "yes", 
		 "theory": "DFT", 
		 "functional": "B3LYP", 
		 "basiset": "6-31G**", 
		 "properties": { 
			 "R2extent": 11978.6769, 
			 "electric_dipole_moment_norm": 1.56119524083, 
			 "electric_quadrupole_moment_norm": 30.9576024202, 
			 "total_energy": -1934.86709603, 
			 "HOMO_LUMO_gap": 0.14338, 
			 "cosmo_polarized_energy": -16.7, 
			 "cosmo_cavitation_energy": 47.51, 
			 "cosmo_dispersion_energy": -32.82, 
			 "cosmo_repulsion_energy": 2.49, 
			 "cosmo_total_nonelectrostatic_energy": 17.19, 
			 "SMD_solvation_energy": 6.63 
		},
		"coords": [
			{
				"x": 4.4339813864,
				"y": -0.4712979237,
				"z": 2.3327669741,
				"element": "O" 
			},
			{
				"x": 3.1711969452,
				"y": -0.5935363519,
				"z": 2.8224024821,
				"element": "C" 
			},
			{
				"x": 3.0004522085,
				"y": -0.9124200409,
				"z": 3.9733205166,
				"element": "O" 
			},
			{
				"x": 2.064794662,
				"y": -0.2988290823,
				"z": 1.8373438045,
				"element": "C" 
			},
			{
				"x": 2.012924763,
				"y": -1.0128297702,
				"z": 0.5995954461,
				"element": "C" 
			},
			{
				"x": 2.9092081268,
				"y": -2.0534213434,
				"z": 0.222592339,
				"element": "C" 
			},
			{
				"x": 2.7767519204,
				"y": -2.6824680839,
				"z": -0.9963085733,
				"element": "C" 
			},
			{
				"x": 1.7500203531,
				"y": -2.3093147405,
				"z": -1.8981997877,
				"element": "C" 
			},
			{
				"x": 0.8609245201,
				"y": -1.316720237,
				"z": -1.5592187933,
				"element": "C" 
			},
			{
				"x": 0.9634832229,
				"y": -0.6537869592,
				"z": -0.3050111131,
				"element": "C" 
			},
			{
				"x": 0.0495734251,
				"y": 0.3022040359,
				"z": -0.0160495934,
				"element": "N" 
			},
			{
				"x": 0.0891898109,
				"y": 0.9218393515,
				"z": 1.1535494483,
				"element": "C" 
			},
			{
				"x": 1.1034956151,
				"y": 0.656424549,
				"z": 2.1420961216,
				"element": "C" 
			},
			{
				"x": 1.1553768549,
				"y": 1.4349041412,
				"z": 3.4479276731,
				"element": "C" 
			},
			{
				"x": -0.0957421215,
				"y": 2.274966132,
				"z": 3.7232419827,
				"element": "C" 
			},
			{
				"x": -0.5494365595,
				"y": 2.9977215789,
				"z": 2.448628629,
				"element": "C" 
			},
			{
				"x": -0.9368977118,
				"y": 1.9688415448,
				"z": 1.4088635163,
				"element": "C" 
			},
			{
				"x": -2.1412326946,
				"y": 2.0481400186,
				"z": 0.8041578333,
				"element": "C" 
			},
			{
				"x": -2.8197142012,
				"y": 1.0974002155,
				"z": -0.1004068485,
				"element": "C" 
			},
			{
				"x": -3.4463673678,
				"y": 1.5511931411,
				"z": -1.2769839705,
				"element": "C" 
			},
			{
				"x": -3.2915874285,
				"y": 3.2347764305,
				"z": -1.7315653193,
				"element": "Cl" 
			},
			{
				"x": -4.1730395458,
				"y": 0.666037437,
				"z": -2.0870029715,
				"element": "C" 
			},
			{
				"x": -4.9464594857,
				"y": 1.2074442985,
				"z": -3.5607175322,
				"element": "Cl" 
			},
			{
				"x": -4.2953498263,
				"y": -0.6753486388,
				"z": -1.7278927609,
				"element": "C" 
			},
			{
				"x": -3.6920478535,
				"y": -1.1306589474,
				"z": -0.5561585791,
				"element": "C" 
			},
			{
				"x": -2.96887849,
				"y": -0.2553767421,
				"z": 0.2449863122,
				"element": "C" 
			},
			{
				"x": 4.4017949018,
				"y": -0.1850863813,
				"z": 1.4075342191,
				"element": "H" 
			},
			{
				"x": 3.6933837397,
				"y": -2.366907052,
				"z": 0.9041073128,
				"element": "H" 
			},
			{
				"x": 3.465011061,
				"y": -3.4778721579,
				"z": -1.2663679821,
				"element": "H" 
			},
			{
				"x": 1.6650002411,
				"y": -2.8163257297,
				"z": -2.8546448256,
				"element": "H" 
			},
			{
				"x": 0.0550588163,
				"y": -1.012478319,
				"z": -2.2186688825,
				"element": "H" 
			},
			{
				"x": 2.0289020187,
				"y": 2.1025172108,
				"z": 3.4086105296,
				"element": "H" 
			},
			{
				"x": 1.3472212115,
				"y": 0.7432536506,
				"z": 4.270758754,
				"element": "H" 
			},
			{
				"x": -0.9104092914,
				"y": 1.6328333064,
				"z": 4.0800103082,
				"element": "H" 
			},
			{
				"x": 0.1171966076,
				"y": 2.9923874754,
				"z": 4.5228260062,
				"element": "H" 
			},
			{
				"x": -1.3904440221,
				"y": 3.6670843688,
				"z": 2.6512914659,
				"element": "H" 
			},
			{
				"x": 0.2773629576,
				"y": 3.6212447159,
				"z": 2.0766544008,
				"element": "H" 
			},
			{
				"x": -2.7323934499,
				"y": 2.9335195271,
				"z": 1.0346867522,
				"element": "H" 
			},
			{
				"x": -4.8645495151,
				"y": -1.3441448007,
				"z": -2.363492817,
				"element": "H" 
			},
			{
				"x": -3.7957971496,
				"y": -2.1722860258,
				"z": -0.2686212024,
				"element": "H" 
			},
			{
				"x": -2.5111586556,
				"y": -0.608023802,
				"z": 1.1624587244,
				"element": "H" 
			}
		],
		 "valence_orbital": [ 
			{
				"type": "occ",
				"energy": -0.27025,
				"method": "rhf"
			},
			{
				"type": "occ",
				"energy": -0.25402,
				"method": "rhf"
			},
			{
				"type": "occ",
				"energy": -0.24567,
				"method": "rhf"
			},
			{
				"type": "occ",
				"energy": -0.24464,
				"method": "rhf"
			},
			{
				"type": "occ",
				"energy": -0.2258,
				"method": "rhf"
			},
			{
				"type": "unocc",
				"energy": -0.08242,
				"method": "rhf"
			},
			{
				"type": "unocc",
				"energy": -0.04904,
				"method": "rhf"
			},
			{
				"type": "unocc",
				"energy": -0.01917,
				"method": "rhf"
			},
			{
				"type": "unocc",
				"energy": -0.01778,
				"method": "rhf"
			},
			{
				"type": "unocc",
				"energy": -0.0149,
				"method": "rhf"
			}
		],
		"cosmo_sigma_profile": { 
			"-0.025": 0.0,
			"-0.024": 0.0,
			"-0.023": 0.0,
			"-0.022": 0.0,
			"-0.021": 0.0,
			"-0.02": 0.0,
			"-0.019": 0.0862145099908,
			"-0.018": 0.648971153573,
			"-0.017": 1.14889648644,
			"-0.016": 0.460508046993,
			"-0.015": 0.718746865494,
			"-0.014": 1.09421623124,
			"-0.013": 0.733099460875,
			"-0.012": 0.682582201531,
			"-0.011": 1.17250078881,
			"-0.01": 1.11759579318,
			"-0.009": 0.872415440974,
			"-0.008": 1.12275593445,
			"-0.007": 6.65427319331,
			"-0.006": 18.5600626622,
			"-0.005": 22.7114402887,
			"-0.004": 25.9988417211,
			"-0.003": 29.6276677645,
			"-0.002": 32.0456859833,
			"-0.001": 32.5202362676,
			"0.0": 30.5628419658,
			"0.001": 32.2954996427,
			"0.002": 33.4550759291,
			"0.003": 33.8983424674,
			"0.004": 28.6175950586,
			"0.005": 14.1860564657,
			"0.006": 4.54389868745,
			"0.007": 4.12425604876,
			"0.008": 5.18615358575,
			"0.009": 5.68127259898,
			"0.01": 5.30021207154,
			"0.011": 6.04862700217,
			"0.012": 2.38940036583,
			"0.013": 0.12440401203,
			"0.014": 0.0,
			"0.015": 0.0,
			"0.016": 0.0,
			"0.017": 0.0,
			"0.018": 0.0,
			"0.019": 0.0,
			"0.02": 0.0,
			"0.021": 0.0,
			"0.022": 0.0,
			"0.023": 0.0,
			"0.024": 0.0,
			"0.0": 0.0
		}
	}
}
