{
	 "smiles": "CC1=NN(C(=O)C1=N/NC1=CC=C(C=C1)C(O)=O)C1=CC=CC=C1", 
	 "Tm": 586.15, 
	 "num_atms": 38, 
	 "gaussian": { 
		 "optdone": 1, 
		 "sigma_profile": "yes", 
		 "theory": "DFT", 
		 "functional": "B3LYP", 
		 "basiset": "6-31G**", 
		 "properties": { 
			 "R2extent": 13765.7132, 
			 "electric_dipole_moment_norm": 4.25707529062, 
			 "electric_quadrupole_moment_norm": 43.4359253574, 
			 "total_energy": -1100.90226024, 
			 "HOMO_LUMO_gap": 0.11405, 
			 "cosmo_polarized_energy": -20.54, 
			 "cosmo_cavitation_energy": 44.03, 
			 "cosmo_dispersion_energy": -31.98, 
			 "cosmo_repulsion_energy": 2.39, 
			 "cosmo_total_nonelectrostatic_energy": 14.44, 
			 "SMD_solvation_energy": 7.72 
		},
		"coords": [
			{
				"x": -0.7677561786,
				"y": 3.3432748792,
				"z": 1.9733226397,
				"element": "C" 
			},
			{
				"x": -0.6215856928,
				"y": 1.8611364581,
				"z": 2.0686740571,
				"element": "C" 
			},
			{
				"x": -0.9345836395,
				"y": 1.2025726255,
				"z": 3.1469211572,
				"element": "N" 
			},
			{
				"x": -0.684998993,
				"y": -0.1627413549,
				"z": 2.918327505,
				"element": "N" 
			},
			{
				"x": -0.1947401678,
				"y": -0.3894777195,
				"z": 1.649271515,
				"element": "C" 
			},
			{
				"x": 0.1323940781,
				"y": -1.4593312663,
				"z": 1.1101284826,
				"element": "O" 
			},
			{
				"x": -0.1388377984,
				"y": 0.9558298025,
				"z": 1.0469550169,
				"element": "C" 
			},
			{
				"x": 0.2630855664,
				"y": 1.269965633,
				"z": -0.1583206701,
				"element": "N" 
			},
			{
				"x": 0.6662201036,
				"y": 0.284570972,
				"z": -0.9358675867,
				"element": "N" 
			},
			{
				"x": 1.1127022566,
				"y": 0.517379549,
				"z": -2.2380799263,
				"element": "C" 
			},
			{
				"x": 1.1459954937,
				"y": 1.8071135957,
				"z": -2.7887657864,
				"element": "C" 
			},
			{
				"x": 1.6073522815,
				"y": 1.9800558474,
				"z": -4.0877715845,
				"element": "C" 
			},
			{
				"x": 2.0392573145,
				"y": 0.8884595773,
				"z": -4.8580869806,
				"element": "C" 
			},
			{
				"x": 1.9762878241,
				"y": -0.3971699208,
				"z": -4.3008109465,
				"element": "C" 
			},
			{
				"x": 1.5274712084,
				"y": -0.5860757359,
				"z": -3.0020754005,
				"element": "C" 
			},
			{
				"x": 2.5290737105,
				"y": 1.0117381355,
				"z": -6.2663755229,
				"element": "C" 
			},
			{
				"x": 2.9397783829,
				"y": 2.2449248141,
				"z": -6.670463486,
				"element": "O" 
			},
			{
				"x": 2.5722284742,
				"y": 0.0807483126,
				"z": -7.0365933609,
				"element": "O" 
			},
			{
				"x": -0.951379773,
				"y": -1.0910025395,
				"z": 3.9584475464,
				"element": "C" 
			},
			{
				"x": -0.716476016,
				"y": -2.4617530944,
				"z": 3.7713293402,
				"element": "C" 
			},
			{
				"x": -0.988612291,
				"y": -3.3478793548,
				"z": 4.8131266176,
				"element": "C" 
			},
			{
				"x": -1.4889435519,
				"y": -2.8915341024,
				"z": 6.0330979901,
				"element": "C" 
			},
			{
				"x": -1.7185913088,
				"y": -1.5256439194,
				"z": 6.2073954474,
				"element": "C" 
			},
			{
				"x": -1.4540098939,
				"y": -0.6222090439,
				"z": 5.1805653571,
				"element": "C" 
			},
			{
				"x": -1.1579888972,
				"y": 3.738183139,
				"z": 2.9130250601,
				"element": "H" 
			},
			{
				"x": -1.4493053616,
				"y": 3.6156944516,
				"z": 1.1603901417,
				"element": "H" 
			},
			{
				"x": 0.1964713812,
				"y": 3.8166242665,
				"z": 1.7593310584,
				"element": "H" 
			},
			{
				"x": 0.639974018,
				"y": -0.6684986768,
				"z": -0.5500091128,
				"element": "H" 
			},
			{
				"x": 0.8039732065,
				"y": 2.6475498604,
				"z": -2.1978484923,
				"element": "H" 
			},
			{
				"x": 1.588395827,
				"y": 2.9829925897,
				"z": -4.5075796022,
				"element": "H" 
			},
			{
				"x": 2.2881557343,
				"y": -1.2389758613,
				"z": -4.9090849369,
				"element": "H" 
			},
			{
				"x": 1.4920542349,
				"y": -1.5839383575,
				"z": -2.5737735796,
				"element": "H" 
			},
			{
				"x": 3.0140924584,
				"y": 2.839950631,
				"z": -5.9120063587,
				"element": "H" 
			},
			{
				"x": -0.3288671891,
				"y": -2.8180330703,
				"z": 2.8268770185,
				"element": "H" 
			},
			{
				"x": -0.8048075787,
				"y": -4.407795647,
				"z": 4.6622865907,
				"element": "H" 
			},
			{
				"x": -1.697267963,
				"y": -3.5905776363,
				"z": 6.8373771537,
				"element": "H" 
			},
			{
				"x": -2.1079047251,
				"y": -1.1539341607,
				"z": 7.1509286402,
				"element": "H" 
			},
			{
				"x": -1.6300065356,
				"y": 0.4376063216,
				"z": 5.3096349983,
				"element": "H" 
			}
		],
		 "valence_orbital": [ 
			{
				"type": "occ",
				"energy": -0.2751,
				"method": "rhf"
			},
			{
				"type": "occ",
				"energy": -0.26437,
				"method": "rhf"
			},
			{
				"type": "occ",
				"energy": -0.25099,
				"method": "rhf"
			},
			{
				"type": "occ",
				"energy": -0.23544,
				"method": "rhf"
			},
			{
				"type": "occ",
				"energy": -0.21857,
				"method": "rhf"
			},
			{
				"type": "unocc",
				"energy": -0.10452,
				"method": "rhf"
			},
			{
				"type": "unocc",
				"energy": -0.04352,
				"method": "rhf"
			},
			{
				"type": "unocc",
				"energy": -0.03051,
				"method": "rhf"
			},
			{
				"type": "unocc",
				"energy": -0.01544,
				"method": "rhf"
			},
			{
				"type": "unocc",
				"energy": -0.00082,
				"method": "rhf"
			}
		],
		"cosmo_sigma_profile": { 
			"-0.025": 0.0,
			"-0.024": 0.0,
			"-0.023": 0.0,
			"-0.022": 0.0,
			"-0.021": 0.0,
			"-0.02": 0.0,
			"-0.019": 0.298593215481,
			"-0.018": 0.8836329293,
			"-0.017": 1.03362845334,
			"-0.016": 0.854091958595,
			"-0.015": 1.02974817293,
			"-0.014": 0.670764403375,
			"-0.013": 1.44084569721,
			"-0.012": 1.93395256954,
			"-0.011": 2.86262254001,
			"-0.01": 2.13146459937,
			"-0.009": 2.59192970593,
			"-0.008": 3.93591329666,
			"-0.007": 6.41711957506,
			"-0.006": 14.0999120168,
			"-0.005": 21.1708863666,
			"-0.004": 26.0878427192,
			"-0.003": 27.1824233509,
			"-0.002": 27.8815453598,
			"-0.001": 29.0141345458,
			"0.0": 25.0479437281,
			"0.001": 23.3537125866,
			"0.002": 30.9545223756,
			"0.003": 22.537019567,
			"0.004": 16.479994343,
			"0.005": 17.5554749455,
			"0.006": 8.83496202374,
			"0.007": 5.3207941264,
			"0.008": 5.4964539935,
			"0.009": 6.40542546504,
			"0.01": 7.77058959355,
			"0.011": 6.18084680595,
			"0.012": 5.23521717284,
			"0.013": 1.68662406405,
			"0.014": 0.0916565711484,
			"0.015": 0.0,
			"0.016": 0.0,
			"0.017": 0.0,
			"0.018": 0.0,
			"0.019": 0.0,
			"0.02": 0.0,
			"0.021": 0.0,
			"0.022": 0.0,
			"0.023": 0.0,
			"0.024": 0.0,
			"0.025": 0.0
		}
	}
}
