{
	 "smiles": "OC(=O)C1=C(Cl)C=CC(NN=CC2=C(Br)C=CC=C2)=C1", 
	 "Tm": 454.15, 
	 "num_atms": 30, 
	 "gaussian": { 
		 "optdone": 1, 
		 "sigma_profile": "yes", 
		 "theory": "DFT", 
		 "functional": "B3LYP", 
		 "basiset": "6-31G**", 
		 "properties": { 
			 "R2extent": 7979.8772, 
			 "electric_dipole_moment_norm": 5.30144291019, 
			 "electric_quadrupole_moment_norm": 17.4791199776, 
			 "total_energy": -3831.0182698, 
			 "HOMO_LUMO_gap": 0.15474, 
			 "cosmo_polarized_energy": -17.44, 
			 "cosmo_cavitation_energy": 38.59, 
			 "cosmo_dispersion_energy": -26.91, 
			 "cosmo_repulsion_energy": 2.05, 
			 "cosmo_total_nonelectrostatic_energy": 13.72, 
			 "SMD_solvation_energy": 5.68 
		},
		"coords": [
			{
				"x": 2.050458051,
				"y": 1.5455208466,
				"z": 3.869414131,
				"element": "O" 
			},
			{
				"x": 1.3518884262,
				"y": 1.1243100414,
				"z": 2.8008419788,
				"element": "C" 
			},
			{
				"x": 1.0336734401,
				"y": -0.0402319205,
				"z": 2.7130970687,
				"element": "O" 
			},
			{
				"x": 0.9520265862,
				"y": 2.1242812145,
				"z": 1.7279865385,
				"element": "C" 
			},
			{
				"x": 1.3622731655,
				"y": 3.4582931424,
				"z": 1.5756638346,
				"element": "C" 
			},
			{
				"x": 2.5202744407,
				"y": 4.2584630943,
				"z": 2.6574794502,
				"element": "Cl" 
			},
			{
				"x": 0.8817816732,
				"y": 4.2392910919,
				"z": 0.5228690915,
				"element": "C" 
			},
			{
				"x": -0.0076230365,
				"y": 3.7040884111,
				"z": -0.3951803557,
				"element": "C" 
			},
			{
				"x": -0.437622575,
				"y": 2.3695298455,
				"z": -0.2779866217,
				"element": "C" 
			},
			{
				"x": -1.3420898816,
				"y": 1.8983315155,
				"z": -1.251732364,
				"element": "N" 
			},
			{
				"x": -2.0456159856,
				"y": 0.6932972691,
				"z": -1.1613376468,
				"element": "N" 
			},
			{
				"x": -1.4227139223,
				"y": -0.4337288199,
				"z": -1.1625167216,
				"element": "C" 
			},
			{
				"x": -0.0020008915,
				"y": -0.7938216871,
				"z": -1.3399014455,
				"element": "C" 
			},
			{
				"x": 0.5050403233,
				"y": -2.0057777315,
				"z": -0.8315318342,
				"element": "C" 
			},
			{
				"x": -0.5832191188,
				"y": -3.1556688951,
				"z": 0.2435631882,
				"element": "Br" 
			},
			{
				"x": 1.8162875105,
				"y": -2.4099030325,
				"z": -1.072378942,
				"element": "C" 
			},
			{
				"x": 2.6519909618,
				"y": -1.6101859388,
				"z": -1.8500320991,
				"element": "C" 
			},
			{
				"x": 2.174034039,
				"y": -0.4099471994,
				"z": -2.3794219678,
				"element": "C" 
			},
			{
				"x": 0.8687871503,
				"y": -0.0068014213,
				"z": -2.1196073896,
				"element": "C" 
			},
			{
				"x": 0.0507539224,
				"y": 1.6049712152,
				"z": 0.7831246859,
				"element": "C" 
			},
			{
				"x": 2.2527697628,
				"y": 2.4941413371,
				"z": 3.8169275337,
				"element": "H" 
			},
			{
				"x": 1.2144237194,
				"y": 5.2665583556,
				"z": 0.4249068696,
				"element": "H" 
			},
			{
				"x": -0.3690625092,
				"y": 4.3205722839,
				"z": -1.2140093647,
				"element": "H" 
			},
			{
				"x": -2.0159190535,
				"y": 2.6146388491,
				"z": -1.4939252655,
				"element": "H" 
			},
			{
				"x": -2.1003675733,
				"y": -1.2797615329,
				"z": -1.0617623896,
				"element": "H" 
			},
			{
				"x": 2.1754785156,
				"y": -3.3412327424,
				"z": -0.6504075707,
				"element": "H" 
			},
			{
				"x": 3.67348958,
				"y": -1.9271785472,
				"z": -2.0373182054,
				"element": "H" 
			},
			{
				"x": 2.8187279582,
				"y": 0.2132824743,
				"z": -2.9913642023,
				"element": "H" 
			},
			{
				"x": 0.4946343944,
				"y": 0.9221779423,
				"z": -2.5329196548,
				"element": "H" 
			},
			{
				"x": -0.2559590731,
				"y": 0.5792905389,
				"z": 0.93015967,
				"element": "H" 
			}
		],
		 "valence_orbital": [ 
			{
				"type": "occ",
				"energy": -0.27925,
				"method": "rhf"
			},
			{
				"type": "occ",
				"energy": -0.27242,
				"method": "rhf"
			},
			{
				"type": "occ",
				"energy": -0.25956,
				"method": "rhf"
			},
			{
				"type": "occ",
				"energy": -0.24862,
				"method": "rhf"
			},
			{
				"type": "occ",
				"energy": -0.21474,
				"method": "rhf"
			},
			{
				"type": "unocc",
				"energy": -0.06,
				"method": "rhf"
			},
			{
				"type": "unocc",
				"energy": -0.05824,
				"method": "rhf"
			},
			{
				"type": "unocc",
				"energy": -0.0193,
				"method": "rhf"
			},
			{
				"type": "unocc",
				"energy": -0.01606,
				"method": "rhf"
			},
			{
				"type": "unocc",
				"energy": 0.00274,
				"method": "rhf"
			}
		],
		"cosmo_sigma_profile": { 
			"-0.025": 0.0,
			"-0.024": 0.0,
			"-0.023": 0.0,
			"-0.022": 0.0,
			"-0.021": 0.0,
			"-0.02": 0.0,
			"-0.019": 0.0,
			"-0.018": 0.0,
			"-0.017": 0.0,
			"-0.016": 0.0,
			"-0.015": 0.340183291063,
			"-0.014": 1.49833279852,
			"-0.013": 1.24859280082,
			"-0.012": 1.07132788076,
			"-0.011": 2.31103129066,
			"-0.01": 2.57624491301,
			"-0.009": 3.25283095625,
			"-0.008": 5.59763076789,
			"-0.007": 10.3744727767,
			"-0.006": 15.4294249804,
			"-0.005": 16.1244968431,
			"-0.004": 16.8985973052,
			"-0.003": 18.408793375,
			"-0.002": 18.5847503227,
			"-0.001": 22.7950278834,
			"0.0": 26.6793966732,
			"0.001": 32.4427328623,
			"0.002": 34.6566726546,
			"0.003": 29.014752078,
			"0.004": 15.8035241688,
			"0.005": 6.05258307083,
			"0.006": 4.93467735544,
			"0.007": 4.38566426498,
			"0.008": 4.33358185991,
			"0.009": 4.15624366584,
			"0.01": 5.93006338751,
			"0.011": 4.58408139786,
			"0.012": 3.27436423557,
			"0.013": 2.51770292576,
			"0.014": 0.742813257297,
			"0.015": 0.0307046227552,
			"0.016": 0.0,
			"0.017": 0.0,
			"0.018": 0.0,
			"0.019": 0.0,
			"0.02": 0.0,
			"0.021": 0.0,
			"0.022": 0.0,
			"0.023": 0.0,
			"0.024": 0.0,
			"0.025": 0.0
		}
	}
}
