{
	 "smiles": "CC1CCC(C)(CO)C1(C)C", 
	 "Tm": 367.15, 
	 "num_atms": 31, 
	 "gaussian": { 
		 "optdone": 1, 
		 "sigma_profile": "yes", 
		 "theory": "DFT", 
		 "functional": "B3LYP", 
		 "basiset": "6-31G**", 
		 "properties": { 
			 "R2extent": 2101.0745, 
			 "electric_dipole_moment_norm": 1.47805743461, 
			 "electric_quadrupole_moment_norm": 5.4517021828, 
			 "total_energy": -468.345816732, 
			 "HOMO_LUMO_gap": 0.31729, 
			 "cosmo_polarized_energy": -5.43, 
			 "cosmo_cavitation_energy": 28.06, 
			 "cosmo_dispersion_energy": -20.31, 
			 "cosmo_repulsion_energy": 1.57, 
			 "cosmo_total_nonelectrostatic_energy": 9.32, 
			 "SMD_solvation_energy": 4.53 
		},
		"coords": [
			{
				"x": -2.5993051921,
				"y": 1.9215313313,
				"z": -0.4943546022,
				"element": "C" 
			},
			{
				"x": -1.9757119678,
				"y": 0.7704034777,
				"z": -1.2945887211,
				"element": "C" 
			},
			{
				"x": -1.2618420031,
				"y": 1.2812119157,
				"z": -2.5754577135,
				"element": "C" 
			},
			{
				"x": -0.0188399133,
				"y": 0.3977210107,
				"z": -2.739191538,
				"element": "C" 
			},
			{
				"x": 0.4431100833,
				"y": 0.1047233425,
				"z": -1.2919035511,
				"element": "C" 
			},
			{
				"x": 1.1900125301,
				"y": 1.3384511845,
				"z": -0.7381289483,
				"element": "C" 
			},
			{
				"x": 1.4179346297,
				"y": -1.0892760342,
				"z": -1.2941187123,
				"element": "C" 
			},
			{
				"x": 1.8333966284,
				"y": -1.534525488,
				"z": -0.004945236,
				"element": "O" 
			},
			{
				"x": -0.9282940889,
				"y": -0.1546130406,
				"z": -0.5352962072,
				"element": "C" 
			},
			{
				"x": -1.3844681837,
				"y": -1.6227002479,
				"z": -0.7043504721,
				"element": "C" 
			},
			{
				"x": -0.84267893,
				"y": 0.1094646023,
				"z": 0.9799442796,
				"element": "C" 
			},
			{
				"x": -1.8465379528,
				"y": 2.6402664422,
				"z": -0.1517373268,
				"element": "H" 
			},
			{
				"x": -3.1473310695,
				"y": 1.5677079756,
				"z": 0.3844818149,
				"element": "H" 
			},
			{
				"x": -3.3091880369,
				"y": 2.4708925288,
				"z": -1.1234234877,
				"element": "H" 
			},
			{
				"x": -2.8054426563,
				"y": 0.1217490482,
				"z": -1.6021678366,
				"element": "H" 
			},
			{
				"x": -1.9161843227,
				"y": 1.2548274707,
				"z": -3.4531757874,
				"element": "H" 
			},
			{
				"x": -0.9625198366,
				"y": 2.3284463499,
				"z": -2.4451788289,
				"element": "H" 
			},
			{
				"x": -0.2845859331,
				"y": -0.5413667327,
				"z": -3.2412742304,
				"element": "H" 
			},
			{
				"x": 0.7651357616,
				"y": 0.8688674017,
				"z": -3.3431323673,
				"element": "H" 
			},
			{
				"x": 0.559274271,
				"y": 2.2307151975,
				"z": -0.7070875463,
				"element": "H" 
			},
			{
				"x": 1.5549564063,
				"y": 1.1772539007,
				"z": 0.2815494665,
				"element": "H" 
			},
			{
				"x": 2.0553300297,
				"y": 1.5696806746,
				"z": -1.3708007969,
				"element": "H" 
			},
			{
				"x": 2.2918733821,
				"y": -0.8254323002,
				"z": -1.9128061354,
				"element": "H" 
			},
			{
				"x": 0.9518367902,
				"y": -1.9591595162,
				"z": -1.7633531537,
				"element": "H" 
			},
			{
				"x": 2.3751385364,
				"y": -0.8402825427,
				"z": 0.390067307,
				"element": "H" 
			},
			{
				"x": -0.7099240267,
				"y": -2.3151313878,
				"z": -0.1927581662,
				"element": "H" 
			},
			{
				"x": -1.4518418274,
				"y": -1.9206212257,
				"z": -1.7565356719,
				"element": "H" 
			},
			{
				"x": -2.3829595922,
				"y": -1.7485520455,
				"z": -0.2706812522,
				"element": "H" 
			},
			{
				"x": -1.7930275912,
				"y": -0.1341602981,
				"z": 1.467639315,
				"element": "H" 
			},
			{
				"x": -0.0701975474,
				"y": -0.5263932465,
				"z": 1.4208858582,
				"element": "H" 
			},
			{
				"x": -0.6098183772,
				"y": 1.1488002516,
				"z": 1.2239802484,
				"element": "H" 
			}
		],
		 "valence_orbital": [ 
			{
				"type": "occ",
				"energy": -0.30909,
				"method": "rhf"
			},
			{
				"type": "occ",
				"energy": -0.30166,
				"method": "rhf"
			},
			{
				"type": "occ",
				"energy": -0.29491,
				"method": "rhf"
			},
			{
				"type": "occ",
				"energy": -0.2889,
				"method": "rhf"
			},
			{
				"type": "occ",
				"energy": -0.25553,
				"method": "rhf"
			},
			{
				"type": "unocc",
				"energy": 0.06176,
				"method": "rhf"
			},
			{
				"type": "unocc",
				"energy": 0.09051,
				"method": "rhf"
			},
			{
				"type": "unocc",
				"energy": 0.1065,
				"method": "rhf"
			},
			{
				"type": "unocc",
				"energy": 0.10759,
				"method": "rhf"
			},
			{
				"type": "unocc",
				"energy": 0.12121,
				"method": "rhf"
			}
		],
		"cosmo_sigma_profile": { 
			"-0.025": 0.0,
			"-0.024": 0.0,
			"-0.023": 0.0,
			"-0.022": 0.0,
			"-0.021": 0.0,
			"-0.02": 0.0,
			"-0.019": 0.0,
			"-0.018": 0.0,
			"-0.017": 0.0,
			"-0.016": 0.0,
			"-0.015": 0.0,
			"-0.014": 0.779464520131,
			"-0.013": 0.611616018558,
			"-0.012": 0.894286921926,
			"-0.011": 0.873066415267,
			"-0.01": 0.887696390436,
			"-0.009": 1.08094223409,
			"-0.008": 0.992402376637,
			"-0.007": 1.00458335449,
			"-0.006": 1.07217184105,
			"-0.005": 1.2788854493,
			"-0.004": 1.75029382739,
			"-0.003": 13.9085620874,
			"-0.002": 33.9497702886,
			"-0.001": 37.4702681131,
			"0.0": 38.5225467902,
			"0.001": 33.2307977668,
			"0.002": 25.04256851,
			"0.003": 5.26863335237,
			"0.004": 1.42149309742,
			"0.005": 1.44057756325,
			"0.006": 1.24414555897,
			"0.007": 1.47559261489,
			"0.008": 1.47620269561,
			"0.009": 1.29192463498,
			"0.01": 1.08024404827,
			"0.011": 1.03269401533,
			"0.012": 1.25367171374,
			"0.013": 1.23135979516,
			"0.014": 1.58504591795,
			"0.015": 0.679425661802,
			"0.016": 0.0,
			"0.017": 0.0,
			"0.018": 0.0,
			"0.019": 0.0,
			"0.02": 0.0,
			"0.021": 0.0,
			"0.022": 0.0,
			"0.023": 0.0,
			"0.024": 0.0,
			"0.025": 0.0
		}
	}
}
