{
	 "smiles": "COC(=O)CC1CCC(CC1)NC(=O)OC(C)(C)C", 
	 "Tm": 354.15, 
	 "num_atms": 44, 
	 "gaussian": { 
		 "optdone": 1, 
		 "sigma_profile": "yes", 
		 "theory": "DFT", 
		 "functional": "B3LYP", 
		 "basiset": "6-31G**", 
		 "properties": { 
			 "R2extent": 9401.418, 
			 "electric_dipole_moment_norm": 3.92786360379, 
			 "electric_quadrupole_moment_norm": 12.5976713439, 
			 "total_energy": -904.272462574, 
			 "HOMO_LUMO_gap": 0.25107, 
			 "cosmo_polarized_energy": -14.16, 
			 "cosmo_cavitation_energy": 44.28, 
			 "cosmo_dispersion_energy": -29.93, 
			 "cosmo_repulsion_energy": 2.34, 
			 "cosmo_total_nonelectrostatic_energy": 16.69, 
			 "SMD_solvation_energy": 9.0 
		},
		"coords": [
			{
				"x": 1.3379228708,
				"y": 4.6284754717,
				"z": -5.4962413973,
				"element": "C" 
			},
			{
				"x": 0.5805500977,
				"y": 3.5925570474,
				"z": -4.8501222864,
				"element": "O" 
			},
			{
				"x": 1.2076473969,
				"y": 2.3960071929,
				"z": -4.7465389058,
				"element": "C" 
			},
			{
				"x": 2.3268873196,
				"y": 2.1941528355,
				"z": -5.1682830819,
				"element": "O" 
			},
			{
				"x": 0.3486910741,
				"y": 1.3936525058,
				"z": -4.0064327488,
				"element": "C" 
			},
			{
				"x": 0.4389816067,
				"y": 1.5611582802,
				"z": -2.4712032392,
				"element": "C" 
			},
			{
				"x": 1.8628822782,
				"y": 1.3108843096,
				"z": -1.9393231508,
				"element": "C" 
			},
			{
				"x": 1.9337000183,
				"y": 1.4446420138,
				"z": -0.4085266026,
				"element": "C" 
			},
			{
				"x": 0.9185152825,
				"y": 0.5469590297,
				"z": 0.3215018,
				"element": "C" 
			},
			{
				"x": -0.5015052925,
				"y": 0.784267498,
				"z": -0.2346550196,
				"element": "C" 
			},
			{
				"x": -0.564265138,
				"y": 0.6335464099,
				"z": -1.7610228958,
				"element": "C" 
			},
			{
				"x": 1.3341591451,
				"y": -0.8540683608,
				"z": 0.2123179686,
				"element": "N" 
			},
			{
				"x": 0.9785593576,
				"y": -1.8866713804,
				"z": 1.0343128417,
				"element": "C" 
			},
			{
				"x": 1.3529630414,
				"y": -3.0372250435,
				"z": 0.8629701853,
				"element": "O" 
			},
			{
				"x": 0.1784126129,
				"y": -1.4471982835,
				"z": 2.0392492664,
				"element": "O" 
			},
			{
				"x": -0.2966769758,
				"y": -2.3710540637,
				"z": 3.0797948788,
				"element": "C" 
			},
			{
				"x": -1.126903704,
				"y": -1.4564068498,
				"z": 3.9844967187,
				"element": "C" 
			},
			{
				"x": -1.175727514,
				"y": -3.4598107903,
				"z": 2.4546810922,
				"element": "C" 
			},
			{
				"x": 0.8940667036,
				"y": -2.9566597381,
				"z": 3.8468030851,
				"element": "C" 
			},
			{
				"x": 1.591346519,
				"y": 4.339334673,
				"z": -6.5192725325,
				"element": "H" 
			},
			{
				"x": 2.2634517286,
				"y": 4.8286251292,
				"z": -4.9501744492,
				"element": "H" 
			},
			{
				"x": 0.6951831164,
				"y": 5.5088363644,
				"z": -5.4956598272,
				"element": "H" 
			},
			{
				"x": -0.6927122618,
				"y": 1.5159097157,
				"z": -4.3214051866,
				"element": "H" 
			},
			{
				"x": 0.6866516798,
				"y": 0.3936811092,
				"z": -4.2944527754,
				"element": "H" 
			},
			{
				"x": 0.163600922,
				"y": 2.5999132655,
				"z": -2.2350115905,
				"element": "H" 
			},
			{
				"x": 2.1852396805,
				"y": 0.306951142,
				"z": -2.2535120905,
				"element": "H" 
			},
			{
				"x": 2.5754925766,
				"y": 2.0011893867,
				"z": -2.4027940332,
				"element": "H" 
			},
			{
				"x": 2.9459604558,
				"y": 1.2253789565,
				"z": -0.0500709819,
				"element": "H" 
			},
			{
				"x": 1.719305544,
				"y": 2.4847317582,
				"z": -0.1322242683,
				"element": "H" 
			},
			{
				"x": 0.9220328708,
				"y": 0.7969009005,
				"z": 1.3863381709,
				"element": "H" 
			},
			{
				"x": -0.8141511571,
				"y": 1.7996208303,
				"z": 0.0460658256,
				"element": "H" 
			},
			{
				"x": -1.1959687996,
				"y": 0.0926887976,
				"z": 0.2520365198,
				"element": "H" 
			},
			{
				"x": -1.5814473188,
				"y": 0.8413296442,
				"z": -2.1147885836,
				"element": "H" 
			},
			{
				"x": -0.3472467245,
				"y": -0.4087283407,
				"z": -2.0338721581,
				"element": "H" 
			},
			{
				"x": 1.9072318453,
				"y": -1.1461753711,
				"z": -0.5645453745,
				"element": "H" 
			},
			{
				"x": -1.9520229313,
				"y": -1.0048552812,
				"z": 3.4257418673,
				"element": "H" 
			},
			{
				"x": -1.5457191165,
				"y": -2.0302259051,
				"z": 4.8165911428,
				"element": "H" 
			},
			{
				"x": -0.5078782883,
				"y": -0.6531164935,
				"z": 4.394850165,
				"element": "H" 
			},
			{
				"x": -1.9932851604,
				"y": -3.0066260384,
				"z": 1.8846403217,
				"element": "H" 
			},
			{
				"x": -0.5914659303,
				"y": -4.0966517816,
				"z": 1.7904939549,
				"element": "H" 
			},
			{
				"x": -1.6150408268,
				"y": -4.077107921,
				"z": 3.245194722,
				"element": "H" 
			},
			{
				"x": 1.5212867545,
				"y": -2.1525665692,
				"z": 4.2450139726,
				"element": "H" 
			},
			{
				"x": 0.531025607,
				"y": -3.5532020883,
				"z": 4.6901673027,
				"element": "H" 
			},
			{
				"x": 1.4998690342,
				"y": -3.5906439672,
				"z": 3.1992713777,
				"element": "H" 
			}
		],
		 "valence_orbital": [ 
			{
				"type": "occ",
				"energy": -0.3009,
				"method": "rhf"
			},
			{
				"type": "occ",
				"energy": -0.28318,
				"method": "rhf"
			},
			{
				"type": "occ",
				"energy": -0.26695,
				"method": "rhf"
			},
			{
				"type": "occ",
				"energy": -0.25487,
				"method": "rhf"
			},
			{
				"type": "occ",
				"energy": -0.24237,
				"method": "rhf"
			},
			{
				"type": "unocc",
				"energy": 0.0087,
				"method": "rhf"
			},
			{
				"type": "unocc",
				"energy": 0.06028,
				"method": "rhf"
			},
			{
				"type": "unocc",
				"energy": 0.07146,
				"method": "rhf"
			},
			{
				"type": "unocc",
				"energy": 0.08164,
				"method": "rhf"
			},
			{
				"type": "unocc",
				"energy": 0.08913,
				"method": "rhf"
			}
		],
		"cosmo_sigma_profile": { 
			"-0.025": 0.0,
			"-0.024": 0.0,
			"-0.023": 0.0,
			"-0.022": 0.0,
			"-0.021": 0.0,
			"-0.02": 0.0,
			"-0.019": 0.0,
			"-0.018": 0.0,
			"-0.017": 0.0,
			"-0.016": 0.0,
			"-0.015": 0.0,
			"-0.014": 0.0,
			"-0.013": 0.0655418097302,
			"-0.012": 0.596597470036,
			"-0.011": 1.12424591924,
			"-0.01": 1.02169510091,
			"-0.009": 1.09609629945,
			"-0.008": 0.773203217076,
			"-0.007": 2.26916087416,
			"-0.006": 4.90906310316,
			"-0.005": 10.3216941451,
			"-0.004": 27.0190740302,
			"-0.003": 54.290808096,
			"-0.002": 44.6828999853,
			"-0.001": 41.7572184887,
			"0.0": 41.8009153877,
			"0.001": 33.1921145742,
			"0.002": 13.1556217058,
			"0.003": 9.55311860615,
			"0.004": 7.95918189573,
			"0.005": 7.74826822216,
			"0.006": 5.72001141946,
			"0.007": 3.91176377588,
			"0.008": 4.16461195291,
			"0.009": 4.01276871064,
			"0.01": 2.43514885478,
			"0.011": 4.08382493314,
			"0.012": 6.05601530616,
			"0.013": 4.52370063779,
			"0.014": 3.51299217935,
			"0.015": 0.591826474074,
			"0.016": 0.0,
			"0.017": 0.0,
			"0.018": 0.0,
			"0.019": 0.0,
			"0.02": 0.0,
			"0.021": 0.0,
			"0.022": 0.0,
			"0.023": 0.0,
			"0.024": 0.0,
			"0.025": 0.0
		}
	}
}
