{
	 "smiles": "OCC1OC(C(O)C1O)N1C=NC2=C1N=CN=C2SCC1=CC=C(C=C1)[N+]([O-])=O", 
	 "Tm": 468.15, 
	 "num_atms": 46, 
	 "gaussian": { 
		 "optdone": 1, 
		 "sigma_profile": "yes", 
		 "theory": "DFT", 
		 "functional": "B3LYP", 
		 "basiset": "6-31G**", 
		 "properties": { 
			 "R2extent": 23684.6532, 
			 "electric_dipole_moment_norm": 8.60705731537, 
			 "electric_quadrupole_moment_norm": 48.2116318074, 
			 "total_energy": -1781.21462011, 
			 "HOMO_LUMO_gap": 0.14691, 
			 "cosmo_polarized_energy": -25.01, 
			 "cosmo_cavitation_energy": 51.88, 
			 "cosmo_dispersion_energy": -37.93, 
			 "cosmo_repulsion_energy": 2.78, 
			 "cosmo_total_nonelectrostatic_energy": 16.72, 
			 "SMD_solvation_energy": 7.1 
		},
		"coords": [
			{
				"x": 3.2425451579,
				"y": 1.9160560328,
				"z": 6.263294697,
				"element": "O" 
			},
			{
				"x": 2.0706455077,
				"y": 1.5424771611,
				"z": 5.5314551315,
				"element": "C" 
			},
			{
				"x": 2.3825397036,
				"y": 1.7344321582,
				"z": 4.0486675758,
				"element": "C" 
			},
			{
				"x": 1.3564693792,
				"y": 1.0656319537,
				"z": 3.2843119889,
				"element": "O" 
			},
			{
				"x": 1.9737660993,
				"y": 0.0982488271,
				"z": 2.4446316711,
				"element": "C" 
			},
			{
				"x": 3.4073587434,
				"y": 0.6168917602,
				"z": 2.1996461281,
				"element": "C" 
			},
			{
				"x": 3.4708125136,
				"y": 1.7443258613,
				"z": 1.369421624,
				"element": "O" 
			},
			{
				"x": 3.7300158237,
				"y": 1.1003259383,
				"z": 3.6189023393,
				"element": "C" 
			},
			{
				"x": 4.0831568857,
				"y": -0.0233371612,
				"z": 4.4081776716,
				"element": "O" 
			},
			{
				"x": 1.0971691612,
				"y": -0.1185059584,
				"z": 1.2931514769,
				"element": "N" 
			},
			{
				"x": -0.1985609283,
				"y": -0.5837106007,
				"z": 1.4413882869,
				"element": "C" 
			},
			{
				"x": -0.8450730041,
				"y": -0.7651985422,
				"z": 0.3198031888,
				"element": "N" 
			},
			{
				"x": 0.066514427,
				"y": -0.4035366873,
				"z": -0.6570919301,
				"element": "C" 
			},
			{
				"x": 1.2844522257,
				"y": 0.0106064889,
				"z": -0.0683327018,
				"element": "C" 
			},
			{
				"x": 2.3689360337,
				"y": 0.4149488637,
				"z": -0.7362992917,
				"element": "N" 
			},
			{
				"x": 2.2010086137,
				"y": 0.3957471143,
				"z": -2.0651968713,
				"element": "C" 
			},
			{
				"x": 1.1118504875,
				"y": 0.0257499439,
				"z": -2.7415309675,
				"element": "N" 
			},
			{
				"x": 0.0255182657,
				"y": -0.3758997984,
				"z": -2.0616917026,
				"element": "C" 
			},
			{
				"x": -1.3143576203,
				"y": -0.8180351624,
				"z": -3.123254275,
				"element": "S" 
			},
			{
				"x": -2.7019053371,
				"y": -1.3041924934,
				"z": -1.9912669445,
				"element": "C" 
			},
			{
				"x": -3.8799765345,
				"y": -1.6850858223,
				"z": -2.851054222,
				"element": "C" 
			},
			{
				"x": -4.0462109523,
				"y": -3.0091532907,
				"z": -3.2846052462,
				"element": "C" 
			},
			{
				"x": -5.1302131535,
				"y": -3.3702619604,
				"z": -4.0788680646,
				"element": "C" 
			},
			{
				"x": -6.0485792754,
				"y": -2.3866173505,
				"z": -4.4403032868,
				"element": "C" 
			},
			{
				"x": -5.9107998091,
				"y": -1.061227649,
				"z": -4.0329423162,
				"element": "C" 
			},
			{
				"x": -4.8203995342,
				"y": -0.7188091214,
				"z": -3.2391281676,
				"element": "C" 
			},
			{
				"x": -7.2014354643,
				"y": -2.7597836252,
				"z": -5.2754264404,
				"element": "N" 
			},
			{
				"x": -7.9976021915,
				"y": -1.8717882774,
				"z": -5.5784841439,
				"element": "O" 
			},
			{
				"x": -7.2994158155,
				"y": -3.9372504806,
				"z": -5.6193600697,
				"element": "O" 
			},
			{
				"x": 3.0304968021,
				"y": 1.9169157384,
				"z": 7.2047002699,
				"element": "H" 
			},
			{
				"x": 1.2061363538,
				"y": 2.1551053103,
				"z": 5.8177305573,
				"element": "H" 
			},
			{
				"x": 1.8155587975,
				"y": 0.4876193741,
				"z": 5.6973657725,
				"element": "H" 
			},
			{
				"x": 2.3717311763,
				"y": 2.7957518015,
				"z": 3.7799018602,
				"element": "H" 
			},
			{
				"x": 2.0448720329,
				"y": -0.8624547766,
				"z": 2.9734082974,
				"element": "H" 
			},
			{
				"x": 4.0800787709,
				"y": -0.1942263546,
				"z": 1.8911914819,
				"element": "H" 
			},
			{
				"x": 3.3027233548,
				"y": 1.4318091941,
				"z": 0.4552880931,
				"element": "H" 
			},
			{
				"x": 4.5307399299,
				"y": 1.8466050544,
				"z": 3.5827127181,
				"element": "H" 
			},
			{
				"x": 4.2210887084,
				"y": 0.3230720756,
				"z": 5.3041761304,
				"element": "H" 
			},
			{
				"x": -0.6038086427,
				"y": -0.7577153593,
				"z": 2.4291310474,
				"element": "H" 
			},
			{
				"x": 3.0499285133,
				"y": 0.7208794959,
				"z": -2.6610029454,
				"element": "H" 
			},
			{
				"x": -2.9363206223,
				"y": -0.4634466053,
				"z": -1.3382988456,
				"element": "H" 
			},
			{
				"x": -2.3751769722,
				"y": -2.1344574013,
				"z": -1.3654634301,
				"element": "H" 
			},
			{
				"x": -3.3206723984,
				"y": -3.7632186474,
				"z": -2.9938093248,
				"element": "H" 
			},
			{
				"x": -5.2774831993,
				"y": -4.3877420329,
				"z": -4.4183152198,
				"element": "H" 
			},
			{
				"x": -6.6490936948,
				"y": -0.3302788721,
				"z": -4.3375994904,
				"element": "H" 
			},
			{
				"x": -4.6974283189,
				"y": 0.309833883,
				"z": -2.91303211,
				"element": "H" 
			}
		],
		 "valence_orbital": [ 
			{
				"type": "occ",
				"energy": -0.27817,
				"method": "rhf"
			},
			{
				"type": "occ",
				"energy": -0.27341,
				"method": "rhf"
			},
			{
				"type": "occ",
				"energy": -0.27139,
				"method": "rhf"
			},
			{
				"type": "occ",
				"energy": -0.26119,
				"method": "rhf"
			},
			{
				"type": "occ",
				"energy": -0.23759,
				"method": "rhf"
			},
			{
				"type": "unocc",
				"energy": -0.09068,
				"method": "rhf"
			},
			{
				"type": "unocc",
				"energy": -0.05854,
				"method": "rhf"
			},
			{
				"type": "unocc",
				"energy": -0.02937,
				"method": "rhf"
			},
			{
				"type": "unocc",
				"energy": -0.02187,
				"method": "rhf"
			},
			{
				"type": "unocc",
				"energy": -0.01044,
				"method": "rhf"
			}
		],
		"cosmo_sigma_profile": { 
			"-0.025": 0.0,
			"-0.024": 0.0,
			"-0.023": 0.0,
			"-0.022": 0.0,
			"-0.021": 0.0,
			"-0.02": 0.0,
			"-0.019": 0.0,
			"-0.018": 0.0,
			"-0.017": 0.533289354396,
			"-0.016": 1.10309653231,
			"-0.015": 1.20993713595,
			"-0.014": 0.875843356012,
			"-0.013": 0.672776659223,
			"-0.012": 0.807279739724,
			"-0.011": 1.63280438032,
			"-0.01": 3.26172543405,
			"-0.009": 3.30162985005,
			"-0.008": 10.8856212309,
			"-0.007": 19.0741314227,
			"-0.006": 21.1841242395,
			"-0.005": 24.7377870743,
			"-0.004": 26.4000788328,
			"-0.003": 31.7518529821,
			"-0.002": 30.5540837312,
			"-0.001": 32.5941614343,
			"0.0": 28.869360138,
			"0.001": 29.1706761082,
			"0.002": 20.1794923422,
			"0.003": 16.2168690983,
			"0.004": 16.0712951928,
			"0.005": 14.8257667006,
			"0.006": 14.1049841669,
			"0.007": 17.366223398,
			"0.008": 14.5188469394,
			"0.009": 10.3264373827,
			"0.01": 9.16316416468,
			"0.011": 4.79537586885,
			"0.012": 4.60303422156,
			"0.013": 3.26935658394,
			"0.014": 0.690198886,
			"0.015": 0.0,
			"0.016": 0.0,
			"0.017": 0.0,
			"0.018": 0.0,
			"0.019": 0.0,
			"0.02": 0.0,
			"0.021": 0.0,
			"0.022": 0.0,
			"0.023": 0.0,
			"0.024": 0.0,
			"0.025": 0.0
		}
	}
}
