{
	 "smiles": "N#CC1=CC=C(CN2C=NC3=C2C=CC=C3)C=C1", 
	 "Tm": 377.15, 
	 "num_atms": 29, 
	 "gaussian": { 
		 "optdone": 1, 
		 "sigma_profile": "yes", 
		 "theory": "DFT", 
		 "functional": "B3LYP", 
		 "basiset": "6-31G**", 
		 "properties": { 
			 "R2extent": 5505.5049, 
			 "electric_dipole_moment_norm": 3.88759444644, 
			 "electric_quadrupole_moment_norm": 38.6254746764, 
			 "total_energy": -742.472185451, 
			 "HOMO_LUMO_gap": 0.16738, 
			 "cosmo_polarized_energy": -18.54, 
			 "cosmo_cavitation_energy": 34.77, 
			 "cosmo_dispersion_energy": -23.9, 
			 "cosmo_repulsion_energy": 1.82, 
			 "cosmo_total_nonelectrostatic_energy": 12.7, 
			 "SMD_solvation_energy": 5.41 
		},
		"coords": [
			{
				"x": -1.0432559141,
				"y": 0.9018594679,
				"z": -6.1596514226,
				"element": "N" 
			},
			{
				"x": -0.9506640554,
				"y": 0.9699282776,
				"z": -5.0021137264,
				"element": "C" 
			},
			{
				"x": -0.8387522145,
				"y": 1.0556879291,
				"z": -3.5749121407,
				"element": "C" 
			},
			{
				"x": 0.4212621785,
				"y": 1.2068616756,
				"z": -2.9723097767,
				"element": "C" 
			},
			{
				"x": 0.5242139278,
				"y": 1.289870036,
				"z": -1.5872849929,
				"element": "C" 
			},
			{
				"x": -0.6186691178,
				"y": 1.221182749,
				"z": -0.7816365321,
				"element": "C" 
			},
			{
				"x": -0.5342669028,
				"y": 1.362018857,
				"z": 0.7312546481,
				"element": "C" 
			},
			{
				"x": 0.6995479708,
				"y": 0.8748863075,
				"z": 1.3174155608,
				"element": "N" 
			},
			{
				"x": 1.6970599499,
				"y": 1.6341517287,
				"z": 1.8995763941,
				"element": "C" 
			},
			{
				"x": 2.6971216217,
				"y": 0.9379614303,
				"z": 2.3701494929,
				"element": "N" 
			},
			{
				"x": 2.3614214933,
				"y": -0.382775263,
				"z": 2.0950844044,
				"element": "C" 
			},
			{
				"x": 1.1111348173,
				"y": -0.4471453429,
				"z": 1.4335922488,
				"element": "C" 
			},
			{
				"x": 0.5294816671,
				"y": -1.655093332,
				"z": 1.0401328201,
				"element": "C" 
			},
			{
				"x": 1.2407812981,
				"y": -2.8154815728,
				"z": 1.3353156386,
				"element": "C" 
			},
			{
				"x": 2.4863533424,
				"y": -2.7704845029,
				"z": 1.9943908867,
				"element": "C" 
			},
			{
				"x": 3.0598054317,
				"y": -1.5631326311,
				"z": 2.3795765623,
				"element": "C" 
			},
			{
				"x": -1.8710642767,
				"y": 1.0627312469,
				"z": -1.3884036101,
				"element": "C" 
			},
			{
				"x": -1.9891416856,
				"y": 0.9838409033,
				"z": -2.7723689536,
				"element": "C" 
			},
			{
				"x": 1.30974438,
				"y": 1.2566889144,
				"z": -3.5926745837,
				"element": "H" 
			},
			{
				"x": 1.5014530913,
				"y": 1.3982791124,
				"z": -1.1278332662,
				"element": "H" 
			},
			{
				"x": -0.6247575345,
				"y": 2.4194098263,
				"z": 1.0074863236,
				"element": "H" 
			},
			{
				"x": -1.3825621302,
				"y": 0.8455543636,
				"z": 1.1958946871,
				"element": "H" 
			},
			{
				"x": 1.6107329457,
				"y": 2.7136531759,
				"z": 1.9434743074,
				"element": "H" 
			},
			{
				"x": -0.4237048871,
				"y": -1.6950075147,
				"z": 0.5225243433,
				"element": "H" 
			},
			{
				"x": 0.827389764,
				"y": -3.7775489156,
				"z": 1.0475252643,
				"element": "H" 
			},
			{
				"x": 3.0062997204,
				"y": -3.7008698869,
				"z": 2.202362635,
				"element": "H" 
			},
			{
				"x": 4.0181726252,
				"y": -1.5211757793,
				"z": 2.8868016078,
				"element": "H" 
			},
			{
				"x": -2.7647983366,
				"y": 0.9990263685,
				"z": -0.7729048985,
				"element": "H" 
			},
			{
				"x": -2.9616391698,
				"y": 0.8597223713,
				"z": -3.236663922,
				"element": "H" 
			}
		],
		 "valence_orbital": [ 
			{
				"type": "occ",
				"energy": -0.28522,
				"method": "rhf"
			},
			{
				"type": "occ",
				"energy": -0.2757,
				"method": "rhf"
			},
			{
				"type": "occ",
				"energy": -0.27026,
				"method": "rhf"
			},
			{
				"type": "occ",
				"energy": -0.23354,
				"method": "rhf"
			},
			{
				"type": "occ",
				"energy": -0.22879,
				"method": "rhf"
			},
			{
				"type": "unocc",
				"energy": -0.06141,
				"method": "rhf"
			},
			{
				"type": "unocc",
				"energy": -0.03572,
				"method": "rhf"
			},
			{
				"type": "unocc",
				"energy": -0.0209,
				"method": "rhf"
			},
			{
				"type": "unocc",
				"energy": 0.01419,
				"method": "rhf"
			},
			{
				"type": "unocc",
				"energy": 0.03119,
				"method": "rhf"
			}
		],
		"cosmo_sigma_profile": { 
			"-0.025": 0.0,
			"-0.024": 0.0,
			"-0.023": 0.0,
			"-0.022": 0.0,
			"-0.021": 0.0,
			"-0.02": 0.0,
			"-0.019": 0.0,
			"-0.018": 0.0,
			"-0.017": 0.0,
			"-0.016": 0.0,
			"-0.015": 0.0,
			"-0.014": 0.0,
			"-0.013": 0.0,
			"-0.012": 0.0,
			"-0.011": 0.214962808635,
			"-0.01": 2.50048547349,
			"-0.009": 3.73053168141,
			"-0.008": 8.36745785157,
			"-0.007": 15.9159503588,
			"-0.006": 20.1558717576,
			"-0.005": 20.7383344824,
			"-0.004": 19.3774857358,
			"-0.003": 16.5277667605,
			"-0.002": 15.2888807977,
			"-0.001": 19.0517733806,
			"0.0": 15.8219080019,
			"0.001": 17.2040345172,
			"0.002": 21.6437572819,
			"0.003": 13.6918428589,
			"0.004": 12.9785766423,
			"0.005": 12.6962313021,
			"0.006": 10.9129090034,
			"0.007": 5.12857674087,
			"0.008": 5.11755630895,
			"0.009": 4.14137919111,
			"0.01": 4.59747620646,
			"0.011": 4.16468438051,
			"0.012": 3.4343969602,
			"0.013": 3.24956817049,
			"0.014": 1.06958799296,
			"0.015": 0.72146638788,
			"0.016": 1.0648791921,
			"0.017": 1.12802557763,
			"0.018": 0.18807622359,
			"0.019": 0.0,
			"0.02": 0.0,
			"0.021": 0.0,
			"0.022": 0.0,
			"0.023": 0.0,
			"0.024": 0.0,
			"0.025": 0.0
		}
	}
}
