{
	 "smiles": "NS(=O)(=O)C1=CC=C(C=C1)S(=O)(=O)N1CCC(CC1)C(O)=O", 
	 "Tm": 464.15, 
	 "num_atms": 38, 
	 "gaussian": { 
		 "optdone": 1, 
		 "sigma_profile": "yes", 
		 "theory": "DFT", 
		 "functional": "B3LYP", 
		 "basiset": "6-31G**", 
		 "properties": { 
			 "R2extent": 10359.879, 
			 "electric_dipole_moment_norm": 6.50009745927, 
			 "electric_quadrupole_moment_norm": 31.4776923106, 
			 "total_energy": -1824.00817743, 
			 "HOMO_LUMO_gap": 0.18947, 
			 "cosmo_polarized_energy": -34.38, 
			 "cosmo_cavitation_energy": 43.75, 
			 "cosmo_dispersion_energy": -30.88, 
			 "cosmo_repulsion_energy": 2.31, 
			 "cosmo_total_nonelectrostatic_energy": 15.18, 
			 "SMD_solvation_energy": 6.13 
		},
		"coords": [
			{
				"x": 2.286933638,
				"y": 0.7325600675,
				"z": 4.8963282129,
				"element": "N" 
			},
			{
				"x": 3.4241237501,
				"y": -0.3308085843,
				"z": 4.2716660995,
				"element": "S" 
			},
			{
				"x": 4.6755614784,
				"y": 0.419809587,
				"z": 4.2109945018,
				"element": "O" 
			},
			{
				"x": 3.2633811954,
				"y": -1.5702550947,
				"z": 5.027461406,
				"element": "O" 
			},
			{
				"x": 2.9282699631,
				"y": -0.6766629192,
				"z": 2.5716136802,
				"element": "C" 
			},
			{
				"x": 3.4107173681,
				"y": 0.1338108955,
				"z": 1.5410638474,
				"element": "C" 
			},
			{
				"x": 3.0113870534,
				"y": -0.1213064269,
				"z": 0.2297630775,
				"element": "C" 
			},
			{
				"x": 2.1392708891,
				"y": -1.1834001049,
				"z": -0.0270208192,
				"element": "C" 
			},
			{
				"x": 1.6836690943,
				"y": -2.0134962692,
				"z": 1.0021014019,
				"element": "C" 
			},
			{
				"x": 2.0812997959,
				"y": -1.7573744354,
				"z": 2.3135660372,
				"element": "C" 
			},
			{
				"x": 1.5837325732,
				"y": -1.4834069643,
				"z": -1.718452624,
				"element": "S" 
			},
			{
				"x": 1.284870788,
				"y": -2.9127475973,
				"z": -1.8146481269,
				"element": "O" 
			},
			{
				"x": 2.5380748274,
				"y": -0.8102958516,
				"z": -2.6008425519,
				"element": "O" 
			},
			{
				"x": 0.1304943311,
				"y": -0.6819122936,
				"z": -1.889500821,
				"element": "N" 
			},
			{
				"x": -1.0742945896,
				"y": -1.2689669715,
				"z": -1.2711605735,
				"element": "C" 
			},
			{
				"x": -2.3101342086,
				"y": -0.5495057162,
				"z": -1.814147325,
				"element": "C" 
			},
			{
				"x": -2.3138104983,
				"y": 0.9736552912,
				"z": -1.4890160054,
				"element": "C" 
			},
			{
				"x": -0.8688441905,
				"y": 1.4866667985,
				"z": -1.2404699337,
				"element": "C" 
			},
			{
				"x": 0.1343606162,
				"y": 0.7740386725,
				"z": -2.1493939891,
				"element": "C" 
			},
			{
				"x": -3.2013265026,
				"y": 1.3206565497,
				"z": -0.3087710274,
				"element": "C" 
			},
			{
				"x": -2.9057222151,
				"y": 0.5759872795,
				"z": 0.7916171347,
				"element": "O" 
			},
			{
				"x": -4.0705389771,
				"y": 2.1623129275,
				"z": -0.3017798414,
				"element": "O" 
			},
			{
				"x": 1.3610509422,
				"y": 0.329088595,
				"z": 4.9909477532,
				"element": "H" 
			},
			{
				"x": 2.2960668406,
				"y": 1.6451095516,
				"z": 4.4533530816,
				"element": "H" 
			},
			{
				"x": 4.1136814296,
				"y": 0.9292780003,
				"z": 1.7644026436,
				"element": "H" 
			},
			{
				"x": 3.3981668923,
				"y": 0.4674849171,
				"z": -0.5945275392,
				"element": "H" 
			},
			{
				"x": 1.0584970693,
				"y": -2.8683068058,
				"z": 0.7693758178,
				"element": "H" 
			},
			{
				"x": 1.7690476507,
				"y": -2.4040743407,
				"z": 3.1265773085,
				"element": "H" 
			},
			{
				"x": -1.0489646069,
				"y": -1.1878950775,
				"z": -0.1746485947,
				"element": "H" 
			},
			{
				"x": -1.1044907895,
				"y": -2.3272290298,
				"z": -1.5342990616,
				"element": "H" 
			},
			{
				"x": -3.2051607393,
				"y": -1.0358875769,
				"z": -1.4158134076,
				"element": "H" 
			},
			{
				"x": -2.3363816555,
				"y": -0.6780947609,
				"z": -2.9008751354,
				"element": "H" 
			},
			{
				"x": -2.7419736497,
				"y": 1.5180457559,
				"z": -2.3343637038,
				"element": "H" 
			},
			{
				"x": -0.8212183359,
				"y": 2.565991742,
				"z": -1.4158001475,
				"element": "H" 
			},
			{
				"x": -0.5878308425,
				"y": 1.3160243545,
				"z": -0.1958180011,
				"element": "H" 
			},
			{
				"x": -0.1112029682,
				"y": 0.9520046108,
				"z": -3.2041882951,
				"element": "H" 
			},
			{
				"x": 1.1408578844,
				"y": 1.1678509868,
				"z": -1.99500576,
				"element": "H" 
			},
			{
				"x": -3.5208213014,
				"y": 0.8671502377,
				"z": 1.4859112808,
				"element": "H" 
			}
		],
		 "valence_orbital": [ 
			{
				"type": "occ",
				"energy": -0.3126,
				"method": "rhf"
			},
			{
				"type": "occ",
				"energy": -0.29344,
				"method": "rhf"
			},
			{
				"type": "occ",
				"energy": -0.29111,
				"method": "rhf"
			},
			{
				"type": "occ",
				"energy": -0.28898,
				"method": "rhf"
			},
			{
				"type": "occ",
				"energy": -0.25953,
				"method": "rhf"
			},
			{
				"type": "unocc",
				"energy": -0.07006,
				"method": "rhf"
			},
			{
				"type": "unocc",
				"energy": -0.04528,
				"method": "rhf"
			},
			{
				"type": "unocc",
				"energy": -0.01176,
				"method": "rhf"
			},
			{
				"type": "unocc",
				"energy": 0.03459,
				"method": "rhf"
			},
			{
				"type": "unocc",
				"energy": 0.04484,
				"method": "rhf"
			}
		],
		"cosmo_sigma_profile": { 
			"-0.025": 0.0,
			"-0.024": 0.0,
			"-0.023": 0.0,
			"-0.022": 0.0,
			"-0.021": 0.0,
			"-0.02": 0.0,
			"-0.019": 0.0,
			"-0.018": 0.55815149453,
			"-0.017": 0.902260159325,
			"-0.016": 1.67693461432,
			"-0.015": 3.32826910716,
			"-0.014": 3.54700601593,
			"-0.013": 3.5496891849,
			"-0.012": 4.17223424181,
			"-0.011": 2.78173046647,
			"-0.01": 2.77189517435,
			"-0.009": 2.16849772653,
			"-0.008": 7.50493764116,
			"-0.007": 10.6915616322,
			"-0.006": 15.2546705881,
			"-0.005": 29.4002273282,
			"-0.004": 30.9431573228,
			"-0.003": 26.5122329286,
			"-0.002": 22.5354514564,
			"-0.001": 15.8109943481,
			"0.0": 20.3159400011,
			"0.001": 16.4962204924,
			"0.002": 10.080962904,
			"0.003": 9.71097697316,
			"0.004": 8.18294659223,
			"0.005": 9.25638791728,
			"0.006": 10.1719768521,
			"0.007": 9.71727235542,
			"0.008": 8.78327857137,
			"0.009": 10.0514392391,
			"0.01": 17.7854294357,
			"0.011": 21.3984371757,
			"0.012": 8.8677939585,
			"0.013": 0.728721572018,
			"0.014": 0.0,
			"0.015": 0.0,
			"0.016": 0.0,
			"0.017": 0.0,
			"0.018": 0.0,
			"0.019": 0.0,
			"0.02": 0.0,
			"0.021": 0.0,
			"0.022": 0.0,
			"0.023": 0.0,
			"0.024": 0.0,
			"0.025": 0.0
		}
	}
}
