{
	 "smiles": "CCOC(=O)C(C(=O)OCC)C(=O)OCC", 
	 "Tm": 301.65, 
	 "num_atms": 32, 
	 "gaussian": { 
		 "optdone": 1, 
		 "sigma_profile": "yes", 
		 "theory": "DFT", 
		 "functional": "B3LYP", 
		 "basiset": "6-31G**", 
		 "properties": { 
			 "R2extent": 4694.1051, 
			 "electric_dipole_moment_norm": 3.62045877342, 
			 "electric_quadrupole_moment_norm": 19.8230248032, 
			 "total_energy": -842.085710053, 
			 "HOMO_LUMO_gap": 0.264, 
			 "cosmo_polarized_energy": -13.9, 
			 "cosmo_cavitation_energy": 37.21, 
			 "cosmo_dispersion_energy": -23.79, 
			 "cosmo_repulsion_energy": 1.95, 
			 "cosmo_total_nonelectrostatic_energy": 15.37, 
			 "SMD_solvation_energy": 9.64 
		},
		"coords": [
			{
				"x": -0.510067987,
				"y": -0.1725877127,
				"z": -4.5317556578,
				"element": "C" 
			},
			{
				"x": 0.5990195571,
				"y": -1.1964238864,
				"z": -4.3478468787,
				"element": "C" 
			},
			{
				"x": 1.3569131377,
				"y": -0.933929124,
				"z": -3.1383781362,
				"element": "O" 
			},
			{
				"x": 0.8641866907,
				"y": -1.4494959694,
				"z": -1.9977772044,
				"element": "C" 
			},
			{
				"x": -0.1208942394,
				"y": -2.1471531517,
				"z": -1.9147532529,
				"element": "O" 
			},
			{
				"x": 1.7502939369,
				"y": -1.0401408338,
				"z": -0.8198063303,
				"element": "C" 
			},
			{
				"x": 1.4422298559,
				"y": -1.9454889945,
				"z": 0.3768443425,
				"element": "C" 
			},
			{
				"x": 2.0045918669,
				"y": -2.9979293144,
				"z": 0.5696878019,
				"element": "O" 
			},
			{
				"x": 0.4768416594,
				"y": -1.4231600503,
				"z": 1.1483319824,
				"element": "O" 
			},
			{
				"x": 0.0303442161,
				"y": -2.2358375929,
				"z": 2.2658814504,
				"element": "C" 
			},
			{
				"x": -1.0391988273,
				"y": -3.2215412488,
				"z": 1.823233937,
				"element": "C" 
			},
			{
				"x": 1.621904845,
				"y": 0.4445941911,
				"z": -0.4658532034,
				"element": "C" 
			},
			{
				"x": 2.4886648632,
				"y": 1.0660392504,
				"z": 0.1047169156,
				"element": "O" 
			},
			{
				"x": 0.4388531226,
				"y": 0.9521087349,
				"z": -0.8460327057,
				"element": "O" 
			},
			{
				"x": 0.2056981188,
				"y": 2.3400759278,
				"z": -0.4998250571,
				"element": "C" 
			},
			{
				"x": -1.1745239871,
				"y": 2.7097104355,
				"z": -1.0067432584,
				"element": "C" 
			},
			{
				"x": -1.2412935078,
				"y": -0.2487843329,
				"z": -3.7234131898,
				"element": "H" 
			},
			{
				"x": -1.0255448537,
				"y": -0.3522178961,
				"z": -5.4810191879,
				"element": "H" 
			},
			{
				"x": -0.1034555587,
				"y": 0.8427707485,
				"z": -4.5475046865,
				"element": "H" 
			},
			{
				"x": 0.19907704,
				"y": -2.2115499568,
				"z": -4.2956831514,
				"element": "H" 
			},
			{
				"x": 1.3403091373,
				"y": -1.1372789555,
				"z": -5.1477833582,
				"element": "H" 
			},
			{
				"x": 2.794642864,
				"y": -1.2116365488,
				"z": -1.0877645767,
				"element": "H" 
			},
			{
				"x": 0.8959528257,
				"y": -2.7475824238,
				"z": 2.6925093334,
				"element": "H" 
			},
			{
				"x": -0.3568834403,
				"y": -1.5118877868,
				"z": 2.9862099083,
				"element": "H" 
			},
			{
				"x": -1.4087506284,
				"y": -3.7790712481,
				"z": 2.6903631753,
				"element": "H" 
			},
			{
				"x": -1.8810789638,
				"y": -2.69973036,
				"z": 1.3602097602,
				"element": "H" 
			},
			{
				"x": -0.6310488676,
				"y": -3.9333594791,
				"z": 1.1021583925,
				"element": "H" 
			},
			{
				"x": 0.2896135297,
				"y": 2.4443383656,
				"z": 0.5860823733,
				"element": "H" 
			},
			{
				"x": 0.9923928314,
				"y": 2.9503459285,
				"z": -0.9538393451,
				"element": "H" 
			},
			{
				"x": -1.2377469309,
				"y": 2.5926464265,
				"z": -2.0923730205,
				"element": "H" 
			},
			{
				"x": -1.3910531968,
				"y": 3.7537670752,
				"z": -0.7602185663,
				"element": "H" 
			},
			{
				"x": -1.9410891098,
				"y": 2.0800897829,
				"z": -0.5465586055,
				"element": "H" 
			}
		],
		 "valence_orbital": [ 
			{
				"type": "occ",
				"energy": -0.30448,
				"method": "rhf"
			},
			{
				"type": "occ",
				"energy": -0.3021,
				"method": "rhf"
			},
			{
				"type": "occ",
				"energy": -0.29646,
				"method": "rhf"
			},
			{
				"type": "occ",
				"energy": -0.27906,
				"method": "rhf"
			},
			{
				"type": "occ",
				"energy": -0.26887,
				"method": "rhf"
			},
			{
				"type": "unocc",
				"energy": -0.00487,
				"method": "rhf"
			},
			{
				"type": "unocc",
				"energy": -0.00261,
				"method": "rhf"
			},
			{
				"type": "unocc",
				"energy": 0.01454,
				"method": "rhf"
			},
			{
				"type": "unocc",
				"energy": 0.08571,
				"method": "rhf"
			},
			{
				"type": "unocc",
				"energy": 0.10408,
				"method": "rhf"
			}
		],
		"cosmo_sigma_profile": { 
			"-0.025": 0.0,
			"-0.024": 0.0,
			"-0.023": 0.0,
			"-0.022": 0.0,
			"-0.021": 0.0,
			"-0.02": 0.0,
			"-0.019": 0.0,
			"-0.018": 0.0,
			"-0.017": 0.0,
			"-0.016": 0.0,
			"-0.015": 0.0,
			"-0.014": 0.0,
			"-0.013": 0.0,
			"-0.012": 0.0,
			"-0.011": 0.0,
			"-0.01": 0.497857046281,
			"-0.009": 1.53334993433,
			"-0.008": 1.53390007032,
			"-0.007": 1.72216048372,
			"-0.006": 9.92476082256,
			"-0.005": 22.6786349451,
			"-0.004": 37.8871905858,
			"-0.003": 35.237104495,
			"-0.002": 28.074157115,
			"-0.001": 27.2668597095,
			"0.0": 25.504815995,
			"0.001": 12.7613932845,
			"0.002": 10.5107753348,
			"0.003": 11.9927830536,
			"0.004": 9.52048253371,
			"0.005": 8.02918593798,
			"0.006": 8.69978308584,
			"0.007": 6.42660666063,
			"0.008": 6.0513302018,
			"0.009": 5.54750340002,
			"0.01": 8.33123017641,
			"0.011": 10.6462026879,
			"0.012": 1.44312373606,
			"0.013": 0.0,
			"0.014": 0.0,
			"0.015": 0.0,
			"0.016": 0.0,
			"0.017": 0.0,
			"0.018": 0.0,
			"0.019": 0.0,
			"0.02": 0.0,
			"0.021": 0.0,
			"0.022": 0.0,
			"0.023": 0.0,
			"0.024": 0.0,
			"0.025": 0.0
		}
	}
}
