{
	 "smiles": "NC1=CC2=C(CCS2(=O)=O)C=C1", 
	 "Tm": 471.15, 
	 "num_atms": 21, 
	 "gaussian": { 
		 "optdone": 1, 
		 "sigma_profile": "yes", 
		 "theory": "DFT", 
		 "functional": "B3LYP", 
		 "basiset": "6-31G**", 
		 "properties": { 
			 "R2extent": 3088.9349, 
			 "electric_dipole_moment_norm": 6.00892716298, 
			 "electric_quadrupole_moment_norm": 22.3711995025, 
			 "total_energy": -913.602134097, 
			 "HOMO_LUMO_gap": 0.18705, 
			 "cosmo_polarized_energy": -19.84, 
			 "cosmo_cavitation_energy": 25.6, 
			 "cosmo_dispersion_energy": -19.66, 
			 "cosmo_repulsion_energy": 1.52, 
			 "cosmo_total_nonelectrostatic_energy": 7.45, 
			 "SMD_solvation_energy": 3.2 
		},
		"coords": [
			{
				"x": -1.2853125737,
				"y": 2.3977040931,
				"z": 0.4855306831,
				"element": "N" 
			},
			{
				"x": -0.7219556051,
				"y": 1.1329536819,
				"z": 0.3579516756,
				"element": "C" 
			},
			{
				"x": -1.5295177957,
				"y": 0.0036680537,
				"z": 0.1391738605,
				"element": "C" 
			},
			{
				"x": -0.9175731621,
				"y": -1.2396808174,
				"z": 0.0702286457,
				"element": "C" 
			},
			{
				"x": 0.4549526974,
				"y": -1.439605561,
				"z": 0.1998396895,
				"element": "C" 
			},
			{
				"x": 0.9117152119,
				"y": -2.8859640019,
				"z": 0.1068981986,
				"element": "C" 
			},
			{
				"x": -0.2070684719,
				"y": -3.6695614153,
				"z": -0.6025656744,
				"element": "C" 
			},
			{
				"x": -1.7627435799,
				"y": -2.800518566,
				"z": -0.1744030526,
				"element": "S" 
			},
			{
				"x": -2.6744751868,
				"y": -2.732124086,
				"z": -1.327189711,
				"element": "O" 
			},
			{
				"x": -2.2570909944,
				"y": -3.313570961,
				"z": 1.1147167582,
				"element": "O" 
			},
			{
				"x": 1.2515782368,
				"y": -0.3118450311,
				"z": 0.413021907,
				"element": "C" 
			},
			{
				"x": 0.6715123663,
				"y": 0.9512270687,
				"z": 0.4925462783,
				"element": "C" 
			},
			{
				"x": -2.2051309985,
				"y": 2.5141178305,
				"z": 0.0847689555,
				"element": "H" 
			},
			{
				"x": -0.6741326495,
				"y": 3.1770192874,
				"z": 0.287744081,
				"element": "H" 
			},
			{
				"x": -2.6038454643,
				"y": 0.1008679767,
				"z": 0.0123481235,
				"element": "H" 
			},
			{
				"x": 1.853966152,
				"y": -2.977215576,
				"z": -0.4428770183,
				"element": "H" 
			},
			{
				"x": 1.0799131088,
				"y": -3.2978336299,
				"z": 1.1092346528,
				"element": "H" 
			},
			{
				"x": -0.1180737753,
				"y": -3.6210956796,
				"z": -1.690204103,
				"element": "H" 
			},
			{
				"x": -0.3094052285,
				"y": -4.7068186409,
				"z": -0.2803942968,
				"element": "H" 
			},
			{
				"x": 2.3293773593,
				"y": -0.4128231015,
				"z": 0.5120216677,
				"element": "H" 
			},
			{
				"x": 1.3018103533,
				"y": 1.8212990756,
				"z": 0.6581086792,
				"element": "H" 
			}
		],
		 "valence_orbital": [ 
			{
				"type": "occ",
				"energy": -0.30449,
				"method": "rhf"
			},
			{
				"type": "occ",
				"energy": -0.28922,
				"method": "rhf"
			},
			{
				"type": "occ",
				"energy": -0.27634,
				"method": "rhf"
			},
			{
				"type": "occ",
				"energy": -0.26224,
				"method": "rhf"
			},
			{
				"type": "occ",
				"energy": -0.21797,
				"method": "rhf"
			},
			{
				"type": "unocc",
				"energy": -0.03092,
				"method": "rhf"
			},
			{
				"type": "unocc",
				"energy": -0.00563,
				"method": "rhf"
			},
			{
				"type": "unocc",
				"energy": 0.06433,
				"method": "rhf"
			},
			{
				"type": "unocc",
				"energy": 0.07013,
				"method": "rhf"
			},
			{
				"type": "unocc",
				"energy": 0.07615,
				"method": "rhf"
			}
		],
		"cosmo_sigma_profile": { 
			"-0.025": 0.0,
			"-0.024": 0.0,
			"-0.023": 0.0,
			"-0.022": 0.0,
			"-0.021": 0.0,
			"-0.02": 0.0,
			"-0.019": 0.0,
			"-0.018": 0.0,
			"-0.017": 0.0,
			"-0.016": 0.0,
			"-0.015": 0.0,
			"-0.014": 0.0399761976364,
			"-0.013": 1.71296473656,
			"-0.012": 3.47451450087,
			"-0.011": 2.34703482603,
			"-0.01": 3.61232768181,
			"-0.009": 3.91489369282,
			"-0.008": 7.23082650091,
			"-0.007": 10.0902053859,
			"-0.006": 16.2028968344,
			"-0.005": 16.1126332002,
			"-0.004": 16.0800226765,
			"-0.003": 11.3980457392,
			"-0.002": 8.84531189413,
			"-0.001": 6.57027558616,
			"0.0": 7.29715791517,
			"0.001": 6.70259695827,
			"0.002": 7.39571821195,
			"0.003": 10.9745083489,
			"0.004": 14.7138644606,
			"0.005": 4.93890035638,
			"0.006": 3.12808358131,
			"0.007": 2.98117086658,
			"0.008": 2.87901465934,
			"0.009": 3.72056598976,
			"0.01": 4.0767437962,
			"0.011": 11.5659749301,
			"0.012": 12.4104891912,
			"0.013": 2.58676038215,
			"0.014": 0.150312749993,
			"0.015": 0.0,
			"0.016": 0.0,
			"0.017": 0.0,
			"0.018": 0.0,
			"0.019": 0.0,
			"0.02": 0.0,
			"0.021": 0.0,
			"0.022": 0.0,
			"0.023": 0.0,
			"0.024": 0.0,
			"0.025": 0.0
		}
	}
}
