{
	 "smiles": "CC(C)(SC1=CC(=C(O)C(=C1)C(C)(C)C)C(C)(C)C)SC1=CC(=C(O)C(=C1)C(C)(C)C)C(C)(C)C", 
	 "Tm": 398.15, 
	 "num_atms": 83, 
	 "gaussian": { 
		 "optdone": 1, 
		 "sigma_profile": "yes", 
		 "theory": "DFT", 
		 "functional": "B3LYP", 
		 "basiset": "6-31G**", 
		 "properties": { 
			 "R2extent": 25470.6156, 
			 "electric_dipole_moment_norm": 5.24219535882, 
			 "electric_quadrupole_moment_norm": 15.2080763724, 
			 "total_energy": -2157.09111808, 
			 "HOMO_LUMO_gap": 0.19944, 
			 "cosmo_polarized_energy": -14.41, 
			 "cosmo_cavitation_energy": 77.56, 
			 "cosmo_dispersion_energy": -48.51, 
			 "cosmo_repulsion_energy": 3.59, 
			 "cosmo_total_nonelectrostatic_energy": 32.64, 
			 "SMD_solvation_energy": 12.83 
		},
		"coords": [
			{
				"x": -0.6500267496,
				"y": 1.501855691,
				"z": 0.2027584533,
				"element": "C" 
			},
			{
				"x": -1.5943141738,
				"y": 0.9213047622,
				"z": -0.845684307,
				"element": "C" 
			},
			{
				"x": -2.0675903712,
				"y": 1.9951424908,
				"z": -1.8311981879,
				"element": "C" 
			},
			{
				"x": -0.8155999289,
				"y": -0.5238005085,
				"z": -1.7698133289,
				"element": "S" 
			},
			{
				"x": 0.71760635,
				"y": 0.1390808884,
				"z": -2.428851381,
				"element": "C" 
			},
			{
				"x": 0.7525649218,
				"y": 0.7155861704,
				"z": -3.703188811,
				"element": "C" 
			},
			{
				"x": 1.9367803903,
				"y": 1.1891117484,
				"z": -4.2755956013,
				"element": "C" 
			},
			{
				"x": 3.1199676689,
				"y": 1.0543609203,
				"z": -3.5077989141,
				"element": "C" 
			},
			{
				"x": 4.2702259489,
				"y": 1.5284674852,
				"z": -4.0903245788,
				"element": "O" 
			},
			{
				"x": 3.1336930245,
				"y": 0.4635513942,
				"z": -2.2192949012,
				"element": "C" 
			},
			{
				"x": 1.9093211915,
				"y": 0.0128773014,
				"z": -1.711602978,
				"element": "C" 
			},
			{
				"x": 4.4356576847,
				"y": 0.3071425349,
				"z": -1.3925920662,
				"element": "C" 
			},
			{
				"x": 4.1736264048,
				"y": -0.3689321918,
				"z": -0.0296371014,
				"element": "C" 
			},
			{
				"x": 5.0544932147,
				"y": 1.6952711967,
				"z": -1.0711923009,
				"element": "C" 
			},
			{
				"x": 5.4537031199,
				"y": -0.6028126389,
				"z": -2.1332998113,
				"element": "C" 
			},
			{
				"x": 1.9432552022,
				"y": 1.8223186716,
				"z": -5.6869919344,
				"element": "C" 
			},
			{
				"x": 2.8475031722,
				"y": 1.0025620207,
				"z": -6.641139215,
				"element": "C" 
			},
			{
				"x": 0.5308708718,
				"y": 1.8452817481,
				"z": -6.3084231251,
				"element": "C" 
			},
			{
				"x": 2.4343655783,
				"y": 3.2899342798,
				"z": -5.6161152809,
				"element": "C" 
			},
			{
				"x": -3.1586165039,
				"y": 0.2335973631,
				"z": -0.0912180748,
				"element": "S" 
			},
			{
				"x": -2.627519838,
				"y": -0.7095802517,
				"z": 1.3367791528,
				"element": "C" 
			},
			{
				"x": -2.6959561808,
				"y": -0.1358826763,
				"z": 2.6074500704,
				"element": "C" 
			},
			{
				"x": -2.3622768296,
				"y": -0.8528055757,
				"z": 3.7628753574,
				"element": "C" 
			},
			{
				"x": -1.9461557321,
				"y": -2.1964258811,
				"z": 3.5896620584,
				"element": "C" 
			},
			{
				"x": -1.5929727822,
				"y": -2.9798501162,
				"z": 4.6614818675,
				"element": "O" 
			},
			{
				"x": -1.8701294772,
				"y": -2.8171937961,
				"z": 2.317889863,
				"element": "C" 
			},
			{
				"x": -2.2271018211,
				"y": -2.0433452097,
				"z": 1.2107326922,
				"element": "C" 
			},
			{
				"x": -1.4195694703,
				"y": -4.2872580595,
				"z": 2.1479692204,
				"element": "C" 
			},
			{
				"x": -1.4273054951,
				"y": -4.7165905227,
				"z": 0.6656252159,
				"element": "C" 
			},
			{
				"x": 0.028567168,
				"y": -4.4677707944,
				"z": 2.6679678078,
				"element": "C" 
			},
			{
				"x": -2.3804317602,
				"y": -5.2379885417,
				"z": 2.9046189289,
				"element": "C" 
			},
			{
				"x": -2.4521157848,
				"y": -0.184945824,
				"z": 5.1588657999,
				"element": "C" 
			},
			{
				"x": -3.487306741,
				"y": -0.9182247317,
				"z": 6.0554711698,
				"element": "C" 
			},
			{
				"x": -1.0561409082,
				"y": -0.1370571803,
				"z": 5.8384844054,
				"element": "C" 
			},
			{
				"x": -2.9316502517,
				"y": 1.2795449415,
				"z": 5.0658426502,
				"element": "C" 
			},
			{
				"x": -0.3599486846,
				"y": 0.7508953773,
				"z": 0.9403418948,
				"element": "H" 
			},
			{
				"x": 0.2557482532,
				"y": 1.8823601685,
				"z": -0.2797020392,
				"element": "H" 
			},
			{
				"x": -1.1367044138,
				"y": 2.3335747181,
				"z": 0.7240434756,
				"element": "H" 
			},
			{
				"x": -2.530795273,
				"y": 2.8290026625,
				"z": -1.2925118474,
				"element": "H" 
			},
			{
				"x": -2.7920519907,
				"y": 1.5911037678,
				"z": -2.5432557817,
				"element": "H" 
			},
			{
				"x": -1.2126975055,
				"y": 2.3815312079,
				"z": -2.3944928398,
				"element": "H" 
			},
			{
				"x": -0.1760879522,
				"y": 0.7785576589,
				"z": -4.25417879,
				"element": "H" 
			},
			{
				"x": 5.0178324954,
				"y": 1.3777453036,
				"z": -3.5042875314,
				"element": "H" 
			},
			{
				"x": 1.8641019689,
				"y": -0.4560950541,
				"z": -0.7381017362,
				"element": "H" 
			},
			{
				"x": 5.118115828,
				"y": -0.455939545,
				"z": 0.5169110963,
				"element": "H" 
			},
			{
				"x": 3.4859622845,
				"y": 0.2133789213,
				"z": 0.5908905652,
				"element": "H" 
			},
			{
				"x": 3.7648672689,
				"y": -1.3771820617,
				"z": -0.1443084465,
				"element": "H" 
			},
			{
				"x": 5.2993282152,
				"y": 2.2992562883,
				"z": -1.9504653168,
				"element": "H" 
			},
			{
				"x": 5.976948479,
				"y": 1.5729537909,
				"z": -0.4933380028,
				"element": "H" 
			},
			{
				"x": 4.35548419,
				"y": 2.2880663914,
				"z": -0.4732666695,
				"element": "H" 
			},
			{
				"x": 6.3704861028,
				"y": -0.7027551265,
				"z": -1.5422739438,
				"element": "H" 
			},
			{
				"x": 5.7454397748,
				"y": -0.2468377875,
				"z": -3.1264310919,
				"element": "H" 
			},
			{
				"x": 5.0298702234,
				"y": -1.6015721671,
				"z": -2.2749234628,
				"element": "H" 
			},
			{
				"x": 2.4846991666,
				"y": -0.027670125,
				"z": -6.7247198933,
				"element": "H" 
			},
			{
				"x": 3.8820020629,
				"y": 0.9760319037,
				"z": -6.2985720325,
				"element": "H" 
			},
			{
				"x": 2.8289061947,
				"y": 1.4463793231,
				"z": -7.64322587,
				"element": "H" 
			},
			{
				"x": -0.1732024997,
				"y": 2.4376606615,
				"z": -5.7147404744,
				"element": "H" 
			},
			{
				"x": 0.1163227435,
				"y": 0.839473727,
				"z": -6.4318779414,
				"element": "H" 
			},
			{
				"x": 0.5854504656,
				"y": 2.301310625,
				"z": -7.3020385392,
				"element": "H" 
			},
			{
				"x": 1.7774073238,
				"y": 3.8853131135,
				"z": -4.9724375859,
				"element": "H" 
			},
			{
				"x": 3.4509048343,
				"y": 3.3609253563,
				"z": -5.2289026585,
				"element": "H" 
			},
			{
				"x": 2.4160947633,
				"y": 3.7366352283,
				"z": -6.6169103583,
				"element": "H" 
			},
			{
				"x": -3.022681703,
				"y": 0.8924496737,
				"z": 2.680938515,
				"element": "H" 
			},
			{
				"x": -1.6953150399,
				"y": -2.4804629367,
				"z": 5.4770408144,
				"element": "H" 
			},
			{
				"x": -2.196004713,
				"y": -2.4712365974,
				"z": 0.2190229071,
				"element": "H" 
			},
			{
				"x": -2.4280466515,
				"y": -4.6615345295,
				"z": 0.2248388521,
				"element": "H" 
			},
			{
				"x": -1.0951793287,
				"y": -5.7573041555,
				"z": 0.5941062033,
				"element": "H" 
			},
			{
				"x": -0.749663784,
				"y": -4.1110113231,
				"z": 0.0553786743,
				"element": "H" 
			},
			{
				"x": 0.7196481101,
				"y": -3.8256702254,
				"z": 2.1109041174,
				"element": "H" 
			},
			{
				"x": 0.3477792684,
				"y": -5.5065727199,
				"z": 2.5245509148,
				"element": "H" 
			},
			{
				"x": 0.1139034409,
				"y": -4.2276103047,
				"z": 3.7279964269,
				"element": "H" 
			},
			{
				"x": -3.4009494527,
				"y": -5.1406081456,
				"z": 2.5184719042,
				"element": "H" 
			},
			{
				"x": -2.3970067057,
				"y": -5.0336014141,
				"z": 3.9753018164,
				"element": "H" 
			},
			{
				"x": -2.0653658803,
				"y": -6.2776552418,
				"z": 2.7583159218,
				"element": "H" 
			},
			{
				"x": -4.4807111349,
				"y": -0.8669235392,
				"z": 5.5996882874,
				"element": "H" 
			},
			{
				"x": -3.2771534406,
				"y": -1.9797993668,
				"z": 6.220122523,
				"element": "H" 
			},
			{
				"x": -3.5393786464,
				"y": -0.4413132216,
				"z": 7.0402063769,
				"element": "H" 
			},
			{
				"x": -0.3652696179,
				"y": 0.4585116303,
				"z": 5.2338803938,
				"element": "H" 
			},
			{
				"x": -1.132393367,
				"y": 0.3298382833,
				"z": 6.8264545553,
				"element": "H" 
			},
			{
				"x": -0.5836386466,
				"y": -1.11457333,
				"z": 5.9761923201,
				"element": "H" 
			},
			{
				"x": -3.930611921,
				"y": 1.3562437961,
				"z": 4.626435825,
				"element": "H" 
			},
			{
				"x": -2.9798484641,
				"y": 1.7078449925,
				"z": 6.0721334393,
				"element": "H" 
			},
			{
				"x": -2.2473177542,
				"y": 1.897657239,
				"z": 4.4769822189,
				"element": "H" 
			}
		],
		 "valence_orbital": [ 
			{
				"type": "occ",
				"energy": -0.23988,
				"method": "rhf"
			},
			{
				"type": "occ",
				"energy": -0.22719,
				"method": "rhf"
			},
			{
				"type": "occ",
				"energy": -0.21572,
				"method": "rhf"
			},
			{
				"type": "occ",
				"energy": -0.21251,
				"method": "rhf"
			},
			{
				"type": "occ",
				"energy": -0.21129,
				"method": "rhf"
			},
			{
				"type": "unocc",
				"energy": -0.01185,
				"method": "rhf"
			},
			{
				"type": "unocc",
				"energy": -0.0004,
				"method": "rhf"
			},
			{
				"type": "unocc",
				"energy": 1e-05,
				"method": "rhf"
			},
			{
				"type": "unocc",
				"energy": 0.00271,
				"method": "rhf"
			},
			{
				"type": "unocc",
				"energy": 0.05668,
				"method": "rhf"
			}
		],
		"cosmo_sigma_profile": { 
			"-0.025": 0.0,
			"-0.024": 0.0,
			"-0.023": 0.0,
			"-0.022": 0.0,
			"-0.021": 0.0,
			"-0.02": 0.0,
			"-0.019": 0.0,
			"-0.018": 0.0,
			"-0.017": 0.0,
			"-0.016": 0.0,
			"-0.015": 0.177259675339,
			"-0.014": 1.20431227331,
			"-0.013": 1.38382795698,
			"-0.012": 0.839458268308,
			"-0.011": 1.42826417688,
			"-0.01": 1.92376627901,
			"-0.009": 1.89112756973,
			"-0.008": 1.08862239868,
			"-0.007": 1.60501408856,
			"-0.006": 2.37538281463,
			"-0.005": 3.76067909384,
			"-0.004": 21.6163611331,
			"-0.003": 68.441261562,
			"-0.002": 85.7880747112,
			"-0.001": 81.0887689206,
			"0.0": 89.9694896121,
			"0.001": 78.265375814,
			"0.002": 53.9899012482,
			"0.003": 31.6744903578,
			"0.004": 28.4314345998,
			"0.005": 21.7924670308,
			"0.006": 9.39837505991,
			"0.007": 6.15751957868,
			"0.008": 4.72974815616,
			"0.009": 3.73716013247,
			"0.01": 1.7004580859,
			"0.011": 0.327326606997,
			"0.012": 0.0,
			"0.013": 0.0,
			"0.014": 0.0,
			"0.015": 0.0,
			"0.016": 0.0,
			"0.017": 0.0,
			"0.018": 0.0,
			"0.019": 0.0,
			"0.02": 0.0,
			"0.021": 0.0,
			"0.022": 0.0,
			"0.023": 0.0,
			"0.024": 0.0,
			"0.025": 0.0
		}
	}
}
