{
	 "smiles": "OS(=O)(=O)CCCNC1CCCCC1", 
	 "Tm": 597.15, 
	 "num_atms": 33, 
	 "gaussian": { 
		 "optdone": 1, 
		 "sigma_profile": "yes", 
		 "theory": "DFT", 
		 "functional": "B3LYP", 
		 "basiset": "6-31G**", 
		 "properties": { 
			 "R2extent": 5784.9334, 
			 "electric_dipole_moment_norm": 3.26605289761, 
			 "electric_quadrupole_moment_norm": 22.5792705236, 
			 "total_energy": -1032.96171216, 
			 "HOMO_LUMO_gap": 0.25182, 
			 "cosmo_polarized_energy": -14.36, 
			 "cosmo_cavitation_energy": 34.17, 
			 "cosmo_dispersion_energy": -25.25, 
			 "cosmo_repulsion_energy": 1.97, 
			 "cosmo_total_nonelectrostatic_energy": 10.89, 
			 "SMD_solvation_energy": 2.31 
		},
		"coords": [
			{
				"x": 3.3397969253,
				"y": 0.9591035774,
				"z": -1.284992996,
				"element": "O" 
			},
			{
				"x": 4.2659189479,
				"y": -0.3636782527,
				"z": -1.6704399837,
				"element": "S" 
			},
			{
				"x": 5.6080019981,
				"y": -0.0730496319,
				"z": -1.162539669,
				"element": "O" 
			},
			{
				"x": 4.047077121,
				"y": -0.6804589801,
				"z": -3.0763144301,
				"element": "O" 
			},
			{
				"x": 3.4811050284,
				"y": -1.617195988,
				"z": -0.6285705628,
				"element": "C" 
			},
			{
				"x": 2.1326228546,
				"y": -2.1359989373,
				"z": -1.1326819592,
				"element": "C" 
			},
			{
				"x": 0.9836484698,
				"y": -1.1161037217,
				"z": -1.1372379048,
				"element": "C" 
			},
			{
				"x": 0.8362869001,
				"y": -0.4579964011,
				"z": 0.1641844939,
				"element": "N" 
			},
			{
				"x": -0.5097859052,
				"y": 0.0651811593,
				"z": 0.4452774057,
				"element": "C" 
			},
			{
				"x": -0.4064043558,
				"y": 1.1694904754,
				"z": 1.522815848,
				"element": "C" 
			},
			{
				"x": -1.707724372,
				"y": 1.3415817801,
				"z": 2.3417131426,
				"element": "C" 
			},
			{
				"x": -2.9442258791,
				"y": 0.9767738094,
				"z": 1.5092109283,
				"element": "C" 
			},
			{
				"x": -2.9036207729,
				"y": -0.5098717019,
				"z": 1.0766757935,
				"element": "C" 
			},
			{
				"x": -1.4581064834,
				"y": -1.0404732,
				"z": 0.9298938818,
				"element": "C" 
			},
			{
				"x": 3.9708062676,
				"y": 1.6749624344,
				"z": -1.0970446374,
				"element": "H" 
			},
			{
				"x": 3.4068361951,
				"y": -1.1797121203,
				"z": 0.369557139,
				"element": "H" 
			},
			{
				"x": 4.2287958722,
				"y": -2.4157414817,
				"z": -0.602852802,
				"element": "H" 
			},
			{
				"x": 2.2583134451,
				"y": -2.5538318131,
				"z": -2.1368055552,
				"element": "H" 
			},
			{
				"x": 1.8649240833,
				"y": -2.9601104729,
				"z": -0.4612683727,
				"element": "H" 
			},
			{
				"x": 0.0636907129,
				"y": -1.6658147783,
				"z": -1.3600685987,
				"element": "H" 
			},
			{
				"x": 1.1217000345,
				"y": -0.3976536406,
				"z": -1.9609081815,
				"element": "H" 
			},
			{
				"x": 1.4874407158,
				"y": 0.3233881235,
				"z": 0.1882107793,
				"element": "H" 
			},
			{
				"x": -0.9528454619,
				"y": 0.5118707852,
				"z": -0.4653835315,
				"element": "H" 
			},
			{
				"x": -0.1341348963,
				"y": 2.1167644368,
				"z": 1.0400223926,
				"element": "H" 
			},
			{
				"x": 0.4190964155,
				"y": 0.9071829117,
				"z": 2.1964889316,
				"element": "H" 
			},
			{
				"x": -1.6750766322,
				"y": 0.6957179489,
				"z": 3.2283966539,
				"element": "H" 
			},
			{
				"x": -1.7817746506,
				"y": 2.3683699412,
				"z": 2.7165407888,
				"element": "H" 
			},
			{
				"x": -3.8616920779,
				"y": 1.1828229518,
				"z": 2.0717167655,
				"element": "H" 
			},
			{
				"x": -2.9786870991,
				"y": 1.6233960632,
				"z": 0.6228396439,
				"element": "H" 
			},
			{
				"x": -3.443320191,
				"y": -0.6272971496,
				"z": 0.1294279278,
				"element": "H" 
			},
			{
				"x": -3.4365544812,
				"y": -1.1266436717,
				"z": 1.8097039313,
				"element": "H" 
			},
			{
				"x": -1.442052612,
				"y": -1.8972974762,
				"z": 0.2470794374,
				"element": "H" 
			},
			{
				"x": -1.0790561167,
				"y": -1.4104769791,
				"z": 1.8906532995,
				"element": "H" 
			}
		],
		 "valence_orbital": [ 
			{
				"type": "occ",
				"energy": -0.31086,
				"method": "rhf"
			},
			{
				"type": "occ",
				"energy": -0.30608,
				"method": "rhf"
			},
			{
				"type": "occ",
				"energy": -0.3015,
				"method": "rhf"
			},
			{
				"type": "occ",
				"energy": -0.29706,
				"method": "rhf"
			},
			{
				"type": "occ",
				"energy": -0.22406,
				"method": "rhf"
			},
			{
				"type": "unocc",
				"energy": 0.02776,
				"method": "rhf"
			},
			{
				"type": "unocc",
				"energy": 0.06087,
				"method": "rhf"
			},
			{
				"type": "unocc",
				"energy": 0.06937,
				"method": "rhf"
			},
			{
				"type": "unocc",
				"energy": 0.07871,
				"method": "rhf"
			},
			{
				"type": "unocc",
				"energy": 0.09222,
				"method": "rhf"
			}
		],
		"cosmo_sigma_profile": { 
			"-0.025": 0.0,
			"-0.024": 0.0,
			"-0.023": 0.0,
			"-0.022": 0.0,
			"-0.021": 0.0,
			"-0.02": 0.168992051307,
			"-0.019": 0.864508298171,
			"-0.018": 1.11835323095,
			"-0.017": 0.55368650147,
			"-0.016": 0.661123462447,
			"-0.015": 1.11198188767,
			"-0.014": 0.45269481602,
			"-0.013": 1.26292560425,
			"-0.012": 0.384583992588,
			"-0.011": 0.482828877642,
			"-0.01": 1.45283530271,
			"-0.009": 2.66443522933,
			"-0.008": 3.9563375597,
			"-0.007": 4.52789882286,
			"-0.006": 4.54059071279,
			"-0.005": 7.93888299398,
			"-0.004": 13.6204850109,
			"-0.003": 14.6393584743,
			"-0.002": 32.1669706835,
			"-0.001": 45.1979325886,
			"0.0": 34.7215411921,
			"0.001": 25.2510149183,
			"0.002": 11.1528673609,
			"0.003": 4.64126711036,
			"0.004": 4.69002752543,
			"0.005": 3.98220505968,
			"0.006": 4.20899950189,
			"0.007": 4.82372805523,
			"0.008": 4.88550217561,
			"0.009": 5.06548201245,
			"0.01": 12.2333752443,
			"0.011": 8.16956341638,
			"0.012": 0.647285909465,
			"0.013": 0.382667421863,
			"0.014": 0.517979563994,
			"0.015": 0.105670733301,
			"0.016": 0.32443895724,
			"0.017": 0.200459513459,
			"0.018": 0.0,
			"0.019": 0.0,
			"0.02": 0.0,
			"0.021": 0.0,
			"0.022": 0.0,
			"0.023": 0.0,
			"0.024": 0.0,
			"0.025": 0.0
		}
	}
}
