{
	 "smiles": "BrC1=CC(=CC=C1)C1=NC(C=O)=CS1", 
	 "Tm": 373.15, 
	 "num_atms": 20, 
	 "gaussian": { 
		 "optdone": 1, 
		 "sigma_profile": "yes", 
		 "theory": "DFT", 
		 "functional": "B3LYP", 
		 "basiset": "6-31G**", 
		 "properties": { 
			 "R2extent": 6978.4982, 
			 "electric_dipole_moment_norm": 3.9232095942, 
			 "electric_quadrupole_moment_norm": 6.288032387, 
			 "total_energy": -3484.23206744, 
			 "HOMO_LUMO_gap": 0.1638, 
			 "cosmo_polarized_energy": -9.38, 
			 "cosmo_cavitation_energy": 29.6, 
			 "cosmo_dispersion_energy": -22.5, 
			 "cosmo_repulsion_energy": 1.71, 
			 "cosmo_total_nonelectrostatic_energy": 8.81, 
			 "SMD_solvation_energy": 3.64 
		},
		"coords": [
			{
				"x": 5.2618387451,
				"y": 0.303147329,
				"z": 0.469663881,
				"element": "Br" 
			},
			{
				"x": 3.5512305888,
				"y": 0.4353820804,
				"z": -0.371555808,
				"element": "C" 
			},
			{
				"x": 2.4075701621,
				"y": 0.4522113043,
				"z": 0.4166397638,
				"element": "C" 
			},
			{
				"x": 1.1467835798,
				"y": 0.549303695,
				"z": -0.198312355,
				"element": "C" 
			},
			{
				"x": 1.0676375596,
				"y": 0.6273866135,
				"z": -1.597168447,
				"element": "C" 
			},
			{
				"x": 2.2277458716,
				"y": 0.6088013495,
				"z": -2.3679256347,
				"element": "C" 
			},
			{
				"x": 3.4816098948,
				"y": 0.5126136861,
				"z": -1.7631864684,
				"element": "C" 
			},
			{
				"x": -0.0475956717,
				"y": 0.5650728695,
				"z": 0.6579055313,
				"element": "C" 
			},
			{
				"x": -0.0201630743,
				"y": 0.4944532801,
				"z": 1.9599244036,
				"element": "N" 
			},
			{
				"x": -1.2833740972,
				"y": 0.5304833489,
				"z": 2.5007559506,
				"element": "C" 
			},
			{
				"x": -1.4595090635,
				"y": 0.4616329896,
				"z": 3.9667893379,
				"element": "C" 
			},
			{
				"x": -2.5419680943,
				"y": 0.4875046481,
				"z": 4.5201430545,
				"element": "O" 
			},
			{
				"x": -2.3150810692,
				"y": 0.6313292086,
				"z": 1.5987357155,
				"element": "C" 
			},
			{
				"x": -1.6937648224,
				"y": 0.6844402389,
				"z": -0.0023907045,
				"element": "S" 
			},
			{
				"x": 2.4686204284,
				"y": 0.3919216686,
				"z": 1.4959725093,
				"element": "H" 
			},
			{
				"x": 0.1025152118,
				"y": 0.7028102108,
				"z": -2.0893748916,
				"element": "H" 
			},
			{
				"x": 2.1588131534,
				"y": 0.6695802171,
				"z": -3.4496959655,
				"element": "H" 
			},
			{
				"x": 4.3875299214,
				"y": 0.4977026875,
				"z": -2.3578876927,
				"element": "H" 
			},
			{
				"x": -0.5068278961,
				"y": 0.3827553985,
				"z": 4.5290315861,
				"element": "H" 
			},
			{
				"x": -3.372511328,
				"y": 0.6739671761,
				"z": 1.8169362339,
				"element": "H" 
			}
		],
		 "valence_orbital": [ 
			{
				"type": "occ",
				"energy": -0.29349,
				"method": "rhf"
			},
			{
				"type": "occ",
				"energy": -0.29346,
				"method": "rhf"
			},
			{
				"type": "occ",
				"energy": -0.2624,
				"method": "rhf"
			},
			{
				"type": "occ",
				"energy": -0.25835,
				"method": "rhf"
			},
			{
				"type": "occ",
				"energy": -0.24297,
				"method": "rhf"
			},
			{
				"type": "unocc",
				"energy": -0.07917,
				"method": "rhf"
			},
			{
				"type": "unocc",
				"energy": -0.0589,
				"method": "rhf"
			},
			{
				"type": "unocc",
				"energy": -0.02662,
				"method": "rhf"
			},
			{
				"type": "unocc",
				"energy": -0.00429,
				"method": "rhf"
			},
			{
				"type": "unocc",
				"energy": 0.00217,
				"method": "rhf"
			}
		],
		"cosmo_sigma_profile": { 
			"-0.025": 0.0,
			"-0.024": 0.0,
			"-0.023": 0.0,
			"-0.022": 0.0,
			"-0.021": 0.0,
			"-0.02": 0.0,
			"-0.019": 0.0,
			"-0.018": 0.0,
			"-0.017": 0.0,
			"-0.016": 0.0,
			"-0.015": 0.0,
			"-0.014": 0.0,
			"-0.013": 0.0,
			"-0.012": 0.0,
			"-0.011": 0.565648096901,
			"-0.01": 1.68988598149,
			"-0.009": 1.58646065947,
			"-0.008": 3.70272294592,
			"-0.007": 8.32518872691,
			"-0.006": 13.0386910405,
			"-0.005": 11.8544959724,
			"-0.004": 13.1088640731,
			"-0.003": 14.5030233028,
			"-0.002": 17.9567527257,
			"-0.001": 21.6907592916,
			"0.0": 26.4383331984,
			"0.001": 25.7067698947,
			"0.002": 25.8476848792,
			"0.003": 16.3492968147,
			"0.004": 14.5269705405,
			"0.005": 6.16351018862,
			"0.006": 3.21346517825,
			"0.007": 2.55828671613,
			"0.008": 2.97940046243,
			"0.009": 3.53104979211,
			"0.01": 3.20135942567,
			"0.011": 4.13237135091,
			"0.012": 2.00283887479,
			"0.013": 0.315748797782,
			"0.014": 0.0,
			"0.015": 0.0,
			"0.016": 0.0,
			"0.017": 0.0,
			"0.018": 0.0,
			"0.019": 0.0,
			"0.02": 0.0,
			"0.021": 0.0,
			"0.022": 0.0,
			"0.023": 0.0,
			"0.024": 0.0,
			"0.025": 0.0
		}
	}
}
