{
	 "smiles": "CC1=C(N=NN1C1=CC(Br)=CC=C1)C(O)=O", 
	 "Tm": 458.15, 
	 "num_atms": 24, 
	 "gaussian": { 
		 "optdone": 1, 
		 "sigma_profile": "yes", 
		 "theory": "DFT", 
		 "functional": "B3LYP", 
		 "basiset": "6-31G**", 
		 "properties": { 
			 "R2extent": 8249.021, 
			 "electric_dipole_moment_norm": 8.5609975914, 
			 "electric_quadrupole_moment_norm": 26.4929223609, 
			 "total_energy": -3271.9547583, 
			 "HOMO_LUMO_gap": 0.20267, 
			 "cosmo_polarized_energy": -25.12, 
			 "cosmo_cavitation_energy": 31.81, 
			 "cosmo_dispersion_energy": -23.25, 
			 "cosmo_repulsion_energy": 1.8, 
			 "cosmo_total_nonelectrostatic_energy": 10.37, 
			 "SMD_solvation_energy": 3.99 
		},
		"coords": [
			{
				"x": 1.6353215682,
				"y": -0.5946929524,
				"z": -1.3114562218,
				"element": "C" 
			},
			{
				"x": 0.4672409221,
				"y": -1.5299681997,
				"z": -1.3392494454,
				"element": "C" 
			},
			{
				"x": 0.3365720959,
				"y": -2.8350805535,
				"z": -1.8000808205,
				"element": "C" 
			},
			{
				"x": -0.9770630498,
				"y": -3.2105616518,
				"z": -1.708819628,
				"element": "N" 
			},
			{
				"x": -1.6657418388,
				"y": -2.2415788742,
				"z": -1.2100998114,
				"element": "N" 
			},
			{
				"x": -0.8056863195,
				"y": -1.1949716932,
				"z": -0.9760065926,
				"element": "N" 
			},
			{
				"x": -1.3289370964,
				"y": 0.0329859295,
				"z": -0.4783148271,
				"element": "C" 
			},
			{
				"x": -2.5308200899,
				"y": 0.5045648543,
				"z": -1.0165628133,
				"element": "C" 
			},
			{
				"x": -3.0589610722,
				"y": 1.6938191768,
				"z": -0.523397273,
				"element": "C" 
			},
			{
				"x": -4.6964276857,
				"y": 2.3512894222,
				"z": -1.2449462561,
				"element": "Br" 
			},
			{
				"x": -2.4119696945,
				"y": 2.4189498141,
				"z": 0.4781939183,
				"element": "C" 
			},
			{
				"x": -1.2168535365,
				"y": 1.9279848964,
				"z": 1.003048819,
				"element": "C" 
			},
			{
				"x": -0.672132571,
				"y": 0.7309790579,
				"z": 0.5384259143,
				"element": "C" 
			},
			{
				"x": 1.3467615147,
				"y": -3.7426127531,
				"z": -2.4054727247,
				"element": "C" 
			},
			{
				"x": 2.6340775039,
				"y": -3.5517242717,
				"z": -1.9793690065,
				"element": "O" 
			},
			{
				"x": 1.0969951817,
				"y": -4.5764253036,
				"z": -3.2352140235,
				"element": "O" 
			},
			{
				"x": 2.1069726453,
				"y": -0.5443540091,
				"z": -0.3226262262,
				"element": "H" 
			},
			{
				"x": 2.3901087747,
				"y": -0.9252358683,
				"z": -2.0280499661,
				"element": "H" 
			},
			{
				"x": 1.3315055065,
				"y": 0.4214172335,
				"z": -1.5771343732,
				"element": "H" 
			},
			{
				"x": -3.0323223134,
				"y": -0.0571440591,
				"z": -1.7939195768,
				"element": "H" 
			},
			{
				"x": -2.8394199787,
				"y": 3.3456816785,
				"z": 0.8425056901,
				"element": "H" 
			},
			{
				"x": -0.7133284027,
				"y": 2.4766634428,
				"z": 1.7927027609,
				"element": "H" 
			},
			{
				"x": 0.2352078425,
				"y": 0.333719774,
				"z": 0.9781057616,
				"element": "H" 
			},
			{
				"x": 2.6394000937,
				"y": -3.0314050902,
				"z": -1.1642632778,
				"element": "H" 
			}
		],
		 "valence_orbital": [ 
			{
				"type": "occ",
				"energy": -0.28769,
				"method": "rhf"
			},
			{
				"type": "occ",
				"energy": -0.28292,
				"method": "rhf"
			},
			{
				"type": "occ",
				"energy": -0.27961,
				"method": "rhf"
			},
			{
				"type": "occ",
				"energy": -0.27141,
				"method": "rhf"
			},
			{
				"type": "occ",
				"energy": -0.26366,
				"method": "rhf"
			},
			{
				"type": "unocc",
				"energy": -0.06099,
				"method": "rhf"
			},
			{
				"type": "unocc",
				"energy": -0.04217,
				"method": "rhf"
			},
			{
				"type": "unocc",
				"energy": -0.02825,
				"method": "rhf"
			},
			{
				"type": "unocc",
				"energy": -0.01586,
				"method": "rhf"
			},
			{
				"type": "unocc",
				"energy": -0.00486,
				"method": "rhf"
			}
		],
		"cosmo_sigma_profile": { 
			"-0.025": 0.0,
			"-0.024": 0.0,
			"-0.023": 0.0,
			"-0.022": 0.0,
			"-0.021": 0.0,
			"-0.02": 0.0,
			"-0.019": 0.237292743533,
			"-0.018": 0.811244458937,
			"-0.017": 1.14019098364,
			"-0.016": 0.985423525717,
			"-0.015": 0.550358004881,
			"-0.014": 1.05916388127,
			"-0.013": 1.04336533924,
			"-0.012": 1.42180614487,
			"-0.011": 0.956222920568,
			"-0.01": 1.20717779762,
			"-0.009": 3.74236247209,
			"-0.008": 7.64681340343,
			"-0.007": 15.0430696886,
			"-0.006": 14.6463975443,
			"-0.005": 15.1736455845,
			"-0.004": 17.1701545356,
			"-0.003": 15.9110663216,
			"-0.002": 14.7665842775,
			"-0.001": 12.2259765914,
			"0.0": 13.1649885771,
			"0.001": 22.3494636331,
			"0.002": 18.1916859574,
			"0.003": 11.6834448859,
			"0.004": 14.5965721426,
			"0.005": 4.93248703525,
			"0.006": 3.99697188441,
			"0.007": 4.68093311286,
			"0.008": 4.64892394176,
			"0.009": 7.56543528591,
			"0.01": 9.00599233245,
			"0.011": 8.12182650919,
			"0.012": 6.90157732823,
			"0.013": 2.25171216985,
			"0.014": 1.07303161147,
			"0.015": 0.187539895283,
			"0.016": 0.0,
			"0.017": 0.0,
			"0.018": 0.0,
			"0.019": 0.0,
			"0.02": 0.0,
			"0.021": 0.0,
			"0.022": 0.0,
			"0.023": 0.0,
			"0.024": 0.0,
			"0.025": 0.0
		}
	}
}
