{
	 "smiles": "C1CC2=C(N1)C=CC=C2", 
	 "Tm": 252.15, 
	 "num_atms": 18, 
	 "gaussian": { 
		 "optdone": 1, 
		 "sigma_profile": "yes", 
		 "theory": "DFT", 
		 "functional": "B3LYP", 
		 "basiset": "6-31G**", 
		 "properties": { 
			 "R2extent": 1464.9982, 
			 "electric_dipole_moment_norm": 1.59665115476, 
			 "electric_quadrupole_moment_norm": 6.57529436375, 
			 "total_energy": -365.02664709, 
			 "HOMO_LUMO_gap": 0.19638, 
			 "cosmo_polarized_energy": -6.06, 
			 "cosmo_cavitation_energy": 20.45, 
			 "cosmo_dispersion_energy": -15.78, 
			 "cosmo_repulsion_energy": 1.3, 
			 "cosmo_total_nonelectrostatic_energy": 5.96, 
			 "SMD_solvation_energy": 1.81 
		},
		"coords": [
			{
				"x": 2.0740784851,
				"y": -1.5473965207,
				"z": 2.2275794354,
				"element": "C" 
			},
			{
				"x": 0.8252697675,
				"y": -0.9012851953,
				"z": 2.8766692629,
				"element": "C" 
			},
			{
				"x": 0.3766703197,
				"y": 0.0711701518,
				"z": 1.8046278568,
				"element": "C" 
			},
			{
				"x": 0.9993542154,
				"y": -0.2901326705,
				"z": 0.5962668149,
				"element": "C" 
			},
			{
				"x": 1.8165327765,
				"y": -1.414026414,
				"z": 0.7807958219,
				"element": "N" 
			},
			{
				"x": 0.7452509797,
				"y": 0.41458224,
				"z": -0.5808657489,
				"element": "C" 
			},
			{
				"x": -0.1481592487,
				"y": 1.4912397802,
				"z": -0.5272895548,
				"element": "C" 
			},
			{
				"x": -0.7742640588,
				"y": 1.8545470532,
				"z": 0.6668952532,
				"element": "C" 
			},
			{
				"x": -0.5128915328,
				"y": 1.1346727518,
				"z": 1.8427120406,
				"element": "C" 
			},
			{
				"x": 2.9801203699,
				"y": -0.9966041101,
				"z": 2.5268907003,
				"element": "H" 
			},
			{
				"x": 2.2059350152,
				"y": -2.5967620919,
				"z": 2.5067787167,
				"element": "H" 
			},
			{
				"x": 1.054171983,
				"y": -0.4320843505,
				"z": 3.838025192,
				"element": "H" 
			},
			{
				"x": 0.0509546131,
				"y": -1.6593703699,
				"z": 3.0569122772,
				"element": "H" 
			},
			{
				"x": 2.6280076947,
				"y": -1.4823220184,
				"z": 0.1795573207,
				"element": "H" 
			},
			{
				"x": 1.2282504231,
				"y": 0.1392542123,
				"z": -1.5144372297,
				"element": "H" 
			},
			{
				"x": -0.3516789014,
				"y": 2.0548539499,
				"z": -1.4338362016,
				"element": "H" 
			},
			{
				"x": -1.4610110708,
				"y": 2.6952279436,
				"z": 0.6866122761,
				"element": "H" 
			},
			{
				"x": -0.9960918306,
				"y": 1.4160356587,
				"z": 2.7753057662,
				"element": "H" 
			}
		],
		 "valence_orbital": [ 
			{
				"type": "occ",
				"energy": -0.34193,
				"method": "rhf"
			},
			{
				"type": "occ",
				"energy": -0.32522,
				"method": "rhf"
			},
			{
				"type": "occ",
				"energy": -0.28559,
				"method": "rhf"
			},
			{
				"type": "occ",
				"energy": -0.23525,
				"method": "rhf"
			},
			{
				"type": "occ",
				"energy": -0.1885,
				"method": "rhf"
			},
			{
				"type": "unocc",
				"energy": 0.00788,
				"method": "rhf"
			},
			{
				"type": "unocc",
				"energy": 0.02559,
				"method": "rhf"
			},
			{
				"type": "unocc",
				"energy": 0.09052,
				"method": "rhf"
			},
			{
				"type": "unocc",
				"energy": 0.10865,
				"method": "rhf"
			},
			{
				"type": "unocc",
				"energy": 0.12184,
				"method": "rhf"
			}
		],
		"cosmo_sigma_profile": { 
			"-0.025": 0.0,
			"-0.024": 0.0,
			"-0.023": 0.0,
			"-0.022": 0.0,
			"-0.021": 0.0,
			"-0.02": 0.0,
			"-0.019": 0.0,
			"-0.018": 0.0,
			"-0.017": 0.0,
			"-0.016": 0.0,
			"-0.015": 0.0,
			"-0.014": 0.0,
			"-0.013": 0.0473069329699,
			"-0.012": 1.01360182262,
			"-0.011": 1.34113240315,
			"-0.01": 1.27654036648,
			"-0.009": 0.959752403695,
			"-0.008": 1.49091729255,
			"-0.007": 1.39116456244,
			"-0.006": 2.04631264942,
			"-0.005": 7.46725715828,
			"-0.004": 14.4846229406,
			"-0.003": 20.5599737657,
			"-0.002": 21.3863625785,
			"-0.001": 16.313502343,
			"0.0": 12.1180388565,
			"0.001": 6.19152473555,
			"0.002": 6.52034009117,
			"0.003": 7.23909631948,
			"0.004": 7.10407284321,
			"0.005": 7.04426658604,
			"0.006": 9.16950569654,
			"0.007": 8.23322444469,
			"0.008": 4.55756540794,
			"0.009": 0.877025629391,
			"0.01": 0.716500715656,
			"0.011": 0.40402622433,
			"0.012": 0.761009845233,
			"0.013": 0.508775423299,
			"0.014": 0.46688958235,
			"0.015": 0.146628453191,
			"0.016": 0.0,
			"0.017": 0.0,
			"0.018": 0.0,
			"0.019": 0.0,
			"0.02": 0.0,
			"0.021": 0.0,
			"0.022": 0.0,
			"0.023": 0.0,
			"0.024": 0.0,
			"0.025": 0.0
		}
	}
}
