{
	 "smiles": "N#CC#N", 
	 "Tm": 245.25, 
	 "num_atms": 4, 
	 "gaussian": { 
		 "optdone": 1, 
		 "sigma_profile": "yes", 
		 "theory": "DFT", 
		 "functional": "B3LYP", 
		 "basiset": "6-31G**", 
		 "properties": { 
			 "R2extent": 886.7816, 
			 "electric_dipole_moment_norm": 0.0, 
			 "electric_quadrupole_moment_norm": 5.58561790584, 
			 "total_energy": -185.649243809, 
			 "HOMO_LUMO_gap": 0.27542, 
			 "cosmo_polarized_energy": -3.89, 
			 "cosmo_cavitation_energy": 10.53, 
			 "cosmo_dispersion_energy": -6.46, 
			 "cosmo_repulsion_energy": 0.62, 
			 "cosmo_total_nonelectrostatic_energy": 4.69, 
			 "SMD_solvation_energy": 5.41 
		},
		"coords": [
			{
				"x": 0.1487660311,
				"y": 0.6111802674,
				"z": -3.1239192747,
				"element": "N" 
			},
			{
				"x": -0.1396472332,
				"y": 1.395109937,
				"z": -2.3136006403,
				"element": "C" 
			},
			{
				"x": -0.4818506544,
				"y": 2.3251879853,
				"z": -1.3521965179,
				"element": "C" 
			},
			{
				"x": -0.7702681435,
				"y": 3.1091218102,
				"z": -0.541883567,
				"element": "N" 
			}
		],
		 "valence_orbital": [ 
			{
				"type": "occ",
				"energy": -0.44966,
				"method": "rhf"
			},
			{
				"type": "occ",
				"energy": -0.43181,
				"method": "rhf"
			},
			{
				"type": "occ",
				"energy": -0.41877,
				"method": "rhf"
			},
			{
				"type": "occ",
				"energy": -0.36908,
				"method": "rhf"
			},
			{
				"type": "occ",
				"energy": -0.36908,
				"method": "rhf"
			},
			{
				"type": "unocc",
				"energy": -0.09366,
				"method": "rhf"
			},
			{
				"type": "unocc",
				"energy": -0.09366,
				"method": "rhf"
			},
			{
				"type": "unocc",
				"energy": 0.10818,
				"method": "rhf"
			},
			{
				"type": "unocc",
				"energy": 0.11722,
				"method": "rhf"
			},
			{
				"type": "unocc",
				"energy": 0.11722,
				"method": "rhf"
			}
		],
		"cosmo_sigma_profile": { 
			"-0.025": 0.0,
			"-0.024": 0.0,
			"-0.023": 0.0,
			"-0.022": 0.0,
			"-0.021": 0.0,
			"-0.02": 0.0,
			"-0.019": 0.0,
			"-0.018": 0.0,
			"-0.017": 0.0,
			"-0.016": 0.0,
			"-0.015": 0.0,
			"-0.014": 0.0,
			"-0.013": 0.0,
			"-0.012": 0.0,
			"-0.011": 0.0,
			"-0.01": 0.0,
			"-0.009": 0.00406822669389,
			"-0.008": 6.52573644572,
			"-0.007": 6.64393312975,
			"-0.006": 5.77540141357,
			"-0.005": 4.04993210167,
			"-0.004": 4.02833204332,
			"-0.003": 3.17152589379,
			"-0.002": 6.61547906152,
			"-0.001": 3.325751624,
			"0.0": 6.49126974459,
			"0.001": 3.81332187784,
			"0.002": 5.21971118656,
			"0.003": 5.36335716812,
			"0.004": 5.43000941537,
			"0.005": 5.93443693825,
			"0.006": 4.53181802158,
			"0.007": 4.80372489881,
			"0.008": 4.08161180144,
			"0.009": 2.2255453954,
			"0.01": 0.0,
			"0.011": 0.0,
			"0.012": 0.0,
			"0.013": 0.0,
			"0.014": 0.0,
			"0.015": 0.0,
			"0.016": 0.0,
			"0.017": 0.0,
			"0.018": 0.0,
			"0.019": 0.0,
			"0.02": 0.0,
			"0.021": 0.0,
			"0.022": 0.0,
			"0.023": 0.0,
			"0.024": 0.0,
			"0.025": 0.0
		}
	}
}
