{
	 "smiles": "CCCCNS(=O)(=O)C1=CC(N)=C(N)C=C1", 
	 "Tm": 323.15, 
	 "num_atms": 33, 
	 "gaussian": { 
		 "optdone": 1, 
		 "sigma_profile": "yes", 
		 "theory": "DFT", 
		 "functional": "B3LYP", 
		 "basiset": "6-31G**", 
		 "properties": { 
			 "R2extent": 5213.691, 
			 "electric_dipole_moment_norm": 5.8533760865, 
			 "electric_quadrupole_moment_norm": 21.6421298952, 
			 "total_energy": -1104.15055017, 
			 "HOMO_LUMO_gap": 0.19039, 
			 "cosmo_polarized_energy": -21.51, 
			 "cosmo_cavitation_energy": 37.16, 
			 "cosmo_dispersion_energy": -26.52, 
			 "cosmo_repulsion_energy": 2.1, 
			 "cosmo_total_nonelectrostatic_energy": 12.74, 
			 "SMD_solvation_energy": 4.62 
		},
		"coords": [
			{
				"x": 4.0210042792,
				"y": 1.1669023968,
				"z": -1.7780227998,
				"element": "C" 
			},
			{
				"x": 3.3452928422,
				"y": 2.5200970796,
				"z": -2.03132204,
				"element": "C" 
			},
			{
				"x": 1.8177404591,
				"y": 2.4482709095,
				"z": -2.1890495303,
				"element": "C" 
			},
			{
				"x": 1.0884706359,
				"y": 2.0128651285,
				"z": -0.9151535593,
				"element": "C" 
			},
			{
				"x": -0.3644168084,
				"y": 2.0103522589,
				"z": -1.1521151646,
				"element": "N" 
			},
			{
				"x": -1.3597926023,
				"y": 1.5027954812,
				"z": 0.1243800861,
				"element": "S" 
			},
			{
				"x": -2.6856340949,
				"y": 2.0278032482,
				"z": -0.2223823815,
				"element": "O" 
			},
			{
				"x": -0.7444997653,
				"y": 1.8177531849,
				"z": 1.4231632109,
				"element": "O" 
			},
			{
				"x": -1.3439897953,
				"y": -0.2710095791,
				"z": -0.0576395731,
				"element": "C" 
			},
			{
				"x": -0.7082215585,
				"y": -1.0477282135,
				"z": 0.9155921685,
				"element": "C" 
			},
			{
				"x": -0.7028739363,
				"y": -2.4366219716,
				"z": 0.8037422049,
				"element": "C" 
			},
			{
				"x": -0.0525618385,
				"y": -3.2779542707,
				"z": 1.7291956554,
				"element": "N" 
			},
			{
				"x": -1.3329180226,
				"y": -3.0471815978,
				"z": -0.3095452934,
				"element": "C" 
			},
			{
				"x": -1.3146719338,
				"y": -4.4415981584,
				"z": -0.3854091893,
				"element": "N" 
			},
			{
				"x": -1.9882227794,
				"y": -2.2478975709,
				"z": -1.2553241325,
				"element": "C" 
			},
			{
				"x": -2.0038739644,
				"y": -0.8611764436,
				"z": -1.1357421383,
				"element": "C" 
			},
			{
				"x": 3.7850605436,
				"y": 0.4528663135,
				"z": -2.5755352709,
				"element": "H" 
			},
			{
				"x": 5.1097929238,
				"y": 1.2744559345,
				"z": -1.739869881,
				"element": "H" 
			},
			{
				"x": 3.7048009756,
				"y": 0.7204517433,
				"z": -0.8296037814,
				"element": "H" 
			},
			{
				"x": 3.7637266694,
				"y": 2.9631873604,
				"z": -2.9432750052,
				"element": "H" 
			},
			{
				"x": 3.5938118165,
				"y": 3.2133579844,
				"z": -1.2165231267,
				"element": "H" 
			},
			{
				"x": 1.5544221791,
				"y": 1.760853713,
				"z": -3.0025023185,
				"element": "H" 
			},
			{
				"x": 1.4457551069,
				"y": 3.4388135703,
				"z": -2.48613655,
				"element": "H" 
			},
			{
				"x": 1.3730035896,
				"y": 0.9910113453,
				"z": -0.644673065,
				"element": "H" 
			},
			{
				"x": 1.3643515655,
				"y": 2.66124896,
				"z": -0.0718851397,
				"element": "H" 
			},
			{
				"x": -0.7267772267,
				"y": 2.9136676457,
				"z": -1.4542736747,
				"element": "H" 
			},
			{
				"x": -0.241522189,
				"y": -0.5580538447,
				"z": 1.7644789336,
				"element": "H" 
			},
			{
				"x": 0.2962221149,
				"y": -2.7782239197,
				"z": 2.5384370092,
				"element": "H" 
			},
			{
				"x": -0.6449178058,
				"y": -4.0473346331,
				"z": 2.0299297951,
				"element": "H" 
			},
			{
				"x": -0.4372669012,
				"y": -4.8447405399,
				"z": -0.0733332379,
				"element": "H" 
			},
			{
				"x": -1.5998410007,
				"y": -4.8158712193,
				"z": -1.2809035469,
				"element": "H" 
			},
			{
				"x": -2.4825275463,
				"y": -2.7240436833,
				"z": -2.0984002016,
				"element": "H" 
			},
			{
				"x": -2.5135259317,
				"y": -0.2470186123,
				"z": -1.8691984618,
				"element": "H" 
			}
		],
		 "valence_orbital": [ 
			{
				"type": "occ",
				"energy": -0.2936,
				"method": "rhf"
			},
			{
				"type": "occ",
				"energy": -0.28389,
				"method": "rhf"
			},
			{
				"type": "occ",
				"energy": -0.25842,
				"method": "rhf"
			},
			{
				"type": "occ",
				"energy": -0.24014,
				"method": "rhf"
			},
			{
				"type": "occ",
				"energy": -0.20511,
				"method": "rhf"
			},
			{
				"type": "unocc",
				"energy": -0.01472,
				"method": "rhf"
			},
			{
				"type": "unocc",
				"energy": 0.00035,
				"method": "rhf"
			},
			{
				"type": "unocc",
				"energy": 0.06276,
				"method": "rhf"
			},
			{
				"type": "unocc",
				"energy": 0.07313,
				"method": "rhf"
			},
			{
				"type": "unocc",
				"energy": 0.08329,
				"method": "rhf"
			}
		],
		"cosmo_sigma_profile": { 
			"-0.025": 0.0,
			"-0.024": 0.0,
			"-0.023": 0.0,
			"-0.022": 0.0,
			"-0.021": 0.0,
			"-0.02": 0.0,
			"-0.019": 0.0,
			"-0.018": 0.0,
			"-0.017": 0.0,
			"-0.016": 0.0,
			"-0.015": 0.0,
			"-0.014": 0.242588337653,
			"-0.013": 1.96286321464,
			"-0.012": 4.9254848393,
			"-0.011": 5.34644362225,
			"-0.01": 7.36181862717,
			"-0.009": 7.57305743046,
			"-0.008": 6.02188682656,
			"-0.007": 7.08599245566,
			"-0.006": 8.72240775793,
			"-0.005": 7.435793869,
			"-0.004": 11.7473146394,
			"-0.003": 22.7428591303,
			"-0.002": 27.0843745213,
			"-0.001": 27.8692336166,
			"0.0": 24.9570771126,
			"0.001": 20.1329368602,
			"0.002": 12.3610150366,
			"0.003": 11.7940988618,
			"0.004": 15.3677710726,
			"0.005": 11.1982671478,
			"0.006": 5.55691609059,
			"0.007": 5.03519832413,
			"0.008": 4.942605495,
			"0.009": 5.57741928094,
			"0.01": 6.11533133459,
			"0.011": 10.1444526555,
			"0.012": 8.58124595626,
			"0.013": 2.39447203815,
			"0.014": 0.500807049898,
			"0.015": 0.0,
			"0.016": 0.0,
			"0.017": 0.0,
			"0.018": 0.0,
			"0.019": 0.0,
			"0.02": 0.0,
			"0.021": 0.0,
			"0.022": 0.0,
			"0.023": 0.0,
			"0.024": 0.0,
			"0.025": 0.0
		}
	}
}
