{
	 "smiles": "CC1=C(C)C(=N)N(N1)C1=CC=C(C=C1)C#N", 
	 "Tm": 454.15, 
	 "num_atms": 28, 
	 "gaussian": { 
		 "optdone": 1, 
		 "sigma_profile": "yes", 
		 "theory": "DFT", 
		 "functional": "B3LYP", 
		 "basiset": "6-31G**", 
		 "properties": { 
			 "R2extent": 5651.7538, 
			 "electric_dipole_moment_norm": 9.23921474694, 
			 "electric_quadrupole_moment_norm": 38.7573552514, 
			 "total_energy": -683.467846152, 
			 "HOMO_LUMO_gap": 0.16206, 
			 "cosmo_polarized_energy": -18.14, 
			 "cosmo_cavitation_energy": 32.76, 
			 "cosmo_dispersion_energy": -23.31, 
			 "cosmo_repulsion_energy": 1.8, 
			 "cosmo_total_nonelectrostatic_energy": 11.25, 
			 "SMD_solvation_energy": 6.48 
		},
		"coords": [
			{
				"x": 1.0160746001,
				"y": 2.9078352035,
				"z": -0.6440851013,
				"element": "C" 
			},
			{
				"x": 0.1804984589,
				"y": 1.6746514151,
				"z": -0.7548629688,
				"element": "C" 
			},
			{
				"x": -1.159672155,
				"y": 1.5057348463,
				"z": -0.8311717451,
				"element": "C" 
			},
			{
				"x": -2.2564051251,
				"y": 2.518950756,
				"z": -0.7642988724,
				"element": "C" 
			},
			{
				"x": -1.4276774132,
				"y": 0.0692877117,
				"z": -0.9828538239,
				"element": "C" 
			},
			{
				"x": -2.5257903697,
				"y": -0.5917132461,
				"z": -1.0863937412,
				"element": "N" 
			},
			{
				"x": -0.1564748602,
				"y": -0.544694842,
				"z": -0.9849016516,
				"element": "N" 
			},
			{
				"x": 0.8406724094,
				"y": 0.4335689169,
				"z": -0.7517208264,
				"element": "N" 
			},
			{
				"x": 0.1811543815,
				"y": -1.8920967667,
				"z": -0.8141132949,
				"element": "C" 
			},
			{
				"x": -0.7403225061,
				"y": -2.9106067467,
				"z": -1.1309700218,
				"element": "C" 
			},
			{
				"x": -0.3688325752,
				"y": -4.2406917118,
				"z": -0.9970744202,
				"element": "C" 
			},
			{
				"x": 0.9191714941,
				"y": -4.5939654049,
				"z": -0.5565433247,
				"element": "C" 
			},
			{
				"x": 1.831104711,
				"y": -3.5746250181,
				"z": -0.2370315181,
				"element": "C" 
			},
			{
				"x": 1.4689963345,
				"y": -2.2406553521,
				"z": -0.3614716573,
				"element": "C" 
			},
			{
				"x": 1.2960855434,
				"y": -5.9689123679,
				"z": -0.4313373097,
				"element": "C" 
			},
			{
				"x": 1.6051511538,
				"y": -7.0867706054,
				"z": -0.3299357415,
				"element": "N" 
			},
			{
				"x": 1.7476024196,
				"y": 2.9678207761,
				"z": -1.4596537354,
				"element": "H" 
			},
			{
				"x": 1.5752757999,
				"y": 2.9175333942,
				"z": 0.2977705112,
				"element": "H" 
			},
			{
				"x": 0.3951235308,
				"y": 3.8038649823,
				"z": -0.6871746214,
				"element": "H" 
			},
			{
				"x": -2.8709135618,
				"y": 2.4965641489,
				"z": -1.6725076334,
				"element": "H" 
			},
			{
				"x": -2.9260004385,
				"y": 2.3240658282,
				"z": 0.0828604961,
				"element": "H" 
			},
			{
				"x": -1.8664214155,
				"y": 3.5330816603,
				"z": -0.6508573176,
				"element": "H" 
			},
			{
				"x": -3.3173061815,
				"y": 0.0472751203,
				"z": -1.02051208,
				"element": "H" 
			},
			{
				"x": 1.5793445357,
				"y": 0.3605541661,
				"z": -1.453058075,
				"element": "H" 
			},
			{
				"x": -1.7339804135,
				"y": -2.6351888244,
				"z": -1.4563219934,
				"element": "H" 
			},
			{
				"x": -1.0817918851,
				"y": -5.0215207273,
				"z": -1.2407165736,
				"element": "H" 
			},
			{
				"x": 2.8229714975,
				"y": -3.833518867,
				"z": 0.1184773775,
				"element": "H" 
			},
			{
				"x": 2.1712620302,
				"y": -1.4667284453,
				"z": -0.0776403365,
				"element": "H" 
			}
		],
		 "valence_orbital": [ 
			{
				"type": "occ",
				"energy": -0.29313,
				"method": "rhf"
			},
			{
				"type": "occ",
				"energy": -0.26724,
				"method": "rhf"
			},
			{
				"type": "occ",
				"energy": -0.26192,
				"method": "rhf"
			},
			{
				"type": "occ",
				"energy": -0.23919,
				"method": "rhf"
			},
			{
				"type": "occ",
				"energy": -0.20558,
				"method": "rhf"
			},
			{
				"type": "unocc",
				"energy": -0.04352,
				"method": "rhf"
			},
			{
				"type": "unocc",
				"energy": -0.01688,
				"method": "rhf"
			},
			{
				"type": "unocc",
				"energy": -0.00694,
				"method": "rhf"
			},
			{
				"type": "unocc",
				"energy": 0.04931,
				"method": "rhf"
			},
			{
				"type": "unocc",
				"energy": 0.0578,
				"method": "rhf"
			}
		],
		"cosmo_sigma_profile": { 
			"-0.025": 0.0,
			"-0.024": 0.0,
			"-0.023": 0.0,
			"-0.022": 0.0,
			"-0.021": 0.0,
			"-0.02": 0.0,
			"-0.019": 0.0,
			"-0.018": 0.0,
			"-0.017": 0.0,
			"-0.016": 0.0,
			"-0.015": 0.632298739331,
			"-0.014": 1.28883341552,
			"-0.013": 1.65184614788,
			"-0.012": 1.75396266015,
			"-0.011": 1.03457028489,
			"-0.01": 1.86625437619,
			"-0.009": 1.89989834736,
			"-0.008": 3.9146152507,
			"-0.007": 9.1994186626,
			"-0.006": 13.9073740783,
			"-0.005": 16.8932808463,
			"-0.004": 17.7714169619,
			"-0.003": 18.4143443106,
			"-0.002": 19.3767460915,
			"-0.001": 21.2469098144,
			"0.0": 20.1991544185,
			"0.001": 18.0528593733,
			"0.002": 21.2450892923,
			"0.003": 18.7117579929,
			"0.004": 7.04463780975,
			"0.005": 4.82379105942,
			"0.006": 6.2388468119,
			"0.007": 4.15947986291,
			"0.008": 5.25721131113,
			"0.009": 5.63163354364,
			"0.01": 4.68833497426,
			"0.011": 5.65837193277,
			"0.012": 3.62185651616,
			"0.013": 4.75885027992,
			"0.014": 1.36902011341,
			"0.015": 0.0555439040331,
			"0.016": 0.0,
			"0.017": 0.0,
			"0.018": 0.0,
			"0.019": 0.0,
			"0.02": 0.0,
			"0.021": 0.0,
			"0.022": 0.0,
			"0.023": 0.0,
			"0.024": 0.0,
			"0.025": 0.0
		}
	}
}
