{
	 "smiles": "ClC1=C(Cl)C2=C(OC3=C(O2)C(Cl)=C(Cl)C(Cl)=C3Cl)C(Cl)=C1Cl", 
	 "Tm": 603.15, 
	 "num_atms": 22, 
	 "gaussian": { 
		 "optdone": 1, 
		 "sigma_profile": "yes", 
		 "theory": "DFT", 
		 "functional": "B3LYP", 
		 "basiset": "6-31G**", 
		 "properties": { 
			 "R2extent": 13916.2699, 
			 "electric_dipole_moment_norm": 0.0, 
			 "electric_quadrupole_moment_norm": 3.36653844475, 
			 "total_energy": -4289.19446392, 
			 "HOMO_LUMO_gap": 0.17082, 
			 "cosmo_polarized_energy": -5.69, 
			 "cosmo_cavitation_energy": 41.45, 
			 "cosmo_dispersion_energy": -30.95, 
			 "cosmo_repulsion_energy": 2.32, 
			 "cosmo_total_nonelectrostatic_energy": 12.82, 
			 "SMD_solvation_energy": 5.52 
		},
		"coords": [
			{
				"x": 4.1590333121,
				"y": 3.9075295931,
				"z": -1.8174904618,
				"element": "Cl" 
			},
			{
				"x": 3.3855145244,
				"y": 2.5892130209,
				"z": -1.0001613311,
				"element": "C" 
			},
			{
				"x": 1.9907692101,
				"y": 2.6046491558,
				"z": -0.8183802694,
				"element": "C" 
			},
			{
				"x": 1.009181282,
				"y": 3.912190602,
				"z": -1.3906717451,
				"element": "Cl" 
			},
			{
				"x": 1.3677731854,
				"y": 1.5433151048,
				"z": -0.160341574,
				"element": "C" 
			},
			{
				"x": 2.1191772252,
				"y": 0.4700333754,
				"z": 0.3167919738,
				"element": "C" 
			},
			{
				"x": 1.527882204,
				"y": -0.5845956618,
				"z": 0.9668446399,
				"element": "O" 
			},
			{
				"x": 0.1653286762,
				"y": -0.5375969428,
				"z": 1.1272237086,
				"element": "C" 
			},
			{
				"x": -0.5860752625,
				"y": 0.5356881549,
				"z": 0.6500901314,
				"element": "C" 
			},
			{
				"x": 0.005218261,
				"y": 1.5903004055,
				"z": 0.0000057029,
				"element": "O" 
			},
			{
				"x": -1.9704085414,
				"y": 0.561903637,
				"z": 0.8246889847,
				"element": "C" 
			},
			{
				"x": -2.8546464373,
				"y": 1.9196865715,
				"z": 0.2121256725,
				"element": "Cl" 
			},
			{
				"x": -2.6093399288,
				"y": -0.502256227,
				"z": 1.4864418073,
				"element": "C" 
			},
			{
				"x": -4.3287322247,
				"y": -0.4694253515,
				"z": 1.7031409493,
				"element": "Cl" 
			},
			{
				"x": -1.8524033065,
				"y": -1.5834550922,
				"z": 1.967108258,
				"element": "C" 
			},
			{
				"x": -2.6259120307,
				"y": -2.9017435571,
				"z": 2.7844963006,
				"element": "Cl" 
			},
			{
				"x": -0.4576603167,
				"y": -1.5989116049,
				"z": 1.785295515,
				"element": "C" 
			},
			{
				"x": 0.5239268707,
				"y": -2.906444412,
				"z": 2.3576021583,
				"element": "Cl" 
			},
			{
				"x": 3.5035169068,
				"y": 0.4438365065,
				"z": 0.1422241148,
				"element": "C" 
			},
			{
				"x": 4.3877537227,
				"y": -0.9139424607,
				"z": 0.7547981797,
				"element": "Cl" 
			},
			{
				"x": 4.1424519136,
				"y": 1.5080124348,
				"z": -0.519494632,
				"element": "C" 
			},
			{
				"x": 5.8618507544,
				"y": 1.4752127478,
				"z": -0.7361380835,
				"element": "Cl" 
			}
		],
		 "valence_orbital": [ 
			{
				"type": "occ",
				"energy": -0.31634,
				"method": "rhf"
			},
			{
				"type": "occ",
				"energy": -0.28298,
				"method": "rhf"
			},
			{
				"type": "occ",
				"energy": -0.27446,
				"method": "rhf"
			},
			{
				"type": "occ",
				"energy": -0.25887,
				"method": "rhf"
			},
			{
				"type": "occ",
				"energy": -0.23848,
				"method": "rhf"
			},
			{
				"type": "unocc",
				"energy": -0.06766,
				"method": "rhf"
			},
			{
				"type": "unocc",
				"energy": -0.05639,
				"method": "rhf"
			},
			{
				"type": "unocc",
				"energy": -0.05339,
				"method": "rhf"
			},
			{
				"type": "unocc",
				"energy": -0.05337,
				"method": "rhf"
			},
			{
				"type": "unocc",
				"energy": -0.04409,
				"method": "rhf"
			}
		],
		"cosmo_sigma_profile": { 
			"-0.025": 0.0,
			"-0.024": 0.0,
			"-0.023": 0.0,
			"-0.022": 0.0,
			"-0.021": 0.0,
			"-0.02": 0.0,
			"-0.019": 0.0,
			"-0.018": 0.0,
			"-0.017": 0.0,
			"-0.016": 0.0,
			"-0.015": 0.0,
			"-0.014": 0.0,
			"-0.013": 0.0,
			"-0.012": 0.0,
			"-0.011": 2.19150747566e-05,
			"-0.01": 0.428831498595,
			"-0.009": 1.16271107683,
			"-0.008": 1.54123871557,
			"-0.007": 2.09006708791,
			"-0.006": 2.05679231419,
			"-0.005": 9.2134098899,
			"-0.004": 24.1982502854,
			"-0.003": 38.6409929424,
			"-0.002": 43.3798503777,
			"-0.001": 30.027479924,
			"0.0": 27.8012463984,
			"0.001": 34.2839353094,
			"0.002": 50.6969773565,
			"0.003": 64.5187406175,
			"0.004": 15.8790419175,
			"0.005": 4.8674205648,
			"0.006": 3.47841750796,
			"0.007": 0.151650659251,
			"0.008": 0.0,
			"0.009": 0.0,
			"0.01": 0.0,
			"0.011": 0.0,
			"0.012": 0.0,
			"0.013": 0.0,
			"0.014": 0.0,
			"0.015": 0.0,
			"0.016": 0.0,
			"0.017": 0.0,
			"0.018": 0.0,
			"0.019": 0.0,
			"0.02": 0.0,
			"0.021": 0.0,
			"0.022": 0.0,
			"0.023": 0.0,
			"0.024": 0.0,
			"0.025": 0.0
		}
	}
}
