{
	 "smiles": "CC(C)(C)OC(=O)N1CCCC2=C1C(O)=CC=C2", 
	 "Tm": 334.15, 
	 "num_atms": 37, 
	 "gaussian": { 
		 "optdone": 1, 
		 "sigma_profile": "yes", 
		 "theory": "DFT", 
		 "functional": "B3LYP", 
		 "basiset": "6-31G**", 
		 "properties": { 
			 "R2extent": 5487.7193, 
			 "electric_dipole_moment_norm": 4.30077110993, 
			 "electric_quadrupole_moment_norm": 12.3277674195, 
			 "total_energy": -825.411607384, 
			 "HOMO_LUMO_gap": 0.20672, 
			 "cosmo_polarized_energy": -9.8, 
			 "cosmo_cavitation_energy": 37.23, 
			 "cosmo_dispersion_energy": -26.31, 
			 "cosmo_repulsion_energy": 2.02, 
			 "cosmo_total_nonelectrostatic_energy": 12.94, 
			 "SMD_solvation_energy": 6.57 
		},
		"coords": [
			{
				"x": -0.5303562899,
				"y": -3.2200846758,
				"z": 0.4980499043,
				"element": "C" 
			},
			{
				"x": 0.2914601117,
				"y": -2.4724332741,
				"z": -0.5560249694,
				"element": "C" 
			},
			{
				"x": 1.7591785132,
				"y": -2.9051914813,
				"z": -0.5087423504,
				"element": "C" 
			},
			{
				"x": -0.2768117188,
				"y": -2.6346380255,
				"z": -1.9688536312,
				"element": "C" 
			},
			{
				"x": 0.3780263799,
				"y": -1.0390478513,
				"z": -0.2026481589,
				"element": "O" 
			},
			{
				"x": -0.7162655479,
				"y": -0.257209635,
				"z": -0.1606698077,
				"element": "C" 
			},
			{
				"x": -1.8657930809,
				"y": -0.6712008803,
				"z": -0.3468540009,
				"element": "O" 
			},
			{
				"x": -0.4103938021,
				"y": 1.0528039451,
				"z": 0.0980484959,
				"element": "N" 
			},
			{
				"x": 0.964249627,
				"y": 1.4665459772,
				"z": 0.4280625741,
				"element": "C" 
			},
			{
				"x": 1.06355841,
				"y": 1.678154727,
				"z": 1.9376537101,
				"element": "C" 
			},
			{
				"x": 0.0965721346,
				"y": 2.7929352976,
				"z": 2.3644386055,
				"element": "C" 
			},
			{
				"x": -1.1696235057,
				"y": 2.8858755153,
				"z": 1.5232879111,
				"element": "C" 
			},
			{
				"x": -1.419736182,
				"y": 2.025417416,
				"z": 0.4351005575,
				"element": "C" 
			},
			{
				"x": -2.5834100528,
				"y": 2.2076144652,
				"z": -0.3540442807,
				"element": "C" 
			},
			{
				"x": -2.8616677369,
				"y": 1.4558071026,
				"z": -1.4455260959,
				"element": "O" 
			},
			{
				"x": -3.4780139424,
				"y": 3.2326197709,
				"z": -0.0287199361,
				"element": "C" 
			},
			{
				"x": -3.2282835034,
				"y": 4.0812824605,
				"z": 1.0442377509,
				"element": "C" 
			},
			{
				"x": -2.0826333111,
				"y": 3.9054598168,
				"z": 1.8150459083,
				"element": "C" 
			},
			{
				"x": -0.4870733065,
				"y": -4.2954446765,
				"z": 0.2974187448,
				"element": "H" 
			},
			{
				"x": -0.1174363417,
				"y": -3.0452101961,
				"z": 1.49655412,
				"element": "H" 
			},
			{
				"x": -1.5723257799,
				"y": -2.9008060797,
				"z": 0.4843005628,
				"element": "H" 
			},
			{
				"x": 1.841999929,
				"y": -3.9699212782,
				"z": -0.7452878364,
				"element": "H" 
			},
			{
				"x": 2.3533509875,
				"y": -2.3427372245,
				"z": -1.2348570998,
				"element": "H" 
			},
			{
				"x": 2.1798861694,
				"y": -2.738698409,
				"z": 0.4871390137,
				"element": "H" 
			},
			{
				"x": 0.2986360106,
				"y": -2.0363753066,
				"z": -2.6822234491,
				"element": "H" 
			},
			{
				"x": -0.2032138715,
				"y": -3.6843416968,
				"z": -2.2706309347,
				"element": "H" 
			},
			{
				"x": -1.3224888486,
				"y": -2.3308189985,
				"z": -2.0124794484,
				"element": "H" 
			},
			{
				"x": 1.6554076414,
				"y": 0.707391097,
				"z": 0.0725656811,
				"element": "H" 
			},
			{
				"x": 1.1671591731,
				"y": 2.4001481863,
				"z": -0.1094738492,
				"element": "H" 
			},
			{
				"x": 0.814625264,
				"y": 0.731416207,
				"z": 2.4308642988,
				"element": "H" 
			},
			{
				"x": 2.0903206566,
				"y": 1.9303568121,
				"z": 2.2249235449,
				"element": "H" 
			},
			{
				"x": 0.6112764635,
				"y": 3.7603795338,
				"z": 2.2954078121,
				"element": "H" 
			},
			{
				"x": -0.1744876371,
				"y": 2.6766537843,
				"z": 3.4205712877,
				"element": "H" 
			},
			{
				"x": -2.595357903,
				"y": 0.5310902976,
				"z": -1.2310393118,
				"element": "H" 
			},
			{
				"x": -4.3607890799,
				"y": 3.3402865868,
				"z": -0.649995038,
				"element": "H" 
			},
			{
				"x": -3.9290342701,
				"y": 4.8768135563,
				"z": 1.2808810425,
				"element": "H" 
			},
			{
				"x": -1.8804117597,
				"y": 4.567307134,
				"z": 2.6533186724,
				"element": "H" 
			}
		],
		 "valence_orbital": [ 
			{
				"type": "occ",
				"energy": -0.29793,
				"method": "rhf"
			},
			{
				"type": "occ",
				"energy": -0.27941,
				"method": "rhf"
			},
			{
				"type": "occ",
				"energy": -0.27565,
				"method": "rhf"
			},
			{
				"type": "occ",
				"energy": -0.22338,
				"method": "rhf"
			},
			{
				"type": "occ",
				"energy": -0.20427,
				"method": "rhf"
			},
			{
				"type": "unocc",
				"energy": 0.00245,
				"method": "rhf"
			},
			{
				"type": "unocc",
				"energy": 0.01656,
				"method": "rhf"
			},
			{
				"type": "unocc",
				"energy": 0.04148,
				"method": "rhf"
			},
			{
				"type": "unocc",
				"energy": 0.07416,
				"method": "rhf"
			},
			{
				"type": "unocc",
				"energy": 0.09081,
				"method": "rhf"
			}
		],
		"cosmo_sigma_profile": { 
			"-0.025": 0.0,
			"-0.024": 0.0,
			"-0.023": 0.0,
			"-0.022": 0.0,
			"-0.021": 0.0,
			"-0.02": 0.0,
			"-0.019": 0.0,
			"-0.018": 0.0,
			"-0.017": 0.0,
			"-0.016": 0.0,
			"-0.015": 0.0,
			"-0.014": 0.0,
			"-0.013": 0.0,
			"-0.012": 0.0,
			"-0.011": 0.0,
			"-0.01": 0.0,
			"-0.009": 0.0,
			"-0.008": 0.0,
			"-0.007": 0.0,
			"-0.006": 1.33147153064,
			"-0.005": 10.2449250499,
			"-0.004": 30.9156870389,
			"-0.003": 43.9903671697,
			"-0.002": 37.0355689443,
			"-0.001": 33.7413125257,
			"0.0": 35.7434699994,
			"0.001": 21.9972547746,
			"0.002": 10.4760824097,
			"0.003": 13.8964300843,
			"0.004": 13.4962934962,
			"0.005": 11.7260399574,
			"0.006": 9.78253183535,
			"0.007": 3.5679735198,
			"0.008": 2.41372967151,
			"0.009": 2.30251564472,
			"0.01": 3.71585796281,
			"0.011": 2.0629564073,
			"0.012": 1.78851405067,
			"0.013": 1.63495739972,
			"0.014": 0.0278298333372,
			"0.015": 0.0,
			"0.016": 0.0,
			"0.017": 0.0,
			"0.018": 0.0,
			"0.019": 0.0,
			"0.02": 0.0,
			"0.021": 0.0,
			"0.022": 0.0,
			"0.023": 0.0,
			"0.024": 0.0,
			"0.025": 0.0
		}
	}
}
