{
	 "smiles": "CC1=C(CC2=CC(Cl)=CC=C2)SC(N)=N1", 
	 "Tm": 348.15, 
	 "num_atms": 26, 
	 "gaussian": { 
		 "optdone": 1, 
		 "sigma_profile": "yes", 
		 "theory": "DFT", 
		 "functional": "B3LYP", 
		 "basiset": "6-31G**", 
		 "properties": { 
			 "R2extent": 5207.5582, 
			 "electric_dipole_moment_norm": 1.45372597487, 
			 "electric_quadrupole_moment_norm": 15.5649240483, 
			 "total_energy": -1393.69230877, 
			 "HOMO_LUMO_gap": 0.18968, 
			 "cosmo_polarized_energy": -12.15, 
			 "cosmo_cavitation_energy": 33.54, 
			 "cosmo_dispersion_energy": -24.22, 
			 "cosmo_repulsion_energy": 1.9, 
			 "cosmo_total_nonelectrostatic_energy": 11.22, 
			 "SMD_solvation_energy": 3.3 
		},
		"coords": [
			{
				"x": -1.3008348826,
				"y": 1.8976737357,
				"z": 1.4310456547,
				"element": "C" 
			},
			{
				"x": 0.0133546581,
				"y": 1.7695900871,
				"z": 0.7147298757,
				"element": "C" 
			},
			{
				"x": 0.3337365561,
				"y": 0.8588967211,
				"z": -0.2553530593,
				"element": "C" 
			},
			{
				"x": -0.4856880038,
				"y": -0.2379021178,
				"z": -0.8736313382,
				"element": "C" 
			},
			{
				"x": 0.0092613767,
				"y": -1.6558844823,
				"z": -0.6103471133,
				"element": "C" 
			},
			{
				"x": 0.3984789053,
				"y": -2.0444347498,
				"z": 0.6781064035,
				"element": "C" 
			},
			{
				"x": 0.8087612145,
				"y": -3.3542423428,
				"z": 0.9091687971,
				"element": "C" 
			},
			{
				"x": 1.2931016952,
				"y": -3.8276874659,
				"z": 2.5352446354,
				"element": "Cl" 
			},
			{
				"x": 0.8482772815,
				"y": -4.301017896,
				"z": -0.1147352683,
				"element": "C" 
			},
			{
				"x": 0.4640718633,
				"y": -3.9087792903,
				"z": -1.3963346525,
				"element": "C" 
			},
			{
				"x": 0.0491414842,
				"y": -2.5988742226,
				"z": -1.643230934,
				"element": "C" 
			},
			{
				"x": 1.9980654247,
				"y": 1.1382292194,
				"z": -0.7852524703,
				"element": "S" 
			},
			{
				"x": 2.0943780335,
				"y": 2.4607293728,
				"z": 0.379728255,
				"element": "C" 
			},
			{
				"x": 3.2245890622,
				"y": 3.242660856,
				"z": 0.4737818976,
				"element": "N" 
			},
			{
				"x": 1.0124956755,
				"y": 2.6652932864,
				"z": 1.0698779135,
				"element": "N" 
			},
			{
				"x": -1.1520116108,
				"y": 1.8170602221,
				"z": 2.5131276196,
				"element": "H" 
			},
			{
				"x": -1.7423669815,
				"y": 2.882283147,
				"z": 1.2413426952,
				"element": "H" 
			},
			{
				"x": -2.0201532105,
				"y": 1.1349751336,
				"z": 1.1261424539,
				"element": "H" 
			},
			{
				"x": -1.5100225361,
				"y": -0.1446844593,
				"z": -0.493256768,
				"element": "H" 
			},
			{
				"x": -0.5593605264,
				"y": -0.0911430024,
				"z": -1.9586146053,
				"element": "H" 
			},
			{
				"x": 0.3902036206,
				"y": -1.3250631134,
				"z": 1.4900193031,
				"element": "H" 
			},
			{
				"x": 1.1751665149,
				"y": -5.3142954997,
				"z": 0.089750134,
				"element": "H" 
			},
			{
				"x": 0.4933985891,
				"y": -4.6304628811,
				"z": -2.2075101952,
				"element": "H" 
			},
			{
				"x": -0.2457118039,
				"y": -2.3061608631,
				"z": -2.6474932724,
				"element": "H" 
			},
			{
				"x": 4.1085175784,
				"y": 2.7884304613,
				"z": 0.2929850395,
				"element": "H" 
			},
			{
				"x": 3.2263500217,
				"y": 3.8262101439,
				"z": 1.3006089991,
				"element": "H" 
			}
		],
		 "valence_orbital": [ 
			{
				"type": "occ",
				"energy": -0.26823,
				"method": "rhf"
			},
			{
				"type": "occ",
				"energy": -0.26679,
				"method": "rhf"
			},
			{
				"type": "occ",
				"energy": -0.2525,
				"method": "rhf"
			},
			{
				"type": "occ",
				"energy": -0.24306,
				"method": "rhf"
			},
			{
				"type": "occ",
				"energy": -0.20389,
				"method": "rhf"
			},
			{
				"type": "unocc",
				"energy": -0.01421,
				"method": "rhf"
			},
			{
				"type": "unocc",
				"energy": -0.01066,
				"method": "rhf"
			},
			{
				"type": "unocc",
				"energy": -0.0003,
				"method": "rhf"
			},
			{
				"type": "unocc",
				"energy": 0.0151,
				"method": "rhf"
			},
			{
				"type": "unocc",
				"energy": 0.03389,
				"method": "rhf"
			}
		],
		"cosmo_sigma_profile": { 
			"-0.025": 0.0,
			"-0.024": 0.0,
			"-0.023": 0.0,
			"-0.022": 0.0,
			"-0.021": 0.0,
			"-0.02": 0.0,
			"-0.019": 0.0,
			"-0.018": 0.0,
			"-0.017": 0.0,
			"-0.016": 0.0,
			"-0.015": 0.201944879848,
			"-0.014": 1.47474886391,
			"-0.013": 2.8435455791,
			"-0.012": 2.39371158175,
			"-0.011": 2.05160804576,
			"-0.01": 2.85374853556,
			"-0.009": 2.06043790965,
			"-0.008": 1.65966863712,
			"-0.007": 4.85136767402,
			"-0.006": 12.2251683127,
			"-0.005": 13.8382920985,
			"-0.004": 17.5233302303,
			"-0.003": 15.6375326364,
			"-0.002": 21.288387247,
			"-0.001": 18.5617627816,
			"0.0": 19.8394688602,
			"0.001": 18.7801668351,
			"0.002": 21.9643945718,
			"0.003": 25.6740058261,
			"0.004": 28.3107235685,
			"0.005": 18.9047025704,
			"0.006": 3.98859130676,
			"0.007": 2.91706400744,
			"0.008": 1.65737549482,
			"0.009": 1.80992935784,
			"0.01": 1.80051448106,
			"0.011": 1.5978439607,
			"0.012": 1.81326678791,
			"0.013": 1.00743882124,
			"0.014": 0.662689625462,
			"0.015": 0.749743342453,
			"0.016": 0.521800676479,
			"0.017": 0.0280926413169,
			"0.018": 0.0,
			"0.019": 0.0,
			"0.02": 0.0,
			"0.021": 0.0,
			"0.022": 0.0,
			"0.023": 0.0,
			"0.024": 0.0,
			"0.025": 0.0
		}
	}
}
