{
	 "smiles": "CC1(NC(=O)NC1=O)C1=CC=NC=C1", 
	 "Tm": 505.15, 
	 "num_atms": 23, 
	 "gaussian": { 
		 "optdone": 1, 
		 "sigma_profile": "yes", 
		 "theory": "DFT", 
		 "functional": "B3LYP", 
		 "basiset": "6-31G**", 
		 "properties": { 
			 "R2extent": 2853.0689, 
			 "electric_dipole_moment_norm": 2.48400843396, 
			 "electric_quadrupole_moment_norm": 13.1436921479, 
			 "total_energy": -663.119109338, 
			 "HOMO_LUMO_gap": 0.2185, 
			 "cosmo_polarized_energy": -18.81, 
			 "cosmo_cavitation_energy": 27.27, 
			 "cosmo_dispersion_energy": -19.57, 
			 "cosmo_repulsion_energy": 1.54, 
			 "cosmo_total_nonelectrostatic_energy": 9.24, 
			 "SMD_solvation_energy": 5.06 
		},
		"coords": [
			{
				"x": 1.6566303553,
				"y": 2.27216565,
				"z": 0.2341111531,
				"element": "C" 
			},
			{
				"x": 1.1714033682,
				"y": 0.8344097599,
				"z": 0.5153070626,
				"element": "C" 
			},
			{
				"x": 2.1282600821,
				"y": -0.1621469563,
				"z": 0.0406965686,
				"element": "N" 
			},
			{
				"x": 2.7603814397,
				"y": -0.8491889952,
				"z": 1.0512120196,
				"element": "C" 
			},
			{
				"x": 3.6682706458,
				"y": -1.6471058719,
				"z": 0.9683572446,
				"element": "O" 
			},
			{
				"x": 2.1278378727,
				"y": -0.4301443442,
				"z": 2.2406862704,
				"element": "N" 
			},
			{
				"x": 1.2086488815,
				"y": 0.5748550277,
				"z": 2.0486316613,
				"element": "C" 
			},
			{
				"x": 0.5710464869,
				"y": 1.1619935238,
				"z": 2.8959612422,
				"element": "O" 
			},
			{
				"x": -0.2429971968,
				"y": 0.6119534617,
				"z": -0.0286318054,
				"element": "C" 
			},
			{
				"x": -0.515606729,
				"y": -0.3448438762,
				"z": -1.0088596348,
				"element": "C" 
			},
			{
				"x": -1.821755132,
				"y": -0.4712294556,
				"z": -1.4867293273,
				"element": "C" 
			},
			{
				"x": -2.8501210677,
				"y": 0.2671287919,
				"z": -1.0565679964,
				"element": "N" 
			},
			{
				"x": -2.582524573,
				"y": 1.170732608,
				"z": -0.1043586494,
				"element": "C" 
			},
			{
				"x": -1.3151682615,
				"y": 1.3845942201,
				"z": 0.4355700877,
				"element": "C" 
			},
			{
				"x": 1.6594692504,
				"y": 2.4635355107,
				"z": -0.8432323766,
				"element": "H" 
			},
			{
				"x": 0.9950941663,
				"y": 2.9969123983,
				"z": 0.7122869393,
				"element": "H" 
			},
			{
				"x": 2.6693035597,
				"y": 2.4152038433,
				"z": 0.6223773332,
				"element": "H" 
			},
			{
				"x": 2.5732897095,
				"y": -0.1140613121,
				"z": -0.8636911507,
				"element": "H" 
			},
			{
				"x": 2.3858869841,
				"y": -0.7973402695,
				"z": 3.145733886,
				"element": "H" 
			},
			{
				"x": 0.2670509097,
				"y": -0.9912555144,
				"z": -1.3894675984,
				"element": "H" 
			},
			{
				"x": -2.0478053223,
				"y": -1.209133195,
				"z": -2.2547788098,
				"element": "H" 
			},
			{
				"x": -3.4277052245,
				"y": 1.7582036248,
				"z": 0.2498209057,
				"element": "H" 
			},
			{
				"x": -1.175190205,
				"y": 2.1152613703,
				"z": 1.2237649747,
				"element": "H" 
			}
		],
		 "valence_orbital": [ 
			{
				"type": "occ",
				"energy": -0.28968,
				"method": "rhf"
			},
			{
				"type": "occ",
				"energy": -0.28202,
				"method": "rhf"
			},
			{
				"type": "occ",
				"energy": -0.27261,
				"method": "rhf"
			},
			{
				"type": "occ",
				"energy": -0.26743,
				"method": "rhf"
			},
			{
				"type": "occ",
				"energy": -0.2578,
				"method": "rhf"
			},
			{
				"type": "unocc",
				"energy": -0.0393,
				"method": "rhf"
			},
			{
				"type": "unocc",
				"energy": -0.01774,
				"method": "rhf"
			},
			{
				"type": "unocc",
				"energy": -0.01285,
				"method": "rhf"
			},
			{
				"type": "unocc",
				"energy": 0.04811,
				"method": "rhf"
			},
			{
				"type": "unocc",
				"energy": 0.0648,
				"method": "rhf"
			}
		],
		"cosmo_sigma_profile": { 
			"-0.025": 0.0,
			"-0.024": 0.0,
			"-0.023": 0.0,
			"-0.022": 0.0,
			"-0.021": 0.0,
			"-0.02": 0.0,
			"-0.019": 0.0,
			"-0.018": 0.0,
			"-0.017": 0.605666213496,
			"-0.016": 1.58228619254,
			"-0.015": 2.11481108566,
			"-0.014": 2.06236015765,
			"-0.013": 2.58589448054,
			"-0.012": 1.91578016838,
			"-0.011": 1.65592432816,
			"-0.01": 2.06372553042,
			"-0.009": 2.21492876104,
			"-0.008": 2.7661387164,
			"-0.007": 5.49859923345,
			"-0.006": 14.7251789535,
			"-0.005": 15.7674919884,
			"-0.004": 13.6597295569,
			"-0.003": 15.7061280818,
			"-0.002": 16.6776765307,
			"-0.001": 13.0713577848,
			"0.0": 10.9413328709,
			"0.001": 11.8981622491,
			"0.002": 16.1123766008,
			"0.003": 8.2728325211,
			"0.004": 5.20178292011,
			"0.005": 4.78480332612,
			"0.006": 3.80442565275,
			"0.007": 4.32290335167,
			"0.008": 3.78699728286,
			"0.009": 4.41968913903,
			"0.01": 4.64118615767,
			"0.011": 6.19457990931,
			"0.012": 9.45910503641,
			"0.013": 5.44747028781,
			"0.014": 1.05194576413,
			"0.015": 1.03444474044,
			"0.016": 0.838286798557,
			"0.017": 0.384754981142,
			"0.018": 0.0,
			"0.019": 0.0,
			"0.02": 0.0,
			"0.021": 0.0,
			"0.022": 0.0,
			"0.023": 0.0,
			"0.024": 0.0,
			"0.025": 0.0
		}
	}
}
