{
	 "smiles": "C(OC1=CC=CC2=C1NC=C2)C1=CC=CC=C1", 
	 "Tm": 345.15, 
	 "num_atms": 30, 
	 "gaussian": { 
		 "optdone": 1, 
		 "sigma_profile": "yes", 
		 "theory": "DFT", 
		 "functional": "B3LYP", 
		 "basiset": "6-31G**", 
		 "properties": { 
			 "R2extent": 4141.8566, 
			 "electric_dipole_moment_norm": 2.74804822374, 
			 "electric_quadrupole_moment_norm": 9.83419235931, 
			 "total_energy": -709.396325764, 
			 "HOMO_LUMO_gap": 0.17553, 
			 "cosmo_polarized_energy": -10.06, 
			 "cosmo_cavitation_energy": 33.59, 
			 "cosmo_dispersion_energy": -23.23, 
			 "cosmo_repulsion_energy": 1.8, 
			 "cosmo_total_nonelectrostatic_energy": 12.16, 
			 "SMD_solvation_energy": 5.46 
		},
		"coords": [
			{
				"x": 1.3027420154,
				"y": 1.0114253397,
				"z": -1.8214142499,
				"element": "C" 
			},
			{
				"x": 0.2659691673,
				"y": 0.3330462782,
				"z": -2.557921287,
				"element": "O" 
			},
			{
				"x": 0.0918052045,
				"y": -1.0084678793,
				"z": -2.2613400816,
				"element": "C" 
			},
			{
				"x": 0.9290070001,
				"y": -1.9940103519,
				"z": -2.7700658972,
				"element": "C" 
			},
			{
				"x": 0.6837403581,
				"y": -3.3578152439,
				"z": -2.5020319199,
				"element": "C" 
			},
			{
				"x": -0.3978682632,
				"y": -3.7621585802,
				"z": -1.7307745051,
				"element": "C" 
			},
			{
				"x": -1.2616493309,
				"y": -2.7836174572,
				"z": -1.2030484262,
				"element": "C" 
			},
			{
				"x": -0.9957025413,
				"y": -1.4133676454,
				"z": -1.4761177332,
				"element": "C" 
			},
			{
				"x": -1.9692525279,
				"y": -0.6622682732,
				"z": -0.8585097606,
				"element": "N" 
			},
			{
				"x": -2.8308888571,
				"y": -1.509277654,
				"z": -0.1901846132,
				"element": "C" 
			},
			{
				"x": -2.4403321565,
				"y": -2.8104261703,
				"z": -0.3806871996,
				"element": "C" 
			},
			{
				"x": 0.8407248171,
				"y": 1.4428376804,
				"z": -0.4477448947,
				"element": "C" 
			},
			{
				"x": 1.2964801622,
				"y": 0.7987585093,
				"z": 0.7073864782,
				"element": "C" 
			},
			{
				"x": 0.8304002747,
				"y": 1.1822597806,
				"z": 1.9673674494,
				"element": "C" 
			},
			{
				"x": -0.1019481772,
				"y": 2.2133531786,
				"z": 2.0840464857,
				"element": "C" 
			},
			{
				"x": -0.5651063761,
				"y": 2.8642263443,
				"z": 0.9363131431,
				"element": "C" 
			},
			{
				"x": -0.0945809949,
				"y": 2.4817870135,
				"z": -0.3196782589,
				"element": "C" 
			},
			{
				"x": 1.5535976719,
				"y": 1.8832285019,
				"z": -2.4334742317,
				"element": "H" 
			},
			{
				"x": 2.1907119999,
				"y": 0.3723855558,
				"z": -1.7493932488,
				"element": "H" 
			},
			{
				"x": 1.7646218638,
				"y": -1.6987645376,
				"z": -3.3976463936,
				"element": "H" 
			},
			{
				"x": 1.355152755,
				"y": -4.1025020203,
				"z": -2.9197513779,
				"element": "H" 
			},
			{
				"x": -0.5758784404,
				"y": -4.8163119543,
				"z": -1.5386239157,
				"element": "H" 
			},
			{
				"x": -1.9715994784,
				"y": 0.3446363835,
				"z": -0.8238575435,
				"element": "H" 
			},
			{
				"x": -3.6648803539,
				"y": -1.1105991113,
				"z": 0.3697501188,
				"element": "H" 
			},
			{
				"x": -2.935756897,
				"y": -3.6855718159,
				"z": 0.0151327687,
				"element": "H" 
			},
			{
				"x": 2.0166042253,
				"y": -0.0104939581,
				"z": 0.6192819723,
				"element": "H" 
			},
			{
				"x": 1.1929445502,
				"y": 0.6727531327,
				"z": 2.8555033109,
				"element": "H" 
			},
			{
				"x": -0.4644545488,
				"y": 2.5126572244,
				"z": 3.0632770789,
				"element": "H" 
			},
			{
				"x": -1.2836977621,
				"y": 3.6746143972,
				"z": 1.0227521824,
				"element": "H" 
			},
			{
				"x": -0.4482053596,
				"y": 2.9930833329,
				"z": -1.21214545,
				"element": "H" 
			}
		],
		 "valence_orbital": [ 
			{
				"type": "occ",
				"energy": -0.26033,
				"method": "rhf"
			},
			{
				"type": "occ",
				"energy": -0.25815,
				"method": "rhf"
			},
			{
				"type": "occ",
				"energy": -0.25235,
				"method": "rhf"
			},
			{
				"type": "occ",
				"energy": -0.21245,
				"method": "rhf"
			},
			{
				"type": "occ",
				"energy": -0.19248,
				"method": "rhf"
			},
			{
				"type": "unocc",
				"energy": -0.01695,
				"method": "rhf"
			},
			{
				"type": "unocc",
				"energy": -0.01003,
				"method": "rhf"
			},
			{
				"type": "unocc",
				"energy": 0.00289,
				"method": "rhf"
			},
			{
				"type": "unocc",
				"energy": 0.03466,
				"method": "rhf"
			},
			{
				"type": "unocc",
				"energy": 0.07843,
				"method": "rhf"
			}
		],
		"cosmo_sigma_profile": { 
			"-0.025": 0.0,
			"-0.024": 0.0,
			"-0.023": 0.0,
			"-0.022": 0.0,
			"-0.021": 0.0,
			"-0.02": 0.0,
			"-0.019": 0.0,
			"-0.018": 0.0,
			"-0.017": 0.0,
			"-0.016": 0.0,
			"-0.015": 0.0,
			"-0.014": 0.0,
			"-0.013": 0.0,
			"-0.012": 0.555436371762,
			"-0.011": 0.994936933453,
			"-0.01": 1.07213819518,
			"-0.009": 0.881035418259,
			"-0.008": 2.50130926758,
			"-0.007": 3.41092048313,
			"-0.006": 11.1659235323,
			"-0.005": 25.069069529,
			"-0.004": 26.6550570587,
			"-0.003": 25.2439973499,
			"-0.002": 20.3469948321,
			"-0.001": 16.4020610553,
			"0.0": 15.2712961165,
			"0.001": 12.9884075251,
			"0.002": 14.4343809553,
			"0.003": 16.266773558,
			"0.004": 20.8002518917,
			"0.005": 22.6467038057,
			"0.006": 16.0994479034,
			"0.007": 10.0348475544,
			"0.008": 1.5222178349,
			"0.009": 0.897012760387,
			"0.01": 1.26731244118,
			"0.011": 1.31674551209,
			"0.012": 0.863564641589,
			"0.013": 0.0,
			"0.014": 0.0,
			"0.015": 0.0,
			"0.016": 0.0,
			"0.017": 0.0,
			"0.018": 0.0,
			"0.019": 0.0,
			"0.02": 0.0,
			"0.021": 0.0,
			"0.022": 0.0,
			"0.023": 0.0,
			"0.024": 0.0,
			"0.025": 0.0
		}
	}
}
