{
	 "smiles": "CSC(SC)=NS(=O)(=O)C1=CC=CC=C1", 
	 "Tm": 379.15, 
	 "num_atms": 26, 
	 "gaussian": { 
		 "optdone": 1, 
		 "sigma_profile": "yes", 
		 "theory": "DFT", 
		 "functional": "B3LYP", 
		 "basiset": "6-31G**", 
		 "properties": { 
			 "R2extent": 5004.4345, 
			 "electric_dipole_moment_norm": 3.60887258988, 
			 "electric_quadrupole_moment_norm": 12.144781082, 
			 "total_energy": -1749.26477214, 
			 "HOMO_LUMO_gap": 0.2003, 
			 "cosmo_polarized_energy": -12.49, 
			 "cosmo_cavitation_energy": 34.32, 
			 "cosmo_dispersion_energy": -25.17, 
			 "cosmo_repulsion_energy": 1.85, 
			 "cosmo_total_nonelectrostatic_energy": 11.0, 
			 "SMD_solvation_energy": 5.22 
		},
		"coords": [
			{
				"x": 0.462115508,
				"y": -2.4197208582,
				"z": -2.8428210244,
				"element": "C" 
			},
			{
				"x": -1.0148166018,
				"y": -1.5686967774,
				"z": -3.4920352445,
				"element": "S" 
			},
			{
				"x": -1.1638654094,
				"y": -0.2105943568,
				"z": -2.348716811,
				"element": "C" 
			},
			{
				"x": -2.2715476003,
				"y": 0.9719406207,
				"z": -3.082008845,
				"element": "S" 
			},
			{
				"x": -3.0421743706,
				"y": 1.9126676785,
				"z": -1.7123528036,
				"element": "C" 
			},
			{
				"x": -0.4892486037,
				"y": -0.2628076272,
				"z": -1.2556954458,
				"element": "N" 
			},
			{
				"x": -0.34981123,
				"y": 0.9606921613,
				"z": -0.0994298709,
				"element": "S" 
			},
			{
				"x": -0.1290769982,
				"y": 2.2700286978,
				"z": -0.7332184784,
				"element": "O" 
			},
			{
				"x": -1.4275252043,
				"y": 0.7933853639,
				"z": 0.8851443587,
				"element": "O" 
			},
			{
				"x": 1.1892141877,
				"y": 0.4520961075,
				"z": 0.6634204746,
				"element": "C" 
			},
			{
				"x": 2.3785707409,
				"y": 1.060008501,
				"z": 0.260728868,
				"element": "C" 
			},
			{
				"x": 3.5726568791,
				"y": 0.6702491335,
				"z": 0.8688499006,
				"element": "C" 
			},
			{
				"x": 3.5651974396,
				"y": -0.3098825194,
				"z": 1.8637216779,
				"element": "C" 
			},
			{
				"x": 2.3636424547,
				"y": -0.9021326652,
				"z": 2.2622909011,
				"element": "C" 
			},
			{
				"x": 1.1630915774,
				"y": -0.5211121704,
				"z": 1.6639913608,
				"element": "C" 
			},
			{
				"x": 0.6457363268,
				"y": -3.252864329,
				"z": -3.5247148673,
				"element": "H" 
			},
			{
				"x": 1.3194125541,
				"y": -1.7455263562,
				"z": -2.8350083404,
				"element": "H" 
			},
			{
				"x": 0.2738486246,
				"y": -2.7897617132,
				"z": -1.8353187265,
				"element": "H" 
			},
			{
				"x": -3.2782074579,
				"y": 1.257136077,
				"z": -0.8744006864,
				"element": "H" 
			},
			{
				"x": -3.9646975536,
				"y": 2.3090373676,
				"z": -2.1424070716,
				"element": "H" 
			},
			{
				"x": -2.3880830989,
				"y": 2.7191708616,
				"z": -1.3868324723,
				"element": "H" 
			},
			{
				"x": 2.3574638095,
				"y": 1.8300835079,
				"z": -0.5024696328,
				"element": "H" 
			},
			{
				"x": 4.5064137574,
				"y": 1.1364872063,
				"z": 0.5693887456,
				"element": "H" 
			},
			{
				"x": 4.4968955003,
				"y": -0.608131963,
				"z": 2.3355597037,
				"element": "H" 
			},
			{
				"x": 2.3603650348,
				"y": -1.6557551148,
				"z": 3.0439677735,
				"element": "H" 
			},
			{
				"x": 0.2179297338,
				"y": -0.9547968338,
				"z": 1.9715665565,
				"element": "H" 
			}
		],
		 "valence_orbital": [ 
			{
				"type": "occ",
				"energy": -0.28565,
				"method": "rhf"
			},
			{
				"type": "occ",
				"energy": -0.26982,
				"method": "rhf"
			},
			{
				"type": "occ",
				"energy": -0.26273,
				"method": "rhf"
			},
			{
				"type": "occ",
				"energy": -0.25573,
				"method": "rhf"
			},
			{
				"type": "occ",
				"energy": -0.25091,
				"method": "rhf"
			},
			{
				"type": "unocc",
				"energy": -0.05061,
				"method": "rhf"
			},
			{
				"type": "unocc",
				"energy": -0.03094,
				"method": "rhf"
			},
			{
				"type": "unocc",
				"energy": -0.019,
				"method": "rhf"
			},
			{
				"type": "unocc",
				"energy": 0.0061,
				"method": "rhf"
			},
			{
				"type": "unocc",
				"energy": 0.03476,
				"method": "rhf"
			}
		],
		"cosmo_sigma_profile": { 
			"-0.025": 0.0,
			"-0.024": 0.0,
			"-0.023": 0.0,
			"-0.022": 0.0,
			"-0.021": 0.0,
			"-0.02": 0.0,
			"-0.019": 0.0,
			"-0.018": 0.0,
			"-0.017": 0.0,
			"-0.016": 0.0,
			"-0.015": 0.0,
			"-0.014": 0.0,
			"-0.013": 0.0,
			"-0.012": 0.0,
			"-0.011": 0.0,
			"-0.01": 0.0,
			"-0.009": 0.111309709244,
			"-0.008": 3.79226218722,
			"-0.007": 12.022879362,
			"-0.006": 18.7951946287,
			"-0.005": 20.8641845974,
			"-0.004": 19.2921870293,
			"-0.003": 22.1071884872,
			"-0.002": 20.3083430706,
			"-0.001": 16.7155084568,
			"0.0": 14.5443940923,
			"0.001": 21.1843174441,
			"0.002": 23.5232535375,
			"0.003": 27.5990008248,
			"0.004": 13.8202624262,
			"0.005": 12.1979096675,
			"0.006": 7.04117698637,
			"0.007": 3.77186062734,
			"0.008": 3.51010074129,
			"0.009": 4.12192315788,
			"0.01": 7.60999000541,
			"0.011": 4.87993689608,
			"0.012": 0.358633040693,
			"0.013": 0.0,
			"0.014": 0.0,
			"0.015": 0.0,
			"0.016": 0.0,
			"0.017": 0.0,
			"0.018": 0.0,
			"0.019": 0.0,
			"0.02": 0.0,
			"0.021": 0.0,
			"0.022": 0.0,
			"0.023": 0.0,
			"0.024": 0.0,
			"0.025": 0.0
		}
	}
}
