{
	 "smiles": "COC1=C(C=C(NC(C)=O)C=C1)S(N)(=O)=O", 
	 "Tm": 494.15, 
	 "num_atms": 28, 
	 "gaussian": { 
		 "optdone": 1, 
		 "sigma_profile": "yes", 
		 "theory": "DFT", 
		 "functional": "B3LYP", 
		 "basiset": "6-31G**", 
		 "properties": { 
			 "R2extent": 5106.4438, 
			 "electric_dipole_moment_norm": 5.24450185718, 
			 "electric_quadrupole_moment_norm": 13.3738720272, 
			 "total_energy": -1158.70622917, 
			 "HOMO_LUMO_gap": 0.18932, 
			 "cosmo_polarized_energy": -22.59, 
			 "cosmo_cavitation_energy": 33.2, 
			 "cosmo_dispersion_energy": -24.07, 
			 "cosmo_repulsion_energy": 1.84, 
			 "cosmo_total_nonelectrostatic_energy": 10.98, 
			 "SMD_solvation_energy": 6.91 
		},
		"coords": [
			{
				"x": 0.3184559116,
				"y": -2.5246925766,
				"z": -0.748395156,
				"element": "C" 
			},
			{
				"x": 0.2224910861,
				"y": -1.227819956,
				"z": -1.3643119523,
				"element": "O" 
			},
			{
				"x": -0.3629646635,
				"y": -0.2532000626,
				"z": -0.5909669145,
				"element": "C" 
			},
			{
				"x": 0.4215757966,
				"y": 0.7695353364,
				"z": -0.0470117626,
				"element": "C" 
			},
			{
				"x": -0.1388193894,
				"y": 1.8268731361,
				"z": 0.6645916004,
				"element": "C" 
			},
			{
				"x": -1.5212265386,
				"y": 1.8508816898,
				"z": 0.8948747453,
				"element": "C" 
			},
			{
				"x": -2.1607542083,
				"y": 2.8904581767,
				"z": 1.5964821627,
				"element": "N" 
			},
			{
				"x": -1.7972626528,
				"y": 3.6237554977,
				"z": 2.7212696618,
				"element": "C" 
			},
			{
				"x": -0.466146665,
				"y": 3.3378330611,
				"z": 3.3857982843,
				"element": "C" 
			},
			{
				"x": -2.5710384847,
				"y": 4.4670491027,
				"z": 3.1473303407,
				"element": "O" 
			},
			{
				"x": -2.312399526,
				"y": 0.8249400789,
				"z": 0.3491328889,
				"element": "C" 
			},
			{
				"x": -1.7448923358,
				"y": -0.204391629,
				"z": -0.3955859638,
				"element": "C" 
			},
			{
				"x": 2.2043455557,
				"y": 0.7235835621,
				"z": -0.2333755322,
				"element": "S" 
			},
			{
				"x": 2.3606104307,
				"y": 0.7789838123,
				"z": -1.9113657725,
				"element": "N" 
			},
			{
				"x": 2.7626537288,
				"y": 1.9838837864,
				"z": 0.2638976061,
				"element": "O" 
			},
			{
				"x": 2.6778063072,
				"y": -0.5547777234,
				"z": 0.31398124,
				"element": "O" 
			},
			{
				"x": -0.6662474671,
				"y": -2.8775024388,
				"z": -0.4219008506,
				"element": "H" 
			},
			{
				"x": 1.0093347061,
				"y": -2.489042094,
				"z": 0.0987651187,
				"element": "H" 
			},
			{
				"x": 0.7060933041,
				"y": -3.1965598269,
				"z": -1.5158703716,
				"element": "H" 
			},
			{
				"x": 0.5122990639,
				"y": 2.6199671713,
				"z": 1.0075900807,
				"element": "H" 
			},
			{
				"x": -3.1118943937,
				"y": 3.1026556794,
				"z": 1.3197922397,
				"element": "H" 
			},
			{
				"x": -0.5410390659,
				"y": 3.6813055386,
				"z": 4.4178501673,
				"element": "H" 
			},
			{
				"x": 0.3345262153,
				"y": 3.9051794775,
				"z": 2.8995695073,
				"element": "H" 
			},
			{
				"x": -0.1939376465,
				"y": 2.2801242803,
				"z": 3.3617168935,
				"element": "H" 
			},
			{
				"x": -3.3867551973,
				"y": 0.8415191493,
				"z": 0.5101102294,
				"element": "H" 
			},
			{
				"x": -2.3700790599,
				"y": -0.9757133534,
				"z": -0.8339914373,
				"element": "H" 
			},
			{
				"x": 3.2871556527,
				"y": 1.1309286411,
				"z": -2.1416063243,
				"element": "H" 
			},
			{
				"x": 2.1831095357,
				"y": -0.140857517,
				"z": -2.3092707291,
				"element": "H" 
			}
		],
		 "valence_orbital": [ 
			{
				"type": "occ",
				"energy": -0.29522,
				"method": "rhf"
			},
			{
				"type": "occ",
				"energy": -0.28706,
				"method": "rhf"
			},
			{
				"type": "occ",
				"energy": -0.27763,
				"method": "rhf"
			},
			{
				"type": "occ",
				"energy": -0.25925,
				"method": "rhf"
			},
			{
				"type": "occ",
				"energy": -0.23398,
				"method": "rhf"
			},
			{
				"type": "unocc",
				"energy": -0.04466,
				"method": "rhf"
			},
			{
				"type": "unocc",
				"energy": -0.02988,
				"method": "rhf"
			},
			{
				"type": "unocc",
				"energy": 0.02319,
				"method": "rhf"
			},
			{
				"type": "unocc",
				"energy": 0.05325,
				"method": "rhf"
			},
			{
				"type": "unocc",
				"energy": 0.06299,
				"method": "rhf"
			}
		],
		"cosmo_sigma_profile": { 
			"-0.025": 0.0,
			"-0.024": 0.0,
			"-0.023": 0.0,
			"-0.022": 0.0,
			"-0.021": 0.0,
			"-0.02": 0.0,
			"-0.019": 0.0,
			"-0.018": 0.0,
			"-0.017": 0.0,
			"-0.016": 0.106336968436,
			"-0.015": 1.65357711613,
			"-0.014": 2.44341074867,
			"-0.013": 3.6061247335,
			"-0.012": 3.2340434407,
			"-0.011": 3.67016863832,
			"-0.01": 2.81713642003,
			"-0.009": 3.61633739446,
			"-0.008": 6.39180291234,
			"-0.007": 8.19658383348,
			"-0.006": 12.8929283737,
			"-0.005": 15.067979273,
			"-0.004": 19.5476828782,
			"-0.003": 21.1800148865,
			"-0.002": 19.9433663064,
			"-0.001": 14.1173596747,
			"0.0": 14.0989843034,
			"0.001": 17.2378102595,
			"0.002": 15.6426784239,
			"0.003": 9.32572692921,
			"0.004": 6.0420978125,
			"0.005": 5.26628641829,
			"0.006": 5.25952979095,
			"0.007": 5.11654641648,
			"0.008": 5.65812726185,
			"0.009": 7.24628508433,
			"0.01": 8.57256416603,
			"0.011": 9.43956680154,
			"0.012": 7.66039325935,
			"0.013": 5.67071570642,
			"0.014": 2.62402464191,
			"0.015": 0.200119231888,
			"0.016": 0.0,
			"0.017": 0.0,
			"0.018": 0.0,
			"0.019": 0.0,
			"0.02": 0.0,
			"0.021": 0.0,
			"0.022": 0.0,
			"0.023": 0.0,
			"0.024": 0.0,
			"0.025": 0.0
		}
	}
}
