{
	 "smiles": "COC(=O)C(=O)CC(=O)C1=C(Cl)C=CC(Cl)=C1", 
	 "Tm": 424.15, 
	 "num_atms": 25, 
	 "gaussian": { 
		 "optdone": 1, 
		 "sigma_profile": "yes", 
		 "theory": "DFT", 
		 "functional": "B3LYP", 
		 "basiset": "6-31G**", 
		 "properties": { 
			 "R2extent": 6240.0682, 
			 "electric_dipole_moment_norm": 2.78521460214, 
			 "electric_quadrupole_moment_norm": 17.9452024695, 
			 "total_energy": -1645.25189106, 
			 "HOMO_LUMO_gap": 0.17927, 
			 "cosmo_polarized_energy": -13.24, 
			 "cosmo_cavitation_energy": 34.83, 
			 "cosmo_dispersion_energy": -24.45, 
			 "cosmo_repulsion_energy": 1.93, 
			 "cosmo_total_nonelectrostatic_energy": 12.31, 
			 "SMD_solvation_energy": 8.09 
		},
		"coords": [
			{
				"x": 1.5780079103,
				"y": -1.6009842922,
				"z": 3.9710624908,
				"element": "C" 
			},
			{
				"x": 0.2523104099,
				"y": -1.1052827588,
				"z": 3.7040277546,
				"element": "O" 
			},
			{
				"x": -0.1209789421,
				"y": -1.1362363894,
				"z": 2.4264537902,
				"element": "C" 
			},
			{
				"x": 0.5475896412,
				"y": -1.5544556189,
				"z": 1.5028650136,
				"element": "O" 
			},
			{
				"x": -1.5530703563,
				"y": -0.5956831815,
				"z": 2.2259956744,
				"element": "C" 
			},
			{
				"x": -2.2911349779,
				"y": -0.3867255911,
				"z": 3.1582132933,
				"element": "O" 
			},
			{
				"x": -1.9542770909,
				"y": -0.4328532623,
				"z": 0.7655545428,
				"element": "C" 
			},
			{
				"x": -1.0315709183,
				"y": 0.5738884079,
				"z": 0.0895657486,
				"element": "C" 
			},
			{
				"x": -0.4531777426,
				"y": 1.3966393809,
				"z": 0.7822918926,
				"element": "O" 
			},
			{
				"x": -0.7636529159,
				"y": 0.5430909864,
				"z": -1.3945696279,
				"element": "C" 
			},
			{
				"x": -1.601442939,
				"y": 0.0523193424,
				"z": -2.4110112864,
				"element": "C" 
			},
			{
				"x": -3.2167608422,
				"y": -0.568769258,
				"z": -2.0964749348,
				"element": "Cl" 
			},
			{
				"x": -1.2031360499,
				"y": 0.0858211432,
				"z": -3.7492990055,
				"element": "C" 
			},
			{
				"x": 0.0392158257,
				"y": 0.6023917367,
				"z": -4.1023679945,
				"element": "C" 
			},
			{
				"x": 0.8736787823,
				"y": 1.1048275048,
				"z": -3.1027701361,
				"element": "C" 
			},
			{
				"x": 2.4371097089,
				"y": 1.7689108712,
				"z": -3.5345347901,
				"element": "Cl" 
			},
			{
				"x": 0.4779867454,
				"y": 1.0851509691,
				"z": -1.7733642022,
				"element": "C" 
			},
			{
				"x": 1.6578126704,
				"y": -2.6503760626,
				"z": 3.6771942464,
				"element": "H" 
			},
			{
				"x": 1.7204696255,
				"y": -1.4886872594,
				"z": 5.0448391879,
				"element": "H" 
			},
			{
				"x": 2.3188625817,
				"y": -1.0184138208,
				"z": 3.4183412062,
				"element": "H" 
			},
			{
				"x": -1.919087215,
				"y": -1.4016671883,
				"z": 0.2588338026,
				"element": "H" 
			},
			{
				"x": -2.9858320324,
				"y": -0.0720639725,
				"z": 0.7397907337,
				"element": "H" 
			},
			{
				"x": -1.8742747663,
				"y": -0.2897785044,
				"z": -4.5132837978,
				"element": "H" 
			},
			{
				"x": 0.3522102346,
				"y": 0.6204761199,
				"z": -5.1402654419,
				"element": "H" 
			},
			{
				"x": 1.116042653,
				"y": 1.4834606977,
				"z": -0.9938881606,
				"element": "H" 
			}
		],
		 "valence_orbital": [ 
			{
				"type": "occ",
				"energy": -0.31776,
				"method": "rhf"
			},
			{
				"type": "occ",
				"energy": -0.28969,
				"method": "rhf"
			},
			{
				"type": "occ",
				"energy": -0.27717,
				"method": "rhf"
			},
			{
				"type": "occ",
				"energy": -0.26015,
				"method": "rhf"
			},
			{
				"type": "occ",
				"energy": -0.25831,
				"method": "rhf"
			},
			{
				"type": "unocc",
				"energy": -0.07904,
				"method": "rhf"
			},
			{
				"type": "unocc",
				"energy": -0.07628,
				"method": "rhf"
			},
			{
				"type": "unocc",
				"energy": -0.03692,
				"method": "rhf"
			},
			{
				"type": "unocc",
				"energy": -0.00172,
				"method": "rhf"
			},
			{
				"type": "unocc",
				"energy": 0.01066,
				"method": "rhf"
			}
		],
		"cosmo_sigma_profile": { 
			"-0.025": 0.0,
			"-0.024": 0.0,
			"-0.023": 0.0,
			"-0.022": 0.0,
			"-0.021": 0.0,
			"-0.02": 0.0,
			"-0.019": 0.0,
			"-0.018": 0.0,
			"-0.017": 0.0,
			"-0.016": 0.0,
			"-0.015": 0.0,
			"-0.014": 0.0,
			"-0.013": 0.0,
			"-0.012": 0.0,
			"-0.011": 0.0,
			"-0.01": 0.0989064166348,
			"-0.009": 3.11838524536,
			"-0.008": 8.42997738382,
			"-0.007": 13.2064166921,
			"-0.006": 16.2722756281,
			"-0.005": 17.0634338745,
			"-0.004": 19.6002330472,
			"-0.003": 15.8362409121,
			"-0.002": 16.46671087,
			"-0.001": 21.7170517726,
			"0.0": 30.5970331956,
			"0.001": 22.513743219,
			"0.002": 17.1573204435,
			"0.003": 18.8382041239,
			"0.004": 17.3642254354,
			"0.005": 5.61926798545,
			"0.006": 5.47746157207,
			"0.007": 5.20564553618,
			"0.008": 7.27225868434,
			"0.009": 7.888769213,
			"0.01": 10.0604259606,
			"0.011": 3.56506872396,
			"0.012": 0.226267524736,
			"0.013": 0.0,
			"0.014": 0.0,
			"0.015": 0.0,
			"0.016": 0.0,
			"0.017": 0.0,
			"0.018": 0.0,
			"0.019": 0.0,
			"0.02": 0.0,
			"0.021": 0.0,
			"0.022": 0.0,
			"0.023": 0.0,
			"0.024": 0.0,
			"0.025": 0.0
		}
	}
}
