{
	 "smiles": "CC1=C(C)C(NC(=S)NN)=CC=C1", 
	 "Tm": 444.15, 
	 "num_atms": 26, 
	 "gaussian": { 
		 "optdone": 1, 
		 "sigma_profile": "yes", 
		 "theory": "DFT", 
		 "functional": "B3LYP", 
		 "basiset": "6-31G**", 
		 "properties": { 
			 "R2extent": 3905.364, 
			 "electric_dipole_moment_norm": 6.20741379723, 
			 "electric_quadrupole_moment_norm": 29.5704902256, 
			 "total_energy": -913.227377061, 
			 "HOMO_LUMO_gap": 0.1853, 
			 "cosmo_polarized_energy": -18.93, 
			 "cosmo_cavitation_energy": 30.08, 
			 "cosmo_dispersion_energy": -22.47, 
			 "cosmo_repulsion_energy": 1.75, 
			 "cosmo_total_nonelectrostatic_energy": 9.35, 
			 "SMD_solvation_energy": 4.86 
		},
		"coords": [
			{
				"x": -2.2909119634,
				"y": 1.2647675532,
				"z": 1.9959448142,
				"element": "C" 
			},
			{
				"x": -1.5549276914,
				"y": 0.5722699275,
				"z": 0.8677370051,
				"element": "C" 
			},
			{
				"x": -0.385980824,
				"y": 1.1177004447,
				"z": 0.3033252765,
				"element": "C" 
			},
			{
				"x": 0.1864781804,
				"y": 2.4271837112,
				"z": 0.8045705753,
				"element": "C" 
			},
			{
				"x": 0.2591500564,
				"y": 0.4224705176,
				"z": -0.7512696269,
				"element": "C" 
			},
			{
				"x": 1.4273044129,
				"y": 1.0220899674,
				"z": -1.2741330124,
				"element": "N" 
			},
			{
				"x": 2.2967459964,
				"y": 0.6741649126,
				"z": -2.2556442717,
				"element": "C" 
			},
			{
				"x": 2.313383597,
				"y": -0.6673378718,
				"z": -3.2706324097,
				"element": "S" 
			},
			{
				"x": 3.3124018712,
				"y": 1.5952274435,
				"z": -2.4123219951,
				"element": "N" 
			},
			{
				"x": 3.4003629061,
				"y": 2.748088109,
				"z": -1.6247003022,
				"element": "N" 
			},
			{
				"x": -0.2557858892,
				"y": -0.7895447896,
				"z": -1.2278426243,
				"element": "C" 
			},
			{
				"x": -1.4120565978,
				"y": -1.3107833678,
				"z": -0.6560225993,
				"element": "C" 
			},
			{
				"x": -2.0561478813,
				"y": -0.6408773374,
				"z": 0.3790992853,
				"element": "C" 
			},
			{
				"x": -2.6418048552,
				"y": 2.263365676,
				"z": 1.7100771678,
				"element": "H" 
			},
			{
				"x": -3.1680617177,
				"y": 0.6837496357,
				"z": 2.2919415253,
				"element": "H" 
			},
			{
				"x": -1.6634804799,
				"y": 1.3859698291,
				"z": 2.8868383065,
				"element": "H" 
			},
			{
				"x": 0.2282233199,
				"y": 3.1874548668,
				"z": 0.0129996723,
				"element": "H" 
			},
			{
				"x": -0.4105038252,
				"y": 2.847080099,
				"z": 1.6132051685,
				"element": "H" 
			},
			{
				"x": 1.2071429748,
				"y": 2.3080561386,
				"z": 1.1923722093,
				"element": "H" 
			},
			{
				"x": 1.7013955249,
				"y": 1.9018830929,
				"z": -0.8453521992,
				"element": "H" 
			},
			{
				"x": 3.9889134416,
				"y": 1.380940396,
				"z": -3.1339471602,
				"element": "H" 
			},
			{
				"x": 4.2689295835,
				"y": 2.7569436398,
				"z": -1.0948764149,
				"element": "H" 
			},
			{
				"x": 3.3490507529,
				"y": 3.5839061753,
				"z": -2.2026006855,
				"element": "H" 
			},
			{
				"x": 0.2513510463,
				"y": -1.3028750111,
				"z": -2.0322911258,
				"element": "H" 
			},
			{
				"x": -1.8096865786,
				"y": -2.2510152675,
				"z": -1.0271935171,
				"element": "H" 
			},
			{
				"x": -2.9585853608,
				"y": -1.0572784907,
				"z": 0.818316938,
				"element": "H" 
			}
		],
		 "valence_orbital": [ 
			{
				"type": "occ",
				"energy": -0.29498,
				"method": "rhf"
			},
			{
				"type": "occ",
				"energy": -0.23122,
				"method": "rhf"
			},
			{
				"type": "occ",
				"energy": -0.2214,
				"method": "rhf"
			},
			{
				"type": "occ",
				"energy": -0.20244,
				"method": "rhf"
			},
			{
				"type": "occ",
				"energy": -0.20101,
				"method": "rhf"
			},
			{
				"type": "unocc",
				"energy": -0.01571,
				"method": "rhf"
			},
			{
				"type": "unocc",
				"energy": 0.00775,
				"method": "rhf"
			},
			{
				"type": "unocc",
				"energy": 0.044,
				"method": "rhf"
			},
			{
				"type": "unocc",
				"energy": 0.04692,
				"method": "rhf"
			},
			{
				"type": "unocc",
				"energy": 0.08623,
				"method": "rhf"
			}
		],
		"cosmo_sigma_profile": { 
			"-0.025": 0.0,
			"-0.024": 0.0,
			"-0.023": 0.0,
			"-0.022": 0.0,
			"-0.021": 0.0,
			"-0.02": 0.0,
			"-0.019": 0.0,
			"-0.018": 0.0,
			"-0.017": 0.0,
			"-0.016": 0.0,
			"-0.015": 0.0195485058839,
			"-0.014": 0.824862976275,
			"-0.013": 3.76262863364,
			"-0.012": 5.01018113229,
			"-0.011": 4.78606040182,
			"-0.01": 4.44132471204,
			"-0.009": 3.80970462769,
			"-0.008": 2.71507216727,
			"-0.007": 1.20882187734,
			"-0.006": 3.92711577573,
			"-0.005": 10.2143421822,
			"-0.004": 17.7922595334,
			"-0.003": 19.0542749883,
			"-0.002": 19.212095219,
			"-0.001": 19.4028608711,
			"0.0": 19.8083986974,
			"0.001": 11.8351276563,
			"0.002": 12.309236291,
			"0.003": 11.4252758039,
			"0.004": 13.2512683171,
			"0.005": 12.9363032106,
			"0.006": 12.9130919729,
			"0.007": 6.51456166953,
			"0.008": 4.4775395539,
			"0.009": 4.21221046445,
			"0.01": 4.75683288684,
			"0.011": 7.13401949433,
			"0.012": 2.60307292389,
			"0.013": 0.0,
			"0.014": 0.0,
			"0.015": 0.0,
			"0.016": 0.0,
			"0.017": 0.0,
			"0.018": 0.0,
			"0.019": 0.0,
			"0.02": 0.0,
			"0.021": 0.0,
			"0.022": 0.0,
			"0.023": 0.0,
			"0.024": 0.0,
			"0.025": 0.0
		}
	}
}
