{
	 "smiles": "OC(=O)C1CCCN1CC1=CC=C(F)C=C1", 
	 "Tm": 516.15, 
	 "num_atms": 30, 
	 "gaussian": { 
		 "optdone": 1, 
		 "sigma_profile": "yes", 
		 "theory": "DFT", 
		 "functional": "B3LYP", 
		 "basiset": "6-31G**", 
		 "properties": { 
			 "R2extent": 4853.7457, 
			 "electric_dipole_moment_norm": 3.54118513072, 
			 "electric_quadrupole_moment_norm": 12.6500939819, 
			 "total_energy": -770.749903093, 
			 "HOMO_LUMO_gap": 0.21191, 
			 "cosmo_polarized_energy": -12.26, 
			 "cosmo_cavitation_energy": 33.19, 
			 "cosmo_dispersion_energy": -22.96, 
			 "cosmo_repulsion_energy": 1.79, 
			 "cosmo_total_nonelectrostatic_energy": 12.03, 
			 "SMD_solvation_energy": 5.71 
		},
		"coords": [
			{
				"x": -1.563141566,
				"y": 0.9737578574,
				"z": 2.1922912999,
				"element": "O" 
			},
			{
				"x": -0.2376523387,
				"y": 0.7068265968,
				"z": 2.3177579014,
				"element": "C" 
			},
			{
				"x": 0.223088513,
				"y": 0.168519479,
				"z": 3.2999228223,
				"element": "O" 
			},
			{
				"x": 0.5668542271,
				"y": 1.172532902,
				"z": 1.1126558278,
				"element": "C" 
			},
			{
				"x": 0.5010966549,
				"y": 2.7314545488,
				"z": 0.9322850155,
				"element": "C" 
			},
			{
				"x": -0.0041775686,
				"y": 2.9324300388,
				"z": -0.5122122231,
				"element": "C" 
			},
			{
				"x": -0.7400290544,
				"y": 1.6124074029,
				"z": -0.8013110081,
				"element": "C" 
			},
			{
				"x": 0.0465732135,
				"y": 0.5604584224,
				"z": -0.1312904506,
				"element": "N" 
			},
			{
				"x": 1.1065272746,
				"y": -0.0164590141,
				"z": -0.9690236438,
				"element": "C" 
			},
			{
				"x": 1.6972855371,
				"y": -1.2848687524,
				"z": -0.3810392095,
				"element": "C" 
			},
			{
				"x": 3.0736184237,
				"y": -1.5296663139,
				"z": -0.4486158576,
				"element": "C" 
			},
			{
				"x": 3.6219103651,
				"y": -2.7174193928,
				"z": 0.0391114803,
				"element": "C" 
			},
			{
				"x": 2.7709953427,
				"y": -3.6573608596,
				"z": 0.6062377836,
				"element": "C" 
			},
			{
				"x": 3.290076595,
				"y": -4.8074210847,
				"z": 1.0864565631,
				"element": "F" 
			},
			{
				"x": 1.3992524993,
				"y": -3.4441001774,
				"z": 0.699359395,
				"element": "C" 
			},
			{
				"x": 0.8702569412,
				"y": -2.2546745879,
				"z": 0.2027637322,
				"element": "C" 
			},
			{
				"x": -1.9806762188,
				"y": 0.6285923663,
				"z": 2.9992927016,
				"element": "H" 
			},
			{
				"x": 1.5860513434,
				"y": 0.8283006352,
				"z": 1.2974621229,
				"element": "H" 
			},
			{
				"x": 1.4776766549,
				"y": 3.1892524411,
				"z": 1.1069099503,
				"element": "H" 
			},
			{
				"x": -0.1996905799,
				"y": 3.1676498261,
				"z": 1.6497926489,
				"element": "H" 
			},
			{
				"x": 0.8400654338,
				"y": 3.0539867478,
				"z": -1.2003857679,
				"element": "H" 
			},
			{
				"x": -0.6446819735,
				"y": 3.8128628344,
				"z": -0.6177057771,
				"element": "H" 
			},
			{
				"x": -1.7410384705,
				"y": 1.6344702197,
				"z": -0.3566497907,
				"element": "H" 
			},
			{
				"x": -0.8489158378,
				"y": 1.3877841731,
				"z": -1.8658487455,
				"element": "H" 
			},
			{
				"x": 0.6458229727,
				"y": -0.2538314117,
				"z": -1.9362370212,
				"element": "H" 
			},
			{
				"x": 1.9278604817,
				"y": 0.6920133649,
				"z": -1.1836187081,
				"element": "H" 
			},
			{
				"x": 3.7308127465,
				"y": -0.7840789027,
				"z": -0.8894629672,
				"element": "H" 
			},
			{
				"x": 4.6873936098,
				"y": -2.9155634225,
				"z": -0.0066879785,
				"element": "H" 
			},
			{
				"x": 0.7700783293,
				"y": -4.1996422431,
				"z": 1.1577228382,
				"element": "H" 
			},
			{
				"x": -0.1946935512,
				"y": -2.0597136938,
				"z": 0.2779670658,
				"element": "H" 
			}
		],
		 "valence_orbital": [ 
			{
				"type": "occ",
				"energy": -0.31412,
				"method": "rhf"
			},
			{
				"type": "occ",
				"energy": -0.27151,
				"method": "rhf"
			},
			{
				"type": "occ",
				"energy": -0.25527,
				"method": "rhf"
			},
			{
				"type": "occ",
				"energy": -0.237,
				"method": "rhf"
			},
			{
				"type": "occ",
				"energy": -0.21957,
				"method": "rhf"
			},
			{
				"type": "unocc",
				"energy": -0.00766,
				"method": "rhf"
			},
			{
				"type": "unocc",
				"energy": 0.00203,
				"method": "rhf"
			},
			{
				"type": "unocc",
				"energy": 0.01146,
				"method": "rhf"
			},
			{
				"type": "unocc",
				"energy": 0.06574,
				"method": "rhf"
			},
			{
				"type": "unocc",
				"energy": 0.08671,
				"method": "rhf"
			}
		],
		"cosmo_sigma_profile": { 
			"-0.025": 0.0,
			"-0.024": 0.0,
			"-0.023": 0.0,
			"-0.022": 0.0,
			"-0.021": 0.0,
			"-0.02": 0.0,
			"-0.019": 0.0,
			"-0.018": 0.529131455414,
			"-0.017": 0.862004965871,
			"-0.016": 0.837351992924,
			"-0.015": 0.961885041672,
			"-0.014": 0.562292676479,
			"-0.013": 0.94909011838,
			"-0.012": 0.663898459198,
			"-0.011": 0.60673290592,
			"-0.01": 0.667583251439,
			"-0.009": 0.632877862428,
			"-0.008": 0.421001955011,
			"-0.007": 3.07836820435,
			"-0.006": 6.60305811808,
			"-0.005": 13.6161675632,
			"-0.004": 24.5805206469,
			"-0.003": 28.0421481547,
			"-0.002": 26.9793902611,
			"-0.001": 22.4209709517,
			"0.0": 19.4113422581,
			"0.001": 17.8113352966,
			"0.002": 15.7340983415,
			"0.003": 13.656309572,
			"0.004": 21.3967896903,
			"0.005": 14.8337948907,
			"0.006": 3.46012520448,
			"0.007": 3.59859042482,
			"0.008": 2.61009936482,
			"0.009": 2.88947963217,
			"0.01": 2.67341767914,
			"0.011": 4.10480431805,
			"0.012": 5.19416427362,
			"0.013": 1.06584489576,
			"0.014": 0.0,
			"0.015": 0.0,
			"0.016": 0.0,
			"0.017": 0.0,
			"0.018": 0.0,
			"0.019": 0.0,
			"0.02": 0.0,
			"0.021": 0.0,
			"0.022": 0.0,
			"0.023": 0.0,
			"0.024": 0.0,
			"0.025": 0.0
		}
	}
}
