{
	 "smiles": "NC1=CC(Cl)=CC=C1O", 
	 "Tm": 415.15, 
	 "num_atms": 15, 
	 "gaussian": { 
		 "optdone": 1, 
		 "sigma_profile": "yes", 
		 "theory": "DFT", 
		 "functional": "B3LYP", 
		 "basiset": "6-31G**", 
		 "properties": { 
			 "R2extent": 1720.3939, 
			 "electric_dipole_moment_norm": 2.66768291594, 
			 "electric_quadrupole_moment_norm": 10.8432496863, 
			 "total_energy": -822.4209024, 
			 "HOMO_LUMO_gap": 0.20089, 
			 "cosmo_polarized_energy": -8.89, 
			 "cosmo_cavitation_energy": 20.71, 
			 "cosmo_dispersion_energy": -15.89, 
			 "cosmo_repulsion_energy": 1.32, 
			 "cosmo_total_nonelectrostatic_energy": 6.14, 
			 "SMD_solvation_energy": 3.95 
		},
		"coords": [
			{
				"x": -0.4447947103,
				"y": -2.224662308,
				"z": 1.6982261692,
				"element": "N" 
			},
			{
				"x": -0.1426763943,
				"y": -0.8931363649,
				"z": 1.2327323916,
				"element": "C" 
			},
			{
				"x": -1.051716793,
				"y": -0.0402182159,
				"z": 0.6058530316,
				"element": "C" 
			},
			{
				"x": -0.6354832362,
				"y": 1.2272252711,
				"z": 0.2011360528,
				"element": "C" 
			},
			{
				"x": -1.7845233742,
				"y": 2.3036929875,
				"z": -0.5904060237,
				"element": "Cl" 
			},
			{
				"x": 0.6764225116,
				"y": 1.653263079,
				"z": 0.4144927705,
				"element": "C" 
			},
			{
				"x": 1.5861860913,
				"y": 0.803776764,
				"z": 1.0401702759,
				"element": "C" 
			},
			{
				"x": 1.1829681752,
				"y": -0.4705350368,
				"z": 1.451667035,
				"element": "C" 
			},
			{
				"x": 2.0553845385,
				"y": -1.305005099,
				"z": 2.0599837322,
				"element": "O" 
			},
			{
				"x": -0.749222244,
				"y": -2.8269828094,
				"z": 0.9377503291,
				"element": "H" 
			},
			{
				"x": -1.1846362637,
				"y": -2.2185428004,
				"z": 2.3956362767,
				"element": "H" 
			},
			{
				"x": -2.0744203563,
				"y": -0.3613957949,
				"z": 0.4349591152,
				"element": "H" 
			},
			{
				"x": 0.9825667374,
				"y": 2.6426349834,
				"z": 0.0929646341,
				"element": "H" 
			},
			{
				"x": 2.6101759982,
				"y": 1.1155823911,
				"z": 1.2153623597,
				"element": "H" 
			},
			{
				"x": 1.5287693202,
				"y": -2.1114970469,
				"z": 2.2395718501,
				"element": "H" 
			}
		],
		 "valence_orbital": [ 
			{
				"type": "occ",
				"energy": -0.31014,
				"method": "rhf"
			},
			{
				"type": "occ",
				"energy": -0.30596,
				"method": "rhf"
			},
			{
				"type": "occ",
				"energy": -0.28501,
				"method": "rhf"
			},
			{
				"type": "occ",
				"energy": -0.26055,
				"method": "rhf"
			},
			{
				"type": "occ",
				"energy": -0.21636,
				"method": "rhf"
			},
			{
				"type": "unocc",
				"energy": -0.01547,
				"method": "rhf"
			},
			{
				"type": "unocc",
				"energy": 0.00598,
				"method": "rhf"
			},
			{
				"type": "unocc",
				"energy": 0.03234,
				"method": "rhf"
			},
			{
				"type": "unocc",
				"energy": 0.0648,
				"method": "rhf"
			},
			{
				"type": "unocc",
				"energy": 0.12589,
				"method": "rhf"
			}
		],
		"cosmo_sigma_profile": { 
			"-0.025": 0.0,
			"-0.024": 0.0,
			"-0.023": 0.0,
			"-0.022": 0.0,
			"-0.021": 0.0,
			"-0.02": 0.0,
			"-0.019": 0.0,
			"-0.018": 0.0,
			"-0.017": 0.0,
			"-0.016": 0.0,
			"-0.015": 0.0,
			"-0.014": 0.0,
			"-0.013": 0.00475241862024,
			"-0.012": 2.00902840967,
			"-0.011": 3.1006627596,
			"-0.01": 3.45708218645,
			"-0.009": 3.48505986747,
			"-0.008": 3.59304860934,
			"-0.007": 6.2684074117,
			"-0.006": 8.98891147728,
			"-0.005": 7.52404328446,
			"-0.004": 6.88396091251,
			"-0.003": 6.17964102072,
			"-0.002": 7.36522165552,
			"-0.001": 9.75471315944,
			"0.0": 9.52093878133,
			"0.001": 9.86803820525,
			"0.002": 13.2080129215,
			"0.003": 19.0763811738,
			"0.004": 19.0341293686,
			"0.005": 13.4087202518,
			"0.006": 4.1968106373,
			"0.007": 2.13036431307,
			"0.008": 1.84544174899,
			"0.009": 1.50212460237,
			"0.01": 1.09277717967,
			"0.011": 2.31842115939,
			"0.012": 1.3200720052,
			"0.013": 0.0,
			"0.014": 0.0,
			"0.015": 0.0,
			"0.016": 0.0,
			"0.017": 0.0,
			"0.018": 0.0,
			"0.019": 0.0,
			"0.02": 0.0,
			"0.021": 0.0,
			"0.022": 0.0,
			"0.023": 0.0,
			"0.024": 0.0,
			"0.025": 0.0
		}
	}
}
