{
	 "smiles": "ClC1=C2OCCCOC2=CC(C=O)=C1", 
	 "Tm": 353.15, 
	 "num_atms": 23, 
	 "gaussian": { 
		 "optdone": 1, 
		 "sigma_profile": "yes", 
		 "theory": "DFT", 
		 "functional": "B3LYP", 
		 "basiset": "6-31G**", 
		 "properties": { 
			 "R2extent": 3912.7803, 
			 "electric_dipole_moment_norm": 4.02266992556, 
			 "electric_quadrupole_moment_norm": 13.4146071117, 
			 "total_energy": -1072.31875127, 
			 "HOMO_LUMO_gap": 0.17292, 
			 "cosmo_polarized_energy": -10.79, 
			 "cosmo_cavitation_energy": 28.34, 
			 "cosmo_dispersion_energy": -21.12, 
			 "cosmo_repulsion_energy": 1.66, 
			 "cosmo_total_nonelectrostatic_energy": 8.88, 
			 "SMD_solvation_energy": 5.78 
		},
		"coords": [
			{
				"x": -1.4524836894,
				"y": 1.9241720122,
				"z": 3.5607697051,
				"element": "Cl" 
			},
			{
				"x": -1.2813253413,
				"y": 0.8734967322,
				"z": 2.1709341816,
				"element": "C" 
			},
			{
				"x": -0.0322416214,
				"y": 0.7909560514,
				"z": 1.5284785193,
				"element": "C" 
			},
			{
				"x": 0.9856418156,
				"y": 1.5440681469,
				"z": 2.0227433631,
				"element": "O" 
			},
			{
				"x": 2.3137162048,
				"y": 0.9892218626,
				"z": 1.9556332847,
				"element": "C" 
			},
			{
				"x": 2.9826567037,
				"y": 1.2915173877,
				"z": 0.6162946183,
				"element": "C" 
			},
			{
				"x": 2.0079076842,
				"y": 1.033673313,
				"z": -0.5345004516,
				"element": "C" 
			},
			{
				"x": 1.2541581856,
				"y": -0.1714132518,
				"z": -0.3219722211,
				"element": "O" 
			},
			{
				"x": 0.0873629593,
				"y": -0.0494827013,
				"z": 0.390535115,
				"element": "C" 
			},
			{
				"x": -0.9970336416,
				"y": -0.8094171099,
				"z": -0.0293727873,
				"element": "C" 
			},
			{
				"x": -2.2223653714,
				"y": -0.7342677916,
				"z": 0.643306973,
				"element": "C" 
			},
			{
				"x": -3.3739073435,
				"y": -1.540159626,
				"z": 0.1850409597,
				"element": "C" 
			},
			{
				"x": -3.348211595,
				"y": -2.3086228619,
				"z": -0.7577108324,
				"element": "O" 
			},
			{
				"x": -2.3690171658,
				"y": 0.1250710359,
				"z": 1.7376166077,
				"element": "C" 
			},
			{
				"x": 2.8568809035,
				"y": 1.445687734,
				"z": 2.7863756883,
				"element": "H" 
			},
			{
				"x": 2.261484643,
				"y": -0.090298816,
				"z": 2.1298581922,
				"element": "H" 
			},
			{
				"x": 3.8725849834,
				"y": 0.6583227839,
				"z": 0.5232920812,
				"element": "H" 
			},
			{
				"x": 3.3155397478,
				"y": 2.3347860999,
				"z": 0.5730330957,
				"element": "H" 
			},
			{
				"x": 2.537689605,
				"y": 0.8886269819,
				"z": -1.4794930827,
				"element": "H" 
			},
			{
				"x": 1.3189026404,
				"y": 1.8768587095,
				"z": -0.6564187224,
				"element": "H" 
			},
			{
				"x": -0.8955160936,
				"y": -1.4533224637,
				"z": -0.8959466511,
				"element": "H" 
			},
			{
				"x": -4.3033798126,
				"y": -1.3947054123,
				"z": 0.7793915426,
				"element": "H" 
			},
			{
				"x": -3.3177444005,
				"y": 0.2018311835,
				"z": 2.2592108211,
				"element": "H" 
			}
		],
		 "valence_orbital": [ 
			{
				"type": "occ",
				"energy": -0.31274,
				"method": "rhf"
			},
			{
				"type": "occ",
				"energy": -0.30771,
				"method": "rhf"
			},
			{
				"type": "occ",
				"energy": -0.25584,
				"method": "rhf"
			},
			{
				"type": "occ",
				"energy": -0.24674,
				"method": "rhf"
			},
			{
				"type": "occ",
				"energy": -0.23555,
				"method": "rhf"
			},
			{
				"type": "unocc",
				"energy": -0.06263,
				"method": "rhf"
			},
			{
				"type": "unocc",
				"energy": -0.01711,
				"method": "rhf"
			},
			{
				"type": "unocc",
				"energy": 0.02215,
				"method": "rhf"
			},
			{
				"type": "unocc",
				"energy": 0.03843,
				"method": "rhf"
			},
			{
				"type": "unocc",
				"energy": 0.07003,
				"method": "rhf"
			}
		],
		"cosmo_sigma_profile": { 
			"-0.025": 0.0,
			"-0.024": 0.0,
			"-0.023": 0.0,
			"-0.022": 0.0,
			"-0.021": 0.0,
			"-0.02": 0.0,
			"-0.019": 0.0,
			"-0.018": 0.0,
			"-0.017": 0.0,
			"-0.016": 0.0,
			"-0.015": 0.0,
			"-0.014": 0.0,
			"-0.013": 0.0,
			"-0.012": 0.0,
			"-0.011": 0.0,
			"-0.01": 0.0,
			"-0.009": 0.871826384342,
			"-0.008": 3.01076839158,
			"-0.007": 4.77249995345,
			"-0.006": 13.5526336091,
			"-0.005": 22.8043916994,
			"-0.004": 24.1209571952,
			"-0.003": 16.7910818622,
			"-0.002": 14.6010021876,
			"-0.001": 13.0419576299,
			"0.0": 15.328751616,
			"0.001": 21.3138461532,
			"0.002": 17.5682513756,
			"0.003": 8.85074263948,
			"0.004": 11.8967251883,
			"0.005": 9.51290021725,
			"0.006": 3.96433322536,
			"0.007": 3.47601037365,
			"0.008": 4.90200076733,
			"0.009": 4.60463210334,
			"0.01": 4.69662610271,
			"0.011": 4.55679503685,
			"0.012": 2.94701664837,
			"0.013": 0.738926384785,
			"0.014": 0.0,
			"0.015": 0.0,
			"0.016": 0.0,
			"0.017": 0.0,
			"0.018": 0.0,
			"0.019": 0.0,
			"0.02": 0.0,
			"0.021": 0.0,
			"0.022": 0.0,
			"0.023": 0.0,
			"0.024": 0.0,
			"0.025": 0.0
		}
	}
}
