{
	 "smiles": "OC(=O)C1(CC1)C1=C(Cl)C=CC=C1Cl", 
	 "Tm": 490.15, 
	 "num_atms": 22, 
	 "gaussian": { 
		 "optdone": 1, 
		 "sigma_profile": "yes", 
		 "theory": "DFT", 
		 "functional": "B3LYP", 
		 "basiset": "6-31G**", 
		 "properties": { 
			 "R2extent": 3238.4288, 
			 "electric_dipole_moment_norm": 1.66248179238, 
			 "electric_quadrupole_moment_norm": 12.3612603099, 
			 "total_energy": -1456.7010191, 
			 "HOMO_LUMO_gap": 0.22241, 
			 "cosmo_polarized_energy": -11.11, 
			 "cosmo_cavitation_energy": 29.14, 
			 "cosmo_dispersion_energy": -20.69, 
			 "cosmo_repulsion_energy": 1.62, 
			 "cosmo_total_nonelectrostatic_energy": 10.07, 
			 "SMD_solvation_energy": 5.51 
		},
		"coords": [
			{
				"x": -0.0249428368,
				"y": 3.0043072893,
				"z": -1.6985074025,
				"element": "O" 
			},
			{
				"x": 0.2439296368,
				"y": 2.2837620856,
				"z": -0.5772861771,
				"element": "C" 
			},
			{
				"x": 0.36639606,
				"y": 2.8046420286,
				"z": 0.5097868411,
				"element": "O" 
			},
			{
				"x": 0.36497923,
				"y": 0.8153606877,
				"z": -0.8468068317,
				"element": "C" 
			},
			{
				"x": -0.511086735,
				"y": 0.227152824,
				"z": -1.9560156811,
				"element": "C" 
			},
			{
				"x": 0.9461522752,
				"y": 0.3918851995,
				"z": -2.1985064628,
				"element": "C" 
			},
			{
				"x": 0.6614352126,
				"y": 0.0016873628,
				"z": 0.3804845998,
				"element": "C" 
			},
			{
				"x": 1.97734872,
				"y": -0.2568918956,
				"z": 0.8095587387,
				"element": "C" 
			},
			{
				"x": 3.3468217588,
				"y": 0.4373649959,
				"z": -0.0498329802,
				"element": "Cl" 
			},
			{
				"x": 2.2668317766,
				"y": -1.0327808757,
				"z": 1.9309170267,
				"element": "C" 
			},
			{
				"x": 1.2216552047,
				"y": -1.5635434987,
				"z": 2.6814172009,
				"element": "C" 
			},
			{
				"x": -0.0977330961,
				"y": -1.301578383,
				"z": 2.323811609,
				"element": "C" 
			},
			{
				"x": -0.3584210974,
				"y": -0.5223744319,
				"z": 1.1976773591,
				"element": "C" 
			},
			{
				"x": -2.04736073,
				"y": -0.1754337105,
				"z": 0.8467372583,
				"element": "Cl" 
			},
			{
				"x": -0.0803909833,
				"y": 3.9288840384,
				"z": -1.4066124886,
				"element": "H" 
			},
			{
				"x": -0.893707895,
				"y": -0.7722970006,
				"z": -1.7817372946,
				"element": "H" 
			},
			{
				"x": -1.2050073008,
				"y": 0.9066128318,
				"z": -2.437031016,
				"element": "H" 
			},
			{
				"x": 1.2851345933,
				"y": 1.1875970185,
				"z": -2.8515742997,
				"element": "H" 
			},
			{
				"x": 1.5719170082,
				"y": -0.4936034331,
				"z": -2.1914050302,
				"element": "H" 
			},
			{
				"x": 3.2998824279,
				"y": -1.2043161133,
				"z": 2.209957946,
				"element": "H" 
			},
			{
				"x": 1.4358701037,
				"y": -2.1699072465,
				"z": 3.5559020648,
				"element": "H" 
			},
			{
				"x": -0.9237033334,
				"y": -1.6844297735,
				"z": 2.9117650202,
				"element": "H" 
			}
		],
		 "valence_orbital": [ 
			{
				"type": "occ",
				"energy": -0.30923,
				"method": "rhf"
			},
			{
				"type": "occ",
				"energy": -0.29667,
				"method": "rhf"
			},
			{
				"type": "occ",
				"energy": -0.27132,
				"method": "rhf"
			},
			{
				"type": "occ",
				"energy": -0.26023,
				"method": "rhf"
			},
			{
				"type": "occ",
				"energy": -0.24986,
				"method": "rhf"
			},
			{
				"type": "unocc",
				"energy": -0.02745,
				"method": "rhf"
			},
			{
				"type": "unocc",
				"energy": -0.02313,
				"method": "rhf"
			},
			{
				"type": "unocc",
				"energy": 0.00674,
				"method": "rhf"
			},
			{
				"type": "unocc",
				"energy": 0.00751,
				"method": "rhf"
			},
			{
				"type": "unocc",
				"energy": 0.052,
				"method": "rhf"
			}
		],
		"cosmo_sigma_profile": { 
			"-0.025": 0.0,
			"-0.024": 0.0,
			"-0.023": 0.0,
			"-0.022": 0.0,
			"-0.021": 0.0,
			"-0.02": 0.0,
			"-0.019": 0.15848372653,
			"-0.018": 0.824291776559,
			"-0.017": 1.14596647975,
			"-0.016": 0.411896388251,
			"-0.015": 0.454532064156,
			"-0.014": 0.661477403514,
			"-0.013": 0.697974519954,
			"-0.012": 1.08965504963,
			"-0.011": 1.14583319221,
			"-0.01": 0.44335619015,
			"-0.009": 0.382890725933,
			"-0.008": 2.53605372717,
			"-0.007": 6.98197913531,
			"-0.006": 10.2945554415,
			"-0.005": 13.3186784119,
			"-0.004": 11.5388093924,
			"-0.003": 12.9320074837,
			"-0.002": 15.6940547533,
			"-0.001": 17.5573113085,
			"0.0": 20.4487252543,
			"0.001": 23.5624297612,
			"0.002": 27.0257461419,
			"0.003": 22.9838113834,
			"0.004": 17.1154476918,
			"0.005": 7.80811143504,
			"0.006": 2.45592632592,
			"0.007": 2.76123276825,
			"0.008": 2.42382989565,
			"0.009": 1.32784859305,
			"0.01": 2.30749125933,
			"0.011": 3.43569240225,
			"0.012": 4.32396317409,
			"0.013": 0.222592909474,
			"0.014": 0.0,
			"0.015": 0.0,
			"0.016": 0.0,
			"0.017": 0.0,
			"0.018": 0.0,
			"0.019": 0.0,
			"0.02": 0.0,
			"0.021": 0.0,
			"0.022": 0.0,
			"0.023": 0.0,
			"0.024": 0.0,
			"0.025": 0.0
		}
	}
}
