{
	 "smiles": "CC(C)CC1=CC=C(C=C1)C(=O)CCC(O)=O", 
	 "Tm": 387.15, 
	 "num_atms": 35, 
	 "gaussian": { 
		 "optdone": 1, 
		 "sigma_profile": "yes", 
		 "theory": "DFT", 
		 "functional": "B3LYP", 
		 "basiset": "6-31G**", 
		 "properties": { 
			 "R2extent": 7489.9906, 
			 "electric_dipole_moment_norm": 2.79944633455, 
			 "electric_quadrupole_moment_norm": 9.96538980622, 
			 "total_energy": -770.052664991, 
			 "HOMO_LUMO_gap": 0.19482, 
			 "cosmo_polarized_energy": -14.52, 
			 "cosmo_cavitation_energy": 38.34, 
			 "cosmo_dispersion_energy": -26.6, 
			 "cosmo_repulsion_energy": 2.09, 
			 "cosmo_total_nonelectrostatic_energy": 13.84, 
			 "SMD_solvation_energy": 7.73 
		},
		"coords": [
			{
				"x": 0.2714390973,
				"y": 5.173840321,
				"z": -1.4040987357,
				"element": "C" 
			},
			{
				"x": 0.3828791617,
				"y": 3.8280934022,
				"z": -0.6738926874,
				"element": "C" 
			},
			{
				"x": 0.0459824662,
				"y": 3.9802101192,
				"z": 0.8154074984,
				"element": "C" 
			},
			{
				"x": -0.510085641,
				"y": 2.7666877762,
				"z": -1.3678096048,
				"element": "C" 
			},
			{
				"x": -0.335595677,
				"y": 1.3597376512,
				"z": -0.8410043487,
				"element": "C" 
			},
			{
				"x": -1.2794828764,
				"y": 0.7770056993,
				"z": 0.0191681913,
				"element": "C" 
			},
			{
				"x": -1.1018409035,
				"y": -0.5103300762,
				"z": 0.5137137868,
				"element": "C" 
			},
			{
				"x": 0.0298661754,
				"y": -1.2615193038,
				"z": 0.161579426,
				"element": "C" 
			},
			{
				"x": 0.976790741,
				"y": -0.6863803876,
				"z": -0.7006354856,
				"element": "C" 
			},
			{
				"x": 0.7925844142,
				"y": 0.6028992451,
				"z": -1.1926632849,
				"element": "C" 
			},
			{
				"x": 0.1656193055,
				"y": -2.641590637,
				"z": 0.7193496505,
				"element": "C" 
			},
			{
				"x": -0.6862484779,
				"y": -3.1045892874,
				"z": 1.4654734731,
				"element": "O" 
			},
			{
				"x": 1.3843748024,
				"y": -3.4778155873,
				"z": 0.3318861504,
				"element": "C" 
			},
			{
				"x": 1.3871497227,
				"y": -4.8363911755,
				"z": 1.0250819387,
				"element": "C" 
			},
			{
				"x": 1.6850689079,
				"y": -4.7126699201,
				"z": 2.5047985787,
				"element": "C" 
			},
			{
				"x": 1.3220811581,
				"y": -5.824747598,
				"z": 3.1837820347,
				"element": "O" 
			},
			{
				"x": 2.2205640088,
				"y": -3.7657207565,
				"z": 3.0391762217,
				"element": "O" 
			},
			{
				"x": 0.5534344591,
				"y": 5.0842256143,
				"z": -2.459008811,
				"element": "H" 
			},
			{
				"x": 0.9220798262,
				"y": 5.9259015955,
				"z": -0.9453592057,
				"element": "H" 
			},
			{
				"x": -0.7556279831,
				"y": 5.5569690657,
				"z": -1.3649996212,
				"element": "H" 
			},
			{
				"x": 1.4238997989,
				"y": 3.4829399153,
				"z": -0.7527934088,
				"element": "H" 
			},
			{
				"x": 0.7082756399,
				"y": 4.7105340172,
				"z": 1.2922344643,
				"element": "H" 
			},
			{
				"x": -0.9847885354,
				"y": 4.3323227313,
				"z": 0.9479248185,
				"element": "H" 
			},
			{
				"x": 0.1478011551,
				"y": 3.0331992939,
				"z": 1.3533221293,
				"element": "H" 
			},
			{
				"x": -1.5602015694,
				"y": 3.0697506339,
				"z": -1.2671943423,
				"element": "H" 
			},
			{
				"x": -0.2841636067,
				"y": 2.7764541186,
				"z": -2.4419193506,
				"element": "H" 
			},
			{
				"x": -2.1642005355,
				"y": 1.343087287,
				"z": 0.2992368553,
				"element": "H" 
			},
			{
				"x": -1.8303673395,
				"y": -0.9626537053,
				"z": 1.1783335127,
				"element": "H" 
			},
			{
				"x": 1.8619053285,
				"y": -1.2414249524,
				"z": -0.9943395796,
				"element": "H" 
			},
			{
				"x": 1.5332437655,
				"y": 1.0296783742,
				"z": -1.864641406,
				"element": "H" 
			},
			{
				"x": 1.3935645289,
				"y": -3.6048629408,
				"z": -0.7578091373,
				"element": "H" 
			},
			{
				"x": 2.2921015551,
				"y": -2.9239178428,
				"z": 0.595102686,
				"element": "H" 
			},
			{
				"x": 0.4300493498,
				"y": -5.3483636398,
				"z": 0.9043453227,
				"element": "H" 
			},
			{
				"x": 2.1595247502,
				"y": -5.4839482799,
				"z": 0.5916323024,
				"element": "H" 
			},
			{
				"x": 1.5658230272,
				"y": -5.6648107707,
				"z": 4.111019968,
				"element": "H" 
			}
		],
		 "valence_orbital": [ 
			{
				"type": "occ",
				"energy": -0.31174,
				"method": "rhf"
			},
			{
				"type": "occ",
				"energy": -0.27078,
				"method": "rhf"
			},
			{
				"type": "occ",
				"energy": -0.25793,
				"method": "rhf"
			},
			{
				"type": "occ",
				"energy": -0.24926,
				"method": "rhf"
			},
			{
				"type": "occ",
				"energy": -0.24786,
				"method": "rhf"
			},
			{
				"type": "unocc",
				"energy": -0.05304,
				"method": "rhf"
			},
			{
				"type": "unocc",
				"energy": -0.0084,
				"method": "rhf"
			},
			{
				"type": "unocc",
				"energy": 0.01795,
				"method": "rhf"
			},
			{
				"type": "unocc",
				"energy": 0.0402,
				"method": "rhf"
			},
			{
				"type": "unocc",
				"energy": 0.08396,
				"method": "rhf"
			}
		],
		"cosmo_sigma_profile": { 
			"-0.025": 0.0,
			"-0.024": 0.0,
			"-0.023": 0.0,
			"-0.022": 0.0,
			"-0.021": 0.0,
			"-0.02": 0.0,
			"-0.019": 0.0112795108333,
			"-0.018": 0.685423381497,
			"-0.017": 1.02719006078,
			"-0.016": 0.739666842777,
			"-0.015": 0.538101372516,
			"-0.014": 0.625152651867,
			"-0.013": 0.774599365352,
			"-0.012": 0.60989879489,
			"-0.011": 1.1296756329,
			"-0.01": 0.809323915898,
			"-0.009": 0.488040173352,
			"-0.008": 0.358608799605,
			"-0.007": 4.47591916097,
			"-0.006": 12.4415970346,
			"-0.005": 17.9482697388,
			"-0.004": 19.9846726861,
			"-0.003": 26.1496304579,
			"-0.002": 35.2829944836,
			"-0.001": 25.8958120317,
			"0.0": 27.4419655315,
			"0.001": 29.157871265,
			"0.002": 20.8206787373,
			"0.003": 12.5222877529,
			"0.004": 15.2093721213,
			"0.005": 8.06703328047,
			"0.006": 5.23787442242,
			"0.007": 4.28959645396,
			"0.008": 4.73560651519,
			"0.009": 5.15231097603,
			"0.01": 4.97329625857,
			"0.011": 5.5101870209,
			"0.012": 6.95713427024,
			"0.013": 0.326821534269,
			"0.014": 0.0,
			"0.015": 0.0,
			"0.016": 0.0,
			"0.017": 0.0,
			"0.018": 0.0,
			"0.019": 0.0,
			"0.02": 0.0,
			"0.021": 0.0,
			"0.022": 0.0,
			"0.023": 0.0,
			"0.024": 0.0,
			"0.025": 0.0
		}
	}
}
