{
	 "smiles": "CC1=CC=C(O1)C(=O)N=[N+]=[N-]", 
	 "Tm": 307.15, 
	 "num_atms": 16, 
	 "gaussian": { 
		 "optdone": 1, 
		 "sigma_profile": "yes", 
		 "theory": "DFT", 
		 "functional": "B3LYP", 
		 "basiset": "6-31G**", 
		 "properties": { 
			 "R2extent": 2372.8369, 
			 "electric_dipole_moment_norm": 4.21419967372, 
			 "electric_quadrupole_moment_norm": 5.30690117394, 
			 "total_energy": -546.27488519, 
			 "HOMO_LUMO_gap": 0.17124, 
			 "cosmo_polarized_energy": -8.19, 
			 "cosmo_cavitation_energy": 23.05, 
			 "cosmo_dispersion_energy": -16.37, 
			 "cosmo_repulsion_energy": 1.35, 
			 "cosmo_total_nonelectrostatic_energy": 8.02, 
			 "SMD_solvation_energy": 3.73 
		},
		"coords": [
			{
				"x": 2.1575315196,
				"y": -1.6277961711,
				"z": 0.7369479848,
				"element": "C" 
			},
			{
				"x": 1.3037320184,
				"y": -0.4100407098,
				"z": 0.7252873163,
				"element": "C" 
			},
			{
				"x": 1.0059305326,
				"y": 0.5391062434,
				"z": 1.6721175683,
				"element": "C" 
			},
			{
				"x": 0.1225981222,
				"y": 1.4653273318,
				"z": 1.0551814086,
				"element": "C" 
			},
			{
				"x": -0.0630286124,
				"y": 1.0225927614,
				"z": -0.2304189089,
				"element": "C" 
			},
			{
				"x": 0.6586773909,
				"y": -0.1254617026,
				"z": -0.4357089212,
				"element": "O" 
			},
			{
				"x": -0.8693608283,
				"y": 1.5882323178,
				"z": -1.3012597376,
				"element": "C" 
			},
			{
				"x": -1.5321018934,
				"y": 2.6033962806,
				"z": -1.1810381638,
				"element": "O" 
			},
			{
				"x": -0.7953063662,
				"y": 0.8157640634,
				"z": -2.5070716293,
				"element": "N" 
			},
			{
				"x": -1.4736856604,
				"y": 1.2675038307,
				"z": -3.4492975904,
				"element": "N" 
			},
			{
				"x": -2.0516601682,
				"y": 1.5869657507,
				"z": -4.3710060622,
				"element": "N" 
			},
			{
				"x": 2.620211158,
				"y": -1.7503993702,
				"z": 1.7183549135,
				"element": "H" 
			},
			{
				"x": 2.9511095699,
				"y": -1.5610625424,
				"z": -0.0154472291,
				"element": "H" 
			},
			{
				"x": 1.5689688455,
				"y": -2.5250042243,
				"z": 0.515748424,
				"element": "H" 
			},
			{
				"x": 1.379091696,
				"y": 0.5630990428,
				"z": 2.6857519409,
				"element": "H" 
			},
			{
				"x": -0.3288073242,
				"y": 2.3483770978,
				"z": 1.4828586861,
				"element": "H" 
			}
		],
		 "valence_orbital": [ 
			{
				"type": "occ",
				"energy": -0.34665,
				"method": "rhf"
			},
			{
				"type": "occ",
				"energy": -0.29703,
				"method": "rhf"
			},
			{
				"type": "occ",
				"energy": -0.28502,
				"method": "rhf"
			},
			{
				"type": "occ",
				"energy": -0.2755,
				"method": "rhf"
			},
			{
				"type": "occ",
				"energy": -0.2395,
				"method": "rhf"
			},
			{
				"type": "unocc",
				"energy": -0.06826,
				"method": "rhf"
			},
			{
				"type": "unocc",
				"energy": -0.0422,
				"method": "rhf"
			},
			{
				"type": "unocc",
				"energy": -6e-05,
				"method": "rhf"
			},
			{
				"type": "unocc",
				"energy": 0.04491,
				"method": "rhf"
			},
			{
				"type": "unocc",
				"energy": 0.09323,
				"method": "rhf"
			}
		],
		"cosmo_sigma_profile": { 
			"-0.025": 0.0,
			"-0.024": 0.0,
			"-0.023": 0.0,
			"-0.022": 0.0,
			"-0.021": 0.0,
			"-0.02": 0.0,
			"-0.019": 0.0,
			"-0.018": 0.0,
			"-0.017": 0.0,
			"-0.016": 0.0,
			"-0.015": 0.0,
			"-0.014": 0.0,
			"-0.013": 0.0,
			"-0.012": 0.0,
			"-0.011": 0.0,
			"-0.01": 0.0,
			"-0.009": 0.208826733862,
			"-0.008": 2.37576446371,
			"-0.007": 4.84165531466,
			"-0.006": 13.8794541193,
			"-0.005": 13.1274564597,
			"-0.004": 14.227697543,
			"-0.003": 15.2513955405,
			"-0.002": 16.1224347686,
			"-0.001": 14.5796459287,
			"0.0": 15.9401250019,
			"0.001": 13.7644041045,
			"0.002": 11.9610215496,
			"0.003": 11.6939219104,
			"0.004": 7.28062853287,
			"0.005": 7.13723311771,
			"0.006": 3.50195606528,
			"0.007": 3.08845478909,
			"0.008": 3.05877102905,
			"0.009": 3.75538189912,
			"0.01": 4.05951465029,
			"0.011": 4.9412483962,
			"0.012": 1.58704975103,
			"0.013": 0.0,
			"0.014": 0.0,
			"0.015": 0.0,
			"0.016": 0.0,
			"0.017": 0.0,
			"0.018": 0.0,
			"0.019": 0.0,
			"0.02": 0.0,
			"0.021": 0.0,
			"0.022": 0.0,
			"0.023": 0.0,
			"0.024": 0.0,
			"0.025": 0.0
		}
	}
}
