{
	 "smiles": "C1CC(CCN1)C1CCOCC1", 
	 "Tm": 326.15, 
	 "num_atms": 31, 
	 "gaussian": { 
		 "optdone": 1, 
		 "sigma_profile": "yes", 
		 "theory": "DFT", 
		 "functional": "B3LYP", 
		 "basiset": "6-31G**", 
		 "properties": { 
			 "R2extent": 2584.65, 
			 "electric_dipole_moment_norm": 0.700500435403, 
			 "electric_quadrupole_moment_norm": 13.2879747298, 
			 "total_energy": -522.46425679, 
			 "HOMO_LUMO_gap": 0.27612, 
			 "cosmo_polarized_energy": -7.34, 
			 "cosmo_cavitation_energy": 28.83, 
			 "cosmo_dispersion_energy": -21.62, 
			 "cosmo_repulsion_energy": 1.71, 
			 "cosmo_total_nonelectrostatic_energy": 8.92, 
			 "SMD_solvation_energy": 1.4 
		},
		"coords": [
			{
				"x": 0.436542751,
				"y": -1.8960919566,
				"z": 1.5031915175,
				"element": "C" 
			},
			{
				"x": 0.2093610767,
				"y": -1.0662104899,
				"z": 0.231622826,
				"element": "C" 
			},
			{
				"x": 1.0308034835,
				"y": 0.2439857784,
				"z": 0.3012288673,
				"element": "C" 
			},
			{
				"x": 1.0410568761,
				"y": 0.7931542997,
				"z": 1.7618057398,
				"element": "C" 
			},
			{
				"x": -0.1139478684,
				"y": 0.2504096435,
				"z": 2.6072604441,
				"element": "C" 
			},
			{
				"x": 0.0021802563,
				"y": -1.2095904224,
				"z": 2.7352386283,
				"element": "N" 
			},
			{
				"x": 0.6275496349,
				"y": 1.316266081,
				"z": -0.7431491143,
				"element": "C" 
			},
			{
				"x": -0.7963842375,
				"y": 1.8925875989,
				"z": -0.5613065055,
				"element": "C" 
			},
			{
				"x": -1.2245795814,
				"y": 2.6635703926,
				"z": -1.8094109303,
				"element": "C" 
			},
			{
				"x": -1.2991449338,
				"y": 1.8439886382,
				"z": -2.977722353,
				"element": "O" 
			},
			{
				"x": -0.5302931487,
				"y": 0.644983828,
				"z": -2.9286748462,
				"element": "C" 
			},
			{
				"x": 0.8086445053,
				"y": 0.8344110655,
				"z": -2.2153441189,
				"element": "C" 
			},
			{
				"x": -0.082835114,
				"y": -2.8581453823,
				"z": 1.434276953,
				"element": "H" 
			},
			{
				"x": 1.5088716227,
				"y": -2.1335570172,
				"z": 1.5780250705,
				"element": "H" 
			},
			{
				"x": -0.8626936716,
				"y": -0.8560769721,
				"z": 0.1328668043,
				"element": "H" 
			},
			{
				"x": 0.4947787305,
				"y": -1.6504158356,
				"z": -0.6508525008,
				"element": "H" 
			},
			{
				"x": 2.067029159,
				"y": -0.0279372492,
				"z": 0.055048542,
				"element": "H" 
			},
			{
				"x": 1.9781468844,
				"y": 0.5093905151,
				"z": 2.2545485613,
				"element": "H" 
			},
			{
				"x": 1.0115845555,
				"y": 1.8887433748,
				"z": 1.762142942,
				"element": "H" 
			},
			{
				"x": -0.0826474493,
				"y": 0.6929322748,
				"z": 3.6109314335,
				"element": "H" 
			},
			{
				"x": -1.0696321257,
				"y": 0.5706783894,
				"z": 2.155040004,
				"element": "H" 
			},
			{
				"x": -0.8851556157,
				"y": -1.5908148021,
				"z": 3.0449192827,
				"element": "H" 
			},
			{
				"x": 1.3226456711,
				"y": 2.1538040728,
				"z": -0.5911428752,
				"element": "H" 
			},
			{
				"x": -0.8370248333,
				"y": 2.5602730314,
				"z": 0.3064433513,
				"element": "H" 
			},
			{
				"x": -1.5267044375,
				"y": 1.0964341497,
				"z": -0.3767411651,
				"element": "H" 
			},
			{
				"x": -2.2180403651,
				"y": 3.1067893507,
				"z": -1.6732926342,
				"element": "H" 
			},
			{
				"x": -0.5193322732,
				"y": 3.4930844289,
				"z": -1.9865545885,
				"element": "H" 
			},
			{
				"x": -1.1059552192,
				"y": -0.1597558764,
				"z": -2.4431576649,
				"element": "H" 
			},
			{
				"x": -0.3771333824,
				"y": 0.3459715985,
				"z": -3.9710742545,
				"element": "H" 
			},
			{
				"x": 1.3907573743,
				"y": 1.5730933327,
				"z": -2.7782479921,
				"element": "H" 
			},
			{
				"x": 1.3766516757,
				"y": -0.1026558409,
				"z": -2.2559194241,
				"element": "H" 
			}
		],
		 "valence_orbital": [ 
			{
				"type": "occ",
				"energy": -0.30087,
				"method": "rhf"
			},
			{
				"type": "occ",
				"energy": -0.29697,
				"method": "rhf"
			},
			{
				"type": "occ",
				"energy": -0.279,
				"method": "rhf"
			},
			{
				"type": "occ",
				"energy": -0.23603,
				"method": "rhf"
			},
			{
				"type": "occ",
				"energy": -0.20684,
				"method": "rhf"
			},
			{
				"type": "unocc",
				"energy": 0.06928,
				"method": "rhf"
			},
			{
				"type": "unocc",
				"energy": 0.08604,
				"method": "rhf"
			},
			{
				"type": "unocc",
				"energy": 0.09057,
				"method": "rhf"
			},
			{
				"type": "unocc",
				"energy": 0.09844,
				"method": "rhf"
			},
			{
				"type": "unocc",
				"energy": 0.11479,
				"method": "rhf"
			}
		],
		"cosmo_sigma_profile": { 
			"-0.025": 0.0,
			"-0.024": 0.0,
			"-0.023": 0.0,
			"-0.022": 0.0,
			"-0.021": 0.0,
			"-0.02": 0.0,
			"-0.019": 0.0,
			"-0.018": 0.0,
			"-0.017": 0.0,
			"-0.016": 0.0,
			"-0.015": 0.0,
			"-0.014": 0.0,
			"-0.013": 0.0,
			"-0.012": 0.0,
			"-0.011": 0.0,
			"-0.01": 0.18519426876,
			"-0.009": 1.22115660825,
			"-0.008": 1.28515139982,
			"-0.007": 0.815155121428,
			"-0.006": 1.94869789434,
			"-0.005": 1.6333571397,
			"-0.004": 6.83167087508,
			"-0.003": 24.8462025602,
			"-0.002": 48.5692500714,
			"-0.001": 51.8505049624,
			"0.0": 29.8725816375,
			"0.001": 16.0169951661,
			"0.002": 5.09441702652,
			"0.003": 3.21568282574,
			"0.004": 3.10064070403,
			"0.005": 2.06676287289,
			"0.006": 2.12006959505,
			"0.007": 1.83090326341,
			"0.008": 2.64935345165,
			"0.009": 2.39407388654,
			"0.01": 1.14480402188,
			"0.011": 1.82511781587,
			"0.012": 1.82614359035,
			"0.013": 2.4229484288,
			"0.014": 2.28704938517,
			"0.015": 1.22518532304,
			"0.016": 0.815131069072,
			"0.017": 0.300500291661,
			"0.018": 0.592501102154,
			"0.019": 0.384955833908,
			"0.02": 0.0533411143338,
			"0.021": 0.0,
			"0.022": 0.0,
			"0.023": 0.0,
			"0.024": 0.0,
			"0.025": 0.0
		}
	}
}
