{
	 "smiles": "OC(=O)C(F)(F)F", 
	 "Tm": 258.05, 
	 "num_atms": 8, 
	 "gaussian": { 
		 "optdone": 1, 
		 "sigma_profile": "yes", 
		 "theory": "DFT", 
		 "functional": "B3LYP", 
		 "basiset": "6-31G**", 
		 "properties": { 
			 "R2extent": 974.1818, 
			 "electric_dipole_moment_norm": 2.89716021476, 
			 "electric_quadrupole_moment_norm": 5.032627443, 
			 "total_energy": -526.776832371, 
			 "HOMO_LUMO_gap": 0.2701, 
			 "cosmo_polarized_energy": -8.86, 
			 "cosmo_cavitation_energy": 14.32, 
			 "cosmo_dispersion_energy": -10.29, 
			 "cosmo_repulsion_energy": 0.84, 
			 "cosmo_total_nonelectrostatic_energy": 4.88, 
			 "SMD_solvation_energy": 5.37 
		},
		"coords": [
			{
				"x": -0.7245673868,
				"y": 1.2223589663,
				"z": 1.2172742685,
				"element": "O" 
			},
			{
				"x": -0.6655418032,
				"y": 0.6361647231,
				"z": 0.0137375021,
				"element": "C" 
			},
			{
				"x": -1.1184324112,
				"y": -0.4460882544,
				"z": -0.2328618062,
				"element": "O" 
			},
			{
				"x": 0.0479131827,
				"y": 1.468969282,
				"z": -1.0850327072,
				"element": "C" 
			},
			{
				"x": 1.1090250893,
				"y": 0.8089286722,
				"z": -1.5553357481,
				"element": "F" 
			},
			{
				"x": 0.4811235739,
				"y": 2.6610254627,
				"z": -0.5851646445,
				"element": "F" 
			},
			{
				"x": -0.7887196573,
				"y": 1.7243856952,
				"z": -2.0937980563,
				"element": "F" 
			},
			{
				"x": -0.2948005873,
				"y": 2.092055453,
				"z": 1.1822811917,
				"element": "H" 
			}
		],
		 "valence_orbital": [ 
			{
				"type": "occ",
				"energy": -0.44405,
				"method": "rhf"
			},
			{
				"type": "occ",
				"energy": -0.43246,
				"method": "rhf"
			},
			{
				"type": "occ",
				"energy": -0.4063,
				"method": "rhf"
			},
			{
				"type": "occ",
				"energy": -0.35036,
				"method": "rhf"
			},
			{
				"type": "occ",
				"energy": -0.30886,
				"method": "rhf"
			},
			{
				"type": "unocc",
				"energy": -0.03876,
				"method": "rhf"
			},
			{
				"type": "unocc",
				"energy": 0.05918,
				"method": "rhf"
			},
			{
				"type": "unocc",
				"energy": 0.11835,
				"method": "rhf"
			},
			{
				"type": "unocc",
				"energy": 0.17409,
				"method": "rhf"
			},
			{
				"type": "unocc",
				"energy": 0.18556,
				"method": "rhf"
			}
		],
		"cosmo_sigma_profile": { 
			"-0.025": 0.0,
			"-0.024": 0.0,
			"-0.023": 0.0,
			"-0.022": 0.0,
			"-0.021": 0.0,
			"-0.02": 0.00905666276404,
			"-0.019": 0.802383961076,
			"-0.018": 0.318045719392,
			"-0.017": 0.89968182848,
			"-0.016": 0.946760019025,
			"-0.015": 1.07478652049,
			"-0.014": 2.00798943539,
			"-0.013": 1.33929688373,
			"-0.012": 1.20044226697,
			"-0.011": 1.11674789173,
			"-0.01": 1.45945525663,
			"-0.009": 1.83458807152,
			"-0.008": 1.45144429044,
			"-0.007": 2.02591116928,
			"-0.006": 2.19399637289,
			"-0.005": 1.88363281529,
			"-0.004": 2.1736629102,
			"-0.003": 4.05767308146,
			"-0.002": 4.17324748059,
			"-0.001": 6.33779705755,
			"0.0": 11.6340095755,
			"0.001": 25.9115569622,
			"0.002": 11.8306215973,
			"0.003": 2.09171434082,
			"0.004": 2.5333902348,
			"0.005": 2.77077897672,
			"0.006": 3.30616821928,
			"0.007": 4.63295135029,
			"0.008": 4.29189551803,
			"0.009": 4.55926682355,
			"0.01": 3.84683624808,
			"0.011": 0.451338871531,
			"0.012": 0.0,
			"0.013": 0.0,
			"0.014": 0.0,
			"0.015": 0.0,
			"0.016": 0.0,
			"0.017": 0.0,
			"0.018": 0.0,
			"0.019": 0.0,
			"0.02": 0.0,
			"0.021": 0.0,
			"0.022": 0.0,
			"0.023": 0.0,
			"0.024": 0.0,
			"0.025": 0.0
		}
	}
}
