{
	 "smiles": "CC1=C(C=C(N)C=C1)S(N)(=O)=O", 
	 "Tm": 425.15, 
	 "num_atms": 22, 
	 "gaussian": { 
		 "optdone": 1, 
		 "sigma_profile": "yes", 
		 "theory": "DFT", 
		 "functional": "B3LYP", 
		 "basiset": "6-31G**", 
		 "properties": { 
			 "R2extent": 2844.2509, 
			 "electric_dipole_moment_norm": 5.73577582372, 
			 "electric_quadrupole_moment_norm": 22.9538510294, 
			 "total_energy": -930.848113722, 
			 "HOMO_LUMO_gap": 0.18436, 
			 "cosmo_polarized_energy": -21.44, 
			 "cosmo_cavitation_energy": 26.35, 
			 "cosmo_dispersion_energy": -20.15, 
			 "cosmo_repulsion_energy": 1.55, 
			 "cosmo_total_nonelectrostatic_energy": 7.75, 
			 "SMD_solvation_energy": 4.1 
		},
		"coords": [
			{
				"x": 1.055773171,
				"y": 0.8114069438,
				"z": -1.0744958437,
				"element": "C" 
			},
			{
				"x": 0.8587041192,
				"y": 0.8041358966,
				"z": 0.4239461693,
				"element": "C" 
			},
			{
				"x": -0.3476593272,
				"y": 0.4620276895,
				"z": 1.0674718539,
				"element": "C" 
			},
			{
				"x": -0.4813813015,
				"y": 0.4611634591,
				"z": 2.4550032271,
				"element": "C" 
			},
			{
				"x": 0.604367456,
				"y": 0.8026669869,
				"z": 3.2765144689,
				"element": "C" 
			},
			{
				"x": 0.490368262,
				"y": 0.7507110374,
				"z": 4.6634665515,
				"element": "N" 
			},
			{
				"x": 1.8163178012,
				"y": 1.142323148,
				"z": 2.6557070089,
				"element": "C" 
			},
			{
				"x": 1.9254625546,
				"y": 1.1389417594,
				"z": 1.2685966449,
				"element": "C" 
			},
			{
				"x": -1.8432697455,
				"y": 0.028636486,
				"z": 0.1448551937,
				"element": "S" 
			},
			{
				"x": -1.5238491609,
				"y": -1.4150068539,
				"z": -0.6575296264,
				"element": "N" 
			},
			{
				"x": -2.881179175,
				"y": -0.2915125626,
				"z": 1.1247328029,
				"element": "O" 
			},
			{
				"x": -2.0556162994,
				"y": 1.0263547442,
				"z": -0.9043615126,
				"element": "O" 
			},
			{
				"x": 1.9892395599,
				"y": 1.3193314678,
				"z": -1.3299191177,
				"element": "H" 
			},
			{
				"x": 1.1333776311,
				"y": -0.2074468315,
				"z": -1.4798362231,
				"element": "H" 
			},
			{
				"x": 0.2343601405,
				"y": 1.3125167224,
				"z": -1.5908490016,
				"element": "H" 
			},
			{
				"x": -1.4405579815,
				"y": 0.1977951764,
				"z": 2.8878833833,
				"element": "H" 
			},
			{
				"x": 1.1435837656,
				"y": 1.326437435,
				"z": 5.176073562,
				"element": "H" 
			},
			{
				"x": -0.4503137251,
				"y": 0.8259009155,
				"z": 5.0249098574,
				"element": "H" 
			},
			{
				"x": 2.6763513571,
				"y": 1.4111503788,
				"z": 3.2638470686,
				"element": "H" 
			},
			{
				"x": 2.8758861812,
				"y": 1.4141866207,
				"z": 0.8185062273,
				"element": "H" 
			},
			{
				"x": -0.8323293809,
				"y": -1.315601388,
				"z": -1.393305043,
				"element": "H" 
			},
			{
				"x": -1.3243359023,
				"y": -2.1801192314,
				"z": -0.0207176515,
				"element": "H" 
			}
		],
		 "valence_orbital": [ 
			{
				"type": "occ",
				"energy": -0.30447,
				"method": "rhf"
			},
			{
				"type": "occ",
				"energy": -0.2984,
				"method": "rhf"
			},
			{
				"type": "occ",
				"energy": -0.29476,
				"method": "rhf"
			},
			{
				"type": "occ",
				"energy": -0.26274,
				"method": "rhf"
			},
			{
				"type": "occ",
				"energy": -0.21484,
				"method": "rhf"
			},
			{
				"type": "unocc",
				"energy": -0.03048,
				"method": "rhf"
			},
			{
				"type": "unocc",
				"energy": -0.00243,
				"method": "rhf"
			},
			{
				"type": "unocc",
				"energy": 0.05378,
				"method": "rhf"
			},
			{
				"type": "unocc",
				"energy": 0.07022,
				"method": "rhf"
			},
			{
				"type": "unocc",
				"energy": 0.07708,
				"method": "rhf"
			}
		],
		"cosmo_sigma_profile": { 
			"-0.025": 0.0,
			"-0.024": 0.0,
			"-0.023": 0.0,
			"-0.022": 0.0,
			"-0.021": 0.0,
			"-0.02": 0.0,
			"-0.019": 0.0,
			"-0.018": 0.0,
			"-0.017": 0.0,
			"-0.016": 0.0698572659317,
			"-0.015": 1.22673432879,
			"-0.014": 2.26434946055,
			"-0.013": 3.32287981228,
			"-0.012": 6.18963829741,
			"-0.011": 6.05367726202,
			"-0.01": 5.36054210549,
			"-0.009": 5.86140506889,
			"-0.008": 4.03238514131,
			"-0.007": 5.55335337481,
			"-0.006": 8.87492293175,
			"-0.005": 9.18965315989,
			"-0.004": 9.9039223014,
			"-0.003": 8.3812901658,
			"-0.002": 9.9192369764,
			"-0.001": 12.2205928915,
			"0.0": 12.1368506764,
			"0.001": 9.26925391249,
			"0.002": 8.9434757885,
			"0.003": 10.4599776402,
			"0.004": 13.9066197791,
			"0.005": 8.79378797242,
			"0.006": 4.51122853558,
			"0.007": 4.60755399905,
			"0.008": 6.06147168946,
			"0.009": 5.39694659601,
			"0.01": 7.43865678651,
			"0.011": 10.2074140569,
			"0.012": 6.96264472183,
			"0.013": 1.10011556778,
			"0.014": 0.340142339513,
			"0.015": 0.0,
			"0.016": 0.0,
			"0.017": 0.0,
			"0.018": 0.0,
			"0.019": 0.0,
			"0.02": 0.0,
			"0.021": 0.0,
			"0.022": 0.0,
			"0.023": 0.0,
			"0.024": 0.0,
			"0.025": 0.0
		}
	}
}
