{
	 "smiles": "BrC1=CC(=CC=C1)C(=O)C1=CC=CC=C1", 
	 "Tm": 351.65, 
	 "num_atms": 24, 
	 "gaussian": { 
		 "optdone": 1, 
		 "sigma_profile": "yes", 
		 "theory": "DFT", 
		 "functional": "B3LYP", 
		 "basiset": "6-31G**", 
		 "properties": { 
			 "R2extent": 6003.2662, 
			 "electric_dipole_moment_norm": 1.67428210586, 
			 "electric_quadrupole_moment_norm": 15.877658715, 
			 "total_energy": -3147.4370965, 
			 "HOMO_LUMO_gap": 0.17579, 
			 "cosmo_polarized_energy": -8.47, 
			 "cosmo_cavitation_energy": 30.98, 
			 "cosmo_dispersion_energy": -22.7, 
			 "cosmo_repulsion_energy": 1.77, 
			 "cosmo_total_nonelectrostatic_energy": 10.05, 
			 "SMD_solvation_energy": 4.5 
		},
		"coords": [
			{
				"x": 2.2453908146,
				"y": -0.9205418535,
				"z": -4.0136186727,
				"element": "Br" 
			},
			{
				"x": 1.4180382389,
				"y": -1.8816524988,
				"z": -2.581555134,
				"element": "C" 
			},
			{
				"x": 0.7468403302,
				"y": -1.1744703731,
				"z": -1.5863840834,
				"element": "C" 
			},
			{
				"x": 0.1276930456,
				"y": -1.8770248803,
				"z": -0.5419216806,
				"element": "C" 
			},
			{
				"x": 0.1820493537,
				"y": -3.2791542905,
				"z": -0.5249672633,
				"element": "C" 
			},
			{
				"x": 0.8724098986,
				"y": -3.9672725915,
				"z": -1.5178282394,
				"element": "C" 
			},
			{
				"x": 1.4974756807,
				"y": -3.2725059596,
				"z": -2.5571887896,
				"element": "C" 
			},
			{
				"x": -0.679507468,
				"y": -1.1938248397,
				"z": 0.5283779985,
				"element": "C" 
			},
			{
				"x": -1.6131454402,
				"y": -1.794328831,
				"z": 1.0479925161,
				"element": "O" 
			},
			{
				"x": -0.3540177708,
				"y": 0.2044369189,
				"z": 0.9584221303,
				"element": "C" 
			},
			{
				"x": -1.3921647529,
				"y": 0.9744407819,
				"z": 1.5085696564,
				"element": "C" 
			},
			{
				"x": -1.1461603715,
				"y": 2.2642959214,
				"z": 1.9682922461,
				"element": "C" 
			},
			{
				"x": 0.1471717063,
				"y": 2.7932628846,
				"z": 1.9087671919,
				"element": "C" 
			},
			{
				"x": 1.1910877224,
				"y": 2.0265915469,
				"z": 1.3888368292,
				"element": "C" 
			},
			{
				"x": 0.9429472561,
				"y": 0.7396711685,
				"z": 0.909764196,
				"element": "C" 
			},
			{
				"x": 0.6876052418,
				"y": -0.0944549695,
				"z": -1.6390425926,
				"element": "H" 
			},
			{
				"x": -0.3276992841,
				"y": -3.806159751,
				"z": 0.2740090263,
				"element": "H" 
			},
			{
				"x": 0.9244538793,
				"y": -5.0516718495,
				"z": -1.4944072635,
				"element": "H" 
			},
			{
				"x": 2.0315580432,
				"y": -3.8017443021,
				"z": -3.3381698853,
				"element": "H" 
			},
			{
				"x": -2.3836698475,
				"y": 0.5378218738,
				"z": 1.5656120813,
				"element": "H" 
			},
			{
				"x": -1.9581066158,
				"y": 2.8574848645,
				"z": 2.3786932696,
				"element": "H" 
			},
			{
				"x": 0.3406715324,
				"y": 3.7982556068,
				"z": 2.2728705967,
				"element": "H" 
			},
			{
				"x": 2.1996642155,
				"y": 2.4280608986,
				"z": 1.3580419649,
				"element": "H" 
			},
			{
				"x": 1.7630145916,
				"y": 0.1435845241,
				"z": 0.5237339012,
				"element": "H" 
			}
		],
		 "valence_orbital": [ 
			{
				"type": "occ",
				"energy": -0.27302,
				"method": "rhf"
			},
			{
				"type": "occ",
				"energy": -0.26588,
				"method": "rhf"
			},
			{
				"type": "occ",
				"energy": -0.26318,
				"method": "rhf"
			},
			{
				"type": "occ",
				"energy": -0.25472,
				"method": "rhf"
			},
			{
				"type": "occ",
				"energy": -0.24705,
				"method": "rhf"
			},
			{
				"type": "unocc",
				"energy": -0.07126,
				"method": "rhf"
			},
			{
				"type": "unocc",
				"energy": -0.0252,
				"method": "rhf"
			},
			{
				"type": "unocc",
				"energy": -0.01987,
				"method": "rhf"
			},
			{
				"type": "unocc",
				"energy": -0.01142,
				"method": "rhf"
			},
			{
				"type": "unocc",
				"energy": 0.00151,
				"method": "rhf"
			}
		],
		"cosmo_sigma_profile": { 
			"-0.025": 0.0,
			"-0.024": 0.0,
			"-0.023": 0.0,
			"-0.022": 0.0,
			"-0.021": 0.0,
			"-0.02": 0.0,
			"-0.019": 0.0,
			"-0.018": 0.0,
			"-0.017": 0.0,
			"-0.016": 0.0,
			"-0.015": 0.0,
			"-0.014": 0.0,
			"-0.013": 0.0,
			"-0.012": 0.0,
			"-0.011": 0.0,
			"-0.01": 0.0,
			"-0.009": 0.0,
			"-0.008": 0.813051010634,
			"-0.007": 6.31097326561,
			"-0.006": 16.2093229334,
			"-0.005": 19.240078472,
			"-0.004": 21.1204791995,
			"-0.003": 17.5816919725,
			"-0.002": 17.0583308758,
			"-0.001": 16.7444105257,
			"0.0": 17.6666948138,
			"0.001": 23.0907059606,
			"0.002": 27.0510634462,
			"0.003": 23.4292062291,
			"0.004": 23.9814301288,
			"0.005": 6.33569267705,
			"0.006": 1.97409678457,
			"0.007": 1.78778396309,
			"0.008": 1.58488180238,
			"0.009": 1.87533774466,
			"0.01": 2.18326568715,
			"0.011": 3.31441051988,
			"0.012": 3.38006236737,
			"0.013": 0.245687902243,
			"0.014": 0.0,
			"0.015": 0.0,
			"0.016": 0.0,
			"0.017": 0.0,
			"0.018": 0.0,
			"0.019": 0.0,
			"0.02": 0.0,
			"0.021": 0.0,
			"0.022": 0.0,
			"0.023": 0.0,
			"0.024": 0.0,
			"0.025": 0.0
		}
	}
}
