{
	 "smiles": "OC(=O)C1=NN(C=C1O)C1=C(I)C=CC=C1", 
	 "Tm": 472.15, 
	 "num_atms": 23, 
	 "gaussian": { 
		 "optdone": 1, 
		 "sigma_profile": "yes", 
		 "theory": "DFT", 
		 "functional": "B3LYP", 
		 "basiset": "6-31G**", 
		 "properties": { 
			 "R2extent": 4333.5527, 
			 "electric_dipole_moment_norm": 8.79004325814, 
			 "electric_quadrupole_moment_norm": 19.9599193718, 
			 "total_energy": -731.808451554, 
			 "HOMO_LUMO_gap": 0.18351, 
			 "cosmo_polarized_energy": -23.14, 
			 "cosmo_cavitation_energy": 32.08, 
			 "cosmo_dispersion_energy": -23.81, 
			 "cosmo_repulsion_energy": 1.84, 
			 "cosmo_total_nonelectrostatic_energy": 10.11, 
			 "SMD_solvation_energy": 6.37 
		},
		"coords": [
			{
				"x": -1.9972620355,
				"y": 3.2682093135,
				"z": 1.0657914286,
				"element": "O" 
			},
			{
				"x": -1.9005024349,
				"y": 2.2030954812,
				"z": 1.8965786736,
				"element": "C" 
			},
			{
				"x": -2.2025515127,
				"y": 2.2712814518,
				"z": 3.0641671848,
				"element": "O" 
			},
			{
				"x": -1.3971399219,
				"y": 0.9713002365,
				"z": 1.2383799857,
				"element": "C" 
			},
			{
				"x": -1.1138766949,
				"y": 0.9958767241,
				"z": -0.0698522946,
				"element": "N" 
			},
			{
				"x": -0.6805825018,
				"y": -0.2342059833,
				"z": -0.3732162757,
				"element": "N" 
			},
			{
				"x": -0.6912320897,
				"y": -1.0715021615,
				"z": 0.7185158412,
				"element": "C" 
			},
			{
				"x": -1.1459397222,
				"y": -0.3159948741,
				"z": 1.7843320623,
				"element": "C" 
			},
			{
				"x": -1.3296312118,
				"y": -0.6596137161,
				"z": 3.0788021832,
				"element": "O" 
			},
			{
				"x": -0.345580501,
				"y": -0.5916437175,
				"z": -1.7113985096,
				"element": "C" 
			},
			{
				"x": 0.738632724,
				"y": -0.0154074337,
				"z": -2.3917312908,
				"element": "C" 
			},
			{
				"x": 2.0312024408,
				"y": 1.3804134703,
				"z": -1.4700245431,
				"element": "I" 
			},
			{
				"x": 1.0092307713,
				"y": -0.4011270187,
				"z": -3.7078200858,
				"element": "C" 
			},
			{
				"x": 0.222225918,
				"y": -1.3679662536,
				"z": -4.3344016991,
				"element": "C" 
			},
			{
				"x": -0.843750321,
				"y": -1.9557284149,
				"z": -3.6534698336,
				"element": "C" 
			},
			{
				"x": -1.1281481408,
				"y": -1.5611947523,
				"z": -2.3487803183,
				"element": "C" 
			},
			{
				"x": -1.7056669635,
				"y": 2.9920768818,
				"z": 0.1787444797,
				"element": "H" 
			},
			{
				"x": -0.3577084295,
				"y": -2.0957941911,
				"z": 0.6485658074,
				"element": "H" 
			},
			{
				"x": -1.0658760519,
				"y": -1.5795904354,
				"z": 3.2078646211,
				"element": "H" 
			},
			{
				"x": 1.8439966994,
				"y": 0.0451218725,
				"z": -4.236038492,
				"element": "H" 
			},
			{
				"x": 0.4497398067,
				"y": -1.6601475969,
				"z": -5.3549624299,
				"element": "H" 
			},
			{
				"x": -1.459844823,
				"y": -2.7067411883,
				"z": -4.1373576747,
				"element": "H" 
			},
			{
				"x": -1.9703350043,
				"y": -1.9831176946,
				"z": -1.8095888204,
				"element": "H" 
			}
		],
		 "valence_orbital": [ 
			{
				"type": "occ",
				"energy": -0.27867,
				"method": "rhf"
			},
			{
				"type": "occ",
				"energy": -0.27051,
				"method": "rhf"
			},
			{
				"type": "occ",
				"energy": -0.25916,
				"method": "rhf"
			},
			{
				"type": "occ",
				"energy": -0.25662,
				"method": "rhf"
			},
			{
				"type": "occ",
				"energy": -0.23557,
				"method": "rhf"
			},
			{
				"type": "unocc",
				"energy": -0.05206,
				"method": "rhf"
			},
			{
				"type": "unocc",
				"energy": -0.04883,
				"method": "rhf"
			},
			{
				"type": "unocc",
				"energy": -0.03932,
				"method": "rhf"
			},
			{
				"type": "unocc",
				"energy": -0.02424,
				"method": "rhf"
			},
			{
				"type": "unocc",
				"energy": 0.02377,
				"method": "rhf"
			}
		],
		"cosmo_sigma_profile": { 
			"-0.025": 0.0,
			"-0.024": 0.0,
			"-0.023": 0.0,
			"-0.022": 0.0,
			"-0.021": 0.0,
			"-0.02": 0.052972336821,
			"-0.019": 0.845578587536,
			"-0.018": 1.2494966221,
			"-0.017": 1.27780945283,
			"-0.016": 0.985114769596,
			"-0.015": 0.829571996507,
			"-0.014": 1.47567389424,
			"-0.013": 1.60476509656,
			"-0.012": 1.4367488177,
			"-0.011": 1.98177991361,
			"-0.01": 3.50247585957,
			"-0.009": 2.63161379819,
			"-0.008": 5.00319456871,
			"-0.007": 11.8944974571,
			"-0.006": 15.8452703003,
			"-0.005": 13.1837913616,
			"-0.004": 11.820990592,
			"-0.003": 11.133095329,
			"-0.002": 13.1159011667,
			"-0.001": 15.4897264168,
			"0.0": 14.8547508803,
			"0.001": 22.3369590991,
			"0.002": 26.8947264725,
			"0.003": 20.8113371185,
			"0.004": 15.995439318,
			"0.005": 5.3332386439,
			"0.006": 4.13254956567,
			"0.007": 4.41903395123,
			"0.008": 4.53452524775,
			"0.009": 4.52774552082,
			"0.01": 5.46551729644,
			"0.011": 6.21028086619,
			"0.012": 6.6942467934,
			"0.013": 3.76596170364,
			"0.014": 1.53588496384,
			"0.015": 0.0321775071781,
			"0.016": 0.0,
			"0.017": 0.0,
			"0.018": 0.0,
			"0.019": 0.0,
			"0.02": 0.0,
			"0.021": 0.0,
			"0.022": 0.0,
			"0.023": 0.0,
			"0.024": 0.0,
			"0.025": 0.0
		}
	}
}
