{
	 "smiles": "CC1=C(C=CC=C1N=C=O)N=C=O", 
	 "Tm": 291.45, 
	 "num_atms": 19, 
	 "gaussian": { 
		 "optdone": 1, 
		 "sigma_profile": "yes", 
		 "theory": "DFT", 
		 "functional": "B3LYP", 
		 "basiset": "6-31G**", 
		 "properties": { 
			 "R2extent": 3912.5272, 
			 "electric_dipole_moment_norm": 1.27456895067, 
			 "electric_quadrupole_moment_norm": 18.2734296272, 
			 "total_energy": -606.530066478, 
			 "HOMO_LUMO_gap": 0.20102, 
			 "cosmo_polarized_energy": -6.16, 
			 "cosmo_cavitation_energy": 26.12, 
			 "cosmo_dispersion_energy": -18.24, 
			 "cosmo_repulsion_energy": 1.46, 
			 "cosmo_total_nonelectrostatic_energy": 9.33, 
			 "SMD_solvation_energy": 9.59 
		},
		"coords": [
			{
				"x": 1.5490038041,
				"y": 0.39772404,
				"z": -2.8629214554,
				"element": "C" 
			},
			{
				"x": 1.4131346931,
				"y": 0.6075664263,
				"z": -1.3782246809,
				"element": "C" 
			},
			{
				"x": 0.9858938655,
				"y": -0.4444704733,
				"z": -0.5459795735,
				"element": "C" 
			},
			{
				"x": 0.8501194764,
				"y": -0.2808590326,
				"z": 0.8385246785,
				"element": "C" 
			},
			{
				"x": 1.1430273158,
				"y": 0.9516131656,
				"z": 1.4155154855,
				"element": "C" 
			},
			{
				"x": 1.5674665568,
				"y": 2.0130510012,
				"z": 0.6234792816,
				"element": "C" 
			},
			{
				"x": 1.7007421881,
				"y": 1.8396701885,
				"z": -0.7625117174,
				"element": "C" 
			},
			{
				"x": 2.1269059036,
				"y": 2.8983260617,
				"z": -1.5735661417,
				"element": "N" 
			},
			{
				"x": 2.4636161562,
				"y": 4.0563700561,
				"z": -1.4831516458,
				"element": "C" 
			},
			{
				"x": 2.8085987426,
				"y": 5.182130981,
				"z": -1.5324648089,
				"element": "O" 
			},
			{
				"x": 0.7000196443,
				"y": -1.6689986264,
				"z": -1.1595753515,
				"element": "N" 
			},
			{
				"x": 0.3286404884,
				"y": -2.7857528417,
				"z": -0.8808067112,
				"element": "C" 
			},
			{
				"x": -0.0240855707,
				"y": -3.9017900557,
				"z": -0.7451556758,
				"element": "O" 
			},
			{
				"x": 2.2632300154,
				"y": -0.4037789675,
				"z": -3.0793702581,
				"element": "H" 
			},
			{
				"x": 0.592820476,
				"y": 0.0953761269,
				"z": -3.3030839056,
				"element": "H" 
			},
			{
				"x": 1.8872700442,
				"y": 1.3087714987,
				"z": -3.3568268359,
				"element": "H" 
			},
			{
				"x": 0.5181909198,
				"y": -1.1156857748,
				"z": 1.4475355761,
				"element": "H" 
			},
			{
				"x": 1.0398319794,
				"y": 1.0849125745,
				"z": 2.4878104122,
				"element": "H" 
			},
			{
				"x": 1.7976733009,
				"y": 2.9771236513,
				"z": 1.0656733277,
				"element": "H" 
			}
		],
		 "valence_orbital": [ 
			{
				"type": "occ",
				"energy": -0.31604,
				"method": "rhf"
			},
			{
				"type": "occ",
				"energy": -0.31396,
				"method": "rhf"
			},
			{
				"type": "occ",
				"energy": -0.31276,
				"method": "rhf"
			},
			{
				"type": "occ",
				"energy": -0.24728,
				"method": "rhf"
			},
			{
				"type": "occ",
				"energy": -0.23984,
				"method": "rhf"
			},
			{
				"type": "unocc",
				"energy": -0.03882,
				"method": "rhf"
			},
			{
				"type": "unocc",
				"energy": -0.02251,
				"method": "rhf"
			},
			{
				"type": "unocc",
				"energy": 0.0029,
				"method": "rhf"
			},
			{
				"type": "unocc",
				"energy": 0.01077,
				"method": "rhf"
			},
			{
				"type": "unocc",
				"energy": 0.04893,
				"method": "rhf"
			}
		],
		"cosmo_sigma_profile": { 
			"-0.025": 0.0,
			"-0.024": 0.0,
			"-0.023": 0.0,
			"-0.022": 0.0,
			"-0.021": 0.0,
			"-0.02": 0.0,
			"-0.019": 0.0,
			"-0.018": 0.0,
			"-0.017": 0.0,
			"-0.016": 0.0,
			"-0.015": 0.0,
			"-0.014": 0.0,
			"-0.013": 0.0,
			"-0.012": 0.0,
			"-0.011": 0.0,
			"-0.01": 0.0,
			"-0.009": 0.159518313898,
			"-0.008": 4.01139054444,
			"-0.007": 6.71193162543,
			"-0.006": 7.52594887551,
			"-0.005": 10.4462584547,
			"-0.004": 13.0864585441,
			"-0.003": 16.9429205306,
			"-0.002": 19.3052879445,
			"-0.001": 18.5993172092,
			"0.0": 22.5554215271,
			"0.001": 19.4966091455,
			"0.002": 19.7673786213,
			"0.003": 14.4203214532,
			"0.004": 9.91996008373,
			"0.005": 4.38594868482,
			"0.006": 5.3560020588,
			"0.007": 13.6326582875,
			"0.008": 5.79474616473,
			"0.009": 0.0,
			"0.01": 0.0,
			"0.011": 0.0,
			"0.012": 0.0,
			"0.013": 0.0,
			"0.014": 0.0,
			"0.015": 0.0,
			"0.016": 0.0,
			"0.017": 0.0,
			"0.018": 0.0,
			"0.019": 0.0,
			"0.02": 0.0,
			"0.021": 0.0,
			"0.022": 0.0,
			"0.023": 0.0,
			"0.024": 0.0,
			"0.025": 0.0
		}
	}
}
