{
	 "smiles": "CC1=CC(C)=C(N1)C(O)=O", 
	 "Tm": 383.15, 
	 "num_atms": 19, 
	 "gaussian": { 
		 "optdone": 1, 
		 "sigma_profile": "yes", 
		 "theory": "DFT", 
		 "functional": "B3LYP", 
		 "basiset": "6-31G**", 
		 "properties": { 
			 "R2extent": 1644.7187, 
			 "electric_dipole_moment_norm": 1.62137686551, 
			 "electric_quadrupole_moment_norm": 8.85676605709, 
			 "total_energy": -477.398053698, 
			 "HOMO_LUMO_gap": 0.19009, 
			 "cosmo_polarized_energy": -10.32, 
			 "cosmo_cavitation_energy": 23.09, 
			 "cosmo_dispersion_energy": -16.96, 
			 "cosmo_repulsion_energy": 1.4, 
			 "cosmo_total_nonelectrostatic_energy": 7.54, 
			 "SMD_solvation_energy": 5.26 
		},
		"coords": [
			{
				"x": 3.1157205419,
				"y": -0.5789739232,
				"z": -1.5796070353,
				"element": "C" 
			},
			{
				"x": 2.0133424548,
				"y": -0.5600768414,
				"z": -0.5697239566,
				"element": "C" 
			},
			{
				"x": 1.8765235872,
				"y": -1.2479745416,
				"z": 0.6326074624,
				"element": "C" 
			},
			{
				"x": 0.6439372148,
				"y": -0.8852824334,
				"z": 1.2288319425,
				"element": "C" 
			},
			{
				"x": 0.101909971,
				"y": -1.3935146643,
				"z": 2.5327639389,
				"element": "C" 
			},
			{
				"x": 0.048742309,
				"y": 0.0319019504,
				"z": 0.3592645864,
				"element": "C" 
			},
			{
				"x": 0.8992735162,
				"y": 0.207576671,
				"z": -0.7171035719,
				"element": "N" 
			},
			{
				"x": -1.1911789304,
				"y": 0.7795918699,
				"z": 0.362065589,
				"element": "C" 
			},
			{
				"x": -1.9671480488,
				"y": 0.547045969,
				"z": 1.4537685144,
				"element": "O" 
			},
			{
				"x": -1.5298931349,
				"y": 1.5513427925,
				"z": -0.5253643487,
				"element": "O" 
			},
			{
				"x": 3.9052015385,
				"y": -1.2619151129,
				"z": -1.2582994166,
				"element": "H" 
			},
			{
				"x": 2.7633055788,
				"y": -0.9143033812,
				"z": -2.562618012,
				"element": "H" 
			},
			{
				"x": 3.5651313179,
				"y": 0.412692934,
				"z": -1.7121926323,
				"element": "H" 
			},
			{
				"x": 2.5988011413,
				"y": -1.9443198876,
				"z": 1.0381216295,
				"element": "H" 
			},
			{
				"x": -0.8621202773,
				"y": -1.8953329301,
				"z": 2.4004998267,
				"element": "H" 
			},
			{
				"x": -0.0659901029,
				"y": -0.5787703543,
				"z": 3.2445686293,
				"element": "H" 
			},
			{
				"x": 0.79848275,
				"y": -2.104653485,
				"z": 2.9849853526,
				"element": "H" 
			},
			{
				"x": 0.6731474933,
				"y": 0.8319102466,
				"z": -1.4780395531,
				"element": "H" 
			},
			{
				"x": -2.7549889204,
				"y": 1.1011551217,
				"z": 1.3301710546,
				"element": "H" 
			}
		],
		 "valence_orbital": [ 
			{
				"type": "occ",
				"energy": -0.34916,
				"method": "rhf"
			},
			{
				"type": "occ",
				"energy": -0.30669,
				"method": "rhf"
			},
			{
				"type": "occ",
				"energy": -0.26909,
				"method": "rhf"
			},
			{
				"type": "occ",
				"energy": -0.24098,
				"method": "rhf"
			},
			{
				"type": "occ",
				"energy": -0.21122,
				"method": "rhf"
			},
			{
				"type": "unocc",
				"energy": -0.02113,
				"method": "rhf"
			},
			{
				"type": "unocc",
				"energy": 0.06412,
				"method": "rhf"
			},
			{
				"type": "unocc",
				"energy": 0.08544,
				"method": "rhf"
			},
			{
				"type": "unocc",
				"energy": 0.09089,
				"method": "rhf"
			},
			{
				"type": "unocc",
				"energy": 0.11877,
				"method": "rhf"
			}
		],
		"cosmo_sigma_profile": { 
			"-0.025": 0.0,
			"-0.024": 0.0,
			"-0.023": 0.0,
			"-0.022": 0.0,
			"-0.021": 0.0,
			"-0.02": 0.0,
			"-0.019": 0.0,
			"-0.018": 0.317993233114,
			"-0.017": 0.689768386861,
			"-0.016": 0.997280642187,
			"-0.015": 1.22130969121,
			"-0.014": 1.14553431032,
			"-0.013": 1.04961657733,
			"-0.012": 1.63583194224,
			"-0.011": 2.47645950702,
			"-0.01": 1.29392980356,
			"-0.009": 1.0021406939,
			"-0.008": 1.37439111345,
			"-0.007": 1.88690555804,
			"-0.006": 2.81571299468,
			"-0.005": 9.26163016507,
			"-0.004": 13.4035797835,
			"-0.003": 15.2421614192,
			"-0.002": 14.4010471491,
			"-0.001": 16.2436457993,
			"0.0": 18.1102699209,
			"0.001": 13.1984870077,
			"0.002": 10.9283723647,
			"0.003": 8.24024738291,
			"0.004": 9.6505411305,
			"0.005": 7.98280746671,
			"0.006": 8.34472838819,
			"0.007": 5.01196527381,
			"0.008": 1.88957092215,
			"0.009": 1.95271048304,
			"0.01": 1.05289011383,
			"0.011": 1.6069910235,
			"0.012": 4.17674727088,
			"0.013": 3.48785219254,
			"0.014": 0.155490184607,
			"0.015": 0.0,
			"0.016": 0.0,
			"0.017": 0.0,
			"0.018": 0.0,
			"0.019": 0.0,
			"0.02": 0.0,
			"0.021": 0.0,
			"0.022": 0.0,
			"0.023": 0.0,
			"0.024": 0.0,
			"0.025": 0.0
		}
	}
}
