{
	 "smiles": "CN1C(=O)C(C2=NNC(=O)C2=N/NC2=CC=CC(Br)=C2)=C(O)C2=CC=CC=C12", 
	 "Tm": 513.15, 
	 "num_atms": 42, 
	 "gaussian": { 
		 "optdone": 1, 
		 "sigma_profile": "yes", 
		 "theory": "DFT", 
		 "functional": "B3LYP", 
		 "basiset": "6-31G**", 
		 "properties": { 
			 "R2extent": 16478.1835, 
			 "electric_dipole_moment_norm": 1.59014983885, 
			 "electric_quadrupole_moment_norm": 22.4133239942, 
			 "total_energy": -3803.28435429, 
			 "HOMO_LUMO_gap": 0.11848, 
			 "cosmo_polarized_energy": -18.92, 
			 "cosmo_cavitation_energy": 48.92, 
			 "cosmo_dispersion_energy": -35.42, 
			 "cosmo_repulsion_energy": 2.59, 
			 "cosmo_total_nonelectrostatic_energy": 16.09, 
			 "SMD_solvation_energy": 7.04 
		},
		"coords": [
			{
				"x": -1.478223689,
				"y": -0.6119631103,
				"z": 2.617800715,
				"element": "C" 
			},
			{
				"x": -1.6715512752,
				"y": -0.5153520316,
				"z": 1.1712754319,
				"element": "N" 
			},
			{
				"x": -0.5969091671,
				"y": -0.939751361,
				"z": 0.3571440417,
				"element": "C" 
			},
			{
				"x": 0.4141215388,
				"y": -1.4113658225,
				"z": 0.8745011024,
				"element": "O" 
			},
			{
				"x": -0.7783604729,
				"y": -0.8020559229,
				"z": -1.0893574142,
				"element": "C" 
			},
			{
				"x": 0.3366444046,
				"y": -1.0668858307,
				"z": -2.0002806475,
				"element": "C" 
			},
			{
				"x": 0.0744225301,
				"y": -1.3734186292,
				"z": -3.2609153269,
				"element": "N" 
			},
			{
				"x": 1.2713278439,
				"y": -1.463093787,
				"z": -3.9477594347,
				"element": "N" 
			},
			{
				"x": 2.3657838205,
				"y": -1.2428909293,
				"z": -3.1576815465,
				"element": "C" 
			},
			{
				"x": 3.5616245306,
				"y": -1.2655276881,
				"z": -3.4852356093,
				"element": "O" 
			},
			{
				"x": 1.780269923,
				"y": -0.9426901339,
				"z": -1.8377520981,
				"element": "C" 
			},
			{
				"x": 2.4551139945,
				"y": -0.5437370165,
				"z": -0.7850917894,
				"element": "N" 
			},
			{
				"x": 3.7551457492,
				"y": -0.459885989,
				"z": -0.8898868448,
				"element": "N" 
			},
			{
				"x": 4.5335947646,
				"y": -0.0745109671,
				"z": 0.2127731647,
				"element": "C" 
			},
			{
				"x": 5.9035901728,
				"y": 0.1402009646,
				"z": 0.0187215385,
				"element": "C" 
			},
			{
				"x": 6.6949363512,
				"y": 0.5201464555,
				"z": 1.1003886411,
				"element": "C" 
			},
			{
				"x": 6.1379433574,
				"y": 0.6906984635,
				"z": 2.368207893,
				"element": "C" 
			},
			{
				"x": 4.7694374158,
				"y": 0.4652457703,
				"z": 2.5329152851,
				"element": "C" 
			},
			{
				"x": 3.999458322,
				"y": 0.6843884817,
				"z": 4.2693199487,
				"element": "Br" 
			},
			{
				"x": 3.9507163233,
				"y": 0.0800735531,
				"z": 1.4791537493,
				"element": "C" 
			},
			{
				"x": -2.0225412135,
				"y": -0.4632844725,
				"z": -1.606375624,
				"element": "C" 
			},
			{
				"x": -2.2992510334,
				"y": -0.4556018773,
				"z": -2.9110701401,
				"element": "O" 
			},
			{
				"x": -3.1016775493,
				"y": -0.0623046686,
				"z": -0.7344460786,
				"element": "C" 
			},
			{
				"x": -4.3433078384,
				"y": 0.3515047014,
				"z": -1.2512975114,
				"element": "C" 
			},
			{
				"x": -5.3635239343,
				"y": 0.7568256185,
				"z": -0.4064749114,
				"element": "C" 
			},
			{
				"x": -5.149323976,
				"y": 0.7464854213,
				"z": 0.9788617902,
				"element": "C" 
			},
			{
				"x": -3.9354898133,
				"y": 0.3351793691,
				"z": 1.5134748402,
				"element": "C" 
			},
			{
				"x": -2.8874171214,
				"y": -0.0789865233,
				"z": 0.6658295972,
				"element": "C" 
			},
			{
				"x": -0.4800933285,
				"y": -1.0103339707,
				"z": 2.7821816574,
				"element": "H" 
			},
			{
				"x": -1.5631341253,
				"y": 0.374404012,
				"z": 3.0846996527,
				"element": "H" 
			},
			{
				"x": -2.2179768759,
				"y": -1.2847788206,
				"z": 3.0629395078,
				"element": "H" 
			},
			{
				"x": 1.2708723337,
				"y": -1.7474400961,
				"z": -4.9147032318,
				"element": "H" 
			},
			{
				"x": 4.1907101229,
				"y": -0.7030996928,
				"z": -1.7911286939,
				"element": "H" 
			},
			{
				"x": 6.3390315447,
				"y": 0.0151014778,
				"z": -0.9684054601,
				"element": "H" 
			},
			{
				"x": 7.7574263299,
				"y": 0.689054747,
				"z": 0.9549943665,
				"element": "H" 
			},
			{
				"x": 6.7496195855,
				"y": 0.9877788264,
				"z": 3.211569945,
				"element": "H" 
			},
			{
				"x": 2.8938041061,
				"y": -0.1161382143,
				"z": 1.611939206,
				"element": "H" 
			},
			{
				"x": -1.5054697439,
				"y": -0.8185867295,
				"z": -3.3925439626,
				"element": "H" 
			},
			{
				"x": -4.4761913858,
				"y": 0.3466279263,
				"z": -2.3268469662,
				"element": "H" 
			},
			{
				"x": -6.3175016088,
				"y": 1.0771815863,
				"z": -0.8124164098,
				"element": "H" 
			},
			{
				"x": -5.9413442483,
				"y": 1.0614635473,
				"z": 1.6522488164,
				"element": "H" 
			},
			{
				"x": -3.8014066648,
				"y": 0.3351233625,
				"z": 2.5872288102,
				"element": "H" 
			}
		],
		 "valence_orbital": [ 
			{
				"type": "occ",
				"energy": -0.25142,
				"method": "rhf"
			},
			{
				"type": "occ",
				"energy": -0.24804,
				"method": "rhf"
			},
			{
				"type": "occ",
				"energy": -0.22775,
				"method": "rhf"
			},
			{
				"type": "occ",
				"energy": -0.22118,
				"method": "rhf"
			},
			{
				"type": "occ",
				"energy": -0.2107,
				"method": "rhf"
			},
			{
				"type": "unocc",
				"energy": -0.09222,
				"method": "rhf"
			},
			{
				"type": "unocc",
				"energy": -0.05061,
				"method": "rhf"
			},
			{
				"type": "unocc",
				"energy": -0.0195,
				"method": "rhf"
			},
			{
				"type": "unocc",
				"energy": -0.00853,
				"method": "rhf"
			},
			{
				"type": "unocc",
				"energy": 0.00162,
				"method": "rhf"
			}
		],
		"cosmo_sigma_profile": { 
			"-0.025": 0.0,
			"-0.024": 0.0,
			"-0.023": 0.0,
			"-0.022": 0.0,
			"-0.021": 0.0,
			"-0.02": 0.0,
			"-0.019": 0.0,
			"-0.018": 0.0,
			"-0.017": 0.841724987082,
			"-0.016": 1.40382961928,
			"-0.015": 1.46623870333,
			"-0.014": 0.743367659923,
			"-0.013": 0.376856898842,
			"-0.012": 1.70979546667,
			"-0.011": 2.76842854823,
			"-0.01": 1.56627868509,
			"-0.009": 1.73892839374,
			"-0.008": 3.71107288021,
			"-0.007": 10.4328344944,
			"-0.006": 18.4391699618,
			"-0.005": 21.909197602,
			"-0.004": 23.4206132913,
			"-0.003": 25.9279876511,
			"-0.002": 29.4802818675,
			"-0.001": 31.7455078035,
			"0.0": 34.9988232943,
			"0.001": 37.2361554942,
			"0.002": 37.1366904835,
			"0.003": 30.7790142122,
			"0.004": 28.5634196522,
			"0.005": 13.4601043562,
			"0.006": 6.35071998972,
			"0.007": 6.10503325074,
			"0.008": 5.80477605461,
			"0.009": 3.05214510646,
			"0.01": 2.64706211801,
			"0.011": 3.98782072592,
			"0.012": 4.11230664277,
			"0.013": 4.06173229488,
			"0.014": 1.65805328402,
			"0.015": 0.0136246422868,
			"0.016": 0.0,
			"0.017": 0.0,
			"0.018": 0.0,
			"0.019": 0.0,
			"0.02": 0.0,
			"0.021": 0.0,
			"0.022": 0.0,
			"0.023": 0.0,
			"0.024": 0.0,
			"0.025": 0.0
		}
	}
}
