{
	 "smiles": "C(C(=N/NC1=CC=CC=C1)C1=CC2=CC=CC=C2C=C1)C1=CC=CC=C1", 
	 "Tm": 439.15, 
	 "num_atms": 46, 
	 "gaussian": { 
		 "optdone": 1, 
		 "sigma_profile": "yes", 
		 "theory": "DFT", 
		 "functional": "B3LYP", 
		 "basiset": "6-31G**", 
		 "properties": { 
			 "R2extent": 12301.7783, 
			 "electric_dipole_moment_norm": 2.15551154485, 
			 "electric_quadrupole_moment_norm": 13.3951406484, 
			 "total_energy": -1036.10177166, 
			 "HOMO_LUMO_gap": 0.13917, 
			 "cosmo_polarized_energy": -12.22, 
			 "cosmo_cavitation_energy": 49.71, 
			 "cosmo_dispersion_energy": -34.28, 
			 "cosmo_repulsion_energy": 2.56, 
			 "cosmo_total_nonelectrostatic_energy": 17.99, 
			 "SMD_solvation_energy": 7.08 
		},
		"coords": [
			{
				"x": -2.0841223982,
				"y": 0.6422443416,
				"z": 0.4976701046,
				"element": "C" 
			},
			{
				"x": -0.6256439769,
				"y": 0.219224173,
				"z": 0.432898247,
				"element": "C" 
			},
			{
				"x": 0.1385006037,
				"y": 0.517005963,
				"z": -0.5734017015,
				"element": "N" 
			},
			{
				"x": -0.3815521105,
				"y": 1.1803494453,
				"z": -1.6231824584,
				"element": "N" 
			},
			{
				"x": 0.401143007,
				"y": 1.4667336323,
				"z": -2.7472371751,
				"element": "C" 
			},
			{
				"x": -0.2328616102,
				"y": 1.9805523136,
				"z": -3.8900594467,
				"element": "C" 
			},
			{
				"x": 0.5153486195,
				"y": 2.3032324744,
				"z": -5.0193196423,
				"element": "C" 
			},
			{
				"x": 1.8998225746,
				"y": 2.1199546938,
				"z": -5.0299390544,
				"element": "C" 
			},
			{
				"x": 2.5253932533,
				"y": 1.6078357114,
				"z": -3.890466958,
				"element": "C" 
			},
			{
				"x": 1.7920084225,
				"y": 1.2820561561,
				"z": -2.7517074953,
				"element": "C" 
			},
			{
				"x": 0.0007811324,
				"y": -0.5213576608,
				"z": 1.5496411787,
				"element": "C" 
			},
			{
				"x": -0.752596986,
				"y": -1.1572098415,
				"z": 2.5256285634,
				"element": "C" 
			},
			{
				"x": -0.1493730118,
				"y": -1.8787646406,
				"z": 3.5899851241,
				"element": "C" 
			},
			{
				"x": -0.9191130727,
				"y": -2.533547131,
				"z": 4.5891536751,
				"element": "C" 
			},
			{
				"x": -0.3070186632,
				"y": -3.2247458988,
				"z": 5.6118562783,
				"element": "C" 
			},
			{
				"x": 1.1052051172,
				"y": -3.2933889353,
				"z": 5.6830933704,
				"element": "C" 
			},
			{
				"x": 1.8789505952,
				"y": -2.6696637103,
				"z": 4.7275088082,
				"element": "C" 
			},
			{
				"x": 1.2781130407,
				"y": -1.9525247036,
				"z": 3.6618781978,
				"element": "C" 
			},
			{
				"x": 2.0363877824,
				"y": -1.2973658973,
				"z": 2.6504529158,
				"element": "C" 
			},
			{
				"x": 1.4262937577,
				"y": -0.6123197047,
				"z": 1.6325955445,
				"element": "C" 
			},
			{
				"x": -3.034466348,
				"y": -0.0966631283,
				"z": -0.4392252419,
				"element": "C" 
			},
			{
				"x": -2.9142253791,
				"y": -1.4765716236,
				"z": -0.6582402575,
				"element": "C" 
			},
			{
				"x": -3.8134648075,
				"y": -2.1456514764,
				"z": -1.4888961662,
				"element": "C" 
			},
			{
				"x": -4.8462462645,
				"y": -1.447164172,
				"z": -2.1181766184,
				"element": "C" 
			},
			{
				"x": -4.9732963734,
				"y": -0.0730419688,
				"z": -1.9115939019,
				"element": "C" 
			},
			{
				"x": -4.0728711088,
				"y": 0.595147606,
				"z": -1.0793038239,
				"element": "C" 
			},
			{
				"x": -2.4420505785,
				"y": 0.551796137,
				"z": 1.5271276771,
				"element": "H" 
			},
			{
				"x": -2.1295250746,
				"y": 1.7166061102,
				"z": 0.2694278199,
				"element": "H" 
			},
			{
				"x": -1.3880322911,
				"y": 1.1937687227,
				"z": -1.7545471937,
				"element": "H" 
			},
			{
				"x": -1.3110225382,
				"y": 2.1242099303,
				"z": -3.8894894418,
				"element": "H" 
			},
			{
				"x": 0.0099628055,
				"y": 2.6981928364,
				"z": -5.8962160945,
				"element": "H" 
			},
			{
				"x": 2.4812566901,
				"y": 2.3718441082,
				"z": -5.9113223516,
				"element": "H" 
			},
			{
				"x": 3.6017371937,
				"y": 1.4585256447,
				"z": -3.8845265197,
				"element": "H" 
			},
			{
				"x": 2.2744044315,
				"y": 0.883178621,
				"z": -1.8683203911,
				"element": "H" 
			},
			{
				"x": -1.8378440671,
				"y": -1.137747148,
				"z": 2.4885903676,
				"element": "H" 
			},
			{
				"x": -2.0036629126,
				"y": -2.4795000869,
				"z": 4.5341280763,
				"element": "H" 
			},
			{
				"x": -0.9077486422,
				"y": -3.7201612356,
				"z": 6.3692536968,
				"element": "H" 
			},
			{
				"x": 1.5767037493,
				"y": -3.8406302812,
				"z": 6.4942604549,
				"element": "H" 
			},
			{
				"x": 2.9637601741,
				"y": -2.7206386848,
				"z": 4.778060105,
				"element": "H" 
			},
			{
				"x": 3.1215891237,
				"y": -1.3458834342,
				"z": 2.6983481304,
				"element": "H" 
			},
			{
				"x": 2.0154065611,
				"y": -0.1174454566,
				"z": 0.8699295554,
				"element": "H" 
			},
			{
				"x": -2.1086111558,
				"y": -2.0264578195,
				"z": -0.1800068966,
				"element": "H" 
			},
			{
				"x": -3.7042255773,
				"y": -3.2147220291,
				"z": -1.6478398811,
				"element": "H" 
			},
			{
				"x": -5.543226356,
				"y": -1.9692769888,
				"z": -2.7671367732,
				"element": "H" 
			},
			{
				"x": -5.7709291882,
				"y": 0.4810972915,
				"z": -2.3983793487,
				"element": "H" 
			},
			{
				"x": -4.1809381429,
				"y": 1.6657877455,
				"z": -0.9183530575,
				"element": "H" 
			}
		],
		 "valence_orbital": [ 
			{
				"type": "occ",
				"energy": -0.24755,
				"method": "rhf"
			},
			{
				"type": "occ",
				"energy": -0.24428,
				"method": "rhf"
			},
			{
				"type": "occ",
				"energy": -0.23842,
				"method": "rhf"
			},
			{
				"type": "occ",
				"energy": -0.21658,
				"method": "rhf"
			},
			{
				"type": "occ",
				"energy": -0.18518,
				"method": "rhf"
			},
			{
				"type": "unocc",
				"energy": -0.04601,
				"method": "rhf"
			},
			{
				"type": "unocc",
				"energy": -0.02432,
				"method": "rhf"
			},
			{
				"type": "unocc",
				"energy": -0.01107,
				"method": "rhf"
			},
			{
				"type": "unocc",
				"energy": -0.00995,
				"method": "rhf"
			},
			{
				"type": "unocc",
				"energy": 0.00581,
				"method": "rhf"
			}
		],
		"cosmo_sigma_profile": { 
			"-0.025": 0.0,
			"-0.024": 0.0,
			"-0.023": 0.0,
			"-0.022": 0.0,
			"-0.021": 0.0,
			"-0.02": 0.0,
			"-0.019": 0.0,
			"-0.018": 0.0,
			"-0.017": 0.0,
			"-0.016": 0.0,
			"-0.015": 0.0,
			"-0.014": 0.0,
			"-0.013": 0.0,
			"-0.012": 0.0,
			"-0.011": 0.0110100499915,
			"-0.01": 1.07619022676,
			"-0.009": 2.08295499344,
			"-0.008": 1.67084292522,
			"-0.007": 3.93652395653,
			"-0.006": 20.2468914662,
			"-0.005": 33.0349651547,
			"-0.004": 36.4110874021,
			"-0.003": 37.6410634131,
			"-0.002": 29.2928288596,
			"-0.001": 24.0149288761,
			"0.0": 22.1970555323,
			"0.001": 23.050153867,
			"0.002": 25.1247415899,
			"0.003": 30.7992576372,
			"0.004": 44.8061075903,
			"0.005": 37.9132089394,
			"0.006": 19.0484560999,
			"0.007": 4.94869512061,
			"0.008": 0.790719004571,
			"0.009": 0.467339524393,
			"0.01": 0.0349334468852,
			"0.011": 0.0,
			"0.012": 0.0,
			"0.013": 0.0,
			"0.014": 0.0,
			"0.015": 0.0,
			"0.016": 0.0,
			"0.017": 0.0,
			"0.018": 0.0,
			"0.019": 0.0,
			"0.02": 0.0,
			"0.021": 0.0,
			"0.022": 0.0,
			"0.023": 0.0,
			"0.024": 0.0,
			"0.025": 0.0
		}
	}
}
