{
	 "smiles": "CC1=C2C(=NO1)C(=O)NN=C2C1=CC=CC=C1", 
	 "Tm": 509.15, 
	 "num_atms": 26, 
	 "gaussian": { 
		 "optdone": 1, 
		 "sigma_profile": "yes", 
		 "theory": "DFT", 
		 "functional": "B3LYP", 
		 "basiset": "6-31G**", 
		 "properties": { 
			 "R2extent": 4671.6689, 
			 "electric_dipole_moment_norm": 6.2405591296, 
			 "electric_quadrupole_moment_norm": 18.4684622235, 
			 "total_energy": -777.337955709, 
			 "HOMO_LUMO_gap": 0.16138, 
			 "cosmo_polarized_energy": -16.7, 
			 "cosmo_cavitation_energy": 30.83, 
			 "cosmo_dispersion_energy": -22.5, 
			 "cosmo_repulsion_energy": 1.72, 
			 "cosmo_total_nonelectrostatic_energy": 10.05, 
			 "SMD_solvation_energy": 5.01 
		},
		"coords": [
			{
				"x": -1.2479004874,
				"y": -0.7885990693,
				"z": 0.7659037204,
				"element": "C" 
			},
			{
				"x": -0.6660250179,
				"y": 0.5792312409,
				"z": 0.6683806997,
				"element": "C" 
			},
			{
				"x": 0.4112579591,
				"y": 1.1627964688,
				"z": 0.0312844081,
				"element": "C" 
			},
			{
				"x": 0.3547045573,
				"y": 2.5211387106,
				"z": 0.4768100112,
				"element": "C" 
			},
			{
				"x": -0.6564261566,
				"y": 2.7617220826,
				"z": 1.2800297752,
				"element": "N" 
			},
			{
				"x": -1.2961193034,
				"y": 1.5287266803,
				"z": 1.3907611184,
				"element": "O" 
			},
			{
				"x": 1.3957017509,
				"y": 3.4906275264,
				"z": 0.0958609327,
				"element": "C" 
			},
			{
				"x": 1.4603049959,
				"y": 4.6727249869,
				"z": 0.385733256,
				"element": "O" 
			},
			{
				"x": 2.3806243195,
				"y": 2.8608535518,
				"z": -0.6649185453,
				"element": "N" 
			},
			{
				"x": 2.4464270667,
				"y": 1.587459936,
				"z": -1.142663049,
				"element": "N" 
			},
			{
				"x": 1.4994184531,
				"y": 0.7444493897,
				"z": -0.8338162434,
				"element": "C" 
			},
			{
				"x": 1.6198966767,
				"y": -0.6171261579,
				"z": -1.4144164829,
				"element": "C" 
			},
			{
				"x": 0.5122312445,
				"y": -1.2584262474,
				"z": -1.9905755452,
				"element": "C" 
			},
			{
				"x": 0.6464992783,
				"y": -2.5198863611,
				"z": -2.5712763887,
				"element": "C" 
			},
			{
				"x": 1.888550406,
				"y": -3.1566237157,
				"z": -2.5841677779,
				"element": "C" 
			},
			{
				"x": 2.99852359,
				"y": -2.5208030518,
				"z": -2.022246568,
				"element": "C" 
			},
			{
				"x": 2.8674067714,
				"y": -1.2598048717,
				"z": -1.4444043833,
				"element": "C" 
			},
			{
				"x": -0.4973178984,
				"y": -1.5454327369,
				"z": 0.5381717442,
				"element": "H" 
			},
			{
				"x": -1.6328829523,
				"y": -0.9507619342,
				"z": 1.7760288618,
				"element": "H" 
			},
			{
				"x": -2.0826333478,
				"y": -0.9157319327,
				"z": 0.0667823278,
				"element": "H" 
			},
			{
				"x": 3.1415054683,
				"y": 3.4547919543,
				"z": -0.9702668404,
				"element": "H" 
			},
			{
				"x": -0.4493404527,
				"y": -0.7545987967,
				"z": -2.0133088679,
				"element": "H" 
			},
			{
				"x": -0.2171435573,
				"y": -2.9994271917,
				"z": -3.0227949161,
				"element": "H" 
			},
			{
				"x": 1.9923286893,
				"y": -4.1399046881,
				"z": -3.0334587892,
				"element": "H" 
			},
			{
				"x": 3.9683132042,
				"y": -3.0097428042,
				"z": -2.0320819496,
				"element": "H" 
			},
			{
				"x": 3.7262947425,
				"y": -0.7586529689,
				"z": -1.0108505087,
				"element": "H" 
			}
		],
		 "valence_orbital": [ 
			{
				"type": "occ",
				"energy": -0.29208,
				"method": "rhf"
			},
			{
				"type": "occ",
				"energy": -0.27089,
				"method": "rhf"
			},
			{
				"type": "occ",
				"energy": -0.26695,
				"method": "rhf"
			},
			{
				"type": "occ",
				"energy": -0.26169,
				"method": "rhf"
			},
			{
				"type": "occ",
				"energy": -0.23096,
				"method": "rhf"
			},
			{
				"type": "unocc",
				"energy": -0.06958,
				"method": "rhf"
			},
			{
				"type": "unocc",
				"energy": -0.03954,
				"method": "rhf"
			},
			{
				"type": "unocc",
				"energy": -0.01742,
				"method": "rhf"
			},
			{
				"type": "unocc",
				"energy": -0.01242,
				"method": "rhf"
			},
			{
				"type": "unocc",
				"energy": 0.03559,
				"method": "rhf"
			}
		],
		"cosmo_sigma_profile": { 
			"-0.025": 0.0,
			"-0.024": 0.0,
			"-0.023": 0.0,
			"-0.022": 0.0,
			"-0.021": 0.0,
			"-0.02": 0.0,
			"-0.019": 0.0,
			"-0.018": 0.0,
			"-0.017": 0.0,
			"-0.016": 0.881830413244,
			"-0.015": 0.98990496494,
			"-0.014": 1.13458993633,
			"-0.013": 0.580218461357,
			"-0.012": 0.7136894173,
			"-0.011": 1.38130477737,
			"-0.01": 0.602724396624,
			"-0.009": 0.381937424636,
			"-0.008": 1.35706622552,
			"-0.007": 7.94483975885,
			"-0.006": 15.6275788501,
			"-0.005": 20.9399610078,
			"-0.004": 22.323001216,
			"-0.003": 25.85688726,
			"-0.002": 21.2873563141,
			"-0.001": 12.8967170442,
			"0.0": 12.7945167395,
			"0.001": 9.62084130994,
			"0.002": 12.4950709663,
			"0.003": 11.7951363768,
			"0.004": 13.287183163,
			"0.005": 11.4380854184,
			"0.006": 7.58119025278,
			"0.007": 4.37833385249,
			"0.008": 4.13947533429,
			"0.009": 4.6149380142,
			"0.01": 4.71406571625,
			"0.011": 5.11114513728,
			"0.012": 8.14500073714,
			"0.013": 2.98402567218,
			"0.014": 0.00258730715327,
			"0.015": 0.0,
			"0.016": 0.0,
			"0.017": 0.0,
			"0.018": 0.0,
			"0.019": 0.0,
			"0.02": 0.0,
			"0.021": 0.0,
			"0.022": 0.0,
			"0.023": 0.0,
			"0.024": 0.0,
			"0.025": 0.0
		}
	}
}
