{
	 "smiles": "CN1[C@H]2CC[C@@H]1[C@H]([C@H](C2)OC(=O)C1=CC=CC=C1)C(O)=O", 
	 "Tm": 468.15, 
	 "num_atms": 40, 
	 "gaussian": { 
		 "optdone": 1, 
		 "sigma_profile": "yes", 
		 "theory": "DFT", 
		 "functional": "B3LYP", 
		 "basiset": "6-31G**", 
		 "properties": { 
			 "R2extent": 6629.2483, 
			 "electric_dipole_moment_norm": 1.33568368636, 
			 "electric_quadrupole_moment_norm": 14.3694522951, 
			 "total_energy": -976.818158628, 
			 "HOMO_LUMO_gap": 0.17243, 
			 "cosmo_polarized_energy": -16.03, 
			 "cosmo_cavitation_energy": 41.4, 
			 "cosmo_dispersion_energy": -28.06, 
			 "cosmo_repulsion_energy": 2.14, 
			 "cosmo_total_nonelectrostatic_energy": 15.49, 
			 "SMD_solvation_energy": 6.87 
		},
		"coords": [
			{
				"x": 2.6905278765,
				"y": -1.9960510309,
				"z": -0.1268471224,
				"element": "C" 
			},
			{
				"x": 1.4970860489,
				"y": -1.5969675639,
				"z": -0.864119726,
				"element": "N" 
			},
			{
				"x": 1.6979074716,
				"y": -1.4596223797,
				"z": -2.3185636971,
				"element": "C" 
			},
			{
				"x": 1.6553749004,
				"y": -2.9179082517,
				"z": -2.8782504304,
				"element": "C" 
			},
			{
				"x": 0.8000661255,
				"y": -3.6854928424,
				"z": -1.8347623974,
				"element": "C" 
			},
			{
				"x": 0.4031146476,
				"y": -2.5815915425,
				"z": -0.8082213367,
				"element": "C" 
			},
			{
				"x": -0.9167991886,
				"y": -1.867360338,
				"z": -1.2128091752,
				"element": "C" 
			},
			{
				"x": -0.672647258,
				"y": -0.5220050666,
				"z": -1.9343248361,
				"element": "C" 
			},
			{
				"x": 0.5470801017,
				"y": -0.5750646389,
				"z": -2.8696732799,
				"element": "C" 
			},
			{
				"x": -0.4891103248,
				"y": 0.4776312668,
				"z": -0.8996046732,
				"element": "O" 
			},
			{
				"x": -0.8285290234,
				"y": 1.7490205934,
				"z": -1.2081743497,
				"element": "C" 
			},
			{
				"x": -1.2301799175,
				"y": 2.0936687492,
				"z": -2.3048340224,
				"element": "O" 
			},
			{
				"x": -0.64630799,
				"y": 2.670810813,
				"z": -0.0503992509,
				"element": "C" 
			},
			{
				"x": -0.1659700093,
				"y": 2.224615692,
				"z": 1.1892696293,
				"element": "C" 
			},
			{
				"x": -0.0164104153,
				"y": 3.1295606786,
				"z": 2.2391930172,
				"element": "C" 
			},
			{
				"x": -0.3431025979,
				"y": 4.4759331934,
				"z": 2.0579080641,
				"element": "C" 
			},
			{
				"x": -0.8211589749,
				"y": 4.9215557488,
				"z": 0.8223220535,
				"element": "C" 
			},
			{
				"x": -0.9722122589,
				"y": 4.021978002,
				"z": -0.2300330966,
				"element": "C" 
			},
			{
				"x": -1.8521681765,
				"y": -1.6692525832,
				"z": -0.0265323213,
				"element": "C" 
			},
			{
				"x": -3.0259888802,
				"y": -1.1175931546,
				"z": -0.4170745187,
				"element": "O" 
			},
			{
				"x": -1.630014122,
				"y": -1.9755843139,
				"z": 1.1235095732,
				"element": "O" 
			},
			{
				"x": 2.440388431,
				"y": -2.0943950617,
				"z": 0.9338918842,
				"element": "H" 
			},
			{
				"x": 3.4486439775,
				"y": -1.211936334,
				"z": -0.220066841,
				"element": "H" 
			},
			{
				"x": 3.1473639576,
				"y": -2.9466515673,
				"z": -0.4558445195,
				"element": "H" 
			},
			{
				"x": 2.6590174549,
				"y": -0.9774193355,
				"z": -2.5181764853,
				"element": "H" 
			},
			{
				"x": 1.2353611477,
				"y": -2.9592992218,
				"z": -3.8875498711,
				"element": "H" 
			},
			{
				"x": 2.6650630128,
				"y": -3.3349930494,
				"z": -2.9387645601,
				"element": "H" 
			},
			{
				"x": -0.0693544797,
				"y": -4.1840291794,
				"z": -2.273931025,
				"element": "H" 
			},
			{
				"x": 1.391491179,
				"y": -4.4620148862,
				"z": -1.3407262851,
				"element": "H" 
			},
			{
				"x": 0.2933546427,
				"y": -2.9638063401,
				"z": 0.2081651264,
				"element": "H" 
			},
			{
				"x": -1.4726914889,
				"y": -2.495821218,
				"z": -1.9208581005,
				"element": "H" 
			},
			{
				"x": -1.5588863171,
				"y": -0.231251062,
				"z": -2.5000009654,
				"element": "H" 
			},
			{
				"x": 0.8838940615,
				"y": 0.4525351254,
				"z": -3.0262335246,
				"element": "H" 
			},
			{
				"x": 0.2195820004,
				"y": -0.9421390176,
				"z": -3.8492478431,
				"element": "H" 
			},
			{
				"x": 0.085095113,
				"y": 1.1778715108,
				"z": 1.3177183761,
				"element": "H" 
			},
			{
				"x": 0.3551905395,
				"y": 2.7846625414,
				"z": 3.1996982602,
				"element": "H" 
			},
			{
				"x": -0.2251188377,
				"y": 5.1777385155,
				"z": 2.8789075057,
				"element": "H" 
			},
			{
				"x": -1.0746194917,
				"y": 5.9682687083,
				"z": 0.6817035323,
				"element": "H" 
			},
			{
				"x": -1.3407431858,
				"y": 4.3417255117,
				"z": -1.198977263,
				"element": "H" 
			},
			{
				"x": -3.5573897519,
				"y": -1.008826671,
				"z": 0.3893144956,
				"element": "H" 
			}
		],
		 "valence_orbital": [ 
			{
				"type": "occ",
				"energy": -0.27604,
				"method": "rhf"
			},
			{
				"type": "occ",
				"energy": -0.26753,
				"method": "rhf"
			},
			{
				"type": "occ",
				"energy": -0.25422,
				"method": "rhf"
			},
			{
				"type": "occ",
				"energy": -0.25322,
				"method": "rhf"
			},
			{
				"type": "occ",
				"energy": -0.21236,
				"method": "rhf"
			},
			{
				"type": "unocc",
				"energy": -0.03993,
				"method": "rhf"
			},
			{
				"type": "unocc",
				"energy": -0.00263,
				"method": "rhf"
			},
			{
				"type": "unocc",
				"energy": 0.00871,
				"method": "rhf"
			},
			{
				"type": "unocc",
				"energy": 0.06316,
				"method": "rhf"
			},
			{
				"type": "unocc",
				"energy": 0.06349,
				"method": "rhf"
			}
		],
		"cosmo_sigma_profile": { 
			"-0.025": 0.0,
			"-0.024": 0.0,
			"-0.023": 0.0,
			"-0.022": 0.0,
			"-0.021": 0.0,
			"-0.02": 0.0,
			"-0.019": 0.0,
			"-0.018": 0.606603823408,
			"-0.017": 1.10520558349,
			"-0.016": 0.955267595101,
			"-0.015": 0.408697016463,
			"-0.014": 1.21177545795,
			"-0.013": 0.529371496581,
			"-0.012": 0.557289655791,
			"-0.011": 0.747170965487,
			"-0.01": 0.842856542122,
			"-0.009": 0.596279445769,
			"-0.008": 0.483425325435,
			"-0.007": 4.37231870521,
			"-0.006": 14.0456459083,
			"-0.005": 16.8307015539,
			"-0.004": 26.7645617449,
			"-0.003": 31.990145862,
			"-0.002": 36.374321314,
			"-0.001": 30.8321814681,
			"0.0": 28.4670635542,
			"0.001": 24.5356682346,
			"0.002": 20.424757232,
			"0.003": 16.139553349,
			"0.004": 17.2232726267,
			"0.005": 7.0867041967,
			"0.006": 5.81218489372,
			"0.007": 4.92697654663,
			"0.008": 5.63575407165,
			"0.009": 4.69513728681,
			"0.01": 4.81977527196,
			"0.011": 7.0480548756,
			"0.012": 7.90777108608,
			"0.013": 0.680080764106,
			"0.014": 0.575029522182,
			"0.015": 0.135224654075,
			"0.016": 0.0,
			"0.017": 0.0,
			"0.018": 0.0,
			"0.019": 0.0,
			"0.02": 0.0,
			"0.021": 0.0,
			"0.022": 0.0,
			"0.023": 0.0,
			"0.024": 0.0,
			"0.025": 0.0
		}
	}
}
