{
	 "smiles": "CC1=NC2=C(C=CC(Cl)=C2)C(=O)N1N", 
	 "Tm": 476.15, 
	 "num_atms": 22, 
	 "gaussian": { 
		 "optdone": 1, 
		 "sigma_profile": "yes", 
		 "theory": "DFT", 
		 "functional": "B3LYP", 
		 "basiset": "6-31G**", 
		 "properties": { 
			 "R2extent": 3912.6822, 
			 "electric_dipole_moment_norm": 2.31330302598, 
			 "electric_quadrupole_moment_norm": 5.28071598081, 
			 "total_energy": -1047.45643183, 
			 "HOMO_LUMO_gap": 0.18665, 
			 "cosmo_polarized_energy": -11.21, 
			 "cosmo_cavitation_energy": 28.11, 
			 "cosmo_dispersion_energy": -21.04, 
			 "cosmo_repulsion_energy": 1.64, 
			 "cosmo_total_nonelectrostatic_energy": 8.71, 
			 "SMD_solvation_energy": 4.15 
		},
		"coords": [
			{
				"x": 1.610203227,
				"y": 1.8615530311,
				"z": -1.746402888,
				"element": "C" 
			},
			{
				"x": 0.6629410785,
				"y": 1.0341906653,
				"z": -0.9278527071,
				"element": "C" 
			},
			{
				"x": 0.357005418,
				"y": -0.1661087488,
				"z": -1.3158672204,
				"element": "N" 
			},
			{
				"x": -0.5191477752,
				"y": -0.9070785963,
				"z": -0.5420468615,
				"element": "C" 
			},
			{
				"x": -1.0932526321,
				"y": -0.4114737794,
				"z": 0.6508566177,
				"element": "C" 
			},
			{
				"x": -1.9778068924,
				"y": -1.2042419098,
				"z": 1.4005394719,
				"element": "C" 
			},
			{
				"x": -2.2982512038,
				"y": -2.4830151881,
				"z": 0.9788679652,
				"element": "C" 
			},
			{
				"x": -1.7226623365,
				"y": -2.9691110561,
				"z": -0.2094847288,
				"element": "C" 
			},
			{
				"x": -2.1322140197,
				"y": -4.5920490333,
				"z": -0.7404511684,
				"element": "Cl" 
			},
			{
				"x": -0.8483434126,
				"y": -2.2102090958,
				"z": -0.9678136738,
				"element": "C" 
			},
			{
				"x": -0.7527652204,
				"y": 0.9371351296,
				"z": 1.0919554461,
				"element": "C" 
			},
			{
				"x": -1.1650640183,
				"y": 1.5061635785,
				"z": 2.0968916205,
				"element": "O" 
			},
			{
				"x": 0.146836835,
				"y": 1.6006622968,
				"z": 0.2292811918,
				"element": "N" 
			},
			{
				"x": 0.5363167983,
				"y": 2.9161372069,
				"z": 0.5744136789,
				"element": "N" 
			},
			{
				"x": 1.137366638,
				"y": 2.7903236382,
				"z": -2.0777881709,
				"element": "H" 
			},
			{
				"x": 1.9143917189,
				"y": 1.2691781581,
				"z": -2.6087302272,
				"element": "H" 
			},
			{
				"x": 2.4880707451,
				"y": 2.150277372,
				"z": -1.1616129433,
				"element": "H" 
			},
			{
				"x": -2.3988612512,
				"y": -0.7902269281,
				"z": 2.3107432577,
				"element": "H" 
			},
			{
				"x": -2.9788325864,
				"y": -3.1081566705,
				"z": 1.5450804443,
				"element": "H" 
			},
			{
				"x": -0.4083164484,
				"y": -2.589839061,
				"z": -1.8819638094,
				"element": "H" 
			},
			{
				"x": 0.91486225,
				"y": 2.8622620376,
				"z": 1.5209223215,
				"element": "H" 
			},
			{
				"x": -0.3269769116,
				"y": 3.4507269532,
				"z": 0.6793623832,
				"element": "H" 
			}
		],
		 "valence_orbital": [ 
			{
				"type": "occ",
				"energy": -0.29599,
				"method": "rhf"
			},
			{
				"type": "occ",
				"energy": -0.27731,
				"method": "rhf"
			},
			{
				"type": "occ",
				"energy": -0.27428,
				"method": "rhf"
			},
			{
				"type": "occ",
				"energy": -0.25841,
				"method": "rhf"
			},
			{
				"type": "occ",
				"energy": -0.23806,
				"method": "rhf"
			},
			{
				"type": "unocc",
				"energy": -0.05141,
				"method": "rhf"
			},
			{
				"type": "unocc",
				"energy": -0.04299,
				"method": "rhf"
			},
			{
				"type": "unocc",
				"energy": 0.02069,
				"method": "rhf"
			},
			{
				"type": "unocc",
				"energy": 0.02561,
				"method": "rhf"
			},
			{
				"type": "unocc",
				"energy": 0.05943,
				"method": "rhf"
			}
		],
		"cosmo_sigma_profile": { 
			"-0.025": 0.0,
			"-0.024": 0.0,
			"-0.023": 0.0,
			"-0.022": 0.0,
			"-0.021": 0.0,
			"-0.02": 0.0,
			"-0.019": 0.0,
			"-0.018": 0.0,
			"-0.017": 0.0,
			"-0.016": 0.0,
			"-0.015": 0.0,
			"-0.014": 0.0,
			"-0.013": 0.272468696291,
			"-0.012": 2.78670605488,
			"-0.011": 3.22423830002,
			"-0.01": 2.62131296291,
			"-0.009": 1.63823025416,
			"-0.008": 2.64233099518,
			"-0.007": 7.17203772136,
			"-0.006": 7.12166066867,
			"-0.005": 14.7310298368,
			"-0.004": 15.6492103961,
			"-0.003": 14.3752272944,
			"-0.002": 15.9196736762,
			"-0.001": 16.0038379196,
			"0.0": 18.718767664,
			"0.001": 24.2897567737,
			"0.002": 20.8409822048,
			"0.003": 12.1786588581,
			"0.004": 13.3586820098,
			"0.005": 5.18711356148,
			"0.006": 4.40522454463,
			"0.007": 3.1862942589,
			"0.008": 2.21863316894,
			"0.009": 2.83185865692,
			"0.01": 3.205142184,
			"0.011": 3.61375793361,
			"0.012": 4.96731176623,
			"0.013": 3.18105337625,
			"0.014": 0.580164230381,
			"0.015": 0.0755828806062,
			"0.016": 0.0,
			"0.017": 0.0,
			"0.018": 0.0,
			"0.019": 0.0,
			"0.02": 0.0,
			"0.021": 0.0,
			"0.022": 0.0,
			"0.023": 0.0,
			"0.024": 0.0,
			"0.025": 0.0
		}
	}
}
