{
	 "smiles": "OC(=O)C1=C(O)C=CC(=C1)S(Cl)(=O)=O", 
	 "Tm": 442.15, 
	 "num_atms": 19, 
	 "gaussian": { 
		 "optdone": 1, 
		 "sigma_profile": "yes", 
		 "theory": "DFT", 
		 "functional": "B3LYP", 
		 "basiset": "6-31G**", 
		 "properties": { 
			 "R2extent": 4348.1981, 
			 "electric_dipole_moment_norm": 8.62170337752, 
			 "electric_quadrupole_moment_norm": 17.0622205483, 
			 "total_energy": -1504.19444438, 
			 "HOMO_LUMO_gap": 0.19075, 
			 "cosmo_polarized_energy": -24.03, 
			 "cosmo_cavitation_energy": 27.74, 
			 "cosmo_dispersion_energy": -21.04, 
			 "cosmo_repulsion_energy": 1.61, 
			 "cosmo_total_nonelectrostatic_energy": 8.32, 
			 "SMD_solvation_energy": 5.02 
		},
		"coords": [
			{
				"x": -3.0985183231,
				"y": -0.638047336,
				"z": -0.9833399321,
				"element": "O" 
			},
			{
				"x": -2.3896584345,
				"y": 0.0571174646,
				"z": -0.0778386705,
				"element": "C" 
			},
			{
				"x": -2.9429261124,
				"y": 0.6989401155,
				"z": 0.7850711991,
				"element": "O" 
			},
			{
				"x": -0.8786206374,
				"y": 0.0158733641,
				"z": -0.1678867151,
				"element": "C" 
			},
			{
				"x": -0.1253443074,
				"y": -0.6971586012,
				"z": -1.1227839903,
				"element": "C" 
			},
			{
				"x": -0.8009593692,
				"y": -1.419843741,
				"z": -2.0650805906,
				"element": "O" 
			},
			{
				"x": 1.274982903,
				"y": -0.6718190788,
				"z": -1.1093887551,
				"element": "C" 
			},
			{
				"x": 1.9501165084,
				"y": 0.0671495921,
				"z": -0.1482538354,
				"element": "C" 
			},
			{
				"x": 1.2030601496,
				"y": 0.7754980429,
				"z": 0.7966211402,
				"element": "C" 
			},
			{
				"x": -0.1867623715,
				"y": 0.756289575,
				"z": 0.7956957758,
				"element": "C" 
			},
			{
				"x": 2.0659591788,
				"y": 1.7110681613,
				"z": 2.0467949574,
				"element": "S" 
			},
			{
				"x": 2.2426900512,
				"y": 3.6135893706,
				"z": 1.1001832636,
				"element": "Cl" 
			},
			{
				"x": 1.194589428,
				"y": 1.9054298605,
				"z": 3.1966568886,
				"element": "O" 
			},
			{
				"x": 3.4234693353,
				"y": 1.1930989193,
				"z": 2.167778776,
				"element": "O" 
			},
			{
				"x": -2.5119135668,
				"y": -1.0994285621,
				"z": -1.6069613008,
				"element": "H" 
			},
			{
				"x": -0.1920151267,
				"y": -1.8680906141,
				"z": -2.6667394275,
				"element": "H" 
			},
			{
				"x": 1.8322384527,
				"y": -1.2366998687,
				"z": -1.852492085,
				"element": "H" 
			},
			{
				"x": 3.0335928028,
				"y": 0.0889715976,
				"z": -0.1201221781,
				"element": "H" 
			},
			{
				"x": -0.7664805607,
				"y": 1.2987617383,
				"z": 1.5344854799,
				"element": "H" 
			}
		],
		 "valence_orbital": [ 
			{
				"type": "occ",
				"energy": -0.32634,
				"method": "rhf"
			},
			{
				"type": "occ",
				"energy": -0.31783,
				"method": "rhf"
			},
			{
				"type": "occ",
				"energy": -0.3033,
				"method": "rhf"
			},
			{
				"type": "occ",
				"energy": -0.28768,
				"method": "rhf"
			},
			{
				"type": "occ",
				"energy": -0.28619,
				"method": "rhf"
			},
			{
				"type": "unocc",
				"energy": -0.09544,
				"method": "rhf"
			},
			{
				"type": "unocc",
				"energy": -0.0782,
				"method": "rhf"
			},
			{
				"type": "unocc",
				"energy": -0.0506,
				"method": "rhf"
			},
			{
				"type": "unocc",
				"energy": 0.01225,
				"method": "rhf"
			},
			{
				"type": "unocc",
				"energy": 0.018,
				"method": "rhf"
			}
		],
		"cosmo_sigma_profile": { 
			"-0.025": 0.0,
			"-0.024": 0.0,
			"-0.023": 0.0,
			"-0.022": 0.0,
			"-0.021": 0.672888101254,
			"-0.02": 1.12994739943,
			"-0.019": 1.73552324779,
			"-0.018": 1.21972232361,
			"-0.017": 0.797715431154,
			"-0.016": 0.637384003584,
			"-0.015": 0.948064164092,
			"-0.014": 1.42392020052,
			"-0.013": 1.30483994699,
			"-0.012": 1.06141744736,
			"-0.011": 1.4820359366,
			"-0.01": 2.37695985805,
			"-0.009": 4.63891287575,
			"-0.008": 5.1261292774,
			"-0.007": 6.34983526865,
			"-0.006": 8.15767822563,
			"-0.005": 8.15977581102,
			"-0.004": 9.93284395757,
			"-0.003": 12.2981245657,
			"-0.002": 19.2516675362,
			"-0.001": 20.2139161553,
			"0.0": 15.4106632839,
			"0.001": 10.3901007658,
			"0.002": 11.0345565579,
			"0.003": 17.4469218799,
			"0.004": 9.58101567257,
			"0.005": 4.22441005437,
			"0.006": 6.25354194648,
			"0.007": 8.30486363822,
			"0.008": 12.4748433155,
			"0.009": 7.20333176357,
			"0.01": 4.78947527019,
			"0.011": 5.30074170244,
			"0.012": 3.53374038996,
			"0.013": 1.06180813951,
			"0.014": 0.0,
			"0.015": 0.0,
			"0.016": 0.0,
			"0.017": 0.0,
			"0.018": 0.0,
			"0.019": 0.0,
			"0.02": 0.0,
			"0.021": 0.0,
			"0.022": 0.0,
			"0.023": 0.0,
			"0.024": 0.0,
			"0.025": 0.0
		}
	}
}
