{
	 "smiles": "CC1=C(C(=O)CCl)C2=C(N1)C=CC=C2", 
	 "Tm": 501.15, 
	 "num_atms": 24, 
	 "gaussian": { 
		 "optdone": 1, 
		 "sigma_profile": "yes", 
		 "theory": "DFT", 
		 "functional": "B3LYP", 
		 "basiset": "6-31G**", 
		 "properties": { 
			 "R2extent": 3614.8713, 
			 "electric_dipole_moment_norm": 5.87088189883, 
			 "electric_quadrupole_moment_norm": 13.3034043053, 
			 "total_energy": -1015.38160745, 
			 "HOMO_LUMO_gap": 0.17821, 
			 "cosmo_polarized_energy": -16.69, 
			 "cosmo_cavitation_energy": 29.26, 
			 "cosmo_dispersion_energy": -21.73, 
			 "cosmo_repulsion_energy": 1.7, 
			 "cosmo_total_nonelectrostatic_energy": 9.23, 
			 "SMD_solvation_energy": 4.68 
		},
		"coords": [
			{
				"x": 2.7581317248,
				"y": -1.4093450067,
				"z": 0.2485906005,
				"element": "C" 
			},
			{
				"x": 1.3061548929,
				"y": -1.0802721954,
				"z": 0.3578013842,
				"element": "C" 
			},
			{
				"x": 0.5273742268,
				"y": -0.1654592796,
				"z": -0.3552841841,
				"element": "C" 
			},
			{
				"x": 1.1043577955,
				"y": 0.670519135,
				"z": -1.4110844127,
				"element": "C" 
			},
			{
				"x": 2.2868110477,
				"y": 0.6138959364,
				"z": -1.7211882255,
				"element": "O" 
			},
			{
				"x": 0.1395916318,
				"y": 1.6328431122,
				"z": -2.1172261851,
				"element": "C" 
			},
			{
				"x": 0.9237933121,
				"y": 2.6168526853,
				"z": -3.3931622147,
				"element": "Cl" 
			},
			{
				"x": -0.8272847288,
				"y": -0.2627746357,
				"z": 0.1688924372,
				"element": "C" 
			},
			{
				"x": -0.793373817,
				"y": -1.2497330834,
				"z": 1.1899868063,
				"element": "C" 
			},
			{
				"x": 0.5105978177,
				"y": -1.7147507422,
				"z": 1.2691861762,
				"element": "N" 
			},
			{
				"x": -1.9124580414,
				"y": -1.6261642997,
				"z": 1.9332231479,
				"element": "C" 
			},
			{
				"x": -3.115848223,
				"y": -0.9912032292,
				"z": 1.6455065618,
				"element": "C" 
			},
			{
				"x": -3.1849655599,
				"y": -0.0095910803,
				"z": 0.6410385793,
				"element": "C" 
			},
			{
				"x": -2.0625995974,
				"y": 0.3585408201,
				"z": -0.0944461366,
				"element": "C" 
			},
			{
				"x": 3.0397007662,
				"y": -2.1841436343,
				"z": 0.969082845,
				"element": "H" 
			},
			{
				"x": 3.0030081191,
				"y": -1.7507921085,
				"z": -0.760630312,
				"element": "H" 
			},
			{
				"x": 3.3707789659,
				"y": -0.5201840112,
				"z": 0.419524282,
				"element": "H" 
			},
			{
				"x": -0.6715842938,
				"y": 1.0694315566,
				"z": -2.5852709849,
				"element": "H" 
			},
			{
				"x": -0.2978505508,
				"y": 2.3215120706,
				"z": -1.3900356634,
				"element": "H" 
			},
			{
				"x": 0.8364434794,
				"y": -2.4235203592,
				"z": 1.9085970636,
				"element": "H" 
			},
			{
				"x": -1.8455366241,
				"y": -2.386099827,
				"z": 2.706631826,
				"element": "H" 
			},
			{
				"x": -4.0096266297,
				"y": -1.2561792408,
				"z": 2.2017834881,
				"element": "H" 
			},
			{
				"x": -4.1356603508,
				"y": 0.472670455,
				"z": 0.4341089302,
				"element": "H" 
			},
			{
				"x": -2.1598553633,
				"y": 1.119746962,
				"z": -0.8598258092,
				"element": "H" 
			}
		],
		 "valence_orbital": [ 
			{
				"type": "occ",
				"energy": -0.28876,
				"method": "rhf"
			},
			{
				"type": "occ",
				"energy": -0.28368,
				"method": "rhf"
			},
			{
				"type": "occ",
				"energy": -0.24758,
				"method": "rhf"
			},
			{
				"type": "occ",
				"energy": -0.23669,
				"method": "rhf"
			},
			{
				"type": "occ",
				"energy": -0.21818,
				"method": "rhf"
			},
			{
				"type": "unocc",
				"energy": -0.03997,
				"method": "rhf"
			},
			{
				"type": "unocc",
				"energy": -0.01145,
				"method": "rhf"
			},
			{
				"type": "unocc",
				"energy": 0.01461,
				"method": "rhf"
			},
			{
				"type": "unocc",
				"energy": 0.03591,
				"method": "rhf"
			},
			{
				"type": "unocc",
				"energy": 0.06384,
				"method": "rhf"
			}
		],
		"cosmo_sigma_profile": { 
			"-0.025": 0.0,
			"-0.024": 0.0,
			"-0.023": 0.0,
			"-0.022": 0.0,
			"-0.021": 0.0,
			"-0.02": 0.0,
			"-0.019": 0.0,
			"-0.018": 0.0,
			"-0.017": 0.0620354979936,
			"-0.016": 1.41264756855,
			"-0.015": 1.21976747962,
			"-0.014": 1.24600671032,
			"-0.013": 1.95509279578,
			"-0.012": 1.48783184463,
			"-0.011": 1.21285417528,
			"-0.01": 1.69473848362,
			"-0.009": 1.73248851788,
			"-0.008": 7.40007390322,
			"-0.007": 8.72242655352,
			"-0.006": 9.09983492554,
			"-0.005": 13.8470870593,
			"-0.004": 14.4983719648,
			"-0.003": 16.0633714243,
			"-0.002": 14.4140059405,
			"-0.001": 15.7921696958,
			"0.0": 12.62982496,
			"0.001": 12.1620463737,
			"0.002": 15.5927179209,
			"0.003": 14.4146562166,
			"0.004": 15.8835901629,
			"0.005": 14.3585863072,
			"0.006": 17.4217211014,
			"0.007": 5.0374252421,
			"0.008": 2.2602289324,
			"0.009": 1.85434791547,
			"0.01": 2.67639737039,
			"0.011": 1.5419538411,
			"0.012": 2.94690372188,
			"0.013": 2.72009482221,
			"0.014": 1.90413384655,
			"0.015": 0.308527032663,
			"0.016": 0.0,
			"0.017": 0.0,
			"0.018": 0.0,
			"0.019": 0.0,
			"0.02": 0.0,
			"0.021": 0.0,
			"0.022": 0.0,
			"0.023": 0.0,
			"0.024": 0.0,
			"0.025": 0.0
		}
	}
}
