{
	 "smiles": "O=C1NC(=NO1)C1=NC=CN=C1", 
	 "Tm": 506.15, 
	 "num_atms": 16, 
	 "gaussian": { 
		 "optdone": 1, 
		 "sigma_profile": "yes", 
		 "theory": "DFT", 
		 "functional": "B3LYP", 
		 "basiset": "6-31G**", 
		 "properties": { 
			 "R2extent": 2973.4705, 
			 "electric_dipole_moment_norm": 5.83029132806, 
			 "electric_quadrupole_moment_norm": 15.4616453332, 
			 "total_energy": -600.458338175, 
			 "HOMO_LUMO_gap": 0.16899, 
			 "cosmo_polarized_energy": -14.97, 
			 "cosmo_cavitation_energy": 22.11, 
			 "cosmo_dispersion_energy": -16.77, 
			 "cosmo_repulsion_energy": 1.32, 
			 "cosmo_total_nonelectrostatic_energy": 6.66, 
			 "SMD_solvation_energy": 2.42 
		},
		"coords": [
			{
				"x": -1.6592908907,
				"y": 0.9551890966,
				"z": 4.200571473,
				"element": "O" 
			},
			{
				"x": -1.2490701696,
				"y": 0.1423559497,
				"z": 3.4161971505,
				"element": "C" 
			},
			{
				"x": -0.3231999334,
				"y": 0.264691487,
				"z": 2.3911360875,
				"element": "N" 
			},
			{
				"x": -0.1954034946,
				"y": -0.9518224476,
				"z": 1.7796278715,
				"element": "C" 
			},
			{
				"x": -0.9583636575,
				"y": -1.8551849416,
				"z": 2.3184222647,
				"element": "N" 
			},
			{
				"x": -1.6375261108,
				"y": -1.1858148072,
				"z": 3.359431032,
				"element": "O" 
			},
			{
				"x": 0.7088065509,
				"y": -1.1760595614,
				"z": 0.6476699999,
				"element": "C" 
			},
			{
				"x": 1.4119472079,
				"y": -0.1082837954,
				"z": 0.2410039443,
				"element": "N" 
			},
			{
				"x": 2.2384949426,
				"y": -0.3033967596,
				"z": -0.7898466116,
				"element": "C" 
			},
			{
				"x": 2.3606495227,
				"y": -1.5511061884,
				"z": -1.4068125555,
				"element": "C" 
			},
			{
				"x": 1.658732596,
				"y": -2.6170530819,
				"z": -1.0009065614,
				"element": "N" 
			},
			{
				"x": 0.8315791892,
				"y": -2.4288338578,
				"z": 0.0280127138,
				"element": "C" 
			},
			{
				"x": 0.1745970614,
				"y": 1.1036385959,
				"z": 2.1346362417,
				"element": "H" 
			},
			{
				"x": 2.8157599652,
				"y": 0.5521414354,
				"z": -1.1317679153,
				"element": "H" 
			},
			{
				"x": 3.0380612853,
				"y": -1.694184209,
				"z": -2.2452548634,
				"element": "H" 
			},
			{
				"x": 0.2503259354,
				"y": -3.2781769146,
				"z": 0.3768797283,
				"element": "H" 
			}
		],
		 "valence_orbital": [ 
			{
				"type": "occ",
				"energy": -0.34261,
				"method": "rhf"
			},
			{
				"type": "occ",
				"energy": -0.30779,
				"method": "rhf"
			},
			{
				"type": "occ",
				"energy": -0.29299,
				"method": "rhf"
			},
			{
				"type": "occ",
				"energy": -0.28021,
				"method": "rhf"
			},
			{
				"type": "occ",
				"energy": -0.25999,
				"method": "rhf"
			},
			{
				"type": "unocc",
				"energy": -0.091,
				"method": "rhf"
			},
			{
				"type": "unocc",
				"energy": -0.0685,
				"method": "rhf"
			},
			{
				"type": "unocc",
				"energy": 0.01546,
				"method": "rhf"
			},
			{
				"type": "unocc",
				"energy": 0.04031,
				"method": "rhf"
			},
			{
				"type": "unocc",
				"energy": 0.05931,
				"method": "rhf"
			}
		],
		"cosmo_sigma_profile": { 
			"-0.025": 0.0,
			"-0.024": 0.0,
			"-0.023": 0.0,
			"-0.022": 0.0,
			"-0.021": 0.0,
			"-0.02": 0.0,
			"-0.019": 0.0,
			"-0.018": 0.373284746708,
			"-0.017": 0.726231375488,
			"-0.016": 0.936921706229,
			"-0.015": 0.688134390851,
			"-0.014": 0.372811869329,
			"-0.013": 1.11879918868,
			"-0.012": 0.544797891524,
			"-0.011": 0.7917000945,
			"-0.01": 1.15844918487,
			"-0.009": 3.4407582999,
			"-0.008": 7.79941176437,
			"-0.007": 6.22041725709,
			"-0.006": 8.26241653086,
			"-0.005": 11.0601026685,
			"-0.004": 17.8193163159,
			"-0.003": 13.9917386608,
			"-0.002": 13.9281982764,
			"-0.001": 9.53698237896,
			"0.0": 6.72120342682,
			"0.001": 6.91761044403,
			"0.002": 5.93288368078,
			"0.003": 4.30032712104,
			"0.004": 5.62027745718,
			"0.005": 7.03959982181,
			"0.006": 8.24819393863,
			"0.007": 7.98840842488,
			"0.008": 4.90187040771,
			"0.009": 4.51679016946,
			"0.01": 5.08222182466,
			"0.011": 8.7767435979,
			"0.012": 3.10503573118,
			"0.013": 0.997911063272,
			"0.014": 0.548508955701,
			"0.015": 0.0725112710137,
			"0.016": 0.0,
			"0.017": 0.0,
			"0.018": 0.0,
			"0.019": 0.0,
			"0.02": 0.0,
			"0.021": 0.0,
			"0.022": 0.0,
			"0.023": 0.0,
			"0.024": 0.0,
			"0.025": 0.0
		}
	}
}
