{
	 "smiles": "FC1=CC(CC(=O)C2=CC(Cl)=C(Cl)C=C2)=CC=C1", 
	 "Tm": 395.15, 
	 "num_atms": 27, 
	 "gaussian": { 
		 "optdone": 1, 
		 "sigma_profile": "yes", 
		 "theory": "DFT", 
		 "functional": "B3LYP", 
		 "basiset": "6-31G**", 
		 "properties": { 
			 "R2extent": 7663.3087, 
			 "electric_dipole_moment_norm": 1.76867725151, 
			 "electric_quadrupole_moment_norm": 12.8307546824, 
			 "total_energy": -1634.35702419, 
			 "HOMO_LUMO_gap": 0.17132, 
			 "cosmo_polarized_energy": -9.26, 
			 "cosmo_cavitation_energy": 36.07, 
			 "cosmo_dispersion_energy": -25.21, 
			 "cosmo_repulsion_energy": 1.93, 
			 "cosmo_total_nonelectrostatic_energy": 12.79, 
			 "SMD_solvation_energy": 6.33 
		},
		"coords": [
			{
				"x": -1.2872979891,
				"y": 4.6260363359,
				"z": -1.1405157469,
				"element": "F" 
			},
			{
				"x": -1.403877122,
				"y": 3.2900596232,
				"z": -1.2832717106,
				"element": "C" 
			},
			{
				"x": -1.1074753583,
				"y": 2.4749083489,
				"z": -0.1987936087,
				"element": "C" 
			},
			{
				"x": -1.2268632663,
				"y": 1.0854157142,
				"z": -0.3376053743,
				"element": "C" 
			},
			{
				"x": -0.9250885845,
				"y": 0.1784613744,
				"z": 0.8468090524,
				"element": "C" 
			},
			{
				"x": 0.443097067,
				"y": 0.4691376437,
				"z": 1.4674288781,
				"element": "C" 
			},
			{
				"x": 0.5224857263,
				"y": 1.1849356518,
				"z": 2.4544371199,
				"element": "O" 
			},
			{
				"x": 1.6835552933,
				"y": -0.1073827323,
				"z": 0.8525071657,
				"element": "C" 
			},
			{
				"x": 1.6685058432,
				"y": -0.8542011528,
				"z": -0.3309195302,
				"element": "C" 
			},
			{
				"x": 2.8515248683,
				"y": -1.3710584768,
				"z": -0.8595711467,
				"element": "C" 
			},
			{
				"x": 2.7761116158,
				"y": -2.2917466509,
				"z": -2.3418189486,
				"element": "Cl" 
			},
			{
				"x": 4.0676307698,
				"y": -1.1453934257,
				"z": -0.1991560291,
				"element": "C" 
			},
			{
				"x": 5.5688342406,
				"y": -1.7763617003,
				"z": -0.8176096749,
				"element": "Cl" 
			},
			{
				"x": 4.0861667641,
				"y": -0.3966917778,
				"z": 0.9833200997,
				"element": "C" 
			},
			{
				"x": 2.9070889546,
				"y": 0.1191911126,
				"z": 1.5014153794,
				"element": "C" 
			},
			{
				"x": -1.6416683439,
				"y": 0.5546302157,
				"z": -1.565525621,
				"element": "C" 
			},
			{
				"x": -1.9345485274,
				"y": 1.397042396,
				"z": -2.64063672,
				"element": "C" 
			},
			{
				"x": -1.8163828852,
				"y": 2.7800146132,
				"z": -2.5102100108,
				"element": "C" 
			},
			{
				"x": -0.7898028212,
				"y": 2.9216757265,
				"z": 0.73760654,
				"element": "H" 
			},
			{
				"x": -1.0028743454,
				"y": -0.869570887,
				"z": 0.5427189229,
				"element": "H" 
			},
			{
				"x": -1.6540862525,
				"y": 0.3507787544,
				"z": 1.644470451,
				"element": "H" 
			},
			{
				"x": 0.7467364853,
				"y": -1.02996086,
				"z": -0.8710257244,
				"element": "H" 
			},
			{
				"x": 5.0338349589,
				"y": -0.2285398638,
				"z": 1.4827377463,
				"element": "H" 
			},
			{
				"x": 2.907237057,
				"y": 0.7035409502,
				"z": 2.4147038991,
				"element": "H" 
			},
			{
				"x": -1.7474361874,
				"y": -0.5208487894,
				"z": -1.6799103012,
				"element": "H" 
			},
			{
				"x": -2.2573022888,
				"y": 0.9729960535,
				"z": -3.5867064198,
				"element": "H" 
			},
			{
				"x": -2.036005672,
				"y": 3.4571318027,
				"z": -3.3281786875,
				"element": "H" 
			}
		],
		 "valence_orbital": [ 
			{
				"type": "occ",
				"energy": -0.27754,
				"method": "rhf"
			},
			{
				"type": "occ",
				"energy": -0.27214,
				"method": "rhf"
			},
			{
				"type": "occ",
				"energy": -0.26106,
				"method": "rhf"
			},
			{
				"type": "occ",
				"energy": -0.25819,
				"method": "rhf"
			},
			{
				"type": "occ",
				"energy": -0.24878,
				"method": "rhf"
			},
			{
				"type": "unocc",
				"energy": -0.07746,
				"method": "rhf"
			},
			{
				"type": "unocc",
				"energy": -0.03494,
				"method": "rhf"
			},
			{
				"type": "unocc",
				"energy": -0.0204,
				"method": "rhf"
			},
			{
				"type": "unocc",
				"energy": -0.00932,
				"method": "rhf"
			},
			{
				"type": "unocc",
				"energy": -0.00429,
				"method": "rhf"
			}
		],
		"cosmo_sigma_profile": { 
			"-0.025": 0.0,
			"-0.024": 0.0,
			"-0.023": 0.0,
			"-0.022": 0.0,
			"-0.021": 0.0,
			"-0.02": 0.0,
			"-0.019": 0.0,
			"-0.018": 0.0,
			"-0.017": 0.0,
			"-0.016": 0.0,
			"-0.015": 0.0,
			"-0.014": 0.0,
			"-0.013": 0.0,
			"-0.012": 0.0,
			"-0.011": 0.0,
			"-0.01": 0.26363249803,
			"-0.009": 1.79408654354,
			"-0.008": 4.63736107345,
			"-0.007": 9.03037297991,
			"-0.006": 14.4967701905,
			"-0.005": 14.3587320917,
			"-0.004": 16.6937061017,
			"-0.003": 16.7561627816,
			"-0.002": 18.3363818421,
			"-0.001": 26.4744765609,
			"0.0": 33.7185951513,
			"0.001": 32.6227888712,
			"0.002": 25.3913845173,
			"0.003": 28.0471018985,
			"0.004": 29.2186459595,
			"0.005": 10.0350360344,
			"0.006": 1.27027702665,
			"0.007": 0.922939496768,
			"0.008": 1.76026692409,
			"0.009": 1.58528601265,
			"0.01": 2.04133954791,
			"0.011": 3.73391588815,
			"0.012": 1.33593029063,
			"0.013": 0.15095333356,
			"0.014": 0.0,
			"0.015": 0.0,
			"0.016": 0.0,
			"0.017": 0.0,
			"0.018": 0.0,
			"0.019": 0.0,
			"0.02": 0.0,
			"0.021": 0.0,
			"0.022": 0.0,
			"0.023": 0.0,
			"0.024": 0.0,
			"0.025": 0.0
		}
	}
}
