{
	 "smiles": "CS(=O)(=O)C1=C(C=C(C=C1)C(O)=O)[N+]([O-])=O", 
	 "Tm": 548.15, 
	 "num_atms": 23, 
	 "gaussian": { 
		 "optdone": 1, 
		 "sigma_profile": "yes", 
		 "theory": "DFT", 
		 "functional": "B3LYP", 
		 "basiset": "6-31G**", 
		 "properties": { 
			 "R2extent": 4829.9685, 
			 "electric_dipole_moment_norm": 6.35900814121, 
			 "electric_quadrupole_moment_norm": 29.6340114974, 
			 "total_energy": -1213.17776216, 
			 "HOMO_LUMO_gap": 0.18468, 
			 "cosmo_polarized_energy": -26.43, 
			 "cosmo_cavitation_energy": 30.3, 
			 "cosmo_dispersion_energy": -22.12, 
			 "cosmo_repulsion_energy": 1.66, 
			 "cosmo_total_nonelectrostatic_energy": 9.84, 
			 "SMD_solvation_energy": 8.44 
		},
		"coords": [
			{
				"x": -3.219240092,
				"y": 1.1433094273,
				"z": -1.0825675327,
				"element": "C" 
			},
			{
				"x": -1.9294389181,
				"y": 0.317922412,
				"z": -2.0504613721,
				"element": "S" 
			},
			{
				"x": -2.6002649603,
				"y": -0.5589034045,
				"z": -3.0133572945,
				"element": "O" 
			},
			{
				"x": -1.0020079464,
				"y": 1.3763549417,
				"z": -2.4627014934,
				"element": "O" 
			},
			{
				"x": -1.0564513178,
				"y": -0.7110679117,
				"z": -0.8088755407,
				"element": "C" 
			},
			{
				"x": 0.3009940116,
				"y": -1.0453449549,
				"z": -0.9260863132,
				"element": "C" 
			},
			{
				"x": 0.9682953823,
				"y": -1.7392000815,
				"z": 0.0765769358,
				"element": "C" 
			},
			{
				"x": 0.2671544135,
				"y": -2.1575954439,
				"z": 1.2104992625,
				"element": "C" 
			},
			{
				"x": -1.093370138,
				"y": -1.8635597874,
				"z": 1.3287388981,
				"element": "C" 
			},
			{
				"x": -1.7425195529,
				"y": -1.1397545829,
				"z": 0.3312974376,
				"element": "C" 
			},
			{
				"x": 0.9222322627,
				"y": -2.9196906639,
				"z": 2.3145195438,
				"element": "C" 
			},
			{
				"x": 2.230740503,
				"y": -3.1549576869,
				"z": 2.0798770754,
				"element": "O" 
			},
			{
				"x": 0.3488920579,
				"y": -3.290621101,
				"z": 3.3170477412,
				"element": "O" 
			},
			{
				"x": 1.089997028,
				"y": -0.747530565,
				"z": -2.140388053,
				"element": "N" 
			},
			{
				"x": 2.2711898486,
				"y": -0.4551660572,
				"z": -1.9760444658,
				"element": "O" 
			},
			{
				"x": 0.5194685701,
				"y": -0.8751482232,
				"z": -3.2160797712,
				"element": "O" 
			},
			{
				"x": -3.6326956315,
				"y": 1.8724957837,
				"z": -1.7824252667,
				"element": "H" 
			},
			{
				"x": -3.9973205515,
				"y": 0.4420491344,
				"z": -0.7821233611,
				"element": "H" 
			},
			{
				"x": -2.776968047,
				"y": 1.6587421666,
				"z": -0.2294508935,
				"element": "H" 
			},
			{
				"x": 2.0227396106,
				"y": -1.9527393037,
				"z": -0.0423378188,
				"element": "H" 
			},
			{
				"x": -1.6272376867,
				"y": -2.200958633,
				"z": 2.2102976799,
				"element": "H" 
			},
			{
				"x": -2.7932765536,
				"y": -0.9086365117,
				"z": 0.4544408579,
				"element": "H" 
			},
			{
				"x": 2.5658877076,
				"y": -3.6489989532,
				"z": 2.8465037442,
				"element": "H" 
			}
		],
		 "valence_orbital": [ 
			{
				"type": "occ",
				"energy": -0.31339,
				"method": "rhf"
			},
			{
				"type": "occ",
				"energy": -0.30712,
				"method": "rhf"
			},
			{
				"type": "occ",
				"energy": -0.30142,
				"method": "rhf"
			},
			{
				"type": "occ",
				"energy": -0.29818,
				"method": "rhf"
			},
			{
				"type": "occ",
				"energy": -0.2905,
				"method": "rhf"
			},
			{
				"type": "unocc",
				"energy": -0.10582,
				"method": "rhf"
			},
			{
				"type": "unocc",
				"energy": -0.08382,
				"method": "rhf"
			},
			{
				"type": "unocc",
				"energy": -0.04002,
				"method": "rhf"
			},
			{
				"type": "unocc",
				"energy": 0.00845,
				"method": "rhf"
			},
			{
				"type": "unocc",
				"energy": 0.02594,
				"method": "rhf"
			}
		],
		"cosmo_sigma_profile": { 
			"-0.025": 0.0,
			"-0.024": 0.0,
			"-0.023": 0.0,
			"-0.022": 0.0,
			"-0.021": 0.0,
			"-0.02": 0.0,
			"-0.019": 0.655675782203,
			"-0.018": 1.20148099209,
			"-0.017": 0.750639663046,
			"-0.016": 0.718441540096,
			"-0.015": 0.896506055403,
			"-0.014": 0.591937204872,
			"-0.013": 1.41656386655,
			"-0.012": 1.65245520173,
			"-0.011": 2.87811399122,
			"-0.01": 4.46990123827,
			"-0.009": 9.87189839627,
			"-0.008": 11.267963012,
			"-0.007": 10.5617472706,
			"-0.006": 9.19114355629,
			"-0.005": 11.023603323,
			"-0.004": 15.3408755203,
			"-0.003": 19.3676252931,
			"-0.002": 16.4912875036,
			"-0.001": 12.4518298636,
			"0.0": 7.14194757184,
			"0.001": 7.64626699615,
			"0.002": 6.96528288351,
			"0.003": 5.06324718185,
			"0.004": 5.76810212641,
			"0.005": 8.3038626984,
			"0.006": 11.0168744515,
			"0.007": 12.5703195698,
			"0.008": 8.9749899121,
			"0.009": 10.0788375965,
			"0.01": 13.6825055457,
			"0.011": 13.6191873657,
			"0.012": 1.24935510261,
			"0.013": 0.0,
			"0.014": 0.0,
			"0.015": 0.0,
			"0.016": 0.0,
			"0.017": 0.0,
			"0.018": 0.0,
			"0.019": 0.0,
			"0.02": 0.0,
			"0.021": 0.0,
			"0.022": 0.0,
			"0.023": 0.0,
			"0.024": 0.0,
			"0.025": 0.0
		}
	}
}
