{
	 "smiles": "CC1=CC(OCCC(O)=O)=C(C)C=C1", 
	 "Tm": 391.15, 
	 "num_atms": 28, 
	 "gaussian": { 
		 "optdone": 1, 
		 "sigma_profile": "yes", 
		 "theory": "DFT", 
		 "functional": "B3LYP", 
		 "basiset": "6-31G**", 
		 "properties": { 
			 "R2extent": 4226.1758, 
			 "electric_dipole_moment_norm": 1.80275929064, 
			 "electric_quadrupole_moment_norm": 9.36657139086, 
			 "total_energy": -653.303129683, 
			 "HOMO_LUMO_gap": 0.21407, 
			 "cosmo_polarized_energy": -12.15, 
			 "cosmo_cavitation_energy": 31.93, 
			 "cosmo_dispersion_energy": -22.31, 
			 "cosmo_repulsion_energy": 1.8, 
			 "cosmo_total_nonelectrostatic_energy": 11.42, 
			 "SMD_solvation_energy": 6.84 
		},
		"coords": [
			{
				"x": -1.5530428061,
				"y": -0.2413891038,
				"z": 4.208280886,
				"element": "C" 
			},
			{
				"x": -1.0991183926,
				"y": 0.7462248869,
				"z": 3.1583364423,
				"element": "C" 
			},
			{
				"x": -0.5422908684,
				"y": 0.2838436559,
				"z": 1.9540036812,
				"element": "C" 
			},
			{
				"x": -0.1161446725,
				"y": 1.1827398721,
				"z": 0.9758572405,
				"element": "C" 
			},
			{
				"x": 0.4302791834,
				"y": 0.806359002,
				"z": -0.2243156969,
				"element": "O" 
			},
			{
				"x": 0.6051622646,
				"y": -0.5785515574,
				"z": -0.4962575223,
				"element": "C" 
			},
			{
				"x": 1.2770394763,
				"y": -0.681129888,
				"z": -1.8563172862,
				"element": "C" 
			},
			{
				"x": 2.7263807718,
				"y": -0.2358943203,
				"z": -1.80882731,
				"element": "C" 
			},
			{
				"x": 3.1278027848,
				"y": 0.2919085293,
				"z": -2.9878926646,
				"element": "O" 
			},
			{
				"x": 3.4664502866,
				"y": -0.3605241708,
				"z": -0.858785884,
				"element": "O" 
			},
			{
				"x": -0.2317711354,
				"y": 2.5765378858,
				"z": 1.1674878802,
				"element": "C" 
			},
			{
				"x": 0.2379080477,
				"y": 3.5300617007,
				"z": 0.0991639424,
				"element": "C" 
			},
			{
				"x": -0.7866907475,
				"y": 3.0156056175,
				"z": 2.3667947379,
				"element": "C" 
			},
			{
				"x": -1.2171640361,
				"y": 2.1216351439,
				"z": 3.3534054985,
				"element": "C" 
			},
			{
				"x": -2.3245996421,
				"y": -0.9157906041,
				"z": 3.8181858181,
				"element": "H" 
			},
			{
				"x": -0.7229236955,
				"y": -0.8691253501,
				"z": 4.5532496242,
				"element": "H" 
			},
			{
				"x": -1.9684822751,
				"y": 0.2698208506,
				"z": 5.081013885,
				"element": "H" 
			},
			{
				"x": -0.4463530294,
				"y": -0.7851394623,
				"z": 1.7973292559,
				"element": "H" 
			},
			{
				"x": 1.2394827841,
				"y": -1.0435082121,
				"z": 0.2680190176,
				"element": "H" 
			},
			{
				"x": -0.3665455491,
				"y": -1.0908361756,
				"z": -0.5118594412,
				"element": "H" 
			},
			{
				"x": 1.2702292586,
				"y": -1.7275705561,
				"z": -2.1870723609,
				"element": "H" 
			},
			{
				"x": 0.731706705,
				"y": -0.0999625819,
				"z": -2.6037788123,
				"element": "H" 
			},
			{
				"x": 4.0677980365,
				"y": 0.5156643287,
				"z": -2.8782226304,
				"element": "H" 
			},
			{
				"x": -0.297165043,
				"y": 3.3703020839,
				"z": -0.8438241405,
				"element": "H" 
			},
			{
				"x": 1.3023011854,
				"y": 3.3899631201,
				"z": -0.1199984435,
				"element": "H" 
			},
			{
				"x": 0.084073561,
				"y": 4.5670914435,
				"z": 0.409401831,
				"element": "H" 
			},
			{
				"x": -0.8843045775,
				"y": 4.0854524864,
				"z": 2.535221299,
				"element": "H" 
			},
			{
				"x": -1.6446178754,
				"y": 2.5018113754,
				"z": 4.2772011532,
				"element": "H" 
			}
		],
		 "valence_orbital": [ 
			{
				"type": "occ",
				"energy": -0.31818,
				"method": "rhf"
			},
			{
				"type": "occ",
				"energy": -0.30681,
				"method": "rhf"
			},
			{
				"type": "occ",
				"energy": -0.27962,
				"method": "rhf"
			},
			{
				"type": "occ",
				"energy": -0.23164,
				"method": "rhf"
			},
			{
				"type": "occ",
				"energy": -0.20845,
				"method": "rhf"
			},
			{
				"type": "unocc",
				"energy": 0.00562,
				"method": "rhf"
			},
			{
				"type": "unocc",
				"energy": 0.00838,
				"method": "rhf"
			},
			{
				"type": "unocc",
				"energy": 0.02234,
				"method": "rhf"
			},
			{
				"type": "unocc",
				"energy": 0.07647,
				"method": "rhf"
			},
			{
				"type": "unocc",
				"energy": 0.10002,
				"method": "rhf"
			}
		],
		"cosmo_sigma_profile": { 
			"-0.025": 0.0,
			"-0.024": 0.0,
			"-0.023": 0.0,
			"-0.022": 0.0,
			"-0.021": 0.0,
			"-0.02": 0.0,
			"-0.019": 0.0652682969188,
			"-0.018": 0.935648689328,
			"-0.017": 0.717548445086,
			"-0.016": 0.810328155684,
			"-0.015": 0.790338888747,
			"-0.014": 0.663265398659,
			"-0.013": 0.224861676576,
			"-0.012": 0.5598000385,
			"-0.011": 1.73173960516,
			"-0.01": 0.584000462957,
			"-0.009": 0.34870263138,
			"-0.008": 2.19159460601,
			"-0.007": 4.59461779065,
			"-0.006": 8.42288521086,
			"-0.005": 15.4172449376,
			"-0.004": 22.2739290047,
			"-0.003": 23.1240754863,
			"-0.002": 19.7865657973,
			"-0.001": 19.6435080989,
			"0.0": 23.0693417127,
			"0.001": 18.5019331276,
			"0.002": 12.598451562,
			"0.003": 11.8848781173,
			"0.004": 11.4633730839,
			"0.005": 11.9325468282,
			"0.006": 13.2572034967,
			"0.007": 9.02278342453,
			"0.008": 2.76295356408,
			"0.009": 3.25222292109,
			"0.01": 2.44780313749,
			"0.011": 3.97911095681,
			"0.012": 4.00065472106,
			"0.013": 0.103932720157,
			"0.014": 0.0,
			"0.015": 0.0,
			"0.016": 0.0,
			"0.017": 0.0,
			"0.018": 0.0,
			"0.019": 0.0,
			"0.02": 0.0,
			"0.021": 0.0,
			"0.022": 0.0,
			"0.023": 0.0,
			"0.024": 0.0,
			"0.0": 0.0
		}
	}
}
