{
	 "smiles": "CC1=CC=C(F)C(C#N)=C1Cl", 
	 "Tm": 332.15, 
	 "num_atms": 16, 
	 "gaussian": { 
		 "optdone": 1, 
		 "sigma_profile": "yes", 
		 "theory": "DFT", 
		 "functional": "B3LYP", 
		 "basiset": "6-31G**", 
		 "properties": { 
			 "R2extent": 2300.4884, 
			 "electric_dipole_moment_norm": 5.86515170563, 
			 "electric_quadrupole_moment_norm": 14.5699611719, 
			 "total_energy": -922.626558233, 
			 "HOMO_LUMO_gap": 0.19854, 
			 "cosmo_polarized_energy": -8.87, 
			 "cosmo_cavitation_energy": 23.47, 
			 "cosmo_dispersion_energy": -16.63, 
			 "cosmo_repulsion_energy": 1.31, 
			 "cosmo_total_nonelectrostatic_energy": 8.15, 
			 "SMD_solvation_energy": 5.59 
		},
		"coords": [
			{
				"x": 1.1860460592,
				"y": 0.336147106,
				"z": 1.4553365396,
				"element": "C" 
			},
			{
				"x": 0.2942295788,
				"y": -0.3916959103,
				"z": 0.4821371429,
				"element": "C" 
			},
			{
				"x": 0.3109930455,
				"y": -1.7915127799,
				"z": 0.3985636368,
				"element": "C" 
			},
			{
				"x": -0.4980110796,
				"y": -2.4996330065,
				"z": -0.4876873984,
				"element": "C" 
			},
			{
				"x": -1.3503098416,
				"y": -1.7896874383,
				"z": -1.3164736715,
				"element": "C" 
			},
			{
				"x": -2.1396567257,
				"y": -2.4442175802,
				"z": -2.1785926517,
				"element": "F" 
			},
			{
				"x": -1.4162171654,
				"y": -0.3885711859,
				"z": -1.283591934,
				"element": "C" 
			},
			{
				"x": -2.3146506177,
				"y": 0.2907384994,
				"z": -2.1623680202,
				"element": "C" 
			},
			{
				"x": -3.0522464596,
				"y": 0.8238973724,
				"z": -2.8856497452,
				"element": "N" 
			},
			{
				"x": -0.5815949891,
				"y": 0.2918834302,
				"z": -0.3728544208,
				"element": "C" 
			},
			{
				"x": -0.6529107193,
				"y": 2.0362291125,
				"z": -0.3208713073,
				"element": "Cl" 
			},
			{
				"x": 1.7894493678,
				"y": -0.3724825398,
				"z": 2.0271909687,
				"element": "H" 
			},
			{
				"x": 1.8628869142,
				"y": 1.0239967522,
				"z": 0.9379970498,
				"element": "H" 
			},
			{
				"x": 0.601000284,
				"y": 0.9358635759,
				"z": 2.1602842827,
				"element": "H" 
			},
			{
				"x": 0.9822269489,
				"y": -2.3409007564,
				"z": 1.0519870512,
				"element": "H" 
			},
			{
				"x": -0.4771346004,
				"y": -3.5817546512,
				"z": -0.5441075226,
				"element": "H" 
			}
		],
		 "valence_orbital": [ 
			{
				"type": "occ",
				"energy": -0.35015,
				"method": "rhf"
			},
			{
				"type": "occ",
				"energy": -0.34181,
				"method": "rhf"
			},
			{
				"type": "occ",
				"energy": -0.32861,
				"method": "rhf"
			},
			{
				"type": "occ",
				"energy": -0.2737,
				"method": "rhf"
			},
			{
				"type": "occ",
				"energy": -0.26446,
				"method": "rhf"
			},
			{
				"type": "unocc",
				"energy": -0.06592,
				"method": "rhf"
			},
			{
				"type": "unocc",
				"energy": -0.03126,
				"method": "rhf"
			},
			{
				"type": "unocc",
				"energy": 0.00772,
				"method": "rhf"
			},
			{
				"type": "unocc",
				"energy": 0.02906,
				"method": "rhf"
			},
			{
				"type": "unocc",
				"energy": 0.0639,
				"method": "rhf"
			}
		],
		"cosmo_sigma_profile": { 
			"-0.025": 0.0,
			"-0.024": 0.0,
			"-0.023": 0.0,
			"-0.022": 0.0,
			"-0.021": 0.0,
			"-0.02": 0.0,
			"-0.019": 0.0,
			"-0.018": 0.0,
			"-0.017": 0.0,
			"-0.016": 0.0,
			"-0.015": 0.0,
			"-0.014": 0.0,
			"-0.013": 0.0,
			"-0.012": 0.0,
			"-0.011": 0.0,
			"-0.01": 0.00415350211313,
			"-0.009": 1.26895440275,
			"-0.008": 3.6769662224,
			"-0.007": 5.97933506884,
			"-0.006": 5.3235592125,
			"-0.005": 7.33015123229,
			"-0.004": 11.011568956,
			"-0.003": 15.9405039439,
			"-0.002": 21.9395194932,
			"-0.001": 26.9438392566,
			"0.0": 16.6081318529,
			"0.001": 15.0656718747,
			"0.002": 14.6809049919,
			"0.003": 17.743776629,
			"0.004": 4.38874342758,
			"0.005": 3.34094194819,
			"0.006": 3.03592120952,
			"0.007": 2.91780107631,
			"0.008": 3.78889614544,
			"0.009": 3.05745854564,
			"0.01": 2.99904304968,
			"0.011": 2.34164105998,
			"0.012": 1.99990778128,
			"0.013": 0.370403928217,
			"0.014": 0.0,
			"0.015": 0.0,
			"0.016": 0.0,
			"0.017": 0.0,
			"0.018": 0.0,
			"0.019": 0.0,
			"0.02": 0.0,
			"0.021": 0.0,
			"0.022": 0.0,
			"0.023": 0.0,
			"0.024": 0.0,
			"0.025": 0.0
		}
	}
}
