{
	 "smiles": "CC1=NOC(=O)C1=NNC1=CC=CC=C1Cl", 
	 "Tm": 441.15, 
	 "num_atms": 24, 
	 "gaussian": { 
		 "optdone": 1, 
		 "sigma_profile": "yes", 
		 "theory": "DFT", 
		 "functional": "B3LYP", 
		 "basiset": "6-31G**", 
		 "properties": { 
			 "R2extent": 4835.7738, 
			 "electric_dipole_moment_norm": 8.80266347079, 
			 "electric_quadrupole_moment_norm": 17.6219426395, 
			 "total_energy": -1160.6849478, 
			 "HOMO_LUMO_gap": 0.14097, 
			 "cosmo_polarized_energy": -24.61, 
			 "cosmo_cavitation_energy": 31.66, 
			 "cosmo_dispersion_energy": -22.64, 
			 "cosmo_repulsion_energy": 1.76, 
			 "cosmo_total_nonelectrostatic_energy": 10.79, 
			 "SMD_solvation_energy": 5.47 
		},
		"coords": [
			{
				"x": -1.1339606873,
				"y": -0.2801753961,
				"z": -3.3729404166,
				"element": "C" 
			},
			{
				"x": 0.311735101,
				"y": -0.6372260577,
				"z": -3.2007783525,
				"element": "C" 
			},
			{
				"x": 0.984880239,
				"y": -1.038747969,
				"z": -4.2339418201,
				"element": "N" 
			},
			{
				"x": 2.3144956886,
				"y": -1.3258378617,
				"z": -3.8390928021,
				"element": "O" 
			},
			{
				"x": 2.4743726512,
				"y": -1.0966316881,
				"z": -2.4788089004,
				"element": "C" 
			},
			{
				"x": 3.5200582512,
				"y": -1.272673996,
				"z": -1.9118430627,
				"element": "O" 
			},
			{
				"x": 1.1485038633,
				"y": -0.6276279197,
				"z": -2.0064330625,
				"element": "C" 
			},
			{
				"x": 0.9733966934,
				"y": -0.3233751948,
				"z": -0.7544984749,
				"element": "N" 
			},
			{
				"x": -0.1931101983,
				"y": 0.1036789675,
				"z": -0.3125452038,
				"element": "N" 
			},
			{
				"x": -0.3849135141,
				"y": 0.5034879805,
				"z": 1.0282757793,
				"element": "C" 
			},
			{
				"x": -1.1838009602,
				"y": 1.6343313654,
				"z": 1.2523210478,
				"element": "C" 
			},
			{
				"x": -1.4567069635,
				"y": 2.0787591626,
				"z": 2.5415680024,
				"element": "C" 
			},
			{
				"x": -0.9156619868,
				"y": 1.4007102771,
				"z": 3.634557808,
				"element": "C" 
			},
			{
				"x": -0.1282078328,
				"y": 0.2698269007,
				"z": 3.428158304,
				"element": "C" 
			},
			{
				"x": 0.1282314419,
				"y": -0.1956206021,
				"z": 2.1366822087,
				"element": "C" 
			},
			{
				"x": 1.0317323971,
				"y": -1.6801723335,
				"z": 1.9637786629,
				"element": "Cl" 
			},
			{
				"x": -1.3210171696,
				"y": 0.7749855641,
				"z": -3.1372406624,
				"element": "H" 
			},
			{
				"x": -1.7786593979,
				"y": -0.8983018041,
				"z": -2.737006771,
				"element": "H" 
			},
			{
				"x": -1.4217337108,
				"y": -0.4465585179,
				"z": -4.4133971633,
				"element": "H" 
			},
			{
				"x": -0.9443564014,
				"y": 0.32351149,
				"z": -0.9607549297,
				"element": "H" 
			},
			{
				"x": -1.5736714407,
				"y": 2.1754420719,
				"z": 0.3940132712,
				"element": "H" 
			},
			{
				"x": -2.0746291753,
				"y": 2.9586431497,
				"z": 2.6883560528,
				"element": "H" 
			},
			{
				"x": -1.1094925877,
				"y": 1.742243959,
				"z": 4.6462164397,
				"element": "H" 
			},
			{
				"x": 0.2821156999,
				"y": -0.2793715479,
				"z": 4.2682540452,
				"element": "H" 
			}
		],
		 "valence_orbital": [ 
			{
				"type": "occ",
				"energy": -0.30542,
				"method": "rhf"
			},
			{
				"type": "occ",
				"energy": -0.28032,
				"method": "rhf"
			},
			{
				"type": "occ",
				"energy": -0.26586,
				"method": "rhf"
			},
			{
				"type": "occ",
				"energy": -0.26092,
				"method": "rhf"
			},
			{
				"type": "occ",
				"energy": -0.23463,
				"method": "rhf"
			},
			{
				"type": "unocc",
				"energy": -0.09366,
				"method": "rhf"
			},
			{
				"type": "unocc",
				"energy": -0.03421,
				"method": "rhf"
			},
			{
				"type": "unocc",
				"energy": -0.02447,
				"method": "rhf"
			},
			{
				"type": "unocc",
				"energy": 0.01387,
				"method": "rhf"
			},
			{
				"type": "unocc",
				"energy": 0.01908,
				"method": "rhf"
			}
		],
		"cosmo_sigma_profile": { 
			"-0.025": 0.0,
			"-0.024": 0.0,
			"-0.023": 0.0,
			"-0.022": 0.0,
			"-0.021": 0.0,
			"-0.02": 0.0,
			"-0.019": 0.0,
			"-0.018": 0.0,
			"-0.017": 0.0,
			"-0.016": 0.657425518024,
			"-0.015": 1.65192414342,
			"-0.014": 2.66809052927,
			"-0.013": 1.69319824302,
			"-0.012": 1.85428917429,
			"-0.011": 1.61839773473,
			"-0.01": 2.18990687478,
			"-0.009": 3.84451825518,
			"-0.008": 4.94276457335,
			"-0.007": 11.2715335565,
			"-0.006": 14.0401802284,
			"-0.005": 14.7937701925,
			"-0.004": 15.1489809568,
			"-0.003": 17.3905596635,
			"-0.002": 14.9151739785,
			"-0.001": 13.473444593,
			"0.0": 14.3990813872,
			"0.001": 18.0860698662,
			"0.002": 18.1131967228,
			"0.003": 19.4191309164,
			"0.004": 11.8360578516,
			"0.005": 5.99303983239,
			"0.006": 5.09787912406,
			"0.007": 5.71776039674,
			"0.008": 8.19091289477,
			"0.009": 7.47189849844,
			"0.01": 5.28948276565,
			"0.011": 8.33946586448,
			"0.012": 5.53258145328,
			"0.013": 1.20280593458,
			"0.014": 0.112200278217,
			"0.015": 0.0,
			"0.016": 0.0,
			"0.017": 0.0,
			"0.018": 0.0,
			"0.019": 0.0,
			"0.02": 0.0,
			"0.021": 0.0,
			"0.022": 0.0,
			"0.023": 0.0,
			"0.024": 0.0,
			"0.025": 0.0
		}
	}
}
