{
	 "smiles": "OC(=O)[C@@H]1CCCN1C(=O)OCC1=CC=CC=C1", 
	 "Tm": 349.65, 
	 "num_atms": 33, 
	 "gaussian": { 
		 "optdone": 1, 
		 "sigma_profile": "yes", 
		 "theory": "DFT", 
		 "functional": "B3LYP", 
		 "basiset": "6-31G**", 
		 "properties": { 
			 "R2extent": 6236.1306, 
			 "electric_dipole_moment_norm": 3.61850401547, 
			 "electric_quadrupole_moment_norm": 12.2374491599, 
			 "total_energy": -860.10784654, 
			 "HOMO_LUMO_gap": 0.23088, 
			 "cosmo_polarized_energy": -15.88, 
			 "cosmo_cavitation_energy": 36.59, 
			 "cosmo_dispersion_energy": -25.77, 
			 "cosmo_repulsion_energy": 2.04, 
			 "cosmo_total_nonelectrostatic_energy": 12.85, 
			 "SMD_solvation_energy": 7.43 
		},
		"coords": [
			{
				"x": 2.6990321218,
				"y": 0.6669447413,
				"z": 1.0984279755,
				"element": "O" 
			},
			{
				"x": 2.1084054027,
				"y": 1.8814714661,
				"z": 1.1709285309,
				"element": "C" 
			},
			{
				"x": 2.7309776575,
				"y": 2.9181646518,
				"z": 1.2147898632,
				"element": "O" 
			},
			{
				"x": 0.5834489986,
				"y": 1.8112738887,
				"z": 1.2673984104,
				"element": "C" 
			},
			{
				"x": 0.1151567098,
				"y": 1.8015894942,
				"z": 2.74283192,
				"element": "C" 
			},
			{
				"x": 0.0189377078,
				"y": 0.302743818,
				"z": 3.0776903227,
				"element": "C" 
			},
			{
				"x": -0.5042023891,
				"y": -0.3270799773,
				"z": 1.7763583533,
				"element": "C" 
			},
			{
				"x": 0.0017230811,
				"y": 0.5848957477,
				"z": 0.7410708686,
				"element": "N" 
			},
			{
				"x": 0.0296279353,
				"y": 0.3419877196,
				"z": -0.597121958,
				"element": "C" 
			},
			{
				"x": 0.5200300371,
				"y": 1.1051207236,
				"z": -1.4184609245,
				"element": "O" 
			},
			{
				"x": -0.5548431492,
				"y": -0.8498892502,
				"z": -0.8874944128,
				"element": "O" 
			},
			{
				"x": -0.6007595353,
				"y": -1.20751694,
				"z": -2.2937494337,
				"element": "C" 
			},
			{
				"x": -1.8928998514,
				"y": -0.7764617206,
				"z": -2.9440285625,
				"element": "C" 
			},
			{
				"x": -2.9515861671,
				"y": -1.6813109284,
				"z": -3.0865253657,
				"element": "C" 
			},
			{
				"x": -4.1506801753,
				"y": -1.2862530367,
				"z": -3.6819393564,
				"element": "C" 
			},
			{
				"x": -4.3021795447,
				"y": 0.0235787872,
				"z": -4.1397147718,
				"element": "C" 
			},
			{
				"x": -3.2513794707,
				"y": 0.9339642338,
				"z": -4.0006096882,
				"element": "C" 
			},
			{
				"x": -2.0526782184,
				"y": 0.5376703038,
				"z": -3.4078915792,
				"element": "C" 
			},
			{
				"x": 3.6546297046,
				"y": 0.8397208779,
				"z": 1.051165505,
				"element": "H" 
			},
			{
				"x": 0.2183071608,
				"y": 2.6862329581,
				"z": 0.7244261332,
				"element": "H" 
			},
			{
				"x": -0.8716644824,
				"y": 2.2725651685,
				"z": 2.8011038264,
				"element": "H" 
			},
			{
				"x": 0.7914488798,
				"y": 2.3587135803,
				"z": 3.3950438134,
				"element": "H" 
			},
			{
				"x": -0.6338568636,
				"y": 0.0984160731,
				"z": 3.9302316184,
				"element": "H" 
			},
			{
				"x": 1.0124044533,
				"y": -0.0941702246,
				"z": 3.3086304984,
				"element": "H" 
			},
			{
				"x": -1.600899968,
				"y": -0.3630333581,
				"z": 1.752322351,
				"element": "H" 
			},
			{
				"x": -0.1332240566,
				"y": -1.3419156628,
				"z": 1.6137626599,
				"element": "H" 
			},
			{
				"x": 0.2619752187,
				"y": -0.7592074356,
				"z": -2.7899314413,
				"element": "H" 
			},
			{
				"x": -0.5057827959,
				"y": -2.2957046373,
				"z": -2.3012565749,
				"element": "H" 
			},
			{
				"x": -2.8344748631,
				"y": -2.7026345414,
				"z": -2.7316456503,
				"element": "H" 
			},
			{
				"x": -4.9630802258,
				"y": -1.9994577573,
				"z": -3.7896359704,
				"element": "H" 
			},
			{
				"x": -5.2335509246,
				"y": 0.333299044,
				"z": -4.6055103951,
				"element": "H" 
			},
			{
				"x": -3.3646410428,
				"y": 1.9534236309,
				"z": -4.3586937697,
				"element": "H" 
			},
			{
				"x": -1.2339213448,
				"y": 1.2408585618,
				"z": -3.2897727958,
				"element": "H" 
			}
		],
		 "valence_orbital": [ 
			{
				"type": "occ",
				"energy": -0.28291,
				"method": "rhf"
			},
			{
				"type": "occ",
				"energy": -0.26935,
				"method": "rhf"
			},
			{
				"type": "occ",
				"energy": -0.24853,
				"method": "rhf"
			},
			{
				"type": "occ",
				"energy": -0.24614,
				"method": "rhf"
			},
			{
				"type": "occ",
				"energy": -0.23866,
				"method": "rhf"
			},
			{
				"type": "unocc",
				"energy": -0.00778,
				"method": "rhf"
			},
			{
				"type": "unocc",
				"energy": 0.00057,
				"method": "rhf"
			},
			{
				"type": "unocc",
				"energy": 0.00766,
				"method": "rhf"
			},
			{
				"type": "unocc",
				"energy": 0.04843,
				"method": "rhf"
			},
			{
				"type": "unocc",
				"energy": 0.06943,
				"method": "rhf"
			}
		],
		"cosmo_sigma_profile": { 
			"-0.025": 0.0,
			"-0.024": 0.0,
			"-0.023": 0.0,
			"-0.022": 0.0,
			"-0.021": 0.0,
			"-0.02": 0.0,
			"-0.019": 0.110017392047,
			"-0.018": 1.02541579854,
			"-0.017": 0.587361782006,
			"-0.016": 0.947493550644,
			"-0.015": 0.970687114661,
			"-0.014": 0.907702160075,
			"-0.013": 0.156441008185,
			"-0.012": 0.750176635771,
			"-0.011": 1.1105025696,
			"-0.01": 0.778638859502,
			"-0.009": 0.423900326931,
			"-0.008": 0.578518563935,
			"-0.007": 1.95922402742,
			"-0.006": 10.9703200312,
			"-0.005": 23.9478650496,
			"-0.004": 32.4117971316,
			"-0.003": 31.1897607895,
			"-0.002": 26.9717048801,
			"-0.001": 20.7128517594,
			"0.0": 14.5253831941,
			"0.001": 13.6527213609,
			"0.002": 14.725873632,
			"0.003": 13.7037727424,
			"0.004": 15.680688421,
			"0.005": 17.1209594045,
			"0.006": 12.7399957277,
			"0.007": 5.73499804724,
			"0.008": 2.91820708584,
			"0.009": 3.42013127203,
			"0.01": 3.61042297292,
			"0.011": 5.29691747483,
			"0.012": 6.46583040496,
			"0.013": 2.73961503793,
			"0.014": 0.0438250409535,
			"0.015": 0.0,
			"0.016": 0.0,
			"0.017": 0.0,
			"0.018": 0.0,
			"0.019": 0.0,
			"0.02": 0.0,
			"0.021": 0.0,
			"0.022": 0.0,
			"0.023": 0.0,
			"0.024": 0.0,
			"0.025": 0.0
		}
	}
}
