{
	 "smiles": "O=C1CC2(CCCCC2)CC(=O)N1", 
	 "Tm": 443.15, 
	 "num_atms": 28, 
	 "gaussian": { 
		 "optdone": 1, 
		 "sigma_profile": "yes", 
		 "theory": "DFT", 
		 "functional": "B3LYP", 
		 "basiset": "6-31G**", 
		 "properties": { 
			 "R2extent": 2512.7682, 
			 "electric_dipole_moment_norm": 3.49742407209, 
			 "electric_quadrupole_moment_norm": 10.5681181485, 
			 "total_energy": -595.346979201, 
			 "HOMO_LUMO_gap": 0.22973, 
			 "cosmo_polarized_energy": -12.61, 
			 "cosmo_cavitation_energy": 28.27, 
			 "cosmo_dispersion_energy": -20.63, 
			 "cosmo_repulsion_energy": 1.62, 
			 "cosmo_total_nonelectrostatic_energy": 9.27, 
			 "SMD_solvation_energy": 5.21 
		},
		"coords": [
			{
				"x": -0.7807040667,
				"y": 1.5564164846,
				"z": -2.8007570527,
				"element": "O" 
			},
			{
				"x": -1.0732888604,
				"y": 1.1566289993,
				"z": -1.6895500618,
				"element": "C" 
			},
			{
				"x": -0.111199455,
				"y": 1.1324864247,
				"z": -0.5153877393,
				"element": "C" 
			},
			{
				"x": -0.3709524333,
				"y": -0.0069697213,
				"z": 0.4991049704,
				"element": "C" 
			},
			{
				"x": -0.099970774,
				"y": -1.391110248,
				"z": -0.1402280603,
				"element": "C" 
			},
			{
				"x": 1.3648929842,
				"y": -1.5855024931,
				"z": -0.589385727,
				"element": "C" 
			},
			{
				"x": 2.3806131465,
				"y": -0.9594499777,
				"z": 0.3999047688,
				"element": "C" 
			},
			{
				"x": 1.7604534677,
				"y": -0.7875905158,
				"z": 1.791207706,
				"element": "C" 
			},
			{
				"x": 0.5426173461,
				"y": 0.1596665705,
				"z": 1.75908522,
				"element": "C" 
			},
			{
				"x": -1.8510457672,
				"y": 0.104387244,
				"z": 0.9225871437,
				"element": "C" 
			},
			{
				"x": -2.8452383143,
				"y": 0.1574777418,
				"z": -0.2248557736,
				"element": "C" 
			},
			{
				"x": -3.995658576,
				"y": -0.2290915935,
				"z": -0.1425976526,
				"element": "O" 
			},
			{
				"x": -2.3675546387,
				"y": 0.7161518446,
				"z": -1.4109282292,
				"element": "N" 
			},
			{
				"x": 0.8964363466,
				"y": 1.1090178127,
				"z": -0.9337154171,
				"element": "H" 
			},
			{
				"x": -0.2149936546,
				"y": 2.0998221468,
				"z": -0.0034238897,
				"element": "H" 
			},
			{
				"x": -0.3593673297,
				"y": -2.1545970569,
				"z": 0.6037910963,
				"element": "H" 
			},
			{
				"x": -0.7707766765,
				"y": -1.5645642125,
				"z": -0.9896239508,
				"element": "H" 
			},
			{
				"x": 1.5103420817,
				"y": -1.1636582612,
				"z": -1.5900252301,
				"element": "H" 
			},
			{
				"x": 1.5512119276,
				"y": -2.6608046006,
				"z": -0.6879291517,
				"element": "H" 
			},
			{
				"x": 2.7092802435,
				"y": 0.022511855,
				"z": 0.0358021353,
				"element": "H" 
			},
			{
				"x": 3.2839363695,
				"y": -1.5761828374,
				"z": 0.4569123619,
				"element": "H" 
			},
			{
				"x": 2.5015133217,
				"y": -0.4028790412,
				"z": 2.5007387862,
				"element": "H" 
			},
			{
				"x": 1.4567882921,
				"y": -1.7705941126,
				"z": 2.173555241,
				"element": "H" 
			},
			{
				"x": 0.8900510377,
				"y": 1.1991934513,
				"z": 1.8110806372,
				"element": "H" 
			},
			{
				"x": -0.0550589947,
				"y": -0.002971214,
				"z": 2.6640657377,
				"element": "H" 
			},
			{
				"x": -1.9962387367,
				"y": 1.0225272571,
				"z": 1.5101641842,
				"element": "H" 
			},
			{
				"x": -2.1531082335,
				"y": -0.7279215373,
				"z": 1.5643763162,
				"element": "H" 
			},
			{
				"x": -3.0251800538,
				"y": 0.7479995906,
				"z": -2.1835683691,
				"element": "H" 
			}
		],
		 "valence_orbital": [ 
			{
				"type": "occ",
				"energy": -0.31591,
				"method": "rhf"
			},
			{
				"type": "occ",
				"energy": -0.30815,
				"method": "rhf"
			},
			{
				"type": "occ",
				"energy": -0.28405,
				"method": "rhf"
			},
			{
				"type": "occ",
				"energy": -0.2761,
				"method": "rhf"
			},
			{
				"type": "occ",
				"energy": -0.25601,
				"method": "rhf"
			},
			{
				"type": "unocc",
				"energy": -0.02628,
				"method": "rhf"
			},
			{
				"type": "unocc",
				"energy": 0.03061,
				"method": "rhf"
			},
			{
				"type": "unocc",
				"energy": 0.06226,
				"method": "rhf"
			},
			{
				"type": "unocc",
				"energy": 0.08967,
				"method": "rhf"
			},
			{
				"type": "unocc",
				"energy": 0.09995,
				"method": "rhf"
			}
		],
		"cosmo_sigma_profile": { 
			"-0.025": 0.0,
			"-0.024": 0.0,
			"-0.023": 0.0,
			"-0.022": 0.0,
			"-0.021": 0.0,
			"-0.02": 0.0,
			"-0.019": 0.0,
			"-0.018": 0.0,
			"-0.017": 0.0,
			"-0.016": 0.0,
			"-0.015": 0.528190339427,
			"-0.014": 0.977556710023,
			"-0.013": 0.795862515213,
			"-0.012": 0.791721172993,
			"-0.011": 0.783192415772,
			"-0.01": 0.699249152713,
			"-0.009": 1.02895458006,
			"-0.008": 1.75534090684,
			"-0.007": 4.59375507472,
			"-0.006": 6.53490218953,
			"-0.005": 9.39472620821,
			"-0.004": 14.3133791306,
			"-0.003": 28.6220451251,
			"-0.002": 32.3830989366,
			"-0.001": 28.2576608568,
			"0.0": 24.1380113463,
			"0.001": 16.1234167525,
			"0.002": 4.53132383158,
			"0.003": 2.64914126702,
			"0.004": 1.73337470788,
			"0.005": 2.77708750232,
			"0.006": 2.79167011838,
			"0.007": 2.25321472675,
			"0.008": 2.03453598184,
			"0.009": 3.25962961682,
			"0.01": 3.24507257487,
			"0.011": 5.29057354212,
			"0.012": 10.7056985403,
			"0.013": 5.52166987904,
			"0.014": 0.494237199716,
			"0.015": 0.0,
			"0.016": 0.0,
			"0.017": 0.0,
			"0.018": 0.0,
			"0.019": 0.0,
			"0.02": 0.0,
			"0.021": 0.0,
			"0.022": 0.0,
			"0.023": 0.0,
			"0.024": 0.0,
			"0.025": 0.0
		}
	}
}
