{
	 "smiles": "CC(=O)OC1=CC(OC(C)=O)=C(OC(C)=O)C=C1", 
	 "Tm": 372.15, 
	 "num_atms": 30, 
	 "gaussian": { 
		 "optdone": 1, 
		 "sigma_profile": "yes", 
		 "theory": "DFT", 
		 "functional": "B3LYP", 
		 "basiset": "6-31G**", 
		 "properties": { 
			 "R2extent": 5965.728, 
			 "electric_dipole_moment_norm": 1.19999455832, 
			 "electric_quadrupole_moment_norm": 24.360263382, 
			 "total_energy": -915.875128207, 
			 "HOMO_LUMO_gap": 0.21698, 
			 "cosmo_polarized_energy": -16.49, 
			 "cosmo_cavitation_energy": 36.84, 
			 "cosmo_dispersion_energy": -24.81, 
			 "cosmo_repulsion_energy": 1.99, 
			 "cosmo_total_nonelectrostatic_energy": 14.02, 
			 "SMD_solvation_energy": 10.29 
		},
		"coords": [
			{
				"x": 2.9744295517,
				"y": 2.543108243,
				"z": 4.7346872846,
				"element": "C" 
			},
			{
				"x": 2.0476129704,
				"y": 1.832448366,
				"z": 3.7787386115,
				"element": "C" 
			},
			{
				"x": 0.85370382,
				"y": 1.7144509348,
				"z": 3.9177329153,
				"element": "O" 
			},
			{
				"x": 2.7740945616,
				"y": 1.3434686021,
				"z": 2.7295969143,
				"element": "O" 
			},
			{
				"x": 2.2555276316,
				"y": 0.6320488689,
				"z": 1.6516691873,
				"element": "C" 
			},
			{
				"x": 0.9160533003,
				"y": 0.2735379288,
				"z": 1.4798292732,
				"element": "C" 
			},
			{
				"x": 0.5634140268,
				"y": -0.4430060871,
				"z": 0.3394060449,
				"element": "C" 
			},
			{
				"x": -0.7779809279,
				"y": -0.7471227246,
				"z": 0.132814142,
				"element": "O" 
			},
			{
				"x": -1.1977753935,
				"y": -2.0264273308,
				"z": 0.4287973139,
				"element": "C" 
			},
			{
				"x": -2.6735685631,
				"y": -2.1522677259,
				"z": 0.1485532622,
				"element": "C" 
			},
			{
				"x": -0.4705144138,
				"y": -2.8847292666,
				"z": 0.8560341507,
				"element": "O" 
			},
			{
				"x": 1.5143934071,
				"y": -0.8016455209,
				"z": -0.6146707235,
				"element": "C" 
			},
			{
				"x": 1.1494575787,
				"y": -1.5687738919,
				"z": -1.7162811688,
				"element": "O" 
			},
			{
				"x": 0.6062350046,
				"y": -0.9128288392,
				"z": -2.7999493002,
				"element": "C" 
			},
			{
				"x": 0.2618086922,
				"y": -1.9110347752,
				"z": -3.8760132326,
				"element": "C" 
			},
			{
				"x": 0.4524337146,
				"y": 0.2797706484,
				"z": -2.8494608681,
				"element": "O" 
			},
			{
				"x": 2.8447517621,
				"y": -0.4400819288,
				"z": -0.4283324666,
				"element": "C" 
			},
			{
				"x": 3.2193387929,
				"y": 0.2742188073,
				"z": 0.7050261822,
				"element": "C" 
			},
			{
				"x": 3.7428563003,
				"y": 1.8533954758,
				"z": 5.0959513763,
				"element": "H" 
			},
			{
				"x": 2.3965268455,
				"y": 2.9301611772,
				"z": 5.573040639,
				"element": "H" 
			},
			{
				"x": 3.4859500175,
				"y": 3.3632012705,
				"z": 4.2222621819,
				"element": "H" 
			},
			{
				"x": 0.1616018609,
				"y": 0.5439761024,
				"z": 2.2017655501,
				"element": "H" 
			},
			{
				"x": -3.232174476,
				"y": -1.4705221987,
				"z": 0.7969578042,
				"element": "H" 
			},
			{
				"x": -2.9897821807,
				"y": -3.1787258844,
				"z": 0.3303419324,
				"element": "H" 
			},
			{
				"x": -2.8887435506,
				"y": -1.8655915024,
				"z": -0.8845935352,
				"element": "H" 
			},
			{
				"x": -0.4355312155,
				"y": -2.658250785,
				"z": -3.4865250173,
				"element": "H" 
			},
			{
				"x": -0.1803552076,
				"y": -1.3901192846,
				"z": -4.7243894476,
				"element": "H" 
			},
			{
				"x": 1.1632075846,
				"y": -2.4441468987,
				"z": -4.1924108699,
				"element": "H" 
			},
			{
				"x": 3.5785053311,
				"y": -0.7269631715,
				"z": -1.1736626386,
				"element": "H" 
			},
			{
				"x": 4.2508231743,
				"y": 0.5654513914,
				"z": 0.8681845026,
				"element": "H" 
			}
		],
		 "valence_orbital": [ 
			{
				"type": "occ",
				"energy": -0.28322,
				"method": "rhf"
			},
			{
				"type": "occ",
				"energy": -0.28113,
				"method": "rhf"
			},
			{
				"type": "occ",
				"energy": -0.27832,
				"method": "rhf"
			},
			{
				"type": "occ",
				"energy": -0.25974,
				"method": "rhf"
			},
			{
				"type": "occ",
				"energy": -0.23892,
				"method": "rhf"
			},
			{
				"type": "unocc",
				"energy": -0.02194,
				"method": "rhf"
			},
			{
				"type": "unocc",
				"energy": -0.01381,
				"method": "rhf"
			},
			{
				"type": "unocc",
				"energy": 0.00345,
				"method": "rhf"
			},
			{
				"type": "unocc",
				"energy": 0.00621,
				"method": "rhf"
			},
			{
				"type": "unocc",
				"energy": 0.01898,
				"method": "rhf"
			}
		],
		"cosmo_sigma_profile": { 
			"-0.025": 0.0,
			"-0.024": 0.0,
			"-0.023": 0.0,
			"-0.022": 0.0,
			"-0.021": 0.0,
			"-0.02": 0.0,
			"-0.019": 0.0,
			"-0.018": 0.0,
			"-0.017": 0.0,
			"-0.016": 0.0,
			"-0.015": 0.0,
			"-0.014": 0.0,
			"-0.013": 0.0,
			"-0.012": 0.0,
			"-0.011": 0.0,
			"-0.01": 0.0,
			"-0.009": 0.0207967485062,
			"-0.008": 2.26812010876,
			"-0.007": 13.6435609892,
			"-0.006": 24.2594704296,
			"-0.005": 24.2649225088,
			"-0.004": 26.302460893,
			"-0.003": 28.5011207215,
			"-0.002": 28.8507837667,
			"-0.001": 14.2583759363,
			"0.0": 14.443866297,
			"0.001": 17.8407910686,
			"0.002": 17.5844752702,
			"0.003": 10.6278667877,
			"0.004": 8.22653723484,
			"0.005": 9.2081350235,
			"0.006": 8.06724715292,
			"0.007": 7.80618236925,
			"0.008": 7.26222413482,
			"0.009": 6.46984713683,
			"0.01": 8.31037839076,
			"0.011": 12.2642002246,
			"0.012": 3.45088568079,
			"0.013": 0.0,
			"0.014": 0.0,
			"0.015": 0.0,
			"0.016": 0.0,
			"0.017": 0.0,
			"0.018": 0.0,
			"0.019": 0.0,
			"0.02": 0.0,
			"0.021": 0.0,
			"0.022": 0.0,
			"0.023": 0.0,
			"0.024": 0.0,
			"0.025": 0.0
		}
	}
}
