{
	 "smiles": "CC(C)CCN1N=C(C(O)=O)C2=C(C=CC=C2)C1=O", 
	 "Tm": 407.15, 
	 "num_atms": 35, 
	 "gaussian": { 
		 "optdone": 1, 
		 "sigma_profile": "yes", 
		 "theory": "DFT", 
		 "functional": "B3LYP", 
		 "basiset": "6-31G**", 
		 "properties": { 
			 "R2extent": 6215.9389, 
			 "electric_dipole_moment_norm": 2.57169549714, 
			 "electric_quadrupole_moment_norm": 24.0572985433, 
			 "total_energy": -878.337829638, 
			 "HOMO_LUMO_gap": 0.16411, 
			 "cosmo_polarized_energy": -13.24, 
			 "cosmo_cavitation_energy": 38.06, 
			 "cosmo_dispersion_energy": -26.85, 
			 "cosmo_repulsion_energy": 2.05, 
			 "cosmo_total_nonelectrostatic_energy": 13.27, 
			 "SMD_solvation_energy": 7.23 
		},
		"coords": [
			{
				"x": -2.1549683677,
				"y": 3.0119148926,
				"z": -2.9859744066,
				"element": "C" 
			},
			{
				"x": -0.6791056605,
				"y": 2.5865312002,
				"z": -3.0494013167,
				"element": "C" 
			},
			{
				"x": 0.257353098,
				"y": 3.7828056708,
				"z": -2.8148586863,
				"element": "C" 
			},
			{
				"x": -0.3626591264,
				"y": 1.3946586436,
				"z": -2.1186305394,
				"element": "C" 
			},
			{
				"x": -0.5370845729,
				"y": 1.6786253551,
				"z": -0.6201966003,
				"element": "C" 
			},
			{
				"x": -0.2414845021,
				"y": 0.4899588046,
				"z": 0.1962657898,
				"element": "N" 
			},
			{
				"x": -1.2748010387,
				"y": -0.3250675768,
				"z": 0.4408879243,
				"element": "N" 
			},
			{
				"x": -1.1156061969,
				"y": -1.4234530183,
				"z": 1.1319725592,
				"element": "C" 
			},
			{
				"x": -2.3980614321,
				"y": -2.203458277,
				"z": 1.3077179888,
				"element": "C" 
			},
			{
				"x": -3.4721017138,
				"y": -1.6393047148,
				"z": 0.7308810774,
				"element": "O" 
			},
			{
				"x": -2.4778794173,
				"y": -3.2508902388,
				"z": 1.9116302189,
				"element": "O" 
			},
			{
				"x": 0.1695327413,
				"y": -1.8304758403,
				"z": 1.6672347541,
				"element": "C" 
			},
			{
				"x": 1.2640774696,
				"y": -0.9746126521,
				"z": 1.3946432203,
				"element": "C" 
			},
			{
				"x": 2.5480292726,
				"y": -1.2823246186,
				"z": 1.8684655679,
				"element": "C" 
			},
			{
				"x": 2.74834727,
				"y": -2.4339600682,
				"z": 2.6135995435,
				"element": "C" 
			},
			{
				"x": 1.6673856702,
				"y": -3.2884979819,
				"z": 2.8882859986,
				"element": "C" 
			},
			{
				"x": 0.3915870953,
				"y": -3.0003481991,
				"z": 2.4257644852,
				"element": "C" 
			},
			{
				"x": 1.082943563,
				"y": 0.2507137597,
				"z": 0.604358153,
				"element": "C" 
			},
			{
				"x": 1.9757357836,
				"y": 1.0345110263,
				"z": 0.3004465119,
				"element": "O" 
			},
			{
				"x": -2.4133295336,
				"y": 3.4469554012,
				"z": -2.0135020674,
				"element": "H" 
			},
			{
				"x": -2.3723715753,
				"y": 3.7709080767,
				"z": -3.7447725846,
				"element": "H" 
			},
			{
				"x": -2.8253146913,
				"y": 2.1632978017,
				"z": -3.1624123606,
				"element": "H" 
			},
			{
				"x": -0.4908328807,
				"y": 2.2207205213,
				"z": -4.0685076312,
				"element": "H" 
			},
			{
				"x": 1.3094604676,
				"y": 3.4814476356,
				"z": -2.8540987523,
				"element": "H" 
			},
			{
				"x": 0.0819170383,
				"y": 4.2523445596,
				"z": -1.8401958597,
				"element": "H" 
			},
			{
				"x": 0.099390439,
				"y": 4.5530626278,
				"z": -3.5771038669,
				"element": "H" 
			},
			{
				"x": -1.0071732394,
				"y": 0.5474090828,
				"z": -2.3861338717,
				"element": "H" 
			},
			{
				"x": 0.6730805645,
				"y": 1.0760055244,
				"z": -2.282850821,
				"element": "H" 
			},
			{
				"x": 0.1469907175,
				"y": 2.4596318009,
				"z": -0.2873727841,
				"element": "H" 
			},
			{
				"x": -1.5613321298,
				"y": 1.9682887157,
				"z": -0.3788365579,
				"element": "H" 
			},
			{
				"x": -3.1679326197,
				"y": -0.8122771256,
				"z": 0.3084453554,
				"element": "H" 
			},
			{
				"x": 3.3578776161,
				"y": -0.6000503796,
				"z": 1.6348636748,
				"element": "H" 
			},
			{
				"x": 3.7395630537,
				"y": -2.6767072013,
				"z": 2.9845816097,
				"element": "H" 
			},
			{
				"x": 1.8296785359,
				"y": -4.1902094422,
				"z": 3.4714491296,
				"element": "H" 
			},
			{
				"x": -0.4437116982,
				"y": -3.6552537659,
				"z": 2.6331551443,
				"element": "H" 
			}
		],
		 "valence_orbital": [ 
			{
				"type": "occ",
				"energy": -0.29348,
				"method": "rhf"
			},
			{
				"type": "occ",
				"energy": -0.2782,
				"method": "rhf"
			},
			{
				"type": "occ",
				"energy": -0.27288,
				"method": "rhf"
			},
			{
				"type": "occ",
				"energy": -0.26756,
				"method": "rhf"
			},
			{
				"type": "occ",
				"energy": -0.24396,
				"method": "rhf"
			},
			{
				"type": "unocc",
				"energy": -0.07985,
				"method": "rhf"
			},
			{
				"type": "unocc",
				"energy": -0.05604,
				"method": "rhf"
			},
			{
				"type": "unocc",
				"energy": -0.01469,
				"method": "rhf"
			},
			{
				"type": "unocc",
				"energy": 0.0498,
				"method": "rhf"
			},
			{
				"type": "unocc",
				"energy": 0.07016,
				"method": "rhf"
			}
		],
		"cosmo_sigma_profile": { 
			"-0.025": 0.0,
			"-0.024": 0.0,
			"-0.023": 0.0,
			"-0.022": 0.0,
			"-0.021": 0.0,
			"-0.02": 0.0,
			"-0.019": 0.0,
			"-0.018": 0.0,
			"-0.017": 0.0,
			"-0.016": 0.0,
			"-0.015": 0.0,
			"-0.014": 0.0998471451754,
			"-0.013": 0.548801829523,
			"-0.012": 0.533341315744,
			"-0.011": 0.52720841068,
			"-0.01": 1.02799549751,
			"-0.009": 0.631254400744,
			"-0.008": 0.84633455011,
			"-0.007": 5.11133882231,
			"-0.006": 9.19876233222,
			"-0.005": 17.3472480315,
			"-0.004": 19.4671356542,
			"-0.003": 31.9455915362,
			"-0.002": 38.6076237851,
			"-0.001": 36.0460355093,
			"0.0": 30.7402293117,
			"0.001": 31.3927488711,
			"0.002": 20.9725365602,
			"0.003": 9.30850696242,
			"0.004": 4.31380379221,
			"0.005": 3.59949421416,
			"0.006": 4.04372460806,
			"0.007": 4.5775397586,
			"0.008": 3.84728839029,
			"0.009": 5.18450155055,
			"0.01": 7.43858961424,
			"0.011": 5.07652151726,
			"0.012": 6.19091978239,
			"0.013": 2.70391598855,
			"0.014": 0.0,
			"0.015": 0.0,
			"0.016": 0.0,
			"0.017": 0.0,
			"0.018": 0.0,
			"0.019": 0.0,
			"0.02": 0.0,
			"0.021": 0.0,
			"0.022": 0.0,
			"0.023": 0.0,
			"0.024": 0.0,
			"0.025": 0.0
		}
	}
}
