{
	 "smiles": "CC1=C(Cl)C(O)=C(C(C)=C1Cl)[N+]([O-])=O", 
	 "Tm": 501.15, 
	 "num_atms": 21, 
	 "gaussian": { 
		 "optdone": 1, 
		 "sigma_profile": "yes", 
		 "theory": "DFT", 
		 "functional": "B3LYP", 
		 "basiset": "6-31G**", 
		 "properties": { 
			 "R2extent": 4203.4048, 
			 "electric_dipole_moment_norm": 3.90314691755, 
			 "electric_quadrupole_moment_norm": 17.5037538888, 
			 "total_energy": -1509.77183632, 
			 "HOMO_LUMO_gap": 0.16452, 
			 "cosmo_polarized_energy": -9.65, 
			 "cosmo_cavitation_energy": 28.42, 
			 "cosmo_dispersion_energy": -21.04, 
			 "cosmo_repulsion_energy": 1.64, 
			 "cosmo_total_nonelectrostatic_energy": 9.02, 
			 "SMD_solvation_energy": 7.26 
		},
		"coords": [
			{
				"x": 1.1768584756,
				"y": 2.3049515564,
				"z": -0.1838562596,
				"element": "C" 
			},
			{
				"x": 0.0019239102,
				"y": 1.3723518861,
				"z": -0.0478337345,
				"element": "C" 
			},
			{
				"x": -0.7523540844,
				"y": 0.9432976724,
				"z": -1.1469607056,
				"element": "C" 
			},
			{
				"x": -0.361271569,
				"y": 1.4617315675,
				"z": -2.7879788355,
				"element": "Cl" 
			},
			{
				"x": -1.8518191652,
				"y": 0.0809656854,
				"z": -1.0209323524,
				"element": "C" 
			},
			{
				"x": -2.5766119272,
				"y": -0.3581225513,
				"z": -2.0667755825,
				"element": "O" 
			},
			{
				"x": -2.1797758695,
				"y": -0.3689224766,
				"z": 0.2647825714,
				"element": "C" 
			},
			{
				"x": -1.4682466217,
				"y": 0.0061292966,
				"z": 1.4097978222,
				"element": "C" 
			},
			{
				"x": -1.8396490359,
				"y": -0.4668530146,
				"z": 2.7929742013,
				"element": "C" 
			},
			{
				"x": -0.390999225,
				"y": 0.8838135903,
				"z": 1.2104702635,
				"element": "C" 
			},
			{
				"x": 0.5292546915,
				"y": 1.4019634422,
				"z": 2.6199010889,
				"element": "Cl" 
			},
			{
				"x": -3.3361699336,
				"y": -1.277332833,
				"z": 0.3782957106,
				"element": "N" 
			},
			{
				"x": -3.1326947446,
				"y": -2.3878828806,
				"z": 0.8670273676,
				"element": "O" 
			},
			{
				"x": -4.4180393959,
				"y": -0.8573115407,
				"z": -0.0148306828,
				"element": "O" 
			},
			{
				"x": 1.3459944771,
				"y": 2.5924419829,
				"z": -1.2200102259,
				"element": "H" 
			},
			{
				"x": 2.0864591591,
				"y": 1.8327374962,
				"z": 0.2001101709,
				"element": "H" 
			},
			{
				"x": 1.0152195888,
				"y": 3.2114028727,
				"z": 0.407682138,
				"element": "H" 
			},
			{
				"x": -2.2140114475,
				"y": 0.0202964566,
				"z": -2.8831066634,
				"element": "H" 
			},
			{
				"x": -2.7337947551,
				"y": -1.0859637996,
				"z": 2.7932352719,
				"element": "H" 
			},
			{
				"x": -1.9960996598,
				"y": 0.3900121893,
				"z": 3.4543575992,
				"element": "H" 
			},
			{
				"x": -1.024072868,
				"y": -1.0582065983,
				"z": 3.2210508367,
				"element": "H" 
			}
		],
		 "valence_orbital": [ 
			{
				"type": "occ",
				"energy": -0.31293,
				"method": "rhf"
			},
			{
				"type": "occ",
				"energy": -0.3073,
				"method": "rhf"
			},
			{
				"type": "occ",
				"energy": -0.30442,
				"method": "rhf"
			},
			{
				"type": "occ",
				"energy": -0.26731,
				"method": "rhf"
			},
			{
				"type": "occ",
				"energy": -0.24588,
				"method": "rhf"
			},
			{
				"type": "unocc",
				"energy": -0.08136,
				"method": "rhf"
			},
			{
				"type": "unocc",
				"energy": -0.03397,
				"method": "rhf"
			},
			{
				"type": "unocc",
				"energy": -0.02657,
				"method": "rhf"
			},
			{
				"type": "unocc",
				"energy": -0.01531,
				"method": "rhf"
			},
			{
				"type": "unocc",
				"energy": 0.03559,
				"method": "rhf"
			}
		],
		"cosmo_sigma_profile": { 
			"-0.025": 0.0,
			"-0.024": 0.0,
			"-0.023": 0.0,
			"-0.022": 0.0,
			"-0.021": 0.0,
			"-0.02": 0.0,
			"-0.019": 0.0,
			"-0.018": 0.0,
			"-0.017": 0.0826751756192,
			"-0.016": 0.764820466225,
			"-0.015": 0.498311934791,
			"-0.014": 0.371546259551,
			"-0.013": 0.887593673727,
			"-0.012": 1.01245654155,
			"-0.011": 0.752617947334,
			"-0.01": 1.15053726493,
			"-0.009": 0.972106816203,
			"-0.008": 1.50856045886,
			"-0.007": 1.90559717896,
			"-0.006": 4.491577534,
			"-0.005": 11.0509133265,
			"-0.004": 14.1915378219,
			"-0.003": 20.1400420437,
			"-0.002": 29.0889006919,
			"-0.001": 31.0179697334,
			"0.0": 22.969679922,
			"0.001": 13.5977855688,
			"0.002": 14.7826455635,
			"0.003": 13.179054644,
			"0.004": 9.04030358683,
			"0.005": 4.93685034351,
			"0.006": 5.90320474516,
			"0.007": 11.9189665245,
			"0.008": 8.82988961395,
			"0.009": 4.91271919232,
			"0.01": 1.24680584926,
			"0.011": 0.00119219504773,
			"0.012": 0.0,
			"0.013": 0.0,
			"0.014": 0.0,
			"0.015": 0.0,
			"0.016": 0.0,
			"0.017": 0.0,
			"0.018": 0.0,
			"0.019": 0.0,
			"0.02": 0.0,
			"0.021": 0.0,
			"0.022": 0.0,
			"0.023": 0.0,
			"0.024": 0.0,
			"0.025": 0.0
		}
	}
}
