{
	 "smiles": "OC(=O)C1=CCCC2=C1C=CC=C2", 
	 "Tm": 398.15, 
	 "num_atms": 23, 
	 "gaussian": { 
		 "optdone": 1, 
		 "sigma_profile": "yes", 
		 "theory": "DFT", 
		 "functional": "B3LYP", 
		 "basiset": "6-31G**", 
		 "properties": { 
			 "R2extent": 2452.8745, 
			 "electric_dipole_moment_norm": 4.7122702448, 
			 "electric_quadrupole_moment_norm": 12.7588425749, 
			 "total_energy": -575.64917049, 
			 "HOMO_LUMO_gap": 0.17512, 
			 "cosmo_polarized_energy": -14.36, 
			 "cosmo_cavitation_energy": 26.03, 
			 "cosmo_dispersion_energy": -19.46, 
			 "cosmo_repulsion_energy": 1.53, 
			 "cosmo_total_nonelectrostatic_energy": 8.1, 
			 "SMD_solvation_energy": 4.96 
		},
		"coords": [
			{
				"x": 3.3454811675,
				"y": -0.946181372,
				"z": -1.3845009163,
				"element": "O" 
			},
			{
				"x": 1.997717793,
				"y": -0.9765795153,
				"z": -1.1894548782,
				"element": "C" 
			},
			{
				"x": 1.3265511892,
				"y": -1.8013017409,
				"z": -1.763257233,
				"element": "O" 
			},
			{
				"x": 1.4431655728,
				"y": 0.0731507563,
				"z": -0.265721294,
				"element": "C" 
			},
			{
				"x": 2.0046418907,
				"y": 1.3016142929,
				"z": -0.2345050326,
				"element": "C" 
			},
			{
				"x": 1.4549750222,
				"y": 2.4040274733,
				"z": 0.6305626534,
				"element": "C" 
			},
			{
				"x": -0.0649690269,
				"y": 2.2632382786,
				"z": 0.7842458672,
				"element": "C" 
			},
			{
				"x": -0.4655336769,
				"y": 0.8447717365,
				"z": 1.1310040468,
				"element": "C" 
			},
			{
				"x": 0.2513611495,
				"y": -0.2323966253,
				"z": 0.5597797994,
				"element": "C" 
			},
			{
				"x": -0.1578467151,
				"y": -1.5473784801,
				"z": 0.8305890762,
				"element": "C" 
			},
			{
				"x": -1.2529151857,
				"y": -1.7951597901,
				"z": 1.6571733935,
				"element": "C" 
			},
			{
				"x": -1.9552179231,
				"y": -0.7321509459,
				"z": 2.2238307501,
				"element": "C" 
			},
			{
				"x": -1.5589750401,
				"y": 0.5798632412,
				"z": 1.9554468737,
				"element": "C" 
			},
			{
				"x": 3.7456864629,
				"y": -0.3435705124,
				"z": -0.7417823788,
				"element": "H" 
			},
			{
				"x": 2.8666662833,
				"y": 1.5262514985,
				"z": -0.8593175666,
				"element": "H" 
			},
			{
				"x": 1.7092197442,
				"y": 3.3826078308,
				"z": 0.2106117468,
				"element": "H" 
			},
			{
				"x": 1.9403567226,
				"y": 2.3569368156,
				"z": 1.6186653255,
				"element": "H" 
			},
			{
				"x": -0.540336629,
				"y": 2.541482883,
				"z": -0.1681794039,
				"element": "H" 
			},
			{
				"x": -0.4414402431,
				"y": 2.9624510999,
				"z": 1.5376666212,
				"element": "H" 
			},
			{
				"x": 0.3744966705,
				"y": -2.3763989478,
				"z": 0.3804660825,
				"element": "H" 
			},
			{
				"x": -1.5552146104,
				"y": -2.8190960922,
				"z": 1.855789594,
				"element": "H" 
			},
			{
				"x": -2.8076982672,
				"y": -0.9200257662,
				"z": 2.8702768595,
				"element": "H" 
			},
			{
				"x": -2.1079723508,
				"y": 1.4112438815,
				"z": 2.3911100135,
				"element": "H" 
			}
		],
		 "valence_orbital": [ 
			{
				"type": "occ",
				"energy": -0.31656,
				"method": "rhf"
			},
			{
				"type": "occ",
				"energy": -0.29882,
				"method": "rhf"
			},
			{
				"type": "occ",
				"energy": -0.26841,
				"method": "rhf"
			},
			{
				"type": "occ",
				"energy": -0.24742,
				"method": "rhf"
			},
			{
				"type": "occ",
				"energy": -0.22901,
				"method": "rhf"
			},
			{
				"type": "unocc",
				"energy": -0.05389,
				"method": "rhf"
			},
			{
				"type": "unocc",
				"energy": -0.00537,
				"method": "rhf"
			},
			{
				"type": "unocc",
				"energy": 0.00194,
				"method": "rhf"
			},
			{
				"type": "unocc",
				"energy": 0.06772,
				"method": "rhf"
			},
			{
				"type": "unocc",
				"energy": 0.07418,
				"method": "rhf"
			}
		],
		"cosmo_sigma_profile": { 
			"-0.025": 0.0,
			"-0.024": 0.0,
			"-0.023": 0.0,
			"-0.022": 0.0,
			"-0.021": 0.0,
			"-0.02": 0.0,
			"-0.019": 0.0,
			"-0.018": 0.502939952599,
			"-0.017": 1.0336439222,
			"-0.016": 0.608432649777,
			"-0.015": 1.33845803988,
			"-0.014": 0.643857668704,
			"-0.013": 0.825108611036,
			"-0.012": 1.02951229964,
			"-0.011": 1.18370240807,
			"-0.01": 0.799610582745,
			"-0.009": 1.75641401176,
			"-0.008": 1.71804409564,
			"-0.007": 1.69166285056,
			"-0.006": 4.71674641975,
			"-0.005": 14.8368167168,
			"-0.004": 22.0799662465,
			"-0.003": 23.4379476086,
			"-0.002": 19.7413164663,
			"-0.001": 15.1499294823,
			"0.0": 10.6806658734,
			"0.001": 9.31473544576,
			"0.002": 10.0486007904,
			"0.003": 9.02165566768,
			"0.004": 9.03993822029,
			"0.005": 11.1577006827,
			"0.006": 8.394783242,
			"0.007": 2.79862671292,
			"0.008": 3.26689105468,
			"0.009": 3.6586550508,
			"0.01": 4.44723980548,
			"0.011": 5.26218066338,
			"0.012": 5.19597449105,
			"0.013": 1.65008617761,
			"0.014": 0.0398733220879,
			"0.015": 0.0,
			"0.016": 0.0,
			"0.017": 0.0,
			"0.018": 0.0,
			"0.019": 0.0,
			"0.02": 0.0,
			"0.021": 0.0,
			"0.022": 0.0,
			"0.023": 0.0,
			"0.024": 0.0,
			"0.025": 0.0
		}
	}
}
