{
	 "smiles": "CS(=O)(=O)CC1=C(Cl)C=CC(N)=C1", 
	 "Tm": 409.15, 
	 "num_atms": 23, 
	 "gaussian": { 
		 "optdone": 1, 
		 "sigma_profile": "yes", 
		 "theory": "DFT", 
		 "functional": "B3LYP", 
		 "basiset": "6-31G**", 
		 "properties": { 
			 "R2extent": 3255.8809, 
			 "electric_dipole_moment_norm": 5.35017113558, 
			 "electric_quadrupole_moment_norm": 22.4236435476, 
			 "total_energy": -1374.40442472, 
			 "HOMO_LUMO_gap": 0.18574, 
			 "cosmo_polarized_energy": -18.76, 
			 "cosmo_cavitation_energy": 29.56, 
			 "cosmo_dispersion_energy": -21.56, 
			 "cosmo_repulsion_energy": 1.66, 
			 "cosmo_total_nonelectrostatic_energy": 9.66, 
			 "SMD_solvation_energy": 4.26 
		},
		"coords": [
			{
				"x": 1.9671198065,
				"y": -0.9473227317,
				"z": -1.0724606606,
				"element": "C" 
			},
			{
				"x": 0.9868751537,
				"y": -2.1012080261,
				"z": -0.088263078,
				"element": "S" 
			},
			{
				"x": 1.9053809677,
				"y": -3.0156112744,
				"z": 0.6081713225,
				"element": "O" 
			},
			{
				"x": -0.0827356477,
				"y": -2.6374388371,
				"z": -0.9472245293,
				"element": "O" 
			},
			{
				"x": 0.2113308228,
				"y": -1.0534706951,
				"z": 1.2078651691,
				"element": "C" 
			},
			{
				"x": -0.6267056062,
				"y": 0.0815250581,
				"z": 0.6903801662,
				"element": "C" 
			},
			{
				"x": -0.2286643383,
				"y": 1.4244672183,
				"z": 0.7927758054,
				"element": "C" 
			},
			{
				"x": 1.3109966022,
				"y": 1.8725690556,
				"z": 1.5352317661,
				"element": "Cl" 
			},
			{
				"x": -1.0477836685,
				"y": 2.4482606058,
				"z": 0.3166724805,
				"element": "C" 
			},
			{
				"x": -2.2658317614,
				"y": 2.1512602819,
				"z": -0.2815697982,
				"element": "C" 
			},
			{
				"x": -2.6886584611,
				"y": 0.8161042693,
				"z": -0.4150281825,
				"element": "C" 
			},
			{
				"x": -3.8736170193,
				"y": 0.506607765,
				"z": -1.0699693494,
				"element": "N" 
			},
			{
				"x": -1.8571232712,
				"y": -0.1983907766,
				"z": 0.0827984631,
				"element": "C" 
			},
			{
				"x": 1.3048726648,
				"y": -0.2103430246,
				"z": -1.5273367949,
				"element": "H" 
			},
			{
				"x": 2.4534962486,
				"y": -1.5502764802,
				"z": -1.8413644242,
				"element": "H" 
			},
			{
				"x": 2.7107193029,
				"y": -0.4704595651,
				"z": -0.4327426677,
				"element": "H" 
			},
			{
				"x": -0.3896654129,
				"y": -1.7850686297,
				"z": 1.7562080216,
				"element": "H" 
			},
			{
				"x": 1.0254919095,
				"y": -0.7222540146,
				"z": 1.8524272272,
				"element": "H" 
			},
			{
				"x": -0.7272300448,
				"y": 3.4793695439,
				"z": 0.4168862114,
				"element": "H" 
			},
			{
				"x": -2.8917821375,
				"y": 2.9574116392,
				"z": -0.6545073092,
				"element": "H" 
			},
			{
				"x": -4.2553314326,
				"y": -0.4109588995,
				"z": -0.8915074482,
				"element": "H" 
			},
			{
				"x": -4.5776710728,
				"y": 1.2300043342,
				"z": -1.0876518413,
				"element": "H" 
			},
			{
				"x": -2.1531836043,
				"y": -1.2373768166,
				"z": -0.0270905497,
				"element": "H" 
			}
		],
		 "valence_orbital": [ 
			{
				"type": "occ",
				"energy": -0.30544,
				"method": "rhf"
			},
			{
				"type": "occ",
				"energy": -0.29228,
				"method": "rhf"
			},
			{
				"type": "occ",
				"energy": -0.28788,
				"method": "rhf"
			},
			{
				"type": "occ",
				"energy": -0.25948,
				"method": "rhf"
			},
			{
				"type": "occ",
				"energy": -0.2159,
				"method": "rhf"
			},
			{
				"type": "unocc",
				"energy": -0.03016,
				"method": "rhf"
			},
			{
				"type": "unocc",
				"energy": -0.00669,
				"method": "rhf"
			},
			{
				"type": "unocc",
				"energy": 0.021,
				"method": "rhf"
			},
			{
				"type": "unocc",
				"energy": 0.06819,
				"method": "rhf"
			},
			{
				"type": "unocc",
				"energy": 0.07382,
				"method": "rhf"
			}
		],
		"cosmo_sigma_profile": { 
			"-0.025": 0.0,
			"-0.024": 0.0,
			"-0.023": 0.0,
			"-0.022": 0.0,
			"-0.021": 0.0,
			"-0.02": 0.0,
			"-0.019": 0.0,
			"-0.018": 0.0,
			"-0.017": 0.0,
			"-0.016": 0.0,
			"-0.015": 0.0,
			"-0.014": 0.0,
			"-0.013": 1.52393765016,
			"-0.012": 2.81808884922,
			"-0.011": 3.22704676274,
			"-0.01": 3.77664610106,
			"-0.009": 6.35203013915,
			"-0.008": 8.88364709522,
			"-0.007": 12.5294405256,
			"-0.006": 13.5728882388,
			"-0.005": 14.8986468317,
			"-0.004": 15.214547072,
			"-0.003": 12.3151203733,
			"-0.002": 11.1459405801,
			"-0.001": 10.5336923643,
			"0.0": 10.2896094947,
			"0.001": 11.3461799647,
			"0.002": 14.6893900482,
			"0.003": 14.3179489295,
			"0.004": 17.9884121907,
			"0.005": 9.43262404246,
			"0.006": 3.78555552452,
			"0.007": 2.80309100916,
			"0.008": 2.96735456534,
			"0.009": 3.6478435989,
			"0.01": 5.61092015329,
			"0.011": 8.83268112236,
			"0.012": 11.2169028586,
			"0.013": 2.72817195971,
			"0.014": 0.0578017135708,
			"0.015": 0.0,
			"0.016": 0.0,
			"0.017": 0.0,
			"0.018": 0.0,
			"0.019": 0.0,
			"0.02": 0.0,
			"0.021": 0.0,
			"0.022": 0.0,
			"0.023": 0.0,
			"0.024": 0.0,
			"0.025": 0.0
		}
	}
}
