{
	 "smiles": "CCOC(=O)C(=CC1=CC=C(O1)C1=CC=C(Br)C=C1)C#N", 
	 "Tm": 440.15, 
	 "num_atms": 33, 
	 "gaussian": { 
		 "optdone": 1, 
		 "sigma_profile": "yes", 
		 "theory": "DFT", 
		 "functional": "B3LYP", 
		 "basiset": "6-31G**", 
		 "properties": { 
			 "R2extent": 16107.306, 
			 "electric_dipole_moment_norm": 4.76381586756, 
			 "electric_quadrupole_moment_norm": 23.4947649111, 
			 "total_energy": -3468.73545116, 
			 "HOMO_LUMO_gap": 0.12198, 
			 "cosmo_polarized_energy": -14.32, 
			 "cosmo_cavitation_energy": 42.43, 
			 "cosmo_dispersion_energy": -30.27, 
			 "cosmo_repulsion_energy": 2.32, 
			 "cosmo_total_nonelectrostatic_energy": 14.48, 
			 "SMD_solvation_energy": 8.69 
		},
		"coords": [
			{
				"x": 6.900600151,
				"y": 1.2153993588,
				"z": -2.3813833224,
				"element": "C" 
			},
			{
				"x": 6.6774128992,
				"y": -0.2180481371,
				"z": -1.9239789987,
				"element": "C" 
			},
			{
				"x": 6.0143345997,
				"y": -0.2607310261,
				"z": -0.6369969999,
				"element": "O" 
			},
			{
				"x": 4.6698356826,
				"y": -0.1956913255,
				"z": -0.6407399341,
				"element": "C" 
			},
			{
				"x": 3.9966247183,
				"y": -0.1131094239,
				"z": -1.654311017,
				"element": "O" 
			},
			{
				"x": 4.130860897,
				"y": -0.2432555235,
				"z": 0.7399696994,
				"element": "C" 
			},
			{
				"x": 2.8003274264,
				"y": -0.2029780051,
				"z": 1.0802768594,
				"element": "C" 
			},
			{
				"x": 1.5978061573,
				"y": -0.1144966372,
				"z": 0.3270761727,
				"element": "C" 
			},
			{
				"x": 1.1928141942,
				"y": -0.033989911,
				"z": -0.9973081068,
				"element": "C" 
			},
			{
				"x": -0.2144070371,
				"y": 0.0274820347,
				"z": -0.9965473769,
				"element": "C" 
			},
			{
				"x": -0.6223395472,
				"y": -0.0174457696,
				"z": 0.3250915512,
				"element": "C" 
			},
			{
				"x": 0.463960171,
				"y": -0.1031404081,
				"z": 1.1281720162,
				"element": "O" 
			},
			{
				"x": -1.9301397443,
				"y": 0.0096016852,
				"z": 0.9612454005,
				"element": "C" 
			},
			{
				"x": -3.1001692886,
				"y": 0.0989666082,
				"z": 0.1849859015,
				"element": "C" 
			},
			{
				"x": -4.3543935634,
				"y": 0.1255473755,
				"z": 0.7843943395,
				"element": "C" 
			},
			{
				"x": -4.4489345114,
				"y": 0.0625067541,
				"z": 2.1755974074,
				"element": "C" 
			},
			{
				"x": -6.1666256057,
				"y": 0.0989168884,
				"z": 3.0022368914,
				"element": "Br" 
			},
			{
				"x": -3.304630402,
				"y": -0.0265543332,
				"z": 2.9684070144,
				"element": "C" 
			},
			{
				"x": -2.0531086711,
				"y": -0.0526714769,
				"z": 2.3612453647,
				"element": "C" 
			},
			{
				"x": 5.0712081959,
				"y": -0.3366138286,
				"z": 1.8163386916,
				"element": "C" 
			},
			{
				"x": 5.8076981211,
				"y": -0.4115880613,
				"z": 2.7149993619,
				"element": "N" 
			},
			{
				"x": 5.9463392079,
				"y": 1.7159472045,
				"z": -2.5631262663,
				"element": "H" 
			},
			{
				"x": 7.4607837776,
				"y": 1.7798392685,
				"z": -1.6305995924,
				"element": "H" 
			},
			{
				"x": 7.4737003795,
				"y": 1.2200045075,
				"z": -3.3144768149,
				"element": "H" 
			},
			{
				"x": 7.6228779612,
				"y": -0.7370969265,
				"z": -1.7530399002,
				"element": "H" 
			},
			{
				"x": 6.0791073167,
				"y": -0.7777122638,
				"z": -2.6467701833,
				"element": "H" 
			},
			{
				"x": 2.6014717397,
				"y": -0.2477833922,
				"z": 2.1485699683,
				"element": "H" 
			},
			{
				"x": 1.8628958545,
				"y": -0.0236041731,
				"z": -1.8398912921,
				"element": "H" 
			},
			{
				"x": -0.8548601321,
				"y": 0.0964321226,
				"z": -1.8634140319,
				"element": "H" 
			},
			{
				"x": -3.0332079828,
				"y": 0.1484182726,
				"z": -0.897095722,
				"element": "H" 
			},
			{
				"x": -5.2513058419,
				"y": 0.194548368,
				"z": 0.1798333393,
				"element": "H" 
			},
			{
				"x": -3.3920345949,
				"y": -0.074857033,
				"z": 4.0476989596,
				"element": "H" 
			},
			{
				"x": -1.1611025282,
				"y": -0.1218427928,
				"z": 2.9735406199,
				"element": "H" 
			}
		],
		 "valence_orbital": [ 
			{
				"type": "occ",
				"energy": -0.29844,
				"method": "rhf"
			},
			{
				"type": "occ",
				"energy": -0.28459,
				"method": "rhf"
			},
			{
				"type": "occ",
				"energy": -0.2805,
				"method": "rhf"
			},
			{
				"type": "occ",
				"energy": -0.26798,
				"method": "rhf"
			},
			{
				"type": "occ",
				"energy": -0.22019,
				"method": "rhf"
			},
			{
				"type": "unocc",
				"energy": -0.09821,
				"method": "rhf"
			},
			{
				"type": "unocc",
				"energy": -0.04272,
				"method": "rhf"
			},
			{
				"type": "unocc",
				"energy": -0.02902,
				"method": "rhf"
			},
			{
				"type": "unocc",
				"energy": -0.00364,
				"method": "rhf"
			},
			{
				"type": "unocc",
				"energy": 0.01553,
				"method": "rhf"
			}
		],
		"cosmo_sigma_profile": { 
			"-0.025": 0.0,
			"-0.024": 0.0,
			"-0.023": 0.0,
			"-0.022": 0.0,
			"-0.021": 0.0,
			"-0.02": 0.0,
			"-0.019": 0.0,
			"-0.018": 0.0,
			"-0.017": 0.0,
			"-0.016": 0.0,
			"-0.015": 0.0,
			"-0.014": 0.0,
			"-0.013": 0.0,
			"-0.012": 0.0,
			"-0.011": 0.0,
			"-0.01": 0.7875487308,
			"-0.009": 3.79819857824,
			"-0.008": 5.72924571891,
			"-0.007": 9.61450507886,
			"-0.006": 13.8098968888,
			"-0.005": 16.2871454254,
			"-0.004": 23.4464696618,
			"-0.003": 26.5094134618,
			"-0.002": 26.1418890044,
			"-0.001": 38.3912564945,
			"0.0": 35.7640161687,
			"0.001": 32.1848633592,
			"0.002": 34.2388558551,
			"0.003": 19.7132736253,
			"0.004": 16.6411359242,
			"0.005": 6.17520861994,
			"0.006": 4.76472575773,
			"0.007": 5.10435256221,
			"0.008": 7.59864993946,
			"0.009": 5.10999263448,
			"0.01": 4.82212178529,
			"0.011": 3.64802514118,
			"0.012": 2.6384085122,
			"0.013": 2.05348792106,
			"0.014": 0.420426467488,
			"0.015": 0.0,
			"0.016": 0.0,
			"0.017": 0.0,
			"0.018": 0.0,
			"0.019": 0.0,
			"0.02": 0.0,
			"0.021": 0.0,
			"0.022": 0.0,
			"0.023": 0.0,
			"0.024": 0.0,
			"0.025": 0.0
		}
	}
}
