{
	 "smiles": "CC1=C(SC2=C1C(C)=NC(C)=N2)C(O)=O", 
	 "Tm": 621.15, 
	 "num_atms": 25, 
	 "gaussian": { 
		 "optdone": 1, 
		 "sigma_profile": "yes", 
		 "theory": "DFT", 
		 "functional": "B3LYP", 
		 "basiset": "6-31G**", 
		 "properties": { 
			 "R2extent": 4508.8225, 
			 "electric_dipole_moment_norm": 3.3006314199, 
			 "electric_quadrupole_moment_norm": 18.873392447, 
			 "total_energy": -1045.25445759, 
			 "HOMO_LUMO_gap": 0.17113, 
			 "cosmo_polarized_energy": -14.06, 
			 "cosmo_cavitation_energy": 30.13, 
			 "cosmo_dispersion_energy": -22.89, 
			 "cosmo_repulsion_energy": 1.73, 
			 "cosmo_total_nonelectrostatic_energy": 8.97, 
			 "SMD_solvation_energy": 3.14 
		},
		"coords": [
			{
				"x": -3.0771715497,
				"y": 1.8340207615,
				"z": -1.7299136626,
				"element": "C" 
			},
			{
				"x": -1.9738157109,
				"y": 0.8513604203,
				"z": -1.4448630968,
				"element": "C" 
			},
			{
				"x": -1.7936657112,
				"y": -0.3293729168,
				"z": -2.1279764988,
				"element": "C" 
			},
			{
				"x": -0.4032088848,
				"y": -1.2701886836,
				"z": -1.5613540397,
				"element": "S" 
			},
			{
				"x": -0.0218527665,
				"y": -0.0278995172,
				"z": -0.3916991401,
				"element": "C" 
			},
			{
				"x": -0.9485738603,
				"y": 1.0380714923,
				"z": -0.4359564348,
				"element": "C" 
			},
			{
				"x": -0.6975943677,
				"y": 2.0673311628,
				"z": 0.5115130103,
				"element": "C" 
			},
			{
				"x": -1.5466486192,
				"y": 3.3029045344,
				"z": 0.6626643022,
				"element": "C" 
			},
			{
				"x": 0.342411777,
				"y": 1.9763581686,
				"z": 1.3413273918,
				"element": "N" 
			},
			{
				"x": 1.1544702809,
				"y": 0.8980802398,
				"z": 1.2782603123,
				"element": "C" 
			},
			{
				"x": 2.3067653924,
				"y": 0.8654527558,
				"z": 2.2421159622,
				"element": "C" 
			},
			{
				"x": 1.0145776836,
				"y": -0.1297842842,
				"z": 0.4365442528,
				"element": "N" 
			},
			{
				"x": -2.6200899968,
				"y": -0.8548712835,
				"z": -3.2472530221,
				"element": "C" 
			},
			{
				"x": -2.0198335754,
				"y": -1.7646873883,
				"z": -4.0609517521,
				"element": "O" 
			},
			{
				"x": -3.7676699122,
				"y": -0.5331042189,
				"z": -3.4581728414,
				"element": "O" 
			},
			{
				"x": -3.6803609345,
				"y": 1.5029786435,
				"z": -2.5722263373,
				"element": "H" 
			},
			{
				"x": -3.7402303562,
				"y": 1.9297500372,
				"z": -0.8630959302,
				"element": "H" 
			},
			{
				"x": -2.6713804299,
				"y": 2.8281419771,
				"z": -1.9406666965,
				"element": "H" 
			},
			{
				"x": -2.5934727092,
				"y": 3.0527421284,
				"z": 0.8589546572,
				"element": "H" 
			},
			{
				"x": -1.1575689682,
				"y": 3.8904511704,
				"z": 1.4946961997,
				"element": "H" 
			},
			{
				"x": -1.5235108949,
				"y": 3.9171794419,
				"z": -0.2434232026,
				"element": "H" 
			},
			{
				"x": 2.8874042727,
				"y": -0.0479696189,
				"z": 2.1106969008,
				"element": "H" 
			},
			{
				"x": 1.9386752461,
				"y": 0.9222569259,
				"z": 3.2716520952,
				"element": "H" 
			},
			{
				"x": 2.9526549747,
				"y": 1.7360354479,
				"z": 2.0874858274,
				"element": "H" 
			},
			{
				"x": -1.0656103798,
				"y": -1.8084373966,
				"z": -3.8983582568,
				"element": "H" 
			}
		],
		 "valence_orbital": [ 
			{
				"type": "occ",
				"energy": -0.31414,
				"method": "rhf"
			},
			{
				"type": "occ",
				"energy": -0.28284,
				"method": "rhf"
			},
			{
				"type": "occ",
				"energy": -0.27617,
				"method": "rhf"
			},
			{
				"type": "occ",
				"energy": -0.26103,
				"method": "rhf"
			},
			{
				"type": "occ",
				"energy": -0.24564,
				"method": "rhf"
			},
			{
				"type": "unocc",
				"energy": -0.07451,
				"method": "rhf"
			},
			{
				"type": "unocc",
				"energy": -0.04338,
				"method": "rhf"
			},
			{
				"type": "unocc",
				"energy": -0.01099,
				"method": "rhf"
			},
			{
				"type": "unocc",
				"energy": -0.00621,
				"method": "rhf"
			},
			{
				"type": "unocc",
				"energy": 0.05167,
				"method": "rhf"
			}
		],
		"cosmo_sigma_profile": { 
			"-0.025": 0.0,
			"-0.024": 0.0,
			"-0.023": 0.0,
			"-0.022": 0.0,
			"-0.021": 0.0,
			"-0.02": 0.0,
			"-0.019": 0.0,
			"-0.018": 0.191526466808,
			"-0.017": 0.850957875683,
			"-0.016": 0.780140577232,
			"-0.015": 1.16172883703,
			"-0.014": 0.898342674399,
			"-0.013": 0.717846880861,
			"-0.012": 0.936891744824,
			"-0.011": 0.859462428368,
			"-0.01": 0.533105096507,
			"-0.009": 1.49154801285,
			"-0.008": 1.65023216792,
			"-0.007": 4.84457290125,
			"-0.006": 8.48510077141,
			"-0.005": 13.639149694,
			"-0.004": 14.7334888271,
			"-0.003": 20.9698291971,
			"-0.002": 26.5171076558,
			"-0.001": 36.1892442831,
			"0.0": 24.0592143085,
			"0.001": 13.2152131319,
			"0.002": 10.9976092066,
			"0.003": 7.10003185229,
			"0.004": 6.5704686761,
			"0.005": 4.97597835851,
			"0.006": 5.19769663963,
			"0.007": 4.82532075412,
			"0.008": 5.43612448587,
			"0.009": 5.1599130316,
			"0.01": 6.510829303,
			"0.011": 6.49645107669,
			"0.012": 4.01288219847,
			"0.013": 1.78643698329,
			"0.014": 0.741273230534,
			"0.015": 0.0633764766164,
			"0.016": 0.0,
			"0.017": 0.0,
			"0.018": 0.0,
			"0.019": 0.0,
			"0.02": 0.0,
			"0.021": 0.0,
			"0.022": 0.0,
			"0.023": 0.0,
			"0.024": 0.0,
			"0.025": 0.0
		}
	}
}
