{
	 "smiles": "CCOC(=O)N1CCCC(C1)C(O)=O", 
	 "Tm": 342.15, 
	 "num_atms": 29, 
	 "gaussian": { 
		 "optdone": 1, 
		 "sigma_profile": "yes", 
		 "theory": "DFT", 
		 "functional": "B3LYP", 
		 "basiset": "6-31G**", 
		 "properties": { 
			 "R2extent": 3547.9993, 
			 "electric_dipole_moment_norm": 3.25314611569, 
			 "electric_quadrupole_moment_norm": 11.5894334193, 
			 "total_energy": -707.687300103, 
			 "HOMO_LUMO_gap": 0.2337, 
			 "cosmo_polarized_energy": -14.36, 
			 "cosmo_cavitation_energy": 31.1, 
			 "cosmo_dispersion_energy": -22.19, 
			 "cosmo_repulsion_energy": 1.8, 
			 "cosmo_total_nonelectrostatic_energy": 10.72, 
			 "SMD_solvation_energy": 6.83 
		},
		"coords": [
			{
				"x": -2.3631681147,
				"y": -2.1195144945,
				"z": 1.9066160963,
				"element": "C" 
			},
			{
				"x": -0.8463999598,
				"y": -2.1651499399,
				"z": 1.9159593593,
				"element": "C" 
			},
			{
				"x": -0.3779554945,
				"y": -1.047663976,
				"z": 1.135153316,
				"element": "O" 
			},
			{
				"x": 0.9776380428,
				"y": -0.9363003541,
				"z": 1.0497350447,
				"element": "C" 
			},
			{
				"x": 1.755317495,
				"y": -1.6928335453,
				"z": 1.6103698444,
				"element": "O" 
			},
			{
				"x": 1.3535306481,
				"y": 0.1200307566,
				"z": 0.2682632181,
				"element": "N" 
			},
			{
				"x": 2.7929905513,
				"y": 0.4154403897,
				"z": 0.1639032693,
				"element": "C" 
			},
			{
				"x": 2.9944804422,
				"y": 1.8977062857,
				"z": -0.1530579738,
				"element": "C" 
			},
			{
				"x": 2.3210807467,
				"y": 2.2975699553,
				"z": -1.4822346763,
				"element": "C" 
			},
			{
				"x": 0.9786879487,
				"y": 1.5567758848,
				"z": -1.6994440362,
				"element": "C" 
			},
			{
				"x": 0.3992446123,
				"y": 1.0273141344,
				"z": -0.3705523646,
				"element": "C" 
			},
			{
				"x": 1.1170537662,
				"y": 0.4089669071,
				"z": -2.6959775126,
				"element": "C" 
			},
			{
				"x": -0.0876106949,
				"y": -0.1422088514,
				"z": -2.981497486,
				"element": "O" 
			},
			{
				"x": 2.1444873518,
				"y": 0.0111806567,
				"z": -3.199963952,
				"element": "O" 
			},
			{
				"x": -2.7514342328,
				"y": -2.1965250452,
				"z": 0.8866743634,
				"element": "H" 
			},
			{
				"x": -2.7293926458,
				"y": -1.1861765069,
				"z": 2.3443270637,
				"element": "H" 
			},
			{
				"x": -2.7636913132,
				"y": -2.9538204965,
				"z": 2.4909835681,
				"element": "H" 
			},
			{
				"x": -0.4410753544,
				"y": -2.088649942,
				"z": 2.9297065374,
				"element": "H" 
			},
			{
				"x": -0.4629372174,
				"y": -3.0936543236,
				"z": 1.4806575889,
				"element": "H" 
			},
			{
				"x": 3.2475473924,
				"y": -0.2024189796,
				"z": -0.621342615,
				"element": "H" 
			},
			{
				"x": 3.2637850305,
				"y": 0.1386919643,
				"z": 1.1095682783,
				"element": "H" 
			},
			{
				"x": 4.0671434417,
				"y": 2.1118296796,
				"z": -0.1965025421,
				"element": "H" 
			},
			{
				"x": 2.5906097056,
				"y": 2.4951895648,
				"z": 0.6735177299,
				"element": "H" 
			},
			{
				"x": 2.9847516846,
				"y": 2.0613248,
				"z": -2.317792313,
				"element": "H" 
			},
			{
				"x": 2.1501718785,
				"y": 3.3787110264,
				"z": -1.4972927069,
				"element": "H" 
			},
			{
				"x": 0.2284854261,
				"y": 2.2339361968,
				"z": -2.1252916098,
				"element": "H" 
			},
			{
				"x": 0.170123659,
				"y": 1.8853241102,
				"z": 0.2781261523,
				"element": "H" 
			},
			{
				"x": -0.5308444879,
				"y": 0.4907480057,
				"z": -0.5465293038,
				"element": "H" 
			},
			{
				"x": 0.0871796921,
				"y": -0.869423863,
				"z": -3.6021823382,
				"element": "H" 
			}
		],
		 "valence_orbital": [ 
			{
				"type": "occ",
				"energy": -0.32369,
				"method": "rhf"
			},
			{
				"type": "occ",
				"energy": -0.28581,
				"method": "rhf"
			},
			{
				"type": "occ",
				"energy": -0.28032,
				"method": "rhf"
			},
			{
				"type": "occ",
				"energy": -0.26037,
				"method": "rhf"
			},
			{
				"type": "occ",
				"energy": -0.23281,
				"method": "rhf"
			},
			{
				"type": "unocc",
				"energy": 0.00089,
				"method": "rhf"
			},
			{
				"type": "unocc",
				"energy": 0.06059,
				"method": "rhf"
			},
			{
				"type": "unocc",
				"energy": 0.06889,
				"method": "rhf"
			},
			{
				"type": "unocc",
				"energy": 0.08494,
				"method": "rhf"
			},
			{
				"type": "unocc",
				"energy": 0.10505,
				"method": "rhf"
			}
		],
		"cosmo_sigma_profile": { 
			"-0.025": 0.0,
			"-0.024": 0.0,
			"-0.023": 0.0,
			"-0.022": 0.0,
			"-0.021": 0.0,
			"-0.02": 0.0,
			"-0.019": 0.0,
			"-0.018": 0.797009845731,
			"-0.017": 0.931504677063,
			"-0.016": 0.650405084205,
			"-0.015": 0.97973905105,
			"-0.014": 0.629441346447,
			"-0.013": 0.779155668574,
			"-0.012": 0.463185188286,
			"-0.011": 1.02021006772,
			"-0.01": 0.859050292384,
			"-0.009": 0.628009871417,
			"-0.008": 0.339237004733,
			"-0.007": 1.69599701133,
			"-0.006": 4.58727905691,
			"-0.005": 10.945367831,
			"-0.004": 25.7136493538,
			"-0.003": 31.8529338714,
			"-0.002": 30.5599928178,
			"-0.001": 26.6386661143,
			"0.0": 23.6603140129,
			"0.001": 10.8468567943,
			"0.002": 8.23221790301,
			"0.003": 6.22473893285,
			"0.004": 7.80780975684,
			"0.005": 6.90726280796,
			"0.006": 5.68927717438,
			"0.007": 4.01099605134,
			"0.008": 4.61240570653,
			"0.009": 3.53944192125,
			"0.01": 3.0454052012,
			"0.011": 5.16478800239,
			"0.012": 4.8454719255,
			"0.013": 3.44142441965,
			"0.014": 4.14975791001,
			"0.015": 0.00298415683518,
			"0.016": 0.0,
			"0.017": 0.0,
			"0.018": 0.0,
			"0.019": 0.0,
			"0.02": 0.0,
			"0.021": 0.0,
			"0.022": 0.0,
			"0.023": 0.0,
			"0.024": 0.0,
			"0.025": 0.0
		}
	}
}
