{
	 "smiles": "OC1=NN=C(O1)C1=CC=C(C=C1)[N+]([O-])=O", 
	 "Tm": 523.15, 
	 "num_atms": 20, 
	 "gaussian": { 
		 "optdone": 1, 
		 "sigma_profile": "yes", 
		 "theory": "DFT", 
		 "functional": "B3LYP", 
		 "basiset": "6-31G**", 
		 "properties": { 
			 "R2extent": 4328.3183, 
			 "electric_dipole_moment_norm": 4.72405145294, 
			 "electric_quadrupole_moment_norm": 29.1653087491, 
			 "total_energy": -772.873930869, 
			 "HOMO_LUMO_gap": 0.15027, 
			 "cosmo_polarized_energy": -19.74, 
			 "cosmo_cavitation_energy": 26.93, 
			 "cosmo_dispersion_energy": -20.05, 
			 "cosmo_repulsion_energy": 1.54, 
			 "cosmo_total_nonelectrostatic_energy": 8.42, 
			 "SMD_solvation_energy": 6.18 
		},
		"coords": [
			{
				"x": 1.7247049492,
				"y": 4.4585364556,
				"z": -1.421119668,
				"element": "O" 
			},
			{
				"x": 0.8430024727,
				"y": 3.4683855258,
				"z": -1.3911448454,
				"element": "C" 
			},
			{
				"x": -0.2059633142,
				"y": 3.3338991028,
				"z": -2.1389116702,
				"element": "N" 
			},
			{
				"x": -0.7967179407,
				"y": 2.1423590802,
				"z": -1.7224453417,
				"element": "N" 
			},
			{
				"x": -0.0683146393,
				"y": 1.6542182553,
				"z": -0.7665236894,
				"element": "C" 
			},
			{
				"x": 1.0195727977,
				"y": 2.463893822,
				"z": -0.4941531797,
				"element": "O" 
			},
			{
				"x": -0.2621095845,
				"y": 0.4301553807,
				"z": -0.0043930616,
				"element": "C" 
			},
			{
				"x": 0.6364191536,
				"y": 0.051886339,
				"z": 1.0072143859,
				"element": "C" 
			},
			{
				"x": 0.4300202215,
				"y": -1.1226599879,
				"z": 1.7218969747,
				"element": "C" 
			},
			{
				"x": -0.6782173736,
				"y": -1.909239483,
				"z": 1.4150449823,
				"element": "C" 
			},
			{
				"x": -1.5848870003,
				"y": -1.5550027187,
				"z": 0.4149277926,
				"element": "C" 
			},
			{
				"x": -1.374151837,
				"y": -0.3815018907,
				"z": -0.2954802049,
				"element": "C" 
			},
			{
				"x": -0.8984761134,
				"y": -3.1526060964,
				"z": 2.1702078116,
				"element": "N" 
			},
			{
				"x": -0.0824372238,
				"y": -3.4391321845,
				"z": 3.0457662175,
				"element": "O" 
			},
			{
				"x": -1.8846500412,
				"y": -3.8279813908,
				"z": 1.8791551685,
				"element": "O" 
			},
			{
				"x": 2.4083715659,
				"y": 4.3060336891,
				"z": -0.7535484478,
				"element": "H" 
			},
			{
				"x": 1.493228439,
				"y": 0.6771202227,
				"z": 1.2316825248,
				"element": "H" 
			},
			{
				"x": 1.1058921434,
				"y": -1.4385607833,
				"z": 2.5063757117,
				"element": "H" 
			},
			{
				"x": -2.4317383798,
				"y": -2.1982924431,
				"z": 0.2121303759,
				"element": "H" 
			},
			{
				"x": -2.0591482951,
				"y": -0.0770108947,
				"z": -1.0787818368,
				"element": "H" 
			}
		],
		 "valence_orbital": [ 
			{
				"type": "occ",
				"energy": -0.31442,
				"method": "rhf"
			},
			{
				"type": "occ",
				"energy": -0.29814,
				"method": "rhf"
			},
			{
				"type": "occ",
				"energy": -0.29449,
				"method": "rhf"
			},
			{
				"type": "occ",
				"energy": -0.29173,
				"method": "rhf"
			},
			{
				"type": "occ",
				"energy": -0.25593,
				"method": "rhf"
			},
			{
				"type": "unocc",
				"energy": -0.10566,
				"method": "rhf"
			},
			{
				"type": "unocc",
				"energy": -0.04437,
				"method": "rhf"
			},
			{
				"type": "unocc",
				"energy": -0.03974,
				"method": "rhf"
			},
			{
				"type": "unocc",
				"energy": 0.01754,
				"method": "rhf"
			},
			{
				"type": "unocc",
				"energy": 0.02727,
				"method": "rhf"
			}
		],
		"cosmo_sigma_profile": { 
			"-0.025": 0.0,
			"-0.024": 0.0,
			"-0.023": 0.0,
			"-0.022": 0.0358356385688,
			"-0.021": 1.2483584154,
			"-0.02": 0.912404153006,
			"-0.019": 1.27789867411,
			"-0.018": 0.997371361331,
			"-0.017": 0.579417409857,
			"-0.016": 0.682802877771,
			"-0.015": 0.957506427286,
			"-0.014": 1.13870131456,
			"-0.013": 0.630833999678,
			"-0.012": 0.732797910061,
			"-0.011": 0.886317700001,
			"-0.01": 0.940909597552,
			"-0.009": 1.12979194737,
			"-0.008": 5.2430217037,
			"-0.007": 9.56871818789,
			"-0.006": 11.6511204137,
			"-0.005": 9.49812254519,
			"-0.004": 12.6599491853,
			"-0.003": 13.5953951199,
			"-0.002": 15.2302137883,
			"-0.001": 18.6182457211,
			"0.0": 22.1751705241,
			"0.001": 11.7768843203,
			"0.002": 4.86707522888,
			"0.003": 5.12131903956,
			"0.004": 6.04031018124,
			"0.005": 6.29985443957,
			"0.006": 9.45351975522,
			"0.007": 12.0400844825,
			"0.008": 9.97046105087,
			"0.009": 6.48255439436,
			"0.01": 4.98817759627,
			"0.011": 3.87052767047,
			"0.012": 2.4896735455,
			"0.013": 2.210058934,
			"0.014": 1.46357395401,
			"0.015": 0.400183263514,
			"0.016": 0.0,
			"0.017": 0.0,
			"0.018": 0.0,
			"0.019": 0.0,
			"0.02": 0.0,
			"0.021": 0.0,
			"0.022": 0.0,
			"0.023": 0.0,
			"0.024": 0.0,
			"0.025": 0.0
		}
	}
}
