{
	 "smiles": "IC1=NC=CN1C(C1=CC=CC=C1)(C1=CC=CC=C1)C1=CC=CC=C1", 
	 "Tm": 444.15, 
	 "num_atms": 42, 
	 "gaussian": { 
		 "optdone": 1, 
		 "sigma_profile": "no", 
		 "theory": "DFT", 
		 "functional": "B3LYP", 
		 "basiset": "6-31G**", 
		 "properties": { 
			 "R2extent": 7749.3762, 
			 "electric_dipole_moment_norm": 4.7746440925, 
			 "electric_quadrupole_moment_norm": 20.510758055, 
			 "total_energy": -969.438129901, 
			 "HOMO_LUMO_gap": 0.18449, 
			 "cosmo_polarized_energy": -76025.64, 
			 "cosmo_cavitation_energy": 45.62, 
			 "cosmo_dispersion_energy": -31.48, 
			 "cosmo_repulsion_energy": 2.36, 
			 "cosmo_total_nonelectrostatic_energy": 16.5, 
			 "SMD_solvation_energy": 5.57 
		},
		"coords": [
			{
				"x": -3.2586968777,
				"y": 0.8399521107,
				"z": -0.4448742801,
				"element": "I" 
			},
			{
				"x": -2.3235892742,
				"y": -0.0075186862,
				"z": -2.1165814136,
				"element": "C" 
			},
			{
				"x": -2.9722419928,
				"y": -0.0931503244,
				"z": -3.2536034409,
				"element": "N" 
			},
			{
				"x": -2.0890460741,
				"y": -0.6720145656,
				"z": -4.1313249992,
				"element": "C" 
			},
			{
				"x": -0.9002166253,
				"y": -0.9400084053,
				"z": -3.5105325666,
				"element": "C" 
			},
			{
				"x": -1.0358400104,
				"y": -0.5211333474,
				"z": -2.1914081241,
				"element": "N" 
			},
			{
				"x": 0.0395638768,
				"y": -0.5556149101,
				"z": -1.1377379197,
				"element": "C" 
			},
			{
				"x": 1.3590348612,
				"y": -1.0741238707,
				"z": -1.7919071366,
				"element": "C" 
			},
			{
				"x": 1.4637825152,
				"y": -2.4376608961,
				"z": -2.1244028608,
				"element": "C" 
			},
			{
				"x": 2.6198451901,
				"y": -2.9507937484,
				"z": -2.7059762908,
				"element": "C" 
			},
			{
				"x": 3.7140101874,
				"y": -2.1162567166,
				"z": -2.9505555903,
				"element": "C" 
			},
			{
				"x": 3.63153316,
				"y": -0.7696879967,
				"z": -2.607584683,
				"element": "C" 
			},
			{
				"x": 2.4646261756,
				"y": -0.2518468929,
				"z": -2.0351371068,
				"element": "C" 
			},
			{
				"x": 0.2098950306,
				"y": 0.9024060004,
				"z": -0.6323709222,
				"element": "C" 
			},
			{
				"x": 0.2413806339,
				"y": 1.9371435845,
				"z": -1.583378883,
				"element": "C" 
			},
			{
				"x": 0.4209969394,
				"y": 3.2643587081,
				"z": -1.1995485683,
				"element": "C" 
			},
			{
				"x": 0.5691494986,
				"y": 3.591325085,
				"z": 0.1499134795,
				"element": "C" 
			},
			{
				"x": 0.5304268067,
				"y": 2.575725258,
				"z": 1.1027950415,
				"element": "C" 
			},
			{
				"x": 0.3514755906,
				"y": 1.244819453,
				"z": 0.7163446417,
				"element": "C" 
			},
			{
				"x": -0.3176414677,
				"y": -1.5761848551,
				"z": -0.0276919382,
				"element": "C" 
			},
			{
				"x": -1.502491424,
				"y": -2.3190840581,
				"z": -0.0262471702,
				"element": "C" 
			},
			{
				"x": -1.7523947642,
				"y": -3.269685011,
				"z": 0.9686784199,
				"element": "C" 
			},
			{
				"x": -0.8216823852,
				"y": -3.4987880527,
				"z": 1.9786747011,
				"element": "C" 
			},
			{
				"x": 0.3782196012,
				"y": -2.7835858213,
				"z": 1.9736599306,
				"element": "C" 
			},
			{
				"x": 0.6306628055,
				"y": -1.8453750264,
				"z": 0.9756475815,
				"element": "C" 
			},
			{
				"x": -2.3606326411,
				"y": -0.8599309249,
				"z": -5.1607313672,
				"element": "H" 
			},
			{
				"x": 0.012595211,
				"y": -1.3730742123,
				"z": -3.8775178076,
				"element": "H" 
			},
			{
				"x": 0.6300983891,
				"y": -3.1024902847,
				"z": -1.9240789439,
				"element": "H" 
			},
			{
				"x": 2.6693281513,
				"y": -4.0060410281,
				"z": -2.9586612823,
				"element": "H" 
			},
			{
				"x": 4.6203536395,
				"y": -2.5162011769,
				"z": -3.3957550288,
				"element": "H" 
			},
			{
				"x": 4.4762983766,
				"y": -0.1090607475,
				"z": -2.7803244696,
				"element": "H" 
			},
			{
				"x": 2.4314264501,
				"y": 0.7978467164,
				"z": -1.7737625828,
				"element": "H" 
			},
			{
				"x": 0.1151467012,
				"y": 1.7028741402,
				"z": -2.6356430407,
				"element": "H" 
			},
			{
				"x": 0.4373767314,
				"y": 4.0428857057,
				"z": -1.95674107,
				"element": "H" 
			},
			{
				"x": 0.7043991468,
				"y": 4.6254665494,
				"z": 0.4528873104,
				"element": "H" 
			},
			{
				"x": 0.6285997281,
				"y": 2.8133989588,
				"z": 2.1582067496,
				"element": "H" 
			},
			{
				"x": 0.2949074018,
				"y": 0.4834974976,
				"z": 1.483161299,
				"element": "H" 
			},
			{
				"x": -2.2393551062,
				"y": -2.1755669754,
				"z": -0.8060435519,
				"element": "H" 
			},
			{
				"x": -2.6820426145,
				"y": -3.8307591679,
				"z": 0.9438512203,
				"element": "H" 
			},
			{
				"x": -1.0188018184,
				"y": -4.2352281952,
				"z": 2.7521609353,
				"element": "H" 
			},
			{
				"x": 1.1274061926,
				"y": -2.9658568411,
				"z": 2.7388070425,
				"element": "H" 
			},
			{
				"x": 1.5870340837,
				"y": -1.3326770287,
				"z": 0.9618346862,
				"element": "H" 
			}
		],
		 "valence_orbital": [ 
			{
				"type": "occ",
				"energy": -0.25294,
				"method": "rhf"
			},
			{
				"type": "occ",
				"energy": -0.25005,
				"method": "rhf"
			},
			{
				"type": "occ",
				"energy": -0.24537,
				"method": "rhf"
			},
			{
				"type": "occ",
				"energy": -0.23913,
				"method": "rhf"
			},
			{
				"type": "occ",
				"energy": -0.21697,
				"method": "rhf"
			},
			{
				"type": "unocc",
				"energy": -0.03248,
				"method": "rhf"
			},
			{
				"type": "unocc",
				"energy": -0.02599,
				"method": "rhf"
			},
			{
				"type": "unocc",
				"energy": -0.01774,
				"method": "rhf"
			},
			{
				"type": "unocc",
				"energy": -0.01294,
				"method": "rhf"
			},
			{
				"type": "unocc",
				"energy": -0.01021,
				"method": "rhf"
			}
		],
		"cosmo_sigma_profile": { 
			"0.0": 0.0,
			"0.0": 0.0,
			"0.0": 0.0,
			"0.0": 0.0,
			"0.0": 0.0,
			"0.0": 0.0,
			"0.0": 0.0,
			"0.0": 0.0,
			"0.0": 0.0,
			"0.0": 0.0,
			"0.0": 0.0,
			"0.0": 0.0,
			"0.0": 0.0,
			"0.0": 0.0,
			"0.0": 0.0,
			"0.0": 0.0,
			"0.0": 0.0,
			"0.0": 0.0,
			"0.0": 0.0,
			"0.0": 0.0,
			"0.0": 0.0,
			"0.0": 0.0,
			"0.0": 0.0,
			"0.0": 0.0,
			"0.0": 0.0,
			"0.0": 0.0,
			"0.0": 0.0,
			"0.0": 0.0,
			"0.0": 0.0,
			"0.0": 0.0,
			"0.0": 0.0,
			"0.0": 0.0,
			"0.0": 0.0,
			"0.0": 0.0,
			"0.0": 0.0,
			"0.0": 0.0,
			"0.0": 0.0,
			"0.0": 0.0,
			"0.0": 0.0,
			"0.0": 0.0,
			"0.0": 0.0,
			"0.0": 0.0,
			"0.0": 0.0,
			"0.0": 0.0,
			"0.0": 0.0,
			"0.0": 0.0,
			"0.0": 0.0,
			"0.0": 0.0,
			"0.0": 0.0,
			"0.0": 0.0,
			"0.0": 0.0
		}
	}
}
