{
	 "smiles": "NC1=CC(=C(Cl)C=C1)S(=O)(=O)N1CCCC1", 
	 "Tm": 390.15, 
	 "num_atms": 29, 
	 "gaussian": { 
		 "optdone": 1, 
		 "sigma_profile": "yes", 
		 "theory": "DFT", 
		 "functional": "B3LYP", 
		 "basiset": "6-31G**", 
		 "properties": { 
			 "R2extent": 4611.641, 
			 "electric_dipole_moment_norm": 5.81480881285, 
			 "electric_quadrupole_moment_norm": 23.3581885447, 
			 "total_energy": -1507.15517158, 
			 "HOMO_LUMO_gap": 0.18176, 
			 "cosmo_polarized_energy": -18.01, 
			 "cosmo_cavitation_energy": 33.94, 
			 "cosmo_dispersion_energy": -24.89, 
			 "cosmo_repulsion_energy": 1.9, 
			 "cosmo_total_nonelectrostatic_energy": 10.95, 
			 "SMD_solvation_energy": 4.09 
		},
		"coords": [
			{
				"x": -1.1518530157,
				"y": 2.478423763,
				"z": -3.0985292873,
				"element": "N" 
			},
			{
				"x": -0.6947457124,
				"y": 1.3736850292,
				"z": -2.3902793002,
				"element": "C" 
			},
			{
				"x": 0.094606933,
				"y": 1.5373070599,
				"z": -1.2405955884,
				"element": "C" 
			},
			{
				"x": 0.6073211595,
				"y": 0.4374968631,
				"z": -0.5529570682,
				"element": "C" 
			},
			{
				"x": 0.3411853373,
				"y": -0.8616184896,
				"z": -1.0088202483,
				"element": "C" 
			},
			{
				"x": 0.9454116992,
				"y": -2.3006982306,
				"z": -0.2110397297,
				"element": "Cl" 
			},
			{
				"x": -0.4468262215,
				"y": -1.0302312574,
				"z": -2.148121852,
				"element": "C" 
			},
			{
				"x": -0.959082395,
				"y": 0.0665881711,
				"z": -2.831896729,
				"element": "C" 
			},
			{
				"x": 1.6467883885,
				"y": 0.813056482,
				"z": 0.8829873811,
				"element": "S" 
			},
			{
				"x": 2.9474627891,
				"y": 0.1619617232,
				"z": 0.722382699,
				"element": "O" 
			},
			{
				"x": 1.5633664106,
				"y": 2.271184038,
				"z": 1.0581245088,
				"element": "O" 
			},
			{
				"x": 0.87042988,
				"y": 0.0450577863,
				"z": 2.1396119172,
				"element": "N" 
			},
			{
				"x": 1.6492955542,
				"y": -0.8282926098,
				"z": 3.0516357968,
				"element": "C" 
			},
			{
				"x": 0.6494630135,
				"y": -1.0739360714,
				"z": 4.1867381953,
				"element": "C" 
			},
			{
				"x": -0.0939974638,
				"y": 0.2674351783,
				"z": 4.2978052581,
				"element": "C" 
			},
			{
				"x": -0.2577423362,
				"y": 0.712650815,
				"z": 2.8342896834,
				"element": "C" 
			},
			{
				"x": -1.9637766463,
				"y": 2.330112698,
				"z": -3.6802133288,
				"element": "H" 
			},
			{
				"x": -1.188877805,
				"y": 3.3486149547,
				"z": -2.5875300544,
				"element": "H" 
			},
			{
				"x": 0.3270205897,
				"y": 2.5282139078,
				"z": -0.8657045391,
				"element": "H" 
			},
			{
				"x": -0.6568828846,
				"y": -2.0347892118,
				"z": -2.4990195243,
				"element": "H" 
			},
			{
				"x": -1.5643672088,
				"y": -0.0924469454,
				"z": -3.7203037144,
				"element": "H" 
			},
			{
				"x": 2.5507600732,
				"y": -0.3236020227,
				"z": 3.4196430495,
				"element": "H" 
			},
			{
				"x": 1.9543536517,
				"y": -1.7388358896,
				"z": 2.5335399137,
				"element": "H" 
			},
			{
				"x": 1.1478654042,
				"y": -1.3693200994,
				"z": 5.1141533949,
				"element": "H" 
			},
			{
				"x": -0.0462298978,
				"y": -1.8722864326,
				"z": 3.9052432614,
				"element": "H" 
			},
			{
				"x": -1.0532644299,
				"y": 0.1900433453,
				"z": 4.8168756016,
				"element": "H" 
			},
			{
				"x": 0.5237557519,
				"y": 0.9925056692,
				"z": 4.8391611034,
				"element": "H" 
			},
			{
				"x": -1.2079649219,
				"y": 0.3640809183,
				"z": 2.4108120541,
				"element": "H" 
			},
			{
				"x": -0.2010756969,
				"y": 1.7972388578,
				"z": 2.7147071458,
				"element": "H" 
			}
		],
		 "valence_orbital": [ 
			{
				"type": "occ",
				"energy": -0.29658,
				"method": "rhf"
			},
			{
				"type": "occ",
				"energy": -0.28937,
				"method": "rhf"
			},
			{
				"type": "occ",
				"energy": -0.27193,
				"method": "rhf"
			},
			{
				"type": "occ",
				"energy": -0.24015,
				"method": "rhf"
			},
			{
				"type": "occ",
				"energy": -0.21495,
				"method": "rhf"
			},
			{
				"type": "unocc",
				"energy": -0.03319,
				"method": "rhf"
			},
			{
				"type": "unocc",
				"energy": -0.00764,
				"method": "rhf"
			},
			{
				"type": "unocc",
				"energy": 0.02247,
				"method": "rhf"
			},
			{
				"type": "unocc",
				"energy": 0.06951,
				"method": "rhf"
			},
			{
				"type": "unocc",
				"energy": 0.07354,
				"method": "rhf"
			}
		],
		"cosmo_sigma_profile": { 
			"-0.025": 0.0,
			"-0.024": 0.0,
			"-0.023": 0.0,
			"-0.022": 0.0,
			"-0.021": 0.0,
			"-0.02": 0.0,
			"-0.019": 0.0,
			"-0.018": 0.0,
			"-0.017": 0.0,
			"-0.016": 0.0,
			"-0.015": 0.0,
			"-0.014": 0.247174140341,
			"-0.013": 2.39358948904,
			"-0.012": 3.75070517408,
			"-0.011": 2.73539605422,
			"-0.01": 3.50751938287,
			"-0.009": 2.78723340879,
			"-0.008": 4.26058096372,
			"-0.007": 6.03891844622,
			"-0.006": 5.14686805507,
			"-0.005": 7.71168846199,
			"-0.004": 23.8429150168,
			"-0.003": 29.9524255632,
			"-0.002": 28.5578273918,
			"-0.001": 20.268418427,
			"0.0": 16.5752900568,
			"0.001": 13.4382830647,
			"0.002": 19.5427267597,
			"0.003": 18.2944441558,
			"0.004": 12.0599278132,
			"0.005": 8.4735863879,
			"0.006": 5.10514018299,
			"0.007": 4.49039999518,
			"0.008": 3.85563388101,
			"0.009": 5.31842592812,
			"0.01": 6.49951615067,
			"0.011": 10.2350937179,
			"0.012": 4.6042811901,
			"0.013": 0.477147777852,
			"0.014": 0.00612702301287,
			"0.015": 0.0,
			"0.016": 0.0,
			"0.017": 0.0,
			"0.018": 0.0,
			"0.019": 0.0,
			"0.02": 0.0,
			"0.021": 0.0,
			"0.022": 0.0,
			"0.023": 0.0,
			"0.024": 0.0,
			"0.025": 0.0
		}
	}
}
