{
	 "smiles": "NC1=CC(Cl)=C(C=C1)C(=O)N1CCOCC1", 
	 "Tm": 479.15, 
	 "num_atms": 29, 
	 "gaussian": { 
		 "optdone": 1, 
		 "sigma_profile": "yes", 
		 "theory": "DFT", 
		 "functional": "B3LYP", 
		 "basiset": "6-31G**", 
		 "properties": { 
			 "R2extent": 4672.084, 
			 "electric_dipole_moment_norm": 5.22904718759, 
			 "electric_quadrupole_moment_norm": 21.2375096245, 
			 "total_energy": -1147.13781801, 
			 "HOMO_LUMO_gap": 0.19856, 
			 "cosmo_polarized_energy": -18.24, 
			 "cosmo_cavitation_energy": 33.22, 
			 "cosmo_dispersion_energy": -23.93, 
			 "cosmo_repulsion_energy": 1.88, 
			 "cosmo_total_nonelectrostatic_energy": 11.17, 
			 "SMD_solvation_energy": 5.18 
		},
		"coords": [
			{
				"x": 4.3532801809,
				"y": -3.2505623504,
				"z": -0.9366608474,
				"element": "N" 
			},
			{
				"x": 3.2488036795,
				"y": -2.4088048172,
				"z": -0.8963911823,
				"element": "C" 
			},
			{
				"x": 2.9589725152,
				"y": -1.666390257,
				"z": 0.260205547,
				"element": "C" 
			},
			{
				"x": 1.8787611648,
				"y": -0.7889010953,
				"z": 0.271850027,
				"element": "C" 
			},
			{
				"x": 1.600049096,
				"y": 0.1314325741,
				"z": 1.7522345794,
				"element": "Cl" 
			},
			{
				"x": 1.0447273497,
				"y": -0.611856587,
				"z": -0.8379325485,
				"element": "C" 
			},
			{
				"x": 1.3703393021,
				"y": -1.3393244378,
				"z": -1.9932166576,
				"element": "C" 
			},
			{
				"x": 2.4340224106,
				"y": -2.2294215022,
				"z": -2.0295390517,
				"element": "C" 
			},
			{
				"x": -0.0743167311,
				"y": 0.3991210669,
				"z": -0.9268199344,
				"element": "C" 
			},
			{
				"x": 0.0393125632,
				"y": 1.3765861728,
				"z": -1.6625092769,
				"element": "O" 
			},
			{
				"x": -1.2122684774,
				"y": 0.1610129176,
				"z": -0.2021520745,
				"element": "N" 
			},
			{
				"x": -2.3114004174,
				"y": 1.1302499165,
				"z": -0.2985669981,
				"element": "C" 
			},
			{
				"x": -3.6493147843,
				"y": 0.4096152264,
				"z": -0.1862612569,
				"element": "C" 
			},
			{
				"x": -3.7936024221,
				"y": -0.3207201,
				"z": 1.0314005745,
				"element": "O" 
			},
			{
				"x": -2.5699297458,
				"y": -0.797241041,
				"z": 1.5831001536,
				"element": "C" 
			},
			{
				"x": -1.5051584081,
				"y": -1.0780210827,
				"z": 0.52616698,
				"element": "C" 
			},
			{
				"x": 4.3326494729,
				"y": -3.9748847381,
				"z": -1.6398685927,
				"element": "H" 
			},
			{
				"x": 4.6980113091,
				"y": -3.5785671865,
				"z": -0.0460383271,
				"element": "H" 
			},
			{
				"x": 3.5838358851,
				"y": -1.7591851681,
				"z": 1.1424002883,
				"element": "H" 
			},
			{
				"x": 0.7665905178,
				"y": -1.1901166796,
				"z": -2.8832239409,
				"element": "H" 
			},
			{
				"x": 2.6518108355,
				"y": -2.7788161373,
				"z": -2.9413319761,
				"element": "H" 
			},
			{
				"x": -2.2203629198,
				"y": 1.8866860596,
				"z": 0.4926291187,
				"element": "H" 
			},
			{
				"x": -2.2262355056,
				"y": 1.6475196235,
				"z": -1.2568477647,
				"element": "H" 
			},
			{
				"x": -4.4663595105,
				"y": 1.1377659353,
				"z": -0.217500469,
				"element": "H" 
			},
			{
				"x": -3.7729771903,
				"y": -0.2665645617,
				"z": -1.0467867223,
				"element": "H" 
			},
			{
				"x": -2.8035168989,
				"y": -1.71991008,
				"z": 2.1246084552,
				"element": "H" 
			},
			{
				"x": -2.1702763533,
				"y": -0.0730005054,
				"z": 2.3092568279,
				"element": "H" 
			},
			{
				"x": -0.6056348174,
				"y": -1.4511737471,
				"z": 1.0170737203,
				"element": "H" 
			},
			{
				"x": -1.8625121004,
				"y": -1.8612274182,
				"z": -0.1582786508,
				"element": "H" 
			}
		],
		 "valence_orbital": [ 
			{
				"type": "occ",
				"energy": -0.2536,
				"method": "rhf"
			},
			{
				"type": "occ",
				"energy": -0.25324,
				"method": "rhf"
			},
			{
				"type": "occ",
				"energy": -0.24803,
				"method": "rhf"
			},
			{
				"type": "occ",
				"energy": -0.23478,
				"method": "rhf"
			},
			{
				"type": "occ",
				"energy": -0.21384,
				"method": "rhf"
			},
			{
				"type": "unocc",
				"energy": -0.01528,
				"method": "rhf"
			},
			{
				"type": "unocc",
				"energy": -0.00811,
				"method": "rhf"
			},
			{
				"type": "unocc",
				"energy": 0.0255,
				"method": "rhf"
			},
			{
				"type": "unocc",
				"energy": 0.03453,
				"method": "rhf"
			},
			{
				"type": "unocc",
				"energy": 0.06922,
				"method": "rhf"
			}
		],
		"cosmo_sigma_profile": { 
			"-0.025": 0.0,
			"-0.024": 0.0,
			"-0.023": 0.0,
			"-0.022": 0.0,
			"-0.021": 0.0,
			"-0.02": 0.0,
			"-0.019": 0.0,
			"-0.018": 0.0,
			"-0.017": 0.0,
			"-0.016": 0.0,
			"-0.015": 0.0,
			"-0.014": 0.0320981149102,
			"-0.013": 2.27664064671,
			"-0.012": 2.74838043792,
			"-0.011": 3.66405976852,
			"-0.01": 2.90195947129,
			"-0.009": 3.58043896822,
			"-0.008": 3.09627858996,
			"-0.007": 4.73593802719,
			"-0.006": 8.56750468391,
			"-0.005": 22.9090479015,
			"-0.004": 29.6891403955,
			"-0.003": 21.5538660515,
			"-0.002": 17.2153427273,
			"-0.001": 13.5965456469,
			"0.0": 12.5258425014,
			"0.001": 13.5883438126,
			"0.002": 16.5551712759,
			"0.003": 16.8887455803,
			"0.004": 21.0443428221,
			"0.005": 9.9471261251,
			"0.006": 3.88247646229,
			"0.007": 4.13627824805,
			"0.008": 3.22574067081,
			"0.009": 2.63350881749,
			"0.01": 3.99251064366,
			"0.011": 3.51859548926,
			"0.012": 4.17232100633,
			"0.013": 6.18014247734,
			"0.014": 4.35992963642,
			"0.015": 0.91305090766,
			"0.016": 0.0,
			"0.017": 0.0,
			"0.018": 0.0,
			"0.019": 0.0,
			"0.02": 0.0,
			"0.021": 0.0,
			"0.022": 0.0,
			"0.023": 0.0,
			"0.024": 0.0,
			"0.025": 0.0
		}
	}
}
