{
	 "smiles": "ClC1=CC(=NC2=NC=NN12)C1=CC=CC=C1", 
	 "Tm": 433.15, 
	 "num_atms": 23, 
	 "gaussian": { 
		 "optdone": 1, 
		 "sigma_profile": "yes", 
		 "theory": "DFT", 
		 "functional": "B3LYP", 
		 "basiset": "6-31G**", 
		 "properties": { 
			 "R2extent": 5946.4887, 
			 "electric_dipole_moment_norm": 3.81179719686, 
			 "electric_quadrupole_moment_norm": 4.33145015324, 
			 "total_energy": -1102.56468267, 
			 "HOMO_LUMO_gap": 0.16466, 
			 "cosmo_polarized_energy": -12.54, 
			 "cosmo_cavitation_energy": 29.8, 
			 "cosmo_dispersion_energy": -22.49, 
			 "cosmo_repulsion_energy": 1.7, 
			 "cosmo_total_nonelectrostatic_energy": 9.01, 
			 "SMD_solvation_energy": 1.09 
		},
		"coords": [
			{
				"x": -2.4960624171,
				"y": -1.224768489,
				"z": -4.40589668,
				"element": "Cl" 
			},
			{
				"x": -1.5365210744,
				"y": -0.3821659986,
				"z": -3.248521468,
				"element": "C" 
			},
			{
				"x": -1.8321074139,
				"y": -0.3212423556,
				"z": -1.9118535899,
				"element": "C" 
			},
			{
				"x": -0.9728554894,
				"y": 0.4137155381,
				"z": -1.0346521608,
				"element": "C" 
			},
			{
				"x": 0.1012874331,
				"y": 1.0592220496,
				"z": -1.4785843319,
				"element": "N" 
			},
			{
				"x": 0.3780684794,
				"y": 0.9963682635,
				"z": -2.7838114884,
				"element": "C" 
			},
			{
				"x": 1.3800099042,
				"y": 1.5420926337,
				"z": -3.4718044523,
				"element": "N" 
			},
			{
				"x": 1.1433401332,
				"y": 1.1314569844,
				"z": -4.7354979091,
				"element": "C" 
			},
			{
				"x": 0.0707093045,
				"y": 0.360145663,
				"z": -4.9416436611,
				"element": "N" 
			},
			{
				"x": -0.4279770573,
				"y": 0.2685527064,
				"z": -3.686256612,
				"element": "N" 
			},
			{
				"x": -1.2619381922,
				"y": 0.49938151,
				"z": 0.4185861534,
				"element": "C" 
			},
			{
				"x": -0.6259088863,
				"y": 1.4905238545,
				"z": 1.1865740961,
				"element": "C" 
			},
			{
				"x": -0.8799581412,
				"y": 1.5999428709,
				"z": 2.5504529827,
				"element": "C" 
			},
			{
				"x": -1.7668936281,
				"y": 0.7190014556,
				"z": 3.1750126701,
				"element": "C" 
			},
			{
				"x": -2.395429846,
				"y": -0.2760834367,
				"z": 2.4247816328,
				"element": "C" 
			},
			{
				"x": -2.1465783439,
				"y": -0.3852434693,
				"z": 1.0577163839,
				"element": "C" 
			},
			{
				"x": -2.7265937897,
				"y": -0.8098144895,
				"z": -1.5543266313,
				"element": "H" 
			},
			{
				"x": 1.781753494,
				"y": 1.4014355998,
				"z": -5.5663357735,
				"element": "H" 
			},
			{
				"x": 0.0640328163,
				"y": 2.1651287967,
				"z": 0.6928035017,
				"element": "H" 
			},
			{
				"x": -0.3854049803,
				"y": 2.3751284164,
				"z": 3.1283302475,
				"element": "H" 
			},
			{
				"x": -1.9636168533,
				"y": 0.8049032717,
				"z": 4.2396725911,
				"element": "H" 
			},
			{
				"x": -3.0765167173,
				"y": -0.9730030315,
				"z": 2.9040216047,
				"element": "H" 
			},
			{
				"x": -2.6278387341,
				"y": -1.182978344,
				"z": 0.5012328943,
				"element": "H" 
			}
		],
		 "valence_orbital": [ 
			{
				"type": "occ",
				"energy": -0.28841,
				"method": "rhf"
			},
			{
				"type": "occ",
				"energy": -0.28333,
				"method": "rhf"
			},
			{
				"type": "occ",
				"energy": -0.26674,
				"method": "rhf"
			},
			{
				"type": "occ",
				"energy": -0.2633,
				"method": "rhf"
			},
			{
				"type": "occ",
				"energy": -0.24331,
				"method": "rhf"
			},
			{
				"type": "unocc",
				"energy": -0.07865,
				"method": "rhf"
			},
			{
				"type": "unocc",
				"energy": -0.04251,
				"method": "rhf"
			},
			{
				"type": "unocc",
				"energy": -0.01235,
				"method": "rhf"
			},
			{
				"type": "unocc",
				"energy": 0.00292,
				"method": "rhf"
			},
			{
				"type": "unocc",
				"energy": 0.0097,
				"method": "rhf"
			}
		],
		"cosmo_sigma_profile": { 
			"-0.025": 0.0,
			"-0.024": 0.0,
			"-0.023": 0.0,
			"-0.022": 0.0,
			"-0.021": 0.0,
			"-0.02": 0.0,
			"-0.019": 0.0,
			"-0.018": 0.0,
			"-0.017": 0.0,
			"-0.016": 0.0,
			"-0.015": 0.0,
			"-0.014": 0.0,
			"-0.013": 0.0,
			"-0.012": 0.0,
			"-0.011": 0.76863482334,
			"-0.01": 2.44410445971,
			"-0.009": 3.69159565421,
			"-0.008": 3.56396519906,
			"-0.007": 6.6889809091,
			"-0.006": 13.3131985524,
			"-0.005": 17.6132250061,
			"-0.004": 18.1098494544,
			"-0.003": 19.2150465459,
			"-0.002": 19.7234749524,
			"-0.001": 16.4214654844,
			"0.0": 16.4266407026,
			"0.001": 19.3457069414,
			"0.002": 18.5626999935,
			"0.003": 15.6360344178,
			"0.004": 15.9359578142,
			"0.005": 6.45296873351,
			"0.006": 4.37002765143,
			"0.007": 3.88088886556,
			"0.008": 2.94260233714,
			"0.009": 3.71233614406,
			"0.01": 3.67828100597,
			"0.011": 3.95432145124,
			"0.012": 3.02831166508,
			"0.013": 2.1655072094,
			"0.014": 0.841318283748,
			"0.015": 1.50411768947,
			"0.016": 0.317010146861,
			"0.017": 0.0,
			"0.018": 0.0,
			"0.019": 0.0,
			"0.02": 0.0,
			"0.021": 0.0,
			"0.022": 0.0,
			"0.023": 0.0,
			"0.024": 0.0,
			"0.025": 0.0
		}
	}
}
