{
	 "smiles": "COC1=CC=C(CN2CCC3=CC=CC=C3C2)C=C1O", 
	 "Tm": 402.15, 
	 "num_atms": 39, 
	 "gaussian": { 
		 "optdone": 1, 
		 "sigma_profile": "yes", 
		 "theory": "DFT", 
		 "functional": "B3LYP", 
		 "basiset": "6-31G**", 
		 "properties": { 
			 "R2extent": 8756.6856, 
			 "electric_dipole_moment_norm": 2.15069570837, 
			 "electric_quadrupole_moment_norm": 13.1122780885, 
			 "total_energy": -864.431126633, 
			 "HOMO_LUMO_gap": 0.20573, 
			 "cosmo_polarized_energy": -12.44, 
			 "cosmo_cavitation_energy": 40.8, 
			 "cosmo_dispersion_energy": -29.05, 
			 "cosmo_repulsion_energy": 2.23, 
			 "cosmo_total_nonelectrostatic_energy": 13.98, 
			 "SMD_solvation_energy": 5.88 
		},
		"coords": [
			{
				"x": -3.4135588524,
				"y": 1.2985723385,
				"z": 5.5614080129,
				"element": "C" 
			},
			{
				"x": -2.2595356391,
				"y": 0.5299581643,
				"z": 5.2147207401,
				"element": "O" 
			},
			{
				"x": -2.1114435059,
				"y": 0.2318989834,
				"z": 3.8817218576,
				"element": "C" 
			},
			{
				"x": -2.1184962822,
				"y": -1.1032171213,
				"z": 3.4840015113,
				"element": "C" 
			},
			{
				"x": -1.8964144829,
				"y": -1.4607138125,
				"z": 2.1517644863,
				"element": "C" 
			},
			{
				"x": -1.6835166559,
				"y": -0.4765973493,
				"z": 1.1844635885,
				"element": "C" 
			},
			{
				"x": -1.5110951683,
				"y": -0.839551871,
				"z": -0.2806303456,
				"element": "C" 
			},
			{
				"x": -0.4888431434,
				"y": -0.0341991802,
				"z": -0.9471337987,
				"element": "N" 
			},
			{
				"x": 0.8642657034,
				"y": -0.3248776058,
				"z": -0.4248752404,
				"element": "C" 
			},
			{
				"x": 1.9495290464,
				"y": -0.2778028015,
				"z": -1.5158775566,
				"element": "C" 
			},
			{
				"x": 1.5726143506,
				"y": -1.2040346603,
				"z": -2.6454388442,
				"element": "C" 
			},
			{
				"x": 2.4261995251,
				"y": -2.1494551529,
				"z": -3.2157713332,
				"element": "C" 
			},
			{
				"x": 1.9670972458,
				"y": -2.9839509393,
				"z": -4.2388482816,
				"element": "C" 
			},
			{
				"x": 0.6481261031,
				"y": -2.8835599817,
				"z": -4.6846750641,
				"element": "C" 
			},
			{
				"x": -0.2137937049,
				"y": -1.9458950467,
				"z": -4.1087659467,
				"element": "C" 
			},
			{
				"x": 0.2446769547,
				"y": -1.103089865,
				"z": -3.0955901696,
				"element": "C" 
			},
			{
				"x": -0.5889567946,
				"y": -0.0350710827,
				"z": -2.4211757348,
				"element": "C" 
			},
			{
				"x": -1.6736556324,
				"y": 0.866588538,
				"z": 1.5814117038,
				"element": "C" 
			},
			{
				"x": -1.8728595985,
				"y": 1.2285492792,
				"z": 2.9125268566,
				"element": "C" 
			},
			{
				"x": -1.8360687189,
				"y": 2.5319186917,
				"z": 3.3332819771,
				"element": "O" 
			},
			{
				"x": -4.3338703293,
				"y": 0.7823476555,
				"z": 5.25726649,
				"element": "H" 
			},
			{
				"x": -3.3991210947,
				"y": 1.3924953336,
				"z": 6.6494479655,
				"element": "H" 
			},
			{
				"x": -3.3876097369,
				"y": 2.2939081977,
				"z": 5.108502445,
				"element": "H" 
			},
			{
				"x": -2.2849765757,
				"y": -1.8562555283,
				"z": 4.2479607392,
				"element": "H" 
			},
			{
				"x": -1.8955535701,
				"y": -2.5094132318,
				"z": 1.8671276523,
				"element": "H" 
			},
			{
				"x": -1.3111911194,
				"y": -1.9254191988,
				"z": -0.3547841168,
				"element": "H" 
			},
			{
				"x": -2.4622293095,
				"y": -0.6609489036,
				"z": -0.7992627802,
				"element": "H" 
			},
			{
				"x": 1.107679259,
				"y": 0.377160211,
				"z": 0.3818412089,
				"element": "H" 
			},
			{
				"x": 0.8852451153,
				"y": -1.3335874591,
				"z": 0.0185632634,
				"element": "H" 
			},
			{
				"x": 2.9153416034,
				"y": -0.5507750875,
				"z": -1.0788084654,
				"element": "H" 
			},
			{
				"x": 2.0506787656,
				"y": 0.7529603297,
				"z": -1.8856880531,
				"element": "H" 
			},
			{
				"x": 3.4507507535,
				"y": -2.2351557345,
				"z": -2.8612090353,
				"element": "H" 
			},
			{
				"x": 2.6368588532,
				"y": -3.715631381,
				"z": -4.6819110389,
				"element": "H" 
			},
			{
				"x": 0.2892270269,
				"y": -3.5369218552,
				"z": -5.4749701866,
				"element": "H" 
			},
			{
				"x": -1.2433343651,
				"y": -1.869466717,
				"z": -4.4515001797,
				"element": "H" 
			},
			{
				"x": -1.6434538142,
				"y": -0.1231720927,
				"z": -2.6974925142,
				"element": "H" 
			},
			{
				"x": -0.2580937892,
				"y": 0.9496237167,
				"z": -2.7852254037,
				"element": "H" 
			},
			{
				"x": -1.477950992,
				"y": 1.6309126101,
				"z": 0.8313958538,
				"element": "H" 
			},
			{
				"x": -1.6539674306,
				"y": 3.0945696102,
				"z": 2.5694277375,
				"element": "H" 
			}
		],
		 "valence_orbital": [ 
			{
				"type": "occ",
				"energy": -0.24464,
				"method": "rhf"
			},
			{
				"type": "occ",
				"energy": -0.23693,
				"method": "rhf"
			},
			{
				"type": "occ",
				"energy": -0.23188,
				"method": "rhf"
			},
			{
				"type": "occ",
				"energy": -0.21048,
				"method": "rhf"
			},
			{
				"type": "occ",
				"energy": -0.20445,
				"method": "rhf"
			},
			{
				"type": "unocc",
				"energy": 0.00128,
				"method": "rhf"
			},
			{
				"type": "unocc",
				"energy": 0.00196,
				"method": "rhf"
			},
			{
				"type": "unocc",
				"energy": 0.00517,
				"method": "rhf"
			},
			{
				"type": "unocc",
				"energy": 0.01743,
				"method": "rhf"
			},
			{
				"type": "unocc",
				"energy": 0.07028,
				"method": "rhf"
			}
		],
		"cosmo_sigma_profile": { 
			"-0.025": 0.0,
			"-0.024": 0.0,
			"-0.023": 0.0,
			"-0.022": 0.0,
			"-0.021": 0.0,
			"-0.02": 0.0,
			"-0.019": 0.0,
			"-0.018": 0.120883153822,
			"-0.017": 1.25377421599,
			"-0.016": 0.975510094581,
			"-0.015": 0.966554929199,
			"-0.014": 1.15349419394,
			"-0.013": 1.10648361946,
			"-0.012": 1.0414110044,
			"-0.011": 0.061381974558,
			"-0.01": 1.13226337821,
			"-0.009": 1.45021525104,
			"-0.008": 0.651411133197,
			"-0.007": 0.771567009648,
			"-0.006": 3.27554439195,
			"-0.005": 19.6486996043,
			"-0.004": 29.6091158275,
			"-0.003": 34.6510521575,
			"-0.002": 37.630357942,
			"-0.001": 29.8962623279,
			"0.0": 23.2541926321,
			"0.001": 20.8917468233,
			"0.002": 17.5197425012,
			"0.003": 17.4304667601,
			"0.004": 18.4893393573,
			"0.005": 19.8145466809,
			"0.006": 16.3215169311,
			"0.007": 7.84444218845,
			"0.008": 3.30443396266,
			"0.009": 3.18448508248,
			"0.01": 3.36894626234,
			"0.011": 2.88122893634,
			"0.012": 1.7560235862,
			"0.013": 0.143799364487,
			"0.014": 0.0,
			"0.015": 0.0,
			"0.016": 0.0,
			"0.017": 0.0,
			"0.018": 0.0,
			"0.019": 0.0,
			"0.02": 0.0,
			"0.021": 0.0,
			"0.022": 0.0,
			"0.023": 0.0,
			"0.024": 0.0,
			"0.025": 0.0
		}
	}
}
