{
	 "smiles": "O=S1(=O)CCC(NC2=CC=CC=C2)=C1", 
	 "Tm": 427.15, 
	 "num_atms": 25, 
	 "gaussian": { 
		 "optdone": 1, 
		 "sigma_profile": "yes", 
		 "theory": "DFT", 
		 "functional": "B3LYP", 
		 "basiset": "6-31G**", 
		 "properties": { 
			 "R2extent": 4597.8445, 
			 "electric_dipole_moment_norm": 7.55568307303, 
			 "electric_quadrupole_moment_norm": 30.5305513629, 
			 "total_energy": -990.998509163, 
			 "HOMO_LUMO_gap": 0.18805, 
			 "cosmo_polarized_energy": -22.16, 
			 "cosmo_cavitation_energy": 29.65, 
			 "cosmo_dispersion_energy": -22.56, 
			 "cosmo_repulsion_energy": 1.72, 
			 "cosmo_total_nonelectrostatic_energy": 8.82, 
			 "SMD_solvation_energy": 4.2 
		},
		"coords": [
			{
				"x": 4.0787615159,
				"y": 1.4638027076,
				"z": -1.2329648881,
				"element": "O" 
			},
			{
				"x": 3.6114092777,
				"y": 0.6348997634,
				"z": -0.1071374726,
				"element": "S" 
			},
			{
				"x": 4.6117698248,
				"y": -0.0072467141,
				"z": 0.7612940523,
				"element": "O" 
			},
			{
				"x": 2.4045868101,
				"y": -0.5950223307,
				"z": -0.7263246716,
				"element": "C" 
			},
			{
				"x": 1.0359927568,
				"y": 0.0912267381,
				"z": -0.6234851751,
				"element": "C" 
			},
			{
				"x": 1.1323783731,
				"y": 1.1224816391,
				"z": 0.4933930384,
				"element": "C" 
			},
			{
				"x": 0.0035997267,
				"y": 1.621051511,
				"z": 1.0997353889,
				"element": "N" 
			},
			{
				"x": -1.3569679914,
				"y": 1.3373101338,
				"z": 0.8399272298,
				"element": "C" 
			},
			{
				"x": -1.8767429159,
				"y": 1.2681968019,
				"z": -0.461041975,
				"element": "C" 
			},
			{
				"x": -3.2332530578,
				"y": 1.0080477909,
				"z": -0.6571163837,
				"element": "C" 
			},
			{
				"x": -4.0933896051,
				"y": 0.8494984414,
				"z": 0.4301047428,
				"element": "C" 
			},
			{
				"x": -3.5828463317,
				"y": 0.9503275235,
				"z": 1.7261639229,
				"element": "C" 
			},
			{
				"x": -2.2251392555,
				"y": 1.1827149008,
				"z": 1.9323000949,
				"element": "C" 
			},
			{
				"x": 2.3897812958,
				"y": 1.474309176,
				"z": 0.8451937312,
				"element": "C" 
			},
			{
				"x": 2.4793911908,
				"y": -1.4618974382,
				"z": -0.0669726374,
				"element": "H" 
			},
			{
				"x": 2.6891229055,
				"y": -0.8706800914,
				"z": -1.7424915713,
				"element": "H" 
			},
			{
				"x": 0.2405025842,
				"y": -0.63124636,
				"z": -0.4206891011,
				"element": "H" 
			},
			{
				"x": 0.7918559939,
				"y": 0.5881594771,
				"z": -1.5678564536,
				"element": "H" 
			},
			{
				"x": 0.1730836819,
				"y": 2.1598465673,
				"z": 1.9374893732,
				"element": "H" 
			},
			{
				"x": -1.2334769961,
				"y": 1.4482343847,
				"z": -1.3141147951,
				"element": "H" 
			},
			{
				"x": -3.62074623,
				"y": 0.9535565782,
				"z": -1.6702728877,
				"element": "H" 
			},
			{
				"x": -5.1498898281,
				"y": 0.6588706497,
				"z": 0.2701630659,
				"element": "H" 
			},
			{
				"x": -4.2404387659,
				"y": 0.8350918058,
				"z": 2.5827619225,
				"element": "H" 
			},
			{
				"x": -1.8264072563,
				"y": 1.2348920809,
				"z": 2.9421503674,
				"element": "H" 
			},
			{
				"x": 2.6976622965,
				"y": 2.2073742632,
				"z": 1.5788910818,
				"element": "H" 
			}
		],
		 "valence_orbital": [ 
			{
				"type": "occ",
				"energy": -0.28654,
				"method": "rhf"
			},
			{
				"type": "occ",
				"energy": -0.27608,
				"method": "rhf"
			},
			{
				"type": "occ",
				"energy": -0.27031,
				"method": "rhf"
			},
			{
				"type": "occ",
				"energy": -0.26907,
				"method": "rhf"
			},
			{
				"type": "occ",
				"energy": -0.21783,
				"method": "rhf"
			},
			{
				"type": "unocc",
				"energy": -0.02978,
				"method": "rhf"
			},
			{
				"type": "unocc",
				"energy": -0.02195,
				"method": "rhf"
			},
			{
				"type": "unocc",
				"energy": 0.01071,
				"method": "rhf"
			},
			{
				"type": "unocc",
				"energy": 0.05815,
				"method": "rhf"
			},
			{
				"type": "unocc",
				"energy": 0.06884,
				"method": "rhf"
			}
		],
		"cosmo_sigma_profile": { 
			"-0.025": 0.0,
			"-0.024": 0.0,
			"-0.023": 0.0,
			"-0.022": 0.0,
			"-0.021": 0.0,
			"-0.02": 0.0,
			"-0.019": 0.0,
			"-0.018": 0.0,
			"-0.017": 0.0,
			"-0.016": 0.042886102372,
			"-0.015": 1.00129366782,
			"-0.014": 1.41788562291,
			"-0.013": 1.24710717202,
			"-0.012": 1.30535303239,
			"-0.011": 1.41716016296,
			"-0.01": 1.82718044724,
			"-0.009": 3.27210925082,
			"-0.008": 8.59989651992,
			"-0.007": 13.058142697,
			"-0.006": 18.1245416869,
			"-0.005": 18.5316346519,
			"-0.004": 19.1102571822,
			"-0.003": 15.7131918929,
			"-0.002": 10.3553042061,
			"-0.001": 10.3507114585,
			"0.0": 9.43656085305,
			"0.001": 11.7958133704,
			"0.002": 9.99209177213,
			"0.003": 12.9271799625,
			"0.004": 11.2016721208,
			"0.005": 11.6385467809,
			"0.006": 4.99273871176,
			"0.007": 1.96041917278,
			"0.008": 2.54090080192,
			"0.009": 2.70573736821,
			"0.01": 3.10276718386,
			"0.011": 4.90491649085,
			"0.012": 12.6597263851,
			"0.013": 10.08494656,
			"0.014": 0.934114565666,
			"0.015": 0.0,
			"0.016": 0.0,
			"0.017": 0.0,
			"0.018": 0.0,
			"0.019": 0.0,
			"0.02": 0.0,
			"0.021": 0.0,
			"0.022": 0.0,
			"0.023": 0.0,
			"0.024": 0.0,
			"0.025": 0.0
		}
	}
}
