{
	 "smiles": "FC(F)(F)COC(=O)NC1=CC=C(C=C1)C1=CC=CC=C1", 
	 "Tm": 442.15, 
	 "num_atms": 33, 
	 "gaussian": { 
		 "optdone": 1, 
		 "sigma_profile": "yes", 
		 "theory": "DFT", 
		 "functional": "B3LYP", 
		 "basiset": "6-31G**", 
		 "properties": { 
			 "R2extent": 10056.6431, 
			 "electric_dipole_moment_norm": 1.67494288261, 
			 "electric_quadrupole_moment_norm": 4.70783210618, 
			 "total_energy": -1083.58140344, 
			 "HOMO_LUMO_gap": 0.18174, 
			 "cosmo_polarized_energy": -12.45, 
			 "cosmo_cavitation_energy": 39.81, 
			 "cosmo_dispersion_energy": -27.72, 
			 "cosmo_repulsion_energy": 2.04, 
			 "cosmo_total_nonelectrostatic_energy": 14.13, 
			 "SMD_solvation_energy": 8.78 
		},
		"coords": [
			{
				"x": 5.6629318747,
				"y": -3.4192611195,
				"z": 0.1632050959,
				"element": "F" 
			},
			{
				"x": 4.5340818584,
				"y": -2.6892421868,
				"z": 0.0580269101,
				"element": "C" 
			},
			{
				"x": 4.4174874329,
				"y": -1.9343664921,
				"z": 1.1684484945,
				"element": "F" 
			},
			{
				"x": 4.6688046426,
				"y": -1.8573559737,
				"z": -0.9899039909,
				"element": "F" 
			},
			{
				"x": 3.3520699699,
				"y": -3.6228516931,
				"z": -0.1100514289,
				"element": "C" 
			},
			{
				"x": 2.1909148549,
				"y": -2.7995058076,
				"z": -0.146332494,
				"element": "O" 
			},
			{
				"x": 1.0339023128,
				"y": -3.4622721651,
				"z": -0.4054032077,
				"element": "C" 
			},
			{
				"x": 0.9765026379,
				"y": -4.6560212954,
				"z": -0.6334267739,
				"element": "O" 
			},
			{
				"x": -0.0637487696,
				"y": -2.6425937314,
				"z": -0.3922794547,
				"element": "N" 
			},
			{
				"x": -0.249899908,
				"y": -1.2662697601,
				"z": -0.1290022614,
				"element": "C" 
			},
			{
				"x": -1.5379818554,
				"y": -0.7561340465,
				"z": -0.3592637554,
				"element": "C" 
			},
			{
				"x": -1.8296597395,
				"y": 0.5802779509,
				"z": -0.1191547301,
				"element": "C" 
			},
			{
				"x": -0.8496198095,
				"y": 1.4650915781,
				"z": 0.3601477088,
				"element": "C" 
			},
			{
				"x": 0.4310467705,
				"y": 0.9385758995,
				"z": 0.5887903418,
				"element": "C" 
			},
			{
				"x": 0.74060354,
				"y": -0.3994331484,
				"z": 0.35559221,
				"element": "C" 
			},
			{
				"x": -1.1565730452,
				"y": 2.8940131384,
				"z": 0.6151317161,
				"element": "C" 
			},
			{
				"x": -0.2110745677,
				"y": 3.8968745589,
				"z": 0.3389238373,
				"element": "C" 
			},
			{
				"x": -0.4985031817,
				"y": 5.23955782,
				"z": 0.5798972398,
				"element": "C" 
			},
			{
				"x": -1.7400568028,
				"y": 5.6116652675,
				"z": 1.0991884752,
				"element": "C" 
			},
			{
				"x": -2.690395699,
				"y": 4.6271531277,
				"z": 1.3768916794,
				"element": "C" 
			},
			{
				"x": -2.4011386167,
				"y": 3.2842396779,
				"z": 1.1392856961,
				"element": "C" 
			},
			{
				"x": 3.4641916257,
				"y": -4.1939510477,
				"z": -1.0342003713,
				"element": "H" 
			},
			{
				"x": 3.3159615233,
				"y": -4.3179808926,
				"z": 0.7328705603,
				"element": "H" 
			},
			{
				"x": -0.8980344884,
				"y": -3.1607347505,
				"z": -0.6300088239,
				"element": "H" 
			},
			{
				"x": -2.3147734622,
				"y": -1.4131125087,
				"z": -0.743975778,
				"element": "H" 
			},
			{
				"x": -2.8284823465,
				"y": 0.947930475,
				"z": -0.3335615906,
				"element": "H" 
			},
			{
				"x": 1.2078471559,
				"y": 1.5839809492,
				"z": 0.9876625384,
				"element": "H" 
			},
			{
				"x": 1.7371333007,
				"y": -0.7612391185,
				"z": 0.5618065734,
				"element": "H" 
			},
			{
				"x": 0.7473682302,
				"y": 3.6223540974,
				"z": -0.0919447525,
				"element": "H" 
			},
			{
				"x": 0.2459747241,
				"y": 5.9972329657,
				"z": 0.3518891289,
				"element": "H" 
			},
			{
				"x": -1.9645839525,
				"y": 6.6578262006,
				"z": 1.2855911207,
				"element": "H" 
			},
			{
				"x": -3.656729266,
				"y": 4.9035460729,
				"z": 1.7894027143,
				"element": "H" 
			},
			{
				"x": -3.1377669438,
				"y": 2.5253059579,
				"z": 1.3867573724,
				"element": "H" 
			}
		],
		 "valence_orbital": [ 
			{
				"type": "occ",
				"energy": -0.29437,
				"method": "rhf"
			},
			{
				"type": "occ",
				"energy": -0.26014,
				"method": "rhf"
			},
			{
				"type": "occ",
				"energy": -0.25883,
				"method": "rhf"
			},
			{
				"type": "occ",
				"energy": -0.25119,
				"method": "rhf"
			},
			{
				"type": "occ",
				"energy": -0.21331,
				"method": "rhf"
			},
			{
				"type": "unocc",
				"energy": -0.03157,
				"method": "rhf"
			},
			{
				"type": "unocc",
				"energy": -0.01047,
				"method": "rhf"
			},
			{
				"type": "unocc",
				"energy": -0.00202,
				"method": "rhf"
			},
			{
				"type": "unocc",
				"energy": 0.01616,
				"method": "rhf"
			},
			{
				"type": "unocc",
				"energy": 0.0551,
				"method": "rhf"
			}
		],
		"cosmo_sigma_profile": { 
			"-0.025": 0.0,
			"-0.024": 0.0,
			"-0.023": 0.0,
			"-0.022": 0.0,
			"-0.021": 0.0,
			"-0.02": 0.0,
			"-0.019": 0.0,
			"-0.018": 0.0,
			"-0.017": 0.0,
			"-0.016": 0.118558496974,
			"-0.015": 0.987594517275,
			"-0.014": 1.20233389214,
			"-0.013": 0.959261561844,
			"-0.012": 1.74914205001,
			"-0.011": 1.02902321743,
			"-0.01": 1.08709256206,
			"-0.009": 5.39406456974,
			"-0.008": 5.01371026779,
			"-0.007": 6.18539440757,
			"-0.006": 12.3548618749,
			"-0.005": 19.543962025,
			"-0.004": 21.2208409109,
			"-0.003": 20.6939690421,
			"-0.002": 17.089577896,
			"-0.001": 21.646864487,
			"0.0": 19.9980198057,
			"0.001": 23.9931998896,
			"0.002": 40.1954273155,
			"0.003": 37.2932083822,
			"0.004": 19.4420487056,
			"0.005": 19.1121214095,
			"0.006": 8.80404188474,
			"0.007": 0.923603211856,
			"0.008": 1.56734683345,
			"0.009": 1.25508034676,
			"0.01": 1.14106336688,
			"0.011": 2.74814226557,
			"0.012": 5.38796386399,
			"0.013": 0.93966429082,
			"0.014": 0.0,
			"0.015": 0.0,
			"0.016": 0.0,
			"0.017": 0.0,
			"0.018": 0.0,
			"0.019": 0.0,
			"0.02": 0.0,
			"0.021": 0.0,
			"0.022": 0.0,
			"0.023": 0.0,
			"0.024": 0.0,
			"0.025": 0.0
		}
	}
}
