{
	 "smiles": "CC1=CC(=CC=C1[N+]([O-])=O)C#N", 
	 "Tm": 354.15, 
	 "num_atms": 18, 
	 "gaussian": { 
		 "optdone": 1, 
		 "sigma_profile": "yes", 
		 "theory": "DFT", 
		 "functional": "B3LYP", 
		 "basiset": "6-31G**", 
		 "properties": { 
			 "R2extent": 2925.6861, 
			 "electric_dipole_moment_norm": 0.808133182093, 
			 "electric_quadrupole_moment_norm": 25.0740694083, 
			 "total_energy": -568.301019894, 
			 "HOMO_LUMO_gap": 0.17826, 
			 "cosmo_polarized_energy": -11.4, 
			 "cosmo_cavitation_energy": 24.06, 
			 "cosmo_dispersion_energy": -17.1, 
			 "cosmo_repulsion_energy": 1.35, 
			 "cosmo_total_nonelectrostatic_energy": 8.32, 
			 "SMD_solvation_energy": 7.73 
		},
		"coords": [
			{
				"x": 2.9137347623,
				"y": -0.2234543446,
				"z": 0.0950264222,
				"element": "C" 
			},
			{
				"x": 1.5798527287,
				"y": -0.705310986,
				"z": 0.6107422915,
				"element": "C" 
			},
			{
				"x": 1.0549200419,
				"y": -1.8968455249,
				"z": 0.093313739,
				"element": "C" 
			},
			{
				"x": -0.1770869396,
				"y": -2.4159723823,
				"z": 0.5141728945,
				"element": "C" 
			},
			{
				"x": -0.9378818261,
				"y": -1.7336898441,
				"z": 1.4767612171,
				"element": "C" 
			},
			{
				"x": -0.4496976587,
				"y": -0.545203787,
				"z": 1.9968681991,
				"element": "C" 
			},
			{
				"x": 0.7866016917,
				"y": -0.0495772515,
				"z": 1.574118489,
				"element": "C" 
			},
			{
				"x": 1.2185285209,
				"y": 1.216373114,
				"z": 2.2022341127,
				"element": "N" 
			},
			{
				"x": 0.3700085638,
				"y": 1.863846163,
				"z": 2.8134507094,
				"element": "O" 
			},
			{
				"x": 2.3978290146,
				"y": 1.5483020171,
				"z": 2.0893784254,
				"element": "O" 
			},
			{
				"x": -0.6592312775,
				"y": -3.6456251169,
				"z": -0.0461845074,
				"element": "C" 
			},
			{
				"x": -1.0505347608,
				"y": -4.6423893138,
				"z": -0.4995417954,
				"element": "N" 
			},
			{
				"x": 2.8682993106,
				"y": 0.8153596948,
				"z": -0.2396205598,
				"element": "H" 
			},
			{
				"x": 3.232893415,
				"y": -0.8511930134,
				"z": -0.7403998874,
				"element": "H" 
			},
			{
				"x": 3.6761246404,
				"y": -0.2595104735,
				"z": 0.8769816113,
				"element": "H" 
			},
			{
				"x": 1.6220558881,
				"y": -2.4353637955,
				"z": -0.6584351553,
				"element": "H" 
			},
			{
				"x": -1.891732417,
				"y": -2.1315448223,
				"z": 1.8035097146,
				"element": "H" 
			},
			{
				"x": -1.0087836983,
				"y": 0.0187996669,
				"z": 2.7321240796,
				"element": "H" 
			}
		],
		 "valence_orbital": [ 
			{
				"type": "occ",
				"energy": -0.32349,
				"method": "rhf"
			},
			{
				"type": "occ",
				"energy": -0.32049,
				"method": "rhf"
			},
			{
				"type": "occ",
				"energy": -0.3061,
				"method": "rhf"
			},
			{
				"type": "occ",
				"energy": -0.2936,
				"method": "rhf"
			},
			{
				"type": "occ",
				"energy": -0.28947,
				"method": "rhf"
			},
			{
				"type": "unocc",
				"energy": -0.11121,
				"method": "rhf"
			},
			{
				"type": "unocc",
				"energy": -0.04662,
				"method": "rhf"
			},
			{
				"type": "unocc",
				"energy": -0.04394,
				"method": "rhf"
			},
			{
				"type": "unocc",
				"energy": 0.01855,
				"method": "rhf"
			},
			{
				"type": "unocc",
				"energy": 0.05808,
				"method": "rhf"
			}
		],
		"cosmo_sigma_profile": { 
			"-0.025": 0.0,
			"-0.024": 0.0,
			"-0.023": 0.0,
			"-0.022": 0.0,
			"-0.021": 0.0,
			"-0.02": 0.0,
			"-0.019": 0.0,
			"-0.018": 0.0,
			"-0.017": 0.0,
			"-0.016": 0.0,
			"-0.015": 0.0,
			"-0.014": 0.0,
			"-0.013": 0.0,
			"-0.012": 0.0,
			"-0.011": 0.0,
			"-0.01": 0.0646482535908,
			"-0.009": 3.32233638699,
			"-0.008": 8.13561675756,
			"-0.007": 8.88298535817,
			"-0.006": 7.78745860947,
			"-0.005": 12.5076528618,
			"-0.004": 11.4687597103,
			"-0.003": 17.129780881,
			"-0.002": 20.3644699022,
			"-0.001": 23.2374141571,
			"0.0": 13.1961355119,
			"0.001": 5.9199079691,
			"0.002": 4.45500201552,
			"0.003": 4.24789240862,
			"0.004": 4.94195098212,
			"0.005": 6.4418132719,
			"0.006": 6.36713654222,
			"0.007": 10.6717696455,
			"0.008": 9.03926102361,
			"0.009": 6.98933661781,
			"0.01": 4.22693260038,
			"0.011": 2.73249002428,
			"0.012": 1.81037470049,
			"0.013": 0.36274776847,
			"0.014": 0.0,
			"0.015": 0.0,
			"0.016": 0.0,
			"0.017": 0.0,
			"0.018": 0.0,
			"0.019": 0.0,
			"0.02": 0.0,
			"0.021": 0.0,
			"0.022": 0.0,
			"0.023": 0.0,
			"0.024": 0.0,
			"0.025": 0.0
		}
	}
}
