{
	 "smiles": "CN1C(O)=C(C(=O)C2=C1C=CC=C2)[N+]([O-])=O", 
	 "Tm": 433.15, 
	 "num_atms": 24, 
	 "gaussian": { 
		 "optdone": 1, 
		 "sigma_profile": "yes", 
		 "theory": "DFT", 
		 "functional": "B3LYP", 
		 "basiset": "6-31G**", 
		 "properties": { 
			 "R2extent": 3825.7018, 
			 "electric_dipole_moment_norm": 7.95167707217, 
			 "electric_quadrupole_moment_norm": 15.6908683329, 
			 "total_energy": -796.198251014, 
			 "HOMO_LUMO_gap": 0.1595, 
			 "cosmo_polarized_energy": -18.46, 
			 "cosmo_cavitation_energy": 27.93, 
			 "cosmo_dispersion_energy": -21.36, 
			 "cosmo_repulsion_energy": 1.59, 
			 "cosmo_total_nonelectrostatic_energy": 8.16, 
			 "SMD_solvation_energy": 7.63 
		},
		"coords": [
			{
				"x": 3.1513650059,
				"y": 0.5120719636,
				"z": -0.5369393985,
				"element": "C" 
			},
			{
				"x": 1.9047901404,
				"y": 0.1114125987,
				"z": 0.1269122642,
				"element": "N" 
			},
			{
				"x": 1.9656252982,
				"y": -0.5733674976,
				"z": 1.2994882489,
				"element": "C" 
			},
			{
				"x": 3.1591325552,
				"y": -0.8318646828,
				"z": 1.761841517,
				"element": "O" 
			},
			{
				"x": 0.7900309964,
				"y": -0.9828663962,
				"z": 1.9802567537,
				"element": "C" 
			},
			{
				"x": -0.5482845003,
				"y": -0.6905501479,
				"z": 1.457309149,
				"element": "C" 
			},
			{
				"x": -1.6075356984,
				"y": -1.0094741551,
				"z": 1.9852323673,
				"element": "O" 
			},
			{
				"x": -0.5313956678,
				"y": 0.0610849689,
				"z": 0.1709303366,
				"element": "C" 
			},
			{
				"x": 0.6661792859,
				"y": 0.4426875666,
				"z": -0.4619007953,
				"element": "C" 
			},
			{
				"x": 0.6147145377,
				"y": 1.1504599299,
				"z": -1.6749063977,
				"element": "C" 
			},
			{
				"x": -0.6162422666,
				"y": 1.4681227508,
				"z": -2.2400335426,
				"element": "C" 
			},
			{
				"x": -1.8103958974,
				"y": 1.09178474,
				"z": -1.6159519651,
				"element": "C" 
			},
			{
				"x": -1.7585429665,
				"y": 0.3928825962,
				"z": -0.4182461693,
				"element": "C" 
			},
			{
				"x": 0.9460161661,
				"y": -1.6939039626,
				"z": 3.1987960258,
				"element": "N" 
			},
			{
				"x": -0.0158245699,
				"y": -2.0764892077,
				"z": 3.8366224783,
				"element": "O" 
			},
			{
				"x": 2.1404219534,
				"y": -1.9300407704,
				"z": 3.6232652116,
				"element": "O" 
			},
			{
				"x": 3.9921045489,
				"y": 0.1734449701,
				"z": 0.0597425869,
				"element": "H" 
			},
			{
				"x": 3.189740382,
				"y": 1.6005585106,
				"z": -0.6320240872,
				"element": "H" 
			},
			{
				"x": 3.2067731823,
				"y": 0.0593681177,
				"z": -1.5305886864,
				"element": "H" 
			},
			{
				"x": 2.9544199655,
				"y": -1.3585669132,
				"z": 2.6595628599,
				"element": "H" 
			},
			{
				"x": 1.5215822756,
				"y": 1.4549038503,
				"z": -2.180858581,
				"element": "H" 
			},
			{
				"x": -0.6395565755,
				"y": 2.0153829595,
				"z": -3.177698412,
				"element": "H" 
			},
			{
				"x": -2.7660497126,
				"y": 1.3440250722,
				"z": -2.0641527402,
				"element": "H" 
			},
			{
				"x": -2.6551684384,
				"y": 0.0783331383,
				"z": 0.1049409758,
				"element": "H" 
			}
		],
		 "valence_orbital": [ 
			{
				"type": "occ",
				"energy": -0.29833,
				"method": "rhf"
			},
			{
				"type": "occ",
				"energy": -0.27343,
				"method": "rhf"
			},
			{
				"type": "occ",
				"energy": -0.27098,
				"method": "rhf"
			},
			{
				"type": "occ",
				"energy": -0.24496,
				"method": "rhf"
			},
			{
				"type": "occ",
				"energy": -0.24461,
				"method": "rhf"
			},
			{
				"type": "unocc",
				"energy": -0.08511,
				"method": "rhf"
			},
			{
				"type": "unocc",
				"energy": -0.05313,
				"method": "rhf"
			},
			{
				"type": "unocc",
				"energy": -0.02043,
				"method": "rhf"
			},
			{
				"type": "unocc",
				"energy": 0.00562,
				"method": "rhf"
			},
			{
				"type": "unocc",
				"energy": 0.06985,
				"method": "rhf"
			}
		],
		"cosmo_sigma_profile": { 
			"-0.025": 0.0,
			"-0.024": 0.0,
			"-0.023": 0.0,
			"-0.022": 0.0,
			"-0.021": 0.0,
			"-0.02": 0.0,
			"-0.019": 0.0,
			"-0.018": 0.0,
			"-0.017": 0.0,
			"-0.016": 0.0,
			"-0.015": 0.0,
			"-0.014": 0.0,
			"-0.013": 0.0,
			"-0.012": 0.0,
			"-0.011": 0.0,
			"-0.01": 0.0,
			"-0.009": 0.26760042637,
			"-0.008": 5.33099359357,
			"-0.007": 13.9810015173,
			"-0.006": 17.7339041018,
			"-0.005": 23.1573464896,
			"-0.004": 21.4086816303,
			"-0.003": 16.0689425816,
			"-0.002": 11.5672833302,
			"-0.001": 9.72892306441,
			"0.0": 10.5405924789,
			"0.001": 13.3087605464,
			"0.002": 13.6468557899,
			"0.003": 14.6529779823,
			"0.004": 6.80070038206,
			"0.005": 4.77256584397,
			"0.006": 5.42764853922,
			"0.007": 4.96523453611,
			"0.008": 6.95801729034,
			"0.009": 6.84029457403,
			"0.01": 4.82433838215,
			"0.011": 2.41082958964,
			"0.012": 3.91497945716,
			"0.013": 3.01253253836,
			"0.014": 1.68747601807,
			"0.015": 1.53415225063,
			"0.016": 0.285766041597,
			"0.017": 0.0,
			"0.018": 0.0,
			"0.019": 0.0,
			"0.02": 0.0,
			"0.021": 0.0,
			"0.022": 0.0,
			"0.023": 0.0,
			"0.024": 0.0,
			"0.025": 0.0
		}
	}
}
