{
	 "smiles": "ON=CC1=CC(Br)=CC=C1", 
	 "Tm": 345.15, 
	 "num_atms": 16, 
	 "gaussian": { 
		 "optdone": 1, 
		 "sigma_profile": "yes", 
		 "theory": "DFT", 
		 "functional": "B3LYP", 
		 "basiset": "6-31G**", 
		 "properties": { 
			 "R2extent": 4638.1119, 
			 "electric_dipole_moment_norm": 1.7245825031, 
			 "electric_quadrupole_moment_norm": 6.46657890387, 
			 "total_energy": -2971.67968257, 
			 "HOMO_LUMO_gap": 0.18146, 
			 "cosmo_polarized_energy": -8.0, 
			 "cosmo_cavitation_energy": 23.38, 
			 "cosmo_dispersion_energy": -17.67, 
			 "cosmo_repulsion_energy": 1.44, 
			 "cosmo_total_nonelectrostatic_energy": 7.16, 
			 "SMD_solvation_energy": 3.39 
		},
		"coords": [
			{
				"x": -1.779639897,
				"y": 0.5205546121,
				"z": -1.975727332,
				"element": "O" 
			},
			{
				"x": -1.1223425207,
				"y": -0.5058150471,
				"z": -1.2925531062,
				"element": "N" 
			},
			{
				"x": -0.2809720334,
				"y": -0.0312164912,
				"z": -0.4507458855,
				"element": "C" 
			},
			{
				"x": 0.5343266262,
				"y": -0.9151429965,
				"z": 0.3895223796,
				"element": "C" 
			},
			{
				"x": 1.4380403848,
				"y": -0.3342348935,
				"z": 1.2924199665,
				"element": "C" 
			},
			{
				"x": 2.2246175965,
				"y": -1.1489303352,
				"z": 2.1023702069,
				"element": "C" 
			},
			{
				"x": 3.4510540638,
				"y": -0.3417145495,
				"z": 3.3273073277,
				"element": "Br" 
			},
			{
				"x": 2.1358089229,
				"y": -2.537218873,
				"z": 2.0379514733,
				"element": "C" 
			},
			{
				"x": 1.2335367606,
				"y": -3.1115590698,
				"z": 1.1363974634,
				"element": "C" 
			},
			{
				"x": 0.4387956163,
				"y": -2.3163771717,
				"z": 0.3185318382,
				"element": "C" 
			},
			{
				"x": -2.3721607698,
				"y": 0.0357911853,
				"z": -2.5658112537,
				"element": "H" 
			},
			{
				"x": -0.1556275533,
				"y": 1.0489789722,
				"z": -0.3437774258,
				"element": "H" 
			},
			{
				"x": 1.5247955723,
				"y": 0.7449921195,
				"z": 1.3604223154,
				"element": "H" 
			},
			{
				"x": 2.75628097,
				"y": -3.1554042473,
				"z": 2.6764307372,
				"element": "H" 
			},
			{
				"x": 1.1569487158,
				"y": -4.1933118077,
				"z": 1.078735981,
				"element": "H" 
			},
			{
				"x": -0.2605624551,
				"y": -2.7611914068,
				"z": -0.3802746861,
				"element": "H" 
			}
		],
		 "valence_orbital": [ 
			{
				"type": "occ",
				"energy": -0.29375,
				"method": "rhf"
			},
			{
				"type": "occ",
				"energy": -0.28975,
				"method": "rhf"
			},
			{
				"type": "occ",
				"energy": -0.28667,
				"method": "rhf"
			},
			{
				"type": "occ",
				"energy": -0.25195,
				"method": "rhf"
			},
			{
				"type": "occ",
				"energy": -0.23391,
				"method": "rhf"
			},
			{
				"type": "unocc",
				"energy": -0.05245,
				"method": "rhf"
			},
			{
				"type": "unocc",
				"energy": -0.01709,
				"method": "rhf"
			},
			{
				"type": "unocc",
				"energy": 0.00422,
				"method": "rhf"
			},
			{
				"type": "unocc",
				"energy": 0.03972,
				"method": "rhf"
			},
			{
				"type": "unocc",
				"energy": 0.07101,
				"method": "rhf"
			}
		],
		"cosmo_sigma_profile": { 
			"-0.025": 0.0,
			"-0.024": 0.0,
			"-0.023": 0.0,
			"-0.022": 0.0,
			"-0.021": 0.0,
			"-0.02": 0.0,
			"-0.019": 0.0,
			"-0.018": 0.258240494633,
			"-0.017": 1.26558382657,
			"-0.016": 0.897310745179,
			"-0.015": 0.87277760012,
			"-0.014": 0.655958933854,
			"-0.013": 0.362972123777,
			"-0.012": 1.05016788679,
			"-0.011": 0.790328706754,
			"-0.01": 0.38460019918,
			"-0.009": 1.65661140933,
			"-0.008": 4.0166664826,
			"-0.007": 6.84218247556,
			"-0.006": 8.07432790349,
			"-0.005": 9.85856633768,
			"-0.004": 9.17130843194,
			"-0.003": 8.43201860395,
			"-0.002": 8.85643205153,
			"-0.001": 10.5617799111,
			"0.0": 11.8887948508,
			"0.001": 16.0240217171,
			"0.002": 25.1162945964,
			"0.003": 21.2954549998,
			"0.004": 17.3123508734,
			"0.005": 9.64812401873,
			"0.006": 2.59125851816,
			"0.007": 3.02093579096,
			"0.008": 3.12671113612,
			"0.009": 2.89414131147,
			"0.01": 3.0268282483,
			"0.011": 0.700162584704,
			"0.012": 0.0,
			"0.013": 0.0,
			"0.014": 0.0,
			"0.015": 0.0,
			"0.016": 0.0,
			"0.017": 0.0,
			"0.018": 0.0,
			"0.019": 0.0,
			"0.02": 0.0,
			"0.021": 0.0,
			"0.022": 0.0,
			"0.023": 0.0,
			"0.024": 0.0,
			"0.025": 0.0
		}
	}
}
