{
	 "smiles": "COC1=C(OCC(F)(F)F)C=CC(CC#N)=C1", 
	 "Tm": 336.15, 
	 "num_atms": 27, 
	 "gaussian": { 
		 "optdone": 1, 
		 "sigma_profile": "yes", 
		 "theory": "DFT", 
		 "functional": "B3LYP", 
		 "basiset": "6-31G**", 
		 "properties": { 
			 "R2extent": 5116.5797, 
			 "electric_dipole_moment_norm": 3.30289239001, 
			 "electric_quadrupole_moment_norm": 22.5728476848, 
			 "total_energy": -929.874459856, 
			 "HOMO_LUMO_gap": 0.21055, 
			 "cosmo_polarized_energy": -15.24, 
			 "cosmo_cavitation_energy": 33.6, 
			 "cosmo_dispersion_energy": -22.3, 
			 "cosmo_repulsion_energy": 1.69, 
			 "cosmo_total_nonelectrostatic_energy": 12.98, 
			 "SMD_solvation_energy": 9.0 
		},
		"coords": [
			{
				"x": 0.5146376912,
				"y": -0.3628894422,
				"z": -2.0983076838,
				"element": "C" 
			},
			{
				"x": 1.1119036048,
				"y": -0.5857037129,
				"z": -0.8278646374,
				"element": "O" 
			},
			{
				"x": 0.302610143,
				"y": -0.6926090837,
				"z": 0.2536521224,
				"element": "C" 
			},
			{
				"x": 0.9480294967,
				"y": -0.884495622,
				"z": 1.4935914228,
				"element": "C" 
			},
			{
				"x": 2.3244121068,
				"y": -1.0180332232,
				"z": 1.5094536258,
				"element": "O" 
			},
			{
				"x": 3.0683102323,
				"y": 0.032255383,
				"z": 2.0920261423,
				"element": "C" 
			},
			{
				"x": 3.3352236533,
				"y": 1.1737948851,
				"z": 1.1179268577,
				"element": "C" 
			},
			{
				"x": 2.1977140228,
				"y": 1.7914129359,
				"z": 0.739293817,
				"element": "F" 
			},
			{
				"x": 3.9705259934,
				"y": 0.758889393,
				"z": 0.0117224448,
				"element": "F" 
			},
			{
				"x": 4.1173139289,
				"y": 2.0956098169,
				"z": 1.7292818201,
				"element": "F" 
			},
			{
				"x": 0.1980671479,
				"y": -1.020719322,
				"z": 2.6552203926,
				"element": "C" 
			},
			{
				"x": -1.1967337795,
				"y": -0.9529794856,
				"z": 2.6129425846,
				"element": "C" 
			},
			{
				"x": -1.8447783174,
				"y": -0.7539147451,
				"z": 1.3938881944,
				"element": "C" 
			},
			{
				"x": -3.3652295807,
				"y": -0.6312971071,
				"z": 1.37523216,
				"element": "C" 
			},
			{
				"x": -3.9860268785,
				"y": -0.9858997225,
				"z": 0.0958773651,
				"element": "C" 
			},
			{
				"x": -4.4684595014,
				"y": -1.2528507084,
				"z": -0.9253730564,
				"element": "N" 
			},
			{
				"x": -1.0943231928,
				"y": -0.6286800359,
				"z": 0.2182175461,
				"element": "C" 
			},
			{
				"x": 1.340967866,
				"y": -0.2989017341,
				"z": -2.8069582352,
				"element": "H" 
			},
			{
				"x": -0.1460279186,
				"y": -1.1905776264,
				"z": -2.3841170382,
				"element": "H" 
			},
			{
				"x": -0.052812288,
				"y": 0.5758699702,
				"z": -2.1171121076,
				"element": "H" 
			},
			{
				"x": 4.0352978557,
				"y": -0.3824211621,
				"z": 2.3871872628,
				"element": "H" 
			},
			{
				"x": 2.5752134678,
				"y": 0.4536155324,
				"z": 2.975880884,
				"element": "H" 
			},
			{
				"x": 0.7138931393,
				"y": -1.2010331015,
				"z": 3.5936873908,
				"element": "H" 
			},
			{
				"x": -1.7704372735,
				"y": -1.0655547344,
				"z": 3.5284113191,
				"element": "H" 
			},
			{
				"x": -3.8018550766,
				"y": -1.2661110534,
				"z": 2.1545665154,
				"element": "H" 
			},
			{
				"x": -3.6662287815,
				"y": 0.3982114921,
				"z": 1.6137383219,
				"element": "H" 
			},
			{
				"x": -1.6076077615,
				"y": -0.4885877862,
				"z": -0.7255654309,
				"element": "H" 
			}
		],
		 "valence_orbital": [ 
			{
				"type": "occ",
				"energy": -0.32823,
				"method": "rhf"
			},
			{
				"type": "occ",
				"energy": -0.32357,
				"method": "rhf"
			},
			{
				"type": "occ",
				"energy": -0.29947,
				"method": "rhf"
			},
			{
				"type": "occ",
				"energy": -0.25576,
				"method": "rhf"
			},
			{
				"type": "occ",
				"energy": -0.22623,
				"method": "rhf"
			},
			{
				"type": "unocc",
				"energy": -0.01568,
				"method": "rhf"
			},
			{
				"type": "unocc",
				"energy": -0.00682,
				"method": "rhf"
			},
			{
				"type": "unocc",
				"energy": 0.027,
				"method": "rhf"
			},
			{
				"type": "unocc",
				"energy": 0.03844,
				"method": "rhf"
			},
			{
				"type": "unocc",
				"energy": 0.07832,
				"method": "rhf"
			}
		],
		"cosmo_sigma_profile": { 
			"-0.025": 0.0,
			"-0.024": 0.0,
			"-0.023": 0.0,
			"-0.022": 0.0,
			"-0.021": 0.0,
			"-0.02": 0.0,
			"-0.019": 0.0,
			"-0.018": 0.0,
			"-0.017": 0.0,
			"-0.016": 0.0,
			"-0.015": 0.0,
			"-0.014": 0.0,
			"-0.013": 0.0,
			"-0.012": 0.0,
			"-0.011": 0.0,
			"-0.01": 0.0247679126174,
			"-0.009": 5.17114596813,
			"-0.008": 10.4044153623,
			"-0.007": 14.1131084833,
			"-0.006": 19.8794165714,
			"-0.005": 21.6614796131,
			"-0.004": 18.0548477286,
			"-0.003": 14.8444641357,
			"-0.002": 11.2147520574,
			"-0.001": 8.63759705655,
			"0.0": 11.7606136024,
			"0.001": 13.3372459639,
			"0.002": 21.6362027907,
			"0.003": 38.1696027273,
			"0.004": 15.5728860125,
			"0.005": 7.56341604634,
			"0.006": 5.14350617422,
			"0.007": 5.23320763997,
			"0.008": 5.33613061809,
			"0.009": 5.29337047816,
			"0.01": 5.48598545509,
			"0.011": 4.69107039714,
			"0.012": 3.36962541505,
			"0.013": 1.80674235461,
			"0.014": 0.138048757298,
			"0.015": 0.0,
			"0.016": 0.0,
			"0.017": 0.0,
			"0.018": 0.0,
			"0.019": 0.0,
			"0.02": 0.0,
			"0.021": 0.0,
			"0.022": 0.0,
			"0.023": 0.0,
			"0.024": 0.0,
			"0.025": 0.0
		}
	}
}
