{
	 "smiles": "CCN1C(CCC(O)=O)=NC2=C1C=CC(=C2)S(N)(=O)=O", 
	 "Tm": 537.15, 
	 "num_atms": 35, 
	 "gaussian": { 
		 "optdone": 1, 
		 "sigma_profile": "yes", 
		 "theory": "DFT", 
		 "functional": "B3LYP", 
		 "basiset": "6-31G**", 
		 "properties": { 
			 "R2extent": 8391.0249, 
			 "electric_dipole_moment_norm": 10.0654141271, 
			 "electric_quadrupole_moment_norm": 36.5331942456, 
			 "total_energy": -1329.62662519, 
			 "HOMO_LUMO_gap": 0.20368, 
			 "cosmo_polarized_energy": -32.04, 
			 "cosmo_cavitation_energy": 40.63, 
			 "cosmo_dispersion_energy": -28.62, 
			 "cosmo_repulsion_energy": 2.18, 
			 "cosmo_total_nonelectrostatic_energy": 14.19, 
			 "SMD_solvation_energy": 5.57 
		},
		"coords": [
			{
				"x": -0.0477287234,
				"y": 3.2110487183,
				"z": -1.8361432428,
				"element": "C" 
			},
			{
				"x": 0.3019367612,
				"y": 3.4195447136,
				"z": -0.3597238675,
				"element": "C" 
			},
			{
				"x": 0.3699343247,
				"y": 2.1664912107,
				"z": 0.3889421649,
				"element": "N" 
			},
			{
				"x": 1.4700712011,
				"y": 1.3392496417,
				"z": 0.5632743443,
				"element": "C" 
			},
			{
				"x": 2.8505764467,
				"y": 1.7052859166,
				"z": 0.0964462024,
				"element": "C" 
			},
			{
				"x": 3.7088051509,
				"y": 0.4668976801,
				"z": -0.1877224551,
				"element": "C" 
			},
			{
				"x": 3.2695361234,
				"y": -0.3781243809,
				"z": -1.3674509463,
				"element": "C" 
			},
			{
				"x": 2.4771404717,
				"y": 0.299418519,
				"z": -2.2432369984,
				"element": "O" 
			},
			{
				"x": 3.6053411873,
				"y": -1.5230168208,
				"z": -1.5592038142,
				"element": "O" 
			},
			{
				"x": 1.1879118644,
				"y": 0.2306770553,
				"z": 1.2070771412,
				"element": "N" 
			},
			{
				"x": -0.1681928565,
				"y": 0.3009783691,
				"z": 1.4745498137,
				"element": "C" 
			},
			{
				"x": -0.7050701733,
				"y": 1.5082178016,
				"z": 0.9615607301,
				"element": "C" 
			},
			{
				"x": -2.0549603827,
				"y": 1.8455663018,
				"z": 1.0951940358,
				"element": "C" 
			},
			{
				"x": -2.8720606433,
				"y": 0.9375183357,
				"z": 1.7610398126,
				"element": "C" 
			},
			{
				"x": -2.3406639518,
				"y": -0.2649049209,
				"z": 2.2698537579,
				"element": "C" 
			},
			{
				"x": -0.9940894556,
				"y": -0.6028291325,
				"z": 2.147583295,
				"element": "C" 
			},
			{
				"x": -3.4504669242,
				"y": -1.4147222657,
				"z": 3.0908872126,
				"element": "S" 
			},
			{
				"x": -4.0142220237,
				"y": -2.4796828027,
				"z": 1.910544545,
				"element": "N" 
			},
			{
				"x": -2.651026178,
				"y": -2.2332601368,
				"z": 4.0008232443,
				"element": "O" 
			},
			{
				"x": -4.6256618022,
				"y": -0.6593341673,
				"z": 3.5249693309,
				"element": "O" 
			},
			{
				"x": 0.6937067051,
				"y": 2.571490381,
				"z": -2.323467292,
				"element": "H" 
			},
			{
				"x": -0.076988057,
				"y": 4.1731639503,
				"z": -2.3571792248,
				"element": "H" 
			},
			{
				"x": -1.0272008333,
				"y": 2.7351858295,
				"z": -1.9399300392,
				"element": "H" 
			},
			{
				"x": 1.2629575841,
				"y": 3.9298741032,
				"z": -0.2565352026,
				"element": "H" 
			},
			{
				"x": -0.4413494263,
				"y": 4.0558372219,
				"z": 0.1306228115,
				"element": "H" 
			},
			{
				"x": 3.3435255766,
				"y": 2.3027232673,
				"z": 0.8752864352,
				"element": "H" 
			},
			{
				"x": 2.7991136946,
				"y": 2.3334989193,
				"z": -0.7961740273,
				"element": "H" 
			},
			{
				"x": 3.7309492623,
				"y": -0.195851357,
				"z": 0.679163726,
				"element": "H" 
			},
			{
				"x": 4.7424677423,
				"y": 0.773795239,
				"z": -0.3889462305,
				"element": "H" 
			},
			{
				"x": 2.2745511421,
				"y": -0.331190309,
				"z": -2.9547549692,
				"element": "H" 
			},
			{
				"x": -2.4602993606,
				"y": 2.7766205155,
				"z": 0.7117967459,
				"element": "H" 
			},
			{
				"x": -3.9218170682,
				"y": 1.1567312178,
				"z": 1.920871441,
				"element": "H" 
			},
			{
				"x": -0.5989205571,
				"y": -1.51682792,
				"z": 2.5765002409,
				"element": "H" 
			},
			{
				"x": -3.2692742701,
				"y": -3.0469213681,
				"z": 1.5172967398,
				"element": "H" 
			},
			{
				"x": -4.5642325513,
				"y": -2.0097493266,
				"z": 1.197984539,
				"element": "H" 
			}
		],
		 "valence_orbital": [ 
			{
				"type": "occ",
				"energy": -0.29485,
				"method": "rhf"
			},
			{
				"type": "occ",
				"energy": -0.28438,
				"method": "rhf"
			},
			{
				"type": "occ",
				"energy": -0.28137,
				"method": "rhf"
			},
			{
				"type": "occ",
				"energy": -0.24259,
				"method": "rhf"
			},
			{
				"type": "occ",
				"energy": -0.24011,
				"method": "rhf"
			},
			{
				"type": "unocc",
				"energy": -0.03643,
				"method": "rhf"
			},
			{
				"type": "unocc",
				"energy": -0.01638,
				"method": "rhf"
			},
			{
				"type": "unocc",
				"energy": 0.00263,
				"method": "rhf"
			},
			{
				"type": "unocc",
				"energy": 0.03265,
				"method": "rhf"
			},
			{
				"type": "unocc",
				"energy": 0.05314,
				"method": "rhf"
			}
		],
		"cosmo_sigma_profile": { 
			"-0.025": 0.0,
			"-0.024": 0.0,
			"-0.023": 0.0,
			"-0.022": 0.0,
			"-0.021": 0.0,
			"-0.02": 0.0,
			"-0.019": 0.0,
			"-0.018": 0.599548310471,
			"-0.017": 1.02188122706,
			"-0.016": 0.621730826252,
			"-0.015": 2.72780578005,
			"-0.014": 2.85581717788,
			"-0.013": 3.25904344415,
			"-0.012": 4.43668990633,
			"-0.011": 3.35199600852,
			"-0.01": 2.54828029506,
			"-0.009": 2.27046395854,
			"-0.008": 4.33833563688,
			"-0.007": 14.4973858407,
			"-0.006": 21.2824923213,
			"-0.005": 20.554563509,
			"-0.004": 22.7263871196,
			"-0.003": 22.3523672166,
			"-0.002": 15.2929981744,
			"-0.001": 15.745308154,
			"0.0": 20.8171229436,
			"0.001": 15.3381053062,
			"0.002": 19.0739525924,
			"0.003": 18.2756069842,
			"0.004": 9.3064552386,
			"0.005": 8.77237296418,
			"0.006": 6.53715501184,
			"0.007": 7.45912594702,
			"0.008": 6.56992215914,
			"0.009": 7.63932080112,
			"0.01": 9.65010165944,
			"0.011": 15.181924494,
			"0.012": 13.1745665735,
			"0.013": 2.15134381187,
			"0.014": 0.824872284883,
			"0.015": 0.357154656385,
			"0.016": 0.0,
			"0.017": 0.0,
			"0.018": 0.0,
			"0.019": 0.0,
			"0.02": 0.0,
			"0.021": 0.0,
			"0.022": 0.0,
			"0.023": 0.0,
			"0.024": 0.0,
			"0.025": 0.0
		}
	}
}
