{
	 "smiles": "ClC1=CC=C(C=C1)C(C1=CC=CC=C1Cl)C(Cl)(Cl)Cl", 
	 "Tm": 347.75, 
	 "num_atms": 28, 
	 "gaussian": { 
		 "optdone": 1, 
		 "sigma_profile": "yes", 
		 "theory": "DFT", 
		 "functional": "B3LYP", 
		 "basiset": "6-31G**", 
		 "properties": { 
			 "R2extent": 8113.5758, 
			 "electric_dipole_moment_norm": 2.65692448331, 
			 "electric_quadrupole_moment_norm": 13.9770740246, 
			 "total_energy": -2839.8574764, 
			 "HOMO_LUMO_gap": 0.19617, 
			 "cosmo_polarized_energy": -7.4, 
			 "cosmo_cavitation_energy": 39.51, 
			 "cosmo_dispersion_energy": -27.56, 
			 "cosmo_repulsion_energy": 2.13, 
			 "cosmo_total_nonelectrostatic_energy": 14.08, 
			 "SMD_solvation_energy": 5.17 
		},
		"coords": [
			{
				"x": -4.2625965858,
				"y": 3.8458432565,
				"z": 2.4125358172,
				"element": "Cl" 
			},
			{
				"x": -3.1620182418,
				"y": 2.5794344352,
				"z": 1.8930794125,
				"element": "C" 
			},
			{
				"x": -1.8680855806,
				"y": 2.5366000149,
				"z": 2.407831979,
				"element": "C" 
			},
			{
				"x": -1.007572392,
				"y": 1.5235516219,
				"z": 1.9897299287,
				"element": "C" 
			},
			{
				"x": -1.4093932342,
				"y": 0.5528764486,
				"z": 1.0601962627,
				"element": "C" 
			},
			{
				"x": -2.7167440054,
				"y": 0.6234521792,
				"z": 0.5592241273,
				"element": "C" 
			},
			{
				"x": -3.5935445063,
				"y": 1.6262706262,
				"z": 0.9732456275,
				"element": "C" 
			},
			{
				"x": -0.3542217601,
				"y": -0.4698750527,
				"z": 0.6291808743,
				"element": "C" 
			},
			{
				"x": 0.3578183349,
				"y": -0.0596108058,
				"z": -0.6617463419,
				"element": "C" 
			},
			{
				"x": -0.3566556415,
				"y": 0.1687315436,
				"z": -1.8486366385,
				"element": "C" 
			},
			{
				"x": 0.2735752122,
				"y": 0.5645521949,
				"z": -3.0248484985,
				"element": "C" 
			},
			{
				"x": 1.6540370087,
				"y": 0.7619332059,
				"z": -3.0407951163,
				"element": "C" 
			},
			{
				"x": 2.3907834084,
				"y": 0.5718713663,
				"z": -1.875057036,
				"element": "C" 
			},
			{
				"x": 1.7447988176,
				"y": 0.1702031074,
				"z": -0.7045980043,
				"element": "C" 
			},
			{
				"x": 2.7561928347,
				"y": -0.0052437627,
				"z": 0.7316542762,
				"element": "Cl" 
			},
			{
				"x": -0.7957475995,
				"y": -1.9686214613,
				"z": 0.6626187968,
				"element": "C" 
			},
			{
				"x": 0.65702903,
				"y": -3.0201259135,
				"z": 0.4521885741,
				"element": "Cl" 
			},
			{
				"x": -1.9856608571,
				"y": -2.4459797657,
				"z": -0.6154745941,
				"element": "Cl" 
			},
			{
				"x": -1.525813709,
				"y": -2.3308056772,
				"z": 2.2735732582,
				"element": "Cl" 
			},
			{
				"x": -1.5404449806,
				"y": 3.2789183777,
				"z": 3.1270145893,
				"element": "H" 
			},
			{
				"x": -0.000014787,
				"y": 1.4928482797,
				"z": 2.3949837683,
				"element": "H" 
			},
			{
				"x": -3.0788033144,
				"y": -0.1141501292,
				"z": -0.145631882,
				"element": "H" 
			},
			{
				"x": -4.6051061545,
				"y": 1.6645659833,
				"z": 0.5845654379,
				"element": "H" 
			},
			{
				"x": 0.4021322105,
				"y": -0.4552956322,
				"z": 1.4161453542,
				"element": "H" 
			},
			{
				"x": -1.4318290326,
				"y": 0.0405461465,
				"z": -1.845712319,
				"element": "H" 
			},
			{
				"x": -0.3149049601,
				"y": 0.7248557147,
				"z": -3.9227095866,
				"element": "H" 
			},
			{
				"x": 2.1580431115,
				"y": 1.0733332769,
				"z": -3.9505851309,
				"element": "H" 
			},
			{
				"x": 3.4623473738,
				"y": 0.735620421,
				"z": -1.8607729362,
				"element": "H" 
			}
		],
		 "valence_orbital": [ 
			{
				"type": "occ",
				"energy": -0.30714,
				"method": "rhf"
			},
			{
				"type": "occ",
				"energy": -0.27328,
				"method": "rhf"
			},
			{
				"type": "occ",
				"energy": -0.2711,
				"method": "rhf"
			},
			{
				"type": "occ",
				"energy": -0.25729,
				"method": "rhf"
			},
			{
				"type": "occ",
				"energy": -0.24767,
				"method": "rhf"
			},
			{
				"type": "unocc",
				"energy": -0.0515,
				"method": "rhf"
			},
			{
				"type": "unocc",
				"energy": -0.03204,
				"method": "rhf"
			},
			{
				"type": "unocc",
				"energy": -0.02683,
				"method": "rhf"
			},
			{
				"type": "unocc",
				"energy": -0.01883,
				"method": "rhf"
			},
			{
				"type": "unocc",
				"energy": -0.01656,
				"method": "rhf"
			}
		],
		"cosmo_sigma_profile": { 
			"-0.025": 0.0,
			"-0.024": 0.0,
			"-0.023": 0.0,
			"-0.022": 0.0,
			"-0.021": 0.0,
			"-0.02": 0.0,
			"-0.019": 0.0,
			"-0.018": 0.0,
			"-0.017": 0.0,
			"-0.016": 0.0,
			"-0.015": 0.0,
			"-0.014": 0.0,
			"-0.013": 0.0,
			"-0.012": 0.0,
			"-0.011": 0.0,
			"-0.01": 0.0,
			"-0.009": 0.0,
			"-0.008": 1.56373804566,
			"-0.007": 10.8110850003,
			"-0.006": 18.5863622721,
			"-0.005": 17.7595461432,
			"-0.004": 15.2513744283,
			"-0.003": 18.5900313788,
			"-0.002": 19.7923149412,
			"-0.001": 23.166562377,
			"0.0": 23.256218335,
			"0.001": 33.923520946,
			"0.002": 44.3723415652,
			"0.003": 62.3471471077,
			"0.004": 31.1288342706,
			"0.005": 7.29636818817,
			"0.006": 0.0,
			"0.007": 0.0,
			"0.008": 0.0,
			"0.009": 0.0,
			"0.01": 0.0,
			"0.011": 0.0,
			"0.012": 0.0,
			"0.013": 0.0,
			"0.014": 0.0,
			"0.015": 0.0,
			"0.016": 0.0,
			"0.017": 0.0,
			"0.018": 0.0,
			"0.019": 0.0,
			"0.02": 0.0,
			"0.021": 0.0,
			"0.022": 0.0,
			"0.023": 0.0,
			"0.024": 0.0,
			"0.025": 0.0
		}
	}
}
