{
	 "smiles": "CC(C)C(N)=O", 
	 "Tm": 401.15, 
	 "num_atms": 15, 
	 "gaussian": { 
		 "optdone": 1, 
		 "sigma_profile": "yes", 
		 "theory": "DFT", 
		 "functional": "B3LYP", 
		 "basiset": "6-31G**", 
		 "properties": { 
			 "R2extent": 1825.8217, 
			 "electric_dipole_moment_norm": 3.64371738202, 
			 "electric_quadrupole_moment_norm": 13.7626020821, 
			 "total_energy": -287.84961137, 
			 "HOMO_LUMO_gap": 0.2729, 
			 "cosmo_polarized_energy": -11.91, 
			 "cosmo_cavitation_energy": 17.84, 
			 "cosmo_dispersion_energy": -13.0, 
			 "cosmo_repulsion_energy": 1.15, 
			 "cosmo_total_nonelectrostatic_energy": 5.99, 
			 "SMD_solvation_energy": 4.17 
		},
		"coords": [
			{
				"x": 0.6732907791,
				"y": 0.0029451526,
				"z": -3.6312920301,
				"element": "C" 
			},
			{
				"x": -0.6957119244,
				"y": -0.1262445295,
				"z": -2.9401831981,
				"element": "C" 
			},
			{
				"x": -0.9007127214,
				"y": 0.9655852468,
				"z": -1.8750879494,
				"element": "C" 
			},
			{
				"x": -0.918078907,
				"y": -1.5328802774,
				"z": -2.3683584394,
				"element": "C" 
			},
			{
				"x": -0.0520384467,
				"y": -1.9189576635,
				"z": -1.3798439499,
				"element": "N" 
			},
			{
				"x": -1.8105063899,
				"y": -2.2690083084,
				"z": -2.7648206851,
				"element": "O" 
			},
			{
				"x": 1.5004449441,
				"y": -0.0703756689,
				"z": -2.9154998483,
				"element": "H" 
			},
			{
				"x": 0.8136305681,
				"y": -0.7760745033,
				"z": -4.3867716261,
				"element": "H" 
			},
			{
				"x": 0.7572778581,
				"y": 0.9751385094,
				"z": -4.1281612715,
				"element": "H" 
			},
			{
				"x": -1.4795709142,
				"y": -0.0270633317,
				"z": -3.6971329661,
				"element": "H" 
			},
			{
				"x": -0.129673446,
				"y": 0.9262557523,
				"z": -1.0967299932,
				"element": "H" 
			},
			{
				"x": -1.8751817815,
				"y": 0.8684628713,
				"z": -1.3869438845,
				"element": "H" 
			},
			{
				"x": -0.8498737604,
				"y": 1.9582475063,
				"z": -2.3345719782,
				"element": "H" 
			},
			{
				"x": -0.1686471194,
				"y": -2.8375104879,
				"z": -0.9805435543,
				"element": "H" 
			},
			{
				"x": 0.6885512613,
				"y": -1.3290202681,
				"z": -1.0390586258,
				"element": "H" 
			}
		],
		 "valence_orbital": [ 
			{
				"type": "occ",
				"energy": -0.36576,
				"method": "rhf"
			},
			{
				"type": "occ",
				"energy": -0.34158,
				"method": "rhf"
			},
			{
				"type": "occ",
				"energy": -0.34121,
				"method": "rhf"
			},
			{
				"type": "occ",
				"energy": -0.26108,
				"method": "rhf"
			},
			{
				"type": "occ",
				"energy": -0.23733,
				"method": "rhf"
			},
			{
				"type": "unocc",
				"energy": 0.03557,
				"method": "rhf"
			},
			{
				"type": "unocc",
				"energy": 0.05881,
				"method": "rhf"
			},
			{
				"type": "unocc",
				"energy": 0.11264,
				"method": "rhf"
			},
			{
				"type": "unocc",
				"energy": 0.12249,
				"method": "rhf"
			},
			{
				"type": "unocc",
				"energy": 0.1423,
				"method": "rhf"
			}
		],
		"cosmo_sigma_profile": { 
			"-0.025": 0.0,
			"-0.024": 0.0,
			"-0.023": 0.0,
			"-0.022": 0.0,
			"-0.021": 0.0,
			"-0.02": 0.0,
			"-0.019": 0.0,
			"-0.018": 0.0,
			"-0.017": 0.0,
			"-0.016": 0.0,
			"-0.015": 0.0,
			"-0.014": 0.376792628897,
			"-0.013": 2.12516597808,
			"-0.012": 2.45071736301,
			"-0.011": 2.48054652591,
			"-0.01": 2.72500139683,
			"-0.009": 2.59654787277,
			"-0.008": 2.50311558163,
			"-0.007": 1.91387500069,
			"-0.006": 2.06868233803,
			"-0.005": 2.20982208716,
			"-0.004": 6.94860154014,
			"-0.003": 14.6043704605,
			"-0.002": 15.723959818,
			"-0.001": 15.9410973954,
			"0.0": 16.7352444882,
			"0.001": 12.3557577507,
			"0.002": 4.11511390728,
			"0.003": 2.65885478948,
			"0.004": 3.61002185542,
			"0.005": 2.51492420912,
			"0.006": 1.50577658665,
			"0.007": 0.82873753576,
			"0.008": 1.38762013723,
			"0.009": 1.63325450474,
			"0.01": 0.955508746324,
			"0.011": 1.26439808906,
			"0.012": 1.83885260777,
			"0.013": 2.34342043359,
			"0.014": 5.81133668447,
			"0.015": 3.56601167721,
			"0.016": 0.429008624912,
			"0.017": 0.0,
			"0.018": 0.0,
			"0.019": 0.0,
			"0.02": 0.0,
			"0.021": 0.0,
			"0.022": 0.0,
			"0.023": 0.0,
			"0.024": 0.0,
			"0.025": 0.0
		}
	}
}
