{
	 "smiles": "ClC1=CC(=CC=C1)C(=O)C=C1NC(=O)CS1", 
	 "Tm": 481.15, 
	 "num_atms": 24, 
	 "gaussian": { 
		 "optdone": 1, 
		 "sigma_profile": "yes", 
		 "theory": "DFT", 
		 "functional": "B3LYP", 
		 "basiset": "6-31G**", 
		 "properties": { 
			 "R2extent": 5462.0104, 
			 "electric_dipole_moment_norm": 3.84494842878, 
			 "electric_quadrupole_moment_norm": 17.543960027, 
			 "total_energy": -1487.56879973, 
			 "HOMO_LUMO_gap": 0.16393, 
			 "cosmo_polarized_energy": -16.58, 
			 "cosmo_cavitation_energy": 32.58, 
			 "cosmo_dispersion_energy": -23.78, 
			 "cosmo_repulsion_energy": 1.82, 
			 "cosmo_total_nonelectrostatic_energy": 10.62, 
			 "SMD_solvation_energy": 6.08 
		},
		"coords": [
			{
				"x": -1.6337583109,
				"y": 4.6675999236,
				"z": 0.5633917505,
				"element": "Cl" 
			},
			{
				"x": -1.5349172274,
				"y": 2.9187035129,
				"z": 0.4406579897,
				"element": "C" 
			},
			{
				"x": -0.9005984446,
				"y": 2.3451415811,
				"z": -0.6557358034,
				"element": "C" 
			},
			{
				"x": -0.8000344843,
				"y": 0.9487669982,
				"z": -0.7409894721,
				"element": "C" 
			},
			{
				"x": -1.3773787939,
				"y": 0.1493853661,
				"z": 0.2568646168,
				"element": "C" 
			},
			{
				"x": -2.0287041957,
				"y": 0.7429904969,
				"z": 1.3403562007,
				"element": "C" 
			},
			{
				"x": -2.1031993378,
				"y": 2.1314748214,
				"z": 1.4458038781,
				"element": "C" 
			},
			{
				"x": -0.1687387442,
				"y": 0.3663466996,
				"z": -1.9812961366,
				"element": "C" 
			},
			{
				"x": -0.3292175845,
				"y": 0.9445533314,
				"z": -3.0529114996,
				"element": "O" 
			},
			{
				"x": 0.6081424229,
				"y": -0.8830486796,
				"z": -1.9421442596,
				"element": "C" 
			},
			{
				"x": 1.3501184097,
				"y": -1.4130987412,
				"z": -0.937211571,
				"element": "C" 
			},
			{
				"x": 1.5101722426,
				"y": -0.9508895443,
				"z": 0.3574273363,
				"element": "N" 
			},
			{
				"x": 2.354002592,
				"y": -1.619340633,
				"z": 1.2272748321,
				"element": "C" 
			},
			{
				"x": 2.5519597285,
				"y": -1.2963287441,
				"z": 2.3780794678,
				"element": "O" 
			},
			{
				"x": 2.9992759607,
				"y": -2.816296697,
				"z": 0.5288181562,
				"element": "C" 
			},
			{
				"x": 2.3455664036,
				"y": -2.8729126262,
				"z": -1.1796350916,
				"element": "S" 
			},
			{
				"x": -0.4902975745,
				"y": 2.9568136477,
				"z": -1.4507490793,
				"element": "H" 
			},
			{
				"x": -1.3423669583,
				"y": -0.9320972043,
				"z": 0.1687169538,
				"element": "H" 
			},
			{
				"x": -2.4865729694,
				"y": 0.1229757969,
				"z": 2.1050461747,
				"element": "H" 
			},
			{
				"x": -2.5987320085,
				"y": 2.6015863384,
				"z": 2.2879208234,
				"element": "H" 
			},
			{
				"x": 0.7082598608,
				"y": -1.3490152392,
				"z": -2.9175475793,
				"element": "H" 
			},
			{
				"x": 1.0048989632,
				"y": -0.1389591988,
				"z": 0.691489686,
				"element": "H" 
			},
			{
				"x": 2.7516811057,
				"y": -3.7297424517,
				"z": 1.0741814428,
				"element": "H" 
			},
			{
				"x": 4.0847389443,
				"y": -2.691708755,
				"z": 0.5298911837,
				"element": "H" 
			}
		],
		 "valence_orbital": [ 
			{
				"type": "occ",
				"energy": -0.28589,
				"method": "rhf"
			},
			{
				"type": "occ",
				"energy": -0.27958,
				"method": "rhf"
			},
			{
				"type": "occ",
				"energy": -0.262,
				"method": "rhf"
			},
			{
				"type": "occ",
				"energy": -0.2555,
				"method": "rhf"
			},
			{
				"type": "occ",
				"energy": -0.23754,
				"method": "rhf"
			},
			{
				"type": "unocc",
				"energy": -0.07361,
				"method": "rhf"
			},
			{
				"type": "unocc",
				"energy": -0.03448,
				"method": "rhf"
			},
			{
				"type": "unocc",
				"energy": -0.02878,
				"method": "rhf"
			},
			{
				"type": "unocc",
				"energy": -0.01283,
				"method": "rhf"
			},
			{
				"type": "unocc",
				"energy": 0.00507,
				"method": "rhf"
			}
		],
		"cosmo_sigma_profile": { 
			"-0.025": 0.0,
			"-0.024": 0.0,
			"-0.023": 0.0,
			"-0.022": 0.0,
			"-0.021": 0.0,
			"-0.02": 0.0,
			"-0.019": 0.0,
			"-0.018": 0.0,
			"-0.017": 0.0,
			"-0.016": 0.0,
			"-0.015": 0.0,
			"-0.014": 0.107363965825,
			"-0.013": 0.343962905708,
			"-0.012": 0.849269492966,
			"-0.011": 0.948345134919,
			"-0.01": 1.91980856878,
			"-0.009": 5.73926560079,
			"-0.008": 7.62127026145,
			"-0.007": 15.9416391647,
			"-0.006": 16.6181379842,
			"-0.005": 16.5549313036,
			"-0.004": 14.715094676,
			"-0.003": 14.762493261,
			"-0.002": 13.8997361503,
			"-0.001": 14.0929110004,
			"0.0": 18.6941915884,
			"0.001": 24.1580824123,
			"0.002": 22.0405584711,
			"0.003": 15.939989793,
			"0.004": 15.5975943488,
			"0.005": 8.44746474961,
			"0.006": 4.90384146333,
			"0.007": 2.62171286282,
			"0.008": 3.41569053401,
			"0.009": 2.16502890585,
			"0.01": 4.97896228408,
			"0.011": 7.55028429675,
			"0.012": 7.76060173008,
			"0.013": 3.43577926678,
			"0.014": 0.462794940455,
			"0.015": 0.0,
			"0.016": 0.0,
			"0.017": 0.0,
			"0.018": 0.0,
			"0.019": 0.0,
			"0.02": 0.0,
			"0.021": 0.0,
			"0.022": 0.0,
			"0.023": 0.0,
			"0.024": 0.0,
			"0.025": 0.0
		}
	}
}
