{
	 "smiles": "OC1=CC=C(C2=C1C(=O)C1=CC=CC=C1C2=O)[N+]([O-])=O", 
	 "Tm": 547.15, 
	 "num_atms": 27, 
	 "gaussian": { 
		 "optdone": 1, 
		 "sigma_profile": "yes", 
		 "theory": "DFT", 
		 "functional": "B3LYP", 
		 "basiset": "6-31G**", 
		 "properties": { 
			 "R2extent": 5629.3264, 
			 "electric_dipole_moment_norm": 4.50600472925, 
			 "electric_quadrupole_moment_norm": 21.7209865607, 
			 "total_energy": -968.487884678, 
			 "HOMO_LUMO_gap": 0.12828, 
			 "cosmo_polarized_energy": -14.39, 
			 "cosmo_cavitation_energy": 32.49, 
			 "cosmo_dispersion_energy": -23.95, 
			 "cosmo_repulsion_energy": 1.75, 
			 "cosmo_total_nonelectrostatic_energy": 10.29, 
			 "SMD_solvation_energy": 8.7 
		},
		"coords": [
			{
				"x": -2.3186872321,
				"y": 3.6603584149,
				"z": 0.7608687668,
				"element": "O" 
			},
			{
				"x": -1.4763345232,
				"y": 2.8625362235,
				"z": 1.4130088066,
				"element": "C" 
			},
			{
				"x": -1.0474192344,
				"y": 3.2562687211,
				"z": 2.6948827873,
				"element": "C" 
			},
			{
				"x": -0.191717389,
				"y": 2.4478105551,
				"z": 3.417422675,
				"element": "C" 
			},
			{
				"x": 0.2532582446,
				"y": 1.2314227746,
				"z": 2.8838559633,
				"element": "C" 
			},
			{
				"x": -0.1023878295,
				"y": 0.8284429473,
				"z": 1.59812732,
				"element": "C" 
			},
			{
				"x": -0.9941187739,
				"y": 1.6451436528,
				"z": 0.8574042174,
				"element": "C" 
			},
			{
				"x": -1.4743841373,
				"y": 1.2325524262,
				"z": -0.4709760792,
				"element": "C" 
			},
			{
				"x": -2.2721493185,
				"y": 1.9436991995,
				"z": -1.1109731371,
				"element": "O" 
			},
			{
				"x": -1.0183690574,
				"y": -0.060872893,
				"z": -1.0265933891,
				"element": "C" 
			},
			{
				"x": -1.5319440349,
				"y": -0.5084615671,
				"z": -2.2502668841,
				"element": "C" 
			},
			{
				"x": -1.1009388216,
				"y": -1.7211986521,
				"z": -2.7815684671,
				"element": "C" 
			},
			{
				"x": -0.1464545896,
				"y": -2.487522954,
				"z": -2.1018754333,
				"element": "C" 
			},
			{
				"x": 0.3785370281,
				"y": -2.0417035408,
				"z": -0.8908974426,
				"element": "C" 
			},
			{
				"x": -0.0608851837,
				"y": -0.8323808494,
				"z": -0.3424217284,
				"element": "C" 
			},
			{
				"x": 0.5321133306,
				"y": -0.3615750559,
				"z": 0.939596919,
				"element": "C" 
			},
			{
				"x": 1.5267611251,
				"y": -0.8926689233,
				"z": 1.4098982535,
				"element": "O" 
			},
			{
				"x": 1.0524673292,
				"y": 0.391538587,
				"z": 3.7972822261,
				"element": "N" 
			},
			{
				"x": 0.6310374239,
				"y": -0.731467755,
				"z": 4.0438805029,
				"element": "O" 
			},
			{
				"x": 2.0333734088,
				"y": 0.9245851771,
				"z": 4.3111806934,
				"element": "O" 
			},
			{
				"x": -2.5091553457,
				"y": 3.218072524,
				"z": -0.1116297025,
				"element": "H" 
			},
			{
				"x": -1.4124097333,
				"y": 4.1954570093,
				"z": 3.0950937495,
				"element": "H" 
			},
			{
				"x": 0.1390528429,
				"y": 2.7351482087,
				"z": 4.4092686986,
				"element": "H" 
			},
			{
				"x": -2.2621097972,
				"y": 0.1074102628,
				"z": -2.7636244036,
				"element": "H" 
			},
			{
				"x": -1.5038735892,
				"y": -2.0706065189,
				"z": -3.7273099462,
				"element": "H" 
			},
			{
				"x": 0.1886909452,
				"y": -3.4315948438,
				"z": -2.5207412979,
				"element": "H" 
			},
			{
				"x": 1.1279469124,
				"y": -2.6113931307,
				"z": -0.3521936683,
				"element": "H" 
			}
		],
		 "valence_orbital": [ 
			{
				"type": "occ",
				"energy": -0.29425,
				"method": "rhf"
			},
			{
				"type": "occ",
				"energy": -0.28553,
				"method": "rhf"
			},
			{
				"type": "occ",
				"energy": -0.28395,
				"method": "rhf"
			},
			{
				"type": "occ",
				"energy": -0.27538,
				"method": "rhf"
			},
			{
				"type": "occ",
				"energy": -0.25384,
				"method": "rhf"
			},
			{
				"type": "unocc",
				"energy": -0.12556,
				"method": "rhf"
			},
			{
				"type": "unocc",
				"energy": -0.08185,
				"method": "rhf"
			},
			{
				"type": "unocc",
				"energy": -0.06161,
				"method": "rhf"
			},
			{
				"type": "unocc",
				"energy": -0.04323,
				"method": "rhf"
			},
			{
				"type": "unocc",
				"energy": -0.02061,
				"method": "rhf"
			}
		],
		"cosmo_sigma_profile": { 
			"-0.025": 0.0,
			"-0.024": 0.0,
			"-0.023": 0.0,
			"-0.022": 0.0,
			"-0.021": 0.0,
			"-0.02": 0.0,
			"-0.019": 0.0,
			"-0.018": 0.0,
			"-0.017": 0.0,
			"-0.016": 0.0,
			"-0.015": 0.0,
			"-0.014": 0.0,
			"-0.013": 0.0,
			"-0.012": 0.0,
			"-0.011": 0.0,
			"-0.01": 0.673797419927,
			"-0.009": 3.7874692288,
			"-0.008": 7.5692167638,
			"-0.007": 11.8665865593,
			"-0.006": 16.9843325751,
			"-0.005": 16.7920467555,
			"-0.004": 14.3866507516,
			"-0.003": 18.6767401207,
			"-0.002": 20.6401312015,
			"-0.001": 20.6164235067,
			"0.0": 22.966504451,
			"0.001": 19.9385554176,
			"0.002": 13.7660871152,
			"0.003": 7.71509144932,
			"0.004": 6.89777570811,
			"0.005": 7.27405662778,
			"0.006": 8.65639763753,
			"0.007": 15.6607783933,
			"0.008": 12.7673431926,
			"0.009": 10.2726321478,
			"0.01": 4.92258459873,
			"0.011": 0.46338863709,
			"0.012": 0.0,
			"0.013": 0.0,
			"0.014": 0.0,
			"0.015": 0.0,
			"0.016": 0.0,
			"0.017": 0.0,
			"0.018": 0.0,
			"0.019": 0.0,
			"0.02": 0.0,
			"0.021": 0.0,
			"0.022": 0.0,
			"0.023": 0.0,
			"0.024": 0.0,
			"0.025": 0.0
		}
	}
}
