{
	 "smiles": "NNC1=CC=C(C=C1[N+]([O-])=O)[N+]([O-])=O", 
	 "Tm": 470.65, 
	 "num_atms": 20, 
	 "gaussian": { 
		 "optdone": 1, 
		 "sigma_profile": "yes", 
		 "theory": "DFT", 
		 "functional": "B3LYP", 
		 "basiset": "6-31G**", 
		 "properties": { 
			 "R2extent": 3445.7097, 
			 "electric_dipole_moment_norm": 7.5830629102, 
			 "electric_quadrupole_moment_norm": 13.304140802, 
			 "total_energy": -751.925064327, 
			 "HOMO_LUMO_gap": 0.14471, 
			 "cosmo_polarized_energy": -17.23, 
			 "cosmo_cavitation_energy": 25.83, 
			 "cosmo_dispersion_energy": -19.39, 
			 "cosmo_repulsion_energy": 1.54, 
			 "cosmo_total_nonelectrostatic_energy": 7.99, 
			 "SMD_solvation_energy": 9.37 
		},
		"coords": [
			{
				"x": 2.4536289383,
				"y": -1.2802307295,
				"z": -2.6178438835,
				"element": "N" 
			},
			{
				"x": 2.385938437,
				"y": -1.4456361605,
				"z": -1.2272053009,
				"element": "N" 
			},
			{
				"x": 1.2744634319,
				"y": -1.0807687099,
				"z": -0.5424594351,
				"element": "C" 
			},
			{
				"x": 0.1559061078,
				"y": -0.5227685304,
				"z": -1.2217331247,
				"element": "C" 
			},
			{
				"x": -0.981719267,
				"y": -0.1458082596,
				"z": -0.5462082772,
				"element": "C" 
			},
			{
				"x": -1.0551645134,
				"y": -0.3096048441,
				"z": 0.8477031865,
				"element": "C" 
			},
			{
				"x": 0.0019969795,
				"y": -0.846001781,
				"z": 1.5558899237,
				"element": "C" 
			},
			{
				"x": 1.1599253063,
				"y": -1.231012998,
				"z": 0.8771854209,
				"element": "C" 
			},
			{
				"x": 2.2291673896,
				"y": -1.786904393,
				"z": 1.6890264761,
				"element": "N" 
			},
			{
				"x": 2.0583998333,
				"y": -1.8845021111,
				"z": 2.9007934586,
				"element": "O" 
			},
			{
				"x": 3.2828507763,
				"y": -2.1450539069,
				"z": 1.1254311728,
				"element": "O" 
			},
			{
				"x": -2.2642234696,
				"y": 0.0917995664,
				"z": 1.5600173556,
				"element": "N" 
			},
			{
				"x": -2.2926265642,
				"y": -0.0661322137,
				"z": 2.7810487012,
				"element": "O" 
			},
			{
				"x": -3.1849401913,
				"y": 0.5659541266,
				"z": 0.8908098226,
				"element": "O" 
			},
			{
				"x": 2.6093981683,
				"y": -2.1845016683,
				"z": -3.0572578934,
				"element": "H" 
			},
			{
				"x": 3.2353291197,
				"y": -0.6706378078,
				"z": -2.8467776392,
				"element": "H" 
			},
			{
				"x": 3.1495194592,
				"y": -1.8375541846,
				"z": -0.684268004,
				"element": "H" 
			},
			{
				"x": 0.2352326776,
				"y": -0.4061531951,
				"z": -2.2942219604,
				"element": "H" 
			},
			{
				"x": -1.8293097439,
				"y": 0.2782928886,
				"z": -1.070522811,
				"element": "H" 
			},
			{
				"x": -0.0565728752,
				"y": -0.9710750881,
				"z": 2.6282928115,
				"element": "H" 
			}
		],
		 "valence_orbital": [ 
			{
				"type": "occ",
				"energy": -0.30562,
				"method": "rhf"
			},
			{
				"type": "occ",
				"energy": -0.29592,
				"method": "rhf"
			},
			{
				"type": "occ",
				"energy": -0.29389,
				"method": "rhf"
			},
			{
				"type": "occ",
				"energy": -0.28879,
				"method": "rhf"
			},
			{
				"type": "occ",
				"energy": -0.24559,
				"method": "rhf"
			},
			{
				"type": "unocc",
				"energy": -0.10088,
				"method": "rhf"
			},
			{
				"type": "unocc",
				"energy": -0.08526,
				"method": "rhf"
			},
			{
				"type": "unocc",
				"energy": -0.01848,
				"method": "rhf"
			},
			{
				"type": "unocc",
				"energy": 0.01069,
				"method": "rhf"
			},
			{
				"type": "unocc",
				"energy": 0.04411,
				"method": "rhf"
			}
		],
		"cosmo_sigma_profile": { 
			"-0.025": 0.0,
			"-0.024": 0.0,
			"-0.023": 0.0,
			"-0.022": 0.0,
			"-0.021": 0.0,
			"-0.02": 0.0,
			"-0.019": 0.0,
			"-0.018": 0.0,
			"-0.017": 0.0,
			"-0.016": 0.0,
			"-0.015": 0.0,
			"-0.014": 0.0034192868444,
			"-0.013": 2.40064308122,
			"-0.012": 4.7371067815,
			"-0.011": 6.11355607003,
			"-0.01": 4.3098766664,
			"-0.009": 2.61583066103,
			"-0.008": 3.7974808722,
			"-0.007": 3.76000468122,
			"-0.006": 7.70362545551,
			"-0.005": 8.84886259301,
			"-0.004": 11.2109462937,
			"-0.003": 13.3145113971,
			"-0.002": 19.5404303951,
			"-0.001": 19.8444850572,
			"0.0": 11.1527183348,
			"0.001": 10.5425607697,
			"0.002": 6.27281400484,
			"0.003": 5.56823096812,
			"0.004": 6.94280999171,
			"0.005": 6.43645121074,
			"0.006": 7.39412026387,
			"0.007": 12.1353087983,
			"0.008": 14.78138535,
			"0.009": 9.78933357255,
			"0.01": 6.74976549673,
			"0.011": 0.950189213518,
			"0.012": 0.0,
			"0.013": 0.0,
			"0.014": 0.0,
			"0.015": 0.0,
			"0.016": 0.0,
			"0.017": 0.0,
			"0.018": 0.0,
			"0.019": 0.0,
			"0.02": 0.0,
			"0.021": 0.0,
			"0.022": 0.0,
			"0.023": 0.0,
			"0.024": 0.0,
			"0.025": 0.0
		}
	}
}
