{
	 "smiles": "NC1=NC(N)=NC(N)=N1", 
	 "Tm": 627.15, 
	 "num_atms": 15, 
	 "gaussian": { 
		 "optdone": 1, 
		 "sigma_profile": "yes", 
		 "theory": "DFT", 
		 "functional": "B3LYP", 
		 "basiset": "6-31G**", 
		 "properties": { 
			 "R2extent": 2458.0037, 
			 "electric_dipole_moment_norm": 0.579515392375, 
			 "electric_quadrupole_moment_norm": 8.78311763726, 
			 "total_energy": -446.502354448, 
			 "HOMO_LUMO_gap": 0.25217, 
			 "cosmo_polarized_energy": -16.12, 
			 "cosmo_cavitation_energy": 19.54, 
			 "cosmo_dispersion_energy": -15.33, 
			 "cosmo_repulsion_energy": 1.31, 
			 "cosmo_total_nonelectrostatic_energy": 5.52, 
			 "SMD_solvation_energy": -1.03 
		},
		"coords": [
			{
				"x": 0.2491243529,
				"y": -2.6526289757,
				"z": 0.61287717,
				"element": "N" 
			},
			{
				"x": 0.7513025405,
				"y": -1.5857978166,
				"z": 1.2952067802,
				"element": "C" 
			},
			{
				"x": 2.0238862097,
				"y": -1.681780477,
				"z": 1.714624654,
				"element": "N" 
			},
			{
				"x": 2.4384306698,
				"y": -0.6124869218,
				"z": 2.4143775182,
				"element": "C" 
			},
			{
				"x": 3.7295746028,
				"y": -0.626792741,
				"z": 2.8468647738,
				"element": "N" 
			},
			{
				"x": 1.7135574691,
				"y": 0.4788256631,
				"z": 2.7118642175,
				"element": "N" 
			},
			{
				"x": 0.4651530131,
				"y": 0.4427591693,
				"z": 2.2168000291,
				"element": "C" 
			},
			{
				"x": -0.3148529837,
				"y": 1.5360184514,
				"z": 2.4419318853,
				"element": "N" 
			},
			{
				"x": -0.0839891266,
				"y": -0.5545522385,
				"z": 1.5035633526,
				"element": "N" 
			},
			{
				"x": -0.6181760116,
				"y": -2.5184188321,
				"z": 0.1190351498,
				"element": "H" 
			},
			{
				"x": 0.9073229318,
				"y": -3.3341994557,
				"z": 0.2717908385,
				"element": "H" 
			},
			{
				"x": 4.2209559613,
				"y": -1.505035502,
				"z": 2.8147494262,
				"element": "H" 
			},
			{
				"x": 3.999495948,
				"y": 0.0650649958,
				"z": 3.5267545116,
				"element": "H" 
			},
			{
				"x": 0.0044065329,
				"y": 2.2014382249,
				"z": 3.1268146922,
				"element": "H" 
			},
			{
				"x": -1.3015921101,
				"y": 1.448186456,
				"z": 2.2618450009,
				"element": "H" 
			}
		],
		 "valence_orbital": [ 
			{
				"type": "occ",
				"energy": -0.25173,
				"method": "rhf"
			},
			{
				"type": "occ",
				"energy": -0.24814,
				"method": "rhf"
			},
			{
				"type": "occ",
				"energy": -0.24717,
				"method": "rhf"
			},
			{
				"type": "occ",
				"energy": -0.22889,
				"method": "rhf"
			},
			{
				"type": "occ",
				"energy": -0.22866,
				"method": "rhf"
			},
			{
				"type": "unocc",
				"energy": 0.02351,
				"method": "rhf"
			},
			{
				"type": "unocc",
				"energy": 0.02357,
				"method": "rhf"
			},
			{
				"type": "unocc",
				"energy": 0.09848,
				"method": "rhf"
			},
			{
				"type": "unocc",
				"energy": 0.10054,
				"method": "rhf"
			},
			{
				"type": "unocc",
				"energy": 0.10106,
				"method": "rhf"
			}
		],
		"cosmo_sigma_profile": { 
			"-0.025": 0.0,
			"-0.024": 0.0,
			"-0.023": 0.0,
			"-0.022": 0.0,
			"-0.021": 0.0,
			"-0.02": 0.0,
			"-0.019": 0.0,
			"-0.018": 0.0,
			"-0.017": 0.0,
			"-0.016": 0.0,
			"-0.015": 0.0,
			"-0.014": 1.49352228052,
			"-0.013": 6.40288932671,
			"-0.012": 5.23661409311,
			"-0.011": 5.98432194707,
			"-0.01": 5.41767993279,
			"-0.009": 6.46633438459,
			"-0.008": 5.76596018496,
			"-0.007": 4.36551256721,
			"-0.006": 3.78872001309,
			"-0.005": 3.51562841951,
			"-0.004": 3.46467631822,
			"-0.003": 3.47302410131,
			"-0.002": 4.26570103102,
			"-0.001": 6.45145483698,
			"0.0": 6.69699815768,
			"0.001": 8.71956088702,
			"0.002": 9.83293411864,
			"0.003": 7.80544896156,
			"0.004": 6.40493894864,
			"0.005": 5.55696289655,
			"0.006": 9.09310480841,
			"0.007": 7.60824517756,
			"0.008": 5.33727969639,
			"0.009": 4.11665421589,
			"0.01": 4.2245115158,
			"0.011": 3.61542221874,
			"0.012": 2.83237038292,
			"0.013": 2.52232665179,
			"0.014": 3.15540414678,
			"0.015": 0.657228992561,
			"0.016": 0.0,
			"0.017": 0.0,
			"0.018": 0.0,
			"0.019": 0.0,
			"0.02": 0.0,
			"0.021": 0.0,
			"0.022": 0.0,
			"0.023": 0.0,
			"0.024": 0.0,
			"0.025": 0.0
		}
	}
}
