{
	 "smiles": "CC1=CC(=CC(C)=C1O)C(C)(C)C", 
	 "Tm": 355.55, 
	 "num_atms": 31, 
	 "gaussian": { 
		 "optdone": 1, 
		 "sigma_profile": "yes", 
		 "theory": "DFT", 
		 "functional": "B3LYP", 
		 "basiset": "6-31G**", 
		 "properties": { 
			 "R2extent": 3224.2603, 
			 "electric_dipole_moment_norm": 1.42981803388, 
			 "electric_quadrupole_moment_norm": 9.30127642047, 
			 "total_energy": -543.374982326, 
			 "HOMO_LUMO_gap": 0.21437, 
			 "cosmo_polarized_energy": -7.25, 
			 "cosmo_cavitation_energy": 31.6, 
			 "cosmo_dispersion_energy": -22.4, 
			 "cosmo_repulsion_energy": 1.77, 
			 "cosmo_total_nonelectrostatic_energy": 10.97, 
			 "SMD_solvation_energy": 5.74 
		},
		"coords": [
			{
				"x": -2.0433708454,
				"y": -2.6897221533,
				"z": 2.3415483091,
				"element": "C" 
			},
			{
				"x": -1.6816879839,
				"y": -1.4536284773,
				"z": 1.5574169808,
				"element": "C" 
			},
			{
				"x": -0.392520647,
				"y": -1.2492204985,
				"z": 1.0545542946,
				"element": "C" 
			},
			{
				"x": -0.0380012488,
				"y": -0.1076239362,
				"z": 0.3242426342,
				"element": "C" 
			},
			{
				"x": -1.0431317732,
				"y": 0.8461231234,
				"z": 0.1091296718,
				"element": "C" 
			},
			{
				"x": -2.3453960744,
				"y": 0.6896654057,
				"z": 0.5897561538,
				"element": "C" 
			},
			{
				"x": -3.4072115694,
				"y": 1.7360650912,
				"z": 0.3412606704,
				"element": "C" 
			},
			{
				"x": -2.6518883825,
				"y": -0.4721241159,
				"z": 1.3165537904,
				"element": "C" 
			},
			{
				"x": -3.9060843201,
				"y": -0.7063174534,
				"z": 1.8251071175,
				"element": "O" 
			},
			{
				"x": 1.3784643197,
				"y": 0.1270378553,
				"z": -0.2336713589,
				"element": "C" 
			},
			{
				"x": 2.3392612236,
				"y": -1.0283459288,
				"z": 0.1059346182,
				"element": "C" 
			},
			{
				"x": 1.9632156925,
				"y": 1.4281978624,
				"z": 0.3657599433,
				"element": "C" 
			},
			{
				"x": 1.3140031664,
				"y": 0.2595823141,
				"z": -1.7739808037,
				"element": "C" 
			},
			{
				"x": -2.4010670949,
				"y": -2.4345268013,
				"z": 3.3454743001,
				"element": "H" 
			},
			{
				"x": -2.8533543284,
				"y": -3.2464744045,
				"z": 1.8569006258,
				"element": "H" 
			},
			{
				"x": -1.181672658,
				"y": -3.3549631876,
				"z": 2.4425805875,
				"element": "H" 
			},
			{
				"x": 0.3454463417,
				"y": -2.0195958116,
				"z": 1.2508974275,
				"element": "H" 
			},
			{
				"x": -0.8182714375,
				"y": 1.7497116985,
				"z": -0.4517883799,
				"element": "H" 
			},
			{
				"x": -3.0036131718,
				"y": 2.5709070107,
				"z": -0.2365497386,
				"element": "H" 
			},
			{
				"x": -3.8031246857,
				"y": 2.1557205576,
				"z": 1.2767618778,
				"element": "H" 
			},
			{
				"x": -4.2592068153,
				"y": 1.335937948,
				"z": -0.2262013037,
				"element": "H" 
			},
			{
				"x": -4.485166279,
				"y": 0.0315386005,
				"z": 1.5988047274,
				"element": "H" 
			},
			{
				"x": 3.3306530838,
				"y": -0.8186135637,
				"z": -0.3091633052,
				"element": "H" 
			},
			{
				"x": 1.9988561715,
				"y": -1.9791130731,
				"z": -0.3173740783,
				"element": "H" 
			},
			{
				"x": 2.4548724997,
				"y": -1.1574524407,
				"z": 1.1871363948,
				"element": "H" 
			},
			{
				"x": 2.03019128,
				"y": 1.3598204194,
				"z": 1.4565823909,
				"element": "H" 
			},
			{
				"x": 1.3470311298,
				"y": 2.299592537,
				"z": 0.1243956275,
				"element": "H" 
			},
			{
				"x": 2.9700845144,
				"y": 1.6136411398,
				"z": -0.0262401102,
				"element": "H" 
			},
			{
				"x": 2.3145265346,
				"y": 0.432736208,
				"z": -2.1872549549,
				"element": "H" 
			},
			{
				"x": 0.6776270268,
				"y": 1.0940456992,
				"z": -2.0837359673,
				"element": "H" 
			},
			{
				"x": 0.9116363308,
				"y": -0.6521016249,
				"z": -2.2278381427,
				"element": "H" 
			}
		],
		 "valence_orbital": [ 
			{
				"type": "occ",
				"energy": -0.31352,
				"method": "rhf"
			},
			{
				"type": "occ",
				"energy": -0.30698,
				"method": "rhf"
			},
			{
				"type": "occ",
				"energy": -0.3065,
				"method": "rhf"
			},
			{
				"type": "occ",
				"energy": -0.23005,
				"method": "rhf"
			},
			{
				"type": "occ",
				"energy": -0.20333,
				"method": "rhf"
			},
			{
				"type": "unocc",
				"energy": 0.01104,
				"method": "rhf"
			},
			{
				"type": "unocc",
				"energy": 0.02077,
				"method": "rhf"
			},
			{
				"type": "unocc",
				"energy": 0.06736,
				"method": "rhf"
			},
			{
				"type": "unocc",
				"energy": 0.08637,
				"method": "rhf"
			},
			{
				"type": "unocc",
				"energy": 0.12084,
				"method": "rhf"
			}
		],
		"cosmo_sigma_profile": { 
			"-0.025": 0.0,
			"-0.024": 0.0,
			"-0.023": 0.0,
			"-0.022": 0.0,
			"-0.021": 0.0,
			"-0.02": 0.0,
			"-0.019": 0.0,
			"-0.018": 0.0,
			"-0.017": 0.0,
			"-0.016": 0.254570044814,
			"-0.015": 0.522220164623,
			"-0.014": 0.610841658208,
			"-0.013": 0.90145229541,
			"-0.012": 1.01705338548,
			"-0.011": 1.35165782956,
			"-0.01": 0.848526639029,
			"-0.009": 1.23900557461,
			"-0.008": 1.26177276806,
			"-0.007": 1.65800799562,
			"-0.006": 1.84415601445,
			"-0.005": 4.35682193696,
			"-0.004": 14.9134915482,
			"-0.003": 20.3239430943,
			"-0.002": 32.3639357194,
			"-0.001": 29.5051303593,
			"0.0": 31.2295860589,
			"0.001": 32.6829678317,
			"0.002": 20.1312325013,
			"0.003": 8.03108522354,
			"0.004": 9.24371830683,
			"0.005": 8.89145912053,
			"0.006": 7.38495922035,
			"0.007": 7.90028246436,
			"0.008": 1.72133775489,
			"0.009": 1.43548018866,
			"0.01": 2.19753121651,
			"0.011": 1.68202138888,
			"0.012": 0.11697954841,
			"0.013": 0.0,
			"0.014": 0.0,
			"0.015": 0.0,
			"0.016": 0.0,
			"0.017": 0.0,
			"0.018": 0.0,
			"0.019": 0.0,
			"0.02": 0.0,
			"0.021": 0.0,
			"0.022": 0.0,
			"0.023": 0.0,
			"0.024": 0.0,
			"0.025": 0.0
		}
	}
}
