{
	 "smiles": "CC(C)C(Br)C(=O)N1CCC2=C(C1)C=CC=C2", 
	 "Tm": 364.15, 
	 "num_atms": 35, 
	 "gaussian": { 
		 "optdone": 1, 
		 "sigma_profile": "yes", 
		 "theory": "DFT", 
		 "functional": "B3LYP", 
		 "basiset": "6-31G**", 
		 "properties": { 
			 "R2extent": 6888.9351, 
			 "electric_dipole_moment_norm": 3.14565114722, 
			 "electric_quadrupole_moment_norm": 6.4609124642, 
			 "total_energy": -3245.74913546, 
			 "HOMO_LUMO_gap": 0.20861, 
			 "cosmo_polarized_energy": -10.23, 
			 "cosmo_cavitation_energy": 37.43, 
			 "cosmo_dispersion_energy": -26.84, 
			 "cosmo_repulsion_energy": 2.08, 
			 "cosmo_total_nonelectrostatic_energy": 12.66, 
			 "SMD_solvation_energy": 4.69 
		},
		"coords": [
			{
				"x": -2.6498370762,
				"y": 0.4734888103,
				"z": -3.6257911419,
				"element": "C" 
			},
			{
				"x": -1.6429011457,
				"y": 1.3201025692,
				"z": -2.8351603573,
				"element": "C" 
			},
			{
				"x": -2.32071374,
				"y": 2.0553625843,
				"z": -1.6616739757,
				"element": "C" 
			},
			{
				"x": -0.3988708109,
				"y": 0.5762779647,
				"z": -2.3169621619,
				"element": "C" 
			},
			{
				"x": 0.64085651,
				"y": -0.2152830524,
				"z": -3.8473875336,
				"element": "Br" 
			},
			{
				"x": -0.6509737605,
				"y": -0.5410512196,
				"z": -1.2943717245,
				"element": "C" 
			},
			{
				"x": -1.7758342639,
				"y": -1.017144278,
				"z": -1.157267579,
				"element": "O" 
			},
			{
				"x": 0.4034513007,
				"y": -0.9489235654,
				"z": -0.5158135162,
				"element": "N" 
			},
			{
				"x": 0.1902563371,
				"y": -2.0353239255,
				"z": 0.4436420109,
				"element": "C" 
			},
			{
				"x": 0.5396060213,
				"y": -1.5519020501,
				"z": 1.8518284627,
				"element": "C" 
			},
			{
				"x": 1.9005097769,
				"y": -0.8862009857,
				"z": 1.8917144439,
				"element": "C" 
			},
			{
				"x": 2.4829440894,
				"y": -0.395978729,
				"z": 0.7128218476,
				"element": "C" 
			},
			{
				"x": 1.798933783,
				"y": -0.5386811897,
				"z": -0.6389896516,
				"element": "C" 
			},
			{
				"x": 3.7408385625,
				"y": 0.2189050344,
				"z": 0.7657623601,
				"element": "C" 
			},
			{
				"x": 4.4202732781,
				"y": 0.3564887604,
				"z": 1.9731485363,
				"element": "C" 
			},
			{
				"x": 3.8414020419,
				"y": -0.1264246807,
				"z": 3.1497957517,
				"element": "C" 
			},
			{
				"x": 2.5935185741,
				"y": -0.7421280753,
				"z": 3.1018016531,
				"element": "C" 
			},
			{
				"x": -3.4318369989,
				"y": 1.1251538959,
				"z": -4.030070295,
				"element": "H" 
			},
			{
				"x": -3.1118908172,
				"y": -0.2808243764,
				"z": -2.9886976982,
				"element": "H" 
			},
			{
				"x": -2.1660320742,
				"y": -0.030713253,
				"z": -4.4665482316,
				"element": "H" 
			},
			{
				"x": -1.2428293546,
				"y": 2.083355995,
				"z": -3.5156791807,
				"element": "H" 
			},
			{
				"x": -3.1152905752,
				"y": 2.7045211846,
				"z": -2.0429389905,
				"element": "H" 
			},
			{
				"x": -2.765965717,
				"y": 1.3433051179,
				"z": -0.9629227592,
				"element": "H" 
			},
			{
				"x": -1.6131008512,
				"y": 2.6877282414,
				"z": -1.1124308018,
				"element": "H" 
			},
			{
				"x": 0.2954620136,
				"y": 1.3139862997,
				"z": -1.9136626032,
				"element": "H" 
			},
			{
				"x": -0.8501527212,
				"y": -2.3462887142,
				"z": 0.3671827111,
				"element": "H" 
			},
			{
				"x": 0.8307767087,
				"y": -2.8835168825,
				"z": 0.1632772192,
				"element": "H" 
			},
			{
				"x": 0.5120558927,
				"y": -2.3966292799,
				"z": 2.5503336086,
				"element": "H" 
			},
			{
				"x": -0.2316062915,
				"y": -0.8446105877,
				"z": 2.1854230757,
				"element": "H" 
			},
			{
				"x": 2.343560009,
				"y": -1.2747106648,
				"z": -1.2510863665,
				"element": "H" 
			},
			{
				"x": 1.8701998337,
				"y": 0.4067120907,
				"z": -1.1763929186,
				"element": "H" 
			},
			{
				"x": 4.1896391698,
				"y": 0.5939810654,
				"z": -0.1517534411,
				"element": "H" 
			},
			{
				"x": 5.3932451412,
				"y": 0.838437405,
				"z": 1.9976577087,
				"element": "H" 
			},
			{
				"x": 4.3624923309,
				"y": -0.0264815133,
				"z": 4.0975383853,
				"element": "H" 
			},
			{
				"x": 2.1433148235,
				"y": -1.1237899957,
				"z": 4.0153731533,
				"element": "H" 
			}
		],
		 "valence_orbital": [ 
			{
				"type": "occ",
				"energy": -0.27616,
				"method": "rhf"
			},
			{
				"type": "occ",
				"energy": -0.25509,
				"method": "rhf"
			},
			{
				"type": "occ",
				"energy": -0.24993,
				"method": "rhf"
			},
			{
				"type": "occ",
				"energy": -0.24557,
				"method": "rhf"
			},
			{
				"type": "occ",
				"energy": -0.24208,
				"method": "rhf"
			},
			{
				"type": "unocc",
				"energy": -0.03347,
				"method": "rhf"
			},
			{
				"type": "unocc",
				"energy": -0.01096,
				"method": "rhf"
			},
			{
				"type": "unocc",
				"energy": -0.00466,
				"method": "rhf"
			},
			{
				"type": "unocc",
				"energy": 0.04347,
				"method": "rhf"
			},
			{
				"type": "unocc",
				"energy": 0.08567,
				"method": "rhf"
			}
		],
		"cosmo_sigma_profile": { 
			"-0.025": 0.0,
			"-0.024": 0.0,
			"-0.023": 0.0,
			"-0.022": 0.0,
			"-0.021": 0.0,
			"-0.02": 0.0,
			"-0.019": 0.0,
			"-0.018": 0.0,
			"-0.017": 0.0,
			"-0.016": 0.0,
			"-0.015": 0.0,
			"-0.014": 0.0,
			"-0.013": 0.0,
			"-0.012": 0.0,
			"-0.011": 0.00704878308002,
			"-0.01": 1.21674053695,
			"-0.009": 1.37669829148,
			"-0.008": 2.21810640487,
			"-0.007": 3.13958720907,
			"-0.006": 6.63751694849,
			"-0.005": 18.812940729,
			"-0.004": 26.8166671839,
			"-0.003": 31.2137487899,
			"-0.002": 29.53814536,
			"-0.001": 26.2096833954,
			"0.0": 26.2019281778,
			"0.001": 26.626841295,
			"0.002": 21.4257410385,
			"0.003": 15.4701993421,
			"0.004": 17.0477972033,
			"0.005": 16.3225458868,
			"0.006": 12.2978588288,
			"0.007": 3.03566514313,
			"0.008": 1.56981040853,
			"0.009": 2.01382986786,
			"0.01": 1.45228817431,
			"0.011": 1.70713809079,
			"0.012": 1.92670428133,
			"0.013": 2.51824892052,
			"0.014": 0.212352047161,
			"0.015": 0.0,
			"0.016": 0.0,
			"0.017": 0.0,
			"0.018": 0.0,
			"0.019": 0.0,
			"0.02": 0.0,
			"0.021": 0.0,
			"0.022": 0.0,
			"0.023": 0.0,
			"0.024": 0.0,
			"0.025": 0.0
		}
	}
}
