{
	 "smiles": "FC1=C(C=CC(Cl)=C1)C#N", 
	 "Tm": 333.15, 
	 "num_atms": 13, 
	 "gaussian": { 
		 "optdone": 1, 
		 "sigma_profile": "yes", 
		 "theory": "DFT", 
		 "functional": "B3LYP", 
		 "basiset": "6-31G**", 
		 "properties": { 
			 "R2extent": 3316.6391, 
			 "electric_dipole_moment_norm": 3.58601653092, 
			 "electric_quadrupole_moment_norm": 16.6586246263, 
			 "total_energy": -883.309289625, 
			 "HOMO_LUMO_gap": 0.20041, 
			 "cosmo_polarized_energy": -8.21, 
			 "cosmo_cavitation_energy": 21.28, 
			 "cosmo_dispersion_energy": -15.15, 
			 "cosmo_repulsion_energy": 1.21, 
			 "cosmo_total_nonelectrostatic_energy": 7.34, 
			 "SMD_solvation_energy": 5.3 
		},
		"coords": [
			{
				"x": -1.5607482242,
				"y": -0.3032612036,
				"z": 1.2932488144,
				"element": "F" 
			},
			{
				"x": -1.253505153,
				"y": 0.9319903809,
				"z": 0.8801771622,
				"element": "C" 
			},
			{
				"x": -0.1969024192,
				"y": 1.6127278791,
				"z": 1.5023256171,
				"element": "C" 
			},
			{
				"x": 0.1116682315,
				"y": 2.9095442388,
				"z": 1.0552297128,
				"element": "C" 
			},
			{
				"x": -0.611348459,
				"y": 3.4996087436,
				"z": 0.0248477141,
				"element": "C" 
			},
			{
				"x": -1.6570664972,
				"y": 2.7860935172,
				"z": -0.568093936,
				"element": "C" 
			},
			{
				"x": -2.5717909973,
				"y": 3.5197980977,
				"z": -1.8643935148,
				"element": "Cl" 
			},
			{
				"x": -1.9908695296,
				"y": 1.4980944691,
				"z": -0.1502011789,
				"element": "C" 
			},
			{
				"x": 0.5390356598,
				"y": 0.9952751245,
				"z": 2.5607993627,
				"element": "C" 
			},
			{
				"x": 1.1482910424,
				"y": 0.5082941224,
				"z": 3.4232349425,
				"element": "N" 
			},
			{
				"x": 0.9262801633,
				"y": 3.4476805653,
				"z": 1.5272581873,
				"element": "H" 
			},
			{
				"x": -0.3717560703,
				"y": 4.4989707509,
				"z": -0.317995929,
				"element": "H" 
			},
			{
				"x": -2.7996877472,
				"y": 0.9399833142,
				"z": -0.6052369543,
				"element": "H" 
			}
		],
		 "valence_orbital": [ 
			{
				"type": "occ",
				"energy": -0.34319,
				"method": "rhf"
			},
			{
				"type": "occ",
				"energy": -0.33886,
				"method": "rhf"
			},
			{
				"type": "occ",
				"energy": -0.33829,
				"method": "rhf"
			},
			{
				"type": "occ",
				"energy": -0.28997,
				"method": "rhf"
			},
			{
				"type": "occ",
				"energy": -0.27061,
				"method": "rhf"
			},
			{
				"type": "unocc",
				"energy": -0.0702,
				"method": "rhf"
			},
			{
				"type": "unocc",
				"energy": -0.03936,
				"method": "rhf"
			},
			{
				"type": "unocc",
				"energy": 0.00187,
				"method": "rhf"
			},
			{
				"type": "unocc",
				"energy": 0.02281,
				"method": "rhf"
			},
			{
				"type": "unocc",
				"energy": 0.05706,
				"method": "rhf"
			}
		],
		"cosmo_sigma_profile": { 
			"-0.025": 0.0,
			"-0.024": 0.0,
			"-0.023": 0.0,
			"-0.022": 0.0,
			"-0.021": 0.0,
			"-0.02": 0.0,
			"-0.019": 0.0,
			"-0.018": 0.0,
			"-0.017": 0.0,
			"-0.016": 0.0,
			"-0.015": 0.0,
			"-0.014": 0.0,
			"-0.013": 0.0,
			"-0.012": 0.0,
			"-0.011": 0.0,
			"-0.01": 0.80762924846,
			"-0.009": 5.02929681351,
			"-0.008": 6.11128465124,
			"-0.007": 6.02452757322,
			"-0.006": 4.49899502922,
			"-0.005": 4.80031235038,
			"-0.004": 8.26520318645,
			"-0.003": 11.8281580282,
			"-0.002": 17.4400446678,
			"-0.001": 19.7740291595,
			"0.0": 17.5925951518,
			"0.001": 11.5280160965,
			"0.002": 14.917079803,
			"0.003": 17.8518047234,
			"0.004": 5.99448076534,
			"0.005": 2.83868883378,
			"0.006": 2.25945411048,
			"0.007": 3.54883766431,
			"0.008": 3.21110796282,
			"0.009": 3.38893950265,
			"0.01": 2.7904618196,
			"0.011": 2.46009134993,
			"0.012": 2.17494031989,
			"0.013": 0.523310228558,
			"0.014": 0.0,
			"0.015": 0.0,
			"0.016": 0.0,
			"0.017": 0.0,
			"0.018": 0.0,
			"0.019": 0.0,
			"0.02": 0.0,
			"0.021": 0.0,
			"0.022": 0.0,
			"0.023": 0.0,
			"0.024": 0.0,
			"0.025": 0.0
		}
	}
}
