{
	 "smiles": "CC1=C(C=C(N)C=C1)S(=O)(=O)NC1=CC=C(SC(F)F)C=C1", 
	 "Tm": 501.15, 
	 "num_atms": 36, 
	 "gaussian": { 
		 "optdone": 1, 
		 "sigma_profile": "yes", 
		 "theory": "DFT", 
		 "functional": "B3LYP", 
		 "basiset": "6-31G**", 
		 "properties": { 
			 "R2extent": 11049.3656, 
			 "electric_dipole_moment_norm": 7.03499313788, 
			 "electric_quadrupole_moment_norm": 18.9442390882, 
			 "total_energy": -1797.85370577, 
			 "HOMO_LUMO_gap": 0.17223, 
			 "cosmo_polarized_energy": -21.85, 
			 "cosmo_cavitation_energy": 43.37, 
			 "cosmo_dispersion_energy": -30.41, 
			 "cosmo_repulsion_energy": 2.21, 
			 "cosmo_total_nonelectrostatic_energy": 15.17, 
			 "SMD_solvation_energy": 7.01 
		},
		"coords": [
			{
				"x": -1.7247755764,
				"y": -1.7692345509,
				"z": 0.6452587537,
				"element": "C" 
			},
			{
				"x": -1.9151209889,
				"y": -0.3448830894,
				"z": 0.1757180302,
				"element": "C" 
			},
			{
				"x": -1.3810611566,
				"y": 0.8024062212,
				"z": 0.796240614,
				"element": "C" 
			},
			{
				"x": -1.6396561147,
				"y": 2.096263958,
				"z": 0.3348577519,
				"element": "C" 
			},
			{
				"x": -2.4471911505,
				"y": 2.3070556164,
				"z": -0.7918325805,
				"element": "C" 
			},
			{
				"x": -2.7622970853,
				"y": 3.5944426527,
				"z": -1.2146450735,
				"element": "N" 
			},
			{
				"x": -2.9762984093,
				"y": 1.17738169,
				"z": -1.436024345,
				"element": "C" 
			},
			{
				"x": -2.7140909424,
				"y": -0.0988541634,
				"z": -0.9520510273,
				"element": "C" 
			},
			{
				"x": -0.2874527893,
				"y": 0.7316551721,
				"z": 2.2375887095,
				"element": "S" 
			},
			{
				"x": -0.5840968928,
				"y": -0.4650124883,
				"z": 3.0223585819,
				"element": "O" 
			},
			{
				"x": -0.2700340386,
				"y": 2.0656449128,
				"z": 2.8381261447,
				"element": "O" 
			},
			{
				"x": 1.3027006071,
				"y": 0.5562615511,
				"z": 1.6415032911,
				"element": "N" 
			},
			{
				"x": 1.8341065233,
				"y": -0.6197591917,
				"z": 1.057242047,
				"element": "C" 
			},
			{
				"x": 1.8464602057,
				"y": -1.8306334554,
				"z": 1.7682707547,
				"element": "C" 
			},
			{
				"x": 2.4321950822,
				"y": -2.9608350216,
				"z": 1.2057607262,
				"element": "C" 
			},
			{
				"x": 3.0172962512,
				"y": -2.9033821307,
				"z": -0.0684772926,
				"element": "C" 
			},
			{
				"x": 3.8441726461,
				"y": -4.3222050869,
				"z": -0.7873014132,
				"element": "S" 
			},
			{
				"x": 2.4369097094,
				"y": -5.4866891928,
				"z": -0.8821779365,
				"element": "C" 
			},
			{
				"x": 2.0734967922,
				"y": -5.9434054059,
				"z": 0.3490700952,
				"element": "F" 
			},
			{
				"x": 2.8563073129,
				"y": -6.5485443047,
				"z": -1.6127030617,
				"element": "F" 
			},
			{
				"x": 3.0144277221,
				"y": -1.6918300458,
				"z": -0.7697976533,
				"element": "C" 
			},
			{
				"x": 2.4240706656,
				"y": -0.5596382266,
				"z": -0.2126776147,
				"element": "C" 
			},
			{
				"x": -2.0985326447,
				"y": -1.9082927084,
				"z": 1.6623672631,
				"element": "H" 
			},
			{
				"x": -0.6739538131,
				"y": -2.0697788385,
				"z": 0.653958404,
				"element": "H" 
			},
			{
				"x": -2.262964677,
				"y": -2.4490861623,
				"z": -0.0206233783,
				"element": "H" 
			},
			{
				"x": -1.2334996167,
				"y": 2.9412453156,
				"z": 0.8807881936,
				"element": "H" 
			},
			{
				"x": -2.1326666817,
				"y": 4.3259155248,
				"z": -0.9174448322,
				"element": "H" 
			},
			{
				"x": -3.0397243203,
				"y": 3.6873834016,
				"z": -2.1812076733,
				"element": "H" 
			},
			{
				"x": -3.6099216501,
				"y": 1.3029928186,
				"z": -2.3103897983,
				"element": "H" 
			},
			{
				"x": -3.1530475522,
				"y": -0.9501588426,
				"z": -1.4654370672,
				"element": "H" 
			},
			{
				"x": 1.5955373845,
				"y": 1.4245937363,
				"z": 1.2056030938,
				"element": "H" 
			},
			{
				"x": 1.4078373837,
				"y": -1.8690083527,
				"z": 2.7577414051,
				"element": "H" 
			},
			{
				"x": 2.4503510932,
				"y": -3.8900939921,
				"z": 1.7635127453,
				"element": "H" 
			},
			{
				"x": 1.56098861,
				"y": -5.0278388029,
				"z": -1.3516495876,
				"element": "H" 
			},
			{
				"x": 3.4620326557,
				"y": -1.6386438082,
				"z": -1.7570176807,
				"element": "H" 
			},
			{
				"x": 2.4122954558,
				"y": 0.3734652905,
				"z": -0.7699085893,
				"element": "H" 
			}
		],
		 "valence_orbital": [ 
			{
				"type": "occ",
				"energy": -0.27401,
				"method": "rhf"
			},
			{
				"type": "occ",
				"energy": -0.27108,
				"method": "rhf"
			},
			{
				"type": "occ",
				"energy": -0.26248,
				"method": "rhf"
			},
			{
				"type": "occ",
				"energy": -0.23349,
				"method": "rhf"
			},
			{
				"type": "occ",
				"energy": -0.21783,
				"method": "rhf"
			},
			{
				"type": "unocc",
				"energy": -0.0456,
				"method": "rhf"
			},
			{
				"type": "unocc",
				"energy": -0.02736,
				"method": "rhf"
			},
			{
				"type": "unocc",
				"energy": -0.02295,
				"method": "rhf"
			},
			{
				"type": "unocc",
				"energy": -0.0037,
				"method": "rhf"
			},
			{
				"type": "unocc",
				"energy": 0.01998,
				"method": "rhf"
			}
		],
		"cosmo_sigma_profile": { 
			"-0.025": 0.0,
			"-0.024": 0.0,
			"-0.023": 0.0,
			"-0.022": 0.0,
			"-0.021": 0.0,
			"-0.02": 0.0,
			"-0.019": 0.0,
			"-0.018": 0.0,
			"-0.017": 0.0,
			"-0.016": 0.366825850677,
			"-0.015": 1.05040421105,
			"-0.014": 1.33924287208,
			"-0.013": 2.90767272871,
			"-0.012": 3.96092575265,
			"-0.011": 4.79028687462,
			"-0.01": 5.79175702875,
			"-0.009": 7.00846837011,
			"-0.008": 6.67419240605,
			"-0.007": 9.90065837055,
			"-0.006": 13.6908830701,
			"-0.005": 16.5082519917,
			"-0.004": 15.2816221829,
			"-0.003": 14.2286432173,
			"-0.002": 16.3953116217,
			"-0.001": 20.7776792745,
			"0.0": 29.3146276973,
			"0.001": 27.520281255,
			"0.002": 27.8378344137,
			"0.003": 39.5847916731,
			"0.004": 30.7970060044,
			"0.005": 12.1451102216,
			"0.006": 7.10647397106,
			"0.007": 6.42055784736,
			"0.008": 5.44749261839,
			"0.009": 4.15169897935,
			"0.01": 6.85335704504,
			"0.011": 7.84586582118,
			"0.012": 1.62243421457,
			"0.013": 0.561452776825,
			"0.014": 0.218093346675,
			"0.015": 0.0,
			"0.016": 0.0,
			"0.017": 0.0,
			"0.018": 0.0,
			"0.019": 0.0,
			"0.02": 0.0,
			"0.021": 0.0,
			"0.022": 0.0,
			"0.023": 0.0,
			"0.024": 0.0,
			"0.025": 0.0
		}
	}
}
