{
	 "smiles": "CC1=CC=C(Cl)C(C#N)=C1F", 
	 "Tm": 330.15, 
	 "num_atms": 16, 
	 "gaussian": { 
		 "optdone": 1, 
		 "sigma_profile": "yes", 
		 "theory": "DFT", 
		 "functional": "B3LYP", 
		 "basiset": "6-31G**", 
		 "properties": { 
			 "R2extent": 3896.2105, 
			 "electric_dipole_moment_norm": 5.8501922618, 
			 "electric_quadrupole_moment_norm": 27.5680204293, 
			 "total_energy": -922.627978319, 
			 "HOMO_LUMO_gap": 0.19862, 
			 "cosmo_polarized_energy": -8.88, 
			 "cosmo_cavitation_energy": 23.64, 
			 "cosmo_dispersion_energy": -16.75, 
			 "cosmo_repulsion_energy": 1.33, 
			 "cosmo_total_nonelectrostatic_energy": 8.22, 
			 "SMD_solvation_energy": 5.57 
		},
		"coords": [
			{
				"x": -1.5048453565,
				"y": 0.3280838936,
				"z": 1.3834798746,
				"element": "C" 
			},
			{
				"x": -0.2451923667,
				"y": 0.8899908403,
				"z": 0.7775916214,
				"element": "C" 
			},
			{
				"x": 0.7429569313,
				"y": 0.0949463524,
				"z": 0.1883393518,
				"element": "C" 
			},
			{
				"x": 1.9024048344,
				"y": 0.6402032565,
				"z": -0.3667757633,
				"element": "C" 
			},
			{
				"x": 2.0971107783,
				"y": 2.0168330623,
				"z": -0.3414298214,
				"element": "C" 
			},
			{
				"x": 3.5444848247,
				"y": 2.6986336961,
				"z": -1.0340917645,
				"element": "Cl" 
			},
			{
				"x": 1.1310856303,
				"y": 2.8627561558,
				"z": 0.2410266525,
				"element": "C" 
			},
			{
				"x": 1.2766271508,
				"y": 4.2828538293,
				"z": 0.2962630814,
				"element": "C" 
			},
			{
				"x": 1.3804553427,
				"y": 5.4394961477,
				"z": 0.3489312201,
				"element": "N" 
			},
			{
				"x": -0.0153476902,
				"y": 2.2646190588,
				"z": 0.7843333777,
				"element": "C" 
			},
			{
				"x": -0.938233958,
				"y": 3.0666375791,
				"z": 1.3402145774,
				"element": "F" 
			},
			{
				"x": -2.3955453609,
				"y": 0.7304060136,
				"z": 0.8898318814,
				"element": "H" 
			},
			{
				"x": -1.583915175,
				"y": 0.5870486196,
				"z": 2.4443996438,
				"element": "H" 
			},
			{
				"x": -1.5254206584,
				"y": -0.7602805747,
				"z": 1.2937913375,
				"element": "H" 
			},
			{
				"x": 0.6022910773,
				"y": -0.9817933796,
				"z": 0.1625098916,
				"element": "H" 
			},
			{
				"x": 2.6528839957,
				"y": 0.0016654492,
				"z": -0.8175151622,
				"element": "H" 
			}
		],
		 "valence_orbital": [ 
			{
				"type": "occ",
				"energy": -0.34346,
				"method": "rhf"
			},
			{
				"type": "occ",
				"energy": -0.34129,
				"method": "rhf"
			},
			{
				"type": "occ",
				"energy": -0.32887,
				"method": "rhf"
			},
			{
				"type": "occ",
				"energy": -0.27498,
				"method": "rhf"
			},
			{
				"type": "occ",
				"energy": -0.2633,
				"method": "rhf"
			},
			{
				"type": "unocc",
				"energy": -0.06468,
				"method": "rhf"
			},
			{
				"type": "unocc",
				"energy": -0.03305,
				"method": "rhf"
			},
			{
				"type": "unocc",
				"energy": 0.00781,
				"method": "rhf"
			},
			{
				"type": "unocc",
				"energy": 0.02763,
				"method": "rhf"
			},
			{
				"type": "unocc",
				"energy": 0.06327,
				"method": "rhf"
			}
		],
		"cosmo_sigma_profile": { 
			"-0.025": 0.0,
			"-0.024": 0.0,
			"-0.023": 0.0,
			"-0.022": 0.0,
			"-0.021": 0.0,
			"-0.02": 0.0,
			"-0.019": 0.0,
			"-0.018": 0.0,
			"-0.017": 0.0,
			"-0.016": 0.0,
			"-0.015": 0.0,
			"-0.014": 0.0,
			"-0.013": 0.0,
			"-0.012": 0.0,
			"-0.011": 0.0,
			"-0.01": 0.0,
			"-0.009": 0.392140983656,
			"-0.008": 4.11669631441,
			"-0.007": 5.84482507853,
			"-0.006": 6.02744222547,
			"-0.005": 8.55082614245,
			"-0.004": 11.0475439084,
			"-0.003": 18.0478939757,
			"-0.002": 21.1514603605,
			"-0.001": 23.5519295744,
			"0.0": 16.7736072646,
			"0.001": 15.5543984061,
			"0.002": 13.4471102658,
			"0.003": 20.0609758292,
			"0.004": 4.9529791391,
			"0.005": 3.20579788245,
			"0.006": 3.0720258573,
			"0.007": 3.38158716551,
			"0.008": 3.31894968892,
			"0.009": 3.14787713416,
			"0.01": 2.76720240866,
			"0.011": 2.5409694443,
			"0.012": 2.02920382517,
			"0.013": 0.262932831291,
			"0.014": 0.0,
			"0.015": 0.0,
			"0.016": 0.0,
			"0.017": 0.0,
			"0.018": 0.0,
			"0.019": 0.0,
			"0.02": 0.0,
			"0.021": 0.0,
			"0.022": 0.0,
			"0.023": 0.0,
			"0.024": 0.0,
			"0.025": 0.0
		}
	}
}
