{
	 "smiles": "CCC1(C(=O)NC(=O)NC1=O)C1=CCCCC1", 
	 "Tm": 446.15, 
	 "num_atms": 33, 
	 "gaussian": { 
		 "optdone": 1, 
		 "sigma_profile": "yes", 
		 "theory": "DFT", 
		 "functional": "B3LYP", 
		 "basiset": "6-31G**", 
		 "properties": { 
			 "R2extent": 3896.9208, 
			 "electric_dipole_moment_norm": 1.87169979163, 
			 "electric_quadrupole_moment_norm": 6.01268279888, 
			 "total_energy": -802.142278865, 
			 "HOMO_LUMO_gap": 0.19709, 
			 "cosmo_polarized_energy": -14.14, 
			 "cosmo_cavitation_energy": 33.9, 
			 "cosmo_dispersion_energy": -23.96, 
			 "cosmo_repulsion_energy": 1.87, 
			 "cosmo_total_nonelectrostatic_energy": 11.81, 
			 "SMD_solvation_energy": 7.18 
		},
		"coords": [
			{
				"x": 1.0487589367,
				"y": 2.6130145402,
				"z": -0.8194376811,
				"element": "C" 
			},
			{
				"x": 1.5361613976,
				"y": 1.8455707626,
				"z": 0.4121240583,
				"element": "C" 
			},
			{
				"x": 0.7755652049,
				"y": 0.5288762296,
				"z": 0.7620995878,
				"element": "C" 
			},
			{
				"x": 1.6330729811,
				"y": -0.2728597817,
				"z": 1.7605384988,
				"element": "C" 
			},
			{
				"x": 2.8495740534,
				"y": -0.2838207079,
				"z": 1.7474470493,
				"element": "O" 
			},
			{
				"x": 0.9443005347,
				"y": -1.0789196692,
				"z": 2.6619128233,
				"element": "N" 
			},
			{
				"x": -0.3969111875,
				"y": -0.9973938625,
				"z": 3.0085235181,
				"element": "C" 
			},
			{
				"x": -0.9062298681,
				"y": -1.6910140577,
				"z": 3.8646213961,
				"element": "O" 
			},
			{
				"x": -1.0975490926,
				"y": -0.0215605727,
				"z": 2.3084614728,
				"element": "N" 
			},
			{
				"x": -0.6046131597,
				"y": 0.8597149848,
				"z": 1.3486602455,
				"element": "C" 
			},
			{
				"x": -1.2890363715,
				"y": 1.7978699244,
				"z": 0.9884660533,
				"element": "O" 
			},
			{
				"x": 0.6002947752,
				"y": -0.3864383545,
				"z": -0.4961101477,
				"element": "C" 
			},
			{
				"x": 1.6750772504,
				"y": -0.9778663532,
				"z": -1.0389159064,
				"element": "C" 
			},
			{
				"x": 1.6501735027,
				"y": -1.7834098693,
				"z": -2.3142602985,
				"element": "C" 
			},
			{
				"x": 0.3582647953,
				"y": -1.5798938641,
				"z": -3.1147015584,
				"element": "C" 
			},
			{
				"x": -0.8521655631,
				"y": -1.6249124077,
				"z": -2.1781371983,
				"element": "C" 
			},
			{
				"x": -0.7802777512,
				"y": -0.5162133819,
				"z": -1.1165398072,
				"element": "C" 
			},
			{
				"x": 1.1113489141,
				"y": 1.9958938598,
				"z": -1.7207389508,
				"element": "H" 
			},
			{
				"x": 1.6880739047,
				"y": 3.4880622663,
				"z": -0.975990235,
				"element": "H" 
			},
			{
				"x": 0.0205159292,
				"y": 2.9558444288,
				"z": -0.6986972885,
				"element": "H" 
			},
			{
				"x": 2.5825335209,
				"y": 1.5601419354,
				"z": 0.2812880035,
				"element": "H" 
			},
			{
				"x": 1.4999986766,
				"y": 2.5004696907,
				"z": 1.2914674262,
				"element": "H" 
			},
			{
				"x": 1.5077899046,
				"y": -1.6879507431,
				"z": 3.2433711407,
				"element": "H" 
			},
			{
				"x": -2.0409632421,
				"y": 0.1525838422,
				"z": 2.6352981669,
				"element": "H" 
			},
			{
				"x": 2.6420129702,
				"y": -0.8771375164,
				"z": -0.5521069877,
				"element": "H" 
			},
			{
				"x": 1.7797213911,
				"y": -2.8485939966,
				"z": -2.0676167638,
				"element": "H" 
			},
			{
				"x": 2.5257587897,
				"y": -1.5185550559,
				"z": -2.9209512668,
				"element": "H" 
			},
			{
				"x": 0.3909299348,
				"y": -0.6052896389,
				"z": -3.6194123799,
				"element": "H" 
			},
			{
				"x": 0.272375319,
				"y": -2.3397646236,
				"z": -3.8992564468,
				"element": "H" 
			},
			{
				"x": -0.8826966978,
				"y": -2.602418145,
				"z": -1.6785734715,
				"element": "H" 
			},
			{
				"x": -1.7873273718,
				"y": -1.530177404,
				"z": -2.7409849957,
				"element": "H" 
			},
			{
				"x": -1.0724514224,
				"y": 0.4495438452,
				"z": -1.551469617,
				"element": "H" 
			},
			{
				"x": -1.5276809592,
				"y": -0.7208963042,
				"z": -0.3408784393,
				"element": "H" 
			}
		],
		 "valence_orbital": [ 
			{
				"type": "occ",
				"energy": -0.30247,
				"method": "rhf"
			},
			{
				"type": "occ",
				"energy": -0.30065,
				"method": "rhf"
			},
			{
				"type": "occ",
				"energy": -0.29016,
				"method": "rhf"
			},
			{
				"type": "occ",
				"energy": -0.26712,
				"method": "rhf"
			},
			{
				"type": "occ",
				"energy": -0.24669,
				"method": "rhf"
			},
			{
				"type": "unocc",
				"energy": -0.0496,
				"method": "rhf"
			},
			{
				"type": "unocc",
				"energy": -0.00601,
				"method": "rhf"
			},
			{
				"type": "unocc",
				"energy": 0.00998,
				"method": "rhf"
			},
			{
				"type": "unocc",
				"energy": 0.0527,
				"method": "rhf"
			},
			{
				"type": "unocc",
				"energy": 0.07306,
				"method": "rhf"
			}
		],
		"cosmo_sigma_profile": { 
			"-0.025": 0.0,
			"-0.024": 0.0,
			"-0.023": 0.0,
			"-0.022": 0.0,
			"-0.021": 0.0,
			"-0.02": 0.0,
			"-0.019": 0.0,
			"-0.018": 0.0,
			"-0.017": 0.113470823771,
			"-0.016": 1.90459325102,
			"-0.015": 1.66289602426,
			"-0.014": 1.84639051887,
			"-0.013": 1.76203172185,
			"-0.012": 1.21955409167,
			"-0.011": 1.903001481,
			"-0.01": 2.76058812801,
			"-0.009": 1.9479519547,
			"-0.008": 2.92075330185,
			"-0.007": 2.91106162363,
			"-0.006": 4.09495804789,
			"-0.005": 6.13368755292,
			"-0.004": 11.4399856393,
			"-0.003": 21.91328346,
			"-0.002": 36.184160944,
			"-0.001": 39.6101091992,
			"0.0": 31.2876846137,
			"0.001": 24.8612775111,
			"0.002": 11.9924613006,
			"0.003": 5.67439650334,
			"0.004": 4.09723467844,
			"0.005": 4.33372288908,
			"0.006": 4.43258827991,
			"0.007": 3.43172713636,
			"0.008": 4.72634580288,
			"0.009": 5.03356797704,
			"0.01": 5.83607297072,
			"0.011": 12.8443683519,
			"0.012": 5.97478555349,
			"0.013": 0.0310813774923,
			"0.014": 0.0,
			"0.015": 0.0,
			"0.016": 0.0,
			"0.017": 0.0,
			"0.018": 0.0,
			"0.019": 0.0,
			"0.02": 0.0,
			"0.021": 0.0,
			"0.022": 0.0,
			"0.023": 0.0,
			"0.024": 0.0,
			"0.025": 0.0
		}
	}
}
