{
	 "smiles": "CSC(S)=NC1=CC=C(C)C=C1", 
	 "Tm": 449.15, 
	 "num_atms": 23, 
	 "gaussian": { 
		 "optdone": 1, 
		 "sigma_profile": "yes", 
		 "theory": "DFT", 
		 "functional": "B3LYP", 
		 "basiset": "6-31G**", 
		 "properties": { 
			 "R2extent": 5643.9579, 
			 "electric_dipole_moment_norm": 2.36400692469, 
			 "electric_quadrupole_moment_norm": 9.13237319485, 
			 "total_energy": -1200.70307472, 
			 "HOMO_LUMO_gap": 0.17754, 
			 "cosmo_polarized_energy": -6.94, 
			 "cosmo_cavitation_energy": 29.78, 
			 "cosmo_dispersion_energy": -22.01, 
			 "cosmo_repulsion_energy": 1.7, 
			 "cosmo_total_nonelectrostatic_energy": 9.46, 
			 "SMD_solvation_energy": 3.59 
		},
		"coords": [
			{
				"x": 1.6798932025,
				"y": 2.4862261448,
				"z": -2.4849407423,
				"element": "C" 
			},
			{
				"x": 3.0615669315,
				"y": 1.6281479851,
				"z": -3.3274968436,
				"element": "S" 
			},
			{
				"x": 2.375931622,
				"y": -0.0096453679,
				"z": -3.6736058981,
				"element": "C" 
			},
			{
				"x": 3.0332060938,
				"y": -0.5616912852,
				"z": -5.24695605,
				"element": "S" 
			},
			{
				"x": 1.5703265385,
				"y": -0.7409184381,
				"z": -3.0248308497,
				"element": "N" 
			},
			{
				"x": 1.1328541129,
				"y": -0.5623675846,
				"z": -1.7017311409,
				"element": "C" 
			},
			{
				"x": -0.2346198477,
				"y": -0.7156502887,
				"z": -1.4217372338,
				"element": "C" 
			},
			{
				"x": -0.7011424205,
				"y": -0.6197333472,
				"z": -0.114476554,
				"element": "C" 
			},
			{
				"x": 0.1738806761,
				"y": -0.400737724,
				"z": 0.9601753346,
				"element": "C" 
			},
			{
				"x": -0.3439370921,
				"y": -0.2857287167,
				"z": 2.3744645082,
				"element": "C" 
			},
			{
				"x": 1.5399595328,
				"y": -0.284107444,
				"z": 0.6733861276,
				"element": "C" 
			},
			{
				"x": 2.0212859148,
				"y": -0.3586932451,
				"z": -0.6335202405,
				"element": "C" 
			},
			{
				"x": 1.5918813962,
				"y": 2.1842890559,
				"z": -1.4419441945,
				"element": "H" 
			},
			{
				"x": 0.7425001886,
				"y": 2.3032106142,
				"z": -3.011512053,
				"element": "H" 
			},
			{
				"x": 1.9236573699,
				"y": 3.5489997037,
				"z": -2.5478784376,
				"element": "H" 
			},
			{
				"x": 2.6915195714,
				"y": -1.8542225271,
				"z": -5.0662728601,
				"element": "H" 
			},
			{
				"x": -0.917495762,
				"y": -0.9089653646,
				"z": -2.2431380896,
				"element": "H" 
			},
			{
				"x": -1.7656548981,
				"y": -0.731495407,
				"z": 0.0780410844,
				"element": "H" 
			},
			{
				"x": -1.1540794262,
				"y": -0.9974121444,
				"z": 2.5640025781,
				"element": "H" 
			},
			{
				"x": -0.7431521678,
				"y": 0.7168940904,
				"z": 2.574496672,
				"element": "H" 
			},
			{
				"x": 0.4469380893,
				"y": -0.473286334,
				"z": 3.1065384855,
				"element": "H" 
			},
			{
				"x": 2.2452302242,
				"y": -0.135813418,
				"z": 1.4877891837,
				"element": "H" 
			},
			{
				"x": 3.08555015,
				"y": -0.2777989577,
				"z": -0.8302527866,
				"element": "H" 
			}
		],
		 "valence_orbital": [ 
			{
				"type": "occ",
				"energy": -0.28547,
				"method": "rhf"
			},
			{
				"type": "occ",
				"energy": -0.25719,
				"method": "rhf"
			},
			{
				"type": "occ",
				"energy": -0.25233,
				"method": "rhf"
			},
			{
				"type": "occ",
				"energy": -0.24537,
				"method": "rhf"
			},
			{
				"type": "occ",
				"energy": -0.21288,
				"method": "rhf"
			},
			{
				"type": "unocc",
				"energy": -0.03534,
				"method": "rhf"
			},
			{
				"type": "unocc",
				"energy": -0.00348,
				"method": "rhf"
			},
			{
				"type": "unocc",
				"energy": 0.00492,
				"method": "rhf"
			},
			{
				"type": "unocc",
				"energy": 0.02212,
				"method": "rhf"
			},
			{
				"type": "unocc",
				"energy": 0.04621,
				"method": "rhf"
			}
		],
		"cosmo_sigma_profile": { 
			"-0.025": 0.0,
			"-0.024": 0.0,
			"-0.023": 0.0,
			"-0.022": 0.0,
			"-0.021": 0.0,
			"-0.02": 0.0,
			"-0.019": 0.0,
			"-0.018": 0.0,
			"-0.017": 0.0,
			"-0.016": 0.0,
			"-0.015": 0.0,
			"-0.014": 0.0,
			"-0.013": 0.0,
			"-0.012": 0.0,
			"-0.011": 0.854113570032,
			"-0.01": 1.83298571533,
			"-0.009": 1.17647689412,
			"-0.008": 1.3516592573,
			"-0.007": 3.41960028896,
			"-0.006": 6.65123615599,
			"-0.005": 12.9992255221,
			"-0.004": 19.7675628222,
			"-0.003": 22.5571382469,
			"-0.002": 21.8613000675,
			"-0.001": 20.0470419623,
			"0.0": 23.1489553648,
			"0.001": 19.134870915,
			"0.002": 15.8591744794,
			"0.003": 17.9920440089,
			"0.004": 17.69067424,
			"0.005": 15.4346825661,
			"0.006": 10.2134817501,
			"0.007": 4.70920572674,
			"0.008": 1.93035949657,
			"0.009": 0.814494834751,
			"0.01": 0.366090411838,
			"0.011": 1.02626383294,
			"0.012": 0.0983350111722,
			"0.013": 0.0,
			"0.014": 0.0,
			"0.015": 0.0,
			"0.016": 0.0,
			"0.017": 0.0,
			"0.018": 0.0,
			"0.019": 0.0,
			"0.02": 0.0,
			"0.021": 0.0,
			"0.022": 0.0,
			"0.023": 0.0,
			"0.024": 0.0,
			"0.025": 0.0
		}
	}
}
