{
	 "smiles": "CC1=CC(=CC=C1)C1=NOC(S)=N1", 
	 "Tm": 393.15, 
	 "num_atms": 21, 
	 "gaussian": { 
		 "optdone": 1, 
		 "sigma_profile": "yes", 
		 "theory": "DFT", 
		 "functional": "B3LYP", 
		 "basiset": "6-31G**", 
		 "properties": { 
			 "R2extent": 5574.1288, 
			 "electric_dipole_moment_norm": 2.6465543278, 
			 "electric_quadrupole_moment_norm": 13.4455695915, 
			 "total_energy": -930.655907488, 
			 "HOMO_LUMO_gap": 0.19298, 
			 "cosmo_polarized_energy": -8.3, 
			 "cosmo_cavitation_energy": 27.76, 
			 "cosmo_dispersion_energy": -21.12, 
			 "cosmo_repulsion_energy": 1.62, 
			 "cosmo_total_nonelectrostatic_energy": 8.26, 
			 "SMD_solvation_energy": 2.98 
		},
		"coords": [
			{
				"x": -0.9596844837,
				"y": -1.8891872708,
				"z": 1.4272903567,
				"element": "C" 
			},
			{
				"x": -0.3516596043,
				"y": -0.6441949992,
				"z": 0.8243097259,
				"element": "C" 
			},
			{
				"x": 0.8866102974,
				"y": -0.6972234202,
				"z": 0.1750759366,
				"element": "C" 
			},
			{
				"x": 1.4712166974,
				"y": 0.4571442803,
				"z": -0.3615388565,
				"element": "C" 
			},
			{
				"x": 0.8101643493,
				"y": 1.6903114142,
				"z": -0.2528920742,
				"element": "C" 
			},
			{
				"x": -0.4230982629,
				"y": 1.7500547291,
				"z": 0.3879748626,
				"element": "C" 
			},
			{
				"x": -0.9994795824,
				"y": 0.5941772045,
				"z": 0.9204525688,
				"element": "C" 
			},
			{
				"x": 2.7720433604,
				"y": 0.3634206805,
				"z": -1.0383567399,
				"element": "C" 
			},
			{
				"x": 3.3761396532,
				"y": 1.4052610482,
				"z": -1.5668006378,
				"element": "N" 
			},
			{
				"x": 4.568121067,
				"y": 0.859016274,
				"z": -2.0948309084,
				"element": "O" 
			},
			{
				"x": 4.526638519,
				"y": -0.4507747965,
				"z": -1.8146891888,
				"element": "C" 
			},
			{
				"x": 5.8937169695,
				"y": -1.4103172881,
				"z": -2.3548285291,
				"element": "S" 
			},
			{
				"x": 3.4634035075,
				"y": -0.8298378092,
				"z": -1.17152405,
				"element": "N" 
			},
			{
				"x": -0.6716562978,
				"y": -2.7852147032,
				"z": 0.8696412901,
				"element": "H" 
			},
			{
				"x": -0.6269620576,
				"y": -2.0296152959,
				"z": 2.4633240673,
				"element": "H" 
			},
			{
				"x": -2.0522851151,
				"y": -1.8342588168,
				"z": 1.4412465502,
				"element": "H" 
			},
			{
				"x": 1.4118654517,
				"y": -1.6420872039,
				"z": 0.0776160701,
				"element": "H" 
			},
			{
				"x": 1.26380393,
				"y": 2.5820049804,
				"z": -0.6720063274,
				"element": "H" 
			},
			{
				"x": -0.942304148,
				"y": 2.7003843307,
				"z": 0.4710196723,
				"element": "H" 
			},
			{
				"x": -1.9657244538,
				"y": 0.654172841,
				"z": 1.4153788603,
				"element": "H" 
			},
			{
				"x": 5.3849302031,
				"y": -2.5527361792,
				"z": -1.8565626489,
				"element": "H" 
			}
		],
		 "valence_orbital": [ 
			{
				"type": "occ",
				"energy": -0.33087,
				"method": "rhf"
			},
			{
				"type": "occ",
				"energy": -0.30168,
				"method": "rhf"
			},
			{
				"type": "occ",
				"energy": -0.26875,
				"method": "rhf"
			},
			{
				"type": "occ",
				"energy": -0.25079,
				"method": "rhf"
			},
			{
				"type": "occ",
				"energy": -0.23949,
				"method": "rhf"
			},
			{
				"type": "unocc",
				"energy": -0.04651,
				"method": "rhf"
			},
			{
				"type": "unocc",
				"energy": -0.01039,
				"method": "rhf"
			},
			{
				"type": "unocc",
				"energy": -0.00707,
				"method": "rhf"
			},
			{
				"type": "unocc",
				"energy": 0.00016,
				"method": "rhf"
			},
			{
				"type": "unocc",
				"energy": 0.03873,
				"method": "rhf"
			}
		],
		"cosmo_sigma_profile": { 
			"-0.025": 0.0,
			"-0.024": 0.0,
			"-0.023": 0.0,
			"-0.022": 0.0,
			"-0.021": 0.0,
			"-0.02": 0.0,
			"-0.019": 0.0,
			"-0.018": 0.0,
			"-0.017": 0.0,
			"-0.016": 0.0,
			"-0.015": 0.0,
			"-0.014": 0.299964522678,
			"-0.013": 1.71483799603,
			"-0.012": 1.62470666636,
			"-0.011": 1.44865398498,
			"-0.01": 1.03106753365,
			"-0.009": 1.31967426588,
			"-0.008": 1.27931102732,
			"-0.007": 1.59385813404,
			"-0.006": 5.20716960763,
			"-0.005": 11.6616953073,
			"-0.004": 17.5512550723,
			"-0.003": 17.2287385446,
			"-0.002": 20.6411365672,
			"-0.001": 21.9807363604,
			"0.0": 21.9200057337,
			"0.001": 18.8843998977,
			"0.002": 16.5936508463,
			"0.003": 17.6426888031,
			"0.004": 15.6125697245,
			"0.005": 10.9889210344,
			"0.006": 6.16375834668,
			"0.007": 3.31875038801,
			"0.008": 2.15411825056,
			"0.009": 2.88114698032,
			"0.01": 2.35355586327,
			"0.011": 1.43757339931,
			"0.012": 0.941337220041,
			"0.013": 0.016842893583,
			"0.014": 0.0,
			"0.015": 0.0,
			"0.016": 0.0,
			"0.017": 0.0,
			"0.018": 0.0,
			"0.019": 0.0,
			"0.02": 0.0,
			"0.021": 0.0,
			"0.022": 0.0,
			"0.023": 0.0,
			"0.024": 0.0,
			"0.025": 0.0
		}
	}
}
