{
	 "smiles": "CCOC1=NC2=C(C=CC=C2)C(=O)N1", 
	 "Tm": 451.15, 
	 "num_atms": 24, 
	 "gaussian": { 
		 "optdone": 1, 
		 "sigma_profile": "yes", 
		 "theory": "DFT", 
		 "functional": "B3LYP", 
		 "basiset": "6-31G**", 
		 "properties": { 
			 "R2extent": 3352.7926, 
			 "electric_dipole_moment_norm": 3.34093233843, 
			 "electric_quadrupole_moment_norm": 11.7546330827, 
			 "total_energy": -647.081108975, 
			 "HOMO_LUMO_gap": 0.18431, 
			 "cosmo_polarized_energy": -11.16, 
			 "cosmo_cavitation_energy": 28.1, 
			 "cosmo_dispersion_energy": -20.86, 
			 "cosmo_repulsion_energy": 1.65, 
			 "cosmo_total_nonelectrostatic_energy": 8.89, 
			 "SMD_solvation_energy": 5.05 
		},
		"coords": [
			{
				"x": 2.7885193639,
				"y": -1.1604250882,
				"z": 2.8355219276,
				"element": "C" 
			},
			{
				"x": 1.3985391585,
				"y": -1.7753862645,
				"z": 2.8595285815,
				"element": "C" 
			},
			{
				"x": 0.4052182568,
				"y": -0.8663796138,
				"z": 2.3203463997,
				"element": "O" 
			},
			{
				"x": 0.2458871786,
				"y": -0.8423153153,
				"z": 0.990041974,
				"element": "C" 
			},
			{
				"x": 0.9147382978,
				"y": -1.5881926681,
				"z": 0.1761150363,
				"element": "N" 
			},
			{
				"x": 0.6240049343,
				"y": -1.455638914,
				"z": -1.1768219172,
				"element": "C" 
			},
			{
				"x": -0.3487427402,
				"y": -0.5496139778,
				"z": -1.6662322848,
				"element": "C" 
			},
			{
				"x": -0.6049648517,
				"y": -0.4500802656,
				"z": -3.0424624236,
				"element": "C" 
			},
			{
				"x": 0.0957534324,
				"y": -1.2426039164,
				"z": -3.9385171811,
				"element": "C" 
			},
			{
				"x": 1.0626585001,
				"y": -2.144443766,
				"z": -3.4599773305,
				"element": "C" 
			},
			{
				"x": 1.3257978662,
				"y": -2.2522090687,
				"z": -2.1022640636,
				"element": "C" 
			},
			{
				"x": -1.0925112523,
				"y": 0.2901062438,
				"z": -0.7191519366,
				"element": "C" 
			},
			{
				"x": -1.9556916922,
				"y": 1.1118794849,
				"z": -0.9891626345,
				"element": "O" 
			},
			{
				"x": -0.7146094178,
				"y": 0.063563128,
				"z": 0.6141243393,
				"element": "N" 
			},
			{
				"x": 3.4974102823,
				"y": -1.8371970763,
				"z": 3.3241743031,
				"element": "H" 
			},
			{
				"x": 2.802487884,
				"y": -0.2056992477,
				"z": 3.3693780984,
				"element": "H" 
			},
			{
				"x": 3.1199572257,
				"y": -0.9998469415,
				"z": 1.8071766737,
				"element": "H" 
			},
			{
				"x": 1.057044927,
				"y": -1.956573453,
				"z": 3.8812847735,
				"element": "H" 
			},
			{
				"x": 1.3649507863,
				"y": -2.7075240462,
				"z": 2.29182052,
				"element": "H" 
			},
			{
				"x": -1.3587111124,
				"y": 0.257515587,
				"z": -3.372327818,
				"element": "H" 
			},
			{
				"x": -0.0995226342,
				"y": -1.1688629294,
				"z": -5.0038123503,
				"element": "H" 
			},
			{
				"x": 1.6119489495,
				"y": -2.7658501566,
				"z": -4.1618985351,
				"element": "H" 
			},
			{
				"x": 2.0695947024,
				"y": -2.9445971401,
				"z": -1.7218709002,
				"element": "H" 
			},
			{
				"x": -1.1903580451,
				"y": 0.6038754056,
				"z": 1.3264867485,
				"element": "H" 
			}
		],
		 "valence_orbital": [ 
			{
				"type": "occ",
				"energy": -0.29016,
				"method": "rhf"
			},
			{
				"type": "occ",
				"energy": -0.28372,
				"method": "rhf"
			},
			{
				"type": "occ",
				"energy": -0.26297,
				"method": "rhf"
			},
			{
				"type": "occ",
				"energy": -0.2572,
				"method": "rhf"
			},
			{
				"type": "occ",
				"energy": -0.22269,
				"method": "rhf"
			},
			{
				"type": "unocc",
				"energy": -0.03838,
				"method": "rhf"
			},
			{
				"type": "unocc",
				"energy": -0.01923,
				"method": "rhf"
			},
			{
				"type": "unocc",
				"energy": 0.03527,
				"method": "rhf"
			},
			{
				"type": "unocc",
				"energy": 0.08207,
				"method": "rhf"
			},
			{
				"type": "unocc",
				"energy": 0.09167,
				"method": "rhf"
			}
		],
		"cosmo_sigma_profile": { 
			"-0.025": 0.0,
			"-0.024": 0.0,
			"-0.023": 0.0,
			"-0.022": 0.0,
			"-0.021": 0.0,
			"-0.02": 0.0,
			"-0.019": 0.0,
			"-0.018": 0.0,
			"-0.017": 0.0,
			"-0.016": 0.721117792362,
			"-0.015": 0.775368772992,
			"-0.014": 1.37666869661,
			"-0.013": 0.712425933686,
			"-0.012": 0.236263369836,
			"-0.011": 0.713370755634,
			"-0.01": 1.14237877496,
			"-0.009": 0.57237705007,
			"-0.008": 0.820891879877,
			"-0.007": 2.27359595017,
			"-0.006": 9.63992225786,
			"-0.005": 13.2907634776,
			"-0.004": 22.072378819,
			"-0.003": 20.7180052499,
			"-0.002": 20.7509084383,
			"-0.001": 17.9674836879,
			"0.0": 18.3156370632,
			"0.001": 14.9821774183,
			"0.002": 14.2289703697,
			"0.003": 15.8526915636,
			"0.004": 14.4205101949,
			"0.005": 4.80386028619,
			"0.006": 5.24710192436,
			"0.007": 3.92017551788,
			"0.008": 2.6520103008,
			"0.009": 2.03779472807,
			"0.01": 2.52959517708,
			"0.011": 2.07339786605,
			"0.012": 4.09962173222,
			"0.013": 4.9116229325,
			"0.014": 0.286184714365,
			"0.015": 0.0,
			"0.016": 0.0,
			"0.017": 0.0,
			"0.018": 0.0,
			"0.019": 0.0,
			"0.02": 0.0,
			"0.021": 0.0,
			"0.022": 0.0,
			"0.023": 0.0,
			"0.024": 0.0,
			"0.025": 0.0
		}
	}
}
