{
	 "smiles": "CC1=NNC=C1C(=O)NN", 
	 "Tm": 473.15, 
	 "num_atms": 18, 
	 "gaussian": { 
		 "optdone": 1, 
		 "sigma_profile": "yes", 
		 "theory": "DFT", 
		 "functional": "B3LYP", 
		 "basiset": "6-31G**", 
		 "properties": { 
			 "R2extent": 1857.1158, 
			 "electric_dipole_moment_norm": 3.88333102632, 
			 "electric_quadrupole_moment_norm": 8.24962826375, 
			 "total_energy": -489.548742187, 
			 "HOMO_LUMO_gap": 0.23709, 
			 "cosmo_polarized_energy": -19.27, 
			 "cosmo_cavitation_energy": 22.4, 
			 "cosmo_dispersion_energy": -16.67, 
			 "cosmo_repulsion_energy": 1.37, 
			 "cosmo_total_nonelectrostatic_energy": 7.1, 
			 "SMD_solvation_energy": 4.31 
		},
		"coords": [
			{
				"x": -0.5599424088,
				"y": -2.4247539944,
				"z": 1.3425083131,
				"element": "C" 
			},
			{
				"x": -0.0569000534,
				"y": -1.0346205042,
				"z": 1.5721729948,
				"element": "C" 
			},
			{
				"x": 0.909279921,
				"y": -0.8046290652,
				"z": 2.4580528055,
				"element": "N" 
			},
			{
				"x": 1.1136411514,
				"y": 0.5346239911,
				"z": 2.4102376555,
				"element": "N" 
			},
			{
				"x": 0.3123744807,
				"y": 1.1656296935,
				"z": 1.5255458541,
				"element": "C" 
			},
			{
				"x": -0.4782566352,
				"y": 0.1814146832,
				"z": 0.9460959649,
				"element": "C" 
			},
			{
				"x": -1.5305284638,
				"y": 0.2926295082,
				"z": -0.0843024903,
				"element": "C" 
			},
			{
				"x": -2.1538555735,
				"y": -0.6807637764,
				"z": -0.5069534114,
				"element": "O" 
			},
			{
				"x": -1.7906641428,
				"y": 1.5521805615,
				"z": -0.5648941398,
				"element": "N" 
			},
			{
				"x": -2.768636908,
				"y": 1.7850934415,
				"z": -1.5475075315,
				"element": "N" 
			},
			{
				"x": -1.6316269691,
				"y": -2.4921100233,
				"z": 1.5488464137,
				"element": "H" 
			},
			{
				"x": -0.4296626465,
				"y": -2.720420311,
				"z": 0.2978824342,
				"element": "H" 
			},
			{
				"x": -0.0189122362,
				"y": -3.1191446148,
				"z": 1.9890295103,
				"element": "H" 
			},
			{
				"x": 1.8144474256,
				"y": 0.9430886054,
				"z": 3.0088339724,
				"element": "H" 
			},
			{
				"x": 0.3670414882,
				"y": 2.2357785933,
				"z": 1.382828348,
				"element": "H" 
			},
			{
				"x": -1.3018521317,
				"y": 2.3722444742,
				"z": -0.2445728035,
				"element": "H" 
			},
			{
				"x": -2.5380718496,
				"y": 1.1989279977,
				"z": -2.3502173572,
				"element": "H" 
			},
			{
				"x": -3.6492744484,
				"y": 1.4099307396,
				"z": -1.1941865327,
				"element": "H" 
			}
		],
		 "valence_orbital": [ 
			{
				"type": "occ",
				"energy": -0.27484,
				"method": "rhf"
			},
			{
				"type": "occ",
				"energy": -0.26014,
				"method": "rhf"
			},
			{
				"type": "occ",
				"energy": -0.25482,
				"method": "rhf"
			},
			{
				"type": "occ",
				"energy": -0.25247,
				"method": "rhf"
			},
			{
				"type": "occ",
				"energy": -0.25126,
				"method": "rhf"
			},
			{
				"type": "unocc",
				"energy": -0.01417,
				"method": "rhf"
			},
			{
				"type": "unocc",
				"energy": 0.02621,
				"method": "rhf"
			},
			{
				"type": "unocc",
				"energy": 0.0671,
				"method": "rhf"
			},
			{
				"type": "unocc",
				"energy": 0.07253,
				"method": "rhf"
			},
			{
				"type": "unocc",
				"energy": 0.09275,
				"method": "rhf"
			}
		],
		"cosmo_sigma_profile": { 
			"-0.025": 0.0,
			"-0.024": 0.0,
			"-0.023": 0.0,
			"-0.022": 0.0,
			"-0.021": 0.0,
			"-0.02": 0.0,
			"-0.019": 0.0,
			"-0.018": 0.0,
			"-0.017": 1.11584127639,
			"-0.016": 1.94601662021,
			"-0.015": 2.66924772823,
			"-0.014": 2.07854276599,
			"-0.013": 1.95686275344,
			"-0.012": 2.70180835339,
			"-0.011": 4.53000403191,
			"-0.01": 6.06194401151,
			"-0.009": 5.01680777479,
			"-0.008": 5.18431635871,
			"-0.007": 3.67994671602,
			"-0.006": 3.21092756117,
			"-0.005": 4.57253529699,
			"-0.004": 7.17156691041,
			"-0.003": 7.12976562175,
			"-0.002": 8.74510371164,
			"-0.001": 9.12037409357,
			"0.0": 14.3507224951,
			"0.001": 15.0240890295,
			"0.002": 12.4847791848,
			"0.003": 10.6039817299,
			"0.004": 5.42636983355,
			"0.005": 3.97809102043,
			"0.006": 3.82250064791,
			"0.007": 4.38531193582,
			"0.008": 4.11051753171,
			"0.009": 2.85594179646,
			"0.01": 3.87200336713,
			"0.011": 3.13493953251,
			"0.012": 3.12453197354,
			"0.013": 4.22179654217,
			"0.014": 5.36693070009,
			"0.015": 1.79675494284,
			"0.016": 1.154208883,
			"0.017": 0.22813452436,
			"0.018": 0.0,
			"0.019": 0.0,
			"0.02": 0.0,
			"0.021": 0.0,
			"0.022": 0.0,
			"0.023": 0.0,
			"0.024": 0.0,
			"0.025": 0.0
		}
	}
}
