{
	 "smiles": "CC1=NN=C(S)N1C1=CC=C(OCC2=CC=CC=C2)C=C1", 
	 "Tm": 529.15, 
	 "num_atms": 36, 
	 "gaussian": { 
		 "optdone": 1, 
		 "sigma_profile": "yes", 
		 "theory": "DFT", 
		 "functional": "B3LYP", 
		 "basiset": "6-31G**", 
		 "properties": { 
			 "R2extent": 9272.5258, 
			 "electric_dipole_moment_norm": 6.7281357849, 
			 "electric_quadrupole_moment_norm": 28.3332290392, 
			 "total_energy": -1256.37825818, 
			 "HOMO_LUMO_gap": 0.19435, 
			 "cosmo_polarized_energy": -18.42, 
			 "cosmo_cavitation_energy": 42.57, 
			 "cosmo_dispersion_energy": -29.5, 
			 "cosmo_repulsion_energy": 2.26, 
			 "cosmo_total_nonelectrostatic_energy": 15.33, 
			 "SMD_solvation_energy": 5.2 
		},
		"coords": [
			{
				"x": -3.7175643787,
				"y": 1.2616051061,
				"z": 1.9644239954,
				"element": "C" 
			},
			{
				"x": -2.7262187198,
				"y": 1.7945514293,
				"z": 2.941616966,
				"element": "C" 
			},
			{
				"x": -2.9944062586,
				"y": 2.5651989788,
				"z": 3.9662406643,
				"element": "N" 
			},
			{
				"x": -1.8037330062,
				"y": 2.8501579272,
				"z": 4.6166489402,
				"element": "N" 
			},
			{
				"x": -0.8536389799,
				"y": 2.2377294206,
				"z": 3.9558885425,
				"element": "C" 
			},
			{
				"x": 0.8719371682,
				"y": 2.2460718331,
				"z": 4.341238996,
				"element": "S" 
			},
			{
				"x": -1.3628383982,
				"y": 1.5461324857,
				"z": 2.8791734768,
				"element": "N" 
			},
			{
				"x": -0.6504444773,
				"y": 0.7573553136,
				"z": 1.9205813613,
				"element": "C" 
			},
			{
				"x": 0.0129858203,
				"y": 1.3748658429,
				"z": 0.8596561611,
				"element": "C" 
			},
			{
				"x": 0.7040662703,
				"y": 0.6136503351,
				"z": -0.0839269785,
				"element": "C" 
			},
			{
				"x": 0.7278821325,
				"y": -0.7820732165,
				"z": 0.0367587636,
				"element": "C" 
			},
			{
				"x": 1.3756429437,
				"y": -1.6285721282,
				"z": -0.8140684803,
				"element": "O" 
			},
			{
				"x": 2.2076447542,
				"y": -1.090394889,
				"z": -1.8446057484,
				"element": "C" 
			},
			{
				"x": 1.4466473201,
				"y": -0.5631616859,
				"z": -3.045390192,
				"element": "C" 
			},
			{
				"x": 1.966287688,
				"y": 0.5007483955,
				"z": -3.7918470797,
				"element": "C" 
			},
			{
				"x": 1.305325407,
				"y": 0.9552302487,
				"z": -4.9345095526,
				"element": "C" 
			},
			{
				"x": 0.1115396901,
				"y": 0.3540964841,
				"z": -5.3361462172,
				"element": "C" 
			},
			{
				"x": -0.4147558613,
				"y": -0.7045313089,
				"z": -4.5921466433,
				"element": "C" 
			},
			{
				"x": 0.2506058336,
				"y": -1.1640052632,
				"z": -3.4555647647,
				"element": "C" 
			},
			{
				"x": 0.0542573517,
				"y": -1.4026316511,
				"z": 1.1011917042,
				"element": "C" 
			},
			{
				"x": -0.6269701587,
				"y": -0.6384873977,
				"z": 2.0382684219,
				"element": "C" 
			},
			{
				"x": -3.4921593025,
				"y": 1.5860469624,
				"z": 0.9426976334,
				"element": "H" 
			},
			{
				"x": -3.7432597872,
				"y": 0.1666019875,
				"z": 1.9639946852,
				"element": "H" 
			},
			{
				"x": -4.7037224771,
				"y": 1.6353626995,
				"z": 2.2434789425,
				"element": "H" 
			},
			{
				"x": 0.6831139915,
				"y": 3.0144735686,
				"z": 5.4310096356,
				"element": "H" 
			},
			{
				"x": -0.0155303416,
				"y": 2.4560727256,
				"z": 0.7689142477,
				"element": "H" 
			},
			{
				"x": 1.1911235453,
				"y": 1.1109051315,
				"z": -0.9128761871,
				"element": "H" 
			},
			{
				"x": 2.8702143298,
				"y": -0.3175037885,
				"z": -1.4339685115,
				"element": "H" 
			},
			{
				"x": 2.8361939457,
				"y": -1.9375948046,
				"z": -2.1388198951,
				"element": "H" 
			},
			{
				"x": 2.8929973444,
				"y": 0.9773095323,
				"z": -3.4791304614,
				"element": "H" 
			},
			{
				"x": 1.718644759,
				"y": 1.7825025912,
				"z": -5.5042844646,
				"element": "H" 
			},
			{
				"x": -0.4075130037,
				"y": 0.710110099,
				"z": -6.2212368157,
				"element": "H" 
			},
			{
				"x": -1.3449250212,
				"y": -1.1745615096,
				"z": -4.8985899148,
				"element": "H" 
			},
			{
				"x": -0.1580505614,
				"y": -1.9854122717,
				"z": -2.875074557,
				"element": "H" 
			},
			{
				"x": 0.0906190413,
				"y": -2.4840225291,
				"z": 1.1775687391,
				"element": "H" 
			},
			{
				"x": -1.135698603,
				"y": -1.1144266542,
				"z": 2.8706345872,
				"element": "H" 
			}
		],
		 "valence_orbital": [ 
			{
				"type": "occ",
				"energy": -0.26256,
				"method": "rhf"
			},
			{
				"type": "occ",
				"energy": -0.25688,
				"method": "rhf"
			},
			{
				"type": "occ",
				"energy": -0.25503,
				"method": "rhf"
			},
			{
				"type": "occ",
				"energy": -0.23251,
				"method": "rhf"
			},
			{
				"type": "occ",
				"energy": -0.21992,
				"method": "rhf"
			},
			{
				"type": "unocc",
				"energy": -0.02557,
				"method": "rhf"
			},
			{
				"type": "unocc",
				"energy": -0.01745,
				"method": "rhf"
			},
			{
				"type": "unocc",
				"energy": -0.01588,
				"method": "rhf"
			},
			{
				"type": "unocc",
				"energy": -0.01287,
				"method": "rhf"
			},
			{
				"type": "unocc",
				"energy": 0.01892,
				"method": "rhf"
			}
		],
		"cosmo_sigma_profile": { 
			"-0.025": 0.0,
			"-0.024": 0.0,
			"-0.023": 0.0,
			"-0.022": 0.0,
			"-0.021": 0.0,
			"-0.02": 0.0,
			"-0.019": 0.0,
			"-0.018": 0.0,
			"-0.017": 0.0,
			"-0.016": 0.0,
			"-0.015": 0.0,
			"-0.014": 0.0,
			"-0.013": 0.0,
			"-0.012": 1.21212467145,
			"-0.011": 1.28132543704,
			"-0.01": 1.37476887609,
			"-0.009": 1.2208133208,
			"-0.008": 1.82882993992,
			"-0.007": 9.51274287058,
			"-0.006": 23.391024107,
			"-0.005": 30.0296924837,
			"-0.004": 30.2109181752,
			"-0.003": 28.6360944484,
			"-0.002": 25.017331386,
			"-0.001": 21.8050379958,
			"0.0": 19.350587788,
			"0.001": 21.7583639042,
			"0.002": 28.338911755,
			"0.003": 25.9867276028,
			"0.004": 17.9782588759,
			"0.005": 14.2476886722,
			"0.006": 9.98241324902,
			"0.007": 4.15384038575,
			"0.008": 2.8445272227,
			"0.009": 2.89272540735,
			"0.01": 2.56819310868,
			"0.011": 2.03364558511,
			"0.012": 1.96678242578,
			"0.013": 3.5835111552,
			"0.014": 3.53929364074,
			"0.015": 2.84306188165,
			"0.016": 2.08382888104,
			"0.017": 1.21855410257,
			"0.018": 0.00203515318881,
			"0.019": 0.0,
			"0.02": 0.0,
			"0.021": 0.0,
			"0.022": 0.0,
			"0.023": 0.0,
			"0.024": 0.0,
			"0.025": 0.0
		}
	}
}
