{
	 "smiles": "NC1=CC=C(C=C1)S(=O)(=O)N1CCC(CC2=CC=CC=C2)CC1", 
	 "Tm": 427.15, 
	 "num_atms": 45, 
	 "gaussian": { 
		 "optdone": 1, 
		 "sigma_profile": "yes", 
		 "theory": "DFT", 
		 "functional": "B3LYP", 
		 "basiset": "6-31G**", 
		 "properties": { 
			 "R2extent": 11301.6684, 
			 "electric_dipole_moment_norm": 7.42750334904, 
			 "electric_quadrupole_moment_norm": 42.8576464865, 
			 "total_energy": -1357.25566257, 
			 "HOMO_LUMO_gap": 0.20095, 
			 "cosmo_polarized_energy": -21.55, 
			 "cosmo_cavitation_energy": 46.97, 
			 "cosmo_dispersion_energy": -33.19, 
			 "cosmo_repulsion_energy": 2.49, 
			 "cosmo_total_nonelectrostatic_energy": 16.27, 
			 "SMD_solvation_energy": 5.33 
		},
		"coords": [
			{
				"x": -0.6234691263,
				"y": 5.2256213269,
				"z": 3.8554810189,
				"element": "N" 
			},
			{
				"x": -1.2106370776,
				"y": 4.3161866722,
				"z": 2.9912393093,
				"element": "C" 
			},
			{
				"x": -1.4099470085,
				"y": 4.6416077089,
				"z": 1.6344085649,
				"element": "C" 
			},
			{
				"x": -2.0453539273,
				"y": 3.7516460853,
				"z": 0.7788913861,
				"element": "C" 
			},
			{
				"x": -2.4936626421,
				"y": 2.5161122568,
				"z": 1.2604849275,
				"element": "C" 
			},
			{
				"x": -2.3124640908,
				"y": 2.1834225873,
				"z": 2.6077033388,
				"element": "C" 
			},
			{
				"x": -1.6766370707,
				"y": 3.0737384687,
				"z": 3.4639931573,
				"element": "C" 
			},
			{
				"x": -3.2665186235,
				"y": 1.3504516546,
				"z": 0.1468303027,
				"element": "S" 
			},
			{
				"x": -4.0459033168,
				"y": 0.4169139271,
				"z": 0.9653771138,
				"element": "O" 
			},
			{
				"x": -3.8689613918,
				"y": 2.1194789384,
				"z": -0.9465490288,
				"element": "O" 
			},
			{
				"x": -2.0395769296,
				"y": 0.4296481052,
				"z": -0.5471848218,
				"element": "N" 
			},
			{
				"x": -1.1871156786,
				"y": 1.0517786527,
				"z": -1.5689952147,
				"element": "C" 
			},
			{
				"x": -0.7275754119,
				"y": -0.0284117785,
				"z": -2.5719565924,
				"element": "C" 
			},
			{
				"x": -0.5982777716,
				"y": -1.4209194376,
				"z": -1.9094510064,
				"element": "C" 
			},
			{
				"x": 0.3406303074,
				"y": -2.3805402632,
				"z": -2.6883236376,
				"element": "C" 
			},
			{
				"x": 1.8022765967,
				"y": -1.9851092199,
				"z": -2.7596578633,
				"element": "C" 
			},
			{
				"x": 2.6988776165,
				"y": -2.3428384485,
				"z": -1.7409452015,
				"element": "C" 
			},
			{
				"x": 4.042772391,
				"y": -1.9717919321,
				"z": -1.7990286854,
				"element": "C" 
			},
			{
				"x": 4.521459327,
				"y": -1.236460164,
				"z": -2.8851799791,
				"element": "C" 
			},
			{
				"x": 3.6463973936,
				"y": -0.8829551244,
				"z": -3.9131365584,
				"element": "C" 
			},
			{
				"x": 2.3027818793,
				"y": -1.2571092537,
				"z": -3.8495910919,
				"element": "C" 
			},
			{
				"x": -0.2254552327,
				"y": -1.2462739777,
				"z": -0.4296967819,
				"element": "C" 
			},
			{
				"x": -1.3511827646,
				"y": -0.5278152392,
				"z": 0.3424489267,
				"element": "C" 
			},
			{
				"x": -0.2409925502,
				"y": 4.8561706597,
				"z": 4.7132816517,
				"element": "H" 
			},
			{
				"x": -0.0534270252,
				"y": 5.9466531508,
				"z": 3.4386319932,
				"element": "H" 
			},
			{
				"x": -1.0760092817,
				"y": 5.6062480552,
				"z": 1.26106574,
				"element": "H" 
			},
			{
				"x": -2.2202740671,
				"y": 4.0194446388,
				"z": -0.2575081279,
				"element": "H" 
			},
			{
				"x": -2.6950937859,
				"y": 1.2396511541,
				"z": 2.9806350603,
				"element": "H" 
			},
			{
				"x": -1.5495749511,
				"y": 2.8183277422,
				"z": 4.5128270441,
				"element": "H" 
			},
			{
				"x": -0.3174264993,
				"y": 1.5412235506,
				"z": -1.1023058081,
				"element": "H" 
			},
			{
				"x": -1.7705321766,
				"y": 1.8206068424,
				"z": -2.075911298,
				"element": "H" 
			},
			{
				"x": -1.4377340614,
				"y": -0.088895919,
				"z": -3.4036363787,
				"element": "H" 
			},
			{
				"x": 0.2359726496,
				"y": 0.2841948813,
				"z": -2.9892859912,
				"element": "H" 
			},
			{
				"x": -1.5904352109,
				"y": -1.8900355798,
				"z": -1.9342979785,
				"element": "H" 
			},
			{
				"x": -0.0524260322,
				"y": -2.4807100167,
				"z": -3.7076496172,
				"element": "H" 
			},
			{
				"x": 0.2607908977,
				"y": -3.3738582688,
				"z": -2.2291822656,
				"element": "H" 
			},
			{
				"x": 2.3412869528,
				"y": -2.9287866728,
				"z": -0.8979421611,
				"element": "H" 
			},
			{
				"x": 4.7178902954,
				"y": -2.2641614193,
				"z": -0.9993800094,
				"element": "H" 
			},
			{
				"x": 5.5682697032,
				"y": -0.9507110067,
				"z": -2.9342998103,
				"element": "H" 
			},
			{
				"x": 4.0099122083,
				"y": -0.3221870148,
				"z": -4.7698595724,
				"element": "H" 
			},
			{
				"x": 1.6335021252,
				"y": -0.9916792321,
				"z": -4.6643620204,
				"element": "H" 
			},
			{
				"x": 0.7113245306,
				"y": -0.6830067271,
				"z": -0.3500616902,
				"element": "H" 
			},
			{
				"x": -0.0452700283,
				"y": -2.2160654974,
				"z": 0.048196075,
				"element": "H" 
			},
			{
				"x": -2.0989186954,
				"y": -1.243301218,
				"z": 0.691193414,
				"element": "H" 
			},
			{
				"x": -0.9296924444,
				"y": -0.0232036479,
				"z": 1.2263901679,
				"element": "H" 
			}
		],
		 "valence_orbital": [ 
			{
				"type": "occ",
				"energy": -0.26379,
				"method": "rhf"
			},
			{
				"type": "occ",
				"energy": -0.25068,
				"method": "rhf"
			},
			{
				"type": "occ",
				"energy": -0.24447,
				"method": "rhf"
			},
			{
				"type": "occ",
				"energy": -0.24211,
				"method": "rhf"
			},
			{
				"type": "occ",
				"energy": -0.2164,
				"method": "rhf"
			},
			{
				"type": "unocc",
				"energy": -0.01545,
				"method": "rhf"
			},
			{
				"type": "unocc",
				"energy": -0.01394,
				"method": "rhf"
			},
			{
				"type": "unocc",
				"energy": -0.00374,
				"method": "rhf"
			},
			{
				"type": "unocc",
				"energy": -0.00283,
				"method": "rhf"
			},
			{
				"type": "unocc",
				"energy": 0.06202,
				"method": "rhf"
			}
		],
		"cosmo_sigma_profile": { 
			"-0.025": 0.0,
			"-0.024": 0.0,
			"-0.023": 0.0,
			"-0.022": 0.0,
			"-0.021": 0.0,
			"-0.02": 0.0,
			"-0.019": 0.0,
			"-0.018": 0.0,
			"-0.017": 0.0,
			"-0.016": 0.0,
			"-0.015": 0.0,
			"-0.014": 0.110685349055,
			"-0.013": 2.52484590019,
			"-0.012": 2.96509325499,
			"-0.011": 2.70969397194,
			"-0.01": 3.63884849817,
			"-0.009": 2.8485045908,
			"-0.008": 3.4702341364,
			"-0.007": 4.73786247441,
			"-0.006": 8.60570238922,
			"-0.005": 17.1034914918,
			"-0.004": 31.8517512097,
			"-0.003": 48.6037725148,
			"-0.002": 42.715154558,
			"-0.001": 30.5265928296,
			"0.0": 22.2145105319,
			"0.001": 18.165783192,
			"0.002": 15.8986861222,
			"0.003": 18.9785953704,
			"0.004": 24.2396742275,
			"0.005": 14.522980177,
			"0.006": 12.3685145597,
			"0.007": 8.85979071757,
			"0.008": 5.1161154536,
			"0.009": 3.79154014517,
			"0.01": 5.26278170785,
			"0.011": 8.75768992768,
			"0.012": 7.84940650888,
			"0.013": 1.36836442431,
			"0.014": 0.0,
			"0.015": 0.0,
			"0.016": 0.0,
			"0.017": 0.0,
			"0.018": 0.0,
			"0.019": 0.0,
			"0.02": 0.0,
			"0.021": 0.0,
			"0.022": 0.0,
			"0.023": 0.0,
			"0.024": 0.0,
			"0.025": 0.0
		}
	}
}
