{
	 "smiles": "COC1=CC(I)=C(C=C1)C(O)=O", 
	 "Tm": 456.15, 
	 "num_atms": 19, 
	 "gaussian": { 
		 "optdone": 1, 
		 "sigma_profile": "yes", 
		 "theory": "DFT", 
		 "functional": "B3LYP", 
		 "basiset": "6-31G**", 
		 "properties": { 
			 "R2extent": 3035.3679, 
			 "electric_dipole_moment_norm": 3.00510292336, 
			 "electric_quadrupole_moment_norm": 14.5362617099, 
			 "total_energy": -546.12347009, 
			 "HOMO_LUMO_gap": 0.19324, 
			 "cosmo_polarized_energy": -11.23, 
			 "cosmo_cavitation_energy": 26.56, 
			 "cosmo_dispersion_energy": -21.11, 
			 "cosmo_repulsion_energy": 1.64, 
			 "cosmo_total_nonelectrostatic_energy": 7.09, 
			 "SMD_solvation_energy": 5.85 
		},
		"coords": [
			{
				"x": -2.8550336557,
				"y": 0.1829133462,
				"z": 3.1290480142,
				"element": "C" 
			},
			{
				"x": -1.7184623599,
				"y": -0.6712294452,
				"z": 3.1909338873,
				"element": "O" 
			},
			{
				"x": -0.7935344374,
				"y": -0.5885472131,
				"z": 2.2036044926,
				"element": "C" 
			},
			{
				"x": 0.3029786728,
				"y": -1.4551639578,
				"z": 2.3335521577,
				"element": "C" 
			},
			{
				"x": 1.3186907613,
				"y": -1.4716799797,
				"z": 1.3835211924,
				"element": "C" 
			},
			{
				"x": 2.8874741845,
				"y": -2.840816963,
				"z": 1.831926837,
				"element": "I" 
			},
			{
				"x": 1.2662611084,
				"y": -0.6087774895,
				"z": 0.2632449722,
				"element": "C" 
			},
			{
				"x": 0.1599145299,
				"y": 0.2538272027,
				"z": 0.1704161537,
				"element": "C" 
			},
			{
				"x": -0.8631194672,
				"y": 0.279639161,
				"z": 1.1075349683,
				"element": "C" 
			},
			{
				"x": 2.2343079203,
				"y": -0.4741973747,
				"z": -0.8633624868,
				"element": "C" 
			},
			{
				"x": 3.2059141833,
				"y": -1.408034938,
				"z": -0.9029865863,
				"element": "O" 
			},
			{
				"x": 2.1583544199,
				"y": 0.3990722529,
				"z": -1.7092138676,
				"element": "O" 
			},
			{
				"x": -3.4494607806,
				"y": -0.0049840963,
				"z": 2.2267689443,
				"element": "H" 
			},
			{
				"x": -2.5645927851,
				"y": 1.240022263,
				"z": 3.1591024341,
				"element": "H" 
			},
			{
				"x": -3.4527706782,
				"y": -0.0521837355,
				"z": 4.0102338087,
				"element": "H" 
			},
			{
				"x": 0.3331515443,
				"y": -2.1064297197,
				"z": 3.198150362,
				"element": "H" 
			},
			{
				"x": 0.1310370839,
				"y": 0.9186460292,
				"z": -0.6856594067,
				"element": "H" 
			},
			{
				"x": -1.6920059277,
				"y": 0.9643564495,
				"z": 0.978251598,
				"element": "H" 
			},
			{
				"x": 3.7467956831,
				"y": -1.1874317921,
				"z": -1.6798674751,
				"element": "H" 
			}
		],
		 "valence_orbital": [ 
			{
				"type": "occ",
				"energy": -0.29451,
				"method": "rhf"
			},
			{
				"type": "occ",
				"energy": -0.27937,
				"method": "rhf"
			},
			{
				"type": "occ",
				"energy": -0.25584,
				"method": "rhf"
			},
			{
				"type": "occ",
				"energy": -0.24512,
				"method": "rhf"
			},
			{
				"type": "occ",
				"energy": -0.24032,
				"method": "rhf"
			},
			{
				"type": "unocc",
				"energy": -0.04708,
				"method": "rhf"
			},
			{
				"type": "unocc",
				"energy": -0.0405,
				"method": "rhf"
			},
			{
				"type": "unocc",
				"energy": -0.02252,
				"method": "rhf"
			},
			{
				"type": "unocc",
				"energy": 0.04285,
				"method": "rhf"
			},
			{
				"type": "unocc",
				"energy": 0.05267,
				"method": "rhf"
			}
		],
		"cosmo_sigma_profile": { 
			"-0.025": 0.0,
			"-0.024": 0.0,
			"-0.023": 0.0,
			"-0.022": 0.0,
			"-0.021": 0.0,
			"-0.02": 0.0,
			"-0.019": 0.0,
			"-0.018": 0.832003657309,
			"-0.017": 0.725693343489,
			"-0.016": 0.864371025806,
			"-0.015": 0.628256264242,
			"-0.014": 1.12492880493,
			"-0.013": 0.586622548515,
			"-0.012": 0.105519547904,
			"-0.011": 0.446123802847,
			"-0.01": 1.3927850186,
			"-0.009": 0.618446154245,
			"-0.008": 1.33597440009,
			"-0.007": 6.75677465101,
			"-0.006": 14.5846599371,
			"-0.005": 14.9850030313,
			"-0.004": 13.551375336,
			"-0.003": 13.2633484941,
			"-0.002": 11.593158522,
			"-0.001": 11.3911581333,
			"0.0": 14.3660226396,
			"0.001": 18.5478818654,
			"0.002": 25.2021846236,
			"0.003": 15.4468067575,
			"0.004": 13.6665289009,
			"0.005": 8.24047051033,
			"0.006": 3.50589160821,
			"0.007": 4.84526575516,
			"0.008": 5.78673575683,
			"0.009": 3.19999798479,
			"0.01": 2.18027322372,
			"0.011": 2.95267982561,
			"0.012": 4.24464525574,
			"0.013": 0.168782650802,
			"0.014": 0.0,
			"0.015": 0.0,
			"0.016": 0.0,
			"0.017": 0.0,
			"0.018": 0.0,
			"0.019": 0.0,
			"0.02": 0.0,
			"0.021": 0.0,
			"0.022": 0.0,
			"0.023": 0.0,
			"0.024": 0.0,
			"0.025": 0.0
		}
	}
}
