{
	 "smiles": "CCOC1=C(OC)C=C(C=C1Br)C(O)=O", 
	 "Tm": 414.15, 
	 "num_atms": 26, 
	 "gaussian": { 
		 "optdone": 1, 
		 "sigma_profile": "yes", 
		 "theory": "DFT", 
		 "functional": "B3LYP", 
		 "basiset": "6-31G**", 
		 "properties": { 
			 "R2extent": 4783.5877, 
			 "electric_dipole_moment_norm": 2.17182760366, 
			 "electric_quadrupole_moment_norm": 12.0970238257, 
			 "total_energy": -3259.98853531, 
			 "HOMO_LUMO_gap": 0.18167, 
			 "cosmo_polarized_energy": -12.01, 
			 "cosmo_cavitation_energy": 32.86, 
			 "cosmo_dispersion_energy": -23.52, 
			 "cosmo_repulsion_energy": 1.88, 
			 "cosmo_total_nonelectrostatic_energy": 11.21, 
			 "SMD_solvation_energy": 6.97 
		},
		"coords": [
			{
				"x": -4.2433817803,
				"y": 0.574370655,
				"z": -1.028000443,
				"element": "C" 
			},
			{
				"x": -2.9582061199,
				"y": 0.8163317641,
				"z": -0.2601190217,
				"element": "C" 
			},
			{
				"x": -2.0056745761,
				"y": -0.1802331424,
				"z": -0.6933074443,
				"element": "O" 
			},
			{
				"x": -0.7775825004,
				"y": -0.1397750782,
				"z": -0.113524304,
				"element": "C" 
			},
			{
				"x": -0.5902213897,
				"y": -0.5878744975,
				"z": 1.2199904026,
				"element": "C" 
			},
			{
				"x": -1.722060476,
				"y": -0.9885991546,
				"z": 1.8612152072,
				"element": "O" 
			},
			{
				"x": -1.596238689,
				"y": -1.4876557444,
				"z": 3.1872347938,
				"element": "C" 
			},
			{
				"x": 0.6845647083,
				"y": -0.6033347149,
				"z": 1.7776035833,
				"element": "C" 
			},
			{
				"x": 1.7878383997,
				"y": -0.1814723803,
				"z": 1.0206112173,
				"element": "C" 
			},
			{
				"x": 1.624084515,
				"y": 0.2579504941,
				"z": -0.2939362792,
				"element": "C" 
			},
			{
				"x": 0.3420878807,
				"y": 0.2786939737,
				"z": -0.8403372209,
				"element": "C" 
			},
			{
				"x": 0.1050258195,
				"y": 0.8893721881,
				"z": -2.6306449207,
				"element": "Br" 
			},
			{
				"x": 3.1208622937,
				"y": -0.2268131149,
				"z": 1.674699765,
				"element": "C" 
			},
			{
				"x": 4.1256611668,
				"y": 0.1944417328,
				"z": 0.8680173831,
				"element": "O" 
			},
			{
				"x": 3.3205440287,
				"y": -0.598489298,
				"z": 2.8153776967,
				"element": "O" 
			},
			{
				"x": -4.9958098066,
				"y": 1.3161721287,
				"z": -0.7421549471,
				"element": "H" 
			},
			{
				"x": -4.637871686,
				"y": -0.422395932,
				"z": -0.8116286579,
				"element": "H" 
			},
			{
				"x": -4.0687720162,
				"y": 0.6515119513,
				"z": -2.1046221165,
				"element": "H" 
			},
			{
				"x": -2.5498510401,
				"y": 1.8124424775,
				"z": -0.4746653536,
				"element": "H" 
			},
			{
				"x": -3.1158370041,
				"y": 0.7255322981,
				"z": 0.8195279086,
				"element": "H" 
			},
			{
				"x": -1.2014903789,
				"y": -0.7249399831,
				"z": 3.869722259,
				"element": "H" 
			},
			{
				"x": -2.6042589534,
				"y": -1.7647675504,
				"z": 3.4979225239,
				"element": "H" 
			},
			{
				"x": -0.9487090915,
				"y": -2.3720276526,
				"z": 3.2221169939,
				"element": "H" 
			},
			{
				"x": 0.8634104955,
				"y": -0.9411188989,
				"z": 2.7901147613,
				"element": "H" 
			},
			{
				"x": 2.4742930532,
				"y": 0.5841150338,
				"z": -0.8777651858,
				"element": "H" 
			},
			{
				"x": 4.9371931472,
				"y": 0.120862445,
				"z": 1.3962513989,
				"element": "H" 
			}
		],
		 "valence_orbital": [ 
			{
				"type": "occ",
				"energy": -0.29082,
				"method": "rhf"
			},
			{
				"type": "occ",
				"energy": -0.27933,
				"method": "rhf"
			},
			{
				"type": "occ",
				"energy": -0.27675,
				"method": "rhf"
			},
			{
				"type": "occ",
				"energy": -0.2419,
				"method": "rhf"
			},
			{
				"type": "occ",
				"energy": -0.23294,
				"method": "rhf"
			},
			{
				"type": "unocc",
				"energy": -0.05127,
				"method": "rhf"
			},
			{
				"type": "unocc",
				"energy": -0.00858,
				"method": "rhf"
			},
			{
				"type": "unocc",
				"energy": 0.00698,
				"method": "rhf"
			},
			{
				"type": "unocc",
				"energy": 0.05486,
				"method": "rhf"
			},
			{
				"type": "unocc",
				"energy": 0.07628,
				"method": "rhf"
			}
		],
		"cosmo_sigma_profile": { 
			"-0.025": 0.0,
			"-0.024": 0.0,
			"-0.023": 0.0,
			"-0.022": 0.0,
			"-0.021": 0.0,
			"-0.02": 0.0,
			"-0.019": 0.17077934692,
			"-0.018": 0.683917509956,
			"-0.017": 1.06545851974,
			"-0.016": 0.945363301748,
			"-0.015": 0.620153800587,
			"-0.014": 0.476584161551,
			"-0.013": 0.660652822149,
			"-0.012": 0.833707984128,
			"-0.011": 1.01692225595,
			"-0.01": 0.345727597575,
			"-0.009": 0.432475313083,
			"-0.008": 0.755138514435,
			"-0.007": 4.01341100626,
			"-0.006": 10.5885730158,
			"-0.005": 13.044418824,
			"-0.004": 20.9623360093,
			"-0.003": 25.4039771059,
			"-0.002": 21.6756103186,
			"-0.001": 20.2230041187,
			"0.0": 24.8983613698,
			"0.001": 27.3765931138,
			"0.002": 19.0316570212,
			"0.003": 13.7855303022,
			"0.004": 14.1970970356,
			"0.005": 8.77606209747,
			"0.006": 5.65661609695,
			"0.007": 5.0210097306,
			"0.008": 4.39701524868,
			"0.009": 4.32452617065,
			"0.01": 4.37600815993,
			"0.011": 5.22398715527,
			"0.012": 3.02835367449,
			"0.013": 0.0399034538578,
			"0.014": 0.0,
			"0.015": 0.0,
			"0.016": 0.0,
			"0.017": 0.0,
			"0.018": 0.0,
			"0.019": 0.0,
			"0.02": 0.0,
			"0.021": 0.0,
			"0.022": 0.0,
			"0.023": 0.0,
			"0.024": 0.0,
			"0.025": 0.0
		}
	}
}
