{
	 "smiles": "OC(=O)C1=CNC2=C(C(Br)=CC=C2Br)C1=O", 
	 "Tm": 545.15, 
	 "num_atms": 21, 
	 "gaussian": { 
		 "optdone": 1, 
		 "sigma_profile": "yes", 
		 "theory": "DFT", 
		 "functional": "B3LYP", 
		 "basiset": "6-31G**", 
		 "properties": { 
			 "R2extent": 6739.1601, 
			 "electric_dipole_moment_norm": 7.97114734276, 
			 "electric_quadrupole_moment_norm": 24.915430444, 
			 "total_energy": -5807.33476109, 
			 "HOMO_LUMO_gap": 0.16232, 
			 "cosmo_polarized_energy": -20.17, 
			 "cosmo_cavitation_energy": 30.03, 
			 "cosmo_dispersion_energy": -23.61, 
			 "cosmo_repulsion_energy": 1.79, 
			 "cosmo_total_nonelectrostatic_energy": 8.21, 
			 "SMD_solvation_energy": 4.45 
		},
		"coords": [
			{
				"x": 4.2780173077,
				"y": 2.0795205776,
				"z": -0.8866905358,
				"element": "O" 
			},
			{
				"x": 3.5877484043,
				"y": 1.551201861,
				"z": -1.8963926427,
				"element": "C" 
			},
			{
				"x": 4.040826989,
				"y": 1.4416620877,
				"z": -3.0194801721,
				"element": "O" 
			},
			{
				"x": 2.1941561613,
				"y": 1.0876749951,
				"z": -1.5663529628,
				"element": "C" 
			},
			{
				"x": 1.4718377546,
				"y": 0.5429058936,
				"z": -2.5865174921,
				"element": "C" 
			},
			{
				"x": 0.211299924,
				"y": 0.0926916633,
				"z": -2.4088271287,
				"element": "N" 
			},
			{
				"x": -0.438976297,
				"y": 0.1481311937,
				"z": -1.191070305,
				"element": "C" 
			},
			{
				"x": 0.2296668816,
				"y": 0.6999115602,
				"z": -0.060495113,
				"element": "C" 
			},
			{
				"x": -0.4856111608,
				"y": 0.7310399951,
				"z": 1.1629707225,
				"element": "C" 
			},
			{
				"x": 0.2213759413,
				"y": 1.4237052254,
				"z": 2.786354336,
				"element": "Br" 
			},
			{
				"x": -1.7835855088,
				"y": 0.2425236882,
				"z": 1.2491512297,
				"element": "C" 
			},
			{
				"x": -2.4212859965,
				"y": -0.2944312383,
				"z": 0.1285323475,
				"element": "C" 
			},
			{
				"x": -1.7559392911,
				"y": -0.3414735436,
				"z": -1.0803558829,
				"element": "C" 
			},
			{
				"x": -2.6358807185,
				"y": -1.0777694884,
				"z": -2.6092406721,
				"element": "Br" 
			},
			{
				"x": 1.6212386296,
				"y": 1.2032032013,
				"z": -0.2334523612,
				"element": "C" 
			},
			{
				"x": 2.2705157873,
				"y": 1.6982284318,
				"z": 0.7062640715,
				"element": "O" 
			},
			{
				"x": 3.7012606294,
				"y": 2.060002968,
				"z": -0.0753764122,
				"element": "H" 
			},
			{
				"x": 1.902474342,
				"y": 0.4586481468,
				"z": -3.5783757964,
				"element": "H" 
			},
			{
				"x": -0.2997958049,
				"y": -0.3069383142,
				"z": -3.1861940362,
				"element": "H" 
			},
			{
				"x": -2.304111487,
				"y": 0.2801488028,
				"z": 2.1981854967,
				"element": "H" 
			},
			{
				"x": -3.4339324876,
				"y": -0.6726877071,
				"z": 0.2067633094,
				"element": "H" 
			}
		],
		 "valence_orbital": [ 
			{
				"type": "occ",
				"energy": -0.29297,
				"method": "rhf"
			},
			{
				"type": "occ",
				"energy": -0.27325,
				"method": "rhf"
			},
			{
				"type": "occ",
				"energy": -0.26509,
				"method": "rhf"
			},
			{
				"type": "occ",
				"energy": -0.25939,
				"method": "rhf"
			},
			{
				"type": "occ",
				"energy": -0.24613,
				"method": "rhf"
			},
			{
				"type": "unocc",
				"energy": -0.08381,
				"method": "rhf"
			},
			{
				"type": "unocc",
				"energy": -0.06677,
				"method": "rhf"
			},
			{
				"type": "unocc",
				"energy": -0.03469,
				"method": "rhf"
			},
			{
				"type": "unocc",
				"energy": -0.02559,
				"method": "rhf"
			},
			{
				"type": "unocc",
				"energy": -0.00763,
				"method": "rhf"
			}
		],
		"cosmo_sigma_profile": { 
			"-0.025": 0.0,
			"-0.024": 0.0,
			"-0.023": 0.0,
			"-0.022": 0.0,
			"-0.021": 0.0,
			"-0.02": 0.0,
			"-0.019": 0.0,
			"-0.018": 0.29361880907,
			"-0.017": 0.790270676008,
			"-0.016": 1.2507745553,
			"-0.015": 0.565183664981,
			"-0.014": 0.822022058537,
			"-0.013": 1.41678118627,
			"-0.012": 1.1560964911,
			"-0.011": 2.11674743946,
			"-0.01": 1.98660801575,
			"-0.009": 3.76349914791,
			"-0.008": 5.75321814081,
			"-0.007": 6.31941359605,
			"-0.006": 7.20222683774,
			"-0.005": 11.1017328533,
			"-0.004": 17.0301241065,
			"-0.003": 19.3854599709,
			"-0.002": 21.9886225995,
			"-0.001": 23.2949713306,
			"0.0": 22.8680441627,
			"0.001": 17.582690242,
			"0.002": 12.6494833554,
			"0.003": 14.5277900233,
			"0.004": 10.1957114265,
			"0.005": 4.93004819825,
			"0.006": 4.15097348299,
			"0.007": 3.99572494791,
			"0.008": 3.64063624023,
			"0.009": 4.86275935247,
			"0.01": 5.64403265548,
			"0.011": 7.40771864259,
			"0.012": 6.14874955581,
			"0.013": 3.16425400122,
			"0.014": 1.35934853336,
			"0.015": 0.0,
			"0.016": 0.0,
			"0.017": 0.0,
			"0.018": 0.0,
			"0.019": 0.0,
			"0.02": 0.0,
			"0.021": 0.0,
			"0.022": 0.0,
			"0.023": 0.0,
			"0.024": 0.0,
			"0.025": 0.0
		}
	}
}
