{
	 "smiles": "CCC(OC1=C(F)C=CC=C1)C(O)=O", 
	 "Tm": 337.15, 
	 "num_atms": 25, 
	 "gaussian": { 
		 "optdone": 1, 
		 "sigma_profile": "yes", 
		 "theory": "DFT", 
		 "functional": "B3LYP", 
		 "basiset": "6-31G**", 
		 "properties": { 
			 "R2extent": 3506.4648, 
			 "electric_dipole_moment_norm": 2.92525535637, 
			 "electric_quadrupole_moment_norm": 8.05712438901, 
			 "total_energy": -713.202166213, 
			 "HOMO_LUMO_gap": 0.21326, 
			 "cosmo_polarized_energy": -12.94, 
			 "cosmo_cavitation_energy": 29.54, 
			 "cosmo_dispersion_energy": -20.55, 
			 "cosmo_repulsion_energy": 1.63, 
			 "cosmo_total_nonelectrostatic_energy": 10.62, 
			 "SMD_solvation_energy": 6.69 
		},
		"coords": [
			{
				"x": -1.3879377203,
				"y": 0.4573329357,
				"z": 3.4973723883,
				"element": "C" 
			},
			{
				"x": -2.3579847829,
				"y": 0.9248417659,
				"z": 2.4080528264,
				"element": "C" 
			},
			{
				"x": -1.8264277764,
				"y": 0.746172537,
				"z": 0.9742080997,
				"element": "C" 
			},
			{
				"x": -1.5511850348,
				"y": -0.6299409173,
				"z": 0.7974290277,
				"element": "O" 
			},
			{
				"x": -1.325960651,
				"y": -1.1111572586,
				"z": -0.4610365068,
				"element": "C" 
			},
			{
				"x": -1.0832255889,
				"y": -2.4921049718,
				"z": -0.5449465711,
				"element": "C" 
			},
			{
				"x": -1.0768626524,
				"y": -3.209464041,
				"z": 0.5952865721,
				"element": "F" 
			},
			{
				"x": -0.8579299766,
				"y": -3.1214728661,
				"z": -1.7566422881,
				"element": "C" 
			},
			{
				"x": -0.871617424,
				"y": -2.3684727586,
				"z": -2.9357417795,
				"element": "C" 
			},
			{
				"x": -1.1099490711,
				"y": -0.9986023071,
				"z": -2.8730761965,
				"element": "C" 
			},
			{
				"x": -1.3364441908,
				"y": -0.3678615318,
				"z": -1.6440620495,
				"element": "C" 
			},
			{
				"x": -0.567411979,
				"y": 1.5894932117,
				"z": 0.7530019763,
				"element": "C" 
			},
			{
				"x": -0.9029794264,
				"y": 2.8849486638,
				"z": 0.5303576658,
				"element": "O" 
			},
			{
				"x": 0.5719728524,
				"y": 1.1951057829,
				"z": 0.7974366781,
				"element": "O" 
			},
			{
				"x": -1.1332725582,
				"y": -0.5963421827,
				"z": 3.3616509185,
				"element": "H" 
			},
			{
				"x": -1.8432344115,
				"y": 0.5774835296,
				"z": 4.4849565811,
				"element": "H" 
			},
			{
				"x": -0.4556067239,
				"y": 1.0304422022,
				"z": 3.4848861077,
				"element": "H" 
			},
			{
				"x": -2.6111796565,
				"y": 1.9828624248,
				"z": 2.5378583609,
				"element": "H" 
			},
			{
				"x": -3.2939881125,
				"y": 0.3593321101,
				"z": 2.4711466639,
				"element": "H" 
			},
			{
				"x": -2.5954423627,
				"y": 1.0844241761,
				"z": 0.2674631143,
				"element": "H" 
			},
			{
				"x": -0.6755764876,
				"y": -4.1909085172,
				"z": -1.7603112799,
				"element": "H" 
			},
			{
				"x": -0.6943583609,
				"y": -2.8549578969,
				"z": -3.8893547475,
				"element": "H" 
			},
			{
				"x": -1.1192550083,
				"y": -0.4034684875,
				"z": -3.780964141,
				"element": "H" 
			},
			{
				"x": -1.5122178085,
				"y": 0.7014634764,
				"z": -1.6210724751,
				"element": "H" 
			},
			{
				"x": -0.0667250872,
				"y": 3.3745509206,
				"z": 0.4493010544,
				"element": "H" 
			}
		],
		 "valence_orbital": [ 
			{
				"type": "occ",
				"energy": -0.32959,
				"method": "rhf"
			},
			{
				"type": "occ",
				"energy": -0.32804,
				"method": "rhf"
			},
			{
				"type": "occ",
				"energy": -0.28295,
				"method": "rhf"
			},
			{
				"type": "occ",
				"energy": -0.24911,
				"method": "rhf"
			},
			{
				"type": "occ",
				"energy": -0.22175,
				"method": "rhf"
			},
			{
				"type": "unocc",
				"energy": -0.00849,
				"method": "rhf"
			},
			{
				"type": "unocc",
				"energy": 0.00306,
				"method": "rhf"
			},
			{
				"type": "unocc",
				"energy": 0.00919,
				"method": "rhf"
			},
			{
				"type": "unocc",
				"energy": 0.0631,
				"method": "rhf"
			},
			{
				"type": "unocc",
				"energy": 0.07971,
				"method": "rhf"
			}
		],
		"cosmo_sigma_profile": { 
			"-0.025": 0.0,
			"-0.024": 0.0,
			"-0.023": 0.0,
			"-0.022": 0.0,
			"-0.021": 0.0,
			"-0.02": 0.0,
			"-0.019": 0.0784970605673,
			"-0.018": 1.16168642811,
			"-0.017": 0.850659998046,
			"-0.016": 0.84089550797,
			"-0.015": 0.637300695331,
			"-0.014": 0.995642387193,
			"-0.013": 0.866538207278,
			"-0.012": 0.220632666853,
			"-0.011": 1.2903926659,
			"-0.01": 0.485390773196,
			"-0.009": 0.630035973779,
			"-0.008": 2.7455916273,
			"-0.007": 6.41821633591,
			"-0.006": 10.0944242202,
			"-0.005": 12.9040981982,
			"-0.004": 17.7663506565,
			"-0.003": 18.1740220778,
			"-0.002": 17.8986506176,
			"-0.001": 16.038780576,
			"0.0": 15.5988910023,
			"0.001": 18.4702939425,
			"0.002": 13.3320283443,
			"0.003": 13.4844601231,
			"0.004": 18.8643084094,
			"0.005": 15.5362826525,
			"0.006": 5.69424121354,
			"0.007": 5.25191342551,
			"0.008": 4.8571492291,
			"0.009": 3.29918317815,
			"0.01": 2.49440643743,
			"0.011": 5.19512062577,
			"0.012": 1.70498648499,
			"0.013": 0.0191452386564,
			"0.014": 0.0,
			"0.015": 0.0,
			"0.016": 0.0,
			"0.017": 0.0,
			"0.018": 0.0,
			"0.019": 0.0,
			"0.02": 0.0,
			"0.021": 0.0,
			"0.022": 0.0,
			"0.023": 0.0,
			"0.024": 0.0,
			"0.025": 0.0
		}
	}
}
