{
	 "smiles": "CC1=C(I)C(N)=CC(Cl)=C1", 
	 "Tm": 322.15, 
	 "num_atms": 17, 
	 "gaussian": { 
		 "optdone": 1, 
		 "sigma_profile": "yes", 
		 "theory": "DFT", 
		 "functional": "B3LYP", 
		 "basiset": "6-31G**", 
		 "properties": { 
			 "R2extent": 2971.1028, 
			 "electric_dipole_moment_norm": 1.69651842018, 
			 "electric_quadrupole_moment_norm": 12.7076896169, 
			 "total_energy": -797.304368257, 
			 "HOMO_LUMO_gap": 0.17635, 
			 "cosmo_polarized_energy": -7.49, 
			 "cosmo_cavitation_energy": 25.06, 
			 "cosmo_dispersion_energy": -20.16, 
			 "cosmo_repulsion_energy": 1.59, 
			 "cosmo_total_nonelectrostatic_energy": 6.48, 
			 "SMD_solvation_energy": 3.14 
		},
		"coords": [
			{
				"x": -0.1036937906,
				"y": -0.9091681871,
				"z": -1.6640660596,
				"element": "C" 
			},
			{
				"x": 0.8953962522,
				"y": -0.4660390882,
				"z": -0.6240525758,
				"element": "C" 
			},
			{
				"x": 1.3922992783,
				"y": -1.3277334951,
				"z": 0.3672879273,
				"element": "C" 
			},
			{
				"x": 0.7301593135,
				"y": -3.3541757083,
				"z": 0.4271073111,
				"element": "I" 
			},
			{
				"x": 2.3278534128,
				"y": -0.9003346602,
				"z": 1.3346589474,
				"element": "C" 
			},
			{
				"x": 2.7862498007,
				"y": -1.7158633161,
				"z": 2.3532479903,
				"element": "N" 
			},
			{
				"x": 2.766103806,
				"y": 0.4383406963,
				"z": 1.2812263406,
				"element": "C" 
			},
			{
				"x": 2.2743247311,
				"y": 1.2860908034,
				"z": 0.3032222234,
				"element": "C" 
			},
			{
				"x": 2.8392828926,
				"y": 2.9520850991,
				"z": 0.2594320796,
				"element": "Cl" 
			},
			{
				"x": 1.3497819023,
				"y": 0.8589333906,
				"z": -0.6460728677,
				"element": "C" 
			},
			{
				"x": -1.0304182968,
				"y": -1.2642694219,
				"z": -1.2005505841,
				"element": "H" 
			},
			{
				"x": 0.2884093696,
				"y": -1.7347408293,
				"z": -2.2676104091,
				"element": "H" 
			},
			{
				"x": -0.3519150406,
				"y": -0.0835623155,
				"z": -2.3347896546,
				"element": "H" 
			},
			{
				"x": 2.7125451387,
				"y": -2.7129122205,
				"z": 2.2069496406,
				"element": "H" 
			},
			{
				"x": 3.6493309644,
				"y": -1.430328936,
				"z": 2.7917350881,
				"element": "H" 
			},
			{
				"x": 3.4808909536,
				"y": 0.7990872459,
				"z": 2.0130921682,
				"element": "H" 
			},
			{
				"x": 0.9831993123,
				"y": 1.5461909429,
				"z": -1.3992175658,
				"element": "H" 
			}
		],
		 "valence_orbital": [ 
			{
				"type": "occ",
				"energy": -0.30584,
				"method": "rhf"
			},
			{
				"type": "occ",
				"energy": -0.28699,
				"method": "rhf"
			},
			{
				"type": "occ",
				"energy": -0.27494,
				"method": "rhf"
			},
			{
				"type": "occ",
				"energy": -0.24052,
				"method": "rhf"
			},
			{
				"type": "occ",
				"energy": -0.21589,
				"method": "rhf"
			},
			{
				"type": "unocc",
				"energy": -0.03954,
				"method": "rhf"
			},
			{
				"type": "unocc",
				"energy": -0.01815,
				"method": "rhf"
			},
			{
				"type": "unocc",
				"energy": 0.0003,
				"method": "rhf"
			},
			{
				"type": "unocc",
				"energy": 0.02966,
				"method": "rhf"
			},
			{
				"type": "unocc",
				"energy": 0.03231,
				"method": "rhf"
			}
		],
		"cosmo_sigma_profile": { 
			"-0.025": 0.0,
			"-0.024": 0.0,
			"-0.023": 0.0,
			"-0.022": 0.0,
			"-0.021": 0.0,
			"-0.02": 0.0,
			"-0.019": 0.0,
			"-0.018": 0.0,
			"-0.017": 0.0,
			"-0.016": 0.0,
			"-0.015": 0.0,
			"-0.014": 0.257588609155,
			"-0.013": 1.60649294862,
			"-0.012": 1.38591309862,
			"-0.011": 2.61157166795,
			"-0.01": 2.71254840579,
			"-0.009": 2.96884691099,
			"-0.008": 2.43038299674,
			"-0.007": 3.938344832,
			"-0.006": 6.44839406729,
			"-0.005": 7.19257611567,
			"-0.004": 9.69661819975,
			"-0.003": 11.2257039447,
			"-0.002": 13.2503271039,
			"-0.001": 16.394716179,
			"0.0": 16.8702671133,
			"0.001": 16.1826655031,
			"0.002": 18.9019289215,
			"0.003": 26.8357445682,
			"0.004": 27.2940274318,
			"0.005": 12.8731968802,
			"0.006": 1.31857470196,
			"0.007": 0.747341773522,
			"0.008": 0.449317659736,
			"0.009": 0.825857992931,
			"0.01": 0.632185359742,
			"0.011": 0.585961584082,
			"0.012": 0.563697269773,
			"0.013": 0.298470495111,
			"0.014": 0.0,
			"0.015": 0.0,
			"0.016": 0.0,
			"0.017": 0.0,
			"0.018": 0.0,
			"0.019": 0.0,
			"0.02": 0.0,
			"0.021": 0.0,
			"0.022": 0.0,
			"0.023": 0.0,
			"0.024": 0.0,
			"0.025": 0.0
		}
	}
}
