{
	 "smiles": "OC(=O)C1=CC(=CC=C1)S(=O)(=O)NC1=CC=C(OCC2=CC=CC=C2)C=C1", 
	 "Tm": 355.15, 
	 "num_atms": 44, 
	 "gaussian": { 
		 "optdone": 1, 
		 "sigma_profile": "yes", 
		 "theory": "DFT", 
		 "functional": "B3LYP", 
		 "basiset": "6-31G**", 
		 "properties": { 
			 "R2extent": 14544.4641, 
			 "electric_dipole_moment_norm": 4.87000992299, 
			 "electric_quadrupole_moment_norm": 16.6009784826, 
			 "total_energy": -1601.3700936, 
			 "HOMO_LUMO_gap": 0.16408, 
			 "cosmo_polarized_energy": -22.47, 
			 "cosmo_cavitation_energy": 51.68, 
			 "cosmo_dispersion_energy": -34.69, 
			 "cosmo_repulsion_energy": 2.63, 
			 "cosmo_total_nonelectrostatic_energy": 19.62, 
			 "SMD_solvation_energy": 9.1 
		},
		"coords": [
			{
				"x": 5.509751062,
				"y": 0.0308457863,
				"z": 2.1973391805,
				"element": "O" 
			},
			{
				"x": 5.0961037874,
				"y": -0.0467683346,
				"z": 0.9107556687,
				"element": "C" 
			},
			{
				"x": 5.7592191377,
				"y": 0.3762744262,
				"z": -0.014778774,
				"element": "O" 
			},
			{
				"x": 3.7623477148,
				"y": -0.6943444718,
				"z": 0.7677307836,
				"element": "C" 
			},
			{
				"x": 3.0433314466,
				"y": -1.1616604261,
				"z": 1.87265127,
				"element": "C" 
			},
			{
				"x": 1.8012882816,
				"y": -1.7586074677,
				"z": 1.6604101599,
				"element": "C" 
			},
			{
				"x": 1.2692029401,
				"y": -1.910558245,
				"z": 0.3792458297,
				"element": "C" 
			},
			{
				"x": 1.9965092568,
				"y": -1.4397691142,
				"z": -0.7170826835,
				"element": "C" 
			},
			{
				"x": 3.2345169684,
				"y": -0.8333412947,
				"z": -0.5247385362,
				"element": "C" 
			},
			{
				"x": 0.876877127,
				"y": -2.369229857,
				"z": 3.0731177623,
				"element": "S" 
			},
			{
				"x": 1.8190014111,
				"y": -2.817525643,
				"z": 4.1034670332,
				"element": "O" 
			},
			{
				"x": -0.1668875017,
				"y": -3.2586685137,
				"z": 2.5538567364,
				"element": "O" 
			},
			{
				"x": 0.2073814534,
				"y": -0.9371259275,
				"z": 3.7200224264,
				"element": "N" 
			},
			{
				"x": -1.0274199966,
				"y": -0.435536684,
				"z": 3.1820931999,
				"element": "C" 
			},
			{
				"x": -2.2708374245,
				"y": -0.9727601834,
				"z": 3.5469640993,
				"element": "C" 
			},
			{
				"x": -3.4423583298,
				"y": -0.441676727,
				"z": 3.02647285,
				"element": "C" 
			},
			{
				"x": -3.3916154935,
				"y": 0.623764665,
				"z": 2.1135181537,
				"element": "C" 
			},
			{
				"x": -4.6053571198,
				"y": 1.0698731702,
				"z": 1.6710553525,
				"element": "O" 
			},
			{
				"x": -4.6659987614,
				"y": 2.2273015154,
				"z": 0.8381076997,
				"element": "C" 
			},
			{
				"x": -4.298256847,
				"y": 1.9714051364,
				"z": -0.6110274562,
				"element": "C" 
			},
			{
				"x": -4.5703986652,
				"y": 0.7366717721,
				"z": -1.2116610961,
				"element": "C" 
			},
			{
				"x": -4.278350337,
				"y": 0.5295383236,
				"z": -2.5598929521,
				"element": "C" 
			},
			{
				"x": -3.7191037776,
				"y": 1.55572894,
				"z": -3.32491404,
				"element": "C" 
			},
			{
				"x": -3.4477107578,
				"y": 2.7901078611,
				"z": -2.7326551241,
				"element": "C" 
			},
			{
				"x": -3.7322973816,
				"y": 2.993972464,
				"z": -1.3812109884,
				"element": "C" 
			},
			{
				"x": -2.1535667533,
				"y": 1.1526304464,
				"z": 1.7293497687,
				"element": "C" 
			},
			{
				"x": -0.9820160402,
				"y": 0.6229662756,
				"z": 2.2741816738,
				"element": "C" 
			},
			{
				"x": 6.3809042674,
				"y": 0.4597329037,
				"z": 2.1746293672,
				"element": "H" 
			},
			{
				"x": 3.4464888744,
				"y": -1.0729951833,
				"z": 2.874179512,
				"element": "H" 
			},
			{
				"x": 0.3093906936,
				"y": -2.3992514657,
				"z": 0.2545682793,
				"element": "H" 
			},
			{
				"x": 1.594881315,
				"y": -1.5522349995,
				"z": -1.7191241403,
				"element": "H" 
			},
			{
				"x": 3.8170268774,
				"y": -0.4627733204,
				"z": -1.361390607,
				"element": "H" 
			},
			{
				"x": 0.2244056865,
				"y": -1.0526106222,
				"z": 4.7313218512,
				"element": "H" 
			},
			{
				"x": -2.3129457228,
				"y": -1.8109398914,
				"z": 4.2354589355,
				"element": "H" 
			},
			{
				"x": -4.4125319309,
				"y": -0.8380224416,
				"z": 3.3068773663,
				"element": "H" 
			},
			{
				"x": -5.7119602587,
				"y": 2.5450703462,
				"z": 0.9085123348,
				"element": "H" 
			},
			{
				"x": -4.0504239608,
				"y": 3.0338561099,
				"z": 1.2577442425,
				"element": "H" 
			},
			{
				"x": -5.0024305205,
				"y": -0.0603962274,
				"z": -0.6146206672,
				"element": "H" 
			},
			{
				"x": -4.4892799112,
				"y": -0.4343661937,
				"z": -3.0143906303,
				"element": "H" 
			},
			{
				"x": -3.4935888331,
				"y": 1.393175595,
				"z": -4.3748886458,
				"element": "H" 
			},
			{
				"x": -3.0077161209,
				"y": 3.5918701043,
				"z": -3.3188449865,
				"element": "H" 
			},
			{
				"x": -3.512392952,
				"y": 3.9558472453,
				"z": -0.9227014303,
				"element": "H" 
			},
			{
				"x": -2.0885918808,
				"y": 1.9570068713,
				"z": 1.0076109966,
				"element": "H" 
			},
			{
				"x": -0.0180910225,
				"y": 1.0374232768,
				"z": 1.9974802244,
				"element": "H" 
			}
		],
		 "valence_orbital": [ 
			{
				"type": "occ",
				"energy": -0.26822,
				"method": "rhf"
			},
			{
				"type": "occ",
				"energy": -0.26136,
				"method": "rhf"
			},
			{
				"type": "occ",
				"energy": -0.25868,
				"method": "rhf"
			},
			{
				"type": "occ",
				"energy": -0.25221,
				"method": "rhf"
			},
			{
				"type": "occ",
				"energy": -0.2272,
				"method": "rhf"
			},
			{
				"type": "unocc",
				"energy": -0.06312,
				"method": "rhf"
			},
			{
				"type": "unocc",
				"energy": -0.04184,
				"method": "rhf"
			},
			{
				"type": "unocc",
				"energy": -0.01627,
				"method": "rhf"
			},
			{
				"type": "unocc",
				"energy": -0.01209,
				"method": "rhf"
			},
			{
				"type": "unocc",
				"energy": -0.00879,
				"method": "rhf"
			}
		],
		"cosmo_sigma_profile": { 
			"-0.025": 0.0,
			"-0.024": 0.0,
			"-0.023": 0.0,
			"-0.022": 0.0,
			"-0.021": 0.0,
			"-0.02": 0.0,
			"-0.019": 0.455826693309,
			"-0.018": 0.841131333608,
			"-0.017": 1.06112813609,
			"-0.016": 0.593412159809,
			"-0.015": 1.43345077783,
			"-0.014": 1.72524334558,
			"-0.013": 1.62136703623,
			"-0.012": 1.60163072526,
			"-0.011": 1.61552471594,
			"-0.01": 1.87373484772,
			"-0.009": 1.7973524684,
			"-0.008": 3.85416011638,
			"-0.007": 11.6345667787,
			"-0.006": 24.7551108422,
			"-0.005": 28.3583805828,
			"-0.004": 27.3746241068,
			"-0.003": 29.2533691399,
			"-0.002": 23.4590349763,
			"-0.001": 32.1184703827,
			"0.0": 35.0295147241,
			"0.001": 31.0433834415,
			"0.002": 24.6336659108,
			"0.003": 25.0099351701,
			"0.004": 24.870602107,
			"0.005": 17.5522833625,
			"0.006": 13.0427663606,
			"0.007": 7.58546000613,
			"0.008": 6.02563602092,
			"0.009": 7.16415137287,
			"0.01": 11.5650023471,
			"0.011": 12.2479514466,
			"0.012": 2.76008944829,
			"0.013": 0.0,
			"0.014": 0.0,
			"0.015": 0.0,
			"0.016": 0.0,
			"0.017": 0.0,
			"0.018": 0.0,
			"0.019": 0.0,
			"0.02": 0.0,
			"0.021": 0.0,
			"0.022": 0.0,
			"0.023": 0.0,
			"0.024": 0.0,
			"0.0": 0.0
		}
	}
}
