{
	 "smiles": "NC1=CC=C(C=C1)N=NC1=CC=C(C=C1)N=NC1=CC=C(N)C=C1", 
	 "Tm": 520.15, 
	 "num_atms": 40, 
	 "gaussian": { 
		 "optdone": 1, 
		 "sigma_profile": "yes", 
		 "theory": "DFT", 
		 "functional": "B3LYP", 
		 "basiset": "6-31G**", 
		 "properties": { 
			 "R2extent": 14707.468, 
			 "electric_dipole_moment_norm": 7.62145054435, 
			 "electric_quadrupole_moment_norm": 30.32892805, 
			 "total_energy": -1023.97323728, 
			 "HOMO_LUMO_gap": 0.1096, 
			 "cosmo_polarized_energy": -24.42, 
			 "cosmo_cavitation_energy": 46.12, 
			 "cosmo_dispersion_energy": -32.84, 
			 "cosmo_repulsion_energy": 2.51, 
			 "cosmo_total_nonelectrostatic_energy": 15.79, 
			 "SMD_solvation_energy": 4.43 
		},
		"coords": [
			{
				"x": 0.5911193185,
				"y": 2.6373209827,
				"z": 5.9084491136,
				"element": "N" 
			},
			{
				"x": 0.8529824987,
				"y": 3.1389019647,
				"z": 4.6424565985,
				"element": "C" 
			},
			{
				"x": 1.3306890785,
				"y": 2.2937449138,
				"z": 3.6198783523,
				"element": "C" 
			},
			{
				"x": 1.6222774163,
				"y": 2.7921424307,
				"z": 2.3591916076,
				"element": "C" 
			},
			{
				"x": 1.46898396,
				"y": 4.1636455286,
				"z": 2.0811146871,
				"element": "C" 
			},
			{
				"x": 1.0545460605,
				"y": 5.0142822299,
				"z": 3.1197455034,
				"element": "C" 
			},
			{
				"x": 0.7198251334,
				"y": 4.5139642406,
				"z": 4.3688611896,
				"element": "C" 
			},
			{
				"x": 1.8547555749,
				"y": 4.8258485515,
				"z": 0.880454382,
				"element": "N" 
			},
			{
				"x": 1.8001121564,
				"y": 4.3194034116,
				"z": -0.2651920513,
				"element": "N" 
			},
			{
				"x": 1.1308992631,
				"y": 3.1020596366,
				"z": -0.5884283298,
				"element": "C" 
			},
			{
				"x": 1.8105193499,
				"y": 2.1825629809,
				"z": -1.4093220504,
				"element": "C" 
			},
			{
				"x": 1.168801035,
				"y": 1.045122831,
				"z": -1.8739505681,
				"element": "C" 
			},
			{
				"x": -0.1897901905,
				"y": 0.8291879073,
				"z": -1.5725084701,
				"element": "C" 
			},
			{
				"x": -0.8781639336,
				"y": 1.776557796,
				"z": -0.7978917801,
				"element": "C" 
			},
			{
				"x": -0.2293837549,
				"y": 2.9000260215,
				"z": -0.3011642289,
				"element": "C" 
			},
			{
				"x": -0.9503246965,
				"y": -0.2785700838,
				"z": -2.0059659963,
				"element": "N" 
			},
			{
				"x": -0.3068845529,
				"y": -1.1268556673,
				"z": -2.6917962213,
				"element": "N" 
			},
			{
				"x": -1.0539847869,
				"y": -2.2326346623,
				"z": -3.1320571842,
				"element": "C" 
			},
			{
				"x": -0.3561835591,
				"y": -3.1881172341,
				"z": -3.8878173297,
				"element": "C" 
			},
			{
				"x": -0.9914973046,
				"y": -4.3221766955,
				"z": -4.372661266,
				"element": "C" 
			},
			{
				"x": -2.3589661148,
				"y": -4.534085479,
				"z": -4.1136509573,
				"element": "C" 
			},
			{
				"x": -3.0189012685,
				"y": -5.6359121134,
				"z": -4.6344614074,
				"element": "N" 
			},
			{
				"x": -3.0622047971,
				"y": -3.5715997641,
				"z": -3.3541797607,
				"element": "C" 
			},
			{
				"x": -2.4230302653,
				"y": -2.4434327831,
				"z": -2.8727730779,
				"element": "C" 
			},
			{
				"x": 0.4092085935,
				"y": 1.6461858305,
				"z": 5.9711040486,
				"element": "H" 
			},
			{
				"x": -0.0159492199,
				"y": 3.191016288,
				"z": 6.4951117612,
				"element": "H" 
			},
			{
				"x": 1.4751858837,
				"y": 1.2363005171,
				"z": 3.8269626021,
				"element": "H" 
			},
			{
				"x": 1.9917728356,
				"y": 2.1177566488,
				"z": 1.5962219177,
				"element": "H" 
			},
			{
				"x": 0.9895734557,
				"y": 6.0782036614,
				"z": 2.9138494154,
				"element": "H" 
			},
			{
				"x": 0.3797381062,
				"y": 5.186534684,
				"z": 5.1521651715,
				"element": "H" 
			},
			{
				"x": 2.8475975981,
				"y": 2.3805243228,
				"z": -1.6634383795,
				"element": "H" 
			},
			{
				"x": 1.6877640572,
				"y": 0.3170369864,
				"z": -2.4866719443,
				"element": "H" 
			},
			{
				"x": -1.930456362,
				"y": 1.6024984922,
				"z": -0.595417294,
				"element": "H" 
			},
			{
				"x": -0.7662551332,
				"y": 3.6272425353,
				"z": 0.2986492585,
				"element": "H" 
			},
			{
				"x": 0.6981186083,
				"y": -3.0154521424,
				"z": -4.080609427,
				"element": "H" 
			},
			{
				"x": -0.4375722471,
				"y": -5.0509600342,
				"z": -4.9588516331,
				"element": "H" 
			},
			{
				"x": -2.4454658791,
				"y": -6.423676372,
				"z": -4.8986365294,
				"element": "H" 
			},
			{
				"x": -3.8810021159,
				"y": -5.9024671579,
				"z": -4.1818073543,
				"element": "H" 
			},
			{
				"x": -4.1201615029,
				"y": -3.724787878,
				"z": -3.1537344271,
				"element": "H" 
			},
			{
				"x": -2.959592299,
				"y": -1.7043433269,
				"z": -2.2886279412,
				"element": "H" 
			}
		],
		 "valence_orbital": [ 
			{
				"type": "occ",
				"energy": -0.24631,
				"method": "rhf"
			},
			{
				"type": "occ",
				"energy": -0.22258,
				"method": "rhf"
			},
			{
				"type": "occ",
				"energy": -0.21344,
				"method": "rhf"
			},
			{
				"type": "occ",
				"energy": -0.20459,
				"method": "rhf"
			},
			{
				"type": "occ",
				"energy": -0.18456,
				"method": "rhf"
			},
			{
				"type": "unocc",
				"energy": -0.07496,
				"method": "rhf"
			},
			{
				"type": "unocc",
				"energy": -0.04895,
				"method": "rhf"
			},
			{
				"type": "unocc",
				"energy": -0.00847,
				"method": "rhf"
			},
			{
				"type": "unocc",
				"energy": -0.00062,
				"method": "rhf"
			},
			{
				"type": "unocc",
				"energy": 0.0058,
				"method": "rhf"
			}
		],
		"cosmo_sigma_profile": { 
			"-0.025": 0.0,
			"-0.024": 0.0,
			"-0.023": 0.0,
			"-0.022": 0.0,
			"-0.021": 0.0,
			"-0.02": 0.0,
			"-0.019": 0.0,
			"-0.018": 0.0,
			"-0.017": 0.0,
			"-0.016": 0.0,
			"-0.015": 0.0,
			"-0.014": 0.300603343448,
			"-0.013": 4.90167652272,
			"-0.012": 6.18449354049,
			"-0.011": 5.60245801456,
			"-0.01": 6.62939326094,
			"-0.009": 7.00015284736,
			"-0.008": 5.7416076787,
			"-0.007": 7.4996982828,
			"-0.006": 16.8674467501,
			"-0.005": 22.563555936,
			"-0.004": 24.7981770647,
			"-0.003": 17.4653150707,
			"-0.002": 16.6699141852,
			"-0.001": 17.5460094254,
			"0.0": 18.8636260831,
			"0.001": 16.6662680613,
			"0.002": 26.8439436796,
			"0.003": 42.9962099421,
			"0.004": 40.922022268,
			"0.005": 21.4370916105,
			"0.006": 7.71584510974,
			"0.007": 7.6085623812,
			"0.008": 6.60603123092,
			"0.009": 4.48879338908,
			"0.01": 2.70834254892,
			"0.011": 3.64585696376,
			"0.012": 3.92408262797,
			"0.013": 2.28545240317,
			"0.014": 2.10222927778,
			"0.015": 0.59962275189,
			"0.016": 0.0,
			"0.017": 0.0,
			"0.018": 0.0,
			"0.019": 0.0,
			"0.02": 0.0,
			"0.021": 0.0,
			"0.022": 0.0,
			"0.023": 0.0,
			"0.024": 0.0,
			"0.025": 0.0
		}
	}
}
