{
	 "smiles": "CN(C)CCC1=CNC2=C1C=C(O)C=C2", 
	 "Tm": 419.15, 
	 "num_atms": 31, 
	 "gaussian": { 
		 "optdone": 1, 
		 "sigma_profile": "yes", 
		 "theory": "DFT", 
		 "functional": "B3LYP", 
		 "basiset": "6-31G**", 
		 "properties": { 
			 "R2extent": 3738.0456, 
			 "electric_dipole_moment_norm": 2.31967770391, 
			 "electric_quadrupole_moment_norm": 13.0459540088, 
			 "total_energy": -651.634431254, 
			 "HOMO_LUMO_gap": 0.18205, 
			 "cosmo_polarized_energy": -14.38, 
			 "cosmo_cavitation_energy": 33.04, 
			 "cosmo_dispersion_energy": -23.29, 
			 "cosmo_repulsion_energy": 1.83, 
			 "cosmo_total_nonelectrostatic_energy": 11.58, 
			 "SMD_solvation_energy": 6.03 
		},
		"coords": [
			{
				"x": -2.0934623029,
				"y": -2.8431260714,
				"z": 0.9651120297,
				"element": "C" 
			},
			{
				"x": -2.0384688346,
				"y": -1.4731025435,
				"z": 0.4707995447,
				"element": "N" 
			},
			{
				"x": -3.2659659083,
				"y": -0.7560147808,
				"z": 0.7922823517,
				"element": "C" 
			},
			{
				"x": -1.7243847462,
				"y": -1.4160314317,
				"z": -0.9594518697,
				"element": "C" 
			},
			{
				"x": -1.0823686036,
				"y": -0.0819874412,
				"z": -1.4025186763,
				"element": "C" 
			},
			{
				"x": 0.4027307145,
				"y": 0.0330005479,
				"z": -1.1854154222,
				"element": "C" 
			},
			{
				"x": 1.3327236069,
				"y": 0.1311451543,
				"z": -2.1929390448,
				"element": "C" 
			},
			{
				"x": 2.6041447462,
				"y": 0.254442781,
				"z": -1.6684912705,
				"element": "N" 
			},
			{
				"x": 2.5198952356,
				"y": 0.2451571237,
				"z": -0.2882006755,
				"element": "C" 
			},
			{
				"x": 1.1455893537,
				"y": 0.1000842435,
				"z": 0.0543711581,
				"element": "C" 
			},
			{
				"x": 0.7787218913,
				"y": 0.0587157631,
				"z": 1.410358729,
				"element": "C" 
			},
			{
				"x": 1.7725930677,
				"y": 0.1701739803,
				"z": 2.375865808,
				"element": "C" 
			},
			{
				"x": 1.3830554779,
				"y": 0.1258100544,
				"z": 3.6954223238,
				"element": "O" 
			},
			{
				"x": 3.13020257,
				"y": 0.3167251189,
				"z": 2.0179906389,
				"element": "C" 
			},
			{
				"x": 3.5174006533,
				"y": 0.3520747226,
				"z": 0.6826109222,
				"element": "C" 
			},
			{
				"x": -1.1336788302,
				"y": -3.3387380352,
				"z": 0.7915363083,
				"element": "H" 
			},
			{
				"x": -2.8877892521,
				"y": -3.4505755865,
				"z": 0.4884181638,
				"element": "H" 
			},
			{
				"x": -2.2798525178,
				"y": -2.8375489672,
				"z": 2.0439076107,
				"element": "H" 
			},
			{
				"x": -3.4208945623,
				"y": -0.754444216,
				"z": 1.8758549398,
				"element": "H" 
			},
			{
				"x": -3.1988240912,
				"y": 0.2856626201,
				"z": 0.4663945757,
				"element": "H" 
			},
			{
				"x": -4.1621400274,
				"y": -1.2023429533,
				"z": 0.3170486932,
				"element": "H" 
			},
			{
				"x": -2.6327964394,
				"y": -1.6015525205,
				"z": -1.5669103085,
				"element": "H" 
			},
			{
				"x": -1.025139003,
				"y": -2.2266523985,
				"z": -1.1884788893,
				"element": "H" 
			},
			{
				"x": -1.6025958294,
				"y": 0.7474907432,
				"z": -0.9060782999,
				"element": "H" 
			},
			{
				"x": -1.2791361176,
				"y": 0.0441939889,
				"z": -2.4744979841,
				"element": "H" 
			},
			{
				"x": 1.1790758793,
				"y": 0.1316943275,
				"z": -3.2637290514,
				"element": "H" 
			},
			{
				"x": 3.4495661447,
				"y": 0.3572977067,
				"z": -2.2039192097,
				"element": "H" 
			},
			{
				"x": -0.2533398485,
				"y": -0.0948448615,
				"z": 1.7022122982,
				"element": "H" 
			},
			{
				"x": 2.167577958,
				"y": 0.2039620866,
				"z": 4.2520736889,
				"element": "H" 
			},
			{
				"x": 3.8841013025,
				"y": 0.3987817013,
				"z": 2.7985576351,
				"element": "H" 
			},
			{
				"x": 4.5641583127,
				"y": 0.4613491432,
				"z": 0.4128132822,
				"element": "H" 
			}
		],
		 "valence_orbital": [ 
			{
				"type": "occ",
				"energy": -0.29239,
				"method": "rhf"
			},
			{
				"type": "occ",
				"energy": -0.25718,
				"method": "rhf"
			},
			{
				"type": "occ",
				"energy": -0.20828,
				"method": "rhf"
			},
			{
				"type": "occ",
				"energy": -0.19491,
				"method": "rhf"
			},
			{
				"type": "occ",
				"energy": -0.18024,
				"method": "rhf"
			},
			{
				"type": "unocc",
				"energy": 0.00181,
				"method": "rhf"
			},
			{
				"type": "unocc",
				"energy": 0.05133,
				"method": "rhf"
			},
			{
				"type": "unocc",
				"energy": 0.07159,
				"method": "rhf"
			},
			{
				"type": "unocc",
				"energy": 0.08418,
				"method": "rhf"
			},
			{
				"type": "unocc",
				"energy": 0.08826,
				"method": "rhf"
			}
		],
		"cosmo_sigma_profile": { 
			"-0.025": 0.0,
			"-0.024": 0.0,
			"-0.023": 0.0,
			"-0.022": 0.0,
			"-0.021": 0.0,
			"-0.02": 0.0,
			"-0.019": 0.0,
			"-0.018": 0.0,
			"-0.017": 0.420859685375,
			"-0.016": 1.23406316609,
			"-0.015": 1.96637142793,
			"-0.014": 2.65399896413,
			"-0.013": 2.19416068745,
			"-0.012": 1.77492815809,
			"-0.011": 1.85811367387,
			"-0.01": 2.20621787349,
			"-0.009": 2.32475698132,
			"-0.008": 2.86992633403,
			"-0.007": 5.20159795324,
			"-0.006": 5.56321806155,
			"-0.005": 6.90761927981,
			"-0.004": 12.4335663542,
			"-0.003": 19.5166215775,
			"-0.002": 20.9629292013,
			"-0.001": 33.1336963122,
			"0.0": 32.4825975348,
			"0.001": 15.0204788381,
			"0.002": 10.1303871978,
			"0.003": 9.2240984956,
			"0.004": 9.66866163242,
			"0.005": 12.7536839923,
			"0.006": 18.1406073845,
			"0.007": 16.676498353,
			"0.008": 3.9857163883,
			"0.009": 1.27146825774,
			"0.01": 1.36052620151,
			"0.011": 2.42647841239,
			"0.012": 1.75881055105,
			"0.013": 1.34747596387,
			"0.014": 0.0,
			"0.015": 0.0,
			"0.016": 0.0,
			"0.017": 0.0,
			"0.018": 0.0,
			"0.019": 0.0,
			"0.02": 0.0,
			"0.021": 0.0,
			"0.022": 0.0,
			"0.023": 0.0,
			"0.024": 0.0,
			"0.025": 0.0
		}
	}
}
