{
	 "smiles": "CCCC(O)C(O)CO", 
	 "Tm": 339.15, 
	 "num_atms": 23, 
	 "gaussian": { 
		 "optdone": 1, 
		 "sigma_profile": "yes", 
		 "theory": "DFT", 
		 "functional": "B3LYP", 
		 "basiset": "6-31G**", 
		 "properties": { 
			 "R2extent": 2012.1897, 
			 "electric_dipole_moment_norm": 1.96501402031, 
			 "electric_quadrupole_moment_norm": 10.7298807855, 
			 "total_energy": -462.731092547, 
			 "HOMO_LUMO_gap": 0.30901, 
			 "cosmo_polarized_energy": -11.46, 
			 "cosmo_cavitation_energy": 24.33, 
			 "cosmo_dispersion_energy": -17.72, 
			 "cosmo_repulsion_energy": 1.49, 
			 "cosmo_total_nonelectrostatic_energy": 8.11, 
			 "SMD_solvation_energy": 3.98 
		},
		"coords": [
			{
				"x": -1.4279246363,
				"y": -1.8189664411,
				"z": 1.5880762789,
				"element": "C" 
			},
			{
				"x": -0.7838661814,
				"y": -1.5651451043,
				"z": 0.218875658,
				"element": "C" 
			},
			{
				"x": -1.0943846862,
				"y": -0.1872738593,
				"z": -0.3909268479,
				"element": "C" 
			},
			{
				"x": -0.595887632,
				"y": 1.0114343608,
				"z": 0.4267668632,
				"element": "C" 
			},
			{
				"x": 0.8150322108,
				"y": 0.9296675414,
				"z": 0.693071833,
				"element": "O" 
			},
			{
				"x": -0.7298731815,
				"y": 2.3588520868,
				"z": -0.3062830295,
				"element": "C" 
			},
			{
				"x": 0.1080193056,
				"y": 2.3889821112,
				"z": -1.452562635,
				"element": "O" 
			},
			{
				"x": -2.1394028206,
				"y": 2.6730492388,
				"z": -0.792211952,
				"element": "C" 
			},
			{
				"x": -3.0174969423,
				"y": 2.5908521592,
				"z": 0.3248012259,
				"element": "O" 
			},
			{
				"x": -2.5160689923,
				"y": -1.7010778316,
				"z": 1.537812674,
				"element": "H" 
			},
			{
				"x": -1.2182222179,
				"y": -2.8341687161,
				"z": 1.940277705,
				"element": "H" 
			},
			{
				"x": -1.0622703033,
				"y": -1.1251674787,
				"z": 2.3533802276,
				"element": "H" 
			},
			{
				"x": -1.1234209688,
				"y": -2.3351299918,
				"z": -0.4843105773,
				"element": "H" 
			},
			{
				"x": 0.3048736213,
				"y": -1.7037635621,
				"z": 0.287144842,
				"element": "H" 
			},
			{
				"x": -0.6558972932,
				"y": -0.1233993537,
				"z": -1.3932378755,
				"element": "H" 
			},
			{
				"x": -2.1814104559,
				"y": -0.0892741393,
				"z": -0.5031456334,
				"element": "H" 
			},
			{
				"x": -1.1551793009,
				"y": 1.0825333706,
				"z": 1.3687705366,
				"element": "H" 
			},
			{
				"x": 0.9976800011,
				"y": 0.0951247272,
				"z": 1.140254211,
				"element": "H" 
			},
			{
				"x": -0.4282471261,
				"y": 3.1374603208,
				"z": 0.4127561748,
				"element": "H" 
			},
			{
				"x": 0.9595135168,
				"y": 2.0384151404,
				"z": -1.1508861145,
				"element": "H" 
			},
			{
				"x": -2.413966882,
				"y": 1.9625872244,
				"z": -1.5854833244,
				"element": "H" 
			},
			{
				"x": -2.1330105469,
				"y": 3.6783283866,
				"z": -1.2377784937,
				"element": "H" 
			},
			{
				"x": -3.9026884877,
				"y": 2.83347981,
				"z": 0.0289382532,
				"element": "H" 
			}
		],
		 "valence_orbital": [ 
			{
				"type": "occ",
				"energy": -0.32794,
				"method": "rhf"
			},
			{
				"type": "occ",
				"energy": -0.30618,
				"method": "rhf"
			},
			{
				"type": "occ",
				"energy": -0.27169,
				"method": "rhf"
			},
			{
				"type": "occ",
				"energy": -0.26729,
				"method": "rhf"
			},
			{
				"type": "occ",
				"energy": -0.25503,
				"method": "rhf"
			},
			{
				"type": "unocc",
				"energy": 0.05398,
				"method": "rhf"
			},
			{
				"type": "unocc",
				"energy": 0.07159,
				"method": "rhf"
			},
			{
				"type": "unocc",
				"energy": 0.11787,
				"method": "rhf"
			},
			{
				"type": "unocc",
				"energy": 0.11915,
				"method": "rhf"
			},
			{
				"type": "unocc",
				"energy": 0.12557,
				"method": "rhf"
			}
		],
		"cosmo_sigma_profile": { 
			"-0.025": 0.0,
			"-0.024": 0.0,
			"-0.023": 0.0,
			"-0.022": 0.0,
			"-0.021": 0.0,
			"-0.02": 0.0,
			"-0.019": 0.0,
			"-0.018": 0.0,
			"-0.017": 0.00123156626694,
			"-0.016": 0.740177509373,
			"-0.015": 1.19507444995,
			"-0.014": 1.18324133524,
			"-0.013": 1.78241849099,
			"-0.012": 1.94206767677,
			"-0.011": 2.38113694104,
			"-0.01": 2.45205704446,
			"-0.009": 2.26299923584,
			"-0.008": 2.98059781293,
			"-0.007": 2.80653710674,
			"-0.006": 3.06200549964,
			"-0.005": 3.61923398091,
			"-0.004": 6.13043662511,
			"-0.003": 16.6391763724,
			"-0.002": 20.8467152415,
			"-0.001": 22.6250308726,
			"0.0": 23.7941476785,
			"0.001": 18.9309124502,
			"0.002": 7.84559483114,
			"0.003": 3.99421248303,
			"0.004": 5.24776577503,
			"0.005": 3.79045409669,
			"0.006": 3.87966376249,
			"0.007": 3.66252294845,
			"0.008": 3.5900996017,
			"0.009": 3.35757989786,
			"0.01": 3.84714859949,
			"0.011": 3.2525664796,
			"0.012": 3.26868055329,
			"0.013": 2.90652982588,
			"0.014": 2.480720223,
			"0.015": 0.052161660915,
			"0.016": 0.0,
			"0.017": 0.0,
			"0.018": 0.0,
			"0.019": 0.0,
			"0.02": 0.0,
			"0.021": 0.0,
			"0.022": 0.0,
			"0.023": 0.0,
			"0.024": 0.0,
			"0.025": 0.0
		}
	}
}
