{
	 "smiles": "CCCCC(CC)COC(C)=O", 
	 "Tm": 228.15, 
	 "num_atms": 32, 
	 "gaussian": { 
		 "optdone": 1, 
		 "sigma_profile": "yes", 
		 "theory": "DFT", 
		 "functional": "B3LYP", 
		 "basiset": "6-31G**", 
		 "properties": { 
			 "R2extent": 3538.5788, 
			 "electric_dipole_moment_norm": 1.70103842108, 
			 "electric_quadrupole_moment_norm": 12.3269954279, 
			 "total_energy": -543.599421904, 
			 "HOMO_LUMO_gap": 0.28272, 
			 "cosmo_polarized_energy": -6.41, 
			 "cosmo_cavitation_energy": 32.94, 
			 "cosmo_dispersion_energy": -22.0, 
			 "cosmo_repulsion_energy": 1.8, 
			 "cosmo_total_nonelectrostatic_energy": 12.75, 
			 "SMD_solvation_energy": 6.57 
		},
		"coords": [
			{
				"x": -0.4203577345,
				"y": -2.7785359723,
				"z": 1.4165785598,
				"element": "C" 
			},
			{
				"x": -1.3793562211,
				"y": -2.1716389727,
				"z": 0.3832687766,
				"element": "C" 
			},
			{
				"x": -0.713648965,
				"y": -1.3023683371,
				"z": -0.7069737038,
				"element": "C" 
			},
			{
				"x": -0.6015068652,
				"y": 0.2040886193,
				"z": -0.4017990635,
				"element": "C" 
			},
			{
				"x": 0.2849063397,
				"y": 0.6373410105,
				"z": 0.7850363926,
				"element": "C" 
			},
			{
				"x": 1.778156175,
				"y": 0.3322391186,
				"z": 0.5410600965,
				"element": "C" 
			},
			{
				"x": 2.6912507354,
				"y": 0.5128015164,
				"z": 1.7611668291,
				"element": "C" 
			},
			{
				"x": 0.0923989125,
				"y": 2.1332960173,
				"z": 1.0685458006,
				"element": "C" 
			},
			{
				"x": -1.2824645323,
				"y": 2.457584706,
				"z": 1.3871701291,
				"element": "O" 
			},
			{
				"x": -1.6447662373,
				"y": 2.3561526031,
				"z": 2.6883927976,
				"element": "C" 
			},
			{
				"x": -3.0991993982,
				"y": 2.7255239206,
				"z": 2.8657420812,
				"element": "C" 
			},
			{
				"x": -0.8943074717,
				"y": 2.0184897683,
				"z": 3.578263209,
				"element": "O" 
			},
			{
				"x": 0.3328527815,
				"y": -3.406489455,
				"z": 0.9266624096,
				"element": "H" 
			},
			{
				"x": -0.9612485117,
				"y": -3.4089642549,
				"z": 2.1305503244,
				"element": "H" 
			},
			{
				"x": 0.1117164439,
				"y": -2.0156708338,
				"z": 1.9923191588,
				"element": "H" 
			},
			{
				"x": -2.1523290935,
				"y": -1.5826890896,
				"z": 0.8959777599,
				"element": "H" 
			},
			{
				"x": -1.9121492454,
				"y": -2.9966001598,
				"z": -0.1061725625,
				"element": "H" 
			},
			{
				"x": -1.3043339354,
				"y": -1.3886873887,
				"z": -1.6277222026,
				"element": "H" 
			},
			{
				"x": 0.2705913842,
				"y": -1.7217338226,
				"z": -0.9546273595,
				"element": "H" 
			},
			{
				"x": -1.6127911567,
				"y": 0.5929767298,
				"z": -0.2320526257,
				"element": "H" 
			},
			{
				"x": -0.232302086,
				"y": 0.7124749392,
				"z": -1.3052045508,
				"element": "H" 
			},
			{
				"x": -0.0329508901,
				"y": 0.1056304949,
				"z": 1.6905083989,
				"element": "H" 
			},
			{
				"x": 1.8679071996,
				"y": -0.7024215704,
				"z": 0.1923268912,
				"element": "H" 
			},
			{
				"x": 2.1388713104,
				"y": 0.9574941278,
				"z": -0.2888846105,
				"element": "H" 
			},
			{
				"x": 2.7368676157,
				"y": 1.5520120536,
				"z": 2.1010950348,
				"element": "H" 
			},
			{
				"x": 2.344961942,
				"y": -0.0925774558,
				"z": 2.6060174457,
				"element": "H" 
			},
			{
				"x": 3.714903905,
				"y": 0.2027219227,
				"z": 1.5269259239,
				"element": "H" 
			},
			{
				"x": 0.7229832251,
				"y": 2.4634838719,
				"z": 1.8952633367,
				"element": "H" 
			},
			{
				"x": 0.3158761476,
				"y": 2.7281182146,
				"z": 0.1769879599,
				"element": "H" 
			},
			{
				"x": -3.7308580807,
				"y": 2.0528511629,
				"z": 2.2778797671,
				"element": "H" 
			},
			{
				"x": -3.276805461,
				"y": 3.7408823684,
				"z": 2.4995760867,
				"element": "H" 
			},
			{
				"x": -3.3648682319,
				"y": 2.6568141467,
				"z": 3.9201215093,
				"element": "H" 
			}
		],
		 "valence_orbital": [ 
			{
				"type": "occ",
				"energy": -0.31627,
				"method": "rhf"
			},
			{
				"type": "occ",
				"energy": -0.30765,
				"method": "rhf"
			},
			{
				"type": "occ",
				"energy": -0.30337,
				"method": "rhf"
			},
			{
				"type": "occ",
				"energy": -0.286,
				"method": "rhf"
			},
			{
				"type": "occ",
				"energy": -0.26707,
				"method": "rhf"
			},
			{
				"type": "unocc",
				"energy": 0.01565,
				"method": "rhf"
			},
			{
				"type": "unocc",
				"energy": 0.0769,
				"method": "rhf"
			},
			{
				"type": "unocc",
				"energy": 0.09566,
				"method": "rhf"
			},
			{
				"type": "unocc",
				"energy": 0.10145,
				"method": "rhf"
			},
			{
				"type": "unocc",
				"energy": 0.10734,
				"method": "rhf"
			}
		],
		"cosmo_sigma_profile": { 
			"-0.025": 0.0,
			"-0.024": 0.0,
			"-0.023": 0.0,
			"-0.022": 0.0,
			"-0.021": 0.0,
			"-0.02": 0.0,
			"-0.019": 0.0,
			"-0.018": 0.0,
			"-0.017": 0.0,
			"-0.016": 0.0,
			"-0.015": 0.0,
			"-0.014": 0.0,
			"-0.013": 0.0,
			"-0.012": 0.0,
			"-0.011": 0.0,
			"-0.01": 0.0,
			"-0.009": 0.0,
			"-0.008": 0.0,
			"-0.007": 0.398374123533,
			"-0.006": 4.12501759044,
			"-0.005": 8.32758267708,
			"-0.004": 12.0171240402,
			"-0.003": 20.6749786952,
			"-0.002": 41.738436535,
			"-0.001": 44.2008390218,
			"0.0": 39.2313505004,
			"0.001": 37.4593926332,
			"0.002": 15.1950216834,
			"0.003": 4.34986738084,
			"0.004": 3.41328896812,
			"0.005": 3.11429712404,
			"0.006": 2.48352578461,
			"0.007": 2.52925004088,
			"0.008": 2.15405699214,
			"0.009": 2.3378572969,
			"0.01": 2.18880964833,
			"0.011": 2.05236818177,
			"0.012": 4.50319371487,
			"0.013": 1.93537080001,
			"0.014": 0.118203062244,
			"0.015": 0.0,
			"0.016": 0.0,
			"0.017": 0.0,
			"0.018": 0.0,
			"0.019": 0.0,
			"0.02": 0.0,
			"0.021": 0.0,
			"0.022": 0.0,
			"0.023": 0.0,
			"0.024": 0.0,
			"0.025": 0.0
		}
	}
}
