{
	 "smiles": "COCCOC1=C(Cl)C=C(N)C=C1Cl", 
	 "Tm": 332.15, 
	 "num_atms": 25, 
	 "gaussian": { 
		 "optdone": 1, 
		 "sigma_profile": "yes", 
		 "theory": "DFT", 
		 "functional": "B3LYP", 
		 "basiset": "6-31G**", 
		 "properties": { 
			 "R2extent": 4874.7738, 
			 "electric_dipole_moment_norm": 4.13540240605, 
			 "electric_quadrupole_moment_norm": 20.163430625, 
			 "total_energy": -1475.13653908, 
			 "HOMO_LUMO_gap": 0.19385, 
			 "cosmo_polarized_energy": -13.01, 
			 "cosmo_cavitation_energy": 32.56, 
			 "cosmo_dispersion_energy": -23.22, 
			 "cosmo_repulsion_energy": 1.86, 
			 "cosmo_total_nonelectrostatic_energy": 11.2, 
			 "SMD_solvation_energy": 5.67 
		},
		"coords": [
			{
				"x": -2.6558093259,
				"y": -1.4773113372,
				"z": -2.5044445885,
				"element": "C" 
			},
			{
				"x": -3.0734260703,
				"y": -0.4198003946,
				"z": -1.6619258987,
				"element": "O" 
			},
			{
				"x": -2.4690214059,
				"y": -0.4222114104,
				"z": -0.3815525476,
				"element": "C" 
			},
			{
				"x": -1.106671606,
				"y": 0.2690769575,
				"z": -0.3994259654,
				"element": "C" 
			},
			{
				"x": -0.603262331,
				"y": 0.2092708351,
				"z": 0.9471488588,
				"element": "O" 
			},
			{
				"x": 0.6119847431,
				"y": 0.7958669042,
				"z": 1.1516350833,
				"element": "C" 
			},
			{
				"x": 0.7269261783,
				"y": 2.1381545999,
				"z": 1.5469907716,
				"element": "C" 
			},
			{
				"x": -0.7301266872,
				"y": 3.0977789174,
				"z": 1.7141163754,
				"element": "Cl" 
			},
			{
				"x": 1.9545312135,
				"y": 2.7318853357,
				"z": 1.8197727595,
				"element": "C" 
			},
			{
				"x": 3.1377317174,
				"y": 1.9849455519,
				"z": 1.7019281589,
				"element": "C" 
			},
			{
				"x": 4.3681670242,
				"y": 2.5502256709,
				"z": 2.0282926106,
				"element": "N" 
			},
			{
				"x": 3.0510860051,
				"y": 0.6393879756,
				"z": 1.309811539,
				"element": "C" 
			},
			{
				"x": 1.809765025,
				"y": 0.0718420685,
				"z": 1.0435717957,
				"element": "C" 
			},
			{
				"x": 1.7388300102,
				"y": -1.6143037782,
				"z": 0.5663232024,
				"element": "Cl" 
			},
			{
				"x": -3.2308480588,
				"y": -1.3923869399,
				"z": -3.4298279401,
				"element": "H" 
			},
			{
				"x": -2.8577562926,
				"y": -2.4595412349,
				"z": -2.0501249212,
				"element": "H" 
			},
			{
				"x": -1.5858642624,
				"y": -1.4281435719,
				"z": -2.7547004947,
				"element": "H" 
			},
			{
				"x": -3.1373799068,
				"y": 0.1253101536,
				"z": 0.2901435514,
				"element": "H" 
			},
			{
				"x": -2.3565863148,
				"y": -1.443814138,
				"z": 0.0115813077,
				"element": "H" 
			},
			{
				"x": -0.4106424821,
				"y": -0.2377224145,
				"z": -1.0788784455,
				"element": "H" 
			},
			{
				"x": -1.2177625794,
				"y": 1.3113309307,
				"z": -0.7202577877,
				"element": "H" 
			},
			{
				"x": 1.9877073953,
				"y": 3.7704899746,
				"z": 2.1309470634,
				"element": "H" 
			},
			{
				"x": 5.1755319007,
				"y": 2.105829307,
				"z": 1.6144867622,
				"element": "H" 
			},
			{
				"x": 4.4142991129,
				"y": 3.557671766,
				"z": 1.9691099079,
				"element": "H" 
			},
			{
				"x": 3.9459969974,
				"y": 0.032968271,
				"z": 1.2203788417,
				"element": "H" 
			}
		],
		 "valence_orbital": [ 
			{
				"type": "occ",
				"energy": -0.28914,
				"method": "rhf"
			},
			{
				"type": "occ",
				"energy": -0.2808,
				"method": "rhf"
			},
			{
				"type": "occ",
				"energy": -0.25478,
				"method": "rhf"
			},
			{
				"type": "occ",
				"energy": -0.24839,
				"method": "rhf"
			},
			{
				"type": "occ",
				"energy": -0.21447,
				"method": "rhf"
			},
			{
				"type": "unocc",
				"energy": -0.02062,
				"method": "rhf"
			},
			{
				"type": "unocc",
				"energy": -0.00056,
				"method": "rhf"
			},
			{
				"type": "unocc",
				"energy": 0.00847,
				"method": "rhf"
			},
			{
				"type": "unocc",
				"energy": 0.05286,
				"method": "rhf"
			},
			{
				"type": "unocc",
				"energy": 0.06726,
				"method": "rhf"
			}
		],
		"cosmo_sigma_profile": { 
			"-0.025": 0.0,
			"-0.024": 0.0,
			"-0.023": 0.0,
			"-0.022": 0.0,
			"-0.021": 0.0,
			"-0.02": 0.0,
			"-0.019": 0.0,
			"-0.018": 0.0,
			"-0.017": 0.0,
			"-0.016": 0.0,
			"-0.015": 0.0,
			"-0.014": 0.0857693056767,
			"-0.013": 2.73314542595,
			"-0.012": 2.73575562815,
			"-0.011": 3.57313080294,
			"-0.01": 3.49394492021,
			"-0.009": 3.70078711308,
			"-0.008": 4.03818608622,
			"-0.007": 3.16890476235,
			"-0.006": 5.56009374563,
			"-0.005": 9.22453278158,
			"-0.004": 19.3197368532,
			"-0.003": 21.6554026473,
			"-0.002": 23.8347370845,
			"-0.001": 17.0242759577,
			"0.0": 14.9087785848,
			"0.001": 17.9223292348,
			"0.002": 27.0198432349,
			"0.003": 24.6918512587,
			"0.004": 19.611475981,
			"0.005": 11.2313827666,
			"0.006": 5.06266527226,
			"0.007": 4.11278739473,
			"0.008": 3.48467334864,
			"0.009": 3.99778009321,
			"0.01": 2.90406841608,
			"0.011": 2.18376508978,
			"0.012": 2.27930182627,
			"0.013": 1.97157992381,
			"0.014": 0.30699175097,
			"0.015": 0.0,
			"0.016": 0.0,
			"0.017": 0.0,
			"0.018": 0.0,
			"0.019": 0.0,
			"0.02": 0.0,
			"0.021": 0.0,
			"0.022": 0.0,
			"0.023": 0.0,
			"0.024": 0.0,
			"0.025": 0.0
		}
	}
}
