{
	 "smiles": "OC(=O)C(SC1=C(F)C=CC(F)=C1)C1=CC=CC=C1", 
	 "Tm": 380.15, 
	 "num_atms": 29, 
	 "gaussian": { 
		 "optdone": 1, 
		 "sigma_profile": "yes", 
		 "theory": "DFT", 
		 "functional": "B3LYP", 
		 "basiset": "6-31G**", 
		 "properties": { 
			 "R2extent": 4890.7896, 
			 "electric_dipole_moment_norm": 1.22376784563, 
			 "electric_quadrupole_moment_norm": 11.8004324599, 
			 "total_energy": -1287.82449815, 
			 "HOMO_LUMO_gap": 0.18931, 
			 "cosmo_polarized_energy": -12.39, 
			 "cosmo_cavitation_energy": 36.0, 
			 "cosmo_dispersion_energy": -24.38, 
			 "cosmo_repulsion_energy": 1.82, 
			 "cosmo_total_nonelectrostatic_energy": 13.43, 
			 "SMD_solvation_energy": 7.39 
		},
		"coords": [
			{
				"x": -0.627828513,
				"y": -2.0485545894,
				"z": -3.0983654162,
				"element": "O" 
			},
			{
				"x": -0.4226393078,
				"y": -1.6235191745,
				"z": -1.8310057789,
				"element": "C" 
			},
			{
				"x": -0.7696757296,
				"y": -2.2684711795,
				"z": -0.8636207902,
				"element": "O" 
			},
			{
				"x": 0.2419619526,
				"y": -0.2586176271,
				"z": -1.8208621726,
				"element": "C" 
			},
			{
				"x": -1.1072113356,
				"y": 1.0197645361,
				"z": -1.4885562116,
				"element": "S" 
			},
			{
				"x": -1.3692411673,
				"y": 0.9107710889,
				"z": 0.2718915233,
				"element": "C" 
			},
			{
				"x": -0.6634486772,
				"y": 1.7442321602,
				"z": 1.1508542341,
				"element": "C" 
			},
			{
				"x": 0.2665279753,
				"y": 2.5863946412,
				"z": 0.6732434787,
				"element": "F" 
			},
			{
				"x": -0.9017831371,
				"y": 1.7336347459,
				"z": 2.521736153,
				"element": "C" 
			},
			{
				"x": -1.8651750724,
				"y": 0.8731623915,
				"z": 3.0446512106,
				"element": "C" 
			},
			{
				"x": -2.5669901302,
				"y": 0.0431947194,
				"z": 2.175919329,
				"element": "C" 
			},
			{
				"x": -3.502125919,
				"y": -0.7889141484,
				"z": 2.6790708777,
				"element": "F" 
			},
			{
				"x": -2.338467982,
				"y": 0.0496509343,
				"z": 0.806447847,
				"element": "C" 
			},
			{
				"x": 1.4663593431,
				"y": -0.1262444343,
				"z": -0.9470784608,
				"element": "C" 
			},
			{
				"x": 1.5914302262,
				"y": -0.7771440084,
				"z": 0.2888956496,
				"element": "C" 
			},
			{
				"x": 2.7457094278,
				"y": -0.6078806783,
				"z": 1.0565039221,
				"element": "C" 
			},
			{
				"x": 3.7818471694,
				"y": 0.2109744134,
				"z": 0.6078967065,
				"element": "C" 
			},
			{
				"x": 3.662227833,
				"y": 0.864526006,
				"z": -0.6209649802,
				"element": "C" 
			},
			{
				"x": 2.5138295323,
				"y": 0.6957013093,
				"z": -1.3904659328,
				"element": "C" 
			},
			{
				"x": -1.0900895966,
				"y": -2.9013551663,
				"z": -3.0282598459,
				"element": "H" 
			},
			{
				"x": 0.5023350734,
				"y": -0.0099865085,
				"z": -2.8517764042,
				"element": "H" 
			},
			{
				"x": -0.3305645306,
				"y": 2.3980761853,
				"z": 3.160448853,
				"element": "H" 
			},
			{
				"x": -2.076765144,
				"y": 0.8406096496,
				"z": 4.1076886495,
				"element": "H" 
			},
			{
				"x": -2.8994818294,
				"y": -0.6147604272,
				"z": 0.1613181135,
				"element": "H" 
			},
			{
				"x": 0.794414871,
				"y": -1.423855137,
				"z": 0.6350309302,
				"element": "H" 
			},
			{
				"x": 2.8325712334,
				"y": -1.1223352145,
				"z": 2.0093529314,
				"element": "H" 
			},
			{
				"x": 4.6778688404,
				"y": 0.3381398565,
				"z": 1.2086563083,
				"element": "H" 
			},
			{
				"x": 4.4640216409,
				"y": 1.5024200085,
				"z": -0.9814533765,
				"element": "H" 
			},
			{
				"x": 2.4237829532,
				"y": 1.2093856474,
				"z": -2.3442973475,
				"element": "H" 
			}
		],
		 "valence_orbital": [ 
			{
				"type": "occ",
				"energy": -0.27246,
				"method": "rhf"
			},
			{
				"type": "occ",
				"energy": -0.25396,
				"method": "rhf"
			},
			{
				"type": "occ",
				"energy": -0.24953,
				"method": "rhf"
			},
			{
				"type": "occ",
				"energy": -0.24155,
				"method": "rhf"
			},
			{
				"type": "occ",
				"energy": -0.23728,
				"method": "rhf"
			},
			{
				"type": "unocc",
				"energy": -0.04797,
				"method": "rhf"
			},
			{
				"type": "unocc",
				"energy": -0.02016,
				"method": "rhf"
			},
			{
				"type": "unocc",
				"energy": -0.00256,
				"method": "rhf"
			},
			{
				"type": "unocc",
				"energy": 0.00013,
				"method": "rhf"
			},
			{
				"type": "unocc",
				"energy": 0.00736,
				"method": "rhf"
			}
		],
		"cosmo_sigma_profile": { 
			"-0.025": 0.0,
			"-0.024": 0.0,
			"-0.023": 0.0,
			"-0.022": 0.0,
			"-0.021": 0.0,
			"-0.02": 0.0,
			"-0.019": 0.205102601249,
			"-0.018": 0.923242165402,
			"-0.017": 1.36465216543,
			"-0.016": 0.313470346435,
			"-0.015": 0.952376680117,
			"-0.014": 0.352842976421,
			"-0.013": 0.357859172269,
			"-0.012": 1.51108099279,
			"-0.011": 0.805125201718,
			"-0.01": 0.621984697926,
			"-0.009": 1.89514060479,
			"-0.008": 6.87521248455,
			"-0.007": 8.58972422251,
			"-0.006": 13.4984402219,
			"-0.005": 14.2534991785,
			"-0.004": 16.8366179781,
			"-0.003": 15.6866086824,
			"-0.002": 15.1123370103,
			"-0.001": 18.840830985,
			"0.0": 25.1696695347,
			"0.001": 26.2314420102,
			"0.002": 22.6543088579,
			"0.003": 22.4760581213,
			"0.004": 29.8141725809,
			"0.005": 18.9769691321,
			"0.006": 9.53818126459,
			"0.007": 4.55892453146,
			"0.008": 4.64396058497,
			"0.009": 2.25492468181,
			"0.01": 2.12474013485,
			"0.011": 2.30599713367,
			"0.012": 0.527585832929,
			"0.013": 0.0,
			"0.014": 0.0,
			"0.015": 0.0,
			"0.016": 0.0,
			"0.017": 0.0,
			"0.018": 0.0,
			"0.019": 0.0,
			"0.02": 0.0,
			"0.021": 0.0,
			"0.022": 0.0,
			"0.023": 0.0,
			"0.024": 0.0,
			"0.025": 0.0
		}
	}
}
