{
	 "smiles": "CCCC1=CC=C(C)C=C1", 
	 "Tm": 209.35, 
	 "num_atms": 24, 
	 "gaussian": { 
		 "optdone": 1, 
		 "sigma_profile": "yes", 
		 "theory": "DFT", 
		 "functional": "B3LYP", 
		 "basiset": "6-31G**", 
		 "properties": { 
			 "R2extent": 2010.4882, 
			 "electric_dipole_moment_norm": 0.147814512143, 
			 "electric_quadrupole_moment_norm": 4.25234503421, 
			 "total_energy": -389.523633885, 
			 "HOMO_LUMO_gap": 0.23131, 
			 "cosmo_polarized_energy": -3.0, 
			 "cosmo_cavitation_energy": 26.12, 
			 "cosmo_dispersion_energy": -18.72, 
			 "cosmo_repulsion_energy": 1.54, 
			 "cosmo_total_nonelectrostatic_energy": 8.94, 
			 "SMD_solvation_energy": 4.33 
		},
		"coords": [
			{
				"x": 0.2762277727,
				"y": 3.6505061406,
				"z": -1.0831136599,
				"element": "C" 
			},
			{
				"x": -0.4140240458,
				"y": 2.7574460816,
				"z": -2.1179304187,
				"element": "C" 
			},
			{
				"x": -1.2310599128,
				"y": 1.5996743884,
				"z": -1.501912671,
				"element": "C" 
			},
			{
				"x": -0.3926531796,
				"y": 0.5735971456,
				"z": -0.7676494561,
				"element": "C" 
			},
			{
				"x": -0.3264419169,
				"y": 0.5422125529,
				"z": 0.630078528,
				"element": "C" 
			},
			{
				"x": 0.463157208,
				"y": -0.3976604885,
				"z": 1.2958521846,
				"element": "C" 
			},
			{
				"x": 1.2166984598,
				"y": -1.340652839,
				"z": 0.5884780978,
				"element": "C" 
			},
			{
				"x": 2.0913451768,
				"y": -2.3437260374,
				"z": 1.3039602359,
				"element": "C" 
			},
			{
				"x": 1.1464982296,
				"y": -1.3141468164,
				"z": -0.81198788,
				"element": "C" 
			},
			{
				"x": 0.3587629647,
				"y": -0.3764078727,
				"z": -1.475679588,
				"element": "C" 
			},
			{
				"x": 0.8403163483,
				"y": 4.453571639,
				"z": -1.568724269,
				"element": "H" 
			},
			{
				"x": -0.4558791846,
				"y": 4.1170618549,
				"z": -0.4133147312,
				"element": "H" 
			},
			{
				"x": 0.9734365596,
				"y": 3.0772852074,
				"z": -0.4641121004,
				"element": "H" 
			},
			{
				"x": -1.087387924,
				"y": 3.3658749129,
				"z": -2.7353261411,
				"element": "H" 
			},
			{
				"x": 0.3363407712,
				"y": 2.3394474619,
				"z": -2.8013763289,
				"element": "H" 
			},
			{
				"x": -1.788758298,
				"y": 1.101888237,
				"z": -2.3053824303,
				"element": "H" 
			},
			{
				"x": -1.9802777029,
				"y": 2.0169524052,
				"z": -0.8172456491,
				"element": "H" 
			},
			{
				"x": -0.9069639281,
				"y": 1.2576844766,
				"z": 1.2078351996,
				"element": "H" 
			},
			{
				"x": 0.4892675737,
				"y": -0.3996608841,
				"z": 2.3831636128,
				"element": "H" 
			},
			{
				"x": 1.7854071282,
				"y": -2.4695495007,
				"z": 2.3467239415,
				"element": "H" 
			},
			{
				"x": 3.1418806527,
				"y": -2.0263864317,
				"z": 1.3074784345,
				"element": "H" 
			},
			{
				"x": 2.0540617819,
				"y": -3.3255665966,
				"z": 0.8206823109,
				"element": "H" 
			},
			{
				"x": 1.711498835,
				"y": -2.0430397118,
				"z": -1.3889371543,
				"element": "H" 
			},
			{
				"x": 0.3178466305,
				"y": -0.3871053253,
				"z": -2.5628600675,
				"element": "H" 
			}
		],
		 "valence_orbital": [ 
			{
				"type": "occ",
				"energy": -0.32636,
				"method": "rhf"
			},
			{
				"type": "occ",
				"energy": -0.32194,
				"method": "rhf"
			},
			{
				"type": "occ",
				"energy": -0.31669,
				"method": "rhf"
			},
			{
				"type": "occ",
				"energy": -0.24182,
				"method": "rhf"
			},
			{
				"type": "occ",
				"energy": -0.22621,
				"method": "rhf"
			},
			{
				"type": "unocc",
				"energy": 0.0051,
				"method": "rhf"
			},
			{
				"type": "unocc",
				"energy": 0.00718,
				"method": "rhf"
			},
			{
				"type": "unocc",
				"energy": 0.09644,
				"method": "rhf"
			},
			{
				"type": "unocc",
				"energy": 0.10798,
				"method": "rhf"
			},
			{
				"type": "unocc",
				"energy": 0.12407,
				"method": "rhf"
			}
		],
		"cosmo_sigma_profile": { 
			"-0.025": 0.0,
			"-0.024": 0.0,
			"-0.023": 0.0,
			"-0.022": 0.0,
			"-0.021": 0.0,
			"-0.02": 0.0,
			"-0.019": 0.0,
			"-0.018": 0.0,
			"-0.017": 0.0,
			"-0.016": 0.0,
			"-0.015": 0.0,
			"-0.014": 0.0,
			"-0.013": 0.0,
			"-0.012": 0.0,
			"-0.011": 0.0,
			"-0.01": 0.0,
			"-0.009": 0.0,
			"-0.008": 0.0,
			"-0.007": 0.0,
			"-0.006": 0.00524742051118,
			"-0.005": 4.16911469406,
			"-0.004": 12.3991906842,
			"-0.003": 24.2325495615,
			"-0.002": 28.2046408161,
			"-0.001": 27.9449154609,
			"0.0": 30.6560283782,
			"0.001": 26.3596014183,
			"0.002": 15.4941589612,
			"0.003": 8.14281065655,
			"0.004": 6.70806318934,
			"0.005": 7.57809942329,
			"0.006": 6.63756861691,
			"0.007": 5.61389086699,
			"0.008": 0.220001599006,
			"0.009": 0.0,
			"0.01": 0.0,
			"0.011": 0.0,
			"0.012": 0.0,
			"0.013": 0.0,
			"0.014": 0.0,
			"0.015": 0.0,
			"0.016": 0.0,
			"0.017": 0.0,
			"0.018": 0.0,
			"0.019": 0.0,
			"0.02": 0.0,
			"0.021": 0.0,
			"0.022": 0.0,
			"0.023": 0.0,
			"0.024": 0.0,
			"0.025": 0.0
		}
	}
}
