{
	 "smiles": "FC1=C2C=CC=NC2=C(CBr)C=C1", 
	 "Tm": 368.15, 
	 "num_atms": 20, 
	 "gaussian": { 
		 "optdone": 1, 
		 "sigma_profile": "yes", 
		 "theory": "DFT", 
		 "functional": "B3LYP", 
		 "basiset": "6-31G**", 
		 "properties": { 
			 "R2extent": 3875.9665, 
			 "electric_dipole_moment_norm": 2.92847653226, 
			 "electric_quadrupole_moment_norm": 13.3274315583, 
			 "total_energy": -3111.28448036, 
			 "HOMO_LUMO_gap": 0.16563, 
			 "cosmo_polarized_energy": -8.32, 
			 "cosmo_cavitation_energy": 26.87, 
			 "cosmo_dispersion_energy": -19.87, 
			 "cosmo_repulsion_energy": 1.54, 
			 "cosmo_total_nonelectrostatic_energy": 8.54, 
			 "SMD_solvation_energy": 2.68 
		},
		"coords": [
			{
				"x": -1.2149877865,
				"y": -3.0742426552,
				"z": 1.8681696126,
				"element": "F" 
			},
			{
				"x": -0.9583005877,
				"y": -2.1268542675,
				"z": 0.9416104866,
				"element": "C" 
			},
			{
				"x": -0.7118090942,
				"y": -0.8098219774,
				"z": 1.3972251098,
				"element": "C" 
			},
			{
				"x": -0.7213783234,
				"y": -0.4485615793,
				"z": 2.7667544011,
				"element": "C" 
			},
			{
				"x": -0.4652154347,
				"y": 0.8579849223,
				"z": 3.1081174534,
				"element": "C" 
			},
			{
				"x": -0.1929483705,
				"y": 1.7891919352,
				"z": 2.0753431064,
				"element": "C" 
			},
			{
				"x": -0.175338139,
				"y": 1.4890945697,
				"z": 0.791847352,
				"element": "N" 
			},
			{
				"x": -0.4379752636,
				"y": 0.2037927599,
				"z": 0.4247729294,
				"element": "C" 
			},
			{
				"x": -0.4277014856,
				"y": -0.1352196877,
				"z": -0.9672466636,
				"element": "C" 
			},
			{
				"x": -0.1536476927,
				"y": 0.9172610163,
				"z": -1.9857660585,
				"element": "C" 
			},
			{
				"x": -1.8460928179,
				"y": 1.7687553278,
				"z": -2.6581752167,
				"element": "Br" 
			},
			{
				"x": -0.6730407149,
				"y": -1.44537909,
				"z": -1.3374529063,
				"element": "C" 
			},
			{
				"x": -0.9394394553,
				"y": -2.4574096471,
				"z": -0.3886426085,
				"element": "C" 
			},
			{
				"x": -0.9292336269,
				"y": -1.2047513104,
				"z": 3.5161300497,
				"element": "H" 
			},
			{
				"x": -0.4634303911,
				"y": 1.1820863376,
				"z": 4.1436287964,
				"element": "H" 
			},
			{
				"x": 0.0218223488,
				"y": 2.8263247752,
				"z": 2.3300527744,
				"element": "H" 
			},
			{
				"x": 0.4113776552,
				"y": 1.7469754406,
				"z": -1.5721040839,
				"element": "H" 
			},
			{
				"x": 0.3155505884,
				"y": 0.5191007574,
				"z": -2.8829322535,
				"element": "H" 
			},
			{
				"x": -0.672443334,
				"y": -1.7075771792,
				"z": -2.3916351778,
				"element": "H" 
			},
			{
				"x": -1.1302680743,
				"y": -3.4802504483,
				"z": -0.6930971029,
				"element": "H" 
			}
		],
		 "valence_orbital": [ 
			{
				"type": "occ",
				"energy": -0.272,
				"method": "rhf"
			},
			{
				"type": "occ",
				"energy": -0.26852,
				"method": "rhf"
			},
			{
				"type": "occ",
				"energy": -0.2616,
				"method": "rhf"
			},
			{
				"type": "occ",
				"energy": -0.26069,
				"method": "rhf"
			},
			{
				"type": "occ",
				"energy": -0.23444,
				"method": "rhf"
			},
			{
				"type": "unocc",
				"energy": -0.06881,
				"method": "rhf"
			},
			{
				"type": "unocc",
				"energy": -0.03144,
				"method": "rhf"
			},
			{
				"type": "unocc",
				"energy": -0.01688,
				"method": "rhf"
			},
			{
				"type": "unocc",
				"energy": 0.04038,
				"method": "rhf"
			},
			{
				"type": "unocc",
				"energy": 0.07756,
				"method": "rhf"
			}
		],
		"cosmo_sigma_profile": { 
			"-0.025": 0.0,
			"-0.024": 0.0,
			"-0.023": 0.0,
			"-0.022": 0.0,
			"-0.021": 0.0,
			"-0.02": 0.0,
			"-0.019": 0.0,
			"-0.018": 0.0,
			"-0.017": 0.0,
			"-0.016": 0.0,
			"-0.015": 0.0,
			"-0.014": 0.0,
			"-0.013": 0.0,
			"-0.012": 0.0,
			"-0.011": 0.0,
			"-0.01": 0.0,
			"-0.009": 0.00561014276285,
			"-0.008": 4.43612662895,
			"-0.007": 12.8462762739,
			"-0.006": 13.3761742618,
			"-0.005": 12.3225541065,
			"-0.004": 10.4722967018,
			"-0.003": 11.0360251943,
			"-0.002": 11.2102232991,
			"-0.001": 15.8589308818,
			"0.0": 23.9220198605,
			"0.001": 24.3187782268,
			"0.002": 17.9343370413,
			"0.003": 14.3030011673,
			"0.004": 13.7422333896,
			"0.005": 7.41529710514,
			"0.006": 12.2063334337,
			"0.007": 8.21397602579,
			"0.008": 2.72036522632,
			"0.009": 1.19015602477,
			"0.01": 1.29168686285,
			"0.011": 0.598085078958,
			"0.012": 0.25254776295,
			"0.013": 0.0,
			"0.014": 0.0,
			"0.015": 0.0,
			"0.016": 0.0,
			"0.017": 0.0,
			"0.018": 0.0,
			"0.019": 0.0,
			"0.02": 0.0,
			"0.021": 0.0,
			"0.022": 0.0,
			"0.023": 0.0,
			"0.024": 0.0,
			"0.025": 0.0
		}
	}
}
