{
	 "smiles": "CSC(SC)=CC(=C(C#N)C#N)C1=CC=CC=C1", 
	 "Tm": 392.15, 
	 "num_atms": 30, 
	 "gaussian": { 
		 "optdone": 1, 
		 "sigma_profile": "yes", 
		 "theory": "DFT", 
		 "functional": "B3LYP", 
		 "basiset": "6-31G**", 
		 "properties": { 
			 "R2extent": 6622.8534, 
			 "electric_dipole_moment_norm": 6.39485729161, 
			 "electric_quadrupole_moment_norm": 27.4891986107, 
			 "total_energy": -1446.51776012, 
			 "HOMO_LUMO_gap": 0.1385, 
			 "cosmo_polarized_energy": -16.09, 
			 "cosmo_cavitation_energy": 39.16, 
			 "cosmo_dispersion_energy": -26.1, 
			 "cosmo_repulsion_energy": 1.99, 
			 "cosmo_total_nonelectrostatic_energy": 15.05, 
			 "SMD_solvation_energy": 9.38 
		},
		"coords": [
			{
				"x": 0.9735195003,
				"y": -0.7227882221,
				"z": 2.6612258393,
				"element": "C" 
			},
			{
				"x": -0.6216231144,
				"y": -0.0140369258,
				"z": 2.1014787721,
				"element": "S" 
			},
			{
				"x": -1.2104300376,
				"y": -1.2786539005,
				"z": 0.9956349426,
				"element": "C" 
			},
			{
				"x": -1.172755018,
				"y": -2.9945372591,
				"z": 1.5132528974,
				"element": "S" 
			},
			{
				"x": -2.0457326036,
				"y": -2.9352465462,
				"z": 3.1225605961,
				"element": "C" 
			},
			{
				"x": -1.6338213183,
				"y": -1.0420850765,
				"z": -0.2724142155,
				"element": "C" 
			},
			{
				"x": -1.5875042352,
				"y": 0.1977778878,
				"z": -1.0514895621,
				"element": "C" 
			},
			{
				"x": -2.1278275839,
				"y": 1.3792605797,
				"z": -0.604155753,
				"element": "C" 
			},
			{
				"x": -2.0987183858,
				"y": 2.5912488608,
				"z": -1.3713654139,
				"element": "C" 
			},
			{
				"x": -2.1002379236,
				"y": 3.5959415489,
				"z": -1.9583181986,
				"element": "N" 
			},
			{
				"x": -2.8827887293,
				"y": 1.467639693,
				"z": 0.6108089808,
				"element": "C" 
			},
			{
				"x": -3.5412270163,
				"y": 1.5604853819,
				"z": 1.5662330486,
				"element": "N" 
			},
			{
				"x": -0.953247465,
				"y": 0.0915285003,
				"z": -2.3939961439,
				"element": "C" 
			},
			{
				"x": -1.3388513451,
				"y": -0.9238395902,
				"z": -3.2872079436,
				"element": "C" 
			},
			{
				"x": -0.7354569957,
				"y": -1.0307606824,
				"z": -4.5380116544,
				"element": "C" 
			},
			{
				"x": 0.2760071868,
				"y": -0.1421291616,
				"z": -4.9089356578,
				"element": "C" 
			},
			{
				"x": 0.6751377098,
				"y": 0.8601392579,
				"z": -4.0238701114,
				"element": "C" 
			},
			{
				"x": 0.0645500518,
				"y": 0.9808770512,
				"z": -2.7766686254,
				"element": "C" 
			},
			{
				"x": 1.3859027551,
				"y": 0.0146831316,
				"z": 3.3536057829,
				"element": "H" 
			},
			{
				"x": 1.6573391939,
				"y": -0.8535703709,
				"z": 1.821113039,
				"element": "H" 
			},
			{
				"x": 0.8351209533,
				"y": -1.6718125579,
				"z": 3.1795290728,
				"element": "H" 
			},
			{
				"x": -1.5309849298,
				"y": -2.2863088653,
				"z": 3.8320970698,
				"element": "H" 
			},
			{
				"x": -3.0747287489,
				"y": -2.5980896977,
				"z": 2.989932045,
				"element": "H" 
			},
			{
				"x": -2.0417745405,
				"y": -3.9612911138,
				"z": 3.497263167,
				"element": "H" 
			},
			{
				"x": -1.951382947,
				"y": -1.9191029934,
				"z": -0.8329560163,
				"element": "H" 
			},
			{
				"x": -2.1341639869,
				"y": -1.6125947877,
				"z": -3.0192607126,
				"element": "H" 
			},
			{
				"x": -1.0573151239,
				"y": -1.8087108677,
				"z": -5.2237708396,
				"element": "H" 
			},
			{
				"x": 0.7496610002,
				"y": -0.2311453691,
				"z": -5.8819774953,
				"element": "H" 
			},
			{
				"x": 1.4642227179,
				"y": 1.552142081,
				"z": -4.3018011992,
				"element": "H" 
			},
			{
				"x": 0.3880109797,
				"y": 1.7569800137,
				"z": -2.0916357109,
				"element": "H" 
			}
		],
		 "valence_orbital": [ 
			{
				"type": "occ",
				"energy": -0.2866,
				"method": "rhf"
			},
			{
				"type": "occ",
				"energy": -0.2698,
				"method": "rhf"
			},
			{
				"type": "occ",
				"energy": -0.25719,
				"method": "rhf"
			},
			{
				"type": "occ",
				"energy": -0.25183,
				"method": "rhf"
			},
			{
				"type": "occ",
				"energy": -0.23504,
				"method": "rhf"
			},
			{
				"type": "unocc",
				"energy": -0.09654,
				"method": "rhf"
			},
			{
				"type": "unocc",
				"energy": -0.02739,
				"method": "rhf"
			},
			{
				"type": "unocc",
				"energy": -0.01758,
				"method": "rhf"
			},
			{
				"type": "unocc",
				"energy": -0.01434,
				"method": "rhf"
			},
			{
				"type": "unocc",
				"energy": -0.00241,
				"method": "rhf"
			}
		],
		"cosmo_sigma_profile": { 
			"-0.025": 0.0,
			"-0.024": 0.0,
			"-0.023": 0.0,
			"-0.022": 0.0,
			"-0.021": 0.0,
			"-0.02": 0.0,
			"-0.019": 0.0,
			"-0.018": 0.0,
			"-0.017": 0.0,
			"-0.016": 0.0,
			"-0.015": 0.0,
			"-0.014": 0.0,
			"-0.013": 0.0,
			"-0.012": 0.0,
			"-0.011": 0.0,
			"-0.01": 0.98110894911,
			"-0.009": 1.61100675769,
			"-0.008": 3.28061120086,
			"-0.007": 10.9388838348,
			"-0.006": 21.4993776548,
			"-0.005": 25.0120701895,
			"-0.004": 25.9063837371,
			"-0.003": 26.9455374956,
			"-0.002": 28.3511825269,
			"-0.001": 22.1000849569,
			"0.0": 17.809782111,
			"0.001": 18.7159320456,
			"0.002": 18.3147576119,
			"0.003": 19.6519018035,
			"0.004": 21.0360848492,
			"0.005": 10.3940737217,
			"0.006": 9.02200155189,
			"0.007": 8.63010004544,
			"0.008": 7.50473169538,
			"0.009": 6.41902132116,
			"0.01": 5.17055208595,
			"0.011": 5.26752982733,
			"0.012": 3.61277004741,
			"0.013": 0.357372652108,
			"0.014": 0.0,
			"0.015": 0.0,
			"0.016": 0.0,
			"0.017": 0.0,
			"0.018": 0.0,
			"0.019": 0.0,
			"0.02": 0.0,
			"0.021": 0.0,
			"0.022": 0.0,
			"0.023": 0.0,
			"0.024": 0.0,
			"0.025": 0.0
		}
	}
}
