{
	 "smiles": "OC(=O)CSC1=NC=CN1C1=CC(F)=CC=C1", 
	 "Tm": 414.15, 
	 "num_atms": 26, 
	 "gaussian": { 
		 "optdone": 1, 
		 "sigma_profile": "yes", 
		 "theory": "DFT", 
		 "functional": "B3LYP", 
		 "basiset": "6-31G**", 
		 "properties": { 
			 "R2extent": 5552.9379, 
			 "electric_dipole_moment_norm": 7.28990969629, 
			 "electric_quadrupole_moment_norm": 23.1086635505, 
			 "total_energy": -1182.57112155, 
			 "HOMO_LUMO_gap": 0.18131, 
			 "cosmo_polarized_energy": -15.81, 
			 "cosmo_cavitation_energy": 32.77, 
			 "cosmo_dispersion_energy": -23.85, 
			 "cosmo_repulsion_energy": 1.77, 
			 "cosmo_total_nonelectrostatic_energy": 10.69, 
			 "SMD_solvation_energy": 7.19 
		},
		"coords": [
			{
				"x": 2.6319615412,
				"y": -0.1291571696,
				"z": -2.595774461,
				"element": "O" 
			},
			{
				"x": 1.5610754965,
				"y": 0.2089935877,
				"z": -3.3124012575,
				"element": "C" 
			},
			{
				"x": 1.6302849821,
				"y": 0.8734089782,
				"z": -4.3218650051,
				"element": "O" 
			},
			{
				"x": 0.2076375336,
				"y": -0.325944861,
				"z": -2.8167521624,
				"element": "C" 
			},
			{
				"x": -0.3902496065,
				"y": 0.3645368501,
				"z": -1.213443786,
				"element": "S" 
			},
			{
				"x": 0.5047418887,
				"y": -0.6611817242,
				"z": -0.0888049461,
				"element": "C" 
			},
			{
				"x": 1.6269683009,
				"y": -1.3002390542,
				"z": -0.3698524313,
				"element": "N" 
			},
			{
				"x": 1.9579726329,
				"y": -2.018981469,
				"z": 0.7601926982,
				"element": "C" 
			},
			{
				"x": 1.0301666279,
				"y": -1.8049299868,
				"z": 1.7372795781,
				"element": "C" 
			},
			{
				"x": 0.091466499,
				"y": -0.9286474085,
				"z": 1.1952926727,
				"element": "N" 
			},
			{
				"x": -1.0760791255,
				"y": -0.452070893,
				"z": 1.8618396636,
				"element": "C" 
			},
			{
				"x": -1.9177168639,
				"y": -1.3743941051,
				"z": 2.4911341638,
				"element": "C" 
			},
			{
				"x": -3.0403625731,
				"y": -0.8933688271,
				"z": 3.1531891285,
				"element": "C" 
			},
			{
				"x": -3.8537525398,
				"y": -1.7756128166,
				"z": 3.762001747,
				"element": "F" 
			},
			{
				"x": -3.3575202527,
				"y": 0.4605305508,
				"z": 3.1953385834,
				"element": "C" 
			},
			{
				"x": -2.5057550079,
				"y": 1.3609621331,
				"z": 2.5563803115,
				"element": "C" 
			},
			{
				"x": -1.3579836926,
				"y": 0.9168572878,
				"z": 1.8977145276,
				"element": "C" 
			},
			{
				"x": 2.3779655013,
				"y": -0.6673197464,
				"z": -1.7932692464,
				"element": "H" 
			},
			{
				"x": 0.221178735,
				"y": -1.415653029,
				"z": -2.7280346231,
				"element": "H" 
			},
			{
				"x": -0.5493077517,
				"y": -0.0270373472,
				"z": -3.5421413413,
				"element": "H" 
			},
			{
				"x": 2.8484210744,
				"y": -2.6289295124,
				"z": 0.798067001,
				"element": "H" 
			},
			{
				"x": 0.9534862129,
				"y": -2.1429781333,
				"z": 2.7582748947,
				"element": "H" 
			},
			{
				"x": -1.7215924737,
				"y": -2.4395002178,
				"z": 2.4533551385,
				"element": "H" 
			},
			{
				"x": -4.2491070038,
				"y": 0.7862799232,
				"z": 3.7190681754,
				"element": "H" 
			},
			{
				"x": -2.7295923042,
				"y": 2.4224368804,
				"z": 2.5832708107,
				"element": "H" 
			},
			{
				"x": -0.6789078309,
				"y": 1.62374011,
				"z": 1.4342401657,
				"element": "H" 
			}
		],
		 "valence_orbital": [ 
			{
				"type": "occ",
				"energy": -0.28997,
				"method": "rhf"
			},
			{
				"type": "occ",
				"energy": -0.28095,
				"method": "rhf"
			},
			{
				"type": "occ",
				"energy": -0.26864,
				"method": "rhf"
			},
			{
				"type": "occ",
				"energy": -0.2532,
				"method": "rhf"
			},
			{
				"type": "occ",
				"energy": -0.22981,
				"method": "rhf"
			},
			{
				"type": "unocc",
				"energy": -0.0485,
				"method": "rhf"
			},
			{
				"type": "unocc",
				"energy": -0.0326,
				"method": "rhf"
			},
			{
				"type": "unocc",
				"energy": -0.00703,
				"method": "rhf"
			},
			{
				"type": "unocc",
				"energy": 0.00888,
				"method": "rhf"
			},
			{
				"type": "unocc",
				"energy": 0.03096,
				"method": "rhf"
			}
		],
		"cosmo_sigma_profile": { 
			"-0.025": 0.0,
			"-0.024": 0.0,
			"-0.023": 0.0,
			"-0.022": 0.0,
			"-0.021": 0.0,
			"-0.02": 0.0,
			"-0.019": 0.0,
			"-0.018": 0.0,
			"-0.017": 0.0,
			"-0.016": 0.0,
			"-0.015": 0.0,
			"-0.014": 0.0,
			"-0.013": 0.0,
			"-0.012": 0.0,
			"-0.011": 0.0,
			"-0.01": 0.310155631642,
			"-0.009": 3.21293968596,
			"-0.008": 11.5258533036,
			"-0.007": 15.8909708648,
			"-0.006": 15.7248808576,
			"-0.005": 15.3661934214,
			"-0.004": 13.2072966901,
			"-0.003": 14.5121305059,
			"-0.002": 14.8749238156,
			"-0.001": 17.0653381766,
			"0.0": 23.4417479508,
			"0.001": 22.727051533,
			"0.002": 21.4930075546,
			"0.003": 21.6164373393,
			"0.004": 17.318271261,
			"0.005": 6.04141597671,
			"0.006": 3.66027552741,
			"0.007": 2.24461281404,
			"0.008": 2.27348827091,
			"0.009": 3.34993145423,
			"0.01": 3.08349527693,
			"0.011": 5.61492676271,
			"0.012": 7.12038524284,
			"0.013": 3.43503592311,
			"0.014": 0.467835860176,
			"0.015": 0.0,
			"0.016": 0.0,
			"0.017": 0.0,
			"0.018": 0.0,
			"0.019": 0.0,
			"0.02": 0.0,
			"0.021": 0.0,
			"0.022": 0.0,
			"0.023": 0.0,
			"0.024": 0.0,
			"0.025": 0.0
		}
	}
}
