{
	 "smiles": "OC(=O)C1=C(C=CO1)C1=CC=C(F)C=C1", 
	 "Tm": 421.15, 
	 "num_atms": 22, 
	 "gaussian": { 
		 "optdone": 1, 
		 "sigma_profile": "yes", 
		 "theory": "DFT", 
		 "functional": "B3LYP", 
		 "basiset": "6-31G**", 
		 "properties": { 
			 "R2extent": 4091.801, 
			 "electric_dipole_moment_norm": 2.54199970102, 
			 "electric_quadrupole_moment_norm": 9.33827906201, 
			 "total_energy": -748.886016783, 
			 "HOMO_LUMO_gap": 0.1718, 
			 "cosmo_polarized_energy": -11.42, 
			 "cosmo_cavitation_energy": 27.8, 
			 "cosmo_dispersion_energy": -20.3, 
			 "cosmo_repulsion_energy": 1.54, 
			 "cosmo_total_nonelectrostatic_energy": 9.04, 
			 "SMD_solvation_energy": 7.32 
		},
		"coords": [
			{
				"x": 1.1014068044,
				"y": -3.870540013,
				"z": 0.9245918394,
				"element": "O" 
			},
			{
				"x": 0.7698182269,
				"y": -2.9463553969,
				"z": -0.0084201216,
				"element": "C" 
			},
			{
				"x": 0.8142252281,
				"y": -3.1838655584,
				"z": -1.2032882438,
				"element": "O" 
			},
			{
				"x": 0.370365201,
				"y": -1.6722742911,
				"z": 0.5868410652,
				"element": "C" 
			},
			{
				"x": 0.0896589049,
				"y": -0.4157211184,
				"z": 0.0670420521,
				"element": "C" 
			},
			{
				"x": -0.1604288416,
				"y": 0.4110052838,
				"z": 1.2151043549,
				"element": "C" 
			},
			{
				"x": -0.0211741737,
				"y": -0.3803922906,
				"z": 2.3136072893,
				"element": "C" 
			},
			{
				"x": 0.3043390607,
				"y": -1.6397691439,
				"z": 1.9586571826,
				"element": "O" 
			},
			{
				"x": 0.0481668495,
				"y": 0.0797872717,
				"z": -1.3211291488,
				"element": "C" 
			},
			{
				"x": -0.3760039143,
				"y": -0.7138922888,
				"z": -2.4016671806,
				"element": "C" 
			},
			{
				"x": -0.4439292779,
				"y": -0.1901872705,
				"z": -3.690115744,
				"element": "C" 
			},
			{
				"x": -0.0825689607,
				"y": 1.1353752223,
				"z": -3.9009151352,
				"element": "C" 
			},
			{
				"x": -0.1459993916,
				"y": 1.6438156497,
				"z": -5.1482229962,
				"element": "F" 
			},
			{
				"x": 0.3452092087,
				"y": 1.9519109679,
				"z": -2.8602833247,
				"element": "C" 
			},
			{
				"x": 0.4037410803,
				"y": 1.4178029489,
				"z": -1.5760271043,
				"element": "C" 
			},
			{
				"x": 1.3405460766,
				"y": -4.6656312599,
				"z": 0.4203720709,
				"element": "H" 
			},
			{
				"x": -0.4409441527,
				"y": 1.4538027771,
				"z": 1.2058349068,
				"element": "H" 
			},
			{
				"x": -0.1275844866,
				"y": -0.1999032241,
				"z": 3.3726593442,
				"element": "H" 
			},
			{
				"x": -0.6379937323,
				"y": -1.7495368019,
				"z": -2.233206178,
				"element": "H" 
			},
			{
				"x": -0.7719034853,
				"y": -0.7958458158,
				"z": -4.5278995735,
				"element": "H" 
			},
			{
				"x": 0.628051091,
				"y": 2.9791002353,
				"z": -3.0628932639,
				"element": "H" 
			},
			{
				"x": 0.7523026847,
				"y": 2.0456141166,
				"z": -0.7620420908,
				"element": "H" 
			}
		],
		 "valence_orbital": [ 
			{
				"type": "occ",
				"energy": -0.30194,
				"method": "rhf"
			},
			{
				"type": "occ",
				"energy": -0.28249,
				"method": "rhf"
			},
			{
				"type": "occ",
				"energy": -0.26042,
				"method": "rhf"
			},
			{
				"type": "occ",
				"energy": -0.2569,
				"method": "rhf"
			},
			{
				"type": "occ",
				"energy": -0.22809,
				"method": "rhf"
			},
			{
				"type": "unocc",
				"energy": -0.05629,
				"method": "rhf"
			},
			{
				"type": "unocc",
				"energy": -0.0114,
				"method": "rhf"
			},
			{
				"type": "unocc",
				"energy": 0.00182,
				"method": "rhf"
			},
			{
				"type": "unocc",
				"energy": 0.0396,
				"method": "rhf"
			},
			{
				"type": "unocc",
				"energy": 0.07942,
				"method": "rhf"
			}
		],
		"cosmo_sigma_profile": { 
			"-0.025": 0.0,
			"-0.024": 0.0,
			"-0.023": 0.0,
			"-0.022": 0.0,
			"-0.021": 0.0,
			"-0.02": 0.0,
			"-0.019": 0.0314805181867,
			"-0.018": 0.863380339991,
			"-0.017": 0.855850014882,
			"-0.016": 0.745656295979,
			"-0.015": 0.905045676186,
			"-0.014": 0.842388218919,
			"-0.013": 0.855655990653,
			"-0.012": 0.187968404391,
			"-0.011": 0.946698334817,
			"-0.01": 2.74035587848,
			"-0.009": 1.76176228215,
			"-0.008": 5.18215486279,
			"-0.007": 9.45585794236,
			"-0.006": 9.3884888363,
			"-0.005": 10.095227684,
			"-0.004": 9.66779645342,
			"-0.003": 11.6744580853,
			"-0.002": 12.2542370723,
			"-0.001": 12.0553359732,
			"0.0": 19.6788487843,
			"0.001": 22.8766510859,
			"0.002": 20.0571162801,
			"0.003": 20.5585524905,
			"0.004": 18.8119466089,
			"0.005": 6.6272923996,
			"0.006": 3.86079224372,
			"0.007": 3.20760760507,
			"0.008": 2.88721144768,
			"0.009": 4.7120801893,
			"0.01": 4.07886916034,
			"0.011": 4.19554216474,
			"0.012": 2.17155415586,
			"0.013": 0.0756760856206,
			"0.014": 0.0,
			"0.015": 0.0,
			"0.016": 0.0,
			"0.017": 0.0,
			"0.018": 0.0,
			"0.019": 0.0,
			"0.02": 0.0,
			"0.021": 0.0,
			"0.022": 0.0,
			"0.023": 0.0,
			"0.024": 0.0,
			"0.025": 0.0
		}
	}
}
