{
	 "smiles": "CCS(=O)(=O)CCOC1=CC=C(C=C1)S(Cl)(=O)=O", 
	 "Tm": 366.15, 
	 "num_atms": 31, 
	 "gaussian": { 
		 "optdone": 1, 
		 "sigma_profile": "yes", 
		 "theory": "DFT", 
		 "functional": "B3LYP", 
		 "basiset": "6-31G**", 
		 "properties": { 
			 "R2extent": 11370.2261, 
			 "electric_dipole_moment_norm": 10.3088566126, 
			 "electric_quadrupole_moment_norm": 15.3000446702, 
			 "total_energy": -2021.45160923, 
			 "HOMO_LUMO_gap": 0.17563, 
			 "cosmo_polarized_energy": -26.26, 
			 "cosmo_cavitation_energy": 40.33, 
			 "cosmo_dispersion_energy": -29.29, 
			 "cosmo_repulsion_energy": 2.19, 
			 "cosmo_total_nonelectrostatic_energy": 13.23, 
			 "SMD_solvation_energy": 5.03 
		},
		"coords": [
			{
				"x": -4.726441325,
				"y": 3.524735312,
				"z": 0.3764181487,
				"element": "C" 
			},
			{
				"x": -3.2508491791,
				"y": 3.725967514,
				"z": 0.0354085704,
				"element": "C" 
			},
			{
				"x": -2.3522403747,
				"y": 2.1473049241,
				"z": 0.188975626,
				"element": "S" 
			},
			{
				"x": -2.2633957601,
				"y": 1.8072866419,
				"z": 1.6212531991,
				"element": "O" 
			},
			{
				"x": -2.9351964522,
				"y": 1.2007027797,
				"z": -0.7732256919,
				"element": "O" 
			},
			{
				"x": -0.6545913288,
				"y": 2.5973418983,
				"z": -0.3499176622,
				"element": "C" 
			},
			{
				"x": 0.3736474075,
				"y": 1.6226753492,
				"z": 0.1987096431,
				"element": "C" 
			},
			{
				"x": 0.1931306933,
				"y": 0.3825992803,
				"z": -0.4775804259,
				"element": "O" 
			},
			{
				"x": 0.942704785,
				"y": -0.6867939978,
				"z": -0.1124072011,
				"element": "C" 
			},
			{
				"x": 0.647162247,
				"y": -1.8845242795,
				"z": -0.7879079468,
				"element": "C" 
			},
			{
				"x": 1.3610518413,
				"y": -3.0366861635,
				"z": -0.5043694113,
				"element": "C" 
			},
			{
				"x": 2.3770090975,
				"y": -2.9843122837,
				"z": 0.4586535331,
				"element": "C" 
			},
			{
				"x": 2.6782291859,
				"y": -1.8070525841,
				"z": 1.1410599309,
				"element": "C" 
			},
			{
				"x": 1.959798985,
				"y": -0.6486340058,
				"z": 0.8532621269,
				"element": "C" 
			},
			{
				"x": 3.3115800632,
				"y": -4.4506541906,
				"z": 0.8154508375,
				"element": "S" 
			},
			{
				"x": 2.1401167783,
				"y": -5.3580870092,
				"z": 2.3609211729,
				"element": "Cl" 
			},
			{
				"x": 4.5762075352,
				"y": -4.0823156318,
				"z": 1.4416474881,
				"element": "O" 
			},
			{
				"x": 3.2412898062,
				"y": -5.3616845704,
				"z": -0.3208366795,
				"element": "O" 
			},
			{
				"x": -4.8407737595,
				"y": 3.1706104566,
				"z": 1.4037743964,
				"element": "H" 
			},
			{
				"x": -5.1823728613,
				"y": 2.7959176437,
				"z": -0.2974644801,
				"element": "H" 
			},
			{
				"x": -5.257411057,
				"y": 4.4752115485,
				"z": 0.2752226936,
				"element": "H" 
			},
			{
				"x": -3.1122408305,
				"y": 4.0637268601,
				"z": -0.9964444754,
				"element": "H" 
			},
			{
				"x": -2.7637498842,
				"y": 4.4306369481,
				"z": 0.7155848265,
				"element": "H" 
			},
			{
				"x": -0.4532066589,
				"y": 3.5986224028,
				"z": 0.0420764192,
				"element": "H" 
			},
			{
				"x": -0.6478686691,
				"y": 2.6175480014,
				"z": -1.441993591,
				"element": "H" 
			},
			{
				"x": 1.3818393566,
				"y": 2.0174518381,
				"z": 0.0116821616,
				"element": "H" 
			},
			{
				"x": 0.2314794769,
				"y": 1.4983734697,
				"z": 1.2785859058,
				"element": "H" 
			},
			{
				"x": -0.1472750127,
				"y": -1.878948653,
				"z": -1.5258101761,
				"element": "H" 
			},
			{
				"x": 1.1480280408,
				"y": -3.9645896855,
				"z": -1.0229384305,
				"element": "H" 
			},
			{
				"x": 3.4723614468,
				"y": -1.7940396314,
				"z": 1.8790390816,
				"element": "H" 
			},
			{
				"x": 2.2000764064,
				"y": 0.2667098178,
				"z": 1.3795704105,
				"element": "H" 
			}
		],
		 "valence_orbital": [ 
			{
				"type": "occ",
				"energy": -0.3047,
				"method": "rhf"
			},
			{
				"type": "occ",
				"energy": -0.30465,
				"method": "rhf"
			},
			{
				"type": "occ",
				"energy": -0.2947,
				"method": "rhf"
			},
			{
				"type": "occ",
				"energy": -0.28631,
				"method": "rhf"
			},
			{
				"type": "occ",
				"energy": -0.25713,
				"method": "rhf"
			},
			{
				"type": "unocc",
				"energy": -0.0815,
				"method": "rhf"
			},
			{
				"type": "unocc",
				"energy": -0.03497,
				"method": "rhf"
			},
			{
				"type": "unocc",
				"energy": -0.0301,
				"method": "rhf"
			},
			{
				"type": "unocc",
				"energy": 0.03082,
				"method": "rhf"
			},
			{
				"type": "unocc",
				"energy": 0.05424,
				"method": "rhf"
			}
		],
		"cosmo_sigma_profile": { 
			"-0.025": 0.0,
			"-0.024": 0.0,
			"-0.023": 0.0,
			"-0.022": 0.0,
			"-0.021": 0.0,
			"-0.02": 0.0,
			"-0.019": 0.0,
			"-0.018": 0.0,
			"-0.017": 0.0,
			"-0.016": 0.0,
			"-0.015": 0.0,
			"-0.014": 0.0,
			"-0.013": 0.0,
			"-0.012": 0.163230986172,
			"-0.011": 0.902544129711,
			"-0.01": 3.31532314938,
			"-0.009": 8.81390443297,
			"-0.008": 18.8148161013,
			"-0.007": 20.4044378508,
			"-0.006": 16.3244728397,
			"-0.005": 17.3784036147,
			"-0.004": 17.4993399457,
			"-0.003": 16.3874250061,
			"-0.002": 16.9695756054,
			"-0.001": 20.5014196727,
			"0.0": 22.7740922103,
			"0.001": 24.9158124167,
			"0.002": 16.6766930661,
			"0.003": 15.3758704346,
			"0.004": 17.6572270834,
			"0.005": 6.29001168906,
			"0.006": 5.52428021857,
			"0.007": 8.72879278579,
			"0.008": 11.855531021,
			"0.009": 10.6955658464,
			"0.01": 3.88980459652,
			"0.011": 9.7351112383,
			"0.012": 9.5216376931,
			"0.013": 1.81455162053,
			"0.014": 0.0,
			"0.015": 0.0,
			"0.016": 0.0,
			"0.017": 0.0,
			"0.018": 0.0,
			"0.019": 0.0,
			"0.02": 0.0,
			"0.021": 0.0,
			"0.022": 0.0,
			"0.023": 0.0,
			"0.024": 0.0,
			"0.025": 0.0
		}
	}
}
