{
	 "smiles": "OC(=O)C1=CC(=CC=C1)C(F)(F)C(F)(F)F", 
	 "Tm": 368.15, 
	 "num_atms": 21, 
	 "gaussian": { 
		 "optdone": 1, 
		 "sigma_profile": "yes", 
		 "theory": "DFT", 
		 "functional": "B3LYP", 
		 "basiset": "6-31G**", 
		 "properties": { 
			 "R2extent": 4378.1038, 
			 "electric_dipole_moment_norm": 2.97004995413, 
			 "electric_quadrupole_moment_norm": 23.0638850929, 
			 "total_energy": -995.626954245, 
			 "HOMO_LUMO_gap": 0.21267, 
			 "cosmo_polarized_energy": -13.13, 
			 "cosmo_cavitation_energy": 28.38, 
			 "cosmo_dispersion_energy": -19.56, 
			 "cosmo_repulsion_energy": 1.43, 
			 "cosmo_total_nonelectrostatic_energy": 10.25, 
			 "SMD_solvation_energy": 7.85 
		},
		"coords": [
			{
				"x": -2.4163395379,
				"y": -0.7909108959,
				"z": -1.8854823405,
				"element": "O" 
			},
			{
				"x": -2.8462170558,
				"y": 0.154104809,
				"z": -1.0100992087,
				"element": "C" 
			},
			{
				"x": -4.002348442,
				"y": 0.1777217433,
				"z": -0.6613934491,
				"element": "O" 
			},
			{
				"x": -1.8255318828,
				"y": 1.1391253543,
				"z": -0.5153653492,
				"element": "C" 
			},
			{
				"x": -0.4491871926,
				"y": 0.8903481049,
				"z": -0.5492524762,
				"element": "C" 
			},
			{
				"x": 0.4464196286,
				"y": 1.8454184366,
				"z": -0.0634619177,
				"element": "C" 
			},
			{
				"x": -0.0268539777,
				"y": 3.0490350813,
				"z": 0.4654143332,
				"element": "C" 
			},
			{
				"x": -1.400400682,
				"y": 3.2921018743,
				"z": 0.5118752062,
				"element": "C" 
			},
			{
				"x": -2.296245052,
				"y": 2.3398677426,
				"z": 0.0337204676,
				"element": "C" 
			},
			{
				"x": 1.9258137599,
				"y": 1.5569930121,
				"z": -0.0748286293,
				"element": "C" 
			},
			{
				"x": 2.2492460431,
				"y": 0.7264642736,
				"z": -1.1100820524,
				"element": "F" 
			},
			{
				"x": 2.6432664895,
				"y": 2.7081142387,
				"z": -0.2138398667,
				"element": "F" 
			},
			{
				"x": 2.4396900801,
				"y": 0.8701553596,
				"z": 1.2109601832,
				"element": "C" 
			},
			{
				"x": 1.8094581814,
				"y": -0.3035038486,
				"z": 1.3847988911,
				"element": "F" 
			},
			{
				"x": 2.1970188951,
				"y": 1.6513515302,
				"z": 2.2761684739,
				"element": "F" 
			},
			{
				"x": 3.7558458436,
				"y": 0.6431739446,
				"z": 1.1364910817,
				"element": "F" 
			},
			{
				"x": -1.5240270894,
				"y": -0.5868923216,
				"z": -2.1977351412,
				"element": "H" 
			},
			{
				"x": -0.0542527004,
				"y": -0.0498015416,
				"z": -0.9213378309,
				"element": "H" 
			},
			{
				"x": 0.6764599296,
				"y": 3.7863829368,
				"z": 0.8358654067,
				"element": "H" 
			},
			{
				"x": -1.7691767854,
				"y": 4.2258325598,
				"z": 0.9243556314,
				"element": "H" 
			},
			{
				"x": -3.367838453,
				"y": 2.5025176061,
				"z": 0.0726285868,
				"element": "H" 
			}
		],
		 "valence_orbital": [ 
			{
				"type": "occ",
				"energy": -0.36015,
				"method": "rhf"
			},
			{
				"type": "occ",
				"energy": -0.32741,
				"method": "rhf"
			},
			{
				"type": "occ",
				"energy": -0.29234,
				"method": "rhf"
			},
			{
				"type": "occ",
				"energy": -0.29085,
				"method": "rhf"
			},
			{
				"type": "occ",
				"energy": -0.28017,
				"method": "rhf"
			},
			{
				"type": "unocc",
				"energy": -0.0675,
				"method": "rhf"
			},
			{
				"type": "unocc",
				"energy": -0.04909,
				"method": "rhf"
			},
			{
				"type": "unocc",
				"energy": 0.02885,
				"method": "rhf"
			},
			{
				"type": "unocc",
				"energy": 0.05084,
				"method": "rhf"
			},
			{
				"type": "unocc",
				"energy": 0.0717,
				"method": "rhf"
			}
		],
		"cosmo_sigma_profile": { 
			"-0.025": 0.0,
			"-0.024": 0.0,
			"-0.023": 0.0,
			"-0.022": 0.0,
			"-0.021": 0.0,
			"-0.02": 0.073924888054,
			"-0.019": 0.842662678925,
			"-0.018": 0.957408078368,
			"-0.017": 1.25544684725,
			"-0.016": 0.915065778392,
			"-0.015": 0.51030832212,
			"-0.014": 1.20230987831,
			"-0.013": 1.13485047457,
			"-0.012": 1.09315904482,
			"-0.011": 1.08044886594,
			"-0.01": 0.661883398694,
			"-0.009": 1.44712650179,
			"-0.008": 3.88324500208,
			"-0.007": 6.6898185415,
			"-0.006": 6.98108781368,
			"-0.005": 8.90853904497,
			"-0.004": 8.03240833776,
			"-0.003": 8.71388802164,
			"-0.002": 11.9079943718,
			"-0.001": 16.0142059754,
			"0.0": 25.9179295804,
			"0.001": 40.9710252274,
			"0.002": 39.5520387815,
			"0.003": 8.9681830327,
			"0.004": 2.49767170417,
			"0.005": 2.26150827087,
			"0.006": 1.84688405629,
			"0.007": 2.77416037925,
			"0.008": 2.85708860088,
			"0.009": 3.45305542684,
			"0.01": 5.37756489753,
			"0.011": 5.11064988825,
			"0.012": 3.65157909171,
			"0.013": 0.697758813145,
			"0.014": 0.0,
			"0.015": 0.0,
			"0.016": 0.0,
			"0.017": 0.0,
			"0.018": 0.0,
			"0.019": 0.0,
			"0.02": 0.0,
			"0.021": 0.0,
			"0.022": 0.0,
			"0.023": 0.0,
			"0.024": 0.0,
			"0.025": 0.0
		}
	}
}
