{
	 "smiles": "ClC1=NC(Cl)=C(Cl)N=N1", 
	 "Tm": 330.15, 
	 "num_atms": 9, 
	 "gaussian": { 
		 "optdone": 1, 
		 "sigma_profile": "yes", 
		 "theory": "DFT", 
		 "functional": "B3LYP", 
		 "basiset": "6-31G**", 
		 "properties": { 
			 "R2extent": 2420.5649, 
			 "electric_dipole_moment_norm": 1.72004185414, 
			 "electric_quadrupole_moment_norm": 5.78551834756, 
			 "total_energy": -1659.08325821, 
			 "HOMO_LUMO_gap": 0.17266, 
			 "cosmo_polarized_energy": -5.91, 
			 "cosmo_cavitation_energy": 20.07, 
			 "cosmo_dispersion_energy": -15.67, 
			 "cosmo_repulsion_energy": 1.3, 
			 "cosmo_total_nonelectrostatic_energy": 5.7, 
			 "SMD_solvation_energy": -0.36 
		},
		"coords": [
			{
				"x": -1.7416478167,
				"y": -1.5157955147,
				"z": 0.1515771807,
				"element": "Cl" 
			},
			{
				"x": -0.5154866434,
				"y": -0.3127450442,
				"z": 0.3744308159,
				"element": "C" 
			},
			{
				"x": -0.6583364832,
				"y": 0.8283116033,
				"z": -0.3028006403,
				"element": "N" 
			},
			{
				"x": 0.2818575299,
				"y": 1.7260808263,
				"z": -0.1182166855,
				"element": "C" 
			},
			{
				"x": 0.1539357505,
				"y": 3.228353749,
				"z": -0.9693415809,
				"element": "Cl" 
			},
			{
				"x": 1.3585943264,
				"y": 1.4457338857,
				"z": 0.7582362776,
				"element": "C" 
			},
			{
				"x": 2.6340507509,
				"y": 2.5751343566,
				"z": 1.0531488816,
				"element": "Cl" 
			},
			{
				"x": 1.4225583857,
				"y": 0.2864480382,
				"z": 1.3914068147,
				"element": "N" 
			},
			{
				"x": 0.4718741999,
				"y": -0.6300219002,
				"z": 1.2093589363,
				"element": "N" 
			}
		],
		 "valence_orbital": [ 
			{
				"type": "occ",
				"energy": -0.34686,
				"method": "rhf"
			},
			{
				"type": "occ",
				"energy": -0.34542,
				"method": "rhf"
			},
			{
				"type": "occ",
				"energy": -0.33444,
				"method": "rhf"
			},
			{
				"type": "occ",
				"energy": -0.29947,
				"method": "rhf"
			},
			{
				"type": "occ",
				"energy": -0.2834,
				"method": "rhf"
			},
			{
				"type": "unocc",
				"energy": -0.11074,
				"method": "rhf"
			},
			{
				"type": "unocc",
				"energy": -0.08053,
				"method": "rhf"
			},
			{
				"type": "unocc",
				"energy": -0.01701,
				"method": "rhf"
			},
			{
				"type": "unocc",
				"energy": 0.00263,
				"method": "rhf"
			},
			{
				"type": "unocc",
				"energy": 0.03086,
				"method": "rhf"
			}
		],
		"cosmo_sigma_profile": { 
			"-0.025": 0.0,
			"-0.024": 0.0,
			"-0.023": 0.0,
			"-0.022": 0.0,
			"-0.021": 0.0,
			"-0.02": 0.0,
			"-0.019": 0.0,
			"-0.018": 0.0,
			"-0.017": 0.0,
			"-0.016": 0.0,
			"-0.015": 0.0,
			"-0.014": 0.0,
			"-0.013": 0.0,
			"-0.012": 0.198898494846,
			"-0.011": 1.04632006012,
			"-0.01": 1.56270048178,
			"-0.009": 2.31892897181,
			"-0.008": 3.6309048761,
			"-0.007": 4.31872830419,
			"-0.006": 4.59760189237,
			"-0.005": 9.48091816308,
			"-0.004": 8.55578984748,
			"-0.003": 11.2445118754,
			"-0.002": 10.3213985357,
			"-0.001": 12.1224046333,
			"0.0": 16.8743919265,
			"0.001": 23.7862825566,
			"0.002": 24.8714377878,
			"0.003": 9.0839222639,
			"0.004": 5.5526630278,
			"0.005": 3.40982344593,
			"0.006": 3.54828585978,
			"0.007": 3.31444096312,
			"0.008": 3.354233651,
			"0.009": 2.94135611463,
			"0.01": 2.25011490404,
			"0.011": 1.64331146236,
			"0.012": 0.432224979431,
			"0.013": 0.0,
			"0.014": 0.0,
			"0.015": 0.0,
			"0.016": 0.0,
			"0.017": 0.0,
			"0.018": 0.0,
			"0.019": 0.0,
			"0.02": 0.0,
			"0.021": 0.0,
			"0.022": 0.0,
			"0.023": 0.0,
			"0.024": 0.0,
			"0.025": 0.0
		}
	}
}
