{
	 "smiles": "CCC(=O)OC1CCC2C3CCC4CC(=O)C(C)CC4(C)C3CCC12C", 
	 "Tm": 401.15, 
	 "num_atms": 62, 
	 "gaussian": { 
		 "optdone": 1, 
		 "sigma_profile": "yes", 
		 "theory": "DFT", 
		 "functional": "B3LYP", 
		 "basiset": "6-31G**", 
		 "properties": { 
			 "R2extent": 13248.3206, 
			 "electric_dipole_moment_norm": 2.41812865456, 
			 "electric_quadrupole_moment_norm": 33.4663638445, 
			 "total_energy": -1123.85352951, 
			 "HOMO_LUMO_gap": 0.22332, 
			 "cosmo_polarized_energy": -13.08, 
			 "cosmo_cavitation_energy": 54.04, 
			 "cosmo_dispersion_energy": -36.42, 
			 "cosmo_repulsion_energy": 2.69, 
			 "cosmo_total_nonelectrostatic_energy": 20.32, 
			 "SMD_solvation_energy": 8.98 
		},
		"coords": [
			{
				"x": 2.2584924334,
				"y": -1.4210651155,
				"z": -5.5697196007,
				"element": "C" 
			},
			{
				"x": 2.2315007481,
				"y": -2.8611676882,
				"z": -5.0354044861,
				"element": "C" 
			},
			{
				"x": 1.0523103721,
				"y": -3.1463102724,
				"z": -4.1239332029,
				"element": "C" 
			},
			{
				"x": 0.2320198271,
				"y": -4.0219015314,
				"z": -4.3006778058,
				"element": "O" 
			},
			{
				"x": 1.0360616664,
				"y": -2.2971123211,
				"z": -3.0687131491,
				"element": "O" 
			},
			{
				"x": -0.0408967882,
				"y": -2.4626144237,
				"z": -2.1030176893,
				"element": "C" 
			},
			{
				"x": -1.2288140778,
				"y": -1.6044625108,
				"z": -2.5374775576,
				"element": "C" 
			},
			{
				"x": -0.8020492198,
				"y": -0.1800634478,
				"z": -2.1456492031,
				"element": "C" 
			},
			{
				"x": 0.0178362164,
				"y": -0.3348720857,
				"z": -0.8304563814,
				"element": "C" 
			},
			{
				"x": -0.7379164658,
				"y": 0.1690325928,
				"z": 0.4221077085,
				"element": "C" 
			},
			{
				"x": -0.8771899937,
				"y": 1.6939314622,
				"z": 0.4522527903,
				"element": "C" 
			},
			{
				"x": -1.7661530804,
				"y": 2.1482210165,
				"z": 1.6277672511,
				"element": "C" 
			},
			{
				"x": -1.7511824205,
				"y": 1.1796376827,
				"z": 2.8419568323,
				"element": "C" 
			},
			{
				"x": -2.1568521441,
				"y": 1.9044348547,
				"z": 4.1449217759,
				"element": "C" 
			},
			{
				"x": -0.9855394055,
				"y": 2.4957544702,
				"z": 4.9307492363,
				"element": "C" 
			},
			{
				"x": -1.1043519652,
				"y": 2.7896218279,
				"z": 6.106544527,
				"element": "O" 
			},
			{
				"x": 0.3091745906,
				"y": 2.7253198488,
				"z": 4.1548128914,
				"element": "C" 
			},
			{
				"x": 1.4364360795,
				"y": 3.2376623136,
				"z": 5.0526733525,
				"element": "C" 
			},
			{
				"x": 0.7319456835,
				"y": 1.4854586011,
				"z": 3.3066064321,
				"element": "C" 
			},
			{
				"x": -0.3923708522,
				"y": 0.4422707846,
				"z": 3.0170469337,
				"element": "C" 
			},
			{
				"x": -0.4642912708,
				"y": -0.4913213832,
				"z": 4.2502445866,
				"element": "C" 
			},
			{
				"x": -0.0421752263,
				"y": -0.3661979348,
				"z": 1.7005645634,
				"element": "C" 
			},
			{
				"x": -0.2802200603,
				"y": -1.8968854373,
				"z": 1.7653999396,
				"element": "C" 
			},
			{
				"x": -0.411610186,
				"y": -2.5543309166,
				"z": 0.3707088524,
				"element": "C" 
			},
			{
				"x": 0.4144023459,
				"y": -1.8653729696,
				"z": -0.74316593,
				"element": "C" 
			},
			{
				"x": 1.916343749,
				"y": -2.0888501003,
				"z": -0.4967213074,
				"element": "C" 
			},
			{
				"x": 1.3555766204,
				"y": -1.1971665796,
				"z": -6.1467364461,
				"element": "H" 
			},
			{
				"x": 3.1203496887,
				"y": -1.2755093652,
				"z": -6.2275603185,
				"element": "H" 
			},
			{
				"x": 2.3262605768,
				"y": -0.7013367161,
				"z": -4.7504177452,
				"element": "H" 
			},
			{
				"x": 3.1492333868,
				"y": -3.0586038086,
				"z": -4.4677874266,
				"element": "H" 
			},
			{
				"x": 2.1811396893,
				"y": -3.5850828714,
				"z": -5.8518388351,
				"element": "H" 
			},
			{
				"x": -0.2712671912,
				"y": -3.5288025618,
				"z": -2.0445387187,
				"element": "H" 
			},
			{
				"x": -2.1205577503,
				"y": -1.9139743597,
				"z": -1.9806843938,
				"element": "H" 
			},
			{
				"x": -1.4557716492,
				"y": -1.7279572503,
				"z": -3.5994862093,
				"element": "H" 
			},
			{
				"x": -1.6581709224,
				"y": 0.4922640972,
				"z": -2.031681649,
				"element": "H" 
			},
			{
				"x": -0.1703107132,
				"y": 0.2401476914,
				"z": -2.9346437864,
				"element": "H" 
			},
			{
				"x": 0.9388602054,
				"y": 0.2584093164,
				"z": -0.9040560551,
				"element": "H" 
			},
			{
				"x": -1.7584812963,
				"y": -0.2461600219,
				"z": 0.3913812586,
				"element": "H" 
			},
			{
				"x": 0.1223848596,
				"y": 2.1406392711,
				"z": 0.5282589357,
				"element": "H" 
			},
			{
				"x": -1.2951407155,
				"y": 2.0627451343,
				"z": -0.4909656729,
				"element": "H" 
			},
			{
				"x": -1.472270461,
				"y": 3.1569443544,
				"z": 1.9391863583,
				"element": "H" 
			},
			{
				"x": -2.806134245,
				"y": 2.2391615983,
				"z": 1.2901683736,
				"element": "H" 
			},
			{
				"x": -2.5073575263,
				"y": 0.407151225,
				"z": 2.6493634768,
				"element": "H" 
			},
			{
				"x": -2.695652834,
				"y": 1.2482033846,
				"z": 4.8345817517,
				"element": "H" 
			},
			{
				"x": -2.8473491751,
				"y": 2.7294952349,
				"z": 3.9210783106,
				"element": "H" 
			},
			{
				"x": 0.0469663737,
				"y": 3.523754489,
				"z": 3.443111093,
				"element": "H" 
			},
			{
				"x": 2.3333900076,
				"y": 3.4481492425,
				"z": 4.4610414528,
				"element": "H" 
			},
			{
				"x": 1.6934897134,
				"y": 2.4929662216,
				"z": 5.8124254714,
				"element": "H" 
			},
			{
				"x": 1.1408828885,
				"y": 4.1496702652,
				"z": 5.5765977385,
				"element": "H" 
			},
			{
				"x": 1.1692142647,
				"y": 1.8480799428,
				"z": 2.3721614693,
				"element": "H" 
			},
			{
				"x": 1.5455285772,
				"y": 0.9676595136,
				"z": 3.8304450643,
				"element": "H" 
			},
			{
				"x": -0.4993208671,
				"y": 0.0760138875,
				"z": 5.1847771017,
				"element": "H" 
			},
			{
				"x": 0.4221157378,
				"y": -1.1304606962,
				"z": 4.3059163939,
				"element": "H" 
			},
			{
				"x": -1.3462890306,
				"y": -1.1387060996,
				"z": 4.234515378,
				"element": "H" 
			},
			{
				"x": 1.0354228188,
				"y": -0.2186028919,
				"z": 1.544348281,
				"element": "H" 
			},
			{
				"x": -1.1994325034,
				"y": -2.1147707705,
				"z": 2.3193131356,
				"element": "H" 
			},
			{
				"x": 0.5298348522,
				"y": -2.3732517651,
				"z": 2.327110139,
				"element": "H" 
			},
			{
				"x": -0.1229562961,
				"y": -3.6103648201,
				"z": 0.4356944712,
				"element": "H" 
			},
			{
				"x": -1.4677623418,
				"y": -2.5542901254,
				"z": 0.0784588713,
				"element": "H" 
			},
			{
				"x": 2.1652016893,
				"y": -3.154983217,
				"z": -0.5537318597,
				"element": "H" 
			},
			{
				"x": 2.2137417181,
				"y": -1.7343974037,
				"z": 0.4941140163,
				"element": "H" 
			},
			{
				"x": 2.5223212947,
				"y": -1.5655508624,
				"z": -1.2395407859,
				"element": "H" 
			}
		],
		 "valence_orbital": [ 
			{
				"type": "occ",
				"energy": -0.28802,
				"method": "rhf"
			},
			{
				"type": "occ",
				"energy": -0.28014,
				"method": "rhf"
			},
			{
				"type": "occ",
				"energy": -0.27882,
				"method": "rhf"
			},
			{
				"type": "occ",
				"energy": -0.2639,
				"method": "rhf"
			},
			{
				"type": "occ",
				"energy": -0.23318,
				"method": "rhf"
			},
			{
				"type": "unocc",
				"energy": -0.00986,
				"method": "rhf"
			},
			{
				"type": "unocc",
				"energy": 0.0135,
				"method": "rhf"
			},
			{
				"type": "unocc",
				"energy": 0.06148,
				"method": "rhf"
			},
			{
				"type": "unocc",
				"energy": 0.07172,
				"method": "rhf"
			},
			{
				"type": "unocc",
				"energy": 0.07727,
				"method": "rhf"
			}
		],
		"cosmo_sigma_profile": { 
			"-0.025": 0.0,
			"-0.024": 0.0,
			"-0.023": 0.0,
			"-0.022": 0.0,
			"-0.021": 0.0,
			"-0.02": 0.0,
			"-0.019": 0.0,
			"-0.018": 0.0,
			"-0.017": 0.0,
			"-0.016": 0.0,
			"-0.015": 0.0,
			"-0.014": 0.0,
			"-0.013": 0.0,
			"-0.012": 0.0,
			"-0.011": 0.0,
			"-0.01": 0.0,
			"-0.009": 0.0,
			"-0.008": 0.0,
			"-0.007": 0.174888886804,
			"-0.006": 2.34749278482,
			"-0.005": 8.61840051061,
			"-0.004": 18.9796126867,
			"-0.003": 46.7954201298,
			"-0.002": 85.4798776741,
			"-0.001": 78.6806595401,
			"0.0": 56.1051893679,
			"0.001": 44.287390207,
			"0.002": 19.5443235392,
			"0.003": 6.72440435174,
			"0.004": 5.85297066858,
			"0.005": 4.90627625373,
			"0.006": 3.34108509855,
			"0.007": 2.27924048179,
			"0.008": 3.20150685838,
			"0.009": 3.42371573676,
			"0.01": 3.32508183117,
			"0.011": 4.6254845978,
			"0.012": 8.35577683466,
			"0.013": 6.40603338544,
			"0.014": 1.15721816322,
			"0.015": 0.0,
			"0.016": 0.0,
			"0.017": 0.0,
			"0.018": 0.0,
			"0.019": 0.0,
			"0.02": 0.0,
			"0.021": 0.0,
			"0.022": 0.0,
			"0.023": 0.0,
			"0.024": 0.0,
			"0.025": 0.0
		}
	}
}
