{
	 "smiles": "COC1=CC(Cl)=C(OC)C=C1N=C=S", 
	 "Tm": 358.15, 
	 "num_atms": 22, 
	 "gaussian": { 
		 "optdone": 1, 
		 "sigma_profile": "yes", 
		 "theory": "DFT", 
		 "functional": "B3LYP", 
		 "basiset": "6-31G**", 
		 "properties": { 
			 "R2extent": 4585.4022, 
			 "electric_dipole_moment_norm": 2.7956216196, 
			 "electric_quadrupole_moment_norm": 17.1030917071, 
			 "total_energy": -1411.31959225, 
			 "HOMO_LUMO_gap": 0.17142, 
			 "cosmo_polarized_energy": -8.37, 
			 "cosmo_cavitation_energy": 31.3, 
			 "cosmo_dispersion_energy": -22.65, 
			 "cosmo_repulsion_energy": 1.77, 
			 "cosmo_total_nonelectrostatic_energy": 10.42, 
			 "SMD_solvation_energy": 6.72 
		},
		"coords": [
			{
				"x": -1.1975283383,
				"y": 2.6025823677,
				"z": 1.8930834982,
				"element": "C" 
			},
			{
				"x": -0.2079834706,
				"y": 1.6358460056,
				"z": 1.5618745467,
				"element": "O" 
			},
			{
				"x": -0.3318542442,
				"y": 0.951114503,
				"z": 0.3991881561,
				"element": "C" 
			},
			{
				"x": -1.363423258,
				"y": 1.1195633829,
				"z": -0.5246089758,
				"element": "C" 
			},
			{
				"x": -1.3891608884,
				"y": 0.3547709443,
				"z": -1.6946019761,
				"element": "C" 
			},
			{
				"x": -2.7071297889,
				"y": 0.5832083056,
				"z": -2.8237228051,
				"element": "Cl" 
			},
			{
				"x": -0.3952224768,
				"y": -0.5936324584,
				"z": -1.9659219619,
				"element": "C" 
			},
			{
				"x": -0.4411987197,
				"y": -1.3900592528,
				"z": -3.079667973,
				"element": "O" 
			},
			{
				"x": 0.2047846438,
				"y": -0.8479893468,
				"z": -4.2360978864,
				"element": "C" 
			},
			{
				"x": 0.6349158156,
				"y": -0.7591485962,
				"z": -1.0374696921,
				"element": "C" 
			},
			{
				"x": 0.6811438805,
				"y": -0.0057745885,
				"z": 0.1360779305,
				"element": "C" 
			},
			{
				"x": 1.7087193427,
				"y": -0.1958237327,
				"z": 1.0364764133,
				"element": "N" 
			},
			{
				"x": 2.2100492357,
				"y": 0.1203542014,
				"z": 2.0816767896,
				"element": "C" 
			},
			{
				"x": 2.9866461643,
				"y": 0.4285920767,
				"z": 3.4287834521,
				"element": "S" 
			},
			{
				"x": -1.2364557075,
				"y": 3.4055404531,
				"z": 1.1469316918,
				"element": "H" 
			},
			{
				"x": -0.8973122652,
				"y": 3.0163816004,
				"z": 2.8558391098,
				"element": "H" 
			},
			{
				"x": -2.1888621219,
				"y": 2.1428077101,
				"z": 1.9864598264,
				"element": "H" 
			},
			{
				"x": -2.1546781464,
				"y": 1.8368494515,
				"z": -0.3509947377,
				"element": "H" 
			},
			{
				"x": 1.2701701144,
				"y": -0.667101781,
				"z": -4.0447993153,
				"element": "H" 
			},
			{
				"x": -0.269375003,
				"y": 0.0865249127,
				"z": -4.5572638769,
				"element": "H" 
			},
			{
				"x": 0.099562193,
				"y": -1.5960363713,
				"z": -5.0237667099,
				"element": "H" 
			},
			{
				"x": 1.4040930388,
				"y": -1.4991697873,
				"z": -1.2269755043,
				"element": "H" 
			}
		],
		 "valence_orbital": [ 
			{
				"type": "occ",
				"energy": -0.2855,
				"method": "rhf"
			},
			{
				"type": "occ",
				"energy": -0.28276,
				"method": "rhf"
			},
			{
				"type": "occ",
				"energy": -0.2612,
				"method": "rhf"
			},
			{
				"type": "occ",
				"energy": -0.25156,
				"method": "rhf"
			},
			{
				"type": "occ",
				"energy": -0.21929,
				"method": "rhf"
			},
			{
				"type": "unocc",
				"energy": -0.04787,
				"method": "rhf"
			},
			{
				"type": "unocc",
				"energy": -0.02083,
				"method": "rhf"
			},
			{
				"type": "unocc",
				"energy": -0.01195,
				"method": "rhf"
			},
			{
				"type": "unocc",
				"energy": 0.02081,
				"method": "rhf"
			},
			{
				"type": "unocc",
				"energy": 0.03888,
				"method": "rhf"
			}
		],
		"cosmo_sigma_profile": { 
			"-0.025": 0.0,
			"-0.024": 0.0,
			"-0.023": 0.0,
			"-0.022": 0.0,
			"-0.021": 0.0,
			"-0.02": 0.0,
			"-0.019": 0.0,
			"-0.018": 0.0,
			"-0.017": 0.0,
			"-0.016": 0.0,
			"-0.015": 0.0,
			"-0.014": 0.0,
			"-0.013": 0.0,
			"-0.012": 0.0,
			"-0.011": 0.0,
			"-0.01": 0.0,
			"-0.009": 0.358009744204,
			"-0.008": 3.65777774337,
			"-0.007": 5.38897766217,
			"-0.006": 12.5152890294,
			"-0.005": 15.5337971404,
			"-0.004": 19.1490145676,
			"-0.003": 19.811253182,
			"-0.002": 14.3874004852,
			"-0.001": 17.4742309548,
			"0.0": 27.0217552848,
			"0.001": 30.3523608839,
			"0.002": 22.1540825941,
			"0.003": 15.9884484759,
			"0.004": 19.6071025688,
			"0.005": 19.5668390213,
			"0.006": 5.53979717008,
			"0.007": 1.6674853854,
			"0.008": 1.71087192663,
			"0.009": 1.20955572816,
			"0.01": 1.77585206414,
			"0.011": 1.42553871299,
			"0.012": 0.26440819959,
			"0.013": 0.0,
			"0.014": 0.0,
			"0.015": 0.0,
			"0.016": 0.0,
			"0.017": 0.0,
			"0.018": 0.0,
			"0.019": 0.0,
			"0.02": 0.0,
			"0.021": 0.0,
			"0.022": 0.0,
			"0.023": 0.0,
			"0.024": 0.0,
			"0.025": 0.0
		}
	}
}
