{
	 "smiles": "OC(=O)C1=C2C=C(Br)C=CC2=NC(C=CC2=CC=NC=C2)=C1", 
	 "Tm": 583.15, 
	 "num_atms": 33, 
	 "gaussian": { 
		 "optdone": 1, 
		 "sigma_profile": "yes", 
		 "theory": "DFT", 
		 "functional": "B3LYP", 
		 "basiset": "6-31G**", 
		 "properties": { 
			 "R2extent": 12524.0904, 
			 "electric_dipole_moment_norm": 1.48377485152, 
			 "electric_quadrupole_moment_norm": 14.2679018233, 
			 "total_energy": -3485.79168953, 
			 "HOMO_LUMO_gap": 0.14029, 
			 "cosmo_polarized_energy": -15.06, 
			 "cosmo_cavitation_energy": 40.91, 
			 "cosmo_dispersion_energy": -29.11, 
			 "cosmo_repulsion_energy": 2.21, 
			 "cosmo_total_nonelectrostatic_energy": 14.01, 
			 "SMD_solvation_energy": 3.86 
		},
		"coords": [
			{
				"x": 2.3008286372,
				"y": -1.1982060311,
				"z": 1.6794600514,
				"element": "O" 
			},
			{
				"x": 1.8737302455,
				"y": -0.3730316091,
				"z": 0.6959215799,
				"element": "C" 
			},
			{
				"x": 2.301219542,
				"y": -0.4643785147,
				"z": -0.4364730408,
				"element": "O" 
			},
			{
				"x": 0.8322236521,
				"y": 0.6259697812,
				"z": 1.1104363866,
				"element": "C" 
			},
			{
				"x": 0.4307152117,
				"y": 0.944992753,
				"z": 2.4532106267,
				"element": "C" 
			},
			{
				"x": 0.9413371096,
				"y": 0.3522437726,
				"z": 3.6388881505,
				"element": "C" 
			},
			{
				"x": 0.4844585893,
				"y": 0.7712466658,
				"z": 4.8682135101,
				"element": "C" 
			},
			{
				"x": 1.1821345676,
				"y": -0.0400242575,
				"z": 6.4503888508,
				"element": "Br" 
			},
			{
				"x": -0.4872974552,
				"y": 1.7869370795,
				"z": 5.0076184886,
				"element": "C" 
			},
			{
				"x": -0.9930720367,
				"y": 2.3778676317,
				"z": 3.8759823374,
				"element": "C" 
			},
			{
				"x": -0.5586076796,
				"y": 1.9813065379,
				"z": 2.581657806,
				"element": "C" 
			},
			{
				"x": -1.1170182841,
				"y": 2.6276602355,
				"z": 1.5256570881,
				"element": "N" 
			},
			{
				"x": -0.7557896342,
				"y": 2.2839200104,
				"z": 0.295451649,
				"element": "C" 
			},
			{
				"x": -1.3849072117,
				"y": 3.0648419235,
				"z": -0.7858348532,
				"element": "C" 
			},
			{
				"x": -1.621379063,
				"y": 2.7522264885,
				"z": -2.0759544571,
				"element": "C" 
			},
			{
				"x": -1.4579734049,
				"y": 1.4756429389,
				"z": -2.7953199446,
				"element": "C" 
			},
			{
				"x": -1.0599886058,
				"y": 1.4786677976,
				"z": -4.1420198367,
				"element": "C" 
			},
			{
				"x": -0.9515856276,
				"y": 0.2701334174,
				"z": -4.8273912963,
				"element": "C" 
			},
			{
				"x": -1.2259885853,
				"y": -0.9228697964,
				"z": -4.2845930613,
				"element": "N" 
			},
			{
				"x": -1.6258413748,
				"y": -0.9231617315,
				"z": -3.0059284271,
				"element": "C" 
			},
			{
				"x": -1.7592956743,
				"y": 0.2260440699,
				"z": -2.2292968864,
				"element": "C" 
			},
			{
				"x": 0.2410146149,
				"y": 1.2977840274,
				"z": 0.0608834773,
				"element": "C" 
			},
			{
				"x": 2.9568899297,
				"y": -1.7837818459,
				"z": 1.2645068367,
				"element": "H" 
			},
			{
				"x": 1.6847724753,
				"y": -0.4268815743,
				"z": 3.5766359752,
				"element": "H" 
			},
			{
				"x": -0.8193070056,
				"y": 2.0870009803,
				"z": 5.9947124713,
				"element": "H" 
			},
			{
				"x": -1.7393939513,
				"y": 3.1630356113,
				"z": 3.9305694143,
				"element": "H" 
			},
			{
				"x": -1.6917532954,
				"y": 4.0532329872,
				"z": -0.4519557333,
				"element": "H" 
			},
			{
				"x": -2.0166061387,
				"y": 3.55767724,
				"z": -2.6938758224,
				"element": "H" 
			},
			{
				"x": -0.8306983953,
				"y": 2.4132704051,
				"z": -4.6460302934,
				"element": "H" 
			},
			{
				"x": -0.6326803105,
				"y": 0.2614926557,
				"z": -5.868315373,
				"element": "H" 
			},
			{
				"x": -1.8613858285,
				"y": -1.8963854222,
				"z": -2.578572468,
				"element": "H" 
			},
			{
				"x": -2.1144921352,
				"y": 0.1528436168,
				"z": -1.2070763368,
				"element": "H" 
			},
			{
				"x": 0.565637123,
				"y": 1.0702821553,
				"z": -0.9459568694,
				"element": "H" 
			}
		],
		 "valence_orbital": [ 
			{
				"type": "occ",
				"energy": -0.27178,
				"method": "rhf"
			},
			{
				"type": "occ",
				"energy": -0.26583,
				"method": "rhf"
			},
			{
				"type": "occ",
				"energy": -0.25679,
				"method": "rhf"
			},
			{
				"type": "occ",
				"energy": -0.25323,
				"method": "rhf"
			},
			{
				"type": "occ",
				"energy": -0.23294,
				"method": "rhf"
			},
			{
				"type": "unocc",
				"energy": -0.09265,
				"method": "rhf"
			},
			{
				"type": "unocc",
				"energy": -0.06401,
				"method": "rhf"
			},
			{
				"type": "unocc",
				"energy": -0.02633,
				"method": "rhf"
			},
			{
				"type": "unocc",
				"energy": -0.01917,
				"method": "rhf"
			},
			{
				"type": "unocc",
				"energy": -0.01332,
				"method": "rhf"
			}
		],
		"cosmo_sigma_profile": { 
			"-0.025": 0.0,
			"-0.024": 0.0,
			"-0.023": 0.0,
			"-0.022": 0.0,
			"-0.021": 0.0,
			"-0.02": 0.0,
			"-0.019": 0.49236253717,
			"-0.018": 0.997277725541,
			"-0.017": 0.910049378283,
			"-0.016": 0.698302803208,
			"-0.015": 0.697623580396,
			"-0.014": 0.547138251998,
			"-0.013": 0.932581517739,
			"-0.012": 1.02340722395,
			"-0.011": 0.400950306834,
			"-0.01": 0.185980257759,
			"-0.009": 0.779263975444,
			"-0.008": 2.07740675271,
			"-0.007": 10.9236094048,
			"-0.006": 17.0010181484,
			"-0.005": 19.0112953478,
			"-0.004": 18.7963535711,
			"-0.003": 20.4062837339,
			"-0.002": 22.542756191,
			"-0.001": 28.0518946554,
			"0.0": 33.2016011265,
			"0.001": 38.6883565673,
			"0.002": 35.0698857878,
			"0.003": 21.600788681,
			"0.004": 18.0122722543,
			"0.005": 6.5782191138,
			"0.006": 4.12245144148,
			"0.007": 3.99135241096,
			"0.008": 4.68083856582,
			"0.009": 3.69033850106,
			"0.01": 4.16447868792,
			"0.011": 6.34713817273,
			"0.012": 1.72163008124,
			"0.013": 1.90391545402,
			"0.014": 1.32833060089,
			"0.015": 0.509676023597,
			"0.016": 1.04779722107,
			"0.017": 0.282814400894,
			"0.018": 0.0,
			"0.019": 0.0,
			"0.02": 0.0,
			"0.021": 0.0,
			"0.022": 0.0,
			"0.023": 0.0,
			"0.024": 0.0,
			"0.025": 0.0
		}
	}
}
