{
	 "smiles": "NC(=O)NC1=C(C(O)=O)C(F)=CC=C1", 
	 "Tm": 423.15, 
	 "num_atms": 21, 
	 "gaussian": { 
		 "optdone": 1, 
		 "sigma_profile": "yes", 
		 "theory": "DFT", 
		 "functional": "B3LYP", 
		 "basiset": "6-31G**", 
		 "properties": { 
			 "R2extent": 3419.4641, 
			 "electric_dipole_moment_norm": 2.94391565266, 
			 "electric_quadrupole_moment_norm": 15.1299673037, 
			 "total_energy": -744.116134222, 
			 "HOMO_LUMO_gap": 0.1777, 
			 "cosmo_polarized_energy": -18.77, 
			 "cosmo_cavitation_energy": 26.38, 
			 "cosmo_dispersion_energy": -19.42, 
			 "cosmo_repulsion_energy": 1.52, 
			 "cosmo_total_nonelectrostatic_energy": 8.48, 
			 "SMD_solvation_energy": 7.07 
		},
		"coords": [
			{
				"x": -0.6064840531,
				"y": -2.1303799034,
				"z": -0.2657602808,
				"element": "N" 
			},
			{
				"x": -0.7549469364,
				"y": -1.2260798298,
				"z": -1.2990035378,
				"element": "C" 
			},
			{
				"x": -1.0412295607,
				"y": -1.5630924205,
				"z": -2.4375102543,
				"element": "O" 
			},
			{
				"x": -0.558997972,
				"y": 0.1248621045,
				"z": -1.0017742445,
				"element": "N" 
			},
			{
				"x": -0.1062053534,
				"y": 0.7679184907,
				"z": 0.152059364,
				"element": "C" 
			},
			{
				"x": -0.5552617917,
				"y": 2.0873433811,
				"z": 0.4560805451,
				"element": "C" 
			},
			{
				"x": -1.5501728415,
				"y": 2.8443188743,
				"z": -0.3537780333,
				"element": "C" 
			},
			{
				"x": -1.4486520201,
				"y": 2.5945970517,
				"z": -1.6941927135,
				"element": "O" 
			},
			{
				"x": -2.3726930389,
				"y": 3.6187479677,
				"z": 0.0785027414,
				"element": "O" 
			},
			{
				"x": -0.0635090675,
				"y": 2.6933926325,
				"z": 1.6248301279,
				"element": "C" 
			},
			{
				"x": -0.4428018511,
				"y": 3.9439372229,
				"z": 1.9213533207,
				"element": "F" 
			},
			{
				"x": 0.8261447416,
				"y": 2.071429722,
				"z": 2.4879484891,
				"element": "C" 
			},
			{
				"x": 1.2542856148,
				"y": 0.7847621241,
				"z": 2.1701038265,
				"element": "C" 
			},
			{
				"x": 0.8075821419,
				"y": 0.141807817,
				"z": 1.0200391232,
				"element": "C" 
			},
			{
				"x": -0.9584223842,
				"y": -3.0459549992,
				"z": -0.5065808043,
				"element": "H" 
			},
			{
				"x": -0.7891767817,
				"y": -1.8262649735,
				"z": 0.6802941445,
				"element": "H" 
			},
			{
				"x": -0.8700200035,
				"y": 0.7210055932,
				"z": -1.7581531033,
				"element": "H" 
			},
			{
				"x": -2.1595038013,
				"y": 3.1064666783,
				"z": -2.1160371926,
				"element": "H" 
			},
			{
				"x": 1.172581306,
				"y": 2.6025486156,
				"z": 3.3663994221,
				"element": "H" 
			},
			{
				"x": 1.9673215116,
				"y": 0.2813414306,
				"z": 2.8160145153,
				"element": "H" 
			},
			{
				"x": 1.1919621413,
				"y": -0.8369075798,
				"z": 0.7630645444,
				"element": "H" 
			}
		],
		 "valence_orbital": [ 
			{
				"type": "occ",
				"energy": -0.29058,
				"method": "rhf"
			},
			{
				"type": "occ",
				"energy": -0.28304,
				"method": "rhf"
			},
			{
				"type": "occ",
				"energy": -0.26859,
				"method": "rhf"
			},
			{
				"type": "occ",
				"energy": -0.26436,
				"method": "rhf"
			},
			{
				"type": "occ",
				"energy": -0.23494,
				"method": "rhf"
			},
			{
				"type": "unocc",
				"energy": -0.05724,
				"method": "rhf"
			},
			{
				"type": "unocc",
				"energy": -0.01935,
				"method": "rhf"
			},
			{
				"type": "unocc",
				"energy": 0.02624,
				"method": "rhf"
			},
			{
				"type": "unocc",
				"energy": 0.05332,
				"method": "rhf"
			},
			{
				"type": "unocc",
				"energy": 0.06683,
				"method": "rhf"
			}
		],
		"cosmo_sigma_profile": { 
			"-0.025": 0.0,
			"-0.024": 0.0,
			"-0.023": 0.0,
			"-0.022": 0.0,
			"-0.021": 0.0,
			"-0.02": 0.0,
			"-0.019": 0.384899609324,
			"-0.018": 0.858862369286,
			"-0.017": 1.01791890673,
			"-0.016": 0.979020265395,
			"-0.015": 0.499521943168,
			"-0.014": 1.66544715983,
			"-0.013": 2.6499239966,
			"-0.012": 2.81908311964,
			"-0.011": 3.01346393031,
			"-0.01": 3.20176671124,
			"-0.009": 2.7618624871,
			"-0.008": 4.21597986456,
			"-0.007": 7.57315161834,
			"-0.006": 8.77268365622,
			"-0.005": 10.6443847138,
			"-0.004": 11.1056304144,
			"-0.003": 11.4945045795,
			"-0.002": 12.1136942606,
			"-0.001": 13.4783457693,
			"0.0": 16.3378241829,
			"0.001": 14.4997202018,
			"0.002": 14.2680570548,
			"0.003": 13.4463675215,
			"0.004": 8.47040654983,
			"0.005": 4.98875706518,
			"0.006": 4.92082816954,
			"0.007": 3.09980503894,
			"0.008": 3.35431976361,
			"0.009": 3.69171892955,
			"0.01": 3.87976423215,
			"0.011": 7.22723428749,
			"0.012": 3.5515298151,
			"0.013": 4.52671127275,
			"0.014": 5.23165894322,
			"0.015": 0.304865164393,
			"0.016": 0.0,
			"0.017": 0.0,
			"0.018": 0.0,
			"0.019": 0.0,
			"0.02": 0.0,
			"0.021": 0.0,
			"0.022": 0.0,
			"0.023": 0.0,
			"0.024": 0.0,
			"0.025": 0.0
		}
	}
}
