{
	 "smiles": "CSC1=CC=C(C=C1)C1=NC(=N)SN1", 
	 "Tm": 463.15, 
	 "num_atms": 23, 
	 "gaussian": { 
		 "optdone": 1, 
		 "sigma_profile": "yes", 
		 "theory": "DFT", 
		 "functional": "B3LYP", 
		 "basiset": "6-31G**", 
		 "properties": { 
			 "R2extent": 5621.967, 
			 "electric_dipole_moment_norm": 6.52198585938, 
			 "electric_quadrupole_moment_norm": 21.190672721, 
			 "total_energy": -1308.989555, 
			 "HOMO_LUMO_gap": 0.15235, 
			 "cosmo_polarized_energy": -16.98, 
			 "cosmo_cavitation_energy": 30.75, 
			 "cosmo_dispersion_energy": -23.76, 
			 "cosmo_repulsion_energy": 1.76, 
			 "cosmo_total_nonelectrostatic_energy": 8.75, 
			 "SMD_solvation_energy": 2.29 
		},
		"coords": [
			{
				"x": -0.5532092976,
				"y": -1.274016124,
				"z": 4.5871635779,
				"element": "C" 
			},
			{
				"x": -1.1087524696,
				"y": 0.1601397755,
				"z": 3.6116555393,
				"element": "S" 
			},
			{
				"x": -0.316848679,
				"y": -0.0654804561,
				"z": 2.0392072465,
				"element": "C" 
			},
			{
				"x": -0.5728698793,
				"y": 0.9144120347,
				"z": 1.0603503955,
				"element": "C" 
			},
			{
				"x": 0.0024705905,
				"y": 0.8239597334,
				"z": -0.196899905,
				"element": "C" 
			},
			{
				"x": 0.8565968144,
				"y": -0.2460870916,
				"z": -0.5174450646,
				"element": "C" 
			},
			{
				"x": 1.100250718,
				"y": -1.2268709952,
				"z": 0.4532472568,
				"element": "C" 
			},
			{
				"x": 0.5241145626,
				"y": -1.1407538177,
				"z": 1.7188719214,
				"element": "C" 
			},
			{
				"x": 1.4647058792,
				"y": -0.3097142826,
				"z": -1.8546241873,
				"element": "C" 
			},
			{
				"x": 1.0068386013,
				"y": 0.363508316,
				"z": -2.8701221124,
				"element": "N" 
			},
			{
				"x": 1.7908213958,
				"y": 0.224650413,
				"z": -4.0096027102,
				"element": "C" 
			},
			{
				"x": 1.6623783103,
				"y": 0.7329561455,
				"z": -5.1651227349,
				"element": "N" 
			},
			{
				"x": 3.1754585858,
				"y": -0.922163891,
				"z": -3.6726969252,
				"element": "S" 
			},
			{
				"x": 2.5589103363,
				"y": -1.1306974069,
				"z": -2.0582192393,
				"element": "N" 
			},
			{
				"x": 0.5316780705,
				"y": -1.2767803975,
				"z": 4.7148845696,
				"element": "H" 
			},
			{
				"x": -1.0233410455,
				"y": -1.1594100861,
				"z": 5.5658960932,
				"element": "H" 
			},
			{
				"x": -0.8867311416,
				"y": -2.2149940687,
				"z": 4.1437643446,
				"element": "H" 
			},
			{
				"x": -1.2265423786,
				"y": 1.7499097338,
				"z": 1.2937377206,
				"element": "H" 
			},
			{
				"x": -0.1947515676,
				"y": 1.5777472001,
				"z": -0.9510528949,
				"element": "H" 
			},
			{
				"x": 1.7175490811,
				"y": -2.0876510724,
				"z": 0.2133750937,
				"element": "H" 
			},
			{
				"x": 0.7276449781,
				"y": -1.9219641722,
				"z": 2.4415037306,
				"element": "H" 
			},
			{
				"x": 0.8176291155,
				"y": 1.3078847871,
				"z": -5.1870137374,
				"element": "H" 
			},
			{
				"x": 3.2466994195,
				"y": -1.1960842769,
				"z": -1.3169579786,
				"element": "H" 
			}
		],
		 "valence_orbital": [ 
			{
				"type": "occ",
				"energy": -0.28395,
				"method": "rhf"
			},
			{
				"type": "occ",
				"energy": -0.27322,
				"method": "rhf"
			},
			{
				"type": "occ",
				"energy": -0.26516,
				"method": "rhf"
			},
			{
				"type": "occ",
				"energy": -0.22523,
				"method": "rhf"
			},
			{
				"type": "occ",
				"energy": -0.21446,
				"method": "rhf"
			},
			{
				"type": "unocc",
				"energy": -0.06211,
				"method": "rhf"
			},
			{
				"type": "unocc",
				"energy": -0.02485,
				"method": "rhf"
			},
			{
				"type": "unocc",
				"energy": -0.01704,
				"method": "rhf"
			},
			{
				"type": "unocc",
				"energy": 0.01683,
				"method": "rhf"
			},
			{
				"type": "unocc",
				"energy": 0.0219,
				"method": "rhf"
			}
		],
		"cosmo_sigma_profile": { 
			"-0.025": 0.0,
			"-0.024": 0.0,
			"-0.023": 0.0,
			"-0.022": 0.0,
			"-0.021": 0.0,
			"-0.02": 0.0,
			"-0.019": 0.0,
			"-0.018": 0.0,
			"-0.017": 0.367032894015,
			"-0.016": 1.24708915726,
			"-0.015": 1.543125263,
			"-0.014": 1.15375339689,
			"-0.013": 1.07537847158,
			"-0.012": 1.46171188184,
			"-0.011": 1.89816384756,
			"-0.01": 1.8560337618,
			"-0.009": 2.75099626809,
			"-0.008": 2.27782581694,
			"-0.007": 9.69588749645,
			"-0.006": 16.4704643652,
			"-0.005": 15.4282693973,
			"-0.004": 12.9182141171,
			"-0.003": 14.3683460363,
			"-0.002": 15.3082367239,
			"-0.001": 14.8837372642,
			"0.0": 14.8082325763,
			"0.001": 15.9412221032,
			"0.002": 18.0962575464,
			"0.003": 25.5919507138,
			"0.004": 17.2392008543,
			"0.005": 11.1262646619,
			"0.006": 7.33312475668,
			"0.007": 6.26592513183,
			"0.008": 4.95844778258,
			"0.009": 2.98363371859,
			"0.01": 2.01872253829,
			"0.011": 1.62037987745,
			"0.012": 2.22407726726,
			"0.013": 1.36270312972,
			"0.014": 0.890797816221,
			"0.015": 1.27159704113,
			"0.016": 0.924144743741,
			"0.017": 1.11325238864,
			"0.018": 0.117112392595,
			"0.019": 0.0,
			"0.02": 0.0,
			"0.021": 0.0,
			"0.022": 0.0,
			"0.023": 0.0,
			"0.024": 0.0,
			"0.025": 0.0
		}
	}
}
