{
	 "smiles": "NNC1=NC=NC2=C1C=NN2C1=CC=CC=C1", 
	 "Tm": 463.15, 
	 "num_atms": 27, 
	 "gaussian": { 
		 "optdone": 1, 
		 "sigma_profile": "yes", 
		 "theory": "DFT", 
		 "functional": "B3LYP", 
		 "basiset": "6-31G**", 
		 "properties": { 
			 "R2extent": 5274.5799, 
			 "electric_dipole_moment_norm": 1.55891105583, 
			 "electric_quadrupole_moment_norm": 9.2966554443, 
			 "total_energy": -753.668170492, 
			 "HOMO_LUMO_gap": 0.17557, 
			 "cosmo_polarized_energy": -13.48, 
			 "cosmo_cavitation_energy": 31.45, 
			 "cosmo_dispersion_energy": -23.7, 
			 "cosmo_repulsion_energy": 1.8, 
			 "cosmo_total_nonelectrostatic_energy": 9.56, 
			 "SMD_solvation_energy": 3.28 
		},
		"coords": [
			{
				"x": 2.1792384154,
				"y": 4.527986196,
				"z": 3.4439201053,
				"element": "N" 
			},
			{
				"x": 1.2127991679,
				"y": 3.5115716927,
				"z": 3.3280540427,
				"element": "N" 
			},
			{
				"x": 1.1407195478,
				"y": 2.6743029222,
				"z": 2.2563744417,
				"element": "C" 
			},
			{
				"x": 1.9319080659,
				"y": 2.9305233146,
				"z": 1.2052399555,
				"element": "N" 
			},
			{
				"x": 1.8462873049,
				"y": 2.1068707587,
				"z": 0.143205272,
				"element": "C" 
			},
			{
				"x": 1.0722562813,
				"y": 1.0401839128,
				"z": -0.0242682223,
				"element": "N" 
			},
			{
				"x": 0.2861694366,
				"y": 0.795885959,
				"z": 1.0424758861,
				"element": "C" 
			},
			{
				"x": 0.2579018187,
				"y": 1.5647332527,
				"z": 2.223189807,
				"element": "C" 
			},
			{
				"x": -0.7119107654,
				"y": 0.9303147783,
				"z": 3.0455260726,
				"element": "C" 
			},
			{
				"x": -1.2300492779,
				"y": -0.1204664785,
				"z": 2.4420031191,
				"element": "N" 
			},
			{
				"x": -0.6286558276,
				"y": -0.2171481086,
				"z": 1.2125512347,
				"element": "N" 
			},
			{
				"x": -1.0073260876,
				"y": -1.2792531959,
				"z": 0.3382598351,
				"element": "C" 
			},
			{
				"x": -0.4195754914,
				"y": -1.4166358954,
				"z": -0.9260326446,
				"element": "C" 
			},
			{
				"x": -0.8175217078,
				"y": -2.4691466518,
				"z": -1.7509159756,
				"element": "C" 
			},
			{
				"x": -1.7875899629,
				"y": -3.3807608227,
				"z": -1.3345754339,
				"element": "C" 
			},
			{
				"x": -2.3657026793,
				"y": -3.2327110346,
				"z": -0.0721834,
				"element": "C" 
			},
			{
				"x": -1.9830716559,
				"y": -2.1892661627,
				"z": 0.7670688939,
				"element": "C" 
			},
			{
				"x": 1.9219322542,
				"y": 5.2707018354,
				"z": 2.7947242383,
				"element": "H" 
			},
			{
				"x": 3.0619906698,
				"y": 4.1574163681,
				"z": 3.0906288458,
				"element": "H" 
			},
			{
				"x": 0.7857141521,
				"y": 3.2381079132,
				"z": 4.1993847582,
				"element": "H" 
			},
			{
				"x": 2.5054862335,
				"y": 2.3523855541,
				"z": -0.6872778187,
				"element": "H" 
			},
			{
				"x": -1.0551384379,
				"y": 1.1918263302,
				"z": 4.0381036729,
				"element": "H" 
			},
			{
				"x": 0.332678103,
				"y": -0.7097288877,
				"z": -1.2493061,
				"element": "H" 
			},
			{
				"x": -0.358658286,
				"y": -2.5710355665,
				"z": -2.7301787417,
				"element": "H" 
			},
			{
				"x": -2.0899742176,
				"y": -4.1963548046,
				"z": -1.9845769008,
				"element": "H" 
			},
			{
				"x": -3.1226238118,
				"y": -3.9338976062,
				"z": 0.2673415838,
				"element": "H" 
			},
			{
				"x": -2.4263832421,
				"y": -2.067805573,
				"z": 1.7466634728,
				"element": "H" 
			}
		],
		 "valence_orbital": [ 
			{
				"type": "occ",
				"energy": -0.28118,
				"method": "rhf"
			},
			{
				"type": "occ",
				"energy": -0.26349,
				"method": "rhf"
			},
			{
				"type": "occ",
				"energy": -0.24841,
				"method": "rhf"
			},
			{
				"type": "occ",
				"energy": -0.23782,
				"method": "rhf"
			},
			{
				"type": "occ",
				"energy": -0.21903,
				"method": "rhf"
			},
			{
				"type": "unocc",
				"energy": -0.04346,
				"method": "rhf"
			},
			{
				"type": "unocc",
				"energy": -0.01731,
				"method": "rhf"
			},
			{
				"type": "unocc",
				"energy": -1e-05,
				"method": "rhf"
			},
			{
				"type": "unocc",
				"energy": 0.01657,
				"method": "rhf"
			},
			{
				"type": "unocc",
				"energy": 0.05292,
				"method": "rhf"
			}
		],
		"cosmo_sigma_profile": { 
			"-0.025": 0.0,
			"-0.024": 0.0,
			"-0.023": 0.0,
			"-0.022": 0.0,
			"-0.021": 0.0,
			"-0.02": 0.0,
			"-0.019": 0.0,
			"-0.018": 0.0,
			"-0.017": 0.0,
			"-0.016": 0.0,
			"-0.015": 0.708260641441,
			"-0.014": 1.38733580302,
			"-0.013": 1.37730186019,
			"-0.012": 2.05163720184,
			"-0.011": 2.82151608702,
			"-0.01": 4.06372661908,
			"-0.009": 4.93940068879,
			"-0.008": 4.44880460106,
			"-0.007": 5.66403420022,
			"-0.006": 9.94969752727,
			"-0.005": 11.8376343546,
			"-0.004": 14.4077726014,
			"-0.003": 14.2588783798,
			"-0.002": 12.7749405372,
			"-0.001": 18.9337316476,
			"0.0": 21.5824821404,
			"0.001": 21.8796122582,
			"0.002": 18.9926854929,
			"0.003": 17.1128618636,
			"0.004": 16.9244526677,
			"0.005": 16.0797470573,
			"0.006": 6.48306210795,
			"0.007": 5.71123076105,
			"0.008": 4.83981844739,
			"0.009": 4.39395145542,
			"0.01": 3.10323745323,
			"0.011": 2.11836769882,
			"0.012": 1.14330513931,
			"0.013": 0.985136482539,
			"0.014": 0.934311528866,
			"0.015": 0.491701195978,
			"0.016": 0.48573135804,
			"0.017": 0.0674103168668,
			"0.018": 0.0,
			"0.019": 0.0,
			"0.02": 0.0,
			"0.021": 0.0,
			"0.022": 0.0,
			"0.023": 0.0,
			"0.024": 0.0,
			"0.025": 0.0
		}
	}
}
