{
	 "smiles": "OC(=O)C1=C(C=CC(F)=C1)[N+]([O-])=O", 
	 "Tm": 408.15, 
	 "num_atms": 17, 
	 "gaussian": { 
		 "optdone": 1, 
		 "sigma_profile": "yes", 
		 "theory": "DFT", 
		 "functional": "B3LYP", 
		 "basiset": "6-31G**", 
		 "properties": { 
			 "R2extent": 2381.2007, 
			 "electric_dipole_moment_norm": 2.96953775696, 
			 "electric_quadrupole_moment_norm": 16.1408568022, 
			 "total_energy": -724.537266157, 
			 "HOMO_LUMO_gap": 0.18299, 
			 "cosmo_polarized_energy": -13.04, 
			 "cosmo_cavitation_energy": 23.78, 
			 "cosmo_dispersion_energy": -17.03, 
			 "cosmo_repulsion_energy": 1.33, 
			 "cosmo_total_nonelectrostatic_energy": 8.08, 
			 "SMD_solvation_energy": 8.01 
		},
		"coords": [
			{
				"x": -2.1995560591,
				"y": 0.264001959,
				"z": 0.1600461757,
				"element": "O" 
			},
			{
				"x": -1.1719390523,
				"y": -0.0153249334,
				"z": -0.6633126558,
				"element": "C" 
			},
			{
				"x": -1.2990149932,
				"y": -0.426033058,
				"z": -1.7936944529,
				"element": "O" 
			},
			{
				"x": 0.1539400415,
				"y": 0.3683157144,
				"z": -0.0651934012,
				"element": "C" 
			},
			{
				"x": 0.6136127314,
				"y": -0.0245132362,
				"z": 1.2007805292,
				"element": "C" 
			},
			{
				"x": 1.8214955834,
				"y": 0.4415624166,
				"z": 1.7173925534,
				"element": "C" 
			},
			{
				"x": 2.6120015734,
				"y": 1.299962372,
				"z": 0.9602730968,
				"element": "C" 
			},
			{
				"x": 2.1684791052,
				"y": 1.6644413637,
				"z": -0.3071800317,
				"element": "C" 
			},
			{
				"x": 2.9265138189,
				"y": 2.4817619856,
				"z": -1.0519802833,
				"element": "F" 
			},
			{
				"x": 0.9601560179,
				"y": 1.2135460393,
				"z": -0.8289527816,
				"element": "C" 
			},
			{
				"x": -0.1188130294,
				"y": -1.0202860231,
				"z": 1.9959898867,
				"element": "N" 
			},
			{
				"x": 0.0621769317,
				"y": -1.0173611435,
				"z": 3.2124461886,
				"element": "O" 
			},
			{
				"x": -0.833629483,
				"y": -1.8147525743,
				"z": 1.3882634134,
				"element": "O" 
			},
			{
				"x": -3.0080519251,
				"y": -0.0297879517,
				"z": -0.2931991083,
				"element": "H" 
			},
			{
				"x": 2.1305298509,
				"y": 0.1107279523,
				"z": 2.701158677,
				"element": "H" 
			},
			{
				"x": 3.560469012,
				"y": 1.673127282,
				"z": 1.3290980871,
				"element": "H" 
			},
			{
				"x": 0.6436298758,
				"y": 1.5260118351,
				"z": -1.8171358931,
				"element": "H" 
			}
		],
		 "valence_orbital": [ 
			{
				"type": "occ",
				"energy": -0.3172,
				"method": "rhf"
			},
			{
				"type": "occ",
				"energy": -0.30892,
				"method": "rhf"
			},
			{
				"type": "occ",
				"energy": -0.30699,
				"method": "rhf"
			},
			{
				"type": "occ",
				"energy": -0.28808,
				"method": "rhf"
			},
			{
				"type": "occ",
				"energy": -0.28127,
				"method": "rhf"
			},
			{
				"type": "unocc",
				"energy": -0.09828,
				"method": "rhf"
			},
			{
				"type": "unocc",
				"energy": -0.05934,
				"method": "rhf"
			},
			{
				"type": "unocc",
				"energy": -0.0214,
				"method": "rhf"
			},
			{
				"type": "unocc",
				"energy": 0.01358,
				"method": "rhf"
			},
			{
				"type": "unocc",
				"energy": 0.06125,
				"method": "rhf"
			}
		],
		"cosmo_sigma_profile": { 
			"-0.025": 0.0,
			"-0.024": 0.0,
			"-0.023": 0.0,
			"-0.022": 0.0,
			"-0.021": 0.0,
			"-0.02": 0.0207824088052,
			"-0.019": 0.865277142822,
			"-0.018": 0.751298886433,
			"-0.017": 1.07352130643,
			"-0.016": 0.936980690169,
			"-0.015": 0.738540999242,
			"-0.014": 0.257780302807,
			"-0.013": 0.743414057067,
			"-0.012": 0.921940943322,
			"-0.011": 0.626180146556,
			"-0.01": 1.307875878,
			"-0.009": 4.86096796635,
			"-0.008": 6.48152022452,
			"-0.007": 7.43481661482,
			"-0.006": 6.12617369834,
			"-0.005": 6.96617137825,
			"-0.004": 7.27235191661,
			"-0.003": 11.38453819,
			"-0.002": 19.8144204982,
			"-0.001": 16.7702276106,
			"0.0": 11.3067784312,
			"0.001": 8.46190783461,
			"0.002": 7.78222599901,
			"0.003": 14.5324192526,
			"0.004": 6.05043277779,
			"0.005": 7.15700366669,
			"0.006": 8.16014921474,
			"0.007": 10.3888258389,
			"0.008": 8.04723473974,
			"0.009": 4.607168106,
			"0.01": 5.02660567302,
			"0.011": 4.16473335048,
			"0.012": 0.379294877901,
			"0.013": 0.0,
			"0.014": 0.0,
			"0.015": 0.0,
			"0.016": 0.0,
			"0.017": 0.0,
			"0.018": 0.0,
			"0.019": 0.0,
			"0.02": 0.0,
			"0.021": 0.0,
			"0.022": 0.0,
			"0.023": 0.0,
			"0.024": 0.0,
			"0.025": 0.0
		}
	}
}
