{
	 "smiles": "NC1=NN=C(CC2=CC(Cl)=CC=C2)S1", 
	 "Tm": 470.15, 
	 "num_atms": 22, 
	 "gaussian": { 
		 "optdone": 1, 
		 "sigma_profile": "yes", 
		 "theory": "DFT", 
		 "functional": "B3LYP", 
		 "basiset": "6-31G**", 
		 "properties": { 
			 "R2extent": 4439.4276, 
			 "electric_dipole_moment_norm": 3.87252394441, 
			 "electric_quadrupole_moment_norm": 15.2288045572, 
			 "total_energy": -1370.39055997, 
			 "HOMO_LUMO_gap": 0.20676, 
			 "cosmo_polarized_energy": -15.99, 
			 "cosmo_cavitation_energy": 30.59, 
			 "cosmo_dispersion_energy": -22.39, 
			 "cosmo_repulsion_energy": 1.75, 
			 "cosmo_total_nonelectrostatic_energy": 9.95, 
			 "SMD_solvation_energy": 2.42 
		},
		"coords": [
			{
				"x": 1.1451188154,
				"y": -2.7513205476,
				"z": 2.5707821879,
				"element": "N" 
			},
			{
				"x": 0.3845754087,
				"y": -1.6901265938,
				"z": 2.1445315949,
				"element": "C" 
			},
			{
				"x": 0.2031705742,
				"y": -0.6068284809,
				"z": 2.8514515035,
				"element": "N" 
			},
			{
				"x": -0.6632418721,
				"y": 0.2706220313,
				"z": 2.2553036509,
				"element": "N" 
			},
			{
				"x": -1.1248233016,
				"y": -0.1274812043,
				"z": 1.1112078251,
				"element": "C" 
			},
			{
				"x": -2.0542018269,
				"y": 0.6859812918,
				"z": 0.2563194576,
				"element": "C" 
			},
			{
				"x": -1.4094850797,
				"y": 1.2388291945,
				"z": -1.0066037451,
				"element": "C" 
			},
			{
				"x": -0.2676016326,
				"y": 2.045709911,
				"z": -0.9085140048,
				"element": "C" 
			},
			{
				"x": 0.3086368812,
				"y": 2.5630442122,
				"z": -2.0649636151,
				"element": "C" 
			},
			{
				"x": 1.7404776059,
				"y": 3.5765990862,
				"z": -1.9321423796,
				"element": "Cl" 
			},
			{
				"x": -0.222214246,
				"y": 2.2971293658,
				"z": -3.3283390502,
				"element": "C" 
			},
			{
				"x": -1.3570439156,
				"y": 1.4930771367,
				"z": -3.4189691011,
				"element": "C" 
			},
			{
				"x": -1.9471529389,
				"y": 0.9660133648,
				"z": -2.2681358369,
				"element": "C" 
			},
			{
				"x": -0.5170826557,
				"y": -1.7236287634,
				"z": 0.6306882724,
				"element": "S" 
			},
			{
				"x": 1.631977313,
				"y": -3.2808373245,
				"z": 1.8620506034,
				"element": "H" 
			},
			{
				"x": 1.7136272326,
				"y": -2.5235775147,
				"z": 3.3769622628,
				"element": "H" 
			},
			{
				"x": -2.9347289968,
				"y": 0.0925230082,
				"z": -0.0127493146,
				"element": "H" 
			},
			{
				"x": -2.3998656364,
				"y": 1.5070809824,
				"z": 0.8938006976,
				"element": "H" 
			},
			{
				"x": 0.1655937784,
				"y": 2.263016067,
				"z": 0.0624959386,
				"element": "H" 
			},
			{
				"x": 0.2452034085,
				"y": 2.7114804284,
				"z": -4.2144922078,
				"element": "H" 
			},
			{
				"x": -1.78219028,
				"y": 1.2758617942,
				"z": -4.3944062569,
				"element": "H" 
			},
			{
				"x": -2.8325486356,
				"y": 0.3416325545,
				"z": -2.3518784827,
				"element": "H" 
			}
		],
		 "valence_orbital": [ 
			{
				"type": "occ",
				"energy": -0.28972,
				"method": "rhf"
			},
			{
				"type": "occ",
				"energy": -0.26113,
				"method": "rhf"
			},
			{
				"type": "occ",
				"energy": -0.2597,
				"method": "rhf"
			},
			{
				"type": "occ",
				"energy": -0.24806,
				"method": "rhf"
			},
			{
				"type": "occ",
				"energy": -0.23353,
				"method": "rhf"
			},
			{
				"type": "unocc",
				"energy": -0.02677,
				"method": "rhf"
			},
			{
				"type": "unocc",
				"energy": -0.02017,
				"method": "rhf"
			},
			{
				"type": "unocc",
				"energy": -0.01066,
				"method": "rhf"
			},
			{
				"type": "unocc",
				"energy": -0.00111,
				"method": "rhf"
			},
			{
				"type": "unocc",
				"energy": 0.03084,
				"method": "rhf"
			}
		],
		"cosmo_sigma_profile": { 
			"-0.025": 0.0,
			"-0.024": 0.0,
			"-0.023": 0.0,
			"-0.022": 0.0,
			"-0.021": 0.0,
			"-0.02": 0.0,
			"-0.019": 0.0,
			"-0.018": 0.0,
			"-0.017": 0.0,
			"-0.016": 0.0,
			"-0.015": 1.1837327985,
			"-0.014": 2.48284126534,
			"-0.013": 2.76394285391,
			"-0.012": 2.99576937548,
			"-0.011": 2.66435759124,
			"-0.01": 2.37318386299,
			"-0.009": 1.27075746544,
			"-0.008": 2.09907022506,
			"-0.007": 8.47661851627,
			"-0.006": 13.6170059149,
			"-0.005": 13.2976872711,
			"-0.004": 12.3514813503,
			"-0.003": 14.5135598249,
			"-0.002": 12.4896485955,
			"-0.001": 14.9257732257,
			"0.0": 19.0009897489,
			"0.001": 22.4595539534,
			"0.002": 21.648632646,
			"0.003": 21.1590226235,
			"0.004": 20.2673552225,
			"0.005": 10.9729209488,
			"0.006": 2.86960924666,
			"0.007": 2.58570431874,
			"0.008": 2.18577487759,
			"0.009": 2.09237348037,
			"0.01": 2.69588602744,
			"0.011": 3.18658511996,
			"0.012": 3.33395121985,
			"0.013": 2.80149209829,
			"0.014": 2.3661375133,
			"0.015": 1.854368809,
			"0.016": 0.260164927075,
			"0.017": 0.0,
			"0.018": 0.0,
			"0.019": 0.0,
			"0.02": 0.0,
			"0.021": 0.0,
			"0.022": 0.0,
			"0.023": 0.0,
			"0.024": 0.0,
			"0.025": 0.0
		}
	}
}
