{
	 "smiles": "OC(=O)C1(CCCC1)C1=CC(Cl)=CC=C1", 
	 "Tm": 424.15, 
	 "num_atms": 28, 
	 "gaussian": { 
		 "optdone": 1, 
		 "sigma_profile": "yes", 
		 "theory": "DFT", 
		 "functional": "B3LYP", 
		 "basiset": "6-31G**", 
		 "properties": { 
			 "R2extent": 3926.6501, 
			 "electric_dipole_moment_norm": 3.00764995969, 
			 "electric_quadrupole_moment_norm": 15.1465688035, 
			 "total_energy": -1075.76650456, 
			 "HOMO_LUMO_gap": 0.22063, 
			 "cosmo_polarized_energy": -12.19, 
			 "cosmo_cavitation_energy": 31.68, 
			 "cosmo_dispersion_energy": -22.44, 
			 "cosmo_repulsion_energy": 1.76, 
			 "cosmo_total_nonelectrostatic_energy": 11.01, 
			 "SMD_solvation_energy": 5.54 
		},
		"coords": [
			{
				"x": -2.1320158055,
				"y": 1.2995953169,
				"z": 0.9482594223,
				"element": "O" 
			},
			{
				"x": -1.3131646,
				"y": 1.717250544,
				"z": -0.0470547024,
				"element": "C" 
			},
			{
				"x": -1.6940805089,
				"y": 2.5520044021,
				"z": -0.8316998609,
				"element": "O" 
			},
			{
				"x": 0.1209623897,
				"y": 1.1398284011,
				"z": -0.0487893559,
				"element": "C" 
			},
			{
				"x": 0.7469362141,
				"y": 1.1988748547,
				"z": -1.4679079,
				"element": "C" 
			},
			{
				"x": 2.2655851062,
				"y": 1.1966963358,
				"z": -1.2189269219,
				"element": "C" 
			},
			{
				"x": 2.4632009374,
				"y": 1.9505038395,
				"z": 0.1260180033,
				"element": "C" 
			},
			{
				"x": 1.0405017122,
				"y": 2.1442964742,
				"z": 0.7124280625,
				"element": "C" 
			},
			{
				"x": 0.1455706831,
				"y": -0.29419696,
				"z": 0.4975996236,
				"element": "C" 
			},
			{
				"x": 0.9234003179,
				"y": -0.679093477,
				"z": 1.5981184664,
				"element": "C" 
			},
			{
				"x": 0.9144478444,
				"y": -2.0060359114,
				"z": 2.0344231598,
				"element": "C" 
			},
			{
				"x": 1.9090743197,
				"y": -2.4533967875,
				"z": 3.4134889137,
				"element": "Cl" 
			},
			{
				"x": 0.1400977015,
				"y": -2.9765898629,
				"z": 1.4065034405,
				"element": "C" 
			},
			{
				"x": -0.6422320949,
				"y": -2.5951465493,
				"z": 0.3140497548,
				"element": "C" 
			},
			{
				"x": -0.6392905504,
				"y": -1.2773967816,
				"z": -0.1352034214,
				"element": "C" 
			},
			{
				"x": -1.6971916898,
				"y": 0.5950743649,
				"z": 1.4536408131,
				"element": "H" 
			},
			{
				"x": 0.4206733641,
				"y": 2.1346956768,
				"z": -1.9302272921,
				"element": "H" 
			},
			{
				"x": 0.4153054378,
				"y": 0.3791238682,
				"z": -2.1112252782,
				"element": "H" 
			},
			{
				"x": 2.8124311431,
				"y": 1.6603475719,
				"z": -2.0449596334,
				"element": "H" 
			},
			{
				"x": 2.6316020612,
				"y": 0.1683381023,
				"z": -1.1319338863,
				"element": "H" 
			},
			{
				"x": 3.1036578937,
				"y": 1.3777719488,
				"z": 0.8036272318,
				"element": "H" 
			},
			{
				"x": 2.9487079407,
				"y": 2.9201982686,
				"z": -0.0172881695,
				"element": "H" 
			},
			{
				"x": 0.6793962047,
				"y": 3.1500756954,
				"z": 0.4786121418,
				"element": "H" 
			},
			{
				"x": 0.9912689718,
				"y": 2.0387511969,
				"z": 1.7999895345,
				"element": "H" 
			},
			{
				"x": 1.5468082296,
				"y": 0.0354255064,
				"z": 2.1203827999,
				"element": "H" 
			},
			{
				"x": 0.1471466598,
				"y": -4.0000576147,
				"z": 1.7637896837,
				"element": "H" 
			},
			{
				"x": -1.2579045316,
				"y": -3.3358162012,
				"z": -0.1873551408,
				"element": "H" 
			},
			{
				"x": -1.2575953516,
				"y": -1.0031222226,
				"z": -0.9853594893,
				"element": "H" 
			}
		],
		 "valence_orbital": [ 
			{
				"type": "occ",
				"energy": -0.32227,
				"method": "rhf"
			},
			{
				"type": "occ",
				"energy": -0.31154,
				"method": "rhf"
			},
			{
				"type": "occ",
				"energy": -0.28385,
				"method": "rhf"
			},
			{
				"type": "occ",
				"energy": -0.26653,
				"method": "rhf"
			},
			{
				"type": "occ",
				"energy": -0.25519,
				"method": "rhf"
			},
			{
				"type": "unocc",
				"energy": -0.03456,
				"method": "rhf"
			},
			{
				"type": "unocc",
				"energy": -0.03,
				"method": "rhf"
			},
			{
				"type": "unocc",
				"energy": 0.00684,
				"method": "rhf"
			},
			{
				"type": "unocc",
				"energy": 0.01993,
				"method": "rhf"
			},
			{
				"type": "unocc",
				"energy": 0.07101,
				"method": "rhf"
			}
		],
		"cosmo_sigma_profile": { 
			"-0.025": 0.0,
			"-0.024": 0.0,
			"-0.023": 0.0,
			"-0.022": 0.0,
			"-0.021": 0.0,
			"-0.02": 0.0,
			"-0.019": 0.0,
			"-0.018": 0.0,
			"-0.017": 0.0,
			"-0.016": 0.159646439287,
			"-0.015": 0.472829293828,
			"-0.014": 0.279747275712,
			"-0.013": 0.7140126291,
			"-0.012": 1.12096949255,
			"-0.011": 1.33498513997,
			"-0.01": 1.22991836192,
			"-0.009": 0.941893369661,
			"-0.008": 1.51302059973,
			"-0.007": 7.43650927175,
			"-0.006": 11.1098399068,
			"-0.005": 12.7933359107,
			"-0.004": 13.1022395759,
			"-0.003": 20.2353980923,
			"-0.002": 27.1871350793,
			"-0.001": 27.1878808248,
			"0.0": 25.3384736973,
			"0.001": 21.6493634558,
			"0.002": 15.2140253585,
			"0.003": 14.2591461092,
			"0.004": 12.9560966176,
			"0.005": 8.90974104834,
			"0.006": 2.22237084748,
			"0.007": 1.78005221117,
			"0.008": 3.25728624147,
			"0.009": 3.41583780766,
			"0.01": 4.77706886693,
			"0.011": 4.59849443274,
			"0.012": 5.0193371835,
			"0.013": 1.69797282881,
			"0.014": 0.103868402259,
			"0.015": 0.0,
			"0.016": 0.0,
			"0.017": 0.0,
			"0.018": 0.0,
			"0.019": 0.0,
			"0.02": 0.0,
			"0.021": 0.0,
			"0.022": 0.0,
			"0.023": 0.0,
			"0.024": 0.0,
			"0.025": 0.0
		}
	}
}
