{
	 "smiles": "CCOC(=O)CC1=CC=C(Cl)C(Cl)=C1", 
	 "Tm": 298.15, 
	 "num_atms": 24, 
	 "gaussian": { 
		 "optdone": 1, 
		 "sigma_profile": "yes", 
		 "theory": "DFT", 
		 "functional": "B3LYP", 
		 "basiset": "6-31G**", 
		 "properties": { 
			 "R2extent": 5850.1208, 
			 "electric_dipole_moment_norm": 3.31069012292, 
			 "electric_quadrupole_moment_norm": 8.16493208239, 
			 "total_energy": -1457.94037485, 
			 "HOMO_LUMO_gap": 0.21898, 
			 "cosmo_polarized_energy": -8.28, 
			 "cosmo_cavitation_energy": 32.02, 
			 "cosmo_dispersion_energy": -23.03, 
			 "cosmo_repulsion_energy": 1.86, 
			 "cosmo_total_nonelectrostatic_energy": 10.85, 
			 "SMD_solvation_energy": 5.88 
		},
		"coords": [
			{
				"x": -3.5828115752,
				"y": 1.0700159937,
				"z": 2.3908972537,
				"element": "C" 
			},
			{
				"x": -2.6486432897,
				"y": 2.2560146309,
				"z": 2.2087950124,
				"element": "C" 
			},
			{
				"x": -1.4419698426,
				"y": 1.8690609077,
				"z": 1.5000516651,
				"element": "O" 
			},
			{
				"x": -1.5039924281,
				"y": 1.8795436571,
				"z": 0.1547975519,
				"element": "C" 
			},
			{
				"x": -2.4851695531,
				"y": 2.1981109994,
				"z": -0.484559328,
				"element": "O" 
			},
			{
				"x": -0.1790121605,
				"y": 1.4514901294,
				"z": -0.4635285621,
				"element": "C" 
			},
			{
				"x": -0.3028349643,
				"y": 0.1837274978,
				"z": -1.2906469661,
				"element": "C" 
			},
			{
				"x": -1.1889891341,
				"y": 0.1065473818,
				"z": -2.3739569856,
				"element": "C" 
			},
			{
				"x": -1.2789217156,
				"y": -1.0572466797,
				"z": -3.1299632936,
				"element": "C" 
			},
			{
				"x": -0.4858159397,
				"y": -2.1668000758,
				"z": -2.8237243516,
				"element": "C" 
			},
			{
				"x": -0.628485568,
				"y": -3.6056268407,
				"z": -3.8041690697,
				"element": "Cl" 
			},
			{
				"x": 0.4002170992,
				"y": -2.0990444511,
				"z": -1.742842531,
				"element": "C" 
			},
			{
				"x": 1.4161992868,
				"y": -3.4525843435,
				"z": -1.3058656971,
				"element": "Cl" 
			},
			{
				"x": 0.4840832284,
				"y": -0.9281612619,
				"z": -0.9846632989,
				"element": "C" 
			},
			{
				"x": -4.4472542826,
				"y": 1.369075716,
				"z": 2.9928405743,
				"element": "H" 
			},
			{
				"x": -3.9459747134,
				"y": 0.7141207471,
				"z": 1.4237430288,
				"element": "H" 
			},
			{
				"x": -3.0749052023,
				"y": 0.2482138785,
				"z": 2.9038931466,
				"element": "H" 
			},
			{
				"x": -3.1353262534,
				"y": 3.0632413062,
				"z": 1.656638703,
				"element": "H" 
			},
			{
				"x": -2.2870279041,
				"y": 2.6351908017,
				"z": 3.1672652425,
				"element": "H" 
			},
			{
				"x": 0.5675106891,
				"y": 1.3261681586,
				"z": 0.3223209151,
				"element": "H" 
			},
			{
				"x": 0.1425771078,
				"y": 2.2799617594,
				"z": -1.106472924,
				"element": "H" 
			},
			{
				"x": -1.8213819504,
				"y": 0.9553953994,
				"z": -2.6092742978,
				"element": "H" 
			},
			{
				"x": -1.9650135928,
				"y": -1.1183889084,
				"z": -3.9675579654,
				"element": "H" 
			},
			{
				"x": 1.1770426586,
				"y": -0.8984264037,
				"z": -0.1503178225,
				"element": "H" 
			}
		],
		 "valence_orbital": [ 
			{
				"type": "occ",
				"energy": -0.30862,
				"method": "rhf"
			},
			{
				"type": "occ",
				"energy": -0.30772,
				"method": "rhf"
			},
			{
				"type": "occ",
				"energy": -0.28284,
				"method": "rhf"
			},
			{
				"type": "occ",
				"energy": -0.26082,
				"method": "rhf"
			},
			{
				"type": "occ",
				"energy": -0.24611,
				"method": "rhf"
			},
			{
				"type": "unocc",
				"energy": -0.02713,
				"method": "rhf"
			},
			{
				"type": "unocc",
				"energy": -0.023,
				"method": "rhf"
			},
			{
				"type": "unocc",
				"energy": 0.00031,
				"method": "rhf"
			},
			{
				"type": "unocc",
				"energy": 0.00884,
				"method": "rhf"
			},
			{
				"type": "unocc",
				"energy": 0.0632,
				"method": "rhf"
			}
		],
		"cosmo_sigma_profile": { 
			"-0.025": 0.0,
			"-0.024": 0.0,
			"-0.023": 0.0,
			"-0.022": 0.0,
			"-0.021": 0.0,
			"-0.02": 0.0,
			"-0.019": 0.0,
			"-0.018": 0.0,
			"-0.017": 0.0,
			"-0.016": 0.0,
			"-0.015": 0.0,
			"-0.014": 0.0,
			"-0.013": 0.0,
			"-0.012": 0.0,
			"-0.011": 0.0,
			"-0.01": 0.0,
			"-0.009": 0.125395709263,
			"-0.008": 3.34217822865,
			"-0.007": 7.4080659138,
			"-0.006": 9.25568312206,
			"-0.005": 14.8722953345,
			"-0.004": 18.3522308797,
			"-0.003": 22.1538227145,
			"-0.002": 22.2380274445,
			"-0.001": 19.8204161527,
			"0.0": 26.1791049206,
			"0.001": 24.231436714,
			"0.002": 24.3005230865,
			"0.003": 19.8348613071,
			"0.004": 20.5817022044,
			"0.005": 9.20946765501,
			"0.006": 3.31980471598,
			"0.007": 2.42454267402,
			"0.008": 3.01069043794,
			"0.009": 1.42106825041,
			"0.01": 2.2564904581,
			"0.011": 2.70122816392,
			"0.012": 2.15141920035,
			"0.013": 0.0,
			"0.014": 0.0,
			"0.015": 0.0,
			"0.016": 0.0,
			"0.017": 0.0,
			"0.018": 0.0,
			"0.019": 0.0,
			"0.02": 0.0,
			"0.021": 0.0,
			"0.022": 0.0,
			"0.023": 0.0,
			"0.024": 0.0,
			"0.025": 0.0
		}
	}
}
