{
	 "smiles": "C1COCCOCCOCCOCCOCCO1", 
	 "Tm": 312.15, 
	 "num_atms": 42, 
	 "gaussian": { 
		 "optdone": 1, 
		 "sigma_profile": "yes", 
		 "theory": "DFT", 
		 "functional": "B3LYP", 
		 "basiset": "6-31G**", 
		 "properties": { 
			 "R2extent": 5894.5354, 
			 "electric_dipole_moment_norm": 2.2933065059, 
			 "electric_quadrupole_moment_norm": 12.2062150985, 
			 "total_energy": -922.986583785, 
			 "HOMO_LUMO_gap": 0.29326, 
			 "cosmo_polarized_energy": -14.32, 
			 "cosmo_cavitation_energy": 41.21, 
			 "cosmo_dispersion_energy": -27.77, 
			 "cosmo_repulsion_energy": 2.17, 
			 "cosmo_total_nonelectrostatic_energy": 15.6, 
			 "SMD_solvation_energy": 6.31 
		},
		"coords": [
			{
				"x": 1.7242242815,
				"y": -0.0868113319,
				"z": 2.0399958974,
				"element": "C" 
			},
			{
				"x": 2.3343139145,
				"y": -1.4765874438,
				"z": 2.234159372,
				"element": "C" 
			},
			{
				"x": 3.5024270461,
				"y": -1.7096134599,
				"z": 1.4593219859,
				"element": "O" 
			},
			{
				"x": 3.363908193,
				"y": -1.6182892957,
				"z": 0.0493570322,
				"element": "C" 
			},
			{
				"x": 2.5037967627,
				"y": -2.7311512431,
				"z": -0.563278003,
				"element": "C" 
			},
			{
				"x": 2.5404568097,
				"y": -2.642809637,
				"z": -1.9839147097,
				"element": "O" 
			},
			{
				"x": 1.3374685797,
				"y": -2.2372012923,
				"z": -2.6137469967,
				"element": "C" 
			},
			{
				"x": 1.0997886092,
				"y": -0.7291530898,
				"z": -2.5174346142,
				"element": "C" 
			},
			{
				"x": -0.1136277515,
				"y": -0.4497031193,
				"z": -3.1915171697,
				"element": "O" 
			},
			{
				"x": -0.4305561433,
				"y": 0.9346133278,
				"z": -3.2906842331,
				"element": "C" 
			},
			{
				"x": -1.0256646599,
				"y": 1.5446142876,
				"z": -2.0213725733,
				"element": "C" 
			},
			{
				"x": -2.3405654351,
				"y": 1.0741325259,
				"z": -1.7555933209,
				"element": "O" 
			},
			{
				"x": -2.4335315002,
				"y": -0.1240934654,
				"z": -0.9973635746,
				"element": "C" 
			},
			{
				"x": -2.5527599701,
				"y": 0.1283905694,
				"z": 0.4972728528,
				"element": "C" 
			},
			{
				"x": -1.3067923086,
				"y": 0.5516666661,
				"z": 1.035145321,
				"element": "O" 
			},
			{
				"x": -1.4043312518,
				"y": 0.8853669528,
				"z": 2.4104680264,
				"element": "C" 
			},
			{
				"x": -0.0369307141,
				"y": 1.2351122757,
				"z": 2.9760345464,
				"element": "C" 
			},
			{
				"x": 0.8087699233,
				"y": 0.1039884251,
				"z": 3.1086404072,
				"element": "O" 
			},
			{
				"x": 1.2061650686,
				"y": -0.0059386739,
				"z": 1.0763804332,
				"element": "H" 
			},
			{
				"x": 2.5256613966,
				"y": 0.6696969926,
				"z": 2.0671817238,
				"element": "H" 
			},
			{
				"x": 1.5630653452,
				"y": -2.2408727363,
				"z": 2.0599935206,
				"element": "H" 
			},
			{
				"x": 2.6528885937,
				"y": -1.5666332646,
				"z": 3.2765612089,
				"element": "H" 
			},
			{
				"x": 4.3774992901,
				"y": -1.7037394337,
				"z": -0.3532768072,
				"element": "H" 
			},
			{
				"x": 2.9760190347,
				"y": -0.6368503335,
				"z": -0.2588669653,
				"element": "H" 
			},
			{
				"x": 1.468744219,
				"y": -2.6814303641,
				"z": -0.1983536114,
				"element": "H" 
			},
			{
				"x": 2.9135404835,
				"y": -3.7045237334,
				"z": -0.2664180513,
				"element": "H" 
			},
			{
				"x": 1.4251643896,
				"y": -2.5195537442,
				"z": -3.6671460383,
				"element": "H" 
			},
			{
				"x": 0.4694541418,
				"y": -2.7699685278,
				"z": -2.1968800536,
				"element": "H" 
			},
			{
				"x": 1.9427811283,
				"y": -0.190977719,
				"z": -2.9800332332,
				"element": "H" 
			},
			{
				"x": 1.0498748355,
				"y": -0.4218700945,
				"z": -1.4612995916,
				"element": "H" 
			},
			{
				"x": 0.4633723961,
				"y": 1.5098794886,
				"z": -3.5861147999,
				"element": "H" 
			},
			{
				"x": -1.1698782768,
				"y": 1.014318075,
				"z": -4.0939615685,
				"element": "H" 
			},
			{
				"x": -0.3729264168,
				"y": 1.3950862665,
				"z": -1.1532081203,
				"element": "H" 
			},
			{
				"x": -1.1153566732,
				"y": 2.6267198951,
				"z": -2.1800310878,
				"element": "H" 
			},
			{
				"x": -1.5952212671,
				"y": -0.7970767432,
				"z": -1.2074584458,
				"element": "H" 
			},
			{
				"x": -3.3507913029,
				"y": -0.6273552225,
				"z": -1.3263511722,
				"element": "H" 
			},
			{
				"x": -3.32321371,
				"y": 0.8965745313,
				"z": 0.6705882142,
				"element": "H" 
			},
			{
				"x": -2.8849478805,
				"y": -0.7986718763,
				"z": 0.996531268,
				"element": "H" 
			},
			{
				"x": -1.8181648165,
				"y": 0.0381758752,
				"z": 2.9808144691,
				"element": "H" 
			},
			{
				"x": -2.0833983529,
				"y": 1.7448301145,
				"z": 2.5491935694,
				"element": "H" 
			},
			{
				"x": 0.4343924872,
				"y": 2.015449525,
				"z": 2.3617141266,
				"element": "H" 
			},
			{
				"x": -0.1835184981,
				"y": 1.6459600511,
				"z": 3.9828507661,
				"element": "H" 
			}
		],
		 "valence_orbital": [ 
			{
				"type": "occ",
				"energy": -0.27041,
				"method": "rhf"
			},
			{
				"type": "occ",
				"energy": -0.26673,
				"method": "rhf"
			},
			{
				"type": "occ",
				"energy": -0.25495,
				"method": "rhf"
			},
			{
				"type": "occ",
				"energy": -0.24433,
				"method": "rhf"
			},
			{
				"type": "occ",
				"energy": -0.2387,
				"method": "rhf"
			},
			{
				"type": "unocc",
				"energy": 0.05456,
				"method": "rhf"
			},
			{
				"type": "unocc",
				"energy": 0.07441,
				"method": "rhf"
			},
			{
				"type": "unocc",
				"energy": 0.08294,
				"method": "rhf"
			},
			{
				"type": "unocc",
				"energy": 0.09066,
				"method": "rhf"
			},
			{
				"type": "unocc",
				"energy": 0.09436,
				"method": "rhf"
			}
		],
		"cosmo_sigma_profile": { 
			"-0.025": 0.0,
			"-0.024": 0.0,
			"-0.023": 0.0,
			"-0.022": 0.0,
			"-0.021": 0.0,
			"-0.02": 0.0,
			"-0.019": 0.0,
			"-0.018": 0.0,
			"-0.017": 0.0,
			"-0.016": 0.0,
			"-0.015": 0.0,
			"-0.014": 0.0,
			"-0.013": 0.0,
			"-0.012": 0.0,
			"-0.011": 0.0,
			"-0.01": 0.0,
			"-0.009": 0.0,
			"-0.008": 0.0,
			"-0.007": 0.450320594992,
			"-0.006": 3.33991269208,
			"-0.005": 22.0328313944,
			"-0.004": 55.3237970711,
			"-0.003": 55.8334136357,
			"-0.002": 39.2317035511,
			"-0.001": 23.8868852838,
			"0.0": 15.3106150278,
			"0.001": 11.4569465191,
			"0.002": 10.6119880068,
			"0.003": 11.0058888437,
			"0.004": 8.6998910902,
			"0.005": 7.59475717057,
			"0.006": 8.82984878099,
			"0.007": 10.94643721,
			"0.008": 6.28877690717,
			"0.009": 5.09355476791,
			"0.01": 5.08080677085,
			"0.011": 5.06380928603,
			"0.012": 6.67291762438,
			"0.013": 4.61285460407,
			"0.014": 1.02627141433,
			"0.015": 0.0,
			"0.016": 0.0,
			"0.017": 0.0,
			"0.018": 0.0,
			"0.019": 0.0,
			"0.02": 0.0,
			"0.021": 0.0,
			"0.022": 0.0,
			"0.023": 0.0,
			"0.024": 0.0,
			"0.025": 0.0
		}
	}
}
