{
	 "smiles": "OC(=O)C1=CC=C(C=C1)C1=CC=C(O1)C=O", 
	 "Tm": 587.15, 
	 "num_atms": 24, 
	 "gaussian": { 
		 "optdone": 1, 
		 "sigma_profile": "yes", 
		 "theory": "DFT", 
		 "functional": "B3LYP", 
		 "basiset": "6-31G**", 
		 "properties": { 
			 "R2extent": 5932.6774, 
			 "electric_dipole_moment_norm": 4.12693217293, 
			 "electric_quadrupole_moment_norm": 43.5570446892, 
			 "total_energy": -762.976117676, 
			 "HOMO_LUMO_gap": 0.14586, 
			 "cosmo_polarized_energy": -19.67, 
			 "cosmo_cavitation_energy": 30.47, 
			 "cosmo_dispersion_energy": -22.05, 
			 "cosmo_repulsion_energy": 1.68, 
			 "cosmo_total_nonelectrostatic_energy": 10.1, 
			 "SMD_solvation_energy": 7.87 
		},
		"coords": [
			{
				"x": -0.0500949323,
				"y": 0.4903221396,
				"z": -6.2189593704,
				"element": "O" 
			},
			{
				"x": -0.6712938272,
				"y": -0.291866872,
				"z": -5.2956879416,
				"element": "C" 
			},
			{
				"x": -1.3238836073,
				"y": -1.2446485221,
				"z": -5.6516501514,
				"element": "O" 
			},
			{
				"x": -0.4996894184,
				"y": 0.0922726856,
				"z": -3.85727825,
				"element": "C" 
			},
			{
				"x": -0.1308034398,
				"y": 1.3810015215,
				"z": -3.4424946745,
				"element": "C" 
			},
			{
				"x": -0.0043967194,
				"y": 1.6810125483,
				"z": -2.0915946899,
				"element": "C" 
			},
			{
				"x": -0.2416912576,
				"y": 0.6959068779,
				"z": -1.1159849185,
				"element": "C" 
			},
			{
				"x": -0.6253216828,
				"y": -0.5928365251,
				"z": -1.5347671488,
				"element": "C" 
			},
			{
				"x": -0.7607038767,
				"y": -0.8836117399,
				"z": -2.8851298581,
				"element": "C" 
			},
			{
				"x": -0.0996920654,
				"y": 1.0099392369,
				"z": 0.2983453542,
				"element": "C" 
			},
			{
				"x": 0.252589503,
				"y": 2.1588645422,
				"z": 0.9807218147,
				"element": "C" 
			},
			{
				"x": 0.2150029892,
				"y": 1.8436158967,
				"z": 2.3594204908,
				"element": "C" 
			},
			{
				"x": -0.1568032709,
				"y": 0.5227879537,
				"z": 2.4483259987,
				"element": "C" 
			},
			{
				"x": -0.3491804247,
				"y": 0.0126805039,
				"z": 1.1901319591,
				"element": "O" 
			},
			{
				"x": -0.3675427203,
				"y": -0.3698900924,
				"z": 3.578527177,
				"element": "C" 
			},
			{
				"x": -0.2247279026,
				"y": -0.0247375734,
				"z": 4.7393121271,
				"element": "O" 
			},
			{
				"x": 0.564157885,
				"y": 1.0988575351,
				"z": -5.7860136451,
				"element": "H" 
			},
			{
				"x": 0.0231704689,
				"y": 2.1768655574,
				"z": -4.1671118164,
				"element": "H" 
			},
			{
				"x": 0.271712145,
				"y": 2.6869240188,
				"z": -1.7927413176,
				"element": "H" 
			},
			{
				"x": -0.8183139788,
				"y": -1.3580791605,
				"z": -0.7916313089,
				"element": "H" 
			},
			{
				"x": -1.0688212167,
				"y": -1.8698197361,
				"z": -3.2148304392,
				"element": "H" 
			},
			{
				"x": 0.5067786354,
				"y": 3.1121447476,
				"z": 0.5411934918,
				"element": "H" 
			},
			{
				"x": 0.4299854776,
				"y": 2.4893211518,
				"z": 3.1980518581,
				"element": "H" 
			},
			{
				"x": -0.6715367632,
				"y": -1.3999266952,
				"z": 3.2983452589,
				"element": "H" 
			}
		],
		 "valence_orbital": [ 
			{
				"type": "occ",
				"energy": -0.30233,
				"method": "rhf"
			},
			{
				"type": "occ",
				"energy": -0.28458,
				"method": "rhf"
			},
			{
				"type": "occ",
				"energy": -0.27873,
				"method": "rhf"
			},
			{
				"type": "occ",
				"energy": -0.26556,
				"method": "rhf"
			},
			{
				"type": "occ",
				"energy": -0.23701,
				"method": "rhf"
			},
			{
				"type": "unocc",
				"energy": -0.09115,
				"method": "rhf"
			},
			{
				"type": "unocc",
				"energy": -0.04917,
				"method": "rhf"
			},
			{
				"type": "unocc",
				"energy": -0.03373,
				"method": "rhf"
			},
			{
				"type": "unocc",
				"energy": 0.01058,
				"method": "rhf"
			},
			{
				"type": "unocc",
				"energy": 0.05083,
				"method": "rhf"
			}
		],
		"cosmo_sigma_profile": { 
			"-0.025": 0.0,
			"-0.024": 0.0,
			"-0.023": 0.0,
			"-0.022": 0.0,
			"-0.021": 0.0,
			"-0.02": 0.0,
			"-0.019": 0.492274941097,
			"-0.018": 0.94674128236,
			"-0.017": 0.968272735893,
			"-0.016": 0.552816822965,
			"-0.015": 0.793883691637,
			"-0.014": 0.852351442682,
			"-0.013": 1.38251222796,
			"-0.012": 1.68044805492,
			"-0.011": 0.916389938708,
			"-0.01": 1.6983134376,
			"-0.009": 5.2372856203,
			"-0.008": 6.70198565607,
			"-0.007": 8.98785973725,
			"-0.006": 13.9735948481,
			"-0.005": 11.5189347132,
			"-0.004": 12.1064403181,
			"-0.003": 12.942122854,
			"-0.002": 14.244605954,
			"-0.001": 18.4145315394,
			"0.0": 23.2492483436,
			"0.001": 20.7580820742,
			"0.002": 24.6838299091,
			"0.003": 10.0860826694,
			"0.004": 3.84172114406,
			"0.005": 4.02951875537,
			"0.006": 3.0488601424,
			"0.007": 4.40407616282,
			"0.008": 5.0177858509,
			"0.009": 4.97471009781,
			"0.01": 7.25142248993,
			"0.011": 9.65766507537,
			"0.012": 8.16403244165,
			"0.013": 2.28797877182,
			"0.014": 0.016385320309,
			"0.015": 0.0,
			"0.016": 0.0,
			"0.017": 0.0,
			"0.018": 0.0,
			"0.019": 0.0,
			"0.02": 0.0,
			"0.021": 0.0,
			"0.022": 0.0,
			"0.023": 0.0,
			"0.024": 0.0,
			"0.025": 0.0
		}
	}
}
