{
	 "smiles": "OC(=O)C1=CC(O)=C(F)C=C1", 
	 "Tm": 488.65, 
	 "num_atms": 16, 
	 "gaussian": { 
		 "optdone": 1, 
		 "sigma_profile": "yes", 
		 "theory": "DFT", 
		 "functional": "B3LYP", 
		 "basiset": "6-31G**", 
		 "properties": { 
			 "R2extent": 1982.5887, 
			 "electric_dipole_moment_norm": 3.61491968652, 
			 "electric_quadrupole_moment_norm": 23.0167597222, 
			 "total_energy": -595.259690896, 
			 "HOMO_LUMO_gap": 0.19207, 
			 "cosmo_polarized_energy": -19.13, 
			 "cosmo_cavitation_energy": 21.66, 
			 "cosmo_dispersion_energy": -15.99, 
			 "cosmo_repulsion_energy": 1.26, 
			 "cosmo_total_nonelectrostatic_energy": 6.93, 
			 "SMD_solvation_energy": 5.84 
		},
		"coords": [
			{
				"x": 0.6010296768,
				"y": -2.7267840805,
				"z": -1.8485295058,
				"element": "O" 
			},
			{
				"x": -0.421100007,
				"y": -1.8459677095,
				"z": -2.0398165925,
				"element": "C" 
			},
			{
				"x": -1.2505201272,
				"y": -2.0598416309,
				"z": -2.891382714,
				"element": "O" 
			},
			{
				"x": -0.4407311368,
				"y": -0.6392770537,
				"z": -1.1527121701,
				"element": "C" 
			},
			{
				"x": 0.7191263858,
				"y": -0.142216033,
				"z": -0.5336918123,
				"element": "C" 
			},
			{
				"x": 0.6653862286,
				"y": 0.9941311975,
				"z": 0.2730612484,
				"element": "C" 
			},
			{
				"x": 1.7399228296,
				"y": 1.5498416054,
				"z": 0.8935493288,
				"element": "O" 
			},
			{
				"x": -0.5777839398,
				"y": 1.6203153478,
				"z": 0.4567582541,
				"element": "C" 
			},
			{
				"x": -0.6314486901,
				"y": 2.7084301669,
				"z": 1.2399516787,
				"element": "F" 
			},
			{
				"x": -1.7279974427,
				"y": 1.1473864614,
				"z": -0.1563028587,
				"element": "C" 
			},
			{
				"x": -1.6605860536,
				"y": 0.0194963274,
				"z": -0.9727859685,
				"element": "C" 
			},
			{
				"x": 1.0511273152,
				"y": -2.5346259628,
				"z": -1.0144477217,
				"element": "H" 
			},
			{
				"x": 1.6882082139,
				"y": -0.6034701526,
				"z": -0.7154776677,
				"element": "H" 
			},
			{
				"x": 2.5342889545,
				"y": 1.0461845806,
				"z": 0.6736740101,
				"element": "H" 
			},
			{
				"x": -2.6612210918,
				"y": 1.6735085704,
				"z": 0.0132788102,
				"element": "H" 
			},
			{
				"x": -2.5414011154,
				"y": -0.3637116344,
				"z": -1.4743263189,
				"element": "H" 
			}
		],
		 "valence_orbital": [ 
			{
				"type": "occ",
				"energy": -0.35823,
				"method": "rhf"
			},
			{
				"type": "occ",
				"energy": -0.31974,
				"method": "rhf"
			},
			{
				"type": "occ",
				"energy": -0.28002,
				"method": "rhf"
			},
			{
				"type": "occ",
				"energy": -0.27402,
				"method": "rhf"
			},
			{
				"type": "occ",
				"energy": -0.2447,
				"method": "rhf"
			},
			{
				"type": "unocc",
				"energy": -0.05263,
				"method": "rhf"
			},
			{
				"type": "unocc",
				"energy": -0.02176,
				"method": "rhf"
			},
			{
				"type": "unocc",
				"energy": 0.04383,
				"method": "rhf"
			},
			{
				"type": "unocc",
				"energy": 0.04479,
				"method": "rhf"
			},
			{
				"type": "unocc",
				"energy": 0.05525,
				"method": "rhf"
			}
		],
		"cosmo_sigma_profile": { 
			"-0.025": 0.0,
			"-0.024": 0.0,
			"-0.023": 0.0,
			"-0.022": 0.0,
			"-0.021": 0.0,
			"-0.02": 0.0,
			"-0.019": 0.768617025369,
			"-0.018": 2.74194904892,
			"-0.017": 1.92188667697,
			"-0.016": 2.32610543442,
			"-0.015": 2.17928584277,
			"-0.014": 1.72984174117,
			"-0.013": 2.12208272206,
			"-0.012": 2.40278206645,
			"-0.011": 2.47109075089,
			"-0.01": 2.36368865497,
			"-0.009": 1.59825358931,
			"-0.008": 2.41787639819,
			"-0.007": 4.508284596,
			"-0.006": 6.42884402248,
			"-0.005": 6.09542549898,
			"-0.004": 5.10222697187,
			"-0.003": 5.83558630023,
			"-0.002": 5.92476115645,
			"-0.001": 10.3391747388,
			"0.0": 13.8052242403,
			"0.001": 12.9245222236,
			"0.002": 12.9033104508,
			"0.003": 12.7723419711,
			"0.004": 9.89279971528,
			"0.005": 4.89460473287,
			"0.006": 4.26484127659,
			"0.007": 4.03040451329,
			"0.008": 4.96037967259,
			"0.009": 5.36969975136,
			"0.01": 6.53354834148,
			"0.011": 6.12502396647,
			"0.012": 4.53065800315,
			"0.013": 1.39675648223,
			"0.014": 0.0301497455013,
			"0.015": 0.0,
			"0.016": 0.0,
			"0.017": 0.0,
			"0.018": 0.0,
			"0.019": 0.0,
			"0.02": 0.0,
			"0.021": 0.0,
			"0.022": 0.0,
			"0.023": 0.0,
			"0.024": 0.0,
			"0.025": 0.0
		}
	}
}
