{
	 "smiles": "O=S1(=O)CC(C=C1)N=C=S", 
	 "Tm": 335.15, 
	 "num_atms": 15, 
	 "gaussian": { 
		 "optdone": 1, 
		 "sigma_profile": "yes", 
		 "theory": "DFT", 
		 "functional": "B3LYP", 
		 "basiset": "6-31G**", 
		 "properties": { 
			 "R2extent": 3385.3083, 
			 "electric_dipole_moment_norm": 3.23921527071, 
			 "electric_quadrupole_moment_norm": 19.9508856533, 
			 "total_energy": -1195.00803828, 
			 "HOMO_LUMO_gap": 0.21093, 
			 "cosmo_polarized_energy": -17.02, 
			 "cosmo_cavitation_energy": 23.58, 
			 "cosmo_dispersion_energy": -18.09, 
			 "cosmo_repulsion_energy": 1.41, 
			 "cosmo_total_nonelectrostatic_energy": 6.89, 
			 "SMD_solvation_energy": 2.78 
		},
		"coords": [
			{
				"x": 2.6383851153,
				"y": 0.7021194753,
				"z": 1.6269152371,
				"element": "O" 
			},
			{
				"x": 1.1891141627,
				"y": 0.4750532613,
				"z": 1.7161354191,
				"element": "S" 
			},
			{
				"x": 0.2690478,
				"y": 1.6105897149,
				"z": 1.8453048097,
				"element": "O" 
			},
			{
				"x": 0.6556254105,
				"y": -0.6368722099,
				"z": 0.3556924987,
				"element": "C" 
			},
			{
				"x": 0.7407172853,
				"y": -2.07027963,
				"z": 0.9288461346,
				"element": "C" 
			},
			{
				"x": 0.6430492525,
				"y": -1.9587319089,
				"z": 2.4466915823,
				"element": "C" 
			},
			{
				"x": 0.8533582006,
				"y": -0.7551134403,
				"z": 2.9701073184,
				"element": "C" 
			},
			{
				"x": -0.2650376056,
				"y": -2.9346948851,
				"z": 0.3783481139,
				"element": "N" 
			},
			{
				"x": -1.4349827213,
				"y": -3.2025176343,
				"z": 0.3476545033,
				"element": "C" 
			},
			{
				"x": -2.9483094856,
				"y": -3.655211507,
				"z": 0.2189248235,
				"element": "S" 
			},
			{
				"x": 1.3035725096,
				"y": -0.4640297978,
				"z": -0.5037254152,
				"element": "H" 
			},
			{
				"x": -0.3757580301,
				"y": -0.3719731331,
				"z": 0.1183457383,
				"element": "H" 
			},
			{
				"x": 1.7141320179,
				"y": -2.5065785344,
				"z": 0.6757211493,
				"element": "H" 
			},
			{
				"x": 0.446598189,
				"y": -2.8528346683,
				"z": 3.0302103774,
				"element": "H" 
			},
			{
				"x": 0.8755878992,
				"y": -0.4680251024,
				"z": 4.0142277096,
				"element": "H" 
			}
		],
		 "valence_orbital": [ 
			{
				"type": "occ",
				"energy": -0.32159,
				"method": "rhf"
			},
			{
				"type": "occ",
				"energy": -0.30836,
				"method": "rhf"
			},
			{
				"type": "occ",
				"energy": -0.29852,
				"method": "rhf"
			},
			{
				"type": "occ",
				"energy": -0.27526,
				"method": "rhf"
			},
			{
				"type": "occ",
				"energy": -0.26669,
				"method": "rhf"
			},
			{
				"type": "unocc",
				"energy": -0.05576,
				"method": "rhf"
			},
			{
				"type": "unocc",
				"energy": -0.04139,
				"method": "rhf"
			},
			{
				"type": "unocc",
				"energy": -0.02057,
				"method": "rhf"
			},
			{
				"type": "unocc",
				"energy": 0.04626,
				"method": "rhf"
			},
			{
				"type": "unocc",
				"energy": 0.05329,
				"method": "rhf"
			}
		],
		"cosmo_sigma_profile": { 
			"-0.025": 0.0,
			"-0.024": 0.0,
			"-0.023": 0.0,
			"-0.022": 0.0,
			"-0.021": 0.0,
			"-0.02": 0.0,
			"-0.019": 0.0,
			"-0.018": 0.0,
			"-0.017": 0.0,
			"-0.016": 0.0,
			"-0.015": 0.0,
			"-0.014": 0.0,
			"-0.013": 0.0,
			"-0.012": 0.0198246555269,
			"-0.011": 1.59119750509,
			"-0.01": 7.81589512136,
			"-0.009": 13.9200002563,
			"-0.008": 10.899150177,
			"-0.007": 9.542120776,
			"-0.006": 8.53239615869,
			"-0.005": 8.03096969678,
			"-0.004": 6.99770809014,
			"-0.003": 6.15717528321,
			"-0.002": 6.58393994321,
			"-0.001": 8.58443316231,
			"0.0": 12.3792001308,
			"0.001": 10.4913806747,
			"0.002": 10.2200624563,
			"0.003": 9.63781202558,
			"0.004": 11.509684839,
			"0.005": 13.5070473637,
			"0.006": 3.58037690823,
			"0.007": 2.00411946829,
			"0.008": 2.92909753506,
			"0.009": 2.7898813367,
			"0.01": 7.78676432959,
			"0.011": 13.290741623,
			"0.012": 4.18468290942,
			"0.013": 0.0,
			"0.014": 0.0,
			"0.015": 0.0,
			"0.016": 0.0,
			"0.017": 0.0,
			"0.018": 0.0,
			"0.019": 0.0,
			"0.02": 0.0,
			"0.021": 0.0,
			"0.022": 0.0,
			"0.023": 0.0,
			"0.024": 0.0,
			"0.025": 0.0
		}
	}
}
