{
	 "smiles": "OC1=C(O)C(Cl)=CC(C=O)=C1", 
	 "Tm": 508.15, 
	 "num_atms": 16, 
	 "gaussian": { 
		 "optdone": 1, 
		 "sigma_profile": "yes", 
		 "theory": "DFT", 
		 "functional": "B3LYP", 
		 "basiset": "6-31G**", 
		 "properties": { 
			 "R2extent": 2461.0597, 
			 "electric_dipole_moment_norm": 4.1362436715, 
			 "electric_quadrupole_moment_norm": 5.43725456825, 
			 "total_energy": -955.607894857, 
			 "HOMO_LUMO_gap": 0.17361, 
			 "cosmo_polarized_energy": -12.01, 
			 "cosmo_cavitation_energy": 22.76, 
			 "cosmo_dispersion_energy": -17.18, 
			 "cosmo_repulsion_energy": 1.37, 
			 "cosmo_total_nonelectrostatic_energy": 6.96, 
			 "SMD_solvation_energy": 5.41 
		},
		"coords": [
			{
				"x": 1.4469631908,
				"y": -1.7470931142,
				"z": -1.0441556081,
				"element": "O" 
			},
			{
				"x": 0.4475042448,
				"y": -1.1219393512,
				"z": -0.3719460743,
				"element": "C" 
			},
			{
				"x": -0.8780637756,
				"y": -1.2036774217,
				"z": -0.8546621418,
				"element": "C" 
			},
			{
				"x": -1.0499717575,
				"y": -1.9270016383,
				"z": -1.9925104336,
				"element": "O" 
			},
			{
				"x": -1.9032648178,
				"y": -0.5587499172,
				"z": -0.1596251233,
				"element": "C" 
			},
			{
				"x": -3.5395384559,
				"y": -0.6894247129,
				"z": -0.8003602689,
				"element": "Cl" 
			},
			{
				"x": -1.6442174022,
				"y": 0.1635273431,
				"z": 1.0003574592,
				"element": "C" 
			},
			{
				"x": -0.3280393932,
				"y": 0.2374936701,
				"z": 1.4688439092,
				"element": "C" 
			},
			{
				"x": -0.042690883,
				"y": 1.0031584422,
				"z": 2.7015924719,
				"element": "C" 
			},
			{
				"x": 1.0615105424,
				"y": 1.1315542786,
				"z": 3.194640062,
				"element": "O" 
			},
			{
				"x": 0.7158859905,
				"y": -0.4043642293,
				"z": 0.7834825241,
				"element": "C" 
			},
			{
				"x": 1.0629744256,
				"y": -2.1897493755,
				"z": -1.816105999,
				"element": "H" 
			},
			{
				"x": -1.9874350093,
				"y": -1.9230884753,
				"z": -2.2407038593,
				"element": "H" 
			},
			{
				"x": -2.4525248492,
				"y": 0.6587235234,
				"z": 1.528413502,
				"element": "H" 
			},
			{
				"x": -0.9366997734,
				"y": 1.4733447837,
				"z": 3.1686172874,
				"element": "H" 
			},
			{
				"x": 1.7296077231,
				"y": -0.3358138056,
				"z": 1.1618222924,
				"element": "H" 
			}
		],
		 "valence_orbital": [ 
			{
				"type": "occ",
				"energy": -0.34702,
				"method": "rhf"
			},
			{
				"type": "occ",
				"energy": -0.32992,
				"method": "rhf"
			},
			{
				"type": "occ",
				"energy": -0.25821,
				"method": "rhf"
			},
			{
				"type": "occ",
				"energy": -0.25622,
				"method": "rhf"
			},
			{
				"type": "occ",
				"energy": -0.23741,
				"method": "rhf"
			},
			{
				"type": "unocc",
				"energy": -0.0638,
				"method": "rhf"
			},
			{
				"type": "unocc",
				"energy": -0.01825,
				"method": "rhf"
			},
			{
				"type": "unocc",
				"energy": 0.00361,
				"method": "rhf"
			},
			{
				"type": "unocc",
				"energy": 0.04147,
				"method": "rhf"
			},
			{
				"type": "unocc",
				"energy": 0.05011,
				"method": "rhf"
			}
		],
		"cosmo_sigma_profile": { 
			"-0.025": 0.0,
			"-0.024": 0.0,
			"-0.023": 0.0,
			"-0.022": 0.0,
			"-0.021": 0.0,
			"-0.02": 0.0,
			"-0.019": 0.0,
			"-0.018": 0.0,
			"-0.017": 0.211811128248,
			"-0.016": 0.949891116522,
			"-0.015": 1.0571229399,
			"-0.014": 1.53870281856,
			"-0.013": 0.917887309138,
			"-0.012": 2.03631602678,
			"-0.011": 1.41181688511,
			"-0.01": 1.48000517243,
			"-0.009": 2.23590224131,
			"-0.008": 5.38388593134,
			"-0.007": 6.04516955114,
			"-0.006": 7.49306185375,
			"-0.005": 6.79503789296,
			"-0.004": 7.14873687304,
			"-0.003": 9.62194443474,
			"-0.002": 10.9741487279,
			"-0.001": 13.3358473467,
			"0.0": 16.6655580799,
			"0.001": 19.0347719627,
			"0.002": 18.3821662473,
			"0.003": 12.4291732396,
			"0.004": 9.28148960951,
			"0.005": 3.65816911483,
			"0.006": 3.77149280922,
			"0.007": 3.482403551,
			"0.008": 2.18712670249,
			"0.009": 4.01609999562,
			"0.01": 4.47752446976,
			"0.011": 5.23939514945,
			"0.012": 2.84827904391,
			"0.013": 0.777991332981,
			"0.014": 0.0,
			"0.015": 0.0,
			"0.016": 0.0,
			"0.017": 0.0,
			"0.018": 0.0,
			"0.019": 0.0,
			"0.02": 0.0,
			"0.021": 0.0,
			"0.022": 0.0,
			"0.023": 0.0,
			"0.024": 0.0,
			"0.025": 0.0
		}
	}
}
