{
	 "smiles": "CN1N=C(C=C1C1=CC=CO1)C(Cl)=O", 
	 "Tm": 333.65, 
	 "num_atms": 21, 
	 "gaussian": { 
		 "optdone": 1, 
		 "sigma_profile": "yes", 
		 "theory": "DFT", 
		 "functional": "B3LYP", 
		 "basiset": "6-31G**", 
		 "properties": { 
			 "R2extent": 5212.8791, 
			 "electric_dipole_moment_norm": 7.36367302574, 
			 "electric_quadrupole_moment_norm": 22.3407441922, 
			 "total_energy": -1067.27873862, 
			 "HOMO_LUMO_gap": 0.16762, 
			 "cosmo_polarized_energy": -12.55, 
			 "cosmo_cavitation_energy": 28.42, 
			 "cosmo_dispersion_energy": -20.78, 
			 "cosmo_repulsion_energy": 1.62, 
			 "cosmo_total_nonelectrostatic_energy": 9.26, 
			 "SMD_solvation_energy": 5.54 
		},
		"coords": [
			{
				"x": -0.1451395041,
				"y": -1.2247079306,
				"z": -0.6203390908,
				"element": "C" 
			},
			{
				"x": 0.8937395181,
				"y": -0.5624106319,
				"z": 0.1513571485,
				"element": "N" 
			},
			{
				"x": 2.041351263,
				"y": -1.210648609,
				"z": 0.3680542181,
				"element": "N" 
			},
			{
				"x": 2.7864743635,
				"y": -0.3596523594,
				"z": 1.0946728193,
				"element": "C" 
			},
			{
				"x": 2.1031128283,
				"y": 0.8484056185,
				"z": 1.344413881,
				"element": "C" 
			},
			{
				"x": 0.8738614743,
				"y": 0.6925728329,
				"z": 0.7206901552,
				"element": "C" 
			},
			{
				"x": -0.2323044969,
				"y": 1.6214333588,
				"z": 0.6519654525,
				"element": "C" 
			},
			{
				"x": -1.4876326244,
				"y": 1.6281146369,
				"z": 0.0936246887,
				"element": "C" 
			},
			{
				"x": -2.0698331778,
				"y": 2.8941740426,
				"z": 0.4145289264,
				"element": "C" 
			},
			{
				"x": -1.1370863997,
				"y": 3.5682857087,
				"z": 1.1411000399,
				"element": "C" 
			},
			{
				"x": -0.016135142,
				"y": 2.812131324,
				"z": 1.2951731192,
				"element": "O" 
			},
			{
				"x": 4.1292348741,
				"y": -0.7929869986,
				"z": 1.4979503125,
				"element": "C" 
			},
			{
				"x": 5.0109672921,
				"y": 0.4857500668,
				"z": 2.4827983401,
				"element": "Cl" 
			},
			{
				"x": 4.6638025641,
				"y": -1.8299166532,
				"z": 1.2603323921,
				"element": "O" 
			},
			{
				"x": -1.051546303,
				"y": -1.3451046299,
				"z": -0.0201068282,
				"element": "H" 
			},
			{
				"x": -0.3778935189,
				"y": -0.6514077393,
				"z": -1.5222753964,
				"element": "H" 
			},
			{
				"x": 0.2436737528,
				"y": -2.2029913896,
				"z": -0.8976853497,
				"element": "H" 
			},
			{
				"x": 2.4460235715,
				"y": 1.7085399623,
				"z": 1.8946994465,
				"element": "H" 
			},
			{
				"x": -1.9517648902,
				"y": 0.8389260478,
				"z": -0.4760504123,
				"element": "H" 
			},
			{
				"x": -3.0521548045,
				"y": 3.2478121578,
				"z": 0.137615995,
				"element": "H" 
			},
			{
				"x": -1.1110506402,
				"y": 4.5438811844,
				"z": 1.6005801424,
				"element": "H" 
			}
		],
		 "valence_orbital": [ 
			{
				"type": "occ",
				"energy": -0.30836,
				"method": "rhf"
			},
			{
				"type": "occ",
				"energy": -0.29644,
				"method": "rhf"
			},
			{
				"type": "occ",
				"energy": -0.28552,
				"method": "rhf"
			},
			{
				"type": "occ",
				"energy": -0.27668,
				"method": "rhf"
			},
			{
				"type": "occ",
				"energy": -0.22604,
				"method": "rhf"
			},
			{
				"type": "unocc",
				"energy": -0.05842,
				"method": "rhf"
			},
			{
				"type": "unocc",
				"energy": -0.0417,
				"method": "rhf"
			},
			{
				"type": "unocc",
				"energy": 0.02698,
				"method": "rhf"
			},
			{
				"type": "unocc",
				"energy": 0.03265,
				"method": "rhf"
			},
			{
				"type": "unocc",
				"energy": 0.078,
				"method": "rhf"
			}
		],
		"cosmo_sigma_profile": { 
			"-0.025": 0.0,
			"-0.024": 0.0,
			"-0.023": 0.0,
			"-0.022": 0.0,
			"-0.021": 0.0,
			"-0.02": 0.0,
			"-0.019": 0.0,
			"-0.018": 0.0,
			"-0.017": 0.0,
			"-0.016": 0.0,
			"-0.015": 0.0,
			"-0.014": 0.0,
			"-0.013": 0.0,
			"-0.012": 0.0,
			"-0.011": 0.0,
			"-0.01": 0.395143037273,
			"-0.009": 2.53193822287,
			"-0.008": 7.34953388172,
			"-0.007": 13.7584292908,
			"-0.006": 12.9589336098,
			"-0.005": 11.7696443449,
			"-0.004": 14.4970006686,
			"-0.003": 12.6096755585,
			"-0.002": 10.7360773533,
			"-0.001": 14.1726947383,
			"0.0": 18.8801532607,
			"0.001": 22.4564843227,
			"0.002": 19.3711720155,
			"0.003": 15.4211640579,
			"0.004": 17.931520064,
			"0.005": 11.210906183,
			"0.006": 4.58934311134,
			"0.007": 4.16517489405,
			"0.008": 5.50865118976,
			"0.009": 5.26105325444,
			"0.01": 2.46388436089,
			"0.011": 1.33740225984,
			"0.012": 1.08124125778,
			"0.013": 0.899369961646,
			"0.014": 0.0564442504129,
			"0.015": 0.0,
			"0.016": 0.0,
			"0.017": 0.0,
			"0.018": 0.0,
			"0.019": 0.0,
			"0.02": 0.0,
			"0.021": 0.0,
			"0.022": 0.0,
			"0.023": 0.0,
			"0.024": 0.0,
			"0.025": 0.0
		}
	}
}
