{
	 "smiles": "CC1CC(=C/C2=CC=CC=C2)C(=O)C(C1)=CC1=CC=CC=C1", 
	 "Tm": 373.15, 
	 "num_atms": 42, 
	 "gaussian": { 
		 "optdone": 1, 
		 "sigma_profile": "yes", 
		 "theory": "DFT", 
		 "functional": "B3LYP", 
		 "basiset": "6-31G**", 
		 "properties": { 
			 "R2extent": 10589.3004, 
			 "electric_dipole_moment_norm": 2.86075782617, 
			 "electric_quadrupole_moment_norm": 21.4109885255, 
			 "total_energy": -887.50342406, 
			 "HOMO_LUMO_gap": 0.14672, 
			 "cosmo_polarized_energy": -11.14, 
			 "cosmo_cavitation_energy": 43.99, 
			 "cosmo_dispersion_energy": -31.14, 
			 "cosmo_repulsion_energy": 2.36, 
			 "cosmo_total_nonelectrostatic_energy": 15.21, 
			 "SMD_solvation_energy": 7.24 
		},
		"coords": [
			{
				"x": 0.7308904132,
				"y": 2.2643265401,
				"z": 0.2544670473,
				"element": "C" 
			},
			{
				"x": 1.7393341613,
				"y": 1.2932549831,
				"z": -0.3770083203,
				"element": "C" 
			},
			{
				"x": 1.2333866314,
				"y": 0.6985986482,
				"z": -1.7030135699,
				"element": "C" 
			},
			{
				"x": 0.059451519,
				"y": -0.2385414751,
				"z": -1.5172178396,
				"element": "C" 
			},
			{
				"x": -0.9397700196,
				"y": -0.4298224492,
				"z": -2.4120000276,
				"element": "C" 
			},
			{
				"x": -1.1431278283,
				"y": 0.1333696947,
				"z": -3.7488891201,
				"element": "C" 
			},
			{
				"x": -2.4680648698,
				"y": 0.2389112324,
				"z": -4.2215460756,
				"element": "C" 
			},
			{
				"x": -2.7479954552,
				"y": 0.7682472968,
				"z": -5.4776724365,
				"element": "C" 
			},
			{
				"x": -1.7051544822,
				"y": 1.1834867823,
				"z": -6.3098567356,
				"element": "C" 
			},
			{
				"x": -0.3846941571,
				"y": 1.0563301848,
				"z": -5.8745165702,
				"element": "C" 
			},
			{
				"x": -0.1040118639,
				"y": 0.5391094099,
				"z": -4.6107994582,
				"element": "C" 
			},
			{
				"x": -0.0652032266,
				"y": -1.0090310924,
				"z": -0.2294390045,
				"element": "C" 
			},
			{
				"x": -1.0023958188,
				"y": -1.7872355926,
				"z": -0.05140418,
				"element": "O" 
			},
			{
				"x": 0.9804428958,
				"y": -0.8094336705,
				"z": 0.8355805031,
				"element": "C" 
			},
			{
				"x": 2.125072272,
				"y": 0.1452716229,
				"z": 0.5724760432,
				"element": "C" 
			},
			{
				"x": 0.7809151983,
				"y": -1.4956738195,
				"z": 1.9866235272,
				"element": "C" 
			},
			{
				"x": 1.5804116884,
				"y": -1.5542988074,
				"z": 3.2126386364,
				"element": "C" 
			},
			{
				"x": 0.9117413555,
				"y": -1.8543759568,
				"z": 4.4179794368,
				"element": "C" 
			},
			{
				"x": 1.5966463384,
				"y": -1.9234799925,
				"z": 5.6273323504,
				"element": "C" 
			},
			{
				"x": 2.978664694,
				"y": -1.7200918641,
				"z": 5.6609972337,
				"element": "C" 
			},
			{
				"x": 3.6646374935,
				"y": -1.4550851037,
				"z": 4.474180244,
				"element": "C" 
			},
			{
				"x": 2.9773070315,
				"y": -1.3718690851,
				"z": 3.2642529016,
				"element": "C" 
			},
			{
				"x": -0.2130930702,
				"y": 1.7694841196,
				"z": 0.5042812347,
				"element": "H" 
			},
			{
				"x": 1.1321023661,
				"y": 2.6963898433,
				"z": 1.1774958133,
				"element": "H" 
			},
			{
				"x": 0.5015550164,
				"y": 3.0874556094,
				"z": -0.4307309455,
				"element": "H" 
			},
			{
				"x": 2.6541443764,
				"y": 1.8584750149,
				"z": -0.5980525928,
				"element": "H" 
			},
			{
				"x": 0.9579235676,
				"y": 1.5046090403,
				"z": -2.3913846199,
				"element": "H" 
			},
			{
				"x": 2.0686575822,
				"y": 0.1609266525,
				"z": -2.1781552014,
				"element": "H" 
			},
			{
				"x": -1.7334870164,
				"y": -1.0892491003,
				"z": -2.0644293366,
				"element": "H" 
			},
			{
				"x": -3.2809316735,
				"y": -0.0925681523,
				"z": -3.5809070186,
				"element": "H" 
			},
			{
				"x": -3.7782316758,
				"y": 0.8495900591,
				"z": -5.8122266486,
				"element": "H" 
			},
			{
				"x": -1.9194494137,
				"y": 1.5897286166,
				"z": -7.2941162245,
				"element": "H" 
			},
			{
				"x": 0.432802584,
				"y": 1.3535790854,
				"z": -6.5253460643,
				"element": "H" 
			},
			{
				"x": 0.9288717465,
				"y": 0.4141738356,
				"z": -4.3088984666,
				"element": "H" 
			},
			{
				"x": 2.9707259019,
				"y": -0.3999837518,
				"z": 0.1251560386,
				"element": "H" 
			},
			{
				"x": 2.4917608,
				"y": 0.5535463335,
				"z": 1.5202266526,
				"element": "H" 
			},
			{
				"x": -0.1405885227,
				"y": -2.075281776,
				"z": 2.0096337707,
				"element": "H" 
			},
			{
				"x": -0.1615423717,
				"y": -2.0232730697,
				"z": 4.3938130376,
				"element": "H" 
			},
			{
				"x": 1.0553336196,
				"y": -2.1442860865,
				"z": 6.5428425454,
				"element": "H" 
			},
			{
				"x": 3.5177555988,
				"y": -1.7812033303,
				"z": 6.6019369555,
				"element": "H" 
			},
			{
				"x": 4.7425623268,
				"y": -1.3205068133,
				"z": 4.4882960589,
				"element": "H" 
			},
			{
				"x": 3.5347442871,
				"y": -1.2030736163,
				"z": 2.3508004256,
				"element": "H" 
			}
		],
		 "valence_orbital": [ 
			{
				"type": "occ",
				"energy": -0.25466,
				"method": "rhf"
			},
			{
				"type": "occ",
				"energy": -0.25437,
				"method": "rhf"
			},
			{
				"type": "occ",
				"energy": -0.23675,
				"method": "rhf"
			},
			{
				"type": "occ",
				"energy": -0.22561,
				"method": "rhf"
			},
			{
				"type": "occ",
				"energy": -0.22229,
				"method": "rhf"
			},
			{
				"type": "unocc",
				"energy": -0.07557,
				"method": "rhf"
			},
			{
				"type": "unocc",
				"energy": -0.02983,
				"method": "rhf"
			},
			{
				"type": "unocc",
				"energy": -0.00527,
				"method": "rhf"
			},
			{
				"type": "unocc",
				"energy": -0.00451,
				"method": "rhf"
			},
			{
				"type": "unocc",
				"energy": 0.01641,
				"method": "rhf"
			}
		],
		"cosmo_sigma_profile": { 
			"-0.025": 0.0,
			"-0.024": 0.0,
			"-0.023": 0.0,
			"-0.022": 0.0,
			"-0.021": 0.0,
			"-0.02": 0.0,
			"-0.019": 0.0,
			"-0.018": 0.0,
			"-0.017": 0.0,
			"-0.016": 0.0,
			"-0.015": 0.0,
			"-0.014": 0.0,
			"-0.013": 0.0,
			"-0.012": 0.0,
			"-0.011": 0.0,
			"-0.01": 0.0,
			"-0.009": 0.0,
			"-0.008": 0.0,
			"-0.007": 0.251293249648,
			"-0.006": 14.8557423769,
			"-0.005": 25.6133087418,
			"-0.004": 34.2713975189,
			"-0.003": 36.0603361894,
			"-0.002": 36.2034902502,
			"-0.001": 29.6659911786,
			"0.0": 24.6797212739,
			"0.001": 28.4801730899,
			"0.002": 25.1327512879,
			"0.003": 27.7564022997,
			"0.004": 23.8538111778,
			"0.005": 22.9730126375,
			"0.006": 3.7231176262,
			"0.007": 2.36537848013,
			"0.008": 1.26507200597,
			"0.009": 1.73002847301,
			"0.01": 2.11967541645,
			"0.011": 1.75995673483,
			"0.012": 3.1415272354,
			"0.013": 3.67160594,
			"0.014": 0.0791425120863,
			"0.015": 0.0,
			"0.016": 0.0,
			"0.017": 0.0,
			"0.018": 0.0,
			"0.019": 0.0,
			"0.02": 0.0,
			"0.021": 0.0,
			"0.022": 0.0,
			"0.023": 0.0,
			"0.024": 0.0,
			"0.025": 0.0
		}
	}
}
