{
	 "smiles": "[O-][N+](=O)C1=C(C=CC(=C1)C#N)S(Cl)(=O)=O", 
	 "Tm": 393.15, 
	 "num_atms": 18, 
	 "gaussian": { 
		 "optdone": 1, 
		 "sigma_profile": "yes", 
		 "theory": "DFT", 
		 "functional": "B3LYP", 
		 "basiset": "6-31G**", 
		 "properties": { 
			 "R2extent": 4222.5252, 
			 "electric_dipole_moment_norm": 3.35052871201, 
			 "electric_quadrupole_moment_norm": 16.3504901599, 
			 "total_energy": -1537.11248654, 
			 "HOMO_LUMO_gap": 0.1819, 
			 "cosmo_polarized_energy": -17.08, 
			 "cosmo_cavitation_energy": 28.39, 
			 "cosmo_dispersion_energy": -20.53, 
			 "cosmo_repulsion_energy": 1.55, 
			 "cosmo_total_nonelectrostatic_energy": 9.42, 
			 "SMD_solvation_energy": 7.22 
		},
		"coords": [
			{
				"x": 0.2054650432,
				"y": -1.9136629866,
				"z": -1.1460344179,
				"element": "O" 
			},
			{
				"x": -0.9664540901,
				"y": -1.7755355562,
				"z": -0.8222651516,
				"element": "N" 
			},
			{
				"x": -1.9207291114,
				"y": -2.4117386188,
				"z": -1.2564444865,
				"element": "O" 
			},
			{
				"x": -1.2728797552,
				"y": -0.6977390234,
				"z": 0.1441391601,
				"element": "C" 
			},
			{
				"x": -0.4108632727,
				"y": -0.3250229068,
				"z": 1.1869355257,
				"element": "C" 
			},
			{
				"x": -0.7609658738,
				"y": 0.745948985,
				"z": 2.01164412,
				"element": "C" 
			},
			{
				"x": -1.9405707699,
				"y": 1.452390841,
				"z": 1.792132137,
				"element": "C" 
			},
			{
				"x": -2.8018456242,
				"y": 1.0671291528,
				"z": 0.7552329603,
				"element": "C" 
			},
			{
				"x": -2.4681716271,
				"y": -0.0217903937,
				"z": -0.0628556773,
				"element": "C" 
			},
			{
				"x": -4.0257968812,
				"y": 1.7803752065,
				"z": 0.5294890273,
				"element": "C" 
			},
			{
				"x": -5.0154989758,
				"y": 2.3629181193,
				"z": 0.3505552652,
				"element": "N" 
			},
			{
				"x": 1.0728369194,
				"y": -1.2389605904,
				"z": 1.710630314,
				"element": "S" 
			},
			{
				"x": 2.5501782291,
				"y": -0.5071057192,
				"z": 0.4114014567,
				"element": "Cl" 
			},
			{
				"x": 1.4259500707,
				"y": -0.7281019356,
				"z": 3.0292828466,
				"element": "O" 
			},
			{
				"x": 0.8789393449,
				"y": -2.658721211,
				"z": 1.4703377203,
				"element": "O" 
			},
			{
				"x": -0.1080042778,
				"y": 1.0088621704,
				"z": 2.8351356505,
				"element": "H" 
			},
			{
				"x": -2.2006123369,
				"y": 2.2897852022,
				"z": 2.4296885929,
				"element": "H" 
			},
			{
				"x": -3.1239770113,
				"y": -0.3472307353,
				"z": -0.8608050434,
				"element": "H" 
			}
		],
		 "valence_orbital": [ 
			{
				"type": "occ",
				"energy": -0.34245,
				"method": "rhf"
			},
			{
				"type": "occ",
				"energy": -0.33751,
				"method": "rhf"
			},
			{
				"type": "occ",
				"energy": -0.3315,
				"method": "rhf"
			},
			{
				"type": "occ",
				"energy": -0.32093,
				"method": "rhf"
			},
			{
				"type": "occ",
				"energy": -0.31692,
				"method": "rhf"
			},
			{
				"type": "unocc",
				"energy": -0.13502,
				"method": "rhf"
			},
			{
				"type": "unocc",
				"energy": -0.10814,
				"method": "rhf"
			},
			{
				"type": "unocc",
				"energy": -0.0934,
				"method": "rhf"
			},
			{
				"type": "unocc",
				"energy": -0.0609,
				"method": "rhf"
			},
			{
				"type": "unocc",
				"energy": -0.00383,
				"method": "rhf"
			}
		],
		"cosmo_sigma_profile": { 
			"-0.025": 0.0,
			"-0.024": 0.0,
			"-0.023": 0.0,
			"-0.022": 0.0,
			"-0.021": 0.0,
			"-0.02": 0.0,
			"-0.019": 0.0,
			"-0.018": 0.0,
			"-0.017": 0.0,
			"-0.016": 0.0,
			"-0.015": 0.0,
			"-0.014": 0.0,
			"-0.013": 0.0,
			"-0.012": 0.279981260683,
			"-0.011": 3.91824110015,
			"-0.01": 7.5823202192,
			"-0.009": 6.7153892347,
			"-0.008": 6.6037763398,
			"-0.007": 8.64245314099,
			"-0.006": 10.9224990191,
			"-0.005": 16.1739747332,
			"-0.004": 17.3122988045,
			"-0.003": 14.7681908957,
			"-0.002": 8.85600105062,
			"-0.001": 9.01866846994,
			"0.0": 9.41279591558,
			"0.001": 11.6815129566,
			"0.002": 14.5105135759,
			"0.003": 11.1077499082,
			"0.004": 9.15509226452,
			"0.005": 11.4497431921,
			"0.006": 16.8381484498,
			"0.007": 16.3500463076,
			"0.008": 13.1807647358,
			"0.009": 3.67796465257,
			"0.01": 2.40535620552,
			"0.011": 2.29345183964,
			"0.012": 0.685526480562,
			"0.013": 0.0,
			"0.014": 0.0,
			"0.015": 0.0,
			"0.016": 0.0,
			"0.017": 0.0,
			"0.018": 0.0,
			"0.019": 0.0,
			"0.02": 0.0,
			"0.021": 0.0,
			"0.022": 0.0,
			"0.023": 0.0,
			"0.024": 0.0,
			"0.025": 0.0
		}
	}
}
