{
	 "smiles": "CC(=O)C=CC=CC1=CC=CC=C1", 
	 "Tm": 341.15, 
	 "num_atms": 25, 
	 "gaussian": { 
		 "optdone": 1, 
		 "sigma_profile": "yes", 
		 "theory": "DFT", 
		 "functional": "B3LYP", 
		 "basiset": "6-31G**", 
		 "properties": { 
			 "R2extent": 5675.9786, 
			 "electric_dipole_moment_norm": 4.66460050808, 
			 "electric_quadrupole_moment_norm": 25.4768507979, 
			 "total_energy": -539.711717719, 
			 "HOMO_LUMO_gap": 0.14069, 
			 "cosmo_polarized_energy": -11.39, 
			 "cosmo_cavitation_energy": 30.11, 
			 "cosmo_dispersion_energy": -21.51, 
			 "cosmo_repulsion_energy": 1.7, 
			 "cosmo_total_nonelectrostatic_energy": 10.29, 
			 "SMD_solvation_energy": 6.04 
		},
		"coords": [
			{
				"x": 0.593176118,
				"y": -2.5587518807,
				"z": -5.8905770686,
				"element": "C" 
			},
			{
				"x": -0.841825981,
				"y": -2.2619855441,
				"z": -5.4760732298,
				"element": "C" 
			},
			{
				"x": -1.7821283045,
				"y": -2.6168526559,
				"z": -6.1770710096,
				"element": "O" 
			},
			{
				"x": -1.0984618906,
				"y": -1.5383548733,
				"z": -4.2146849347,
				"element": "C" 
			},
			{
				"x": -0.1540649975,
				"y": -1.0935631524,
				"z": -3.3537651803,
				"element": "C" 
			},
			{
				"x": -0.4371779023,
				"y": -0.3882549253,
				"z": -2.126987512,
				"element": "C" 
			},
			{
				"x": 0.531064897,
				"y": 0.0444594532,
				"z": -1.2854409453,
				"element": "C" 
			},
			{
				"x": 0.3657335693,
				"y": 0.7641968961,
				"z": -0.0241173181,
				"element": "C" 
			},
			{
				"x": 1.5153818061,
				"y": 1.124316831,
				"z": 0.7050229595,
				"element": "C" 
			},
			{
				"x": 1.4183065937,
				"y": 1.8109037856,
				"z": 1.9132430815,
				"element": "C" 
			},
			{
				"x": 0.1650643927,
				"y": 2.1545756301,
				"z": 2.4221894844,
				"element": "C" 
			},
			{
				"x": -0.9881727821,
				"y": 1.8051457045,
				"z": 1.7115599543,
				"element": "C" 
			},
			{
				"x": -0.8916312165,
				"y": 1.1197299222,
				"z": 0.5054111705,
				"element": "C" 
			},
			{
				"x": 1.1028128984,
				"y": -3.1715887804,
				"z": -5.13888724,
				"element": "H" 
			},
			{
				"x": 0.5762948969,
				"y": -3.0941737973,
				"z": -6.840333652,
				"element": "H" 
			},
			{
				"x": 1.1700835829,
				"y": -1.6346002183,
				"z": -6.0065179017,
				"element": "H" 
			},
			{
				"x": -2.1538134405,
				"y": -1.3743738246,
				"z": -4.0062368469,
				"element": "H" 
			},
			{
				"x": 0.8981245248,
				"y": -1.2661874909,
				"z": -3.5777191842,
				"element": "H" 
			},
			{
				"x": -1.4865580861,
				"y": -0.2130319186,
				"z": -1.8983384007,
				"element": "H" 
			},
			{
				"x": 1.5651890753,
				"y": -0.1589664383,
				"z": -1.564819554,
				"element": "H" 
			},
			{
				"x": 2.4938151466,
				"y": 0.8587607074,
				"z": 0.3125558109,
				"element": "H" 
			},
			{
				"x": 2.3200944759,
				"y": 2.0773397315,
				"z": 2.4568236053,
				"element": "H" 
			},
			{
				"x": 0.0846419426,
				"y": 2.689804519,
				"z": 3.3636778922,
				"element": "H" 
			},
			{
				"x": -1.9667523646,
				"y": 2.0695584529,
				"z": 2.1018808341,
				"element": "H" 
			},
			{
				"x": -1.7990969545,
				"y": 0.8583938663,
				"z": -0.0297948147,
				"element": "H" 
			}
		],
		 "valence_orbital": [ 
			{
				"type": "occ",
				"energy": -0.33359,
				"method": "rhf"
			},
			{
				"type": "occ",
				"energy": -0.28261,
				"method": "rhf"
			},
			{
				"type": "occ",
				"energy": -0.26168,
				"method": "rhf"
			},
			{
				"type": "occ",
				"energy": -0.23838,
				"method": "rhf"
			},
			{
				"type": "occ",
				"energy": -0.21985,
				"method": "rhf"
			},
			{
				"type": "unocc",
				"energy": -0.07916,
				"method": "rhf"
			},
			{
				"type": "unocc",
				"energy": -0.01373,
				"method": "rhf"
			},
			{
				"type": "unocc",
				"energy": -0.00846,
				"method": "rhf"
			},
			{
				"type": "unocc",
				"energy": 0.04845,
				"method": "rhf"
			},
			{
				"type": "unocc",
				"energy": 0.08381,
				"method": "rhf"
			}
		],
		"cosmo_sigma_profile": { 
			"-0.025": 0.0,
			"-0.024": 0.0,
			"-0.023": 0.0,
			"-0.022": 0.0,
			"-0.021": 0.0,
			"-0.02": 0.0,
			"-0.019": 0.0,
			"-0.018": 0.0,
			"-0.017": 0.0,
			"-0.016": 0.0,
			"-0.015": 0.0,
			"-0.014": 0.0,
			"-0.013": 0.0,
			"-0.012": 0.0,
			"-0.011": 0.0,
			"-0.01": 0.0,
			"-0.009": 0.0,
			"-0.008": 0.772876972602,
			"-0.007": 6.87661308427,
			"-0.006": 18.4616426523,
			"-0.005": 23.3280872712,
			"-0.004": 20.8909453393,
			"-0.003": 18.0182869214,
			"-0.002": 15.8110805697,
			"-0.001": 17.3357517053,
			"0.0": 15.9415792237,
			"0.001": 14.9643579005,
			"0.002": 16.4135881483,
			"0.003": 21.1465210441,
			"0.004": 17.0470957047,
			"0.005": 11.928266354,
			"0.006": 2.08707024106,
			"0.007": 1.70809480083,
			"0.008": 1.28919578665,
			"0.009": 1.76013282839,
			"0.01": 2.11589926369,
			"0.011": 1.97051322065,
			"0.012": 3.16899984941,
			"0.013": 5.02062294668,
			"0.014": 2.09425086831,
			"0.015": 0.0565164890393,
			"0.016": 0.0,
			"0.017": 0.0,
			"0.018": 0.0,
			"0.019": 0.0,
			"0.02": 0.0,
			"0.021": 0.0,
			"0.022": 0.0,
			"0.023": 0.0,
			"0.024": 0.0,
			"0.025": 0.0
		}
	}
}
