{
	 "smiles": "NC1=C(C=C(C=C1)C1=CC=CC=C1)C(O)=O", 
	 "Tm": 480.15, 
	 "num_atms": 27, 
	 "gaussian": { 
		 "optdone": 1, 
		 "sigma_profile": "yes", 
		 "theory": "DFT", 
		 "functional": "B3LYP", 
		 "basiset": "6-31G**", 
		 "properties": { 
			 "R2extent": 4554.0504, 
			 "electric_dipole_moment_norm": 3.34304883901, 
			 "electric_quadrupole_moment_norm": 15.5753660124, 
			 "total_energy": -707.245871539, 
			 "HOMO_LUMO_gap": 0.15737, 
			 "cosmo_polarized_energy": -14.0, 
			 "cosmo_cavitation_energy": 31.13, 
			 "cosmo_dispersion_energy": -23.1, 
			 "cosmo_repulsion_energy": 1.78, 
			 "cosmo_total_nonelectrostatic_energy": 9.82, 
			 "SMD_solvation_energy": 6.09 
		},
		"coords": [
			{
				"x": -1.0676086224,
				"y": 3.0224980657,
				"z": 2.1623911381,
				"element": "N" 
			},
			{
				"x": -0.5391626399,
				"y": 1.9420048171,
				"z": 1.5039162527,
				"element": "C" 
			},
			{
				"x": -1.2044073095,
				"y": 0.6905894416,
				"z": 1.3642308934,
				"element": "C" 
			},
			{
				"x": -0.5488904054,
				"y": -0.3735471028,
				"z": 0.7173497423,
				"element": "C" 
			},
			{
				"x": 0.7333353,
				"y": -0.2654926233,
				"z": 0.1858136863,
				"element": "C" 
			},
			{
				"x": 1.3741013512,
				"y": 0.9849517202,
				"z": 0.3228046653,
				"element": "C" 
			},
			{
				"x": 0.7618658084,
				"y": 2.047850715,
				"z": 0.9584674691,
				"element": "C" 
			},
			{
				"x": 1.3956560774,
				"y": -1.406111663,
				"z": -0.4934891539,
				"element": "C" 
			},
			{
				"x": 0.6579998564,
				"y": -2.3101834033,
				"z": -1.2779485446,
				"element": "C" 
			},
			{
				"x": 1.2804452831,
				"y": -3.3841076134,
				"z": -1.9122379402,
				"element": "C" 
			},
			{
				"x": 2.6575312183,
				"y": -3.5765973395,
				"z": -1.7845527492,
				"element": "C" 
			},
			{
				"x": 3.4046399994,
				"y": -2.6856068238,
				"z": -1.0119944926,
				"element": "C" 
			},
			{
				"x": 2.7806497009,
				"y": -1.6154525981,
				"z": -0.3721813037,
				"element": "C" 
			},
			{
				"x": -2.5674130364,
				"y": 0.3854659528,
				"z": 1.8475550491,
				"element": "C" 
			},
			{
				"x": -3.2210505628,
				"y": 1.4418751833,
				"z": 2.4279251236,
				"element": "O" 
			},
			{
				"x": -3.1228073544,
				"y": -0.6930242166,
				"z": 1.7564546773,
				"element": "O" 
			},
			{
				"x": -2.0484177876,
				"y": 3.016242094,
				"z": 2.3924220199,
				"element": "H" 
			},
			{
				"x": -0.6263034463,
				"y": 3.9169769551,
				"z": 2.0232678082,
				"element": "H" 
			},
			{
				"x": -1.0893943482,
				"y": -1.3120100481,
				"z": 0.6616795293,
				"element": "H" 
			},
			{
				"x": 2.3644021312,
				"y": 1.1272348488,
				"z": -0.1003433779,
				"element": "H" 
			},
			{
				"x": 1.2834366454,
				"y": 2.99806891,
				"z": 1.0434892329,
				"element": "H" 
			},
			{
				"x": -0.4090090571,
				"y": -2.1556022806,
				"z": -1.4083490033,
				"element": "H" 
			},
			{
				"x": 0.6889986416,
				"y": -4.0662140342,
				"z": -2.5167385459,
				"element": "H" 
			},
			{
				"x": 3.142780906,
				"y": -4.4117522851,
				"z": -2.2812962267,
				"element": "H" 
			},
			{
				"x": 4.4754576413,
				"y": -2.8297070158,
				"z": -0.8970025515,
				"element": "H" 
			},
			{
				"x": 3.3694590546,
				"y": -0.9485770414,
				"z": 0.2512194928,
				"element": "H" 
			},
			{
				"x": -4.0897950451,
				"y": 1.0913273857,
				"z": 2.684847109,
				"element": "H" 
			}
		],
		 "valence_orbital": [ 
			{
				"type": "occ",
				"energy": -0.2758,
				"method": "rhf"
			},
			{
				"type": "occ",
				"energy": -0.25625,
				"method": "rhf"
			},
			{
				"type": "occ",
				"energy": -0.25039,
				"method": "rhf"
			},
			{
				"type": "occ",
				"energy": -0.24489,
				"method": "rhf"
			},
			{
				"type": "occ",
				"energy": -0.19797,
				"method": "rhf"
			},
			{
				"type": "unocc",
				"energy": -0.0406,
				"method": "rhf"
			},
			{
				"type": "unocc",
				"energy": -0.01691,
				"method": "rhf"
			},
			{
				"type": "unocc",
				"energy": 0.00368,
				"method": "rhf"
			},
			{
				"type": "unocc",
				"energy": 0.0293,
				"method": "rhf"
			},
			{
				"type": "unocc",
				"energy": 0.06733,
				"method": "rhf"
			}
		],
		"cosmo_sigma_profile": { 
			"-0.025": 0.0,
			"-0.024": 0.0,
			"-0.023": 0.0,
			"-0.022": 0.0,
			"-0.021": 0.0,
			"-0.02": 0.0,
			"-0.019": 0.0185173281088,
			"-0.018": 0.594223003596,
			"-0.017": 0.60637426086,
			"-0.016": 1.07428248152,
			"-0.015": 1.0812122058,
			"-0.014": 0.701770940538,
			"-0.013": 2.0988617901,
			"-0.012": 2.24865876875,
			"-0.011": 1.75924363377,
			"-0.01": 3.03219295603,
			"-0.009": 2.56731939429,
			"-0.008": 3.01773655743,
			"-0.007": 3.22933025776,
			"-0.006": 10.0661849321,
			"-0.005": 15.8921992467,
			"-0.004": 17.2001582212,
			"-0.003": 15.453600662,
			"-0.002": 15.4463469397,
			"-0.001": 14.2792497425,
			"0.0": 15.8096293988,
			"0.001": 15.2556003741,
			"0.002": 17.8350339038,
			"0.003": 21.3050988999,
			"0.004": 23.8280361319,
			"0.005": 16.0284169334,
			"0.006": 10.3950511592,
			"0.007": 3.03393195799,
			"0.008": 1.90515085813,
			"0.009": 2.53175747412,
			"0.01": 2.1595275359,
			"0.011": 2.76958154217,
			"0.012": 5.20703870469,
			"0.013": 0.623109529271,
			"0.014": 0.0,
			"0.015": 0.0,
			"0.016": 0.0,
			"0.017": 0.0,
			"0.018": 0.0,
			"0.019": 0.0,
			"0.02": 0.0,
			"0.021": 0.0,
			"0.022": 0.0,
			"0.023": 0.0,
			"0.024": 0.0,
			"0.025": 0.0
		}
	}
}
