{
	 "smiles": "OC1=C(CNC2=CC=C(F)C=C2)C=CC=C1", 
	 "Tm": 377.15, 
	 "num_atms": 28, 
	 "gaussian": { 
		 "optdone": 1, 
		 "sigma_profile": "yes", 
		 "theory": "DFT", 
		 "functional": "B3LYP", 
		 "basiset": "6-31G**", 
		 "properties": { 
			 "R2extent": 4863.5032, 
			 "electric_dipole_moment_norm": 2.78603244059, 
			 "electric_quadrupole_moment_norm": 12.8484924952, 
			 "total_energy": -732.426366607, 
			 "HOMO_LUMO_gap": 0.196, 
			 "cosmo_polarized_energy": -11.59, 
			 "cosmo_cavitation_energy": 31.79, 
			 "cosmo_dispersion_energy": -22.8, 
			 "cosmo_repulsion_energy": 1.74, 
			 "cosmo_total_nonelectrostatic_energy": 10.73, 
			 "SMD_solvation_energy": 6.02 
		},
		"coords": [
			{
				"x": -2.6125570873,
				"y": -0.9306915806,
				"z": -0.2776899735,
				"element": "O" 
			},
			{
				"x": -2.911461967,
				"y": 0.3847720563,
				"z": -0.4385081426,
				"element": "C" 
			},
			{
				"x": -2.1635914734,
				"y": 1.4046709465,
				"z": 0.1886291011,
				"element": "C" 
			},
			{
				"x": -1.0438255809,
				"y": 1.075766882,
				"z": 1.1586717292,
				"element": "C" 
			},
			{
				"x": -0.2033851672,
				"y": -0.0704924994,
				"z": 0.7532003024,
				"element": "N" 
			},
			{
				"x": 0.8603515695,
				"y": 0.1207987678,
				"z": -0.1686735933,
				"element": "C" 
			},
			{
				"x": 0.8633972375,
				"y": 1.1645666014,
				"z": -1.1056307049,
				"element": "C" 
			},
			{
				"x": 1.9140841002,
				"y": 1.2917794546,
				"z": -2.0163409598,
				"element": "C" 
			},
			{
				"x": 2.9572712868,
				"y": 0.3772547422,
				"z": -1.988229096,
				"element": "C" 
			},
			{
				"x": 3.975481764,
				"y": 0.5033111243,
				"z": -2.868318826,
				"element": "F" 
			},
			{
				"x": 2.9784658963,
				"y": -0.668071134,
				"z": -1.0713102933,
				"element": "C" 
			},
			{
				"x": 1.9284043527,
				"y": -0.7917760125,
				"z": -0.1661446528,
				"element": "C" 
			},
			{
				"x": -2.5313849607,
				"y": 2.7371733814,
				"z": -0.0314891,
				"element": "C" 
			},
			{
				"x": -3.6208319216,
				"y": 3.0709711226,
				"z": -0.8353274997,
				"element": "C" 
			},
			{
				"x": -4.359453817,
				"y": 2.0498645322,
				"z": -1.4389152796,
				"element": "C" 
			},
			{
				"x": -4.0049365053,
				"y": 0.7172089129,
				"z": -1.2484972513,
				"element": "C" 
			},
			{
				"x": -1.6990501745,
				"y": -0.9718250923,
				"z": 0.0829575648,
				"element": "H" 
			},
			{
				"x": -0.4334360904,
				"y": 1.9737167018,
				"z": 1.3323306819,
				"element": "H" 
			},
			{
				"x": -1.4790294171,
				"y": 0.7937919032,
				"z": 2.1259524213,
				"element": "H" 
			},
			{
				"x": 0.123064095,
				"y": -0.5793632592,
				"z": 1.5668184773,
				"element": "H" 
			},
			{
				"x": 0.0420854316,
				"y": 1.8698558097,
				"z": -1.1419910881,
				"element": "H" 
			},
			{
				"x": 1.9248642027,
				"y": 2.0943682278,
				"z": -2.7458968742,
				"element": "H" 
			},
			{
				"x": 3.8076041088,
				"y": -1.3672819301,
				"z": -1.0714242431,
				"element": "H" 
			},
			{
				"x": 1.935719155,
				"y": -1.6084433082,
				"z": 0.5519201134,
				"element": "H" 
			},
			{
				"x": -1.9525777657,
				"y": 3.5249617895,
				"z": 0.4469127101,
				"element": "H" 
			},
			{
				"x": -3.8884042567,
				"y": 4.1116842841,
				"z": -0.9886044509,
				"element": "H" 
			},
			{
				"x": -5.2099875544,
				"y": 2.2919769042,
				"z": -2.0700198346,
				"element": "H" 
			},
			{
				"x": -4.5571794609,
				"y": -0.0900493281,
				"z": -1.7187812379,
				"element": "H" 
			}
		],
		 "valence_orbital": [ 
			{
				"type": "occ",
				"energy": -0.29759,
				"method": "rhf"
			},
			{
				"type": "occ",
				"energy": -0.26282,
				"method": "rhf"
			},
			{
				"type": "occ",
				"energy": -0.24404,
				"method": "rhf"
			},
			{
				"type": "occ",
				"energy": -0.21594,
				"method": "rhf"
			},
			{
				"type": "occ",
				"energy": -0.21156,
				"method": "rhf"
			},
			{
				"type": "unocc",
				"energy": -0.01556,
				"method": "rhf"
			},
			{
				"type": "unocc",
				"energy": -0.00133,
				"method": "rhf"
			},
			{
				"type": "unocc",
				"energy": 0.00885,
				"method": "rhf"
			},
			{
				"type": "unocc",
				"energy": 0.01522,
				"method": "rhf"
			},
			{
				"type": "unocc",
				"energy": 0.06688,
				"method": "rhf"
			}
		],
		"cosmo_sigma_profile": { 
			"-0.025": 0.0,
			"-0.024": 0.0,
			"-0.023": 0.0,
			"-0.022": 0.0,
			"-0.021": 0.0,
			"-0.02": 0.0,
			"-0.019": 0.0,
			"-0.018": 0.0,
			"-0.017": 0.0,
			"-0.016": 0.0,
			"-0.015": 0.0,
			"-0.014": 0.217396522326,
			"-0.013": 1.44930568115,
			"-0.012": 1.45618695593,
			"-0.011": 1.47570507881,
			"-0.01": 2.16506421742,
			"-0.009": 1.97957979658,
			"-0.008": 2.15528101295,
			"-0.007": 5.82500624429,
			"-0.006": 11.7645932757,
			"-0.005": 20.1282095155,
			"-0.004": 19.2252478865,
			"-0.003": 19.4636316413,
			"-0.002": 16.9401849652,
			"-0.001": 12.1678918825,
			"0.0": 14.1560197162,
			"0.001": 15.152093311,
			"0.002": 19.3512909588,
			"0.003": 17.8982930048,
			"0.004": 25.1690983354,
			"0.005": 24.3936625047,
			"0.006": 8.70064653333,
			"0.007": 3.5794480327,
			"0.008": 1.62454761824,
			"0.009": 1.33857984397,
			"0.01": 1.43837924844,
			"0.011": 1.47738813268,
			"0.012": 2.17854820365,
			"0.013": 1.00463692493,
			"0.014": 0.0,
			"0.015": 0.0,
			"0.016": 0.0,
			"0.017": 0.0,
			"0.018": 0.0,
			"0.019": 0.0,
			"0.02": 0.0,
			"0.021": 0.0,
			"0.022": 0.0,
			"0.023": 0.0,
			"0.024": 0.0,
			"0.025": 0.0
		}
	}
}
