{
	 "smiles": "CN(C)CCN1C(=O)C=CC1=O", 
	 "Tm": 318.15, 
	 "num_atms": 24, 
	 "gaussian": { 
		 "optdone": 1, 
		 "sigma_profile": "yes", 
		 "theory": "DFT", 
		 "functional": "B3LYP", 
		 "basiset": "6-31G**", 
		 "properties": { 
			 "R2extent": 2809.9024, 
			 "electric_dipole_moment_norm": 0.749726743554, 
			 "electric_quadrupole_moment_norm": 12.9861491829, 
			 "total_energy": -572.025640316, 
			 "HOMO_LUMO_gap": 0.12147, 
			 "cosmo_polarized_energy": -10.02, 
			 "cosmo_cavitation_energy": 27.13, 
			 "cosmo_dispersion_energy": -18.92, 
			 "cosmo_repulsion_energy": 1.51, 
			 "cosmo_total_nonelectrostatic_energy": 9.72, 
			 "SMD_solvation_energy": 4.58 
		},
		"coords": [
			{
				"x": 0.8980414258,
				"y": 1.2743950544,
				"z": 0.7619166813,
				"element": "C" 
			},
			{
				"x": 0.3071129187,
				"y": -0.0577830772,
				"z": 0.8006754261,
				"element": "N" 
			},
			{
				"x": 0.1117876745,
				"y": -0.5084323709,
				"z": 2.175407901,
				"element": "C" 
			},
			{
				"x": 1.072827559,
				"y": -1.000372603,
				"z": -0.005480915,
				"element": "C" 
			},
			{
				"x": 0.3179766356,
				"y": -2.298678876,
				"z": -0.3263000146,
				"element": "C" 
			},
			{
				"x": -0.9502282399,
				"y": -2.0680986361,
				"z": -1.0014441651,
				"element": "N" 
			},
			{
				"x": -2.1984428154,
				"y": -2.0946068968,
				"z": -0.3748372132,
				"element": "C" 
			},
			{
				"x": -2.4114943033,
				"y": -2.406573377,
				"z": 0.7801492783,
				"element": "O" 
			},
			{
				"x": -3.1986595131,
				"y": -1.6934266356,
				"z": -1.423419083,
				"element": "C" 
			},
			{
				"x": -2.546502569,
				"y": -1.4447220988,
				"z": -2.5628741883,
				"element": "C" 
			},
			{
				"x": -1.0765033831,
				"y": -1.6602067999,
				"z": -2.330324759,
				"element": "C" 
			},
			{
				"x": -0.1620445932,
				"y": -1.519826154,
				"z": -3.1188419463,
				"element": "O" 
			},
			{
				"x": 1.9095080347,
				"y": 1.3208281674,
				"z": 1.2105356553,
				"element": "H" 
			},
			{
				"x": 0.2586129088,
				"y": 1.9755562871,
				"z": 1.3076829799,
				"element": "H" 
			},
			{
				"x": 0.9725765128,
				"y": 1.6198896219,
				"z": -0.2741244594,
				"element": "H" 
			},
			{
				"x": -0.4653458644,
				"y": -1.435493942,
				"z": 2.1968236006,
				"element": "H" 
			},
			{
				"x": -0.4639590182,
				"y": 0.2441317303,
				"z": 2.7226937944,
				"element": "H" 
			},
			{
				"x": 1.0652556781,
				"y": -0.6671513624,
				"z": 2.716429072,
				"element": "H" 
			},
			{
				"x": 2.0353070482,
				"y": -1.2819440793,
				"z": 0.4692491368,
				"element": "H" 
			},
			{
				"x": 1.3185246588,
				"y": -0.5148812091,
				"z": -0.9553436358,
				"element": "H" 
			},
			{
				"x": 0.0894475072,
				"y": -2.8714273697,
				"z": 0.5748955162,
				"element": "H" 
			},
			{
				"x": 0.945085591,
				"y": -2.9178784804,
				"z": -0.9746178362,
				"element": "H" 
			},
			{
				"x": -4.2585126956,
				"y": -1.6441045234,
				"z": -1.2113146712,
				"element": "H" 
			},
			{
				"x": -2.9337711577,
				"y": -1.1373923694,
				"z": -3.5253361548,
				"element": "H" 
			}
		],
		 "valence_orbital": [ 
			{
				"type": "occ",
				"energy": -0.3043,
				"method": "rhf"
			},
			{
				"type": "occ",
				"energy": -0.2941,
				"method": "rhf"
			},
			{
				"type": "occ",
				"energy": -0.27087,
				"method": "rhf"
			},
			{
				"type": "occ",
				"energy": -0.26781,
				"method": "rhf"
			},
			{
				"type": "occ",
				"energy": -0.21432,
				"method": "rhf"
			},
			{
				"type": "unocc",
				"energy": -0.09285,
				"method": "rhf"
			},
			{
				"type": "unocc",
				"energy": 0.05605,
				"method": "rhf"
			},
			{
				"type": "unocc",
				"energy": 0.06836,
				"method": "rhf"
			},
			{
				"type": "unocc",
				"energy": 0.08826,
				"method": "rhf"
			},
			{
				"type": "unocc",
				"energy": 0.1069,
				"method": "rhf"
			}
		],
		"cosmo_sigma_profile": { 
			"-0.025": 0.0,
			"-0.024": 0.0,
			"-0.023": 0.0,
			"-0.022": 0.0,
			"-0.021": 0.0,
			"-0.02": 0.0,
			"-0.019": 0.0,
			"-0.018": 0.0,
			"-0.017": 0.0,
			"-0.016": 0.0,
			"-0.015": 0.0,
			"-0.014": 0.0,
			"-0.013": 0.0,
			"-0.012": 0.0,
			"-0.011": 0.0,
			"-0.01": 1.07938925431,
			"-0.009": 3.59586243748,
			"-0.008": 2.74920958617,
			"-0.007": 3.9408328375,
			"-0.006": 4.83617313419,
			"-0.005": 8.82740295501,
			"-0.004": 17.4788042952,
			"-0.003": 26.1827550346,
			"-0.002": 28.7093680541,
			"-0.001": 28.7442624996,
			"0.0": 24.1685544679,
			"0.001": 10.1424602506,
			"0.002": 4.43798551014,
			"0.003": 3.5158139972,
			"0.004": 5.32753206745,
			"0.005": 5.02780050513,
			"0.006": 3.47315007872,
			"0.007": 5.00860987954,
			"0.008": 4.10144729027,
			"0.009": 4.48997999647,
			"0.01": 5.82106353827,
			"0.011": 8.69849226857,
			"0.012": 3.39831232253,
			"0.013": 0.10307178394,
			"0.014": 0.0,
			"0.015": 0.0,
			"0.016": 0.0,
			"0.017": 0.0,
			"0.018": 0.0,
			"0.019": 0.0,
			"0.02": 0.0,
			"0.021": 0.0,
			"0.022": 0.0,
			"0.023": 0.0,
			"0.024": 0.0,
			"0.025": 0.0
		}
	}
}
