{
	 "smiles": "OC1=CC=C(C(O)=C1)C1=C(O)C(=O)C2=C(O)C=C(O)C=C2O1", 
	 "Tm": 577.15, 
	 "num_atms": 32, 
	 "gaussian": { 
		 "optdone": 1, 
		 "sigma_profile": "yes", 
		 "theory": "DFT", 
		 "functional": "B3LYP", 
		 "basiset": "6-31G**", 
		 "properties": { 
			 "R2extent": 7998.9037, 
			 "electric_dipole_moment_norm": 9.06894958526, 
			 "electric_quadrupole_moment_norm": 22.3362596097, 
			 "total_energy": -1104.17813376, 
			 "HOMO_LUMO_gap": 0.14848, 
			 "cosmo_polarized_energy": -31.23, 
			 "cosmo_cavitation_energy": 36.86, 
			 "cosmo_dispersion_energy": -27.78, 
			 "cosmo_repulsion_energy": 2.06, 
			 "cosmo_total_nonelectrostatic_energy": 11.14, 
			 "SMD_solvation_energy": 8.32 
		},
		"coords": [
			{
				"x": -3.861136784,
				"y": 2.176645564,
				"z": 4.0891761608,
				"element": "O" 
			},
			{
				"x": -2.97509096,
				"y": 1.6512225011,
				"z": 3.2010033594,
				"element": "C" 
			},
			{
				"x": -2.5395713953,
				"y": 2.4742663487,
				"z": 2.1550309531,
				"element": "C" 
			},
			{
				"x": -1.6411251497,
				"y": 1.9748460284,
				"z": 1.2264512409,
				"element": "C" 
			},
			{
				"x": -1.1410450721,
				"y": 0.6567083661,
				"z": 1.2811493739,
				"element": "C" 
			},
			{
				"x": -1.5803854171,
				"y": -0.1354833057,
				"z": 2.3570034714,
				"element": "C" 
			},
			{
				"x": -1.0663443461,
				"y": -1.4081457571,
				"z": 2.4783782205,
				"element": "O" 
			},
			{
				"x": -2.4920227858,
				"y": 0.3445496035,
				"z": 3.2992716833,
				"element": "C" 
			},
			{
				"x": -0.1880439005,
				"y": 0.2113120159,
				"z": 0.2468915876,
				"element": "C" 
			},
			{
				"x": -0.1162119192,
				"y": -1.0067620316,
				"z": -0.375718591,
				"element": "C" 
			},
			{
				"x": -0.9234135003,
				"y": -2.0586871543,
				"z": -0.107270647,
				"element": "O" 
			},
			{
				"x": 0.843802736,
				"y": -1.2277721676,
				"z": -1.4665308211,
				"element": "C" 
			},
			{
				"x": 0.9257796534,
				"y": -2.3261343638,
				"z": -2.0559165114,
				"element": "O" 
			},
			{
				"x": 1.6672645626,
				"y": -0.0910449562,
				"z": -1.8192081022,
				"element": "C" 
			},
			{
				"x": 2.6340652987,
				"y": -0.1786308305,
				"z": -2.8680113128,
				"element": "C" 
			},
			{
				"x": 2.7815182167,
				"y": -1.3211382287,
				"z": -3.5458830792,
				"element": "O" 
			},
			{
				"x": 3.420049191,
				"y": 0.9259043917,
				"z": -3.1830921671,
				"element": "C" 
			},
			{
				"x": 3.2568812985,
				"y": 2.1180230015,
				"z": -2.4645575462,
				"element": "C" 
			},
			{
				"x": 4.0578756351,
				"y": 3.1575564164,
				"z": -2.8237090215,
				"element": "O" 
			},
			{
				"x": 2.3204686646,
				"y": 2.2374038956,
				"z": -1.4312931778,
				"element": "C" 
			},
			{
				"x": 1.5410290274,
				"y": 1.1229250612,
				"z": -1.12912247,
				"element": "C" 
			},
			{
				"x": 0.64067668,
				"y": 1.2516238979,
				"z": -0.1161165572,
				"element": "O" 
			},
			{
				"x": -4.0895354931,
				"y": 1.5163318739,
				"z": 4.7562387534,
				"element": "H" 
			},
			{
				"x": -2.9193884415,
				"y": 3.4871994903,
				"z": 2.086601066,
				"element": "H" 
			},
			{
				"x": -1.306007587,
				"y": 2.6126543676,
				"z": 0.4169276732,
				"element": "H" 
			},
			{
				"x": -1.4395913455,
				"y": -1.8457925331,
				"z": 3.2547594087,
				"element": "H" 
			},
			{
				"x": -2.8098829764,
				"y": -0.2988990052,
				"z": 4.1182348933,
				"element": "H" 
			},
			{
				"x": -1.1358839259,
				"y": -2.0595269746,
				"z": 0.8431256002,
				"element": "H" 
			},
			{
				"x": 2.1240688216,
				"y": -1.9638034179,
				"z": -3.1530831623,
				"element": "H" 
			},
			{
				"x": 4.1532976876,
				"y": 0.8658879763,
				"z": -3.9777855203,
				"element": "H" 
			},
			{
				"x": 3.8612261712,
				"y": 3.9205013277,
				"z": -2.2646600488,
				"element": "H" 
			},
			{
				"x": 2.1934773551,
				"y": 3.1573585986,
				"z": -0.8700847099,
				"element": "H" 
			}
		],
		 "valence_orbital": [ 
			{
				"type": "occ",
				"energy": -0.25598,
				"method": "rhf"
			},
			{
				"type": "occ",
				"energy": -0.24826,
				"method": "rhf"
			},
			{
				"type": "occ",
				"energy": -0.2303,
				"method": "rhf"
			},
			{
				"type": "occ",
				"energy": -0.2265,
				"method": "rhf"
			},
			{
				"type": "occ",
				"energy": -0.2031,
				"method": "rhf"
			},
			{
				"type": "unocc",
				"energy": -0.05462,
				"method": "rhf"
			},
			{
				"type": "unocc",
				"energy": -0.02028,
				"method": "rhf"
			},
			{
				"type": "unocc",
				"energy": -0.01138,
				"method": "rhf"
			},
			{
				"type": "unocc",
				"energy": 0.00879,
				"method": "rhf"
			},
			{
				"type": "unocc",
				"energy": 0.02731,
				"method": "rhf"
			}
		],
		"cosmo_sigma_profile": { 
			"-0.025": 0.0,
			"-0.024": 0.0,
			"-0.023": 0.0,
			"-0.022": 0.0,
			"-0.021": 0.0,
			"-0.02": 0.258196953939,
			"-0.019": 1.52144892361,
			"-0.018": 3.1986718351,
			"-0.017": 4.49375579193,
			"-0.016": 2.87768689555,
			"-0.015": 2.66823304895,
			"-0.014": 3.73800889014,
			"-0.013": 3.29831968437,
			"-0.012": 2.50532849116,
			"-0.011": 3.51575102918,
			"-0.01": 3.54092183298,
			"-0.009": 3.65084959884,
			"-0.008": 4.56852686664,
			"-0.007": 6.12375788255,
			"-0.006": 8.84957366788,
			"-0.005": 8.84156634474,
			"-0.004": 9.8499626576,
			"-0.003": 11.6491998715,
			"-0.002": 15.0319374742,
			"-0.001": 17.5357686903,
			"0.0": 17.4735951138,
			"0.001": 25.7414424636,
			"0.002": 27.2369787219,
			"0.003": 29.3802253872,
			"0.004": 16.2888125237,
			"0.005": 10.3795128537,
			"0.006": 6.51156215089,
			"0.007": 7.11337411372,
			"0.008": 6.49551078434,
			"0.009": 5.84069273504,
			"0.01": 8.58695881944,
			"0.011": 6.21677289735,
			"0.012": 3.82262579651,
			"0.013": 2.00883611917,
			"0.014": 1.91626852816,
			"0.015": 1.4196655209,
			"0.016": 1.30320292244,
			"0.017": 0.311556967934,
			"0.018": 0.0,
			"0.019": 0.0,
			"0.02": 0.0,
			"0.021": 0.0,
			"0.022": 0.0,
			"0.023": 0.0,
			"0.024": 0.0,
			"0.025": 0.0
		}
	}
}
