{
	 "smiles": "CC(CC1=CC=CC=C1)=NNC(N)=O", 
	 "Tm": 462.15, 
	 "num_atms": 27, 
	 "gaussian": { 
		 "optdone": 1, 
		 "sigma_profile": "yes", 
		 "theory": "DFT", 
		 "functional": "B3LYP", 
		 "basiset": "6-31G**", 
		 "properties": { 
			 "R2extent": 3622.8787, 
			 "electric_dipole_moment_norm": 3.04755513978, 
			 "electric_quadrupole_moment_norm": 19.3397525447, 
			 "total_energy": -628.367767114, 
			 "HOMO_LUMO_gap": 0.21896, 
			 "cosmo_polarized_energy": -16.38, 
			 "cosmo_cavitation_energy": 30.4, 
			 "cosmo_dispersion_energy": -21.73, 
			 "cosmo_repulsion_energy": 1.73, 
			 "cosmo_total_nonelectrostatic_energy": 10.41, 
			 "SMD_solvation_energy": 5.21 
		},
		"coords": [
			{
				"x": -2.1839232438,
				"y": 1.6562266998,
				"z": -1.6377527679,
				"element": "C" 
			},
			{
				"x": -1.560745563,
				"y": 1.3269691152,
				"z": -0.3058464055,
				"element": "C" 
			},
			{
				"x": -0.1736542446,
				"y": 0.7024186038,
				"z": -0.3295396747,
				"element": "C" 
			},
			{
				"x": -0.0042492963,
				"y": -0.4278824736,
				"z": -1.3313058797,
				"element": "C" 
			},
			{
				"x": 0.81930431,
				"y": -0.2709037944,
				"z": -2.4527988245,
				"element": "C" 
			},
			{
				"x": 0.9822494149,
				"y": -1.3084371201,
				"z": -3.3736896135,
				"element": "C" 
			},
			{
				"x": 0.3175796784,
				"y": -2.519972397,
				"z": -3.1839489376,
				"element": "C" 
			},
			{
				"x": -0.506240547,
				"y": -2.6861584971,
				"z": -2.0674466522,
				"element": "C" 
			},
			{
				"x": -0.666841337,
				"y": -1.6513198691,
				"z": -1.146012558,
				"element": "C" 
			},
			{
				"x": -2.241824133,
				"y": 1.6876495687,
				"z": 0.720713518,
				"element": "N" 
			},
			{
				"x": -1.705402145,
				"y": 1.4058949672,
				"z": 2.0045152633,
				"element": "N" 
			},
			{
				"x": -1.7359849615,
				"y": 0.0956591095,
				"z": 2.496394127,
				"element": "C" 
			},
			{
				"x": -1.6801398993,
				"y": 0.04510611,
				"z": 3.883375169,
				"element": "N" 
			},
			{
				"x": -1.8060926006,
				"y": -0.9057611349,
				"z": 1.8020327563,
				"element": "O" 
			},
			{
				"x": -2.4229491042,
				"y": 0.7388936265,
				"z": -2.1853656277,
				"element": "H" 
			},
			{
				"x": -1.4833950454,
				"y": 2.2236339454,
				"z": -2.262184125,
				"element": "H" 
			},
			{
				"x": -3.0963616664,
				"y": 2.2353740146,
				"z": -1.4899003624,
				"element": "H" 
			},
			{
				"x": 0.5150296425,
				"y": 1.5155857326,
				"z": -0.6007545303,
				"element": "H" 
			},
			{
				"x": 0.1035533548,
				"y": 0.3679547024,
				"z": 0.6696108976,
				"element": "H" 
			},
			{
				"x": 1.3425632023,
				"y": 0.6704719636,
				"z": -2.6057101763,
				"element": "H" 
			},
			{
				"x": 1.6280359607,
				"y": -1.1683068287,
				"z": -4.2362805221,
				"element": "H" 
			},
			{
				"x": 0.4416668603,
				"y": -3.3292935753,
				"z": -3.8980557197,
				"element": "H" 
			},
			{
				"x": -1.024425983,
				"y": -3.6284378161,
				"z": -1.9108074861,
				"element": "H" 
			},
			{
				"x": -1.2988633587,
				"y": -1.7784840698,
				"z": -0.2728310235,
				"element": "H" 
			},
			{
				"x": -2.1242248816,
				"y": 2.0625764433,
				"z": 2.6532401488,
				"element": "H" 
			},
			{
				"x": -1.2018886556,
				"y": 0.7936786188,
				"z": 4.3660122056,
				"element": "H" 
			},
			{
				"x": -1.4657757577,
				"y": -0.8790356452,
				"z": 4.230336801,
				"element": "H" 
			}
		],
		 "valence_orbital": [ 
			{
				"type": "occ",
				"energy": -0.27889,
				"method": "rhf"
			},
			{
				"type": "occ",
				"energy": -0.26174,
				"method": "rhf"
			},
			{
				"type": "occ",
				"energy": -0.24244,
				"method": "rhf"
			},
			{
				"type": "occ",
				"energy": -0.24018,
				"method": "rhf"
			},
			{
				"type": "occ",
				"energy": -0.22021,
				"method": "rhf"
			},
			{
				"type": "unocc",
				"energy": -0.00125,
				"method": "rhf"
			},
			{
				"type": "unocc",
				"energy": 0.00562,
				"method": "rhf"
			},
			{
				"type": "unocc",
				"energy": 0.01342,
				"method": "rhf"
			},
			{
				"type": "unocc",
				"energy": 0.04362,
				"method": "rhf"
			},
			{
				"type": "unocc",
				"energy": 0.06445,
				"method": "rhf"
			}
		],
		"cosmo_sigma_profile": { 
			"-0.025": 0.0,
			"-0.024": 0.0,
			"-0.023": 0.0,
			"-0.022": 0.0,
			"-0.021": 0.0,
			"-0.02": 0.0,
			"-0.019": 0.0,
			"-0.018": 0.0,
			"-0.017": 0.0,
			"-0.016": 0.0,
			"-0.015": 0.76817388097,
			"-0.014": 3.36042692621,
			"-0.013": 3.62580646036,
			"-0.012": 3.26512083946,
			"-0.011": 3.00258438406,
			"-0.01": 2.64887564428,
			"-0.009": 2.76591234084,
			"-0.008": 2.69603087865,
			"-0.007": 1.98798961177,
			"-0.006": 5.69107658644,
			"-0.005": 16.0410880796,
			"-0.004": 16.472141554,
			"-0.003": 19.8302827255,
			"-0.002": 16.6168004229,
			"-0.001": 18.885708725,
			"0.0": 17.4272790394,
			"0.001": 12.4930521177,
			"0.002": 11.6763141839,
			"0.003": 13.4699910118,
			"0.004": 13.5261704171,
			"0.005": 13.7826881115,
			"0.006": 11.3205552605,
			"0.007": 6.01408269842,
			"0.008": 4.81122300996,
			"0.009": 3.69229114042,
			"0.01": 3.3896279775,
			"0.011": 2.90361662818,
			"0.012": 2.95725544704,
			"0.013": 3.08930717126,
			"0.014": 1.90780396193,
			"0.015": 0.277988380296,
			"0.016": 0.0,
			"0.017": 0.0,
			"0.018": 0.0,
			"0.019": 0.0,
			"0.02": 0.0,
			"0.021": 0.0,
			"0.022": 0.0,
			"0.023": 0.0,
			"0.024": 0.0,
			"0.025": 0.0
		}
	}
}
