{
	 "smiles": "COC(=O)CNC1=CC(F)=CC=C1", 
	 "Tm": 339.15, 
	 "num_atms": 23, 
	 "gaussian": { 
		 "optdone": 1, 
		 "sigma_profile": "yes", 
		 "theory": "DFT", 
		 "functional": "B3LYP", 
		 "basiset": "6-31G**", 
		 "properties": { 
			 "R2extent": 3261.3577, 
			 "electric_dipole_moment_norm": 2.54019428588, 
			 "electric_quadrupole_moment_norm": 11.4383362387, 
			 "total_energy": -654.021099689, 
			 "HOMO_LUMO_gap": 0.20255, 
			 "cosmo_polarized_energy": -11.51, 
			 "cosmo_cavitation_energy": 28.05, 
			 "cosmo_dispersion_energy": -19.81, 
			 "cosmo_repulsion_energy": 1.57, 
			 "cosmo_total_nonelectrostatic_energy": 9.82, 
			 "SMD_solvation_energy": 5.84 
		},
		"coords": [
			{
				"x": -1.2673991513,
				"y": -1.9390393117,
				"z": 2.1266866679,
				"element": "C" 
			},
			{
				"x": -0.3274693136,
				"y": -1.9055858417,
				"z": 1.036666544,
				"element": "O" 
			},
			{
				"x": -0.7106744318,
				"y": -1.1839263116,
				"z": -0.0352814678,
				"element": "C" 
			},
			{
				"x": -1.7555000467,
				"y": -0.5788914145,
				"z": -0.1165680116,
				"element": "O" 
			},
			{
				"x": 0.3279866622,
				"y": -1.2795461557,
				"z": -1.1574766648,
				"element": "C" 
			},
			{
				"x": 0.2626171446,
				"y": -0.20073705,
				"z": -2.1120140842,
				"element": "N" 
			},
			{
				"x": 0.6642919416,
				"y": 1.0956055993,
				"z": -1.772656238,
				"element": "C" 
			},
			{
				"x": 1.4723325833,
				"y": 1.3669111241,
				"z": -0.6564046782,
				"element": "C" 
			},
			{
				"x": 1.884135781,
				"y": 2.6745978577,
				"z": -0.4245718633,
				"element": "C" 
			},
			{
				"x": 2.6612468593,
				"y": 2.9071267293,
				"z": 0.6570040657,
				"element": "F" 
			},
			{
				"x": 1.5297621684,
				"y": 3.7402710874,
				"z": -1.2389690012,
				"element": "C" 
			},
			{
				"x": 0.7180499475,
				"y": 3.4592250899,
				"z": -2.3423158718,
				"element": "C" 
			},
			{
				"x": 0.2908387082,
				"y": 2.1645937222,
				"z": -2.6121013347,
				"element": "C" 
			},
			{
				"x": -0.8044336353,
				"y": -2.5561491109,
				"z": 2.8962295212,
				"element": "H" 
			},
			{
				"x": -1.4521987505,
				"y": -0.9297773978,
				"z": 2.5018722706,
				"element": "H" 
			},
			{
				"x": -2.2155359532,
				"y": -2.375070704,
				"z": 1.8023383863,
				"element": "H" 
			},
			{
				"x": 1.3295073595,
				"y": -1.3628413706,
				"z": -0.7291757488,
				"element": "H" 
			},
			{
				"x": 0.146812289,
				"y": -2.2249652968,
				"z": -1.6832895999,
				"element": "H" 
			},
			{
				"x": -0.5893489912,
				"y": -0.2121141064,
				"z": -2.6571220845,
				"element": "H" 
			},
			{
				"x": 1.7841551423,
				"y": 0.5987697539,
				"z": 0.0403414024,
				"element": "H" 
			},
			{
				"x": 1.8743865326,
				"y": 4.7416133888,
				"z": -1.0097236355,
				"element": "H" 
			},
			{
				"x": 0.4153383944,
				"y": 4.267045141,
				"z": -3.0022090588,
				"element": "H" 
			},
			{
				"x": -0.3326012404,
				"y": 1.9656845783,
				"z": -3.4795595149,
				"element": "H" 
			}
		],
		 "valence_orbital": [ 
			{
				"type": "occ",
				"energy": -0.3105,
				"method": "rhf"
			},
			{
				"type": "occ",
				"energy": -0.30077,
				"method": "rhf"
			},
			{
				"type": "occ",
				"energy": -0.27943,
				"method": "rhf"
			},
			{
				"type": "occ",
				"energy": -0.24101,
				"method": "rhf"
			},
			{
				"type": "occ",
				"energy": -0.20462,
				"method": "rhf"
			},
			{
				"type": "unocc",
				"energy": -0.00207,
				"method": "rhf"
			},
			{
				"type": "unocc",
				"energy": 0.01053,
				"method": "rhf"
			},
			{
				"type": "unocc",
				"energy": 0.01677,
				"method": "rhf"
			},
			{
				"type": "unocc",
				"energy": 0.08326,
				"method": "rhf"
			},
			{
				"type": "unocc",
				"energy": 0.09537,
				"method": "rhf"
			}
		],
		"cosmo_sigma_profile": { 
			"-0.025": 0.0,
			"-0.024": 0.0,
			"-0.023": 0.0,
			"-0.022": 0.0,
			"-0.021": 0.0,
			"-0.02": 0.0,
			"-0.019": 0.0,
			"-0.018": 0.0,
			"-0.017": 0.0,
			"-0.016": 0.0,
			"-0.015": 0.0,
			"-0.014": 0.0,
			"-0.013": 0.7648510784,
			"-0.012": 1.09315777138,
			"-0.011": 1.00952813381,
			"-0.01": 1.75448419063,
			"-0.009": 1.81961555275,
			"-0.008": 6.2845235591,
			"-0.007": 6.68595296233,
			"-0.006": 15.1994312566,
			"-0.005": 16.7816693865,
			"-0.004": 18.4383416428,
			"-0.003": 17.6904487166,
			"-0.002": 11.4156273423,
			"-0.001": 9.98364359399,
			"0.0": 8.1977008702,
			"0.001": 10.4139751022,
			"0.002": 14.5880794637,
			"0.003": 13.0447582622,
			"0.004": 18.9384368371,
			"0.005": 21.5894262056,
			"0.006": 7.52921731514,
			"0.007": 3.04656029672,
			"0.008": 4.27765549085,
			"0.009": 2.39103245835,
			"0.01": 2.30977816997,
			"0.011": 3.7608486174,
			"0.012": 3.88627110881,
			"0.013": 0.0782554356772,
			"0.014": 0.0,
			"0.015": 0.0,
			"0.016": 0.0,
			"0.017": 0.0,
			"0.018": 0.0,
			"0.019": 0.0,
			"0.02": 0.0,
			"0.021": 0.0,
			"0.022": 0.0,
			"0.023": 0.0,
			"0.024": 0.0,
			"0.025": 0.0
		}
	}
}
