{
	 "smiles": "CC(C)C1=C(C=C(C)C(=C1)N=NC1=CC=C(N)C=C1)N=NC1=CC=C(N)C=C1", 
	 "Tm": 450.15, 
	 "num_atms": 52, 
	 "gaussian": { 
		 "optdone": 1, 
		 "sigma_profile": "yes", 
		 "theory": "DFT", 
		 "functional": "B3LYP", 
		 "basiset": "6-31G**", 
		 "properties": { 
			 "R2extent": 16653.2443, 
			 "electric_dipole_moment_norm": 7.47636312253, 
			 "electric_quadrupole_moment_norm": 30.9406720774, 
			 "total_energy": -1181.24147401, 
			 "HOMO_LUMO_gap": 0.10727, 
			 "cosmo_polarized_energy": -24.01, 
			 "cosmo_cavitation_energy": 55.91, 
			 "cosmo_dispersion_energy": -37.79, 
			 "cosmo_repulsion_energy": 2.9, 
			 "cosmo_total_nonelectrostatic_energy": 21.01, 
			 "SMD_solvation_energy": 6.87 
		},
		"coords": [
			{
				"x": -3.1792274906,
				"y": -4.0338071233,
				"z": 0.5426751329,
				"element": "C" 
			},
			{
				"x": -1.6888734661,
				"y": -3.6433228894,
				"z": 0.620881232,
				"element": "C" 
			},
			{
				"x": -0.9865769857,
				"y": -4.3501939786,
				"z": 1.7953122078,
				"element": "C" 
			},
			{
				"x": -1.4947293429,
				"y": -2.1295381551,
				"z": 0.6191854128,
				"element": "C" 
			},
			{
				"x": -1.8925723098,
				"y": -1.2854560876,
				"z": 1.6869113252,
				"element": "C" 
			},
			{
				"x": -1.7551127412,
				"y": 0.1084074892,
				"z": 1.5786183065,
				"element": "C" 
			},
			{
				"x": -1.1916505855,
				"y": 0.71214181,
				"z": 0.4576804016,
				"element": "C" 
			},
			{
				"x": -1.0699771066,
				"y": 2.2141111497,
				"z": 0.3709932729,
				"element": "C" 
			},
			{
				"x": -0.7380367651,
				"y": -0.1268890753,
				"z": -0.5848084873,
				"element": "C" 
			},
			{
				"x": -0.899481009,
				"y": -1.5196057934,
				"z": -0.481550432,
				"element": "C" 
			},
			{
				"x": -0.1574657297,
				"y": 0.5170571225,
				"z": -1.6982193343,
				"element": "N" 
			},
			{
				"x": 0.2837627339,
				"y": -0.2581280517,
				"z": -2.5980594456,
				"element": "N" 
			},
			{
				"x": 0.8527671466,
				"y": 0.3782793889,
				"z": -3.7142341834,
				"element": "C" 
			},
			{
				"x": 0.9497997347,
				"y": 1.7723708627,
				"z": -3.8959185557,
				"element": "C" 
			},
			{
				"x": 1.5332506875,
				"y": 2.2926696875,
				"z": -5.0371746115,
				"element": "C" 
			},
			{
				"x": 2.0433091422,
				"y": 1.440902396,
				"z": -6.0429063397,
				"element": "C" 
			},
			{
				"x": 2.5803803934,
				"y": 1.970767219,
				"z": -7.2062118848,
				"element": "N" 
			},
			{
				"x": 1.9453161418,
				"y": 0.0484569134,
				"z": -5.8613061673,
				"element": "C" 
			},
			{
				"x": 1.3582233354,
				"y": -0.4672288995,
				"z": -4.7148130813,
				"element": "C" 
			},
			{
				"x": -2.6456904739,
				"y": -1.8286520744,
				"z": 2.770092068,
				"element": "N" 
			},
			{
				"x": -2.4343461848,
				"y": -1.5983233509,
				"z": 3.985451541,
				"element": "N" 
			},
			{
				"x": -1.267456359,
				"y": -0.9728451319,
				"z": 4.5103275943,
				"element": "C" 
			},
			{
				"x": -1.449230885,
				"y": -0.3537256188,
				"z": 5.7588954324,
				"element": "C" 
			},
			{
				"x": -0.3899984334,
				"y": 0.2334401684,
				"z": 6.4339188766,
				"element": "C" 
			},
			{
				"x": 0.9134394305,
				"y": 0.1650172295,
				"z": 5.9055313792,
				"element": "C" 
			},
			{
				"x": 1.9923621012,
				"y": 0.6847104941,
				"z": 6.6041599284,
				"element": "N" 
			},
			{
				"x": 1.1077059806,
				"y": -0.5094497656,
				"z": 4.6822876989,
				"element": "C" 
			},
			{
				"x": 0.0386713295,
				"y": -1.0573658932,
				"z": 3.99026686,
				"element": "C" 
			},
			{
				"x": -3.7186357241,
				"y": -3.6940447293,
				"z": 1.429801964,
				"element": "H" 
			},
			{
				"x": -3.2807585318,
				"y": -5.1225374949,
				"z": 0.4687903438,
				"element": "H" 
			},
			{
				"x": -3.6529373726,
				"y": -3.5891708687,
				"z": -0.3383824913,
				"element": "H" 
			},
			{
				"x": -1.2113421339,
				"y": -4.0033239355,
				"z": -0.2996333771,
				"element": "H" 
			},
			{
				"x": -1.4431623939,
				"y": -4.0859915956,
				"z": 2.7530777524,
				"element": "H" 
			},
			{
				"x": -1.0627509785,
				"y": -5.437264314,
				"z": 1.6810659997,
				"element": "H" 
			},
			{
				"x": 0.0774207112,
				"y": -4.0927151529,
				"z": 1.8368989735,
				"element": "H" 
			},
			{
				"x": -2.1129145501,
				"y": 0.7287468372,
				"z": 2.394658899,
				"element": "H" 
			},
			{
				"x": -1.6060739562,
				"y": 2.6069651981,
				"z": -0.4984222498,
				"element": "H" 
			},
			{
				"x": -1.4758807933,
				"y": 2.6870767191,
				"z": 1.2695600814,
				"element": "H" 
			},
			{
				"x": -0.0262918517,
				"y": 2.5240778095,
				"z": 0.2593947922,
				"element": "H" 
			},
			{
				"x": -0.5532711967,
				"y": -2.1246426738,
				"z": -1.3129599834,
				"element": "H" 
			},
			{
				"x": 0.5594295418,
				"y": 2.4245522408,
				"z": -3.1229659183,
				"element": "H" 
			},
			{
				"x": 1.599646863,
				"y": 3.3699681728,
				"z": -5.1714843466,
				"element": "H" 
			},
			{
				"x": 2.9088861315,
				"y": 2.9242066659,
				"z": -7.1577552683,
				"element": "H" 
			},
			{
				"x": 3.1889350972,
				"y": 1.3659297745,
				"z": -7.7383509739,
				"element": "H" 
			},
			{
				"x": 2.3288998522,
				"y": -0.6204816532,
				"z": -6.6274969159,
				"element": "H" 
			},
			{
				"x": 1.2787734658,
				"y": -1.5394003218,
				"z": -4.5642175593,
				"element": "H" 
			},
			{
				"x": -2.4504519852,
				"y": -0.3372606079,
				"z": 6.1782062507,
				"element": "H" 
			},
			{
				"x": -0.5571830449,
				"y": 0.7253380393,
				"z": 7.3887374664,
				"element": "H" 
			},
			{
				"x": 1.7848048611,
				"y": 1.3971553223,
				"z": 7.2886991769,
				"element": "H" 
			},
			{
				"x": 2.8254474619,
				"y": 0.8783298507,
				"z": 6.0676987504,
				"element": "H" 
			},
			{
				"x": 2.1132606161,
				"y": -0.6014828213,
				"z": 4.279207398,
				"element": "H" 
			},
			{
				"x": 0.2226876219,
				"y": -1.5693305033,
				"z": 3.0539850881,
				"element": "H" 
			}
		],
		 "valence_orbital": [ 
			{
				"type": "occ",
				"energy": -0.23352,
				"method": "rhf"
			},
			{
				"type": "occ",
				"energy": -0.21965,
				"method": "rhf"
			},
			{
				"type": "occ",
				"energy": -0.20986,
				"method": "rhf"
			},
			{
				"type": "occ",
				"energy": -0.20343,
				"method": "rhf"
			},
			{
				"type": "occ",
				"energy": -0.18169,
				"method": "rhf"
			},
			{
				"type": "unocc",
				"energy": -0.07442,
				"method": "rhf"
			},
			{
				"type": "unocc",
				"energy": -0.04836,
				"method": "rhf"
			},
			{
				"type": "unocc",
				"energy": -0.00604,
				"method": "rhf"
			},
			{
				"type": "unocc",
				"energy": 0.00031,
				"method": "rhf"
			},
			{
				"type": "unocc",
				"energy": 0.01306,
				"method": "rhf"
			}
		],
		"cosmo_sigma_profile": { 
			"-0.025": 0.0,
			"-0.024": 0.0,
			"-0.023": 0.0,
			"-0.022": 0.0,
			"-0.021": 0.0,
			"-0.02": 0.0,
			"-0.019": 0.0,
			"-0.018": 0.0,
			"-0.017": 0.0,
			"-0.016": 0.0,
			"-0.015": 0.0,
			"-0.014": 0.343085906129,
			"-0.013": 4.45624633947,
			"-0.012": 6.51828595624,
			"-0.011": 6.19351044734,
			"-0.01": 6.01514807369,
			"-0.009": 6.2020851899,
			"-0.008": 5.72604666443,
			"-0.007": 7.60917709221,
			"-0.006": 12.3058342115,
			"-0.005": 16.521424222,
			"-0.004": 23.0543043617,
			"-0.003": 30.9700591146,
			"-0.002": 29.3052290893,
			"-0.001": 37.1585874786,
			"0.0": 35.9079709813,
			"0.001": 35.4853480561,
			"0.002": 30.3387079098,
			"0.003": 38.790982644,
			"0.004": 45.741369156,
			"0.005": 26.0508083687,
			"0.006": 8.51055197867,
			"0.007": 8.06719025635,
			"0.008": 5.10846963588,
			"0.009": 3.65356983959,
			"0.01": 3.11065583513,
			"0.011": 3.30112933672,
			"0.012": 3.10084971347,
			"0.013": 2.09416025522,
			"0.014": 0.979328910172,
			"0.015": 0.469976929674,
			"0.016": 0.0,
			"0.017": 0.0,
			"0.018": 0.0,
			"0.019": 0.0,
			"0.02": 0.0,
			"0.021": 0.0,
			"0.022": 0.0,
			"0.023": 0.0,
			"0.024": 0.0,
			"0.025": 0.0
		}
	}
}
