{
	 "smiles": "CCCOC1=CC=C(C=C1)C(=O)NN", 
	 "Tm": 362.15, 
	 "num_atms": 28, 
	 "gaussian": { 
		 "optdone": 1, 
		 "sigma_profile": "yes", 
		 "theory": "DFT", 
		 "functional": "B3LYP", 
		 "basiset": "6-31G**", 
		 "properties": { 
			 "R2extent": 5188.4159, 
			 "electric_dipole_moment_norm": 4.64428290374, 
			 "electric_quadrupole_moment_norm": 24.002461525, 
			 "total_energy": -649.429567578, 
			 "HOMO_LUMO_gap": 0.19638, 
			 "cosmo_polarized_energy": -16.12, 
			 "cosmo_cavitation_energy": 31.6, 
			 "cosmo_dispersion_energy": -23.12, 
			 "cosmo_repulsion_energy": 1.87, 
			 "cosmo_total_nonelectrostatic_energy": 10.36, 
			 "SMD_solvation_energy": 6.96 
		},
		"coords": [
			{
				"x": 2.2080248777,
				"y": 0.1559142373,
				"z": -3.155190523,
				"element": "C" 
			},
			{
				"x": 0.7239808376,
				"y": -0.1702807363,
				"z": -3.3471208529,
				"element": "C" 
			},
			{
				"x": 0.0346622215,
				"y": -0.6348742947,
				"z": -2.0704887254,
				"element": "C" 
			},
			{
				"x": 0.0748667501,
				"y": 0.4414855992,
				"z": -1.1322887741,
				"element": "O" 
			},
			{
				"x": -0.4655292689,
				"y": 0.2634431206,
				"z": 0.103618295,
				"element": "C" 
			},
			{
				"x": -0.3755140022,
				"y": 1.3622432134,
				"z": 0.9744127929,
				"element": "C" 
			},
			{
				"x": -0.8949439104,
				"y": 1.2755217996,
				"z": 2.2546127742,
				"element": "C" 
			},
			{
				"x": -1.5376636306,
				"y": 0.1061217794,
				"z": 2.7039388585,
				"element": "C" 
			},
			{
				"x": -1.6168224973,
				"y": -0.9845778971,
				"z": 1.8288893823,
				"element": "C" 
			},
			{
				"x": -1.0844297751,
				"y": -0.9151773198,
				"z": 0.5406654051,
				"element": "C" 
			},
			{
				"x": -2.0046700341,
				"y": 0.122341944,
				"z": 4.1231815671,
				"element": "C" 
			},
			{
				"x": -1.5812850037,
				"y": 0.9508863441,
				"z": 4.9266008935,
				"element": "O" 
			},
			{
				"x": -2.9003603402,
				"y": -0.8262269752,
				"z": 4.5964482378,
				"element": "N" 
			},
			{
				"x": -3.7992622881,
				"y": -1.5358908373,
				"z": 3.7818881891,
				"element": "N" 
			},
			{
				"x": 2.3383557802,
				"y": 0.9449190831,
				"z": -2.4099207597,
				"element": "H" 
			},
			{
				"x": 2.6601324387,
				"y": 0.4937896872,
				"z": -4.0927471398,
				"element": "H" 
			},
			{
				"x": 2.7649843662,
				"y": -0.7241225645,
				"z": -2.8134473523,
				"element": "H" 
			},
			{
				"x": 0.6031016376,
				"y": -0.9631575758,
				"z": -4.096080095,
				"element": "H" 
			},
			{
				"x": 0.1904303514,
				"y": 0.7080168077,
				"z": -3.7295221605,
				"element": "H" 
			},
			{
				"x": -1.0091564276,
				"y": -0.9140003057,
				"z": -2.2714617964,
				"element": "H" 
			},
			{
				"x": 0.5466803778,
				"y": -1.5135624173,
				"z": -1.6512810744,
				"element": "H" 
			},
			{
				"x": 0.1126366246,
				"y": 2.2647488942,
				"z": 0.6213036676,
				"element": "H" 
			},
			{
				"x": -0.8101046936,
				"y": 2.1090000617,
				"z": 2.9431728111,
				"element": "H" 
			},
			{
				"x": -2.1041249149,
				"y": -1.895654613,
				"z": 2.1478867174,
				"element": "H" 
			},
			{
				"x": -1.1573011698,
				"y": -1.7795281609,
				"z": -0.1083950103,
				"element": "H" 
			},
			{
				"x": -3.1692861136,
				"y": -0.6143600459,
				"z": 5.554195365,
				"element": "H" 
			},
			{
				"x": -3.8688594815,
				"y": -2.4915390748,
				"z": 4.1199257418,
				"element": "H" 
			},
			{
				"x": -4.725642712,
				"y": -1.1131797532,
				"z": 3.8132035654,
				"element": "H" 
			}
		],
		 "valence_orbital": [ 
			{
				"type": "occ",
				"energy": -0.27812,
				"method": "rhf"
			},
			{
				"type": "occ",
				"energy": -0.25526,
				"method": "rhf"
			},
			{
				"type": "occ",
				"energy": -0.24712,
				"method": "rhf"
			},
			{
				"type": "occ",
				"energy": -0.23948,
				"method": "rhf"
			},
			{
				"type": "occ",
				"energy": -0.21655,
				"method": "rhf"
			},
			{
				"type": "unocc",
				"energy": -0.02017,
				"method": "rhf"
			},
			{
				"type": "unocc",
				"energy": 0.00542,
				"method": "rhf"
			},
			{
				"type": "unocc",
				"energy": 0.06196,
				"method": "rhf"
			},
			{
				"type": "unocc",
				"energy": 0.07733,
				"method": "rhf"
			},
			{
				"type": "unocc",
				"energy": 0.09225,
				"method": "rhf"
			}
		],
		"cosmo_sigma_profile": { 
			"-0.025": 0.0,
			"-0.024": 0.0,
			"-0.023": 0.0,
			"-0.022": 0.0,
			"-0.021": 0.0,
			"-0.02": 0.0,
			"-0.019": 0.0,
			"-0.018": 0.0,
			"-0.017": 0.0,
			"-0.016": 0.0,
			"-0.015": 0.0,
			"-0.014": 0.0,
			"-0.013": 0.423397672212,
			"-0.012": 3.06885805769,
			"-0.011": 5.26720782812,
			"-0.01": 4.99145859719,
			"-0.009": 5.34456425898,
			"-0.008": 3.0238877267,
			"-0.007": 2.75899686275,
			"-0.006": 5.82965639459,
			"-0.005": 11.5073487009,
			"-0.004": 17.4522714823,
			"-0.003": 22.3522719867,
			"-0.002": 19.5696639862,
			"-0.001": 19.1024752038,
			"0.0": 19.3881195391,
			"0.001": 18.9136770793,
			"0.002": 14.4673873531,
			"0.003": 13.0451832165,
			"0.004": 16.6357804061,
			"0.005": 13.3806740833,
			"0.006": 6.39402146949,
			"0.007": 4.0620452449,
			"0.008": 3.38512960946,
			"0.009": 2.90651303214,
			"0.01": 2.61075598296,
			"0.011": 1.48258034582,
			"0.012": 1.97098189599,
			"0.013": 3.2533293501,
			"0.014": 5.22213664549,
			"0.015": 0.656995312142,
			"0.016": 0.0,
			"0.017": 0.0,
			"0.018": 0.0,
			"0.019": 0.0,
			"0.02": 0.0,
			"0.021": 0.0,
			"0.022": 0.0,
			"0.023": 0.0,
			"0.024": 0.0,
			"0.025": 0.0
		}
	}
}
