{
	 "smiles": "C1=CC=C(C=C1)C1=CC(=CC(=C1)C1=CC=CC=C1)C1=CC=CC=C1", 
	 "Tm": 447.15, 
	 "num_atms": 42, 
	 "gaussian": { 
		 "optdone": 1, 
		 "sigma_profile": "yes", 
		 "theory": "DFT", 
		 "functional": "B3LYP", 
		 "basiset": "6-31G**", 
		 "properties": { 
			 "R2extent": 11548.8046, 
			 "electric_dipole_moment_norm": 0.0001, 
			 "electric_quadrupole_moment_norm": 9.91678188476, 
			 "total_energy": -925.428992849, 
			 "HOMO_LUMO_gap": 0.1889, 
			 "cosmo_polarized_energy": -8.6, 
			 "cosmo_cavitation_energy": 45.91, 
			 "cosmo_dispersion_energy": -32.59, 
			 "cosmo_repulsion_energy": 2.45, 
			 "cosmo_total_nonelectrostatic_energy": 15.77, 
			 "SMD_solvation_energy": 6.97 
		},
		"coords": [
			{
				"x": -2.3278139089,
				"y": -2.5754474586,
				"z": -4.5116592842,
				"element": "C" 
			},
			{
				"x": -1.270087298,
				"y": -2.8960269069,
				"z": -3.6586057011,
				"element": "C" 
			},
			{
				"x": -1.0686437688,
				"y": -2.1697684517,
				"z": -2.4855349534,
				"element": "C" 
			},
			{
				"x": -1.9195077288,
				"y": -1.1061676904,
				"z": -2.139788038,
				"element": "C" 
			},
			{
				"x": -2.9794016256,
				"y": -0.7947787713,
				"z": -3.0083474208,
				"element": "C" 
			},
			{
				"x": -3.1817569253,
				"y": -1.5215637831,
				"z": -4.1809346231,
				"element": "C" 
			},
			{
				"x": -1.7042731226,
				"y": -0.3314606193,
				"z": -0.8891296225,
				"element": "C" 
			},
			{
				"x": -2.7924707033,
				"y": 0.0912640441,
				"z": -0.1123014289,
				"element": "C" 
			},
			{
				"x": -2.6069024466,
				"y": 0.8225783418,
				"z": 1.0696785763,
				"element": "C" 
			},
			{
				"x": -1.2984991383,
				"y": 1.1297739217,
				"z": 1.4697191792,
				"element": "C" 
			},
			{
				"x": -0.1885901952,
				"y": 0.7221494781,
				"z": 0.7158760302,
				"element": "C" 
			},
			{
				"x": -0.4087895908,
				"y": -0.0077692242,
				"z": -0.4610098308,
				"element": "C" 
			},
			{
				"x": 1.1919369021,
				"y": 1.0566899618,
				"z": 1.155051468,
				"element": "C" 
			},
			{
				"x": 2.1761004344,
				"y": 1.4272618998,
				"z": 0.2229427422,
				"element": "C" 
			},
			{
				"x": 3.4708787344,
				"y": 1.7405758868,
				"z": 0.6346772036,
				"element": "C" 
			},
			{
				"x": 3.8100415633,
				"y": 1.6913443884,
				"z": 1.9881187767,
				"element": "C" 
			},
			{
				"x": 2.8425285827,
				"y": 1.325348517,
				"z": 2.9257913797,
				"element": "C" 
			},
			{
				"x": 1.5481290638,
				"y": 1.011029504,
				"z": 2.5136433999,
				"element": "C" 
			},
			{
				"x": -3.7723252425,
				"y": 1.2626989191,
				"z": 1.8813049294,
				"element": "C" 
			},
			{
				"x": -4.8864156509,
				"y": 0.4246996329,
				"z": 2.0582106547,
				"element": "C" 
			},
			{
				"x": -5.9796183702,
				"y": 0.837449352,
				"z": 2.8189187807,
				"element": "C" 
			},
			{
				"x": -5.982527111,
				"y": 2.0972619818,
				"z": 3.4206902655,
				"element": "C" 
			},
			{
				"x": -4.8823505077,
				"y": 2.9405556634,
				"z": 3.2541625971,
				"element": "C" 
			},
			{
				"x": -3.7897601173,
				"y": 2.5279572592,
				"z": 2.4924932031,
				"element": "C" 
			},
			{
				"x": -2.4851052279,
				"y": -3.1414071062,
				"z": -5.4252815948,
				"element": "H" 
			},
			{
				"x": -0.604592207,
				"y": -3.7196322211,
				"z": -3.901833853,
				"element": "H" 
			},
			{
				"x": -0.2588422001,
				"y": -2.4441478593,
				"z": -1.8158419245,
				"element": "H" 
			},
			{
				"x": -3.6334985446,
				"y": 0.0398301915,
				"z": -2.7735594046,
				"element": "H" 
			},
			{
				"x": -4.0028802133,
				"y": -1.2579589858,
				"z": -4.8417200191,
				"element": "H" 
			},
			{
				"x": -3.8002676789,
				"y": -0.1529224749,
				"z": -0.4328558252,
				"element": "H" 
			},
			{
				"x": -1.1414272362,
				"y": 1.6953224401,
				"z": 2.3826964914,
				"element": "H" 
			},
			{
				"x": 0.4419615495,
				"y": -0.3291667788,
				"z": -1.0534310996,
				"element": "H" 
			},
			{
				"x": 1.9156488637,
				"y": 1.4941609544,
				"z": -0.8293102207,
				"element": "H" 
			},
			{
				"x": 4.2135321492,
				"y": 2.0323746305,
				"z": -0.1026760965,
				"element": "H" 
			},
			{
				"x": 4.8185155209,
				"y": 1.9358264367,
				"z": 2.3090011344,
				"element": "H" 
			},
			{
				"x": 3.097731415,
				"y": 1.2754602073,
				"z": 3.9806617144,
				"element": "H" 
			},
			{
				"x": 0.8101785781,
				"y": 0.7021742402,
				"z": 3.2482097488,
				"element": "H" 
			},
			{
				"x": -4.8828861474,
				"y": -0.5673389974,
				"z": 1.616188823,
				"element": "H" 
			},
			{
				"x": -6.8267542363,
				"y": 0.1697507213,
				"z": 2.9489491001,
				"element": "H" 
			},
			{
				"x": -6.8338803327,
				"y": 2.4187255953,
				"z": 4.0136627845,
				"element": "H" 
			},
			{
				"x": -4.8776123339,
				"y": 3.9263392569,
				"z": 3.710864516,
				"element": "H" 
			},
			{
				"x": -2.950403547,
				"y": 3.2017539026,
				"z": 2.3475074418,
				"element": "H" 
			}
		],
		 "valence_orbital": [ 
			{
				"type": "occ",
				"energy": -0.24971,
				"method": "rhf"
			},
			{
				"type": "occ",
				"energy": -0.24961,
				"method": "rhf"
			},
			{
				"type": "occ",
				"energy": -0.24131,
				"method": "rhf"
			},
			{
				"type": "occ",
				"energy": -0.22056,
				"method": "rhf"
			},
			{
				"type": "occ",
				"energy": -0.22056,
				"method": "rhf"
			},
			{
				"type": "unocc",
				"energy": -0.03166,
				"method": "rhf"
			},
			{
				"type": "unocc",
				"energy": -0.03166,
				"method": "rhf"
			},
			{
				"type": "unocc",
				"energy": -0.00285,
				"method": "rhf"
			},
			{
				"type": "unocc",
				"energy": -0.00154,
				"method": "rhf"
			},
			{
				"type": "unocc",
				"energy": -0.00103,
				"method": "rhf"
			}
		],
		"cosmo_sigma_profile": { 
			"-0.025": 0.0,
			"-0.024": 0.0,
			"-0.023": 0.0,
			"-0.022": 0.0,
			"-0.021": 0.0,
			"-0.02": 0.0,
			"-0.019": 0.0,
			"-0.018": 0.0,
			"-0.017": 0.0,
			"-0.016": 0.0,
			"-0.015": 0.0,
			"-0.014": 0.0,
			"-0.013": 0.0,
			"-0.012": 0.0,
			"-0.011": 0.0,
			"-0.01": 0.0,
			"-0.009": 0.0,
			"-0.008": 0.0,
			"-0.007": 0.0,
			"-0.006": 13.0551729159,
			"-0.005": 39.6701037672,
			"-0.004": 38.581557973,
			"-0.003": 35.2517747134,
			"-0.002": 23.3096766013,
			"-0.001": 25.5054471881,
			"0.0": 18.6990018955,
			"0.001": 25.30204934,
			"0.002": 27.1793214148,
			"0.003": 35.5683890969,
			"0.004": 34.9040923914,
			"0.005": 33.1234188448,
			"0.006": 18.8466391124,
			"0.007": 0.0050952864576,
			"0.008": 0.0,
			"0.009": 0.0,
			"0.01": 0.0,
			"0.011": 0.0,
			"0.012": 0.0,
			"0.013": 0.0,
			"0.014": 0.0,
			"0.015": 0.0,
			"0.016": 0.0,
			"0.017": 0.0,
			"0.018": 0.0,
			"0.019": 0.0,
			"0.02": 0.0,
			"0.021": 0.0,
			"0.022": 0.0,
			"0.023": 0.0,
			"0.024": 0.0,
			"0.025": 0.0
		}
	}
}
