{
	 "smiles": "CCSC(=O)N(CC(C)C)CC(C)C", 
	 "Tm": 411.15, 
	 "num_atms": 37, 
	 "gaussian": { 
		 "optdone": 1, 
		 "sigma_profile": "yes", 
		 "theory": "DFT", 
		 "functional": "B3LYP", 
		 "basiset": "6-31G**", 
		 "properties": { 
			 "R2extent": 4247.1317, 
			 "electric_dipole_moment_norm": 1.82502377245, 
			 "electric_quadrupole_moment_norm": 6.04308078549, 
			 "total_energy": -961.241228387, 
			 "HOMO_LUMO_gap": 0.26048, 
			 "cosmo_polarized_energy": -7.11, 
			 "cosmo_cavitation_energy": 37.74, 
			 "cosmo_dispersion_energy": -26.08, 
			 "cosmo_repulsion_energy": 2.05, 
			 "cosmo_total_nonelectrostatic_energy": 13.71, 
			 "SMD_solvation_energy": 6.94 
		},
		"coords": [
			{
				"x": -1.2514238976,
				"y": 3.8854079262,
				"z": -1.1774000851,
				"element": "C" 
			},
			{
				"x": -2.0063669911,
				"y": 2.7268440731,
				"z": -0.5317096728,
				"element": "C" 
			},
			{
				"x": -1.3099825246,
				"y": 1.0723613494,
				"z": -0.9198842432,
				"element": "S" 
			},
			{
				"x": 0.0493459672,
				"y": 1.0715504346,
				"z": 0.3051331641,
				"element": "C" 
			},
			{
				"x": 0.1768319437,
				"y": 1.998255146,
				"z": 1.0930335737,
				"element": "O" 
			},
			{
				"x": 0.8756212657,
				"y": -0.0211596172,
				"z": 0.2955372959,
				"element": "N" 
			},
			{
				"x": 2.0342368261,
				"y": 0.047064581,
				"z": 1.2116991306,
				"element": "C" 
			},
			{
				"x": 1.7258243453,
				"y": -0.1035081673,
				"z": 2.7145449094,
				"element": "C" 
			},
			{
				"x": 3.0111269648,
				"y": 0.1683753458,
				"z": 3.511482238,
				"element": "C" 
			},
			{
				"x": 1.1372601946,
				"y": -1.4721809193,
				"z": 3.0747059609,
				"element": "C" 
			},
			{
				"x": 0.9373324555,
				"y": -0.9874822362,
				"z": -0.8095840839,
				"element": "C" 
			},
			{
				"x": 0.5315682475,
				"y": -2.4303468114,
				"z": -0.4520737035,
				"element": "C" 
			},
			{
				"x": 0.8918053759,
				"y": -3.3639210866,
				"z": -1.6175946066,
				"element": "C" 
			},
			{
				"x": -0.9552985408,
				"y": -2.5420243417,
				"z": -0.0926411043,
				"element": "C" 
			},
			{
				"x": -1.2240217421,
				"y": 3.7885321804,
				"z": -2.2667275602,
				"element": "H" 
			},
			{
				"x": -0.2264824895,
				"y": 3.9249786662,
				"z": -0.8019875026,
				"element": "H" 
			},
			{
				"x": -1.741441895,
				"y": 4.8345451413,
				"z": -0.9301234826,
				"element": "H" 
			},
			{
				"x": -3.0410303441,
				"y": 2.6713335107,
				"z": -0.8829653326,
				"element": "H" 
			},
			{
				"x": -2.0091112443,
				"y": 2.8163408557,
				"z": 0.5559801892,
				"element": "H" 
			},
			{
				"x": 2.726036492,
				"y": -0.7442898277,
				"z": 0.9035427626,
				"element": "H" 
			},
			{
				"x": 2.5366546845,
				"y": 1.0091930912,
				"z": 1.0552381915,
				"element": "H" 
			},
			{
				"x": 0.9962832531,
				"y": 0.6716499085,
				"z": 2.9691475865,
				"element": "H" 
			},
			{
				"x": 2.8221540298,
				"y": 0.1048434805,
				"z": 4.5878804158,
				"element": "H" 
			},
			{
				"x": 3.7919042063,
				"y": -0.5646135434,
				"z": 3.2706761515,
				"element": "H" 
			},
			{
				"x": 3.4112421856,
				"y": 1.1661130277,
				"z": 3.301545224,
				"element": "H" 
			},
			{
				"x": 0.9138677668,
				"y": -1.5257995491,
				"z": 4.1456422185,
				"element": "H" 
			},
			{
				"x": 1.8426321346,
				"y": -2.2817462379,
				"z": 2.8460429917,
				"element": "H" 
			},
			{
				"x": 0.2082631432,
				"y": -1.6687035789,
				"z": 2.5331275833,
				"element": "H" 
			},
			{
				"x": 1.9670611071,
				"y": -0.9865027581,
				"z": -1.1919331448,
				"element": "H" 
			},
			{
				"x": 0.3090045318,
				"y": -0.6263882221,
				"z": -1.6287774923,
				"element": "H" 
			},
			{
				"x": 1.1226584378,
				"y": -2.7367553658,
				"z": 0.4214271039,
				"element": "H" 
			},
			{
				"x": 1.9629254451,
				"y": -3.3319089312,
				"z": -1.8466563427,
				"element": "H" 
			},
			{
				"x": 0.3467434343,
				"y": -3.0860652965,
				"z": -2.5279497069,
				"element": "H" 
			},
			{
				"x": 0.6314008387,
				"y": -4.4006184921,
				"z": -1.3818683514,
				"element": "H" 
			},
			{
				"x": -1.585043569,
				"y": -2.3175023746,
				"z": -0.961265404,
				"element": "H" 
			},
			{
				"x": -1.1989668548,
				"y": -3.5549258605,
				"z": 0.2451329551,
				"element": "H" 
			},
			{
				"x": -1.2329151841,
				"y": -1.8440455008,
				"z": 0.7021221735,
				"element": "H" 
			}
		],
		 "valence_orbital": [ 
			{
				"type": "occ",
				"energy": -0.32103,
				"method": "rhf"
			},
			{
				"type": "occ",
				"energy": -0.3155,
				"method": "rhf"
			},
			{
				"type": "occ",
				"energy": -0.25243,
				"method": "rhf"
			},
			{
				"type": "occ",
				"energy": -0.24747,
				"method": "rhf"
			},
			{
				"type": "occ",
				"energy": -0.23263,
				"method": "rhf"
			},
			{
				"type": "unocc",
				"energy": 0.02785,
				"method": "rhf"
			},
			{
				"type": "unocc",
				"energy": 0.0359,
				"method": "rhf"
			},
			{
				"type": "unocc",
				"energy": 0.07456,
				"method": "rhf"
			},
			{
				"type": "unocc",
				"energy": 0.0788,
				"method": "rhf"
			},
			{
				"type": "unocc",
				"energy": 0.09946,
				"method": "rhf"
			}
		],
		"cosmo_sigma_profile": { 
			"-0.025": 0.0,
			"-0.024": 0.0,
			"-0.023": 0.0,
			"-0.022": 0.0,
			"-0.021": 0.0,
			"-0.02": 0.0,
			"-0.019": 0.0,
			"-0.018": 0.0,
			"-0.017": 0.0,
			"-0.016": 0.0,
			"-0.015": 0.0,
			"-0.014": 0.0,
			"-0.013": 0.0,
			"-0.012": 0.0,
			"-0.011": 0.0,
			"-0.01": 0.0,
			"-0.009": 0.0,
			"-0.008": 0.0,
			"-0.007": 0.0,
			"-0.006": 1.61305048172,
			"-0.005": 7.07565575269,
			"-0.004": 13.9261880183,
			"-0.003": 34.7422520484,
			"-0.002": 47.5695850149,
			"-0.001": 43.1383849439,
			"0.0": 41.6783205126,
			"0.001": 43.8181695469,
			"0.002": 19.0611739606,
			"0.003": 6.47979787647,
			"0.004": 7.29989089294,
			"0.005": 5.89740057787,
			"0.006": 4.53345133451,
			"0.007": 3.93219890638,
			"0.008": 3.12531001628,
			"0.009": 2.02074051423,
			"0.01": 1.58349746685,
			"0.011": 1.44410692578,
			"0.012": 2.42714499781,
			"0.013": 1.88508592799,
			"0.014": 0.0,
			"0.015": 0.0,
			"0.016": 0.0,
			"0.017": 0.0,
			"0.018": 0.0,
			"0.019": 0.0,
			"0.02": 0.0,
			"0.021": 0.0,
			"0.022": 0.0,
			"0.023": 0.0,
			"0.024": 0.0,
			"0.025": 0.0
		}
	}
}
