{
	 "smiles": "OC1=CC=C(OC2CCCCC2)C=C1", 
	 "Tm": 337.15, 
	 "num_atms": 30, 
	 "gaussian": { 
		 "optdone": 1, 
		 "sigma_profile": "yes", 
		 "theory": "DFT", 
		 "functional": "B3LYP", 
		 "basiset": "6-31G**", 
		 "properties": { 
			 "R2extent": 3872.205, 
			 "electric_dipole_moment_norm": 2.34444792009, 
			 "electric_quadrupole_moment_norm": 11.371871791, 
			 "total_energy": -617.363286433, 
			 "HOMO_LUMO_gap": 0.19432, 
			 "cosmo_polarized_energy": -9.58, 
			 "cosmo_cavitation_energy": 30.93, 
			 "cosmo_dispersion_energy": -22.74, 
			 "cosmo_repulsion_energy": 1.8, 
			 "cosmo_total_nonelectrostatic_energy": 9.99, 
			 "SMD_solvation_energy": 4.84 
		},
		"coords": [
			{
				"x": -3.8899435246,
				"y": 2.0264078587,
				"z": 3.5329418414,
				"element": "O" 
			},
			{
				"x": -2.9978266647,
				"y": 1.4397405147,
				"z": 2.6717666855,
				"element": "C" 
			},
			{
				"x": -1.7667954815,
				"y": 1.0260611576,
				"z": 3.197147368,
				"element": "C" 
			},
			{
				"x": -0.8230158466,
				"y": 0.4295126542,
				"z": 2.3726951486,
				"element": "C" 
			},
			{
				"x": -1.0818881771,
				"y": 0.2272084651,
				"z": 1.0072050335,
				"element": "C" 
			},
			{
				"x": -0.0849864494,
				"y": -0.4005506547,
				"z": 0.3064882995,
				"element": "O" 
			},
			{
				"x": -0.1868143631,
				"y": -0.5537581206,
				"z": -1.1228223645,
				"element": "C" 
			},
			{
				"x": 0.1122053411,
				"y": 0.7687818665,
				"z": -1.8390714596,
				"element": "C" 
			},
			{
				"x": 1.5059509834,
				"y": 1.3270125842,
				"z": -1.4650738865,
				"element": "C" 
			},
			{
				"x": 2.5356665384,
				"y": 0.211425745,
				"z": -1.1659972914,
				"element": "C" 
			},
			{
				"x": 2.2049720095,
				"y": -1.0670533674,
				"z": -1.9468082718,
				"element": "C" 
			},
			{
				"x": 0.8353254677,
				"y": -1.6401541593,
				"z": -1.5203923393,
				"element": "C" 
			},
			{
				"x": -2.3102770176,
				"y": 0.6418341822,
				"z": 0.4833053204,
				"element": "C" 
			},
			{
				"x": -3.2603273901,
				"y": 1.2443779748,
				"z": 1.3169782023,
				"element": "C" 
			},
			{
				"x": -4.6906132935,
				"y": 2.2564152966,
				"z": 3.0448250821,
				"element": "H" 
			},
			{
				"x": -1.5674298677,
				"y": 1.180528455,
				"z": 4.2525492568,
				"element": "H" 
			},
			{
				"x": 0.1327492441,
				"y": 0.1023131937,
				"z": 2.7691902136,
				"element": "H" 
			},
			{
				"x": -1.1975999986,
				"y": -0.9067923758,
				"z": -1.3647884785,
				"element": "H" 
			},
			{
				"x": 0.0592491561,
				"y": 0.5691135415,
				"z": -2.9172184733,
				"element": "H" 
			},
			{
				"x": -0.661748858,
				"y": 1.5120834691,
				"z": -1.6250988981,
				"element": "H" 
			},
			{
				"x": 1.8605864608,
				"y": 1.9551751257,
				"z": -2.2908008658,
				"element": "H" 
			},
			{
				"x": 1.417368674,
				"y": 1.9837439008,
				"z": -0.5939750246,
				"element": "H" 
			},
			{
				"x": 3.5477178531,
				"y": 0.5579093638,
				"z": -1.4033673531,
				"element": "H" 
			},
			{
				"x": 2.5214711641,
				"y": -0.0194165821,
				"z": -0.0951659557,
				"element": "H" 
			},
			{
				"x": 2.1966776543,
				"y": -0.8405326337,
				"z": -3.0216207474,
				"element": "H" 
			},
			{
				"x": 2.9830150236,
				"y": -1.8246440969,
				"z": -1.8020043402,
				"element": "H" 
			},
			{
				"x": 0.9481720913,
				"y": -2.3055960507,
				"z": -0.6584536916,
				"element": "H" 
			},
			{
				"x": 0.4149595473,
				"y": -2.2434090735,
				"z": -2.3331492789,
				"element": "H" 
			},
			{
				"x": -2.5488614266,
				"y": 0.5075331915,
				"z": -0.5646323412,
				"element": "H" 
			},
			{
				"x": -4.2113588495,
				"y": 1.5635285742,
				"z": 0.8948486097,
				"element": "H" 
			}
		],
		 "valence_orbital": [ 
			{
				"type": "occ",
				"energy": -0.30829,
				"method": "rhf"
			},
			{
				"type": "occ",
				"energy": -0.29526,
				"method": "rhf"
			},
			{
				"type": "occ",
				"energy": -0.28093,
				"method": "rhf"
			},
			{
				"type": "occ",
				"energy": -0.24736,
				"method": "rhf"
			},
			{
				"type": "occ",
				"energy": -0.19377,
				"method": "rhf"
			},
			{
				"type": "unocc",
				"energy": 0.00055,
				"method": "rhf"
			},
			{
				"type": "unocc",
				"energy": 0.03111,
				"method": "rhf"
			},
			{
				"type": "unocc",
				"energy": 0.07483,
				"method": "rhf"
			},
			{
				"type": "unocc",
				"energy": 0.07893,
				"method": "rhf"
			},
			{
				"type": "unocc",
				"energy": 0.09508,
				"method": "rhf"
			}
		],
		"cosmo_sigma_profile": { 
			"-0.025": 0.0,
			"-0.024": 0.0,
			"-0.023": 0.0,
			"-0.022": 0.0,
			"-0.021": 0.0,
			"-0.02": 0.0,
			"-0.019": 0.0,
			"-0.018": 0.0357556738142,
			"-0.017": 1.08042994161,
			"-0.016": 0.741951735073,
			"-0.015": 0.962854480374,
			"-0.014": 1.11179503159,
			"-0.013": 1.30525241344,
			"-0.012": 1.14369777009,
			"-0.011": 0.744935754485,
			"-0.01": 0.672312279996,
			"-0.009": 1.28352689291,
			"-0.008": 1.27816107292,
			"-0.007": 1.61557065584,
			"-0.006": 5.67738536734,
			"-0.005": 8.3663145448,
			"-0.004": 10.6424963067,
			"-0.003": 19.6417296997,
			"-0.002": 26.6459484309,
			"-0.001": 29.0144942677,
			"0.0": 29.7463609732,
			"0.001": 26.950231678,
			"0.002": 11.0644913275,
			"0.003": 8.54920208684,
			"0.004": 12.4443028578,
			"0.005": 14.7961760903,
			"0.006": 12.1391707925,
			"0.007": 2.75772439626,
			"0.008": 3.17817525622,
			"0.009": 2.7696350067,
			"0.01": 1.38177104745,
			"0.011": 2.08135462328,
			"0.012": 1.72676762669,
			"0.013": 0.0520758548336,
			"0.014": 0.0,
			"0.015": 0.0,
			"0.016": 0.0,
			"0.017": 0.0,
			"0.018": 0.0,
			"0.019": 0.0,
			"0.02": 0.0,
			"0.021": 0.0,
			"0.022": 0.0,
			"0.023": 0.0,
			"0.024": 0.0,
			"0.025": 0.0
		}
	}
}
