{
	 "smiles": "CC1=NC2=NC(=NN2C(C)=C1CCC(O)=O)C(F)(F)F", 
	 "Tm": 397.15, 
	 "num_atms": 31, 
	 "gaussian": { 
		 "optdone": 1, 
		 "sigma_profile": "yes", 
		 "theory": "DFT", 
		 "functional": "B3LYP", 
		 "basiset": "6-31G**", 
		 "properties": { 
			 "R2extent": 7927.9189, 
			 "electric_dipole_moment_norm": 8.01977719765, 
			 "electric_quadrupole_moment_norm": 15.7411365397, 
			 "total_energy": -1094.78993635, 
			 "HOMO_LUMO_gap": 0.19255, 
			 "cosmo_polarized_energy": -21.04, 
			 "cosmo_cavitation_energy": 36.7, 
			 "cosmo_dispersion_energy": -25.33, 
			 "cosmo_repulsion_energy": 1.88, 
			 "cosmo_total_nonelectrostatic_energy": 13.25, 
			 "SMD_solvation_energy": 4.32 
		},
		"coords": [
			{
				"x": 1.272712824,
				"y": -2.0332908752,
				"z": -0.0235788572,
				"element": "C" 
			},
			{
				"x": 0.0342891452,
				"y": -1.1704858381,
				"z": -0.0425505164,
				"element": "C" 
			},
			{
				"x": -0.8332538264,
				"y": -1.449495027,
				"z": -1.0038446238,
				"element": "N" 
			},
			{
				"x": -1.9638780164,
				"y": -0.7330394513,
				"z": -1.0425593379,
				"element": "C" 
			},
			{
				"x": -2.9915954111,
				"y": -0.8043176188,
				"z": -1.8908422239,
				"element": "N" 
			},
			{
				"x": -3.8251957884,
				"y": 0.1411712319,
				"z": -1.4174151671,
				"element": "C" 
			},
			{
				"x": -3.4375064694,
				"y": 0.8244889206,
				"z": -0.3375314657,
				"element": "N" 
			},
			{
				"x": -2.2297170402,
				"y": 0.2566772234,
				"z": -0.0971336134,
				"element": "N" 
			},
			{
				"x": -1.3640142725,
				"y": 0.5730650934,
				"z": 0.9133626994,
				"element": "C" 
			},
			{
				"x": -1.8188133693,
				"y": 1.6459668975,
				"z": 1.853377128,
				"element": "C" 
			},
			{
				"x": -0.177901696,
				"y": -0.1408331798,
				"z": 0.9476019329,
				"element": "C" 
			},
			{
				"x": 0.8666237698,
				"y": 0.1560940618,
				"z": 2.0103008597,
				"element": "C" 
			},
			{
				"x": 1.6061261949,
				"y": 1.5070885519,
				"z": 1.8373148167,
				"element": "C" 
			},
			{
				"x": 2.3509866375,
				"y": 1.6524787567,
				"z": 0.5270650444,
				"element": "C" 
			},
			{
				"x": 3.3382782245,
				"y": 0.7261764289,
				"z": 0.3979841198,
				"element": "O" 
			},
			{
				"x": 2.12996315,
				"y": 2.4869336446,
				"z": -0.3194276244,
				"element": "O" 
			},
			{
				"x": -5.149619072,
				"y": 0.4243781338,
				"z": -2.076324678,
				"element": "C" 
			},
			{
				"x": -4.9762677206,
				"y": 0.8048274996,
				"z": -3.3559766354,
				"element": "F" 
			},
			{
				"x": -5.9262292034,
				"y": -0.6758843493,
				"z": -2.0805021797,
				"element": "F" 
			},
			{
				"x": -5.8133196276,
				"y": 1.4013832194,
				"z": -1.435760091,
				"element": "F" 
			},
			{
				"x": 1.2453708021,
				"y": -2.6972580015,
				"z": -0.8876342819,
				"element": "H" 
			},
			{
				"x": 2.1881939803,
				"y": -1.4358865286,
				"z": -0.0507685058,
				"element": "H" 
			},
			{
				"x": 1.3108766818,
				"y": -2.6473924612,
				"z": 0.8843488066,
				"element": "H" 
			},
			{
				"x": -2.8639246995,
				"y": 1.4791260293,
				"z": 2.1270396918,
				"element": "H" 
			},
			{
				"x": -1.7770959512,
				"y": 2.6249974607,
				"z": 1.3626492057,
				"element": "H" 
			},
			{
				"x": -1.2082269311,
				"y": 1.6780255866,
				"z": 2.7549256512,
				"element": "H" 
			},
			{
				"x": 1.6055978488,
				"y": -0.6452601618,
				"z": 2.0351237323,
				"element": "H" 
			},
			{
				"x": 0.3976507772,
				"y": 0.1633942087,
				"z": 3.0007766404,
				"element": "H" 
			},
			{
				"x": 0.9126376365,
				"y": 2.347305372,
				"z": 1.8935972359,
				"element": "H" 
			},
			{
				"x": 2.3320842432,
				"y": 1.6094668394,
				"z": 2.6524298094,
				"element": "H" 
			},
			{
				"x": 3.7597671794,
				"y": 0.8983983323,
				"z": -0.4614475724,
				"element": "H" 
			}
		],
		 "valence_orbital": [ 
			{
				"type": "occ",
				"energy": -0.29306,
				"method": "rhf"
			},
			{
				"type": "occ",
				"energy": -0.29289,
				"method": "rhf"
			},
			{
				"type": "occ",
				"energy": -0.2816,
				"method": "rhf"
			},
			{
				"type": "occ",
				"energy": -0.27337,
				"method": "rhf"
			},
			{
				"type": "occ",
				"energy": -0.25857,
				"method": "rhf"
			},
			{
				"type": "unocc",
				"energy": -0.06602,
				"method": "rhf"
			},
			{
				"type": "unocc",
				"energy": -0.03244,
				"method": "rhf"
			},
			{
				"type": "unocc",
				"energy": -0.0133,
				"method": "rhf"
			},
			{
				"type": "unocc",
				"energy": 0.02288,
				"method": "rhf"
			},
			{
				"type": "unocc",
				"energy": 0.05156,
				"method": "rhf"
			}
		],
		"cosmo_sigma_profile": { 
			"-0.025": 0.0,
			"-0.024": 0.0,
			"-0.023": 0.0,
			"-0.022": 0.0,
			"-0.021": 0.0,
			"-0.02": 0.0,
			"-0.019": 0.024133047747,
			"-0.018": 0.749675124756,
			"-0.017": 0.957733148325,
			"-0.016": 0.626947414226,
			"-0.015": 1.18139784288,
			"-0.014": 0.322906999501,
			"-0.013": 0.738542832414,
			"-0.012": 0.688258146427,
			"-0.011": 1.11479690904,
			"-0.01": 0.753055871503,
			"-0.009": 0.622925623634,
			"-0.008": 2.57030808108,
			"-0.007": 8.03024850925,
			"-0.006": 19.4165743354,
			"-0.005": 23.6841190437,
			"-0.004": 23.5847168528,
			"-0.003": 25.7704478664,
			"-0.002": 22.9894762122,
			"-0.001": 18.4382705797,
			"0.0": 12.2696347825,
			"0.001": 13.6567294613,
			"0.002": 32.2668083646,
			"0.003": 20.7366406425,
			"0.004": 7.55549137825,
			"0.005": 7.1571594163,
			"0.006": 5.14699535917,
			"0.007": 6.35499635877,
			"0.008": 5.60097142208,
			"0.009": 5.55077467632,
			"0.01": 5.26549270703,
			"0.011": 8.29821549246,
			"0.012": 5.71875037533,
			"0.013": 2.36461515607,
			"0.014": 1.93931350424,
			"0.015": 0.356298089006,
			"0.016": 0.0,
			"0.017": 0.0,
			"0.018": 0.0,
			"0.019": 0.0,
			"0.02": 0.0,
			"0.021": 0.0,
			"0.022": 0.0,
			"0.023": 0.0,
			"0.024": 0.0,
			"0.025": 0.0
		}
	}
}
