{
	 "smiles": "FC(F)(F)C(F)(F)C(F)(F)C(F)(F)C(F)(F)C(F)(F)C(F)(F)C(F)(F)C(F)(F)F", 
	 "Tm": 257.15, 
	 "num_atms": 29, 
	 "gaussian": { 
		 "optdone": 1, 
		 "sigma_profile": "yes", 
		 "theory": "DFT", 
		 "functional": "B3LYP", 
		 "basiset": "6-31G**", 
		 "properties": { 
			 "R2extent": 9976.7351, 
			 "electric_dipole_moment_norm": 0.189139842445, 
			 "electric_quadrupole_moment_norm": 0.879845827404, 
			 "total_energy": -2339.6787511, 
			 "HOMO_LUMO_gap": 0.3584, 
			 "cosmo_polarized_energy": -1.44, 
			 "cosmo_cavitation_energy": 38.84, 
			 "cosmo_dispersion_energy": -25.43, 
			 "cosmo_repulsion_energy": 1.55, 
			 "cosmo_total_nonelectrostatic_energy": 14.95, 
			 "SMD_solvation_energy": 12.59 
		},
		"coords": [
			{
				"x": 1.4953116714,
				"y": 2.0623536191,
				"z": -2.2008765091,
				"element": "F" 
			},
			{
				"x": 2.2359968824,
				"y": 1.2140790533,
				"z": -1.4757711928,
				"element": "C" 
			},
			{
				"x": 2.7842933576,
				"y": 1.8837530813,
				"z": -0.455483277,
				"element": "F" 
			},
			{
				"x": 3.2131469043,
				"y": 0.7199585558,
				"z": -2.2416524555,
				"element": "F" 
			},
			{
				"x": 1.3646680706,
				"y": 0.0614111815,
				"z": -0.9038688943,
				"element": "C" 
			},
			{
				"x": 0.6320700449,
				"y": 0.5629727962,
				"z": 0.1186383113,
				"element": "F" 
			},
			{
				"x": 2.2095803059,
				"y": -0.8686988416,
				"z": -0.4117469663,
				"element": "F" 
			},
			{
				"x": 0.4343580858,
				"y": -0.6428329335,
				"z": -1.9511628282,
				"element": "C" 
			},
			{
				"x": 0.3440456919,
				"y": -1.9524446604,
				"z": -1.6322404792,
				"element": "F" 
			},
			{
				"x": 1.0458953617,
				"y": -0.550006067,
				"z": -3.1563397724,
				"element": "F" 
			},
			{
				"x": -1.0158583358,
				"y": -0.0582764192,
				"z": -2.1108035089,
				"element": "C" 
			},
			{
				"x": -1.3483935853,
				"y": -0.2023647557,
				"z": -3.4154053535,
				"element": "F" 
			},
			{
				"x": -1.0113605001,
				"y": 1.2620371944,
				"z": -1.8295506127,
				"element": "F" 
			},
			{
				"x": -2.1927444338,
				"y": -0.7625818759,
				"z": -1.3471548342,
				"element": "C" 
			},
			{
				"x": -2.3037211812,
				"y": -2.0002369302,
				"z": -1.8790749192,
				"element": "F" 
			},
			{
				"x": -3.3069694109,
				"y": -0.0547013754,
				"z": -1.656491069,
				"element": "F" 
			},
			{
				"x": -2.1837422254,
				"y": -0.9555524063,
				"z": 0.2052345974,
				"element": "C" 
			},
			{
				"x": -0.9764356256,
				"y": -1.432969354,
				"z": 0.5905479672,
				"element": "F" 
			},
			{
				"x": -3.1180305781,
				"y": -1.8993891132,
				"z": 0.4714908974,
				"element": "F" 
			},
			{
				"x": -2.5598278267,
				"y": 0.2907245191,
				"z": 1.0565355076,
				"element": "C" 
			},
			{
				"x": -3.8884542057,
				"y": 0.4970308366,
				"z": 0.9424220172,
				"element": "F" 
			},
			{
				"x": -1.9065264232,
				"y": 1.3755482646,
				"z": 0.5779796039,
				"element": "F" 
			},
			{
				"x": -2.2056156407,
				"y": 0.2191167382,
				"z": 2.5733292396,
				"element": "C" 
			},
			{
				"x": -2.6856002712,
				"y": 1.3597631513,
				"z": 3.1207246535,
				"element": "F" 
			},
			{
				"x": -0.8614954611,
				"y": 0.199152012,
				"z": 2.7050738019,
				"element": "F" 
			},
			{
				"x": -2.7895819157,
				"y": -0.960652537,
				"z": 3.3874698711,
				"element": "C" 
			},
			{
				"x": -2.2082970764,
				"y": -2.1122412981,
				"z": 3.0268888008,
				"element": "F" 
			},
			{
				"x": -4.110492296,
				"y": -1.0556914807,
				"z": 3.196038536,
				"element": "F" 
			},
			{
				"x": -2.5517193837,
				"y": -0.7485609552,
				"z": 4.6862488672,
				"element": "F" 
			}
		],
		 "valence_orbital": [ 
			{
				"type": "occ",
				"energy": -0.41688,
				"method": "rhf"
			},
			{
				"type": "occ",
				"energy": -0.3978,
				"method": "rhf"
			},
			{
				"type": "occ",
				"energy": -0.38449,
				"method": "rhf"
			},
			{
				"type": "occ",
				"energy": -0.36571,
				"method": "rhf"
			},
			{
				"type": "occ",
				"energy": -0.35676,
				"method": "rhf"
			},
			{
				"type": "unocc",
				"energy": 0.00164,
				"method": "rhf"
			},
			{
				"type": "unocc",
				"energy": 0.00399,
				"method": "rhf"
			},
			{
				"type": "unocc",
				"energy": 0.02545,
				"method": "rhf"
			},
			{
				"type": "unocc",
				"energy": 0.03025,
				"method": "rhf"
			},
			{
				"type": "unocc",
				"energy": 0.055,
				"method": "rhf"
			}
		],
		"cosmo_sigma_profile": { 
			"-0.025": 0.0,
			"-0.024": 0.0,
			"-0.023": 0.0,
			"-0.022": 0.0,
			"-0.021": 0.0,
			"-0.02": 0.0,
			"-0.019": 0.0,
			"-0.018": 0.0,
			"-0.017": 0.0,
			"-0.016": 0.0,
			"-0.015": 0.0,
			"-0.014": 0.0,
			"-0.013": 0.0,
			"-0.012": 0.0,
			"-0.011": 0.0,
			"-0.01": 0.0,
			"-0.009": 0.0,
			"-0.008": 0.0,
			"-0.007": 0.0,
			"-0.006": 0.237501361683,
			"-0.005": 2.00382964339,
			"-0.004": 4.40120445437,
			"-0.003": 11.2955481368,
			"-0.002": 19.8325992061,
			"-0.001": 39.2341679441,
			"0.0": 98.8264757665,
			"0.001": 129.798295894,
			"0.002": 7.13806553675,
			"0.003": 0.0,
			"0.004": 0.0,
			"0.005": 0.0,
			"0.006": 0.0,
			"0.007": 0.0,
			"0.008": 0.0,
			"0.009": 0.0,
			"0.01": 0.0,
			"0.011": 0.0,
			"0.012": 0.0,
			"0.013": 0.0,
			"0.014": 0.0,
			"0.015": 0.0,
			"0.016": 0.0,
			"0.017": 0.0,
			"0.018": 0.0,
			"0.019": 0.0,
			"0.02": 0.0,
			"0.021": 0.0,
			"0.022": 0.0,
			"0.023": 0.0,
			"0.024": 0.0,
			"0.025": 0.0
		}
	}
}
