{
	 "smiles": "CN(C)P(=O)(N(C)C)N1N=C(N=C1N)C1=CC=CC=C1", 
	 "Tm": 441.15, 
	 "num_atms": 39, 
	 "gaussian": { 
		 "optdone": 1, 
		 "sigma_profile": "yes", 
		 "theory": "DFT", 
		 "functional": "B3LYP", 
		 "basiset": "6-31G**", 
		 "properties": { 
			 "R2extent": 7437.5273, 
			 "electric_dipole_moment_norm": 5.6648044291, 
			 "electric_quadrupole_moment_norm": 17.967273796, 
			 "total_energy": -1213.85468817, 
			 "HOMO_LUMO_gap": 0.19006, 
			 "cosmo_polarized_energy": -22.74, 
			 "cosmo_cavitation_energy": 42.2, 
			 "cosmo_dispersion_energy": -29.04, 
			 "cosmo_repulsion_energy": 2.19, 
			 "cosmo_total_nonelectrostatic_energy": 15.36, 
			 "SMD_solvation_energy": 6.85 
		},
		"coords": [
			{
				"x": 3.1693598197,
				"y": -3.2292789097,
				"z": 1.4823995891,
				"element": "C" 
			},
			{
				"x": 2.0763388931,
				"y": -2.4698827416,
				"z": 0.850647865,
				"element": "N" 
			},
			{
				"x": 1.6233606834,
				"y": -3.1169531363,
				"z": -0.3997230768,
				"element": "C" 
			},
			{
				"x": 2.309021502,
				"y": -0.7864729221,
				"z": 0.6819232826,
				"element": "P" 
			},
			{
				"x": 3.0915176496,
				"y": -0.3219749818,
				"z": -0.4885269972,
				"element": "O" 
			},
			{
				"x": 2.9212447672,
				"y": -0.2778390916,
				"z": 2.1496298793,
				"element": "N" 
			},
			{
				"x": 2.1244699751,
				"y": -0.3268716362,
				"z": 3.3759274524,
				"element": "C" 
			},
			{
				"x": 3.9636063567,
				"y": 0.7543318437,
				"z": 2.1457642624,
				"element": "C" 
			},
			{
				"x": 0.6323539083,
				"y": -0.2993995877,
				"z": 0.613764978,
				"element": "N" 
			},
			{
				"x": 0.3473125507,
				"y": 0.917157217,
				"z": 0.0040611429,
				"element": "N" 
			},
			{
				"x": -0.9501302844,
				"y": 1.0519019171,
				"z": 0.2012499274,
				"element": "C" 
			},
			{
				"x": -1.5437086274,
				"y": 0.0265638078,
				"z": 0.9039550779,
				"element": "N" 
			},
			{
				"x": -0.5406836957,
				"y": -0.7857987649,
				"z": 1.1598208433,
				"element": "C" 
			},
			{
				"x": -0.621061634,
				"y": -1.926604035,
				"z": 1.9155793775,
				"element": "N" 
			},
			{
				"x": -1.7079445299,
				"y": 2.2103011401,
				"z": -0.2951443579,
				"element": "C" 
			},
			{
				"x": -3.0795703027,
				"y": 2.3187736225,
				"z": -0.0250325605,
				"element": "C" 
			},
			{
				"x": -3.801937164,
				"y": 3.4162654493,
				"z": -0.4920042081,
				"element": "C" 
			},
			{
				"x": -3.164438863,
				"y": 4.4142682648,
				"z": -1.231626992,
				"element": "C" 
			},
			{
				"x": -1.7970230075,
				"y": 4.3091917531,
				"z": -1.5037838852,
				"element": "C" 
			},
			{
				"x": -1.070806754,
				"y": 3.2152062137,
				"z": -1.0405622465,
				"element": "C" 
			},
			{
				"x": 2.8037794556,
				"y": -4.2320660658,
				"z": 1.7269438211,
				"element": "H" 
			},
			{
				"x": 3.4865548859,
				"y": -2.7359772549,
				"z": 2.4005423657,
				"element": "H" 
			},
			{
				"x": 4.0398616803,
				"y": -3.3333031133,
				"z": 0.8195830174,
				"element": "H" 
			},
			{
				"x": 2.4322597202,
				"y": -3.1917781158,
				"z": -1.1371708614,
				"element": "H" 
			},
			{
				"x": 1.26202254,
				"y": -4.124370642,
				"z": -0.1681417517,
				"element": "H" 
			},
			{
				"x": 0.8045802645,
				"y": -2.548974485,
				"z": -0.8456087899,
				"element": "H" 
			},
			{
				"x": 2.7869350939,
				"y": -0.5005178384,
				"z": 4.2318965471,
				"element": "H" 
			},
			{
				"x": 1.3937982691,
				"y": -1.1364460188,
				"z": 3.3392404269,
				"element": "H" 
			},
			{
				"x": 1.5834677766,
				"y": 0.6148418463,
				"z": 3.545095873,
				"element": "H" 
			},
			{
				"x": 4.6919175063,
				"y": 0.5374132509,
				"z": 2.9361716621,
				"element": "H" 
			},
			{
				"x": 4.4698574297,
				"y": 0.759387252,
				"z": 1.1810519625,
				"element": "H" 
			},
			{
				"x": 3.5394792165,
				"y": 1.7516495263,
				"z": 2.3256814035,
				"element": "H" 
			},
			{
				"x": -1.5608391662,
				"y": -2.2825767958,
				"z": 2.0130767212,
				"element": "H" 
			},
			{
				"x": 0.1180057423,
				"y": -2.6014290138,
				"z": 1.7581473313,
				"element": "H" 
			},
			{
				"x": -3.5629779203,
				"y": 1.5368395808,
				"z": 0.5507158065,
				"element": "H" 
			},
			{
				"x": -4.864425847,
				"y": 3.4921721491,
				"z": -0.2778694579,
				"element": "H" 
			},
			{
				"x": -3.728493139,
				"y": 5.2687176135,
				"z": -1.5951481844,
				"element": "H" 
			},
			{
				"x": -1.2964749255,
				"y": 5.0820128824,
				"z": -2.0804521242,
				"element": "H" 
			},
			{
				"x": -0.0100898263,
				"y": 3.12301982,
				"z": -1.2493751224,
				"element": "H" 
			}
		],
		 "valence_orbital": [ 
			{
				"type": "occ",
				"energy": -0.25614,
				"method": "rhf"
			},
			{
				"type": "occ",
				"energy": -0.24976,
				"method": "rhf"
			},
			{
				"type": "occ",
				"energy": -0.24356,
				"method": "rhf"
			},
			{
				"type": "occ",
				"energy": -0.23799,
				"method": "rhf"
			},
			{
				"type": "occ",
				"energy": -0.20911,
				"method": "rhf"
			},
			{
				"type": "unocc",
				"energy": -0.01905,
				"method": "rhf"
			},
			{
				"type": "unocc",
				"energy": 0.01099,
				"method": "rhf"
			},
			{
				"type": "unocc",
				"energy": 0.03205,
				"method": "rhf"
			},
			{
				"type": "unocc",
				"energy": 0.055,
				"method": "rhf"
			},
			{
				"type": "unocc",
				"energy": 0.07248,
				"method": "rhf"
			}
		],
		"cosmo_sigma_profile": { 
			"-0.025": 0.0,
			"-0.024": 0.0,
			"-0.023": 0.0,
			"-0.022": 0.0,
			"-0.021": 0.0,
			"-0.02": 0.0,
			"-0.019": 0.0,
			"-0.018": 0.0,
			"-0.017": 0.0,
			"-0.016": 0.0,
			"-0.015": 0.166718278305,
			"-0.014": 1.06389763037,
			"-0.013": 1.19046751614,
			"-0.012": 0.747186964938,
			"-0.011": 1.37936759594,
			"-0.01": 1.89367316412,
			"-0.009": 1.60443007297,
			"-0.008": 2.17686542057,
			"-0.007": 2.15746891012,
			"-0.006": 10.1977917434,
			"-0.005": 24.055448913,
			"-0.004": 39.6031026756,
			"-0.003": 40.4414692383,
			"-0.002": 43.5657239792,
			"-0.001": 24.2656578548,
			"0.0": 14.7044662383,
			"0.001": 13.4413767058,
			"0.002": 15.4433220921,
			"0.003": 17.5696732963,
			"0.004": 16.6272398054,
			"0.005": 16.2175157722,
			"0.006": 7.63255075035,
			"0.007": 4.41831251101,
			"0.008": 4.13194438281,
			"0.009": 3.03484592483,
			"0.01": 3.18823079186,
			"0.011": 2.74194024511,
			"0.012": 2.75411312286,
			"0.013": 4.26758997324,
			"0.014": 5.09334074427,
			"0.015": 3.76738168332,
			"0.016": 2.08683367549,
			"0.017": 0.257868341855,
			"0.018": 0.0,
			"0.019": 0.0,
			"0.02": 0.0,
			"0.021": 0.0,
			"0.022": 0.0,
			"0.023": 0.0,
			"0.024": 0.0,
			"0.025": 0.0
		}
	}
}
