{
	 "smiles": "COC1=C2N=CC=CC2=C(N)C=C1", 
	 "Tm": 429.15, 
	 "num_atms": 23, 
	 "gaussian": { 
		 "optdone": 1, 
		 "sigma_profile": "yes", 
		 "theory": "DFT", 
		 "functional": "B3LYP", 
		 "basiset": "6-31G**", 
		 "properties": { 
			 "R2extent": 2931.0685, 
			 "electric_dipole_moment_norm": 3.08703560232, 
			 "electric_quadrupole_moment_norm": 11.8951834517, 
			 "total_energy": -571.804498687, 
			 "HOMO_LUMO_gap": 0.1461, 
			 "cosmo_polarized_energy": -12.75, 
			 "cosmo_cavitation_energy": 26.28, 
			 "cosmo_dispersion_energy": -19.7, 
			 "cosmo_repulsion_energy": 1.55, 
			 "cosmo_total_nonelectrostatic_energy": 8.12, 
			 "SMD_solvation_energy": 4.39 
		},
		"coords": [
			{
				"x": 3.0219724449,
				"y": 2.2496015145,
				"z": -0.174880131,
				"element": "C" 
			},
			{
				"x": 2.058679661,
				"y": 1.9536893806,
				"z": -1.1902605172,
				"element": "O" 
			},
			{
				"x": 0.7382965675,
				"y": 2.0055397345,
				"z": -0.8267441896,
				"element": "C" 
			},
			{
				"x": 0.168629618,
				"y": 1.1009342145,
				"z": 0.1257589439,
				"element": "C" 
			},
			{
				"x": 0.9810474384,
				"y": 0.1928882019,
				"z": 0.7380891282,
				"element": "N" 
			},
			{
				"x": 0.455588224,
				"y": -0.6205725678,
				"z": 1.6323182935,
				"element": "C" 
			},
			{
				"x": -0.9048730889,
				"y": -0.5998107762,
				"z": 2.0156136868,
				"element": "C" 
			},
			{
				"x": -1.7434367914,
				"y": 0.3025051504,
				"z": 1.4019691371,
				"element": "C" 
			},
			{
				"x": -1.2382223185,
				"y": 1.1755701437,
				"z": 0.407033341,
				"element": "C" 
			},
			{
				"x": -2.0674518869,
				"y": 2.1031737893,
				"z": -0.3049827258,
				"element": "C" 
			},
			{
				"x": -3.4417822604,
				"y": 2.1685924334,
				"z": -0.019006386,
				"element": "N" 
			},
			{
				"x": -1.4725337564,
				"y": 2.9510704443,
				"z": -1.2222988905,
				"element": "C" 
			},
			{
				"x": -0.0834764208,
				"y": 2.911094197,
				"z": -1.4643744341,
				"element": "C" 
			},
			{
				"x": 3.0051225575,
				"y": 1.4975182512,
				"z": 0.6169985688,
				"element": "H" 
			},
			{
				"x": 2.8446949339,
				"y": 3.2460328959,
				"z": 0.2520948535,
				"element": "H" 
			},
			{
				"x": 3.994134128,
				"y": 2.2433115158,
				"z": -0.6731150307,
				"element": "H" 
			},
			{
				"x": 1.1365472246,
				"y": -1.3349282773,
				"z": 2.0945471359,
				"element": "H" 
			},
			{
				"x": -1.2664123115,
				"y": -1.2761870669,
				"z": 2.7835643608,
				"element": "H" 
			},
			{
				"x": -2.7868577699,
				"y": 0.3656073918,
				"z": 1.6954660585,
				"element": "H" 
			},
			{
				"x": -3.9506768592,
				"y": 2.7589833619,
				"z": -0.6648980613,
				"element": "H" 
			},
			{
				"x": -3.894720467,
				"y": 1.265481185,
				"z": 0.0510026641,
				"element": "H" 
			},
			{
				"x": -2.0857341574,
				"y": 3.6602910569,
				"z": -1.7730179324,
				"element": "H" 
			},
			{
				"x": 0.3617652906,
				"y": 3.5832138255,
				"z": -2.1908778735,
				"element": "H" 
			}
		],
		 "valence_orbital": [ 
			{
				"type": "occ",
				"energy": -0.279,
				"method": "rhf"
			},
			{
				"type": "occ",
				"energy": -0.26407,
				"method": "rhf"
			},
			{
				"type": "occ",
				"energy": -0.2486,
				"method": "rhf"
			},
			{
				"type": "occ",
				"energy": -0.24495,
				"method": "rhf"
			},
			{
				"type": "occ",
				"energy": -0.19145,
				"method": "rhf"
			},
			{
				"type": "unocc",
				"energy": -0.04535,
				"method": "rhf"
			},
			{
				"type": "unocc",
				"energy": -0.01337,
				"method": "rhf"
			},
			{
				"type": "unocc",
				"energy": 0.03956,
				"method": "rhf"
			},
			{
				"type": "unocc",
				"energy": 0.07245,
				"method": "rhf"
			},
			{
				"type": "unocc",
				"energy": 0.09578,
				"method": "rhf"
			}
		],
		"cosmo_sigma_profile": { 
			"-0.025": 0.0,
			"-0.024": 0.0,
			"-0.023": 0.0,
			"-0.022": 0.0,
			"-0.021": 0.0,
			"-0.02": 0.0,
			"-0.019": 0.0,
			"-0.018": 0.0,
			"-0.017": 0.0,
			"-0.016": 0.0,
			"-0.015": 0.0,
			"-0.014": 0.0,
			"-0.013": 0.468956588634,
			"-0.012": 2.48635000937,
			"-0.011": 3.55455688873,
			"-0.01": 3.48555692891,
			"-0.009": 2.76610417376,
			"-0.008": 3.35612611494,
			"-0.007": 5.25790843486,
			"-0.006": 10.0704581488,
			"-0.005": 12.9532372279,
			"-0.004": 14.3873912352,
			"-0.003": 12.4559654175,
			"-0.002": 16.4332900915,
			"-0.001": 12.3977924264,
			"0.0": 10.1521989833,
			"0.001": 10.9869273951,
			"0.002": 20.3827871433,
			"0.003": 19.177324243,
			"0.004": 12.1661131487,
			"0.005": 9.82253846804,
			"0.006": 4.58613894123,
			"0.007": 3.19767335875,
			"0.008": 2.98054072598,
			"0.009": 2.82491329104,
			"0.01": 3.02506677066,
			"0.011": 2.98227374279,
			"0.012": 3.53867647913,
			"0.013": 2.42304737795,
			"0.014": 1.05109318811,
			"0.015": 0.292065450357,
			"0.016": 0.0,
			"0.017": 0.0,
			"0.018": 0.0,
			"0.019": 0.0,
			"0.02": 0.0,
			"0.021": 0.0,
			"0.022": 0.0,
			"0.023": 0.0,
			"0.024": 0.0,
			"0.025": 0.0
		}
	}
}
