{
	 "smiles": "CC1=C(CCO)SC2=NC3=C(CN12)C=NC(C)=N3", 
	 "Tm": 502.15, 
	 "num_atms": 32, 
	 "gaussian": { 
		 "optdone": 1, 
		 "sigma_profile": "yes", 
		 "theory": "DFT", 
		 "functional": "B3LYP", 
		 "basiset": "6-31G**", 
		 "properties": { 
			 "R2extent": 6795.1942, 
			 "electric_dipole_moment_norm": 6.29529485727, 
			 "electric_quadrupole_moment_norm": 11.8095316613, 
			 "total_energy": -1158.12261425, 
			 "HOMO_LUMO_gap": 0.15971, 
			 "cosmo_polarized_energy": -23.09, 
			 "cosmo_cavitation_energy": 36.66, 
			 "cosmo_dispersion_energy": -27.36, 
			 "cosmo_repulsion_energy": 2.08, 
			 "cosmo_total_nonelectrostatic_energy": 11.38, 
			 "SMD_solvation_energy": 0.5 
		},
		"coords": [
			{
				"x": 1.983102768,
				"y": -2.3651239779,
				"z": -1.3531392018,
				"element": "C" 
			},
			{
				"x": 1.7206334955,
				"y": -1.3933733923,
				"z": -0.2424517272,
				"element": "C" 
			},
			{
				"x": 2.2484166492,
				"y": -1.3994484336,
				"z": 1.0056600483,
				"element": "C" 
			},
			{
				"x": 3.2114891712,
				"y": -2.3655417659,
				"z": 1.6281027167,
				"element": "C" 
			},
			{
				"x": 2.5621268681,
				"y": -3.31447097,
				"z": 2.6425684642,
				"element": "C" 
			},
			{
				"x": 3.5890532077,
				"y": -4.1671039232,
				"z": 3.1244422415,
				"element": "O" 
			},
			{
				"x": 1.6166138721,
				"y": -0.0447873155,
				"z": 1.9633304515,
				"element": "S" 
			},
			{
				"x": 0.635819371,
				"y": 0.5135490704,
				"z": 0.609852652,
				"element": "C" 
			},
			{
				"x": -0.1328529741,
				"y": 1.5543724555,
				"z": 0.6902679188,
				"element": "N" 
			},
			{
				"x": -0.9294004927,
				"y": 1.802592403,
				"z": -0.4134149725,
				"element": "C" 
			},
			{
				"x": -0.8122098058,
				"y": 1.0555333529,
				"z": -1.6110515936,
				"element": "C" 
			},
			{
				"x": 0.2891959136,
				"y": 0.0358142093,
				"z": -1.7790386882,
				"element": "C" 
			},
			{
				"x": 0.8176874769,
				"y": -0.3375657767,
				"z": -0.4591796486,
				"element": "N" 
			},
			{
				"x": -1.7240964181,
				"y": 1.3464969364,
				"z": -2.6112624989,
				"element": "C" 
			},
			{
				"x": -2.6566203167,
				"y": 2.3037451338,
				"z": -2.5032155501,
				"element": "N" 
			},
			{
				"x": -2.6605337458,
				"y": 2.9835030419,
				"z": -1.3434790655,
				"element": "C" 
			},
			{
				"x": -3.6774826214,
				"y": 4.0843235539,
				"z": -1.1932205828,
				"element": "C" 
			},
			{
				"x": -1.8519870123,
				"y": 2.7687522511,
				"z": -0.2975790583,
				"element": "N" 
			},
			{
				"x": 1.0736734484,
				"y": -2.90949691,
				"z": -1.6338763094,
				"element": "H" 
			},
			{
				"x": 2.3585355968,
				"y": -1.8634120473,
				"z": -2.2521986493,
				"element": "H" 
			},
			{
				"x": 2.7273343441,
				"y": -3.1012173223,
				"z": -1.0482155371,
				"element": "H" 
			},
			{
				"x": 4.0193455599,
				"y": -1.8249607245,
				"z": 2.1360915854,
				"element": "H" 
			},
			{
				"x": 3.6882148192,
				"y": -2.9718903805,
				"z": 0.8518106137,
				"element": "H" 
			},
			{
				"x": 1.7564306273,
				"y": -3.881008524,
				"z": 2.1490518382,
				"element": "H" 
			},
			{
				"x": 2.1018277556,
				"y": -2.7315293485,
				"z": 3.4554947212,
				"element": "H" 
			},
			{
				"x": 3.2119375867,
				"y": -4.7471556927,
				"z": 3.7971057248,
				"element": "H" 
			},
			{
				"x": -0.0847708605,
				"y": -0.8613910989,
				"z": -2.284156199,
				"element": "H" 
			},
			{
				"x": 1.1100893645,
				"y": 0.4352017308,
				"z": -2.396787326,
				"element": "H" 
			},
			{
				"x": -1.7105321833,
				"y": 0.7916950746,
				"z": -3.5512520806,
				"element": "H" 
			},
			{
				"x": -4.3719406898,
				"y": 3.8482403261,
				"z": -0.3798917821,
				"element": "H" 
			},
			{
				"x": -3.182105574,
				"y": 5.0226788169,
				"z": -0.9252880051,
				"element": "H" 
			},
			{
				"x": -4.2374952013,
				"y": 4.2135792472,
				"z": -2.1200805002,
				"element": "H" 
			}
		],
		 "valence_orbital": [ 
			{
				"type": "occ",
				"energy": -0.27992,
				"method": "rhf"
			},
			{
				"type": "occ",
				"energy": -0.26871,
				"method": "rhf"
			},
			{
				"type": "occ",
				"energy": -0.25687,
				"method": "rhf"
			},
			{
				"type": "occ",
				"energy": -0.23181,
				"method": "rhf"
			},
			{
				"type": "occ",
				"energy": -0.19807,
				"method": "rhf"
			},
			{
				"type": "unocc",
				"energy": -0.03836,
				"method": "rhf"
			},
			{
				"type": "unocc",
				"energy": -0.01887,
				"method": "rhf"
			},
			{
				"type": "unocc",
				"energy": 0.00547,
				"method": "rhf"
			},
			{
				"type": "unocc",
				"energy": 0.00686,
				"method": "rhf"
			},
			{
				"type": "unocc",
				"energy": 0.04951,
				"method": "rhf"
			}
		],
		"cosmo_sigma_profile": { 
			"-0.025": 0.0,
			"-0.024": 0.0,
			"-0.023": 0.0,
			"-0.022": 0.0,
			"-0.021": 0.0,
			"-0.02": 0.0,
			"-0.019": 0.0,
			"-0.018": 0.0,
			"-0.017": 0.0,
			"-0.016": 0.715975345752,
			"-0.015": 1.10813761404,
			"-0.014": 0.897645895789,
			"-0.013": 0.748252422569,
			"-0.012": 0.811497353173,
			"-0.011": 0.780742811252,
			"-0.01": 0.953667654382,
			"-0.009": 0.606738003085,
			"-0.008": 4.47564350646,
			"-0.007": 13.7941433764,
			"-0.006": 18.1728334532,
			"-0.005": 18.8314494626,
			"-0.004": 22.1318702336,
			"-0.003": 23.9859021261,
			"-0.002": 26.0218567752,
			"-0.001": 25.7275560934,
			"0.0": 27.4396273585,
			"0.001": 18.9091056572,
			"0.002": 14.9796804814,
			"0.003": 10.9162578893,
			"0.004": 8.70295804166,
			"0.005": 5.52217044908,
			"0.006": 4.63227573016,
			"0.007": 5.35772504151,
			"0.008": 3.87611968837,
			"0.009": 4.32624877864,
			"0.01": 4.28523205202,
			"0.011": 3.51589627188,
			"0.012": 3.67708271355,
			"0.013": 3.88759523779,
			"0.014": 4.83895889119,
			"0.015": 2.41169609628,
			"0.016": 2.74846895115,
			"0.017": 2.61192674355,
			"0.018": 0.281452463755,
			"0.019": 0.0,
			"0.02": 0.0,
			"0.021": 0.0,
			"0.022": 0.0,
			"0.023": 0.0,
			"0.024": 0.0,
			"0.025": 0.0
		}
	}
}
