{
	 "smiles": "COC1=CC=C(C=O)C(F)=C1", 
	 "Tm": 318.15, 
	 "num_atms": 18, 
	 "gaussian": { 
		 "optdone": 1, 
		 "sigma_profile": "yes", 
		 "theory": "DFT", 
		 "functional": "B3LYP", 
		 "basiset": "6-31G**", 
		 "properties": { 
			 "R2extent": 2246.0404, 
			 "electric_dipole_moment_norm": 5.00074926886, 
			 "electric_quadrupole_moment_norm": 6.84619504323, 
			 "total_energy": -559.331481008, 
			 "HOMO_LUMO_gap": 0.1835, 
			 "cosmo_polarized_energy": -9.02, 
			 "cosmo_cavitation_energy": 23.12, 
			 "cosmo_dispersion_energy": -16.85, 
			 "cosmo_repulsion_energy": 1.32, 
			 "cosmo_total_nonelectrostatic_energy": 7.58, 
			 "SMD_solvation_energy": 6.39 
		},
		"coords": [
			{
				"x": -2.2689714973,
				"y": 1.6516343744,
				"z": -0.9275597961,
				"element": "C" 
			},
			{
				"x": -1.4598506458,
				"y": 1.7525555587,
				"z": 0.2386698189,
				"element": "O" 
			},
			{
				"x": -0.6510598517,
				"y": 0.7158922381,
				"z": 0.5617606723,
				"element": "C" 
			},
			{
				"x": 0.1220770612,
				"y": 0.8840484142,
				"z": 1.7293078547,
				"element": "C" 
			},
			{
				"x": 0.9764841755,
				"y": -0.1215372015,
				"z": 2.1369828614,
				"element": "C" 
			},
			{
				"x": 1.0985785056,
				"y": -1.3237139565,
				"z": 1.4111312725,
				"element": "C" 
			},
			{
				"x": 2.0154310773,
				"y": -2.3864557807,
				"z": 1.8608199285,
				"element": "C" 
			},
			{
				"x": 2.709785121,
				"y": -2.301931216,
				"z": 2.8600311829,
				"element": "O" 
			},
			{
				"x": 0.3171460537,
				"y": -1.4535812441,
				"z": 0.2607124379,
				"element": "C" 
			},
			{
				"x": 0.4000058299,
				"y": -2.5871364314,
				"z": -0.4672830577,
				"element": "F" 
			},
			{
				"x": -0.5542821057,
				"y": -0.4665720942,
				"z": -0.1836676078,
				"element": "C" 
			},
			{
				"x": -2.9725823162,
				"y": 0.8134976801,
				"z": -0.8554139096,
				"element": "H" 
			},
			{
				"x": -1.6573241821,
				"y": 1.5361502631,
				"z": -1.8305045583,
				"element": "H" 
			},
			{
				"x": -2.8262504932,
				"y": 2.5869678897,
				"z": -0.9860606524,
				"element": "H" 
			},
			{
				"x": 0.0240025637,
				"y": 1.8108421263,
				"z": 2.283572524,
				"element": "H" 
			},
			{
				"x": 1.5817266252,
				"y": -0.0158475332,
				"z": 3.0317448172,
				"element": "H" 
			},
			{
				"x": 2.0406823025,
				"y": -3.2919879326,
				"z": 1.2240721363,
				"element": "H" 
			},
			{
				"x": -1.1261982236,
				"y": -0.6420251543,
				"z": -1.0851159247,
				"element": "H" 
			}
		],
		 "valence_orbital": [ 
			{
				"type": "occ",
				"energy": -0.35393,
				"method": "rhf"
			},
			{
				"type": "occ",
				"energy": -0.32678,
				"method": "rhf"
			},
			{
				"type": "occ",
				"energy": -0.26599,
				"method": "rhf"
			},
			{
				"type": "occ",
				"energy": -0.24932,
				"method": "rhf"
			},
			{
				"type": "occ",
				"energy": -0.23984,
				"method": "rhf"
			},
			{
				"type": "unocc",
				"energy": -0.05634,
				"method": "rhf"
			},
			{
				"type": "unocc",
				"energy": -0.01356,
				"method": "rhf"
			},
			{
				"type": "unocc",
				"energy": 0.04377,
				"method": "rhf"
			},
			{
				"type": "unocc",
				"energy": 0.07825,
				"method": "rhf"
			},
			{
				"type": "unocc",
				"energy": 0.09298,
				"method": "rhf"
			}
		],
		"cosmo_sigma_profile": { 
			"-0.025": 0.0,
			"-0.024": 0.0,
			"-0.023": 0.0,
			"-0.022": 0.0,
			"-0.021": 0.0,
			"-0.02": 0.0,
			"-0.019": 0.0,
			"-0.018": 0.0,
			"-0.017": 0.0,
			"-0.016": 0.0,
			"-0.015": 0.0,
			"-0.014": 0.0,
			"-0.013": 0.0,
			"-0.012": 0.0,
			"-0.011": 0.0,
			"-0.01": 0.0,
			"-0.009": 0.224462385562,
			"-0.008": 1.99467997283,
			"-0.007": 6.0020965325,
			"-0.006": 14.1196635761,
			"-0.005": 15.8680532383,
			"-0.004": 15.0939046227,
			"-0.003": 13.1695310412,
			"-0.002": 11.008235952,
			"-0.001": 11.3096229882,
			"0.0": 13.8155274614,
			"0.001": 18.8618684641,
			"0.002": 15.8868925808,
			"0.003": 14.5737762141,
			"0.004": 7.38468175888,
			"0.005": 3.14894372807,
			"0.006": 2.40494627069,
			"0.007": 3.45537591506,
			"0.008": 2.48504891406,
			"0.009": 3.13051632227,
			"0.01": 2.49592162111,
			"0.011": 3.59143809863,
			"0.012": 3.88008022888,
			"0.013": 1.34882117369,
			"0.014": 0.0748996611069,
			"0.015": 0.0,
			"0.016": 0.0,
			"0.017": 0.0,
			"0.018": 0.0,
			"0.019": 0.0,
			"0.02": 0.0,
			"0.021": 0.0,
			"0.022": 0.0,
			"0.023": 0.0,
			"0.024": 0.0,
			"0.025": 0.0
		}
	}
}
