{
	 "smiles": "C=CC1CNC(=S)O1", 
	 "Tm": 323.15, 
	 "num_atms": 15, 
	 "gaussian": { 
		 "optdone": 1, 
		 "sigma_profile": "yes", 
		 "theory": "DFT", 
		 "functional": "B3LYP", 
		 "basiset": "6-31G**", 
		 "properties": { 
			 "R2extent": 1567.7269, 
			 "electric_dipole_moment_norm": 6.38553425643, 
			 "electric_quadrupole_moment_norm": 13.7254092216, 
			 "total_energy": -722.886203494, 
			 "HOMO_LUMO_gap": 0.1908, 
			 "cosmo_polarized_energy": -17.0, 
			 "cosmo_cavitation_energy": 20.77, 
			 "cosmo_dispersion_energy": -15.74, 
			 "cosmo_repulsion_energy": 1.29, 
			 "cosmo_total_nonelectrostatic_energy": 6.32, 
			 "SMD_solvation_energy": 2.71 
		},
		"coords": [
			{
				"x": -1.3520441307,
				"y": 2.818369812,
				"z": -0.682365065,
				"element": "C" 
			},
			{
				"x": -0.8502842478,
				"y": 1.5903605077,
				"z": -0.8021414491,
				"element": "C" 
			},
			{
				"x": -0.9510535184,
				"y": 0.5477618083,
				"z": 0.2715312971,
				"element": "C" 
			},
			{
				"x": 0.4140538298,
				"y": -0.0335284466,
				"z": 0.7174753503,
				"element": "C" 
			},
			{
				"x": 0.444584397,
				"y": -1.2507320062,
				"z": -0.0747484134,
				"element": "N" 
			},
			{
				"x": -0.7951753741,
				"y": -1.6314503877,
				"z": -0.4871219195,
				"element": "C" 
			},
			{
				"x": -1.228891453,
				"y": -3.0677844931,
				"z": -1.1777234315,
				"element": "S" 
			},
			{
				"x": -1.6609498194,
				"y": -0.6199404452,
				"z": -0.2473872297,
				"element": "O" 
			},
			{
				"x": -1.2500344232,
				"y": 3.5560811802,
				"z": -1.4720237189,
				"element": "H" 
			},
			{
				"x": -1.8869912142,
				"y": 3.1314415619,
				"z": 0.2112681177,
				"element": "H" 
			},
			{
				"x": -0.3250047537,
				"y": 1.2879797995,
				"z": -1.7071235571,
				"element": "H" 
			},
			{
				"x": -1.5332318426,
				"y": 0.9218762202,
				"z": 1.1168086656,
				"element": "H" 
			},
			{
				"x": 1.2425714433,
				"y": 0.6375862371,
				"z": 0.4731266862,
				"element": "H" 
			},
			{
				"x": 0.4347920895,
				"y": -0.2417670854,
				"z": 1.7958356412,
				"element": "H" 
			},
			{
				"x": 1.1751590177,
				"y": -1.9431542626,
				"z": -0.0157109738,
				"element": "H" 
			}
		],
		 "valence_orbital": [ 
			{
				"type": "occ",
				"energy": -0.36764,
				"method": "rhf"
			},
			{
				"type": "occ",
				"energy": -0.29192,
				"method": "rhf"
			},
			{
				"type": "occ",
				"energy": -0.28756,
				"method": "rhf"
			},
			{
				"type": "occ",
				"energy": -0.22516,
				"method": "rhf"
			},
			{
				"type": "occ",
				"energy": -0.21044,
				"method": "rhf"
			},
			{
				"type": "unocc",
				"energy": -0.01964,
				"method": "rhf"
			},
			{
				"type": "unocc",
				"energy": -0.00308,
				"method": "rhf"
			},
			{
				"type": "unocc",
				"energy": 0.06398,
				"method": "rhf"
			},
			{
				"type": "unocc",
				"energy": 0.09348,
				"method": "rhf"
			},
			{
				"type": "unocc",
				"energy": 0.09651,
				"method": "rhf"
			}
		],
		"cosmo_sigma_profile": { 
			"-0.025": 0.0,
			"-0.024": 0.0,
			"-0.023": 0.0,
			"-0.022": 0.0,
			"-0.021": 0.0,
			"-0.02": 0.0,
			"-0.019": 0.0,
			"-0.018": 0.0,
			"-0.017": 0.0,
			"-0.016": 0.51773473643,
			"-0.015": 1.51274311581,
			"-0.014": 0.805129648659,
			"-0.013": 1.45928087948,
			"-0.012": 0.989089184714,
			"-0.011": 0.56407547646,
			"-0.01": 0.942985913222,
			"-0.009": 1.16003396929,
			"-0.008": 3.7316010737,
			"-0.007": 11.9960911432,
			"-0.006": 16.4351168583,
			"-0.005": 14.0512903547,
			"-0.004": 11.3444913348,
			"-0.003": 8.4063199311,
			"-0.002": 8.18842016951,
			"-0.001": 6.12893220609,
			"0.0": 5.43244186912,
			"0.001": 6.23248718411,
			"0.002": 6.36196321616,
			"0.003": 6.76998777475,
			"0.004": 6.34090208898,
			"0.005": 6.68137375151,
			"0.006": 4.51578914901,
			"0.007": 5.39380780677,
			"0.008": 6.15029858681,
			"0.009": 8.81006065245,
			"0.01": 8.8198164691,
			"0.011": 4.95066233276,
			"0.012": 2.72475023052,
			"0.013": 0.378373591441,
			"0.014": 0.0,
			"0.015": 0.0,
			"0.016": 0.0,
			"0.017": 0.0,
			"0.018": 0.0,
			"0.019": 0.0,
			"0.02": 0.0,
			"0.021": 0.0,
			"0.022": 0.0,
			"0.023": 0.0,
			"0.024": 0.0,
			"0.025": 0.0
		}
	}
}
