{
	 "smiles": "COC1=CC=CC=C1C1CCN(CC1)C1=CC=C(C=O)C=C1[N+]([O-])=O", 
	 "Tm": 390.15, 
	 "num_atms": 45, 
	 "gaussian": { 
		 "optdone": 1, 
		 "sigma_profile": "yes", 
		 "theory": "DFT", 
		 "functional": "B3LYP", 
		 "basiset": "6-31G**", 
		 "properties": { 
			 "R2extent": 12756.9332, 
			 "electric_dipole_moment_norm": 7.41875467852, 
			 "electric_quadrupole_moment_norm": 16.2069930002, 
			 "total_energy": -1146.3480893, 
			 "HOMO_LUMO_gap": 0.14108, 
			 "cosmo_polarized_energy": -17.61, 
			 "cosmo_cavitation_energy": 47.17, 
			 "cosmo_dispersion_energy": -32.98, 
			 "cosmo_repulsion_energy": 2.46, 
			 "cosmo_total_nonelectrostatic_energy": 16.65, 
			 "SMD_solvation_energy": 10.66 
		},
		"coords": [
			{
				"x": 3.3156187621,
				"y": -2.6510503396,
				"z": 3.3006310192,
				"element": "C" 
			},
			{
				"x": 2.2829556098,
				"y": -1.8578918578,
				"z": 2.7364774608,
				"element": "O" 
			},
			{
				"x": 0.9812888034,
				"y": -2.1673539535,
				"z": 3.0310335679,
				"element": "C" 
			},
			{
				"x": 0.6057395272,
				"y": -3.251582676,
				"z": 3.8276718916,
				"element": "C" 
			},
			{
				"x": -0.7488535315,
				"y": -3.499097968,
				"z": 4.0697981826,
				"element": "C" 
			},
			{
				"x": -1.718889041,
				"y": -2.6675528279,
				"z": 3.5233068072,
				"element": "C" 
			},
			{
				"x": -1.3300731454,
				"y": -1.5809076609,
				"z": 2.7314466301,
				"element": "C" 
			},
			{
				"x": 0.0116450077,
				"y": -1.3037789572,
				"z": 2.46442264,
				"element": "C" 
			},
			{
				"x": 0.4986957607,
				"y": -0.1456354356,
				"z": 1.6026317351,
				"element": "C" 
			},
			{
				"x": 0.9990982233,
				"y": -0.6175947453,
				"z": 0.1987888881,
				"element": "C" 
			},
			{
				"x": -0.0068348198,
				"y": -0.3149379255,
				"z": -0.9120893832,
				"element": "C" 
			},
			{
				"x": -0.2276967653,
				"y": 1.1366318293,
				"z": -1.0194433832,
				"element": "N" 
			},
			{
				"x": -0.1257231606,
				"y": 1.8954101593,
				"z": 0.2397363036,
				"element": "C" 
			},
			{
				"x": -0.5165574389,
				"y": 1.000750038,
				"z": 1.4199086232,
				"element": "C" 
			},
			{
				"x": -0.7719417277,
				"y": 1.6666502107,
				"z": -2.155579347,
				"element": "C" 
			},
			{
				"x": -1.4529397995,
				"y": 0.8245738469,
				"z": -3.0860806495,
				"element": "C" 
			},
			{
				"x": -2.1418365842,
				"y": 1.3337460605,
				"z": -4.1650171155,
				"element": "C" 
			},
			{
				"x": -2.2040668105,
				"y": 2.7221873537,
				"z": -4.4013952685,
				"element": "C" 
			},
			{
				"x": -2.9635475056,
				"y": 3.2645507321,
				"z": -5.5389824385,
				"element": "C" 
			},
			{
				"x": -3.5844029522,
				"y": 2.5877647725,
				"z": -6.3401093648,
				"element": "O" 
			},
			{
				"x": -1.5055253125,
				"y": 3.568250026,
				"z": -3.5461705216,
				"element": "C" 
			},
			{
				"x": -0.76766723,
				"y": 3.0602962901,
				"z": -2.4771338957,
				"element": "C" 
			},
			{
				"x": 0.1283011396,
				"y": 4.0211064511,
				"z": -1.8329900915,
				"element": "N" 
			},
			{
				"x": -0.2351298914,
				"y": 5.1988233558,
				"z": -1.7742420872,
				"element": "O" 
			},
			{
				"x": 1.2291233152,
				"y": 3.616373891,
				"z": -1.4472655889,
				"element": "O" 
			},
			{
				"x": 3.2546003926,
				"y": -3.6940052974,
				"z": 2.964630239,
				"element": "H" 
			},
			{
				"x": 3.291127232,
				"y": -2.625813955,
				"z": 4.3973451553,
				"element": "H" 
			},
			{
				"x": 4.2536174899,
				"y": -2.2163193786,
				"z": 2.9519274798,
				"element": "H" 
			},
			{
				"x": 1.3539651374,
				"y": -3.9048532784,
				"z": 4.2603180358,
				"element": "H" 
			},
			{
				"x": -1.0333482522,
				"y": -4.3447399649,
				"z": 4.6892200431,
				"element": "H" 
			},
			{
				"x": -2.7723157316,
				"y": -2.8522335341,
				"z": 3.7093991208,
				"element": "H" 
			},
			{
				"x": -2.1020527984,
				"y": -0.9371014891,
				"z": 2.3238341992,
				"element": "H" 
			},
			{
				"x": 1.3719941927,
				"y": 0.2728347229,
				"z": 2.1137329577,
				"element": "H" 
			},
			{
				"x": 1.2055221606,
				"y": -1.6904097268,
				"z": 0.2039809503,
				"element": "H" 
			},
			{
				"x": 1.94172739,
				"y": -0.1167680616,
				"z": -0.0450265052,
				"element": "H" 
			},
			{
				"x": -0.9513379236,
				"y": -0.8489264317,
				"z": -0.7228714842,
				"element": "H" 
			},
			{
				"x": 0.385646989,
				"y": -0.6766625821,
				"z": -1.8666911772,
				"element": "H" 
			},
			{
				"x": 0.8826765844,
				"y": 2.3030508199,
				"z": 0.3715545296,
				"element": "H" 
			},
			{
				"x": -0.8094690787,
				"y": 2.7472834739,
				"z": 0.1813102799,
				"element": "H" 
			},
			{
				"x": -1.5261891273,
				"y": 0.6211405436,
				"z": 1.2329576483,
				"element": "H" 
			},
			{
				"x": -0.5732825817,
				"y": 1.6085981966,
				"z": 2.3287789071,
				"element": "H" 
			},
			{
				"x": -1.4786790097,
				"y": -0.2422518853,
				"z": -2.9067953143,
				"element": "H" 
			},
			{
				"x": -2.675784102,
				"y": 0.6731298158,
				"z": -4.8411770536,
				"element": "H" 
			},
			{
				"x": -2.9374652976,
				"y": 4.3737530384,
				"z": -5.6255881445,
				"element": "H" 
			},
			{
				"x": -1.4814340989,
				"y": 4.6395643041,
				"z": -3.7165944813,
				"element": "H" 
			}
		],
		 "valence_orbital": [ 
			{
				"type": "occ",
				"energy": -0.27072,
				"method": "rhf"
			},
			{
				"type": "occ",
				"energy": -0.25387,
				"method": "rhf"
			},
			{
				"type": "occ",
				"energy": -0.25086,
				"method": "rhf"
			},
			{
				"type": "occ",
				"energy": -0.2258,
				"method": "rhf"
			},
			{
				"type": "occ",
				"energy": -0.21951,
				"method": "rhf"
			},
			{
				"type": "unocc",
				"energy": -0.07843,
				"method": "rhf"
			},
			{
				"type": "unocc",
				"energy": -0.05638,
				"method": "rhf"
			},
			{
				"type": "unocc",
				"energy": -0.01204,
				"method": "rhf"
			},
			{
				"type": "unocc",
				"energy": -0.00847,
				"method": "rhf"
			},
			{
				"type": "unocc",
				"energy": 0.00296,
				"method": "rhf"
			}
		],
		"cosmo_sigma_profile": { 
			"-0.025": 0.0,
			"-0.024": 0.0,
			"-0.023": 0.0,
			"-0.022": 0.0,
			"-0.021": 0.0,
			"-0.02": 0.0,
			"-0.019": 0.0,
			"-0.018": 0.0,
			"-0.017": 0.0,
			"-0.016": 0.0,
			"-0.015": 0.0,
			"-0.014": 0.0,
			"-0.013": 0.0,
			"-0.012": 0.0,
			"-0.011": 0.0,
			"-0.01": 0.0,
			"-0.009": 0.440933275591,
			"-0.008": 2.76011837922,
			"-0.007": 7.54129835543,
			"-0.006": 19.5927037903,
			"-0.005": 33.5720338659,
			"-0.004": 41.0939143387,
			"-0.003": 44.7749363219,
			"-0.002": 29.1248445073,
			"-0.001": 22.8479033887,
			"0.0": 24.2770026873,
			"0.001": 22.855919838,
			"0.002": 20.4761934187,
			"0.003": 17.1701739311,
			"0.004": 12.6612464593,
			"0.005": 13.1395207111,
			"0.006": 14.5046023986,
			"0.007": 11.3171588114,
			"0.008": 10.9374195452,
			"0.009": 8.13897914066,
			"0.01": 5.93489758117,
			"0.011": 4.99815481011,
			"0.012": 4.15091509065,
			"0.013": 1.42460654888,
			"0.014": 0.128975746651,
			"0.015": 0.0,
			"0.016": 0.0,
			"0.017": 0.0,
			"0.018": 0.0,
			"0.019": 0.0,
			"0.02": 0.0,
			"0.021": 0.0,
			"0.022": 0.0,
			"0.023": 0.0,
			"0.024": 0.0,
			"0.025": 0.0
		}
	}
}
