{
	 "smiles": "NC(=O)COC1=CC(=CC=C1)C(O)=O", 
	 "Tm": 497.15, 
	 "num_atms": 23, 
	 "gaussian": { 
		 "optdone": 1, 
		 "sigma_profile": "yes", 
		 "theory": "DFT", 
		 "functional": "B3LYP", 
		 "basiset": "6-31G**", 
		 "properties": { 
			 "R2extent": 3627.9097, 
			 "electric_dipole_moment_norm": 6.93780889186, 
			 "electric_quadrupole_moment_norm": 17.7986624225, 
			 "total_energy": -704.040185494, 
			 "HOMO_LUMO_gap": 0.18672, 
			 "cosmo_polarized_energy": -23.51, 
			 "cosmo_cavitation_energy": 28.18, 
			 "cosmo_dispersion_energy": -20.22, 
			 "cosmo_repulsion_energy": 1.63, 
			 "cosmo_total_nonelectrostatic_energy": 9.59, 
			 "SMD_solvation_energy": 7.06 
		},
		"coords": [
			{
				"x": 2.264978006,
				"y": 2.7288923336,
				"z": -1.6044750968,
				"element": "N" 
			},
			{
				"x": 1.4029184238,
				"y": 3.5163184262,
				"z": -0.9092803022,
				"element": "C" 
			},
			{
				"x": 0.9115020276,
				"y": 4.5511500554,
				"z": -1.3304522508,
				"element": "O" 
			},
			{
				"x": 1.1126431985,
				"y": 3.0476314534,
				"z": 0.5227663972,
				"element": "C" 
			},
			{
				"x": 1.4575403114,
				"y": 1.688312658,
				"z": 0.7876576441,
				"element": "O" 
			},
			{
				"x": 0.5618326482,
				"y": 0.701242668,
				"z": 0.4670607294,
				"element": "C" 
			},
			{
				"x": -0.6020999115,
				"y": 0.8955392253,
				"z": -0.2776176982,
				"element": "C" 
			},
			{
				"x": -1.4356298207,
				"y": -0.1979228432,
				"z": -0.5554665931,
				"element": "C" 
			},
			{
				"x": -1.1167391647,
				"y": -1.472323722,
				"z": -0.0739531762,
				"element": "C" 
			},
			{
				"x": 0.0503531461,
				"y": -1.6542786952,
				"z": 0.6727369985,
				"element": "C" 
			},
			{
				"x": 0.8900357766,
				"y": -0.5795857296,
				"z": 0.9388271658,
				"element": "C" 
			},
			{
				"x": -2.676876809,
				"y": 0.0818788985,
				"z": -1.3535272577,
				"element": "C" 
			},
			{
				"x": -3.2463805851,
				"y": -0.9790422585,
				"z": -1.9852071751,
				"element": "O" 
			},
			{
				"x": -3.1696872502,
				"y": 1.1804760853,
				"z": -1.4503412575,
				"element": "O" 
			},
			{
				"x": 2.6432658181,
				"y": 1.8877428745,
				"z": -1.1994854106,
				"element": "H" 
			},
			{
				"x": 2.5105564572,
				"y": 2.9941620263,
				"z": -2.5456232393,
				"element": "H" 
			},
			{
				"x": 0.0639413682,
				"y": 3.2577989735,
				"z": 0.7502132365,
				"element": "H" 
			},
			{
				"x": 1.731664412,
				"y": 3.6423919728,
				"z": 1.2010221352,
				"element": "H" 
			},
			{
				"x": -0.8941304106,
				"y": 1.8644793177,
				"z": -0.6641276465,
				"element": "H" 
			},
			{
				"x": -1.7845782761,
				"y": -2.3150404089,
				"z": -0.2302484595,
				"element": "H" 
			},
			{
				"x": 0.2987953546,
				"y": -2.6377604412,
				"z": 1.0597166162,
				"element": "H" 
			},
			{
				"x": 1.7971750076,
				"y": -0.7014531699,
				"z": 1.5216284082,
				"element": "H" 
			},
			{
				"x": -2.654379728,
				"y": -1.7431097,
				"z": -1.9500237675,
				"element": "H" 
			}
		],
		 "valence_orbital": [ 
			{
				"type": "occ",
				"energy": -0.28162,
				"method": "rhf"
			},
			{
				"type": "occ",
				"energy": -0.27639,
				"method": "rhf"
			},
			{
				"type": "occ",
				"energy": -0.26946,
				"method": "rhf"
			},
			{
				"type": "occ",
				"energy": -0.26399,
				"method": "rhf"
			},
			{
				"type": "occ",
				"energy": -0.24207,
				"method": "rhf"
			},
			{
				"type": "unocc",
				"energy": -0.05535,
				"method": "rhf"
			},
			{
				"type": "unocc",
				"energy": -0.01895,
				"method": "rhf"
			},
			{
				"type": "unocc",
				"energy": 0.01869,
				"method": "rhf"
			},
			{
				"type": "unocc",
				"energy": 0.04664,
				"method": "rhf"
			},
			{
				"type": "unocc",
				"energy": 0.05947,
				"method": "rhf"
			}
		],
		"cosmo_sigma_profile": { 
			"-0.025": 0.0,
			"-0.024": 0.0,
			"-0.023": 0.0,
			"-0.022": 0.0,
			"-0.021": 0.0,
			"-0.02": 0.0,
			"-0.019": 0.103629452839,
			"-0.018": 0.839452727494,
			"-0.017": 1.07314199455,
			"-0.016": 0.792464914334,
			"-0.015": 1.05566938878,
			"-0.014": 2.22673286433,
			"-0.013": 3.11458836523,
			"-0.012": 3.36522509541,
			"-0.011": 2.85586578921,
			"-0.01": 3.1784169931,
			"-0.009": 2.95796667171,
			"-0.008": 7.51039183372,
			"-0.007": 11.0256254008,
			"-0.006": 11.7426654019,
			"-0.005": 12.9371661867,
			"-0.004": 12.4806144001,
			"-0.003": 10.449781366,
			"-0.002": 10.5018052297,
			"-0.001": 11.4315868099,
			"0.0": 9.578605506,
			"0.001": 13.4488136822,
			"0.002": 15.6580716396,
			"0.003": 16.569363722,
			"0.004": 6.24118782352,
			"0.005": 4.43726750028,
			"0.006": 4.20820533006,
			"0.007": 4.07972351077,
			"0.008": 4.63334795923,
			"0.009": 5.14470957704,
			"0.01": 6.83954073425,
			"0.011": 6.18170839376,
			"0.012": 6.68165767035,
			"0.013": 6.42119184236,
			"0.014": 4.32503711013,
			"0.015": 0.470415442655,
			"0.016": 0.0,
			"0.017": 0.0,
			"0.018": 0.0,
			"0.019": 0.0,
			"0.02": 0.0,
			"0.021": 0.0,
			"0.022": 0.0,
			"0.023": 0.0,
			"0.024": 0.0,
			"0.025": 0.0
		}
	}
}
