{
	 "smiles": "CN(C)C1=CC=C(CCC2CCC3=CC=CC=C3N2)C=C1", 
	 "Tm": 341.35, 
	 "num_atms": 45, 
	 "gaussian": { 
		 "optdone": 1, 
		 "sigma_profile": "yes", 
		 "theory": "DFT", 
		 "functional": "B3LYP", 
		 "basiset": "6-31G**", 
		 "properties": { 
			 "R2extent": 9707.6978, 
			 "electric_dipole_moment_norm": 3.27212781077, 
			 "electric_quadrupole_moment_norm": 14.6210584538, 
			 "total_energy": -848.004154575, 
			 "HOMO_LUMO_gap": 0.18474, 
			 "cosmo_polarized_energy": -10.31, 
			 "cosmo_cavitation_energy": 45.13, 
			 "cosmo_dispersion_energy": -31.9, 
			 "cosmo_repulsion_energy": 2.42, 
			 "cosmo_total_nonelectrostatic_energy": 15.66, 
			 "SMD_solvation_energy": 5.23 
		},
		"coords": [
			{
				"x": -4.1051042771,
				"y": 2.8308192278,
				"z": -0.8933366501,
				"element": "C" 
			},
			{
				"x": -4.225247666,
				"y": 1.3857212121,
				"z": -0.9812843463,
				"element": "N" 
			},
			{
				"x": -5.3997918923,
				"y": 0.7682749097,
				"z": -0.3898516456,
				"element": "C" 
			},
			{
				"x": -3.0721395383,
				"y": 0.6214637793,
				"z": -1.1508031532,
				"element": "C" 
			},
			{
				"x": -3.0917616537,
				"y": -0.7850497875,
				"z": -1.0098487752,
				"element": "C" 
			},
			{
				"x": -1.9429930909,
				"y": -1.5421548364,
				"z": -1.216110904,
				"element": "C" 
			},
			{
				"x": -0.7164297167,
				"y": -0.9576680178,
				"z": -1.5590676289,
				"element": "C" 
			},
			{
				"x": 0.5260433139,
				"y": -1.8009908543,
				"z": -1.7620971929,
				"element": "C" 
			},
			{
				"x": 1.1359845267,
				"y": -2.3674574715,
				"z": -0.4610191811,
				"element": "C" 
			},
			{
				"x": 1.690618298,
				"y": -1.3184085679,
				"z": 0.5138263094,
				"element": "C" 
			},
			{
				"x": 2.968097767,
				"y": -0.632593585,
				"z": 0.0113690803,
				"element": "C" 
			},
			{
				"x": 3.4730983173,
				"y": 0.3918023012,
				"z": 1.0368475844,
				"element": "C" 
			},
			{
				"x": 3.525431804,
				"y": -0.1841391464,
				"z": 2.4386540747,
				"element": "C" 
			},
			{
				"x": 4.3078280819,
				"y": 0.4016300931,
				"z": 3.4372451168,
				"element": "C" 
			},
			{
				"x": 4.3408997457,
				"y": -0.0998227975,
				"z": 4.7384881978,
				"element": "C" 
			},
			{
				"x": 3.5736501808,
				"y": -1.2256359696,
				"z": 5.0479032777,
				"element": "C" 
			},
			{
				"x": 2.7942686463,
				"y": -1.834050013,
				"z": 4.069554403,
				"element": "C" 
			},
			{
				"x": 2.7586023273,
				"y": -1.3269009323,
				"z": 2.7573492406,
				"element": "C" 
			},
			{
				"x": 2.0114718504,
				"y": -1.9821475784,
				"z": 1.7779080284,
				"element": "N" 
			},
			{
				"x": -0.6985243026,
				"y": 0.4353562817,
				"z": -1.6902207872,
				"element": "C" 
			},
			{
				"x": -1.8359998813,
				"y": 1.2140767313,
				"z": -1.4886443879,
				"element": "C" 
			},
			{
				"x": -3.6712405276,
				"y": 3.2448000144,
				"z": -1.8103891346,
				"element": "H" 
			},
			{
				"x": -3.4844037757,
				"y": 3.1633679658,
				"z": -0.0455644566,
				"element": "H" 
			},
			{
				"x": -5.0995984707,
				"y": 3.2657436266,
				"z": -0.7791855313,
				"element": "H" 
			},
			{
				"x": -5.2231678612,
				"y": 0.3888770267,
				"z": 0.6296833112,
				"element": "H" 
			},
			{
				"x": -6.2052893237,
				"y": 1.5033655667,
				"z": -0.3450349509,
				"element": "H" 
			},
			{
				"x": -5.7551616852,
				"y": -0.0675517008,
				"z": -1.0028408886,
				"element": "H" 
			},
			{
				"x": -4.0087885765,
				"y": -1.2965369992,
				"z": -0.7439705638,
				"element": "H" 
			},
			{
				"x": -2.0084891856,
				"y": -2.6231284399,
				"z": -1.1076674117,
				"element": "H" 
			},
			{
				"x": 1.2803139222,
				"y": -1.2158887138,
				"z": -2.3008308051,
				"element": "H" 
			},
			{
				"x": 0.2864166813,
				"y": -2.6515369377,
				"z": -2.4129125742,
				"element": "H" 
			},
			{
				"x": 1.937279958,
				"y": -3.0761540526,
				"z": -0.7056857928,
				"element": "H" 
			},
			{
				"x": 0.358838827,
				"y": -2.9465542654,
				"z": 0.0578937151,
				"element": "H" 
			},
			{
				"x": 0.920925682,
				"y": -0.5411841925,
				"z": 0.6631725652,
				"element": "H" 
			},
			{
				"x": 3.7305165625,
				"y": -1.4034381861,
				"z": -0.1578027102,
				"element": "H" 
			},
			{
				"x": 2.7798812127,
				"y": -0.140351036,
				"z": -0.9479577468,
				"element": "H" 
			},
			{
				"x": 4.4645027042,
				"y": 0.7593721922,
				"z": 0.7460069081,
				"element": "H" 
			},
			{
				"x": 2.8100778804,
				"y": 1.2691236129,
				"z": 1.0234901012,
				"element": "H" 
			},
			{
				"x": 4.9015408007,
				"y": 1.2776618585,
				"z": 3.1829387867,
				"element": "H" 
			},
			{
				"x": 4.9555773737,
				"y": 0.3766641042,
				"z": 5.4959302809,
				"element": "H" 
			},
			{
				"x": 3.5829109755,
				"y": -1.6352091395,
				"z": 6.0544411798,
				"element": "H" 
			},
			{
				"x": 2.2062286034,
				"y": -2.7171794787,
				"z": 4.310650108,
				"element": "H" 
			},
			{
				"x": 1.2673636337,
				"y": -2.56186537,
				"z": 2.1434425616,
				"element": "H" 
			},
			{
				"x": 0.2305567225,
				"y": 0.9339287561,
				"z": -1.9584519645,
				"element": "H" 
			},
			{
				"x": -1.7539949744,
				"y": 2.2883488093,
				"z": -1.5994156473,
				"element": "H" 
			}
		],
		 "valence_orbital": [ 
			{
				"type": "occ",
				"energy": -0.27046,
				"method": "rhf"
			},
			{
				"type": "occ",
				"energy": -0.24118,
				"method": "rhf"
			},
			{
				"type": "occ",
				"energy": -0.22657,
				"method": "rhf"
			},
			{
				"type": "occ",
				"energy": -0.18668,
				"method": "rhf"
			},
			{
				"type": "occ",
				"energy": -0.17906,
				"method": "rhf"
			},
			{
				"type": "unocc",
				"energy": 0.00568,
				"method": "rhf"
			},
			{
				"type": "unocc",
				"energy": 0.01436,
				"method": "rhf"
			},
			{
				"type": "unocc",
				"energy": 0.0203,
				"method": "rhf"
			},
			{
				"type": "unocc",
				"energy": 0.03112,
				"method": "rhf"
			},
			{
				"type": "unocc",
				"energy": 0.08242,
				"method": "rhf"
			}
		],
		"cosmo_sigma_profile": { 
			"-0.025": 0.0,
			"-0.024": 0.0,
			"-0.023": 0.0,
			"-0.022": 0.0,
			"-0.021": 0.0,
			"-0.02": 0.0,
			"-0.019": 0.0,
			"-0.018": 0.0,
			"-0.017": 0.0,
			"-0.016": 0.0,
			"-0.015": 0.0,
			"-0.014": 0.0,
			"-0.013": 0.0,
			"-0.012": 0.20297589625,
			"-0.011": 1.25827358358,
			"-0.01": 1.00219408754,
			"-0.009": 1.48543121923,
			"-0.008": 1.66180400919,
			"-0.007": 2.09070076252,
			"-0.006": 4.37771123247,
			"-0.005": 14.449458401,
			"-0.004": 28.0347903859,
			"-0.003": 41.8960814835,
			"-0.002": 52.1828944412,
			"-0.001": 46.5670716277,
			"0.0": 33.4247152862,
			"0.001": 21.3122891963,
			"0.002": 16.1789980858,
			"0.003": 12.626665794,
			"0.004": 14.4315381848,
			"0.005": 14.4317019455,
			"0.006": 15.7214902735,
			"0.007": 16.8451801575,
			"0.008": 10.6863230657,
			"0.009": 1.60430337186,
			"0.01": 0.605395758659,
			"0.011": 0.423292389394,
			"0.012": 0.390875627848,
			"0.013": 0.102315731682,
			"0.014": 0.0,
			"0.015": 0.0,
			"0.016": 0.0,
			"0.017": 0.0,
			"0.018": 0.0,
			"0.019": 0.0,
			"0.02": 0.0,
			"0.021": 0.0,
			"0.022": 0.0,
			"0.023": 0.0,
			"0.024": 0.0,
			"0.025": 0.0
		}
	}
}
