{
	 "smiles": "NC1=C(N=CC=C1)C(F)(F)F", 
	 "Tm": 343.15, 
	 "num_atms": 16, 
	 "gaussian": { 
		 "optdone": 1, 
		 "sigma_profile": "yes", 
		 "theory": "DFT", 
		 "functional": "B3LYP", 
		 "basiset": "6-31G**", 
		 "properties": { 
			 "R2extent": 2325.762, 
			 "electric_dipole_moment_norm": 4.26766763584, 
			 "electric_quadrupole_moment_norm": 13.6490929395, 
			 "total_energy": -640.677054508, 
			 "HOMO_LUMO_gap": 0.1907, 
			 "cosmo_polarized_energy": -10.06, 
			 "cosmo_cavitation_energy": 21.35, 
			 "cosmo_dispersion_energy": -15.7, 
			 "cosmo_repulsion_energy": 1.21, 
			 "cosmo_total_nonelectrostatic_energy": 6.86, 
			 "SMD_solvation_energy": 3.65 
		},
		"coords": [
			{
				"x": 0.8425069422,
				"y": -0.6893097009,
				"z": -3.5746386579,
				"element": "N" 
			},
			{
				"x": 0.9291632574,
				"y": 0.0614421056,
				"z": -2.4182175062,
				"element": "C" 
			},
			{
				"x": 0.7107257249,
				"y": -0.4832145764,
				"z": -1.1285896693,
				"element": "C" 
			},
			{
				"x": 0.8360043946,
				"y": 0.2105746967,
				"z": 0.0015398894,
				"element": "N" 
			},
			{
				"x": 1.1850013962,
				"y": 1.4956629,
				"z": -0.0660930772,
				"element": "C" 
			},
			{
				"x": 1.4273882841,
				"y": 2.1378834263,
				"z": -1.283523435,
				"element": "C" 
			},
			{
				"x": 1.2979355187,
				"y": 1.4185355507,
				"z": -2.4623842097,
				"element": "C" 
			},
			{
				"x": 0.3546358768,
				"y": -1.945725123,
				"z": -0.9707652591,
				"element": "C" 
			},
			{
				"x": -0.0017434745,
				"y": -2.2664101308,
				"z": 0.2723501823,
				"element": "F" 
			},
			{
				"x": 1.3840976887,
				"y": -2.7478540336,
				"z": -1.3328159151,
				"element": "F" 
			},
			{
				"x": -0.6885673858,
				"y": -2.2870270179,
				"z": -1.7936714138,
				"element": "F" 
			},
			{
				"x": 0.7559344675,
				"y": -0.1697074517,
				"z": -4.4355374048,
				"element": "H" 
			},
			{
				"x": 0.2710336328,
				"y": -1.52000567,
				"z": -3.5382725942,
				"element": "H" 
			},
			{
				"x": 1.274146407,
				"y": 2.0265163389,
				"z": 0.8783179316,
				"element": "H" 
			},
			{
				"x": 1.7101635853,
				"y": 3.1858938613,
				"z": -1.3057320759,
				"element": "H" 
			},
			{
				"x": 1.4804736841,
				"y": 1.8908448248,
				"z": -3.4243667851,
				"element": "H" 
			}
		],
		 "valence_orbital": [ 
			{
				"type": "occ",
				"energy": -0.36732,
				"method": "rhf"
			},
			{
				"type": "occ",
				"energy": -0.34494,
				"method": "rhf"
			},
			{
				"type": "occ",
				"energy": -0.28824,
				"method": "rhf"
			},
			{
				"type": "occ",
				"energy": -0.26441,
				"method": "rhf"
			},
			{
				"type": "occ",
				"energy": -0.22605,
				"method": "rhf"
			},
			{
				"type": "unocc",
				"energy": -0.03535,
				"method": "rhf"
			},
			{
				"type": "unocc",
				"energy": -0.0094,
				"method": "rhf"
			},
			{
				"type": "unocc",
				"energy": 0.07509,
				"method": "rhf"
			},
			{
				"type": "unocc",
				"energy": 0.0955,
				"method": "rhf"
			},
			{
				"type": "unocc",
				"energy": 0.12366,
				"method": "rhf"
			}
		],
		"cosmo_sigma_profile": { 
			"-0.025": 0.0,
			"-0.024": 0.0,
			"-0.023": 0.0,
			"-0.022": 0.0,
			"-0.021": 0.0,
			"-0.02": 0.0,
			"-0.019": 0.0,
			"-0.018": 0.0,
			"-0.017": 0.0,
			"-0.016": 0.0,
			"-0.015": 0.0,
			"-0.014": 0.766284067261,
			"-0.013": 1.60813189476,
			"-0.012": 1.5687938677,
			"-0.011": 3.17039744967,
			"-0.01": 2.90506415099,
			"-0.009": 2.04336153474,
			"-0.008": 3.37400597936,
			"-0.007": 5.0919169019,
			"-0.006": 7.70974836889,
			"-0.005": 8.3927604923,
			"-0.004": 5.7276458615,
			"-0.003": 5.71146747681,
			"-0.002": 5.95216334119,
			"-0.001": 7.72048484639,
			"0.0": 12.9015395347,
			"0.001": 14.6455894659,
			"0.002": 27.8569239529,
			"0.003": 29.2758568035,
			"0.004": 5.95500425502,
			"0.005": 3.36219622015,
			"0.006": 2.87672608365,
			"0.007": 1.7568932484,
			"0.008": 2.6739506151,
			"0.009": 2.18075838042,
			"0.01": 1.02636490517,
			"0.011": 1.91414526444,
			"0.012": 0.843546358067,
			"0.013": 1.10576890352,
			"0.014": 0.79000419004,
			"0.015": 0.355151177472,
			"0.016": 0.0,
			"0.017": 0.0,
			"0.018": 0.0,
			"0.019": 0.0,
			"0.02": 0.0,
			"0.021": 0.0,
			"0.022": 0.0,
			"0.023": 0.0,
			"0.024": 0.0,
			"0.025": 0.0
		}
	}
}
