{
	 "smiles": "[O-][N+](=O)C1=CC=CC=C1F", 
	 "Tm": 266.15, 
	 "num_atms": 14, 
	 "gaussian": { 
		 "optdone": 1, 
		 "sigma_profile": "yes", 
		 "theory": "DFT", 
		 "functional": "B3LYP", 
		 "basiset": "6-31G**", 
		 "properties": { 
			 "R2extent": 2720.763, 
			 "electric_dipole_moment_norm": 5.11587077632, 
			 "electric_quadrupole_moment_norm": 17.4113793503, 
			 "total_energy": -535.970101511, 
			 "HOMO_LUMO_gap": 0.18334, 
			 "cosmo_polarized_energy": -8.59, 
			 "cosmo_cavitation_energy": 19.55, 
			 "cosmo_dispersion_energy": -14.52, 
			 "cosmo_repulsion_energy": 1.15, 
			 "cosmo_total_nonelectrostatic_energy": 6.18, 
			 "SMD_solvation_energy": 6.16 
		},
		"coords": [
			{
				"x": 3.2161546201,
				"y": 0.1438551117,
				"z": -3.3262321927,
				"element": "O" 
			},
			{
				"x": 2.1772043648,
				"y": -0.514018591,
				"z": -3.2509277469,
				"element": "N" 
			},
			{
				"x": 1.6284220685,
				"y": -1.0685066418,
				"z": -4.1985114854,
				"element": "O" 
			},
			{
				"x": 1.5549069443,
				"y": -0.6285418922,
				"z": -1.9243649332,
				"element": "C" 
			},
			{
				"x": 2.0770032205,
				"y": 0.1487613087,
				"z": -0.8860029259,
				"element": "C" 
			},
			{
				"x": 1.5187915905,
				"y": 0.0862276817,
				"z": 0.3850337774,
				"element": "C" 
			},
			{
				"x": 0.4340459865,
				"y": -0.7631576903,
				"z": 0.6253656421,
				"element": "C" 
			},
			{
				"x": -0.0879200459,
				"y": -1.545642144,
				"z": -0.4014260913,
				"element": "C" 
			},
			{
				"x": 0.4674995752,
				"y": -1.4799151785,
				"z": -1.6769717155,
				"element": "C" 
			},
			{
				"x": -0.0601430793,
				"y": -2.2559131331,
				"z": -2.6242926152,
				"element": "F" 
			},
			{
				"x": 2.9199969627,
				"y": 0.7901614124,
				"z": -1.1104284794,
				"element": "H" 
			},
			{
				"x": 1.926885442,
				"y": 0.6958991847,
				"z": 1.1839672412,
				"element": "H" 
			},
			{
				"x": -0.0070623456,
				"y": -0.8192105405,
				"z": 1.6157088666,
				"element": "H" 
			},
			{
				"x": -0.9244853043,
				"y": -2.2169988877,
				"z": -0.2421173418,
				"element": "H" 
			}
		],
		 "valence_orbital": [ 
			{
				"type": "occ",
				"energy": -0.31052,
				"method": "rhf"
			},
			{
				"type": "occ",
				"energy": -0.30807,
				"method": "rhf"
			},
			{
				"type": "occ",
				"energy": -0.29509,
				"method": "rhf"
			},
			{
				"type": "occ",
				"energy": -0.28857,
				"method": "rhf"
			},
			{
				"type": "occ",
				"energy": -0.27522,
				"method": "rhf"
			},
			{
				"type": "unocc",
				"energy": -0.09188,
				"method": "rhf"
			},
			{
				"type": "unocc",
				"energy": -0.03016,
				"method": "rhf"
			},
			{
				"type": "unocc",
				"energy": -0.00757,
				"method": "rhf"
			},
			{
				"type": "unocc",
				"energy": 0.05784,
				"method": "rhf"
			},
			{
				"type": "unocc",
				"energy": 0.11572,
				"method": "rhf"
			}
		],
		"cosmo_sigma_profile": { 
			"-0.025": 0.0,
			"-0.024": 0.0,
			"-0.023": 0.0,
			"-0.022": 0.0,
			"-0.021": 0.0,
			"-0.02": 0.0,
			"-0.019": 0.0,
			"-0.018": 0.0,
			"-0.017": 0.0,
			"-0.016": 0.0,
			"-0.015": 0.0,
			"-0.014": 0.0,
			"-0.013": 0.0,
			"-0.012": 0.0,
			"-0.011": 0.0,
			"-0.01": 0.0,
			"-0.009": 0.515935180801,
			"-0.008": 5.41991397238,
			"-0.007": 9.89716341998,
			"-0.006": 10.4882821651,
			"-0.005": 7.98990189612,
			"-0.004": 8.30690750409,
			"-0.003": 9.26964330324,
			"-0.002": 11.6751527194,
			"-0.001": 13.0700244776,
			"0.0": 12.7504286821,
			"0.001": 12.3716746759,
			"0.002": 11.177267976,
			"0.003": 8.65585836737,
			"0.004": 3.2772494366,
			"0.005": 3.71538324821,
			"0.006": 4.79003795879,
			"0.007": 8.2155070971,
			"0.008": 9.22651806551,
			"0.009": 4.79218650336,
			"0.01": 2.19008202641,
			"0.011": 0.0750060909292,
			"0.012": 0.0,
			"0.013": 0.0,
			"0.014": 0.0,
			"0.015": 0.0,
			"0.016": 0.0,
			"0.017": 0.0,
			"0.018": 0.0,
			"0.019": 0.0,
			"0.02": 0.0,
			"0.021": 0.0,
			"0.022": 0.0,
			"0.023": 0.0,
			"0.024": 0.0,
			"0.025": 0.0
		}
	}
}
