{
	 "smiles": "CCOC(=O)C1=C(C)C2=C(S1)N=C(C)N=C2Cl", 
	 "Tm": 419.15, 
	 "num_atms": 28, 
	 "gaussian": { 
		 "optdone": 1, 
		 "sigma_profile": "yes", 
		 "theory": "DFT", 
		 "functional": "B3LYP", 
		 "basiset": "6-31G**", 
		 "properties": { 
			 "R2extent": 6167.3252, 
			 "electric_dipole_moment_norm": 1.94924414582, 
			 "electric_quadrupole_moment_norm": 9.64254709659, 
			 "total_energy": -1544.16062609, 
			 "HOMO_LUMO_gap": 0.16638, 
			 "cosmo_polarized_energy": -8.14, 
			 "cosmo_cavitation_energy": 35.28, 
			 "cosmo_dispersion_energy": -26.38, 
			 "cosmo_repulsion_energy": 2.02, 
			 "cosmo_total_nonelectrostatic_energy": 10.92, 
			 "SMD_solvation_energy": 3.62 
		},
		"coords": [
			{
				"x": 2.9440119961,
				"y": -4.9998365663,
				"z": 1.5804726952,
				"element": "C" 
			},
			{
				"x": 1.725510861,
				"y": -5.0783773587,
				"z": 0.6737967271,
				"element": "C" 
			},
			{
				"x": 1.3354698622,
				"y": -3.7647038061,
				"z": 0.2019518932,
				"element": "O" 
			},
			{
				"x": 0.5219587733,
				"y": -3.0418823911,
				"z": 1.0060336421,
				"element": "C" 
			},
			{
				"x": 0.1072249972,
				"y": -3.441710356,
				"z": 2.0782427955,
				"element": "O" 
			},
			{
				"x": 0.2224138216,
				"y": -1.7301896513,
				"z": 0.3901194909,
				"element": "C" 
			},
			{
				"x": -0.5674875425,
				"y": -0.7208019036,
				"z": 0.8969536646,
				"element": "C" 
			},
			{
				"x": -1.2921953326,
				"y": -0.776843146,
				"z": 2.2135404182,
				"element": "C" 
			},
			{
				"x": -0.6027135583,
				"y": 0.4024606056,
				"z": -0.0156609271,
				"element": "C" 
			},
			{
				"x": 0.1728841568,
				"y": 0.1894635797,
				"z": -1.186145237,
				"element": "C" 
			},
			{
				"x": 0.9431657693,
				"y": -1.37005958,
				"z": -1.1818501367,
				"element": "S" 
			},
			{
				"x": 0.3206200597,
				"y": 1.053503558,
				"z": -2.1923275133,
				"element": "N" 
			},
			{
				"x": -0.3319345081,
				"y": 2.2061810589,
				"z": -2.050763714,
				"element": "C" 
			},
			{
				"x": -0.2166641319,
				"y": 3.2324602572,
				"z": -3.1403616106,
				"element": "C" 
			},
			{
				"x": -1.1047800574,
				"y": 2.535976375,
				"z": -0.9871718181,
				"element": "N" 
			},
			{
				"x": -1.2315279078,
				"y": 1.6669628268,
				"z": -0.0133149972,
				"element": "C" 
			},
			{
				"x": -2.2533306769,
				"y": 2.1812080605,
				"z": 1.3243533006,
				"element": "Cl" 
			},
			{
				"x": 2.7089991365,
				"y": -4.4507853141,
				"z": 2.4954725027,
				"element": "H" 
			},
			{
				"x": 3.7768833524,
				"y": -4.5051633605,
				"z": 1.0725219671,
				"element": "H" 
			},
			{
				"x": 3.261973947,
				"y": -6.0100270737,
				"z": 1.8588587461,
				"element": "H" 
			},
			{
				"x": 1.9379579452,
				"y": -5.638180536,
				"z": -0.2396011995,
				"element": "H" 
			},
			{
				"x": 0.8750812683,
				"y": -5.530190884,
				"z": 1.1893442845,
				"element": "H" 
			},
			{
				"x": -2.3695740711,
				"y": -0.6565445891,
				"z": 2.0639706273,
				"element": "H" 
			},
			{
				"x": -0.9710492848,
				"y": 0.0427227993,
				"z": 2.8636728793,
				"element": "H" 
			},
			{
				"x": -1.1035971578,
				"y": -1.7247947393,
				"z": 2.711495779,
				"element": "H" 
			},
			{
				"x": -1.2074164446,
				"y": 3.4687556245,
				"z": -3.5419335767,
				"element": "H" 
			},
			{
				"x": 0.1944132278,
				"y": 4.164260864,
				"z": -2.7385471359,
				"element": "H" 
			},
			{
				"x": 0.4250014991,
				"y": 2.8636356462,
				"z": -3.9407235471,
				"element": "H" 
			}
		],
		 "valence_orbital": [ 
			{
				"type": "occ",
				"energy": -0.3093,
				"method": "rhf"
			},
			{
				"type": "occ",
				"energy": -0.2847,
				"method": "rhf"
			},
			{
				"type": "occ",
				"energy": -0.27414,
				"method": "rhf"
			},
			{
				"type": "occ",
				"energy": -0.26911,
				"method": "rhf"
			},
			{
				"type": "occ",
				"energy": -0.24358,
				"method": "rhf"
			},
			{
				"type": "unocc",
				"energy": -0.0772,
				"method": "rhf"
			},
			{
				"type": "unocc",
				"energy": -0.04538,
				"method": "rhf"
			},
			{
				"type": "unocc",
				"energy": -0.0093,
				"method": "rhf"
			},
			{
				"type": "unocc",
				"energy": 0.00539,
				"method": "rhf"
			},
			{
				"type": "unocc",
				"energy": 0.03497,
				"method": "rhf"
			}
		],
		"cosmo_sigma_profile": { 
			"-0.025": 0.0,
			"-0.024": 0.0,
			"-0.023": 0.0,
			"-0.022": 0.0,
			"-0.021": 0.0,
			"-0.02": 0.0,
			"-0.019": 0.0,
			"-0.018": 0.0,
			"-0.017": 0.0,
			"-0.016": 0.0,
			"-0.015": 0.0,
			"-0.014": 0.0,
			"-0.013": 0.0,
			"-0.012": 0.0,
			"-0.011": 0.0,
			"-0.01": 0.0,
			"-0.009": 0.0,
			"-0.008": 0.0,
			"-0.007": 0.162151833093,
			"-0.006": 5.11934111227,
			"-0.005": 15.0058390855,
			"-0.004": 25.0805043406,
			"-0.003": 34.4286123796,
			"-0.002": 34.8632843823,
			"-0.001": 38.8903032125,
			"0.0": 32.867419045,
			"0.001": 20.0519284364,
			"0.002": 17.4285522261,
			"0.003": 16.7592501349,
			"0.004": 10.6932500052,
			"0.005": 7.36616414417,
			"0.006": 6.56475002357,
			"0.007": 3.4740636783,
			"0.008": 3.04535060804,
			"0.009": 3.49874746787,
			"0.01": 4.13450533907,
			"0.011": 3.85921144243,
			"0.012": 1.83399909578,
			"0.013": 0.750970735039,
			"0.014": 0.0324055581483,
			"0.015": 0.0,
			"0.016": 0.0,
			"0.017": 0.0,
			"0.018": 0.0,
			"0.019": 0.0,
			"0.02": 0.0,
			"0.021": 0.0,
			"0.022": 0.0,
			"0.023": 0.0,
			"0.024": 0.0,
			"0.025": 0.0
		}
	}
}
