{
	 "smiles": "OC(=O)C1=C(Br)C(=CC(F)=C1)[N+]([O-])=O", 
	 "Tm": 451.15, 
	 "num_atms": 17, 
	 "gaussian": { 
		 "optdone": 1, 
		 "sigma_profile": "yes", 
		 "theory": "DFT", 
		 "functional": "B3LYP", 
		 "basiset": "6-31G**", 
		 "properties": { 
			 "R2extent": 4101.1987, 
			 "electric_dipole_moment_norm": 1.29908694859, 
			 "electric_quadrupole_moment_norm": 17.5685593134, 
			 "total_energy": -3295.31950067, 
			 "HOMO_LUMO_gap": 0.17489, 
			 "cosmo_polarized_energy": -13.1, 
			 "cosmo_cavitation_energy": 25.58, 
			 "cosmo_dispersion_energy": -19.14, 
			 "cosmo_repulsion_energy": 1.45, 
			 "cosmo_total_nonelectrostatic_energy": 7.89, 
			 "SMD_solvation_energy": 7.5 
		},
		"coords": [
			{
				"x": 0.770633282,
				"y": -0.4825067006,
				"z": 3.9065767532,
				"element": "O" 
			},
			{
				"x": 0.462970527,
				"y": 0.5010911268,
				"z": 3.0541140428,
				"element": "C" 
			},
			{
				"x": 0.3828697958,
				"y": 1.6438656354,
				"z": 3.4412114733,
				"element": "O" 
			},
			{
				"x": 0.2675206608,
				"y": 0.1910518112,
				"z": 1.5681386652,
				"element": "C" 
			},
			{
				"x": -0.0320428121,
				"y": -1.0406872054,
				"z": 0.949948019,
				"element": "C" 
			},
			{
				"x": -0.204540765,
				"y": -2.6563677561,
				"z": 1.9614212245,
				"element": "Br" 
			},
			{
				"x": -0.1676629707,
				"y": -1.0842614954,
				"z": -0.4469681973,
				"element": "C" 
			},
			{
				"x": 0.0089735211,
				"y": 0.0450462082,
				"z": -1.2404276716,
				"element": "C" 
			},
			{
				"x": 0.2789040013,
				"y": 1.2495329582,
				"z": -0.6116609294,
				"element": "C" 
			},
			{
				"x": 0.4282694412,
				"y": 2.3532749618,
				"z": -1.3555559547,
				"element": "F" 
			},
			{
				"x": 0.3976396126,
				"y": 1.333543442,
				"z": 0.7645016319,
				"element": "C" 
			},
			{
				"x": -0.5187783055,
				"y": -2.314674474,
				"z": -1.1920403021,
				"element": "N" 
			},
			{
				"x": -1.362747643,
				"y": -3.0589428152,
				"z": -0.706573358,
				"element": "O" 
			},
			{
				"x": 0.0412729626,
				"y": -2.475508053,
				"z": -2.2731570333,
				"element": "O" 
			},
			{
				"x": 0.7545114231,
				"y": -1.355935746,
				"z": 3.4754520385,
				"element": "H" 
			},
			{
				"x": -0.0690579006,
				"y": -0.026913955,
				"z": -2.3177327281,
				"element": "H" 
			},
			{
				"x": 0.5930651695,
				"y": 2.283192057,
				"z": 1.247352326,
				"element": "H" 
			}
		],
		 "valence_orbital": [ 
			{
				"type": "occ",
				"energy": -0.33113,
				"method": "rhf"
			},
			{
				"type": "occ",
				"energy": -0.31585,
				"method": "rhf"
			},
			{
				"type": "occ",
				"energy": -0.3038,
				"method": "rhf"
			},
			{
				"type": "occ",
				"energy": -0.29594,
				"method": "rhf"
			},
			{
				"type": "occ",
				"energy": -0.28704,
				"method": "rhf"
			},
			{
				"type": "unocc",
				"energy": -0.11215,
				"method": "rhf"
			},
			{
				"type": "unocc",
				"energy": -0.08551,
				"method": "rhf"
			},
			{
				"type": "unocc",
				"energy": -0.048,
				"method": "rhf"
			},
			{
				"type": "unocc",
				"energy": -0.04051,
				"method": "rhf"
			},
			{
				"type": "unocc",
				"energy": 0.02082,
				"method": "rhf"
			}
		],
		"cosmo_sigma_profile": { 
			"-0.025": 0.0,
			"-0.024": 0.0,
			"-0.023": 0.0,
			"-0.022": 0.0,
			"-0.021": 0.0,
			"-0.02": 0.0,
			"-0.019": 0.0,
			"-0.018": 0.0,
			"-0.017": 0.0,
			"-0.016": 0.0,
			"-0.015": 0.0,
			"-0.014": 0.0862049519891,
			"-0.013": 0.592815949721,
			"-0.012": 1.55559711057,
			"-0.011": 1.65269533797,
			"-0.01": 2.04284008508,
			"-0.009": 5.0682909728,
			"-0.008": 5.16239949008,
			"-0.007": 8.82649553019,
			"-0.006": 8.09058882115,
			"-0.005": 11.3353254703,
			"-0.004": 15.2478642718,
			"-0.003": 23.490191917,
			"-0.002": 14.5360423579,
			"-0.001": 11.0016280781,
			"0.0": 9.43191656548,
			"0.001": 10.6461182617,
			"0.002": 11.0759900116,
			"0.003": 13.257394031,
			"0.004": 4.72519049536,
			"0.005": 7.49414266275,
			"0.006": 11.6415637683,
			"0.007": 9.54994691459,
			"0.008": 7.09639128893,
			"0.009": 5.6956506863,
			"0.01": 5.00745292821,
			"0.011": 4.0914722431,
			"0.012": 1.61823692907,
			"0.013": 0.0850007570121,
			"0.014": 0.0,
			"0.015": 0.0,
			"0.016": 0.0,
			"0.017": 0.0,
			"0.018": 0.0,
			"0.019": 0.0,
			"0.02": 0.0,
			"0.021": 0.0,
			"0.022": 0.0,
			"0.023": 0.0,
			"0.024": 0.0,
			"0.025": 0.0
		}
	}
}
