{
	 "smiles": "CC(=O)NC1=CC(N)=C(C)C=C1", 
	 "Tm": 408.15, 
	 "num_atms": 24, 
	 "gaussian": { 
		 "optdone": 1, 
		 "sigma_profile": "yes", 
		 "theory": "DFT", 
		 "functional": "B3LYP", 
		 "basiset": "6-31G**", 
		 "properties": { 
			 "R2extent": 3065.2627, 
			 "electric_dipole_moment_norm": 4.73854771528, 
			 "electric_quadrupole_moment_norm": 15.9349742821, 
			 "total_energy": -534.944250764, 
			 "HOMO_LUMO_gap": 0.19805, 
			 "cosmo_polarized_energy": -15.08, 
			 "cosmo_cavitation_energy": 27.28, 
			 "cosmo_dispersion_energy": -19.84, 
			 "cosmo_repulsion_energy": 1.59, 
			 "cosmo_total_nonelectrostatic_energy": 9.03, 
			 "SMD_solvation_energy": 5.46 
		},
		"coords": [
			{
				"x": 2.093053101,
				"y": 1.895551103,
				"z": 2.123548559,
				"element": "C" 
			},
			{
				"x": 0.6517172441,
				"y": 1.9336255736,
				"z": 2.5979516708,
				"element": "C" 
			},
			{
				"x": 0.229409839,
				"y": 2.8419968018,
				"z": 3.3006613243,
				"element": "O" 
			},
			{
				"x": -0.195773738,
				"y": 0.9023627185,
				"z": 2.2348684976,
				"element": "N" 
			},
			{
				"x": 0.0146966449,
				"y": -0.2719988549,
				"z": 1.4726802982,
				"element": "C" 
			},
			{
				"x": 0.723873929,
				"y": -0.256408234,
				"z": 0.2677835636,
				"element": "C" 
			},
			{
				"x": 0.902074357,
				"y": -1.4316803401,
				"z": -0.4784094415,
				"element": "C" 
			},
			{
				"x": 1.5731566456,
				"y": -1.3809174244,
				"z": -1.7020966311,
				"element": "N" 
			},
			{
				"x": 0.3304477457,
				"y": -2.6455344342,
				"z": -0.0324515583,
				"element": "C" 
			},
			{
				"x": 0.4879046114,
				"y": -3.9079231371,
				"z": -0.842247911,
				"element": "C" 
			},
			{
				"x": -0.3947778283,
				"y": -2.6285875744,
				"z": 1.1605005248,
				"element": "C" 
			},
			{
				"x": -0.5546440416,
				"y": -1.4716028246,
				"z": 1.9195905858,
				"element": "C" 
			},
			{
				"x": 2.1840934034,
				"y": 2.3951778049,
				"z": 1.1530895565,
				"element": "H" 
			},
			{
				"x": 2.6846279761,
				"y": 2.4602723355,
				"z": 2.8451866586,
				"element": "H" 
			},
			{
				"x": 2.4842984706,
				"y": 0.8811775262,
				"z": 2.0226235465,
				"element": "H" 
			},
			{
				"x": -1.0878186735,
				"y": 0.9766890261,
				"z": 2.7087309566,
				"element": "H" 
			},
			{
				"x": 1.1152768803,
				"y": 0.6786201343,
				"z": -0.1188103073,
				"element": "H" 
			},
			{
				"x": 2.0102823867,
				"y": -2.2420044654,
				"z": -1.9980028004,
				"element": "H" 
			},
			{
				"x": 2.1845748056,
				"y": -0.5857610921,
				"z": -1.8240675586,
				"element": "H" 
			},
			{
				"x": 1.5403254986,
				"y": -4.2138039475,
				"z": -0.9344879275,
				"element": "H" 
			},
			{
				"x": -0.0475819915,
				"y": -4.7399413308,
				"z": -0.3781940012,
				"element": "H" 
			},
			{
				"x": 0.0993248085,
				"y": -3.7857457941,
				"z": -1.8612764635,
				"element": "H" 
			},
			{
				"x": -0.8403462255,
				"y": -3.5562045887,
				"z": 1.5114835405,
				"element": "H" 
			},
			{
				"x": -1.1029958491,
				"y": -1.4955589818,
				"z": 2.8563453176,
				"element": "H" 
			}
		],
		 "valence_orbital": [ 
			{
				"type": "occ",
				"energy": -0.32089,
				"method": "rhf"
			},
			{
				"type": "occ",
				"energy": -0.277,
				"method": "rhf"
			},
			{
				"type": "occ",
				"energy": -0.24512,
				"method": "rhf"
			},
			{
				"type": "occ",
				"energy": -0.22516,
				"method": "rhf"
			},
			{
				"type": "occ",
				"energy": -0.20309,
				"method": "rhf"
			},
			{
				"type": "unocc",
				"energy": -0.00504,
				"method": "rhf"
			},
			{
				"type": "unocc",
				"energy": 0.00716,
				"method": "rhf"
			},
			{
				"type": "unocc",
				"energy": 0.04163,
				"method": "rhf"
			},
			{
				"type": "unocc",
				"energy": 0.0707,
				"method": "rhf"
			},
			{
				"type": "unocc",
				"energy": 0.09159,
				"method": "rhf"
			}
		],
		"cosmo_sigma_profile": { 
			"-0.025": 0.0,
			"-0.024": 0.0,
			"-0.023": 0.0,
			"-0.022": 0.0,
			"-0.021": 0.0,
			"-0.02": 0.0,
			"-0.019": 0.0,
			"-0.018": 0.0,
			"-0.017": 0.0,
			"-0.016": 0.0,
			"-0.015": 0.0,
			"-0.014": 0.257141248711,
			"-0.013": 0.837273199286,
			"-0.012": 2.66038292632,
			"-0.011": 3.55724854817,
			"-0.01": 3.33828791611,
			"-0.009": 4.22739449872,
			"-0.008": 4.78779806436,
			"-0.007": 6.39522955624,
			"-0.006": 7.39618553789,
			"-0.005": 11.8467030309,
			"-0.004": 15.2937321128,
			"-0.003": 17.6067129193,
			"-0.002": 17.6950786493,
			"-0.001": 18.2606928948,
			"0.0": 13.9409578256,
			"0.001": 12.5188587088,
			"0.002": 9.36553839779,
			"0.003": 8.92836644203,
			"0.004": 9.68257790132,
			"0.005": 8.38765678015,
			"0.006": 10.1151647022,
			"0.007": 5.02741900406,
			"0.008": 2.54757380416,
			"0.009": 1.55017375341,
			"0.01": 1.9735782936,
			"0.011": 2.28733305764,
			"0.012": 2.68891656042,
			"0.013": 4.29967466326,
			"0.014": 5.91577045553,
			"0.015": 1.46791419947,
			"0.016": 0.0163380637415,
			"0.017": 0.0,
			"0.018": 0.0,
			"0.019": 0.0,
			"0.02": 0.0,
			"0.021": 0.0,
			"0.022": 0.0,
			"0.023": 0.0,
			"0.024": 0.0,
			"0.025": 0.0
		}
	}
}
