{
	 "smiles": "COC(=O)OC", 
	 "Tm": 275.65, 
	 "num_atms": 12, 
	 "gaussian": { 
		 "optdone": 1, 
		 "sigma_profile": "yes", 
		 "theory": "DFT", 
		 "functional": "B3LYP", 
		 "basiset": "6-31G**", 
		 "properties": { 
			 "R2extent": 1164.3709, 
			 "electric_dipole_moment_norm": 0.29824486584, 
			 "electric_quadrupole_moment_norm": 10.055464489, 
			 "total_energy": -343.609980049, 
			 "HOMO_LUMO_gap": 0.32593, 
			 "cosmo_polarized_energy": -7.15, 
			 "cosmo_cavitation_energy": 16.14, 
			 "cosmo_dispersion_energy": -12.11, 
			 "cosmo_repulsion_energy": 1.06, 
			 "cosmo_total_nonelectrostatic_energy": 5.09, 
			 "SMD_solvation_energy": 5.93 
		},
		"coords": [
			{
				"x": -0.378780217,
				"y": 0.2098679411,
				"z": -0.8384187562,
				"element": "C" 
			},
			{
				"x": 0.4757814171,
				"y": 0.4232046698,
				"z": 0.2950444557,
				"element": "O" 
			},
			{
				"x": 0.0789631819,
				"y": 1.4108793337,
				"z": 1.1115368011,
				"element": "C" 
			},
			{
				"x": -0.9044735956,
				"y": 2.1046467578,
				"z": 0.9663723463,
				"element": "O" 
			},
			{
				"x": 0.9638941609,
				"y": 1.4961556416,
				"z": 2.1161400736,
				"element": "O" 
			},
			{
				"x": 0.6715763397,
				"y": 2.5187336356,
				"z": 3.0802118992,
				"element": "C" 
			},
			{
				"x": -0.4298777477,
				"y": 1.1077601172,
				"z": -1.4595107922,
				"element": "H" 
			},
			{
				"x": -1.3889226987,
				"y": -0.0566557539,
				"z": -0.5172403542,
				"element": "H" 
			},
			{
				"x": 0.0743131624,
				"y": -0.6118287067,
				"z": -1.3926783914,
				"element": "H" 
			},
			{
				"x": -0.2983710873,
				"y": 2.340871633,
				"z": 3.5515347007,
				"element": "H" 
			},
			{
				"x": 1.470985755,
				"y": 2.4584186275,
				"z": 3.8184450459,
				"element": "H" 
			},
			{
				"x": 0.6606113293,
				"y": 3.5044461033,
				"z": 2.6081629716,
				"element": "H" 
			}
		],
		 "valence_orbital": [ 
			{
				"type": "occ",
				"energy": -0.37686,
				"method": "rhf"
			},
			{
				"type": "occ",
				"energy": -0.35715,
				"method": "rhf"
			},
			{
				"type": "occ",
				"energy": -0.30452,
				"method": "rhf"
			},
			{
				"type": "occ",
				"energy": -0.30327,
				"method": "rhf"
			},
			{
				"type": "occ",
				"energy": -0.28412,
				"method": "rhf"
			},
			{
				"type": "unocc",
				"energy": 0.04181,
				"method": "rhf"
			},
			{
				"type": "unocc",
				"energy": 0.09564,
				"method": "rhf"
			},
			{
				"type": "unocc",
				"energy": 0.11533,
				"method": "rhf"
			},
			{
				"type": "unocc",
				"energy": 0.11993,
				"method": "rhf"
			},
			{
				"type": "unocc",
				"energy": 0.15113,
				"method": "rhf"
			}
		],
		"cosmo_sigma_profile": { 
			"-0.025": 0.0,
			"-0.024": 0.0,
			"-0.023": 0.0,
			"-0.022": 0.0,
			"-0.021": 0.0,
			"-0.02": 0.0,
			"-0.019": 0.0,
			"-0.018": 0.0,
			"-0.017": 0.0,
			"-0.016": 0.0,
			"-0.015": 0.0,
			"-0.014": 0.0,
			"-0.013": 0.0,
			"-0.012": 0.0,
			"-0.011": 0.0,
			"-0.01": 0.0,
			"-0.009": 0.0,
			"-0.008": 0.0,
			"-0.007": 2.56919151818,
			"-0.006": 11.6307722749,
			"-0.005": 13.8337881317,
			"-0.004": 19.0571958719,
			"-0.003": 16.4471014116,
			"-0.002": 8.79997432851,
			"-0.001": 4.58323789699,
			"0.0": 4.49842928157,
			"0.001": 4.23711953837,
			"0.002": 3.97259281989,
			"0.003": 3.64981290206,
			"0.004": 4.04414487109,
			"0.005": 2.32724189575,
			"0.006": 3.42038737356,
			"0.007": 3.20625411186,
			"0.008": 4.14141176054,
			"0.009": 5.15761095861,
			"0.01": 3.96626366849,
			"0.011": 3.07345004778,
			"0.012": 4.59462293546,
			"0.013": 0.168134707249,
			"0.014": 0.0,
			"0.015": 0.0,
			"0.016": 0.0,
			"0.017": 0.0,
			"0.018": 0.0,
			"0.019": 0.0,
			"0.02": 0.0,
			"0.021": 0.0,
			"0.022": 0.0,
			"0.023": 0.0,
			"0.024": 0.0,
			"0.025": 0.0
		}
	}
}
