{
	 "smiles": "OC(=O)C(CC1=CNC2=C1C=CC=C2)NS(=O)(=O)C1=CC(=C(Cl)C=C1)C(F)(F)F", 
	 "Tm": 459.15, 
	 "num_atms": 43, 
	 "gaussian": { 
		 "optdone": 1, 
		 "sigma_profile": "yes", 
		 "theory": "DFT", 
		 "functional": "B3LYP", 
		 "basiset": "6-31G**", 
		 "properties": { 
			 "R2extent": 15114.7031, 
			 "electric_dipole_moment_norm": 5.3079494666, 
			 "electric_quadrupole_moment_norm": 34.937335024, 
			 "total_energy": -2262.60450918, 
			 "HOMO_LUMO_gap": 0.1557, 
			 "cosmo_polarized_energy": -23.12, 
			 "cosmo_cavitation_energy": 51.51, 
			 "cosmo_dispersion_energy": -34.94, 
			 "cosmo_repulsion_energy": 2.51, 
			 "cosmo_total_nonelectrostatic_energy": 19.08, 
			 "SMD_solvation_energy": 9.27 
		},
		"coords": [
			{
				"x": -1.9944745219,
				"y": 0.1722077705,
				"z": 3.1094946363,
				"element": "O" 
			},
			{
				"x": -1.0848312528,
				"y": 0.5206358994,
				"z": 2.1687118298,
				"element": "C" 
			},
			{
				"x": -1.0005096324,
				"y": 1.6467712349,
				"z": 1.7350513944,
				"element": "O" 
			},
			{
				"x": -0.1721523596,
				"y": -0.656336387,
				"z": 1.805722359,
				"element": "C" 
			},
			{
				"x": -0.9285261399,
				"y": -2.0039594763,
				"z": 1.668653362,
				"element": "C" 
			},
			{
				"x": -1.8978016965,
				"y": -2.0557112492,
				"z": 0.5202235908,
				"element": "C" 
			},
			{
				"x": -3.2387571456,
				"y": -1.7574021524,
				"z": 0.5736006703,
				"element": "C" 
			},
			{
				"x": -3.8049963069,
				"y": -1.8974143416,
				"z": -0.6773189555,
				"element": "N" 
			},
			{
				"x": -2.8363095187,
				"y": -2.2960741192,
				"z": -1.575448599,
				"element": "C" 
			},
			{
				"x": -1.6137010188,
				"y": -2.4066789425,
				"z": -0.8546905863,
				"element": "C" 
			},
			{
				"x": -0.4546719892,
				"y": -2.8138261495,
				"z": -1.5461952071,
				"element": "C" 
			},
			{
				"x": -0.5442249982,
				"y": -3.0868576137,
				"z": -2.9057457072,
				"element": "C" 
			},
			{
				"x": -1.7670019826,
				"y": -2.9670688912,
				"z": -3.5974650595,
				"element": "C" 
			},
			{
				"x": -2.9281430593,
				"y": -2.5718171621,
				"z": -2.9437382618,
				"element": "C" 
			},
			{
				"x": 0.6004400533,
				"y": -0.321036314,
				"z": 0.6176471579,
				"element": "N" 
			},
			{
				"x": 2.2664333195,
				"y": -0.3956927352,
				"z": 0.6065430907,
				"element": "S" 
			},
			{
				"x": 2.7143429761,
				"y": -1.3777603891,
				"z": -0.3884869536,
				"element": "O" 
			},
			{
				"x": 2.6902339257,
				"y": -0.5067938654,
				"z": 2.0068448545,
				"element": "O" 
			},
			{
				"x": 2.7419927505,
				"y": 1.2171732917,
				"z": -0.0264047122,
				"element": "C" 
			},
			{
				"x": 2.0080081183,
				"y": 2.3575187778,
				"z": 0.2969959697,
				"element": "C" 
			},
			{
				"x": 2.4395889827,
				"y": 3.6094460728,
				"z": -0.1489495879,
				"element": "C" 
			},
			{
				"x": 3.6138473624,
				"y": 3.6914498774,
				"z": -0.9166270338,
				"element": "C" 
			},
			{
				"x": 4.2155803756,
				"y": 5.2220522325,
				"z": -1.5119807525,
				"element": "Cl" 
			},
			{
				"x": 4.3379751653,
				"y": 2.5431885506,
				"z": -1.2396933163,
				"element": "C" 
			},
			{
				"x": 3.9025380116,
				"y": 1.2980249172,
				"z": -0.7955092032,
				"element": "C" 
			},
			{
				"x": 1.6224733207,
				"y": 4.8343875853,
				"z": 0.2046571343,
				"element": "C" 
			},
			{
				"x": 0.5476562713,
				"y": 4.5081704012,
				"z": 0.9478885239,
				"element": "F" 
			},
			{
				"x": 1.1705971527,
				"y": 5.4665842747,
				"z": -0.8982408983,
				"element": "F" 
			},
			{
				"x": 2.3451589131,
				"y": 5.7252829411,
				"z": 0.9145583833,
				"element": "F" 
			},
			{
				"x": -2.4811537693,
				"y": 0.9854944869,
				"z": 3.3267204035,
				"element": "H" 
			},
			{
				"x": 0.5373149599,
				"y": -0.7449179886,
				"z": 2.6372468647,
				"element": "H" 
			},
			{
				"x": -0.1709428296,
				"y": -2.7873606789,
				"z": 1.558979914,
				"element": "H" 
			},
			{
				"x": -1.4491847482,
				"y": -2.1933884169,
				"z": 2.6108810886,
				"element": "H" 
			},
			{
				"x": -3.8379629161,
				"y": -1.4573270623,
				"z": 1.4214833154,
				"element": "H" 
			},
			{
				"x": -4.7770225638,
				"y": -1.7503310971,
				"z": -0.8947170734,
				"element": "H" 
			},
			{
				"x": 0.4991103547,
				"y": -2.9078701655,
				"z": -1.034337383,
				"element": "H" 
			},
			{
				"x": 0.3441746482,
				"y": -3.3984478163,
				"z": -3.4465966235,
				"element": "H" 
			},
			{
				"x": -1.802829996,
				"y": -3.187744387,
				"z": -4.6601455428,
				"element": "H" 
			},
			{
				"x": -3.8707892072,
				"y": -2.4806949921,
				"z": -3.4761214473,
				"element": "H" 
			},
			{
				"x": 0.1841028288,
				"y": -0.5713808582,
				"z": -0.2747395596,
				"element": "H" 
			},
			{
				"x": 1.0862318504,
				"y": 2.2755682989,
				"z": 0.8634079551,
				"element": "H" 
			},
			{
				"x": 5.2353692249,
				"y": 2.6314517072,
				"z": -1.8411074369,
				"element": "H" 
			},
			{
				"x": 4.4477170868,
				"y": 0.3969849311,
				"z": -1.0534525976,
				"element": "H" 
			}
		],
		 "valence_orbital": [ 
			{
				"type": "occ",
				"energy": -0.28584,
				"method": "rhf"
			},
			{
				"type": "occ",
				"energy": -0.27818,
				"method": "rhf"
			},
			{
				"type": "occ",
				"energy": -0.26404,
				"method": "rhf"
			},
			{
				"type": "occ",
				"energy": -0.22918,
				"method": "rhf"
			},
			{
				"type": "occ",
				"energy": -0.21034,
				"method": "rhf"
			},
			{
				"type": "unocc",
				"energy": -0.05464,
				"method": "rhf"
			},
			{
				"type": "unocc",
				"energy": -0.04061,
				"method": "rhf"
			},
			{
				"type": "unocc",
				"energy": -0.01902,
				"method": "rhf"
			},
			{
				"type": "unocc",
				"energy": -0.00836,
				"method": "rhf"
			},
			{
				"type": "unocc",
				"energy": 0.01639,
				"method": "rhf"
			}
		],
		"cosmo_sigma_profile": { 
			"-0.025": 0.0,
			"-0.024": 0.0,
			"-0.023": 0.0,
			"-0.022": 0.0,
			"-0.021": 0.0,
			"-0.02": 0.0,
			"-0.019": 0.194820580302,
			"-0.018": 1.07614253199,
			"-0.017": 0.950219215426,
			"-0.016": 1.66394167906,
			"-0.015": 2.20570342264,
			"-0.014": 1.76785576957,
			"-0.013": 1.98959518416,
			"-0.012": 2.29939747659,
			"-0.011": 2.71127686301,
			"-0.01": 2.24472749484,
			"-0.009": 5.05342736723,
			"-0.008": 9.54284454689,
			"-0.007": 9.50740442315,
			"-0.006": 11.1599669283,
			"-0.005": 20.9730537469,
			"-0.004": 22.4471371645,
			"-0.003": 24.6178861684,
			"-0.002": 29.3364158748,
			"-0.001": 36.0130880625,
			"0.0": 31.3325919983,
			"0.001": 24.417952576,
			"0.002": 37.7891720587,
			"0.003": 39.9043591099,
			"0.004": 23.3494474804,
			"0.005": 16.3094657732,
			"0.006": 14.5935210192,
			"0.007": 11.6874652018,
			"0.008": 6.80519886801,
			"0.009": 6.63016395396,
			"0.01": 9.8749537494,
			"0.011": 6.09179188542,
			"0.012": 0.495380835455,
			"0.013": 0.0,
			"0.014": 0.0,
			"0.015": 0.0,
			"0.016": 0.0,
			"0.017": 0.0,
			"0.018": 0.0,
			"0.019": 0.0,
			"0.02": 0.0,
			"0.021": 0.0,
			"0.022": 0.0,
			"0.023": 0.0,
			"0.024": 0.0,
			"0.025": 0.0
		}
	}
}
